       N       E                     dE             d eps       ncg     rms          ort
DAV:   1     0.283977202068E+04    0.28398E+04   -0.29346E+05 18360   0.141E+03
DAV:   2    -0.970965312221E+03   -0.38107E+04   -0.36735E+04 18360   0.312E+02
DAV:   3    -0.123100317017E+04   -0.26004E+03   -0.25840E+03 18360   0.852E+01
DAV:   4    -0.123404581640E+04   -0.30426E+01   -0.30322E+01 18360   0.981E+00
DAV:   5    -0.123409533498E+04   -0.49519E-01   -0.49410E-01 18360   0.115E+00
SDA:   6    -0.873112810064E+03    0.36098E+03   -0.49410E-01 18360   0.619E+03 0.000E+00
CGA:   7    -0.986055606200E+03   -0.11294E+03   -0.11275E+03 18360   0.442E+02-0.265E+01
CGA:   8    -0.999251251135E+03   -0.13196E+02   -0.13169E+02 18360   0.105E+02 0.220E+00
CGA:   9    -0.100309906247E+04   -0.38478E+01   -0.38493E+01 18360   0.402E+01-0.135E-01
CGA:  10    -0.100436974141E+04   -0.12707E+01   -0.12744E+01 18360   0.867E+00-0.320E-01
CGA:  11    -0.100470429535E+04   -0.33455E+00   -0.33476E+00 18360   0.189E+00-0.102E-02
CGA:  12    -0.100476961693E+04   -0.65322E-01   -0.65310E-01 18360   0.434E-01 0.657E-04
CGA:  13    -0.100478602211E+04   -0.16405E-01   -0.16528E-01 18360   0.997E-02-0.846E-03
CGA:  14    -0.100478974984E+04   -0.37277E-02   -0.36482E-02 18360   0.218E-02 0.589E-03
CGA:  15    -0.100479070606E+04   -0.95622E-03   -0.92542E-03 18360   0.541E-03 0.197E-03
CGA:  16    -0.100479098722E+04   -0.28116E-03   -0.37584E-03 18360   0.395E-03-0.248E-03
CGA:  17    -0.100479105272E+04   -0.65496E-04   -0.65454E-04 18360   0.155E-03 0.789E-06
CGA:  18    -0.100479108086E+04   -0.28138E-04   -0.31350E-04 18360   0.630E-04 0.440E-04
CGA:  19    -0.100479109414E+04   -0.13281E-04   -0.15693E-04 18360   0.327E-04 0.313E-04
CGA:  20    -0.100479110398E+04   -0.98396E-05   -0.10562E-04 18360   0.143E-04 0.141E-04
   1 F= -.10047911E+04 E0= -.10047911E+04  d E =-.100479E+04  mag=     0.0000
       N       E                     dE             d eps       ncg     rms          ort
SDA:   1    -0.100479158539E+04   -0.49125E-03    0.00000E+00 18360   0.589E-03 0.000E+00
CGA:   2    -0.100479179081E+04   -0.20542E-03   -0.20624E-03 18360   0.147E-03-0.101E-04
CGA:   3    -0.100479182696E+04   -0.36149E-04   -0.36295E-04 18360   0.217E-04 0.626E-05
CGA:   4    -0.100479183461E+04   -0.76539E-05   -0.79846E-05 18360   0.593E-05-0.411E-05
   2 F= -.10047918E+04 E0= -.10047918E+04  d E =-.730633E-03  mag=    -0.0000
       N       E                     dE             d eps       ncg     rms          ort
SDA:   1    -0.100478519418E+04    0.66328E-02    0.00000E+00 18360   0.238E-01 0.000E+00
CGA:   2    -0.100479346278E+04   -0.82686E-02   -0.82688E-02 18360   0.548E-02-0.396E-05
CGA:   3    -0.100479493439E+04   -0.14716E-02   -0.14725E-02 18360   0.877E-03 0.463E-04
CGA:   4    -0.100479520820E+04   -0.27381E-03   -0.27516E-03 18360   0.163E-03-0.537E-04
CGA:   5    -0.100479525822E+04   -0.50019E-04   -0.49991E-04 18360   0.416E-04 0.737E-06
CGA:   6    -0.100479527089E+04   -0.12665E-04   -0.12558E-04 18360   0.101E-04 0.924E-05
CGA:   7    -0.100479527679E+04   -0.59082E-05   -0.70753E-05 18360   0.828E-05-0.414E-05
   3 F= -.10047953E+04 E0= -.10047953E+04  d E =-.344218E-02  mag=    -0.0000
       N       E                     dE             d eps       ncg     rms          ort
SDA:   1    -0.100478315574E+04    0.12115E-01    0.00000E+00 18360   0.331E-01 0.000E+00
CGA:   2    -0.100479455452E+04   -0.11399E-01   -0.11398E-01 18360   0.743E-02 0.124E-04
CGA:   3    -0.100479662337E+04   -0.20688E-02   -0.20700E-02 18360   0.118E-02 0.477E-04
CGA:   4    -0.100479698088E+04   -0.35751E-03   -0.35746E-03 18360   0.212E-03-0.672E-04
CGA:   5    -0.100479704614E+04   -0.65267E-04   -0.65212E-04 18360   0.539E-04 0.219E-05
CGA:   6    -0.100479706375E+04   -0.17607E-04   -0.17429E-04 18360   0.134E-04 0.104E-04
CGA:   7    -0.100479707137E+04   -0.76190E-05   -0.10661E-04 18360   0.153E-04-0.842E-05
   4 F= -.10047971E+04 E0= -.10047971E+04  d E =-.179457E-02  mag=    -0.0000
       N       E                     dE             d eps       ncg     rms          ort
SDA:   1    -0.100479634496E+04    0.71879E-03    0.00000E+00 18360   0.259E-02 0.000E+00
CGA:   2    -0.100479722883E+04   -0.88387E-03   -0.88344E-03 18360   0.537E-03 0.173E-04
CGA:   3    -0.100479738429E+04   -0.15546E-03   -0.15559E-03 18360   0.856E-04 0.442E-05
CGA:   4    -0.100479741202E+04   -0.27725E-04   -0.27847E-04 18360   0.218E-04-0.171E-04
CGA:   5    -0.100479741683E+04   -0.48141E-05   -0.48507E-05 18360   0.435E-05 0.953E-06
   5 F= -.10047974E+04 E0= -.10047974E+04  d E =-.345464E-03  mag=    -0.0000
       N       E                     dE             d eps       ncg     rms          ort
SDA:   1    -0.100471910779E+04    0.78304E-01    0.00000E+00 18360   0.190E+00 0.000E+00
CGA:   2    -0.100478595214E+04   -0.66844E-01   -0.66838E-01 18360   0.395E-01 0.115E-03
CGA:   3    -0.100479668380E+04   -0.10732E-01   -0.10733E-01 18360   0.622E-02 0.395E-04
CGA:   4    -0.100479833848E+04   -0.16547E-02   -0.16509E-02 18360   0.937E-03-0.895E-04
CGA:   5    -0.100479864021E+04   -0.30173E-03   -0.30202E-03 18360   0.232E-03-0.137E-04
CGA:   6    -0.100479872305E+04   -0.82842E-04   -0.81782E-04 18360   0.644E-04 0.210E-04
CGA:   7    -0.100479875653E+04   -0.33481E-04   -0.36952E-04 18360   0.350E-04-0.160E-04
CGA:   8    -0.100479876436E+04   -0.78242E-05   -0.78356E-05 18360   0.680E-05 0.506E-06
   6 F= -.10047988E+04 E0= -.10047988E+04  d E =-.134752E-02  mag=     0.0000
       N       E                     dE             d eps       ncg     rms          ort
SDA:   1    -0.100477068914E+04    0.28067E-01    0.00000E+00 18360   0.710E-01 0.000E+00
CGA:   2    -0.100479581030E+04   -0.25121E-01   -0.25125E-01 18360   0.148E-01-0.960E-04
CGA:   3    -0.100479974615E+04   -0.39358E-02   -0.39356E-02 18360   0.236E-02-0.667E-05
CGA:   4    -0.100480033606E+04   -0.58991E-03   -0.59407E-03 18360   0.328E-03 0.671E-04
CGA:   5    -0.100480044627E+04   -0.11021E-03   -0.11016E-03 18360   0.771E-04 0.333E-05
CGA:   6    -0.100480048034E+04   -0.34074E-04   -0.36187E-04 18360   0.369E-04-0.138E-04
CGA:   7    -0.100480048751E+04   -0.71701E-05   -0.77027E-05 18360   0.961E-05 0.814E-05
   7 F= -.10048005E+04 E0= -.10048005E+04  d E =-.172316E-02  mag=    -0.0000
       N       E                     dE             d eps       ncg     rms          ort
SDA:   1    -0.100471839873E+04    0.82082E-01    0.00000E+00 18360   0.192E+00 0.000E+00
CGA:   2    -0.100478980724E+04   -0.71409E-01   -0.71424E-01 18360   0.397E-01-0.217E-03
CGA:   3    -0.100479993184E+04   -0.10125E-01   -0.10127E-01 18360   0.576E-02 0.393E-04
CGA:   4    -0.100480143489E+04   -0.15030E-02   -0.15059E-02 18360   0.879E-03 0.559E-04
CGA:   5    -0.100480172245E+04   -0.28756E-03   -0.28757E-03 18360   0.198E-03-0.732E-08
CGA:   6    -0.100480180130E+04   -0.78847E-04   -0.79583E-04 18360   0.705E-04-0.796E-05
CGA:   7    -0.100480182505E+04   -0.23748E-04   -0.23532E-04 18360   0.167E-04 0.642E-05
CGA:   8    -0.100480183138E+04   -0.63326E-05   -0.62696E-05 18360   0.308E-05 0.216E-05
   8 F= -.10048018E+04 E0= -.10048018E+04  d E =-.134387E-02  mag=    -0.0000
       N       E                     dE             d eps       ncg     rms          ort
SDA:   1    -0.100470414696E+04    0.97678E-01    0.00000E+00 18360   0.230E+00 0.000E+00
CGA:   2    -0.100478774963E+04   -0.83603E-01   -0.83597E-01 18360   0.479E-01 0.156E-03
CGA:   3    -0.100479994548E+04   -0.12196E-01   -0.12186E-01 18360   0.740E-02-0.131E-03
CGA:   4    -0.100480191135E+04   -0.19659E-02   -0.19648E-02 18360   0.110E-02-0.185E-04
CGA:   5    -0.100480225718E+04   -0.34583E-03   -0.34591E-03 18360   0.231E-03 0.153E-04
CGA:   6    -0.100480234916E+04   -0.91977E-04   -0.92049E-04 18360   0.783E-04-0.975E-06
CGA:   7    -0.100480238198E+04   -0.32826E-04   -0.33697E-04 18360   0.277E-04-0.800E-05
CGA:   8    -0.100480239122E+04   -0.92338E-05   -0.93227E-05 18360   0.484E-05-0.196E-05
   9 F= -.10048024E+04 E0= -.10048024E+04  d E =-.559837E-03  mag=    -0.0000
       N       E                     dE             d eps       ncg     rms          ort
SDA:   1    -0.100479246504E+04    0.99169E-02    0.00000E+00 18360   0.258E-01 0.000E+00
CGA:   2    -0.100480165090E+04   -0.91859E-02   -0.91864E-02 18360   0.619E-02-0.171E-04
CGA:   3    -0.100480321440E+04   -0.15635E-02   -0.15660E-02 18360   0.921E-03 0.333E-04
CGA:   4    -0.100480350356E+04   -0.28917E-03   -0.28871E-03 18360   0.168E-03-0.358E-04
CGA:   5    -0.100480355518E+04   -0.51619E-04   -0.51621E-04 18360   0.417E-04 0.706E-06
CGA:   6    -0.100480356828E+04   -0.13100E-04   -0.13164E-04 18360   0.103E-04 0.717E-05
CGA:   7    -0.100480357411E+04   -0.58321E-05   -0.71432E-05 18360   0.877E-05-0.485E-05
  10 F= -.10048036E+04 E0= -.10048036E+04  d E =-.118290E-02  mag=     0.0000
       N       E                     dE             d eps       ncg     rms          ort
SDA:   1    -0.100480195636E+04    0.16119E-02    0.00000E+00 18360   0.402E-02 0.000E+00
CGA:   2    -0.100480347042E+04   -0.15141E-02   -0.15150E-02 18360   0.840E-03-0.199E-04
CGA:   3    -0.100480367941E+04   -0.20899E-03   -0.20934E-03 18360   0.122E-03 0.428E-05
CGA:   4    -0.100480370996E+04   -0.30547E-04   -0.31119E-04 18360   0.173E-04 0.762E-05
CGA:   5    -0.100480371572E+04   -0.57578E-05   -0.57719E-05 18360   0.406E-05 0.130E-05
  11 F= -.10048037E+04 E0= -.10048037E+04  d E =-.141602E-03  mag=     0.0000
       N       E                     dE             d eps       ncg     rms          ort
SDA:   1    -0.100478518381E+04    0.18526E-01    0.00000E+00 18360   0.431E-01 0.000E+00
CGA:   2    -0.100480160346E+04   -0.16420E-01   -0.16420E-01 18360   0.838E-02-0.112E-04
CGA:   3    -0.100480364270E+04   -0.20392E-02   -0.20383E-02 18360   0.123E-02-0.107E-04
CGA:   4    -0.100480395826E+04   -0.31556E-03   -0.31605E-03 18360   0.171E-03 0.637E-05
CGA:   5    -0.100480401001E+04   -0.51753E-04   -0.51858E-04 18360   0.300E-04 0.373E-05
CGA:   6    -0.100480402245E+04   -0.12439E-04   -0.12582E-04 18360   0.115E-04-0.177E-05
CGA:   7    -0.100480402669E+04   -0.42368E-05   -0.42442E-05 18360   0.331E-05-0.120E-06
  12 F= -.10048040E+04 E0= -.10048040E+04  d E =-.310971E-03  mag=    -0.0000
       N       E                     dE             d eps       ncg     rms          ort
SDA:   1    -0.100470100409E+04    0.10302E+00    0.00000E+00 18360   0.234E+00 0.000E+00
CGA:   2    -0.100479183497E+04   -0.90831E-01   -0.90835E-01 18360   0.439E-01-0.646E-04
CGA:   3    -0.100480229913E+04   -0.10464E-01   -0.10463E-01 18360   0.654E-02-0.200E-04
CGA:   4    -0.100480400464E+04   -0.17055E-02   -0.17060E-02 18360   0.918E-03 0.730E-05
CGA:   5    -0.100480428071E+04   -0.27607E-03   -0.27631E-03 18360   0.157E-03 0.876E-05
CGA:   6    -0.100480434229E+04   -0.61588E-04   -0.61753E-04 18360   0.549E-04-0.268E-05
CGA:   7    -0.100480436475E+04   -0.22450E-04   -0.22735E-04 18360   0.184E-04-0.313E-05
CGA:   8    -0.100480437052E+04   -0.57700E-05   -0.57734E-05 18360   0.294E-05 0.192E-05
  13 F= -.10048044E+04 E0= -.10048044E+04  d E =-.343828E-03  mag=    -0.0000
       N       E                     dE             d eps       ncg     rms          ort
SDA:   1    -0.100236434955E+04    0.24400E+01    0.00000E+00 18360   0.550E+01 0.000E+00
CGA:   2    -0.100448926141E+04   -0.21249E+01   -0.21250E+01 18360   0.105E+01-0.105E-02
CGA:   3    -0.100474120931E+04   -0.25195E+00   -0.25193E+00 18360   0.157E+00-0.389E-03
CGA:   4    -0.100478207094E+04   -0.40862E-01   -0.40859E-01 18360   0.224E-01-0.412E-04
CGA:   5    -0.100478897670E+04   -0.69058E-02   -0.69071E-02 18360   0.411E-02 0.673E-04
CGA:   6    -0.100479056463E+04   -0.15879E-02   -0.15886E-02 18360   0.139E-02-0.107E-04
CGA:   7    -0.100479113399E+04   -0.56936E-03   -0.57296E-03 18360   0.444E-03-0.423E-04
CGA:   8    -0.100479129497E+04   -0.16098E-03   -0.16099E-03 18360   0.759E-04-0.207E-06
CGA:   9    -0.100479132196E+04   -0.26992E-04   -0.26973E-04 18360   0.126E-04 0.100E-05
CGA:  10    -0.100479132754E+04   -0.55775E-05   -0.63372E-05 18360   0.522E-05-0.477E-05
  14 F= -.10047913E+04 E0= -.10047913E+04  d E =0.130430E-01  mag=    -0.0000
       N       E                     dE             d eps       ncg     rms          ort
SDA:   1    -0.100436322437E+04    0.42810E+00    0.00000E+00 18360   0.999E+00 0.000E+00
CGA:   2    -0.100474544595E+04   -0.38222E+00   -0.38224E+00 18360   0.204E+00-0.358E-03
CGA:   3    -0.100479439685E+04   -0.48951E-01   -0.48957E-01 18360   0.301E-01 0.356E-04
CGA:   4    -0.100480256209E+04   -0.81652E-02   -0.81655E-02 18360   0.456E-02 0.425E-05
CGA:   5    -0.100480401354E+04   -0.14514E-02   -0.14512E-02 18360   0.976E-03-0.141E-04
CGA:   6    -0.100480437833E+04   -0.36478E-03   -0.36461E-03 18360   0.317E-03 0.448E-05
CGA:   7    -0.100480450244E+04   -0.12411E-03   -0.12392E-03 18360   0.897E-04 0.385E-05
CGA:   8    -0.100480453858E+04   -0.36140E-04   -0.36378E-04 18360   0.180E-04-0.393E-05
CGA:   9    -0.100480454525E+04   -0.66632E-05   -0.67728E-05 18360   0.386E-05-0.214E-05
  15 F= -.10048045E+04 E0= -.10048045E+04  d E =-.132177E-01  mag=     0.0000
       N       E                     dE             d eps       ncg     rms          ort
SDA:   1    -0.100472856719E+04    0.75971E-01    0.00000E+00 18360   0.177E+00 0.000E+00
CGA:   2    -0.100479472256E+04   -0.66155E-01   -0.66160E-01 18360   0.361E-01-0.151E-03
CGA:   3    -0.100480365448E+04   -0.89319E-02   -0.89372E-02 18360   0.543E-02 0.516E-04
CGA:   4    -0.100480509086E+04   -0.14364E-02   -0.14384E-02 18360   0.793E-03 0.262E-04
CGA:   5    -0.100480535109E+04   -0.26024E-03   -0.26009E-03 18360   0.176E-03-0.142E-04
CGA:   6    -0.100480541589E+04   -0.64801E-04   -0.64774E-04 18360   0.560E-04 0.711E-06
CGA:   7    -0.100480543646E+04   -0.20565E-04   -0.20433E-04 18360   0.143E-04 0.526E-05
CGA:   8    -0.100480544284E+04   -0.63798E-05   -0.63908E-05 18360   0.313E-05-0.158E-06
  16 F= -.10048054E+04 E0= -.10048054E+04  d E =-.897594E-03  mag=     0.0000
       N       E                     dE             d eps       ncg     rms          ort
SDA:   1    -0.100480039181E+04    0.50446E-02    0.00000E+00 18360   0.136E-01 0.000E+00
CGA:   2    -0.100480521063E+04   -0.48188E-02   -0.48189E-02 18360   0.312E-02-0.131E-04
CGA:   3    -0.100480601364E+04   -0.80301E-03   -0.80326E-03 18360   0.485E-03 0.256E-05
CGA:   4    -0.100480614936E+04   -0.13572E-03   -0.13630E-03 18360   0.763E-04 0.884E-05
CGA:   5    -0.100480617487E+04   -0.25504E-04   -0.25530E-04 18360   0.196E-04 0.171E-05
CGA:   6    -0.100480618348E+04   -0.86178E-05   -0.88953E-05 18360   0.842E-05-0.276E-05
  17 F= -.10048062E+04 E0= -.10048062E+04  d E =-.740644E-03  mag=     0.0000
       N       E                     dE             d eps       ncg     rms          ort
SDA:   1    -0.100480263883E+04    0.35360E-02    0.00000E+00 18360   0.856E-02 0.000E+00
CGA:   2    -0.100480581051E+04   -0.31717E-02   -0.31708E-02 18360   0.170E-02 0.340E-04
CGA:   3    -0.100480625276E+04   -0.44225E-03   -0.44057E-03 18360   0.263E-03-0.194E-04
CGA:   4    -0.100480632339E+04   -0.70621E-04   -0.69754E-04 18360   0.413E-04-0.119E-04
CGA:   5    -0.100480633398E+04   -0.10593E-04   -0.10849E-04 18360   0.700E-05 0.411E-05
CGA:   6    -0.100480633656E+04   -0.25795E-05   -0.25788E-05 18360   0.229E-05 0.123E-05
  18 F= -.10048063E+04 E0= -.10048063E+04  d E =-.153074E-03  mag=     0.0000
