       N       E                     dE             d eps       ncg     rms          rms(c)
DAV:   1     0.345177749596E+04    0.34518E+04   -0.18833E+05 10368   0.128E+03
DAV:   2    -0.388947069509E+02   -0.34907E+04   -0.33508E+04 13212   0.228E+02
DAV:   3    -0.517246933934E+03   -0.47835E+03   -0.47369E+03 12780   0.929E+01
DAV:   4    -0.540477850640E+03   -0.23231E+02   -0.23061E+02 13200   0.228E+01
DAV:   5    -0.541637902313E+03   -0.11601E+01   -0.11581E+01 15144   0.499E+00    0.622E+01
DAV:   6    -0.523707033395E+03    0.17931E+02   -0.36918E+01 11688   0.698E+00    0.420E+01
DAV:   7    -0.522497740405E+03    0.12093E+01   -0.24998E+01 12720   0.566E+00    0.819E+00
DAV:   8    -0.522003903446E+03    0.49384E+00   -0.32139E+00 11928   0.236E+00    0.562E+00
DAV:   9    -0.522048056952E+03   -0.44154E-01   -0.32634E-01 13416   0.850E-01    0.167E+00
DAV:  10    -0.522049391096E+03   -0.13341E-02   -0.30936E-02 12924   0.271E-01    0.111E+00
DAV:  11    -0.522052852666E+03   -0.34616E-02   -0.45513E-03 12204   0.111E-01    0.728E-01
DAV:  12    -0.522056500611E+03   -0.36479E-02   -0.44587E-03 11148   0.110E-01    0.144E-01
DAV:  13    -0.522056930584E+03   -0.42997E-03   -0.74361E-04 15084   0.381E-02    0.159E-01
DAV:  14    -0.522056984496E+03   -0.53912E-04   -0.79266E-05 12888   0.125E-02    0.109E-01
DAV:  15    -0.522057056775E+03   -0.72279E-04   -0.62343E-05 10272   0.122E-02    0.451E-02
DAV:  16    -0.522057070185E+03   -0.13410E-04   -0.19405E-05  8532   0.664E-03    0.121E-02
DAV:  17    -0.522057074185E+03   -0.39997E-05   -0.65715E-06  6168   0.403E-03
   1 F= -.52205707E+03 E0= -.52205707E+03  d E =-.522057E+03  mag=     0.0058
       N       E                     dE             d eps       ncg     rms          rms(c)
DAV:   1    -0.522057445544E+03   -0.37536E-03   -0.34423E-02 10812   0.256E-01    0.176E-01
DAV:   2    -0.522057672028E+03   -0.22648E-03   -0.27424E-03 13944   0.822E-02    0.600E-02
DAV:   3    -0.522057654048E+03    0.17980E-04   -0.11491E-04 13464   0.185E-02    0.443E-02
DAV:   4    -0.522057647754E+03    0.62944E-05   -0.21595E-05  8424   0.785E-03
   2 F= -.52205765E+03 E0= -.52205765E+03  d E =-.573569E-03  mag=     0.0012
       N       E                     dE             d eps       ncg     rms          rms(c)
DAV:   1    -0.522057641036E+03    0.13012E-04   -0.16489E-02 10704   0.178E-01    0.126E-01
DAV:   2    -0.522057748306E+03   -0.10727E-03   -0.13151E-03 14004   0.565E-02    0.455E-02
DAV:   3    -0.522057739296E+03    0.90102E-05   -0.54393E-05 12048   0.129E-02    0.314E-02
DAV:   4    -0.522057735982E+03    0.33141E-05   -0.12961E-05  6708   0.612E-03
   3 F= -.52205774E+03 E0= -.52205774E+03  d E =-.661797E-03  mag=     0.0002
       N       E                     dE             d eps       ncg     rms          rms(c)
DAV:   1    -0.522057927130E+03   -0.18783E-03   -0.32573E-02 10584   0.252E-01    0.179E-01
DAV:   2    -0.522058108309E+03   -0.18118E-03   -0.28227E-03 14904   0.815E-02    0.601E-02
DAV:   3    -0.522058083307E+03    0.25002E-04   -0.92174E-05 12804   0.156E-02    0.447E-02
DAV:   4    -0.522058072267E+03    0.11040E-04   -0.19392E-05  7728   0.703E-03    0.213E-02
DAV:   5    -0.522058066595E+03    0.56720E-05   -0.10743E-05  6408   0.574E-03
   4 F= -.52205807E+03 E0= -.52205807E+03  d E =-.330613E-03  mag=     0.0000
       N       E                     dE             d eps       ncg     rms          rms(c)
DAV:   1    -0.522058057557E+03    0.14710E-04   -0.61671E-03 10584   0.111E-01    0.819E-02
DAV:   2    -0.522058094017E+03   -0.36460E-04   -0.55094E-04 15324   0.357E-02    0.264E-02
DAV:   3    -0.522058088675E+03    0.53423E-05   -0.15007E-05  8112   0.671E-03    0.172E-02
DAV:   4    -0.522058085644E+03    0.30308E-05   -0.92349E-06  5928   0.481E-03
   5 F= -.52205809E+03 E0= -.52205809E+03  d E =-.349662E-03  mag=     0.0000
       N       E                     dE             d eps       ncg     rms          rms(c)
DAV:   1    -0.522058209854E+03   -0.12118E-03   -0.24640E-02 10560   0.214E-01    0.132E-01
DAV:   2    -0.522058394799E+03   -0.18495E-03   -0.21836E-03 14328   0.729E-02    0.458E-02
DAV:   3    -0.522058379398E+03    0.15401E-04   -0.61423E-05 12624   0.138E-02    0.373E-02
DAV:   4    -0.522058374361E+03    0.50374E-05   -0.16597E-05  6864   0.664E-03
   6 F= -.52205837E+03 E0= -.52205837E+03  d E =-.288717E-03  mag=     0.0000
       N       E                     dE             d eps       ncg     rms          rms(c)
DAV:   1    -0.522058211040E+03    0.16836E-03   -0.40017E-02 10560   0.273E-01    0.169E-01
DAV:   2    -0.522058507851E+03   -0.29681E-03   -0.35489E-03 14424   0.930E-02    0.621E-02
DAV:   3    -0.522058482067E+03    0.25785E-04   -0.10113E-04 12732   0.177E-02    0.500E-02
DAV:   4    -0.522058473613E+03    0.84536E-05   -0.30169E-05  9144   0.886E-03
   7 F= -.52205847E+03 E0= -.52205847E+03  d E =-.387969E-03  mag=     0.0000
       N       E                     dE             d eps       ncg     rms          rms(c)
DAV:   1    -0.522058625072E+03   -0.14301E-03   -0.13815E-02 10560   0.158E-01    0.899E-02
DAV:   2    -0.522058729666E+03   -0.10459E-03   -0.12493E-03 14472   0.530E-02    0.349E-02
DAV:   3    -0.522058722045E+03    0.76210E-05   -0.20983E-05  9000   0.829E-03    0.276E-02
DAV:   4    -0.522058718101E+03    0.39436E-05   -0.14860E-05  6072   0.572E-03
   8 F= -.52205872E+03 E0= -.52205872E+03  d E =-.244488E-03  mag=     0.0000
       N       E                     dE             d eps       ncg     rms          rms(c)
DAV:   1    -0.522058364646E+03    0.35740E-03   -0.12634E-01 10512   0.477E-01    0.275E-01
DAV:   2    -0.522059326158E+03   -0.96151E-03   -0.11417E-02 14640   0.161E-01    0.105E-01
DAV:   3    -0.522059259010E+03    0.67147E-04   -0.20723E-04 12720   0.245E-02    0.862E-02
DAV:   4    -0.522059234233E+03    0.24777E-04   -0.80910E-05 12624   0.125E-02    0.438E-02
DAV:   5    -0.522059226435E+03    0.77979E-05   -0.11772E-05  6444   0.619E-03
   9 F= -.52205923E+03 E0= -.52205923E+03  d E =-.752822E-03  mag=     0.0000
       N       E                     dE             d eps       ncg     rms          rms(c)
DAV:   1    -0.522055665232E+03    0.35690E-02   -0.50471E-01 10392   0.954E-01    0.558E-01
DAV:   2    -0.522059519548E+03   -0.38543E-02   -0.45871E-02 14628   0.322E-01    0.206E-01
DAV:   3    -0.522059253812E+03    0.26574E-03   -0.82949E-04 12672   0.491E-02    0.168E-01
DAV:   4    -0.522059163599E+03    0.90213E-04   -0.32239E-04 12720   0.249E-02    0.843E-02
DAV:   5    -0.522059143473E+03    0.20126E-04   -0.56908E-05 12096   0.119E-02    0.272E-02
DAV:   6    -0.522059139882E+03    0.35910E-05   -0.19380E-05  7992   0.717E-03
  10 F= -.52205914E+03 E0= -.52205914E+03  d E =-.666269E-03  mag=     0.0000
       N       E                     dE             d eps       ncg     rms          rms(c)
DAV:   1    -0.522058344795E+03    0.79868E-03   -0.15007E-01 10512   0.519E-01    0.291E-01
DAV:   2    -0.522059474751E+03   -0.11300E-02   -0.13482E-02 14688   0.175E-01    0.121E-01
DAV:   3    -0.522059394211E+03    0.80540E-04   -0.24107E-04 12672   0.264E-02    0.994E-02
DAV:   4    -0.522059368299E+03    0.25911E-04   -0.96440E-05 12648   0.136E-02    0.509E-02
DAV:   5    -0.522059367365E+03    0.93481E-06   -0.14019E-05  6516   0.661E-03
  11 F= -.52205937E+03 E0= -.52205937E+03  d E =-.893752E-03  mag=     0.0000
       N       E                     dE             d eps       ncg     rms          rms(c)
DAV:   1    -0.522059491648E+03   -0.12335E-03   -0.50352E-03 10560   0.951E-02    0.491E-02
DAV:   2    -0.522059534745E+03   -0.43097E-04   -0.45827E-04 14640   0.324E-02    0.292E-02
DAV:   3    -0.522059532283E+03    0.24621E-05   -0.63734E-06  6384   0.485E-03    0.223E-02
DAV:   4    -0.522059530948E+03    0.13347E-05   -0.85028E-06  5472   0.452E-03
  12 F= -.52205953E+03 E0= -.52205953E+03  d E =-.163583E-03  mag=     0.0000
       N       E                     dE             d eps       ncg     rms          rms(c)
DAV:   1    -0.522059623980E+03   -0.91698E-04   -0.42341E-02 10512   0.278E-01    0.155E-01
DAV:   2    -0.522059964657E+03   -0.34068E-03   -0.38920E-03 14688   0.934E-02    0.580E-02
DAV:   3    -0.522059947079E+03    0.17578E-04   -0.66846E-05 11832   0.140E-02    0.495E-02
DAV:   4    -0.522059942002E+03    0.50766E-05   -0.18479E-05  6720   0.655E-03
  13 F= -.52205994E+03 E0= -.52205994E+03  d E =-.574637E-03  mag=     0.0000
       N       E                     dE             d eps       ncg     rms          rms(c)
DAV:   1    -0.522059190655E+03    0.75642E-03   -0.16797E-01 10476   0.553E-01    0.310E-01
DAV:   2    -0.522060540529E+03   -0.13499E-02   -0.15439E-02 14664   0.186E-01    0.116E-01
DAV:   3    -0.522060469909E+03    0.70620E-04   -0.26836E-04 12456   0.280E-02    0.981E-02
DAV:   4    -0.522060450850E+03    0.19059E-04   -0.86203E-05 12744   0.129E-02    0.549E-02
DAV:   5    -0.522060445268E+03    0.55817E-05   -0.14575E-05  6888   0.671E-03
  14 F= -.52206045E+03 E0= -.52206045E+03  d E =-.107790E-02  mag=     0.0000
       N       E                     dE             d eps       ncg     rms          rms(c)
DAV:   1    -0.522055172902E+03    0.52779E-02   -0.67690E-01 10368   0.111E+00    0.635E-01
DAV:   2    -0.522060632384E+03   -0.54595E-02   -0.62463E-02 14640   0.374E-01    0.227E-01
DAV:   3    -0.522060346547E+03    0.28584E-03   -0.10800E-03 12480   0.563E-02    0.193E-01
DAV:   4    -0.522060272304E+03    0.74243E-04   -0.34829E-04 13080   0.259E-02    0.108E-01
DAV:   5    -0.522060252358E+03    0.19946E-04   -0.63083E-05 11688   0.126E-02    0.395E-02
DAV:   6    -0.522060253050E+03   -0.69231E-06   -0.37989E-05 10920   0.877E-03
  15 F= -.52206025E+03 E0= -.52206025E+03  d E =-.885686E-03  mag=     0.0000
       N       E                     dE             d eps       ncg     rms          rms(c)
DAV:   1    -0.522058596850E+03    0.16555E-02   -0.26188E-01 10404   0.690E-01    0.372E-01
DAV:   2    -0.522060715396E+03   -0.21185E-02   -0.23938E-02 14616   0.233E-01    0.154E-01
DAV:   3    -0.522060601708E+03    0.11369E-03   -0.40585E-04 12444   0.346E-02    0.131E-01
DAV:   4    -0.522060569256E+03    0.32452E-04   -0.13162E-04 13056   0.159E-02    0.754E-02
DAV:   5    -0.522060558648E+03    0.10608E-04   -0.27522E-05  9180   0.842E-03    0.285E-02
DAV:   6    -0.522060558964E+03   -0.31575E-06   -0.18503E-05  6492   0.660E-03
  16 F= -.52206056E+03 E0= -.52206056E+03  d E =-.119160E-02  mag=     0.0000
       N       E                     dE             d eps       ncg     rms          rms(c)
DAV:   1    -0.522060659574E+03   -0.10093E-03   -0.42654E-03 10548   0.878E-02    0.468E-02
DAV:   2    -0.522060687974E+03   -0.28400E-04   -0.37513E-04 15072   0.300E-02    0.258E-02
DAV:   3    -0.522060685114E+03    0.28605E-05   -0.62703E-06  6276   0.479E-03    0.194E-02
DAV:   4    -0.522060684217E+03    0.89670E-06   -0.97326E-06  6072   0.490E-03
  17 F= -.52206068E+03 E0= -.52206068E+03  d E =-.125253E-03  mag=     0.0000
       N       E                     dE             d eps       ncg     rms          rms(c)
DAV:   1    -0.522060708500E+03   -0.23386E-04   -0.38098E-02 10512   0.264E-01    0.151E-01
DAV:   2    -0.522060976040E+03   -0.26754E-03   -0.34606E-03 15024   0.893E-02    0.588E-02
DAV:   3    -0.522060953363E+03    0.22677E-04   -0.73073E-05 12216   0.146E-02    0.487E-02
DAV:   4    -0.522060948138E+03    0.52249E-05   -0.18460E-05  7188   0.685E-03
  18 F= -.52206095E+03 E0= -.52206095E+03  d E =-.389174E-03  mag=     0.0000
       N       E                     dE             d eps       ncg     rms          rms(c)
DAV:   1    -0.522060002105E+03    0.95126E-03   -0.15041E-01 10404   0.525E-01    0.301E-01
DAV:   2    -0.522061068406E+03   -0.10663E-02   -0.13659E-02 15012   0.178E-01    0.118E-01
DAV:   3    -0.522060979110E+03    0.89296E-04   -0.29369E-04 12672   0.292E-02    0.969E-02
DAV:   4    -0.522060957355E+03    0.21755E-04   -0.86467E-05 12816   0.135E-02    0.535E-02
DAV:   5    -0.522060953145E+03    0.42094E-05   -0.15667E-05  8088   0.770E-03
  19 F= -.52206095E+03 E0= -.52206095E+03  d E =-.394181E-03  mag=     0.0000
       N       E                     dE             d eps       ncg     rms          rms(c)
DAV:   1    -0.522060891112E+03    0.66243E-04   -0.21929E-02 10440   0.199E-01    0.112E-01
DAV:   2    -0.522061058959E+03   -0.16785E-03   -0.19848E-03 14832   0.681E-02    0.504E-02
DAV:   3    -0.522061045668E+03    0.13290E-04   -0.38833E-05 10668   0.110E-02    0.411E-02
DAV:   4    -0.522061040482E+03    0.51867E-05   -0.15807E-05  5868   0.601E-03
  20 F= -.52206104E+03 E0= -.52206104E+03  d E =-.481518E-03  mag=    -0.0000
       N       E                     dE             d eps       ncg     rms          rms(c)
DAV:   1    -0.522061117041E+03   -0.71372E-04   -0.48127E-03 10560   0.938E-02    0.626E-02
DAV:   2    -0.522061145604E+03   -0.28563E-04   -0.46249E-04 15060   0.325E-02    0.230E-02
DAV:   3    -0.522061141607E+03    0.39972E-05   -0.78638E-06  6324   0.509E-03    0.165E-02
DAV:   4    -0.522061141188E+03    0.41923E-06   -0.10858E-05  5568   0.477E-03
  21 F= -.52206114E+03 E0= -.52206114E+03  d E =-.100706E-03  mag=    -0.0000
       N       E                     dE             d eps       ncg     rms          rms(c)
DAV:   1    -0.522061131096E+03    0.10511E-04   -0.41215E-02 10440   0.276E-01    0.169E-01
DAV:   2    -0.522061368107E+03   -0.23701E-03   -0.38150E-03 14940   0.934E-02    0.671E-02
DAV:   3    -0.522061337752E+03    0.30355E-04   -0.83520E-05 12552   0.149E-02    0.519E-02
DAV:   4    -0.522061330957E+03    0.67955E-05   -0.28007E-05  8940   0.753E-03
  22 F= -.52206133E+03 E0= -.52206133E+03  d E =-.290475E-03  mag=    -0.0000
       N       E                     dE             d eps       ncg     rms          rms(c)
DAV:   1    -0.522060368124E+03    0.96963E-03   -0.16339E-01 10368   0.550E-01    0.338E-01
DAV:   2    -0.522061310031E+03   -0.94191E-03   -0.15083E-02 14928   0.186E-01    0.135E-01
DAV:   3    -0.522061187517E+03    0.12251E-03   -0.33353E-04 12648   0.296E-02    0.103E-01
DAV:   4    -0.522061155130E+03    0.32387E-04   -0.12404E-04 12648   0.151E-02    0.499E-02
DAV:   5    -0.522061158293E+03   -0.31627E-05   -0.16440E-05  6648   0.688E-03
  23 F= -.52206116E+03 E0= -.52206116E+03  d E =-.117811E-03  mag=    -0.0000
       N       E                     dE             d eps       ncg     rms          rms(c)
DAV:   1    -0.522061065141E+03    0.89989E-04   -0.62579E-02 10368   0.339E-01    0.203E-01
DAV:   2    -0.522061445511E+03   -0.38037E-03   -0.57383E-03 14916   0.115E-01    0.913E-02
DAV:   3    -0.522061397216E+03    0.48294E-04   -0.12151E-04 12552   0.179E-02    0.709E-02
DAV:   4    -0.522061375486E+03    0.21730E-04   -0.50746E-05 12072   0.964E-03    0.339E-02
DAV:   5    -0.522061367350E+03    0.81357E-05   -0.73442E-06  5808   0.451E-03
  24 F= -.52206137E+03 E0= -.52206137E+03  d E =-.326868E-03  mag=    -0.0000
       N       E                     dE             d eps       ncg     rms          rms(c)
DAV:   1    -0.522061357497E+03    0.17989E-04   -0.24095E-03 10536   0.674E-02    0.454E-02
DAV:   2    -0.522061373335E+03   -0.15838E-04   -0.23311E-04 15072   0.229E-02    0.137E-02
DAV:   3    -0.522061371134E+03    0.22003E-05   -0.44135E-06  5904   0.374E-03    0.924E-03
DAV:   4    -0.522061369400E+03    0.17344E-05   -0.42343E-06  5472   0.304E-03
  25 F= -.52206137E+03 E0= -.52206137E+03  d E =-.328918E-03  mag=     0.0000
       N       E                     dE             d eps       ncg     rms          rms(c)
DAV:   1    -0.522061420330E+03   -0.49196E-04   -0.75122E-04 10560   0.380E-02    0.248E-02
DAV:   2    -0.522061426024E+03   -0.56945E-05   -0.67160E-05 12480   0.130E-02    0.119E-02
DAV:   3    -0.522061425600E+03    0.42493E-06   -0.22409E-06  5472   0.296E-03    0.810E-03
DAV:   4    -0.522061425259E+03    0.34059E-06   -0.16375E-06  5472   0.238E-03
  26 F= -.52206143E+03 E0= -.52206143E+03  d E =-.558590E-04  mag=     0.0000
       N       E                     dE             d eps       ncg     rms          rms(c)
DAV:   1    -0.522061493194E+03   -0.67594E-04   -0.67256E-03 10500   0.114E-01    0.736E-02
DAV:   2    -0.522061544944E+03   -0.51750E-04   -0.62420E-04 15264   0.391E-02    0.314E-02
DAV:   3    -0.522061539678E+03    0.52660E-05   -0.15769E-05  8040   0.717E-03    0.234E-02
DAV:   4    -0.522061538452E+03    0.12261E-05   -0.11602E-05  5952   0.548E-03
  27 F= -.52206154E+03 E0= -.52206154E+03  d E =-.169052E-03  mag=    -0.0000
       N       E                     dE             d eps       ncg     rms          rms(c)
DAV:   1    -0.522061326781E+03    0.21290E-03   -0.26796E-02 10452   0.227E-01    0.149E-01
DAV:   2    -0.522061520451E+03   -0.19367E-03   -0.24251E-03 14904   0.770E-02    0.616E-02
DAV:   3    -0.522061501144E+03    0.19307E-04   -0.79486E-05 12912   0.148E-02    0.475E-02
DAV:   4    -0.522061495877E+03    0.52666E-05   -0.16980E-05  7200   0.688E-03
  28 F= -.52206150E+03 E0= -.52206150E+03  d E =-.126477E-03  mag=     0.0000
       N       E                     dE             d eps       ncg     rms          rms(c)
DAV:   1    -0.522061515255E+03   -0.14111E-04   -0.89117E-03 10488   0.130E-01    0.825E-02
DAV:   2    -0.522061577762E+03   -0.62507E-04   -0.80006E-04 14904   0.446E-02    0.372E-02
DAV:   3    -0.522061570484E+03    0.72772E-05   -0.20358E-05  8136   0.823E-03    0.285E-02
DAV:   4    -0.522061567114E+03    0.33699E-05   -0.14135E-05  5496   0.613E-03
  29 F= -.52206157E+03 E0= -.52206157E+03  d E =-.197714E-03  mag=     0.0000
       N       E                     dE             d eps       ncg     rms          rms(c)
DAV:   1    -0.522061612144E+03   -0.41660E-04   -0.66459E-04 10536   0.351E-02    0.253E-02
DAV:   2    -0.522061614138E+03   -0.19942E-05   -0.60704E-05 11520   0.123E-02    0.137E-02
DAV:   3    -0.522061613016E+03    0.11217E-05   -0.25700E-06  5472   0.285E-03    0.866E-03
DAV:   4    -0.522061611153E+03    0.18637E-05   -0.29754E-06  5472   0.262E-03
  30 F= -.52206161E+03 E0= -.52206161E+03  d E =-.440383E-04  mag=    -0.0000
       N       E                     dE             d eps       ncg     rms          rms(c)
DAV:   1    -0.522061716339E+03   -0.10332E-03   -0.56838E-03 10476   0.103E-01    0.685E-02
DAV:   2    -0.522061724724E+03   -0.83847E-05   -0.52059E-04 15096   0.349E-02    0.321E-02
DAV:   3    -0.522061715064E+03    0.96600E-05   -0.13964E-05  7296   0.618E-03    0.226E-02
DAV:   4    -0.522061707801E+03    0.72628E-05   -0.19662E-05  5904   0.605E-03
  31 F= -.52206171E+03 E0= -.52206171E+03  d E =-.140686E-03  mag=    -0.0000
       N       E                     dE             d eps       ncg     rms          rms(c)
DAV:   1    -0.522061778634E+03   -0.63570E-04   -0.22832E-02 10428   0.207E-01    0.138E-01
DAV:   2    -0.522061797290E+03   -0.18656E-04   -0.20580E-03 15072   0.694E-02    0.639E-02
DAV:   3    -0.522061760339E+03    0.36950E-04   -0.67219E-05 12552   0.125E-02    0.460E-02
DAV:   4    -0.522061739225E+03    0.21114E-04   -0.32469E-05  9480   0.778E-03    0.167E-02
DAV:   5    -0.522061731924E+03    0.73014E-05   -0.66693E-06  5904   0.437E-03
  32 F= -.52206173E+03 E0= -.52206173E+03  d E =-.164809E-03  mag=    -0.0000
       N       E                     dE             d eps       ncg     rms          rms(c)
DAV:   1    -0.522061744736E+03   -0.55112E-05   -0.24088E-03 10464   0.667E-02    0.455E-02
DAV:   2    -0.522061742534E+03    0.22027E-05   -0.21409E-04 15048   0.226E-02    0.240E-02
DAV:   3    -0.522061738725E+03    0.38081E-05   -0.56083E-06  5544   0.396E-03    0.168E-02
DAV:   4    -0.522061738616E+03    0.10953E-06   -0.10083E-05  5496   0.429E-03
  33 F= -.52206174E+03 E0= -.52206174E+03  d E =-.171502E-03  mag=    -0.0000
       N       E                     dE             d eps       ncg     rms          rms(c)
DAV:   1    -0.522061803377E+03   -0.64652E-04   -0.13495E-03 10488   0.503E-02    0.319E-02
DAV:   2    -0.522061815796E+03   -0.12419E-04   -0.13230E-04 14388   0.179E-02    0.121E-02
DAV:   3    -0.522061815184E+03    0.61179E-06   -0.29160E-06  5592   0.331E-03    0.874E-03
DAV:   4    -0.522061815127E+03    0.56763E-07   -0.28310E-06  5472   0.271E-03
  34 F= -.52206182E+03 E0= -.52206182E+03  d E =-.765113E-04  mag=    -0.0000
       N       E                     dE             d eps       ncg     rms          rms(c)
DAV:   1    -0.522061878318E+03   -0.63134E-04   -0.12171E-02 10416   0.151E-01    0.934E-02
DAV:   2    -0.522061978378E+03   -0.10006E-03   -0.11927E-03 14916   0.534E-02    0.356E-02
DAV:   3    -0.522061969632E+03    0.87458E-05   -0.28374E-05  9552   0.971E-03    0.266E-02
DAV:   4    -0.522061966621E+03    0.30109E-05   -0.17637E-05  6240   0.650E-03
  35 F= -.52206197E+03 E0= -.52206197E+03  d E =-.228006E-03  mag=     0.0000
       N       E                     dE             d eps       ncg     rms          rms(c)
DAV:   1    -0.522061635300E+03    0.33433E-03   -0.48310E-02 10392   0.302E-01    0.188E-01
DAV:   2    -0.522062022288E+03   -0.38699E-03   -0.46980E-03 14700   0.106E-01    0.708E-02
DAV:   3    -0.522061989995E+03    0.32293E-04   -0.13044E-04 12864   0.196E-02    0.547E-02
DAV:   4    -0.522061980974E+03    0.90215E-05   -0.35059E-05 10308   0.913E-03
  36 F= -.52206198E+03 E0= -.52206198E+03  d E =-.242358E-03  mag=    -0.0000
       N       E                     dE             d eps       ncg     rms          rms(c)
DAV:   1    -0.522061956650E+03    0.33346E-04   -0.84725E-03 10440   0.125E-01    0.813E-02
DAV:   2    -0.522062025784E+03   -0.69135E-04   -0.84637E-04 14736   0.447E-02    0.254E-02
DAV:   3    -0.522062019511E+03    0.62730E-05   -0.17745E-05  8424   0.795E-03    0.191E-02
DAV:   4    -0.522062018188E+03    0.13229E-05   -0.11453E-05  5472   0.532E-03
  37 F= -.52206202E+03 E0= -.52206202E+03  d E =-.279572E-03  mag=     0.0000
       N       E                     dE             d eps       ncg     rms          rms(c)
DAV:   1    -0.522062070358E+03   -0.50847E-04   -0.11267E-03 10488   0.458E-02    0.313E-02
DAV:   2    -0.522062080179E+03   -0.98206E-05   -0.11644E-04 13992   0.164E-02    0.105E-02
DAV:   3    -0.522062079664E+03    0.51416E-06   -0.21645E-06  5472   0.286E-03    0.749E-03
DAV:   4    -0.522062079712E+03   -0.47479E-07   -0.20440E-06  5472   0.232E-03
  38 F= -.52206208E+03 E0= -.52206208E+03  d E =-.615237E-04  mag=     0.0000
       N       E                     dE             d eps       ncg     rms          rms(c)
DAV:   1    -0.522062152676E+03   -0.73011E-04   -0.99344E-03 10416   0.136E-01    0.820E-02
DAV:   2    -0.522062233281E+03   -0.80605E-04   -0.98030E-04 15048   0.476E-02    0.317E-02
DAV:   3    -0.522062226843E+03    0.64382E-05   -0.18434E-05  8160   0.778E-03    0.246E-02
DAV:   4    -0.522062224548E+03    0.22957E-05   -0.13339E-05  5856   0.570E-03
  39 F= -.52206222E+03 E0= -.52206222E+03  d E =-.206359E-03  mag=    -0.0000
       N       E                     dE             d eps       ncg     rms          rms(c)
DAV:   1    -0.522062060910E+03    0.16593E-03   -0.39474E-02 10380   0.272E-01    0.164E-01
DAV:   2    -0.522062376079E+03   -0.31517E-03   -0.38638E-03 15000   0.945E-02    0.627E-02
DAV:   3    -0.522062351696E+03    0.24384E-04   -0.85217E-05 12648   0.155E-02    0.508E-02
DAV:   4    -0.522062343579E+03    0.81171E-05   -0.20155E-05  7296   0.715E-03
  40 F= -.52206234E+03 E0= -.52206234E+03  d E =-.325390E-03  mag=    -0.0000
       N       E                     dE             d eps       ncg     rms          rms(c)
DAV:   1    -0.522062450727E+03   -0.99031E-04   -0.63672E-03 10416   0.110E-01    0.684E-02
DAV:   2    -0.522062504623E+03   -0.53896E-04   -0.62367E-04 14688   0.388E-02    0.252E-02
DAV:   3    -0.522062500285E+03    0.43377E-05   -0.13944E-05  7896   0.712E-03    0.191E-02
DAV:   4    -0.522062499368E+03    0.91700E-06   -0.12099E-05  5928   0.552E-03
  41 F= -.52206250E+03 E0= -.52206250E+03  d E =-.155789E-03  mag=    -0.0000
       N       E                     dE             d eps       ncg     rms          rms(c)
DAV:   1    -0.522062371416E+03    0.12887E-03   -0.31135E-02 10368   0.242E-01    0.155E-01
DAV:   2    -0.522062638318E+03   -0.26690E-03   -0.30237E-03 14592   0.852E-02    0.587E-02
DAV:   3    -0.522062618117E+03    0.20201E-04   -0.80778E-05 12720   0.157E-02    0.458E-02
DAV:   4    -0.522062612988E+03    0.51287E-05   -0.26856E-05  8904   0.813E-03
  42 F= -.52206261E+03 E0= -.52206261E+03  d E =-.269410E-03  mag=     0.0000
       N       E                     dE             d eps       ncg     rms          rms(c)
DAV:   1    -0.522062705644E+03   -0.87527E-04   -0.67369E-03 10416   0.115E-01    0.713E-02
DAV:   2    -0.522062730426E+03   -0.24783E-04   -0.63681E-04 14952   0.386E-02    0.313E-02
DAV:   3    -0.522062723693E+03    0.67339E-05   -0.16098E-05  7512   0.690E-03    0.219E-02
DAV:   4    -0.522062722498E+03    0.11943E-05   -0.12543E-05  5808   0.525E-03
  43 F= -.52206272E+03 E0= -.52206272E+03  d E =-.109510E-03  mag=     0.0000
       N       E                     dE             d eps       ncg     rms          rms(c)
DAV:   1    -0.522062642971E+03    0.80721E-04   -0.55138E-02 10368   0.328E-01    0.199E-01
DAV:   2    -0.522062878775E+03   -0.23580E-03   -0.52187E-03 14952   0.111E-01    0.873E-02
DAV:   3    -0.522062825369E+03    0.53406E-04   -0.14792E-04 12744   0.195E-02    0.662E-02
DAV:   4    -0.522062810429E+03    0.14940E-04   -0.44156E-05 11808   0.934E-03    0.334E-02
DAV:   5    -0.522062811466E+03   -0.10366E-05   -0.96436E-06  6012   0.510E-03
  44 F= -.52206281E+03 E0= -.52206281E+03  d E =-.198477E-03  mag=    -0.0000
       N       E                     dE             d eps       ncg     rms          rms(c)
DAV:   1    -0.522062875514E+03   -0.65085E-04   -0.97328E-03 10404   0.138E-01    0.905E-02
DAV:   2    -0.522062959276E+03   -0.83762E-04   -0.99247E-04 15072   0.488E-02    0.286E-02
DAV:   3    -0.522062952596E+03    0.66799E-05   -0.21870E-05  8532   0.877E-03    0.219E-02
DAV:   4    -0.522062951945E+03    0.65134E-06   -0.15647E-05  5952   0.620E-03
  45 F= -.52206295E+03 E0= -.52206295E+03  d E =-.140479E-03  mag=     0.0000
       N       E                     dE             d eps       ncg     rms          rms(c)
DAV:   1    -0.522062878106E+03    0.74490E-04   -0.16901E-02 10392   0.181E-01    0.119E-01
DAV:   2    -0.522063020337E+03   -0.14223E-03   -0.16921E-03 15000   0.637E-02    0.409E-02
DAV:   3    -0.522063008688E+03    0.11649E-04   -0.41909E-05 10992   0.115E-02    0.318E-02
DAV:   4    -0.522063006629E+03    0.20592E-05   -0.18181E-05  6360   0.663E-03
  46 F= -.52206301E+03 E0= -.52206301E+03  d E =-.195163E-03  mag=    -0.0000
       N       E                     dE             d eps       ncg     rms          rms(c)
DAV:   1    -0.522063099387E+03   -0.90699E-04   -0.50253E-03 10416   0.994E-02    0.632E-02
DAV:   2    -0.522063126087E+03   -0.26700E-04   -0.48161E-04 14976   0.335E-02    0.278E-02
DAV:   3    -0.522063121170E+03    0.49174E-05   -0.12508E-05  7344   0.630E-03    0.192E-02
DAV:   4    -0.522063117901E+03    0.32690E-05   -0.10448E-05  5832   0.503E-03
  47 F= -.52206312E+03 E0= -.52206312E+03  d E =-.111272E-03  mag=    -0.0000
