       N       E                     dE             d eps       ncg     rms          rms(c)
DAV:   1     0.441900686579E+04    0.44190E+04   -0.15521E+05  7800   0.148E+03
DAV:   2     0.466352917934E+03   -0.39527E+04   -0.38127E+04  7264   0.437E+02
DAV:   3    -0.290275200260E+03   -0.75663E+03   -0.71825E+03 10010   0.159E+02
DAV:   4    -0.350213595755E+03   -0.59938E+02   -0.59561E+02  9320   0.474E+01
DAV:   5    -0.351689618312E+03   -0.14760E+01   -0.14735E+01  9728   0.890E+00    0.674E+01
DAV:   6    -0.274035323523E+03    0.77654E+02   -0.45637E+02  9614   0.545E+01    0.373E+01
DAV:   7    -0.274681866141E+03   -0.64654E+00   -0.95193E+01  9856   0.272E+01    0.196E+01
DAV:   8    -0.274818586720E+03   -0.13672E+00   -0.33419E+01  9757   0.150E+01    0.127E+01
DAV:   9    -0.274713120579E+03    0.10547E+00   -0.15014E+01 10037   0.950E+00    0.820E+00
DAV:  10    -0.274129676308E+03    0.58344E+00   -0.22592E+00  9919   0.439E+00    0.359E+00
DAV:  11    -0.274169612914E+03   -0.39937E-01   -0.39020E-01 10240   0.229E+00    0.282E+00
DAV:  12    -0.274208223870E+03   -0.38611E-01   -0.24460E-01 10296   0.154E+00    0.216E+00
DAV:  13    -0.274183948487E+03    0.24275E-01   -0.13692E-01  9992   0.128E+00    0.770E-01
DAV:  14    -0.274185871341E+03   -0.19229E-02   -0.21581E-02 10152   0.494E-01    0.425E-01
DAV:  15    -0.274186836349E+03   -0.96501E-03   -0.83018E-03 10296   0.392E-01    0.199E-01
DAV:  16    -0.274187140115E+03   -0.30377E-03   -0.19018E-03  9952   0.182E-01    0.104E-01
DAV:  17    -0.274187232089E+03   -0.91974E-04   -0.40619E-04  9960   0.703E-02    0.684E-02
DAV:  18    -0.274187280742E+03   -0.48653E-04   -0.13668E-04 10024   0.467E-02    0.388E-02
DAV:  19    -0.274187299341E+03   -0.18598E-04   -0.86247E-05  8656   0.377E-02    0.212E-02
DAV:  20    -0.274187304058E+03   -0.47172E-05   -0.28157E-05  6832   0.188E-02
   1 F= -.27418730E+03 E0= -.27418072E+03  d E =-.274187E+03  mag=     0.0932
       N       E                     dE             d eps       ncg     rms          rms(c)
DAV:   1    -0.274195710578E+03   -0.84112E-02   -0.20663E-03  7680   0.112E-01    0.287E-02
DAV:   2    -0.274195733319E+03   -0.22741E-04   -0.21858E-04  9232   0.381E-02    0.199E-02
DAV:   3    -0.274195736996E+03   -0.36767E-05   -0.22153E-05  6456   0.158E-02    0.194E-02
DAV:   4    -0.274195738556E+03   -0.15598E-05   -0.40592E-06  5016   0.706E-03
   2 F= -.27419574E+03 E0= -.27418900E+03  d E =-.843450E-02  mag=     0.0964
       N       E                     dE             d eps       ncg     rms          rms(c)
DAV:   1    -0.274573604705E+03   -0.37787E+00   -0.77299E+00  7614   0.686E+00    0.159E+00
DAV:   2    -0.274635433316E+03   -0.61829E-01   -0.71462E-01  8219   0.209E+00    0.867E-01
DAV:   3    -0.274632383611E+03    0.30497E-02   -0.39359E-02  9577   0.793E-01    0.554E-01
DAV:   4    -0.274631269587E+03    0.11140E-02   -0.10497E-02 10221   0.362E-01    0.519E-01
DAV:   5    -0.274630346785E+03    0.92280E-03   -0.42934E-03  9993   0.185E-01    0.307E-01
DAV:   6    -0.274630299540E+03    0.47245E-04   -0.32653E-03 10269   0.188E-01    0.150E-01
DAV:   7    -0.274630190079E+03    0.10946E-03   -0.82908E-04  9873   0.102E-01    0.685E-02
DAV:   8    -0.274630209989E+03   -0.19910E-04   -0.12598E-04  9437   0.278E-02    0.578E-02
DAV:   9    -0.274630227399E+03   -0.17410E-04   -0.98991E-05  8965   0.252E-02    0.410E-02
DAV:  10    -0.274630257212E+03   -0.29814E-04   -0.11828E-04  8736   0.241E-02    0.308E-02
DAV:  11    -0.274630275181E+03   -0.17968E-04   -0.35706E-05  7221   0.140E-02    0.280E-02
DAV:  12    -0.274630298149E+03   -0.22969E-04   -0.36925E-05  7128   0.106E-02    0.276E-02
DAV:  13    -0.274630314368E+03   -0.16218E-04   -0.19585E-05  6493   0.710E-03    0.275E-02
DAV:  14    -0.274630352991E+03   -0.38623E-04   -0.90633E-05  8368   0.146E-02    0.274E-02
DAV:  15    -0.274630410992E+03   -0.58002E-04   -0.21575E-04  8813   0.220E-02    0.258E-02
DAV:  16    -0.274630506426E+03   -0.95433E-04   -0.79634E-04  9568   0.414E-02    0.196E-02
DAV:  17    -0.274630554401E+03   -0.47975E-04   -0.35310E-04  9232   0.270E-02    0.171E-02
DAV:  18    -0.274630575854E+03   -0.21453E-04   -0.73226E-04  9416   0.399E-02    0.162E-02
DAV:  19    -0.274630578252E+03   -0.23977E-05   -0.13403E-04  8547   0.276E-02    0.136E-02
DAV:  20    -0.274630580254E+03   -0.20025E-05   -0.97275E-06  5360   0.645E-03
   3 F= -.27463058E+03 E0= -.27462616E+03  d E =-.434842E+00  mag=     0.0038
       N       E                     dE             d eps       ncg     rms          rms(c)
DAV:   1    -0.274868912626E+03   -0.23833E+00   -0.28510E+01  7830   0.152E+01    0.336E+00
DAV:   2    -0.275136041445E+03   -0.26713E+00   -0.30068E+00  7641   0.420E+00    0.159E+00
DAV:   3    -0.275127321294E+03    0.87202E-02   -0.13292E-01  9795   0.142E+00    0.111E+00
DAV:   4    -0.275124074601E+03    0.32467E-02   -0.37401E-02 10186   0.719E-01    0.105E+00
DAV:   5    -0.275120636237E+03    0.34384E-02   -0.15395E-02  9862   0.369E-01    0.556E-01
DAV:   6    -0.275120701294E+03   -0.65057E-04   -0.96415E-03 10298   0.309E-01    0.225E-01
DAV:   7    -0.275120397149E+03    0.30415E-03   -0.24015E-03  9800   0.179E-01    0.124E-01
DAV:   8    -0.275120389435E+03    0.77141E-05   -0.26832E-04  9730   0.501E-02    0.103E-01
DAV:   9    -0.275120372869E+03    0.16566E-04   -0.17383E-04  9744   0.396E-02    0.615E-02
DAV:  10    -0.275120355544E+03    0.17325E-04   -0.14124E-04  9236   0.391E-02    0.260E-02
DAV:  11    -0.275120354933E+03    0.61118E-06   -0.33463E-05  6840   0.217E-02
   4 F= -.27512035E+03 E0= -.27511698E+03  d E =-.489775E+00  mag=     0.0001
       N       E                     dE             d eps       ncg     rms          rms(c)
DAV:   1    -0.275009065962E+03    0.11129E+00   -0.15314E+01  7642   0.149E+01    0.178E+00
DAV:   2    -0.275262978755E+03   -0.25391E+00   -0.27160E+00  7522   0.383E+00    0.883E-01
DAV:   3    -0.275266024101E+03   -0.30453E-02   -0.88264E-02  9936   0.898E-01    0.573E-01
DAV:   4    -0.275265350292E+03    0.67381E-03   -0.15749E-02 10272   0.439E-01    0.499E-01
DAV:   5    -0.275264147148E+03    0.12031E-02   -0.70755E-03 10048   0.273E-01    0.237E-01
DAV:   6    -0.275264340466E+03   -0.19332E-03   -0.23687E-03 10224   0.145E-01    0.161E-01
DAV:   7    -0.275264317372E+03    0.23094E-04   -0.52410E-04  9912   0.993E-02    0.125E-01
DAV:   8    -0.275264313881E+03    0.34912E-05   -0.11899E-04  9386   0.445E-02    0.843E-02
DAV:   9    -0.275264296628E+03    0.17253E-04   -0.15638E-04  9608   0.367E-02    0.329E-02
DAV:  10    -0.275264293815E+03    0.28122E-05   -0.72418E-05  8852   0.265E-02
   5 F= -.27526429E+03 E0= -.27526170E+03  d E =-.143939E+00  mag=     0.0000
       N       E                     dE             d eps       ncg     rms          rms(c)
DAV:   1    -0.274735204547E+03    0.52909E+00   -0.34271E+01  7662   0.241E+01    0.249E+00
DAV:   2    -0.275369070463E+03   -0.63387E+00   -0.67827E+00  7296   0.646E+00    0.144E+00
DAV:   3    -0.275380295332E+03   -0.11225E-01   -0.25272E-01 10056   0.144E+00    0.865E-01
DAV:   4    -0.275378146699E+03    0.21486E-02   -0.31870E-02 10144   0.735E-01    0.788E-01
DAV:   5    -0.275376697501E+03    0.14492E-02   -0.13084E-02 10024   0.353E-01    0.383E-01
DAV:   6    -0.275377307807E+03   -0.61031E-03   -0.49542E-03 10432   0.213E-01    0.257E-01
DAV:   7    -0.275377260717E+03    0.47090E-04   -0.15820E-03 10096   0.167E-01    0.197E-01
DAV:   8    -0.275377233487E+03    0.27229E-04   -0.27915E-04  9642   0.627E-02    0.134E-01
DAV:   9    -0.275377173232E+03    0.60255E-04   -0.32792E-04  9928   0.557E-02    0.547E-02
DAV:  10    -0.275377169022E+03    0.42098E-05   -0.22828E-04  9616   0.454E-02    0.430E-02
DAV:  11    -0.275377168829E+03    0.19374E-06   -0.14118E-05  5344   0.134E-02
   6 F= -.27537717E+03 E0= -.27537507E+03  d E =-.112875E+00  mag=     0.0000
       N       E                     dE             d eps       ncg     rms          rms(c)
DAV:   1    -0.274866657807E+03    0.51051E+00   -0.35947E+01  7544   0.225E+01    0.301E+00
DAV:   2    -0.275437178239E+03   -0.57052E+00   -0.61554E+00  7491   0.642E+00    0.163E+00
DAV:   3    -0.275440792855E+03   -0.36146E-02   -0.23535E-01  9856   0.157E+00    0.104E+00
DAV:   4    -0.275437848762E+03    0.29441E-02   -0.36297E-02 10109   0.794E-01    0.939E-01
DAV:   5    -0.275435730859E+03    0.21179E-02   -0.20910E-02  9554   0.390E-01    0.401E-01
DAV:   6    -0.275436270550E+03   -0.53969E-03   -0.58279E-03 10088   0.240E-01    0.231E-01
DAV:   7    -0.275436245477E+03    0.25073E-04   -0.10682E-03 10224   0.138E-01    0.158E-01
DAV:   8    -0.275436272139E+03   -0.26661E-04   -0.23386E-04  9784   0.597E-02    0.101E-01
DAV:   9    -0.275436195352E+03    0.76786E-04   -0.39316E-04  9808   0.544E-02    0.354E-02
DAV:  10    -0.275436197260E+03   -0.19072E-05   -0.17262E-04  9360   0.392E-02    0.331E-02
DAV:  11    -0.275436196671E+03    0.58920E-06   -0.90839E-06  4800   0.117E-02
   7 F= -.27543620E+03 E0= -.27543403E+03  d E =-.590278E-01  mag=     0.0000
       N       E                     dE             d eps       ncg     rms          rms(c)
DAV:   1    -0.275008191067E+03    0.42801E+00   -0.39352E+01  7526   0.212E+01    0.471E+00
DAV:   2    -0.275483150220E+03   -0.47496E+00   -0.51943E+00  7738   0.620E+00    0.215E+00
DAV:   3    -0.275477548580E+03    0.56016E-02   -0.24169E-01 10046   0.163E+00    0.159E+00
DAV:   4    -0.275472163293E+03    0.53853E-02   -0.51164E-02 10144   0.957E-01    0.135E+00
DAV:   5    -0.275467495476E+03    0.46678E-02   -0.31335E-02  9282   0.433E-01    0.598E-01
DAV:   6    -0.275468104095E+03   -0.60862E-03   -0.79338E-03  9936   0.242E-01    0.270E-01
DAV:   7    -0.275468110467E+03   -0.63722E-05   -0.10939E-03  9996   0.126E-01    0.171E-01
DAV:   8    -0.275468150646E+03   -0.40179E-04   -0.40748E-04 10104   0.747E-02    0.118E-01
DAV:   9    -0.275468070489E+03    0.80157E-04   -0.45998E-04  9888   0.654E-02    0.504E-02
DAV:  10    -0.275468065455E+03    0.50337E-05   -0.19261E-04  9392   0.374E-02    0.329E-02
DAV:  11    -0.275468065232E+03    0.22294E-06   -0.18786E-05  5624   0.147E-02
   8 F= -.27546807E+03 E0= -.27546539E+03  d E =-.318686E-01  mag=     0.0000
       N       E                     dE             d eps       ncg     rms          rms(c)
DAV:   1    -0.275460533175E+03    0.75323E-02   -0.12535E+01  7552   0.833E+00    0.257E+00
DAV:   2    -0.275557605737E+03   -0.97073E-01   -0.11129E+00  8810   0.275E+00    0.129E+00
DAV:   3    -0.275550182315E+03    0.74234E-02   -0.80055E-02  9548   0.126E+00    0.756E-01
DAV:   4    -0.275547779955E+03    0.24024E-02   -0.22728E-02  9816   0.515E-01    0.742E-01
DAV:   5    -0.275545986737E+03    0.17932E-02   -0.86215E-03  9469   0.268E-01    0.373E-01
DAV:   6    -0.275545991132E+03   -0.43955E-05   -0.29490E-03 10176   0.165E-01    0.112E-01
DAV:   7    -0.275545965837E+03    0.25295E-04   -0.73897E-04 10180   0.105E-01    0.748E-02
DAV:   8    -0.275545961045E+03    0.47912E-05   -0.16058E-04  9408   0.456E-02    0.544E-02
DAV:   9    -0.275545951960E+03    0.90858E-05   -0.72086E-05  8660   0.243E-02
   9 F= -.27554595E+03 E0= -.27554377E+03  d E =-.778867E-01  mag=     0.0000
       N       E                     dE             d eps       ncg     rms          rms(c)
DAV:   1    -0.275545892051E+03    0.68995E-04   -0.55703E-01  7552   0.329E+00    0.351E-01
DAV:   2    -0.275555418478E+03   -0.95264E-02   -0.10234E-01  7307   0.825E-01    0.173E-01
DAV:   3    -0.275555567860E+03   -0.14938E-03   -0.33667E-03 10016   0.192E-01    0.119E-01
DAV:   4    -0.275555536301E+03    0.31560E-04   -0.54003E-04 10176   0.920E-02    0.105E-01
DAV:   5    -0.275555509512E+03    0.26789E-04   -0.23125E-04  9738   0.494E-02    0.529E-02
DAV:   6    -0.275555520410E+03   -0.10898E-04   -0.63559E-05  8248   0.231E-02    0.290E-02
DAV:   7    -0.275555521875E+03   -0.14644E-05   -0.15060E-05  5580   0.188E-02
  10 F= -.27555552E+03 E0= -.27555343E+03  d E =-.956992E-02  mag=    -0.0000
       N       E                     dE             d eps       ncg     rms          rms(c)
DAV:   1    -0.275233237347E+03    0.32228E+00   -0.25268E+01  7600   0.178E+01    0.329E+00
DAV:   2    -0.275553450793E+03   -0.32021E+00   -0.35022E+00  8046   0.505E+00    0.181E+00
DAV:   3    -0.275549301509E+03    0.41493E-02   -0.18849E-01  9852   0.142E+00    0.116E+00
DAV:   4    -0.275544996929E+03    0.43046E-02   -0.34471E-02 10160   0.775E-01    0.101E+00
DAV:   5    -0.275542220558E+03    0.27764E-02   -0.19746E-02  8962   0.332E-01    0.450E-01
DAV:   6    -0.275542551883E+03   -0.33132E-03   -0.42763E-03  9936   0.161E-01    0.233E-01
DAV:   7    -0.275542619875E+03   -0.67993E-04   -0.52221E-04  9666   0.787E-02    0.149E-01
DAV:   8    -0.275542630891E+03   -0.11016E-04   -0.24784E-04  9968   0.630E-02    0.988E-02
DAV:   9    -0.275542580730E+03    0.50161E-04   -0.30955E-04 10190   0.610E-02    0.401E-02
DAV:  10    -0.275542580507E+03    0.22237E-06   -0.11680E-04  8952   0.272E-02    0.252E-02
DAV:  11    -0.275542580347E+03    0.15998E-06   -0.61854E-06  4692   0.828E-03
  11 F= -.27554258E+03 E0= -.27554044E+03  d E =0.129415E-01  mag=     0.0000
       N       E                     dE             d eps       ncg     rms          rms(c)
DAV:   1    -0.275381670522E+03    0.16091E+00   -0.18459E+01  7702   0.143E+01    0.290E+00
DAV:   2    -0.275592031928E+03   -0.21036E+00   -0.23296E+00  7433   0.385E+00    0.126E+00
DAV:   3    -0.275588257753E+03    0.37742E-02   -0.11205E-01 10079   0.132E+00    0.843E-01
DAV:   4    -0.275585936187E+03    0.23216E-02   -0.33684E-02 10280   0.600E-01    0.809E-01
DAV:   5    -0.275583776277E+03    0.21599E-02   -0.90014E-03  9604   0.323E-01    0.418E-01
DAV:   6    -0.275583696153E+03    0.80124E-04   -0.40352E-03 10024   0.175E-01    0.163E-01
DAV:   7    -0.275583685358E+03    0.10796E-04   -0.11739E-03  9988   0.123E-01    0.142E-01
DAV:   8    -0.275583671281E+03    0.14077E-04   -0.20089E-04  9728   0.516E-02    0.102E-01
DAV:   9    -0.275583654168E+03    0.17113E-04   -0.15007E-04  9612   0.355E-02    0.574E-02
DAV:  10    -0.275583643116E+03    0.11052E-04   -0.11231E-04  9024   0.270E-02    0.240E-02
DAV:  11    -0.275583644004E+03   -0.88721E-06   -0.16717E-05  5068   0.127E-02
  12 F= -.27558364E+03 E0= -.27558175E+03  d E =-.410637E-01  mag=    -0.0000
       N       E                     dE             d eps       ncg     rms          rms(c)
DAV:   1    -0.275576192687E+03    0.74504E-02   -0.18106E+00  7456   0.454E+00    0.817E-01
DAV:   2    -0.275599893568E+03   -0.23701E-01   -0.25942E-01  7851   0.131E+00    0.472E-01
DAV:   3    -0.275599567554E+03    0.32601E-03   -0.14404E-02 10009   0.379E-01    0.267E-01
DAV:   4    -0.275599295237E+03    0.27232E-03   -0.31270E-03 10240   0.209E-01    0.243E-01
DAV:   5    -0.275599037986E+03    0.25725E-03   -0.12601E-03  9506   0.996E-02    0.119E-01
DAV:   6    -0.275599048061E+03   -0.10075E-04   -0.33644E-04 10160   0.489E-02    0.679E-02
DAV:   7    -0.275599051081E+03   -0.30197E-05   -0.71137E-05  8842   0.309E-02
  13 F= -.27559905E+03 E0= -.27559711E+03  d E =-.154071E-01  mag=     0.0000
       N       E                     dE             d eps       ncg     rms          rms(c)
DAV:   1    -0.275596813834E+03    0.22342E-02   -0.25204E-01  7452   0.195E+00    0.290E-01
DAV:   2    -0.275600520874E+03   -0.37070E-02   -0.40074E-02  7500   0.531E-01    0.129E-01
DAV:   3    -0.275600568506E+03   -0.47632E-04   -0.15226E-03 10414   0.130E-01    0.876E-02
DAV:   4    -0.275600551635E+03    0.16871E-04   -0.30995E-04 10104   0.706E-02    0.750E-02
DAV:   5    -0.275600530876E+03    0.20758E-04   -0.11519E-04  9034   0.362E-02    0.392E-02
DAV:   6    -0.275600534282E+03   -0.34062E-05   -0.35094E-05  7472   0.157E-02
  14 F= -.27560053E+03 E0= -.27559861E+03  d E =-.148320E-02  mag=     0.0000
       N       E                     dE             d eps       ncg     rms          rms(c)
DAV:   1    -0.275484314027E+03    0.11622E+00   -0.72009E+00  7416   0.106E+01    0.133E+00
DAV:   2    -0.275596155709E+03   -0.11184E+00   -0.11968E+00  7344   0.281E+00    0.583E-01
DAV:   3    -0.275597851886E+03   -0.16962E-02   -0.35104E-02  9832   0.602E-01    0.442E-01
DAV:   4    -0.275597637859E+03    0.21403E-03   -0.50175E-03 10064   0.277E-01    0.366E-01
DAV:   5    -0.275597307716E+03    0.33014E-03   -0.36238E-03  9556   0.198E-01    0.157E-01
DAV:   6    -0.275597406892E+03   -0.99176E-04   -0.66394E-04  9456   0.710E-02    0.704E-02
DAV:   7    -0.275597424617E+03   -0.17726E-04   -0.12399E-04 10068   0.474E-02    0.515E-02
DAV:   8    -0.275597415714E+03    0.89032E-05   -0.59045E-05  8800   0.338E-02
  15 F= -.27559742E+03 E0= -.27559560E+03  d E =0.311857E-02  mag=     0.0000
       N       E                     dE             d eps       ncg     rms          rms(c)
DAV:   1    -0.275220066849E+03    0.37736E+00   -0.19195E+01  7340   0.187E+01    0.204E+00
DAV:   2    -0.275569065457E+03   -0.34900E+00   -0.37213E+00  7280   0.496E+00    0.916E-01
DAV:   3    -0.275576764582E+03   -0.76991E-02   -0.11239E-01 10088   0.997E-01    0.690E-01
DAV:   4    -0.275576493641E+03    0.27094E-03   -0.10893E-02 10144   0.434E-01    0.558E-01
DAV:   5    -0.275576112268E+03    0.38137E-03   -0.80165E-03  9904   0.323E-01    0.245E-01
DAV:   6    -0.275576380323E+03   -0.26806E-03   -0.16519E-03  9968   0.132E-01    0.105E-01
DAV:   7    -0.275576396670E+03   -0.16347E-04   -0.46310E-04 10128   0.872E-02    0.808E-02
DAV:   8    -0.275576378501E+03    0.18169E-04   -0.17665E-04  9956   0.573E-02    0.471E-02
DAV:   9    -0.275576369994E+03    0.85069E-05   -0.65939E-05  8400   0.231E-02
  16 F= -.27557637E+03 E0= -.27557467E+03  d E =0.210457E-01  mag=     0.0000
       N       E                     dE             d eps       ncg     rms          rms(c)
DAV:   1    -0.275035586854E+03    0.54079E+00   -0.35860E+01  7696   0.211E+01    0.413E+00
DAV:   2    -0.275464238355E+03   -0.42865E+00   -0.47680E+00  7834   0.580E+00    0.190E+00
DAV:   3    -0.275456331727E+03    0.79066E-02   -0.20403E-01  9920   0.187E+00    0.124E+00
DAV:   4    -0.275452780711E+03    0.35510E-02   -0.57953E-02 10224   0.876E-01    0.117E+00
DAV:   5    -0.275448762241E+03    0.40185E-02   -0.22263E-02  9574   0.527E-01    0.568E-01
DAV:   6    -0.275449068123E+03   -0.30588E-03   -0.69807E-03 10208   0.215E-01    0.233E-01
DAV:   7    -0.275449077252E+03   -0.91293E-05   -0.12668E-03  9750   0.125E-01    0.191E-01
DAV:   8    -0.275449074405E+03    0.28477E-05   -0.35834E-04  9936   0.734E-02    0.130E-01
DAV:   9    -0.275449041449E+03    0.32956E-04   -0.33127E-04 10190   0.690E-02    0.692E-02
DAV:  10    -0.275449022133E+03    0.19316E-04   -0.25971E-04  9336   0.459E-02    0.330E-02
DAV:  11    -0.275449023488E+03   -0.13556E-05   -0.29845E-05  6448   0.166E-02
  17 F= -.27544902E+03 E0= -.27544770E+03  d E =0.127347E+00  mag=     0.0000
       N       E                     dE             d eps       ncg     rms          rms(c)
DAV:   1    -0.275467084615E+03   -0.18062E-01   -0.54985E+00  7532   0.842E+00    0.147E+00
DAV:   2    -0.275544441680E+03   -0.77357E-01   -0.85528E-01  8090   0.254E+00    0.906E-01
DAV:   3    -0.275543147559E+03    0.12941E-02   -0.49867E-02  9836   0.757E-01    0.516E-01
DAV:   4    -0.275542316872E+03    0.83069E-03   -0.10111E-02 10192   0.428E-01    0.481E-01
DAV:   5    -0.275541549813E+03    0.76706E-03   -0.44562E-03  9746   0.195E-01    0.238E-01
DAV:   6    -0.275541590047E+03   -0.40234E-04   -0.12664E-03 10112   0.105E-01    0.131E-01
DAV:   7    -0.275541592248E+03   -0.22011E-05   -0.29800E-04 10100   0.680E-02    0.103E-01
DAV:   8    -0.275541590209E+03    0.20398E-05   -0.94523E-05  9184   0.391E-02
  18 F= -.27554159E+03 E0= -.27554015E+03  d E =-.925667E-01  mag=     0.0000
       N       E                     dE             d eps       ncg     rms          rms(c)
DAV:   1    -0.275537973754E+03    0.36185E-02   -0.23488E+00  7494   0.509E+00    0.983E-01
DAV:   2    -0.275567519034E+03   -0.29545E-01   -0.32977E-01  8250   0.156E+00    0.576E-01
DAV:   3    -0.275566892639E+03    0.62640E-03   -0.19887E-02  9736   0.493E-01    0.322E-01
DAV:   4    -0.275566517950E+03    0.37469E-03   -0.43993E-03 10160   0.270E-01    0.302E-01
DAV:   5    -0.275566212100E+03    0.30585E-03   -0.18075E-03  9634   0.122E-01    0.149E-01
DAV:   6    -0.275566230847E+03   -0.18747E-04   -0.52712E-04 10192   0.705E-02    0.778E-02
DAV:   7    -0.275566231510E+03   -0.66310E-06   -0.12702E-04  9567   0.454E-02    0.608E-02
DAV:   8    -0.275566231061E+03    0.44919E-06   -0.34920E-05  7056   0.258E-02
  19 F= -.27556623E+03 E0= -.27556468E+03  d E =-.246409E-01  mag=     0.0000
       N       E                     dE             d eps       ncg     rms          rms(c)
DAV:   1    -0.275566153932E+03    0.77578E-04   -0.84383E-02  7550   0.930E-01    0.190E-01
DAV:   2    -0.275567145588E+03   -0.99166E-03   -0.11106E-02  8384   0.284E-01    0.105E-01
DAV:   3    -0.275567118415E+03    0.27173E-04   -0.62523E-04  9708   0.990E-02    0.569E-02
DAV:   4    -0.275567106346E+03    0.12069E-04   -0.16119E-04  9728   0.511E-02    0.554E-02
DAV:   5    -0.275567096919E+03    0.94272E-05   -0.67330E-05  8426   0.251E-02
  20 F= -.27556710E+03 E0= -.27556553E+03  d E =-.865858E-03  mag=    -0.0000
       N       E                     dE             d eps       ncg     rms          rms(c)
DAV:   1    -0.275564151176E+03    0.29552E-02   -0.19108E-01  7520   0.167E+00    0.252E-01
DAV:   2    -0.275566805330E+03   -0.26542E-02   -0.29127E-02  7656   0.471E-01    0.147E-01
DAV:   3    -0.275566773280E+03    0.32050E-04   -0.13347E-03  9972   0.140E-01    0.845E-02
DAV:   4    -0.275566754071E+03    0.19210E-04   -0.31132E-04  9936   0.717E-02    0.822E-02
DAV:   5    -0.275566734370E+03    0.19700E-04   -0.16631E-04  9300   0.399E-02    0.339E-02
DAV:   6    -0.275566736153E+03   -0.17827E-05   -0.31491E-05  6576   0.179E-02
  21 F= -.27556674E+03 E0= -.27556515E+03  d E =0.360766E-03  mag=    -0.0000
       N       E                     dE             d eps       ncg     rms          rms(c)
DAV:   1    -0.275566603576E+03    0.13079E-03   -0.30927E-02  7414   0.775E-01    0.836E-02
DAV:   2    -0.275567185052E+03   -0.58148E-03   -0.61964E-03  7396   0.209E-01    0.448E-02
DAV:   3    -0.275567197445E+03   -0.12393E-04   -0.22013E-04  9978   0.476E-02    0.301E-02
DAV:   4    -0.275567196166E+03    0.12787E-05   -0.24650E-05  7120   0.222E-02
  22 F= -.27556720E+03 E0= -.27556560E+03  d E =-.460014E-03  mag=     0.0000
       N       E                     dE             d eps       ncg     rms          rms(c)
DAV:   1    -0.275558015930E+03    0.91815E-02   -0.67669E-01  7344   0.348E+00    0.404E-01
DAV:   2    -0.275569613584E+03   -0.11598E-01   -0.12345E-01  7402   0.942E-01    0.189E-01
DAV:   3    -0.275569822414E+03   -0.20883E-03   -0.40104E-03 10254   0.205E-01    0.142E-01
DAV:   4    -0.275569795661E+03    0.26753E-04   -0.43785E-04 10112   0.846E-02    0.120E-01
DAV:   5    -0.275569759988E+03    0.35673E-04   -0.33907E-04  9674   0.618E-02    0.509E-02
DAV:   6    -0.275569771157E+03   -0.11169E-04   -0.61182E-05  8256   0.215E-02    0.211E-02
DAV:   7    -0.275569772595E+03   -0.14377E-05   -0.83316E-06  4912   0.151E-02
  23 F= -.27556977E+03 E0= -.27556818E+03  d E =-.257643E-02  mag=     0.0000
       N       E                     dE             d eps       ncg     rms          rms(c)
DAV:   1    -0.275530983307E+03    0.38788E-01   -0.18966E+00  7312   0.628E+00    0.620E-01
DAV:   2    -0.275568616013E+03   -0.37633E-01   -0.39875E-01  7280   0.165E+00    0.277E-01
DAV:   3    -0.275569544805E+03   -0.92879E-03   -0.12716E-02 10528   0.318E-01    0.207E-01
DAV:   4    -0.275569458045E+03    0.86760E-04   -0.61353E-04 10192   0.833E-02    0.145E-01
DAV:   5    -0.275569477024E+03   -0.18979E-04   -0.65107E-04 10368   0.102E-01    0.811E-02
DAV:   6    -0.275569474606E+03    0.24174E-05   -0.27340E-04  9860   0.652E-02    0.411E-02
DAV:   7    -0.275569474938E+03   -0.33213E-06   -0.31297E-05  6688   0.192E-02
  24 F= -.27556947E+03 E0= -.27556789E+03  d E =0.297657E-03  mag=     0.0000
       N       E                     dE             d eps       ncg     rms          rms(c)
DAV:   1    -0.275548819487E+03    0.20655E-01   -0.94967E-01  7424   0.460E+00    0.468E-01
DAV:   2    -0.275567362358E+03   -0.18543E-01   -0.19787E-01  7280   0.118E+00    0.200E-01
DAV:   3    -0.275567799346E+03   -0.43699E-03   -0.64143E-03 10416   0.231E-01    0.147E-01
DAV:   4    -0.275567750629E+03    0.48717E-04   -0.44235E-04 10080   0.729E-02    0.109E-01
DAV:   5    -0.275567745627E+03    0.50020E-05   -0.36478E-04 10272   0.716E-02    0.662E-02
DAV:   6    -0.275567746293E+03   -0.66577E-06   -0.17560E-04  9888   0.463E-02    0.338E-02
DAV:   7    -0.275567747029E+03   -0.73678E-06   -0.22951E-05  5920   0.165E-02
  25 F= -.27556775E+03 E0= -.27556618E+03  d E =0.172791E-02  mag=     0.0000
       N       E                     dE             d eps       ncg     rms          rms(c)
DAV:   1    -0.275563516540E+03    0.42298E-02   -0.17205E-01  7504   0.176E+00    0.213E-01
DAV:   2    -0.275566378111E+03   -0.28616E-02   -0.30653E-02  7472   0.471E-01    0.109E-01
DAV:   3    -0.275566416662E+03   -0.38551E-04   -0.11218E-03 10238   0.114E-01    0.791E-02
DAV:   4    -0.275566405421E+03    0.11241E-04   -0.15684E-04  9770   0.517E-02    0.678E-02
DAV:   5    -0.275566392186E+03    0.13235E-04   -0.87717E-05  9108   0.322E-02    0.352E-02
DAV:   6    -0.275566394266E+03   -0.20801E-05   -0.22224E-05  5402   0.147E-02
  26 F= -.27556639E+03 E0= -.27556483E+03  d E =0.135276E-02  mag=     0.0000
