       N       E                     dE             d eps       ncg     rms          ort
DAV:   1     0.284158954994E+04    0.28416E+04   -0.29407E+05  2880   0.141E+03
DAV:   2    -0.969708882511E+03   -0.38113E+04   -0.36721E+04  2880   0.313E+02
DAV:   3    -0.122932882978E+04   -0.25962E+03   -0.25800E+03  2880   0.852E+01
DAV:   4    -0.123236283179E+04   -0.30340E+01   -0.30237E+01  2880   0.980E+00
DAV:   5    -0.123241230667E+04   -0.49475E-01   -0.49372E-01  2880   0.115E+00
SDA:   6    -0.870905980053E+03    0.36151E+03   -0.49372E-01  2880   0.621E+03 0.000E+00
CGA:   7    -0.984268662621E+03   -0.11336E+03   -0.11317E+03  2880   0.443E+02-0.267E+01
CGA:   8    -0.997474139829E+03   -0.13205E+02   -0.13178E+02  2880   0.106E+02 0.229E+00
CGA:   9    -0.100133576118E+04   -0.38616E+01   -0.38630E+01  2880   0.402E+01-0.134E-01
CGA:  10    -0.100261306549E+04   -0.12773E+01   -0.12812E+01  2880   0.875E+00-0.331E-01
CGA:  11    -0.100294890175E+04   -0.33584E+00   -0.33595E+00  2880   0.190E+00-0.481E-03
CGA:  12    -0.100301474336E+04   -0.65842E-01   -0.65832E-01  2880   0.433E-01 0.411E-04
CGA:  13    -0.100303109509E+04   -0.16352E-01   -0.16474E-01  2880   0.995E-02-0.841E-03
CGA:  14    -0.100303481620E+04   -0.37211E-02   -0.36446E-02  2880   0.218E-02 0.566E-03
CGA:  15    -0.100303576932E+04   -0.95313E-03   -0.92276E-03  2880   0.537E-03 0.195E-03
CGA:  16    -0.100303604542E+04   -0.27610E-03   -0.38084E-03  2880   0.420E-03-0.265E-03
CGA:  17    -0.100303610797E+04   -0.62545E-04   -0.62566E-04  2880   0.178E-03-0.154E-05
CGA:  18    -0.100303613883E+04   -0.30865E-04   -0.34628E-04  2880   0.716E-04 0.474E-04
CGA:  19    -0.100303615304E+04   -0.14205E-04   -0.17092E-04  2880   0.384E-04 0.351E-04
CGA:  20    -0.100303616377E+04   -0.10731E-04   -0.11804E-04  2880   0.177E-04 0.178E-04
CGA:  21    -0.100303617185E+04   -0.80790E-05   -0.82326E-05  2880   0.922E-05-0.284E-05
   1 F= -.10030362E+04 E0= -.10030362E+04  d E =-.100304E+04  mag=    -0.0000
       N       E                     dE             d eps       ncg     rms          ort
SDA:   1    -0.100307383344E+04   -0.37670E-01    0.00000E+00  2880   0.599E-02 0.000E+00
CGA:   2    -0.100307611506E+04   -0.22816E-02   -0.22753E-02  2880   0.118E-02 0.569E-04
CGA:   3    -0.100307642670E+04   -0.31164E-03   -0.31147E-03  2880   0.191E-03-0.134E-04
CGA:   4    -0.100307647845E+04   -0.51750E-04   -0.51757E-04  2880   0.348E-04-0.979E-05
CGA:   5    -0.100307648896E+04   -0.10508E-04   -0.10472E-04  2880   0.811E-05 0.828E-06
CGA:   6    -0.100307649167E+04   -0.27108E-05   -0.26340E-05  2880   0.216E-05 0.186E-05
   2 F= -.10030765E+04 E0= -.10030765E+04  d E =-.403198E-01  mag=    -0.0000
       N       E                     dE             d eps       ncg     rms          ort
SDA:   1    -0.100194560615E+04    0.11309E+01    0.00000E+00  2880   0.435E+01 0.000E+00
CGA:   2    -0.100359620946E+04   -0.16506E+01   -0.16491E+01  2880   0.863E+00 0.114E-01
CGA:   3    -0.100381791456E+04   -0.22171E+00   -0.22165E+00  2880   0.147E+00-0.488E-03
CGA:   4    -0.100385722367E+04   -0.39309E-01   -0.39305E-01  2880   0.279E-01-0.127E-03
CGA:   5    -0.100386702959E+04   -0.98059E-02   -0.97999E-02  2880   0.825E-02 0.988E-04
CGA:   6    -0.100387037946E+04   -0.33499E-02   -0.33408E-02  2880   0.253E-02 0.864E-04
CGA:   7    -0.100387136209E+04   -0.98263E-03   -0.98534E-03  2880   0.584E-03-0.347E-04
CGA:   8    -0.100387156400E+04   -0.20191E-03   -0.20240E-03  2880   0.991E-04-0.120E-04
CGA:   9    -0.100387160009E+04   -0.36085E-04   -0.36304E-04  2880   0.190E-04-0.356E-05
CGA:  10    -0.100387160651E+04   -0.64214E-05   -0.63670E-05  2880   0.360E-05 0.172E-05
   3 F= -.10038716E+04 E0= -.10038716E+04  d E =-.795115E+00  mag=     0.0000
       N       E                     dE             d eps       ncg     rms          ort
SDA:   1    -0.100200549522E+04    0.18661E+01    0.00000E+00  2880   0.549E+01 0.000E+00
CGA:   2    -0.100405027302E+04   -0.20448E+01   -0.20445E+01  2880   0.112E+01-0.866E-03
CGA:   3    -0.100431805989E+04   -0.26779E+00   -0.26817E+00  2880   0.187E+00-0.790E-04
CGA:   4    -0.100436918998E+04   -0.51130E-01   -0.51118E-01  2880   0.301E-01-0.801E-04
CGA:   5    -0.100437950156E+04   -0.10312E-01   -0.10310E-01  2880   0.803E-02 0.547E-04
CGA:   6    -0.100438272095E+04   -0.32194E-02   -0.32181E-02  2880   0.264E-02 0.130E-04
CGA:   7    -0.100438372326E+04   -0.10023E-02   -0.10013E-02  2880   0.648E-03 0.207E-04
CGA:   8    -0.100438396157E+04   -0.23830E-03   -0.23928E-03  2880   0.128E-03-0.283E-04
CGA:   9    -0.100438400557E+04   -0.44003E-04   -0.44072E-04  2880   0.227E-04-0.272E-05
CGA:  10    -0.100438401400E+04   -0.84273E-05   -0.84143E-05  2880   0.489E-05 0.307E-06
   4 F= -.10043840E+04 E0= -.10043840E+04  d E =-.512407E+00  mag=     0.0000
       N       E                     dE             d eps       ncg     rms          ort
SDA:   1    -0.100318023822E+04    0.12038E+01    0.00000E+00  2880   0.327E+01 0.000E+00
CGA:   2    -0.100436295732E+04   -0.11827E+01   -0.11829E+01  2880   0.689E+00-0.488E-02
CGA:   3    -0.100453375151E+04   -0.17079E+00   -0.17095E+00  2880   0.107E+00-0.356E-03
CGA:   4    -0.100456231592E+04   -0.28564E-01   -0.28580E-01  2880   0.149E-01 0.244E-03
CGA:   5    -0.100456706318E+04   -0.47473E-02   -0.47483E-02  2880   0.332E-02 0.664E-04
CGA:   6    -0.100456836892E+04   -0.13057E-02   -0.13114E-02  2880   0.114E-02-0.958E-04
CGA:   7    -0.100456877235E+04   -0.40343E-03   -0.40175E-03  2880   0.278E-03 0.664E-04
CGA:   8    -0.100456888876E+04   -0.11640E-03   -0.11653E-03  2880   0.553E-04-0.204E-05
CGA:   9    -0.100456891169E+04   -0.22933E-04   -0.24095E-04  2880   0.154E-04-0.119E-04
CGA:  10    -0.100456891476E+04   -0.30684E-05   -0.32515E-05  2880   0.292E-05 0.238E-05
   5 F= -.10045689E+04 E0= -.10045689E+04  d E =-.184901E+00  mag=    -0.0000
       N       E                     dE             d eps       ncg     rms          ort
SDA:   1    -0.100293913147E+04    0.16298E+01    0.00000E+00  2880   0.416E+01 0.000E+00
CGA:   2    -0.100441236144E+04   -0.14732E+01   -0.14734E+01  2880   0.839E+00-0.455E-02
CGA:   3    -0.100463336860E+04   -0.22101E+00   -0.22109E+00  2880   0.126E+00-0.368E-03
CGA:   4    -0.100466615278E+04   -0.32784E-01   -0.32796E-01  2880   0.173E-01 0.170E-03
CGA:   5    -0.100467154611E+04   -0.53933E-02   -0.53953E-02  2880   0.353E-02 0.105E-03
CGA:   6    -0.100467299590E+04   -0.14498E-02   -0.14575E-02  2880   0.118E-02-0.954E-04
CGA:   7    -0.100467342616E+04   -0.43027E-03   -0.42845E-03  2880   0.313E-03 0.453E-04
CGA:   8    -0.100467355327E+04   -0.12710E-03   -0.12723E-03  2880   0.582E-04-0.219E-05
CGA:   9    -0.100467357798E+04   -0.24710E-04   -0.26157E-04  2880   0.158E-04-0.125E-04
CGA:  10    -0.100467358203E+04   -0.40541E-05   -0.40623E-05  2880   0.265E-05 0.534E-06
   6 F= -.10046736E+04 E0= -.10046736E+04  d E =-.104667E+00  mag=    -0.0000
       N       E                     dE             d eps       ncg     rms          ort
SDA:   1    -0.100258026953E+04    0.20933E+01    0.00000E+00  2880   0.508E+01 0.000E+00
CGA:   2    -0.100437124453E+04   -0.17910E+01   -0.17910E+01  2880   0.102E+01-0.626E-03
CGA:   3    -0.100464090802E+04   -0.26966E+00   -0.26964E+00  2880   0.157E+00-0.749E-03
CGA:   4    -0.100468183827E+04   -0.40930E-01   -0.40932E-01  2880   0.220E-01 0.186E-04
CGA:   5    -0.100468871267E+04   -0.68744E-02   -0.68762E-02  2880   0.461E-02 0.102E-03
CGA:   6    -0.100469062067E+04   -0.19080E-02   -0.19123E-02  2880   0.150E-02-0.519E-04
CGA:   7    -0.100469120035E+04   -0.57968E-03   -0.57984E-03  2880   0.444E-03-0.246E-05
CGA:   8    -0.100469136734E+04   -0.16699E-03   -0.16725E-03  2880   0.761E-04-0.627E-05
CGA:   9    -0.100469139664E+04   -0.29299E-04   -0.29603E-04  2880   0.151E-04-0.542E-05
CGA:  10    -0.100469140280E+04   -0.61661E-05   -0.78618E-05  2880   0.911E-05-0.768E-05
   7 F= -.10046914E+04 E0= -.10046914E+04  d E =-.178208E-01  mag=    -0.0000
       N       E                     dE             d eps       ncg     rms          ort
SDA:   1    -0.100440375168E+04    0.28764E+00    0.00000E+00  2880   0.732E+00 0.000E+00
CGA:   2    -0.100467291524E+04   -0.26916E+00   -0.26918E+00  2880   0.161E+00-0.557E-03
CGA:   3    -0.100471334472E+04   -0.40429E-01   -0.40444E-01  2880   0.244E-01 0.137E-03
CGA:   4    -0.100472032683E+04   -0.69821E-02   -0.69892E-02  2880   0.393E-02 0.132E-03
CGA:   5    -0.100472165558E+04   -0.13288E-02   -0.13287E-02  2880   0.103E-02-0.483E-04
CGA:   6    -0.100472204414E+04   -0.38856E-03   -0.38858E-03  2880   0.320E-03-0.181E-06
CGA:   7    -0.100472216450E+04   -0.12036E-03   -0.12005E-03  2880   0.791E-04 0.857E-05
CGA:   8    -0.100472219572E+04   -0.31223E-04   -0.31345E-04  2880   0.160E-04-0.273E-05
CGA:   9    -0.100472220148E+04   -0.57518E-05   -0.57763E-05  2880   0.321E-05-0.817E-06
   8 F= -.10047222E+04 E0= -.10047222E+04  d E =-.307987E-01  mag=     0.0000
       N       E                     dE             d eps       ncg     rms          ort
SDA:   1    -0.100466505364E+04    0.57142E-01    0.00000E+00  2880   0.150E+00 0.000E+00
CGA:   2    -0.100472040383E+04   -0.55350E-01   -0.55353E-01  2880   0.310E-01-0.917E-04
CGA:   3    -0.100472787951E+04   -0.74757E-02   -0.74770E-02  2880   0.461E-02 0.211E-04
CGA:   4    -0.100472909192E+04   -0.12124E-02   -0.12130E-02  2880   0.636E-03 0.801E-05
CGA:   5    -0.100472929230E+04   -0.20038E-03   -0.20022E-03  2880   0.126E-03-0.875E-05
CGA:   6    -0.100472933801E+04   -0.45712E-04   -0.45509E-04  2880   0.364E-04 0.588E-05
CGA:   7    -0.100472935531E+04   -0.17295E-04   -0.18171E-04  2880   0.169E-04-0.607E-05
CGA:   8    -0.100472935959E+04   -0.42806E-05   -0.43112E-05  2880   0.293E-05 0.895E-06
   9 F= -.10047294E+04 E0= -.10047294E+04  d E =-.715811E-02  mag=     0.0000
       N       E                     dE             d eps       ncg     rms          ort
SDA:   1    -0.100412790645E+04    0.60145E+00    0.00000E+00  2880   0.144E+01 0.000E+00
CGA:   2    -0.100466049590E+04   -0.53259E+00   -0.53261E+00  2880   0.289E+00-0.443E-03
CGA:   3    -0.100473153584E+04   -0.71040E-01   -0.71033E-01  2880   0.421E-01-0.856E-04
CGA:   4    -0.100474239591E+04   -0.10860E-01   -0.10865E-01  2880   0.602E-02 0.595E-04
CGA:   5    -0.100474424136E+04   -0.18454E-02   -0.18452E-02  2880   0.110E-02-0.818E-05
CGA:   6    -0.100474467242E+04   -0.43107E-03   -0.43087E-03  2880   0.348E-03 0.318E-05
CGA:   7    -0.100474481697E+04   -0.14455E-03   -0.14548E-03  2880   0.113E-03-0.109E-04
CGA:   8    -0.100474485735E+04   -0.40383E-04   -0.40395E-04  2880   0.197E-04-0.332E-06
CGA:   9    -0.100474486466E+04   -0.73037E-05   -0.73227E-05  2880   0.348E-05-0.538E-06
  10 F= -.10047449E+04 E0= -.10047449E+04  d E =-.155051E-01  mag=     0.0000
       N       E                     dE             d eps       ncg     rms          ort
SDA:   1    -0.100299030313E+04    0.17546E+01    0.00000E+00  2880   0.415E+01 0.000E+00
CGA:   2    -0.100451025792E+04   -0.15200E+01   -0.15199E+01  2880   0.839E+00-0.702E-04
CGA:   3    -0.100472032535E+04   -0.21007E+00   -0.21006E+00  2880   0.120E+00-0.252E-03
CGA:   4    -0.100475131229E+04   -0.30987E-01   -0.30998E-01  2880   0.179E-01 0.127E-03
CGA:   5    -0.100475679154E+04   -0.54793E-02   -0.54790E-02  2880   0.332E-02-0.592E-05
CGA:   6    -0.100475811445E+04   -0.13229E-02   -0.13230E-02  2880   0.108E-02-0.115E-05
CGA:   7    -0.100475855535E+04   -0.44090E-03   -0.44204E-03  2880   0.341E-03-0.153E-04
CGA:   8    -0.100475868046E+04   -0.12512E-03   -0.12521E-03  2880   0.609E-04-0.265E-05
CGA:   9    -0.100475870289E+04   -0.22429E-04   -0.22473E-04  2880   0.103E-04-0.138E-05
CGA:  10    -0.100475870715E+04   -0.42577E-05   -0.45046E-05  2880   0.309E-05-0.236E-05
  11 F= -.10047587E+04 E0= -.10047587E+04  d E =-.138425E-01  mag=     0.0000
       N       E                     dE             d eps       ncg     rms          ort
SDA:   1    -0.996998624760E+03    0.77601E+01    0.00000E+00  2880   0.182E+02 0.000E+00
CGA:   2    -0.100365507625E+04   -0.66565E+01   -0.66561E+01  2880   0.363E+01 0.692E-02
CGA:   3    -0.100457166840E+04   -0.91659E+00   -0.91718E+00  2880   0.521E+00 0.789E-03
CGA:   4    -0.100470700931E+04   -0.13534E+00   -0.13536E+00  2880   0.814E-01 0.200E-03
CGA:   5    -0.100473221120E+04   -0.25202E-01   -0.25207E-01  2880   0.161E-01 0.152E-03
CGA:   6    -0.100473884462E+04   -0.66334E-02   -0.66355E-02  2880   0.543E-02-0.307E-04
CGA:   7    -0.100474105366E+04   -0.22090E-02   -0.22124E-02  2880   0.162E-02-0.507E-04
CGA:   8    -0.100474164042E+04   -0.58676E-03   -0.58687E-03  2880   0.278E-03-0.475E-05
CGA:   9    -0.100474174606E+04   -0.10564E-03   -0.10618E-03  2880   0.494E-04-0.137E-04
CGA:  10    -0.100474176480E+04   -0.18746E-04   -0.19109E-04  2880   0.118E-04-0.601E-05
CGA:  11    -0.100474176878E+04   -0.39771E-05   -0.39613E-05  2880   0.240E-05 0.463E-06
  12 F= -.10047418E+04 E0= -.10047418E+04  d E =0.169384E-01  mag=    -0.0000
       N       E                     dE             d eps       ncg     rms          ort
SDA:   1    -0.100253008322E+04    0.22117E+01    0.00000E+00  2880   0.529E+01 0.000E+00
CGA:   2    -0.100444693496E+04   -0.19169E+01   -0.19168E+01  2880   0.108E+01 0.925E-03
CGA:   3    -0.100471583184E+04   -0.26890E+00   -0.26895E+00  2880   0.159E+00 0.115E-03
CGA:   4    -0.100475685869E+04   -0.41027E-01   -0.41024E-01  2880   0.230E-01 0.740E-05
CGA:   5    -0.100476400295E+04   -0.71443E-02   -0.71432E-02  2880   0.436E-02-0.318E-04
CGA:   6    -0.100476573001E+04   -0.17271E-02   -0.17256E-02  2880   0.139E-02 0.249E-04
CGA:   7    -0.100476630300E+04   -0.57299E-03   -0.57426E-03  2880   0.438E-03-0.189E-04
CGA:   8    -0.100476646722E+04   -0.16422E-03   -0.16462E-03  2880   0.787E-04-0.115E-04
CGA:   9    -0.100476649596E+04   -0.28737E-04   -0.28802E-04  2880   0.129E-04-0.233E-05
CGA:  10    -0.100476650079E+04   -0.48342E-05   -0.48719E-05  2880   0.285E-05-0.984E-06
  13 F= -.10047665E+04 E0= -.10047665E+04  d E =-.247320E-01  mag=     0.0000
       N       E                     dE             d eps       ncg     rms          ort
SDA:   1    -0.100342375989E+04    0.13427E+01    0.00000E+00  2880   0.308E+01 0.000E+00
CGA:   2    -0.100456229235E+04   -0.11385E+01   -0.11384E+01  2880   0.660E+00 0.253E-02
CGA:   3    -0.100472367847E+04   -0.16139E+00   -0.16132E+00  2880   0.973E-01 0.413E-04
CGA:   4    -0.100474971084E+04   -0.26032E-01   -0.26041E-01  2880   0.152E-01 0.840E-04
CGA:   5    -0.100475454701E+04   -0.48362E-02   -0.48360E-02  2880   0.328E-02-0.476E-05
CGA:   6    -0.100475583961E+04   -0.12926E-02   -0.12936E-02  2880   0.110E-02-0.188E-04
CGA:   7    -0.100475625346E+04   -0.41385E-03   -0.41317E-03  2880   0.306E-03 0.205E-04
CGA:   8    -0.100475637069E+04   -0.11723E-03   -0.11728E-03  2880   0.577E-04-0.154E-05
CGA:   9    -0.100475639314E+04   -0.22447E-04   -0.22724E-04  2880   0.125E-04-0.577E-05
CGA:  10    -0.100475639637E+04   -0.32339E-05   -0.33243E-05  2880   0.187E-05 0.161E-05
  14 F= -.10047564E+04 E0= -.10047564E+04  d E =0.101044E-01  mag=    -0.0000
       N       E                     dE             d eps       ncg     rms          ort
SDA:   1    -0.100401114538E+04    0.74525E+00    0.00000E+00  2880   0.177E+01 0.000E+00
CGA:   2    -0.100466715727E+04   -0.65601E+00   -0.65604E+00  2880   0.362E+00-0.892E-03
CGA:   3    -0.100475718725E+04   -0.90030E-01   -0.90043E-01  2880   0.514E-01-0.132E-03
CGA:   4    -0.100477070017E+04   -0.13513E-01   -0.13513E-01  2880   0.794E-02 0.741E-05
CGA:   5    -0.100477315441E+04   -0.24542E-02   -0.24546E-02  2880   0.154E-02 0.138E-04
CGA:   6    -0.100477376616E+04   -0.61175E-03   -0.61159E-03  2880   0.494E-03 0.291E-05
CGA:   7    -0.100477396870E+04   -0.20254E-03   -0.20356E-03  2880   0.155E-03-0.147E-04
CGA:   8    -0.100477402346E+04   -0.54764E-04   -0.54775E-04  2880   0.267E-04-0.550E-06
CGA:   9    -0.100477403322E+04   -0.97532E-05   -0.97530E-05  2880   0.468E-05 0.135E-07
  15 F= -.10047740E+04 E0= -.10047740E+04  d E =-.176368E-01  mag=     0.0000
       N       E                     dE             d eps       ncg     rms          ort
SDA:   1    -0.100474115551E+04    0.32868E-01    0.00000E+00  2880   0.782E-01 0.000E+00
CGA:   2    -0.100477047919E+04   -0.29324E-01   -0.29324E-01  2880   0.154E-01 0.152E-04
CGA:   3    -0.100477435430E+04   -0.38751E-02   -0.38724E-02  2880   0.219E-02-0.259E-04
CGA:   4    -0.100477492944E+04   -0.57514E-03   -0.57355E-03  2880   0.336E-03-0.180E-04
CGA:   5    -0.100477502905E+04   -0.99614E-04   -0.99771E-04  2880   0.610E-04 0.337E-05
CGA:   6    -0.100477505285E+04   -0.23799E-04   -0.23716E-04  2880   0.191E-04 0.205E-05
CGA:   7    -0.100477506238E+04   -0.95287E-05   -0.10679E-04  2880   0.117E-04-0.588E-05
  16 F= -.10047751E+04 E0= -.10047751E+04  d E =-.102916E-02  mag=     0.0000
       N       E                     dE             d eps       ncg     rms          ort
SDA:   1    -0.100272586413E+04    0.20492E+01    0.00000E+00  2880   0.474E+01 0.000E+00
CGA:   2    -0.100450576717E+04   -0.17799E+01   -0.17799E+01  2880   0.918E+00-0.787E-03
CGA:   3    -0.100473572984E+04   -0.22996E+00   -0.22995E+00  2880   0.131E+00-0.146E-03
CGA:   4    -0.100476953690E+04   -0.33807E-01   -0.33805E-01  2880   0.195E-01-0.321E-04
CGA:   5    -0.100477541997E+04   -0.58831E-02   -0.58837E-02  2880   0.354E-02 0.184E-04
CGA:   6    -0.100477682866E+04   -0.14087E-02   -0.14089E-02  2880   0.116E-02-0.261E-05
CGA:   7    -0.100477731199E+04   -0.48332E-03   -0.48472E-03  2880   0.365E-03-0.187E-04
CGA:   8    -0.100477744564E+04   -0.13365E-03   -0.13367E-03  2880   0.634E-04-0.782E-06
CGA:   9    -0.100477747078E+04   -0.25139E-04   -0.25539E-04  2880   0.122E-04-0.724E-05
CGA:  10    -0.100477747447E+04   -0.36960E-05   -0.36975E-05  2880   0.194E-05 0.201E-06
  17 F= -.10047775E+04 E0= -.10047775E+04  d E =-.241209E-02  mag=    -0.0000
       N       E                     dE             d eps       ncg     rms          ort
SDA:   1    -0.100338296234E+04    0.13945E+01    0.00000E+00  2880   0.317E+01 0.000E+00
CGA:   2    -0.100454757268E+04   -0.11646E+01   -0.11646E+01  2880   0.652E+00-0.178E-02
CGA:   3    -0.100471325631E+04   -0.16568E+00   -0.16571E+00  2880   0.973E-01-0.370E-04
CGA:   4    -0.100473932422E+04   -0.26068E-01   -0.26090E-01  2880   0.149E-01 0.291E-03
CGA:   5    -0.100474407993E+04   -0.47557E-02   -0.47553E-02  2880   0.321E-02-0.153E-04
CGA:   6    -0.100474537148E+04   -0.12916E-02   -0.12957E-02  2880   0.109E-02-0.667E-04
CGA:   7    -0.100474576354E+04   -0.39205E-03   -0.39091E-03  2880   0.276E-03 0.604E-04
CGA:   8    -0.100474587665E+04   -0.11312E-03   -0.11320E-03  2880   0.550E-04-0.181E-05
CGA:   9    -0.100474589941E+04   -0.22761E-04   -0.23584E-04  2880   0.144E-04-0.992E-05
CGA:  10    -0.100474590224E+04   -0.28270E-05   -0.30718E-05  2880   0.268E-05 0.264E-05
  18 F= -.10047459E+04 E0= -.10047459E+04  d E =0.315722E-01  mag=    -0.0000
       N       E                     dE             d eps       ncg     rms          ort
SDA:   1    -0.100338817473E+04    0.13577E+01    0.00000E+00  2880   0.324E+01 0.000E+00
CGA:   2    -0.100458183367E+04   -0.11937E+01   -0.11936E+01  2880   0.655E+00 0.411E-03
CGA:   3    -0.100474796430E+04   -0.16613E+00   -0.16609E+00  2880   0.969E-01-0.293E-03
CGA:   4    -0.100477375384E+04   -0.25790E-01   -0.25778E-01  2880   0.148E-01-0.170E-03
CGA:   5    -0.100477836986E+04   -0.46160E-02   -0.46164E-02  2880   0.300E-02 0.171E-04
CGA:   6    -0.100477955659E+04   -0.11867E-02   -0.11841E-02  2880   0.971E-03 0.433E-04
CGA:   7    -0.100477997116E+04   -0.41458E-03   -0.41995E-03  2880   0.330E-03-0.598E-04
CGA:   8    -0.100478008150E+04   -0.11034E-03   -0.11037E-03  2880   0.548E-04-0.236E-05
CGA:   9    -0.100478009980E+04   -0.18297E-04   -0.18317E-04  2880   0.906E-05 0.419E-05
CGA:  10    -0.100478010430E+04   -0.44994E-05   -0.54004E-05  2880   0.512E-05-0.425E-05
  19 F= -.10047801E+04 E0= -.10047801E+04  d E =-.342021E-01  mag=     0.0000
