       N       E                     dE             d eps       ncg     rms          rms(c)
DAV:   1     0.823975972188E+04    0.82398E+04   -0.23584E+05 34344   0.218E+03
DAV:   2     0.116273590245E+04   -0.70770E+04   -0.66316E+04 33696   0.632E+02
DAV:   3    -0.384532779297E+03   -0.15473E+04   -0.13600E+04 35964   0.273E+02
DAV:   4    -0.541275473612E+03   -0.15674E+03   -0.15395E+03 36804   0.837E+01
DAV:   5    -0.544002520384E+03   -0.27270E+01   -0.27135E+01 36732   0.124E+01    0.108E+02
DAV:   6    -0.616258673694E+03   -0.72256E+02   -0.11662E+03 45396   0.130E+02    0.158E+02
DAV:   7    -0.454053080242E+03    0.16221E+03   -0.32038E+02 39540   0.109E+02    0.677E+01
DAV:   8    -0.455926497074E+03   -0.18734E+01   -0.17892E+02 42228   0.545E+01    0.856E+01
DAV:   9    -0.474646203738E+03   -0.18720E+02   -0.10654E+02 38364   0.653E+01    0.104E+02
DAV:  10    -0.460239760314E+03    0.14406E+02   -0.56509E+01 38256   0.435E+01    0.662E+01
DAV:  11    -0.448478349378E+03    0.11761E+02   -0.65018E+01 37464   0.323E+01    0.398E+01
DAV:  12    -0.439347113546E+03    0.91312E+01   -0.27926E+01 37248   0.356E+01    0.290E+01
DAV:  13    -0.437179157510E+03    0.21680E+01   -0.67790E+00 39744   0.173E+01    0.206E+01
DAV:  14    -0.437044599401E+03    0.13456E+00   -0.36893E+00 40308   0.821E+00    0.178E+01
DAV:  15    -0.437073216013E+03   -0.28617E-01   -0.86033E-01 37020   0.491E+00    0.163E+01
DAV:  16    -0.437020179406E+03    0.53037E-01   -0.10000E+00 39192   0.518E+00    0.136E+01
DAV:  17    -0.437282658503E+03   -0.26248E+00   -0.21259E+00 41592   0.819E+00    0.129E+01
DAV:  18    -0.436937660078E+03    0.34500E+00   -0.43490E+00 40104   0.661E+00    0.727E+00
DAV:  19    -0.436922855331E+03    0.14805E-01   -0.14352E+00 39024   0.651E+00    0.676E+00
DAV:  20    -0.436733885593E+03    0.18897E+00   -0.45682E-01 38988   0.357E+00    0.378E+00
DAV:  21    -0.436736897287E+03   -0.30117E-02   -0.49675E-01 43152   0.286E+00    0.430E+00
DAV:  22    -0.436686261833E+03    0.50635E-01   -0.15257E-01 40332   0.197E+00    0.261E+00
DAV:  23    -0.436688050672E+03   -0.17888E-02   -0.85225E-02 38244   0.138E+00    0.258E+00
DAV:  24    -0.436684588824E+03    0.34618E-02   -0.22051E-02 37092   0.840E-01    0.209E+00
DAV:  25    -0.436682417410E+03    0.21714E-02   -0.22763E-02 41160   0.980E-01    0.184E+00
DAV:  26    -0.436675223350E+03    0.71941E-02   -0.43069E-02 41904   0.107E+00    0.111E+00
DAV:  27    -0.436675551066E+03   -0.32772E-03   -0.16563E-02 42240   0.809E-01    0.101E+00
DAV:  28    -0.436673915590E+03    0.16355E-02   -0.11331E-02 37092   0.745E-01    0.799E-01
DAV:  29    -0.436672397404E+03    0.15182E-02   -0.97351E-03 41232   0.494E-01    0.493E-01
DAV:  30    -0.436672218430E+03    0.17897E-03   -0.52025E-03 41772   0.433E-01    0.449E-01
DAV:  31    -0.436672196455E+03    0.21975E-04   -0.11417E-03 37452   0.205E-01    0.361E-01
DAV:  32    -0.436672155603E+03    0.40852E-04   -0.12158E-03 41904   0.236E-01    0.260E-01
DAV:  33    -0.436672024870E+03    0.13073E-03   -0.13404E-03 42888   0.213E-01    0.187E-01
DAV:  34    -0.436672003867E+03    0.21003E-04   -0.19617E-04 37668   0.889E-02    0.149E-01
DAV:  35    -0.436671970120E+03    0.33747E-04   -0.33945E-04 35820   0.109E-01    0.107E-01
DAV:  36    -0.436671934702E+03    0.35418E-04   -0.17441E-04 33912   0.769E-02    0.602E-02
DAV:  37    -0.436671933768E+03    0.93388E-06   -0.40688E-05 27312   0.319E-02
   1 F= -.43667193E+03 E0= -.43665797E+03  d E =-.436672E+03  mag=     1.9736
       N       E                     dE             d eps       ncg     rms          rms(c)
DAV:   1    -0.436683467878E+03   -0.11533E-01   -0.91547E-03 50424   0.986E-01    0.633E-02
DAV:   2    -0.436683941265E+03   -0.47339E-03   -0.45692E-03 37788   0.161E-01    0.100E-01
DAV:   3    -0.436683915834E+03    0.25431E-04   -0.52996E-04 35808   0.146E-01    0.506E-02
DAV:   4    -0.436683910155E+03    0.56792E-05   -0.63574E-05 28128   0.563E-02
   2 F= -.43668391E+03 E0= -.43666991E+03  d E =-.119764E-01  mag=     1.9705
       N       E                     dE             d eps       ncg     rms          rms(c)
DAV:   1    -0.436456954532E+03    0.22696E+00   -0.11162E+01 49440   0.344E+01    0.244E+00
DAV:   2    -0.437074084315E+03   -0.61713E+00   -0.59993E+00 37104   0.582E+00    0.373E+00
DAV:   3    -0.437036031536E+03    0.38053E-01   -0.96380E-01 37536   0.421E+00    0.285E+00
DAV:   4    -0.437034129293E+03    0.19022E-02   -0.40143E-01 37848   0.216E+00    0.213E+00
DAV:   5    -0.437020730050E+03    0.13399E-01   -0.69029E-02 36852   0.155E+00    0.928E-01
DAV:   6    -0.437022689600E+03   -0.19595E-02   -0.23983E-02 38520   0.976E-01    0.968E-01
DAV:   7    -0.437022525374E+03    0.16423E-03   -0.42855E-02 40788   0.830E-01    0.955E-01
DAV:   8    -0.437023887763E+03   -0.13624E-02   -0.12038E-02 39804   0.665E-01    0.117E+00
DAV:   9    -0.437021750915E+03    0.21368E-02   -0.41133E-03 38364   0.440E-01    0.922E-01
DAV:  10    -0.437020090531E+03    0.16604E-02   -0.10133E-02 46728   0.288E-01    0.400E-01
DAV:  11    -0.437020327709E+03   -0.23718E-03   -0.62778E-03 42876   0.324E-01    0.193E-01
DAV:  12    -0.437020567118E+03   -0.23941E-03   -0.69923E-04 38580   0.162E-01    0.186E-01
DAV:  13    -0.437020531967E+03    0.35151E-04   -0.19521E-04 36240   0.970E-02    0.141E-01
DAV:  14    -0.437020492605E+03    0.39363E-04   -0.29202E-04 30996   0.750E-02    0.551E-02
DAV:  15    -0.437020500841E+03   -0.82358E-05   -0.16105E-04 29904   0.621E-02    0.585E-02
DAV:  16    -0.437020499679E+03    0.11614E-05   -0.71945E-05 26652   0.564E-02
   3 F= -.43702050E+03 E0= -.43700627E+03  d E =-.336590E+00  mag=     1.9686
       N       E                     dE             d eps       ncg     rms          rms(c)
DAV:   1    -0.436292911420E+03    0.72759E+00   -0.22922E+01 48984   0.468E+01    0.409E+00
DAV:   2    -0.437832983586E+03   -0.15401E+01   -0.14241E+01 39264   0.113E+01    0.894E+00
DAV:   3    -0.437315635907E+03    0.51735E+00   -0.26962E+00 37344   0.789E+00    0.280E+00
DAV:   4    -0.437349359804E+03   -0.33724E-01   -0.67063E-01 37824   0.338E+00    0.347E+00
DAV:   5    -0.437308760203E+03    0.40600E-01   -0.18041E-01 37236   0.230E+00    0.134E+00
DAV:   6    -0.437312076425E+03   -0.33162E-02   -0.46887E-02 40236   0.138E+00    0.143E+00
DAV:   7    -0.437310392152E+03    0.16843E-02   -0.10514E-01 40080   0.106E+00    0.131E+00
DAV:   8    -0.437311486324E+03   -0.10942E-02   -0.18014E-02 37896   0.929E-01    0.116E+00
DAV:   9    -0.437307684048E+03    0.38023E-02   -0.15927E-02 40800   0.726E-01    0.594E-01
DAV:  10    -0.437310232117E+03   -0.25481E-02   -0.35116E-02 43128   0.756E-01    0.880E-01
DAV:  11    -0.437309143045E+03    0.10891E-02   -0.76502E-03 38844   0.606E-01    0.775E-01
DAV:  12    -0.437307780408E+03    0.13626E-02   -0.43506E-03 42600   0.283E-01    0.361E-01
DAV:  13    -0.437307733183E+03    0.47225E-04   -0.22926E-03 44628   0.176E-01    0.129E-01
DAV:  14    -0.437307837662E+03   -0.10448E-03   -0.80513E-04 39540   0.131E-01    0.932E-02
DAV:  15    -0.437307897630E+03   -0.59967E-04   -0.41742E-04 35256   0.109E-01    0.164E-01
DAV:  16    -0.437307827169E+03    0.70461E-04   -0.23342E-04 33240   0.834E-02    0.763E-02
DAV:  17    -0.437307821115E+03    0.60543E-05   -0.75130E-05 25188   0.403E-02
   4 F= -.43730782E+03 E0= -.43729316E+03  d E =-.287321E+00  mag=     1.9693
       N       E                     dE             d eps       ncg     rms          rms(c)
DAV:   1    -0.437333184763E+03   -0.25358E-01   -0.75786E+00 38472   0.123E+01    0.108E+00
DAV:   2    -0.437441319640E+03   -0.10813E+00   -0.10653E+00 40596   0.371E+00    0.368E+00
DAV:   3    -0.437392805492E+03    0.48514E-01   -0.41555E-01 37632   0.255E+00    0.120E+00
DAV:   4    -0.437394722176E+03   -0.19167E-02   -0.59092E-02 37824   0.125E+00    0.741E-01
DAV:   5    -0.437392867624E+03    0.18546E-02   -0.15842E-02 37584   0.740E-01    0.428E-01
DAV:   6    -0.437392395502E+03    0.47212E-03   -0.40542E-03 39024   0.462E-01    0.271E-01
DAV:   7    -0.437392086249E+03    0.30925E-03   -0.22262E-03 36852   0.258E-01    0.198E-01
DAV:   8    -0.437392407351E+03   -0.32110E-03   -0.33938E-03 42372   0.351E-01    0.304E-01
DAV:   9    -0.437391983262E+03    0.42409E-03   -0.15012E-03 39900   0.262E-01    0.636E-02
DAV:  10    -0.437392015319E+03   -0.32056E-04   -0.23028E-04 37896   0.101E-01    0.741E-02
DAV:  11    -0.437391992378E+03    0.22941E-04   -0.12204E-04 33720   0.752E-02    0.262E-02
DAV:  12    -0.437391992279E+03    0.99637E-07   -0.41859E-05 20880   0.305E-02
   5 F= -.43739199E+03 E0= -.43737712E+03  d E =-.841712E-01  mag=     1.9686
       N       E                     dE             d eps       ncg     rms          rms(c)
DAV:   1    -0.437245973628E+03    0.14602E+00   -0.15206E+01 40872   0.233E+01    0.128E+00
DAV:   2    -0.437464397045E+03   -0.21842E+00   -0.22230E+00 37656   0.383E+00    0.279E+00
DAV:   3    -0.437448662078E+03    0.15735E-01   -0.41217E-01 37296   0.231E+00    0.169E+00
DAV:   4    -0.437448913673E+03   -0.25160E-03   -0.90893E-02 38124   0.138E+00    0.108E+00
DAV:   5    -0.437443518477E+03    0.53952E-02   -0.23009E-02 37920   0.910E-01    0.454E-01
DAV:   6    -0.437444875995E+03   -0.13575E-02   -0.82601E-03 40176   0.639E-01    0.628E-01
DAV:   7    -0.437442659917E+03    0.22161E-02   -0.76336E-03 41412   0.610E-01    0.206E-01
DAV:   8    -0.437442946653E+03   -0.28674E-03   -0.24135E-03 38268   0.288E-01    0.205E-01
DAV:   9    -0.437442823982E+03    0.12267E-03   -0.13260E-03 37812   0.262E-01    0.136E-01
DAV:  10    -0.437442785847E+03    0.38135E-04   -0.48703E-04 43068   0.111E-01    0.770E-02
DAV:  11    -0.437442778831E+03    0.70159E-05   -0.26636E-04 36972   0.106E-01    0.715E-02
DAV:  12    -0.437442767727E+03    0.11104E-04   -0.57831E-05 28248   0.488E-02    0.541E-02
DAV:  13    -0.437442762567E+03    0.51594E-05   -0.68370E-05 25128   0.492E-02
   6 F= -.43744276E+03 E0= -.43742770E+03  d E =-.507703E-01  mag=     1.9685
       N       E                     dE             d eps       ncg     rms          rms(c)
DAV:   1    -0.437324765691E+03    0.11800E+00   -0.72101E+00 42684   0.189E+01    0.980E-01
DAV:   2    -0.437460756074E+03   -0.13599E+00   -0.13787E+00 37356   0.260E+00    0.122E+00
DAV:   3    -0.437465870503E+03   -0.51144E-02   -0.16782E-01 37344   0.173E+00    0.156E+00
DAV:   4    -0.437459563798E+03    0.63067E-02   -0.56950E-02 38916   0.918E-01    0.790E-01
DAV:   5    -0.437457753638E+03    0.18102E-02   -0.99118E-03 39372   0.641E-01    0.344E-01
DAV:   6    -0.437458805440E+03   -0.10518E-02   -0.48573E-03 39408   0.505E-01    0.461E-01
DAV:   7    -0.437457712050E+03    0.10934E-02   -0.57162E-03 42348   0.518E-01    0.281E-01
DAV:   8    -0.437457760378E+03   -0.48327E-04   -0.14071E-03 41196   0.236E-01    0.236E-01
DAV:   9    -0.437457623514E+03    0.13686E-03   -0.57663E-04 37656   0.163E-01    0.154E-01
DAV:  10    -0.437457571148E+03    0.52366E-04   -0.28119E-04 39636   0.936E-02    0.887E-02
DAV:  11    -0.437457555975E+03    0.15174E-04   -0.17705E-04 31464   0.805E-02    0.575E-02
DAV:  12    -0.437457551424E+03    0.45506E-05   -0.89106E-05 27372   0.477E-02
   7 F= -.43745755E+03 E0= -.43744245E+03  d E =-.147889E-01  mag=     1.9689
       N       E                     dE             d eps       ncg     rms          rms(c)
DAV:   1    -0.437329688477E+03    0.12787E+00   -0.67505E+00 43968   0.194E+01    0.953E-01
DAV:   2    -0.437464559127E+03   -0.13487E+00   -0.13699E+00 36672   0.261E+00    0.948E-01
DAV:   3    -0.437470782874E+03   -0.62237E-02   -0.10506E-01 36984   0.180E+00    0.122E+00
DAV:   4    -0.437463847007E+03    0.69359E-02   -0.26844E-02 40188   0.103E+00    0.463E-01
DAV:   5    -0.437464221325E+03   -0.37432E-03   -0.11399E-02 42852   0.450E-01    0.541E-01
DAV:   6    -0.437464696515E+03   -0.47519E-03   -0.10809E-02 40464   0.458E-01    0.512E-01
DAV:   7    -0.437463597599E+03    0.10989E-02   -0.57643E-03 42048   0.512E-01    0.235E-01
DAV:   8    -0.437463660244E+03   -0.62644E-04   -0.16227E-03 41376   0.259E-01    0.194E-01
DAV:   9    -0.437463517191E+03    0.14305E-03   -0.70342E-04 38580   0.183E-01    0.746E-02
DAV:  10    -0.437463526173E+03   -0.89816E-05   -0.17938E-04 36804   0.828E-02    0.658E-02
DAV:  11    -0.437463511050E+03    0.15123E-04   -0.12059E-04 31788   0.746E-02    0.363E-02
DAV:  12    -0.437463508753E+03    0.22970E-05   -0.46134E-05 25392   0.426E-02
   8 F= -.43746351E+03 E0= -.43744829E+03  d E =-.595733E-02  mag=     1.9684
       N       E                     dE             d eps       ncg     rms          rms(c)
DAV:   1    -0.437272655522E+03    0.19086E+00   -0.90754E+00 44940   0.231E+01    0.116E+00
DAV:   2    -0.437467637966E+03   -0.19498E+00   -0.19824E+00 36648   0.319E+00    0.122E+00
DAV:   3    -0.437476057115E+03   -0.84191E-02   -0.16964E-01 36972   0.220E+00    0.155E+00
DAV:   4    -0.437466240436E+03    0.98167E-02   -0.56713E-02 38808   0.118E+00    0.798E-01
DAV:   5    -0.437465165911E+03    0.10745E-02   -0.16114E-02 42264   0.553E-01    0.436E-01
DAV:   6    -0.437466360362E+03   -0.11945E-02   -0.77378E-03 41664   0.608E-01    0.549E-01
DAV:   7    -0.437464865741E+03    0.14946E-02   -0.77801E-03 42000   0.594E-01    0.256E-01
DAV:   8    -0.437464956783E+03   -0.91041E-04   -0.22229E-03 41016   0.317E-01    0.234E-01
DAV:   9    -0.437464742436E+03    0.21435E-03   -0.95555E-04 37788   0.218E-01    0.863E-02
DAV:  10    -0.437464739513E+03    0.29233E-05   -0.26771E-04 37416   0.979E-02    0.649E-02
DAV:  11    -0.437464733976E+03    0.55363E-05   -0.18187E-04 34224   0.921E-02    0.536E-02
DAV:  12    -0.437464721501E+03    0.12475E-04   -0.62747E-05 27648   0.537E-02    0.251E-02
DAV:  13    -0.437464724186E+03   -0.26844E-05   -0.44423E-05 25056   0.472E-02
   9 F= -.43746472E+03 E0= -.43744962E+03  d E =-.121543E-02  mag=     1.9690
       N       E                     dE             d eps       ncg     rms          rms(c)
DAV:   1    -0.437405050085E+03    0.59671E-01   -0.14987E+00 50100   0.144E+01    0.686E-01
DAV:   2    -0.437470110203E+03   -0.65060E-01   -0.67340E-01 36720   0.169E+00    0.860E-01
DAV:   3    -0.437474345587E+03   -0.42354E-02   -0.10292E-01 38568   0.106E+00    0.143E+00
DAV:   4    -0.437469085252E+03    0.52603E-02   -0.23668E-02 40260   0.644E-01    0.401E-01
DAV:   5    -0.437469459526E+03   -0.37427E-03   -0.35308E-03 42600   0.367E-01    0.289E-01
DAV:   6    -0.437469983014E+03   -0.52349E-03   -0.88984E-03 41112   0.317E-01    0.534E-01
DAV:   7    -0.437469987341E+03   -0.43269E-05   -0.10909E-03 38784   0.253E-01    0.522E-01
DAV:   8    -0.437469566594E+03    0.42075E-03   -0.60878E-04 38388   0.153E-01    0.389E-01
DAV:   9    -0.437469288191E+03    0.27840E-03   -0.28771E-03 38976   0.133E-01    0.111E-01
DAV:  10    -0.437469389412E+03   -0.10122E-03   -0.53296E-04 37728   0.105E-01    0.779E-02
DAV:  11    -0.437469394840E+03   -0.54289E-05   -0.14312E-04 30324   0.600E-02    0.301E-02
DAV:  12    -0.437469393914E+03    0.92627E-06   -0.40477E-05 24540   0.423E-02
  10 F= -.43746939E+03 E0= -.43745425E+03  d E =-.466973E-02  mag=     1.9682
       N       E                     dE             d eps       ncg     rms          rms(c)
DAV:   1    -0.437465823347E+03    0.35715E-02   -0.18660E-01 45516   0.359E+00    0.174E-01
DAV:   2    -0.437470235397E+03   -0.44120E-02   -0.44949E-02 37080   0.484E-01    0.238E-01
DAV:   3    -0.437470432205E+03   -0.19681E-03   -0.61558E-03 37272   0.344E-01    0.328E-01
DAV:   4    -0.437470191597E+03    0.24061E-03   -0.19276E-03 39492   0.172E-01    0.141E-01
DAV:   5    -0.437470143854E+03    0.47743E-04   -0.32501E-04 36036   0.116E-01    0.648E-02
DAV:   6    -0.437470163096E+03   -0.19242E-04   -0.24802E-04 35364   0.739E-02    0.814E-02
DAV:   7    -0.437470152985E+03    0.10111E-04   -0.14770E-04 36180   0.815E-02    0.732E-02
DAV:   8    -0.437470141873E+03    0.11112E-04   -0.51794E-05 23208   0.381E-02    0.338E-02
DAV:   9    -0.437470141984E+03   -0.11115E-06   -0.22008E-05 18744   0.334E-02
  11 F= -.43747014E+03 E0= -.43745501E+03  d E =-.748070E-03  mag=     1.9677
       N       E                     dE             d eps       ncg     rms          rms(c)
DAV:   1    -0.437464783024E+03    0.53588E-02   -0.28726E-01 45204   0.406E+00    0.211E-01
DAV:   2    -0.437471112479E+03   -0.63295E-02   -0.63782E-02 37044   0.612E-01    0.515E-01
DAV:   3    -0.437470661748E+03    0.45073E-03   -0.12046E-02 37488   0.431E-01    0.257E-01
DAV:   4    -0.437470727205E+03   -0.65457E-04   -0.16339E-03 39072   0.214E-01    0.172E-01
DAV:   5    -0.437470605277E+03    0.12193E-03   -0.54135E-04 35568   0.174E-01    0.788E-02
DAV:   6    -0.437470613010E+03   -0.77336E-05   -0.26906E-04 38316   0.796E-02    0.827E-02
DAV:   7    -0.437470622642E+03   -0.96312E-05   -0.22918E-04 36576   0.105E-01    0.103E-01
DAV:   8    -0.437470611661E+03    0.10981E-04   -0.60298E-05 26700   0.562E-02    0.835E-02
DAV:   9    -0.437470601716E+03    0.99451E-05   -0.28683E-05 18960   0.289E-02
  12 F= -.43747060E+03 E0= -.43745544E+03  d E =-.459732E-03  mag=     1.9674
       N       E                     dE             d eps       ncg     rms          rms(c)
DAV:   1    -0.437449891980E+03    0.20720E-01   -0.90718E-01 45324   0.780E+00    0.374E-01
DAV:   2    -0.437470493884E+03   -0.20602E-01   -0.21143E-01 37116   0.104E+00    0.535E-01
DAV:   3    -0.437471206637E+03   -0.71275E-03   -0.29197E-02 37284   0.676E-01    0.678E-01
DAV:   4    -0.437470242174E+03    0.96446E-03   -0.89747E-03 40116   0.361E-01    0.269E-01
DAV:   5    -0.437470086606E+03    0.15557E-03   -0.14132E-03 40464   0.263E-01    0.133E-01
DAV:   6    -0.437470265508E+03   -0.17890E-03   -0.10308E-03 42072   0.206E-01    0.219E-01
DAV:   7    -0.437470079275E+03    0.18623E-03   -0.83356E-04 41940   0.204E-01    0.139E-01
DAV:   8    -0.437470062147E+03    0.17128E-04   -0.24360E-04 37956   0.845E-02    0.790E-02
DAV:   9    -0.437470048113E+03    0.14034E-04   -0.12498E-04 30384   0.682E-02    0.299E-02
DAV:  10    -0.437470051165E+03   -0.30526E-05   -0.37980E-05 19764   0.300E-02
  13 F= -.43747005E+03 E0= -.43745489E+03  d E =0.550551E-03  mag=     1.9673
       N       E                     dE             d eps       ncg     rms          rms(c)
DAV:   1    -0.437440452021E+03    0.29596E-01   -0.89791E-01 47940   0.950E+00    0.462E-01
DAV:   2    -0.437471142866E+03   -0.30691E-01   -0.31361E-01 36804   0.120E+00    0.495E-01
DAV:   3    -0.437472633316E+03   -0.14905E-02   -0.25379E-02 36816   0.847E-01    0.664E-01
DAV:   4    -0.437470852436E+03    0.17809E-02   -0.77192E-03 38496   0.504E-01    0.248E-01
DAV:   5    -0.437470903260E+03   -0.50824E-04   -0.23609E-03 43320   0.186E-01    0.211E-01
DAV:   6    -0.437471090560E+03   -0.18730E-03   -0.18534E-03 42012   0.228E-01    0.244E-01
DAV:   7    -0.437470841481E+03    0.24908E-03   -0.11722E-03 41364   0.239E-01    0.113E-01
DAV:   8    -0.437470846859E+03   -0.53777E-05   -0.21304E-04 37080   0.913E-02    0.692E-02
DAV:   9    -0.437470833601E+03    0.13258E-04   -0.12718E-04 32928   0.773E-02    0.401E-02
DAV:  10    -0.437470831622E+03    0.19792E-05   -0.39110E-05 21180   0.394E-02
  14 F= -.43747083E+03 E0= -.43745572E+03  d E =-.780457E-03  mag=     1.9682
       N       E                     dE             d eps       ncg     rms          rms(c)
DAV:   1    -0.437461215999E+03    0.96176E-02   -0.22390E-01 49152   0.549E+00    0.267E-01
DAV:   2    -0.437471268385E+03   -0.10052E-01   -0.10372E-01 36540   0.638E-01    0.246E-01
DAV:   3    -0.437471968419E+03   -0.70003E-03   -0.10873E-02 37836   0.436E-01    0.504E-01
DAV:   4    -0.437471262492E+03    0.70593E-03   -0.41555E-03 38976   0.261E-01    0.166E-01
DAV:   5    -0.437471253455E+03    0.90372E-05   -0.50857E-04 36900   0.145E-01    0.102E-01
DAV:   6    -0.437471348503E+03   -0.95048E-04   -0.60682E-04 39744   0.138E-01    0.150E-01
DAV:   7    -0.437471278510E+03    0.69993E-04   -0.43314E-04 40860   0.143E-01    0.116E-01
DAV:   8    -0.437471256994E+03    0.21516E-04   -0.14145E-04 32448   0.599E-02    0.641E-02
DAV:   9    -0.437471248340E+03    0.86541E-05   -0.89971E-05 26832   0.512E-02
  15 F= -.43747125E+03 E0= -.43745612E+03  d E =-.416718E-03  mag=     1.9677
       N       E                     dE             d eps       ncg     rms          rms(c)
DAV:   1    -0.437470086116E+03    0.11709E-02   -0.25347E-02 51180   0.208E+00    0.102E-01
DAV:   2    -0.437471490855E+03   -0.14047E-02   -0.14279E-02 36408   0.249E-01    0.152E-01
DAV:   3    -0.437471529959E+03   -0.39104E-04   -0.21161E-03 37920   0.198E-01    0.176E-01
DAV:   4    -0.437471476395E+03    0.53565E-04   -0.63724E-04 37488   0.964E-02    0.879E-02
DAV:   5    -0.437471453614E+03    0.22781E-04   -0.10509E-04 28752   0.667E-02    0.348E-02
DAV:   6    -0.437471465700E+03   -0.12087E-04   -0.54468E-05 26808   0.526E-02    0.491E-02
DAV:   7    -0.437471455965E+03    0.97357E-05   -0.61264E-05 25704   0.557E-02
  16 F= -.43747146E+03 E0= -.43745633E+03  d E =-.207625E-03  mag=     1.9678
