       N       E                     dE             d eps       ncg     rms          ort
DAV:   1     0.284823775506E+04    0.28482E+04   -0.29280E+05  2880   0.140E+03
DAV:   2    -0.967621389263E+03   -0.38159E+04   -0.36786E+04  2880   0.312E+02
DAV:   3    -0.122961603143E+04   -0.26199E+03   -0.26033E+03  2880   0.855E+01
DAV:   4    -0.123269011059E+04   -0.30741E+01   -0.30636E+01  2880   0.986E+00
DAV:   5    -0.123274029897E+04   -0.50188E-01   -0.50081E-01  2880   0.116E+00
SDA:   6    -0.871296799123E+03    0.36144E+03   -0.50081E-01  2880   0.621E+03 0.000E+00
CGA:   7    -0.984598320774E+03   -0.11330E+03   -0.11311E+03  2880   0.443E+02-0.267E+01
CGA:   8    -0.997801345310E+03   -0.13203E+02   -0.13176E+02  2880   0.106E+02 0.228E+00
CGA:   9    -0.100166018463E+04   -0.38588E+01   -0.38602E+01  2880   0.402E+01-0.133E-01
CGA:  10    -0.100293730258E+04   -0.12771E+01   -0.12810E+01  2880   0.873E+00-0.330E-01
CGA:  11    -0.100327284635E+04   -0.33554E+00   -0.33566E+00  2880   0.190E+00-0.483E-03
CGA:  12    -0.100333861975E+04   -0.65773E-01   -0.65764E-01  2880   0.433E-01 0.389E-04
CGA:  13    -0.100335499394E+04   -0.16374E-01   -0.16499E-01  2880   0.995E-02-0.852E-03
CGA:  14    -0.100335871073E+04   -0.37168E-02   -0.36401E-02  2880   0.218E-02 0.569E-03
CGA:  15    -0.100335966441E+04   -0.95367E-03   -0.92321E-03  2880   0.537E-03 0.195E-03
CGA:  16    -0.100335994012E+04   -0.27571E-03   -0.38191E-03  2880   0.424E-03-0.267E-03
CGA:  17    -0.100336000205E+04   -0.61930E-04   -0.61938E-04  2880   0.181E-03-0.995E-06
CGA:  18    -0.100336003336E+04   -0.31313E-04   -0.35189E-04  2880   0.729E-04 0.482E-04
CGA:  19    -0.100336004771E+04   -0.14350E-04   -0.17306E-04  2880   0.393E-04 0.356E-04
CGA:  20    -0.100336005864E+04   -0.10927E-04   -0.12033E-04  2880   0.182E-04 0.182E-04
CGA:  21    -0.100336006691E+04   -0.82731E-05   -0.84288E-05  2880   0.947E-05-0.294E-05
   1 F= -.10033601E+04 E0= -.10033601E+04  d E =-.100336E+04  mag=    -0.0000
       N       E                     dE             d eps       ncg     rms          ort
SDA:   1    -0.100338599196E+04   -0.25933E-01    0.00000E+00  2880   0.420E-02 0.000E+00
CGA:   2    -0.100338758306E+04   -0.15911E-02   -0.15868E-02  2880   0.823E-03 0.391E-04
CGA:   3    -0.100338779973E+04   -0.21666E-03   -0.21654E-03  2880   0.134E-03-0.851E-05
CGA:   4    -0.100338783599E+04   -0.36264E-04   -0.36268E-04  2880   0.241E-04-0.733E-05
CGA:   5    -0.100338784343E+04   -0.74385E-05   -0.74519E-05  2880   0.576E-05-0.252E-06
   2 F= -.10033878E+04 E0= -.10033878E+04  d E =-.277765E-01  mag=    -0.0000
       N       E                     dE             d eps       ncg     rms          ort
SDA:   1    -0.100260457681E+04    0.78326E+00    0.00000E+00  2880   0.308E+01 0.000E+00
CGA:   2    -0.100377152248E+04   -0.11669E+01   -0.11659E+01  2880   0.608E+00 0.729E-02
CGA:   3    -0.100392752091E+04   -0.15600E+00   -0.15597E+00  2880   0.103E+00-0.449E-03
CGA:   4    -0.100395480055E+04   -0.27280E-01   -0.27277E-01  2880   0.185E-01-0.185E-03
CGA:   5    -0.100396126276E+04   -0.64622E-02   -0.64585E-02  2880   0.529E-02 0.468E-04
CGA:   6    -0.100396341454E+04   -0.21518E-02   -0.21426E-02  2880   0.165E-02 0.747E-04
CGA:   7    -0.100396406524E+04   -0.65070E-03   -0.65375E-03  2880   0.394E-03-0.300E-04
CGA:   8    -0.100396420150E+04   -0.13626E-03   -0.13684E-03  2880   0.656E-04-0.964E-05
CGA:   9    -0.100396422565E+04   -0.24145E-04   -0.24475E-04  2880   0.128E-04-0.387E-05
CGA:  10    -0.100396422964E+04   -0.39927E-05   -0.39504E-05  2880   0.229E-05 0.164E-05
   3 F= -.10039642E+04 E0= -.10039642E+04  d E =-.576386E+00  mag=     0.0000
       N       E                     dE             d eps       ncg     rms          ort
SDA:   1    -0.100220204869E+04    0.17622E+01    0.00000E+00  2880   0.508E+01 0.000E+00
CGA:   2    -0.100410067366E+04   -0.18986E+01   -0.18980E+01  2880   0.102E+01 0.292E-02
CGA:   3    -0.100434627092E+04   -0.24560E+00   -0.24578E+00  2880   0.173E+00 0.135E-03
CGA:   4    -0.100439289018E+04   -0.46619E-01   -0.46612E-01  2880   0.279E-01-0.657E-04
CGA:   5    -0.100440253490E+04   -0.96447E-02   -0.96435E-02  2880   0.751E-02 0.245E-04
CGA:   6    -0.100440556571E+04   -0.30308E-02   -0.30264E-02  2880   0.245E-02 0.459E-04
CGA:   7    -0.100440651041E+04   -0.94470E-03   -0.94374E-03  2880   0.587E-03 0.154E-04
CGA:   8    -0.100440672740E+04   -0.21699E-03   -0.21831E-03  2880   0.113E-03-0.276E-04
CGA:   9    -0.100440676652E+04   -0.39120E-04   -0.39259E-04  2880   0.199E-04-0.349E-05
CGA:  10    -0.100440677361E+04   -0.70951E-05   -0.70632E-05  2880   0.418E-05 0.823E-06
   4 F= -.10044068E+04 E0= -.10044068E+04  d E =-.442544E+00  mag=     0.0000
       N       E                     dE             d eps       ncg     rms          ort
SDA:   1    -0.100334869069E+04    0.10581E+01    0.00000E+00  2880   0.289E+01 0.000E+00
CGA:   2    -0.100439089695E+04   -0.10422E+01   -0.10424E+01  2880   0.609E+00-0.444E-02
CGA:   3    -0.100454112076E+04   -0.15022E+00   -0.15035E+00  2880   0.951E-01-0.171E-03
CGA:   4    -0.100456646190E+04   -0.25341E-01   -0.25355E-01  2880   0.131E-01 0.232E-03
CGA:   5    -0.100457067418E+04   -0.42123E-02   -0.42126E-02  2880   0.291E-02 0.430E-04
CGA:   6    -0.100457181261E+04   -0.11384E-02   -0.11436E-02  2880   0.100E-02-0.810E-04
CGA:   7    -0.100457216448E+04   -0.35187E-03   -0.34994E-03  2880   0.243E-03 0.666E-04
CGA:   8    -0.100457226732E+04   -0.10284E-03   -0.10299E-03  2880   0.496E-04-0.232E-05
CGA:   9    -0.100457228804E+04   -0.20720E-04   -0.22128E-04  2880   0.150E-04-0.122E-04
CGA:  10    -0.100457229073E+04   -0.26860E-05   -0.28965E-05  2880   0.314E-05 0.249E-05
   5 F= -.10045723E+04 E0= -.10045723E+04  d E =-.165517E+00  mag=    -0.0000
       N       E                     dE             d eps       ncg     rms          ort
SDA:   1    -0.100316610861E+04    0.14062E+01    0.00000E+00  2880   0.354E+01 0.000E+00
CGA:   2    -0.100444101800E+04   -0.12749E+01   -0.12751E+01  2880   0.720E+00-0.388E-02
CGA:   3    -0.100462711668E+04   -0.18610E+00   -0.18616E+00  2880   0.106E+00-0.329E-03
CGA:   4    -0.100465476822E+04   -0.27652E-01   -0.27661E-01  2880   0.150E-01 0.137E-03
CGA:   5    -0.100465943908E+04   -0.46709E-02   -0.46720E-02  2880   0.306E-02 0.876E-04
CGA:   6    -0.100466067638E+04   -0.12373E-02   -0.12439E-02  2880   0.102E-02-0.811E-04
CGA:   7    -0.100466104713E+04   -0.37075E-03   -0.36866E-03  2880   0.266E-03 0.482E-04
CGA:   8    -0.100466115624E+04   -0.10911E-03   -0.10925E-03  2880   0.507E-04-0.218E-05
CGA:   9    -0.100466117751E+04   -0.21263E-04   -0.22383E-04  2880   0.130E-04-0.998E-05
CGA:  10    -0.100466118099E+04   -0.34781E-05   -0.34796E-05  2880   0.214E-05 0.335E-06
   6 F= -.10046612E+04 E0= -.10046612E+04  d E =-.888903E-01  mag=    -0.0000
       N       E                     dE             d eps       ncg     rms          ort
SDA:   1    -0.100232368271E+04    0.23375E+01    0.00000E+00  2880   0.566E+01 0.000E+00
CGA:   2    -0.100429801023E+04   -0.19743E+01   -0.19744E+01  2880   0.115E+01-0.427E-02
CGA:   3    -0.100460075855E+04   -0.30275E+00   -0.30281E+00  2880   0.181E+00-0.511E-03
CGA:   4    -0.100464938275E+04   -0.48624E-01   -0.48632E-01  2880   0.254E-01 0.148E-03
CGA:   5    -0.100465754943E+04   -0.81667E-02   -0.81675E-02  2880   0.554E-02 0.119E-03
CGA:   6    -0.100465985633E+04   -0.23069E-02   -0.23139E-02  2880   0.186E-02-0.794E-04
CGA:   7    -0.100466056518E+04   -0.70885E-03   -0.70783E-03  2880   0.527E-03 0.189E-04
CGA:   8    -0.100466076490E+04   -0.19972E-03   -0.20016E-03  2880   0.954E-04-0.108E-04
CGA:   9    -0.100466079898E+04   -0.34089E-04   -0.34134E-04  2880   0.165E-04-0.155E-05
CGA:  10    -0.100466080626E+04   -0.72787E-05   -0.88888E-05  2880   0.901E-05-0.767E-05
   7 F= -.10046608E+04 E0= -.10046608E+04  d E =0.374722E-03  mag=     0.0000
       N       E                     dE             d eps       ncg     rms          ort
SDA:   1    -0.100440684634E+04    0.25395E+00    0.00000E+00  2880   0.707E+00 0.000E+00
CGA:   2    -0.100465287055E+04   -0.24602E+00   -0.24602E+00  2880   0.166E+00-0.224E-03
CGA:   3    -0.100469478925E+04   -0.41919E-01   -0.41936E-01  2880   0.261E-01 0.215E-03
CGA:   4    -0.100470242996E+04   -0.76407E-02   -0.76422E-02  2880   0.399E-02 0.307E-04
CGA:   5    -0.100470378337E+04   -0.13534E-02   -0.13535E-02  2880   0.106E-02-0.468E-04
CGA:   6    -0.100470417571E+04   -0.39234E-03   -0.39149E-03  2880   0.312E-03 0.230E-04
CGA:   7    -0.100470430062E+04   -0.12491E-03   -0.12499E-03  2880   0.878E-04-0.145E-05
CGA:   8    -0.100470433224E+04   -0.31619E-04   -0.31599E-04  2880   0.157E-04 0.971E-06
CGA:   9    -0.100470433882E+04   -0.65822E-05   -0.68749E-05  2880   0.482E-05-0.321E-05
   8 F= -.10047043E+04 E0= -.10047043E+04  d E =-.435326E-01  mag=    -0.0000
       N       E                     dE             d eps       ncg     rms          ort
SDA:   1    -0.100465524420E+04    0.49088E-01    0.00000E+00  2880   0.130E+00 0.000E+00
CGA:   2    -0.100470265953E+04   -0.47415E-01   -0.47417E-01  2880   0.276E-01-0.705E-04
CGA:   3    -0.100470931640E+04   -0.66569E-02   -0.66599E-02  2880   0.422E-02 0.404E-04
CGA:   4    -0.100471044542E+04   -0.11290E-02   -0.11285E-02  2880   0.571E-03-0.818E-05
CGA:   5    -0.100471062689E+04   -0.18147E-03   -0.18136E-03  2880   0.117E-03-0.806E-05
CGA:   6    -0.100471066732E+04   -0.40427E-04   -0.40269E-04  2880   0.325E-04 0.896E-05
CGA:   7    -0.100471068370E+04   -0.16380E-04   -0.17763E-04  2880   0.184E-04-0.788E-05
CGA:   8    -0.100471068761E+04   -0.39135E-05   -0.39770E-05  2880   0.394E-05 0.114E-05
   9 F= -.10047107E+04 E0= -.10047107E+04  d E =-.634879E-02  mag=     0.0000
       N       E                     dE             d eps       ncg     rms          ort
SDA:   1    -0.100420343257E+04    0.50725E+00    0.00000E+00  2880   0.121E+01 0.000E+00
CGA:   2    -0.100465309266E+04   -0.44966E+00   -0.44967E+00  2880   0.240E+00-0.277E-03
CGA:   3    -0.100471164166E+04   -0.58549E-01   -0.58542E-01  2880   0.357E-01-0.446E-04
CGA:   4    -0.100472087574E+04   -0.92341E-02   -0.92366E-02  2880   0.498E-02 0.309E-04
CGA:   5    -0.100472240245E+04   -0.15267E-02   -0.15266E-02  2880   0.896E-03-0.460E-05
CGA:   6    -0.100472274891E+04   -0.34646E-03   -0.34598E-03  2880   0.282E-03 0.782E-05
CGA:   7    -0.100472286845E+04   -0.11954E-03   -0.12080E-03  2880   0.966E-04-0.130E-04
CGA:   8    -0.100472290182E+04   -0.33372E-04   -0.33345E-04  2880   0.165E-04 0.947E-06
CGA:   9    -0.100472290794E+04   -0.61202E-05   -0.61275E-05  2880   0.295E-05-0.217E-06
  10 F= -.10047229E+04 E0= -.10047229E+04  d E =-.122203E-01  mag=    -0.0000
       N       E                     dE             d eps       ncg     rms          ort
SDA:   1    -0.100326657522E+04    0.14563E+01    0.00000E+00  2880   0.343E+01 0.000E+00
CGA:   2    -0.100453742682E+04   -0.12709E+01   -0.12709E+01  2880   0.675E+00-0.623E-03
CGA:   3    -0.100470446634E+04   -0.16704E+00   -0.16704E+00  2880   0.974E-01-0.164E-03
CGA:   4    -0.100472958750E+04   -0.25121E-01   -0.25131E-01  2880   0.142E-01 0.123E-03
CGA:   5    -0.100473392473E+04   -0.43372E-02   -0.43369E-02  2880   0.254E-02-0.944E-05
CGA:   6    -0.100473492736E+04   -0.10026E-02   -0.10027E-02  2880   0.829E-03-0.317E-06
CGA:   7    -0.100473526690E+04   -0.33954E-03   -0.34027E-03  2880   0.261E-03-0.915E-05
CGA:   8    -0.100473536526E+04   -0.98359E-04   -0.98580E-04  2880   0.481E-04-0.466E-05
CGA:   9    -0.100473538214E+04   -0.16880E-04   -0.16874E-04  2880   0.744E-05 0.295E-06
CGA:  10    -0.100473538533E+04   -0.31912E-05   -0.34041E-05  2880   0.240E-05-0.183E-05
  11 F= -.10047354E+04 E0= -.10047354E+04  d E =-.124774E-01  mag=    -0.0000
       N       E                     dE             d eps       ncg     rms          ort
SDA:   1    -0.998182086266E+03    0.65533E+01    0.00000E+00  2880   0.153E+02 0.000E+00
CGA:   2    -0.100384524755E+04   -0.56632E+01   -0.56630E+01  2880   0.297E+01 0.789E-03
CGA:   3    -0.100458590773E+04   -0.74066E+00   -0.74099E+00  2880   0.427E+00 0.987E-04
CGA:   4    -0.100469695157E+04   -0.11104E+00   -0.11105E+00  2880   0.655E-01 0.121E-03
CGA:   5    -0.100471706940E+04   -0.20118E-01   -0.20121E-01  2880   0.123E-01 0.958E-04
CGA:   6    -0.100472206410E+04   -0.49947E-02   -0.49961E-02  2880   0.416E-02-0.209E-04
CGA:   7    -0.100472376661E+04   -0.17025E-02   -0.17055E-02  2880   0.126E-02-0.418E-04
CGA:   8    -0.100472422886E+04   -0.46225E-03   -0.46238E-03  2880   0.217E-03-0.428E-05
CGA:   9    -0.100472431191E+04   -0.83052E-04   -0.83680E-04  2880   0.384E-04-0.141E-04
CGA:  10    -0.100472432560E+04   -0.13694E-04   -0.13796E-04  2880   0.769E-05-0.264E-05
CGA:  11    -0.100472432866E+04   -0.30514E-05   -0.30692E-05  2880   0.186E-05-0.218E-06
  12 F= -.10047243E+04 E0= -.10047243E+04  d E =0.110567E-01  mag=     0.0000
       N       E                     dE             d eps       ncg     rms          ort
SDA:   1    -0.100280573180E+04    0.19186E+01    0.00000E+00  2880   0.455E+01 0.000E+00
CGA:   2    -0.100447558930E+04   -0.16699E+01   -0.16698E+01  2880   0.913E+00 0.145E-02
CGA:   3    -0.100470143510E+04   -0.22585E+00   -0.22582E+00  2880   0.136E+00-0.114E-03
CGA:   4    -0.100473644999E+04   -0.35015E-01   -0.35011E-01  2880   0.194E-01-0.269E-04
CGA:   5    -0.100474242629E+04   -0.59763E-02   -0.59759E-02  2880   0.358E-02-0.985E-05
CGA:   6    -0.100474384100E+04   -0.14147E-02   -0.14138E-02  2880   0.117E-02 0.180E-04
CGA:   7    -0.100474432285E+04   -0.48185E-03   -0.48320E-03  2880   0.370E-03-0.200E-04
CGA:   8    -0.100474446139E+04   -0.13855E-03   -0.13883E-03  2880   0.659E-04-0.826E-05
CGA:   9    -0.100474448565E+04   -0.24260E-04   -0.24324E-04  2880   0.108E-04-0.232E-05
CGA:  10    -0.100474448989E+04   -0.42373E-05   -0.43407E-05  2880   0.264E-05-0.160E-05
  13 F= -.10047445E+04 E0= -.10047445E+04  d E =-.201612E-01  mag=    -0.0000
       N       E                     dE             d eps       ncg     rms          ort
SDA:   1    -0.100376727035E+04    0.97722E+00    0.00000E+00  2880   0.224E+01 0.000E+00
CGA:   2    -0.100460572914E+04   -0.83846E+00   -0.83843E+00  2880   0.461E+00 0.629E-03
CGA:   3    -0.100471737408E+04   -0.11164E+00   -0.11162E+00  2880   0.682E-01 0.166E-04
CGA:   4    -0.100473533328E+04   -0.17959E-01   -0.17967E-01  2880   0.101E-01 0.834E-04
CGA:   5    -0.100473847235E+04   -0.31391E-02   -0.31392E-02  2880   0.197E-02 0.611E-05
CGA:   6    -0.100473925101E+04   -0.77865E-03   -0.77988E-03  2880   0.669E-03-0.225E-04
CGA:   7    -0.100473950307E+04   -0.25206E-03   -0.25135E-03  2880   0.189E-03 0.203E-04
CGA:   8    -0.100473957824E+04   -0.75172E-04   -0.75195E-04  2880   0.365E-04-0.538E-06
CGA:   9    -0.100473959277E+04   -0.14530E-04   -0.14817E-04  2880   0.822E-05-0.488E-05
CGA:  10    -0.100473959462E+04   -0.18500E-05   -0.19453E-05  2880   0.126E-05 0.122E-05
  14 F= -.10047396E+04 E0= -.10047396E+04  d E =0.489527E-02  mag=     0.0000
       N       E                     dE             d eps       ncg     rms          ort
SDA:   1    -0.100415380682E+04    0.58579E+00    0.00000E+00  2880   0.137E+01 0.000E+00
CGA:   2    -0.100466880943E+04   -0.51500E+00   -0.51503E+00  2880   0.274E+00-0.544E-03
CGA:   3    -0.100473586507E+04   -0.67056E-01   -0.67060E-01  2880   0.392E-01-0.903E-04
CGA:   4    -0.100474609790E+04   -0.10233E-01   -0.10233E-01  2880   0.582E-02 0.330E-05
CGA:   5    -0.100474788102E+04   -0.17831E-02   -0.17832E-02  2880   0.105E-02 0.183E-05
CGA:   6    -0.100474829420E+04   -0.41318E-03   -0.41283E-03  2880   0.340E-03 0.645E-05
CGA:   7    -0.100474843706E+04   -0.14286E-03   -0.14393E-03  2880   0.112E-03-0.129E-04
CGA:   8    -0.100474847689E+04   -0.39830E-04   -0.39836E-04  2880   0.194E-04-0.216E-06
CGA:   9    -0.100474848400E+04   -0.71130E-05   -0.71184E-05  2880   0.334E-05-0.241E-06
  15 F= -.10047485E+04 E0= -.10047485E+04  d E =-.888938E-02  mag=    -0.0000
       N       E                     dE             d eps       ncg     rms          ort
SDA:   1    -0.100471967415E+04    0.28803E-01    0.00000E+00  2880   0.684E-01 0.000E+00
CGA:   2    -0.100474555180E+04   -0.25878E-01   -0.25878E-01  2880   0.134E-01 0.890E-05
CGA:   3    -0.100474886529E+04   -0.33135E-02   -0.33122E-02  2880   0.189E-02-0.118E-04
CGA:   4    -0.100474936007E+04   -0.49478E-03   -0.49366E-03  2880   0.288E-03-0.130E-04
CGA:   5    -0.100474944580E+04   -0.85731E-04   -0.85809E-04  2880   0.501E-04 0.188E-05
CGA:   6    -0.100474946512E+04   -0.19320E-04   -0.19262E-04  2880   0.157E-04 0.141E-05
CGA:   7    -0.100474947283E+04   -0.77120E-05   -0.84398E-05  2880   0.864E-05-0.408E-05
  16 F= -.10047495E+04 E0= -.10047495E+04  d E =-.988830E-03  mag=    -0.0000
       N       E                     dE             d eps       ncg     rms          ort
SDA:   1    -0.100277782695E+04    0.19716E+01    0.00000E+00  2880   0.455E+01 0.000E+00
CGA:   2    -0.100449491938E+04   -0.17171E+01   -0.17171E+01  2880   0.885E+00-0.494E-03
CGA:   3    -0.100471353846E+04   -0.21862E+00   -0.21860E+00  2880   0.125E+00-0.141E-03
CGA:   4    -0.100474587547E+04   -0.32337E-01   -0.32335E-01  2880   0.187E-01-0.242E-04
CGA:   5    -0.100475152256E+04   -0.56471E-02   -0.56478E-02  2880   0.326E-02 0.224E-04
CGA:   6    -0.100475280423E+04   -0.12817E-02   -0.12820E-02  2880   0.108E-02-0.663E-05
CGA:   7    -0.100475325026E+04   -0.44603E-03   -0.44712E-03  2880   0.337E-03-0.144E-04
CGA:   8    -0.100475337576E+04   -0.12550E-03   -0.12552E-03  2880   0.594E-04-0.488E-06
CGA:   9    -0.100475339951E+04   -0.23749E-04   -0.24204E-04  2880   0.117E-04-0.732E-05
CGA:  10    -0.100475340294E+04   -0.34332E-05   -0.34368E-05  2880   0.178E-05 0.287E-06
  17 F= -.10047534E+04 E0= -.10047534E+04  d E =-.393010E-02  mag=     0.0000
       N       E                     dE             d eps       ncg     rms          ort
SDA:   1    -0.100363340458E+04    0.11200E+01    0.00000E+00  2880   0.255E+01 0.000E+00
CGA:   2    -0.100457678732E+04   -0.94338E+00   -0.94340E+00  2880   0.521E+00-0.582E-03
CGA:   3    -0.100470663973E+04   -0.12985E+00   -0.12984E+00  2880   0.761E-01-0.180E-03
CGA:   4    -0.100472668535E+04   -0.20046E-01   -0.20055E-01  2880   0.115E-01 0.121E-03
CGA:   5    -0.100473026686E+04   -0.35815E-02   -0.35816E-02  2880   0.222E-02 0.527E-05
CGA:   6    -0.100473114584E+04   -0.87898E-03   -0.88076E-03  2880   0.751E-03-0.312E-04
CGA:   7    -0.100473142679E+04   -0.28094E-03   -0.28007E-03  2880   0.207E-03 0.245E-04
CGA:   8    -0.100473151141E+04   -0.84622E-04   -0.84926E-04  2880   0.422E-04-0.564E-05
CGA:   9    -0.100473152751E+04   -0.16103E-04   -0.16307E-04  2880   0.843E-05-0.405E-05
CGA:  10    -0.100473153012E+04   -0.26034E-05   -0.26046E-05  2880   0.131E-05 0.171E-06
  18 F= -.10047315E+04 E0= -.10047315E+04  d E =0.218728E-01  mag=     0.0000
       N       E                     dE             d eps       ncg     rms          ort
SDA:   1    -0.100352944961E+04    0.12021E+01    0.00000E+00  2880   0.284E+01 0.000E+00
CGA:   2    -0.100458489847E+04   -0.10554E+01   -0.10555E+01  2880   0.575E+00-0.469E-03
CGA:   3    -0.100472780642E+04   -0.14291E+00   -0.14290E+00  2880   0.829E-01-0.102E-03
CGA:   4    -0.100474963744E+04   -0.21831E-01   -0.21827E-01  2880   0.125E-01-0.508E-04
CGA:   5    -0.100475351069E+04   -0.38733E-02   -0.38731E-02  2880   0.236E-02-0.222E-05
CGA:   6    -0.100475442735E+04   -0.91666E-03   -0.91568E-03  2880   0.767E-03 0.197E-04
CGA:   7    -0.100475474641E+04   -0.31906E-03   -0.32106E-03  2880   0.252E-03-0.267E-04
CGA:   8    -0.100475483655E+04   -0.90136E-04   -0.90210E-04  2880   0.445E-04-0.267E-05
CGA:   9    -0.100475485226E+04   -0.15719E-04   -0.15708E-04  2880   0.737E-05 0.941E-06
CGA:  10    -0.100475485544E+04   -0.31751E-05   -0.32921E-05  2880   0.198E-05-0.128E-05
  19 F= -.10047549E+04 E0= -.10047549E+04  d E =-.233253E-01  mag=    -0.0000
