       N       E                     dE             d eps       ncg     rms          ort
DAV:   1     0.291015981688E+04    0.29102E+04   -0.21019E+05  2592   0.138E+03
DAV:   2    -0.713457722940E+03   -0.36236E+04   -0.34741E+04  2592   0.242E+02
DAV:   3    -0.120052876693E+04   -0.48707E+03   -0.48231E+03  2592   0.956E+01
DAV:   4    -0.122375075484E+04   -0.23222E+02   -0.23044E+02  2592   0.232E+01
DAV:   5    -0.122506932571E+04   -0.13186E+01   -0.13167E+01  2592   0.542E+00
SDA:   6    -0.109304912609E+04    0.13202E+03   -0.13167E+01  2592   0.718E+02 0.000E+00
CGA:   7    -0.110896794507E+04   -0.15919E+02   -0.15921E+02  2592   0.653E+01 0.934E-01
CGA:   8    -0.111088635521E+04   -0.19184E+01   -0.19088E+01  2592   0.152E+01 0.897E-01
CGA:   9    -0.111138909112E+04   -0.50274E+00   -0.50250E+00  2592   0.407E+00 0.211E-02
CGA:  10    -0.111154306965E+04   -0.15398E+00   -0.15539E+00  2592   0.107E+00-0.909E-02
CGA:  11    -0.111158291155E+04   -0.39842E-01   -0.40003E-01  2592   0.263E-01-0.103E-02
CGA:  12    -0.111159189706E+04   -0.89855E-02   -0.90002E-02  2592   0.552E-02-0.132E-03
CGA:  13    -0.111159426103E+04   -0.23640E-02   -0.25191E-02  2592   0.173E-02-0.696E-03
CGA:  14    -0.111159478687E+04   -0.52584E-03   -0.51822E-03  2592   0.393E-03 0.773E-04
CGA:  15    -0.111159488742E+04   -0.10056E-03   -0.10113E-03  2592   0.114E-03 0.143E-03
CGA:  16    -0.111159490977E+04   -0.22343E-04   -0.27864E-04  2592   0.444E-04 0.784E-04
CGA:  17    -0.111159491808E+04   -0.83111E-05   -0.92867E-05  2592   0.209E-04 0.262E-04
   1 F= -.11115949E+04 E0= -.11115949E+04  d E =-.111159E+04  mag=     0.0000
       N       E                     dE             d eps       ncg     rms          ort
SDA:   1    -0.111159568037E+04   -0.77060E-03    0.00000E+00  2592   0.957E-03 0.000E+00
CGA:   2    -0.111159592603E+04   -0.24567E-03   -0.24521E-03  2592   0.220E-03 0.309E-04
CGA:   3    -0.111159599159E+04   -0.65558E-04   -0.64478E-04  2592   0.488E-04 0.262E-04
CGA:   4    -0.111159600866E+04   -0.17072E-04   -0.16634E-04  2592   0.116E-04 0.727E-05
CGA:   5    -0.111159601243E+04   -0.37661E-05   -0.36732E-05  2592   0.290E-05 0.328E-05
   2 F= -.11115960E+04 E0= -.11115960E+04  d E =-.109435E-02  mag=    -0.0000
       N       E                     dE             d eps       ncg     rms          ort
SDA:   1    -0.111155316818E+04    0.42840E-01    0.00000E+00  2592   0.147E+00 0.000E+00
CGA:   2    -0.111159168507E+04   -0.38517E-01   -0.38517E-01  2592   0.349E-01-0.364E-04
CGA:   3    -0.111160252093E+04   -0.10836E-01   -0.10836E-01  2592   0.866E-02-0.418E-05
CGA:   4    -0.111160527974E+04   -0.27588E-02   -0.27614E-02  2592   0.207E-02-0.434E-04
CGA:   5    -0.111160593441E+04   -0.65467E-03   -0.65322E-03  2592   0.517E-03 0.238E-04
CGA:   6    -0.111160613001E+04   -0.19560E-03   -0.19558E-03  2592   0.122E-03-0.114E-06
CGA:   7    -0.111160617463E+04   -0.44628E-04   -0.44541E-04  2592   0.296E-04 0.848E-06
CGA:   8    -0.111160618635E+04   -0.11720E-04   -0.11945E-04  2592   0.889E-05-0.177E-05
CGA:   9    -0.111160618913E+04   -0.27782E-05   -0.27529E-05  2592   0.218E-05 0.493E-06
   3 F= -.11116062E+04 E0= -.11116062E+04  d E =-.101767E-01  mag=     0.0000
       N       E                     dE             d eps       ncg     rms          ort
SDA:   1    -0.111135259990E+04    0.25359E+00    0.00000E+00  2592   0.777E+00 0.000E+00
CGA:   2    -0.111154661434E+04   -0.19401E+00   -0.19404E+00  2592   0.178E+00 0.113E-03
CGA:   3    -0.111160140099E+04   -0.54787E-01   -0.54788E-01  2592   0.441E-01-0.920E-04
CGA:   4    -0.111161543021E+04   -0.14029E-01   -0.14032E-01  2592   0.104E-01-0.102E-03
CGA:   5    -0.111161872026E+04   -0.32900E-02   -0.32877E-02  2592   0.246E-02 0.731E-04
CGA:   6    -0.111161965313E+04   -0.93287E-03   -0.93299E-03  2592   0.559E-03-0.271E-05
CGA:   7    -0.111161985689E+04   -0.20376E-03   -0.20383E-03  2592   0.137E-03-0.122E-05
CGA:   8    -0.111161990809E+04   -0.51199E-04   -0.51187E-04  2592   0.365E-04 0.926E-07
CGA:   9    -0.111161992212E+04   -0.14030E-04   -0.14072E-04  2592   0.110E-04-0.511E-06
CGA:  10    -0.111161992607E+04   -0.39484E-05   -0.40031E-05  2592   0.276E-05-0.850E-06
   4 F= -.11116199E+04 E0= -.11116199E+04  d E =-.137369E-01  mag=    -0.0000
       N       E                     dE             d eps       ncg     rms          ort
SDA:   1    -0.111139946792E+04    0.22045E+00    0.00000E+00  2592   0.646E+00 0.000E+00
CGA:   2    -0.111156750400E+04   -0.16804E+00   -0.16805E+00  2592   0.152E+00 0.314E-04
CGA:   3    -0.111161311674E+04   -0.45613E-01   -0.45613E-01  2592   0.383E-01-0.651E-05
CGA:   4    -0.111162537074E+04   -0.12254E-01   -0.12255E-01  2592   0.904E-02-0.754E-04
CGA:   5    -0.111162825300E+04   -0.28823E-02   -0.28810E-02  2592   0.215E-02 0.662E-04
CGA:   6    -0.111162906063E+04   -0.80762E-03   -0.80791E-03  2592   0.495E-03-0.508E-05
CGA:   7    -0.111162924097E+04   -0.18034E-03   -0.18034E-03  2592   0.120E-03-0.264E-06
CGA:   8    -0.111162928613E+04   -0.45160E-04   -0.45138E-04  2592   0.334E-04 0.274E-06
CGA:   9    -0.111162929877E+04   -0.12646E-04   -0.12693E-04  2592   0.103E-04-0.721E-06
CGA:  10    -0.111162930244E+04   -0.36684E-05   -0.37130E-05  2592   0.255E-05-0.822E-06
   5 F= -.11116293E+04 E0= -.11116293E+04  d E =-.937638E-02  mag=    -0.0000
       N       E                     dE             d eps       ncg     rms          ort
SDA:   1    -0.111095881280E+04    0.67049E+00    0.00000E+00  2592   0.180E+01 0.000E+00
CGA:   2    -0.111145976364E+04   -0.50095E+00   -0.50096E+00  2592   0.443E+00 0.118E-04
CGA:   3    -0.111158861163E+04   -0.12885E+00   -0.12885E+00  2592   0.115E+00 0.536E-05
CGA:   4    -0.111162523554E+04   -0.36624E-01   -0.36625E-01  2592   0.259E-01-0.168E-03
CGA:   5    -0.111163369507E+04   -0.84595E-02   -0.84582E-02  2592   0.628E-02 0.686E-04
CGA:   6    -0.111163600216E+04   -0.23071E-02   -0.23066E-02  2592   0.143E-02 0.514E-05
CGA:   7    -0.111163651800E+04   -0.51584E-03   -0.51553E-03  2592   0.356E-03 0.604E-05
CGA:   8    -0.111163665299E+04   -0.13499E-03   -0.13546E-03  2592   0.110E-03-0.752E-05
CGA:   9    -0.111163669047E+04   -0.37481E-04   -0.37428E-04  2592   0.297E-04 0.173E-05
CGA:  10    -0.111163670163E+04   -0.11160E-04   -0.11193E-04  2592   0.662E-05-0.668E-06
CGA:  11    -0.111163670355E+04   -0.19225E-05   -0.19434E-05  2592   0.106E-05 0.908E-06
   6 F= -.11116367E+04 E0= -.11116367E+04  d E =-.740111E-02  mag=    -0.0000
       N       E                     dE             d eps       ncg     rms          ort
SDA:   1    -0.111102951928E+04    0.60718E+00    0.00000E+00  2592   0.163E+01 0.000E+00
CGA:   2    -0.111148050347E+04   -0.45098E+00   -0.45098E+00  2592   0.396E+00-0.273E-04
CGA:   3    -0.111159713715E+04   -0.11663E+00   -0.11665E+00  2592   0.102E+00 0.490E-04
CGA:   4    -0.111162968042E+04   -0.32543E-01   -0.32542E-01  2592   0.231E-01-0.695E-04
CGA:   5    -0.111163718689E+04   -0.75065E-02   -0.75080E-02  2592   0.586E-02 0.382E-04
CGA:   6    -0.111163928438E+04   -0.20975E-02   -0.20975E-02  2592   0.138E-02-0.733E-06
CGA:   7    -0.111163977644E+04   -0.49207E-03   -0.49206E-03  2592   0.324E-03 0.116E-04
CGA:   8    -0.111163990382E+04   -0.12738E-03   -0.12762E-03  2592   0.972E-04-0.716E-05
CGA:   9    -0.111163993763E+04   -0.33808E-04   -0.33813E-04  2592   0.263E-04 0.143E-05
CGA:  10    -0.111163994717E+04   -0.95321E-05   -0.95320E-05  2592   0.598E-05-0.122E-07
   7 F= -.11116399E+04 E0= -.11116399E+04  d E =-.324361E-02  mag=    -0.0000
       N       E                     dE             d eps       ncg     rms          ort
SDA:   1    -0.111144657814E+04    0.19336E+00    0.00000E+00  2592   0.541E+00 0.000E+00
CGA:   2    -0.111159085730E+04   -0.14428E+00   -0.14428E+00  2592   0.131E+00 0.789E-04
CGA:   3    -0.111162967038E+04   -0.38813E-01   -0.38816E-01  2592   0.335E-01-0.348E-04
CGA:   4    -0.111164036552E+04   -0.10695E-01   -0.10696E-01  2592   0.767E-02 0.288E-04
CGA:   5    -0.111164287042E+04   -0.25049E-02   -0.25042E-02  2592   0.192E-02-0.355E-04
CGA:   6    -0.111164356142E+04   -0.69100E-03   -0.69071E-03  2592   0.429E-03 0.186E-04
CGA:   7    -0.111164372135E+04   -0.15993E-03   -0.16000E-03  2592   0.108E-03-0.367E-05
CGA:   8    -0.111164376059E+04   -0.39246E-04   -0.39207E-04  2592   0.292E-04 0.232E-05
CGA:   9    -0.111164377148E+04   -0.10887E-04   -0.10878E-04  2592   0.840E-05 0.628E-06
CGA:  10    -0.111164377439E+04   -0.29131E-05   -0.29182E-05  2592   0.171E-05 0.492E-06
   8 F= -.11116438E+04 E0= -.11116438E+04  d E =-.382723E-02  mag=     0.0000
       N       E                     dE             d eps       ncg     rms          ort
SDA:   1    -0.111162267222E+04    0.21099E-01    0.00000E+00  2592   0.640E-01 0.000E+00
CGA:   2    -0.111163913646E+04   -0.16464E-01   -0.16462E-01  2592   0.151E-01-0.246E-04
CGA:   3    -0.111164373941E+04   -0.46030E-02   -0.46022E-02  2592   0.381E-02-0.168E-04
CGA:   4    -0.111164495419E+04   -0.12148E-02   -0.12147E-02  2592   0.867E-03-0.341E-05
CGA:   5    -0.111164524384E+04   -0.28965E-03   -0.28945E-03  2592   0.223E-03-0.503E-05
CGA:   6    -0.111164532535E+04   -0.81517E-04   -0.81511E-04  2592   0.518E-04-0.902E-06
CGA:   7    -0.111164534369E+04   -0.18330E-04   -0.18364E-04  2592   0.118E-04 0.175E-05
CGA:   8    -0.111164534877E+04   -0.50888E-05   -0.51411E-05  2592   0.413E-05-0.107E-05
   9 F= -.11116453E+04 E0= -.11116453E+04  d E =-.157438E-02  mag=    -0.0000
