       N       E                     dE             d eps       ncg     rms          ort
DAV:   1     0.423943731598E+04    0.42394E+04   -0.16746E+05  1696   0.169E+03
DAV:   2     0.775353449251E+02   -0.41619E+04   -0.40567E+04  1696   0.488E+02
DAV:   3    -0.713415464715E+03   -0.79095E+03   -0.75576E+03  1696   0.178E+02
DAV:   4    -0.777627639843E+03   -0.64212E+02   -0.63699E+02  1696   0.527E+01
DAV:   5    -0.779096428801E+03   -0.14688E+01   -0.14638E+01  1696   0.945E+00
SDA:   6    -0.486226279584E+03    0.29287E+03   -0.14638E+01  1696   0.887E+03 0.000E+00
CGA:   7    -0.608423527531E+03   -0.12220E+03   -0.11711E+03  1696   0.104E+03 0.903E+00
CGA:   8    -0.628661226829E+03   -0.20238E+02   -0.20228E+02  1696   0.462E+02-0.161E+01
CGA:   9    -0.637742272894E+03   -0.90810E+01   -0.90804E+01  1696   0.171E+02 0.185E+00
CGA:  10    -0.641213135014E+03   -0.34709E+01   -0.34707E+01  1696   0.502E+01 0.564E-01
CGA:  11    -0.642151410440E+03   -0.93828E+00   -0.93807E+00  1696   0.153E+01-0.177E-01
CGA:  12    -0.642487660304E+03   -0.33625E+00   -0.33657E+00  1696   0.635E+00-0.132E-01
CGA:  13    -0.642645996285E+03   -0.15834E+00   -0.16013E+00  1696   0.251E+00-0.311E-01
CGA:  14    -0.642712671031E+03   -0.66675E-01   -0.67652E-01  1696   0.115E+00-0.118E-01
CGA:  15    -0.642740481865E+03   -0.27811E-01   -0.27549E-01  1696   0.577E-01 0.551E-02
CGA:  16    -0.642756842068E+03   -0.16360E-01   -0.16422E-01  1696   0.210E-01-0.922E-03
CGA:  17    -0.642763368266E+03   -0.65262E-02   -0.67561E-02  1696   0.106E-01-0.196E-02
CGA:  18    -0.642765698720E+03   -0.23305E-02   -0.23522E-02  1696   0.670E-02-0.762E-03
CGA:  19    -0.642767304625E+03   -0.16059E-02   -0.17260E-02  1696   0.462E-02-0.199E-02
CGA:  20    -0.642768108040E+03   -0.80341E-03   -0.82335E-03  1696   0.257E-02-0.602E-03
CGA:  21    -0.642768524148E+03   -0.41611E-03   -0.42976E-03  1696   0.966E-03 0.461E-03
CGA:  22    -0.642768744518E+03   -0.22037E-03   -0.22689E-03  1696   0.464E-03 0.304E-03
CGA:  23    -0.642768840553E+03   -0.96035E-04   -0.10366E-03  1696   0.186E-03 0.154E-03
CGA:  24    -0.642768873772E+03   -0.33219E-04   -0.39884E-04  1696   0.104E-03 0.120E-03
CGA:  25    -0.642768901247E+03   -0.27475E-04   -0.25957E-04  1696   0.619E-04 0.434E-04
CGA:  26    -0.642768925050E+03   -0.23802E-04   -0.23084E-04  1696   0.451E-04 0.153E-04
CGA:  27    -0.642768926880E+03   -0.18307E-05   -0.59425E-05  1696   0.218E-04 0.365E-04
   1 F= -.64276893E+03 E0= -.64276789E+03  d E =-.642769E+03  mag=     0.0000
