       N       E                     dE             d eps       ncg     rms          ort
DAV:   1     0.112892580622E+05    0.11289E+05   -0.46678E+05  8540   0.170E+03
DAV:   2     0.779744100110E+02   -0.11211E+05   -0.10205E+05  8540   0.487E+02
DAV:   3    -0.154361924819E+04   -0.16216E+04   -0.15368E+04  8540   0.197E+02
DAV:   4    -0.162653495369E+04   -0.82916E+02   -0.81789E+02  8540   0.454E+01
DAV:   5    -0.162757863306E+04   -0.10437E+01   -0.10407E+01  8540   0.554E+00
SDA:   6    -0.793431932506E+03    0.83415E+03   -0.10407E+01  8540   0.284E+04 0.000E+00
CGA:   7    -0.119468517572E+04   -0.40125E+03   -0.40000E+03  8540   0.531E+03-0.312E+02
CGA:   8    -0.124199508953E+04   -0.47310E+02   -0.65301E+02  8540   0.103E+03 0.532E+02
CGA:   9    -0.126402706459E+04   -0.22032E+02   -0.23115E+02  8540   0.149E+03-0.760E+02
CGA:  10    -0.127301328634E+04   -0.89862E+01   -0.17383E+02  8540   0.202E+02 0.154E+02
CGA:  11    -0.127172198478E+04    0.12913E+01   -0.63894E+01  8540   0.717E+02-0.954E+01
CGA:  12    -0.127629182682E+04   -0.45698E+01   -0.31675E+01  8540   0.225E+03 0.240E+02
CGA:  13    -0.127301163654E+04    0.32802E+01   -0.10629E+02  8540   0.462E+02-0.216E+03
CGA:  14    -0.128281829178E+04   -0.98067E+01   -0.97764E+01  8540   0.594E+01 0.795E+00
CGA:  15    -0.128453927404E+04   -0.17210E+01   -0.16824E+01  8540   0.226E+01 0.390E+00
CGA:  16    -0.128528378427E+04   -0.74451E+00   -0.74483E+00  8540   0.342E+00-0.740E-02
CGA:  17    -0.128540003176E+04   -0.11625E+00   -0.13828E+00  8540   0.146E+00-0.104E+00
CGA:  18    -0.128542492891E+04   -0.24897E-01   -0.24913E-01  8540   0.372E-01-0.583E-03
CGA:  19    -0.128543489454E+04   -0.99656E-02   -0.96534E-02  8540   0.133E-01 0.570E-02
CGA:  20    -0.128543657548E+04   -0.16809E-02   -0.10161E-01  8540   0.457E-01-0.189E-01
CGA:  21    -0.128544532103E+04   -0.87456E-02   -0.87850E-02  8540   0.593E-02 0.961E-03
CGA:  22    -0.128544881604E+04   -0.34950E-02    0.27373E-02  8540   0.115E-02 0.164E-02
CGA:  23    -0.128545067141E+04   -0.18554E-02    0.95654E-04  8540   0.627E-03 0.515E-03
CGA:  24    -0.128545186335E+04   -0.11919E-02    0.56396E-04  8540   0.457E-03 0.520E-03
CGA:  25    -0.128545195752E+04   -0.94171E-04   -0.98452E-04  8540   0.285E-03 0.293E-03
CGA:  26    -0.128545240100E+04   -0.44347E-03    0.13650E-04  8540   0.229E-03 0.246E-03
CGA:  27    -0.128545269085E+04   -0.28985E-03    0.14823E-04  8540   0.192E-03 0.207E-03
CGA:  28    -0.128545302604E+04   -0.33519E-03    0.78179E-05  8540   0.163E-03 0.176E-03
CGA:  29    -0.128545329093E+04   -0.26489E-03    0.73129E-05  8540   0.138E-03 0.150E-03
CGA:  30    -0.128545355911E+04   -0.26819E-03    0.49218E-05  8540   0.118E-03 0.127E-03
CGA:  31    -0.128545377732E+04   -0.21821E-03    0.44581E-05  8540   0.101E-03 0.108E-03
CGA:  32    -0.128545399869E+04   -0.22137E-03    0.30390E-05  8540   0.862E-04 0.922E-04
CGA:  33    -0.128545416918E+04   -0.17049E-03    0.29780E-05  8540   0.744E-04 0.779E-04
CGA:  34    -0.128545436259E+04   -0.19341E-03    0.18252E-05  8540   0.658E-04 0.648E-04
CGA:  35    -0.128545447957E+04   -0.11698E-03    0.26232E-05  8540   0.614E-04 0.515E-04
CGA:  36    -0.128545466676E+04   -0.18719E-03    0.12466E-05  8540   0.622E-04 0.365E-04
CGA:  37    -0.128545472400E+04   -0.57235E-04    0.70899E-05  8540   0.690E-04 0.183E-04
CGA:  38    -0.128545498198E+04   -0.25799E-03    0.19284E-05  8540   0.391E-04 0.733E-04
CGA:  39    -0.128545513273E+04   -0.15075E-03    0.60516E-06  8540   0.395E-04 0.997E-05
CGA:  40    -0.128545530005E+04   -0.16733E-03    0.89281E-06  8540   0.253E-04 0.413E-04
CGA:  41    -0.128545520606E+04    0.93998E-04   -0.50695E-04  8540   0.134E-02-0.104E-03
CGA:  42    -0.128545585205E+04   -0.64599E-03   -0.38461E-03  8540   0.296E-02-0.200E-02
CGA:  43    -0.128545585749E+04   -0.54403E-05   -0.25545E-03  8540   0.200E-03 0.772E-03
CGA:  44    -0.128545582005E+04    0.37433E-04   -0.10973E-04  8540   0.596E-04 0.138E-03
CGA:  45    -0.128545580658E+04    0.13478E-04   -0.19474E-05  8540   0.330E-04 0.447E-04
CGA:  46    -0.128545579863E+04    0.79493E-05   -0.90472E-06  8540   0.211E-04 0.266E-04
   1 F= -.12854558E+04 E0= -.12854558E+04  d E =-.128546E+04  mag=   126.0000
       N       E                     dE             d eps       ncg     rms          ort
SDA:   1    -0.128545676340E+04   -0.95682E-03    0.00000E+00  8540   0.275E-02 0.000E+00
CGA:   2    -0.128545743845E+04   -0.67505E-03   -0.65109E-03  8540   0.145E-02-0.265E-03
CGA:   3    -0.128545772882E+04   -0.29038E-03   -0.28856E-03  8540   0.291E-03-0.184E-04
CGA:   4    -0.128545776888E+04   -0.40055E-04   -0.47325E-04  8540   0.485E-04 0.472E-04
CGA:   5    -0.128545778470E+04   -0.15817E-04   -0.15276E-04  8540   0.220E-04-0.138E-04
CGA:   6    -0.128545780642E+04   -0.21722E-04    0.19603E-05  8540   0.118E-04-0.710E-05
CGA:   7    -0.128545782935E+04   -0.22929E-04    0.33407E-06  8540   0.535E-05-0.225E-05
CGA:   8    -0.128545784397E+04   -0.14623E-04    0.14898E-06  8540   0.267E-05-0.917E-06
CGA:   9    -0.128545785676E+04   -0.12787E-04    0.40648E-07  8540   0.125E-05-0.129E-06
CGA:  10    -0.128545786906E+04   -0.12298E-04    0.11703E-07  8540   0.556E-06-0.294E-07
CGA:  11    -0.128545787787E+04   -0.88130E-05    0.33050E-08  8540   0.224E-06 0.238E-08
   2 F= -.12854579E+04 E0= -.12854579E+04  d E =-.207924E-02  mag=   126.0000
       N       E                     dE             d eps       ncg     rms          ort
SDA:   1    -0.128208936235E+04    0.33685E+01    0.00000E+00  8540   0.971E+01 0.000E+00
CGA:   2    -0.128422206331E+04   -0.21327E+01   -0.21341E+01  8540   0.432E+01 0.558E-02
CGA:   3    -0.128523059482E+04   -0.10085E+01   -0.10088E+01  8540   0.928E+00 0.147E-02
CGA:   4    -0.128541958386E+04   -0.18899E+00   -0.18906E+00  8540   0.168E+00 0.589E-03
CGA:   5    -0.128545676870E+04   -0.37185E-01   -0.37211E-01  8540   0.391E-01 0.297E-03
CGA:   6    -0.128546639429E+04   -0.96256E-02   -0.96248E-02  8540   0.100E-01-0.271E-04
CGA:   7    -0.128546910134E+04   -0.27071E-02   -0.27127E-02  8540   0.281E-02 0.301E-03
CGA:   8    -0.128546991691E+04   -0.81557E-03   -0.81743E-03  8540   0.841E-03 0.292E-03
CGA:   9    -0.128547019163E+04   -0.27472E-03   -0.27352E-03  8540   0.281E-03 0.189E-03
CGA:  10    -0.128547026703E+04   -0.75400E-04   -0.82392E-04  8540   0.111E-03 0.141E-03
CGA:  11    -0.128547028281E+04   -0.15785E-04   -0.21940E-04  8540   0.557E-04 0.689E-04
CGA:  12    -0.128547028654E+04   -0.37236E-05   -0.92283E-05  8540   0.420E-04 0.475E-04
   3 F= -.12854703E+04 E0= -.12854703E+04  d E =-.124087E-01  mag=   126.0000
       N       E                     dE             d eps       ncg     rms          ort
SDA:   1    -0.127698239878E+04    0.84879E+01    0.00000E+00  8540   0.227E+02 0.000E+00
CGA:   2    -0.128246367036E+04   -0.54813E+01   -0.54827E+01  8540   0.110E+02 0.234E-01
CGA:   3    -0.128484810314E+04   -0.23844E+01   -0.23845E+01  8540   0.204E+01-0.339E-02
CGA:   4    -0.128526789762E+04   -0.41979E+00   -0.41956E+00  8540   0.366E+00-0.410E-02
CGA:   5    -0.128534904289E+04   -0.81145E-01   -0.81173E-01  8540   0.854E-01 0.594E-03
CGA:   6    -0.128537000437E+04   -0.20961E-01   -0.20976E-01  8540   0.215E-01 0.986E-03
CGA:   7    -0.128537615480E+04   -0.61504E-02   -0.61447E-02  8540   0.665E-02 0.241E-03
CGA:   8    -0.128537832934E+04   -0.21745E-02   -0.21797E-02  8540   0.243E-02-0.810E-04
CGA:   9    -0.128537918571E+04   -0.85638E-03   -0.86477E-03  8540   0.923E-03-0.860E-04
CGA:  10    -0.128537944989E+04   -0.26418E-03   -0.25998E-03  8540   0.289E-03 0.176E-03
CGA:  11    -0.128537955301E+04   -0.10311E-03   -0.10090E-03  8540   0.126E-03 0.953E-04
CGA:  12    -0.128537960975E+04   -0.56742E-04   -0.53716E-04  8540   0.749E-04 0.592E-04
CGA:  13    -0.128537964119E+04   -0.31439E-04   -0.30968E-04  8540   0.464E-04 0.585E-04
CGA:  14    -0.128537965525E+04   -0.14059E-04   -0.13579E-04  8540   0.226E-04 0.251E-04
CGA:  15    -0.128537966014E+04   -0.48920E-05   -0.54941E-05  8540   0.175E-04 0.192E-04
   4 F= -.12853797E+04 E0= -.12853797E+04  d E =0.906264E-01  mag=   126.0000
       N       E                     dE             d eps       ncg     rms          ort
SDA:   1    -0.126912478125E+04    0.16255E+02    0.00000E+00  8540   0.485E+02 0.000E+00
CGA:   2    -0.127905963694E+04   -0.99349E+01   -0.99504E+01  8540   0.200E+02 0.896E-01
CGA:   3    -0.128396355596E+04   -0.49039E+01   -0.49047E+01  8540   0.477E+01 0.200E-01
CGA:   4    -0.128494074541E+04   -0.97719E+00   -0.97705E+00  8540   0.861E+00-0.396E-02
CGA:   5    -0.128512897155E+04   -0.18823E+00   -0.18822E+00  8540   0.201E+00-0.503E-03
CGA:   6    -0.128517853405E+04   -0.49563E-01   -0.49556E-01  8540   0.522E-01-0.538E-03
CGA:   7    -0.128519287044E+04   -0.14336E-01   -0.14325E-01  8540   0.150E-01 0.770E-03
CGA:   8    -0.128519728517E+04   -0.44147E-02   -0.43880E-02  8540   0.449E-02 0.940E-03
CGA:   9    -0.128519881370E+04   -0.15285E-02   -0.14986E-02  8540   0.147E-02 0.578E-03
CGA:  10    -0.128519926123E+04   -0.44753E-03   -0.44526E-03  8540   0.507E-03 0.520E-03
CGA:  11    -0.128519936829E+04   -0.10705E-03   -0.13274E-03  8540   0.226E-03 0.358E-03
CGA:  12    -0.128519939637E+04   -0.28084E-04   -0.40829E-04  8540   0.131E-03 0.158E-03
CGA:  13    -0.128519939744E+04   -0.10721E-05   -0.16505E-04  8540   0.108E-03 0.117E-03
CGA:  14    -0.128519939531E+04    0.21361E-05   -0.11866E-04  8540   0.934E-04 0.994E-04
   5 F= -.12851994E+04 E0= -.12851994E+04  d E =0.180265E+00  mag=   126.0000
       N       E                     dE             d eps       ncg     rms          ort
SDA:   1    -0.127908768745E+04    0.61117E+01    0.00000E+00  8540   0.188E+02 0.000E+00
CGA:   2    -0.128302231646E+04   -0.39346E+01   -0.39360E+01  8540   0.793E+01 0.247E-01
CGA:   3    -0.128495075509E+04   -0.19284E+01   -0.19284E+01  8540   0.184E+01 0.708E-03
CGA:   4    -0.128533049951E+04   -0.37974E+00   -0.37961E+00  8540   0.328E+00-0.504E-02
CGA:   5    -0.128540271201E+04   -0.72212E-01   -0.72205E-01  8540   0.758E-01-0.651E-03
CGA:   6    -0.128542137980E+04   -0.18668E-01   -0.18669E-01  8540   0.196E-01-0.138E-03
CGA:   7    -0.128542692881E+04   -0.55490E-02   -0.55635E-02  8540   0.585E-02-0.295E-03
CGA:   8    -0.128542875108E+04   -0.18223E-02   -0.18598E-02  8540   0.208E-02-0.438E-03
CGA:   9    -0.128542944309E+04   -0.69201E-03   -0.77911E-03  8540   0.103E-02-0.531E-03
CGA:  10    -0.128542970918E+04   -0.26609E-03   -0.29421E-03  8540   0.403E-03-0.209E-03
CGA:  11    -0.128542946462E+04    0.24456E-03   -0.33077E-03  8540   0.214E-02-0.745E-03
CGA:  12    -0.128542992488E+04   -0.46026E-03   -0.47144E-03  8540   0.227E-03 0.151E-03
CGA:  13    -0.128542844248E+04    0.14824E-02   -0.79838E-03  8540   0.773E-02-0.123E-02
CGA:  14    -0.128542967018E+04   -0.12277E-02   -0.14589E-02  8540   0.117E-02 0.695E-03
CGA:  15    -0.128543009361E+04   -0.42343E-03   -0.38626E-03  8540   0.170E-03-0.178E-03
CGA:  16    -0.128543011188E+04   -0.18271E-04   -0.28813E-04  8540   0.345E-04 0.349E-04
CGA:  17    -0.128543012110E+04   -0.92144E-05   -0.10507E-04  8540   0.106E-04 0.549E-05
   6 F= -.12854301E+04 E0= -.12854301E+04  d E =-.230726E+00  mag=   126.0000
       N       E                     dE             d eps       ncg     rms          ort
SDA:   1    -0.128483755756E+04    0.59255E+00    0.00000E+00  8540   0.167E+01 0.000E+00
CGA:   2    -0.128519493221E+04   -0.35737E+00   -0.35775E+00  8540   0.724E+00 0.320E-04
CGA:   3    -0.128536823931E+04   -0.17331E+00   -0.17317E+00  8540   0.163E+00-0.101E-02
CGA:   4    -0.128540189191E+04   -0.33653E-01   -0.33449E-01  8540   0.291E-01-0.851E-03
CGA:   5    -0.128540826188E+04   -0.63700E-02   -0.63636E-02  8540   0.670E-02-0.370E-04
CGA:   6    -0.128540986176E+04   -0.15999E-02   -0.16217E-02  8540   0.168E-02 0.115E-03
CGA:   7    -0.128541035316E+04   -0.49140E-03   -0.48840E-03  8540   0.516E-03-0.228E-04
CGA:   8    -0.128541054047E+04   -0.18731E-03   -0.18246E-03  8540   0.236E-03-0.906E-04
CGA:   9    -0.128541062332E+04   -0.82856E-04   -0.85536E-04  8540   0.147E-03-0.875E-04
CGA:  10    -0.128541065888E+04   -0.35561E-04   -0.34393E-04  8540   0.604E-04-0.296E-04
CGA:  11    -0.128541067319E+04   -0.14310E-04   -0.36547E-04  8540   0.135E-03-0.639E-04
CGA:  12    -0.128541070447E+04   -0.31274E-04   -0.32679E-04  8540   0.159E-04 0.759E-05
CGA:  13    -0.128541072595E+04   -0.21479E-04    0.65655E-05  8540   0.932E-05-0.251E-05
CGA:  14    -0.128541072466E+04    0.12870E-05   -0.65358E-06  8540   0.589E-05 0.581E-05
   7 F= -.12854107E+04 E0= -.12854107E+04  d E =0.193964E-01  mag=   126.0000
       N       E                     dE             d eps       ncg     rms          ort
SDA:   1    -0.127432537231E+04    0.11085E+02    0.00000E+00  8540   0.319E+02 0.000E+00
CGA:   2    -0.128108033254E+04   -0.67550E+01   -0.67684E+01  8540   0.137E+02 0.154E-01
CGA:   3    -0.128438353446E+04   -0.33032E+01   -0.33050E+01  8540   0.311E+01 0.638E-02
CGA:   4    -0.128502052755E+04   -0.63699E+00   -0.63664E+00  8540   0.553E+00-0.240E-02
CGA:   5    -0.128514236590E+04   -0.12184E+00   -0.12182E+00  8540   0.129E+00-0.327E-03
CGA:   6    -0.128517429286E+04   -0.31927E-01   -0.31901E-01  8540   0.335E-01-0.285E-03
CGA:   7    -0.128518353665E+04   -0.92438E-02   -0.92689E-02  8540   0.970E-02 0.349E-03
CGA:   8    -0.128518641378E+04   -0.28771E-02   -0.28954E-02  8540   0.297E-02 0.369E-03
CGA:   9    -0.128518741919E+04   -0.10054E-02   -0.10081E-02  8540   0.975E-03 0.172E-03
CGA:  10    -0.128518771685E+04   -0.29766E-03   -0.30705E-03  8540   0.305E-03 0.215E-03
CGA:  11    -0.128518778916E+04   -0.72307E-04   -0.87595E-04  8540   0.111E-03 0.148E-03
CGA:  12    -0.128518780704E+04   -0.17884E-04   -0.30855E-04  8540   0.564E-04 0.888E-04
CGA:  13    -0.128518780931E+04   -0.22644E-05   -0.93503E-05  8540   0.376E-04 0.440E-04
   8 F= -.12851878E+04 E0= -.12851878E+04  d E =0.222915E+00  mag=   126.0000
       N       E                     dE             d eps       ncg     rms          ort
SDA:   1    -0.127280693751E+04    0.12381E+02    0.00000E+00  8540   0.375E+02 0.000E+00
CGA:   2    -0.128059031585E+04   -0.77834E+01   -0.77957E+01  8540   0.157E+02 0.294E-01
CGA:   3    -0.128443525077E+04   -0.38449E+01   -0.38456E+01  8540   0.367E+01 0.214E-02
CGA:   4    -0.128519012174E+04   -0.75487E+00   -0.75431E+00  8540   0.648E+00-0.694E-02
CGA:   5    -0.128533378877E+04   -0.14367E+00   -0.14359E+00  8540   0.151E+00-0.129E-02
CGA:   6    -0.128537107876E+04   -0.37290E-01   -0.37264E-01  8540   0.392E-01-0.622E-03
CGA:   7    -0.128538213084E+04   -0.11052E-01   -0.11049E-01  8540   0.116E-01-0.462E-03
CGA:   8    -0.128538570144E+04   -0.35706E-02   -0.35812E-02  8540   0.386E-02-0.477E-03
CGA:   9    -0.128538705546E+04   -0.13540E-02   -0.14116E-02  8540   0.164E-02-0.641E-03
CGA:  10    -0.128538756436E+04   -0.50891E-03   -0.54201E-03  8540   0.661E-03-0.327E-03
CGA:  11    -0.128538762484E+04   -0.60480E-04   -0.39485E-03  8540   0.148E-02-0.751E-03
CGA:  12    -0.128538794983E+04   -0.32498E-03   -0.33187E-03  8540   0.171E-03 0.692E-04
CGA:  13    -0.128538807432E+04   -0.12449E-03    0.30277E-03  8540   0.472E-04 0.218E-04
CGA:  14    -0.128538809173E+04   -0.17405E-04   -0.46446E-04  8540   0.163E-03-0.525E-04
CGA:  15    -0.128538821361E+04   -0.12189E-03    0.35651E-03  8540   0.195E-03-0.139E-03
CGA:  16    -0.128538820544E+04    0.81711E-05   -0.15446E-04  8540   0.416E-04 0.889E-04
   9 F= -.12853882E+04 E0= -.12853882E+04  d E =-.200396E+00  mag=   126.0000
       N       E                     dE             d eps       ncg     rms          ort
SDA:   1    -0.128474268017E+04    0.64553E+00    0.00000E+00  8540   0.206E+01 0.000E+00
CGA:   2    -0.128517345872E+04   -0.43078E+00   -0.43096E+00  8540   0.877E+00 0.601E-03
CGA:   3    -0.128538650980E+04   -0.21305E+00   -0.21318E+00  8540   0.202E+00 0.122E-02
CGA:   4    -0.128542768396E+04   -0.41174E-01   -0.41238E-01  8540   0.352E-01 0.572E-03
CGA:   5    -0.128543553499E+04   -0.78510E-02   -0.78553E-02  8540   0.823E-02 0.419E-04
CGA:   6    -0.128543759284E+04   -0.20579E-02   -0.20531E-02  8540   0.216E-02-0.952E-04
CGA:   7    -0.128543817363E+04   -0.58079E-03   -0.58197E-03  8540   0.604E-03 0.466E-04
CGA:   8    -0.128543834330E+04   -0.16967E-03   -0.17078E-03  8540   0.169E-03 0.571E-04
CGA:   9    -0.128543839807E+04   -0.54765E-04   -0.54744E-04  8540   0.521E-04 0.302E-04
CGA:  10    -0.128543841402E+04   -0.15951E-04   -0.16471E-04  8540   0.179E-04 0.194E-04
CGA:  11    -0.128543841794E+04   -0.39260E-05   -0.50031E-05  8540   0.727E-05 0.119E-04
  10 F= -.12854384E+04 E0= -.12854384E+04  d E =-.502125E-01  mag=   126.0000
       N       E                     dE             d eps       ncg     rms          ort
SDA:   1    -0.128513167655E+04    0.30674E+00    0.00000E+00  8540   0.909E+00 0.000E+00
CGA:   2    -0.128532539512E+04   -0.19372E+00   -0.19380E+00  8540   0.395E+00 0.759E-03
CGA:   3    -0.128542003889E+04   -0.94644E-01   -0.94671E-01  8540   0.885E-01 0.433E-03
CGA:   4    -0.128543820783E+04   -0.18169E-01   -0.18179E-01  8540   0.156E-01 0.128E-03
CGA:   5    -0.128544165911E+04   -0.34513E-02   -0.34534E-02  8540   0.362E-02 0.353E-04
CGA:   6    -0.128544257265E+04   -0.91354E-03   -0.91248E-03  8540   0.961E-03-0.519E-04
CGA:   7    -0.128544283399E+04   -0.26134E-03   -0.26128E-03  8540   0.275E-03 0.128E-04
CGA:   8    -0.128544291057E+04   -0.76582E-04   -0.76480E-04  8540   0.769E-04 0.287E-04
CGA:   9    -0.128544293536E+04   -0.24792E-04   -0.24508E-04  8540   0.241E-04 0.165E-04
CGA:  10    -0.128544294317E+04   -0.78100E-05   -0.78532E-05  8540   0.894E-05 0.968E-05
  11 F= -.12854429E+04 E0= -.12854429E+04  d E =-.452523E-02  mag=   126.0000
       N       E                     dE             d eps       ncg     rms          ort
SDA:   1    -0.128457123369E+04    0.87170E+00    0.00000E+00  8540   0.224E+01 0.000E+00
CGA:   2    -0.128514797133E+04   -0.57674E+00   -0.57675E+00  8540   0.109E+01 0.488E-03
CGA:   3    -0.128537365252E+04   -0.22568E+00   -0.22570E+00  8540   0.199E+00-0.339E-04
CGA:   4    -0.128541516982E+04   -0.41517E-01   -0.41529E-01  8540   0.348E-01 0.188E-03
CGA:   5    -0.128542286580E+04   -0.76960E-02   -0.76927E-02  8540   0.806E-02-0.899E-04
CGA:   6    -0.128542496117E+04   -0.20954E-02   -0.20956E-02  8540   0.226E-02-0.268E-03
CGA:   7    -0.128542559131E+04   -0.63014E-03   -0.63213E-03  8540   0.731E-03-0.676E-04
CGA:   8    -0.128542581031E+04   -0.21900E-03   -0.21848E-03  8540   0.236E-03 0.108E-04
CGA:   9    -0.128542590241E+04   -0.92099E-04   -0.98886E-04  8540   0.119E-03-0.457E-04
CGA:  10    -0.128542587282E+04    0.29588E-04   -0.91309E-04  8540   0.474E-03-0.179E-03
CGA:  11    -0.128542597795E+04   -0.10514E-03   -0.10581E-03  8540   0.589E-04 0.816E-05
CGA:  12    -0.128542600333E+04   -0.25372E-04   -0.26443E-04  8540   0.238E-04-0.761E-05
CGA:  13    -0.128542589914E+04    0.10419E-03   -0.56290E-04  8540   0.537E-03-0.879E-04
CGA:  14    -0.128542602218E+04   -0.12305E-03   -0.11733E-03  8540   0.757E-04-0.166E-04
CGA:  15    -0.128542603084E+04   -0.86523E-05   -0.15332E-04  8540   0.191E-04 0.200E-04
CGA:  16    -0.128542604281E+04   -0.11975E-04   -0.11784E-04  8540   0.174E-04-0.491E-05
CGA:  17    -0.128542604624E+04   -0.34323E-05   -0.27765E-05  8540   0.656E-05-0.210E-05
  12 F= -.12854260E+04 E0= -.12854260E+04  d E =0.168969E-01  mag=   126.0000
       N       E                     dE             d eps       ncg     rms          ort
SDA:   1    -0.125978774017E+04    0.25638E+02    0.00000E+00  8540   0.759E+02 0.000E+00
CGA:   2    -0.127517434750E+04   -0.15387E+02   -0.15493E+02  8540   0.308E+02-0.175E-01
CGA:   3    -0.128286054984E+04   -0.76862E+01   -0.76943E+01  8540   0.742E+01 0.408E-01
CGA:   4    -0.128437820138E+04   -0.15177E+01   -0.15153E+01  8540   0.129E+01-0.584E-02
CGA:   5    -0.128466595097E+04   -0.28775E+00   -0.28745E+00  8540   0.307E+00-0.208E-02
CGA:   6    -0.128474108091E+04   -0.75130E-01   -0.75140E-01  8540   0.781E-01-0.518E-04
CGA:   7    -0.128476306908E+04   -0.21988E-01   -0.22000E-01  8540   0.230E-01 0.678E-04
CGA:   8    -0.128477012709E+04   -0.70580E-02   -0.70377E-02  8540   0.737E-02-0.182E-03
CGA:   9    -0.128477274375E+04   -0.26167E-02   -0.25902E-02  8540   0.268E-02-0.424E-03
CGA:  10    -0.128477360816E+04   -0.86441E-03   -0.86640E-03  8540   0.820E-03 0.261E-04
CGA:  11    -0.128477389967E+04   -0.29151E-03   -0.29076E-03  8540   0.241E-03-0.131E-04
CGA:  12    -0.128477401430E+04   -0.11463E-03   -0.12271E-03  8540   0.165E-03-0.736E-04
CGA:  13    -0.128477402314E+04   -0.88405E-05   -0.10875E-03  8540   0.434E-03-0.187E-03
CGA:  14    -0.128477412700E+04   -0.10387E-03   -0.10729E-03  8540   0.772E-04 0.178E-04
CGA:  15    -0.128477416456E+04   -0.37555E-04   -0.54134E-04  8540   0.162E-03-0.681E-04
CGA:  16    -0.128477417655E+04   -0.11989E-04   -0.23074E-04  8540   0.201E-04 0.370E-04
CGA:  17    -0.128477415537E+04    0.21175E-04   -0.26525E-04  8540   0.260E-03-0.736E-04
CGA:  18    -0.128477421969E+04   -0.64316E-04   -0.58590E-04  8540   0.448E-04-0.243E-04
CGA:  19    -0.128477421583E+04    0.38549E-05   -0.41803E-05  8540   0.153E-04 0.233E-04
  13 F= -.12847742E+04 E0= -.12847742E+04  d E =0.651830E+00  mag=   126.0000
       N       E                     dE             d eps       ncg     rms          ort
SDA:   1    -0.127753667113E+04    0.72375E+01    0.00000E+00  8540   0.230E+02 0.000E+00
CGA:   2    -0.128240818749E+04   -0.48715E+01   -0.48785E+01  8540   0.993E+01-0.247E-03
CGA:   3    -0.128480594118E+04   -0.23978E+01   -0.23996E+01  8540   0.223E+01 0.716E-02
CGA:   4    -0.128526159423E+04   -0.45565E+00   -0.45630E+00  8540   0.391E+00 0.270E-02
CGA:   5    -0.128534896296E+04   -0.87369E-01   -0.87393E-01  8540   0.924E-01-0.121E-04
CGA:   6    -0.128537212006E+04   -0.23157E-01   -0.23039E-01  8540   0.243E-01-0.944E-03
CGA:   7    -0.128537887164E+04   -0.67516E-02   -0.67486E-02  8540   0.713E-02-0.356E-04
CGA:   8    -0.128538093146E+04   -0.20598E-02   -0.20785E-02  8540   0.211E-02 0.247E-03
CGA:   9    -0.128538163439E+04   -0.70293E-03   -0.70725E-03  8540   0.676E-03 0.109E-03
CGA:  10    -0.128538187215E+04   -0.23776E-03   -0.23945E-03  8540   0.220E-03 0.689E-04
CGA:  11    -0.128538195610E+04   -0.83945E-04   -0.84163E-04  8540   0.726E-04 0.179E-04
CGA:  12    -0.128538197756E+04   -0.21458E-04   -0.23077E-04  8540   0.266E-04 0.246E-04
CGA:  13    -0.128538198430E+04   -0.67444E-05   -0.86769E-05  8540   0.125E-04 0.172E-04
  14 F= -.12853820E+04 E0= -.12853820E+04  d E =-.607768E+00  mag=   126.0000
       N       E                     dE             d eps       ncg     rms          ort
SDA:   1    -0.128301727754E+04    0.23647E+01    0.00000E+00  8540   0.729E+01 0.000E+00
CGA:   2    -0.128452838666E+04   -0.15111E+01   -0.15124E+01  8540   0.307E+01 0.327E-02
CGA:   3    -0.128528225079E+04   -0.75386E+00   -0.75424E+00  8540   0.720E+00 0.176E-02
CGA:   4    -0.128542951108E+04   -0.14726E+00   -0.14727E+00  8540   0.125E+00-0.426E-04
CGA:   5    -0.128545739794E+04   -0.27887E-01   -0.27866E-01  8540   0.294E-01-0.225E-03
CGA:   6    -0.128546473408E+04   -0.73361E-02   -0.73063E-02  8540   0.762E-02-0.377E-03
CGA:   7    -0.128546685371E+04   -0.21196E-02   -0.21161E-02  8540   0.223E-02-0.796E-04
CGA:   8    -0.128546751951E+04   -0.66580E-03   -0.66542E-03  8540   0.694E-03-0.184E-04
CGA:   9    -0.128546776859E+04   -0.24908E-03   -0.25222E-03  8540   0.273E-03-0.713E-04
CGA:  10    -0.128546786434E+04   -0.95750E-04   -0.10001E-03  8540   0.114E-03-0.511E-04
CGA:  11    -0.128546788507E+04   -0.20730E-04   -0.65643E-04  8540   0.215E-03-0.119E-03
CGA:  12    -0.128546793005E+04   -0.44983E-04   -0.47055E-04  8540   0.239E-04 0.160E-04
CGA:  13    -0.128546786256E+04    0.67493E-04   -0.42973E-04  8540   0.349E-03-0.832E-04
CGA:  14    -0.128546794359E+04   -0.81034E-04   -0.86394E-04  8540   0.439E-04 0.334E-04
CGA:  15    -0.128546796414E+04   -0.20549E-04   -0.22210E-04  8540   0.288E-04-0.268E-04
CGA:  16    -0.128546796813E+04   -0.39901E-05   -0.49921E-05  8540   0.358E-05 0.438E-05
  15 F= -.12854680E+04 E0= -.12854680E+04  d E =-.859838E-01  mag=   126.0000
       N       E                     dE             d eps       ncg     rms          ort
SDA:   1    -0.128543482519E+04    0.33139E-01    0.00000E+00  8540   0.109E+00 0.000E+00
CGA:   2    -0.128545962247E+04   -0.24797E-01   -0.24837E-01  8540   0.491E-01 0.218E-03
CGA:   3    -0.128547086275E+04   -0.11240E-01   -0.11189E-01  8540   0.105E-01-0.373E-03
CGA:   4    -0.128547313239E+04   -0.22696E-02   -0.22269E-02  8540   0.195E-02-0.283E-03
CGA:   5    -0.128547354068E+04   -0.40829E-03   -0.40817E-03  8540   0.434E-03-0.131E-05
CGA:   6    -0.128547364089E+04   -0.10021E-03   -0.10236E-03  8540   0.105E-03 0.187E-04
CGA:   7    -0.128547368275E+04   -0.41855E-04   -0.45119E-04  8540   0.797E-04-0.477E-04
CGA:   8    -0.128547371326E+04   -0.30512E-04    0.72287E-03  8540   0.432E-04-0.270E-04
CGA:   9    -0.128547374161E+04   -0.28350E-04    0.11580E-04  8540   0.224E-04-0.100E-04
CGA:  10    -0.128547375962E+04   -0.18012E-04    0.58745E-05  8540   0.119E-04-0.370E-05
CGA:  11    -0.128547377098E+04   -0.11356E-04    0.26369E-05  8540   0.583E-05-0.178E-05
CGA:  12    -0.128547377920E+04   -0.82212E-05    0.62094E-06  8540   0.281E-05-0.190E-06
  16 F= -.12854738E+04 E0= -.12854738E+04  d E =-.581106E-02  mag=   126.0000
       N       E                     dE             d eps       ncg     rms          ort
SDA:   1    -0.127874955435E+04    0.67242E+01    0.00000E+00  8540   0.177E+02 0.000E+00
CGA:   2    -0.128334079770E+04   -0.45912E+01   -0.45932E+01  8540   0.832E+01 0.439E-02
CGA:   3    -0.128504655614E+04   -0.17058E+01   -0.17054E+01  8540   0.158E+01-0.300E-02
CGA:   4    -0.128537887162E+04   -0.33232E+00   -0.33211E+00  8540   0.280E+00-0.221E-02
CGA:   5    -0.128544013910E+04   -0.61267E-01   -0.61283E-01  8540   0.646E-01 0.385E-04
CGA:   6    -0.128545638999E+04   -0.16251E-01   -0.16233E-01  8540   0.174E-01-0.270E-03
CGA:   7    -0.128546150596E+04   -0.51160E-02   -0.50997E-02  8540   0.581E-02-0.609E-03
CGA:   8    -0.128546346437E+04   -0.19584E-02   -0.19801E-02  8540   0.242E-02-0.646E-03
CGA:   9    -0.128546431811E+04   -0.85374E-03   -0.96415E-03  8540   0.149E-02-0.866E-03
CGA:  10    -0.128546462435E+04   -0.30624E-03   -0.55346E-03  8540   0.159E-02-0.986E-03
CGA:  11    -0.128546506224E+04   -0.43789E-03   -0.42788E-03  8540   0.397E-03-0.141E-03
CGA:  12    -0.128546522647E+04   -0.16424E-03   -0.18807E-03  8540   0.265E-03-0.130E-03
CGA:  13    -0.128546538070E+04   -0.15423E-03    0.12170E-03  8540   0.849E-04-0.393E-05
CGA:  14    -0.128546541389E+04   -0.33185E-04   -0.44305E-04  8540   0.104E-03-0.604E-04
CGA:  15    -0.128546550852E+04   -0.94628E-04    0.64331E-04  8540   0.905E-04-0.718E-04
CGA:  16    -0.128546550237E+04    0.61433E-05   -0.69861E-05  8540   0.256E-04 0.473E-04
  17 F= -.12854655E+04 E0= -.12854655E+04  d E =0.827682E-02  mag=   126.0000
       N       E                     dE             d eps       ncg     rms          ort
SDA:   1    -0.126093190292E+04    0.24534E+02    0.00000E+00  8540   0.758E+02 0.000E+00
CGA:   2    -0.127591475315E+04   -0.14983E+02   -0.15084E+02  8540   0.292E+02 0.650E-01
CGA:   3    -0.128319441094E+04   -0.72797E+01   -0.72849E+01  8540   0.723E+01 0.589E-01
CGA:   4    -0.128471992381E+04   -0.15255E+01   -0.15264E+01  8540   0.130E+01 0.325E-02
CGA:   5    -0.128500985711E+04   -0.28993E+00   -0.28977E+00  8540   0.302E+00-0.307E-02
CGA:   6    -0.128508457435E+04   -0.74717E-01   -0.74548E-01  8540   0.803E-01-0.294E-02
CGA:   7    -0.128510700206E+04   -0.22428E-01   -0.22436E-01  8540   0.233E-01 0.349E-03
CGA:   8    -0.128511370253E+04   -0.67005E-02   -0.67220E-02  8540   0.708E-02 0.134E-02
CGA:   9    -0.128511613759E+04   -0.24351E-02   -0.24200E-02  8540   0.236E-02 0.728E-03
CGA:  10    -0.128511700338E+04   -0.86578E-03   -0.85523E-03  8540   0.821E-03 0.421E-03
CGA:  11    -0.128511726050E+04   -0.25712E-03   -0.26605E-03  8540   0.273E-03 0.297E-03
CGA:  12    -0.128511731633E+04   -0.55832E-04   -0.75800E-04  8540   0.133E-03 0.200E-03
CGA:  13    -0.128511732572E+04   -0.93829E-05   -0.22547E-04  8540   0.861E-04 0.102E-03
CGA:  14    -0.128511732717E+04   -0.14522E-05   -0.12668E-04  8540   0.705E-04 0.774E-04
  18 F= -.12851173E+04 E0= -.12851173E+04  d E =0.348175E+00  mag=   126.0000
       N       E                     dE             d eps       ncg     rms          ort
SDA:   1    -0.127970721012E+04    0.54101E+01    0.00000E+00  8540   0.168E+02 0.000E+00
CGA:   2    -0.128330456816E+04   -0.35974E+01   -0.35999E+01  8540   0.724E+01 0.161E-01
CGA:   3    -0.128502333751E+04   -0.17188E+01   -0.17188E+01  8540   0.161E+01-0.304E-02
CGA:   4    -0.128535732344E+04   -0.33399E+00   -0.33373E+00  8540   0.291E+00-0.419E-02
CGA:   5    -0.128542188275E+04   -0.64559E-01   -0.64571E-01  8540   0.669E-01 0.156E-03
CGA:   6    -0.128543815674E+04   -0.16274E-01   -0.16281E-01  8540   0.172E-01 0.272E-03
CGA:   7    -0.128544315491E+04   -0.49982E-02   -0.50043E-02  8540   0.521E-02-0.259E-03
CGA:   8    -0.128544482555E+04   -0.16706E-02   -0.17068E-02  8540   0.199E-02-0.549E-03
CGA:   9    -0.128544548119E+04   -0.65564E-03   -0.73611E-03  8540   0.102E-02-0.559E-03
CGA:  10    -0.128544573013E+04   -0.24894E-03   -0.26050E-03  8540   0.350E-03-0.150E-03
CGA:  11    -0.128544574916E+04   -0.19034E-04   -0.23296E-03  8540   0.884E-03-0.429E-03
CGA:  12    -0.128544597195E+04   -0.22279E-03   -0.22298E-03  8540   0.991E-04 0.335E-05
CGA:  13    -0.128544604464E+04   -0.72683E-04    0.73362E-04  8540   0.260E-04 0.961E-05
CGA:  14    -0.128544605784E+04   -0.13205E-04   -0.13173E-04  8540   0.175E-04 0.176E-06
CGA:  15    -0.128544609594E+04   -0.38098E-04    0.11118E-05  8540   0.575E-05 0.180E-05
CGA:  16    -0.128544610583E+04   -0.98900E-05    0.65368E-06  8540   0.177E-05 0.121E-05
  19 F= -.12854461E+04 E0= -.12854461E+04  d E =-.328779E+00  mag=   126.0000
       N       E                     dE             d eps       ncg     rms          ort
SDA:   1    -0.128422423078E+04    0.12219E+01    0.00000E+00  8540   0.375E+01 0.000E+00
CGA:   2    -0.128502132713E+04   -0.79710E+00   -0.79777E+00  8540   0.159E+01 0.359E-02
CGA:   3    -0.128540075567E+04   -0.37943E+00   -0.37932E+00  8540   0.360E+00-0.236E-02
CGA:   4    -0.128547631950E+04   -0.75564E-01   -0.75332E-01  8540   0.659E-01-0.253E-02
CGA:   5    -0.128549077602E+04   -0.14457E-01   -0.14473E-01  8540   0.149E-01 0.194E-03
CGA:   6    -0.128549425435E+04   -0.34783E-02   -0.35108E-02  8540   0.365E-02 0.544E-03
CGA:   7    -0.128549534387E+04   -0.10895E-02   -0.10896E-02  8540   0.110E-02 0.313E-04
CGA:   8    -0.128549575571E+04   -0.41184E-03   -0.46099E-03  8540   0.741E-03-0.397E-03
CGA:   9    -0.128549591720E+04   -0.16150E-03   -0.20625E-03  8540   0.465E-03-0.325E-03
CGA:  10    -0.128549599119E+04   -0.73982E-04   -0.73484E-04  8540   0.181E-03-0.222E-04
CGA:  11    -0.128549604560E+04   -0.54413E-04   -0.54618E-04  8540   0.979E-04-0.157E-04
CGA:  12    -0.128549549984E+04    0.54576E-03   -0.29390E-03  8540   0.222E-02-0.435E-03
CGA:  13    -0.128549603650E+04   -0.53667E-03   -0.55257E-03  8540   0.356E-03 0.518E-04
CGA:  14    -0.128549619241E+04   -0.15591E-03   -0.15173E-03  8540   0.827E-04-0.343E-04
CGA:  15    -0.128549620169E+04   -0.92815E-05   -0.17789E-04  8540   0.222E-04 0.289E-04
  20 F= -.12854962E+04 E0= -.12854962E+04  d E =-.500959E-01  mag=   126.0000
       N       E                     dE             d eps       ncg     rms          ort
SDA:   1    -0.128483020587E+04    0.66599E+00    0.00000E+00  8540   0.200E+01 0.000E+00
CGA:   2    -0.128525699852E+04   -0.42679E+00   -0.42769E+00  8540   0.846E+00 0.963E-03
CGA:   3    -0.128545656185E+04   -0.19956E+00   -0.19945E+00  8540   0.192E+00-0.865E-03
CGA:   4    -0.128549758291E+04   -0.41021E-01   -0.40726E-01  8540   0.352E-01-0.109E-02
CGA:   5    -0.128550522570E+04   -0.76428E-02   -0.76702E-02  8540   0.782E-02 0.103E-03
CGA:   6    -0.128550702882E+04   -0.18031E-02   -0.18657E-02  8540   0.195E-02 0.291E-03
CGA:   7    -0.128550759899E+04   -0.57017E-03   -0.57524E-03  8540   0.573E-03 0.323E-04
CGA:   8    -0.128550784424E+04   -0.24524E-03   -0.24178E-03  8540   0.383E-03-0.194E-03
CGA:   9    -0.128550795237E+04   -0.10813E-03   -0.10623E-03  8540   0.220E-03-0.146E-03
CGA:  10    -0.128550799261E+04   -0.40241E-04   -0.39260E-04  8540   0.833E-04-0.686E-05
CGA:  11    -0.128550802248E+04   -0.29870E-04   -0.28932E-04  8540   0.496E-04-0.143E-04
CGA:  12    -0.128550805892E+04   -0.36437E-04    0.16187E-03  8540   0.333E-04-0.114E-04
CGA:  13    -0.128550809030E+04   -0.31377E-04    0.11814E-04  8540   0.186E-04-0.743E-05
CGA:  14    -0.128550810352E+04   -0.13222E-04    0.34464E-04  8540   0.104E-04-0.570E-05
CGA:  15    -0.128550810604E+04   -0.25190E-05   -0.24304E-05  8540   0.479E-05-0.107E-05
  21 F= -.12855081E+04 E0= -.12855081E+04  d E =-.119043E-01  mag=   126.0000
       N       E                     dE             d eps       ncg     rms          ort
SDA:   1    -0.128410465955E+04    0.14034E+01    0.00000E+00  8540   0.385E+01 0.000E+00
CGA:   2    -0.128501474283E+04   -0.91008E+00   -0.91117E+00  8540   0.176E+01 0.223E-02
CGA:   3    -0.128540087164E+04   -0.38613E+00   -0.38604E+00  8540   0.350E+00-0.962E-03
CGA:   4    -0.128547548773E+04   -0.74616E-01   -0.74361E-01  8540   0.629E-01-0.139E-02
CGA:   5    -0.128548929458E+04   -0.13807E-01   -0.13830E-01  8540   0.142E-01 0.129E-03
CGA:   6    -0.128549276075E+04   -0.34662E-02   -0.35063E-02  8540   0.370E-02 0.318E-03
CGA:   7    -0.128549386276E+04   -0.11020E-02   -0.11003E-02  8540   0.118E-02-0.232E-04
CGA:   8    -0.128549432247E+04   -0.45971E-03   -0.47041E-03  8540   0.695E-03-0.279E-03
CGA:   9    -0.128549453098E+04   -0.20851E-03   -0.21776E-03  8540   0.369E-03-0.198E-03
CGA:  10    -0.128549463009E+04   -0.99106E-04   -0.99797E-04  8540   0.158E-03-0.560E-04
CGA:  11    -0.128549466496E+04   -0.34870E-04   -0.11115E-03  8540   0.395E-03-0.165E-03
CGA:  12    -0.128549477534E+04   -0.11039E-03   -0.10815E-03  8540   0.513E-04-0.194E-04
CGA:  13    -0.128549479643E+04   -0.21093E-04   -0.32480E-04  8540   0.772E-04-0.404E-04
CGA:  14    -0.128549480451E+04   -0.80758E-05   -0.12896E-04  8540   0.943E-05 0.209E-04
  22 F= -.12854948E+04 E0= -.12854948E+04  d E =0.133015E-01  mag=   126.0000
       N       E                     dE             d eps       ncg     rms          ort
SDA:   1    -0.125708728801E+04    0.28408E+02    0.00000E+00  8540   0.888E+02 0.000E+00
CGA:   2    -0.127472968566E+04   -0.17642E+02   -0.17950E+02  8540   0.336E+02-0.871E-01
CGA:   3    -0.128294307707E+04   -0.82134E+01   -0.82252E+01  8540   0.795E+01 0.124E+00
CGA:   4    -0.128463381852E+04   -0.16907E+01   -0.16926E+01  8540   0.146E+01 0.946E-02
CGA:   5    -0.128496051564E+04   -0.32670E+00   -0.32662E+00  8540   0.344E+00-0.277E-02
CGA:   6    -0.128504685800E+04   -0.86342E-01   -0.86079E-01  8540   0.945E-01-0.283E-02
CGA:   7    -0.128507384943E+04   -0.26991E-01   -0.26986E-01  8540   0.292E-01-0.107E-03
CGA:   8    -0.128508254194E+04   -0.86925E-02   -0.87269E-02  8540   0.981E-02 0.826E-03
CGA:   9    -0.128508599765E+04   -0.34557E-02   -0.34547E-02  8540   0.354E-02 0.291E-03
CGA:  10    -0.128508732917E+04   -0.13315E-02   -0.13287E-02  8540   0.133E-02 0.114E-03
CGA:  11    -0.128508785016E+04   -0.52099E-03   -0.51929E-03  8540   0.521E-03 0.452E-04
CGA:  12    -0.128508803989E+04   -0.18973E-03   -0.18863E-03  8540   0.225E-03 0.139E-03
CGA:  13    -0.128508813816E+04   -0.98271E-04   -0.98117E-04  8540   0.116E-03 0.106E-03
CGA:  14    -0.128508820105E+04   -0.62886E-04   -0.61592E-04  8540   0.632E-04 0.671E-04
CGA:  15    -0.128508822132E+04   -0.20269E-04   -0.20700E-04  8540   0.267E-04 0.264E-04
CGA:  16    -0.128508824613E+04   -0.24816E-04   -0.21464E-04  8540   0.221E-04 0.147E-04
CGA:  17    -0.128508825081E+04   -0.46753E-05   -0.58286E-05  8540   0.103E-04 0.127E-04
  23 F= -.12850883E+04 E0= -.12850883E+04  d E =0.406554E+00  mag=   126.0000
       N       E                     dE             d eps       ncg     rms          ort
SDA:   1    -0.127497094530E+04    0.10117E+02    0.00000E+00  8540   0.318E+02 0.000E+00
CGA:   2    -0.128153686472E+04   -0.65659E+01   -0.66103E+01  8540   0.130E+02-0.114E-01
CGA:   3    -0.128467948403E+04   -0.31426E+01   -0.31437E+01  8540   0.292E+01 0.141E-01
CGA:   4    -0.128529459951E+04   -0.61512E+00   -0.61484E+00  8540   0.540E+00-0.234E-02
CGA:   5    -0.128541571540E+04   -0.12112E+00   -0.12119E+00  8540   0.125E+00 0.141E-03
CGA:   6    -0.128544619693E+04   -0.30482E-01   -0.30517E-01  8540   0.329E-01 0.303E-03
CGA:   7    -0.128545563368E+04   -0.94368E-02   -0.94399E-02  8540   0.997E-02 0.476E-04
CGA:   8    -0.128545874833E+04   -0.31146E-02   -0.31053E-02  8540   0.355E-02-0.317E-03
CGA:   9    -0.128546000298E+04   -0.12547E-02   -0.12638E-02  8540   0.142E-02-0.326E-03
CGA:  10    -0.128546042405E+04   -0.42107E-03   -0.42184E-03  8540   0.437E-03 0.533E-04
CGA:  11    -0.128546060896E+04   -0.18491E-03   -0.19002E-03  8540   0.207E-03-0.653E-04
CGA:  12    -0.128546066567E+04   -0.56706E-04   -0.15402E-03  8540   0.478E-03-0.185E-03
CGA:  13    -0.128546079598E+04   -0.13031E-03   -0.12953E-03  8540   0.733E-04-0.791E-05
CGA:  14    -0.128546082229E+04   -0.26306E-04   -0.26314E-04  8540   0.191E-04 0.873E-05
CGA:  15    -0.128546084411E+04   -0.21817E-04    0.98926E-05  8540   0.902E-05 0.623E-05
CGA:  16    -0.128546084898E+04   -0.48744E-05   -0.47528E-05  8540   0.475E-05 0.376E-05
  24 F= -.12854608E+04 E0= -.12854608E+04  d E =-.372598E+00  mag=   126.0000
       N       E                     dE             d eps       ncg     rms          ort
SDA:   1    -0.128484536334E+04    0.61548E+00    0.00000E+00  8540   0.187E+01 0.000E+00
CGA:   2    -0.128524772128E+04   -0.40236E+00   -0.40296E+00  8540   0.795E+00 0.208E-02
CGA:   3    -0.128543428483E+04   -0.18656E+00   -0.18648E+00  8540   0.176E+00-0.104E-02
CGA:   4    -0.128547187405E+04   -0.37589E-01   -0.37399E-01  8540   0.325E-01-0.136E-02
CGA:   5    -0.128547892513E+04   -0.70511E-02   -0.70809E-02  8540   0.719E-02 0.226E-03
CGA:   6    -0.128548055601E+04   -0.16309E-02   -0.16786E-02  8540   0.176E-02 0.439E-03
CGA:   7    -0.128548107146E+04   -0.51544E-03   -0.52078E-03  8540   0.514E-03 0.952E-04
CGA:   8    -0.128548128766E+04   -0.21620E-03   -0.24038E-03  8540   0.418E-03-0.217E-03
CGA:   9    -0.128548136973E+04   -0.82068E-04   -0.82432E-04  8540   0.197E-03-0.108E-03
CGA:  10    -0.128548139681E+04   -0.27087E-04   -0.30824E-04  8540   0.857E-04 0.294E-04
CGA:  11    -0.128548141244E+04   -0.15626E-04   -0.19134E-04  8540   0.360E-04 0.256E-04
CGA:  12    -0.128548143037E+04   -0.17933E-04   -0.19126E-04  8540   0.324E-04-0.141E-04
CGA:  13    -0.128548144639E+04   -0.16016E-04    0.13607E-04  8540   0.275E-04-0.125E-04
CGA:  14    -0.128548146222E+04   -0.15828E-04    0.64610E-05  8540   0.236E-04-0.138E-04
CGA:  15    -0.128548146706E+04   -0.48393E-05   -0.56822E-05  8540   0.676E-05 0.963E-05
  25 F= -.12854815E+04 E0= -.12854815E+04  d E =-.206181E-01  mag=   126.0000
       N       E                     dE             d eps       ncg     rms          ort
SDA:   1    -0.128355008692E+04    0.19314E+01    0.00000E+00  8540   0.541E+01 0.000E+00
CGA:   2    -0.128479653831E+04   -0.12465E+01   -0.12476E+01  8540   0.243E+01 0.616E-02
CGA:   3    -0.128534073683E+04   -0.54420E+00   -0.54417E+00  8540   0.492E+00-0.125E-02
CGA:   4    -0.128544582055E+04   -0.10508E+00   -0.10484E+00  8540   0.897E-01-0.255E-02
CGA:   5    -0.128546543401E+04   -0.19613E-01   -0.19652E-01  8540   0.201E-01 0.433E-03
CGA:   6    -0.128547023884E+04   -0.48048E-02   -0.48537E-02  8540   0.517E-02 0.824E-03
CGA:   7    -0.128547176424E+04   -0.15254E-02   -0.15271E-02  8540   0.158E-02 0.135E-03
CGA:   8    -0.128547237127E+04   -0.60703E-03   -0.64275E-03  8540   0.932E-03-0.360E-03
CGA:   9    -0.128547262645E+04   -0.25518E-03   -0.26831E-03  8540   0.408E-03-0.184E-03
CGA:  10    -0.128547271454E+04   -0.88091E-04   -0.89554E-04  8540   0.140E-03 0.470E-04
CGA:  11    -0.128547276492E+04   -0.50380E-04   -0.50201E-04  8540   0.702E-04 0.909E-05
CGA:  12    -0.128547244080E+04    0.32412E-03   -0.17598E-03  8540   0.143E-02-0.291E-03
CGA:  13    -0.128547278766E+04   -0.34686E-03   -0.36373E-03  8540   0.222E-03 0.559E-04
CGA:  14    -0.128547287279E+04   -0.85139E-04   -0.86379E-04  8540   0.434E-04 0.749E-05
CGA:  15    -0.128547288739E+04   -0.14600E-04   -0.15841E-04  8540   0.963E-05 0.696E-05
CGA:  16    -0.128547288877E+04   -0.13794E-05   -0.27988E-05  8540   0.370E-05 0.522E-05
  26 F= -.12854729E+04 E0= -.12854729E+04  d E =0.857828E-02  mag=   126.0000
       N       E                     dE             d eps       ncg     rms          ort
SDA:   1    -0.128377651903E+04    0.16964E+01    0.00000E+00  8540   0.404E+01 0.000E+00
CGA:   2    -0.128504128216E+04   -0.12648E+01   -0.12649E+01  8540   0.177E+01 0.498E-03
CGA:   3    -0.128536537420E+04   -0.32409E+00   -0.32396E+00  8540   0.298E+00-0.107E-02
CGA:   4    -0.128543016060E+04   -0.64786E-01   -0.64669E-01  8540   0.529E-01-0.438E-03
CGA:   5    -0.128544174382E+04   -0.11583E-01   -0.11616E-01  8540   0.120E-01 0.128E-03
CGA:   6    -0.128544475649E+04   -0.30127E-02   -0.30484E-02  8540   0.326E-02 0.188E-03
CGA:   7    -0.128544574968E+04   -0.99319E-03   -0.99247E-03  8540   0.127E-02-0.607E-05
CGA:   8    -0.128544626108E+04   -0.51140E-03   -0.50851E-03  8540   0.712E-03-0.121E-03
CGA:   9    -0.128544649536E+04   -0.23428E-03   -0.23321E-03  8540   0.296E-03-0.182E-04
CGA:  10    -0.128544661303E+04   -0.11768E-03   -0.11759E-03  8540   0.155E-03-0.777E-05
CGA:  11    -0.128544669771E+04   -0.84678E-04   -0.92364E-04  8540   0.160E-03-0.406E-04
CGA:  12    -0.128544675818E+04   -0.60473E-04   -0.67971E-04  8540   0.118E-03-0.527E-04
CGA:  13    -0.128544678432E+04   -0.26132E-04   -0.25547E-04  8540   0.430E-04-0.557E-05
CGA:  14    -0.128544678654E+04   -0.22212E-05   -0.69352E-05  8540   0.197E-04 0.180E-04
  27 F= -.12854468E+04 E0= -.12854468E+04  d E =0.261022E-01  mag=   126.0000
       N       E                     dE             d eps       ncg     rms          ort
SDA:   1    -0.125294685257E+04    0.32500E+02    0.00000E+00  8540   0.983E+02 0.000E+00
CGA:   2    -0.127336063726E+04   -0.20414E+02   -0.20704E+02  8540   0.392E+02-0.680E-01
CGA:   3    -0.128267112406E+04   -0.93105E+01   -0.93272E+01  8540   0.879E+01 0.156E+00
CGA:   4    -0.128454084584E+04   -0.18697E+01   -0.18727E+01  8540   0.164E+01 0.110E-01
CGA:   5    -0.128490785900E+04   -0.36701E+00   -0.36695E+00  8540   0.385E+00-0.294E-02
CGA:   6    -0.128500481866E+04   -0.96960E-01   -0.96559E-01  8540   0.108E+00-0.356E-02
CGA:   7    -0.128503539956E+04   -0.30581E-01   -0.30575E-01  8540   0.333E-01-0.100E-03
CGA:   8    -0.128504518962E+04   -0.97901E-02   -0.98668E-02  8540   0.113E-01 0.119E-02
CGA:   9    -0.128504914297E+04   -0.39534E-02   -0.39627E-02  8540   0.409E-02 0.510E-03
CGA:  10    -0.128505070870E+04   -0.15657E-02   -0.15637E-02  8540   0.166E-02 0.201E-03
CGA:  11    -0.128505137595E+04   -0.66726E-03   -0.66392E-03  8540   0.718E-03 0.126E-03
CGA:  12    -0.128505164287E+04   -0.26692E-03   -0.26921E-03  8540   0.349E-03 0.243E-03
CGA:  13    -0.128505179637E+04   -0.15349E-03   -0.15757E-03  8540   0.197E-03 0.198E-03
CGA:  14    -0.128505190375E+04   -0.10738E-03   -0.10288E-03  8540   0.138E-03 0.261E-04
CGA:  15    -0.128505194491E+04   -0.41162E-04   -0.47365E-04  8540   0.725E-04 0.101E-03
CGA:  16    -0.128505198285E+04   -0.37939E-04   -0.34668E-04  8540   0.422E-04 0.276E-04
CGA:  17    -0.128505200337E+04   -0.20526E-04   -0.20915E-04  8540   0.313E-04 0.452E-04
CGA:  18    -0.128505202582E+04   -0.22446E-04   -0.18899E-04  8540   0.214E-04 0.146E-04
CGA:  19    -0.128505202663E+04   -0.81661E-06   -0.60382E-05  8540   0.169E-04 0.278E-04
  28 F= -.12850520E+04 E0= -.12850520E+04  d E =0.394760E+00  mag=   126.0000
       N       E                     dE             d eps       ncg     rms          ort
SDA:   1    -0.127607745665E+04    0.89746E+01    0.00000E+00  8540   0.280E+02 0.000E+00
CGA:   2    -0.128193914393E+04   -0.58617E+01   -0.58905E+01  8540   0.116E+02 0.873E-02
CGA:   3    -0.128469861303E+04   -0.27595E+01   -0.27603E+01  8540   0.257E+01 0.928E-02
CGA:   4    -0.128524327068E+04   -0.54466E+00   -0.54422E+00  8540   0.478E+00-0.338E-02
CGA:   5    -0.128534978771E+04   -0.10652E+00   -0.10664E+00  8540   0.109E+00 0.726E-03
CGA:   6    -0.128537610887E+04   -0.26321E-01   -0.26419E-01  8540   0.287E-01 0.101E-02
CGA:   7    -0.128538430164E+04   -0.81928E-02   -0.82075E-02  8540   0.855E-02 0.305E-03
CGA:   8    -0.128538706121E+04   -0.27596E-02   -0.27551E-02  8540   0.322E-02-0.471E-03
CGA:   9    -0.128538816549E+04   -0.11043E-02   -0.11191E-02  8540   0.128E-02-0.374E-03
CGA:  10    -0.128538848606E+04   -0.32058E-03   -0.32636E-03  8540   0.353E-03 0.136E-03
CGA:  11    -0.128538861128E+04   -0.12521E-03   -0.12540E-03  8540   0.122E-03 0.274E-04
CGA:  12    -0.128538861319E+04   -0.19089E-05   -0.13255E-03  8540   0.564E-03-0.193E-03
CGA:  13    -0.128538872882E+04   -0.11564E-03   -0.12498E-03  8540   0.653E-04 0.667E-04
CGA:  14    -0.128538875765E+04   -0.28823E-04   -0.54758E-04  8540   0.103E-03-0.656E-04
CGA:  15    -0.128538877325E+04   -0.15604E-04   -0.21456E-04  8540   0.174E-04 0.351E-04
CGA:  16    -0.128538878254E+04   -0.92873E-05   -0.96869E-05  8540   0.931E-05-0.806E-05
  29 F= -.12853888E+04 E0= -.12853888E+04  d E =-.336756E+00  mag=   126.0000
       N       E                     dE             d eps       ncg     rms          ort
SDA:   1    -0.128432154335E+04    0.10672E+01    0.00000E+00  8540   0.317E+01 0.000E+00
CGA:   2    -0.128502068179E+04   -0.69914E+00   -0.70011E+00  8540   0.137E+01 0.328E-02
CGA:   3    -0.128533447790E+04   -0.31380E+00   -0.31366E+00  8540   0.293E+00-0.161E-02
CGA:   4    -0.128539771449E+04   -0.63237E-01   -0.62934E-01  8540   0.551E-01-0.222E-02
CGA:   5    -0.128540956477E+04   -0.11850E-01   -0.11915E-01  8540   0.120E-01 0.495E-03
CGA:   6    -0.128541229100E+04   -0.27262E-02   -0.28138E-02  8540   0.303E-02 0.823E-03
CGA:   7    -0.128541317864E+04   -0.88764E-03   -0.89748E-03  8540   0.900E-03 0.179E-03
CGA:   8    -0.128541355769E+04   -0.37905E-03   -0.41928E-03  8540   0.726E-03-0.366E-03
CGA:   9    -0.128541370235E+04   -0.14466E-03   -0.14493E-03  8540   0.335E-03-0.178E-03
CGA:  10    -0.128541374649E+04   -0.44140E-04   -0.51755E-04  8540   0.148E-03 0.581E-04
CGA:  11    -0.128541377061E+04   -0.24115E-04   -0.31844E-04  8540   0.644E-04 0.532E-04
CGA:  12    -0.128541379837E+04   -0.27759E-04   -0.27757E-04  8540   0.435E-04-0.554E-06
CGA:  13    -0.128541383091E+04   -0.32545E-04    0.39747E-04  8540   0.300E-04-0.375E-05
CGA:  14    -0.128541385876E+04   -0.27846E-04    0.76126E-05  8540   0.210E-04-0.505E-05
CGA:  15    -0.128541387165E+04   -0.12895E-04    0.18989E-04  8540   0.148E-04-0.420E-05
CGA:  16    -0.128541387325E+04   -0.16016E-05   -0.21018E-05  8540   0.960E-05 0.343E-05
  30 F= -.12854139E+04 E0= -.12854139E+04  d E =-.250907E-01  mag=   126.0000
       N       E                     dE             d eps       ncg     rms          ort
SDA:   1    -0.128443804844E+04    0.97582E+00    0.00000E+00  8540   0.271E+01 0.000E+00
CGA:   2    -0.128507749102E+04   -0.63944E+00   -0.63979E+00  8540   0.124E+01 0.352E-02
CGA:   3    -0.128534908883E+04   -0.27160E+00   -0.27152E+00  8540   0.242E+00-0.145E-02
CGA:   4    -0.128540110220E+04   -0.52013E-01   -0.51837E-01  8540   0.451E-01-0.215E-02
CGA:   5    -0.128541077900E+04   -0.96768E-02   -0.97176E-02  8540   0.991E-02 0.535E-03
CGA:   6    -0.128541304586E+04   -0.22669E-02   -0.23150E-02  8540   0.247E-02 0.838E-03
CGA:   7    -0.128541379238E+04   -0.74653E-03   -0.74752E-03  8540   0.787E-03 0.156E-03
CGA:   8    -0.128541411971E+04   -0.32733E-03   -0.40757E-03  8540   0.813E-03-0.397E-03
CGA:   9    -0.128541427897E+04   -0.15925E-03   -0.16317E-03  8540   0.118E-03 0.414E-04
CGA:  10    -0.128541432485E+04   -0.45884E-04   -0.45294E-04  8540   0.537E-04 0.775E-05
CGA:  11    -0.128541436855E+04   -0.43703E-04    0.28124E-04  8540   0.281E-04 0.277E-04
CGA:  12    -0.128541439279E+04   -0.24239E-04    0.88474E-05  8540   0.149E-04 0.153E-04
CGA:  13    -0.128541440647E+04   -0.13678E-04    0.39382E-05  8540   0.119E-04 0.125E-04
CGA:  14    -0.128541441808E+04   -0.11609E-04    0.26212E-05  8540   0.993E-05 0.107E-04
CGA:  15    -0.128541442765E+04   -0.95751E-05    0.22780E-05  8540   0.845E-05 0.911E-05
  31 F= -.12854144E+04 E0= -.12854144E+04  d E =-.554401E-03  mag=   126.0000
       N       E                     dE             d eps       ncg     rms          ort
SDA:   1    -0.128375658704E+04    0.16578E+01    0.00000E+00  8540   0.426E+01 0.000E+00
CGA:   2    -0.128487257117E+04   -0.11160E+01   -0.11161E+01  8540   0.210E+01 0.234E-02
CGA:   3    -0.128529848749E+04   -0.42592E+00   -0.42578E+00  8540   0.360E+00-0.189E-02
CGA:   4    -0.128537425443E+04   -0.75767E-01   -0.75654E-01  8540   0.670E-01-0.143E-02
CGA:   5    -0.128538896549E+04   -0.14711E-01   -0.14735E-01  8540   0.151E-01 0.368E-03
CGA:   6    -0.128539257848E+04   -0.36130E-02   -0.36375E-02  8540   0.388E-02 0.600E-03
CGA:   7    -0.128539374563E+04   -0.11672E-02   -0.11662E-02  8540   0.136E-02 0.991E-04
CGA:   8    -0.128539428433E+04   -0.53869E-03   -0.57664E-03  8540   0.901E-03-0.281E-03
CGA:   9    -0.128539453826E+04   -0.25394E-03   -0.26238E-03  8540   0.423E-03-0.105E-03
CGA:  10    -0.128539465847E+04   -0.12021E-03   -0.11887E-03  8540   0.185E-03 0.473E-04
CGA:  11    -0.128539475091E+04   -0.92433E-04   -0.94937E-04  8540   0.158E-03-0.154E-04
CGA:  12    -0.128539473526E+04    0.15647E-04   -0.15929E-03  8540   0.618E-03-0.220E-03
CGA:  13    -0.128539488895E+04   -0.15369E-03   -0.15792E-03  8540   0.996E-04 0.500E-04
CGA:  14    -0.128539491916E+04   -0.30210E-04   -0.31426E-04  8540   0.194E-04 0.276E-04
CGA:  15    -0.128539492701E+04   -0.78558E-05   -0.79246E-05  8540   0.575E-05 0.476E-05
  32 F= -.12853949E+04 E0= -.12853949E+04  d E =0.195006E-01  mag=   126.0000
       N       E                     dE             d eps       ncg     rms          ort
SDA:   1    -0.124978373826E+04    0.35611E+02    0.00000E+00  8540   0.103E+03 0.000E+00
CGA:   2    -0.127257288418E+04   -0.22789E+02   -0.22869E+02  8540   0.437E+02 0.151E+00
CGA:   3    -0.128247873005E+04   -0.99058E+01   -0.99113E+01  8540   0.934E+01 0.710E-01
CGA:   4    -0.128447323815E+04   -0.19945E+01   -0.19964E+01  8540   0.176E+01 0.104E-01
CGA:   5    -0.128486270021E+04   -0.38946E+00   -0.38940E+00  8540   0.407E+00-0.239E-02
CGA:   6    -0.128496601438E+04   -0.10331E+00   -0.10307E+00  8540   0.120E+00-0.506E-02
CGA:   7    -0.128499926546E+04   -0.33251E-01   -0.33253E-01  8540   0.362E-01 0.694E-04
CGA:   8    -0.128500978877E+04   -0.10523E-01   -0.10540E-01  8540   0.121E-01 0.178E-02
CGA:   9    -0.128501397249E+04   -0.41837E-02   -0.41610E-02  8540   0.416E-02 0.769E-03
CGA:  10    -0.128501557019E+04   -0.15977E-02   -0.15806E-02  8540   0.168E-02 0.299E-03
CGA:  11    -0.128501626393E+04   -0.69374E-03   -0.67932E-03  8540   0.767E-03 0.196E-03
CGA:  12    -0.128501654894E+04   -0.28501E-03   -0.27891E-03  8540   0.402E-03 0.331E-03
CGA:  13    -0.128501672191E+04   -0.17297E-03   -0.17441E-03  8540   0.250E-03 0.289E-03
CGA:  14    -0.128501686724E+04   -0.14533E-03   -0.13277E-03  8540   0.188E-03 0.551E-04
CGA:  15    -0.128501694328E+04   -0.76040E-04   -0.74905E-04  8540   0.107E-03 0.156E-03
CGA:  16    -0.128501700338E+04   -0.60096E-04   -0.51854E-04  8540   0.681E-04 0.496E-04
CGA:  17    -0.128501704518E+04   -0.41801E-04   -0.37724E-04  8540   0.544E-04 0.797E-04
CGA:  18    -0.128501710316E+04   -0.57987E-04   -0.49631E-04  8540   0.640E-04 0.139E-04
CGA:  19    -0.128501710598E+04   -0.28177E-05   -0.14654E-04  8540   0.424E-04 0.666E-04
  33 F= -.12850171E+04 E0= -.12850171E+04  d E =0.377821E+00  mag=   126.0000
       N       E                     dE             d eps       ncg     rms          ort
SDA:   1    -0.127644319968E+04    0.85739E+01    0.00000E+00  8540   0.265E+02 0.000E+00
CGA:   2    -0.128209509684E+04   -0.56519E+01   -0.56691E+01  8540   0.109E+02 0.199E-01
CGA:   3    -0.128465490673E+04   -0.25598E+01   -0.25602E+01  8540   0.247E+01 0.279E-02
CGA:   4    -0.128518369339E+04   -0.52879E+00   -0.52821E+00  8540   0.468E+00-0.485E-02
CGA:   5    -0.128528567443E+04   -0.10198E+00   -0.10220E+00  8540   0.104E+00 0.179E-02
CGA:   6    -0.128531054164E+04   -0.24867E-01   -0.25035E-01  8540   0.280E-01 0.205E-02
CGA:   7    -0.128531846070E+04   -0.79191E-02   -0.79417E-02  8540   0.826E-02 0.565E-03
CGA:   8    -0.128532121218E+04   -0.27515E-02   -0.27608E-02  8540   0.338E-02-0.759E-03
CGA:   9    -0.128532232929E+04   -0.11171E-02   -0.11520E-02  8540   0.145E-02-0.594E-03
CGA:  10    -0.128532264428E+04   -0.31500E-03   -0.32173E-03  8540   0.404E-03 0.135E-03
CGA:  11    -0.128532276530E+04   -0.12102E-03   -0.12323E-03  8540   0.135E-03 0.586E-04
CGA:  12    -0.128532272349E+04    0.41811E-04   -0.16021E-03  8540   0.823E-03-0.282E-03
CGA:  13    -0.128532290728E+04   -0.18379E-03   -0.19017E-03  8540   0.986E-04 0.533E-04
CGA:  14    -0.128532211799E+04    0.78929E-03   -0.42501E-03  8540   0.308E-02-0.542E-03
CGA:  15    -0.128532284196E+04   -0.72396E-03   -0.81274E-03  8540   0.398E-03 0.243E-03
CGA:  16    -0.128532301777E+04   -0.17581E-03   -0.15971E-03  8540   0.746E-04-0.676E-04
CGA:  17    -0.128532300756E+04    0.10206E-04   -0.72795E-05  8540   0.318E-04 0.364E-04
CGA:  18    -0.128532299882E+04    0.87428E-05   -0.40901E-05  8540   0.131E-04 0.263E-04
  34 F= -.12853230E+04 E0= -.12853230E+04  d E =-.305893E+00  mag=   126.0000
       N       E                     dE             d eps       ncg     rms          ort
SDA:   1    -0.128459006796E+04    0.73294E+00    0.00000E+00  8540   0.221E+01 0.000E+00
CGA:   2    -0.128508549243E+04   -0.49542E+00   -0.49651E+00  8540   0.941E+00 0.130E-02
CGA:   3    -0.128529665343E+04   -0.21116E+00   -0.21084E+00  8540   0.202E+00-0.144E-02
CGA:   4    -0.128534139616E+04   -0.44743E-01   -0.44308E-01  8540   0.390E-01-0.149E-02
CGA:   5    -0.128534949231E+04   -0.80961E-02   -0.82268E-02  8540   0.826E-02 0.462E-03
CGA:   6    -0.128535126821E+04   -0.17759E-02   -0.19356E-02  8540   0.217E-02 0.651E-03
CGA:   7    -0.128535189304E+04   -0.62483E-03   -0.64894E-03  8540   0.652E-03 0.129E-03
CGA:   8    -0.128535220649E+04   -0.31345E-03   -0.31305E-03  8540   0.582E-03-0.310E-03
CGA:   9    -0.128535232364E+04   -0.11715E-03   -0.96066E-04  8540   0.273E-03-0.151E-03
CGA:  10    -0.128535235078E+04   -0.27142E-04   -0.37717E-04  8540   0.126E-03 0.405E-04
CGA:  11    -0.128535236270E+04   -0.11919E-04   -0.24241E-04  8540   0.573E-04 0.462E-04
CGA:  12    -0.128535237980E+04   -0.17098E-04   -0.18996E-04  8540   0.328E-04 0.106E-04
CGA:  13    -0.128535241608E+04   -0.36275E-04    0.60251E-04  8540   0.279E-04-0.152E-04
CGA:  14    -0.128535244766E+04   -0.31579E-04    0.19817E-05  8540   0.293E-04-0.209E-04
CGA:  15    -0.128535245090E+04   -0.32435E-05   -0.62398E-05  8540   0.997E-05 0.151E-04
  35 F= -.12853525E+04 E0= -.12853525E+04  d E =-.294521E-01  mag=   126.0000
       N       E                     dE             d eps       ncg     rms          ort
SDA:   1    -0.128443277645E+04    0.91967E+00    0.00000E+00  8540   0.263E+01 0.000E+00
CGA:   2    -0.128504270150E+04   -0.60993E+00   -0.61071E+00  8540   0.115E+01 0.255E-02
CGA:   3    -0.128529493415E+04   -0.25223E+00   -0.25199E+00  8540   0.237E+00-0.189E-02
CGA:   4    -0.128534722693E+04   -0.52293E-01   -0.51950E-01  8540   0.455E-01-0.211E-02
CGA:   5    -0.128535668390E+04   -0.94570E-02   -0.95628E-02  8540   0.960E-02 0.653E-03
CGA:   6    -0.128535878609E+04   -0.21022E-02   -0.22253E-02  8540   0.250E-02 0.909E-03
CGA:   7    -0.128535952107E+04   -0.73498E-03   -0.75015E-03  8540   0.769E-03 0.183E-03
CGA:   8    -0.128535986122E+04   -0.34015E-03   -0.38151E-03  8540   0.722E-03-0.378E-03
CGA:   9    -0.128535997864E+04   -0.11742E-03   -0.10636E-03  8540   0.340E-03-0.161E-03
CGA:  10    -0.128536001557E+04   -0.36929E-04   -0.46342E-04  8540   0.160E-03 0.524E-04
CGA:  11    -0.128536003375E+04   -0.18187E-04   -0.29730E-04  8540   0.768E-04 0.623E-04
CGA:  12    -0.128536005375E+04   -0.19995E-04   -0.22671E-04  8540   0.422E-04 0.215E-04
CGA:  13    -0.128536008956E+04   -0.35815E-04    0.32362E-02  8540   0.297E-04-0.560E-05
CGA:  14    -0.128536012368E+04   -0.34119E-04    0.42425E-05  8540   0.227E-04-0.103E-04
CGA:  15    -0.128536014314E+04   -0.19459E-04    0.25168E-05  8540   0.193E-04-0.995E-05
CGA:  16    -0.128536014652E+04   -0.33764E-05   -0.43420E-05  8540   0.198E-04-0.140E-04
  36 F= -.12853601E+04 E0= -.12853601E+04  d E =-.769562E-02  mag=   126.0000
       N       E                     dE             d eps       ncg     rms          ort
SDA:   1    -0.128527221294E+04    0.87930E-01    0.00000E+00  8540   0.238E+00 0.000E+00
CGA:   2    -0.128532886460E+04   -0.56652E-01   -0.56681E-01  8540   0.113E+00 0.242E-03
CGA:   3    -0.128535383270E+04   -0.24968E-01   -0.24925E-01  8540   0.219E-01-0.443E-03
CGA:   4    -0.128535837340E+04   -0.45407E-02   -0.45160E-02  8540   0.397E-02-0.226E-03
CGA:   5    -0.128535923302E+04   -0.85962E-03   -0.86323E-03  8540   0.891E-03 0.379E-04
CGA:   6    -0.128535943221E+04   -0.19919E-03   -0.20435E-03  8540   0.212E-03 0.638E-04
CGA:   7    -0.128535949500E+04   -0.62783E-04   -0.63011E-04  8540   0.669E-04 0.871E-05
CGA:   8    -0.128535952153E+04   -0.26532E-04   -0.28994E-04  8540   0.471E-04-0.217E-04
CGA:   9    -0.128535953021E+04   -0.86864E-05   -0.86643E-05  8540   0.177E-04-0.634E-06
  37 F= -.12853595E+04 E0= -.12853595E+04  d E =0.616303E-03  mag=   126.0000
       N       E                     dE             d eps       ncg     rms          ort
SDA:   1    -0.128419874156E+04    0.11608E+01    0.00000E+00  8540   0.305E+01 0.000E+00
CGA:   2    -0.128495327900E+04   -0.75454E+00   -0.75463E+00  8540   0.149E+01 0.454E-03
CGA:   3    -0.128527182218E+04   -0.31854E+00   -0.31851E+00  8540   0.275E+00-0.597E-03
CGA:   4    -0.128532823952E+04   -0.56417E-01   -0.56431E-01  8540   0.489E-01 0.151E-03
CGA:   5    -0.128533914799E+04   -0.10908E-01   -0.10914E-01  8540   0.113E-01 0.762E-04
CGA:   6    -0.128534190560E+04   -0.27576E-02   -0.27591E-02  8540   0.295E-02 0.334E-04
CGA:   7    -0.128534271335E+04   -0.80775E-03   -0.80817E-03  8540   0.902E-03 0.407E-04
CGA:   8    -0.128534298157E+04   -0.26822E-03   -0.26762E-03  8540   0.303E-03 0.585E-04
CGA:   9    -0.128534307878E+04   -0.97203E-04   -0.96308E-04  8540   0.101E-03 0.578E-04
CGA:  10    -0.128534310840E+04   -0.29621E-04   -0.30820E-04  8540   0.402E-04 0.445E-04
CGA:  11    -0.128534311820E+04   -0.97988E-05   -0.12065E-04  8540   0.211E-04 0.305E-04
  38 F= -.12853431E+04 E0= -.12853431E+04  d E =0.164120E-01  mag=   126.0000
       N       E                     dE             d eps       ncg     rms          ort
SDA:   1    -0.128363895640E+04    0.17042E+01    0.00000E+00  8540   0.421E+01 0.000E+00
CGA:   2    -0.128484370018E+04   -0.12047E+01   -0.12047E+01  8540   0.203E+01-0.187E-02
CGA:   3    -0.128523165248E+04   -0.38795E+00   -0.38795E+00  8540   0.344E+00-0.860E-04
CGA:   4    -0.128530413276E+04   -0.72480E-01   -0.72559E-01  8540   0.615E-01 0.128E-02
CGA:   5    -0.128531758525E+04   -0.13452E-01   -0.13463E-01  8540   0.139E-01 0.185E-03
CGA:   6    -0.128532105865E+04   -0.34734E-02   -0.34729E-02  8540   0.385E-02-0.279E-04
CGA:   7    -0.128532208849E+04   -0.10298E-02   -0.10297E-02  8540   0.120E-02 0.109E-03
CGA:   8    -0.128532245048E+04   -0.36198E-03   -0.35849E-03  8540   0.408E-03 0.143E-03
CGA:   9    -0.128532257733E+04   -0.12685E-03   -0.12591E-03  8540   0.133E-03 0.118E-03
CGA:  10    -0.128532261213E+04   -0.34801E-04   -0.38268E-04  8540   0.571E-04 0.769E-04
CGA:  11    -0.128532262247E+04   -0.10345E-04   -0.12211E-04  8540   0.306E-04 0.359E-04
CGA:  12    -0.128532262553E+04   -0.30572E-05   -0.54060E-05  8540   0.244E-04 0.270E-04
  39 F= -.12853226E+04 E0= -.12853226E+04  d E =0.204927E-01  mag=   126.0000
       N       E                     dE             d eps       ncg     rms          ort
SDA:   1    -0.128466920807E+04    0.65341E+00    0.00000E+00  8540   0.174E+01 0.000E+00
CGA:   2    -0.128509509966E+04   -0.42589E+00   -0.42591E+00  8540   0.833E+00 0.923E-03
CGA:   3    -0.128527454043E+04   -0.17944E+00   -0.17950E+00  8540   0.158E+00 0.131E-02
CGA:   4    -0.128530722094E+04   -0.32681E-01   -0.32699E-01  8540   0.280E-01 0.410E-03
CGA:   5    -0.128531334481E+04   -0.61239E-02   -0.61371E-02  8540   0.635E-02 0.435E-03
CGA:   6    -0.128531485375E+04   -0.15089E-02   -0.15134E-02  8540   0.159E-02 0.343E-03
CGA:   7    -0.128531528830E+04   -0.43455E-03   -0.43295E-03  8540   0.466E-03 0.134E-03
CGA:   8    -0.128531543996E+04   -0.15166E-03   -0.14937E-03  8540   0.164E-03 0.473E-04
CGA:   9    -0.128531548288E+04   -0.42927E-04   -0.43493E-04  8540   0.551E-04 0.622E-04
CGA:  10    -0.128531548801E+04   -0.51268E-05   -0.10525E-04  8540   0.294E-04 0.486E-04
  40 F= -.12853155E+04 E0= -.12853155E+04  d E =0.713752E-02  mag=   126.0000
       N       E                     dE             d eps       ncg     rms          ort
SDA:   1    -0.128509760456E+04    0.21788E+00    0.00000E+00  8540   0.603E+00 0.000E+00
CGA:   2    -0.128524625281E+04   -0.14865E+00   -0.14864E+00  8540   0.282E+00 0.101E-02
CGA:   3    -0.128530561016E+04   -0.59357E-01   -0.59381E-01  8540   0.553E-01 0.819E-03
CGA:   4    -0.128531728676E+04   -0.11677E-01   -0.11673E-01  8540   0.101E-01-0.159E-03
CGA:   5    -0.128531938508E+04   -0.20983E-02   -0.21064E-02  8540   0.211E-02 0.312E-03
CGA:   6    -0.128531983868E+04   -0.45360E-03   -0.46100E-03  8540   0.514E-03 0.343E-03
CGA:   7    -0.128531998148E+04   -0.14280E-03   -0.14214E-03  8540   0.157E-03 0.116E-03
CGA:   8    -0.128532004829E+04   -0.66807E-04   -0.68374E-04  8540   0.858E-04-0.128E-04
CGA:   9    -0.128532006961E+04   -0.21315E-04   -0.21094E-04  8540   0.299E-04 0.763E-05
CGA:  10    -0.128532007251E+04   -0.29004E-05   -0.45978E-05  8540   0.136E-04 0.171E-04
  41 F= -.12853201E+04 E0= -.12853201E+04  d E =-.458450E-02  mag=   126.0000
       N       E                     dE             d eps       ncg     rms          ort
SDA:   1    -0.128525157135E+04    0.68498E-01    0.00000E+00  8540   0.191E+00 0.000E+00
CGA:   2    -0.128529901086E+04   -0.47440E-01   -0.47434E-01  8540   0.910E-01 0.219E-03
CGA:   3    -0.128531819114E+04   -0.19180E-01   -0.19187E-01  8540   0.177E-01 0.338E-03
CGA:   4    -0.128532184135E+04   -0.36502E-02   -0.36518E-02  8540   0.309E-02 0.678E-04
CGA:   5    -0.128532249185E+04   -0.65050E-03   -0.65303E-03  8540   0.660E-03 0.140E-03
CGA:   6    -0.128532263110E+04   -0.13925E-03   -0.14201E-03  8540   0.158E-03 0.128E-03
CGA:   7    -0.128532267199E+04   -0.40890E-04   -0.41237E-04  8540   0.505E-04 0.493E-04
CGA:   8    -0.128532269115E+04   -0.19157E-04   -0.18551E-04  8540   0.225E-04 0.112E-04
CGA:   9    -0.128532269750E+04   -0.63499E-05   -0.63354E-05  8540   0.917E-05 0.987E-05
  42 F= -.12853227E+04 E0= -.12853227E+04  d E =-.262499E-02  mag=   126.0000
       N       E                     dE             d eps       ncg     rms          ort
SDA:   1    -0.128479652928E+04    0.52616E+00    0.00000E+00  8540   0.138E+01 0.000E+00
CGA:   2    -0.128515874510E+04   -0.36222E+00   -0.36216E+00  8540   0.669E+00 0.806E-03
CGA:   3    -0.128529551271E+04   -0.13677E+00   -0.13679E+00  8540   0.124E+00 0.793E-03
CGA:   4    -0.128532108780E+04   -0.25575E-01   -0.25582E-01  8540   0.217E-01 0.389E-03
CGA:   5    -0.128532577746E+04   -0.46897E-02   -0.46931E-02  8540   0.478E-02 0.463E-03
CGA:   6    -0.128532690246E+04   -0.11250E-02   -0.11224E-02  8540   0.118E-02 0.374E-03
CGA:   7    -0.128532723462E+04   -0.33217E-03   -0.32775E-03  8540   0.360E-03 0.124E-03
CGA:   8    -0.128532736075E+04   -0.12613E-03   -0.12350E-03  8540   0.139E-03 0.308E-04
CGA:   9    -0.128532739750E+04   -0.36745E-04   -0.36163E-04  8540   0.474E-04 0.515E-04
CGA:  10    -0.128532740397E+04   -0.64697E-05   -0.96570E-05  8540   0.239E-04 0.393E-04
  43 F= -.12853274E+04 E0= -.12853274E+04  d E =-.470647E-02  mag=   126.0000
       N       E                     dE             d eps       ncg     rms          ort
SDA:   1    -0.128395519911E+04    0.13722E+01    0.00000E+00  8540   0.344E+01 0.000E+00
CGA:   2    -0.128494683025E+04   -0.99163E+00   -0.99162E+00  8540   0.164E+01-0.967E-03
CGA:   3    -0.128526147193E+04   -0.31464E+00   -0.31468E+00  8540   0.281E+00 0.118E-02
CGA:   4    -0.128532007114E+04   -0.58599E-01   -0.58616E-01  8540   0.499E-01 0.116E-02
CGA:   5    -0.128533098838E+04   -0.10917E-01   -0.10920E-01  8540   0.112E-01 0.606E-03
CGA:   6    -0.128533369622E+04   -0.27078E-02   -0.27009E-02  8540   0.287E-02 0.389E-03
CGA:   7    -0.128533450266E+04   -0.80644E-03   -0.80060E-03  8540   0.939E-03 0.122E-03
CGA:   8    -0.128533481035E+04   -0.30769E-03   -0.30141E-03  8540   0.346E-03 0.754E-04
CGA:   9    -0.128533491941E+04   -0.10906E-03   -0.10442E-03  8540   0.114E-03 0.924E-04
CGA:  10    -0.128533495134E+04   -0.31925E-04   -0.32397E-04  8540   0.477E-04 0.640E-04
CGA:  11    -0.128533496174E+04   -0.10402E-04   -0.10633E-04  8540   0.248E-04 0.288E-04
CGA:  12    -0.128533496637E+04   -0.46261E-05   -0.51358E-05  8540   0.190E-04 0.212E-04
  44 F= -.12853350E+04 E0= -.12853350E+04  d E =-.756240E-02  mag=   126.0000
       N       E                     dE             d eps       ncg     rms          ort
SDA:   1    -0.128509092988E+04    0.24403E+00    0.00000E+00  8540   0.678E+00 0.000E+00
CGA:   2    -0.128526613351E+04   -0.17520E+00   -0.17520E+00  8540   0.321E+00-0.453E-04
CGA:   3    -0.128533222077E+04   -0.66087E-01   -0.66066E-01  8540   0.603E-01-0.973E-03
CGA:   4    -0.128534486482E+04   -0.12644E-01   -0.12644E-01  8540   0.109E-01-0.328E-04
CGA:   5    -0.128534725806E+04   -0.23932E-02   -0.23928E-02  8540   0.245E-02-0.620E-04
CGA:   6    -0.128534788829E+04   -0.63023E-03   -0.63470E-03  8540   0.743E-03-0.129E-03
CGA:   7    -0.128534807822E+04   -0.18992E-03   -0.19091E-03  8540   0.226E-03-0.231E-04
CGA:   8    -0.128534813868E+04   -0.60462E-04   -0.59505E-04  8540   0.678E-04 0.231E-04
CGA:   9    -0.128534816036E+04   -0.21678E-04   -0.20940E-04  8540   0.221E-04 0.153E-04
CGA:  10    -0.128534817023E+04   -0.98755E-05   -0.94899E-05  8540   0.112E-04 0.329E-05
  45 F= -.12853482E+04 E0= -.12853482E+04  d E =-.132039E-01  mag=   126.0000
       N       E                     dE             d eps       ncg     rms          ort
SDA:   1    -0.128509473052E+04    0.25343E+00    0.00000E+00  8540   0.684E+00 0.000E+00
CGA:   2    -0.128527241795E+04   -0.17769E+00   -0.17769E+00  8540   0.324E+00-0.185E-03
CGA:   3    -0.128533884412E+04   -0.66426E-01   -0.66396E-01  8540   0.626E-01-0.627E-03
CGA:   4    -0.128535184731E+04   -0.13003E-01   -0.13001E-01  8540   0.110E-01-0.671E-04
CGA:   5    -0.128535430188E+04   -0.24546E-02   -0.24478E-02  8540   0.253E-02-0.263E-03
CGA:   6    -0.128535497316E+04   -0.67128E-03   -0.68004E-03  8540   0.851E-03-0.325E-03
CGA:   7    -0.128535517184E+04   -0.19868E-03   -0.19987E-03  8540   0.256E-03-0.591E-04
CGA:   8    -0.128535523306E+04   -0.61211E-04   -0.61050E-04  8540   0.672E-04 0.248E-04
CGA:   9    -0.128535526095E+04   -0.27893E-04   -0.33431E-04  8540   0.527E-04-0.273E-04
CGA:  10    -0.128535528144E+04   -0.20493E-04    0.15939E-04  8540   0.248E-04-0.141E-05
CGA:  11    -0.128535530104E+04   -0.19602E-04    0.56416E-05  8540   0.116E-04-0.143E-05
CGA:  12    -0.128535531420E+04   -0.13158E-04    0.10808E-05  8540   0.536E-05 0.761E-06
CGA:  13    -0.128535532139E+04   -0.71899E-05    0.52524E-06  8540   0.284E-05 0.891E-06
  46 F= -.12853553E+04 E0= -.12853553E+04  d E =-.715116E-02  mag=   126.0000
       N       E                     dE             d eps       ncg     rms          ort
SDA:   1    -0.128529191490E+04    0.63399E-01    0.00000E+00  8540   0.183E+00 0.000E+00
CGA:   2    -0.128534328920E+04   -0.51374E-01   -0.51377E-01  8540   0.829E-01-0.205E-03
CGA:   3    -0.128535946790E+04   -0.16179E-01   -0.16180E-01  8540   0.156E-01 0.312E-05
CGA:   4    -0.128536279857E+04   -0.33307E-02   -0.33353E-02  8540   0.278E-02 0.101E-03
CGA:   5    -0.128536342925E+04   -0.63068E-03   -0.62669E-03  8540   0.679E-03-0.125E-03
CGA:   6    -0.128536362204E+04   -0.19279E-03   -0.20367E-03  8540   0.324E-03-0.183E-03
CGA:   7    -0.128536368078E+04   -0.58736E-04   -0.58498E-04  8540   0.944E-04-0.240E-04
CGA:   8    -0.128536370354E+04   -0.22763E-04   -0.22747E-04  8540   0.286E-04 0.464E-05
CGA:   9    -0.128536354425E+04    0.15929E-03   -0.85775E-04  8540   0.806E-03-0.147E-03
CGA:  10    -0.128536371768E+04   -0.17344E-03   -0.17295E-03  8540   0.972E-04-0.207E-05
CGA:  11    -0.128536376314E+04   -0.45453E-04   -0.46811E-04  8540   0.563E-04-0.517E-04
CGA:  12    -0.128536376574E+04   -0.26005E-05   -0.84795E-05  8540   0.892E-05 0.191E-04
  47 F= -.12853638E+04 E0= -.12853638E+04  d E =-.844435E-02  mag=   126.0000
       N       E                     dE             d eps       ncg     rms          ort
SDA:   1    -0.128520695284E+04    0.15681E+00    0.00000E+00  8540   0.446E+00 0.000E+00
CGA:   2    -0.128532449997E+04   -0.11755E+00   -0.11753E+00  8540   0.201E+00-0.196E-03
CGA:   3    -0.128536563485E+04   -0.41135E-01   -0.41106E-01  8540   0.404E-01-0.156E-03
CGA:   4    -0.128537416476E+04   -0.85299E-02   -0.85517E-02  8540   0.714E-02 0.106E-03
CGA:   5    -0.128537575317E+04   -0.15884E-02   -0.15679E-02  8540   0.163E-02-0.117E-03
CGA:   6    -0.128537621824E+04   -0.46507E-03   -0.44536E-03  8540   0.558E-03-0.177E-03
CGA:   7    -0.128537635501E+04   -0.13677E-03   -0.13295E-03  8540   0.165E-03-0.328E-04
CGA:   8    -0.128537640397E+04   -0.48961E-04   -0.48386E-04  8540   0.574E-04-0.879E-05
CGA:   9    -0.128537640997E+04   -0.59975E-05   -0.44565E-04  8540   0.217E-03-0.865E-04
CGA:  10    -0.128537646086E+04   -0.50894E-04   -0.48271E-04  8540   0.265E-04-0.150E-04
CGA:  11    -0.128537613628E+04    0.32459E-03   -0.17551E-03  8540   0.175E-02-0.185E-03
CGA:  12    -0.128537646278E+04   -0.32650E-03   -0.35170E-03  8540   0.139E-03 0.491E-04
CGA:  13    -0.128537651331E+04   -0.50529E-04   -0.49806E-04  8540   0.138E-04-0.219E-05
CGA:  14    -0.128537651161E+04    0.17012E-05   -0.20375E-05  8540   0.480E-05 0.724E-05
  48 F= -.12853765E+04 E0= -.12853765E+04  d E =-.127459E-01  mag=   126.0000
       N       E                     dE             d eps       ncg     rms          ort
SDA:   1    -0.128489591292E+04    0.48060E+00    0.00000E+00  8540   0.123E+01 0.000E+00
CGA:   2    -0.128526186327E+04   -0.36595E+00   -0.36564E+00  8540   0.538E+00-0.858E-03
CGA:   3    -0.128536424376E+04   -0.10238E+00   -0.10240E+00  8540   0.995E-01 0.653E-04
CGA:   4    -0.128538539205E+04   -0.21148E-01   -0.21227E-01  8540   0.169E-01 0.182E-03
CGA:   5    -0.128538921132E+04   -0.38193E-02   -0.37431E-02  8540   0.397E-02-0.223E-03
CGA:   6    -0.128539031035E+04   -0.10990E-02   -0.10373E-02  8540   0.118E-02-0.215E-03
CGA:   7    -0.128539062462E+04   -0.31427E-03   -0.30649E-03  8540   0.378E-03-0.296E-04
CGA:   8    -0.128539074194E+04   -0.11732E-03   -0.11769E-03  8540   0.135E-03 0.163E-05
CGA:   9    -0.128539081149E+04   -0.69551E-04   -0.69373E-04  8540   0.124E-03-0.658E-04
CGA:  10    -0.128539068343E+04    0.12805E-03   -0.81571E-04  8540   0.920E-03-0.274E-03
CGA:  11    -0.128539088388E+04   -0.20045E-03   -0.20925E-03  8540   0.158E-03 0.269E-04
CGA:  12    -0.128539093366E+04   -0.49782E-04   -0.56796E-04  8540   0.429E-04 0.373E-04
CGA:  13    -0.128539096396E+04   -0.30305E-04   -0.31188E-04  8540   0.358E-04-0.145E-04
CGA:  14    -0.128539096248E+04    0.14867E-05   -0.31289E-05  8540   0.193E-04 0.116E-04
  49 F= -.12853910E+04 E0= -.12853910E+04  d E =-.144509E-01  mag=   126.0000
       N       E                     dE             d eps       ncg     rms          ort
SDA:   1    -0.128529537210E+04    0.95592E-01    0.00000E+00  8540   0.237E+00 0.000E+00
CGA:   2    -0.128535918773E+04   -0.63816E-01   -0.63859E-01  8540   0.114E+00 0.119E-03
CGA:   3    -0.128538207104E+04   -0.22883E-01   -0.22884E-01  8540   0.199E-01-0.276E-04
CGA:   4    -0.128538620268E+04   -0.41316E-02   -0.41462E-02  8540   0.363E-02 0.534E-04
CGA:   5    -0.128538702821E+04   -0.82552E-03   -0.81258E-03  8540   0.845E-03-0.573E-04
CGA:   6    -0.128538725741E+04   -0.22920E-03   -0.21865E-03  8540   0.253E-03-0.593E-04
CGA:   7    -0.128538731800E+04   -0.60598E-04   -0.60912E-04  8540   0.722E-04 0.177E-05
CGA:   8    -0.128538733724E+04   -0.19238E-04   -0.20367E-04  8540   0.223E-04 0.786E-05
CGA:   9    -0.128538734645E+04   -0.92089E-05   -0.91752E-05  8540   0.103E-04-0.762E-06
CGA:  10    -0.128538722623E+04    0.12022E-03   -0.64912E-04  8540   0.524E-03-0.648E-04
CGA:  11    -0.128538733483E+04   -0.10860E-03   -0.11440E-03  8540   0.627E-04 0.108E-04
CGA:  12    -0.128538735013E+04   -0.15300E-04   -0.20609E-04  8540   0.160E-04 0.131E-04
CGA:  13    -0.128538736440E+04   -0.14272E-04   -0.15086E-04  8540   0.244E-04-0.112E-04
CGA:  14    -0.128538736129E+04    0.31039E-05   -0.33101E-05  8540   0.588E-05 0.111E-04
  50 F= -.12853874E+04 E0= -.12853874E+04  d E =0.360118E-02  mag=   126.0000
       N       E                     dE             d eps       ncg     rms          ort
SDA:   1    -0.128532661114E+04    0.60753E-01    0.00000E+00  8540   0.143E+00 0.000E+00
CGA:   2    -0.128536609259E+04   -0.39481E-01   -0.39536E-01  8540   0.633E-01 0.847E-04
CGA:   3    -0.128537855659E+04   -0.12464E-01   -0.12493E-01  8540   0.123E-01 0.602E-04
CGA:   4    -0.128538122247E+04   -0.26659E-02   -0.26592E-02  8540   0.221E-02-0.172E-04
CGA:   5    -0.128538165966E+04   -0.43719E-03   -0.45958E-03  8540   0.463E-03 0.576E-04
CGA:   6    -0.128538174551E+04   -0.85847E-04   -0.10694E-03  8540   0.117E-03 0.602E-04
CGA:   7    -0.128538177368E+04   -0.28174E-04   -0.33626E-04  8540   0.360E-04 0.180E-04
CGA:   8    -0.128538178508E+04   -0.11402E-04   -0.12639E-04  8540   0.141E-04 0.519E-05
CGA:   9    -0.128538178548E+04   -0.39848E-06   -0.30070E-05  8540   0.519E-05 0.759E-05
  51 F= -.12853818E+04 E0= -.12853818E+04  d E =0.557581E-02  mag=   126.0000
       N       E                     dE             d eps       ncg     rms          ort
SDA:   1    -0.128533697981E+04    0.44805E-01    0.00000E+00  8540   0.113E+00 0.000E+00
CGA:   2    -0.128536619114E+04   -0.29211E-01   -0.29204E-01  8540   0.573E-01-0.774E-04
CGA:   3    -0.128537804594E+04   -0.11855E-01   -0.11876E-01  8540   0.978E-02 0.626E-04
CGA:   4    -0.128538003647E+04   -0.19905E-02   -0.20008E-02  8540   0.174E-02 0.375E-04
CGA:   5    -0.128538041730E+04   -0.38083E-03   -0.38657E-03  8540   0.394E-03 0.242E-04
CGA:   6    -0.128538050449E+04   -0.87184E-04   -0.92359E-04  8540   0.947E-04 0.243E-04
CGA:   7    -0.128538053040E+04   -0.25911E-04   -0.27034E-04  8540   0.292E-04 0.684E-05
CGA:   8    -0.128538053952E+04   -0.91207E-05   -0.94603E-05  8540   0.110E-04 0.278E-05
  52 F= -.12853805E+04 E0= -.12853805E+04  d E =0.124596E-02  mag=   126.0000
       N       E                     dE             d eps       ncg     rms          ort
SDA:   1    -0.128526310153E+04    0.11743E+00    0.00000E+00  8540   0.293E+00 0.000E+00
CGA:   2    -0.128534202459E+04   -0.78923E-01   -0.78930E-01  8540   0.153E+00-0.585E-04
CGA:   3    -0.128537289474E+04   -0.30870E-01   -0.30880E-01  8540   0.243E-01 0.231E-04
CGA:   4    -0.128537784896E+04   -0.49542E-02   -0.49700E-02  8540   0.431E-02 0.810E-04
CGA:   5    -0.128537883503E+04   -0.98607E-03   -0.98500E-03  8540   0.101E-02-0.795E-05
CGA:   6    -0.128537908750E+04   -0.25246E-03   -0.24947E-03  8540   0.264E-03-0.240E-04
CGA:   7    -0.128537916194E+04   -0.74442E-04   -0.73850E-04  8540   0.885E-04-0.734E-05
CGA:   8    -0.128537918984E+04   -0.27907E-04   -0.27815E-04  8540   0.357E-04-0.229E-05
CGA:   9    -0.128537920323E+04   -0.13386E-04   -0.13465E-04  8540   0.165E-04-0.320E-05
CGA:  10    -0.128537921006E+04   -0.68306E-05   -0.90171E-05  8540   0.195E-04-0.927E-05
  53 F= -.12853792E+04 E0= -.12853792E+04  d E =0.132946E-02  mag=   126.0000
       N       E                     dE             d eps       ncg     rms          ort
SDA:   1    -0.128492292022E+04    0.45628E+00    0.00000E+00  8540   0.113E+01 0.000E+00
CGA:   2    -0.128523516004E+04   -0.31224E+00   -0.31225E+00  8540   0.589E+00-0.319E-03
CGA:   3    -0.128535117655E+04   -0.11602E+00   -0.11608E+00  8540   0.906E-01 0.292E-03
CGA:   4    -0.128536979908E+04   -0.18623E-01   -0.18672E-01  8540   0.163E-01 0.318E-03
CGA:   5    -0.128537348854E+04   -0.36895E-02   -0.36929E-02  8540   0.375E-02 0.240E-04
CGA:   6    -0.128537441593E+04   -0.92739E-03   -0.92233E-03  8540   0.970E-03-0.531E-04
CGA:   7    -0.128537468381E+04   -0.26788E-03   -0.26747E-03  8540   0.312E-03-0.729E-05
CGA:   8    -0.128537477990E+04   -0.96096E-04   -0.96230E-04  8540   0.116E-03 0.561E-05
CGA:   9    -0.128537482462E+04   -0.44718E-04   -0.45079E-04  8540   0.497E-04-0.751E-05
CGA:  10    -0.128537484304E+04   -0.18417E-04   -0.18789E-04  8540   0.230E-04-0.546E-05
CGA:  11    -0.128537485213E+04   -0.90976E-05   -0.13764E-04  8540   0.313E-04-0.141E-04
  54 F= -.12853749E+04 E0= -.12853749E+04  d E =0.435793E-02  mag=   126.0000
       N       E                     dE             d eps       ncg     rms          ort
SDA:   1    -0.128503647537E+04    0.33837E+00    0.00000E+00  8540   0.846E+00 0.000E+00
CGA:   2    -0.128526191996E+04   -0.22544E+00   -0.22549E+00  8540   0.437E+00 0.185E-03
CGA:   3    -0.128535077839E+04   -0.88858E-01   -0.88812E-01  8540   0.716E-01-0.452E-03
CGA:   4    -0.128536542466E+04   -0.14646E-01   -0.14646E-01  8540   0.129E-01-0.132E-04
CGA:   5    -0.128536828712E+04   -0.28625E-02   -0.28725E-02  8540   0.292E-02 0.888E-04
CGA:   6    -0.128536899622E+04   -0.70910E-03   -0.71156E-03  8540   0.726E-03 0.284E-04
CGA:   7    -0.128536920234E+04   -0.20612E-03   -0.20600E-03  8540   0.231E-03-0.307E-05
CGA:   8    -0.128536928067E+04   -0.78329E-04   -0.78765E-04  8540   0.998E-04-0.204E-04
CGA:   9    -0.128536930928E+04   -0.28614E-04   -0.28636E-04  8540   0.315E-04 0.307E-05
CGA:  10    -0.128536931756E+04   -0.82800E-05   -0.86961E-05  8540   0.964E-05 0.775E-05
  55 F= -.12853693E+04 E0= -.12853693E+04  d E =0.553457E-02  mag=   126.0000
       N       E                     dE             d eps       ncg     rms          ort
SDA:   1    -0.128515254957E+04    0.21676E+00    0.00000E+00  8540   0.545E+00 0.000E+00
CGA:   2    -0.128530629645E+04   -0.15375E+00   -0.15376E+00  8540   0.280E+00 0.765E-04
CGA:   3    -0.128536075368E+04   -0.54457E-01   -0.54473E-01  8540   0.432E-01 0.121E-03
CGA:   4    -0.128536976831E+04   -0.90146E-02   -0.90139E-02  8540   0.784E-02-0.105E-04
CGA:   5    -0.128537150710E+04   -0.17388E-02   -0.17430E-02  8540   0.176E-02 0.490E-04
CGA:   6    -0.128537192772E+04   -0.42061E-03   -0.42283E-03  8540   0.437E-03 0.355E-04
CGA:   7    -0.128537204994E+04   -0.12222E-03   -0.12250E-03  8540   0.138E-03 0.119E-04
CGA:   8    -0.128537209187E+04   -0.41933E-04   -0.41939E-04  8540   0.482E-04 0.122E-04
CGA:   9    -0.128537210987E+04   -0.17995E-04   -0.17816E-04  8540   0.172E-04 0.411E-05
CGA:  10    -0.128537211447E+04   -0.46013E-05   -0.48425E-05  8540   0.582E-05 0.601E-05
  56 F= -.12853721E+04 E0= -.12853721E+04  d E =-.279690E-02  mag=   126.0000
       N       E                     dE             d eps       ncg     rms          ort
SDA:   1    -0.128534455272E+04    0.27557E-01    0.00000E+00  8540   0.810E-01 0.000E+00
CGA:   2    -0.128536227843E+04   -0.17726E-01   -0.17738E-01  8540   0.367E-01 0.124E-03
CGA:   3    -0.128537097918E+04   -0.87008E-02   -0.87008E-02  8540   0.802E-02-0.192E-04
CGA:   4    -0.128537262655E+04   -0.16474E-02   -0.16414E-02  8540   0.139E-02-0.749E-04
CGA:   5    -0.128537292711E+04   -0.30056E-03   -0.30118E-03  8540   0.319E-03 0.928E-05
CGA:   6    -0.128537299532E+04   -0.68206E-04   -0.70214E-04  8540   0.701E-04 0.329E-04
CGA:   7    -0.128537301513E+04   -0.19805E-04   -0.19945E-04  8540   0.206E-04 0.767E-05
CGA:   8    -0.128537302369E+04   -0.85646E-05   -0.10310E-04  8540   0.187E-04-0.989E-05
  57 F= -.12853730E+04 E0= -.12853730E+04  d E =-.909224E-03  mag=   126.0000
       N       E                     dE             d eps       ncg     rms          ort
SDA:   1    -0.128535774044E+04    0.15275E-01    0.00000E+00  8540   0.417E-01 0.000E+00
CGA:   2    -0.128536854614E+04   -0.10806E-01   -0.10805E-01  8540   0.217E-01-0.621E-04
CGA:   3    -0.128537304654E+04   -0.45004E-02   -0.45022E-02  8540   0.365E-02 0.191E-04
CGA:   4    -0.128537377511E+04   -0.72858E-03   -0.73182E-03  8540   0.623E-03 0.424E-04
CGA:   5    -0.128537391798E+04   -0.14287E-03   -0.14295E-03  8540   0.146E-03 0.170E-05
CGA:   6    -0.128537395502E+04   -0.37039E-04   -0.36942E-04  8540   0.391E-04-0.586E-05
CGA:   7    -0.128537396518E+04   -0.10161E-04   -0.10161E-04  8540   0.116E-04 0.126E-06
CGA:   8    -0.128537396823E+04   -0.30491E-05   -0.30586E-05  8540   0.350E-05 0.164E-05
  58 F= -.12853740E+04 E0= -.12853740E+04  d E =-.944539E-03  mag=   126.0000
       N       E                     dE             d eps       ncg     rms          ort
SDA:   1    -0.128474575560E+04    0.62821E+00    0.00000E+00  8540   0.155E+01 0.000E+00
CGA:   2    -0.128518567651E+04   -0.43992E+00   -0.43993E+00  8540   0.807E+00-0.916E-03
CGA:   3    -0.128534204024E+04   -0.15636E+00   -0.15641E+00  8540   0.124E+00 0.444E-03
CGA:   4    -0.128536768972E+04   -0.25649E-01   -0.25685E-01  8540   0.224E-01 0.621E-03
CGA:   5    -0.128537270866E+04   -0.50189E-02   -0.50224E-02  8540   0.498E-02 0.859E-04
CGA:   6    -0.128537392746E+04   -0.12188E-02   -0.12188E-02  8540   0.127E-02-0.393E-05
CGA:   7    -0.128537427123E+04   -0.34378E-03   -0.34331E-03  8540   0.379E-03 0.367E-04
CGA:   8    -0.128537438563E+04   -0.11440E-03   -0.11320E-03  8540   0.129E-03 0.376E-04
CGA:   9    -0.128537442818E+04   -0.42547E-04   -0.41581E-04  8540   0.402E-04 0.287E-04
CGA:  10    -0.128537444234E+04   -0.14158E-04   -0.13884E-04  8540   0.141E-04 0.131E-04
CGA:  11    -0.128537444684E+04   -0.45057E-05   -0.46305E-05  8540   0.603E-05 0.765E-05
  59 F= -.12853744E+04 E0= -.12853744E+04  d E =-.478610E-03  mag=   126.0000
       N       E                     dE             d eps       ncg     rms          ort
SDA:   1    -0.128525004600E+04    0.12440E+00    0.00000E+00  8540   0.313E+00 0.000E+00
CGA:   2    -0.128533828518E+04   -0.88239E-01   -0.88229E-01  8540   0.158E+00 0.370E-03
CGA:   3    -0.128536928813E+04   -0.31003E-01   -0.30985E-01  8540   0.250E-01-0.303E-03
CGA:   4    -0.128537454372E+04   -0.52556E-02   -0.52493E-02  8540   0.459E-02-0.136E-03
CGA:   5    -0.128537555411E+04   -0.10104E-02   -0.10098E-02  8540   0.102E-02-0.191E-04
CGA:   6    -0.128537580211E+04   -0.24800E-03   -0.24795E-03  8540   0.260E-03-0.575E-05
CGA:   7    -0.128537587339E+04   -0.71281E-04   -0.71295E-04  8540   0.799E-04-0.696E-06
CGA:   8    -0.128537589803E+04   -0.24633E-04   -0.24591E-04  8540   0.283E-04 0.766E-06
CGA:   9    -0.128537590913E+04   -0.11103E-04   -0.13089E-04  8540   0.178E-04-0.993E-05
CGA:  10    -0.128537591261E+04   -0.34843E-05   -0.55916E-05  8540   0.130E-04-0.977E-05
  60 F= -.12853759E+04 E0= -.12853759E+04  d E =-.146577E-02  mag=   126.0000
       N       E                     dE             d eps       ncg     rms          ort
SDA:   1    -0.128536555845E+04    0.10351E-01    0.00000E+00  8540   0.311E-01 0.000E+00
CGA:   2    -0.128537190796E+04   -0.63495E-02   -0.63433E-02  8540   0.126E-01-0.103E-03
CGA:   3    -0.128537492644E+04   -0.30185E-02   -0.30245E-02  8540   0.309E-02 0.182E-03
CGA:   4    -0.128537556135E+04   -0.63491E-03   -0.63971E-03  8540   0.546E-03 0.709E-04
CGA:   5    -0.128537568297E+04   -0.12162E-03   -0.12200E-03  8540   0.125E-03 0.754E-05
CGA:   6    -0.128537571408E+04   -0.31107E-04   -0.31110E-04  8540   0.329E-04 0.105E-06
CGA:   7    -0.128537572276E+04   -0.86803E-05   -0.86818E-05  8540   0.907E-05 0.110E-05
  61 F= -.12853757E+04 E0= -.12853757E+04  d E =0.189855E-03  mag=   126.0000
       N       E                     dE             d eps       ncg     rms          ort
SDA:   1    -0.128537148749E+04    0.42266E-02    0.00000E+00  8540   0.120E-01 0.000E+00
CGA:   2    -0.128537443706E+04   -0.29496E-02   -0.29488E-02  8540   0.608E-02-0.605E-04
CGA:   3    -0.128537572788E+04   -0.12908E-02   -0.12935E-02  8540   0.110E-02 0.572E-04
CGA:   4    -0.128537594708E+04   -0.21921E-03   -0.22080E-03  8540   0.182E-03 0.274E-04
CGA:   5    -0.128537598968E+04   -0.42592E-04   -0.42615E-04  8540   0.437E-04 0.820E-06
CGA:   6    -0.128537599996E+04   -0.10288E-04   -0.10320E-04  8540   0.104E-04 0.180E-05
CGA:   7    -0.128537600205E+04   -0.20854E-05   -0.22209E-05  8540   0.275E-05 0.295E-05
  62 F= -.12853760E+04 E0= -.12853760E+04  d E =-.279290E-03  mag=   126.0000
