       N       E                     dE             d eps       ncg     rms          ort
DAV:   1     0.282295743603E+04    0.28230E+04   -0.29315E+05  2880   0.140E+03
DAV:   2    -0.963181408037E+03   -0.37861E+04   -0.36579E+04  2880   0.312E+02
DAV:   3    -0.122048967571E+04   -0.25731E+03   -0.25498E+03  2880   0.849E+01
DAV:   4    -0.122351558029E+04   -0.30259E+01   -0.30154E+01  2880   0.977E+00
DAV:   5    -0.122356556043E+04   -0.49980E-01   -0.49875E-01  2880   0.116E+00
SDA:   6    -0.858740817824E+03    0.36482E+03   -0.49875E-01  2880   0.712E+03 0.000E+00
CGA:   7    -0.967773020695E+03   -0.10903E+03   -0.11349E+03  2880   0.905E+02 0.382E+02
CGA:   8    -0.985578301918E+03   -0.17805E+02   -0.14152E+02  2880   0.463E+02-0.334E+02
CGA:   9    -0.990073419261E+03   -0.44951E+01   -0.40801E+01  2880   0.275E+02-0.686E+01
CGA:  10    -0.992520861479E+03   -0.24474E+01   -0.28669E+01  2880   0.139E+02-0.960E+00
CGA:  11    -0.994801873392E+03   -0.22810E+01   -0.17580E+01  2880   0.161E+02-0.684E+01
CGA:  12    -0.995401596202E+03   -0.59972E+00   -0.68596E+00  2880   0.190E+02 0.230E-01
CGA:  13    -0.995475936922E+03   -0.74341E-01   -0.11558E+01  2880   0.148E+02-0.863E+01
CGA:  14    -0.995985997673E+03   -0.51006E+00   -0.56615E+00  2880   0.547E+01-0.837E+00
CGA:  15    -0.996218577417E+03   -0.23258E+00   -0.30979E+00  2880   0.505E+01-0.161E+01
CGA:  16    -0.996521474589E+03   -0.30290E+00   -0.27349E+00  2880   0.126E+01 0.256E+00
CGA:  17    -0.996717200958E+03   -0.19573E+00   -0.19730E+00  2880   0.393E+01 0.621E-01
CGA:  18    -0.996965242510E+03   -0.24804E+00   -0.25545E+00  2880   0.490E+00-0.132E+00
CGA:  19    -0.997059979847E+03   -0.94737E-01   -0.93443E-01  2880   0.137E+01 0.124E-01
CGA:  20    -0.997139869926E+03   -0.79890E-01   -0.95958E-01  2880   0.332E+00-0.129E+00
CGA:  21    -0.997187331267E+03   -0.47461E-01   -0.48031E-01  2880   0.184E+00-0.443E-01
CGA:  22    -0.997205397328E+03   -0.18066E-01   -0.18218E-01  2880   0.251E+00 0.302E-02
CGA:  23    -0.997244729342E+03   -0.39332E-01   -0.39433E-01  2880   0.613E-01-0.172E-01
CGA:  24    -0.997252809163E+03   -0.80798E-02   -0.80431E-02  2880   0.103E+00-0.109E-02
CGA:  25    -0.997265539495E+03   -0.12730E-01   -0.12882E-01  2880   0.312E-01 0.529E-02
CGA:  26    -0.997268207075E+03   -0.26676E-02   -0.27628E-02  2880   0.270E-01 0.371E-02
CGA:  27    -0.997271522287E+03   -0.33152E-02   -0.34089E-02  2880   0.227E-01 0.452E-02
CGA:  28    -0.997274027857E+03   -0.25056E-02   -0.24901E-02  2880   0.185E-01 0.410E-03
CGA:  29    -0.997275744841E+03   -0.17170E-02   -0.15842E-02  2880   0.117E-01-0.140E-02
CGA:  30    -0.997276465187E+03   -0.72035E-03   -0.71157E-03  2880   0.674E-02-0.435E-04
CGA:  31    -0.997277093638E+03   -0.62845E-03   -0.63478E-03  2880   0.106E-01 0.334E-03
CGA:  32    -0.997278226483E+03   -0.11328E-02   -0.10760E-02  2880   0.401E-02-0.101E-02
CGA:  33    -0.997278531786E+03   -0.30530E-03   -0.21871E-03  2880   0.360E-02-0.114E-02
CGA:  34    -0.997278325545E+03    0.20624E-03   -0.85755E-03  2880   0.154E-01-0.529E-02
CGA:  35    -0.997278885227E+03   -0.55968E-03   -0.74799E-03  2880   0.362E-02 0.223E-02
CGA:  36    -0.997279101682E+03   -0.21646E-03   -0.28176E-03  2880   0.167E-02 0.104E-02
CGA:  37    -0.997279408741E+03   -0.30706E-03   -0.30287E-03  2880   0.280E-02 0.388E-03
CGA:  38    -0.997279737985E+03   -0.32924E-03   -0.34804E-03  2880   0.160E-02 0.579E-03
CGA:  39    -0.997279860373E+03   -0.12239E-03   -0.11988E-03  2880   0.432E-03-0.613E-04
CGA:  40    -0.997279967189E+03   -0.10682E-03    0.12885E-02  2880   0.280E-03 0.208E-03
CGA:  41    -0.997280029097E+03   -0.61908E-04   -0.59653E-04  2880   0.164E-03 0.129E-03
CGA:  42    -0.997280050402E+03   -0.21305E-04   -0.22194E-04  2880   0.136E-03 0.248E-04
CGA:  43    -0.997280089858E+03   -0.39456E-04    0.10735E-02  2880   0.865E-04 0.558E-05
CGA:  44    -0.997280141617E+03   -0.51759E-04    0.43570E-05  2880   0.164E-03-0.881E-04
CGA:  45    -0.997280136134E+03    0.54824E-05   -0.35417E-05  2880   0.508E-04 0.864E-04
   1 F= -.99728014E+03 E0= -.99726732E+03  d E =-.997280E+03  mag=     2.0000
       N       E                     dE             d eps       ncg     rms          ort
SDA:   1    -0.997279166099E+03    0.97552E-03    0.00000E+00  2880   0.956E-02 0.000E+00
CGA:   2    -0.997279773980E+03   -0.60788E-03   -0.50467E-03  2880   0.201E-02-0.184E-02
CGA:   3    -0.997279919284E+03   -0.14530E-03   -0.14609E-03  2880   0.137E-02 0.243E-04
CGA:   4    -0.997280040557E+03   -0.12127E-03   -0.12214E-03  2880   0.632E-03 0.277E-04
CGA:   5    -0.997280108969E+03   -0.68412E-04   -0.68391E-04  2880   0.195E-03-0.103E-04
CGA:   6    -0.997280126370E+03   -0.17401E-04   -0.18032E-04  2880   0.575E-04 0.394E-04
CGA:   7    -0.997280145934E+03   -0.19563E-04    0.12325E-04  2880   0.317E-04 0.186E-04
CGA:   8    -0.997280150646E+03   -0.47121E-05   -0.46990E-05  2880   0.326E-04 0.368E-05
   2 F= -.99728015E+03 E0= -.99726733E+03  d E =-.145114E-04  mag=     2.0000
       N       E                     dE             d eps       ncg     rms          ort
SDA:   1    -0.997279304107E+03    0.84183E-03    0.00000E+00  2880   0.172E-01 0.000E+00
CGA:   2    -0.997279963998E+03   -0.65989E-03   -0.59808E-03  2880   0.539E-03-0.113E-02
CGA:   3    -0.997280034748E+03   -0.70750E-04   -0.68987E-04  2880   0.734E-03 0.460E-04
CGA:   4    -0.997280131045E+03   -0.96297E-04   -0.10585E-03  2880   0.771E-03-0.324E-03
CGA:   5    -0.997280138342E+03   -0.72972E-05   -0.14479E-04  2880   0.222E-03 0.100E-03
   3 F= -.99728014E+03 E0= -.99726731E+03  d E =0.123033E-04  mag=     2.0000
       N       E                     dE             d eps       ncg     rms          ort
SDA:   1    -0.997279814599E+03    0.31645E-03    0.00000E+00  2880   0.414E-02 0.000E+00
CGA:   2    -0.997280002903E+03   -0.18830E-03   -0.16389E-03  2880   0.476E-03-0.457E-03
CGA:   3    -0.997280057363E+03   -0.54459E-04   -0.54341E-04  2880   0.507E-03 0.923E-06
CGA:   4    -0.997279120532E+03    0.93683E-03   -0.50712E-03  2880   0.259E-01-0.239E-02
CGA:   5    -0.997279861611E+03   -0.74108E-03   -0.87238E-03  2880   0.116E-02 0.134E-02
CGA:   6    -0.997279923079E+03   -0.61468E-04   -0.90481E-04  2880   0.838E-03 0.302E-03
CGA:   7    -0.997280082363E+03   -0.15928E-03   -0.15844E-03  2880   0.682E-03-0.681E-04
CGA:   8    -0.997280106694E+03   -0.24331E-04   -0.26568E-04  2880   0.161E-03 0.129E-04
CGA:   9    -0.997280134776E+03   -0.28082E-04   -0.39756E-04  2880   0.855E-03-0.135E-03
CGA:  10    -0.997280176804E+03   -0.42028E-04   -0.32850E-04  2880   0.600E-04-0.855E-04
CGA:  11    -0.997280172933E+03    0.38710E-05   -0.13332E-05  2880   0.315E-04 0.401E-04
   4 F= -.99728017E+03 E0= -.99726735E+03  d E =-.345903E-04  mag=     2.0000
       N       E                     dE             d eps       ncg     rms          ort
SDA:   1    -0.997279152855E+03    0.10239E-02    0.00000E+00  2880   0.485E-02 0.000E+00
CGA:   2    -0.997279547552E+03   -0.39470E-03   -0.31373E-03  2880   0.357E-02-0.116E-02
CGA:   3    -0.997279964795E+03   -0.41724E-03   -0.43189E-03  2880   0.291E-02-0.690E-03
CGA:   4    -0.997280045891E+03   -0.81095E-04   -0.11941E-03  2880   0.562E-03 0.419E-03
CGA:   5    -0.997280050786E+03   -0.48955E-05   -0.27782E-04  2880   0.248E-03 0.252E-03
CGA:   6    -0.997280052055E+03   -0.12686E-05   -0.15666E-04  2880   0.128E-03 0.168E-03
CGA:   7    -0.997280085953E+03   -0.33898E-04    0.14793E-03  2880   0.116E-03 0.234E-04
CGA:   8    -0.997280104500E+03   -0.18547E-04   -0.21368E-04  2880   0.334E-03-0.946E-04
CGA:   9    -0.997280105629E+03   -0.11290E-05   -0.91534E-05  2880   0.311E-04 0.779E-04
   5 F= -.99728011E+03 E0= -.99726727E+03  d E =0.673038E-04  mag=     2.0000
       N       E                     dE             d eps       ncg     rms          ort
SDA:   1    -0.997279597797E+03    0.50670E-03    0.00000E+00  2880   0.327E-02 0.000E+00
CGA:   2    -0.997279781426E+03   -0.18363E-03   -0.20026E-03  2880   0.131E-02 0.289E-03
CGA:   3    -0.997279986867E+03   -0.20544E-03   -0.39836E-03  2880   0.555E-02-0.117E-02
CGA:   4    -0.997280125876E+03   -0.13901E-03   -0.20391E-03  2880   0.713E-03 0.750E-03
CGA:   5    -0.997280141486E+03   -0.15609E-04   -0.36351E-04  2880   0.175E-03 0.287E-03
CGA:   6    -0.997280150731E+03   -0.92453E-05   -0.12260E-04  2880   0.901E-04 0.464E-04
CGA:   7    -0.997280167715E+03   -0.16984E-04   -0.18097E-04  2880   0.891E-04-0.230E-04
CGA:   8    -0.997280186466E+03   -0.18751E-04    0.15477E-04  2880   0.989E-04-0.696E-04
CGA:   9    -0.997280189070E+03   -0.26034E-05   -0.45894E-05  2880   0.407E-04 0.290E-04
   6 F= -.99728019E+03 E0= -.99726736E+03  d E =-.834407E-04  mag=     2.0000
       N       E                     dE             d eps       ncg     rms          ort
SDA:   1    -0.997279480162E+03    0.70630E-03    0.00000E+00  2880   0.966E-02 0.000E+00
CGA:   2    -0.997279878249E+03   -0.39809E-03   -0.35794E-03  2880   0.820E-03-0.618E-03
CGA:   3    -0.997280026665E+03   -0.14842E-03   -0.16577E-03  2880   0.156E-02-0.155E-03
CGA:   4    -0.997280163405E+03   -0.13674E-03   -0.13458E-03  2880   0.136E-02-0.111E-02
CGA:   5    -0.997280178285E+03   -0.14880E-04   -0.42631E-04  2880   0.251E-03 0.354E-03
CGA:   6    -0.997280175355E+03    0.29301E-05   -0.10795E-04  2880   0.181E-03 0.196E-03
CGA:   7    -0.997280187949E+03   -0.12594E-04   -0.13769E-04  2880   0.125E-03 0.469E-04
CGA:   8    -0.997280185945E+03    0.20039E-05   -0.51460E-05  2880   0.505E-04 0.107E-03
   7 F= -.99728019E+03 E0= -.99726736E+03  d E =0.312419E-05  mag=     2.0000
       N       E                     dE             d eps       ncg     rms          ort
SDA:   1    -0.997279073491E+03    0.11145E-02    0.00000E+00  2880   0.509E-02 0.000E+00
CGA:   2    -0.997279380847E+03   -0.30736E-03   -0.29538E-03  2880   0.322E-02-0.382E-03
CGA:   3    -0.997279934240E+03   -0.55339E-03   -0.54393E-03  2880   0.183E-02 0.963E-04
CGA:   4    -0.997280104479E+03   -0.17024E-03   -0.16211E-03  2880   0.122E-02-0.876E-03
CGA:   5    -0.997280133994E+03   -0.29515E-04   -0.39857E-04  2880   0.457E-03 0.318E-03
CGA:   6    -0.997280135804E+03   -0.18099E-05   -0.16883E-04  2880   0.114E-03 0.231E-03
   8 F= -.99728014E+03 E0= -.99726731E+03  d E =0.501414E-04  mag=     2.0000
       N       E                     dE             d eps       ncg     rms          ort
SDA:   1    -0.997279897834E+03    0.23616E-03    0.00000E+00  2880   0.385E-02 0.000E+00
CGA:   2    -0.997280041076E+03   -0.14324E-03   -0.14939E-03  2880   0.357E-03 0.873E-04
CGA:   3    -0.997280062712E+03   -0.21636E-04   -0.24765E-04  2880   0.265E-03 0.167E-03
CGA:   4    -0.997279956933E+03    0.10578E-03   -0.77593E-04  2880   0.280E-02-0.719E-03
CGA:   5    -0.997280064462E+03   -0.10753E-03   -0.12410E-03  2880   0.627E-03 0.125E-03
CGA:   6    -0.997280094663E+03   -0.30201E-04   -0.51081E-04  2880   0.328E-03 0.288E-03
CGA:   7    -0.997280139324E+03   -0.44661E-04   -0.46048E-04  2880   0.182E-03 0.254E-04
CGA:   8    -0.997280153176E+03   -0.13852E-04   -0.14461E-04  2880   0.898E-04 0.783E-05
CGA:   9    -0.997280153279E+03   -0.10379E-06   -0.40254E-05  2880   0.325E-04 0.399E-04
   9 F= -.99728015E+03 E0= -.99726733E+03  d E =-.174755E-04  mag=     2.0000
       N       E                     dE             d eps       ncg     rms          ort
SDA:   1    -0.997269456035E+03    0.10697E-01    0.00000E+00  2880   0.108E+00 0.000E+00
CGA:   2    -0.997273288992E+03   -0.38330E-02   -0.40823E-02  2880   0.182E-01-0.108E-02
CGA:   3    -0.997279115281E+03   -0.58263E-02   -0.62443E-02  2880   0.960E-02-0.194E-02
CGA:   4    -0.997279450864E+03   -0.33558E-03   -0.44664E-03  2880   0.282E-02 0.117E-02
CGA:   5    -0.997279787418E+03   -0.33655E-03   -0.35680E-03  2880   0.193E-02 0.846E-03
CGA:   6    -0.997280029579E+03   -0.24216E-03   -0.22567E-03  2880   0.837E-03-0.373E-03
CGA:   7    -0.997280080386E+03   -0.50807E-04   -0.52364E-04  2880   0.199E-03 0.255E-04
CGA:   8    -0.997280102686E+03   -0.22300E-04   -0.22861E-04  2880   0.229E-03 0.290E-04
CGA:   9    -0.997280129940E+03   -0.27255E-04   -0.26519E-04  2880   0.520E-04-0.273E-04
CGA:  10    -0.997280146173E+03   -0.16233E-04    0.75832E-05  2880   0.792E-04-0.995E-05
CGA:  11    -0.997280145459E+03    0.71398E-06   -0.23285E-05  2880   0.316E-04 0.331E-04
  10 F= -.99728015E+03 E0= -.99726734E+03  d E =0.782046E-05  mag=     2.0000
       N       E                     dE             d eps       ncg     rms          ort
SDA:   1    -0.997277766122E+03    0.23801E-02    0.00000E+00  2880   0.966E-02 0.000E+00
CGA:   2    -0.997278425355E+03   -0.65923E-03   -0.67494E-03  2880   0.860E-02 0.235E-03
CGA:   3    -0.997279848381E+03   -0.14230E-02   -0.15145E-02  2880   0.484E-02-0.164E-02
CGA:   4    -0.997280027139E+03   -0.17876E-03   -0.23167E-03  2880   0.122E-02 0.898E-03
CGA:   5    -0.997280084263E+03   -0.57124E-04   -0.85531E-04  2880   0.560E-03 0.509E-03
CGA:   6    -0.997280172160E+03   -0.87897E-04   -0.88103E-04  2880   0.528E-03 0.130E-03
CGA:   7    -0.997280245670E+03   -0.73511E-04   -0.73869E-04  2880   0.333E-03-0.378E-03
CGA:   8    -0.997280281875E+03   -0.36205E-04   -0.30229E-04  2880   0.703E-03-0.281E-03
CGA:   9    -0.997280291150E+03   -0.92749E-05   -0.20110E-04  2880   0.492E-04 0.125E-03
  11 F= -.99728029E+03 E0= -.99726747E+03  d E =-.145691E-03  mag=     2.0000
       N       E                     dE             d eps       ncg     rms          ort
SDA:   1    -0.997278123488E+03    0.21584E-02    0.00000E+00  2880   0.165E-01 0.000E+00
CGA:   2    -0.997278692601E+03   -0.56911E-03   -0.65692E-03  2880   0.402E-02 0.138E-02
CGA:   3    -0.997279529141E+03   -0.83654E-03   -0.76937E-03  2880   0.480E-02 0.873E-03
CGA:   4    -0.997280032879E+03   -0.50374E-03   -0.47994E-03  2880   0.218E-02-0.112E-02
CGA:   5    -0.997280106765E+03   -0.73886E-04   -0.87833E-04  2880   0.749E-03 0.264E-03
CGA:   6    -0.997280142371E+03   -0.35606E-04   -0.45891E-04  2880   0.364E-03 0.217E-03
CGA:   7    -0.997280180471E+03   -0.38100E-04   -0.92227E-04  2880   0.257E-02-0.557E-03
CGA:   8    -0.997280252293E+03   -0.71822E-04   -0.83743E-04  2880   0.679E-04 0.133E-03
CGA:   9    -0.997280266683E+03   -0.14390E-04    0.37926E-03  2880   0.844E-04-0.164E-04
CGA:  10    -0.997280269478E+03   -0.27950E-05   -0.38362E-05  2880   0.491E-04 0.260E-04
  12 F= -.99728027E+03 E0= -.99726744E+03  d E =0.216726E-04  mag=     2.0000
       N       E                     dE             d eps       ncg     rms          ort
SDA:   1    -0.997279216939E+03    0.10497E-02    0.00000E+00  2880   0.139E-01 0.000E+00
CGA:   2    -0.997279938916E+03   -0.72198E-03   -0.64801E-03  2880   0.188E-02-0.188E-02
CGA:   3    -0.997280048337E+03   -0.10942E-03   -0.11634E-03  2880   0.110E-02 0.339E-03
CGA:   4    -0.997280192967E+03   -0.14463E-03   -0.13959E-03  2880   0.530E-03 0.291E-03
CGA:   5    -0.997280029568E+03    0.16340E-03   -0.24721E-03  2880   0.828E-02-0.149E-02
CGA:   6    -0.997280271112E+03   -0.24154E-03   -0.31484E-03  2880   0.315E-03 0.999E-03
CGA:   7    -0.997280277852E+03   -0.67403E-05   -0.15277E-04  2880   0.166E-03 0.143E-03
CGA:   8    -0.997280297042E+03   -0.19190E-04   -0.20634E-04  2880   0.168E-03 0.107E-03
CGA:   9    -0.997280296934E+03    0.10775E-06   -0.30860E-04  2880   0.139E-02-0.367E-03
CGA:  10    -0.997280332396E+03   -0.35462E-04   -0.49149E-04  2880   0.520E-04 0.187E-03
CGA:  11    -0.997280330130E+03    0.22660E-05   -0.95217E-06  2880   0.247E-04 0.385E-04
  13 F= -.99728033E+03 E0= -.99726750E+03  d E =-.606523E-04  mag=     2.0000
       N       E                     dE             d eps       ncg     rms          ort
SDA:   1    -0.997234151976E+03    0.46180E-01    0.00000E+00  2880   0.158E+00 0.000E+00
CGA:   2    -0.997247159433E+03   -0.13007E-01   -0.12986E-01  2880   0.189E+00-0.566E-02
CGA:   3    -0.997272842123E+03   -0.25683E-01   -0.25621E-01  2880   0.391E-01 0.104E-02
CGA:   4    -0.997275225510E+03   -0.23834E-02   -0.24969E-02  2880   0.151E-01 0.303E-02
CGA:   5    -0.997278373938E+03   -0.31484E-02   -0.30774E-02  2880   0.614E-02 0.718E-03
CGA:   6    -0.997278693007E+03   -0.31907E-03   -0.32539E-03  2880   0.205E-02 0.663E-04
CGA:   7    -0.997278976774E+03   -0.28377E-03   -0.47313E-03  2880   0.466E-02-0.143E-02
CGA:   8    -0.997279113207E+03   -0.13643E-03   -0.19985E-03  2880   0.815E-03 0.111E-02
CGA:   9    -0.997279128910E+03   -0.15703E-04   -0.38671E-04  2880   0.196E-03 0.389E-03
CGA:  10    -0.997279133240E+03   -0.43300E-05   -0.11334E-04  2880   0.125E-03 0.125E-03
  14 F= -.99727913E+03 E0= -.99726638E+03  d E =0.119689E-02  mag=     2.0000
       N       E                     dE             d eps       ncg     rms          ort
SDA:   1    -0.997164538193E+03    0.11459E+00    0.00000E+00  2880   0.272E+01 0.000E+00
CGA:   2    -0.997242345059E+03   -0.77807E-01   -0.12699E+00  2880   0.567E+00-0.115E+01
CGA:   3    -0.997265756776E+03   -0.23412E-01   -0.23144E-01  2880   0.413E-01-0.761E-02
CGA:   4    -0.997270719499E+03   -0.49627E-02   -0.50439E-02  2880   0.565E-01 0.188E-02
CGA:   5    -0.997277299241E+03   -0.65797E-02   -0.65604E-02  2880   0.227E-01-0.467E-03
CGA:   6    -0.997278851476E+03   -0.15522E-02   -0.15623E-02  2880   0.594E-02-0.115E-03
CGA:   7    -0.997279609459E+03   -0.75798E-03   -0.70528E-03  2880   0.787E-02-0.186E-02
CGA:   8    -0.997280145821E+03   -0.53636E-03   -0.54317E-03  2880   0.228E-02 0.116E-03
CGA:   9    -0.997280208006E+03   -0.62185E-04   -0.11863E-03  2880   0.407E-03 0.603E-03
CGA:  10    -0.997280221668E+03   -0.13662E-04   -0.27500E-04  2880   0.210E-03 0.159E-03
CGA:  11    -0.997280250105E+03   -0.28437E-04   -0.30739E-04  2880   0.266E-03 0.737E-04
CGA:  12    -0.997280294983E+03   -0.44878E-04   -0.99032E-04  2880   0.585E-03-0.386E-03
CGA:  13    -0.997280333679E+03   -0.38696E-04   -0.32576E-04  2880   0.315E-03-0.773E-04
CGA:  14    -0.997280345464E+03   -0.11785E-04   -0.21008E-04  2880   0.915E-04 0.152E-03
CGA:  15    -0.997280345442E+03    0.21995E-07   -0.53707E-05  2880   0.407E-04 0.560E-04
CGA:  16    -0.997280357655E+03   -0.12213E-04    0.17030E-04  2880   0.669E-04 0.789E-05
CGA:  17    -0.997280358648E+03   -0.99310E-06   -0.42245E-05  2880   0.122E-04 0.418E-04
  15 F= -.99728036E+03 E0= -.99726755E+03  d E =-.122541E-02  mag=     2.0000
       N       E                     dE             d eps       ncg     rms          ort
SDA:   1    -0.997277069079E+03    0.32886E-02    0.00000E+00  2880   0.217E-01 0.000E+00
CGA:   2    -0.997277903563E+03   -0.83448E-03   -0.92156E-03  2880   0.708E-02 0.854E-03
CGA:   3    -0.997279879794E+03   -0.19762E-02   -0.19422E-02  2880   0.171E-02 0.231E-03
CGA:   4    -0.997280066215E+03   -0.18642E-03   -0.17073E-03  2880   0.322E-02-0.586E-03
CGA:   5    -0.997280292407E+03   -0.22619E-03   -0.21824E-03  2880   0.175E-02-0.406E-03
CGA:   6    -0.997280316732E+03   -0.24325E-04   -0.37879E-04  2880   0.325E-03 0.124E-03
CGA:   7    -0.997280317202E+03   -0.46981E-06   -0.10160E-04  2880   0.232E-03 0.108E-03
CGA:   8    -0.997280322122E+03   -0.49203E-05   -0.14224E-04  2880   0.252E-03 0.140E-03
CGA:   9    -0.997280346378E+03   -0.24256E-04   -0.20151E-04  2880   0.364E-03-0.144E-03
CGA:  10    -0.997280350603E+03   -0.42250E-05   -0.10745E-04  2880   0.505E-04 0.803E-04
  16 F= -.99728035E+03 E0= -.99726753E+03  d E =0.804518E-05  mag=     2.0000
       N       E                     dE             d eps       ncg     rms          ort
SDA:   1    -0.997275831881E+03    0.45145E-02    0.00000E+00  2880   0.983E-01 0.000E+00
CGA:   2    -0.997278816807E+03   -0.29849E-02   -0.31841E-02  2880   0.304E-02 0.180E-02
CGA:   3    -0.997279708994E+03   -0.89219E-03   -0.76530E-03  2880   0.275E-02 0.844E-03
CGA:   4    -0.997279994767E+03   -0.28577E-03   -0.25880E-03  2880   0.246E-02-0.893E-03
CGA:   5    -0.997280180176E+03   -0.18541E-03   -0.18632E-03  2880   0.720E-03-0.117E-03
CGA:   6    -0.997280186592E+03   -0.64159E-05   -0.23658E-04  2880   0.243E-03 0.244E-03
CGA:   7    -0.997280191262E+03   -0.46701E-05   -0.13230E-04  2880   0.174E-03 0.141E-03
CGA:   8    -0.997280234659E+03   -0.43397E-04    0.30351E-04  2880   0.155E-03 0.321E-04
CGA:   9    -0.997280248977E+03   -0.14318E-04   -0.15275E-04  2880   0.351E-04 0.672E-04
CGA:  10    -0.997280251886E+03   -0.29096E-05   -0.33162E-05  2880   0.178E-04 0.128E-04
  17 F= -.99728025E+03 E0= -.99726742E+03  d E =0.987166E-04  mag=     2.0000
       N       E                     dE             d eps       ncg     rms          ort
SDA:   1    -0.997277815996E+03    0.24330E-02    0.00000E+00  2880   0.299E-01 0.000E+00
CGA:   2    -0.997279003495E+03   -0.11875E-02   -0.11190E-02  2880   0.387E-02-0.147E-02
CGA:   3    -0.997280118691E+03   -0.11152E-02   -0.11059E-02  2880   0.323E-02 0.423E-04
CGA:   4    -0.997280308466E+03   -0.18978E-03   -0.17263E-03  2880   0.873E-03-0.385E-03
CGA:   5    -0.997280347471E+03   -0.39005E-04   -0.51541E-04  2880   0.228E-03 0.375E-03
CGA:   6    -0.997280368182E+03   -0.20711E-04   -0.24840E-04  2880   0.162E-03 0.185E-03
CGA:   7    -0.997280402165E+03   -0.33983E-04    0.10762E-03  2880   0.295E-03-0.402E-04
CGA:   8    -0.997280430818E+03   -0.28653E-04   -0.28396E-04  2880   0.144E-03 0.841E-05
CGA:   9    -0.997280426556E+03    0.42623E-05   -0.25688E-05  2880   0.585E-04 0.831E-04
  18 F= -.99728043E+03 E0= -.99726761E+03  d E =-.174669E-03  mag=     2.0000
       N       E                     dE             d eps       ncg     rms          ort
SDA:   1    -0.997279104485E+03    0.13263E-02    0.00000E+00  2880   0.407E-02 0.000E+00
CGA:   2    -0.997279600120E+03   -0.49563E-03   -0.11523E-02  2880   0.133E-01-0.339E-02
CGA:   3    -0.997280225536E+03   -0.62542E-03   -0.72534E-03  2880   0.106E-02 0.237E-02
CGA:   4    -0.997280262691E+03   -0.37154E-04   -0.58020E-04  2880   0.291E-03 0.404E-03
CGA:   5    -0.997280302570E+03   -0.39879E-04   -0.39631E-04  2880   0.381E-03 0.857E-04
CGA:   6    -0.997280361102E+03   -0.58533E-04   -0.12484E-03  2880   0.762E-03-0.420E-03
CGA:   7    -0.997280425183E+03   -0.64080E-04   -0.62658E-04  2880   0.470E-03-0.703E-04
CGA:   8    -0.997280456241E+03   -0.31058E-04   -0.29188E-04  2880   0.123E-03-0.576E-04
CGA:   9    -0.997280451446E+03    0.47942E-05   -0.20724E-05  2880   0.757E-04 0.839E-04
  19 F= -.99728045E+03 E0= -.99726764E+03  d E =-.248908E-04  mag=     2.0000
       N       E                     dE             d eps       ncg     rms          ort
SDA:   1    -0.997278555655E+03    0.19006E-02    0.00000E+00  2880   0.296E-01 0.000E+00
CGA:   2    -0.997279887831E+03   -0.13322E-02   -0.12102E-02  2880   0.357E-02-0.307E-02
CGA:   3    -0.997280179186E+03   -0.29136E-03   -0.29256E-03  2880   0.185E-02-0.954E-03
CGA:   4    -0.997280346890E+03   -0.16770E-03   -0.17744E-03  2880   0.192E-02-0.254E-03
CGA:   5    -0.997280405586E+03   -0.58696E-04   -0.80737E-04  2880   0.169E-03 0.501E-03
CGA:   6    -0.997280409523E+03   -0.39372E-05   -0.81390E-05  2880   0.829E-04 0.796E-04
CGA:   7    -0.997280425100E+03   -0.15577E-04   -0.14874E-04  2880   0.152E-03 0.202E-04
CGA:   8    -0.997280443656E+03   -0.18555E-04   -0.20471E-04  2880   0.190E-03-0.103E-03
CGA:   9    -0.997280450351E+03   -0.66958E-05   -0.79489E-05  2880   0.394E-04 0.247E-04
  20 F= -.99728045E+03 E0= -.99726764E+03  d E =0.109516E-05  mag=     2.0000
