       N       E                     dE             d eps       ncg     rms          rms(c)
DAV:   1     0.823634965249E+04    0.82363E+04   -0.23579E+05 34344   0.218E+03
DAV:   2     0.116171528944E+04   -0.70746E+04   -0.66290E+04 33696   0.632E+02
DAV:   3    -0.384832144498E+03   -0.15465E+04   -0.13603E+04 36036   0.272E+02
DAV:   4    -0.541893109065E+03   -0.15706E+03   -0.15422E+03 36828   0.836E+01
DAV:   5    -0.544651352092E+03   -0.27582E+01   -0.27444E+01 36756   0.125E+01    0.106E+02
DAV:   6    -0.555626277022E+03   -0.10975E+02   -0.93642E+02 44832   0.118E+02    0.126E+02
DAV:   7    -0.434607008513E+03    0.12102E+03   -0.34091E+02 36888   0.120E+02    0.359E+01
DAV:   8    -0.439708458481E+03   -0.51014E+01   -0.91122E+01 42672   0.292E+01    0.354E+01
DAV:   9    -0.445552065353E+03   -0.58436E+01   -0.46472E+01 38580   0.337E+01    0.596E+01
DAV:  10    -0.447289019071E+03   -0.17370E+01   -0.28532E+01 38352   0.207E+01    0.674E+01
DAV:  11    -0.439716757529E+03    0.75723E+01   -0.38613E+01 37260   0.173E+01    0.189E+01
DAV:  12    -0.438706017375E+03    0.10107E+01   -0.26374E+01 38184   0.158E+01    0.132E+01
DAV:  13    -0.437714708310E+03    0.99131E+00   -0.33613E+00 37236   0.103E+01    0.822E+00
DAV:  14    -0.437711265519E+03    0.34428E-02   -0.51237E+00 40032   0.607E+00    0.681E+00
DAV:  15    -0.437663040539E+03    0.48225E-01   -0.14506E+00 40080   0.432E+00    0.656E+00
DAV:  16    -0.437608382049E+03    0.54658E-01   -0.15221E+00 40860   0.448E+00    0.545E+00
DAV:  17    -0.437572840260E+03    0.35542E-01   -0.40873E-01 38508   0.332E+00    0.444E+00
DAV:  18    -0.437527932829E+03    0.44907E-01   -0.31111E-01 42612   0.293E+00    0.310E+00
DAV:  19    -0.437531895912E+03   -0.39631E-02   -0.17691E-01 39936   0.184E+00    0.258E+00
DAV:  20    -0.437517653868E+03    0.14242E-01   -0.68473E-02 39228   0.155E+00    0.190E+00
DAV:  21    -0.437515004317E+03    0.26496E-02   -0.23197E-02 36756   0.698E-01    0.166E+00
DAV:  22    -0.437513972474E+03    0.10318E-02   -0.61707E-03 36900   0.410E-01    0.160E+00
DAV:  23    -0.437511143601E+03    0.28289E-02   -0.84034E-03 39876   0.445E-01    0.125E+00
DAV:  24    -0.437509797960E+03    0.13456E-02   -0.13593E-02 42144   0.780E-01    0.969E-01
DAV:  25    -0.437507618773E+03    0.21792E-02   -0.79062E-03 42360   0.531E-01    0.689E-01
DAV:  26    -0.437508192440E+03   -0.57367E-03   -0.25910E-03 36948   0.286E-01    0.632E-01
DAV:  27    -0.437508091933E+03    0.10051E-03   -0.15812E-03 40956   0.239E-01    0.500E-01
DAV:  28    -0.437508121674E+03   -0.29741E-04   -0.15168E-03 46512   0.201E-01    0.349E-01
DAV:  29    -0.437508235845E+03   -0.11417E-03   -0.14836E-03 41484   0.226E-01    0.304E-01
DAV:  30    -0.437508240839E+03   -0.49935E-05   -0.16010E-03 41772   0.193E-01    0.210E-01
DAV:  31    -0.437508317575E+03   -0.76737E-04   -0.85674E-04 43140   0.154E-01    0.204E-01
DAV:  32    -0.437508378769E+03   -0.61193E-04   -0.46056E-04 38544   0.868E-02    0.175E-01
DAV:  33    -0.437508437592E+03   -0.58823E-04   -0.11775E-04 33132   0.400E-02    0.195E-01
DAV:  34    -0.437508268053E+03    0.16954E-03   -0.19517E-04 32808   0.712E-02    0.250E-01
DAV:  35    -0.437508356628E+03   -0.88574E-04   -0.26964E-05 22512   0.250E-02    0.224E-01
DAV:  36    -0.437508542865E+03   -0.18624E-03   -0.42855E-04 35124   0.116E-01    0.171E-01
DAV:  37    -0.437508666742E+03   -0.12388E-03   -0.33291E-04 35796   0.958E-02    0.171E-01
DAV:  38    -0.437509013655E+03   -0.34691E-03   -0.88196E-04 38220   0.985E-02    0.171E-01
DAV:  39    -0.437509216862E+03   -0.20321E-03   -0.27674E-04 34776   0.439E-02    0.232E-01
DAV:  40    -0.437509154624E+03    0.62237E-04   -0.23580E-05 25116   0.259E-02    0.280E-01
DAV:  41    -0.437509484050E+03   -0.32943E-03   -0.38293E-04 29088   0.549E-02    0.281E-01
DAV:  42    -0.437509651285E+03   -0.16724E-03   -0.16654E-04 25044   0.278E-02    0.311E-01
DAV:  43    -0.437509356875E+03    0.29441E-03   -0.12431E-04 28284   0.427E-02    0.351E-01
DAV:  44    -0.437509596259E+03   -0.23938E-03   -0.14002E-04 24444   0.330E-02    0.333E-01
DAV:  45    -0.437510254523E+03   -0.65826E-03   -0.12929E-03 38808   0.910E-02    0.311E-01
DAV:  46    -0.437510931474E+03   -0.67695E-03   -0.14905E-03 41688   0.878E-02    0.329E-01
DAV:  47    -0.437511059353E+03   -0.12788E-03   -0.18502E-04 34044   0.367E-02    0.397E-01
DAV:  48    -0.437511172472E+03   -0.11312E-03   -0.70710E-05 23328   0.204E-02    0.431E-01
DAV:  49    -0.437511172181E+03    0.29147E-06   -0.27752E-05 20748   0.134E-02
   1 F= -.43751117E+03 E0= -.43748859E+03  d E =-.437511E+03  mag=     0.1411
       N       E                     dE             d eps       ncg     rms          rms(c)
DAV:   1    -0.437511170525E+03    0.19471E-05   -0.73224E-04 45624   0.228E-01    0.494E-01
DAV:   2    -0.437522050493E+03   -0.10880E-01   -0.76844E-02 41052   0.868E-01    0.176E+00
DAV:   3    -0.437512379655E+03    0.96708E-02   -0.88700E-02 38760   0.103E+00    0.633E-01
DAV:   4    -0.437512902768E+03   -0.52311E-03   -0.58136E-03 37476   0.400E-01    0.463E-01
DAV:   5    -0.437512610113E+03    0.29265E-03   -0.13472E-03 39600   0.232E-01    0.391E-01
DAV:   6    -0.437512772719E+03   -0.16261E-03   -0.12967E-03 41556   0.154E-01    0.296E-01
DAV:   7    -0.437512663961E+03    0.10876E-03   -0.90531E-04 42684   0.168E-01    0.178E-01
DAV:   8    -0.437512630838E+03    0.33123E-04   -0.50433E-04 42528   0.106E-01    0.683E-02
DAV:   9    -0.437512649483E+03   -0.18645E-04   -0.22127E-04 35124   0.925E-02    0.500E-02
DAV:  10    -0.437512656998E+03   -0.75146E-05   -0.71872E-05 29904   0.483E-02
   2 F= -.43751266E+03 E0= -.43748998E+03  d E =-.148482E-02  mag=    -0.2396
       N       E                     dE             d eps       ncg     rms          rms(c)
DAV:   1    -0.437504124518E+03    0.85250E-02   -0.63160E-01 47088   0.764E+00    0.396E-01
DAV:   2    -0.437526496077E+03   -0.22372E-01   -0.22787E-01 36504   0.948E-01    0.414E-01
DAV:   3    -0.437527921118E+03   -0.14250E-02   -0.20618E-02 37680   0.650E-01    0.689E-01
DAV:   4    -0.437526422522E+03    0.14986E-02   -0.93829E-03 39036   0.369E-01    0.274E-01
DAV:   5    -0.437526275457E+03    0.14707E-03   -0.19268E-03 42324   0.226E-01    0.174E-01
DAV:   6    -0.437526461658E+03   -0.18620E-03   -0.12406E-03 41676   0.206E-01    0.223E-01
DAV:   7    -0.437526215711E+03    0.24595E-03   -0.10948E-03 40128   0.216E-01    0.825E-02
DAV:   8    -0.437526239402E+03   -0.23691E-04   -0.27425E-04 38028   0.977E-02    0.770E-02
DAV:   9    -0.437526218034E+03    0.21368E-04   -0.12851E-04 34116   0.738E-02    0.412E-02
DAV:  10    -0.437526216035E+03    0.19993E-05   -0.21650E-05 20724   0.302E-02
   3 F= -.43752622E+03 E0= -.43750356E+03  d E =-.135590E-01  mag=    -0.2229
       N       E                     dE             d eps       ncg     rms          rms(c)
DAV:   1    -0.437478492819E+03    0.47725E-01   -0.21508E+00 46308   0.126E+01    0.700E-01
DAV:   2    -0.437545429372E+03   -0.66937E-01   -0.67165E-01 36480   0.169E+00    0.925E-01
DAV:   3    -0.437547343639E+03   -0.19143E-02   -0.74554E-02 37104   0.130E+00    0.106E+00
DAV:   4    -0.437544732113E+03    0.26115E-02   -0.30528E-02 39540   0.617E-01    0.615E-01
DAV:   5    -0.437543466021E+03    0.12661E-02   -0.77432E-03 40044   0.462E-01    0.269E-01
DAV:   6    -0.437544223762E+03   -0.75774E-03   -0.32483E-03 42540   0.402E-01    0.408E-01
DAV:   7    -0.437543369261E+03    0.85450E-03   -0.30835E-03 41424   0.387E-01    0.137E-01
DAV:   8    -0.437543471949E+03   -0.10269E-03   -0.11421E-03 39480   0.215E-01    0.159E-01
DAV:   9    -0.437543368320E+03    0.10363E-03   -0.54257E-04 37416   0.157E-01    0.700E-02
DAV:  10    -0.437543371941E+03   -0.36214E-05   -0.11646E-04 35148   0.671E-02    0.639E-02
DAV:  11    -0.437543359780E+03    0.12161E-04   -0.69413E-05 28224   0.567E-02    0.350E-02
DAV:  12    -0.437543355033E+03    0.47463E-05   -0.22971E-05 18816   0.289E-02
   4 F= -.43754336E+03 E0= -.43752061E+03  d E =-.171390E-01  mag=    -0.1998
       N       E                     dE             d eps       ncg     rms          rms(c)
DAV:   1    -0.437533399412E+03    0.99604E-02   -0.92297E-01 44220   0.663E+00    0.398E-01
DAV:   2    -0.437554594609E+03   -0.21195E-01   -0.20352E-01 37140   0.109E+00    0.964E-01
DAV:   3    -0.437552319348E+03    0.22753E-02   -0.37992E-02 36984   0.822E-01    0.491E-01
DAV:   4    -0.437552565954E+03   -0.24661E-03   -0.10265E-02 38376   0.429E-01    0.417E-01
DAV:   5    -0.437551762771E+03    0.80318E-03   -0.32019E-03 38112   0.346E-01    0.136E-01
DAV:   6    -0.437551957181E+03   -0.19441E-03   -0.94955E-04 42828   0.207E-01    0.214E-01
DAV:   7    -0.437551738278E+03    0.21890E-03   -0.96341E-04 40248   0.205E-01    0.939E-02
DAV:   8    -0.437551786232E+03   -0.47954E-04   -0.51796E-04 40404   0.137E-01    0.110E-01
DAV:   9    -0.437551735852E+03    0.50379E-04   -0.22362E-04 35388   0.968E-02    0.428E-02
DAV:  10    -0.437551737418E+03   -0.15660E-05   -0.36469E-05 26532   0.398E-02
   5 F= -.43755174E+03 E0= -.43752894E+03  d E =-.838238E-02  mag=    -0.1778
       N       E                     dE             d eps       ncg     rms          rms(c)
DAV:   1    -0.437540449966E+03    0.11286E-01   -0.14743E+00 41340   0.722E+00    0.434E-01
DAV:   2    -0.437565977551E+03   -0.25528E-01   -0.23315E-01 37668   0.134E+00    0.148E+00
DAV:   3    -0.437559365721E+03    0.66118E-02   -0.62999E-02 37656   0.992E-01    0.429E-01
DAV:   4    -0.437560217406E+03   -0.85168E-03   -0.11434E-02 38064   0.506E-01    0.443E-01
DAV:   5    -0.437559250955E+03    0.96645E-03   -0.36450E-03 37560   0.381E-01    0.136E-01
DAV:   6    -0.437559377047E+03   -0.12609E-03   -0.84053E-04 41136   0.185E-01    0.190E-01
DAV:   7    -0.437559235555E+03    0.14149E-03   -0.80760E-04 38328   0.186E-01    0.126E-01
DAV:   8    -0.437559296926E+03   -0.61371E-04   -0.73786E-04 42396   0.150E-01    0.146E-01
DAV:   9    -0.437559201878E+03    0.95048E-04   -0.39948E-04 39240   0.126E-01    0.522E-02
DAV:  10    -0.437559208742E+03   -0.68636E-05   -0.69747E-05 28716   0.541E-02
   6 F= -.43755921E+03 E0= -.43753646E+03  d E =-.747132E-02  mag=    -0.1424
       N       E                     dE             d eps       ncg     rms          rms(c)
DAV:   1    -0.437544332925E+03    0.14869E-01   -0.12576E+00 41868   0.728E+00    0.385E-01
DAV:   2    -0.437565499969E+03   -0.21167E-01   -0.20660E-01 36756   0.111E+00    0.901E-01
DAV:   3    -0.437563886928E+03    0.16130E-02   -0.33787E-02 38172   0.730E-01    0.487E-01
DAV:   4    -0.437563903136E+03   -0.16208E-04   -0.83438E-03 38964   0.396E-01    0.361E-01
DAV:   5    -0.437563294696E+03    0.60844E-03   -0.24353E-03 37596   0.313E-01    0.133E-01
DAV:   6    -0.437563485616E+03   -0.19092E-03   -0.96064E-04 41472   0.186E-01    0.214E-01
DAV:   7    -0.437563247220E+03    0.23840E-03   -0.94451E-04 41004   0.196E-01    0.786E-02
DAV:   8    -0.437563291157E+03   -0.43938E-04   -0.37656E-04 42168   0.107E-01    0.894E-02
DAV:   9    -0.437563256544E+03    0.34614E-04   -0.18694E-04 35472   0.854E-02    0.285E-02
DAV:  10    -0.437563260526E+03   -0.39821E-05   -0.25343E-05 23112   0.319E-02
   7 F= -.43756326E+03 E0= -.43754060E+03  d E =-.405178E-02  mag=    -0.1167
       N       E                     dE             d eps       ncg     rms          rms(c)
DAV:   1    -0.437538491919E+03    0.24765E-01   -0.16506E+00 43020   0.877E+00    0.459E-01
DAV:   2    -0.437568663666E+03   -0.30172E-01   -0.29717E-01 36588   0.128E+00    0.915E-01
DAV:   3    -0.437567664709E+03    0.99896E-03   -0.41901E-02 37932   0.847E-01    0.651E-01
DAV:   4    -0.437567257703E+03    0.40701E-03   -0.12274E-02 39348   0.455E-01    0.419E-01
DAV:   5    -0.437566473607E+03    0.78410E-03   -0.31303E-03 37620   0.361E-01    0.164E-01
DAV:   6    -0.437566767263E+03   -0.29366E-03   -0.14149E-03 41232   0.231E-01    0.263E-01
DAV:   7    -0.437566395749E+03    0.37151E-03   -0.13422E-03 41664   0.240E-01    0.811E-02
DAV:   8    -0.437566453250E+03   -0.57501E-04   -0.38983E-04 42876   0.119E-01    0.883E-02
DAV:   9    -0.437566425228E+03    0.28022E-04   -0.17903E-04 35028   0.893E-02    0.451E-02
DAV:  10    -0.437566430060E+03   -0.48321E-05   -0.34199E-05 25404   0.385E-02
   8 F= -.43756643E+03 E0= -.43754396E+03  d E =-.316953E-02  mag=    -0.0874
       N       E                     dE             d eps       ncg     rms          rms(c)
DAV:   1    -0.437521049220E+03    0.45376E-01   -0.26068E+00 44688   0.117E+01    0.591E-01
DAV:   2    -0.437572160201E+03   -0.51111E-01   -0.50950E-01 37152   0.167E+00    0.871E-01
DAV:   3    -0.437572840827E+03   -0.68063E-03   -0.52050E-02 38148   0.110E+00    0.890E-01
DAV:   4    -0.437571123346E+03    0.17175E-02   -0.21073E-02 37980   0.550E-01    0.529E-01
DAV:   5    -0.437570026986E+03    0.10964E-02   -0.56937E-03 38988   0.427E-01    0.213E-01
DAV:   6    -0.437570612964E+03   -0.58598E-03   -0.28880E-03 41616   0.325E-01    0.367E-01
DAV:   7    -0.437569900842E+03    0.71212E-03   -0.23907E-03 41628   0.326E-01    0.100E-01
DAV:   8    -0.437569979481E+03   -0.78639E-04   -0.61469E-04 41904   0.161E-01    0.114E-01
DAV:   9    -0.437569922319E+03    0.57162E-04   -0.27082E-04 36744   0.111E-01    0.382E-02
DAV:  10    -0.437569931116E+03   -0.87966E-05   -0.66836E-05 27600   0.536E-02
   9 F= -.43756993E+03 E0= -.43754762E+03  d E =-.350106E-02  mag=    -0.0634
       N       E                     dE             d eps       ncg     rms          rms(c)
DAV:   1    -0.437566792960E+03    0.31294E-02   -0.29220E-01 45168   0.432E+00    0.216E-01
DAV:   2    -0.437573346267E+03   -0.65533E-02   -0.66078E-02 36768   0.589E-01    0.311E-01
DAV:   3    -0.437573582453E+03   -0.23619E-03   -0.81443E-03 37464   0.380E-01    0.362E-01
DAV:   4    -0.437573275666E+03    0.30679E-03   -0.29560E-03 40080   0.205E-01    0.169E-01
DAV:   5    -0.437573164137E+03    0.11153E-03   -0.52848E-04 36084   0.151E-01    0.763E-02
DAV:   6    -0.437573222457E+03   -0.58321E-04   -0.28813E-04 38808   0.111E-01    0.119E-01
DAV:   7    -0.437573150328E+03    0.72129E-04   -0.29388E-04 37668   0.112E-01    0.394E-02
DAV:   8    -0.437573159079E+03   -0.87511E-05   -0.69123E-05 27204   0.565E-02
  10 F= -.43757316E+03 E0= -.43755093E+03  d E =-.322796E-02  mag=    -0.0719
       N       E                     dE             d eps       ncg     rms          rms(c)
DAV:   1    -0.437573573769E+03   -0.42344E-03   -0.66438E-02 41952   0.154E+00    0.829E-02
DAV:   2    -0.437574510269E+03   -0.93650E-03   -0.94053E-03 36744   0.230E-01    0.107E-01
DAV:   3    -0.437574551265E+03   -0.40996E-04   -0.10462E-03 37008   0.169E-01    0.130E-01
DAV:   4    -0.437574498881E+03    0.52384E-04   -0.31861E-04 33612   0.811E-02    0.649E-02
DAV:   5    -0.437574487352E+03    0.11528E-04   -0.99073E-05 26148   0.441E-02    0.315E-02
DAV:   6    -0.437574493550E+03   -0.61977E-05   -0.48313E-05 24732   0.401E-02
  11 F= -.43757449E+03 E0= -.43755226E+03  d E =-.133447E-02  mag=    -0.0710
       N       E                     dE             d eps       ncg     rms          rms(c)
DAV:   1    -0.437572409117E+03    0.20782E-02   -0.28247E-01 43512   0.345E+00    0.180E-01
DAV:   2    -0.437577063829E+03   -0.46547E-02   -0.45507E-02 36948   0.540E-01    0.328E-01
DAV:   3    -0.437576955756E+03    0.10807E-03   -0.65116E-03 37032   0.377E-01    0.251E-01
DAV:   4    -0.437576905833E+03    0.49923E-04   -0.20957E-03 38820   0.176E-01    0.189E-01
DAV:   5    -0.437576748454E+03    0.15738E-03   -0.62273E-04 35844   0.148E-01    0.617E-02
DAV:   6    -0.437576798453E+03   -0.49999E-04   -0.22724E-04 35628   0.102E-01    0.107E-01
DAV:   7    -0.437576741523E+03    0.56930E-04   -0.25558E-04 37068   0.104E-01    0.388E-02
DAV:   8    -0.437576746510E+03   -0.49874E-05   -0.59162E-05 26088   0.531E-02
  12 F= -.43757675E+03 E0= -.43755458E+03  d E =-.225296E-02  mag=    -0.0794
       N       E                     dE             d eps       ncg     rms          rms(c)
DAV:   1    -0.437557153309E+03    0.19588E-01   -0.68004E-01 47676   0.812E+00    0.392E-01
DAV:   2    -0.437579146356E+03   -0.21993E-01   -0.22088E-01 36336   0.992E-01    0.460E-01
DAV:   3    -0.437580728604E+03   -0.15822E-02   -0.24252E-02 37380   0.636E-01    0.733E-01
DAV:   4    -0.437579146235E+03    0.15824E-02   -0.99221E-03 39816   0.374E-01    0.243E-01
DAV:   5    -0.437579034692E+03    0.11154E-03   -0.13295E-03 41136   0.237E-01    0.152E-01
DAV:   6    -0.437579202619E+03   -0.16793E-03   -0.81178E-04 42312   0.193E-01    0.195E-01
DAV:   7    -0.437579010671E+03    0.19195E-03   -0.76387E-04 42060   0.199E-01    0.807E-02
DAV:   8    -0.437579040701E+03   -0.30030E-04   -0.17439E-04 35772   0.866E-02    0.840E-02
DAV:   9    -0.437579028733E+03    0.11968E-04   -0.82578E-05 29532   0.670E-02    0.695E-02
DAV:  10    -0.437579026070E+03    0.26628E-05   -0.36851E-05 21984   0.330E-02
  13 F= -.43757903E+03 E0= -.43755693E+03  d E =-.227956E-02  mag=    -0.0956
       N       E                     dE             d eps       ncg     rms          rms(c)
DAV:   1    -0.437564104850E+03    0.14924E-01   -0.69455E-01 46128   0.685E+00    0.327E-01
DAV:   2    -0.437580069080E+03   -0.15964E-01   -0.16212E-01 36168   0.876E-01    0.358E-01
DAV:   3    -0.437581327376E+03   -0.12583E-02   -0.16323E-02 38820   0.483E-01    0.660E-01
DAV:   4    -0.437579939155E+03    0.13882E-02   -0.69235E-03 38940   0.317E-01    0.164E-01
DAV:   5    -0.437580014188E+03   -0.75033E-04   -0.81364E-04 41892   0.180E-01    0.152E-01
DAV:   6    -0.437580028285E+03   -0.14098E-04   -0.71307E-04 41844   0.161E-01    0.147E-01
DAV:   7    -0.437579943127E+03    0.85159E-04   -0.52715E-04 41952   0.171E-01    0.915E-02
DAV:   8    -0.437579962496E+03   -0.19370E-04   -0.10650E-04 34788   0.604E-02    0.917E-02
DAV:   9    -0.437579963448E+03   -0.95156E-06   -0.53093E-05 25560   0.497E-02
  14 F= -.43757996E+03 E0= -.43755788E+03  d E =-.937378E-03  mag=    -0.0780
       N       E                     dE             d eps       ncg     rms          rms(c)
DAV:   1    -0.437574480970E+03    0.54815E-02   -0.11816E-01 47760   0.381E+00    0.186E-01
DAV:   2    -0.437579469630E+03   -0.49887E-02   -0.48953E-02 37332   0.499E-01    0.410E-01
DAV:   3    -0.437579171901E+03    0.29773E-03   -0.70042E-03 37404   0.340E-01    0.230E-01
DAV:   4    -0.437579136837E+03    0.35064E-04   -0.15418E-03 38400   0.170E-01    0.147E-01
DAV:   5    -0.437579049427E+03    0.87411E-04   -0.40445E-04 35376   0.123E-01    0.647E-02
DAV:   6    -0.437579090181E+03   -0.40754E-04   -0.16254E-04 35256   0.917E-02    0.982E-02
DAV:   7    -0.437579042986E+03    0.47195E-04   -0.19253E-04 35328   0.100E-01    0.400E-02
DAV:   8    -0.437579049254E+03   -0.62677E-05   -0.74204E-05 26256   0.547E-02
  15 F= -.43757905E+03 E0= -.43755691E+03  d E =0.914194E-03  mag=    -0.0922
       N       E                     dE             d eps       ncg     rms          rms(c)
DAV:   1    -0.437578062806E+03    0.98018E-03   -0.17396E-02 48492   0.148E+00    0.723E-02
DAV:   2    -0.437578789678E+03   -0.72687E-03   -0.71902E-03 36156   0.188E-01    0.134E-01
DAV:   3    -0.437578784490E+03    0.51881E-05   -0.99358E-04 37944   0.131E-01    0.107E-01
DAV:   4    -0.437578765921E+03    0.18569E-04   -0.27532E-04 31404   0.643E-02    0.615E-02
DAV:   5    -0.437578751878E+03    0.14043E-04   -0.59697E-05 24912   0.432E-02    0.249E-02
DAV:   6    -0.437578754253E+03   -0.23754E-05   -0.18562E-05 19464   0.273E-02
  16 F= -.43757875E+03 E0= -.43755661E+03  d E =0.295000E-03  mag=    -0.0893
