       N       E                     dE             d eps       ncg     rms          rms(c)
DAV:   1     0.826195003050E+04    0.82620E+04   -0.23546E+05 34332   0.219E+03
DAV:   2     0.116292821140E+04   -0.70990E+04   -0.66530E+04 33696   0.634E+02
DAV:   3    -0.387356333747E+03   -0.15503E+04   -0.13644E+04 35916   0.273E+02
DAV:   4    -0.544738940335E+03   -0.15738E+03   -0.15464E+03 36840   0.836E+01
DAV:   5    -0.547532598309E+03   -0.27937E+01   -0.27790E+01 36672   0.125E+01    0.105E+02
DAV:   6    -0.552511564830E+03   -0.49790E+01   -0.92480E+02 44676   0.116E+02    0.121E+02
DAV:   7    -0.439602069728E+03    0.11291E+03   -0.33298E+02 36756   0.120E+02    0.359E+01
DAV:   8    -0.442125777843E+03   -0.25237E+01   -0.78124E+01 40968   0.254E+01    0.142E+01
DAV:   9    -0.448462737058E+03   -0.63370E+01   -0.21366E+01 38232   0.272E+01    0.523E+01
DAV:  10    -0.443531844228E+03    0.49309E+01   -0.26634E+01 37668   0.173E+01    0.148E+01
DAV:  11    -0.442680235709E+03    0.85161E+00   -0.96028E+00 36876   0.100E+01    0.773E+00
DAV:  12    -0.442570943226E+03    0.10929E+00   -0.23326E+00 36912   0.652E+00    0.667E+00
DAV:  13    -0.442346159540E+03    0.22478E+00   -0.73025E-01 38520   0.472E+00    0.455E+00
DAV:  14    -0.442290719044E+03    0.55440E-01   -0.33312E-01 42324   0.326E+00    0.355E+00
DAV:  15    -0.442225084420E+03    0.65635E-01   -0.15487E-01 42492   0.253E+00    0.247E+00
DAV:  16    -0.442209866579E+03    0.15218E-01   -0.20093E-01 40848   0.180E+00    0.246E+00
DAV:  17    -0.442192699176E+03    0.17167E-01   -0.11429E-01 38508   0.135E+00    0.174E+00
DAV:  18    -0.442180322465E+03    0.12377E-01   -0.63112E-02 39552   0.143E+00    0.136E+00
DAV:  19    -0.442168871010E+03    0.11451E-01   -0.26425E-02 39120   0.107E+00    0.734E-01
DAV:  20    -0.442168676575E+03    0.19443E-03   -0.19308E-02 36924   0.908E-01    0.624E-01
DAV:  21    -0.442167130263E+03    0.15463E-02   -0.85850E-03 36876   0.596E-01    0.332E-01
DAV:  22    -0.442167287444E+03   -0.15718E-03   -0.32258E-03 36960   0.405E-01    0.298E-01
DAV:  23    -0.442166838274E+03    0.44917E-03   -0.23358E-03 36972   0.376E-01    0.136E-01
DAV:  24    -0.442166861475E+03   -0.23201E-04   -0.82908E-04 37128   0.178E-01    0.105E-01
DAV:  25    -0.442166815274E+03    0.46201E-04   -0.45767E-04 36816   0.154E-01    0.547E-02
DAV:  26    -0.442166817682E+03   -0.24083E-05   -0.93306E-05 34896   0.587E-02
   1 F= -.44216682E+03 E0= -.44215122E+03  d E =-.442167E+03  mag=     0.6763
       N       E                     dE             d eps       ncg     rms          rms(c)
DAV:   1    -0.442167201573E+03   -0.38630E-03   -0.47438E-04 46908   0.237E-01    0.320E-02
DAV:   2    -0.442167292048E+03   -0.90475E-04   -0.50925E-04 45264   0.146E-01    0.105E-01
DAV:   3    -0.442167216144E+03    0.75904E-04   -0.30802E-04 35520   0.118E-01    0.148E-02
DAV:   4    -0.442167218106E+03   -0.19623E-05   -0.27327E-05 21948   0.272E-02
   2 F= -.44216722E+03 E0= -.44215157E+03  d E =-.400424E-03  mag=     0.6680
       N       E                     dE             d eps       ncg     rms          rms(c)
DAV:   1    -0.442152852552E+03    0.14364E-01   -0.62864E-01 49536   0.875E+00    0.451E-01
DAV:   2    -0.442180208428E+03   -0.27356E-01   -0.28120E-01 36216   0.103E+00    0.286E-01
DAV:   3    -0.442181111737E+03   -0.90331E-03   -0.11777E-02 37320   0.526E-01    0.370E-01
DAV:   4    -0.442180452036E+03    0.65970E-03   -0.55850E-03 39516   0.384E-01    0.179E-01
DAV:   5    -0.442180720908E+03   -0.26887E-03   -0.25642E-03 44376   0.264E-01    0.245E-01
DAV:   6    -0.442180448090E+03    0.27282E-03   -0.20387E-03 41208   0.249E-01    0.879E-02
DAV:   7    -0.442180435110E+03    0.12980E-04   -0.39182E-04 39228   0.151E-01    0.623E-02
DAV:   8    -0.442180417902E+03    0.17207E-04   -0.15430E-04 34644   0.915E-02    0.251E-02
DAV:   9    -0.442180414618E+03    0.32845E-05   -0.27854E-05 24384   0.345E-02
   3 F= -.44218041E+03 E0= -.44216466E+03  d E =-.131965E-01  mag=     0.6505
       N       E                     dE             d eps       ncg     rms          rms(c)
DAV:   1    -0.442114586122E+03    0.65832E-01   -0.22548E+00 48108   0.148E+01    0.801E-01
DAV:   2    -0.442197871928E+03   -0.83286E-01   -0.84959E-01 36144   0.185E+00    0.605E-01
DAV:   3    -0.442201701593E+03   -0.38297E-02   -0.55805E-02 36984   0.120E+00    0.799E-01
DAV:   4    -0.442198253169E+03    0.34484E-02   -0.25774E-02 38856   0.755E-01    0.330E-01
DAV:   5    -0.442198726725E+03   -0.47356E-03   -0.74985E-03 44124   0.450E-01    0.390E-01
DAV:   6    -0.442198300951E+03    0.42577E-03   -0.55093E-03 41292   0.382E-01    0.196E-01
DAV:   7    -0.442198199400E+03    0.10155E-03   -0.16485E-03 39204   0.323E-01    0.128E-01
DAV:   8    -0.442198119543E+03    0.79857E-04   -0.55687E-04 38100   0.175E-01    0.461E-02
DAV:   9    -0.442198112454E+03    0.70894E-05   -0.11875E-04 36768   0.702E-02    0.298E-02
DAV:  10    -0.442198111828E+03    0.62570E-06   -0.53980E-05 26520   0.596E-02
   4 F= -.44219811E+03 E0= -.44218224E+03  d E =-.176972E-01  mag=     0.6287
       N       E                     dE             d eps       ncg     rms          rms(c)
DAV:   1    -0.442184116620E+03    0.13996E-01   -0.13935E+00 44388   0.840E+00    0.467E-01
DAV:   2    -0.442213281621E+03   -0.29165E-01   -0.29478E-01 36852   0.125E+00    0.505E-01
DAV:   3    -0.442214013254E+03   -0.73163E-03   -0.33207E-02 36936   0.912E-01    0.492E-01
DAV:   4    -0.442212900420E+03    0.11128E-02   -0.11497E-02 39216   0.449E-01    0.240E-01
DAV:   5    -0.442212794954E+03    0.10547E-03   -0.25099E-03 41832   0.286E-01    0.191E-01
DAV:   6    -0.442212824565E+03   -0.29611E-04   -0.15358E-03 41088   0.224E-01    0.156E-01
DAV:   7    -0.442212708935E+03    0.11563E-03   -0.89963E-04 39348   0.245E-01    0.748E-02
DAV:   8    -0.442212680822E+03    0.28113E-04   -0.19602E-04 38064   0.997E-02    0.292E-02
DAV:   9    -0.442212680062E+03    0.76040E-06   -0.70776E-05 35148   0.595E-02
   5 F= -.44221268E+03 E0= -.44219678E+03  d E =-.145682E-01  mag=     0.6148
       N       E                     dE             d eps       ncg     rms          rms(c)
DAV:   1    -0.442192928269E+03    0.19753E-01   -0.37124E+00 40320   0.107E+01    0.602E-01
DAV:   2    -0.442239415289E+03   -0.46487E-01   -0.47355E-01 37188   0.191E+00    0.881E-01
DAV:   3    -0.442238107794E+03    0.13075E-02   -0.81767E-02 36840   0.133E+00    0.609E-01
DAV:   4    -0.442236838640E+03    0.12692E-02   -0.22944E-02 38004   0.600E-01    0.360E-01
DAV:   5    -0.442236201546E+03    0.63709E-03   -0.48321E-03 39336   0.440E-01    0.197E-01
DAV:   6    -0.442236263249E+03   -0.61703E-04   -0.19832E-03 40608   0.285E-01    0.205E-01
DAV:   7    -0.442236049444E+03    0.21381E-03   -0.17238E-03 41616   0.328E-01    0.961E-02
DAV:   8    -0.442236004633E+03    0.44810E-04   -0.34442E-04 40296   0.126E-01    0.401E-02
DAV:   9    -0.442236008959E+03   -0.43260E-05   -0.16881E-04 37008   0.882E-02    0.391E-02
DAV:  10    -0.442235998727E+03    0.10232E-04   -0.56344E-05 28080   0.527E-02    0.148E-02
DAV:  11    -0.442235999556E+03   -0.82888E-06   -0.22625E-05 18804   0.323E-02
   6 F= -.44223600E+03 E0= -.44222005E+03  d E =-.233195E-01  mag=     0.5911
       N       E                     dE             d eps       ncg     rms          rms(c)
DAV:   1    -0.442150238186E+03    0.85761E-01   -0.43109E+00 45252   0.175E+01    0.887E-01
DAV:   2    -0.442256068848E+03   -0.10583E+00   -0.10816E+00 37176   0.253E+00    0.992E-01
DAV:   3    -0.442259255227E+03   -0.31864E-02   -0.13789E-01 37200   0.178E+00    0.101E+00
DAV:   4    -0.442254342197E+03    0.49130E-02   -0.50406E-02 38244   0.881E-01    0.447E-01
DAV:   5    -0.442253808937E+03    0.53326E-03   -0.91142E-03 41160   0.549E-01    0.332E-01
DAV:   6    -0.442253812153E+03   -0.32162E-05   -0.46784E-03 40608   0.394E-01    0.261E-01
DAV:   7    -0.442253522808E+03    0.28934E-03   -0.31367E-03 41868   0.430E-01    0.139E-01
DAV:   8    -0.442253425204E+03    0.97604E-04   -0.66615E-04 39492   0.180E-01    0.572E-02
DAV:   9    -0.442253434451E+03   -0.92470E-05   -0.32868E-04 42480   0.128E-01    0.544E-02
DAV:  10    -0.442253413723E+03    0.20728E-04   -0.11232E-04 35112   0.779E-02    0.205E-02
DAV:  11    -0.442253414402E+03   -0.67936E-06   -0.31820E-05 22668   0.409E-02
   7 F= -.44225341E+03 E0= -.44223749E+03  d E =-.174148E-01  mag=     0.5662
       N       E                     dE             d eps       ncg     rms          rms(c)
DAV:   1    -0.442243959774E+03    0.94539E-02   -0.85513E-01 45240   0.733E+00    0.365E-01
DAV:   2    -0.442262398467E+03   -0.18439E-01   -0.18703E-01 37080   0.107E+00    0.385E-01
DAV:   3    -0.442262921802E+03   -0.52334E-03   -0.19135E-02 36948   0.773E-01    0.394E-01
DAV:   4    -0.442262108129E+03    0.81367E-03   -0.72576E-03 38208   0.382E-01    0.182E-01
DAV:   5    -0.442262031773E+03    0.76356E-04   -0.18272E-03 43800   0.213E-01    0.138E-01
DAV:   6    -0.442262026502E+03    0.52716E-05   -0.88553E-04 40524   0.165E-01    0.109E-01
DAV:   7    -0.442261968096E+03    0.58406E-04   -0.51087E-04 41436   0.177E-01    0.520E-02
DAV:   8    -0.442261955170E+03    0.12926E-04   -0.99465E-05 35460   0.671E-02    0.209E-02
DAV:   9    -0.442261956439E+03   -0.12689E-05   -0.38848E-05 24864   0.464E-02
   8 F= -.44226196E+03 E0= -.44224600E+03  d E =-.854204E-02  mag=     0.5630
       N       E                     dE             d eps       ncg     rms          rms(c)
DAV:   1    -0.442262248293E+03   -0.29312E-03   -0.30894E-01 44988   0.432E+00    0.216E-01
DAV:   2    -0.442268722432E+03   -0.64741E-02   -0.65447E-02 36588   0.619E-01    0.210E-01
DAV:   3    -0.442268965489E+03   -0.24306E-03   -0.55961E-03 37224   0.471E-01    0.220E-01
DAV:   4    -0.442268668692E+03    0.29680E-03   -0.17036E-03 38280   0.247E-01    0.905E-02
DAV:   5    -0.442268685671E+03   -0.16979E-04   -0.72636E-04 39876   0.115E-01    0.959E-02
DAV:   6    -0.442268671901E+03    0.13770E-04   -0.44223E-04 40164   0.102E-01    0.632E-02
DAV:   7    -0.442268652346E+03    0.19555E-04   -0.18276E-04 36708   0.102E-01    0.288E-02
DAV:   8    -0.442268648991E+03    0.33553E-05   -0.32839E-05 24420   0.388E-02
   9 F= -.44226865E+03 E0= -.44225269E+03  d E =-.669255E-02  mag=     0.5611
       N       E                     dE             d eps       ncg     rms          rms(c)
DAV:   1    -0.442204859883E+03    0.63792E-01   -0.41603E+00 45288   0.161E+01    0.802E-01
DAV:   2    -0.442293284492E+03   -0.88425E-01   -0.88968E-01 36792   0.234E+00    0.829E-01
DAV:   3    -0.442295730484E+03   -0.24460E-02   -0.77315E-02 36936   0.163E+00    0.833E-01
DAV:   4    -0.442291921089E+03    0.38094E-02   -0.28866E-02 38100   0.810E-01    0.361E-01
DAV:   5    -0.442291871541E+03    0.49548E-04   -0.96315E-03 42276   0.413E-01    0.321E-01
DAV:   6    -0.442291817122E+03    0.54420E-04   -0.47582E-03 41016   0.370E-01    0.238E-01
DAV:   7    -0.442291530827E+03    0.28629E-03   -0.25320E-03 40896   0.368E-01    0.109E-01
DAV:   8    -0.442291486745E+03    0.44082E-04   -0.49510E-04 40380   0.137E-01    0.518E-02
DAV:   9    -0.442291496550E+03   -0.98044E-05   -0.24420E-04 41928   0.120E-01    0.513E-02
DAV:  10    -0.442291477302E+03    0.19248E-04   -0.78787E-05 29616   0.720E-02    0.167E-02
DAV:  11    -0.442291478907E+03   -0.16050E-05   -0.28795E-05 19740   0.361E-02
  10 F= -.44229148E+03 E0= -.44227552E+03  d E =-.228299E-01  mag=     0.5497
       N       E                     dE             d eps       ncg     rms          rms(c)
DAV:   1    -0.442181066812E+03    0.11041E+00   -0.56333E+00 46200   0.199E+01    0.975E-01
DAV:   2    -0.442312511946E+03   -0.13145E+00   -0.13265E+00 36576   0.275E+00    0.827E-01
DAV:   3    -0.442318557598E+03   -0.60457E-02   -0.88406E-02 36888   0.185E+00    0.993E-01
DAV:   4    -0.442312272070E+03    0.62855E-02   -0.28150E-02 39516   0.101E+00    0.342E-01
DAV:   5    -0.442313275318E+03   -0.10032E-02   -0.10854E-02 43176   0.554E-01    0.476E-01
DAV:   6    -0.442312431442E+03    0.84388E-03   -0.11743E-02 42612   0.480E-01    0.271E-01
DAV:   7    -0.442312185015E+03    0.24643E-03   -0.53678E-03 41436   0.383E-01    0.164E-01
DAV:   8    -0.442312105686E+03    0.79330E-04   -0.13381E-03 40308   0.184E-01    0.806E-02
DAV:   9    -0.442312088863E+03    0.16823E-04   -0.40680E-04 41808   0.152E-01    0.549E-02
DAV:  10    -0.442312071304E+03    0.17559E-04   -0.11502E-04 33924   0.778E-02    0.241E-02
DAV:  11    -0.442312070914E+03    0.38995E-06   -0.38993E-05 25452   0.451E-02
  11 F= -.44231207E+03 E0= -.44229612E+03  d E =-.205920E-01  mag=     0.5456
       N       E                     dE             d eps       ncg     rms          rms(c)
DAV:   1    -0.442294173128E+03    0.17898E-01   -0.55584E-01 47244   0.709E+00    0.344E-01
DAV:   2    -0.442310451307E+03   -0.16278E-01   -0.16518E-01 36744   0.953E-01    0.302E-01
DAV:   3    -0.442311217963E+03   -0.76666E-03   -0.12621E-02 36936   0.738E-01    0.355E-01
DAV:   4    -0.442310383067E+03    0.83490E-03   -0.35825E-03 38796   0.386E-01    0.129E-01
DAV:   5    -0.442310481706E+03   -0.98640E-04   -0.17381E-03 44640   0.192E-01    0.168E-01
DAV:   6    -0.442310409030E+03    0.72676E-04   -0.15718E-03 41052   0.164E-01    0.106E-01
DAV:   7    -0.442310354238E+03    0.54792E-04   -0.54650E-04 40104   0.154E-01    0.462E-02
DAV:   8    -0.442310347257E+03    0.69813E-05   -0.10090E-04 32640   0.617E-02    0.242E-02
DAV:   9    -0.442310346175E+03    0.10819E-05   -0.39375E-05 24132   0.466E-02
  12 F= -.44231035E+03 E0= -.44229441E+03  d E =0.172474E-02  mag=     0.5457
       N       E                     dE             d eps       ncg     rms          rms(c)
DAV:   1    -0.442309206427E+03    0.11408E-02   -0.51557E-02 45900   0.193E+00    0.936E-02
DAV:   2    -0.442310449093E+03   -0.12427E-02   -0.12661E-02 36564   0.261E-01    0.804E-02
DAV:   3    -0.442310508411E+03   -0.59317E-04   -0.96811E-04 36948   0.199E-01    0.989E-02
DAV:   4    -0.442310448489E+03    0.59922E-04   -0.35057E-04 34248   0.107E-01    0.400E-02
DAV:   5    -0.442310450644E+03   -0.21549E-05   -0.12560E-04 31416   0.511E-02    0.405E-02
DAV:   6    -0.442310447208E+03    0.34361E-05   -0.77624E-05 26052   0.426E-02
  13 F= -.44231045E+03 E0= -.44229450E+03  d E =-.101033E-03  mag=     0.5468
       N       E                     dE             d eps       ncg     rms          rms(c)
DAV:   1    -0.442307923574E+03    0.25271E-02   -0.26742E-01 45096   0.377E+00    0.183E-01
DAV:   2    -0.442312789380E+03   -0.48658E-02   -0.49288E-02 36264   0.502E-01    0.114E-01
DAV:   3    -0.442312948547E+03   -0.15917E-03   -0.17328E-03 37356   0.273E-01    0.147E-01
DAV:   4    -0.442312817351E+03    0.13120E-03   -0.61613E-04 38316   0.190E-01    0.624E-02
DAV:   5    -0.442312858311E+03   -0.40959E-04   -0.26475E-04 36564   0.121E-01    0.849E-02
DAV:   6    -0.442312811354E+03    0.46957E-04   -0.24474E-04 37008   0.115E-01    0.235E-02
DAV:   7    -0.442312813877E+03   -0.25233E-05   -0.64214E-05 29460   0.426E-02
  14 F= -.44231281E+03 E0= -.44229686E+03  d E =-.236667E-02  mag=     0.5473
       N       E                     dE             d eps       ncg     rms          rms(c)
DAV:   1    -0.442215754739E+03    0.97057E-01   -0.45739E+00 46344   0.175E+01    0.844E-01
DAV:   2    -0.442318484920E+03   -0.10273E+00   -0.10389E+00 36468   0.223E+00    0.490E-01
DAV:   3    -0.442321502841E+03   -0.30179E-02   -0.33349E-02 38604   0.103E+00    0.640E-01
DAV:   4    -0.442319378703E+03    0.21241E-02   -0.15338E-02 39540   0.716E-01    0.300E-01
DAV:   5    -0.442320519063E+03   -0.11404E-02   -0.11193E-02 43896   0.502E-01    0.483E-01
DAV:   6    -0.442319294409E+03    0.12247E-02   -0.93846E-03 42312   0.463E-01    0.137E-01
DAV:   7    -0.442319305869E+03   -0.11461E-04   -0.14536E-03 42228   0.252E-01    0.112E-01
DAV:   8    -0.442319247443E+03    0.58426E-04   -0.56042E-04 39420   0.164E-01    0.441E-02
DAV:   9    -0.442319248122E+03   -0.67813E-06   -0.14835E-04 37632   0.762E-02    0.371E-02
DAV:  10    -0.442319242832E+03    0.52901E-05   -0.64939E-05 26460   0.614E-02
  15 F= -.44231924E+03 E0= -.44230325E+03  d E =-.642895E-02  mag=     0.5476
       N       E                     dE             d eps       ncg     rms          rms(c)
DAV:   1    -0.442084996467E+03    0.23425E+00   -0.81123E+00 47616   0.273E+01    0.129E+00
DAV:   2    -0.442318351286E+03   -0.23335E+00   -0.23658E+00 36192   0.332E+00    0.703E-01
DAV:   3    -0.442323437695E+03   -0.50864E-02   -0.55728E-02 39504   0.123E+00    0.774E-01
DAV:   4    -0.442321076080E+03    0.23616E-02   -0.20691E-02 38496   0.910E-01    0.456E-01
DAV:   5    -0.442322646843E+03   -0.15708E-02   -0.13367E-02 42564   0.672E-01    0.552E-01
DAV:   6    -0.442320945154E+03    0.17017E-02   -0.15357E-02 42684   0.583E-01    0.211E-01
DAV:   7    -0.442320936532E+03    0.86221E-05   -0.44052E-03 41928   0.304E-01    0.176E-01
DAV:   8    -0.442320797039E+03    0.13949E-03   -0.16114E-03 41016   0.231E-01    0.678E-02
DAV:   9    -0.442320780788E+03    0.16252E-04   -0.25764E-04 37872   0.996E-02    0.433E-02
DAV:  10    -0.442320776319E+03    0.44690E-05   -0.11325E-04 29184   0.822E-02    0.349E-02
DAV:  11    -0.442320766900E+03    0.94190E-05   -0.39967E-05 25356   0.493E-02
  16 F= -.44232077E+03 E0= -.44230477E+03  d E =-.152407E-02  mag=     0.5524
       N       E                     dE             d eps       ncg     rms          rms(c)
DAV:   1    -0.442265278388E+03    0.55498E-01   -0.12471E+00 50448   0.136E+01    0.641E-01
DAV:   2    -0.442320573534E+03   -0.55295E-01   -0.56599E-01 36276   0.158E+00    0.422E-01
DAV:   3    -0.442323731575E+03   -0.31580E-02   -0.39538E-02 38484   0.913E-01    0.695E-01
DAV:   4    -0.442321189944E+03    0.25416E-02   -0.19562E-02 39576   0.619E-01    0.239E-01
DAV:   5    -0.442321627387E+03   -0.43744E-03   -0.41609E-03 42840   0.386E-01    0.304E-01
DAV:   6    -0.442321275689E+03    0.35170E-03   -0.30147E-03 41148   0.302E-01    0.132E-01
DAV:   7    -0.442321229148E+03    0.46540E-04   -0.96674E-04 42432   0.220E-01    0.816E-02
DAV:   8    -0.442321206088E+03    0.23060E-04   -0.27879E-04 36180   0.113E-01    0.371E-02
DAV:   9    -0.442321204970E+03    0.11180E-05   -0.84896E-05 28800   0.673E-02
  17 F= -.44232120E+03 E0= -.44230516E+03  d E =-.438071E-03  mag=     0.5456
       N       E                     dE             d eps       ncg     rms          rms(c)
DAV:   1    -0.442314330002E+03    0.68761E-02   -0.15391E-01 50520   0.501E+00    0.238E-01
DAV:   2    -0.442322183592E+03   -0.78536E-02   -0.80728E-02 36168   0.580E-01    0.144E-01
DAV:   3    -0.442322453309E+03   -0.26972E-03   -0.32882E-03 37548   0.296E-01    0.200E-01
DAV:   4    -0.442322256956E+03    0.19635E-03   -0.16078E-03 38508   0.211E-01    0.909E-02
DAV:   5    -0.442322327995E+03   -0.71039E-04   -0.75529E-04 38964   0.140E-01    0.127E-01
DAV:   6    -0.442322245999E+03    0.81996E-04   -0.58295E-04 40380   0.128E-01    0.413E-02
DAV:   7    -0.442322245283E+03    0.71619E-06   -0.12367E-04 35436   0.824E-02    0.324E-02
DAV:   8    -0.442322240288E+03    0.49951E-05   -0.38379E-05 25020   0.458E-02
  18 F= -.44232224E+03 E0= -.44230623E+03  d E =-.103532E-02  mag=     0.5469
