       N       E                     dE             d eps       ncg     rms          rms(c)
DAV:   1     0.309985341348E+04    0.30999E+04   -0.25769E+05 11544   0.130E+03
DAV:   2    -0.598625338459E+03   -0.36985E+04   -0.35627E+04 14076   0.297E+02
DAV:   3    -0.865472823583E+03   -0.26685E+03   -0.26512E+03 13968   0.845E+01
DAV:   4    -0.868899388640E+03   -0.34266E+01   -0.34134E+01 14052   0.103E+01
DAV:   5    -0.868960476345E+03   -0.61088E-01   -0.60940E-01 14280   0.127E+00    0.987E+01
DAV:   6    -0.770748212483E+03    0.98212E+02   -0.41196E+02 12960   0.321E+01    0.503E+01
DAV:   7    -0.780114858950E+03   -0.93666E+01   -0.22270E+01 13092   0.781E+00    0.163E+01
DAV:   8    -0.784997643058E+03   -0.48828E+01   -0.23947E+00 13620   0.274E+00    0.785E+00
DAV:   9    -0.787599862764E+03   -0.26022E+01   -0.16552E+00 14052   0.194E+00    0.380E+00
DAV:  10    -0.788106534296E+03   -0.50667E+00   -0.32299E-01 13248   0.985E-01    0.116E+00
DAV:  11    -0.788178179100E+03   -0.71645E-01   -0.41813E-02 14004   0.372E-01    0.623E-01
DAV:  12    -0.788189149020E+03   -0.10970E-01   -0.65454E-03 13368   0.160E-01    0.287E-01
DAV:  13    -0.788191208856E+03   -0.20598E-02   -0.12777E-03 14016   0.778E-02    0.104E-01
DAV:  14    -0.788191579420E+03   -0.37056E-03   -0.45318E-04 13356   0.512E-02    0.448E-02
DAV:  15    -0.788191575174E+03    0.42462E-05   -0.10835E-04 14700   0.300E-02    0.323E-02
DAV:  16    -0.788191554340E+03    0.20833E-04   -0.27849E-05 11868   0.213E-02    0.128E-02
DAV:  17    -0.788191539172E+03    0.15169E-04   -0.20352E-05 11376   0.178E-02    0.771E-03
DAV:  18    -0.788191533630E+03    0.55416E-05   -0.16949E-05 10884   0.141E-02
   1 F= -.78819153E+03 E0= -.78819153E+03  d E =-.788192E+03  mag=    -0.0013
       N       E                     dE             d eps       ncg     rms          rms(c)
DAV:   1    -0.788191436036E+03    0.10314E-03   -0.13253E-03 12336   0.659E-02    0.161E-02
DAV:   2    -0.788191438705E+03   -0.26686E-05   -0.34489E-05 11832   0.101E-02    0.608E-03
DAV:   3    -0.788191438208E+03    0.49699E-06   -0.11656E-06  7152   0.233E-03    0.318E-03
DAV:   4    -0.788191437993E+03    0.21466E-06   -0.65683E-07  6876   0.216E-03
   2 F= -.78819144E+03 E0= -.78819144E+03  d E =0.956367E-04  mag=    -0.0001
       N       E                     dE             d eps       ncg     rms          rms(c)
DAV:   1    -0.788189781218E+03    0.16570E-02   -0.57497E-02 11904   0.435E-01    0.522E-02
DAV:   2    -0.788189895956E+03   -0.11474E-03   -0.12570E-03 13512   0.597E-02    0.233E-02
DAV:   3    -0.788189888678E+03    0.72775E-05   -0.13791E-05 10752   0.864E-03    0.139E-02
DAV:   4    -0.788189885966E+03    0.27117E-05   -0.15053E-05  9024   0.907E-03
   3 F= -.78818989E+03 E0= -.78818989E+03  d E =0.155203E-02  mag=    -0.0000
       N       E                     dE             d eps       ncg     rms          rms(c)
DAV:   1    -0.787927778423E+03    0.26211E+00   -0.25519E+01 11520   0.866E+00    0.262E+00
DAV:   2    -0.787984698145E+03   -0.56920E-01   -0.73355E-01 13932   0.134E+00    0.869E-01
DAV:   3    -0.787972125727E+03    0.12572E-01   -0.16660E-02 14160   0.295E-01    0.426E-01
DAV:   4    -0.787968015593E+03    0.41101E-02   -0.11837E-02 14016   0.250E-01    0.132E-01
DAV:   5    -0.787967918641E+03    0.96952E-04   -0.31723E-03 14256   0.117E-01    0.109E-01
DAV:   6    -0.787967787495E+03    0.13115E-03   -0.37608E-04 14124   0.395E-02    0.540E-02
DAV:   7    -0.787967692024E+03    0.95471E-04   -0.76807E-05 13944   0.296E-02    0.225E-02
DAV:   8    -0.787967656139E+03    0.35884E-04   -0.77871E-05 14160   0.299E-02    0.125E-02
DAV:   9    -0.787967654659E+03    0.14801E-05   -0.40792E-05 13752   0.144E-02
   4 F= -.78796765E+03 E0= -.78796765E+03  d E =0.222231E+00  mag=     0.0000
       N       E                     dE             d eps       ncg     rms          rms(c)
DAV:   1    -0.787972643714E+03   -0.49876E-02   -0.30197E+01 11664   0.838E+00    0.494E+00
DAV:   2    -0.788041261811E+03   -0.68618E-01   -0.11098E+00 14148   0.155E+00    0.147E+00
DAV:   3    -0.788009803836E+03    0.31458E-01   -0.29258E-02 14196   0.375E-01    0.729E-01
DAV:   4    -0.787997926706E+03    0.11877E-01   -0.23193E-02 13848   0.380E-01    0.206E-01
DAV:   5    -0.787997645282E+03    0.28142E-03   -0.91945E-03 14556   0.209E-01    0.159E-01
DAV:   6    -0.787997444438E+03    0.20084E-03   -0.94691E-04 14232   0.587E-02    0.102E-01
DAV:   7    -0.787997254988E+03    0.18945E-03   -0.35781E-04 14016   0.371E-02    0.517E-02
DAV:   8    -0.787997136140E+03    0.11885E-03   -0.19664E-04 14328   0.514E-02    0.272E-02
DAV:   9    -0.787997126181E+03    0.99584E-05   -0.10914E-04 14112   0.256E-02    0.242E-02
DAV:  10    -0.787997123554E+03    0.26278E-05   -0.40272E-05 12480   0.124E-02
   5 F= -.78799712E+03 E0= -.78799712E+03  d E =-.294689E-01  mag=    -0.0000
       N       E                     dE             d eps       ncg     rms          rms(c)
DAV:   1    -0.788103703173E+03   -0.10658E+00   -0.67968E+00 12264   0.401E+00    0.206E+00
DAV:   2    -0.788121549131E+03   -0.17846E-01   -0.26929E-01 14196   0.737E-01    0.839E-01
DAV:   3    -0.788113332577E+03    0.82166E-02   -0.87220E-03 14112   0.194E-01    0.367E-01
DAV:   4    -0.788110975462E+03    0.23571E-02   -0.53128E-03 13872   0.174E-01    0.105E-01
DAV:   5    -0.788110923993E+03    0.51469E-04   -0.19592E-03 14544   0.919E-02    0.762E-02
DAV:   6    -0.788110863499E+03    0.60495E-04   -0.17680E-04 14232   0.265E-02    0.423E-02
DAV:   7    -0.788110811867E+03    0.51632E-04   -0.98500E-05 13740   0.212E-02    0.172E-02
DAV:   8    -0.788110793327E+03    0.18539E-04   -0.30845E-05 12480   0.222E-02    0.134E-02
DAV:   9    -0.788110792262E+03    0.10654E-05   -0.27826E-05 12276   0.119E-02
   6 F= -.78811079E+03 E0= -.78811079E+03  d E =-.113669E+00  mag=     0.0000
       N       E                     dE             d eps       ncg     rms          rms(c)
DAV:   1    -0.788110864346E+03   -0.71019E-04   -0.21323E-02 11856   0.235E-01    0.106E-01
DAV:   2    -0.788110910736E+03   -0.46390E-04   -0.64246E-04 14328   0.376E-02    0.290E-02
DAV:   3    -0.788110899758E+03    0.10978E-04   -0.22707E-05 12456   0.105E-02    0.139E-02
DAV:   4    -0.788110897818E+03    0.19393E-05   -0.10989E-05  9864   0.699E-03
   7 F= -.78811090E+03 E0= -.78811090E+03  d E =-.105557E-03  mag=    -0.0000
       N       E                     dE             d eps       ncg     rms          rms(c)
DAV:   1    -0.788109274423E+03    0.16253E-02   -0.14763E-01 11664   0.647E-01    0.241E-01
DAV:   2    -0.788109552140E+03   -0.27772E-03   -0.39303E-03 14388   0.995E-02    0.620E-02
DAV:   3    -0.788109489742E+03    0.62398E-04   -0.14956E-04 14484   0.271E-02    0.312E-02
DAV:   4    -0.788109480119E+03    0.96228E-05   -0.66818E-05 13704   0.156E-02
   8 F= -.78810948E+03 E0= -.78810948E+03  d E =0.141770E-02  mag=    -0.0000
       N       E                     dE             d eps       ncg     rms          rms(c)
DAV:   1    -0.788107174138E+03    0.23156E-02   -0.69745E-02 11832   0.454E-01    0.127E-01
DAV:   2    -0.788107301799E+03   -0.12766E-03   -0.16357E-03 14208   0.655E-02    0.361E-02
DAV:   3    -0.788107281476E+03    0.20323E-04   -0.47443E-05 13524   0.157E-02    0.185E-02
DAV:   4    -0.788107278447E+03    0.30298E-05   -0.26207E-05 11880   0.101E-02
   9 F= -.78810728E+03 E0= -.78810728E+03  d E =0.220167E-02  mag=     0.0000
       N       E                     dE             d eps       ncg     rms          rms(c)
DAV:   1    -0.788095528063E+03    0.11753E-01   -0.87228E-01 11520   0.161E+00    0.200E-01
DAV:   2    -0.788097131556E+03   -0.16035E-02   -0.18749E-02 13560   0.218E-01    0.898E-02
DAV:   3    -0.788096979859E+03    0.15170E-03   -0.25363E-04 14280   0.350E-02    0.535E-02
DAV:   4    -0.788096914002E+03    0.65857E-04   -0.25179E-04 13704   0.344E-02    0.167E-02
DAV:   5    -0.788096915561E+03   -0.15590E-05   -0.51788E-05 13320   0.139E-02
  10 F= -.78809692E+03 E0= -.78809692E+03  d E =0.103629E-01  mag=     0.0000
       N       E                     dE             d eps       ncg     rms          rms(c)
DAV:   1    -0.788077909141E+03    0.19005E-01   -0.18685E+00 11520   0.240E+00    0.476E-01
DAV:   2    -0.788081857105E+03   -0.39480E-02   -0.45879E-02 13824   0.347E-01    0.181E-01
DAV:   3    -0.788081394937E+03    0.46217E-03   -0.10020E-03 14184   0.707E-02    0.908E-02
DAV:   4    -0.788081262042E+03    0.13289E-03   -0.46469E-04 14100   0.464E-02    0.346E-02
DAV:   5    -0.788081255261E+03    0.67815E-05   -0.95421E-05 14220   0.244E-02
  11 F= -.78808126E+03 E0= -.78808126E+03  d E =0.156603E-01  mag=     0.0000
       N       E                     dE             d eps       ncg     rms          rms(c)
DAV:   1    -0.788094347957E+03   -0.13086E-01   -0.88839E-01 11520   0.164E+00    0.425E-01
DAV:   2    -0.788096421884E+03   -0.20739E-02   -0.24620E-02 13848   0.251E-01    0.158E-01
DAV:   3    -0.788096083547E+03    0.33834E-03   -0.56970E-04 14148   0.544E-02    0.719E-02
DAV:   4    -0.788095997454E+03    0.86093E-04   -0.28632E-04 13956   0.358E-02    0.248E-02
DAV:   5    -0.788095995053E+03    0.24011E-05   -0.66205E-05 14292   0.192E-02
  12 F= -.78809600E+03 E0= -.78809600E+03  d E =-.147398E-01  mag=    -0.0000
       N       E                     dE             d eps       ncg     rms          rms(c)
DAV:   1    -0.788099099308E+03   -0.31019E-02   -0.11842E-01 11568   0.599E-01    0.200E-01
DAV:   2    -0.788099330964E+03   -0.23166E-03   -0.32671E-03 14472   0.944E-02    0.588E-02
DAV:   3    -0.788099275315E+03    0.55650E-04   -0.11590E-04 14388   0.248E-02    0.297E-02
DAV:   4    -0.788099264995E+03    0.10320E-04   -0.55166E-05 13752   0.156E-02    0.139E-02
DAV:   5    -0.788099264551E+03    0.44396E-06   -0.10499E-05  8880   0.829E-03
  13 F= -.78809926E+03 E0= -.78809926E+03  d E =-.326950E-02  mag=    -0.0000
       N       E                     dE             d eps       ncg     rms          rms(c)
DAV:   1    -0.788100514696E+03   -0.12497E-02   -0.17532E-02 11784   0.222E-01    0.737E-02
DAV:   2    -0.788100551694E+03   -0.36999E-04   -0.47649E-04 14160   0.336E-02    0.228E-02
DAV:   3    -0.788100544608E+03    0.70860E-05   -0.11480E-05 10656   0.739E-03    0.111E-02
DAV:   4    -0.788100543141E+03    0.14669E-05   -0.79371E-06  8796   0.577E-03
  14 F= -.78810054E+03 E0= -.78810054E+03  d E =-.127859E-02  mag=    -0.0000
       N       E                     dE             d eps       ncg     rms          rms(c)
DAV:   1    -0.788105858054E+03   -0.53134E-02   -0.30509E-01 11520   0.949E-01    0.159E-01
DAV:   2    -0.788106412134E+03   -0.55408E-03   -0.67068E-03 13896   0.131E-01    0.618E-02
DAV:   3    -0.788106348590E+03    0.63544E-04   -0.11338E-04 14328   0.227E-02    0.349E-02
DAV:   4    -0.788106321744E+03    0.26846E-04   -0.10387E-04 13680   0.228E-02    0.111E-02
DAV:   5    -0.788106321378E+03    0.36616E-06   -0.21772E-05 10692   0.998E-03
  15 F= -.78810632E+03 E0= -.78810632E+03  d E =-.577824E-02  mag=    -0.0000
       N       E                     dE             d eps       ncg     rms          rms(c)
DAV:   1    -0.788084294663E+03    0.22027E-01   -0.26707E+00 11520   0.234E+00    0.113E+00
DAV:   2    -0.788090961408E+03   -0.66667E-02   -0.91993E-02 14064   0.385E-01    0.411E-01
DAV:   3    -0.788088816364E+03    0.21450E-02   -0.26328E-03 14112   0.961E-02    0.169E-01
DAV:   4    -0.788088308388E+03    0.50798E-03   -0.14434E-03 13944   0.766E-02    0.540E-02
DAV:   5    -0.788088300411E+03    0.79773E-05   -0.40237E-04 14376   0.378E-02    0.389E-02
DAV:   6    -0.788088286319E+03    0.14092E-04   -0.31541E-05 11376   0.107E-02    0.206E-02
DAV:   7    -0.788088273572E+03    0.12747E-04   -0.19902E-05 11820   0.126E-02    0.619E-03
DAV:   8    -0.788088271287E+03    0.22854E-05   -0.84192E-06 10488   0.967E-03
  16 F= -.78808827E+03 E0= -.78808827E+03  d E =0.180501E-01  mag=     0.0000
       N       E                     dE             d eps       ncg     rms          rms(c)
DAV:   1    -0.788109952149E+03   -0.21679E-01   -0.18040E+00 11520   0.173E+00    0.112E+00
DAV:   2    -0.788114203635E+03   -0.42515E-02   -0.63772E-02 14064   0.300E-01    0.350E-01
DAV:   3    -0.788112540864E+03    0.16628E-02   -0.17166E-03 14112   0.768E-02    0.151E-01
DAV:   4    -0.788112065355E+03    0.47551E-03   -0.11132E-03 13872   0.697E-02    0.445E-02
DAV:   5    -0.788112059441E+03    0.59133E-05   -0.35747E-04 14364   0.352E-02    0.333E-02
DAV:   6    -0.788112048086E+03    0.11356E-04   -0.23797E-05 11208   0.920E-03    0.193E-02
DAV:   7    -0.788112038527E+03    0.95589E-05   -0.16896E-05 11340   0.994E-03
  17 F= -.78811204E+03 E0= -.78811204E+03  d E =-.237672E-01  mag=    -0.0000
       N       E                     dE             d eps       ncg     rms          rms(c)
DAV:   1    -0.788109503728E+03    0.25444E-02   -0.73041E-02 11604   0.474E-01    0.139E-01
DAV:   2    -0.788109658034E+03   -0.15431E-03   -0.20464E-03 14160   0.753E-02    0.473E-02
DAV:   3    -0.788109623815E+03    0.34218E-04   -0.60709E-05 14064   0.185E-02    0.231E-02
DAV:   4    -0.788109614559E+03    0.92568E-05   -0.32247E-05 12288   0.134E-02
  18 F= -.78810961E+03 E0= -.78810961E+03  d E =0.242397E-02  mag=     0.0000
       N       E                     dE             d eps       ncg     rms          rms(c)
DAV:   1    -0.788109798397E+03   -0.17458E-03   -0.41799E-03 11808   0.113E-01    0.312E-02
DAV:   2    -0.788109808259E+03   -0.98625E-05   -0.11514E-04 14052   0.173E-02    0.109E-02
DAV:   3    -0.788109806811E+03    0.14484E-05   -0.21766E-06  7260   0.346E-03    0.564E-03
DAV:   4    -0.788109806418E+03    0.39281E-06   -0.19951E-06  6696   0.300E-03
  19 F= -.78810981E+03 E0= -.78810981E+03  d E =-.191859E-03  mag=    -0.0000
       N       E                     dE             d eps       ncg     rms          rms(c)
DAV:   1    -0.788108495249E+03    0.13116E-02   -0.10536E-01 11544   0.568E-01    0.168E-01
DAV:   2    -0.788108726556E+03   -0.23131E-03   -0.30336E-03 14076   0.881E-02    0.638E-02
DAV:   3    -0.788108670661E+03    0.55896E-04   -0.79868E-05 13920   0.214E-02    0.278E-02
DAV:   4    -0.788108656148E+03    0.14513E-04   -0.41155E-05 13080   0.140E-02    0.946E-03
DAV:   5    -0.788108655253E+03    0.89480E-06   -0.10204E-05  8964   0.732E-03
  20 F= -.78810866E+03 E0= -.78810866E+03  d E =0.115116E-02  mag=    -0.0000
       N       E                     dE             d eps       ncg     rms          rms(c)
DAV:   1    -0.788100483342E+03    0.81728E-02   -0.62094E-01 11520   0.138E+00    0.421E-01
DAV:   2    -0.788101899856E+03   -0.14165E-02   -0.17899E-02 14040   0.215E-01    0.143E-01
DAV:   3    -0.788101593034E+03    0.30682E-03   -0.39141E-04 14184   0.456E-02    0.637E-02
DAV:   4    -0.788101504930E+03    0.88105E-04   -0.23788E-04 13896   0.359E-02    0.207E-02
DAV:   5    -0.788101502594E+03    0.23357E-05   -0.69600E-05 14340   0.195E-02
  21 F= -.78810150E+03 E0= -.78810150E+03  d E =0.715266E-02  mag=    -0.0000
       N       E                     dE             d eps       ncg     rms          rms(c)
DAV:   1    -0.788102163748E+03   -0.65882E-03   -0.25343E-01 11520   0.914E-01    0.323E-01
DAV:   2    -0.788102782926E+03   -0.61918E-03   -0.86895E-03 14136   0.158E-01    0.108E-01
DAV:   3    -0.788102560965E+03    0.22196E-03   -0.19824E-04 14340   0.369E-02    0.477E-02
DAV:   4    -0.788102482677E+03    0.78288E-04   -0.16162E-04 13824   0.357E-02    0.136E-02
DAV:   5    -0.788102479930E+03    0.27464E-05   -0.67303E-05 14376   0.202E-02
  22 F= -.78810248E+03 E0= -.78810248E+03  d E =-.977336E-03  mag=     0.0000
       N       E                     dE             d eps       ncg     rms          rms(c)
DAV:   1    -0.788105624158E+03   -0.31415E-02   -0.11151E-01 11520   0.616E-01    0.170E-01
DAV:   2    -0.788105873109E+03   -0.24895E-03   -0.33981E-03 14040   0.103E-01    0.641E-02
DAV:   3    -0.788105799851E+03    0.73257E-04   -0.80413E-05 14352   0.226E-02    0.289E-02
DAV:   4    -0.788105773564E+03    0.26288E-04   -0.56607E-05 14016   0.204E-02    0.879E-03
DAV:   5    -0.788105771710E+03    0.18543E-05   -0.19065E-05 10392   0.123E-02
  23 F= -.78810577E+03 E0= -.78810577E+03  d E =-.329178E-02  mag=    -0.0000
