       N       E                     dE             d eps       ncg     rms          ort
DAV:   1     0.102963553813E+05    0.10296E+05   -0.42546E+05 10640   0.156E+03
DAV:   2    -0.140484542253E+03   -0.10437E+05   -0.98391E+04 10640   0.475E+02
DAV:   3    -0.154731482393E+04   -0.14068E+04   -0.13140E+04 10640   0.182E+02
DAV:   4    -0.162829756362E+04   -0.80983E+02   -0.78829E+02 10640   0.460E+01
DAV:   5    -0.163061663916E+04   -0.23191E+01   -0.23119E+01 10640   0.830E+00
SDA:   6    -0.765615652325E+03    0.86500E+03   -0.23119E+01 10640   0.283E+04 0.000E+00
CGA:   7    -0.117381103563E+04   -0.40820E+03   -0.40380E+03 10640   0.779E+03-0.121E+02
CGA:   8    -0.119957543669E+04   -0.25764E+02   -0.43889E+02 10640   0.735E+03-0.287E+03
CGA:   9    -0.123685829966E+04   -0.37283E+02   -0.27964E+02 10640   0.382E+03-0.583E+02
CGA:  10    -0.125463426031E+04   -0.17776E+02   -0.21786E+02 10640   0.373E+03-0.795E+02
CGA:  11    -0.126942125290E+04   -0.14787E+02   -0.16637E+02 10640   0.334E+03-0.779E+02
CGA:  12    -0.127747498300E+04   -0.80537E+01   -0.13227E+02 10640   0.419E+03-0.121E+03
CGA:  13    -0.127762117821E+04   -0.14620E+00   -0.86197E+01 10640   0.520E+03-0.239E+03
CGA:  14    -0.127626658418E+04    0.13546E+01   -0.23297E+02 10640   0.693E+03-0.369E+03
CGA:  15    -0.127231912271E+04    0.39475E+01   -0.26088E+02 10640   0.119E+04-0.858E+03
CGA:  16    -0.126128271494E+04    0.11036E+02   -0.49287E+02 10640   0.122E+04-0.895E+03
CGA:  17    -0.127281830158E+04   -0.11536E+02   -0.41788E+02 10640   0.124E+04-0.140E+04
CGA:  18    -0.126935102999E+04    0.34673E+01   -0.47055E+02 10640   0.113E+04-0.997E+03
CGA:  19    -0.127875528227E+04   -0.94043E+01   -0.37985E+02 10640   0.106E+04-0.122E+04
CGA:  20    -0.128062702270E+04   -0.18717E+01   -0.37496E+02 10640   0.869E+03-0.864E+03
CGA:  21    -0.128936182245E+04   -0.87348E+01   -0.27603E+02 10640   0.607E+03-0.768E+03
CGA:  22    -0.129405386833E+04   -0.46920E+01   -0.19228E+02 10640   0.369E+03-0.443E+03
CGA:  23    -0.129954732848E+04   -0.54935E+01   -0.99195E+01 10640   0.104E+03-0.183E+03
CGA:  24    -0.130198811555E+04   -0.24408E+01   -0.23431E+01 10640   0.726E+01 0.212E+01
CGA:  25    -0.130295517117E+04   -0.96706E+00   -0.93063E+00 10640   0.196E+02 0.108E+01
CGA:  26    -0.130474153036E+04   -0.17864E+01   -0.18500E+01 10640   0.744E+01 0.249E+00
CGA:  27    -0.130508916249E+04   -0.34763E+00   -0.38217E+00 10640   0.249E+01-0.536E+00
CGA:  28    -0.130535970088E+04   -0.27054E+00   -0.26955E+00 10640   0.341E+01-0.190E-01
CGA:  29    -0.130576581846E+04   -0.40612E+00   -0.40548E+00 10640   0.237E+01-0.823E-01
CGA:  30    -0.130593196834E+04   -0.16615E+00   -0.16357E+00 10640   0.815E+00-0.154E+00
CGA:  31    -0.130603547145E+04   -0.10350E+00   -0.10789E+00 10640   0.128E+01-0.130E+00
CGA:  32    -0.130617967692E+04   -0.14421E+00   -0.15603E+00 10640   0.103E+01-0.341E+00
CGA:  33    -0.130624704070E+04   -0.67364E-01   -0.63565E-01 10640   0.406E+00-0.210E+00
CGA:  34    -0.130625745944E+04   -0.10419E-01   -0.11073E+00 10640   0.344E+01-0.427E+00
CGA:  35    -0.130638755948E+04   -0.13010E+00   -0.13073E+00 10640   0.160E+00-0.329E-01
CGA:  36    -0.130642241617E+04   -0.34857E-01   -0.41286E-01 10640   0.576E+00-0.432E-01
CGA:  37    -0.130646648563E+04   -0.44069E-01   -0.42947E-01 10640   0.278E+00-0.712E-01
CGA:  38    -0.130648591973E+04   -0.19434E-01   -0.18263E-01 10640   0.169E+00-0.299E-01
CGA:  39    -0.130650377620E+04   -0.17856E-01   -0.17886E-01 10640   0.184E+00-0.268E-01
CGA:  40    -0.130651739374E+04   -0.13618E-01   -0.12807E-01 10640   0.621E-01-0.245E-01
CGA:  41    -0.130652383861E+04   -0.64449E-02   -0.66354E-02 10640   0.113E+00-0.268E-01
CGA:  42    -0.130650377666E+04    0.20062E-01   -0.22618E-01 10640   0.675E+00-0.192E+00
CGA:  43    -0.130654700803E+04   -0.43231E-01   -0.43605E-01 10640   0.798E-01-0.134E-02
CGA:  44    -0.130655482881E+04   -0.78208E-02   -0.77604E-02 10640   0.736E-01-0.209E-02
CGA:  45    -0.130656736857E+04   -0.12540E-01   -0.13101E-01 10640   0.417E-01-0.946E-02
CGA:  46    -0.130657071243E+04   -0.33439E-02   -0.31074E-02 10640   0.134E-01-0.577E-02
CGA:  47    -0.130657398204E+04   -0.32696E-02    0.50876E-02 10640   0.551E-02 0.463E-02
CGA:  48    -0.130657605496E+04   -0.20729E-02    0.37242E-02 10640   0.452E-02 0.632E-03
CGA:  49    -0.130657790082E+04   -0.18459E-02    0.66143E-03 10640   0.227E-02 0.118E-02
CGA:  50    -0.130657896281E+04   -0.10620E-02    0.36307E-03 10640   0.164E-02 0.628E-03
CGA:  51    -0.130657986891E+04   -0.90610E-03    0.17752E-03 10640   0.724E-03 0.402E-03
CGA:  52    -0.130658041773E+04   -0.54882E-03    0.38757E-04 10640   0.564E-03 0.111E-03
CGA:  53    -0.130658106922E+04   -0.65150E-03    0.13403E-04 10640   0.422E-03 0.293E-03
CGA:  54    -0.130658131425E+04   -0.24503E-03    0.19726E-04 10640   0.362E-03-0.609E-04
CGA:  55    -0.130658167525E+04   -0.36100E-03    0.52403E-05 10640   0.240E-03 0.633E-04
CGA:  56    -0.130658202722E+04   -0.35197E-03    0.43864E-05 10640   0.220E-03 0.167E-05
CGA:  57    -0.130658246200E+04   -0.43478E-03    0.20071E-05 10640   0.196E-03 0.127E-03
CGA:  58    -0.130658256691E+04   -0.10491E-03    0.10659E-04 10640   0.156E-03-0.454E-04
CGA:  59    -0.130658276052E+04   -0.19361E-03    0.13592E-05 10640   0.140E-03 0.420E-04
CGA:  60    -0.130658305760E+04   -0.29708E-03    0.19249E-05 10640   0.801E-04 0.365E-04
CGA:  61    -0.130658334306E+04   -0.28546E-03    0.60810E-06 10640   0.746E-04 0.725E-04
CGA:  62    -0.130658344445E+04   -0.10139E-03    0.10414E-05 10640   0.112E-03-0.235E-04
CGA:  63    -0.130658368505E+04   -0.24060E-03    0.40940E-06 10640   0.116E-03 0.259E-04
CGA:  64    -0.130658400043E+04   -0.31538E-03    0.11217E-05 10640   0.176E-03-0.880E-05
CGA:  65    -0.130658451808E+04   -0.51765E-03    0.85702E-06 10640   0.230E-03-0.756E-05
CGA:  66    -0.130658522769E+04   -0.70961E-03    0.11500E-05 10640   0.315E-03 0.152E-04
CGA:  67    -0.130658619012E+04   -0.96243E-03    0.19881E-05 10640   0.291E-03-0.246E-03
CGA:  68    -0.130658621589E+04   -0.25771E-04   -0.22673E-04 10640   0.525E-04-0.662E-04
CGA:  69    -0.130658622809E+04   -0.12200E-04    0.10650E-04 10640   0.726E-04-0.376E-04
CGA:  70    -0.130658623024E+04   -0.21480E-05   -0.29610E-05 10640   0.451E-05 0.100E-04
   1 F= -.13065862E+04 E0= -.13065666E+04  d E =-.130659E+04  mag=    47.0000
       N       E                     dE             d eps       ncg     rms          ort
SDA:   1    -0.130659248729E+04   -0.62592E-02    0.00000E+00 10640   0.680E-02 0.000E+00
CGA:   2    -0.130659374919E+04   -0.12619E-02   -0.12403E-02 10640   0.853E-02 0.316E-03
CGA:   3    -0.130659449187E+04   -0.74269E-03   -0.74980E-03 10640   0.239E-02 0.224E-03
CGA:   4    -0.130659473700E+04   -0.24513E-03   -0.24509E-03 10640   0.122E-02-0.197E-06
CGA:   5    -0.130659489073E+04   -0.15373E-03   -0.15784E-03 10640   0.582E-03-0.269E-03
CGA:   6    -0.130659492455E+04   -0.33815E-04   -0.31675E-04 10640   0.137E-03-0.465E-04
CGA:   7    -0.130659493437E+04   -0.98180E-05   -0.10824E-04 10640   0.576E-04 0.375E-04
   2 F= -.13065949E+04 E0= -.13065753E+04  d E =-.870413E-02  mag=    47.0000
       N       E                     dE             d eps       ncg     rms          ort
SDA:   1    -0.130598566109E+04    0.60926E+00    0.00000E+00 10640   0.194E+01 0.000E+00
CGA:   2    -0.130638801539E+04   -0.40235E+00   -0.40186E+00 10640   0.273E+01 0.566E-02
CGA:   3    -0.130659743020E+04   -0.20941E+00   -0.20987E+00 10640   0.594E+00 0.241E-02
CGA:   4    -0.130667093208E+04   -0.73502E-01   -0.73533E-01 10640   0.386E+00-0.266E-02
CGA:   5    -0.130670405795E+04   -0.33126E-01   -0.33016E-01 10640   0.712E-01-0.387E-02
CGA:   6    -0.130671066315E+04   -0.66052E-02   -0.65858E-02 10640   0.429E-01-0.978E-03
CGA:   7    -0.130671565859E+04   -0.49954E-02   -0.49981E-02 10640   0.137E-01-0.326E-03
CGA:   8    -0.130671697719E+04   -0.13186E-02   -0.13201E-02 10640   0.560E-02 0.118E-03
CGA:   9    -0.130671782219E+04   -0.84499E-03   -0.81405E-03 10640   0.213E-02 0.918E-03
CGA:  10    -0.130671801318E+04   -0.19100E-03   -0.20424E-03 10640   0.108E-02 0.450E-03
CGA:  11    -0.130671816251E+04   -0.14933E-03   -0.14821E-03 10640   0.488E-03 0.507E-03
CGA:  12    -0.130671822522E+04   -0.62701E-04   -0.67548E-04 10640   0.239E-03 0.294E-03
CGA:  13    -0.130671825266E+04   -0.27444E-04   -0.27243E-04 10640   0.254E-03 0.524E-04
CGA:  14    -0.130671829670E+04   -0.44036E-04   -0.40865E-04 10640   0.100E-03 0.144E-03
CGA:  15    -0.130671830034E+04   -0.36409E-05   -0.63438E-05 10640   0.602E-04 0.563E-04
   3 F= -.13067183E+04 E0= -.13066988E+04  d E =-.123366E+00  mag=    47.0000
       N       E                     dE             d eps       ncg     rms          ort
SDA:   1    -0.130244523478E+04    0.42731E+01    0.00000E+00 10640   0.132E+02 0.000E+00
CGA:   2    -0.130448027418E+04   -0.20350E+01   -0.20410E+01 10640   0.166E+02-0.975E-01
CGA:   3    -0.130596551562E+04   -0.14852E+01   -0.14861E+01 10640   0.444E+01 0.290E-01
CGA:   4    -0.130651193706E+04   -0.54642E+00   -0.54624E+00 10640   0.279E+01 0.773E-02
CGA:   5    -0.130676266300E+04   -0.25073E+00   -0.25059E+00 10640   0.494E+00-0.491E-02
CGA:   6    -0.130680856090E+04   -0.45898E-01   -0.45865E-01 10640   0.302E+00-0.148E-02
CGA:   7    -0.130684363672E+04   -0.35076E-01   -0.35087E-01 10640   0.103E+00-0.837E-03
CGA:   8    -0.130685352011E+04   -0.98834E-02   -0.98854E-02 10640   0.440E-01 0.183E-03
CGA:   9    -0.130686089694E+04   -0.73768E-02   -0.72849E-02 10640   0.190E-01 0.158E-02
CGA:  10    -0.130686257845E+04   -0.16815E-02   -0.17051E-02 10640   0.110E-01 0.103E-02
CGA:  11    -0.130686430311E+04   -0.17247E-02   -0.16772E-02 10640   0.531E-02 0.134E-02
CGA:  12    -0.130686488521E+04   -0.58209E-03   -0.58861E-03 10640   0.250E-02 0.566E-03
CGA:  13    -0.130686533116E+04   -0.44595E-03   -0.42874E-03 10640   0.237E-02 0.382E-03
CGA:  14    -0.130686560524E+04   -0.27409E-03   -0.27609E-03 10640   0.938E-03 0.182E-03
CGA:  15    -0.130686572360E+04   -0.11836E-03   -0.11741E-03 10640   0.574E-03 0.198E-03
CGA:  16    -0.130686579975E+04   -0.76146E-04   -0.76548E-04 10640   0.222E-03 0.234E-03
CGA:  17    -0.130686583367E+04   -0.33918E-04   -0.34233E-04 10640   0.120E-03 0.162E-03
CGA:  18    -0.130686583690E+04   -0.32302E-05   -0.74371E-05 10640   0.839E-04 0.848E-04
   4 F= -.13068658E+04 E0= -.13068467E+04  d E =-.147537E+00  mag=    47.0000
       N       E                     dE             d eps       ncg     rms          ort
SDA:   1    -0.130589735415E+04    0.96848E+00    0.00000E+00 10640   0.306E+01 0.000E+00
CGA:   2    -0.130647227678E+04   -0.57492E+00   -0.57466E+00 10640   0.235E+01 0.409E-02
CGA:   3    -0.130667899145E+04   -0.20671E+00   -0.20681E+00 10640   0.119E+01 0.356E-02
CGA:   4    -0.130683285770E+04   -0.15387E+00   -0.15382E+00 10640   0.515E+00 0.291E-02
CGA:   5    -0.130687164930E+04   -0.38792E-01   -0.38722E-01 10640   0.945E-01-0.102E-02
CGA:   6    -0.130688352281E+04   -0.11874E-01   -0.11864E-01 10640   0.601E-01 0.666E-03
CGA:   7    -0.130688842631E+04   -0.49035E-02   -0.49096E-02 10640   0.163E-01 0.246E-03
CGA:   8    -0.130689044868E+04   -0.20224E-02   -0.20241E-02 10640   0.115E-01-0.104E-03
CGA:   9    -0.130689172216E+04   -0.12735E-02   -0.12730E-02 10640   0.275E-02 0.280E-03
CGA:  10    -0.130689211285E+04   -0.39069E-03   -0.38203E-03 10640   0.240E-02 0.333E-03
CGA:  11    -0.130689238857E+04   -0.27572E-03   -0.27766E-03 10640   0.827E-03 0.257E-03
CGA:  12    -0.130689248183E+04   -0.93263E-04   -0.94838E-04 10640   0.494E-03 0.224E-03
CGA:  13    -0.130689258286E+04   -0.10103E-03   -0.91325E-04 10640   0.256E-03 0.273E-03
CGA:  14    -0.130689260449E+04   -0.21622E-04   -0.23014E-04 10640   0.227E-03 0.633E-04
CGA:  15    -0.130689264965E+04   -0.45167E-04   -0.40423E-04 10640   0.144E-03 0.149E-03
CGA:  16    -0.130689265986E+04   -0.10212E-04   -0.11795E-04 10640   0.903E-04 0.521E-04
CGA:  17    -0.130689267005E+04   -0.10183E-04   -0.11774E-04 10640   0.976E-04 0.104E-03
CGA:  18    -0.130689267672E+04   -0.66732E-05   -0.80844E-05 10640   0.672E-04 0.515E-04
   5 F= -.13068927E+04 E0= -.13068738E+04  d E =-.268398E-01  mag=    47.0000
       N       E                     dE             d eps       ncg     rms          ort
SDA:   1    -0.130413650788E+04    0.27562E+01    0.00000E+00 10640   0.747E+01 0.000E+00
CGA:   2    -0.130593533440E+04   -0.17988E+01   -0.17991E+01 10640   0.563E+01-0.218E-03
CGA:   3    -0.130643731609E+04   -0.50198E+00   -0.50234E+00 10640   0.320E+01 0.933E-02
CGA:   4    -0.130678871072E+04   -0.35139E+00   -0.35139E+00 10640   0.979E+00-0.217E-02
CGA:   5    -0.130686597817E+04   -0.77267E-01   -0.77002E-01 10640   0.222E+00-0.399E-02
CGA:   6    -0.130689755906E+04   -0.31581E-01   -0.31487E-01 10640   0.127E+00 0.320E-02
CGA:   7    -0.130690766946E+04   -0.10110E-01   -0.10117E-01 10640   0.410E-01 0.171E-03
CGA:   8    -0.130691323322E+04   -0.55638E-02   -0.55972E-02 10640   0.281E-01-0.134E-02
CGA:   9    -0.130691597490E+04   -0.27417E-02   -0.27375E-02 10640   0.755E-02-0.338E-03
CGA:  10    -0.130691726595E+04   -0.12911E-02   -0.13878E-02 10640   0.105E-01-0.130E-02
CGA:  11    -0.130691813990E+04   -0.87395E-03   -0.85016E-03 10640   0.327E-02-0.130E-02
CGA:  12    -0.130691850638E+04   -0.36648E-03   -0.37857E-03 10640   0.397E-02-0.713E-03
CGA:  13    -0.130691901046E+04   -0.50408E-03   -0.77370E-03 10640   0.438E-02-0.203E-02
CGA:  14    -0.130691931766E+04   -0.30720E-03   -0.29868E-03 10640   0.148E-02-0.153E-03
CGA:  15    -0.130691956136E+04   -0.24369E-03   -0.28233E-03 10640   0.239E-02-0.493E-03
CGA:  16    -0.130691970695E+04   -0.14559E-03   -0.13065E-03 10640   0.721E-03-0.361E-03
CGA:  17    -0.130691978786E+04   -0.80918E-04   -0.87105E-04 10640   0.127E-02-0.298E-03
CGA:  18    -0.130691972171E+04    0.66152E-04   -0.21530E-03 10640   0.646E-02-0.171E-02
CGA:  19    -0.130692010361E+04   -0.38190E-03   -0.37679E-03 10640   0.112E-02-0.650E-04
CGA:  20    -0.130692020580E+04   -0.10218E-03   -0.10068E-03 10640   0.492E-03-0.401E-04
CGA:  21    -0.130692029213E+04   -0.86339E-04   -0.11547E-03 10640   0.574E-03-0.247E-03
CGA:  22    -0.130692033951E+04   -0.47379E-04   -0.42122E-04 10640   0.263E-03-0.899E-04
CGA:  23    -0.130692018996E+04    0.14955E-03   -0.11263E-03 10640   0.441E-02-0.691E-03
CGA:  24    -0.130692040173E+04   -0.21177E-03   -0.21241E-03 10640   0.585E-03 0.142E-04
CGA:  25    -0.130692047564E+04   -0.73904E-04   -0.74457E-04 10640   0.167E-03 0.356E-04
CGA:  26    -0.130692049421E+04   -0.18577E-04   -0.18735E-04 10640   0.284E-04 0.440E-05
CGA:  27    -0.130692051455E+04   -0.20332E-04    0.13654E-05 10640   0.331E-04 0.108E-04
CGA:  28    -0.130692054824E+04   -0.33698E-04    0.19485E-05 10640   0.232E-04 0.274E-04
CGA:  29    -0.130692055618E+04   -0.79351E-05    0.72526E-05 10640   0.380E-04-0.722E-06
   6 F= -.13069206E+04 E0= -.13069023E+04  d E =-.278795E-01  mag=    47.0000
       N       E                     dE             d eps       ncg     rms          ort
SDA:   1    -0.130409178981E+04    0.28288E+01    0.00000E+00 10640   0.768E+01 0.000E+00
CGA:   2    -0.130584840777E+04   -0.17566E+01   -0.17581E+01 10640   0.709E+01-0.137E-01
CGA:   3    -0.130640710787E+04   -0.55870E+00   -0.55889E+00 10640   0.315E+01 0.448E-02
CGA:   4    -0.130679871818E+04   -0.39161E+00   -0.39169E+00 10640   0.106E+01 0.379E-02
CGA:   5    -0.130688081858E+04   -0.82100E-01   -0.82032E-01 10640   0.228E+00 0.214E-02
CGA:   6    -0.130691101456E+04   -0.30196E-01   -0.30203E-01 10640   0.145E+00 0.155E-02
CGA:   7    -0.130692390986E+04   -0.12895E-01   -0.12921E-01 10640   0.401E-01 0.635E-03
CGA:   8    -0.130692896681E+04   -0.50569E-02   -0.50508E-02 10640   0.275E-01-0.671E-03
CGA:   9    -0.130693217204E+04   -0.32052E-02   -0.31766E-02 10640   0.914E-02-0.172E-02
CGA:  10    -0.130693323608E+04   -0.10640E-02   -0.10564E-02 10640   0.826E-02-0.778E-03
CGA:  11    -0.130693428930E+04   -0.10532E-02   -0.10680E-02 10640   0.543E-02-0.173E-02
CGA:  12    -0.130693477052E+04   -0.48123E-03   -0.44607E-03 10640   0.315E-02-0.121E-02
CGA:  13    -0.130693522584E+04   -0.45532E-03   -0.77896E-03 10640   0.813E-02-0.175E-02
CGA:  14    -0.130693569356E+04   -0.46772E-03   -0.43262E-03 10640   0.123E-02-0.398E-03
CGA:  15    -0.130693590053E+04   -0.20697E-03   -0.23140E-03 10640   0.272E-02-0.397E-03
CGA:  16    -0.130693611383E+04   -0.21330E-03   -0.20340E-03 10640   0.915E-03-0.344E-03
CGA:  17    -0.130693620140E+04   -0.87567E-04   -0.77930E-04 10640   0.869E-03-0.237E-03
CGA:  18    -0.130693402717E+04    0.21742E-02   -0.11738E-02 10640   0.469E-01-0.375E-02
CGA:  19    -0.130693634022E+04   -0.23130E-02   -0.23199E-02 10640   0.478E-02-0.157E-04
CGA:  20    -0.130693678926E+04   -0.44904E-03   -0.44719E-03 10640   0.197E-02-0.711E-05
CGA:  21    -0.130693712291E+04   -0.33366E-03   -0.32689E-03 10640   0.514E-03-0.103E-03
CGA:  22    -0.130693717209E+04   -0.49177E-04   -0.47522E-04 10640   0.354E-03-0.121E-04
CGA:  23    -0.130693724864E+04   -0.76546E-04   -0.13802E-03 10640   0.130E-02-0.347E-03
CGA:  24    -0.130693732088E+04   -0.72239E-04   -0.73876E-04 10640   0.256E-03 0.109E-04
CGA:  25    -0.130693734826E+04   -0.27382E-04   -0.29253E-04 10640   0.984E-04 0.174E-04
CGA:  26    -0.130693736311E+04   -0.14853E-04   -0.13209E-04 10640   0.433E-04-0.182E-04
CGA:  27    -0.130693730077E+04    0.62342E-04   -0.24457E-04 10640   0.239E-02-0.181E-03
CGA:  28    -0.130693740845E+04   -0.10768E-03   -0.10619E-03 10640   0.710E-04-0.331E-05
CGA:  29    -0.130693742290E+04   -0.14444E-04   -0.22229E-04 10640   0.453E-03-0.891E-04
CGA:  30    -0.130693744403E+04   -0.21133E-04   -0.22016E-04 10640   0.277E-04 0.553E-05
CGA:  31    -0.130693744901E+04   -0.49799E-05   -0.34638E-05 10640   0.312E-04-0.155E-04
   7 F= -.13069374E+04 E0= -.13069197E+04  d E =-.168928E-01  mag=    47.0000
       N       E                     dE             d eps       ncg     rms          ort
SDA:   1    -0.130625947991E+04    0.67796E+00    0.00000E+00 10640   0.184E+01 0.000E+00
CGA:   2    -0.130670058260E+04   -0.44110E+00   -0.44107E+00 10640   0.141E+01 0.159E-02
CGA:   3    -0.130683144241E+04   -0.13086E+00   -0.13094E+00 10640   0.791E+00-0.407E-02
CGA:   4    -0.130691697241E+04   -0.85530E-01   -0.85250E-01 10640   0.233E+00-0.867E-03
CGA:   5    -0.130693493810E+04   -0.17966E-01   -0.18031E-01 10640   0.544E-01 0.662E-03
CGA:   6    -0.130694244387E+04   -0.75058E-02   -0.74764E-02 10640   0.336E-01-0.482E-03
CGA:   7    -0.130694520957E+04   -0.27657E-02   -0.27253E-02 10640   0.876E-02-0.321E-03
CGA:   8    -0.130694647027E+04   -0.12607E-02   -0.12488E-02 10640   0.631E-02-0.277E-03
CGA:   9    -0.130694715589E+04   -0.68562E-03   -0.63288E-03 10640   0.210E-02-0.654E-03
CGA:  10    -0.130694748513E+04   -0.32924E-03   -0.32468E-03 10640   0.283E-02-0.616E-03
CGA:  11    -0.130694778666E+04   -0.30152E-03   -0.24744E-03 10640   0.142E-02-0.965E-03
CGA:  12    -0.130694794564E+04   -0.15898E-03   -0.12948E-03 10640   0.199E-02-0.772E-03
CGA:  13    -0.130694806804E+04   -0.12240E-03   -0.11939E-03 10640   0.567E-03-0.242E-04
CGA:  14    -0.130694814989E+04   -0.81856E-04   -0.20396E-03 10640   0.332E-02-0.627E-03
CGA:  15    -0.130694832578E+04   -0.17588E-03   -0.16607E-03 10640   0.320E-03-0.742E-04
CGA:  16    -0.130694837628E+04   -0.50505E-04   -0.44819E-04 10640   0.497E-03-0.194E-03
CGA:  17    -0.130694841784E+04   -0.41563E-04   -0.32122E-04 10640   0.120E-03-0.878E-04
CGA:  18    -0.130694846449E+04   -0.46647E-04    0.19145E-04 10640   0.310E-03-0.779E-04
CGA:  19    -0.130694848962E+04   -0.25132E-04   -0.18521E-04 10640   0.759E-04-0.619E-04
CGA:  20    -0.130694853221E+04   -0.42583E-04    0.41076E-05 10640   0.125E-03-0.207E-04
CGA:  21    -0.130694864811E+04   -0.11590E-03    0.24412E-05 10640   0.379E-04 0.629E-04
CGA:  22    -0.130694867626E+04   -0.28149E-04    0.23205E-05 10640   0.576E-04-0.123E-04
CGA:  23    -0.130694874508E+04   -0.68823E-04    0.69536E-06 10640   0.931E-04 0.192E-04
CGA:  24    -0.130694888644E+04   -0.14136E-03    0.39068E-05 10640   0.442E-04 0.189E-04
CGA:  25    -0.130694897136E+04   -0.84917E-04    0.10744E-05 10640   0.233E-04 0.223E-04
CGA:  26    -0.130694898028E+04   -0.89241E-05    0.97653E-05 10640   0.125E-03-0.374E-04
   8 F= -.13069490E+04 E0= -.13069315E+04  d E =-.115313E-01  mag=    47.0000
       N       E                     dE             d eps       ncg     rms          ort
SDA:   1    -0.130669732644E+04    0.25164E+00    0.00000E+00 10640   0.728E+00 0.000E+00
CGA:   2    -0.130684918608E+04   -0.15186E+00   -0.15175E+00 10640   0.629E+00 0.208E-02
CGA:   3    -0.130690261909E+04   -0.53433E-01   -0.53126E-01 10640   0.289E+00-0.512E-03
CGA:   4    -0.130693902582E+04   -0.36407E-01   -0.36369E-01 10640   0.118E+00-0.119E-02
CGA:   5    -0.130694796467E+04   -0.89389E-02   -0.89830E-02 10640   0.213E-01 0.714E-03
CGA:   6    -0.130695099372E+04   -0.30290E-02   -0.30263E-02 10640   0.144E-01-0.330E-03
CGA:   7    -0.130695216126E+04   -0.11675E-02   -0.11594E-02 10640   0.343E-02-0.106E-03
CGA:   8    -0.130695259108E+04   -0.42981E-03   -0.42981E-03 10640   0.262E-02 0.267E-05
CGA:   9    -0.130695287371E+04   -0.28263E-03   -0.27874E-03 10640   0.703E-03-0.100E-03
CGA:  10    -0.130695297946E+04   -0.10575E-03   -0.10720E-03 10640   0.710E-03-0.898E-04
CGA:  11    -0.130695306545E+04   -0.85996E-04   -0.84945E-04 10640   0.352E-03-0.172E-03
CGA:  12    -0.130695309726E+04   -0.31805E-04   -0.28920E-04 10640   0.297E-03-0.832E-04
CGA:  13    -0.130695308730E+04    0.99557E-05   -0.89487E-04 10640   0.174E-02-0.394E-03
CGA:  14    -0.130695317948E+04   -0.92175E-04   -0.86833E-04 10640   0.194E-03-0.498E-04
CGA:  15    -0.130695320843E+04   -0.28948E-04   -0.29063E-04 10640   0.232E-03-0.207E-04
CGA:  16    -0.130695323268E+04   -0.24257E-04   -0.23402E-04 10640   0.480E-04-0.234E-04
CGA:  17    -0.130695324614E+04   -0.13454E-04    0.52699E-04 10640   0.556E-04-0.489E-05
CGA:  18    -0.130695326114E+04   -0.15006E-04    0.16964E-03 10640   0.200E-04 0.720E-05
CGA:  19    -0.130695326962E+04   -0.84720E-05    0.59999E-05 10640   0.318E-04-0.798E-05
   9 F= -.13069533E+04 E0= -.13069358E+04  d E =-.428933E-02  mag=    47.0000
       N       E                     dE             d eps       ncg     rms          ort
SDA:   1    -0.130651031672E+04    0.44294E+00    0.00000E+00 10640   0.123E+01 0.000E+00
CGA:   2    -0.130678275072E+04   -0.27243E+00   -0.27237E+00 10640   0.986E+00 0.102E-02
CGA:   3    -0.130687943558E+04   -0.96685E-01   -0.96573E-01 10640   0.472E+00 0.191E-03
CGA:   4    -0.130693520360E+04   -0.55768E-01   -0.55796E-01 10640   0.163E+00 0.129E-02
CGA:   5    -0.130694793181E+04   -0.12728E-01   -0.12710E-01 10640   0.368E-01 0.727E-05
CGA:   6    -0.130695245630E+04   -0.45245E-02   -0.45187E-02 10640   0.210E-01-0.269E-03
CGA:   7    -0.130695455332E+04   -0.20970E-02   -0.21035E-02 10640   0.540E-02 0.180E-03
CGA:   8    -0.130695526235E+04   -0.70903E-03   -0.70586E-03 10640   0.422E-02-0.297E-03
CGA:   9    -0.130695568307E+04   -0.42072E-03   -0.41247E-03 10640   0.168E-02-0.226E-03
CGA:  10    -0.130695583622E+04   -0.15315E-03   -0.15124E-03 10640   0.781E-03-0.433E-04
CGA:  11    -0.130695595425E+04   -0.11803E-03   -0.26724E-03 10640   0.244E-02-0.692E-03
CGA:  12    -0.130695607502E+04   -0.12077E-03   -0.12800E-03 10640   0.409E-03 0.803E-04
CGA:  13    -0.130695615247E+04   -0.77448E-04   -0.80990E-04 10640   0.474E-03-0.710E-04
CGA:  14    -0.130695620415E+04   -0.51683E-04   -0.45878E-04 10640   0.254E-03-0.214E-03
CGA:  15    -0.130695622281E+04   -0.18658E-04   -0.32529E-04 10640   0.672E-03-0.155E-03
CGA:  16    -0.130695626962E+04   -0.46807E-04   -0.41631E-04 10640   0.169E-03-0.595E-04
CGA:  17    -0.130695629465E+04   -0.25033E-04   -0.32845E-04 10640   0.464E-03-0.112E-03
CGA:  18    -0.130695631710E+04   -0.22447E-04   -0.22642E-04 10640   0.426E-04 0.260E-05
CGA:  19    -0.130695630409E+04    0.13011E-04   -0.15749E-04 10640   0.759E-03-0.127E-03
CGA:  20    -0.130695635021E+04   -0.46120E-04   -0.43663E-04 10640   0.728E-04-0.245E-04
CGA:  21    -0.130695635839E+04   -0.81816E-05   -0.60527E-05 10640   0.455E-04-0.341E-04
  10 F= -.13069564E+04 E0= -.13069391E+04  d E =-.308877E-02  mag=    47.0000
       N       E                     dE             d eps       ncg     rms          ort
SDA:   1    -0.130633515650E+04    0.62119E+00    0.00000E+00 10640   0.186E+01 0.000E+00
CGA:   2    -0.130669545619E+04   -0.36030E+00   -0.36034E+00 10640   0.143E+01-0.537E-03
CGA:   3    -0.130683537064E+04   -0.13991E+00   -0.13990E+00 10640   0.729E+00 0.128E-02
CGA:   4    -0.130692170933E+04   -0.86339E-01   -0.86426E-01 10640   0.311E+00 0.402E-02
CGA:   5    -0.130694580863E+04   -0.24099E-01   -0.24152E-01 10640   0.538E-01 0.114E-02
CGA:   6    -0.130695237560E+04   -0.65670E-02   -0.65712E-02 10640   0.322E-01 0.284E-03
CGA:   7    -0.130695553326E+04   -0.31577E-02   -0.31719E-02 10640   0.952E-02 0.352E-03
CGA:   8    -0.130695651894E+04   -0.98568E-03   -0.98326E-03 10640   0.595E-02-0.642E-04
CGA:   9    -0.130695728680E+04   -0.76786E-03   -0.76597E-03 10640   0.238E-02-0.317E-03
CGA:  10    -0.130695751848E+04   -0.23168E-03   -0.23088E-03 10640   0.111E-02-0.231E-04
CGA:  11    -0.130695773542E+04   -0.21693E-03   -0.23321E-03 10640   0.109E-02-0.208E-03
CGA:  12    -0.130695780154E+04   -0.66127E-04   -0.65052E-04 10640   0.364E-03-0.169E-04
CGA:  13    -0.130695787785E+04   -0.76300E-04   -0.77062E-04 10640   0.588E-03-0.104E-04
CGA:  14    -0.130695794428E+04   -0.66436E-04   -0.64323E-04 10640   0.241E-03-0.845E-04
CGA:  15    -0.130695796250E+04   -0.18222E-04   -0.19262E-04 10640   0.158E-03 0.231E-04
CGA:  16    -0.130695799238E+04   -0.29875E-04   -0.29326E-04 10640   0.191E-03 0.145E-04
CGA:  17    -0.130695802393E+04   -0.31548E-04   -0.34949E-04 10640   0.244E-03-0.114E-03
CGA:  18    -0.130695803385E+04   -0.99254E-05   -0.13592E-04 10640   0.595E-04 0.446E-04
CGA:  19    -0.130695804728E+04   -0.13430E-04   -0.13235E-04 10640   0.813E-04 0.354E-05
CGA:  20    -0.130695804417E+04    0.31068E-05   -0.25372E-04 10640   0.495E-03-0.181E-03
CGA:  21    -0.130695806157E+04   -0.17391E-04   -0.25752E-04 10640   0.824E-04 0.909E-04
CGA:  22    -0.130695807296E+04   -0.11392E-04   -0.11895E-04 10640   0.647E-04 0.278E-04
CGA:  23    -0.130695808442E+04   -0.11458E-04   -0.17263E-04 10640   0.161E-03-0.962E-04
CGA:  24    -0.130695808752E+04   -0.31009E-05   -0.70830E-05 10640   0.228E-04 0.407E-04
  11 F= -.13069581E+04 E0= -.13069411E+04  d E =-.172913E-02  mag=    47.0000
       N       E                     dE             d eps       ncg     rms          ort
SDA:   1    -0.130667534393E+04    0.28274E+00    0.00000E+00 10640   0.837E+00 0.000E+00
CGA:   2    -0.130684782074E+04   -0.17248E+00   -0.17234E+00 10640   0.527E+00 0.205E-02
CGA:   3    -0.130690810262E+04   -0.60282E-01   -0.60232E-01 10640   0.338E+00-0.197E-02
CGA:   4    -0.130694698991E+04   -0.38887E-01   -0.38893E-01 10640   0.904E-01 0.669E-03
CGA:   5    -0.130695392024E+04   -0.69303E-02   -0.68914E-02 10640   0.244E-01-0.576E-03
CGA:   6    -0.130695704939E+04   -0.31292E-02   -0.31288E-02 10640   0.123E-01-0.931E-04
CGA:   7    -0.130695804093E+04   -0.99154E-03   -0.10195E-02 10640   0.321E-02 0.580E-03
CGA:   8    -0.130695859079E+04   -0.54987E-03   -0.54621E-03 10640   0.221E-02 0.113E-03
CGA:   9    -0.130695877281E+04   -0.18201E-03   -0.18210E-03 10640   0.787E-03 0.329E-05
CGA:  10    -0.130695886311E+04   -0.90299E-04   -0.91867E-04 10640   0.409E-03 0.127E-03
CGA:  11    -0.130695892821E+04   -0.65103E-04   -0.64637E-04 10640   0.152E-03 0.586E-04
CGA:  12    -0.130695895055E+04   -0.22339E-04   -0.22352E-04 10640   0.920E-04 0.611E-04
CGA:  13    -0.130695896507E+04   -0.14515E-04   -0.15225E-04 10640   0.504E-04 0.676E-04
CGA:  14    -0.130695897029E+04   -0.52195E-05   -0.54930E-05 10640   0.515E-04 0.144E-04
  12 F= -.13069590E+04 E0= -.13069421E+04  d E =-.882768E-03  mag=    47.0000
       N       E                     dE             d eps       ncg     rms          ort
SDA:   1    -0.130688209238E+04    0.76873E-01    0.00000E+00 10640   0.229E+00 0.000E+00
CGA:   2    -0.130692946141E+04   -0.47369E-01   -0.47464E-01 10640   0.168E+00-0.110E-02
CGA:   3    -0.130694527055E+04   -0.15809E-01   -0.15809E-01 10640   0.929E-01 0.321E-03
CGA:   4    -0.130695653126E+04   -0.11261E-01   -0.11267E-01 10640   0.304E-01 0.896E-03
CGA:   5    -0.130695879455E+04   -0.22633E-02   -0.22857E-02 10640   0.670E-02 0.459E-03
CGA:   6    -0.130695968632E+04   -0.89178E-03   -0.89081E-03 10640   0.346E-02 0.163E-03
CGA:   7    -0.130695998982E+04   -0.30350E-03   -0.30706E-03 10640   0.112E-02 0.957E-04
CGA:   8    -0.130696013256E+04   -0.14274E-03   -0.14280E-03 10640   0.830E-03-0.587E-04
CGA:   9    -0.130696022418E+04   -0.91619E-04   -0.90749E-04 10640   0.244E-03-0.107E-03
CGA:  10    -0.130696025465E+04   -0.30478E-04   -0.31406E-04 10640   0.230E-03-0.369E-04
CGA:  11    -0.130696027816E+04   -0.23507E-04   -0.23335E-04 10640   0.996E-04-0.385E-04
CGA:  12    -0.130696028845E+04   -0.10292E-04   -0.10302E-04 10640   0.101E-03-0.370E-04
CGA:  13    -0.130696029370E+04   -0.52440E-05   -0.58478E-05 10640   0.355E-04 0.189E-04
  13 F= -.13069603E+04 E0= -.13069434E+04  d E =-.132341E-02  mag=    47.0000
       N       E                     dE             d eps       ncg     rms          ort
SDA:   1    -0.130690257239E+04    0.57716E-01    0.00000E+00 10640   0.165E+00 0.000E+00
CGA:   2    -0.130693941298E+04   -0.36841E-01   -0.36893E-01 10640   0.106E+00-0.473E-03
CGA:   3    -0.130695174788E+04   -0.12335E-01   -0.12335E-01 10640   0.661E-01 0.131E-03
CGA:   4    -0.130695865941E+04   -0.69115E-02   -0.69368E-02 10640   0.168E-01 0.136E-02
CGA:   5    -0.130695999602E+04   -0.13366E-02   -0.13478E-02 10640   0.447E-02 0.264E-03
CGA:   6    -0.130696059744E+04   -0.60142E-03   -0.60055E-03 10640   0.232E-02 0.748E-04
CGA:   7    -0.130696077843E+04   -0.18099E-03   -0.18971E-03 10640   0.606E-03 0.217E-03
CGA:   8    -0.130696089501E+04   -0.11659E-03   -0.13650E-03 10640   0.102E-02-0.229E-03
CGA:   9    -0.130696094373E+04   -0.48717E-04   -0.41315E-04 10640   0.345E-03-0.126E-03
CGA:  10    -0.130696096396E+04   -0.20233E-04   -0.19072E-04 10640   0.230E-03-0.200E-04
CGA:  11    -0.130696098929E+04   -0.25324E-04   -0.25284E-04 10640   0.264E-03-0.530E-04
CGA:  12    -0.130696101282E+04   -0.23538E-04   -0.22613E-04 10640   0.182E-03-0.152E-03
CGA:  13    -0.130696102620E+04   -0.13381E-04   -0.13816E-04 10640   0.945E-04 0.107E-04
CGA:  14    -0.130696103778E+04   -0.11573E-04   -0.11568E-04 10640   0.221E-04 0.115E-04
CGA:  15    -0.130696104058E+04   -0.28075E-05   -0.28105E-05 10640   0.161E-04 0.177E-05
CGA:  16    -0.130696104469E+04   -0.41034E-05    0.44566E-04 10640   0.928E-05 0.812E-05
  14 F= -.13069610E+04 E0= -.13069442E+04  d E =-.750990E-03  mag=    47.0000
       N       E                     dE             d eps       ncg     rms          ort
SDA:   1    -0.130351523570E+04    0.34458E+01    0.00000E+00 10640   0.105E+02 0.000E+00
CGA:   2    -0.130537934933E+04   -0.18641E+01   -0.18623E+01 10640   0.883E+01 0.311E-01
CGA:   3    -0.130624732396E+04   -0.86797E+00   -0.86608E+00 10640   0.403E+01-0.133E-01
CGA:   4    -0.130671803511E+04   -0.47071E+00   -0.47074E+00 10640   0.209E+01 0.650E-02
CGA:   5    -0.130688490275E+04   -0.16687E+00   -0.16707E+00 10640   0.351E+00 0.414E-02
CGA:   6    -0.130691983690E+04   -0.34934E-01   -0.34926E-01 10640   0.179E+00-0.255E-03
CGA:   7    -0.130694184005E+04   -0.22003E-01   -0.21994E-01 10640   0.504E-01 0.226E-02
CGA:   8    -0.130694747279E+04   -0.56327E-02   -0.56221E-02 10640   0.334E-01-0.121E-02
CGA:   9    -0.130695148779E+04   -0.40150E-02   -0.40253E-02 10640   0.152E-01-0.195E-02
CGA:  10    -0.130695295542E+04   -0.14676E-02   -0.14505E-02 10640   0.635E-02-0.976E-03
CGA:  11    -0.130695401203E+04   -0.10566E-02   -0.13430E-02 10640   0.117E-01-0.264E-02
CGA:  12    -0.130695451123E+04   -0.49920E-03   -0.42239E-03 10640   0.340E-02-0.125E-02
CGA:  13    -0.130695475041E+04   -0.23918E-03   -0.22281E-03 10640   0.339E-02-0.350E-03
CGA:  14    -0.130695519685E+04   -0.44644E-03   -0.50605E-03 10640   0.552E-02-0.123E-02
CGA:  15    -0.130695549248E+04   -0.29563E-03   -0.22558E-03 10640   0.249E-02-0.126E-02
CGA:  16    -0.130695564995E+04   -0.15748E-03   -0.11575E-03 10640   0.156E-02-0.733E-03
CGA:  17    -0.130695561392E+04    0.36038E-04   -0.30985E-03 10640   0.997E-02-0.207E-02
CGA:  18    -0.130695618343E+04   -0.56952E-03   -0.55972E-03 10640   0.107E-02-0.130E-03
CGA:  19    -0.130695627693E+04   -0.93498E-04   -0.90065E-04 10640   0.618E-03-0.994E-04
CGA:  20    -0.130695639099E+04   -0.11405E-03   -0.22885E-03 10640   0.132E-02-0.396E-03
CGA:  21    -0.130695649530E+04   -0.10431E-03   -0.92304E-04 10640   0.462E-03-0.191E-03
CGA:  22    -0.130695655217E+04   -0.56872E-04   -0.58762E-04 10640   0.413E-03-0.961E-04
CGA:  23    -0.130695658788E+04   -0.35711E-04   -0.33017E-04 10640   0.104E-03-0.915E-04
CGA:  24    -0.130695661925E+04   -0.31365E-04    0.10213E-04 10640   0.748E-04 0.988E-05
CGA:  25    -0.130695664630E+04   -0.27049E-04    0.18771E-04 10640   0.279E-04 0.257E-04
CGA:  26    -0.130695666933E+04   -0.23037E-04    0.17362E-05 10640   0.196E-04 0.186E-04
CGA:  27    -0.130695668417E+04   -0.14840E-04    0.64632E-06 10640   0.223E-04 0.491E-05
CGA:  28    -0.130695670858E+04   -0.24412E-04    0.75140E-06 10640   0.161E-04 0.166E-04
CGA:  29    -0.130695671752E+04   -0.89401E-05    0.89238E-06 10640   0.203E-04 0.668E-06
  15 F= -.13069567E+04 E0= -.13069403E+04  d E =0.432716E-02  mag=    47.0000
       N       E                     dE             d eps       ncg     rms          ort
SDA:   1    -0.130547800389E+04    0.14787E+01    0.00000E+00 10640   0.435E+01 0.000E+00
CGA:   2    -0.130638763449E+04   -0.90963E+00   -0.90945E+00 10640   0.266E+01 0.295E-02
CGA:   3    -0.130670114011E+04   -0.31351E+00   -0.31349E+00 10640   0.182E+01 0.120E-02
CGA:   4    -0.130689398759E+04   -0.19285E+00   -0.19256E+00 10640   0.571E+00-0.612E-02
CGA:   5    -0.130693591316E+04   -0.41926E-01   -0.41800E-01 10640   0.123E+00-0.269E-02
CGA:   6    -0.130695204907E+04   -0.16136E-01   -0.16136E-01 10640   0.674E-01 0.126E-03
CGA:   7    -0.130695807793E+04   -0.60289E-02   -0.59944E-02 10640   0.215E-01-0.846E-03
CGA:   8    -0.130696058412E+04   -0.25062E-02   -0.25078E-02 10640   0.128E-01 0.224E-03
CGA:   9    -0.130696198310E+04   -0.13990E-02   -0.14067E-02 10640   0.361E-02 0.471E-03
CGA:  10    -0.130696251788E+04   -0.53479E-03   -0.53684E-03 10640   0.311E-02-0.107E-03
CGA:  11    -0.130696281147E+04   -0.29359E-03   -0.30295E-03 10640   0.816E-03 0.372E-03
CGA:  12    -0.130696291654E+04   -0.10507E-03   -0.10604E-03 10640   0.748E-03 0.114E-03
CGA:  13    -0.130696308993E+04   -0.17339E-03   -0.19534E-03 10640   0.934E-03-0.211E-03
CGA:  14    -0.130696312127E+04   -0.31334E-04   -0.37760E-04 10640   0.318E-03 0.866E-04
CGA:  15    -0.130696313808E+04   -0.16814E-04   -0.22442E-04 10640   0.288E-03 0.917E-04
CGA:  16    -0.130696319161E+04   -0.53532E-04   -0.52887E-04 10640   0.310E-03 0.309E-04
CGA:  17    -0.130696323130E+04   -0.39692E-04   -0.36543E-04 10640   0.240E-03-0.186E-03
CGA:  18    -0.130696323676E+04   -0.54597E-05   -0.11911E-04 10640   0.843E-04 0.884E-04
  16 F= -.13069632E+04 E0= -.13069465E+04  d E =-.651924E-02  mag=    47.0000
       N       E                     dE             d eps       ncg     rms          ort
SDA:   1    -0.130686088409E+04    0.10235E+00    0.00000E+00 10640   0.346E+00 0.000E+00
CGA:   2    -0.130690648376E+04   -0.45600E-01   -0.45582E-01 10640   0.352E+00 0.157E-02
CGA:   3    -0.130694044639E+04   -0.33963E-01   -0.33935E-01 10640   0.110E+00-0.140E-02
CGA:   4    -0.130695659925E+04   -0.16153E-01   -0.16169E-01 10640   0.683E-01-0.478E-03
CGA:   5    -0.130696156283E+04   -0.49636E-02   -0.49932E-02 10640   0.111E-01 0.719E-03
CGA:   6    -0.130696276599E+04   -0.12032E-02   -0.12017E-02 10640   0.599E-02-0.156E-03
CGA:   7    -0.130696344035E+04   -0.67436E-03   -0.67407E-03 10640   0.201E-02-0.257E-03
CGA:   8    -0.130696361117E+04   -0.17082E-03   -0.17406E-03 10640   0.785E-03 0.132E-03
CGA:   9    -0.130696376120E+04   -0.15002E-03   -0.17056E-03 10640   0.646E-03-0.228E-03
CGA:  10    -0.130696379747E+04   -0.36268E-04   -0.35055E-04 10640   0.224E-03-0.286E-04
CGA:  11    -0.130696382924E+04   -0.31771E-04   -0.33671E-04 10640   0.272E-03-0.468E-04
CGA:  12    -0.130696385562E+04   -0.26386E-04   -0.32470E-04 10640   0.199E-03-0.188E-03
CGA:  13    -0.130696387347E+04   -0.17847E-04   -0.18181E-04 10640   0.103E-03 0.118E-04
CGA:  14    -0.130696385024E+04    0.23230E-04   -0.41650E-04 10640   0.823E-03-0.245E-03
CGA:  15    -0.130696388977E+04   -0.39529E-04   -0.43134E-04 10640   0.142E-03 0.462E-04
CGA:  16    -0.130696391559E+04   -0.25820E-04   -0.26119E-04 10640   0.389E-04-0.641E-05
CGA:  17    -0.130696391246E+04    0.31254E-05   -0.84657E-05 10640   0.416E-03-0.118E-03
CGA:  18    -0.130696392699E+04   -0.14522E-04   -0.18033E-04 10640   0.155E-04 0.388E-04
CGA:  19    -0.130696392826E+04   -0.12727E-05   -0.13298E-05 10640   0.892E-05 0.112E-05
  17 F= -.13069639E+04 E0= -.13069473E+04  d E =-.691496E-03  mag=    47.0000
       N       E                     dE             d eps       ncg     rms          ort
SDA:   1    -0.130693407346E+04    0.29854E-01    0.00000E+00 10640   0.960E-01 0.000E+00
CGA:   2    -0.130695227186E+04   -0.18198E-01   -0.18166E-01 10640   0.556E-01 0.543E-03
CGA:   3    -0.130695846187E+04   -0.61900E-02   -0.61814E-02 10640   0.395E-01-0.411E-03
CGA:   4    -0.130696311911E+04   -0.46572E-02   -0.46583E-02 10640   0.110E-01 0.106E-03
CGA:   5    -0.130696399680E+04   -0.87769E-03   -0.88443E-03 10640   0.264E-02 0.151E-03
CGA:   6    -0.130696433905E+04   -0.34225E-03   -0.34240E-03 10640   0.156E-02-0.134E-03
CGA:   7    -0.130696445285E+04   -0.11380E-03   -0.11853E-03 10640   0.373E-03 0.102E-03
CGA:   8    -0.130696450198E+04   -0.49131E-04   -0.49154E-04 10640   0.289E-03 0.270E-04
CGA:   9    -0.130696453832E+04   -0.36341E-04   -0.36019E-04 10640   0.102E-03-0.377E-04
CGA:  10    -0.130696454490E+04   -0.65810E-05   -0.74818E-05 10640   0.400E-04 0.228E-04
  18 F= -.13069645E+04 E0= -.13069479E+04  d E =-.616644E-03  mag=    47.0000
       N       E                     dE             d eps       ncg     rms          ort
SDA:   1    -0.130693655415E+04    0.27984E-01    0.00000E+00 10640   0.962E-01 0.000E+00
CGA:   2    -0.130695005820E+04   -0.13504E-01   -0.13489E-01 10640   0.848E-01 0.892E-03
CGA:   3    -0.130695839232E+04   -0.83341E-02   -0.83257E-02 10640   0.318E-01-0.203E-03
CGA:   4    -0.130696268609E+04   -0.42938E-02   -0.42970E-02 10640   0.223E-01-0.240E-03
CGA:   5    -0.130696433067E+04   -0.16446E-02   -0.16525E-02 10640   0.262E-02 0.175E-03
CGA:   6    -0.130696468784E+04   -0.35717E-03   -0.35971E-03 10640   0.178E-02-0.167E-03
CGA:   7    -0.130696482658E+04   -0.13875E-03   -0.14170E-03 10640   0.452E-03 0.819E-04
CGA:   8    -0.130696488156E+04   -0.54973E-04   -0.54950E-04 10640   0.295E-03-0.618E-05
CGA:   9    -0.130696492305E+04   -0.41491E-04   -0.43299E-04 10640   0.152E-03-0.619E-04
CGA:  10    -0.130696492897E+04   -0.59223E-05   -0.75649E-05 10640   0.497E-04 0.283E-04
  19 F= -.13069649E+04 E0= -.13069483E+04  d E =-.384068E-03  mag=    47.0000
       N       E                     dE             d eps       ncg     rms          ort
SDA:   1    -0.130651704401E+04    0.44788E+00    0.00000E+00 10640   0.134E+01 0.000E+00
CGA:   2    -0.130677453802E+04   -0.25749E+00   -0.25726E+00 10640   0.102E+01 0.354E-02
CGA:   3    -0.130687446014E+04   -0.99922E-01   -0.99834E-01 10640   0.504E+00-0.211E-02
CGA:   4    -0.130694494195E+04   -0.70482E-01   -0.70448E-01 10640   0.156E+00 0.176E-02
CGA:   5    -0.130695619907E+04   -0.11257E-01   -0.11232E-01 10640   0.440E-01-0.501E-03
CGA:   6    -0.130696115219E+04   -0.49531E-02   -0.49497E-02 10640   0.203E-01-0.549E-03
CGA:   7    -0.130696313553E+04   -0.19833E-02   -0.19972E-02 10640   0.561E-02 0.757E-03
CGA:   8    -0.130696397600E+04   -0.84048E-03   -0.85720E-03 10640   0.559E-02-0.560E-03
CGA:   9    -0.130696439601E+04   -0.42000E-03   -0.41825E-03 10640   0.118E-02-0.449E-04
CGA:  10    -0.130696452805E+04   -0.13204E-03   -0.13263E-03 10640   0.781E-03 0.138E-03
CGA:  11    -0.130696463597E+04   -0.10792E-03   -0.24208E-03 10640   0.213E-02-0.836E-03
CGA:  12    -0.130696472601E+04   -0.90041E-04   -0.10738E-03 10640   0.333E-03 0.236E-03
CGA:  13    -0.130696478002E+04   -0.54011E-04   -0.53327E-04 10640   0.251E-03 0.297E-04
CGA:  14    -0.130696479477E+04   -0.14756E-04   -0.59883E-04 10640   0.107E-02-0.467E-03
CGA:  15    -0.130696483179E+04   -0.37017E-04   -0.51334E-04 10640   0.116E-03 0.182E-03
CGA:  16    -0.130696484660E+04   -0.14806E-04   -0.15094E-04 10640   0.103E-03 0.238E-04
CGA:  17    -0.130696487971E+04   -0.33110E-04    0.89452E-04 10640   0.320E-04-0.357E-04
CGA:  18    -0.130696488858E+04   -0.88710E-05    0.17756E-05 10640   0.300E-04 0.263E-05
  20 F= -.13069649E+04 E0= -.13069482E+04  d E =0.403922E-04  mag=    47.0000
       N       E                     dE             d eps       ncg     rms          ort
SDA:   1    -0.130690948020E+04    0.55400E-01    0.00000E+00 10640   0.184E+00 0.000E+00
CGA:   2    -0.130694137917E+04   -0.31899E-01   -0.31855E-01 10640   0.125E+00 0.907E-03
CGA:   3    -0.130695265850E+04   -0.11279E-01   -0.11228E-01 10640   0.694E-01-0.135E-02
CGA:   4    -0.130696266249E+04   -0.10004E-01   -0.10024E-01 10640   0.253E-01-0.916E-03
CGA:   5    -0.130696448842E+04   -0.18259E-02   -0.18441E-02 10640   0.528E-02 0.394E-03
CGA:   6    -0.130696517827E+04   -0.68984E-03   -0.69015E-03 10640   0.276E-02-0.421E-04
CGA:   7    -0.130696541196E+04   -0.23370E-03   -0.23183E-03 10640   0.969E-03-0.471E-04
CGA:   8    -0.130696550933E+04   -0.97373E-04   -0.99325E-04 10640   0.427E-03 0.121E-03
CGA:   9    -0.130696557519E+04   -0.65855E-04   -0.65747E-04 10640   0.147E-03 0.656E-05
CGA:  10    -0.130696559591E+04   -0.20717E-04   -0.20515E-04 10640   0.842E-04 0.122E-04
CGA:  11    -0.130696560601E+04   -0.10108E-04   -0.10224E-04 10640   0.350E-04 0.125E-04
CGA:  12    -0.130696561007E+04   -0.40527E-05   -0.41925E-05 10640   0.208E-04 0.838E-05
  21 F= -.13069656E+04 E0= -.13069490E+04  d E =-.721488E-03  mag=    47.0000
       N       E                     dE             d eps       ncg     rms          ort
SDA:   1    -0.130695727541E+04    0.83306E-02    0.00000E+00 10640   0.294E-01 0.000E+00
CGA:   2    -0.130696152147E+04   -0.42461E-02   -0.42540E-02 10640   0.281E-01-0.306E-03
CGA:   3    -0.130696404437E+04   -0.25229E-02   -0.25186E-02 10640   0.104E-01-0.127E-03
CGA:   4    -0.130696531223E+04   -0.12679E-02   -0.12672E-02 10640   0.567E-02 0.430E-03
CGA:   5    -0.130696583015E+04   -0.51792E-03   -0.52319E-03 10640   0.864E-03 0.169E-03
CGA:   6    -0.130696592353E+04   -0.93381E-04   -0.94436E-04 10640   0.370E-03 0.835E-04
CGA:   7    -0.130696596856E+04   -0.45032E-04   -0.45252E-04 10640   0.147E-03 0.338E-04
CGA:   8    -0.130696598423E+04   -0.15670E-04   -0.15793E-04 10640   0.775E-04 0.650E-05
CGA:   9    -0.130696599251E+04   -0.82824E-05   -0.23244E-04 10640   0.248E-03-0.877E-04
CGA:  10    -0.130696600324E+04   -0.10724E-04   -0.12008E-04 10640   0.299E-04 0.170E-04
CGA:  11    -0.130696600714E+04   -0.39015E-05   -0.38991E-05 10640   0.182E-04 0.466E-05
  22 F= -.13069660E+04 E0= -.13069494E+04  d E =-.397069E-03  mag=    47.0000
