       N       E                     dE             d eps       ncg     rms          rms(c)
DAV:   1     0.307402106174E+04    0.30740E+04   -0.25840E+05 73536   0.131E+03
DAV:   2    -0.610558166009E+03   -0.36846E+04   -0.35507E+04 89628   0.297E+02
DAV:   3    -0.872666306222E+03   -0.26211E+03   -0.26043E+03 89052   0.839E+01
DAV:   4    -0.875952456284E+03   -0.32862E+01   -0.32740E+01 89388   0.101E+01
DAV:   5    -0.876008469447E+03   -0.56013E-01   -0.55873E-01 91176   0.122E+00    0.991E+01
DAV:   6    -0.780210797123E+03    0.95798E+02   -0.40529E+02 82092   0.319E+01    0.502E+01
DAV:   7    -0.789367527507E+03   -0.91567E+01   -0.21765E+01 83016   0.765E+00    0.164E+01
DAV:   8    -0.793610651794E+03   -0.42431E+01   -0.16988E+00 85932   0.251E+00    0.780E+00
DAV:   9    -0.795855832447E+03   -0.22452E+01   -0.10716E+00 88704   0.172E+00    0.384E+00
DAV:  10    -0.796374228494E+03   -0.51840E+00   -0.30016E-01 83508   0.944E-01    0.113E+00
DAV:  11    -0.796446843928E+03   -0.72615E-01   -0.39834E-02 88452   0.350E-01    0.613E-01
DAV:  12    -0.796456754686E+03   -0.99108E-02   -0.53627E-03 84624   0.138E-01    0.271E-01
DAV:  13    -0.796458973249E+03   -0.22186E-02   -0.11307E-03 87684   0.627E-02    0.831E-02
DAV:  14    -0.796459384061E+03   -0.41081E-03   -0.29867E-04 83148   0.317E-02    0.425E-02
DAV:  15    -0.796459420054E+03   -0.35993E-04   -0.28454E-05 74328   0.146E-02    0.269E-02
DAV:  16    -0.796459435986E+03   -0.15931E-04   -0.19692E-05 60624   0.114E-02    0.948E-03
DAV:  17    -0.796459438561E+03   -0.25758E-05   -0.55636E-06 62112   0.636E-03
   1 F= -.79645944E+03 E0= -.79645944E+03  d E =-.796459E+03  mag=    -0.0015
