       N       E                     dE             d eps       ncg     rms          rms(c)
DAV:   1     0.103971506977E+05    0.10397E+05   -0.37670E+05 32080   0.141E+03
DAV:   2     0.530964017655E+03   -0.98662E+04   -0.93082E+04 31390   0.452E+02
DAV:   3    -0.853877471191E+03   -0.13848E+04   -0.12826E+04 34790   0.173E+02
DAV:   4    -0.938717674281E+03   -0.84840E+02   -0.82483E+02 39240   0.448E+01
DAV:   5    -0.941230239977E+03   -0.25126E+01   -0.25054E+01 38480   0.837E+00    0.188E+02
DAV:   6    -0.423161666465E+03    0.51807E+03   -0.12108E+03 38730   0.765E+01    0.897E+01
DAV:   7    -0.656519014544E+03   -0.23336E+03   -0.38530E+02 39820   0.576E+01    0.731E+01
DAV:   8    -0.689078114273E+03   -0.32559E+02   -0.49478E+01 41100   0.181E+01    0.491E+01
DAV:   9    -0.737987479538E+03   -0.48909E+02   -0.43002E+01 39510   0.138E+01    0.318E+01
DAV:  10    -0.778136493740E+03   -0.40149E+02   -0.45432E+01 40420   0.156E+01    0.290E+01
DAV:  11    -0.791714275895E+03   -0.13578E+02   -0.21967E+01 39880   0.106E+01    0.158E+01
DAV:  12    -0.794269524449E+03   -0.25552E+01   -0.57426E+00 39450   0.640E+00    0.987E+00
DAV:  13    -0.795404657682E+03   -0.11351E+01   -0.19401E+00 38700   0.370E+00    0.542E+00
DAV:  14    -0.795839941883E+03   -0.43528E+00   -0.52731E-01 35960   0.197E+00    0.328E+00
DAV:  15    -0.796031477445E+03   -0.19154E+00   -0.23900E-01 38910   0.138E+00    0.183E+00
DAV:  16    -0.796063363828E+03   -0.31886E-01   -0.80072E-02 36610   0.964E-01    0.110E+00
DAV:  17    -0.796072955935E+03   -0.95921E-02   -0.22307E-02 34770   0.462E-01    0.709E-01
DAV:  18    -0.796079548696E+03   -0.65928E-02   -0.62922E-03 33820   0.217E-01    0.567E-01
DAV:  19    -0.796086210121E+03   -0.66614E-02   -0.39854E-03 41070   0.189E-01    0.427E-01
DAV:  20    -0.796090839951E+03   -0.46298E-02   -0.34851E-03 38510   0.150E-01    0.356E-01
DAV:  21    -0.796093891497E+03   -0.30515E-02   -0.21804E-03 38900   0.119E-01    0.311E-01
DAV:  22    -0.796097241959E+03   -0.33505E-02   -0.21036E-03 41520   0.127E-01    0.270E-01
DAV:  23    -0.796101134114E+03   -0.38922E-02   -0.43463E-03 43540   0.192E-01    0.215E-01
DAV:  24    -0.796103801386E+03   -0.26673E-02   -0.53234E-03 40780   0.176E-01    0.181E-01
DAV:  25    -0.796105381114E+03   -0.15797E-02   -0.32419E-03 39620   0.139E-01    0.129E-01
DAV:  26    -0.796106269746E+03   -0.88863E-03   -0.17188E-03 36960   0.775E-02    0.102E-01
DAV:  27    -0.796106555802E+03   -0.28606E-03   -0.24166E-04 35140   0.325E-02    0.758E-02
DAV:  28    -0.796106779230E+03   -0.22343E-03   -0.20852E-04 40680   0.435E-02    0.584E-02
DAV:  29    -0.796106939500E+03   -0.16027E-03   -0.31611E-04 39540   0.442E-02    0.510E-02
DAV:  30    -0.796107038182E+03   -0.98682E-04   -0.13658E-04 33480   0.249E-02    0.429E-02
DAV:  31    -0.796107102098E+03   -0.63916E-04   -0.59568E-05 29380   0.203E-02    0.366E-02
DAV:  32    -0.796107163288E+03   -0.61189E-04   -0.86986E-05 35440   0.251E-02    0.264E-02
DAV:  33    -0.796107207751E+03   -0.44464E-04   -0.10788E-04 34500   0.254E-02    0.234E-02
DAV:  34    -0.796107230900E+03   -0.23149E-04   -0.47610E-05 23050   0.135E-02    0.173E-02
DAV:  35    -0.796107237308E+03   -0.64075E-05   -0.57760E-06 17330   0.639E-03
   1 F= -.79610724E+03 E0= -.79610724E+03  d E =-.796107E+03  mag=    46.9993
       N       E                     dE             d eps       ncg     rms          rms(c)
DAV:   1    -0.796112934595E+03   -0.57037E-02   -0.11239E-02 34580   0.263E-01    0.316E-02
DAV:   2    -0.796113002468E+03   -0.67873E-04   -0.67846E-04 33730   0.560E-02    0.437E-02
DAV:   3    -0.796113002382E+03    0.86671E-07   -0.25080E-05 26110   0.160E-02    0.222E-02
DAV:   4    -0.796113003429E+03   -0.10477E-05   -0.33369E-06 16710   0.550E-03
   2 F= -.79611300E+03 E0= -.79611300E+03  d E =-.576612E-02  mag=    46.9999
       N       E                     dE             d eps       ncg     rms          rms(c)
DAV:   1    -0.796115573707E+03   -0.25713E-02   -0.49750E+01 34040   0.175E+01    0.199E+00
DAV:   2    -0.796400381854E+03   -0.28481E+00   -0.29686E+00 33910   0.369E+00    0.283E+00
DAV:   3    -0.796398817846E+03    0.15640E-02   -0.11294E-01 37200   0.101E+00    0.154E+00
DAV:   4    -0.796398151477E+03    0.66637E-03   -0.11457E-02 41580   0.315E-01    0.137E+00
DAV:   5    -0.796395378988E+03    0.27725E-02   -0.15740E-02 41390   0.378E-01    0.447E-01
DAV:   6    -0.796395666952E+03   -0.28796E-03   -0.38186E-03 42130   0.177E-01    0.203E-01
DAV:   7    -0.796395729083E+03   -0.62131E-04   -0.12578E-03 41970   0.849E-02    0.146E-01
DAV:   8    -0.796395802144E+03   -0.73061E-04   -0.15119E-04 37880   0.430E-02    0.100E-01
DAV:   9    -0.796395910487E+03   -0.10834E-03   -0.12274E-04 41920   0.351E-02    0.691E-02
DAV:  10    -0.796396002246E+03   -0.91760E-04   -0.10616E-04 37860   0.255E-02    0.551E-02
DAV:  11    -0.796396061305E+03   -0.59059E-04   -0.50876E-05 27260   0.167E-02    0.488E-02
DAV:  12    -0.796396145836E+03   -0.84531E-04   -0.52549E-05 31870   0.228E-02    0.415E-02
DAV:  13    -0.796396233084E+03   -0.87248E-04   -0.14575E-04 37680   0.335E-02    0.318E-02
DAV:  14    -0.796396283940E+03   -0.50856E-04   -0.11928E-04 35100   0.249E-02    0.260E-02
DAV:  15    -0.796396308934E+03   -0.24994E-04   -0.44571E-05 27140   0.155E-02    0.188E-02
DAV:  16    -0.796396321634E+03   -0.12699E-04   -0.26915E-05 24540   0.108E-02    0.125E-02
DAV:  17    -0.796396328170E+03   -0.65362E-05   -0.10300E-05 21260   0.722E-03
   3 F= -.79639633E+03 E0= -.79639633E+03  d E =-.283325E+00  mag=    47.0000
       N       E                     dE             d eps       ncg     rms          rms(c)
DAV:   1    -0.796193364584E+03    0.20296E+00   -0.79741E+01 33760   0.196E+01    0.228E+00
DAV:   2    -0.796553607242E+03   -0.36024E+00   -0.37516E+00 34230   0.421E+00    0.351E+00
DAV:   3    -0.796546489032E+03    0.71182E-02   -0.12383E-01 34330   0.109E+00    0.204E+00
DAV:   4    -0.796543380368E+03    0.31087E-02   -0.12726E-02 39380   0.318E-01    0.176E+00
DAV:   5    -0.796539177925E+03    0.42024E-02   -0.18486E-02 42050   0.390E-01    0.623E-01
DAV:   6    -0.796539538373E+03   -0.36045E-03   -0.54569E-03 42260   0.201E-01    0.272E-01
DAV:   7    -0.796539563010E+03   -0.24637E-04   -0.97971E-04 39190   0.864E-02    0.205E-01
DAV:   8    -0.796539658449E+03   -0.95439E-04   -0.20724E-04 39640   0.488E-02    0.138E-01
DAV:   9    -0.796539814267E+03   -0.15582E-03   -0.26492E-04 42640   0.470E-02    0.780E-02
DAV:  10    -0.796539922479E+03   -0.10821E-03   -0.16872E-04 37680   0.281E-02    0.672E-02
DAV:  11    -0.796540023079E+03   -0.10060E-03   -0.48905E-05 31090   0.201E-02    0.589E-02
DAV:  12    -0.796540170586E+03   -0.14751E-03   -0.13157E-04 37320   0.335E-02    0.468E-02
DAV:  13    -0.796540286551E+03   -0.11597E-03   -0.23276E-04 41450   0.415E-02    0.387E-02
DAV:  14    -0.796540349036E+03   -0.62484E-04   -0.12627E-04 36130   0.254E-02    0.301E-02
DAV:  15    -0.796540377193E+03   -0.28157E-04   -0.45782E-05 26610   0.157E-02    0.225E-02
DAV:  16    -0.796540391954E+03   -0.14761E-04   -0.28482E-05 25880   0.109E-02    0.152E-02
DAV:  17    -0.796540399999E+03   -0.80450E-05   -0.11206E-05 20990   0.796E-03
   4 F= -.79654040E+03 E0= -.79654040E+03  d E =-.144072E+00  mag=    47.0000
       N       E                     dE             d eps       ncg     rms          rms(c)
DAV:   1    -0.796477459463E+03    0.62932E-01   -0.10454E+01 34800   0.922E+00    0.106E+00
DAV:   2    -0.796564432551E+03   -0.86973E-01   -0.88331E-01 33320   0.177E+00    0.861E-01
DAV:   3    -0.796567483180E+03   -0.30506E-02   -0.21362E-02 38950   0.394E-01    0.448E-01
DAV:   4    -0.796567183925E+03    0.29925E-03   -0.22303E-03 44730   0.159E-01    0.382E-01
DAV:   5    -0.796567076030E+03    0.10789E-03   -0.18864E-03 42550   0.125E-01    0.115E-01
DAV:   6    -0.796567209706E+03   -0.13368E-03   -0.45370E-04 39060   0.546E-02    0.699E-02
DAV:   7    -0.796567240511E+03   -0.30804E-04   -0.94694E-05 36280   0.240E-02    0.518E-02
DAV:   8    -0.796567270114E+03   -0.29604E-04   -0.20415E-05 23180   0.160E-02    0.406E-02
DAV:   9    -0.796567306156E+03   -0.36042E-04   -0.31148E-05 29100   0.165E-02    0.331E-02
DAV:  10    -0.796567333314E+03   -0.27158E-04   -0.26638E-05 24400   0.127E-02    0.281E-02
DAV:  11    -0.796567357677E+03   -0.24363E-04   -0.17824E-05 22620   0.110E-02    0.233E-02
DAV:  12    -0.796567386828E+03   -0.29150E-04   -0.33007E-05 31290   0.190E-02    0.169E-02
DAV:  13    -0.796567404691E+03   -0.17864E-04   -0.77465E-05 32510   0.178E-02    0.124E-02
DAV:  14    -0.796567413848E+03   -0.91570E-05   -0.21664E-05 21180   0.901E-03
   5 F= -.79656741E+03 E0= -.79656741E+03  d E =-.270138E-01  mag=    47.0000
       N       E                     dE             d eps       ncg     rms          rms(c)
DAV:   1    -0.796463622837E+03    0.10378E+00   -0.15962E+01 34410   0.108E+01    0.120E+00
DAV:   2    -0.796577356807E+03   -0.11373E+00   -0.11620E+00 33250   0.204E+00    0.844E-01
DAV:   3    -0.796581374346E+03   -0.40175E-02   -0.25522E-02 38920   0.409E-01    0.462E-01
DAV:   4    -0.796580891863E+03    0.48248E-03   -0.27473E-03 44260   0.178E-01    0.377E-01
DAV:   5    -0.796580837373E+03    0.54491E-04   -0.21698E-03 44150   0.138E-01    0.127E-01
DAV:   6    -0.796581032567E+03   -0.19519E-03   -0.62448E-04 39500   0.684E-02    0.868E-02
DAV:   7    -0.796581078149E+03   -0.45582E-04   -0.11021E-04 36380   0.290E-02    0.622E-02
DAV:   8    -0.796581136649E+03   -0.58500E-04   -0.37542E-05 30060   0.203E-02    0.514E-02
DAV:   9    -0.796581203841E+03   -0.67192E-04   -0.56719E-05 34910   0.209E-02    0.415E-02
DAV:  10    -0.796581246211E+03   -0.42370E-04   -0.39433E-05 24190   0.152E-02    0.362E-02
DAV:  11    -0.796581296812E+03   -0.50601E-04   -0.37653E-05 30550   0.186E-02    0.295E-02
DAV:  12    -0.796581345405E+03   -0.48594E-04   -0.10605E-04 36460   0.294E-02    0.202E-02
DAV:  13    -0.796581372081E+03   -0.26675E-04   -0.92378E-05 33410   0.207E-02    0.158E-02
DAV:  14    -0.796581383406E+03   -0.11325E-04   -0.22094E-05 20420   0.894E-03    0.105E-02
DAV:  15    -0.796581386078E+03   -0.26720E-05   -0.33594E-06 16800   0.427E-03
   6 F= -.79658139E+03 E0= -.79658139E+03  d E =-.139722E-01  mag=    47.0000
       N       E                     dE             d eps       ncg     rms          rms(c)
DAV:   1    -0.796424997321E+03    0.15639E+00   -0.22900E+01 33690   0.121E+01    0.133E+00
DAV:   2    -0.796565292702E+03   -0.14030E+00   -0.14400E+00 33050   0.226E+00    0.848E-01
DAV:   3    -0.796570283403E+03   -0.49907E-02   -0.29792E-02 38740   0.416E-01    0.476E-01
DAV:   4    -0.796569633896E+03    0.64951E-03   -0.30037E-03 44490   0.169E-01    0.365E-01
DAV:   5    -0.796569668996E+03   -0.35100E-04   -0.22958E-03 41190   0.139E-01    0.135E-01
DAV:   6    -0.796569902326E+03   -0.23333E-03   -0.74217E-04 39660   0.753E-02    0.945E-02
DAV:   7    -0.796569958606E+03   -0.56280E-04   -0.11573E-04 36480   0.323E-02    0.700E-02
DAV:   8    -0.796570050548E+03   -0.91942E-04   -0.64787E-05 35070   0.246E-02    0.571E-02
DAV:   9    -0.796570141400E+03   -0.90852E-04   -0.74866E-05 36000   0.233E-02    0.479E-02
DAV:  10    -0.796570194262E+03   -0.52862E-04   -0.45438E-05 26230   0.160E-02    0.419E-02
DAV:  11    -0.796570269567E+03   -0.75304E-04   -0.57175E-05 33410   0.243E-02    0.332E-02
DAV:  12    -0.796570333537E+03   -0.63971E-04   -0.19088E-04 38470   0.365E-02    0.221E-02
DAV:  13    -0.796570369621E+03   -0.36084E-04   -0.10703E-04 34160   0.216E-02    0.181E-02
DAV:  14    -0.796570382507E+03   -0.12886E-04   -0.22008E-05 20280   0.923E-03    0.121E-02
DAV:  15    -0.796570386374E+03   -0.38663E-05   -0.49628E-06 17560   0.507E-03
   7 F= -.79657039E+03 E0= -.79657039E+03  d E =0.109997E-01  mag=    47.0000
       N       E                     dE             d eps       ncg     rms          rms(c)
DAV:   1    -0.796295602418E+03    0.27478E+00   -0.32762E+01 34050   0.148E+01    0.166E+00
DAV:   2    -0.796522335387E+03   -0.22673E+00   -0.23163E+00 32860   0.276E+00    0.970E-01
DAV:   3    -0.796531435918E+03   -0.91005E-02   -0.48176E-02 39080   0.491E-01    0.548E-01
DAV:   4    -0.796530587644E+03    0.84827E-03   -0.43755E-03 44960   0.185E-01    0.394E-01
DAV:   5    -0.796530729661E+03   -0.14202E-03   -0.28275E-03 42010   0.159E-01    0.150E-01
DAV:   6    -0.796530997778E+03   -0.26812E-03   -0.90330E-04 40890   0.870E-02    0.101E-01
DAV:   7    -0.796531057518E+03   -0.59740E-04   -0.16400E-04 39240   0.388E-02    0.734E-02
DAV:   8    -0.796531149343E+03   -0.91825E-04   -0.72694E-05 35480   0.256E-02    0.583E-02
DAV:   9    -0.796531236846E+03   -0.87503E-04   -0.71242E-05 35130   0.218E-02    0.496E-02
DAV:  10    -0.796531288835E+03   -0.51988E-04   -0.41859E-05 26170   0.156E-02    0.435E-02
DAV:  11    -0.796531358551E+03   -0.69716E-04   -0.49789E-05 31850   0.215E-02    0.358E-02
DAV:  12    -0.796531432510E+03   -0.73960E-04   -0.17952E-04 40110   0.382E-02    0.238E-02
DAV:  13    -0.796531473186E+03   -0.40675E-04   -0.13833E-04 37130   0.251E-02    0.197E-02
DAV:  14    -0.796531489045E+03   -0.15859E-04   -0.28380E-05 22050   0.109E-02    0.128E-02
DAV:  15    -0.796531494434E+03   -0.53895E-05   -0.82581E-06 19070   0.588E-03
   8 F= -.79653149E+03 E0= -.79653149E+03  d E =0.388919E-01  mag=    47.0000
       N       E                     dE             d eps       ncg     rms          rms(c)
DAV:   1    -0.796359748085E+03    0.17174E+00   -0.18843E+01 34290   0.120E+01    0.134E+00
DAV:   2    -0.796503358929E+03   -0.14361E+00   -0.14694E+00 33160   0.224E+00    0.794E-01
DAV:   3    -0.796509692585E+03   -0.63337E-02   -0.31249E-02 38920   0.421E-01    0.437E-01
DAV:   4    -0.796509237759E+03    0.45483E-03   -0.28482E-03 43910   0.161E-01    0.317E-01
DAV:   5    -0.796509312657E+03   -0.74899E-04   -0.18721E-03 41860   0.130E-01    0.119E-01
DAV:   6    -0.796509485777E+03   -0.17312E-03   -0.58502E-04 41390   0.715E-02    0.797E-02
DAV:   7    -0.796509519193E+03   -0.33416E-04   -0.10832E-04 35910   0.314E-02    0.547E-02
DAV:   8    -0.796509566530E+03   -0.47338E-04   -0.35902E-05 27840   0.190E-02    0.438E-02
DAV:   9    -0.796509613639E+03   -0.47108E-04   -0.41410E-05 31390   0.170E-02    0.362E-02
DAV:  10    -0.796509640764E+03   -0.27125E-04   -0.25380E-05 23780   0.125E-02    0.319E-02
DAV:  11    -0.796509674548E+03   -0.33784E-04   -0.20584E-05 24370   0.143E-02    0.268E-02
DAV:  12    -0.796509715125E+03   -0.40578E-04   -0.92359E-05 36270   0.268E-02    0.179E-02
DAV:  13    -0.796509738906E+03   -0.23781E-04   -0.90047E-05 30670   0.190E-02    0.145E-02
DAV:  14    -0.796509748938E+03   -0.10032E-04   -0.19348E-05 20980   0.879E-03    0.941E-03
DAV:  15    -0.796509751985E+03   -0.30475E-05   -0.47292E-06 17700   0.484E-03
   9 F= -.79650975E+03 E0= -.79650975E+03  d E =0.217424E-01  mag=    47.0000
       N       E                     dE             d eps       ncg     rms          rms(c)
DAV:   1    -0.796175730770E+03    0.33402E+00   -0.33760E+01 34520   0.171E+01    0.196E+00
DAV:   2    -0.796471306962E+03   -0.29558E+00   -0.30187E+00 33180   0.326E+00    0.123E+00
DAV:   3    -0.796484739177E+03   -0.13432E-01   -0.67477E-02 38890   0.645E-01    0.679E-01
DAV:   4    -0.796484023646E+03    0.71553E-03   -0.64181E-03 43570   0.256E-01    0.515E-01
DAV:   5    -0.796484212646E+03   -0.18900E-03   -0.43460E-03 43330   0.203E-01    0.190E-01
DAV:   6    -0.796484628317E+03   -0.41567E-03   -0.13303E-03 41340   0.109E-01    0.123E-01
DAV:   7    -0.796484711207E+03   -0.82890E-04   -0.25810E-04 39370   0.470E-02    0.842E-02
DAV:   8    -0.796484821638E+03   -0.11043E-03   -0.85662E-05 36530   0.290E-02    0.685E-02
DAV:   9    -0.796484939179E+03   -0.11754E-03   -0.90620E-05 35720   0.265E-02    0.561E-02
DAV:  10    -0.796485009467E+03   -0.70288E-04   -0.66393E-05 29110   0.194E-02    0.484E-02
DAV:  11    -0.796485099897E+03   -0.90430E-04   -0.67767E-05 33570   0.244E-02    0.393E-02
DAV:  12    -0.796485188830E+03   -0.88933E-04   -0.17034E-04 39290   0.378E-02    0.279E-02
DAV:  13    -0.796485237878E+03   -0.49048E-04   -0.14635E-04 35690   0.273E-02    0.219E-02
DAV:  14    -0.796485259411E+03   -0.21533E-04   -0.38553E-05 23950   0.129E-02    0.153E-02
DAV:  15    -0.796485266462E+03   -0.70516E-05   -0.97251E-06 19080   0.629E-03
  10 F= -.79648527E+03 E0= -.79648527E+03  d E =0.244855E-01  mag=    47.0000
       N       E                     dE             d eps       ncg     rms          rms(c)
DAV:   1    -0.796431527523E+03    0.53732E-01   -0.81319E+00 33840   0.782E+00    0.865E-01
DAV:   2    -0.796491108840E+03   -0.59581E-01   -0.60877E-01 33110   0.147E+00    0.516E-01
DAV:   3    -0.796493492071E+03   -0.23832E-02   -0.13729E-02 38210   0.276E-01    0.300E-01
DAV:   4    -0.796493220974E+03    0.27110E-03   -0.12730E-03 44470   0.104E-01    0.215E-01
DAV:   5    -0.796493216550E+03    0.44245E-05   -0.93990E-04 40830   0.902E-02    0.868E-02
DAV:   6    -0.796493301621E+03   -0.85072E-04   -0.29094E-04 40370   0.493E-02    0.601E-02
DAV:   7    -0.796493327650E+03   -0.26029E-04   -0.62222E-05 33020   0.223E-02    0.450E-02
DAV:   8    -0.796493363923E+03   -0.36273E-04   -0.23530E-05 23280   0.152E-02    0.374E-02
DAV:   9    -0.796493404024E+03   -0.40101E-04   -0.33935E-05 29600   0.152E-02    0.307E-02
DAV:  10    -0.796493428395E+03   -0.24370E-04   -0.24056E-05 22570   0.109E-02    0.268E-02
DAV:  11    -0.796493453439E+03   -0.25045E-04   -0.16636E-05 24400   0.130E-02    0.223E-02
DAV:  12    -0.796493482318E+03   -0.28878E-04   -0.67522E-05 34830   0.232E-02    0.146E-02
DAV:  13    -0.796493499067E+03   -0.16749E-04   -0.63314E-05 26850   0.155E-02    0.121E-02
DAV:  14    -0.796493505548E+03   -0.64811E-05   -0.11367E-05 20800   0.716E-03
  11 F= -.79649351E+03 E0= -.79649351E+03  d E =-.823909E-02  mag=    47.0000
       N       E                     dE             d eps       ncg     rms          rms(c)
DAV:   1    -0.796453818081E+03    0.39681E-01   -0.56396E+00 34580   0.683E+00    0.759E-01
DAV:   2    -0.796499625509E+03   -0.45807E-01   -0.46884E-01 33310   0.129E+00    0.508E-01
DAV:   3    -0.796501353908E+03   -0.17284E-02   -0.10122E-02 38550   0.251E-01    0.285E-01
DAV:   4    -0.796501169117E+03    0.18479E-03   -0.10677E-03 44160   0.107E-01    0.223E-01
DAV:   5    -0.796501172962E+03   -0.38444E-05   -0.80755E-04 44430   0.836E-02    0.780E-02
DAV:   6    -0.796501241376E+03   -0.68415E-04   -0.23167E-04 39780   0.429E-02    0.537E-02
DAV:   7    -0.796501260113E+03   -0.18737E-04   -0.45618E-05 29600   0.189E-02    0.391E-02
DAV:   8    -0.796501283215E+03   -0.23102E-04   -0.16006E-05 19320   0.131E-02    0.326E-02
DAV:   9    -0.796501309252E+03   -0.26037E-04   -0.23086E-05 26460   0.130E-02    0.264E-02
DAV:  10    -0.796501326871E+03   -0.17619E-04   -0.18303E-05 20930   0.103E-02    0.226E-02
DAV:  11    -0.796501345730E+03   -0.18859E-04   -0.14243E-05 21200   0.118E-02    0.182E-02
DAV:  12    -0.796501364193E+03   -0.18462E-04   -0.46649E-05 31220   0.176E-02    0.125E-02
DAV:  13    -0.796501374048E+03   -0.98555E-05   -0.33286E-05 23740   0.115E-02
  12 F= -.79650137E+03 E0= -.79650137E+03  d E =-.786850E-02  mag=    47.0000
       N       E                     dE             d eps       ncg     rms          rms(c)
DAV:   1    -0.796338022514E+03    0.16334E+00   -0.18912E+01 34050   0.119E+01    0.132E+00
DAV:   2    -0.796476503328E+03   -0.13848E+00   -0.14191E+00 33200   0.225E+00    0.885E-01
DAV:   3    -0.796481581144E+03   -0.50778E-02   -0.30254E-02 39100   0.439E-01    0.494E-01
DAV:   4    -0.796481059681E+03    0.52146E-03   -0.32743E-03 43870   0.185E-01    0.389E-01
DAV:   5    -0.796481182252E+03   -0.12257E-03   -0.25358E-03 43620   0.144E-01    0.143E-01
DAV:   6    -0.796481448047E+03   -0.26580E-03   -0.75209E-04 39330   0.732E-02    0.106E-01
DAV:   7    -0.796481543378E+03   -0.95331E-04   -0.14856E-04 37770   0.330E-02    0.830E-02
DAV:   8    -0.796481672495E+03   -0.12912E-03   -0.71949E-05 34790   0.271E-02    0.696E-02
DAV:   9    -0.796481819975E+03   -0.14748E-03   -0.11374E-04 38060   0.304E-02    0.577E-02
DAV:  10    -0.796481915180E+03   -0.95205E-04   -0.94756E-05 31900   0.232E-02    0.505E-02
DAV:  11    -0.796482026234E+03   -0.11105E-03   -0.11598E-04 38070   0.318E-02    0.380E-02
DAV:  12    -0.796482107284E+03   -0.81050E-04   -0.21107E-04 39330   0.412E-02    0.271E-02
DAV:  13    -0.796482150516E+03   -0.43232E-04   -0.14462E-04 35750   0.259E-02    0.193E-02
DAV:  14    -0.796482167288E+03   -0.16772E-04   -0.34459E-05 21780   0.109E-02    0.137E-02
DAV:  15    -0.796482170589E+03   -0.33011E-05   -0.36014E-06 17100   0.479E-03
  13 F= -.79648217E+03 E0= -.79648217E+03  d E =0.192035E-01  mag=    47.0000
       N       E                     dE             d eps       ncg     rms          rms(c)
DAV:   1    -0.796470703518E+03    0.11464E-01   -0.21473E+00 34330   0.426E+00    0.479E-01
DAV:   2    -0.796489242340E+03   -0.18539E-01   -0.18860E-01 33290   0.814E-01    0.327E-01
DAV:   3    -0.796489954888E+03   -0.71255E-03   -0.41717E-03 38610   0.162E-01    0.184E-01
DAV:   4    -0.796489876858E+03    0.78030E-04   -0.43127E-04 44360   0.674E-02    0.142E-01
DAV:   5    -0.796489875929E+03    0.92993E-06   -0.33451E-04 42250   0.550E-02    0.507E-02
DAV:   6    -0.796489903632E+03   -0.27704E-04   -0.94987E-05 37180   0.282E-02    0.350E-02
DAV:   7    -0.796489911805E+03   -0.81724E-05   -0.19009E-05 20700   0.129E-02
  14 F= -.79648991E+03 E0= -.79648991E+03  d E =-.774122E-02  mag=    47.0000
       N       E                     dE             d eps       ncg     rms          rms(c)
DAV:   1    -0.796425258854E+03    0.64645E-01   -0.85976E+00 34080   0.801E+00    0.889E-01
DAV:   2    -0.796490221684E+03   -0.64963E-01   -0.65786E-01 33230   0.152E+00    0.579E-01
DAV:   3    -0.796492644009E+03   -0.24223E-02   -0.13682E-02 38620   0.292E-01    0.329E-01
DAV:   4    -0.796492440172E+03    0.20384E-03   -0.14057E-03 44070   0.121E-01    0.252E-01
DAV:   5    -0.796492529605E+03   -0.89433E-04   -0.10947E-03 42430   0.101E-01    0.100E-01
DAV:   6    -0.796492668142E+03   -0.13854E-03   -0.34647E-04 39580   0.516E-02    0.753E-02
DAV:   7    -0.796492724229E+03   -0.56087E-04   -0.68602E-05 33660   0.244E-02    0.605E-02
DAV:   8    -0.796492809025E+03   -0.84797E-04   -0.51934E-05 32390   0.218E-02    0.507E-02
DAV:   9    -0.796492897895E+03   -0.88869E-04   -0.80980E-05 35820   0.244E-02    0.419E-02
DAV:  10    -0.796492950348E+03   -0.52454E-04   -0.55873E-05 28410   0.174E-02    0.365E-02
DAV:  11    -0.796493005480E+03   -0.55132E-04   -0.53176E-05 33110   0.213E-02    0.283E-02
DAV:  12    -0.796493050068E+03   -0.44587E-04   -0.14180E-04 38740   0.331E-02    0.180E-02
DAV:  13    -0.796493075121E+03   -0.25053E-04   -0.93712E-05 30520   0.191E-02    0.145E-02
DAV:  14    -0.796493082848E+03   -0.77278E-05   -0.15461E-05 19280   0.729E-03
  15 F= -.79649308E+03 E0= -.79649308E+03  d E =-.317104E-02  mag=    47.0000
       N       E                     dE             d eps       ncg     rms          rms(c)
DAV:   1    -0.796480273948E+03    0.12801E-01   -0.20672E+00 34210   0.386E+00    0.423E-01
DAV:   2    -0.796494447890E+03   -0.14174E-01   -0.14562E-01 33250   0.721E-01    0.280E-01
DAV:   3    -0.796494967736E+03   -0.51985E-03   -0.29957E-03 38720   0.139E-01    0.158E-01
DAV:   4    -0.796494918048E+03    0.49687E-04   -0.33344E-04 43740   0.609E-02    0.124E-01
DAV:   5    -0.796494936583E+03   -0.18534E-04   -0.26272E-04 42370   0.476E-02    0.481E-02
DAV:   6    -0.796494969551E+03   -0.32969E-04   -0.82573E-05 36700   0.246E-02    0.365E-02
DAV:   7    -0.796494981833E+03   -0.12281E-04   -0.14228E-05 20150   0.115E-02    0.293E-02
DAV:   8    -0.796495001494E+03   -0.19661E-04   -0.12449E-05 20320   0.111E-02    0.250E-02
DAV:   9    -0.796495019514E+03   -0.18020E-04   -0.21709E-05 24590   0.105E-02    0.203E-02
DAV:  10    -0.796495032835E+03   -0.13320E-04   -0.12322E-05 21050   0.898E-03    0.179E-02
DAV:  11    -0.796495046911E+03   -0.14077E-04   -0.18813E-05 24550   0.116E-02    0.133E-02
DAV:  12    -0.796495056922E+03   -0.10011E-04   -0.40244E-05 31140   0.163E-02    0.882E-03
DAV:  13    -0.796495063264E+03   -0.63421E-05   -0.24775E-05 21990   0.908E-03
  16 F= -.79649506E+03 E0= -.79649506E+03  d E =-.198042E-02  mag=    47.0000
       N       E                     dE             d eps       ncg     rms          rms(c)
DAV:   1    -0.796490721486E+03    0.43354E-02   -0.18741E+00 33880   0.349E+00    0.393E-01
DAV:   2    -0.796502878464E+03   -0.12157E-01   -0.12316E-01 33280   0.658E-01    0.257E-01
DAV:   3    -0.796503303679E+03   -0.42521E-03   -0.25966E-03 38400   0.132E-01    0.146E-01
DAV:   4    -0.796503269876E+03    0.33802E-04   -0.28168E-04 42590   0.550E-02    0.112E-01
DAV:   5    -0.796503303272E+03   -0.33395E-04   -0.24625E-04 41230   0.437E-02    0.504E-02
DAV:   6    -0.796503342543E+03   -0.39271E-04   -0.79277E-05 36040   0.218E-02    0.409E-02
DAV:   7    -0.796503362824E+03   -0.20281E-04   -0.15417E-05 21150   0.109E-02    0.353E-02
DAV:   8    -0.796503400018E+03   -0.37194E-04   -0.21979E-05 26580   0.148E-02    0.293E-02
DAV:   9    -0.796503431926E+03   -0.31908E-04   -0.45553E-05 29600   0.145E-02    0.239E-02
DAV:  10    -0.796503453903E+03   -0.21977E-04   -0.25200E-05 24570   0.122E-02    0.206E-02
DAV:  11    -0.796503473099E+03   -0.19196E-04   -0.35016E-05 28610   0.149E-02    0.145E-02
DAV:  12    -0.796503484449E+03   -0.11349E-04   -0.51609E-05 33610   0.185E-02    0.952E-03
DAV:  13    -0.796503492425E+03   -0.79759E-05   -0.28835E-05 22490   0.983E-03
  17 F= -.79650349E+03 E0= -.79650349E+03  d E =-.842916E-02  mag=    47.0000
       N       E                     dE             d eps       ncg     rms          rms(c)
DAV:   1    -0.796422301179E+03    0.81183E-01   -0.16323E+01 33860   0.102E+01    0.116E+00
DAV:   2    -0.796530266738E+03   -0.10797E+00   -0.10919E+00 33260   0.193E+00    0.723E-01
DAV:   3    -0.796534189062E+03   -0.39223E-02   -0.22269E-02 38780   0.374E-01    0.415E-01
DAV:   4    -0.796533935082E+03    0.25398E-03   -0.23135E-03 42840   0.154E-01    0.311E-01
DAV:   5    -0.796534210486E+03   -0.27540E-03   -0.18768E-03 41280   0.127E-01    0.143E-01
DAV:   6    -0.796534528873E+03   -0.31839E-03   -0.64755E-04 38760   0.631E-02    0.113E-01
DAV:   7    -0.796534684634E+03   -0.15576E-03   -0.12883E-04 36300   0.311E-02    0.959E-02
DAV:   8    -0.796534979912E+03   -0.29528E-03   -0.21115E-04 42390   0.423E-02    0.772E-02
DAV:   9    -0.796535213304E+03   -0.23339E-03   -0.26725E-04 41230   0.407E-02    0.646E-02
DAV:  10    -0.796535350312E+03   -0.13701E-03   -0.13764E-04 36890   0.290E-02    0.560E-02
DAV:  11    -0.796535482860E+03   -0.13255E-03   -0.17320E-04 38690   0.354E-02    0.417E-02
DAV:  12    -0.796535567939E+03   -0.85080E-04   -0.37837E-04 42120   0.535E-02    0.275E-02
DAV:  13    -0.796535630743E+03   -0.62804E-04   -0.21585E-04 36440   0.270E-02    0.209E-02
DAV:  14    -0.796535643828E+03   -0.13084E-04   -0.17066E-05 20590   0.804E-03    0.156E-02
DAV:  15    -0.796535645382E+03   -0.15542E-05   -0.12793E-06 16610   0.372E-03
  18 F= -.79653565E+03 E0= -.79653565E+03  d E =-.321530E-01  mag=    47.0000
       N       E                     dE             d eps       ncg     rms          rms(c)
DAV:   1    -0.796452465848E+03    0.83178E-01   -0.67866E+00 35270   0.891E+00    0.108E+00
DAV:   2    -0.796541157357E+03   -0.88692E-01   -0.91977E-01 33310   0.175E+00    0.676E-01
DAV:   3    -0.796545832700E+03   -0.46753E-02   -0.26938E-02 38490   0.394E-01    0.383E-01
DAV:   4    -0.796545500902E+03    0.33180E-03   -0.23960E-03 43970   0.142E-01    0.268E-01
DAV:   5    -0.796545430661E+03    0.70241E-04   -0.16247E-03 40270   0.114E-01    0.107E-01
DAV:   6    -0.796545513007E+03   -0.82346E-04   -0.37532E-04 40010   0.619E-02    0.650E-02
DAV:   7    -0.796545535480E+03   -0.22473E-04   -0.12583E-04 39920   0.280E-02    0.425E-02
DAV:   8    -0.796545556477E+03   -0.20997E-04   -0.19533E-05 23100   0.144E-02    0.339E-02
DAV:   9    -0.796545581295E+03   -0.24818E-04   -0.18503E-05 23160   0.118E-02    0.271E-02
DAV:  10    -0.796545598777E+03   -0.17482E-04   -0.14115E-05 21650   0.908E-03    0.236E-02
DAV:  11    -0.796545615060E+03   -0.16283E-04   -0.81322E-06 18280   0.815E-03    0.211E-02
DAV:  12    -0.796545639635E+03   -0.24575E-04   -0.22744E-05 28080   0.131E-02    0.171E-02
DAV:  13    -0.796545661043E+03   -0.21408E-04   -0.51758E-05 30440   0.167E-02    0.137E-02
DAV:  14    -0.796545675607E+03   -0.14564E-04   -0.37447E-05 25240   0.119E-02    0.106E-02
DAV:  15    -0.796545682761E+03   -0.71541E-05   -0.10458E-05 21190   0.624E-03
  19 F= -.79654568E+03 E0= -.79654568E+03  d E =-.100374E-01  mag=    47.0000
       N       E                     dE             d eps       ncg     rms          rms(c)
DAV:   1    -0.796529894247E+03    0.15781E-01   -0.13244E+00 35170   0.436E+00    0.558E-01
DAV:   2    -0.796553603868E+03   -0.23710E-01   -0.25015E-01 33580   0.886E-01    0.385E-01
DAV:   3    -0.796554914769E+03   -0.13109E-02   -0.86375E-03 40810   0.225E-01    0.209E-01
DAV:   4    -0.796554809587E+03    0.10518E-03   -0.81787E-04 43760   0.838E-02    0.153E-01
DAV:   5    -0.796554761521E+03    0.48065E-04   -0.54323E-04 39160   0.634E-02    0.573E-02
DAV:   6    -0.796554779528E+03   -0.18006E-04   -0.10071E-04 36070   0.330E-02    0.335E-02
DAV:   7    -0.796554782591E+03   -0.30635E-05   -0.41490E-05 31090   0.152E-02
  20 F= -.79655478E+03 E0= -.79655478E+03  d E =-.909983E-02  mag=    47.0000
       N       E                     dE             d eps       ncg     rms          rms(c)
DAV:   1    -0.796552120763E+03    0.26588E-02   -0.20533E-01 35500   0.167E+00    0.210E-01
DAV:   2    -0.796555432380E+03   -0.33116E-02   -0.34762E-02 33550   0.331E-01    0.143E-01
DAV:   3    -0.796555617364E+03   -0.18498E-03   -0.11318E-03 40160   0.828E-02    0.793E-02
DAV:   4    -0.796555606282E+03    0.11081E-04   -0.10774E-04 41940   0.310E-02    0.580E-02
DAV:   5    -0.796555604938E+03    0.13440E-05   -0.76719E-05 35060   0.242E-02
  21 F= -.79655560E+03 E0= -.79655560E+03  d E =-.822347E-03  mag=    47.0000
       N       E                     dE             d eps       ncg     rms          rms(c)
DAV:   1    -0.796555837549E+03   -0.23127E-03   -0.15222E-02 35070   0.363E-01    0.439E-02
DAV:   2    -0.796555974134E+03   -0.13659E-03   -0.13771E-03 33320   0.704E-02    0.327E-02
DAV:   3    -0.796555981049E+03   -0.69150E-05   -0.31702E-05 26370   0.151E-02    0.189E-02
DAV:   4    -0.796555981910E+03   -0.86114E-06   -0.42830E-06 16920   0.735E-03
  22 F= -.79655598E+03 E0= -.79655598E+03  d E =-.376972E-03  mag=    47.0000
       N       E                     dE             d eps       ncg     rms          rms(c)
DAV:   1    -0.796556834405E+03   -0.85336E-03   -0.19434E-01 34050   0.111E+00    0.121E-01
DAV:   2    -0.796558029899E+03   -0.11955E-02   -0.12318E-02 33300   0.213E-01    0.969E-02
DAV:   3    -0.796558070493E+03   -0.40594E-04   -0.30792E-04 38050   0.478E-02    0.521E-02
DAV:   4    -0.796558064261E+03    0.62315E-05   -0.27977E-05 27610   0.198E-02
  23 F= -.79655806E+03 E0= -.79655806E+03  d E =-.208235E-02  mag=    47.0000
       N       E                     dE             d eps       ncg     rms          rms(c)
DAV:   1    -0.796560900034E+03   -0.28295E-02   -0.31601E-01 34030   0.148E+00    0.171E-01
DAV:   2    -0.796563069932E+03   -0.21699E-02   -0.22172E-02 33250   0.276E-01    0.105E-01
DAV:   3    -0.796563167528E+03   -0.97596E-04   -0.48600E-04 38410   0.554E-02    0.589E-02
DAV:   4    -0.796563164331E+03    0.31970E-05   -0.43512E-05 32110   0.234E-02
  24 F= -.79656316E+03 E0= -.79656316E+03  d E =-.510007E-02  mag=    47.0000
       N       E                     dE             d eps       ncg     rms          rms(c)
DAV:   1    -0.796500089727E+03    0.63078E-01   -0.64134E+00 34860   0.860E+00    0.103E+00
DAV:   2    -0.796579376107E+03   -0.79286E-01   -0.81657E-01 33290   0.167E+00    0.652E-01
DAV:   3    -0.796583638714E+03   -0.42626E-02   -0.21918E-02 39150   0.365E-01    0.360E-01
DAV:   4    -0.796583424935E+03    0.21378E-03   -0.19926E-03 44000   0.137E-01    0.261E-01
DAV:   5    -0.796583427810E+03   -0.28751E-05   -0.13169E-03 41520   0.106E-01    0.972E-02
DAV:   6    -0.796583504583E+03   -0.76773E-04   -0.29865E-04 40900   0.546E-02    0.570E-02
DAV:   7    -0.796583520933E+03   -0.16350E-04   -0.96755E-05 37600   0.249E-02    0.352E-02
DAV:   8    -0.796583534508E+03   -0.13575E-04   -0.14040E-05 20800   0.128E-02    0.277E-02
DAV:   9    -0.796583550111E+03   -0.15603E-04   -0.12594E-05 19970   0.990E-03    0.219E-02
DAV:  10    -0.796583560088E+03   -0.99762E-05   -0.99837E-06 19460   0.748E-03
  25 F= -.79658356E+03 E0= -.79658356E+03  d E =-.203958E-01  mag=    47.0000
       N       E                     dE             d eps       ncg     rms          rms(c)
DAV:   1    -0.796518543118E+03    0.65007E-01   -0.38477E+00 35420   0.746E+00    0.945E-01
DAV:   2    -0.796585011916E+03   -0.66469E-01   -0.69675E-01 33540   0.149E+00    0.640E-01
DAV:   3    -0.796588877664E+03   -0.38657E-02   -0.22762E-02 40460   0.373E-01    0.348E-01
DAV:   4    -0.796588657064E+03    0.22060E-03   -0.21043E-03 43920   0.137E-01    0.252E-01
DAV:   5    -0.796588589192E+03    0.67872E-04   -0.13707E-03 40190   0.102E-01    0.936E-02
DAV:   6    -0.796588639004E+03   -0.49812E-04   -0.24441E-04 40240   0.522E-02    0.525E-02
DAV:   7    -0.796588647566E+03   -0.85616E-05   -0.10528E-04 40250   0.243E-02    0.291E-02
DAV:   8    -0.796588652109E+03   -0.45431E-05   -0.10758E-05 19730   0.114E-02
  26 F= -.79658865E+03 E0= -.79658865E+03  d E =-.509202E-02  mag=    47.0000
       N       E                     dE             d eps       ncg     rms          rms(c)
DAV:   1    -0.796586989905E+03    0.16577E-02   -0.96964E-02 34440   0.102E+00    0.122E-01
DAV:   2    -0.796588160497E+03   -0.11706E-02   -0.12330E-02 33580   0.210E-01    0.101E-01
DAV:   3    -0.796588216581E+03   -0.56083E-04   -0.43212E-04 40240   0.537E-02    0.533E-02
DAV:   4    -0.796588210589E+03    0.59920E-05   -0.36232E-05 28760   0.207E-02
  27 F= -.79658821E+03 E0= -.79658821E+03  d E =0.441520E-03  mag=    47.0000
       N       E                     dE             d eps       ncg     rms          rms(c)
DAV:   1    -0.796583121761E+03    0.50948E-02   -0.27342E-01 33970   0.154E+00    0.175E-01
DAV:   2    -0.796585519195E+03   -0.23974E-02   -0.25475E-02 33580   0.309E-01    0.149E-01
DAV:   3    -0.796585629161E+03   -0.10997E-03   -0.93267E-04 38630   0.784E-02    0.825E-02
DAV:   4    -0.796585615051E+03    0.14110E-04   -0.94601E-05 42140   0.310E-02    0.693E-02
DAV:   5    -0.796585611252E+03    0.37995E-05   -0.95537E-05 36780   0.261E-02
  28 F= -.79658561E+03 E0= -.79658561E+03  d E =0.259934E-02  mag=    47.0000
       N       E                     dE             d eps       ncg     rms          rms(c)
DAV:   1    -0.796584095750E+03    0.15193E-02   -0.16997E-02 34320   0.401E-01    0.487E-02
DAV:   2    -0.796584263220E+03   -0.16747E-03   -0.17119E-03 33300   0.781E-02    0.331E-02
DAV:   3    -0.796584271261E+03   -0.80410E-05   -0.43581E-05 28350   0.179E-02    0.197E-02
DAV:   4    -0.796584271889E+03   -0.62821E-06   -0.55407E-06 17170   0.822E-03
  29 F= -.79658427E+03 E0= -.79658427E+03  d E =0.133936E-02  mag=    47.0000
       N       E                     dE             d eps       ncg     rms          rms(c)
DAV:   1    -0.796576205799E+03    0.80655E-02   -0.24329E-01 34160   0.116E+00    0.126E-01
DAV:   2    -0.796577526850E+03   -0.13211E-02   -0.13600E-02 33290   0.213E-01    0.744E-02
DAV:   3    -0.796577566537E+03   -0.39687E-04   -0.26674E-04 38390   0.374E-02    0.444E-02
DAV:   4    -0.796577559331E+03    0.72057E-05   -0.25821E-05 27080   0.160E-02
  30 F= -.79657756E+03 E0= -.79657756E+03  d E =0.671256E-02  mag=    47.0000
       N       E                     dE             d eps       ncg     rms          rms(c)
DAV:   1    -0.796542516131E+03    0.35050E-01   -0.14658E+00 34010   0.382E+00    0.445E-01
DAV:   2    -0.796557795604E+03   -0.15279E-01   -0.15672E-01 33320   0.737E-01    0.269E-01
DAV:   3    -0.796558524853E+03   -0.72925E-03   -0.37773E-03 38930   0.150E-01    0.150E-01
DAV:   4    -0.796558488290E+03    0.36564E-04   -0.35366E-04 43200   0.567E-02    0.107E-01
DAV:   5    -0.796558497170E+03   -0.88802E-05   -0.21611E-04 40380   0.432E-02    0.399E-02
DAV:   6    -0.796558514280E+03   -0.17110E-04   -0.62325E-05 36810   0.244E-02    0.269E-02
DAV:   7    -0.796558517770E+03   -0.34902E-05   -0.12930E-05 19610   0.112E-02
  31 F= -.79655852E+03 E0= -.79655852E+03  d E =0.190416E-01  mag=    47.0000
       N       E                     dE             d eps       ncg     rms          rms(c)
DAV:   1    -0.796515026741E+03    0.43488E-01   -0.19147E+00 34620   0.468E+00    0.588E-01
DAV:   2    -0.796540712048E+03   -0.25685E-01   -0.26986E-01 33350   0.944E-01    0.394E-01
DAV:   3    -0.796542170860E+03   -0.14588E-02   -0.87031E-03 40430   0.223E-01    0.217E-01
DAV:   4    -0.796542076862E+03    0.93998E-04   -0.81056E-04 44460   0.886E-02    0.161E-01
DAV:   5    -0.796542064556E+03    0.12306E-04   -0.57284E-04 39550   0.650E-02    0.611E-02
DAV:   6    -0.796542089698E+03   -0.25142E-04   -0.11692E-04 36570   0.350E-02    0.377E-02
DAV:   7    -0.796542096590E+03   -0.68926E-05   -0.49308E-05 31780   0.161E-02
  32 F= -.79654210E+03 E0= -.79654210E+03  d E =0.164212E-01  mag=    47.0000
       N       E                     dE             d eps       ncg     rms          rms(c)
DAV:   1    -0.796538160442E+03    0.39293E-02   -0.60285E-01 34980   0.253E+00    0.297E-01
DAV:   2    -0.796544913700E+03   -0.67533E-02   -0.71521E-02 33500   0.497E-01    0.192E-01
DAV:   3    -0.796545308085E+03   -0.39439E-03   -0.24515E-03 40090   0.115E-01    0.110E-01
DAV:   4    -0.796545269107E+03    0.38978E-04   -0.20532E-04 44550   0.405E-02    0.758E-02
DAV:   5    -0.796545260338E+03    0.87689E-05   -0.15352E-04 38440   0.331E-02    0.328E-02
DAV:   6    -0.796545265856E+03   -0.55177E-05   -0.26065E-05 26800   0.190E-02
  33 F= -.79654527E+03 E0= -.79654527E+03  d E =-.316927E-02  mag=    47.0000
       N       E                     dE             d eps       ncg     rms          rms(c)
DAV:   1    -0.796535302493E+03    0.99578E-02   -0.40921E-01 34370   0.193E+00    0.227E-01
DAV:   2    -0.796539331567E+03   -0.40291E-02   -0.41621E-02 33310   0.372E-01    0.142E-01
DAV:   3    -0.796539539052E+03   -0.20748E-03   -0.11006E-03 39690   0.799E-02    0.798E-02
DAV:   4    -0.796539530412E+03    0.86394E-05   -0.95384E-05 39940   0.290E-02
  34 F= -.79653953E+03 E0= -.79653953E+03  d E =0.573544E-02  mag=    47.0000
       N       E                     dE             d eps       ncg     rms          rms(c)
DAV:   1    -0.796477364645E+03    0.62174E-01   -0.45295E+00 34630   0.621E+00    0.709E-01
DAV:   2    -0.796516077722E+03   -0.38713E-01   -0.39932E-01 33280   0.118E+00    0.428E-01
DAV:   3    -0.796517898020E+03   -0.18203E-02   -0.10175E-02 39130   0.244E-01    0.243E-01
DAV:   4    -0.796517767782E+03    0.13024E-03   -0.91589E-04 42880   0.912E-02    0.167E-01
DAV:   5    -0.796517772727E+03   -0.49445E-05   -0.66098E-04 39440   0.723E-02    0.694E-02
DAV:   6    -0.796517821939E+03   -0.49212E-04   -0.17952E-04 40110   0.413E-02    0.454E-02
DAV:   7    -0.796517835967E+03   -0.14028E-04   -0.48890E-05 31280   0.182E-02    0.328E-02
DAV:   8    -0.796517852288E+03   -0.16321E-04   -0.10744E-05 19960   0.108E-02    0.267E-02
DAV:   9    -0.796517870794E+03   -0.18506E-04   -0.13894E-05 21630   0.102E-02    0.226E-02
DAV:  10    -0.796517883067E+03   -0.12273E-04   -0.12029E-05 21060   0.807E-03    0.196E-02
DAV:  11    -0.796517895531E+03   -0.12464E-04   -0.70224E-06 17630   0.810E-03    0.170E-02
DAV:  12    -0.796517913149E+03   -0.17618E-04   -0.33460E-05 29330   0.145E-02    0.128E-02
DAV:  13    -0.796517924572E+03   -0.11422E-04   -0.28617E-05 25070   0.119E-02    0.103E-02
DAV:  14    -0.796517931010E+03   -0.64381E-05   -0.13953E-05 22340   0.793E-03
  35 F= -.79651793E+03 E0= -.79651793E+03  d E =0.215994E-01  mag=    47.0000
       N       E                     dE             d eps       ncg     rms          rms(c)
DAV:   1    -0.795416963587E+03    0.11010E+01   -0.53045E+01 35150   0.268E+01    0.351E+00
DAV:   2    -0.796293211100E+03   -0.87625E+00   -0.94625E+00 33950   0.554E+00    0.237E+00
DAV:   3    -0.796345494391E+03   -0.52283E-01   -0.36575E-01 39810   0.137E+00    0.134E+00
DAV:   4    -0.796339453746E+03    0.60406E-02   -0.33225E-02 44100   0.503E-01    0.956E-01
DAV:   5    -0.796337035106E+03    0.24186E-02   -0.23543E-02 38280   0.395E-01    0.385E-01
DAV:   6    -0.796337422993E+03   -0.38789E-03   -0.41017E-03 38070   0.228E-01    0.225E-01
DAV:   7    -0.796337553792E+03   -0.13080E-03   -0.21236E-03 41920   0.105E-01    0.130E-01
DAV:   8    -0.796337622403E+03   -0.68611E-04   -0.22867E-04 37450   0.457E-02    0.859E-02
DAV:   9    -0.796337700938E+03   -0.78535E-04   -0.12600E-04 40900   0.326E-02    0.561E-02
DAV:  10    -0.796337746106E+03   -0.45168E-04   -0.51779E-05 31130   0.213E-02    0.444E-02
DAV:  11    -0.796337775603E+03   -0.29497E-04   -0.24121E-05 23540   0.145E-02    0.382E-02
DAV:  12    -0.796337820661E+03   -0.45058E-04   -0.29228E-05 28940   0.154E-02    0.318E-02
DAV:  13    -0.796337871240E+03   -0.50579E-04   -0.67343E-05 35510   0.227E-02    0.240E-02
DAV:  14    -0.796337900809E+03   -0.29569E-04   -0.65734E-05 30800   0.190E-02    0.200E-02
DAV:  15    -0.796337914899E+03   -0.14090E-04   -0.25956E-05 23370   0.113E-02    0.136E-02
DAV:  16    -0.796337921842E+03   -0.69432E-05   -0.12399E-05 21300   0.882E-03
  36 F= -.79633792E+03 E0= -.79633792E+03  d E =0.180009E+00  mag=    47.0000
       N       E                     dE             d eps       ncg     rms          rms(c)
DAV:   1    -0.796114766066E+03    0.22315E+00   -0.24029E+01 35460   0.180E+01    0.234E+00
DAV:   2    -0.796497057864E+03   -0.38229E+00   -0.41551E+00 34010   0.367E+00    0.166E+00
DAV:   3    -0.796520259544E+03   -0.23202E-01   -0.16301E-01 40730   0.942E-01    0.906E-01
DAV:   4    -0.796517515009E+03    0.27445E-02   -0.15691E-02 43720   0.359E-01    0.663E-01
DAV:   5    -0.796516396430E+03    0.11186E-02   -0.11694E-02 38220   0.278E-01    0.251E-01
DAV:   6    -0.796516572925E+03   -0.17649E-03   -0.18460E-03 37560   0.150E-01    0.152E-01
DAV:   7    -0.796516636672E+03   -0.63747E-04   -0.10417E-03 39730   0.695E-02    0.872E-02
DAV:   8    -0.796516667569E+03   -0.30897E-04   -0.10100E-04 35420   0.317E-02    0.575E-02
DAV:   9    -0.796516700929E+03   -0.33360E-04   -0.60130E-05 35560   0.240E-02    0.386E-02
DAV:  10    -0.796516721541E+03   -0.20612E-04   -0.24604E-05 24990   0.152E-02    0.301E-02
DAV:  11    -0.796516735711E+03   -0.14170E-04   -0.11728E-05 19450   0.989E-03    0.257E-02
DAV:  12    -0.796516755746E+03   -0.20034E-04   -0.12959E-05 22750   0.107E-02    0.214E-02
DAV:  13    -0.796516776053E+03   -0.20307E-04   -0.30842E-05 28850   0.136E-02    0.170E-02
DAV:  14    -0.796516788355E+03   -0.12302E-04   -0.24669E-05 25050   0.113E-02    0.130E-02
DAV:  15    -0.796516794938E+03   -0.65834E-05   -0.13496E-05 21680   0.864E-03
  37 F= -.79651679E+03 E0= -.79651679E+03  d E =-.178873E+00  mag=    47.0000
       N       E                     dE             d eps       ncg     rms          rms(c)
DAV:   1    -0.796472477679E+03    0.44311E-01   -0.32732E+00 35500   0.671E+00    0.869E-01
DAV:   2    -0.796525943725E+03   -0.53466E-01   -0.57930E-01 34110   0.137E+00    0.590E-01
DAV:   3    -0.796529335612E+03   -0.33919E-02   -0.23228E-02 40340   0.352E-01    0.335E-01
DAV:   4    -0.796528964446E+03    0.37117E-03   -0.21148E-03 43910   0.130E-01    0.233E-01
DAV:   5    -0.796528826419E+03    0.13803E-03   -0.15744E-03 38250   0.104E-01    0.954E-02
DAV:   6    -0.796528846168E+03   -0.19749E-04   -0.24843E-04 38000   0.578E-02    0.556E-02
DAV:   7    -0.796528854940E+03   -0.87717E-05   -0.14037E-04 40380   0.265E-02    0.331E-02
DAV:   8    -0.796528860076E+03   -0.51361E-05   -0.12826E-05 20330   0.120E-02
  38 F= -.79652886E+03 E0= -.79652886E+03  d E =-.120651E-01  mag=    47.0000
       N       E                     dE             d eps       ncg     rms          rms(c)
DAV:   1    -0.796529116978E+03   -0.26204E-03   -0.21490E-02 35580   0.520E-01    0.661E-02
DAV:   2    -0.796529431430E+03   -0.31445E-03   -0.32102E-03 33510   0.104E-01    0.525E-02
DAV:   3    -0.796529448972E+03   -0.17542E-04   -0.88696E-05 33360   0.243E-02    0.287E-02
DAV:   4    -0.796529450317E+03   -0.13449E-05   -0.86496E-06 18910   0.108E-02
  39 F= -.79652945E+03 E0= -.79652945E+03  d E =-.590241E-03  mag=    47.0000
       N       E                     dE             d eps       ncg     rms          rms(c)
DAV:   1    -0.796529808303E+03   -0.35933E-03   -0.18404E-01 35260   0.135E+00    0.160E-01
DAV:   2    -0.796531667286E+03   -0.18590E-02   -0.19267E-02 33400   0.269E-01    0.143E-01
DAV:   3    -0.796531754274E+03   -0.86988E-04   -0.60205E-04 37760   0.640E-02    0.758E-02
DAV:   4    -0.796531749588E+03    0.46864E-05   -0.60895E-05 37300   0.274E-02
  40 F= -.79653175E+03 E0= -.79653175E+03  d E =-.229927E-02  mag=    47.0000
       N       E                     dE             d eps       ncg     rms          rms(c)
DAV:   1    -0.796532465506E+03   -0.71123E-03   -0.80908E-02 35380   0.996E-01    0.128E-01
DAV:   2    -0.796533671977E+03   -0.12065E-02   -0.12936E-02 33530   0.208E-01    0.855E-02
DAV:   3    -0.796533742245E+03   -0.70268E-04   -0.51196E-04 39130   0.514E-02    0.502E-02
DAV:   4    -0.796533734092E+03    0.81531E-05   -0.38885E-05 28870   0.194E-02
  41 F= -.79653373E+03 E0= -.79653373E+03  d E =-.198450E-02  mag=    47.0000
       N       E                     dE             d eps       ncg     rms          rms(c)
DAV:   1    -0.796478743492E+03    0.54999E-01   -0.33614E+00 35400   0.667E+00    0.803E-01
DAV:   2    -0.796529301835E+03   -0.50558E-01   -0.53043E-01 33530   0.132E+00    0.582E-01
DAV:   3    -0.796532171831E+03   -0.28700E-02   -0.15910E-02 41030   0.303E-01    0.316E-01
DAV:   4    -0.796531981451E+03    0.19038E-03   -0.14758E-03 44160   0.113E-01    0.243E-01
DAV:   5    -0.796531959453E+03    0.21998E-04   -0.10333E-03 42000   0.891E-02    0.854E-02
DAV:   6    -0.796531996411E+03   -0.36958E-04   -0.20281E-04 40120   0.467E-02    0.534E-02
DAV:   7    -0.796532005903E+03   -0.94913E-05   -0.90251E-05 38520   0.222E-02
  42 F= -.79653201E+03 E0= -.79653201E+03  d E =0.172819E-02  mag=    47.0000
       N       E                     dE             d eps       ncg     rms          rms(c)
DAV:   1    -0.796488270342E+03    0.43726E-01   -0.31952E+00 35590   0.681E+00    0.837E-01
DAV:   2    -0.796540852194E+03   -0.52582E-01   -0.56237E-01 33630   0.136E+00    0.583E-01
DAV:   3    -0.796544182630E+03   -0.33304E-02   -0.19424E-02 40570   0.332E-01    0.325E-01
DAV:   4    -0.796543932996E+03    0.24963E-03   -0.18071E-03 43610   0.123E-01    0.235E-01
DAV:   5    -0.796543893786E+03    0.39210E-04   -0.12584E-03 40280   0.945E-02    0.919E-02
DAV:   6    -0.796543917384E+03   -0.23598E-04   -0.20357E-04 39880   0.514E-02    0.544E-02
DAV:   7    -0.796543925938E+03   -0.85539E-05   -0.11982E-04 41790   0.251E-02    0.292E-02
DAV:   8    -0.796543930279E+03   -0.43409E-05   -0.10004E-05 18510   0.111E-02
  43 F= -.79654393E+03 E0= -.79654393E+03  d E =-.119244E-01  mag=    47.0000
       N       E                     dE             d eps       ncg     rms          rms(c)
DAV:   1    -0.796543856659E+03    0.69279E-04   -0.10022E-01 35730   0.119E+00    0.148E-01
DAV:   2    -0.796545436238E+03   -0.15796E-02   -0.17329E-02 34290   0.243E-01    0.106E-01
DAV:   3    -0.796545544201E+03   -0.10796E-03   -0.71140E-04 40850   0.634E-02    0.592E-02
DAV:   4    -0.796545533048E+03    0.11153E-04   -0.63252E-05 34850   0.231E-02    0.419E-02
DAV:   5    -0.796545531352E+03    0.16961E-05   -0.56289E-05 33070   0.192E-02
  44 F= -.79654553E+03 E0= -.79654553E+03  d E =-.160107E-02  mag=    47.0000
       N       E                     dE             d eps       ncg     rms          rms(c)
DAV:   1    -0.796546792253E+03   -0.12592E-02   -0.69895E-02 35070   0.958E-01    0.119E-01
DAV:   2    -0.796547786704E+03   -0.99445E-03   -0.10646E-02 33640   0.195E-01    0.835E-02
DAV:   3    -0.796547856400E+03   -0.69696E-04   -0.41667E-04 39850   0.481E-02    0.474E-02
DAV:   4    -0.796547850961E+03    0.54388E-05   -0.29847E-05 26420   0.175E-02
  45 F= -.79654785E+03 E0= -.79654785E+03  d E =-.231961E-02  mag=    47.0000
       N       E                     dE             d eps       ncg     rms          rms(c)
DAV:   1    -0.796550525508E+03   -0.26691E-02   -0.50816E-02 34110   0.705E-01    0.883E-02
DAV:   2    -0.796551053632E+03   -0.52812E-03   -0.54282E-03 33310   0.137E-01    0.611E-02
DAV:   3    -0.796551085134E+03   -0.31502E-04   -0.15843E-04 35930   0.312E-02    0.343E-02
DAV:   4    -0.796551085613E+03   -0.47873E-06   -0.13421E-05 23590   0.135E-02
  46 F= -.79655109E+03 E0= -.79655109E+03  d E =-.323465E-02  mag=    47.0000
       N       E                     dE             d eps       ncg     rms          rms(c)
DAV:   1    -0.796556478971E+03   -0.53938E-02   -0.11563E-01 33740   0.985E-01    0.122E-01
DAV:   2    -0.796557558264E+03   -0.10793E-02   -0.10869E-02 33370   0.188E-01    0.762E-02
DAV:   3    -0.796557615163E+03   -0.56899E-04   -0.24990E-04 38020   0.401E-02    0.417E-02
DAV:   4    -0.796557617689E+03   -0.25266E-05   -0.21295E-05 26540   0.165E-02
  47 F= -.79655762E+03 E0= -.79655762E+03  d E =-.653208E-02  mag=    47.0000
       N       E                     dE             d eps       ncg     rms          rms(c)
DAV:   1    -0.796564393476E+03   -0.67783E-02   -0.11599E+00 34080   0.319E+00    0.379E-01
DAV:   2    -0.796575249034E+03   -0.10856E-01   -0.11317E-01 33430   0.623E-01    0.239E-01
DAV:   3    -0.796575852983E+03   -0.60395E-03   -0.33867E-03 40730   0.137E-01    0.135E-01
DAV:   4    -0.796575828189E+03    0.24795E-04   -0.28271E-04 43120   0.488E-02    0.937E-02
DAV:   5    -0.796575851153E+03   -0.22964E-04   -0.21157E-04 39160   0.398E-02    0.431E-02
DAV:   6    -0.796575868504E+03   -0.17351E-04   -0.50099E-05 34440   0.230E-02    0.299E-02
DAV:   7    -0.796575875575E+03   -0.70712E-05   -0.19655E-05 20690   0.123E-02
  48 F= -.79657588E+03 E0= -.79657588E+03  d E =-.182579E-01  mag=    47.0000
       N       E                     dE             d eps       ncg     rms          rms(c)
DAV:   1    -0.796483677219E+03    0.92191E-01   -0.72193E+00 34740   0.965E+00    0.120E+00
DAV:   2    -0.796588637445E+03   -0.10496E+00   -0.11546E+00 34180   0.203E+00    0.817E-01
DAV:   3    -0.796596029475E+03   -0.73920E-02   -0.50954E-02 40730   0.521E-01    0.480E-01
DAV:   4    -0.796595234934E+03    0.79454E-03   -0.41636E-03 43980   0.177E-01    0.315E-01
DAV:   5    -0.796595044787E+03    0.19015E-03   -0.34533E-03 38380   0.153E-01    0.155E-01
DAV:   6    -0.796595091120E+03   -0.46333E-04   -0.48416E-04 38940   0.864E-02    0.881E-02
DAV:   7    -0.796595129360E+03   -0.38240E-04   -0.32799E-04 42070   0.422E-02    0.599E-02
DAV:   8    -0.796595162278E+03   -0.32918E-04   -0.40644E-05 29930   0.199E-02    0.436E-02
DAV:   9    -0.796595195529E+03   -0.33251E-04   -0.29557E-05 25890   0.152E-02    0.331E-02
DAV:  10    -0.796595217359E+03   -0.21830E-04   -0.19735E-05 25690   0.116E-02    0.283E-02
DAV:  11    -0.796595232160E+03   -0.14801E-04   -0.10351E-05 19220   0.833E-03    0.250E-02
DAV:  12    -0.796595262132E+03   -0.29972E-04   -0.19534E-05 26960   0.161E-02    0.199E-02
DAV:  13    -0.796595288018E+03   -0.25886E-04   -0.94714E-05 34730   0.210E-02    0.139E-02
DAV:  14    -0.796595302856E+03   -0.14838E-04   -0.36184E-05 24120   0.124E-02    0.113E-02
DAV:  15    -0.796595308607E+03   -0.57512E-05   -0.90776E-06 20670   0.628E-03
  49 F= -.79659531E+03 E0= -.79659531E+03  d E =-.194330E-01  mag=    47.0000
       N       E                     dE             d eps       ncg     rms          rms(c)
DAV:   1    -0.796521570762E+03    0.73732E-01   -0.55510E+00 35690   0.854E+00    0.106E+00
DAV:   2    -0.796601298061E+03   -0.79727E-01   -0.89437E-01 34830   0.178E+00    0.736E-01
DAV:   3    -0.796607337026E+03   -0.60390E-02   -0.41268E-02 40390   0.457E-01    0.429E-01
DAV:   4    -0.796606618554E+03    0.71847E-03   -0.32972E-03 44180   0.150E-01    0.280E-01
DAV:   5    -0.796606436457E+03    0.18210E-03   -0.27918E-03 38070   0.137E-01    0.136E-01
DAV:   6    -0.796606453249E+03   -0.16792E-04   -0.37028E-04 39200   0.774E-02    0.758E-02
DAV:   7    -0.796606474695E+03   -0.21446E-04   -0.26681E-04 42260   0.376E-02    0.502E-02
DAV:   8    -0.796606491338E+03   -0.16643E-04   -0.30940E-05 27190   0.174E-02    0.344E-02
DAV:   9    -0.796606507283E+03   -0.15945E-04   -0.18647E-05 21630   0.127E-02    0.242E-02
DAV:  10    -0.796606517475E+03   -0.10192E-04   -0.12640E-05 19310   0.923E-03    0.197E-02
DAV:  11    -0.796606523072E+03   -0.55968E-05   -0.57721E-06 17130   0.626E-03
  50 F= -.79660652E+03 E0= -.79660652E+03  d E =-.112145E-01  mag=    47.0000
       N       E                     dE             d eps       ncg     rms          rms(c)
DAV:   1    -0.796579411617E+03    0.27106E-01   -0.68563E-01 33740   0.247E+00    0.310E-01
DAV:   2    -0.796586358612E+03   -0.69470E-02   -0.70446E-02 33390   0.477E-01    0.188E-01
DAV:   3    -0.796586731881E+03   -0.37327E-03   -0.17607E-03 39640   0.103E-01    0.101E-01
DAV:   4    -0.796586728517E+03    0.33642E-05   -0.15269E-04 41420   0.399E-02    0.725E-02
DAV:   5    -0.796586741329E+03   -0.12812E-04   -0.92846E-05 38990   0.289E-02    0.286E-02
DAV:   6    -0.796586751806E+03   -0.10477E-04   -0.22725E-05 25850   0.146E-02    0.188E-02
DAV:   7    -0.796586754397E+03   -0.25907E-05   -0.77816E-06 18260   0.804E-03
  51 F= -.79658675E+03 E0= -.79658675E+03  d E =0.197687E-01  mag=    47.0000
       N       E                     dE             d eps       ncg     rms          rms(c)
DAV:   1    -0.796533030037E+03    0.53722E-01   -0.18993E+00 33740   0.429E+00    0.513E-01
DAV:   2    -0.796552558219E+03   -0.19528E-01   -0.20698E-01 33410   0.853E-01    0.328E-01
DAV:   3    -0.796553720470E+03   -0.11623E-02   -0.70124E-03 40970   0.205E-01    0.190E-01
DAV:   4    -0.796553644640E+03    0.75829E-04   -0.59580E-04 43380   0.731E-02    0.126E-01
DAV:   5    -0.796553660696E+03   -0.16056E-04   -0.48035E-04 39750   0.585E-02    0.614E-02
DAV:   6    -0.796553688024E+03   -0.27328E-04   -0.89177E-05 37130   0.327E-02    0.379E-02
DAV:   7    -0.796553700827E+03   -0.12803E-04   -0.48103E-05 30550   0.166E-02    0.286E-02
DAV:   8    -0.796553712377E+03   -0.11550E-04   -0.83270E-06 19200   0.924E-03    0.231E-02
DAV:   9    -0.796553725075E+03   -0.12698E-04   -0.91515E-06 19740   0.883E-03    0.193E-02
DAV:  10    -0.796553734140E+03   -0.90646E-05   -0.10220E-05 20720   0.740E-03
  52 F= -.79655373E+03 E0= -.79655373E+03  d E =0.330203E-01  mag=    47.0000
       N       E                     dE             d eps       ncg     rms          rms(c)
DAV:   1    -0.796511689351E+03    0.42036E-01   -0.21298E+00 34100   0.445E+00    0.537E-01
DAV:   2    -0.796533274832E+03   -0.21585E-01   -0.22399E-01 33320   0.876E-01    0.327E-01
DAV:   3    -0.796534551343E+03   -0.12765E-02   -0.62944E-03 39700   0.187E-01    0.185E-01
DAV:   4    -0.796534513711E+03    0.37632E-04   -0.51525E-04 43950   0.675E-02    0.129E-01
DAV:   5    -0.796534556368E+03   -0.42656E-04   -0.35344E-04 41010   0.534E-02    0.574E-02
DAV:   6    -0.796534591789E+03   -0.35421E-04   -0.90680E-05 37200   0.302E-02    0.389E-02
DAV:   7    -0.796534605184E+03   -0.13395E-04   -0.35285E-05 28210   0.153E-02    0.300E-02
DAV:   8    -0.796534620969E+03   -0.15785E-04   -0.10351E-05 19650   0.960E-03    0.260E-02
DAV:   9    -0.796534638717E+03   -0.17747E-04   -0.12098E-05 22850   0.916E-03    0.222E-02
DAV:  10    -0.796534654130E+03   -0.15413E-04   -0.14290E-05 22140   0.896E-03    0.199E-02
DAV:  11    -0.796534667273E+03   -0.13143E-04   -0.11960E-05 21890   0.890E-03    0.167E-02
DAV:  12    -0.796534683422E+03   -0.16149E-04   -0.35439E-05 28520   0.182E-02    0.114E-02
DAV:  13    -0.796534694774E+03   -0.11353E-04   -0.59014E-05 28410   0.140E-02    0.908E-03
DAV:  14    -0.796534700538E+03   -0.57637E-05   -0.12074E-05 20450   0.648E-03
  53 F= -.79653470E+03 E0= -.79653470E+03  d E =0.190336E-01  mag=    47.0000
       N       E                     dE             d eps       ncg     rms          rms(c)
DAV:   1    -0.795997165630E+03    0.53753E+00   -0.29804E+01 35500   0.195E+01    0.242E+00
DAV:   2    -0.796420417265E+03   -0.42325E+00   -0.46328E+00 34460   0.401E+00    0.169E+00
DAV:   3    -0.796448645951E+03   -0.28229E-01   -0.19396E-01 40500   0.102E+00    0.955E-01
DAV:   4    -0.796445562390E+03    0.30836E-02   -0.16600E-02 43810   0.356E-01    0.657E-01
DAV:   5    -0.796444782010E+03    0.78038E-03   -0.12405E-02 38540   0.299E-01    0.300E-01
DAV:   6    -0.796444973306E+03   -0.19130E-03   -0.21073E-03 39180   0.172E-01    0.176E-01
DAV:   7    -0.796445103753E+03   -0.13045E-03   -0.12434E-03 42510   0.825E-02    0.112E-01
DAV:   8    -0.796445217366E+03   -0.11361E-03   -0.15881E-04 37340   0.372E-02    0.830E-02
DAV:   9    -0.796445339961E+03   -0.12259E-03   -0.10559E-04 37740   0.274E-02    0.617E-02
DAV:  10    -0.796445424489E+03   -0.84528E-04   -0.66087E-05 31060   0.211E-02    0.539E-02
DAV:  11    -0.796445481459E+03   -0.56969E-04   -0.40621E-05 27330   0.165E-02    0.480E-02
DAV:  12    -0.796445589422E+03   -0.10796E-03   -0.96287E-05 36400   0.315E-02    0.365E-02
DAV:  13    -0.796445673212E+03   -0.83790E-04   -0.28792E-04 40790   0.413E-02    0.265E-02
DAV:  14    -0.796445723271E+03   -0.50060E-04   -0.12078E-04 34610   0.220E-02    0.219E-02
DAV:  15    -0.796445741300E+03   -0.18028E-04   -0.24997E-05 23240   0.108E-02    0.152E-02
DAV:  16    -0.796445750100E+03   -0.87999E-05   -0.12744E-05 20790   0.721E-03
  54 F= -.79644575E+03 E0= -.79644575E+03  d E =0.889504E-01  mag=    47.0000
       N       E                     dE             d eps       ncg     rms          rms(c)
DAV:   1    -0.796153481755E+03    0.29226E+00   -0.25058E+01 35480   0.180E+01    0.219E+00
DAV:   2    -0.796490819313E+03   -0.33734E+00   -0.37165E+00 34320   0.366E+00    0.155E+00
DAV:   3    -0.796514690119E+03   -0.23871E-01   -0.15617E-01 40640   0.928E-01    0.872E-01
DAV:   4    -0.796512161474E+03    0.25286E-02   -0.13502E-02 43780   0.331E-01    0.606E-01
DAV:   5    -0.796511493106E+03    0.66837E-03   -0.10950E-02 38860   0.276E-01    0.270E-01
DAV:   6    -0.796511656020E+03   -0.16291E-03   -0.17067E-03 39170   0.157E-01    0.155E-01
DAV:   7    -0.796511755445E+03   -0.99425E-04   -0.10887E-03 42050   0.751E-02    0.987E-02
DAV:   8    -0.796511825378E+03   -0.69933E-04   -0.12458E-04 35200   0.337E-02    0.689E-02
DAV:   9    -0.796511898443E+03   -0.73065E-04   -0.80719E-05 37430   0.252E-02    0.493E-02
DAV:  10    -0.796511947600E+03   -0.49157E-04   -0.43784E-05 29070   0.186E-02    0.420E-02
DAV:  11    -0.796511977638E+03   -0.30038E-04   -0.24456E-05 22590   0.131E-02    0.365E-02
DAV:  12    -0.796512033587E+03   -0.55949E-04   -0.39001E-05 29630   0.217E-02    0.290E-02
DAV:  13    -0.796512080111E+03   -0.46523E-04   -0.13641E-04 36140   0.267E-02    0.198E-02
DAV:  14    -0.796512104253E+03   -0.24143E-04   -0.64909E-05 27890   0.171E-02    0.171E-02
DAV:  15    -0.796512113782E+03   -0.95291E-05   -0.18794E-05 21390   0.911E-03
  55 F= -.79651211E+03 E0= -.79651211E+03  d E =-.663637E-01  mag=    47.0000
       N       E                     dE             d eps       ncg     rms          rms(c)
DAV:   1    -0.796504870113E+03    0.72341E-02   -0.33949E-01 35310   0.188E+00    0.227E-01
DAV:   2    -0.796508599086E+03   -0.37290E-02   -0.38009E-02 33180   0.358E-01    0.132E-01
DAV:   3    -0.796508822848E+03   -0.22376E-03   -0.87963E-04 38290   0.687E-02    0.740E-02
DAV:   4    -0.796508821342E+03    0.15052E-05   -0.69928E-05 35790   0.248E-02
  56 F= -.79650882E+03 E0= -.79650882E+03  d E =0.329244E-02  mag=    47.0000
       N       E                     dE             d eps       ncg     rms          rms(c)
DAV:   1    -0.796459427961E+03    0.49395E-01   -0.32065E+00 35220   0.578E+00    0.688E-01
DAV:   2    -0.796494774465E+03   -0.35347E-01   -0.35895E-01 33130   0.109E+00    0.395E-01
DAV:   3    -0.796496804032E+03   -0.20296E-02   -0.77694E-03 38440   0.208E-01    0.221E-01
DAV:   4    -0.796496818428E+03   -0.14397E-04   -0.67425E-04 43840   0.805E-02    0.159E-01
DAV:   5    -0.796496934396E+03   -0.11597E-03   -0.36935E-04 43810   0.636E-02    0.678E-02
DAV:   6    -0.796497002995E+03   -0.68599E-04   -0.13247E-04 38960   0.343E-02    0.519E-02
DAV:   7    -0.796497032822E+03   -0.29827E-04   -0.31687E-05 25810   0.165E-02    0.427E-02
DAV:   8    -0.796497081849E+03   -0.49027E-04   -0.32353E-05 28850   0.169E-02    0.357E-02
DAV:   9    -0.796497123854E+03   -0.42005E-04   -0.46569E-05 29640   0.154E-02    0.303E-02
DAV:  10    -0.796497156896E+03   -0.33043E-04   -0.28613E-05 26970   0.144E-02    0.259E-02
DAV:  11    -0.796497189644E+03   -0.32747E-04   -0.51593E-05 31650   0.191E-02    0.196E-02
DAV:  12    -0.796497209887E+03   -0.20243E-04   -0.99001E-05 36340   0.254E-02    0.137E-02
DAV:  13    -0.796497226927E+03   -0.17041E-04   -0.53836E-05 24520   0.134E-02    0.106E-02
DAV:  14    -0.796497230605E+03   -0.36774E-05   -0.47796E-06 18060   0.446E-03
  57 F= -.79649723E+03 E0= -.79649723E+03  d E =0.115907E-01  mag=    47.0000
       N       E                     dE             d eps       ncg     rms          rms(c)
DAV:   1    -0.796484517001E+03    0.12710E-01   -0.75241E-01 35070   0.264E+00    0.308E-01
DAV:   2    -0.796491434493E+03   -0.69175E-02   -0.70143E-02 33110   0.492E-01    0.175E-01
DAV:   3    -0.796491823305E+03   -0.38881E-03   -0.14098E-03 39030   0.904E-02    0.973E-02
DAV:   4    -0.796491823294E+03    0.10579E-07   -0.12543E-04 39470   0.356E-02    0.702E-02
DAV:   5    -0.796491846879E+03   -0.23585E-04   -0.72708E-05 36000   0.282E-02    0.308E-02
DAV:   6    -0.796491862275E+03   -0.15396E-04   -0.27932E-05 26260   0.156E-02    0.254E-02
DAV:   7    -0.796491869188E+03   -0.69135E-05   -0.70953E-06 17460   0.789E-03
  58 F= -.79649187E+03 E0= -.79649187E+03  d E =0.536142E-02  mag=    47.0000
       N       E                     dE             d eps       ncg     rms          rms(c)
DAV:   1    -0.796261546360E+03    0.23032E+00   -0.20054E+01 34760   0.138E+01    0.163E+00
DAV:   2    -0.796457731369E+03   -0.19619E+00   -0.19879E+00 33130   0.260E+00    0.873E-01
DAV:   3    -0.796468630827E+03   -0.10899E-01   -0.39811E-02 39160   0.445E-01    0.484E-01
DAV:   4    -0.796468547934E+03    0.82893E-04   -0.31734E-03 44410   0.151E-01    0.323E-01
DAV:   5    -0.796469107405E+03   -0.55947E-03   -0.15181E-03 42930   0.123E-01    0.132E-01
DAV:   6    -0.796469366437E+03   -0.25903E-03   -0.58427E-04 40380   0.750E-02    0.101E-01
DAV:   7    -0.796469447820E+03   -0.81383E-04   -0.13164E-04 35890   0.382E-02    0.780E-02
DAV:   8    -0.796469603594E+03   -0.15577E-03   -0.11789E-04 37260   0.315E-02    0.634E-02
DAV:   9    -0.796469728485E+03   -0.12489E-03   -0.11308E-04 36130   0.262E-02    0.555E-02
DAV:  10    -0.796469810784E+03   -0.82299E-04   -0.59677E-05 30030   0.194E-02    0.482E-02
DAV:  11    -0.796469916582E+03   -0.10580E-03   -0.11111E-04 36370   0.301E-02    0.381E-02
DAV:  12    -0.796469996972E+03   -0.80389E-04   -0.31778E-04 42140   0.497E-02    0.283E-02
DAV:  13    -0.796470060376E+03   -0.63404E-04   -0.18352E-04 36280   0.264E-02    0.220E-02
DAV:  14    -0.796470078576E+03   -0.18200E-04   -0.22222E-05 21030   0.856E-03    0.158E-02
DAV:  15    -0.796470083011E+03   -0.44350E-05   -0.35433E-06 17210   0.493E-03
  59 F= -.79647008E+03 E0= -.79647008E+03  d E =0.217862E-01  mag=    47.0000
       N       E                     dE             d eps       ncg     rms          rms(c)
DAV:   1    -0.795446137642E+03    0.10239E+01   -0.70449E+01 35170   0.286E+01    0.346E+00
DAV:   2    -0.796306430318E+03   -0.86029E+00   -0.90726E+00 33550   0.567E+00    0.244E+00
DAV:   3    -0.796355372500E+03   -0.48942E-01   -0.31217E-01 40880   0.138E+00    0.132E+00
DAV:   4    -0.796351313411E+03    0.40591E-02   -0.29023E-02 43600   0.521E-01    0.988E-01
DAV:   5    -0.796349852435E+03    0.14610E-02   -0.21480E-02 40050   0.394E-01    0.395E-01
DAV:   6    -0.796350836757E+03   -0.98432E-03   -0.42893E-03 38970   0.212E-01    0.239E-01
DAV:   7    -0.796351134856E+03   -0.29810E-03   -0.19188E-03 39580   0.999E-02    0.160E-01
DAV:   8    -0.796351414600E+03   -0.27974E-03   -0.28055E-04 41200   0.520E-02    0.127E-01
DAV:   9    -0.796351736077E+03   -0.32148E-03   -0.24717E-04 40780   0.462E-02    0.102E-01
DAV:  10    -0.796351972950E+03   -0.23687E-03   -0.19624E-04 37290   0.370E-02    0.885E-02
DAV:  11    -0.796352194868E+03   -0.22192E-03   -0.15525E-04 36950   0.338E-02    0.765E-02
DAV:  12    -0.796352509362E+03   -0.31449E-03   -0.41993E-04 43620   0.605E-02    0.582E-02
DAV:  13    -0.796352703912E+03   -0.19455E-03   -0.54061E-04 41880   0.569E-02    0.429E-02
DAV:  14    -0.796352800279E+03   -0.96367E-04   -0.24793E-04 38470   0.385E-02    0.299E-02
DAV:  15    -0.796352845848E+03   -0.45569E-04   -0.10735E-04 29080   0.190E-02    0.215E-02
DAV:  16    -0.796352857472E+03   -0.11624E-04   -0.11933E-05 18690   0.760E-03    0.167E-02
DAV:  17    -0.796352865394E+03   -0.79219E-05   -0.52797E-06 17320   0.727E-03
  60 F= -.79635287E+03 E0= -.79635287E+03  d E =0.117218E+00  mag=    47.0000
       N       E                     dE             d eps       ncg     rms          rms(c)
DAV:   1    -0.795891224369E+03    0.46163E+00   -0.37613E+01 35130   0.226E+01    0.286E+00
DAV:   2    -0.796455301941E+03   -0.56408E+00   -0.61194E+00 33700   0.451E+00    0.199E+00
DAV:   3    -0.796491237834E+03   -0.35936E-01   -0.22906E-01 40270   0.114E+00    0.110E+00
DAV:   4    -0.796487733199E+03    0.35046E-02   -0.22572E-02 43430   0.438E-01    0.807E-01
DAV:   5    -0.796486399753E+03    0.13334E-02   -0.15963E-02 38360   0.347E-01    0.323E-01
DAV:   6    -0.796486672542E+03   -0.27279E-03   -0.28396E-03 38300   0.193E-01    0.190E-01
DAV:   7    -0.796486775929E+03   -0.10339E-03   -0.15276E-03 41260   0.890E-02    0.109E-01
DAV:   8    -0.796486835318E+03   -0.59389E-04   -0.15697E-04 37200   0.381E-02    0.752E-02
DAV:   9    -0.796486903023E+03   -0.67704E-04   -0.96180E-05 38650   0.285E-02    0.503E-02
DAV:  10    -0.796486946245E+03   -0.43222E-04   -0.43097E-05 30230   0.199E-02    0.418E-02
DAV:  11    -0.796486973438E+03   -0.27193E-04   -0.22551E-05 22280   0.134E-02    0.355E-02
DAV:  12    -0.796487019935E+03   -0.46497E-04   -0.29794E-05 28560   0.172E-02    0.294E-02
DAV:  13    -0.796487062956E+03   -0.43021E-04   -0.70744E-05 33750   0.202E-02    0.223E-02
DAV:  14    -0.796487090219E+03   -0.27263E-04   -0.56936E-05 30360   0.191E-02    0.188E-02
DAV:  15    -0.796487103806E+03   -0.13587E-04   -0.33768E-05 23300   0.118E-02    0.119E-02
DAV:  16    -0.796487109342E+03   -0.55352E-05   -0.79990E-06 18490   0.740E-03
  61 F= -.79648711E+03 E0= -.79648711E+03  d E =-.134244E+00  mag=    47.0000
       N       E                     dE             d eps       ncg     rms          rms(c)
DAV:   1    -0.796485462431E+03    0.16414E-02   -0.22558E-01 35170   0.153E+00    0.183E-01
DAV:   2    -0.796487991960E+03   -0.25295E-02   -0.26053E-02 33320   0.301E-01    0.140E-01
DAV:   3    -0.796488119424E+03   -0.12746E-03   -0.73546E-04 38200   0.732E-02    0.720E-02
DAV:   4    -0.796488114384E+03    0.50406E-05   -0.70825E-05 36580   0.296E-02
  62 F= -.79648811E+03 E0= -.79648811E+03  d E =-.100504E-02  mag=    47.0000
       N       E                     dE             d eps       ncg     rms          rms(c)
DAV:   1    -0.796408107655E+03    0.80012E-01   -0.75494E+00 34900   0.840E+00    0.994E-01
DAV:   2    -0.796482032382E+03   -0.73925E-01   -0.75600E-01 33170   0.163E+00    0.722E-01
DAV:   3    -0.796485904954E+03   -0.38726E-02   -0.18638E-02 37150   0.367E-01    0.379E-01
DAV:   4    -0.796485863932E+03    0.41022E-04   -0.18254E-03 42570   0.151E-01    0.314E-01
DAV:   5    -0.796485988839E+03   -0.12491E-03   -0.12819E-03 42440   0.110E-01    0.110E-01
DAV:   6    -0.796486153710E+03   -0.16487E-03   -0.37937E-04 39100   0.514E-02    0.807E-02
DAV:   7    -0.796486211016E+03   -0.57306E-04   -0.81224E-05 35620   0.241E-02    0.635E-02
DAV:   8    -0.796486289684E+03   -0.78668E-04   -0.45286E-05 29870   0.204E-02    0.540E-02
DAV:   9    -0.796486379080E+03   -0.89396E-04   -0.78620E-05 35860   0.234E-02    0.447E-02
DAV:  10    -0.796486439927E+03   -0.60847E-04   -0.64020E-05 28940   0.184E-02    0.396E-02
DAV:  11    -0.796486501506E+03   -0.61579E-04   -0.65118E-05 35070   0.217E-02    0.310E-02
DAV:  12    -0.796486550828E+03   -0.49323E-04   -0.17592E-04 39920   0.340E-02    0.211E-02
DAV:  13    -0.796486582766E+03   -0.31938E-04   -0.11342E-04 32170   0.208E-02    0.154E-02
DAV:  14    -0.796486595168E+03   -0.12402E-04   -0.24793E-05 21920   0.871E-03    0.109E-02
DAV:  15    -0.796486596981E+03   -0.18128E-05   -0.18693E-06 16770   0.381E-03
  63 F= -.79648660E+03 E0= -.79648660E+03  d E =0.151740E-02  mag=    47.0000
       N       E                     dE             d eps       ncg     rms          rms(c)
DAV:   1    -0.796444143666E+03    0.42452E-01   -0.42141E+00 35240   0.615E+00    0.721E-01
DAV:   2    -0.796482530314E+03   -0.38387E-01   -0.38963E-01 32990   0.115E+00    0.437E-01
DAV:   3    -0.796484636457E+03   -0.21061E-02   -0.80528E-03 39140   0.219E-01    0.244E-01
DAV:   4    -0.796484616912E+03    0.19545E-04   -0.75941E-04 43270   0.900E-02    0.183E-01
DAV:   5    -0.796484746628E+03   -0.12972E-03   -0.49284E-04 43870   0.708E-02    0.766E-02
DAV:   6    -0.796484835667E+03   -0.89039E-04   -0.16988E-04 39390   0.366E-02    0.613E-02
DAV:   7    -0.796484876711E+03   -0.41045E-04   -0.37025E-05 27190   0.180E-02    0.505E-02
DAV:   8    -0.796484950537E+03   -0.73825E-04   -0.52794E-05 32060   0.209E-02    0.412E-02
DAV:   9    -0.796485012925E+03   -0.62388E-04   -0.71208E-05 32810   0.199E-02    0.347E-02
DAV:  10    -0.796485056965E+03   -0.44039E-04   -0.43468E-05 29430   0.169E-02    0.299E-02
DAV:  11    -0.796485097664E+03   -0.40699E-04   -0.63657E-05 32940   0.207E-02    0.221E-02
DAV:  12    -0.796485120668E+03   -0.23005E-04   -0.12850E-04 38180   0.297E-02    0.153E-02
DAV:  13    -0.796485143834E+03   -0.23166E-04   -0.67847E-05 25650   0.151E-02    0.121E-02
DAV:  14    -0.796485147868E+03   -0.40336E-05   -0.46278E-06 17810   0.465E-03
  64 F= -.79648515E+03 E0= -.79648515E+03  d E =0.144911E-02  mag=    47.0000
       N       E                     dE             d eps       ncg     rms          rms(c)
DAV:   1    -0.796297966246E+03    0.18718E+00   -0.15645E+01 35000   0.124E+01    0.150E+00
DAV:   2    -0.796465034496E+03   -0.16707E+00   -0.17437E+00 33430   0.257E+00    0.136E+00
DAV:   3    -0.796471546057E+03   -0.65116E-02   -0.60810E-02 39530   0.673E-01    0.670E-01
DAV:   4    -0.796470883115E+03    0.66294E-03   -0.63835E-03 43240   0.270E-01    0.604E-01
DAV:   5    -0.796470307688E+03    0.57543E-03   -0.55041E-03 39520   0.206E-01    0.191E-01
DAV:   6    -0.796470503918E+03   -0.19623E-03   -0.11909E-03 38310   0.962E-02    0.117E-01
DAV:   7    -0.796470558485E+03   -0.54567E-04   -0.39340E-04 38500   0.429E-02    0.781E-02
DAV:   8    -0.796470614538E+03   -0.56052E-04   -0.50124E-05 32720   0.243E-02    0.618E-02
DAV:   9    -0.796470684892E+03   -0.70354E-04   -0.64469E-05 36110   0.244E-02    0.480E-02
DAV:  10    -0.796470735858E+03   -0.50965E-04   -0.46227E-05 27300   0.177E-02    0.404E-02
DAV:  11    -0.796470780763E+03   -0.44906E-04   -0.34364E-05 29360   0.155E-02    0.349E-02
DAV:  12    -0.796470839296E+03   -0.58533E-04   -0.67063E-05 34130   0.239E-02    0.267E-02
DAV:  13    -0.796470878855E+03   -0.39559E-04   -0.11550E-04 36050   0.267E-02    0.208E-02
DAV:  14    -0.796470900131E+03   -0.21276E-04   -0.51880E-05 27080   0.149E-02    0.157E-02
DAV:  15    -0.796470907839E+03   -0.77087E-05   -0.12593E-05 19920   0.748E-03
  65 F= -.79647091E+03 E0= -.79647091E+03  d E =0.142400E-01  mag=    47.0000
       N       E                     dE             d eps       ncg     rms          rms(c)
DAV:   1    -0.796321412088E+03    0.14949E+00   -0.10934E+01 34450   0.118E+01    0.152E+00
DAV:   2    -0.796488573657E+03   -0.16716E+00   -0.17758E+00 33620   0.248E+00    0.117E+00
DAV:   3    -0.796497067444E+03   -0.84938E-02   -0.66469E-02 40540   0.637E-01    0.611E-01
DAV:   4    -0.796496092041E+03    0.97540E-03   -0.66480E-03 43870   0.254E-01    0.495E-01
DAV:   5    -0.796495522522E+03    0.56952E-03   -0.50272E-03 38390   0.189E-01    0.170E-01
DAV:   6    -0.796495645889E+03   -0.12337E-03   -0.93400E-04 37000   0.954E-02    0.102E-01
DAV:   7    -0.796495676967E+03   -0.31078E-04   -0.41473E-04 38680   0.428E-02    0.607E-02
DAV:   8    -0.796495698959E+03   -0.21992E-04   -0.38512E-05 31230   0.204E-02    0.442E-02
DAV:   9    -0.796495724079E+03   -0.25120E-04   -0.31663E-05 28380   0.180E-02    0.334E-02
DAV:  10    -0.796495740852E+03   -0.16773E-04   -0.19633E-05 20700   0.122E-02    0.257E-02
DAV:  11    -0.796495754136E+03   -0.13284E-04   -0.10157E-05 19260   0.866E-03    0.218E-02
DAV:  12    -0.796495771233E+03   -0.17097E-04   -0.13066E-05 22540   0.105E-02    0.178E-02
DAV:  13    -0.796495787015E+03   -0.15782E-04   -0.29648E-05 27830   0.134E-02    0.139E-02
DAV:  14    -0.796495795345E+03   -0.83294E-05   -0.21832E-05 23920   0.101E-02
  66 F= -.79649580E+03 E0= -.79649580E+03  d E =-.248875E-01  mag=    47.0000
       N       E                     dE             d eps       ncg     rms          rms(c)
DAV:   1    -0.796493667207E+03    0.21198E-02   -0.47747E-01 34750   0.237E+00    0.303E-01
DAV:   2    -0.796500401722E+03   -0.67345E-02   -0.72241E-02 33680   0.479E-01    0.215E-01
DAV:   3    -0.796500766715E+03   -0.36499E-03   -0.26478E-03 40280   0.121E-01    0.119E-01
DAV:   4    -0.796500722468E+03    0.44247E-04   -0.25807E-04 43620   0.466E-02    0.883E-02
DAV:   5    -0.796500702653E+03    0.19815E-04   -0.18684E-04 37640   0.356E-02    0.333E-02
DAV:   6    -0.796500708116E+03   -0.54634E-05   -0.35178E-05 29530   0.199E-02
  67 F= -.79650071E+03 E0= -.79650071E+03  d E =-.491277E-02  mag=    47.0000
       N       E                     dE             d eps       ncg     rms          rms(c)
DAV:   1    -0.796488460849E+03    0.12242E-01   -0.16503E+00 35210   0.396E+00    0.464E-01
DAV:   2    -0.796505163558E+03   -0.16703E-01   -0.17322E-01 33320   0.759E-01    0.297E-01
DAV:   3    -0.796506007802E+03   -0.84424E-03   -0.45950E-03 38840   0.159E-01    0.172E-01
DAV:   4    -0.796505955243E+03    0.52558E-04   -0.41685E-04 43100   0.596E-02    0.125E-01
DAV:   5    -0.796505973293E+03   -0.18050E-04   -0.29601E-04 40890   0.482E-02    0.531E-02
DAV:   6    -0.796506003624E+03   -0.30331E-04   -0.88314E-05 36850   0.282E-02    0.398E-02
DAV:   7    -0.796506016585E+03   -0.12961E-04   -0.24917E-05 24410   0.134E-02    0.312E-02
DAV:   8    -0.796506035709E+03   -0.19124E-04   -0.11670E-05 19210   0.102E-02    0.270E-02
DAV:   9    -0.796506055713E+03   -0.20003E-04   -0.16085E-05 23480   0.102E-02    0.229E-02
DAV:  10    -0.796506072284E+03   -0.16571E-04   -0.15390E-05 21850   0.989E-03    0.202E-02
DAV:  11    -0.796506086937E+03   -0.14653E-04   -0.16769E-05 23430   0.105E-02    0.160E-02
DAV:  12    -0.796506100634E+03   -0.13697E-04   -0.36690E-05 30310   0.189E-02    0.109E-02
DAV:  13    -0.796506110424E+03   -0.97901E-05   -0.47874E-05 23940   0.115E-02
  68 F= -.79650611E+03 E0= -.79650611E+03  d E =-.540231E-02  mag=    47.0000
       N       E                     dE             d eps       ncg     rms          rms(c)
DAV:   1    -0.796493386511E+03    0.12714E-01   -0.20658E+00 35470   0.427E+00    0.485E-01
DAV:   2    -0.796511252454E+03   -0.17866E-01   -0.18124E-01 32440   0.788E-01    0.276E-01
DAV:   3    -0.796512164286E+03   -0.91183E-03   -0.35358E-03 39410   0.135E-01    0.157E-01
DAV:   4    -0.796512137705E+03    0.26581E-04   -0.30835E-04 43760   0.499E-02    0.109E-01
DAV:   5    -0.796512196670E+03   -0.58964E-04   -0.17858E-04 44240   0.414E-02    0.458E-02
DAV:   6    -0.796512228131E+03   -0.31461E-04   -0.65205E-05 34680   0.241E-02    0.383E-02
DAV:   7    -0.796512242863E+03   -0.14732E-04   -0.14797E-05 20050   0.121E-02    0.314E-02
DAV:   8    -0.796512272921E+03   -0.30058E-04   -0.18211E-05 23050   0.140E-02    0.259E-02
DAV:   9    -0.796512294601E+03   -0.21680E-04   -0.34723E-05 25700   0.111E-02    0.215E-02
DAV:  10    -0.796512311689E+03   -0.17088E-04   -0.12694E-05 23060   0.106E-02    0.188E-02
DAV:  11    -0.796512327426E+03   -0.15737E-04   -0.25077E-05 24630   0.126E-02    0.147E-02
DAV:  12    -0.796512337763E+03   -0.10337E-04   -0.48472E-05 32460   0.200E-02    0.110E-02
DAV:  13    -0.796512347261E+03   -0.94980E-05   -0.37331E-05 22330   0.110E-02
  69 F= -.79651235E+03 E0= -.79651235E+03  d E =-.623684E-02  mag=    47.0000
       N       E                     dE             d eps       ncg     rms          rms(c)
DAV:   1    -0.796350091916E+03    0.16225E+00   -0.19284E+01 35430   0.131E+01    0.149E+00
DAV:   2    -0.796517596450E+03   -0.16750E+00   -0.16988E+00 32410   0.241E+00    0.825E-01
DAV:   3    -0.796526091094E+03   -0.84946E-02   -0.33180E-02 39640   0.407E-01    0.472E-01
DAV:   4    -0.796525848759E+03    0.24233E-03   -0.28256E-03 43500   0.147E-01    0.323E-01
DAV:   5    -0.796526365694E+03   -0.51693E-03   -0.15969E-03 44640   0.124E-01    0.139E-01
DAV:   6    -0.796526647476E+03   -0.28178E-03   -0.61661E-04 39420   0.741E-02    0.114E-01
DAV:   7    -0.796526771544E+03   -0.12407E-03   -0.13281E-04 36070   0.362E-02    0.931E-02
DAV:   8    -0.796527028743E+03   -0.25720E-03   -0.18517E-04 40670   0.396E-02    0.758E-02
DAV:   9    -0.796527229268E+03   -0.20053E-03   -0.19730E-04 39650   0.349E-02    0.659E-02
DAV:  10    -0.796527362590E+03   -0.13332E-03   -0.99019E-05 35180   0.270E-02    0.568E-02
DAV:  11    -0.796527516561E+03   -0.15397E-03   -0.19810E-04 40800   0.402E-02    0.445E-02
DAV:  12    -0.796527618813E+03   -0.10225E-03   -0.42552E-04 42500   0.580E-02    0.318E-02
DAV:  13    -0.796527691426E+03   -0.72613E-04   -0.25114E-04 37670   0.302E-02    0.249E-02
DAV:  14    -0.796527709198E+03   -0.17771E-04   -0.25819E-05 21670   0.915E-03    0.181E-02
DAV:  15    -0.796527711228E+03   -0.20308E-05   -0.15104E-06 16540   0.446E-03
  70 F= -.79652771E+03 E0= -.79652771E+03  d E =-.153640E-01  mag=    47.0000
       N       E                     dE             d eps       ncg     rms          rms(c)
DAV:   1    -0.795989512665E+03    0.53820E+00   -0.33121E+01 34650   0.199E+01    0.255E+00
DAV:   2    -0.796435373010E+03   -0.44586E+00   -0.47758E+00 33570   0.400E+00    0.169E+00
DAV:   3    -0.796461577995E+03   -0.26205E-01   -0.17416E-01 39360   0.954E-01    0.948E-01
[...]
DAV:  12    -0.796730653375E+03   -0.34512E-04   -0.20937E-05 26080   0.165E-02    0.249E-02
DAV:  13    -0.796730685108E+03   -0.31733E-04   -0.83108E-05 34110   0.215E-02    0.171E-02
DAV:  14    -0.796730702114E+03   -0.17006E-04   -0.46179E-05 26540   0.161E-02    0.143E-02
DAV:  15    -0.796730709505E+03   -0.73913E-05   -0.17449E-05 21820   0.890E-03
 186 F= -.79673071E+03 E0= -.79673071E+03  d E =-.943504E-01  mag=    47.0000
       N       E                     dE             d eps       ncg     rms          rms(c)
DAV:   1    -0.796725687460E+03    0.50147E-02   -0.84268E-01 35540   0.319E+00    0.391E-01
DAV:   2    -0.796737073150E+03   -0.11386E-01   -0.12541E-01 34580   0.655E-01    0.271E-01
DAV:   3    -0.796737885970E+03   -0.81282E-03   -0.52207E-03 40490   0.165E-01    0.158E-01
DAV:   4    -0.796737798689E+03    0.87282E-04   -0.42172E-04 43720   0.567E-02    0.108E-01
DAV:   5    -0.796737778735E+03    0.19953E-04   -0.36308E-04 38790   0.503E-02    0.506E-02
DAV:   6    -0.796737783537E+03   -0.48014E-05   -0.52725E-05 34960   0.292E-02
 187 F= -.79673778E+03 E0= -.79673778E+03  d E =-.707403E-02  mag=    47.0000
       N       E                     dE             d eps       ncg     rms          rms(c)
DAV:   1    -0.796640454365E+03    0.97324E-01   -0.11614E+01 35160   0.986E+00    0.116E+00
DAV:   2    -0.796742438147E+03   -0.10198E+00   -0.10719E+00 33350   0.192E+00    0.846E-01
DAV:   3    -0.796747985517E+03   -0.55474E-02   -0.31945E-02 39280   0.453E-01    0.462E-01
DAV:   4    -0.796747552773E+03    0.43274E-03   -0.30509E-03 42760   0.179E-01    0.365E-01
DAV:   5    -0.796747576418E+03   -0.23645E-04   -0.26090E-03 40500   0.139E-01    0.144E-01
DAV:   6    -0.796747742721E+03   -0.16630E-03   -0.58000E-04 39440   0.735E-02    0.102E-01
DAV:   7    -0.796747819396E+03   -0.76675E-04   -0.27489E-04 41390   0.391E-02    0.750E-02
DAV:   8    -0.796747895819E+03   -0.76423E-04   -0.48467E-05 30780   0.232E-02    0.636E-02
DAV:   9    -0.796747987134E+03   -0.91315E-04   -0.66396E-05 35300   0.237E-02    0.539E-02
DAV:  10    -0.796748071832E+03   -0.84699E-04   -0.63912E-05 30810   0.221E-02    0.480E-02
DAV:  11    -0.796748150116E+03   -0.78284E-04   -0.75345E-05 34170   0.226E-02    0.397E-02
DAV:  12    -0.796748244797E+03   -0.94681E-04   -0.19856E-04 42790   0.415E-02    0.282E-02
DAV:  13    -0.796748297048E+03   -0.52250E-04   -0.17682E-04 37120   0.299E-02    0.212E-02
DAV:  14    -0.796748320076E+03   -0.23029E-04   -0.48461E-05 26530   0.154E-02    0.137E-02
DAV:  15    -0.796748328815E+03   -0.87384E-05   -0.18383E-05 21250   0.795E-03
 188 F= -.79674833E+03 E0= -.79674833E+03  d E =-.105453E-01  mag=    47.0000
       N       E                     dE             d eps       ncg     rms          rms(c)
DAV:   1    -0.795220462658E+03    0.15279E+01   -0.92389E+01 35290   0.341E+01    0.420E+00
DAV:   2    -0.796481858278E+03   -0.12614E+01   -0.13934E+01 34530   0.703E+00    0.291E+00
DAV:   3    -0.796571276679E+03   -0.89418E-01   -0.60397E-01 40560   0.178E+00    0.166E+00
DAV:   4    -0.796561394306E+03    0.98824E-02   -0.48198E-02 44080   0.593E-01    0.110E+00
DAV:   5    -0.796558529719E+03    0.28646E-02   -0.37115E-02 38460   0.500E-01    0.513E-01
DAV:   6    -0.796559135201E+03   -0.60548E-03   -0.56556E-03 39000   0.287E-01    0.298E-01
DAV:   7    -0.796559483343E+03   -0.34814E-03   -0.35629E-03 42570   0.142E-01    0.193E-01
DAV:   8    -0.796559762746E+03   -0.27940E-03   -0.48170E-04 39740   0.663E-02    0.136E-01
DAV:   9    -0.796560043649E+03   -0.28090E-03   -0.28759E-04 40860   0.479E-02    0.980E-02
DAV:  10    -0.796560221919E+03   -0.17827E-03   -0.16445E-04 37160   0.350E-02    0.830E-02
DAV:  11    -0.796560349699E+03   -0.12778E-03   -0.88614E-05 33310   0.258E-02    0.746E-02
DAV:  12    -0.796560585137E+03   -0.23544E-03   -0.19155E-04 41900   0.434E-02    0.593E-02
DAV:  13    -0.796560784342E+03   -0.19920E-03   -0.45175E-04 42290   0.590E-02    0.463E-02
DAV:  14    -0.796560892689E+03   -0.10835E-03   -0.29444E-04 40830   0.395E-02    0.338E-02
DAV:  15    -0.796560940602E+03   -0.47914E-04   -0.88229E-05 31060   0.206E-02    0.250E-02
DAV:  16    -0.796560959653E+03   -0.19050E-04   -0.31520E-05 22310   0.108E-02    0.186E-02
DAV:  17    -0.796560969500E+03   -0.98469E-05   -0.85170E-06 20350   0.697E-03
 189 F= -.79656097E+03 E0= -.79656097E+03  d E =0.187359E+00  mag=    47.0000
       N       E                     dE             d eps       ncg     rms          rms(c)
DAV:   1    -0.795866899831E+03    0.69406E+00   -0.53406E+01 35600   0.270E+01    0.343E+00
DAV:   2    -0.796714756150E+03   -0.84786E+00   -0.95128E+00 34640   0.570E+00    0.246E+00
DAV:   3    -0.796776516142E+03   -0.61760E-01   -0.42461E-01 40960   0.147E+00    0.140E+00
DAV:   4    -0.796769270612E+03    0.72455E-02   -0.34631E-02 42580   0.507E-01    0.960E-01
DAV:   5    -0.796767024299E+03    0.22463E-02   -0.29238E-02 38720   0.440E-01    0.439E-01
DAV:   6    -0.796767286246E+03   -0.26195E-03   -0.40289E-03 38440   0.254E-01    0.248E-01
DAV:   7    -0.796767493756E+03   -0.20751E-03   -0.29773E-03 41480   0.124E-01    0.152E-01
DAV:   8    -0.796767643200E+03   -0.14944E-03   -0.34322E-04 37990   0.547E-02    0.105E-01
DAV:   9    -0.796767780411E+03   -0.13721E-03   -0.18133E-04 39990   0.384E-02    0.709E-02
DAV:  10    -0.796767867116E+03   -0.86705E-04   -0.87405E-05 35340   0.275E-02    0.582E-02
DAV:  11    -0.796767921775E+03   -0.54659E-04   -0.45996E-05 27040   0.186E-02    0.511E-02
DAV:  12    -0.796768017054E+03   -0.95279E-04   -0.73053E-05 34030   0.267E-02    0.404E-02
DAV:  13    -0.796768101939E+03   -0.84884E-04   -0.15373E-04 37800   0.345E-02    0.312E-02
DAV:  14    -0.796768147417E+03   -0.45479E-04   -0.10765E-04 34230   0.255E-02    0.244E-02
DAV:  15    -0.796768168547E+03   -0.21130E-04   -0.42683E-05 24830   0.146E-02    0.171E-02
DAV:  16    -0.796768177440E+03   -0.88932E-05   -0.14768E-05 19910   0.878E-03
 190 F= -.79676818E+03 E0= -.79676818E+03  d E =-.207208E+00  mag=    47.0000
       N       E                     dE             d eps       ncg     rms          rms(c)
DAV:   1    -0.796769355845E+03   -0.11873E-02   -0.11319E-01 34600   0.928E-01    0.104E-01
DAV:   2    -0.796770184557E+03   -0.82871E-03   -0.85998E-03 33320   0.182E-01    0.956E-02
DAV:   3    -0.796770216251E+03   -0.31695E-04   -0.25751E-04 39310   0.455E-02    0.481E-02
DAV:   4    -0.796770214262E+03    0.19897E-05   -0.20844E-05 25620   0.172E-02
 191 F= -.79677021E+03 E0= -.79677021E+03  d E =-.203682E-02  mag=    47.0000
       N       E                     dE             d eps       ncg     rms          rms(c)
DAV:   1    -0.796410048975E+03    0.36017E+00   -0.33718E+01 34830   0.176E+01    0.205E+00
DAV:   2    -0.796728120781E+03   -0.31807E+00   -0.34372E+00 34120   0.358E+00    0.167E+00
DAV:   3    -0.796746266429E+03   -0.18146E-01   -0.13683E-01 40460   0.914E-01    0.890E-01
DAV:   4    -0.796744129161E+03    0.21373E-02   -0.12553E-02 44340   0.340E-01    0.710E-01
DAV:   5    -0.796743785933E+03    0.34323E-03   -0.11160E-02 39650   0.278E-01    0.287E-01
DAV:   6    -0.796744172544E+03   -0.38661E-03   -0.19665E-03 39590   0.145E-01    0.191E-01
DAV:   7    -0.796744415842E+03   -0.24330E-03   -0.12127E-03 39910   0.756E-02    0.138E-01
DAV:   8    -0.796744654416E+03   -0.23857E-03   -0.16584E-04 38600   0.417E-02    0.113E-01
DAV:   9    -0.796744937210E+03   -0.28279E-03   -0.18675E-04 40860   0.408E-02    0.943E-02
DAV:  10    -0.796745190401E+03   -0.25319E-03   -0.19765E-04 37140   0.375E-02    0.832E-02
DAV:  11    -0.796745408258E+03   -0.21786E-03   -0.19191E-04 38360   0.354E-02    0.687E-02
DAV:  12    -0.796745682736E+03   -0.27448E-03   -0.55487E-04 43350   0.702E-02    0.493E-02
DAV:  13    -0.796745832143E+03   -0.14941E-03   -0.48200E-04 42100   0.479E-02    0.363E-02
DAV:  14    -0.796745893731E+03   -0.61588E-04   -0.12012E-04 34170   0.253E-02    0.226E-02
DAV:  15    -0.796745919309E+03   -0.25578E-04   -0.56880E-05 24510   0.133E-02    0.165E-02
DAV:  16    -0.796745926531E+03   -0.72220E-05   -0.60958E-06 18040   0.589E-03
 192 F= -.79674593E+03 E0= -.79674593E+03  d E =0.242877E-01  mag=    47.0000
       N       E                     dE             d eps       ncg     rms          rms(c)
DAV:   1    -0.794397811554E+03    0.23481E+01   -0.13596E+02 35670   0.420E+01    0.538E+00
DAV:   2    -0.796399540053E+03   -0.20017E+01   -0.22384E+01 34740   0.889E+00    0.387E+00
DAV:   3    -0.796546280600E+03   -0.14674E+00   -0.10286E+00 40990   0.232E+00    0.216E+00
DAV:   4    -0.796529034219E+03    0.17246E-01   -0.84425E-02 40450   0.786E-01    0.148E+00
DAV:   5    -0.796523227472E+03    0.58067E-02   -0.67478E-02 38640   0.640E-01    0.676E-01
DAV:   6    -0.796524301306E+03   -0.10738E-02   -0.95055E-03 38280   0.361E-01    0.382E-01
DAV:   7    -0.796524787955E+03   -0.48665E-03   -0.64724E-03 42380   0.180E-01    0.240E-01
DAV:   8    -0.796525130892E+03   -0.34294E-03   -0.71708E-04 39090   0.797E-02    0.159E-01
DAV:   9    -0.796525466612E+03   -0.33572E-03   -0.42930E-04 40870   0.589E-02    0.106E-01
DAV:  10    -0.796525647742E+03   -0.18113E-03   -0.19890E-04 37220   0.407E-02    0.843E-02
DAV:  11    -0.796525756253E+03   -0.10851E-03   -0.92714E-05 33330   0.261E-02    0.743E-02
DAV:  12    -0.796525949606E+03   -0.19335E-03   -0.13565E-04 37770   0.362E-02    0.596E-02
DAV:  13    -0.796526130552E+03   -0.18095E-03   -0.29995E-04 41470   0.504E-02    0.456E-02
DAV:  14    -0.796526220378E+03   -0.89826E-04   -0.21461E-04 38770   0.350E-02    0.344E-02
DAV:  15    -0.796526259080E+03   -0.38702E-04   -0.67254E-05 30090   0.191E-02    0.245E-02
DAV:  16    -0.796526276174E+03   -0.17095E-04   -0.28799E-05 21730   0.114E-02    0.187E-02
DAV:  17    -0.796526285865E+03   -0.96908E-05   -0.10577E-05 21100   0.776E-03
 193 F= -.79652629E+03 E0= -.79652629E+03  d E =0.219641E+00  mag=    47.0000
       N       E                     dE             d eps       ncg     rms          rms(c)
DAV:   1    -0.795896712044E+03    0.62956E+00   -0.55499E+01 35790   0.271E+01    0.341E+00
DAV:   2    -0.796735551864E+03   -0.83884E+00   -0.94227E+00 34510   0.563E+00    0.235E+00
DAV:   3    -0.796797441511E+03   -0.61890E-01   -0.41280E-01 40110   0.143E+00    0.137E+00
DAV:   4    -0.796790376386E+03    0.70651E-02   -0.32374E-02 44360   0.457E-01    0.887E-01
DAV:   5    -0.796788614317E+03    0.17621E-02   -0.26480E-02 37800   0.430E-01    0.429E-01
DAV:   6    -0.796788779015E+03   -0.16470E-03   -0.36679E-03 38900   0.239E-01    0.233E-01
DAV:   7    -0.796788965318E+03   -0.18630E-03   -0.24848E-03 42700   0.120E-01    0.152E-01
DAV:   8    -0.796789098031E+03   -0.13271E-03   -0.34288E-04 38930   0.559E-02    0.996E-02
DAV:   9    -0.796789216039E+03   -0.11801E-03   -0.16772E-04 39390   0.352E-02    0.644E-02
DAV:  10    -0.796789286613E+03   -0.70574E-04   -0.72948E-05 34650   0.240E-02    0.519E-02
DAV:  11    -0.796789330964E+03   -0.44350E-04   -0.37247E-05 25540   0.173E-02    0.461E-02
DAV:  12    -0.796789401543E+03   -0.70579E-04   -0.53068E-05 31640   0.224E-02    0.363E-02
DAV:  13    -0.796789468327E+03   -0.66784E-04   -0.12017E-04 37060   0.304E-02    0.270E-02
DAV:  14    -0.796789500895E+03   -0.32568E-04   -0.79955E-05 30790   0.205E-02    0.213E-02
DAV:  15    -0.796789515074E+03   -0.14179E-04   -0.27613E-05 22480   0.123E-02    0.142E-02
DAV:  16    -0.796789521130E+03   -0.60556E-05   -0.12536E-05 20310   0.767E-03
 194 F= -.79678952E+03 E0= -.79678952E+03  d E =-.263235E+00  mag=    47.0000
       N       E                     dE             d eps       ncg     rms          rms(c)
DAV:   1    -0.796784560115E+03    0.49550E-02   -0.47129E-01 35260   0.237E+00    0.299E-01
DAV:   2    -0.796791441798E+03   -0.68817E-02   -0.75892E-02 34850   0.502E-01    0.211E-01
DAV:   3    -0.796791905328E+03   -0.46353E-03   -0.33566E-03 40670   0.129E-01    0.122E-01
DAV:   4    -0.796791847984E+03    0.57344E-04   -0.26139E-04 43800   0.423E-02    0.817E-02
DAV:   5    -0.796791833801E+03    0.14182E-04   -0.22786E-04 38290   0.395E-02    0.401E-02
DAV:   6    -0.796791836503E+03   -0.27017E-05   -0.30219E-05 28640   0.224E-02
 195 F= -.79679184E+03 E0= -.79679184E+03  d E =-.231537E-02  mag=    47.0000
       N       E                     dE             d eps       ncg     rms          rms(c)
DAV:   1    -0.796758637183E+03    0.33197E-01   -0.36819E+00 35160   0.564E+00    0.655E-01
DAV:   2    -0.796791399486E+03   -0.32762E-01   -0.33779E-01 33250   0.107E+00    0.387E-01
DAV:   3    -0.796793046709E+03   -0.16472E-02   -0.85274E-03 38650   0.213E-01    0.222E-01
DAV:   4    -0.796792945960E+03    0.10075E-03   -0.67434E-04 44390   0.733E-02    0.152E-01
DAV:   5    -0.796792977767E+03   -0.31807E-04   -0.47269E-04 41440   0.645E-02    0.682E-02
DAV:   6    -0.796793021464E+03   -0.43698E-04   -0.13731E-04 40440   0.383E-02    0.473E-02
DAV:   7    -0.796793039538E+03   -0.18074E-04   -0.45424E-05 29760   0.186E-02    0.373E-02
DAV:   8    -0.796793063499E+03   -0.23960E-04   -0.15708E-05 19730   0.126E-02    0.315E-02
DAV:   9    -0.796793088931E+03   -0.25432E-04   -0.19436E-05 25340   0.118E-02    0.269E-02
DAV:  10    -0.796793110463E+03   -0.21532E-04   -0.19323E-05 23900   0.113E-02    0.239E-02
DAV:  11    -0.796793128764E+03   -0.18301E-04   -0.18548E-05 25080   0.113E-02    0.195E-02
DAV:  12    -0.796793149581E+03   -0.20818E-04   -0.40962E-05 31160   0.221E-02    0.127E-02
DAV:  13    -0.796793163302E+03   -0.13721E-04   -0.80313E-05 27820   0.159E-02    0.964E-03
DAV:  14    -0.796793169189E+03   -0.58874E-05   -0.12609E-05 20680   0.657E-03
 196 F= -.79679317E+03 E0= -.79679317E+03  d E =-.133269E-02  mag=    47.0000
       N       E                     dE             d eps       ncg     rms          rms(c)
DAV:   1    -0.796463935886E+03    0.32923E+00   -0.36058E+01 35150   0.176E+01    0.202E+00
DAV:   2    -0.796772310522E+03   -0.30837E+00   -0.31514E+00 32780   0.326E+00    0.113E+00
DAV:   3    -0.796787352822E+03   -0.15042E-01   -0.65914E-02 39180   0.582E-01    0.633E-01
DAV:   4    -0.796786532678E+03    0.82014E-03   -0.54937E-03 44850   0.206E-01    0.425E-01
DAV:   5    -0.796786944827E+03   -0.41215E-03   -0.30449E-03 43530   0.171E-01    0.171E-01
DAV:   6    -0.796787277294E+03   -0.33247E-03   -0.10428E-03 41410   0.102E-01    0.122E-01
DAV:   7    -0.796787380994E+03   -0.10370E-03   -0.23133E-04 39690   0.470E-02    0.912E-02
DAV:   8    -0.796787537695E+03   -0.15670E-03   -0.10753E-04 37160   0.329E-02    0.751E-02
DAV:   9    -0.796787688090E+03   -0.15039E-03   -0.11688E-04 37230   0.285E-02    0.649E-02
DAV:  10    -0.796787787987E+03   -0.99897E-04   -0.76903E-05 30300   0.218E-02    0.576E-02
DAV:  11    -0.796787921911E+03   -0.13392E-03   -0.11732E-04 38240   0.316E-02    0.460E-02
DAV:  12    -0.796788050119E+03   -0.12821E-03   -0.33199E-04 42620   0.552E-02    0.330E-02
DAV:  13    -0.796788125064E+03   -0.74945E-04   -0.26047E-04 39070   0.342E-02    0.250E-02
DAV:  14    -0.796788152998E+03   -0.27934E-04   -0.50600E-05 26070   0.152E-02    0.161E-02
DAV:  15    -0.796788162578E+03   -0.95798E-05   -0.16261E-05 21030   0.785E-03
 197 F= -.79678816E+03 E0= -.79678816E+03  d E =0.500661E-02  mag=    47.0000
       N       E                     dE             d eps       ncg     rms          rms(c)
DAV:   1    -0.796291459094E+03    0.49669E+00   -0.47336E+01 35010   0.211E+01    0.249E+00
DAV:   2    -0.796766454167E+03   -0.47500E+00   -0.49436E+00 33310   0.413E+00    0.149E+00
DAV:   3    -0.796791881478E+03   -0.25427E-01   -0.13242E-01 38540   0.833E-01    0.845E-01
DAV:   4    -0.796790157891E+03    0.17236E-02   -0.10207E-02 44750   0.259E-01    0.560E-01
DAV:   5    -0.796790217837E+03   -0.59947E-04   -0.68621E-03 40200   0.225E-01    0.226E-01
DAV:   6    -0.796790614991E+03   -0.39715E-03   -0.16276E-03 41040   0.128E-01    0.149E-01
DAV:   7    -0.796790718596E+03   -0.10360E-03   -0.65197E-04 41830   0.667E-02    0.101E-01
DAV:   8    -0.796790829709E+03   -0.11111E-03   -0.10807E-04 38930   0.346E-02    0.776E-02
DAV:   9    -0.796790957612E+03   -0.12790E-03   -0.10361E-04 38240   0.281E-02    0.620E-02
DAV:  10    -0.796791050000E+03   -0.92387E-04   -0.72259E-05 30950   0.223E-02    0.540E-02
DAV:  11    -0.796791125701E+03   -0.75701E-04   -0.58607E-05 33110   0.199E-02    0.458E-02
DAV:  12    -0.796791235644E+03   -0.10994E-03   -0.15003E-04 40300   0.382E-02    0.312E-02
DAV:  13    -0.796791294797E+03   -0.59153E-04   -0.19103E-04 37290   0.321E-02    0.235E-02
DAV:  14    -0.796791321431E+03   -0.26634E-04   -0.57699E-05 30510   0.163E-02    0.153E-02
DAV:  15    -0.796791330846E+03   -0.94152E-05   -0.17378E-05 20650   0.813E-03
 198 F= -.79679133E+03 E0= -.79679133E+03  d E =-.316827E-02  mag=    47.0000
       N       E                     dE             d eps       ncg     rms          rms(c)
DAV:   1    -0.796695109267E+03    0.96212E-01   -0.70840E+00 35360   0.918E+00    0.112E+00
DAV:   2    -0.796791029308E+03   -0.95920E-01   -0.10376E+00 34270   0.188E+00    0.746E-01
DAV:   3    -0.796797097193E+03   -0.60679E-02   -0.39547E-02 39570   0.447E-01    0.433E-01
DAV:   4    -0.796796471632E+03    0.62556E-03   -0.31035E-03 44660   0.143E-01    0.287E-01
DAV:   5    -0.796796347367E+03    0.12427E-03   -0.23876E-03 38050   0.127E-01    0.127E-01
DAV:   6    -0.796796391459E+03   -0.44093E-04   -0.37905E-04 39780   0.719E-02    0.778E-02
DAV:   7    -0.796796417248E+03   -0.25789E-04   -0.23766E-04 42560   0.376E-02    0.516E-02
DAV:   8    -0.796796440808E+03   -0.23559E-04   -0.27291E-05 25790   0.179E-02    0.386E-02
DAV:   9    -0.796796467254E+03   -0.26446E-04   -0.25677E-05 24540   0.137E-02    0.300E-02
DAV:  10    -0.796796486819E+03   -0.19565E-04   -0.16766E-05 23720   0.107E-02    0.256E-02
DAV:  11    -0.796796499846E+03   -0.13028E-04   -0.99221E-06 19180   0.846E-03    0.225E-02
DAV:  12    -0.796796522843E+03   -0.22997E-04   -0.17244E-05 25370   0.152E-02    0.177E-02
DAV:  13    -0.796796540867E+03   -0.18023E-04   -0.65662E-05 33330   0.175E-02    0.124E-02
DAV:  14    -0.796796550072E+03   -0.92059E-05   -0.26301E-05 21440   0.101E-02
 199 F= -.79679655E+03 E0= -.79679655E+03  d E =-.521923E-02  mag=    47.0000
       N       E                     dE             d eps       ncg     rms          rms(c)
DAV:   1    -0.796697626750E+03    0.98914E-01   -0.11438E+01 34600   0.951E+00    0.109E+00
DAV:   2    -0.796791364564E+03   -0.93738E-01   -0.95574E-01 33270   0.183E+00    0.707E-01
DAV:   3    -0.796795505299E+03   -0.41407E-02   -0.21988E-02 38030   0.366E-01    0.386E-01
DAV:   4    -0.796795232321E+03    0.27298E-03   -0.19828E-03 43800   0.136E-01    0.290E-01
DAV:   5    -0.796795304016E+03   -0.71695E-04   -0.14124E-03 42180   0.111E-01    0.115E-01
DAV:   6    -0.796795474148E+03   -0.17013E-03   -0.45181E-04 39800   0.593E-02    0.836E-02
DAV:   7    -0.796795536318E+03   -0.62170E-04   -0.10068E-04 36970   0.282E-02    0.671E-02
DAV:   8    -0.796795629438E+03   -0.93120E-04   -0.57216E-05 33610   0.227E-02    0.566E-02
DAV:   9    -0.796795729878E+03   -0.10044E-03   -0.87682E-05 36940   0.249E-02    0.477E-02
DAV:  10    -0.796795795732E+03   -0.65854E-04   -0.65801E-05 30810   0.197E-02    0.423E-02
DAV:  11    -0.796795869427E+03   -0.73695E-04   -0.82654E-05 37300   0.250E-02    0.331E-02
DAV:  12    -0.796795931452E+03   -0.62025E-04   -0.22376E-04 42770   0.418E-02    0.222E-02
DAV:  13    -0.796795969993E+03   -0.38541E-04   -0.14592E-04 35450   0.236E-02    0.166E-02
DAV:  14    -0.796795982261E+03   -0.12267E-04   -0.25132E-05 21080   0.886E-03    0.113E-02
DAV:  15    -0.796795984588E+03   -0.23270E-05   -0.28764E-06 16720   0.462E-03
 200 F= -.79679598E+03 E0= -.79679598E+03  d E =0.565485E-03  mag=    47.0000
