       N       E                     dE             d eps       ncg     rms          rms(c)
DAV:   1     0.103542782807E+05    0.10354E+05   -0.37715E+05 31990   0.141E+03
DAV:   2     0.515837593632E+03   -0.98384E+04   -0.92845E+04 31410   0.452E+02
DAV:   3    -0.854588235463E+03   -0.13704E+04   -0.12695E+04 34670   0.172E+02
DAV:   4    -0.938015877917E+03   -0.83428E+02   -0.81115E+02 39360   0.446E+01
DAV:   5    -0.940505320449E+03   -0.24894E+01   -0.24819E+01 38480   0.833E+00    0.189E+02
DAV:   6    -0.425091920432E+03    0.51541E+03   -0.12068E+03 38920   0.767E+01    0.911E+01
DAV:   7    -0.659044091437E+03   -0.23395E+03   -0.39691E+02 39980   0.604E+01    0.738E+01
DAV:   8    -0.691605536027E+03   -0.32561E+02   -0.52081E+01 40990   0.189E+01    0.495E+01
DAV:   9    -0.739232839186E+03   -0.47627E+02   -0.41940E+01 39730   0.146E+01    0.371E+01
DAV:  10    -0.773245565586E+03   -0.34013E+02   -0.40498E+01 41400   0.157E+01    0.298E+01
DAV:  11    -0.791855004361E+03   -0.18609E+02   -0.27997E+01 39640   0.966E+00    0.160E+01
DAV:  12    -0.794627107140E+03   -0.27721E+01   -0.60120E+00 40160   0.700E+00    0.954E+00
DAV:  13    -0.795749788353E+03   -0.11227E+01   -0.22308E+00 40360   0.423E+00    0.657E+00
DAV:  14    -0.796213009126E+03   -0.46322E+00   -0.58118E-01 37080   0.223E+00    0.406E+00
DAV:  15    -0.796480538563E+03   -0.26753E+00   -0.27784E-01 37720   0.141E+00    0.256E+00
DAV:  16    -0.796564303087E+03   -0.83765E-01   -0.11036E-01 36590   0.106E+00    0.152E+00
DAV:  17    -0.796582543799E+03   -0.18241E-01   -0.45214E-02 36360   0.677E-01    0.785E-01
DAV:  18    -0.796589325293E+03   -0.67815E-02   -0.10644E-02 34970   0.273E-01    0.578E-01
DAV:  19    -0.796594604821E+03   -0.52795E-02   -0.35092E-03 38950   0.156E-01    0.427E-01
DAV:  20    -0.796598735433E+03   -0.41306E-02   -0.23487E-03 39140   0.143E-01    0.336E-01
DAV:  21    -0.796601974188E+03   -0.32388E-02   -0.25100E-03 39050   0.133E-01    0.282E-01
DAV:  22    -0.796604591250E+03   -0.26171E-02   -0.21361E-03 39000   0.120E-01    0.243E-01
DAV:  23    -0.796607072746E+03   -0.24815E-02   -0.24153E-03 40630   0.129E-01    0.189E-01
DAV:  24    -0.796609145810E+03   -0.20731E-02   -0.35264E-03 41170   0.157E-01    0.150E-01
DAV:  25    -0.796610345014E+03   -0.11992E-02   -0.31510E-03 39020   0.114E-01    0.107E-01
DAV:  26    -0.796610887229E+03   -0.54222E-03   -0.90497E-04 36110   0.581E-02    0.751E-02
DAV:  27    -0.796611084271E+03   -0.19704E-03   -0.20177E-04 32730   0.281E-02    0.592E-02
DAV:  28    -0.796611223288E+03   -0.13902E-03   -0.12034E-04 35430   0.316E-02    0.474E-02
DAV:  29    -0.796611332531E+03   -0.10924E-03   -0.20435E-04 37230   0.356E-02    0.410E-02
DAV:  30    -0.796611394576E+03   -0.62045E-04   -0.10391E-04 29640   0.192E-02    0.336E-02
DAV:  31    -0.796611443757E+03   -0.49181E-04   -0.32390E-05 27840   0.168E-02    0.290E-02
DAV:  32    -0.796611488653E+03   -0.44896E-04   -0.77995E-05 34630   0.226E-02    0.216E-02
DAV:  33    -0.796611517789E+03   -0.29136E-04   -0.75434E-05 31860   0.199E-02    0.185E-02
DAV:  34    -0.796611535644E+03   -0.17855E-04   -0.33755E-05 22560   0.114E-02    0.135E-02
DAV:  35    -0.796611540861E+03   -0.52167E-05   -0.61032E-06 18110   0.565E-03
   1 F= -.79661154E+03 E0= -.79661154E+03  d E =-.796612E+03  mag=    46.9996
       N       E                     dE             d eps       ncg     rms          rms(c)
DAV:   1    -0.796615739673E+03   -0.42040E-02   -0.90246E-03 35980   0.341E-01    0.435E-02
DAV:   2    -0.796615879358E+03   -0.13969E-03   -0.14946E-03 34060   0.703E-02    0.306E-02
DAV:   3    -0.796615888267E+03   -0.89091E-05   -0.51921E-05 30810   0.171E-02    0.180E-02
DAV:   4    -0.796615888324E+03   -0.57407E-07   -0.39607E-06 17130   0.625E-03
   2 F= -.79661589E+03 E0= -.79661589E+03  d E =-.434746E-02  mag=    47.0000
       N       E                     dE             d eps       ncg     rms          rms(c)
DAV:   1    -0.796543861440E+03    0.72027E-01   -0.11610E+01 35410   0.122E+01    0.152E+00
DAV:   2    -0.796721066112E+03   -0.17720E+00   -0.19147E+00 34040   0.251E+00    0.105E+00
DAV:   3    -0.796732089054E+03   -0.11023E-01   -0.69342E-02 39540   0.601E-01    0.598E-01
DAV:   4    -0.796731053624E+03    0.10354E-02   -0.58942E-03 43510   0.198E-01    0.412E-01
DAV:   5    -0.796730911515E+03    0.14211E-03   -0.42698E-03 38560   0.165E-01    0.171E-01
DAV:   6    -0.796730986459E+03   -0.74944E-04   -0.67104E-04 39190   0.914E-02    0.110E-01
DAV:   7    -0.796731028741E+03   -0.42281E-04   -0.44863E-04 42670   0.513E-02    0.656E-02
DAV:   8    -0.796731065653E+03   -0.36913E-04   -0.47174E-05 31260   0.233E-02    0.494E-02
DAV:   9    -0.796731107802E+03   -0.42148E-04   -0.45603E-05 32040   0.170E-02    0.362E-02
DAV:  10    -0.796731136785E+03   -0.28984E-04   -0.21824E-05 23760   0.130E-02    0.310E-02
DAV:  11    -0.796731157790E+03   -0.21005E-04   -0.16543E-05 24120   0.110E-02    0.271E-02
DAV:  12    -0.796731189174E+03   -0.31383E-04   -0.27439E-05 27080   0.181E-02    0.202E-02
DAV:  13    -0.796731211064E+03   -0.21890E-04   -0.75751E-05 33610   0.193E-02    0.133E-02
DAV:  14    -0.796731221650E+03   -0.10586E-04   -0.31837E-05 22480   0.106E-02    0.992E-03
DAV:  15    -0.796731224738E+03   -0.30882E-05   -0.53388E-06 17980   0.493E-03
   3 F= -.79673122E+03 E0= -.79673122E+03  d E =-.115336E+00  mag=    47.0000
       N       E                     dE             d eps       ncg     rms          rms(c)
DAV:   1    -0.796521069242E+03    0.21015E+00   -0.16790E+01 35680   0.146E+01    0.183E+00
DAV:   2    -0.796766765551E+03   -0.24570E+00   -0.26846E+00 34300   0.300E+00    0.122E+00
DAV:   3    -0.796783146249E+03   -0.16381E-01   -0.10573E-01 39660   0.734E-01    0.710E-01
DAV:   4    -0.796781450970E+03    0.16953E-02   -0.86612E-03 44390   0.244E-01    0.473E-01
DAV:   5    -0.796781030407E+03    0.42056E-03   -0.65220E-03 37790   0.207E-01    0.209E-01
DAV:   6    -0.796781115943E+03   -0.85536E-04   -0.10408E-03 39340   0.121E-01    0.126E-01
DAV:   7    -0.796781167630E+03   -0.51688E-04   -0.64730E-04 42590   0.627E-02    0.790E-02
DAV:   8    -0.796781210823E+03   -0.43193E-04   -0.81129E-05 35610   0.284E-02    0.556E-02
DAV:   9    -0.796781257612E+03   -0.46789E-04   -0.50990E-05 33620   0.192E-02    0.396E-02
DAV:  10    -0.796781289021E+03   -0.31408E-04   -0.26809E-05 24160   0.139E-02    0.330E-02
DAV:  11    -0.796781311066E+03   -0.22046E-04   -0.16192E-05 22580   0.112E-02    0.291E-02
DAV:  12    -0.796781343175E+03   -0.32109E-04   -0.24141E-05 25190   0.163E-02    0.223E-02
DAV:  13    -0.796781370652E+03   -0.27477E-04   -0.76778E-05 34580   0.213E-02    0.149E-02
DAV:  14    -0.796781383747E+03   -0.13095E-04   -0.38365E-05 22600   0.119E-02    0.117E-02
DAV:  15    -0.796781387915E+03   -0.41678E-05   -0.67442E-06 19130   0.581E-03
   4 F= -.79678139E+03 E0= -.79678139E+03  d E =-.501632E-01  mag=    47.0000
       N       E                     dE             d eps       ncg     rms          rms(c)
DAV:   1    -0.796779606928E+03    0.17768E-02   -0.26443E-01 35150   0.158E+00    0.191E-01
DAV:   2    -0.796782214085E+03   -0.26072E-02   -0.26921E-02 33380   0.304E-01    0.126E-01
DAV:   3    -0.796782355415E+03   -0.14133E-03   -0.72398E-04 38620   0.677E-02    0.683E-02
DAV:   4    -0.796782348280E+03    0.71346E-05   -0.63279E-05 35940   0.247E-02
   5 F= -.79678235E+03 E0= -.79678235E+03  d E =-.960366E-03  mag=    47.0000
       N       E                     dE             d eps       ncg     rms          rms(c)
DAV:   1    -0.796340062265E+03    0.44229E+00   -0.48896E+01 34760   0.201E+01    0.232E+00
DAV:   2    -0.796736080261E+03   -0.39602E+00   -0.40568E+00 33030   0.376E+00    0.141E+00
DAV:   3    -0.796755950959E+03   -0.19871E-01   -0.88706E-02 38980   0.727E-01    0.774E-01
DAV:   4    -0.796755009706E+03    0.94125E-03   -0.82250E-03 43960   0.273E-01    0.564E-01
DAV:   5    -0.796755661963E+03   -0.65226E-03   -0.53151E-03 43440   0.220E-01    0.224E-01
DAV:   6    -0.796756279053E+03   -0.61709E-03   -0.16755E-03 39810   0.117E-01    0.163E-01
DAV:   7    -0.796756487934E+03   -0.20888E-03   -0.38776E-04 39570   0.572E-02    0.124E-01
DAV:   8    -0.796756783832E+03   -0.29590E-03   -0.17703E-04 40680   0.413E-02    0.106E-01
DAV:   9    -0.796757116165E+03   -0.33233E-03   -0.24240E-04 40830   0.425E-02    0.899E-02
DAV:  10    -0.796757335726E+03   -0.21956E-03   -0.19326E-04 35480   0.329E-02    0.787E-02
DAV:  11    -0.796757611812E+03   -0.27609E-03   -0.26291E-04 43210   0.486E-02    0.624E-02
DAV:  12    -0.796757845148E+03   -0.23334E-03   -0.63264E-04 42030   0.740E-02    0.436E-02
DAV:  13    -0.796757977958E+03   -0.13281E-03   -0.46476E-04 41810   0.464E-02    0.326E-02
DAV:  14    -0.796758029354E+03   -0.51396E-04   -0.97373E-05 31150   0.192E-02    0.215E-02
DAV:  15    -0.796758043333E+03   -0.13979E-04   -0.18208E-05 20930   0.856E-03    0.179E-02
DAV:  16    -0.796758051157E+03   -0.78239E-05   -0.35440E-06 16740   0.655E-03
   6 F= -.79675805E+03 E0= -.79675805E+03  d E =0.242971E-01  mag=    47.0000
       N       E                     dE             d eps       ncg     rms          rms(c)
DAV:   1    -0.795273892187E+03    0.14842E+01   -0.81880E+01 35420   0.325E+01    0.416E+00
DAV:   2    -0.796498784575E+03   -0.12249E+01   -0.13166E+01 34100   0.670E+00    0.290E+00
DAV:   3    -0.796574355359E+03   -0.75571E-01   -0.48026E-01 40470   0.163E+00    0.159E+00
DAV:   4    -0.796567795937E+03    0.65594E-02   -0.43812E-02 42000   0.577E-01    0.116E+00
DAV:   5    -0.796566564560E+03    0.12314E-02   -0.29820E-02 39700   0.427E-01    0.471E-01
DAV:   6    -0.796567379797E+03   -0.81524E-03   -0.50215E-03 38880   0.246E-01    0.306E-01
DAV:   7    -0.796567707759E+03   -0.32796E-03   -0.31705E-03 42510   0.137E-01    0.182E-01
DAV:   8    -0.796568006903E+03   -0.29914E-03   -0.36130E-04 41260   0.593E-02    0.139E-01
DAV:   9    -0.796568364981E+03   -0.35808E-03   -0.31699E-04 41160   0.479E-02    0.104E-01
DAV:  10    -0.796568605170E+03   -0.24019E-03   -0.19132E-04 37200   0.380E-02    0.902E-02
DAV:  11    -0.796568786749E+03   -0.18158E-03   -0.14066E-04 36050   0.313E-02    0.775E-02
DAV:  12    -0.796569088766E+03   -0.30202E-03   -0.35476E-04 43890   0.578E-02    0.578E-02
DAV:  13    -0.796569271761E+03   -0.18300E-03   -0.49228E-04 41900   0.558E-02    0.438E-02
DAV:  14    -0.796569358028E+03   -0.86267E-04   -0.19797E-04 39190   0.327E-02    0.308E-02
DAV:  15    -0.796569392971E+03   -0.34943E-04   -0.62637E-05 28230   0.157E-02    0.241E-02
DAV:  16    -0.796569405686E+03   -0.12715E-04   -0.13506E-05 19230   0.756E-03    0.195E-02
DAV:  17    -0.796569417746E+03   -0.12061E-04   -0.73901E-06 19200   0.796E-03    0.164E-02
DAV:  18    -0.796569428070E+03   -0.10323E-04   -0.15508E-05 23910   0.902E-03    0.133E-02
DAV:  19    -0.796569435679E+03   -0.76090E-05   -0.10930E-05 20700   0.712E-03
   7 F= -.79656944E+03 E0= -.79656944E+03  d E =0.188615E+00  mag=    47.0000
       N       E                     dE             d eps       ncg     rms          rms(c)
DAV:   1    -0.796110472334E+03    0.45896E+00   -0.37051E+01 35330   0.224E+01    0.291E+00
DAV:   2    -0.796712970742E+03   -0.60250E+00   -0.64907E+00 33970   0.461E+00    0.202E+00
DAV:   3    -0.796751767336E+03   -0.38797E-01   -0.23224E-01 40160   0.112E+00    0.111E+00
DAV:   4    -0.796748855287E+03    0.29120E-02   -0.20468E-02 43450   0.387E-01    0.791E-01
DAV:   5    -0.796748606530E+03    0.24876E-03   -0.14727E-02 38920   0.319E-01    0.321E-01
DAV:   6    -0.796748900288E+03   -0.29376E-03   -0.23345E-03 39550   0.180E-01    0.194E-01
DAV:   7    -0.796749045016E+03   -0.14473E-03   -0.15249E-03 42570   0.935E-02    0.119E-01
DAV:   8    -0.796749166612E+03   -0.12160E-03   -0.16444E-04 40220   0.416E-02    0.887E-02
DAV:   9    -0.796749309108E+03   -0.14250E-03   -0.13251E-04 40580   0.327E-02    0.677E-02
DAV:  10    -0.796749409920E+03   -0.10081E-03   -0.77710E-05 32880   0.253E-02    0.584E-02
DAV:  11    -0.796749483422E+03   -0.73503E-04   -0.56510E-05 31150   0.200E-02    0.498E-02
DAV:  12    -0.796749609290E+03   -0.12587E-03   -0.14522E-04 39650   0.366E-02    0.362E-02
DAV:  13    -0.796749684807E+03   -0.75518E-04   -0.18715E-04 37210   0.345E-02    0.274E-02
DAV:  14    -0.796749720184E+03   -0.35377E-04   -0.73885E-05 33990   0.204E-02    0.196E-02
DAV:  15    -0.796749734863E+03   -0.14679E-04   -0.26969E-05 21480   0.108E-02    0.146E-02
DAV:  16    -0.796749740587E+03   -0.57241E-05   -0.71053E-06 18230   0.614E-03
   8 F= -.79674974E+03 E0= -.79674974E+03  d E =-.180305E+00  mag=    47.0000
       N       E                     dE             d eps       ncg     rms          rms(c)
DAV:   1    -0.796685655032E+03    0.64080E-01   -0.38585E+00 35600   0.721E+00    0.910E-01
DAV:   2    -0.796745842744E+03   -0.60188E-01   -0.64634E-01 34070   0.147E+00    0.607E-01
DAV:   3    -0.796749837744E+03   -0.39950E-02   -0.23894E-02 39960   0.357E-01    0.344E-01
DAV:   4    -0.796749536380E+03    0.30136E-03   -0.19625E-03 44390   0.118E-01    0.235E-01
DAV:   5    -0.796749514717E+03    0.21663E-04   -0.14112E-03 38970   0.970E-02    0.102E-01
DAV:   6    -0.796749548391E+03   -0.33674E-04   -0.22080E-04 39050   0.552E-02    0.642E-02
DAV:   7    -0.796749566892E+03   -0.18500E-04   -0.14692E-04 41950   0.303E-02    0.418E-02
DAV:   8    -0.796749585111E+03   -0.18220E-04   -0.17430E-05 20980   0.140E-02    0.331E-02
DAV:   9    -0.796749606569E+03   -0.21458E-04   -0.18408E-05 22530   0.117E-02    0.264E-02
DAV:  10    -0.796749622627E+03   -0.16058E-04   -0.13706E-05 22240   0.946E-03    0.232E-02
DAV:  11    -0.796749633552E+03   -0.10925E-04   -0.84723E-06 18270   0.741E-03    0.202E-02
DAV:  12    -0.796749654827E+03   -0.21275E-04   -0.17031E-05 25200   0.158E-02    0.163E-02
DAV:  13    -0.796749671010E+03   -0.16183E-04   -0.70175E-05 32440   0.176E-02    0.115E-02
DAV:  14    -0.796749680212E+03   -0.92017E-05   -0.23084E-05 20910   0.951E-03
   9 F= -.79674968E+03 E0= -.79674968E+03  d E =0.603754E-04  mag=    47.0000
       N       E                     dE             d eps       ncg     rms          rms(c)
DAV:   1    -0.796719140961E+03    0.30530E-01   -0.19226E+00 35140   0.433E+00    0.510E-01
DAV:   2    -0.796738702002E+03   -0.19561E-01   -0.20047E-01 33280   0.826E-01    0.321E-01
DAV:   3    -0.796739735939E+03   -0.10339E-02   -0.47971E-03 39260   0.171E-01    0.179E-01
DAV:   4    -0.796739693511E+03    0.42428E-04   -0.44741E-04 43700   0.684E-02    0.134E-01
DAV:   5    -0.796739721807E+03   -0.28296E-04   -0.30769E-04 43880   0.539E-02    0.554E-02
DAV:   6    -0.796739755966E+03   -0.34160E-04   -0.87308E-05 37060   0.288E-02    0.411E-02
DAV:   7    -0.796739770780E+03   -0.14814E-04   -0.27079E-05 23760   0.148E-02    0.318E-02
DAV:   8    -0.796739789933E+03   -0.19153E-04   -0.11813E-05 19230   0.104E-02    0.281E-02
DAV:   9    -0.796739811432E+03   -0.21499E-04   -0.15376E-05 23310   0.106E-02    0.238E-02
DAV:  10    -0.796739829213E+03   -0.17781E-04   -0.17510E-05 22840   0.994E-03    0.207E-02
DAV:  11    -0.796739845110E+03   -0.15897E-04   -0.14746E-05 22900   0.108E-02    0.172E-02
DAV:  12    -0.796739861116E+03   -0.16006E-04   -0.36559E-05 31250   0.197E-02    0.114E-02
DAV:  13    -0.796739872323E+03   -0.11207E-04   -0.61720E-05 26530   0.137E-02    0.863E-03
DAV:  14    -0.796739876963E+03   -0.46405E-05   -0.89213E-06 19700   0.570E-03
  10 F= -.79673988E+03 E0= -.79673988E+03  d E =0.980325E-02  mag=    47.0000
       N       E                     dE             d eps       ncg     rms          rms(c)
DAV:   1    -0.796633860482E+03    0.10601E+00   -0.93099E+00 34600   0.906E+00    0.105E+00
DAV:   2    -0.796717749629E+03   -0.83889E-01   -0.85521E-01 32660   0.170E+00    0.616E-01
DAV:   3    -0.796721964251E+03   -0.42146E-02   -0.16993E-02 39930   0.305E-01    0.343E-01
DAV:   4    -0.796721824672E+03    0.13958E-03   -0.15430E-03 45300   0.120E-01    0.247E-01
DAV:   5    -0.796722056722E+03   -0.23205E-03   -0.92617E-04 45660   0.100E-01    0.106E-01
DAV:   6    -0.796722206076E+03   -0.14935E-03   -0.33345E-04 39670   0.562E-02    0.863E-02
DAV:   7    -0.796722279597E+03   -0.73520E-04   -0.80975E-05 35290   0.275E-02    0.699E-02
DAV:   8    -0.796722410173E+03   -0.13058E-03   -0.84745E-05 36140   0.269E-02    0.582E-02
DAV:   9    -0.796722532663E+03   -0.12249E-03   -0.10525E-04 36260   0.280E-02    0.502E-02
DAV:  10    -0.796722614314E+03   -0.81652E-04   -0.76367E-05 32000   0.222E-02    0.437E-02
DAV:  11    -0.796722702305E+03   -0.87991E-04   -0.10236E-04 38070   0.302E-02    0.339E-02
DAV:  12    -0.796722764849E+03   -0.62544E-04   -0.24146E-04 42150   0.454E-02    0.234E-02
DAV:  13    -0.796722809949E+03   -0.45100E-04   -0.16118E-04 34200   0.245E-02    0.186E-02
DAV:  14    -0.796722822526E+03   -0.12578E-04   -0.20423E-05 20680   0.827E-03    0.131E-02
DAV:  15    -0.796722824122E+03   -0.15958E-05   -0.15273E-06 16730   0.411E-03
  11 F= -.79672282E+03 E0= -.79672282E+03  d E =0.170528E-01  mag=    47.0000
       N       E                     dE             d eps       ncg     rms          rms(c)
DAV:   1    -0.795794400914E+03    0.92842E+00   -0.52852E+01 35430   0.260E+01    0.326E+00
DAV:   2    -0.796554074466E+03   -0.75967E+00   -0.81478E+00 34060   0.524E+00    0.223E+00
DAV:   3    -0.796602325860E+03   -0.48251E-01   -0.29143E-01 40360   0.125E+00    0.123E+00
DAV:   4    -0.796598416780E+03    0.39091E-02   -0.25857E-02 42230   0.440E-01    0.879E-01
DAV:   5    -0.796597930457E+03    0.48632E-03   -0.17511E-02 38860   0.343E-01    0.373E-01
DAV:   6    -0.796598485853E+03   -0.55540E-03   -0.32500E-03 39420   0.205E-01    0.246E-01
DAV:   7    -0.796598734250E+03   -0.24840E-03   -0.18988E-03 42270   0.111E-01    0.154E-01
DAV:   8    -0.796598985513E+03   -0.25126E-03   -0.26336E-04 40870   0.496E-02    0.122E-01
DAV:   9    -0.796599280853E+03   -0.29534E-03   -0.23719E-04 41220   0.414E-02    0.945E-02
DAV:  10    -0.796599501535E+03   -0.22068E-03   -0.17298E-04 37140   0.357E-02    0.835E-02
DAV:  11    -0.796599654797E+03   -0.15326E-03   -0.13038E-04 35020   0.280E-02    0.710E-02
DAV:  12    -0.796599925111E+03   -0.27031E-03   -0.35759E-04 44540   0.592E-02    0.530E-02
DAV:  13    -0.796600080309E+03   -0.15520E-03   -0.46211E-04 41980   0.528E-02    0.395E-02
DAV:  14    -0.796600155746E+03   -0.75437E-04   -0.17654E-04 37970   0.297E-02    0.295E-02
DAV:  15    -0.796600186072E+03   -0.30326E-04   -0.51104E-05 25360   0.139E-02    0.234E-02
DAV:  16    -0.796600198223E+03   -0.12151E-04   -0.12272E-05 18560   0.729E-03    0.192E-02
DAV:  17    -0.796600210657E+03   -0.12433E-04   -0.81062E-06 20210   0.874E-03    0.164E-02
DAV:  18    -0.796600221063E+03   -0.10406E-04   -0.18811E-05 25290   0.927E-03    0.136E-02
DAV:  19    -0.796600228804E+03   -0.77411E-05   -0.10314E-05 20290   0.735E-03
  12 F= -.79660023E+03 E0= -.79660023E+03  d E =0.122595E+00  mag=    47.0000
       N       E                     dE             d eps       ncg     rms          rms(c)
DAV:   1    -0.795470143795E+03    0.11301E+01   -0.72057E+01 35590   0.315E+01    0.410E+00
DAV:   2    -0.796619139869E+03   -0.11490E+01   -0.12504E+01 34350   0.647E+00    0.284E+00
DAV:   3    -0.796698148765E+03   -0.79009E-01   -0.48113E-01 40570   0.161E+00    0.158E+00
DAV:   4    -0.796691521827E+03    0.66269E-02   -0.40825E-02 43360   0.545E-01    0.110E+00
DAV:   5    -0.796690155093E+03    0.13667E-02   -0.31020E-02 38670   0.446E-01    0.458E-01
DAV:   6    -0.796690687813E+03   -0.53272E-03   -0.46312E-03 38810   0.260E-01    0.269E-01
DAV:   7    -0.796690921193E+03   -0.23338E-03   -0.31337E-03 42630   0.132E-01    0.162E-01
DAV:   8    -0.796691100358E+03   -0.17917E-03   -0.31901E-04 39340   0.555E-02    0.114E-01
DAV:   9    -0.796691308925E+03   -0.20857E-03   -0.22110E-04 41440   0.416E-02    0.821E-02
DAV:  10    -0.796691443300E+03   -0.13438E-03   -0.11699E-04 36300   0.310E-02    0.684E-02
DAV:  11    -0.796691526914E+03   -0.83614E-04   -0.65537E-05 31370   0.220E-02    0.593E-02
DAV:  12    -0.796691674520E+03   -0.14761E-03   -0.12725E-04 38230   0.342E-02    0.456E-02
DAV:  13    -0.796691790330E+03   -0.11581E-03   -0.23040E-04 38950   0.412E-02    0.341E-02
DAV:  14    -0.796691844505E+03   -0.54174E-04   -0.11845E-04 37050   0.248E-02    0.254E-02
DAV:  15    -0.796691866518E+03   -0.22013E-04   -0.33692E-05 23110   0.129E-02    0.185E-02
DAV:  16    -0.796691876112E+03   -0.95944E-05   -0.12684E-05 20420   0.777E-03
  13 F= -.79669188E+03 E0= -.79669188E+03  d E =-.916473E-01  mag=    47.0000
       N       E                     dE             d eps       ncg     rms          rms(c)
DAV:   1    -0.796629200926E+03    0.62666E-01   -0.56195E+00 35400   0.894E+00    0.114E+00
DAV:   2    -0.796723694016E+03   -0.94493E-01   -0.10340E+00 34320   0.185E+00    0.763E-01
DAV:   3    -0.796730278622E+03   -0.65846E-02   -0.41042E-02 39590   0.456E-01    0.438E-01
DAV:   4    -0.796729670634E+03    0.60799E-03   -0.33188E-03 44830   0.144E-01    0.291E-01
DAV:   5    -0.796729564592E+03    0.10604E-03   -0.24643E-03 38030   0.125E-01    0.126E-01
DAV:   6    -0.796729591655E+03   -0.27063E-04   -0.32778E-04 39360   0.695E-02    0.757E-02
DAV:   7    -0.796729611499E+03   -0.19844E-04   -0.24137E-04 42820   0.381E-02    0.475E-02
DAV:   8    -0.796729626702E+03   -0.15204E-04   -0.26208E-05 25770   0.177E-02    0.336E-02
DAV:   9    -0.796729642733E+03   -0.16031E-04   -0.20364E-05 21890   0.123E-02    0.242E-02
DAV:  10    -0.796729653456E+03   -0.10722E-04   -0.11987E-05 19320   0.893E-03    0.199E-02
DAV:  11    -0.796729659464E+03   -0.60081E-05   -0.56860E-06 17320   0.625E-03
  14 F= -.79672966E+03 E0= -.79672966E+03  d E =-.377834E-01  mag=    47.0000
       N       E                     dE             d eps       ncg     rms          rms(c)
DAV:   1    -0.796714679997E+03    0.14973E-01   -0.13647E+00 35460   0.414E+00    0.514E-01
DAV:   2    -0.796734483762E+03   -0.19804E-01   -0.21461E-01 34270   0.853E-01    0.355E-01
DAV:   3    -0.796735797813E+03   -0.13141E-02   -0.84039E-03 40210   0.211E-01    0.201E-01
DAV:   4    -0.796735683252E+03    0.11456E-03   -0.69166E-04 44430   0.719E-02    0.142E-01
DAV:   5    -0.796735681569E+03    0.16830E-05   -0.54903E-04 38510   0.624E-02    0.661E-02
DAV:   6    -0.796735702644E+03   -0.21075E-04   -0.91954E-05 37130   0.358E-02    0.442E-02
DAV:   7    -0.796735717850E+03   -0.15206E-04   -0.61561E-05 32430   0.189E-02    0.335E-02
DAV:   8    -0.796735734382E+03   -0.16531E-04   -0.11164E-05 19260   0.107E-02    0.284E-02
DAV:   9    -0.796735752958E+03   -0.18577E-04   -0.13066E-05 22520   0.101E-02    0.237E-02
DAV:  10    -0.796735768473E+03   -0.15514E-04   -0.14033E-05 22220   0.941E-03    0.208E-02
DAV:  11    -0.796735781654E+03   -0.13181E-04   -0.12404E-05 22060   0.923E-03    0.173E-02
DAV:  12    -0.796735797940E+03   -0.16286E-04   -0.24695E-05 27590   0.172E-02    0.122E-02
DAV:  13    -0.796735808051E+03   -0.10111E-04   -0.59004E-05 29190   0.151E-02    0.884E-03
DAV:  14    -0.796735813546E+03   -0.54953E-05   -0.15217E-05 20360   0.714E-03
  15 F= -.79673581E+03 E0= -.79673581E+03  d E =-.615408E-02  mag=    47.0000
       N       E                     dE             d eps       ncg     rms          rms(c)
DAV:   1    -0.796686981661E+03    0.48826E-01   -0.50240E+00 35360   0.692E+00    0.814E-01
DAV:   2    -0.796736608828E+03   -0.49627E-01   -0.52113E-01 33400   0.136E+00    0.578E-01
DAV:   3    -0.796739453450E+03   -0.28446E-02   -0.16926E-02 39920   0.319E-01    0.316E-01
DAV:   4    -0.796739274212E+03    0.17924E-03   -0.14891E-03 43860   0.120E-01    0.244E-01
DAV:   5    -0.796739338236E+03   -0.64024E-04   -0.12163E-03 42080   0.963E-02    0.107E-01
DAV:   6    -0.796739440612E+03   -0.10238E-03   -0.28619E-04 39830   0.537E-02    0.789E-02
DAV:   7    -0.796739499879E+03   -0.59267E-04   -0.13404E-04 38730   0.275E-02    0.631E-02
DAV:   8    -0.796739566951E+03   -0.67072E-04   -0.33452E-05 27510   0.182E-02    0.554E-02
DAV:   9    -0.796739652388E+03   -0.85437E-04   -0.59132E-05 34940   0.217E-02    0.464E-02
DAV:  10    -0.796739733907E+03   -0.81519E-04   -0.74839E-05 33670   0.239E-02    0.411E-02
DAV:  11    -0.796739801639E+03   -0.67732E-04   -0.86405E-05 34470   0.242E-02    0.324E-02
DAV:  12    -0.796739860961E+03   -0.59322E-04   -0.16812E-04 41230   0.371E-02    0.231E-02
DAV:  13    -0.796739895960E+03   -0.34999E-04   -0.12898E-04 34590   0.237E-02    0.166E-02
DAV:  14    -0.796739909769E+03   -0.13809E-04   -0.31431E-05 21780   0.101E-02    0.111E-02
DAV:  15    -0.796739912380E+03   -0.26107E-05   -0.34281E-06 17070   0.460E-03
  16 F= -.79673991E+03 E0= -.79673991E+03  d E =-.409883E-02  mag=    47.0000
       N       E                     dE             d eps       ncg     rms          rms(c)
DAV:   1    -0.796636642022E+03    0.10327E+00   -0.12428E+01 34880   0.101E+01    0.116E+00
DAV:   2    -0.796738091359E+03   -0.10145E+00   -0.10364E+00 32820   0.188E+00    0.688E-01
DAV:   3    -0.796743317658E+03   -0.52263E-02   -0.21651E-02 38950   0.340E-01    0.391E-01
DAV:   4    -0.796743133272E+03    0.18439E-03   -0.19316E-03 44400   0.128E-01    0.281E-01
DAV:   5    -0.796743488418E+03   -0.35515E-03   -0.12841E-03 44150   0.107E-01    0.129E-01
DAV:   6    -0.796743714511E+03   -0.22609E-03   -0.47137E-04 39750   0.625E-02    0.105E-01
DAV:   7    -0.796743832998E+03   -0.11849E-03   -0.12038E-04 36300   0.318E-02    0.878E-02
DAV:   8    -0.796744038863E+03   -0.20587E-03   -0.12165E-04 37530   0.327E-02    0.738E-02
DAV:   9    -0.796744252965E+03   -0.21410E-03   -0.19905E-04 41320   0.385E-02    0.631E-02
DAV:  10    -0.796744391068E+03   -0.13810E-03   -0.14216E-04 36260   0.291E-02    0.547E-02
DAV:  11    -0.796744526316E+03   -0.13525E-03   -0.15500E-04 38890   0.377E-02    0.425E-02
DAV:  12    -0.796744616050E+03   -0.89734E-04   -0.37507E-04 41840   0.552E-02    0.280E-02
DAV:  13    -0.796744682192E+03   -0.66142E-04   -0.26167E-04 37440   0.316E-02    0.219E-02
DAV:  14    -0.796744703968E+03   -0.21777E-04   -0.36857E-05 23800   0.114E-02    0.155E-02
DAV:  15    -0.796744705319E+03   -0.13508E-05   -0.14012E-06 16600   0.432E-03
  17 F= -.79674471E+03 E0= -.79674471E+03  d E =-.479294E-02  mag=    47.0000
       N       E                     dE             d eps       ncg     rms          rms(c)
DAV:   1    -0.793885550871E+03    0.28592E+01   -0.16173E+02 35590   0.449E+01    0.591E+00
DAV:   2    -0.796277466302E+03   -0.23919E+01   -0.25774E+01 34330   0.943E+00    0.414E+00
DAV:   3    -0.796428544939E+03   -0.15108E+00   -0.10074E+00 41000   0.237E+00    0.223E+00
DAV:   4    -0.796415014158E+03    0.13531E-01   -0.84144E-02 40980   0.818E-01    0.158E+00
DAV:   5    -0.796410677234E+03    0.43369E-02   -0.62198E-02 39290   0.625E-01    0.680E-01
DAV:   6    -0.796412760508E+03   -0.20833E-02   -0.10308E-02 38410   0.359E-01    0.395E-01
DAV:   7    -0.796413422051E+03   -0.66154E-03   -0.61153E-03 41350   0.179E-01    0.256E-01
DAV:   8    -0.796413982998E+03   -0.56095E-03   -0.70483E-04 40600   0.818E-02    0.190E-01
DAV:   9    -0.796414632225E+03   -0.64923E-03   -0.56194E-04 40860   0.700E-02    0.147E-01
DAV:  10    -0.796415059970E+03   -0.42774E-03   -0.36356E-04 39560   0.530E-02    0.127E-01
DAV:  11    -0.796415386804E+03   -0.32683E-03   -0.22669E-04 38850   0.401E-02    0.112E-01
DAV:  12    -0.796415967022E+03   -0.58022E-03   -0.54869E-04 44260   0.732E-02    0.875E-02
DAV:  13    -0.796416416413E+03   -0.44939E-03   -0.10938E-03 43200   0.920E-02    0.677E-02
DAV:  14    -0.796416655408E+03   -0.23900E-03   -0.62339E-04 41750   0.581E-02    0.495E-02
DAV:  15    -0.796416756151E+03   -0.10074E-03   -0.17446E-04 35350   0.277E-02    0.383E-02
DAV:  16    -0.796416795472E+03   -0.39320E-04   -0.50315E-05 25520   0.141E-02    0.295E-02
DAV:  17    -0.796416824807E+03   -0.29335E-04   -0.27328E-05 29470   0.142E-02    0.239E-02
DAV:  18    -0.796416845258E+03   -0.20451E-04   -0.33441E-05 29490   0.143E-02    0.190E-02
DAV:  19    -0.796416859602E+03   -0.14344E-04   -0.24099E-05 24180   0.103E-02    0.169E-02
DAV:  20    -0.796416870814E+03   -0.11212E-04   -0.10697E-05 20640   0.847E-03    0.136E-02
DAV:  21    -0.796416881105E+03   -0.10291E-04   -0.18130E-05 23970   0.147E-02    0.106E-02
DAV:  22    -0.796416888804E+03   -0.76993E-05   -0.34160E-05 24580   0.979E-03
  18 F= -.79641689E+03 E0= -.79641689E+03  d E =0.327817E+00  mag=    47.0000
       N       E                     dE             d eps       ncg     rms          rms(c)
DAV:   1    -0.795949459359E+03    0.46742E+00   -0.43977E+01 35630   0.246E+01    0.313E+00
DAV:   2    -0.796665465914E+03   -0.71601E+00   -0.78807E+00 34120   0.507E+00    0.212E+00
DAV:   3    -0.796715002710E+03   -0.49537E-01   -0.30992E-01 39460   0.125E+00    0.122E+00
DAV:   4    -0.796710187231E+03    0.48155E-02   -0.24993E-02 43520   0.388E-01    0.819E-01
DAV:   5    -0.796709329590E+03    0.85764E-03   -0.18653E-02 37180   0.345E-01    0.355E-01
DAV:   6    -0.796709605330E+03   -0.27574E-03   -0.27714E-03 39150   0.198E-01    0.220E-01
DAV:   7    -0.796709785057E+03   -0.17973E-03   -0.19346E-03 42720   0.108E-01    0.137E-01
DAV:   8    -0.796709920090E+03   -0.13503E-03   -0.25061E-04 39950   0.516E-02    0.962E-02
DAV:   9    -0.796710057763E+03   -0.13767E-03   -0.16236E-04 39330   0.338E-02    0.686E-02
DAV:  10    -0.796710155419E+03   -0.97657E-04   -0.79275E-05 33390   0.233E-02    0.581E-02
DAV:  11    -0.796710222934E+03   -0.67514E-04   -0.47343E-05 28360   0.183E-02    0.521E-02
DAV:  12    -0.796710340144E+03   -0.11721E-03   -0.10299E-04 37040   0.338E-02    0.394E-02
DAV:  13    -0.796710426198E+03   -0.86054E-04   -0.22224E-04 38280   0.377E-02    0.300E-02
DAV:  14    -0.796710468482E+03   -0.42284E-04   -0.98981E-05 33520   0.221E-02    0.227E-02
DAV:  15    -0.796710486337E+03   -0.17855E-04   -0.31798E-05 22770   0.130E-02    0.154E-02
DAV:  16    -0.796710494736E+03   -0.83991E-05   -0.14497E-05 22310   0.794E-03
  19 F= -.79671049E+03 E0= -.79671049E+03  d E =-.293606E+00  mag=    47.0000
       N       E                     dE             d eps       ncg     rms          rms(c)
DAV:   1    -0.796604960758E+03    0.10553E+00   -0.72210E+00 35250   0.100E+01    0.127E+00
DAV:   2    -0.796724694397E+03   -0.11973E+00   -0.13090E+00 34400   0.209E+00    0.868E-01
DAV:   3    -0.796732815204E+03   -0.81208E-02   -0.52066E-02 39760   0.520E-01    0.495E-01
DAV:   4    -0.796732030033E+03    0.78517E-03   -0.43050E-03 45050   0.175E-01    0.339E-01
DAV:   5    -0.796731874103E+03    0.15593E-03   -0.33373E-03 37970   0.152E-01    0.151E-01
DAV:   6    -0.796731914950E+03   -0.40847E-04   -0.47262E-04 39190   0.851E-02    0.884E-02
DAV:   7    -0.796731943919E+03   -0.28969E-04   -0.33347E-04 42520   0.435E-02    0.560E-02
DAV:   8    -0.796731969399E+03   -0.25479E-04   -0.38367E-05 29440   0.200E-02    0.414E-02
DAV:   9    -0.796731996612E+03   -0.27214E-04   -0.27543E-05 25460   0.147E-02    0.312E-02
DAV:  10    -0.796732014821E+03   -0.18209E-04   -0.16759E-05 22780   0.108E-02    0.265E-02
DAV:  11    -0.796732027541E+03   -0.12720E-04   -0.92323E-06 19010   0.811E-03    0.236E-02
DAV:  12    -0.796732050331E+03   -0.22790E-04   -0.14182E-05 23120   0.135E-02    0.196E-02
DAV:  13    -0.796732072932E+03   -0.22601E-04   -0.64916E-05 33730   0.188E-02    0.144E-02
DAV:  14    -0.796732085741E+03   -0.12809E-04   -0.33579E-05 23780   0.123E-02    0.118E-02
DAV:  15    -0.796732091367E+03   -0.56261E-05   -0.95061E-06 20990   0.677E-03
  20 F= -.79673209E+03 E0= -.79673209E+03  d E =-.215966E-01  mag=    47.0000
       N       E                     dE             d eps       ncg     rms          rms(c)
DAV:   1    -0.796729603868E+03    0.24819E-02   -0.45064E-01 35110   0.203E+00    0.237E-01
DAV:   2    -0.796733860557E+03   -0.42567E-02   -0.44319E-02 33390   0.404E-01    0.216E-01
DAV:   3    -0.796734039100E+03   -0.17854E-03   -0.13567E-03 38560   0.104E-01    0.108E-01
DAV:   4    -0.796734032442E+03    0.66579E-05   -0.13967E-04 42750   0.415E-02    0.976E-02
DAV:   5    -0.796734026944E+03    0.54981E-05   -0.11962E-04 38370   0.308E-02    0.313E-02
DAV:   6    -0.796734033041E+03   -0.60972E-05   -0.24771E-05 24450   0.151E-02
  21 F= -.79673403E+03 E0= -.79673403E+03  d E =-.194167E-02  mag=    47.0000
       N       E                     dE             d eps       ncg     rms          rms(c)
DAV:   1    -0.796524671687E+03    0.20936E+00   -0.25288E+01 35000   0.145E+01    0.161E+00
DAV:   2    -0.796726865956E+03   -0.20219E+00   -0.20818E+00 33190   0.274E+00    0.126E+00
DAV:   3    -0.796735167335E+03   -0.83014E-02   -0.49602E-02 37010   0.627E-01    0.626E-01
DAV:   4    -0.796734662810E+03    0.50453E-03   -0.52762E-03 42530   0.268E-01    0.552E-01
DAV:   5    -0.796734475727E+03    0.18708E-03   -0.37733E-03 42670   0.184E-01    0.174E-01
DAV:   6    -0.796734822598E+03   -0.34687E-03   -0.10078E-03 38760   0.811E-02    0.108E-01
DAV:   7    -0.796734885094E+03   -0.62496E-04   -0.17866E-04 39840   0.367E-02    0.776E-02
DAV:   8    -0.796734957845E+03   -0.72751E-04   -0.51615E-05 32290   0.254E-02    0.635E-02
DAV:   9    -0.796735044762E+03   -0.86917E-04   -0.78564E-05 36310   0.251E-02    0.511E-02
DAV:  10    -0.796735103757E+03   -0.58995E-04   -0.52857E-05 26630   0.170E-02    0.450E-02
DAV:  11    -0.796735178586E+03   -0.74829E-04   -0.55554E-05 32990   0.218E-02    0.383E-02
DAV:  12    -0.796735258645E+03   -0.80059E-04   -0.14580E-04 38070   0.349E-02    0.279E-02
DAV:  13    -0.796735304624E+03   -0.45979E-04   -0.16098E-04 36680   0.310E-02    0.217E-02
DAV:  14    -0.796735328963E+03   -0.24339E-04   -0.64232E-05 28730   0.167E-02    0.145E-02
DAV:  15    -0.796735337294E+03   -0.83316E-05   -0.15385E-05 20880   0.748E-03
  22 F= -.79673534E+03 E0= -.79673534E+03  d E =-.130425E-02  mag=    47.0000
       N       E                     dE             d eps       ncg     rms          rms(c)
DAV:   1    -0.794758416400E+03    0.19769E+01   -0.11426E+02 35600   0.380E+01    0.483E+00
DAV:   2    -0.796414114550E+03   -0.16557E+01   -0.17892E+01 34240   0.801E+00    0.375E+00
DAV:   3    -0.796516258612E+03   -0.10214E+00   -0.72036E-01 41170   0.207E+00    0.196E+00
DAV:   4    -0.796506903447E+03    0.93552E-02   -0.64411E-02 43060   0.758E-01    0.153E+00
DAV:   5    -0.796503091167E+03    0.38123E-02   -0.51742E-02 39640   0.573E-01    0.593E-01
DAV:   6    -0.796504418197E+03   -0.13270E-02   -0.76439E-03 38410   0.302E-01    0.339E-01
DAV:   7    -0.796504727739E+03   -0.30954E-03   -0.50828E-03 40660   0.153E-01    0.199E-01
DAV:   8    -0.796504952073E+03   -0.22433E-03   -0.45161E-04 39550   0.685E-02    0.133E-01
DAV:   9    -0.796505198198E+03   -0.24612E-03   -0.32597E-04 41960   0.561E-02    0.973E-02
DAV:  10    -0.796505342470E+03   -0.14427E-03   -0.15361E-04 37260   0.377E-02    0.765E-02
DAV:  11    -0.796505449164E+03   -0.10669E-03   -0.83802E-05 33800   0.253E-02    0.664E-02
DAV:  12    -0.796505613760E+03   -0.16460E-03   -0.13242E-04 40010   0.337E-02    0.531E-02
DAV:  13    -0.796505760215E+03   -0.14645E-03   -0.23668E-04 40650   0.437E-02    0.417E-02
DAV:  14    -0.796505834686E+03   -0.74471E-04   -0.16422E-04 37610   0.306E-02    0.322E-02
DAV:  15    -0.796505868450E+03   -0.33764E-04   -0.59820E-05 29010   0.173E-02    0.236E-02
DAV:  16    -0.796505885245E+03   -0.16795E-04   -0.24297E-05 22630   0.108E-02    0.182E-02
DAV:  17    -0.796505896514E+03   -0.11269E-04   -0.12996E-05 23110   0.903E-03    0.149E-02
DAV:  18    -0.796505904449E+03   -0.79343E-05   -0.11052E-05 19830   0.779E-03
  23 F= -.79650590E+03 E0= -.79650590E+03  d E =0.229433E+00  mag=    47.0000
       N       E                     dE             d eps       ncg     rms          rms(c)
DAV:   1    -0.795979114677E+03    0.52678E+00   -0.44019E+01 35480   0.247E+01    0.313E+00
DAV:   2    -0.796694186548E+03   -0.71507E+00   -0.78500E+00 34110   0.509E+00    0.213E+00
DAV:   3    -0.796743829743E+03   -0.49643E-01   -0.31221E-01 39400   0.126E+00    0.122E+00
DAV:   4    -0.796739125898E+03    0.47038E-02   -0.25314E-02 44470   0.405E-01    0.817E-01
DAV:   5    -0.796738196387E+03    0.92951E-03   -0.18822E-02 37800   0.358E-01    0.365E-01
DAV:   6    -0.796738444503E+03   -0.24812E-03   -0.27649E-03 39280   0.203E-01    0.214E-01
DAV:   7    -0.796738605865E+03   -0.16136E-03   -0.18745E-03 42850   0.107E-01    0.134E-01
DAV:   8    -0.796738727654E+03   -0.12179E-03   -0.24912E-04 39410   0.502E-02    0.920E-02
DAV:   9    -0.796738848893E+03   -0.12124E-03   -0.14483E-04 39370   0.328E-02    0.646E-02
DAV:  10    -0.796738931038E+03   -0.82145E-04   -0.70477E-05 32960   0.230E-02    0.542E-02
DAV:  11    -0.796738984774E+03   -0.53736E-04   -0.40680E-05 26220   0.174E-02    0.483E-02
DAV:  12    -0.796739076200E+03   -0.91426E-04   -0.75586E-05 34650   0.273E-02    0.370E-02
DAV:  13    -0.796739154255E+03   -0.78055E-04   -0.16724E-04 37760   0.352E-02    0.283E-02
DAV:  14    -0.796739191901E+03   -0.37646E-04   -0.85974E-05 32990   0.206E-02    0.219E-02
DAV:  15    -0.796739208095E+03   -0.16194E-04   -0.25818E-05 22420   0.127E-02    0.153E-02
DAV:  16    -0.796739216295E+03   -0.82005E-05   -0.15852E-05 22640   0.817E-03
  24 F= -.79673922E+03 E0= -.79673922E+03  d E =-.233312E+00  mag=    47.0000
       N       E                     dE             d eps       ncg     rms          rms(c)
DAV:   1    -0.796694328759E+03    0.44879E-01   -0.34250E+00 35590   0.674E+00    0.827E-01
DAV:   2    -0.796744953916E+03   -0.50625E-01   -0.54856E-01 34120   0.140E+00    0.652E-01
DAV:   3    -0.796748179761E+03   -0.32258E-02   -0.21972E-02 40810   0.365E-01    0.348E-01
DAV:   4    -0.796747893150E+03    0.28661E-03   -0.20545E-03 44160   0.140E-01    0.277E-01
DAV:   5    -0.796747807958E+03    0.85193E-04   -0.16997E-03 39370   0.109E-01    0.106E-01
DAV:   6    -0.796747840609E+03   -0.32652E-04   -0.25837E-04 39430   0.575E-02    0.641E-02
DAV:   7    -0.796747855735E+03   -0.15126E-04   -0.17723E-04 39710   0.289E-02    0.391E-02
DAV:   8    -0.796747868730E+03   -0.12994E-04   -0.15311E-05 21440   0.138E-02    0.296E-02
DAV:   9    -0.796747882708E+03   -0.13978E-04   -0.13553E-05 20280   0.117E-02    0.241E-02
DAV:  10    -0.796747893637E+03   -0.10930E-04   -0.11363E-05 19930   0.886E-03    0.200E-02
DAV:  11    -0.796747902462E+03   -0.88245E-05   -0.68252E-06 17780   0.665E-03
  25 F= -.79674790E+03 E0= -.79674790E+03  d E =-.868617E-02  mag=    47.0000
       N       E                     dE             d eps       ncg     rms          rms(c)
DAV:   1    -0.796744524709E+03    0.33689E-02   -0.11094E+00 34280   0.287E+00    0.344E-01
DAV:   2    -0.796753249472E+03   -0.87248E-02   -0.89976E-02 33340   0.596E-01    0.384E-01
DAV:   3    -0.796753481589E+03   -0.23212E-03   -0.28457E-03 36800   0.158E-01    0.195E-01
DAV:   4    -0.796753502263E+03   -0.20675E-04   -0.29229E-04 41730   0.600E-02    0.185E-01
DAV:   5    -0.796753486519E+03    0.15744E-04   -0.29410E-04 40560   0.496E-02    0.581E-02
DAV:   6    -0.796753505284E+03   -0.18765E-04   -0.74068E-05 36790   0.231E-02    0.333E-02
DAV:   7    -0.796753513658E+03   -0.83735E-05   -0.19366E-05 19890   0.115E-02
  26 F= -.79675351E+03 E0= -.79675351E+03  d E =-.561120E-02  mag=    47.0000
       N       E                     dE             d eps       ncg     rms          rms(c)
DAV:   1    -0.796722882107E+03    0.30623E-01   -0.58143E+00 34520   0.643E+00    0.744E-01
DAV:   2    -0.796763027128E+03   -0.40145E-01   -0.41088E-01 33220   0.125E+00    0.706E-01
DAV:   3    -0.796764446334E+03   -0.14192E-02   -0.10738E-02 36320   0.313E-01    0.347E-01
DAV:   4    -0.796764478810E+03   -0.32476E-04   -0.11582E-03 41490   0.127E-01    0.327E-01
DAV:   5    -0.796764500247E+03   -0.21437E-04   -0.10483E-03 41620   0.938E-02    0.107E-01
DAV:   6    -0.796764620990E+03   -0.12074E-03   -0.30037E-04 39380   0.434E-02    0.721E-02
DAV:   7    -0.796764668426E+03   -0.47436E-04   -0.60378E-05 33370   0.216E-02    0.606E-02
DAV:   8    -0.796764732856E+03   -0.64429E-04   -0.33753E-05 28190   0.191E-02    0.520E-02
DAV:   9    -0.796764822858E+03   -0.90002E-04   -0.78459E-05 36590   0.251E-02    0.419E-02
DAV:  10    -0.796764880102E+03   -0.57245E-04   -0.64440E-05 28370   0.183E-02    0.379E-02
DAV:  11    -0.796764934716E+03   -0.54614E-04   -0.45856E-05 34280   0.199E-02    0.306E-02
DAV:  12    -0.796764985025E+03   -0.50309E-04   -0.15942E-04 39470   0.356E-02    0.197E-02
DAV:  13    -0.796765015119E+03   -0.30094E-04   -0.10373E-04 33270   0.211E-02    0.167E-02
DAV:  14    -0.796765025870E+03   -0.10751E-04   -0.23550E-05 20230   0.915E-03    0.957E-03
DAV:  15    -0.796765028341E+03   -0.24716E-05   -0.38189E-06 17190   0.497E-03
  27 F= -.79676503E+03 E0= -.79676503E+03  d E =-.115147E-01  mag=    47.0000
       N       E                     dE             d eps       ncg     rms          rms(c)
DAV:   1    -0.796533110840E+03    0.23192E+00   -0.29590E+01 34950   0.152E+01    0.177E+00
DAV:   2    -0.796763525848E+03   -0.23042E+00   -0.23531E+00 32720   0.283E+00    0.111E+00
DAV:   3    -0.796775448774E+03   -0.11923E-01   -0.48920E-02 39640   0.550E-01    0.601E-01
DAV:   4    -0.796775063360E+03    0.38541E-03   -0.48231E-03 43560   0.232E-01    0.467E-01
DAV:   5    -0.796775673805E+03   -0.61045E-03   -0.34206E-03 44450   0.177E-01    0.185E-01
DAV:   6    -0.796776189024E+03   -0.51522E-03   -0.10619E-03 39310   0.890E-02    0.149E-01
DAV:   7    -0.796776422773E+03   -0.23375E-03   -0.25208E-04 39590   0.456E-02    0.121E-01
DAV:   8    -0.796776759001E+03   -0.33623E-03   -0.19214E-04 41050   0.428E-02    0.102E-01
DAV:   9    -0.796777123042E+03   -0.36404E-03   -0.29182E-04 41360   0.488E-02    0.865E-02
DAV:  10    -0.796777364196E+03   -0.24115E-03   -0.25374E-04 37970   0.384E-02    0.745E-02
DAV:  11    -0.796777620778E+03   -0.25658E-03   -0.29355E-04 43270   0.513E-02    0.566E-02
DAV:  12    -0.796777794210E+03   -0.17343E-03   -0.58867E-04 41720   0.677E-02    0.390E-02
DAV:  13    -0.796777900514E+03   -0.10630E-03   -0.38525E-04 38870   0.392E-02    0.269E-02
DAV:  14    -0.796777936758E+03   -0.36244E-04   -0.62862E-05 25170   0.145E-02    0.194E-02
DAV:  15    -0.796777940977E+03   -0.42190E-05   -0.35242E-06 17260   0.546E-03
  28 F= -.79677794E+03 E0= -.79677794E+03  d E =-.129126E-01  mag=    47.0000
       N       E                     dE             d eps       ncg     rms          rms(c)
DAV:   1    -0.796049453779E+03    0.72848E+00   -0.50477E+01 35160   0.239E+01    0.296E+00
DAV:   2    -0.796684541539E+03   -0.63509E+00   -0.66520E+00 33520   0.495E+00    0.284E+00
DAV:   3    -0.796712254483E+03   -0.27713E-01   -0.23174E-01 38120   0.130E+00    0.143E+00
DAV:   4    -0.796711344710E+03    0.90977E-03   -0.24146E-02 43110   0.511E-01    0.128E+00
DAV:   5    -0.796709907814E+03    0.14369E-02   -0.20352E-02 39980   0.392E-01    0.409E-01
DAV:   6    -0.796710407789E+03   -0.49998E-03   -0.38890E-03 42320   0.191E-01    0.215E-01
DAV:   7    -0.796710532319E+03   -0.12453E-03   -0.16770E-03 41550   0.929E-02    0.138E-01
DAV:   8    -0.796710624843E+03   -0.92524E-04   -0.17700E-04 40810   0.492E-02    0.923E-02
DAV:   9    -0.796710748626E+03   -0.12378E-03   -0.14116E-04 41410   0.373E-02    0.693E-02
DAV:  10    -0.796710839947E+03   -0.91320E-04   -0.83608E-05 33720   0.245E-02    0.567E-02
DAV:  11    -0.796710916610E+03   -0.76664E-04   -0.60273E-05 31860   0.187E-02    0.486E-02
DAV:  12    -0.796711012209E+03   -0.95599E-04   -0.73978E-05 35610   0.247E-02    0.398E-02
DAV:  13    -0.796711093534E+03   -0.81325E-04   -0.13923E-04 37220   0.321E-02    0.307E-02
DAV:  14    -0.796711139200E+03   -0.45666E-04   -0.10821E-04 34340   0.247E-02    0.237E-02
DAV:  15    -0.796711161396E+03   -0.22197E-04   -0.47971E-05 24990   0.140E-02    0.161E-02
DAV:  16    -0.796711170328E+03   -0.89314E-05   -0.12145E-05 20170   0.711E-03
  29 F= -.79671117E+03 E0= -.79671117E+03  d E =0.667706E-01  mag=    47.0000
       N       E                     dE             d eps       ncg     rms          rms(c)
DAV:   1    -0.796623103690E+03    0.88058E-01   -0.95762E+00 35300   0.114E+01    0.145E+00
DAV:   2    -0.796774029866E+03   -0.15093E+00   -0.15922E+00 33600   0.234E+00    0.122E+00
DAV:   3    -0.796782387387E+03   -0.83575E-02   -0.55987E-02 39910   0.618E-01    0.618E-01
DAV:   4    -0.796782032964E+03    0.35442E-03   -0.55530E-03 43510   0.239E-01    0.521E-01
DAV:   5    -0.796781869270E+03    0.16369E-03   -0.42575E-03 40120   0.180E-01    0.175E-01
DAV:   6    -0.796781977953E+03   -0.10868E-03   -0.71991E-04 40970   0.871E-02    0.943E-02
DAV:   7    -0.796782014122E+03   -0.36169E-04   -0.37952E-04 39730   0.424E-02    0.602E-02
DAV:   8    -0.796782037081E+03   -0.22959E-04   -0.35390E-05 30810   0.224E-02    0.416E-02
DAV:   9    -0.796782064571E+03   -0.27490E-04   -0.30543E-05 28200   0.179E-02    0.341E-02
DAV:  10    -0.796782086298E+03   -0.21727E-04   -0.21000E-05 22000   0.119E-02    0.270E-02
DAV:  11    -0.796782104911E+03   -0.18613E-04   -0.13642E-05 21250   0.925E-03    0.225E-02
DAV:  12    -0.796782126878E+03   -0.21967E-04   -0.16444E-05 24710   0.131E-02    0.181E-02
DAV:  13    -0.796782143103E+03   -0.16225E-04   -0.39990E-05 27960   0.135E-02    0.138E-02
DAV:  14    -0.796782151485E+03   -0.83811E-05   -0.20168E-05 23150   0.106E-02
  30 F= -.79678215E+03 E0= -.79678215E+03  d E =-.709812E-01  mag=    47.0000
       N       E                     dE             d eps       ncg     rms          rms(c)
DAV:   1    -0.796756037941E+03    0.26105E-01   -0.25404E+00 35430   0.568E+00    0.702E-01
DAV:   2    -0.796791335413E+03   -0.35297E-01   -0.37147E-01 33570   0.116E+00    0.621E-01
DAV:   3    -0.796793202077E+03   -0.18667E-02   -0.13110E-02 39510   0.309E-01    0.312E-01
DAV:   4    -0.796793143595E+03    0.58482E-04   -0.13123E-03 42920   0.119E-01    0.270E-01
DAV:   5    -0.796793100699E+03    0.42896E-04   -0.10617E-03 40130   0.897E-02    0.887E-02
DAV:   6    -0.796793130986E+03   -0.30287E-04   -0.19281E-04 41510   0.446E-02    0.486E-02
DAV:   7    -0.796793141232E+03   -0.10247E-04   -0.91325E-05 37440   0.215E-02    0.320E-02
DAV:   8    -0.796793148788E+03   -0.75555E-05   -0.93566E-06 18890   0.117E-02
  31 F= -.79679315E+03 E0= -.79679315E+03  d E =-.109973E-01  mag=    47.0000
       N       E                     dE             d eps       ncg     rms          rms(c)
DAV:   1    -0.796790503335E+03    0.26379E-02   -0.41506E-01 35090   0.195E+00    0.228E-01
DAV:   2    -0.796794363735E+03   -0.38604E-02   -0.39684E-02 33320   0.389E-01    0.218E-01
DAV:   3    -0.796794517590E+03   -0.15385E-03   -0.11607E-03 37520   0.992E-02    0.108E-01
DAV:   4    -0.796794522781E+03   -0.51915E-05   -0.11757E-04 40380   0.394E-02    0.100E-01
DAV:   5    -0.796794525083E+03   -0.23015E-05   -0.10304E-04 38120   0.304E-02    0.326E-02
DAV:   6    -0.796794533944E+03   -0.88618E-05   -0.24502E-05 22990   0.143E-02
  32 F= -.79679453E+03 E0= -.79679453E+03  d E =-.138516E-02  mag=    47.0000
       N       E                     dE             d eps       ncg     rms          rms(c)
DAV:   1    -0.796753416902E+03    0.41108E-01   -0.48237E+00 34790   0.654E+00    0.741E-01
DAV:   2    -0.796794396798E+03   -0.40980E-01   -0.41790E-01 33080   0.123E+00    0.595E-01
DAV:   3    -0.796796101507E+03   -0.17047E-02   -0.96683E-03 37210   0.288E-01    0.288E-01
DAV:   4    -0.796796041689E+03    0.59819E-04   -0.10130E-03 41900   0.120E-01    0.258E-01
DAV:   5    -0.796796004211E+03    0.37478E-04   -0.68685E-04 42820   0.826E-02    0.740E-02
DAV:   6    -0.796796068449E+03   -0.64238E-04   -0.18187E-04 38510   0.340E-02    0.425E-02
DAV:   7    -0.796796075443E+03   -0.69937E-05   -0.19722E-05 21960   0.151E-02
  33 F= -.79679608E+03 E0= -.79679608E+03  d E =-.154150E-02  mag=    47.0000
       N       E                     dE             d eps       ncg     rms          rms(c)
DAV:   1    -0.796718564388E+03    0.77504E-01   -0.86139E+00 34790   0.887E+00    0.100E+00
DAV:   2    -0.796794599322E+03   -0.76035E-01   -0.77370E-01 32310   0.161E+00    0.562E-01
DAV:   3    -0.796798212522E+03   -0.36132E-02   -0.14230E-02 40320   0.279E-01    0.300E-01
DAV:   4    -0.796798032511E+03    0.18001E-03   -0.13044E-03 44990   0.110E-01    0.208E-01
DAV:   5    -0.796798126631E+03   -0.94120E-04   -0.65269E-04 45620   0.842E-02    0.695E-02
DAV:   6    -0.796798191017E+03   -0.64386E-04   -0.20896E-04 42220   0.454E-02    0.494E-02
DAV:   7    -0.796798200899E+03   -0.98815E-05   -0.24270E-05 23570   0.190E-02
  34 F= -.79679820E+03 E0= -.79679820E+03  d E =-.212546E-02  mag=    47.0000
       N       E                     dE             d eps       ncg     rms          rms(c)
DAV:   1    -0.796068606746E+03    0.72958E+00   -0.67909E+01 34970   0.251E+01    0.294E+00
DAV:   2    -0.796711084304E+03   -0.64248E+00   -0.66377E+00 33390   0.507E+00    0.287E+00
DAV:   3    -0.796734568955E+03   -0.23485E-01   -0.19890E-01 37660   0.127E+00    0.141E+00
DAV:   4    -0.796734220916E+03    0.34804E-03   -0.19772E-02 42400   0.501E-01    0.130E+00
DAV:   5    -0.796732587557E+03    0.16334E-02   -0.16774E-02 41140   0.377E-01    0.393E-01
DAV:   6    -0.796733305544E+03   -0.71799E-03   -0.38879E-03 42420   0.179E-01    0.198E-01
DAV:   7    -0.796733366949E+03   -0.61405E-04   -0.10422E-03 42370   0.832E-02    0.126E-01
DAV:   8    -0.796733429789E+03   -0.62839E-04   -0.13977E-04 39490   0.436E-02    0.861E-02
DAV:   9    -0.796733523261E+03   -0.93473E-04   -0.12838E-04 41510   0.333E-02    0.602E-02
DAV:  10    -0.796733582138E+03   -0.58877E-04   -0.64878E-05 30960   0.212E-02    0.506E-02
DAV:  11    -0.796733634146E+03   -0.52008E-04   -0.43071E-05 28220   0.156E-02    0.446E-02
DAV:  12    -0.796733701103E+03   -0.66957E-04   -0.48992E-05 32940   0.197E-02    0.375E-02
DAV:  13    -0.796733774616E+03   -0.73513E-04   -0.13648E-04 39080   0.317E-02    0.281E-02
DAV:  14    -0.796733817297E+03   -0.42681E-04   -0.12494E-04 35870   0.248E-02    0.231E-02
DAV:  15    -0.796733837675E+03   -0.20378E-04   -0.46195E-05 25940   0.141E-02    0.160E-02
DAV:  16    -0.796733846564E+03   -0.88885E-05   -0.16635E-05 21640   0.771E-03
  35 F= -.79673385E+03 E0= -.79673385E+03  d E =0.643543E-01  mag=    47.0000
       N       E                     dE             d eps       ncg     rms          rms(c)
DAV:   1    -0.796603717360E+03    0.13012E+00   -0.13685E+01 35320   0.129E+01    0.159E+00
DAV:   2    -0.796785263987E+03   -0.18155E+00   -0.19035E+00 33550   0.263E+00    0.149E+00
DAV:   3    -0.796793867234E+03   -0.86032E-02   -0.66578E-02 39520   0.700E-01    0.747E-01
DAV:   4    -0.796793686200E+03    0.18103E-03   -0.69505E-03 43240   0.279E-01    0.668E-01
DAV:   5    -0.796793355234E+03    0.33097E-03   -0.57718E-03 40420   0.211E-01    0.210E-01
DAV:   6    -0.796793482671E+03   -0.12744E-03   -0.10847E-03 42290   0.103E-01    0.112E-01
DAV:   7    -0.796793519108E+03   -0.36437E-04   -0.48531E-04 41440   0.499E-02    0.700E-02
DAV:   8    -0.796793543102E+03   -0.23994E-04   -0.45580E-05 33020   0.266E-02    0.482E-02
DAV:   9    -0.796793575305E+03   -0.32204E-04   -0.42267E-05 32510   0.197E-02    0.358E-02
DAV:  10    -0.796793599181E+03   -0.23875E-04   -0.21343E-05 22480   0.123E-02    0.284E-02
DAV:  11    -0.796793619425E+03   -0.20245E-04   -0.15702E-05 21770   0.973E-03    0.243E-02
DAV:  12    -0.796793642213E+03   -0.22788E-04   -0.15446E-05 22630   0.122E-02    0.207E-02
DAV:  13    -0.796793661553E+03   -0.19341E-04   -0.35790E-05 29370   0.140E-02    0.149E-02
DAV:  14    -0.796793673126E+03   -0.11572E-04   -0.28444E-05 25660   0.127E-02    0.120E-02
DAV:  15    -0.796793679023E+03   -0.58979E-05   -0.15138E-05 21160   0.788E-03
  36 F= -.79679368E+03 E0= -.79679368E+03  d E =-.598325E-01  mag=    47.0000
       N       E                     dE             d eps       ncg     rms          rms(c)
DAV:   1    -0.796788523852E+03    0.51493E-02   -0.12616E+00 34610   0.319E+00    0.378E-01
DAV:   2    -0.796798850046E+03   -0.10326E-01   -0.10782E-01 33620   0.676E-01    0.475E-01
DAV:   3    -0.796799031343E+03   -0.18130E-03   -0.38900E-03 38000   0.180E-01    0.257E-01
DAV:   4    -0.796799050058E+03   -0.18715E-04   -0.40864E-04 42590   0.667E-02    0.236E-01
DAV:   5    -0.796798984648E+03    0.65410E-04   -0.44177E-04 40120   0.611E-02    0.673E-02
DAV:   6    -0.796798990733E+03   -0.60846E-05   -0.10205E-04 42190   0.281E-02    0.322E-02
DAV:   7    -0.796798993077E+03   -0.23438E-05   -0.27647E-05 24650   0.127E-02
  37 F= -.79679899E+03 E0= -.79679899E+03  d E =-.531405E-02  mag=    47.0000
       N       E                     dE             d eps       ncg     rms          rms(c)
DAV:   1    -0.796794262422E+03    0.47283E-02   -0.11259E+00 34400   0.273E+00    0.317E-01
DAV:   2    -0.796801314219E+03   -0.70518E-02   -0.72477E-02 34130   0.568E-01    0.419E-01
DAV:   3    -0.796801339670E+03   -0.25451E-04   -0.23222E-03 35760   0.146E-01    0.233E-01
DAV:   4    -0.796801350448E+03   -0.10778E-04   -0.24592E-04 40990   0.534E-02    0.213E-01
DAV:   5    -0.796801299681E+03    0.50767E-04   -0.29503E-04 40590   0.515E-02    0.618E-02
DAV:   6    -0.796801307195E+03   -0.75136E-05   -0.74050E-05 38800   0.239E-02
  38 F= -.79680131E+03 E0= -.79680131E+03  d E =-.231412E-02  mag=    47.0000
       N       E                     dE             d eps       ncg     rms          rms(c)
DAV:   1    -0.796782603231E+03    0.18696E-01   -0.23003E+00 34520   0.434E+00    0.497E-01
DAV:   2    -0.796800878082E+03   -0.18275E-01   -0.18566E-01 33210   0.828E-01    0.424E-01
DAV:   3    -0.796801530379E+03   -0.65230E-03   -0.43757E-03 36920   0.195E-01    0.208E-01
DAV:   4    -0.796801504699E+03    0.25679E-04   -0.46624E-04 41650   0.818E-02    0.190E-01
DAV:   5    -0.796801482137E+03    0.22563E-04   -0.35564E-04 42030   0.589E-02    0.541E-02
DAV:   6    -0.796801512923E+03   -0.30787E-04   -0.94250E-05 37200   0.254E-02    0.318E-02
DAV:   7    -0.796801517824E+03   -0.49012E-05   -0.12000E-05 19550   0.114E-02
  39 F= -.79680152E+03 E0= -.79680152E+03  d E =-.210629E-03  mag=    47.0000
       N       E                     dE             d eps       ncg     rms          rms(c)
DAV:   1    -0.796575392478E+03    0.22612E+00   -0.24877E+01 34840   0.151E+01    0.169E+00
DAV:   2    -0.796788666461E+03   -0.21327E+00   -0.21703E+00 32400   0.272E+00    0.982E-01
DAV:   3    -0.796798683816E+03   -0.10017E-01   -0.40694E-02 39150   0.491E-01    0.520E-01
DAV:   4    -0.796798098841E+03    0.58497E-03   -0.38016E-03 44060   0.192E-01    0.370E-01
DAV:   5    -0.796798264056E+03   -0.16521E-03   -0.19123E-03 45030   0.141E-01    0.117E-01
DAV:   6    -0.796798448853E+03   -0.18480E-03   -0.57925E-04 41570   0.692E-02    0.776E-02
DAV:   7    -0.796798468608E+03   -0.19755E-04   -0.62767E-05 34400   0.285E-02    0.477E-02
DAV:   8    -0.796798496872E+03   -0.28264E-04   -0.33335E-05 28580   0.197E-02    0.357E-02
DAV:   9    -0.796798517982E+03   -0.21110E-04   -0.27362E-05 25320   0.140E-02    0.292E-02
DAV:  10    -0.796798532634E+03   -0.14652E-04   -0.12321E-05 20060   0.936E-03    0.259E-02
DAV:  11    -0.796798555378E+03   -0.22744E-04   -0.13958E-05 20960   0.114E-02    0.216E-02
DAV:  12    -0.796798583277E+03   -0.27900E-04   -0.74910E-05 35560   0.225E-02    0.145E-02
DAV:  13    -0.796798597929E+03   -0.14652E-04   -0.49670E-05 27230   0.144E-02    0.113E-02
DAV:  14    -0.796798603256E+03   -0.53265E-05   -0.97141E-06 20590   0.741E-03
  40 F= -.79679860E+03 E0= -.79679860E+03  d E =0.291457E-02  mag=    47.0000
       N       E                     dE             d eps       ncg     rms          rms(c)
DAV:   1    -0.795932164179E+03    0.86643E+00   -0.98869E+01 34920   0.290E+01    0.326E+00
DAV:   2    -0.796736300573E+03   -0.80414E+00   -0.82389E+00 33250   0.554E+00    0.270E+00
DAV:   3    -0.796767205264E+03   -0.30905E-01   -0.20528E-01 37250   0.130E+00    0.131E+00
DAV:   4    -0.796765223489E+03    0.19818E-02   -0.21072E-02 41950   0.538E-01    0.119E+00
DAV:   5    -0.796763603611E+03    0.16199E-02   -0.16168E-02 42930   0.379E-01    0.344E-01
DAV:   6    -0.796764704648E+03   -0.11010E-02   -0.39894E-03 40530   0.163E-01    0.188E-01
DAV:   7    -0.796764763805E+03   -0.59157E-04   -0.63223E-04 41040   0.684E-02    0.114E-01
DAV:   8    -0.796764831253E+03   -0.67448E-04   -0.11964E-04 40410   0.421E-02    0.838E-02
DAV:   9    -0.796764919872E+03   -0.88620E-04   -0.12975E-04 40210   0.346E-02    0.579E-02
DAV:  10    -0.796764965411E+03   -0.45539E-04   -0.57551E-05 27350   0.199E-02    0.492E-02
DAV:  11    -0.796765028358E+03   -0.62946E-04   -0.43972E-05 30280   0.179E-02    0.434E-02
DAV:  12    -0.796765099993E+03   -0.71635E-04   -0.50956E-05 33030   0.218E-02    0.368E-02
DAV:  13    -0.796765170340E+03   -0.70347E-04   -0.12388E-04 37530   0.317E-02    0.292E-02
DAV:  14    -0.796765212957E+03   -0.42617E-04   -0.12175E-04 35400   0.253E-02    0.231E-02
DAV:  15    -0.796765234127E+03   -0.21169E-04   -0.41605E-05 25890   0.139E-02    0.165E-02
DAV:  16    -0.796765242956E+03   -0.88295E-05   -0.13870E-05 20820   0.703E-03
  41 F= -.79676524E+03 E0= -.79676524E+03  d E =0.333603E-01  mag=    47.0000
       N       E                     dE             d eps       ncg     rms          rms(c)
DAV:   1    -0.796710222010E+03    0.55012E-01   -0.68358E+00 35250   0.868E+00    0.107E+00
DAV:   2    -0.796793088466E+03   -0.82866E-01   -0.87438E-01 33600   0.177E+00    0.948E-01
DAV:   3    -0.796796878520E+03   -0.37901E-02   -0.30309E-02 40480   0.462E-01    0.489E-01
DAV:   4    -0.796796555440E+03    0.32308E-03   -0.32307E-03 43800   0.182E-01    0.424E-01
DAV:   5    -0.796796404240E+03    0.15120E-03   -0.29713E-03 40540   0.146E-01    0.135E-01
DAV:   6    -0.796796440443E+03   -0.36204E-04   -0.50539E-04 41360   0.685E-02    0.819E-02
DAV:   7    -0.796796459279E+03   -0.18836E-04   -0.25139E-04 38910   0.344E-02    0.472E-02
DAV:   8    -0.796796473479E+03   -0.14199E-04   -0.19035E-05 22850   0.180E-02    0.366E-02
DAV:   9    -0.796796491156E+03   -0.17677E-04   -0.20467E-05 22410   0.147E-02    0.272E-02
DAV:  10    -0.796796502700E+03   -0.11545E-04   -0.14554E-05 19720   0.965E-03    0.216E-02
DAV:  11    -0.796796514819E+03   -0.12118E-04   -0.79985E-06 16870   0.841E-03    0.186E-02
DAV:  12    -0.796796529382E+03   -0.14564E-04   -0.19056E-05 22900   0.107E-02    0.155E-02
DAV:  13    -0.796796539251E+03   -0.98686E-05   -0.16615E-05 25050   0.972E-03
  42 F= -.79679654E+03 E0= -.79679654E+03  d E =-.312963E-01  mag=    47.0000
       N       E                     dE             d eps       ncg     rms          rms(c)
DAV:   1    -0.796796753373E+03   -0.22399E-03   -0.42515E-01 34390   0.170E+00    0.196E-01
DAV:   2    -0.796799516554E+03   -0.27632E-02   -0.28567E-02 34260   0.358E-01    0.258E-01
DAV:   3    -0.796799527271E+03   -0.10717E-04   -0.94317E-04 36140   0.937E-02    0.141E-01
DAV:   4    -0.796799527733E+03   -0.46164E-06   -0.97935E-05 37240   0.332E-02
  43 F= -.79679953E+03 E0= -.79679953E+03  d E =-.298848E-02  mag=    47.0000
       N       E                     dE             d eps       ncg     rms          rms(c)
DAV:   1    -0.796779511895E+03    0.20015E-01   -0.33900E+00 34490   0.483E+00    0.548E-01
DAV:   2    -0.796801139934E+03   -0.21628E-01   -0.22226E-01 33560   0.966E-01    0.653E-01
DAV:   3    -0.796801463067E+03   -0.32313E-03   -0.63622E-03 35240   0.242E-01    0.360E-01
DAV:   4    -0.796801488081E+03   -0.25014E-04   -0.70220E-04 42010   0.963E-02    0.336E-01
DAV:   5    -0.796801361666E+03    0.12641E-03   -0.76004E-04 41690   0.842E-02    0.970E-02
DAV:   6    -0.796801388134E+03   -0.26469E-04   -0.19347E-04 42800   0.383E-02    0.446E-02
DAV:   7    -0.796801391837E+03   -0.37030E-05   -0.30381E-05 26990   0.153E-02
  44 F= -.79680139E+03 E0= -.79680139E+03  d E =-.186410E-02  mag=    47.0000
       N       E                     dE             d eps       ncg     rms          rms(c)
DAV:   1    -0.796800424979E+03    0.96315E-03   -0.13211E-01 34820   0.113E+00    0.134E-01
DAV:   2    -0.796801770407E+03   -0.13454E-02   -0.13651E-02 33030   0.215E-01    0.821E-02
DAV:   3    -0.796801836004E+03   -0.65597E-04   -0.30241E-04 38550   0.429E-02    0.462E-02
DAV:   4    -0.796801835399E+03    0.60465E-06   -0.25534E-05 26070   0.175E-02
  45 F= -.79680184E+03 E0= -.79680184E+03  d E =-.443562E-03  mag=    47.0000
       N       E                     dE             d eps       ncg     rms          rms(c)
DAV:   1    -0.796684807290E+03    0.11703E+00   -0.16911E+01 34150   0.102E+01    0.117E+00
DAV:   2    -0.796784290430E+03   -0.99483E-01   -0.10299E+00 34390   0.213E+00    0.154E+00
DAV:   3    -0.796784470277E+03   -0.17985E-03   -0.34477E-02 36540   0.544E-01    0.842E-01
DAV:   4    -0.796784395075E+03    0.75202E-04   -0.36803E-03 41670   0.203E-01    0.783E-01
DAV:   5    -0.796783462338E+03    0.93274E-03   -0.45401E-03 41450   0.195E-01    0.222E-01
DAV:   6    -0.796783551246E+03   -0.88909E-04   -0.10906E-03 42900   0.847E-02    0.105E-01
DAV:   7    -0.796783574123E+03   -0.22877E-04   -0.21681E-04 37640   0.356E-02    0.788E-02
DAV:   8    -0.796783598235E+03   -0.24112E-04   -0.33569E-05 29380   0.225E-02    0.575E-02
DAV:   9    -0.796783634083E+03   -0.35848E-04   -0.58530E-05 34880   0.216E-02    0.375E-02
DAV:  10    -0.796783659260E+03   -0.25177E-04   -0.35633E-05 24550   0.139E-02    0.313E-02
DAV:  11    -0.796783682526E+03   -0.23266E-04   -0.17776E-05 22520   0.109E-02    0.286E-02
DAV:  12    -0.796783706137E+03   -0.23611E-04   -0.21976E-05 24220   0.121E-02    0.233E-02
DAV:  13    -0.796783731132E+03   -0.24994E-04   -0.46373E-05 31290   0.228E-02    0.156E-02
DAV:  14    -0.796783746800E+03   -0.15669E-04   -0.88215E-05 28810   0.168E-02    0.113E-02
DAV:  15    -0.796783752552E+03   -0.57518E-05   -0.12299E-05 20600   0.702E-03
  46 F= -.79678375E+03 E0= -.79678375E+03  d E =0.180828E-01  mag=    47.0000
       N       E                     dE             d eps       ncg     rms          rms(c)
DAV:   1    -0.796547794171E+03    0.23595E+00   -0.27776E+01 34850   0.157E+01    0.180E+00
DAV:   2    -0.796785948629E+03   -0.23815E+00   -0.24527E+00 33320   0.306E+00    0.161E+00
DAV:   3    -0.796795232708E+03   -0.92841E-02   -0.67875E-02 38260   0.750E-01    0.797E-01
DAV:   4    -0.796794733013E+03    0.49970E-03   -0.70586E-03 42980   0.293E-01    0.711E-01
DAV:   5    -0.796794299303E+03    0.43371E-03   -0.59605E-03 42580   0.228E-01    0.209E-01
DAV:   6    -0.796794569395E+03   -0.27009E-03   -0.13507E-03 42040   0.102E-01    0.116E-01
DAV:   7    -0.796794606742E+03   -0.37347E-04   -0.32844E-04 40920   0.459E-02    0.732E-02
DAV:   8    -0.796794639768E+03   -0.33025E-04   -0.44421E-05 30650   0.259E-02    0.564E-02
DAV:   9    -0.796794688940E+03   -0.49172E-04   -0.61591E-05 35930   0.222E-02    0.418E-02
DAV:  10    -0.796794718956E+03   -0.30016E-04   -0.28920E-05 23730   0.134E-02    0.361E-02
DAV:  11    -0.796794753052E+03   -0.34096E-04   -0.19961E-05 23640   0.127E-02    0.329E-02
DAV:  12    -0.796794793520E+03   -0.40468E-04   -0.37438E-05 28980   0.163E-02    0.275E-02
DAV:  13    -0.796794834352E+03   -0.40832E-04   -0.75643E-05 36380   0.251E-02    0.205E-02
DAV:  14    -0.796794860853E+03   -0.26502E-04   -0.84376E-05 31860   0.205E-02    0.176E-02
DAV:  15    -0.796794874403E+03   -0.13550E-04   -0.28659E-05 22710   0.103E-02    0.132E-02
DAV:  16    -0.796794878384E+03   -0.39806E-05   -0.50579E-06 18360   0.504E-03
  47 F= -.79679488E+03 E0= -.79679488E+03  d E =-.111258E-01  mag=    47.0000
       N       E                     dE             d eps       ncg     rms          rms(c)
DAV:   1    -0.796781955367E+03    0.12919E-01   -0.16838E+00 35340   0.420E+00    0.509E-01
DAV:   2    -0.796800556878E+03   -0.18602E-01   -0.19520E-01 33580   0.860E-01    0.490E-01
DAV:   3    -0.796801368200E+03   -0.81132E-03   -0.66648E-03 39700   0.223E-01    0.249E-01
DAV:   4    -0.796801326869E+03    0.41331E-04   -0.68418E-04 43430   0.835E-02    0.220E-01
DAV:   5    -0.796801292116E+03    0.34753E-04   -0.65235E-04 41030   0.694E-02    0.675E-02
DAV:   6    -0.796801304191E+03   -0.12076E-04   -0.11838E-04 41560   0.323E-02    0.378E-02
DAV:   7    -0.796801308673E+03   -0.44813E-05   -0.49597E-05 29240   0.157E-02
  48 F= -.79680131E+03 E0= -.79680131E+03  d E =-.643029E-02  mag=    47.0000
       N       E                     dE             d eps       ncg     rms          rms(c)
DAV:   1    -0.796797940909E+03    0.33633E-02   -0.59165E-01 35050   0.225E+00    0.252E-01
DAV:   2    -0.796802694122E+03   -0.47532E-02   -0.48982E-02 33290   0.433E-01    0.222E-01
DAV:   3    -0.796802884071E+03   -0.18995E-03   -0.12722E-03 36210   0.103E-01    0.111E-01
DAV:   4    -0.796802878965E+03    0.51063E-05   -0.13467E-04 40250   0.421E-02    0.101E-01
DAV:   5    -0.796802875430E+03    0.35351E-05   -0.10346E-04 39370   0.309E-02    0.310E-02
DAV:   6    -0.796802883998E+03   -0.85683E-05   -0.25407E-05 24290   0.145E-02
  49 F= -.79680288E+03 E0= -.79680288E+03  d E =-.157533E-02  mag=    47.0000
       N       E                     dE             d eps       ncg     rms          rms(c)
DAV:   1    -0.796631082725E+03    0.17179E+00   -0.20146E+01 34880   0.133E+01    0.147E+00
DAV:   2    -0.796794436741E+03   -0.16335E+00   -0.16692E+00 32850   0.246E+00    0.102E+00
DAV:   3    -0.796801688595E+03   -0.72519E-02   -0.35676E-02 37660   0.509E-01    0.516E-01
DAV:   4    -0.796801250171E+03    0.43842E-03   -0.35801E-03 41930   0.213E-01    0.431E-01
DAV:   5    -0.796801164176E+03    0.85995E-04   -0.22536E-03 44080   0.150E-01    0.129E-01
DAV:   6    -0.796801394863E+03   -0.23069E-03   -0.63118E-04 38910   0.660E-02    0.811E-02
DAV:   7    -0.796801415972E+03   -0.21109E-04   -0.70505E-05 35980   0.276E-02    0.520E-02
DAV:   8    -0.796801447368E+03   -0.31396E-04   -0.30449E-05 28140   0.195E-02    0.412E-02
DAV:   9    -0.796801477278E+03   -0.29910E-04   -0.33895E-05 29480   0.167E-02    0.330E-02
DAV:  10    -0.796801495886E+03   -0.18608E-04   -0.19126E-05 21900   0.103E-02    0.289E-02
DAV:  11    -0.796801526074E+03   -0.30189E-04   -0.16356E-05 22930   0.135E-02    0.250E-02
DAV:  12    -0.796801561294E+03   -0.35220E-04   -0.92400E-05 35730   0.239E-02    0.176E-02
DAV:  13    -0.796801582217E+03   -0.20923E-04   -0.67518E-05 29860   0.181E-02    0.141E-02
DAV:  14    -0.796801592042E+03   -0.98252E-05   -0.19842E-05 23860   0.943E-03
  50 F= -.79680159E+03 E0= -.79680159E+03  d E =0.129196E-02  mag=    47.0000
       N       E                     dE             d eps       ncg     rms          rms(c)
DAV:   1    -0.795575389046E+03    0.12262E+01   -0.13410E+02 35050   0.354E+01    0.394E+00
DAV:   2    -0.796733873277E+03   -0.11585E+01   -0.11803E+01 31630   0.636E+00    0.216E+00
DAV:   3    -0.796790088858E+03   -0.56216E-01   -0.21601E-01 39760   0.105E+00    0.117E+00
DAV:   4    -0.796787041712E+03    0.30471E-02   -0.19225E-02 44430   0.391E-01    0.774E-01
DAV:   5    -0.796788585290E+03   -0.15436E-02   -0.86548E-03 44840   0.305E-01    0.268E-01
DAV:   6    -0.796789416042E+03   -0.83075E-03   -0.29597E-03 42600   0.176E-01    0.183E-01
DAV:   7    -0.796789512975E+03   -0.96933E-04   -0.35474E-04 39920   0.714E-02    0.113E-01
DAV:   8    -0.796789707748E+03   -0.19477E-03   -0.22792E-04 42340   0.456E-02    0.832E-02
DAV:   9    -0.796789836891E+03   -0.12914E-03   -0.13018E-04 38940   0.285E-02    0.729E-02
DAV:  10    -0.796789933116E+03   -0.96226E-04   -0.57838E-05 28980   0.206E-02    0.667E-02
DAV:  11    -0.796790104094E+03   -0.17098E-03   -0.14031E-04 39870   0.337E-02    0.556E-02
DAV:  12    -0.796790303308E+03   -0.19921E-03   -0.61051E-04 43570   0.712E-02    0.418E-02
DAV:  13    -0.796790427174E+03   -0.12387E-03   -0.43157E-04 41830   0.424E-02    0.332E-02
DAV:  14    -0.796790475519E+03   -0.48345E-04   -0.81169E-05 29390   0.181E-02    0.260E-02
DAV:  15    -0.796790493650E+03   -0.18131E-04   -0.25859E-05 22500   0.908E-03    0.215E-02
DAV:  16    -0.796790506835E+03   -0.13185E-04   -0.56076E-06 18870   0.704E-03    0.192E-02
DAV:  17    -0.796790522443E+03   -0.15608E-04   -0.22366E-05 24650   0.124E-02    0.168E-02
DAV:  18    -0.796790534975E+03   -0.12532E-04   -0.28674E-05 27440   0.103E-02    0.149E-02
DAV:  19    -0.796790545870E+03   -0.10895E-04   -0.12298E-05 22290   0.874E-03    0.138E-02
DAV:  20    -0.796790556681E+03   -0.10811E-04   -0.26972E-05 26390   0.139E-02    0.113E-02
DAV:  21    -0.796790565701E+03   -0.90193E-05   -0.32492E-05 26920   0.108E-02
  51 F= -.79679057E+03 E0= -.79679057E+03  d E =0.110263E-01  mag=    47.0000
       N       E                     dE             d eps       ncg     rms          rms(c)
DAV:   1    -0.796230370086E+03    0.56019E+00   -0.51462E+01 34840   0.212E+01    0.262E+00
DAV:   2    -0.796728212318E+03   -0.49784E+00   -0.52267E+00 33690   0.440E+00    0.281E+00
DAV:   3    -0.796745497613E+03   -0.17285E-01   -0.17314E-01 36560   0.110E+00    0.147E+00
DAV:   4    -0.796745153521E+03    0.34409E-03   -0.18745E-02 42950   0.446E-01    0.132E+00
DAV:   5    -0.796743674093E+03    0.14794E-02   -0.15575E-02 40250   0.357E-01    0.385E-01
DAV:   6    -0.796744025624E+03   -0.35153E-03   -0.35444E-03 43040   0.170E-01    0.202E-01
DAV:   7    -0.796744127856E+03   -0.10223E-03   -0.11492E-03 40930   0.825E-02    0.138E-01
DAV:   8    -0.796744217420E+03   -0.89564E-04   -0.14652E-04 39950   0.445E-02    0.940E-02
DAV:   9    -0.796744343135E+03   -0.12571E-03   -0.13252E-04 41790   0.350E-02    0.678E-02
DAV:  10    -0.796744441434E+03   -0.98298E-04   -0.93090E-05 35260   0.244E-02    0.569E-02
DAV:  11    -0.796744515570E+03   -0.74136E-04   -0.57888E-05 29630   0.180E-02    0.498E-02
DAV:  12    -0.796744618871E+03   -0.10330E-03   -0.85366E-05 36400   0.278E-02    0.401E-02
DAV:  13    -0.796744700929E+03   -0.82059E-04   -0.17112E-04 38180   0.359E-02    0.297E-02
DAV:  14    -0.796744745519E+03   -0.44590E-04   -0.11679E-04 35350   0.251E-02    0.229E-02
DAV:  15    -0.796744765203E+03   -0.19683E-04   -0.43173E-05 24660   0.140E-02    0.146E-02
DAV:  16    -0.796744772950E+03   -0.77470E-05   -0.13607E-05 20320   0.728E-03
  52 F= -.79674477E+03 E0= -.79674477E+03  d E =0.457928E-01  mag=    47.0000
       N       E                     dE             d eps       ncg     rms          rms(c)
DAV:   1    -0.796706947417E+03    0.37818E-01   -0.59474E+00 35200   0.803E+00    0.104E+00
DAV:   2    -0.796787486479E+03   -0.80539E-01   -0.85907E-01 33970   0.173E+00    0.109E+00
DAV:   3    -0.796790810772E+03   -0.33243E-02   -0.31873E-02 39710   0.460E-01    0.556E-01
DAV:   4    -0.796790740269E+03    0.70502E-04   -0.34947E-03 43160   0.183E-01    0.504E-01
DAV:   5    -0.796790470710E+03    0.26956E-03   -0.28595E-03 39560   0.147E-01    0.149E-01
DAV:   6    -0.796790513297E+03   -0.42587E-04   -0.54951E-04 42690   0.687E-02    0.782E-02
DAV:   7    -0.796790527430E+03   -0.14133E-04   -0.23830E-04 40330   0.339E-02    0.508E-02
DAV:   8    -0.796790537405E+03   -0.99750E-05   -0.20795E-05 25170   0.184E-02
  53 F= -.79679054E+03 E0= -.79679054E+03  d E =-.457645E-01  mag=    47.0000
       N       E                     dE             d eps       ncg     rms          rms(c)
DAV:   1    -0.796769086239E+03    0.21441E-01   -0.28588E+00 34970   0.513E+00    0.647E-01
DAV:   2    -0.796799572265E+03   -0.30486E-01   -0.32414E-01 34320   0.111E+00    0.743E-01
DAV:   3    -0.796800585692E+03   -0.10134E-02   -0.12435E-02 39090   0.293E-01    0.392E-01
DAV:   4    -0.796800622472E+03   -0.36780E-04   -0.13133E-03 42850   0.116E-01    0.360E-01
DAV:   5    -0.796800504458E+03    0.11801E-03   -0.12608E-03 40100   0.996E-02    0.106E-01
DAV:   6    -0.796800528778E+03   -0.24320E-04   -0.26727E-04 42630   0.454E-02    0.570E-02
DAV:   7    -0.796800543238E+03   -0.14460E-04   -0.10455E-04 36490   0.223E-02    0.414E-02
DAV:   8    -0.796800556351E+03   -0.13113E-04   -0.12437E-05 21370   0.136E-02    0.314E-02
DAV:   9    -0.796800573760E+03   -0.17409E-04   -0.13467E-05 20910   0.116E-02    0.249E-02
DAV:  10    -0.796800590703E+03   -0.16943E-04   -0.17229E-05 23530   0.978E-03    0.209E-02
DAV:  11    -0.796800602826E+03   -0.12123E-04   -0.11291E-05 20160   0.755E-03    0.174E-02
DAV:  12    -0.796800617604E+03   -0.14777E-04   -0.12275E-05 21290   0.127E-02    0.145E-02
DAV:  13    -0.796800627751E+03   -0.10147E-04   -0.38992E-05 28330   0.128E-02    0.103E-02
DAV:  14    -0.796800633004E+03   -0.52526E-05   -0.14343E-05 20580   0.803E-03
  54 F= -.79680063E+03 E0= -.79680063E+03  d E =-.100956E-01  mag=    47.0000
       N       E                     dE             d eps       ncg     rms          rms(c)
DAV:   1    -0.796799087189E+03    0.15406E-02   -0.32654E-01 34860   0.165E+00    0.192E-01
DAV:   2    -0.796801832655E+03   -0.27455E-02   -0.28081E-02 33300   0.329E-01    0.194E-01
DAV:   3    -0.796801916384E+03   -0.83728E-04   -0.77579E-04 36550   0.805E-02    0.976E-02
DAV:   4    -0.796801917487E+03   -0.11028E-05   -0.79785E-05 36240   0.333E-02
  55 F= -.79680192E+03 E0= -.79680192E+03  d E =-.128448E-02  mag=    47.0000
       N       E                     dE             d eps       ncg     rms          rms(c)
DAV:   1    -0.796721266054E+03    0.80650E-01   -0.84998E+00 34570   0.875E+00    0.998E-01
DAV:   2    -0.796798732612E+03   -0.77467E-01   -0.78654E-01 33010   0.168E+00    0.781E-01
DAV:   3    -0.796801775443E+03   -0.30428E-02   -0.18169E-02 36580   0.371E-01    0.392E-01
DAV:   4    -0.796801637846E+03    0.13760E-03   -0.18496E-03 41360   0.161E-01    0.351E-01
DAV:   5    -0.796801558900E+03    0.78946E-04   -0.12867E-03 43010   0.112E-01    0.101E-01
DAV:   6    -0.796801678093E+03   -0.11919E-03   -0.33906E-04 36970   0.455E-02    0.606E-02
DAV:   7    -0.796801694007E+03   -0.15914E-04   -0.45224E-05 31830   0.190E-02    0.417E-02
DAV:   8    -0.796801712968E+03   -0.18961E-04   -0.16176E-05 22360   0.143E-02    0.343E-02
DAV:   9    -0.796801736446E+03   -0.23478E-04   -0.24616E-05 27750   0.136E-02    0.267E-02
DAV:  10    -0.796801750517E+03   -0.14071E-04   -0.15466E-05 20980   0.880E-03    0.235E-02
DAV:  11    -0.796801770044E+03   -0.19527E-04   -0.12211E-05 21000   0.109E-02    0.201E-02
DAV:  12    -0.796801792368E+03   -0.22324E-04   -0.53144E-05 33120   0.173E-02    0.140E-02
DAV:  13    -0.796801805310E+03   -0.12942E-04   -0.44229E-05 30470   0.156E-02    0.111E-02
DAV:  14    -0.796801811556E+03   -0.62455E-05   -0.17946E-05 22860   0.882E-03
  56 F= -.79680181E+03 E0= -.79680181E+03  d E =0.105931E-03  mag=    47.0000
       N       E                     dE             d eps       ncg     rms          rms(c)
DAV:   1    -0.796774030620E+03    0.27775E-01   -0.31756E+00 34770   0.533E+00    0.604E-01
DAV:   2    -0.796801662138E+03   -0.27632E-01   -0.28151E-01 32660   0.981E-01    0.346E-01
DAV:   3    -0.796802979332E+03   -0.13172E-02   -0.54838E-03 39620   0.172E-01    0.191E-01
DAV:   4    -0.796802907202E+03    0.72129E-04   -0.50063E-04 45470   0.659E-02    0.133E-01
DAV:   5    -0.796802949148E+03   -0.41945E-04   -0.26665E-04 44720   0.533E-02    0.504E-02
DAV:   6    -0.796802980498E+03   -0.31350E-04   -0.91249E-05 38560   0.299E-02    0.381E-02
DAV:   7    -0.796802990350E+03   -0.98520E-05   -0.15942E-05 20880   0.136E-02
  57 F= -.79680299E+03 E0= -.79680299E+03  d E =-.117879E-02  mag=    47.0000
       N       E                     dE             d eps       ncg     rms          rms(c)
DAV:   1    -0.796531356362E+03    0.27162E+00   -0.27701E+01 34780   0.151E+01    0.186E+00
DAV:   2    -0.796768631013E+03   -0.23727E+00   -0.24335E+00 33990   0.310E+00    0.200E+00
DAV:   3    -0.796775813149E+03   -0.71821E-02   -0.74147E-02 36120   0.792E-01    0.102E+00
DAV:   4    -0.796776315123E+03   -0.50197E-03   -0.75908E-03 41330   0.312E-01    0.945E-01
DAV:   5    -0.796775597361E+03    0.71776E-03   -0.70059E-03 41720   0.250E-01    0.268E-01
DAV:   6    -0.796775855895E+03   -0.25853E-03   -0.15851E-03 42830   0.113E-01    0.129E-01
DAV:   7    -0.796775895189E+03   -0.39294E-04   -0.38305E-04 40650   0.500E-02    0.922E-02
DAV:   8    -0.796775942772E+03   -0.47583E-04   -0.65292E-05 35390   0.296E-02    0.673E-02
DAV:   9    -0.796776013794E+03   -0.71022E-04   -0.79909E-05 38640   0.256E-02    0.487E-02
DAV:  10    -0.796776063301E+03   -0.49507E-04   -0.49153E-05 28280   0.177E-02    0.422E-02
DAV:  11    -0.796776112506E+03   -0.49204E-04   -0.39232E-05 30710   0.156E-02    0.369E-02
DAV:  12    -0.796776166671E+03   -0.54165E-04   -0.54887E-05 33030   0.201E-02    0.299E-02
DAV:  13    -0.796776214156E+03   -0.47485E-04   -0.12876E-04 38850   0.309E-02    0.200E-02
DAV:  14    -0.796776239842E+03   -0.25686E-04   -0.97539E-05 32900   0.201E-02    0.166E-02
DAV:  15    -0.796776249112E+03   -0.92703E-05   -0.20739E-05 20100   0.841E-03
  58 F= -.79677625E+03 E0= -.79677625E+03  d E =0.267412E-01  mag=    47.0000
       N       E                     dE             d eps       ncg     rms          rms(c)
DAV:   1    -0.796751844404E+03    0.24395E-01   -0.43712E+00 35040   0.644E+00    0.804E-01
DAV:   2    -0.796797440176E+03   -0.45596E-01   -0.48208E-01 34760   0.140E+00    0.936E-01
DAV:   3    -0.796798837151E+03   -0.13970E-02   -0.18428E-02 38630   0.373E-01    0.495E-01
DAV:   4    -0.796798885429E+03   -0.48277E-04   -0.19279E-03 42630   0.142E-01    0.451E-01
DAV:   5    -0.796798683627E+03    0.20180E-03   -0.19510E-03 41160   0.126E-01    0.130E-01
DAV:   6    -0.796798691891E+03   -0.82645E-05   -0.38645E-04 43030   0.583E-02    0.655E-02
DAV:   7    -0.796798698418E+03   -0.65269E-05   -0.15158E-04 38220   0.277E-02    0.431E-02
DAV:   8    -0.796798703959E+03   -0.55408E-05   -0.13418E-05 21470   0.154E-02
  59 F= -.79679870E+03 E0= -.79679870E+03  d E =-.224548E-01  mag=    47.0000
       N       E                     dE             d eps       ncg     rms          rms(c)
DAV:   1    -0.796798707959E+03   -0.95407E-05   -0.32233E-01 34400   0.156E+00    0.189E-01
DAV:   2    -0.796801143666E+03   -0.24357E-02   -0.24905E-02 34150   0.320E-01    0.218E-01
DAV:   3    -0.796801199840E+03   -0.56174E-04   -0.74627E-04 36080   0.823E-02    0.116E-01
DAV:   4    -0.796801212201E+03   -0.12362E-04   -0.76656E-05 36000   0.323E-02    0.108E-01
DAV:   5    -0.796801209556E+03    0.26452E-05   -0.83523E-05 37410   0.281E-02
  60 F= -.79680121E+03 E0= -.79680121E+03  d E =-.250560E-02  mag=    47.0000
       N       E                     dE             d eps       ncg     rms          rms(c)
DAV:   1    -0.796738426423E+03    0.62786E-01   -0.72223E+00 34760   0.797E+00    0.938E-01
DAV:   2    -0.796801523446E+03   -0.63097E-01   -0.64007E-01 33240   0.154E+00    0.860E-01
DAV:   3    -0.796803853995E+03   -0.23305E-02   -0.15907E-02 35850   0.377E-01    0.422E-01
DAV:   4    -0.796803877143E+03   -0.23148E-04   -0.16743E-03 40920   0.156E-01    0.393E-01
DAV:   5    -0.796803765858E+03    0.11129E-03   -0.12573E-03 41760   0.111E-01    0.107E-01
DAV:   6    -0.796803862899E+03   -0.97042E-04   -0.30386E-04 40240   0.452E-02    0.538E-02
DAV:   7    -0.796803874448E+03   -0.11549E-04   -0.41756E-05 29670   0.184E-02    0.401E-02
DAV:   8    -0.796803888597E+03   -0.14149E-04   -0.13698E-05 20880   0.132E-02    0.313E-02
[...]
 187 F= -.79679865E+03 E0= -.79679865E+03  d E =0.146289E-02  mag=    47.0000
       N       E                     dE             d eps       ncg     rms          rms(c)
DAV:   1    -0.795493985146E+03    0.13047E+01   -0.13093E+02 35130   0.356E+01    0.401E+00
DAV:   2    -0.796680456328E+03   -0.11865E+01   -0.12104E+01 32950   0.660E+00    0.210E+00
DAV:   3    -0.796744612452E+03   -0.64156E-01   -0.27982E-01 38790   0.121E+00    0.116E+00
DAV:   4    -0.796742579242E+03    0.20332E-02   -0.19375E-02 44690   0.370E-01    0.764E-01
DAV:   5    -0.796743667113E+03   -0.10879E-02   -0.11446E-02 41650   0.311E-01    0.311E-01
DAV:   6    -0.796744550684E+03   -0.88357E-03   -0.33705E-03 43020   0.190E-01    0.180E-01
DAV:   7    -0.796744622907E+03   -0.72223E-04   -0.91245E-04 42490   0.886E-02    0.110E-01
DAV:   8    -0.796744701053E+03   -0.78147E-04   -0.15346E-04 40720   0.418E-02    0.740E-02
DAV:   9    -0.796744792584E+03   -0.91531E-04   -0.10544E-04 38460   0.293E-02    0.570E-02
DAV:  10    -0.796744849325E+03   -0.56741E-04   -0.56376E-05 29270   0.191E-02    0.490E-02
DAV:  11    -0.796744896066E+03   -0.46741E-04   -0.29156E-05 25430   0.151E-02    0.442E-02
DAV:  12    -0.796744976133E+03   -0.80067E-04   -0.64709E-05 34290   0.250E-02    0.347E-02
DAV:  13    -0.796745048858E+03   -0.72725E-04   -0.26408E-04 41190   0.412E-02    0.243E-02
DAV:  14    -0.796745088657E+03   -0.39799E-04   -0.11866E-04 35090   0.211E-02    0.193E-02
DAV:  15    -0.796745100653E+03   -0.11995E-04   -0.19298E-05 21510   0.103E-02    0.120E-02
DAV:  16    -0.796745106234E+03   -0.55812E-05   -0.12441E-05 21100   0.654E-03
 188 F= -.79674511E+03 E0= -.79674511E+03  d E =0.535431E-01  mag=    47.0000
       N       E                     dE             d eps       ncg     rms          rms(c)
DAV:   1    -0.793999206266E+03    0.27459E+01   -0.17676E+02 35250   0.468E+01    0.593E+00
DAV:   2    -0.796442269052E+03   -0.24431E+01   -0.26473E+01 34330   0.975E+00    0.398E+00
DAV:   3    -0.796602618252E+03   -0.16035E+00   -0.10852E+00 41170   0.244E+00    0.221E+00
DAV:   4    -0.796586695288E+03    0.15923E-01   -0.86881E-02 40860   0.825E-01    0.150E+00
DAV:   5    -0.796581076613E+03    0.56187E-02   -0.65105E-02 38890   0.630E-01    0.669E-01
DAV:   6    -0.796582570025E+03   -0.14934E-02   -0.98277E-03 37950   0.361E-01    0.376E-01
DAV:   7    -0.796583023293E+03   -0.45327E-03   -0.62597E-03 42590   0.180E-01    0.231E-01
DAV:   8    -0.796583292119E+03   -0.26883E-03   -0.66843E-04 38550   0.784E-02    0.150E-01
DAV:   9    -0.796583563508E+03   -0.27139E-03   -0.39060E-04 41020   0.567E-02    0.100E-01
DAV:  10    -0.796583713325E+03   -0.14982E-03   -0.17405E-04 37410   0.384E-02    0.780E-02
DAV:  11    -0.796583802981E+03   -0.89656E-04   -0.76026E-05 32480   0.243E-02    0.688E-02
DAV:  12    -0.796583953603E+03   -0.15062E-03   -0.10222E-04 36640   0.305E-02    0.562E-02
DAV:  13    -0.796584107705E+03   -0.15410E-03   -0.21290E-04 40560   0.437E-02    0.439E-02
DAV:  14    -0.796584194026E+03   -0.86321E-04   -0.20294E-04 38120   0.352E-02    0.340E-02
DAV:  15    -0.796584234706E+03   -0.40681E-04   -0.77479E-05 30400   0.201E-02    0.240E-02
DAV:  16    -0.796584252610E+03   -0.17904E-04   -0.31509E-05 24050   0.122E-02    0.176E-02
DAV:  17    -0.796584262473E+03   -0.98635E-05   -0.13717E-05 22460   0.830E-03
 189 F= -.79658426E+03 E0= -.79658426E+03  d E =0.160844E+00  mag=    47.0000
       N       E                     dE             d eps       ncg     rms          rms(c)
DAV:   1    -0.796380616199E+03    0.20364E+00   -0.26253E+01 35540   0.181E+01    0.219E+00
DAV:   2    -0.796741489418E+03   -0.36087E+00   -0.39602E+00 34260   0.370E+00    0.149E+00
DAV:   3    -0.796765406742E+03   -0.23917E-01   -0.15828E-01 39890   0.894E-01    0.861E-01
DAV:   4    -0.796762689949E+03    0.27168E-02   -0.12545E-02 44650   0.287E-01    0.564E-01
DAV:   5    -0.796761927680E+03    0.76227E-03   -0.99814E-03 37660   0.264E-01    0.261E-01
DAV:   6    -0.796762022591E+03   -0.94911E-04   -0.15572E-03 39590   0.149E-01    0.141E-01
DAV:   7    -0.796762086901E+03   -0.64310E-04   -0.94002E-04 42620   0.727E-02    0.932E-02
DAV:   8    -0.796762129989E+03   -0.43088E-04   -0.12039E-04 35790   0.341E-02    0.598E-02
DAV:   9    -0.796762173224E+03   -0.43235E-04   -0.63423E-05 35460   0.219E-02    0.397E-02
DAV:  10    -0.796762199501E+03   -0.26277E-04   -0.27287E-05 25060   0.150E-02    0.322E-02
DAV:  11    -0.796762215502E+03   -0.16001E-04   -0.14001E-05 19500   0.106E-02    0.284E-02
DAV:  12    -0.796762241012E+03   -0.25510E-04   -0.16295E-05 24500   0.132E-02    0.231E-02
DAV:  13    -0.796762267482E+03   -0.26471E-04   -0.56525E-05 32530   0.185E-02    0.164E-02
DAV:  14    -0.796762281359E+03   -0.13877E-04   -0.36974E-05 24170   0.129E-02    0.133E-02
DAV:  15    -0.796762287134E+03   -0.57743E-05   -0.11221E-05 21040   0.737E-03
 190 F= -.79676229E+03 E0= -.79676229E+03  d E =-.178025E+00  mag=    47.0000
       N       E                     dE             d eps       ncg     rms          rms(c)
DAV:   1    -0.796516188811E+03    0.24609E+00   -0.22382E+01 35730   0.159E+01    0.185E+00
DAV:   2    -0.796772685296E+03   -0.25650E+00   -0.27509E+00 33960   0.316E+00    0.116E+00
DAV:   3    -0.796789052514E+03   -0.16367E-01   -0.10069E-01 39970   0.728E-01    0.677E-01
DAV:   4    -0.796787556768E+03    0.14957E-02   -0.74700E-03 44770   0.228E-01    0.434E-01
DAV:   5    -0.796787215591E+03    0.34118E-03   -0.58763E-03 37870   0.203E-01    0.201E-01
DAV:   6    -0.796787325490E+03   -0.10990E-03   -0.97527E-04 40570   0.119E-01    0.112E-01
DAV:   7    -0.796787369838E+03   -0.44349E-04   -0.56564E-04 42680   0.578E-02    0.744E-02
DAV:   8    -0.796787400274E+03   -0.30436E-04   -0.72911E-05 35780   0.274E-02    0.485E-02
DAV:   9    -0.796787432670E+03   -0.32396E-04   -0.38614E-05 28410   0.190E-02    0.356E-02
DAV:  10    -0.796787453583E+03   -0.20914E-04   -0.23726E-05 23270   0.138E-02    0.290E-02
DAV:  11    -0.796787465489E+03   -0.11905E-04   -0.10906E-05 19190   0.881E-03    0.253E-02
DAV:  12    -0.796787486926E+03   -0.21437E-04   -0.12152E-05 22200   0.121E-02    0.214E-02
DAV:  13    -0.796787511060E+03   -0.24134E-04   -0.58873E-05 32780   0.186E-02    0.152E-02
DAV:  14    -0.796787524092E+03   -0.13031E-04   -0.36967E-05 25810   0.136E-02    0.118E-02
DAV:  15    -0.796787529706E+03   -0.56140E-05   -0.11409E-05 21370   0.737E-03
 191 F= -.79678753E+03 E0= -.79678753E+03  d E =-.252426E-01  mag=    47.0000
       N       E                     dE             d eps       ncg     rms          rms(c)
DAV:   1    -0.796527733726E+03    0.25979E+00   -0.25174E+01 35300   0.156E+01    0.175E+00
DAV:   2    -0.796760196963E+03   -0.23246E+00   -0.23690E+00 32940   0.291E+00    0.912E-01
DAV:   3    -0.796772503742E+03   -0.12307E-01   -0.53430E-02 38540   0.523E-01    0.507E-01
DAV:   4    -0.796772076988E+03    0.42675E-03   -0.36642E-03 44470   0.156E-01    0.331E-01
DAV:   5    -0.796772305264E+03   -0.22828E-03   -0.21115E-03 41110   0.134E-01    0.130E-01
DAV:   6    -0.796772467997E+03   -0.16273E-03   -0.62624E-04 43130   0.812E-02    0.770E-02
DAV:   7    -0.796772481659E+03   -0.13662E-04   -0.16790E-04 42320   0.385E-02    0.483E-02
DAV:   8    -0.796772496645E+03   -0.14986E-04   -0.25785E-05 24220   0.187E-02    0.329E-02
DAV:   9    -0.796772514994E+03   -0.18349E-04   -0.23140E-05 21590   0.135E-02    0.262E-02
DAV:  10    -0.796772526415E+03   -0.11421E-04   -0.14097E-05 21030   0.946E-03    0.220E-02
DAV:  11    -0.796772534438E+03   -0.80237E-05   -0.57176E-06 16950   0.650E-03
 192 F= -.79677253E+03 E0= -.79677253E+03  d E =0.149953E-01  mag=    47.0000
       N       E                     dE             d eps       ncg     rms          rms(c)
DAV:   1    -0.793491155735E+03    0.32814E+01   -0.29545E+02 35450   0.552E+01    0.646E+00
DAV:   2    -0.796529132734E+03   -0.30380E+01   -0.31221E+01 33200   0.106E+01    0.358E+00
DAV:   3    -0.796696021013E+03   -0.16689E+00   -0.80872E-01 39670   0.212E+00    0.197E+00
DAV:   4    -0.796689429104E+03    0.65919E-02   -0.59242E-02 43640   0.685E-01    0.132E+00
DAV:   5    -0.796689710929E+03   -0.28182E-03   -0.35153E-02 41740   0.527E-01    0.544E-01
DAV:   6    -0.796692088842E+03   -0.23779E-02   -0.92698E-03 41950   0.317E-01    0.304E-01
DAV:   7    -0.796692304434E+03   -0.21559E-03   -0.32609E-03 42460   0.150E-01    0.175E-01
DAV:   8    -0.796692435770E+03   -0.13134E-03   -0.39812E-04 39330   0.657E-02    0.114E-01
DAV:   9    -0.796692603366E+03   -0.16760E-03   -0.25511E-04 41710   0.454E-02    0.810E-02
DAV:  10    -0.796692700725E+03   -0.97359E-04   -0.11408E-04 36420   0.293E-02    0.653E-02
DAV:  11    -0.796692767743E+03   -0.67018E-04   -0.48270E-05 27750   0.201E-02    0.589E-02
DAV:  12    -0.796692872200E+03   -0.10446E-03   -0.71959E-05 35720   0.245E-02    0.486E-02
DAV:  13    -0.796692994422E+03   -0.12222E-03   -0.17422E-04 39810   0.399E-02    0.376E-02
DAV:  14    -0.796693065667E+03   -0.71246E-04   -0.18892E-04 37830   0.324E-02    0.296E-02
DAV:  15    -0.796693099894E+03   -0.34227E-04   -0.66723E-05 29250   0.192E-02    0.203E-02
DAV:  16    -0.796693115277E+03   -0.15382E-04   -0.32596E-05 23400   0.113E-02    0.152E-02
DAV:  17    -0.796693122148E+03   -0.68717E-05   -0.80342E-06 19810   0.650E-03
 193 F= -.79669312E+03 E0= -.79669312E+03  d E =0.794123E-01  mag=    47.0000
       N       E                     dE             d eps       ncg     rms          rms(c)
DAV:   1    -0.795728075615E+03    0.96504E+00   -0.90018E+01 35680   0.310E+01    0.359E+00
DAV:   2    -0.796704524677E+03   -0.97645E+00   -0.10324E+01 33470   0.610E+00    0.221E+00
DAV:   3    -0.796761600407E+03   -0.57076E-01   -0.33108E-01 39590   0.134E+00    0.127E+00
DAV:   4    -0.796756927131E+03    0.46733E-02   -0.25147E-02 44580   0.431E-01    0.831E-01
DAV:   5    -0.796755890358E+03    0.10368E-02   -0.18609E-02 38320   0.371E-01    0.362E-01
DAV:   6    -0.796756417341E+03   -0.52698E-03   -0.36586E-03 40920   0.219E-01    0.203E-01
DAV:   7    -0.796756538855E+03   -0.12151E-03   -0.17843E-03 42660   0.104E-01    0.127E-01
DAV:   8    -0.796756610366E+03   -0.71511E-04   -0.21837E-04 39140   0.477E-02    0.810E-02
DAV:   9    -0.796756693418E+03   -0.83053E-04   -0.12540E-04 40830   0.331E-02    0.559E-02
DAV:  10    -0.796756744069E+03   -0.50650E-04   -0.54877E-05 31320   0.215E-02    0.451E-02
DAV:  11    -0.796756773666E+03   -0.29597E-04   -0.25078E-05 22160   0.143E-02    0.397E-02
DAV:  12    -0.796756824217E+03   -0.50551E-04   -0.32837E-05 28800   0.176E-02    0.326E-02
DAV:  13    -0.796756880417E+03   -0.56200E-04   -0.10076E-04 35570   0.278E-02    0.235E-02
DAV:  14    -0.796756910689E+03   -0.30272E-04   -0.95272E-05 32080   0.206E-02    0.185E-02
DAV:  15    -0.796756923557E+03   -0.12868E-04   -0.27334E-05 21270   0.104E-02    0.120E-02
DAV:  16    -0.796756928199E+03   -0.46416E-05   -0.74065E-06 17690   0.624E-03
 194 F= -.79675693E+03 E0= -.79675693E+03  d E =-.638061E-01  mag=    47.0000
       N       E                     dE             d eps       ncg     rms          rms(c)
DAV:   1    -0.796624720603E+03    0.13220E+00   -0.13351E+01 35630   0.113E+01    0.127E+00
DAV:   2    -0.796748086231E+03   -0.12337E+00   -0.12469E+00 31510   0.210E+00    0.634E-01
DAV:   3    -0.796754155713E+03   -0.60695E-02   -0.23822E-02 38850   0.335E-01    0.348E-01
DAV:   4    -0.796753953389E+03    0.20232E-03   -0.18464E-03 44420   0.106E-01    0.222E-01
DAV:   5    -0.796754141925E+03   -0.18854E-03   -0.70780E-04 44560   0.828E-02    0.743E-02
DAV:   6    -0.796754212664E+03   -0.70739E-04   -0.24927E-04 43200   0.500E-02    0.469E-02
DAV:   7    -0.796754212704E+03   -0.39989E-07   -0.29600E-05 26430   0.241E-02
 195 F= -.79675421E+03 E0= -.79675421E+03  d E =0.271550E-02  mag=    47.0000
       N       E                     dE             d eps       ncg     rms          rms(c)
DAV:   1    -0.793075693356E+03    0.36785E+01   -0.36011E+02 35470   0.592E+01    0.680E+00
DAV:   2    -0.796552345761E+03   -0.34767E+01   -0.35224E+01 32010   0.112E+01    0.354E+00
DAV:   3    -0.796723104039E+03   -0.17076E+00   -0.71929E-01 39380   0.190E+00    0.192E+00
DAV:   4    -0.796717639689E+03    0.54643E-02   -0.53811E-02 45170   0.598E-01    0.126E+00
DAV:   5    -0.796720969162E+03   -0.33295E-02   -0.23499E-02 44880   0.484E-01    0.456E-01
DAV:   6    -0.796723257100E+03   -0.22879E-02   -0.86528E-03 43340   0.293E-01    0.268E-01
DAV:   7    -0.796723280784E+03   -0.23684E-04   -0.14302E-03 42200   0.133E-01    0.147E-01
DAV:   8    -0.796723383743E+03   -0.10296E-03   -0.34241E-04 41870   0.626E-02    0.885E-02
DAV:   9    -0.796723498823E+03   -0.11508E-03   -0.18458E-04 39700   0.359E-02    0.674E-02
DAV:  10    -0.796723561313E+03   -0.62490E-04   -0.68287E-05 32380   0.234E-02    0.587E-02
DAV:  11    -0.796723628413E+03   -0.67100E-04   -0.38026E-05 26340   0.178E-02    0.522E-02
DAV:  12    -0.796723730599E+03   -0.10219E-03   -0.78208E-05 35720   0.266E-02    0.413E-02
DAV:  13    -0.796723829097E+03   -0.98498E-04   -0.23042E-04 41020   0.419E-02    0.318E-02
DAV:  14    -0.796723882014E+03   -0.52917E-04   -0.14728E-04 36490   0.258E-02    0.238E-02
DAV:  15    -0.796723903078E+03   -0.21064E-04   -0.36954E-05 24550   0.142E-02    0.155E-02
DAV:  16    -0.796723912701E+03   -0.96235E-05   -0.20309E-05 22170   0.851E-03
 196 F= -.79672391E+03 E0= -.79672391E+03  d E =0.303000E-01  mag=    47.0000
       N       E                     dE             d eps       ncg     rms          rms(c)
DAV:   1    -0.793471437318E+03    0.32525E+01   -0.33649E+02 35370   0.564E+01    0.637E+00
DAV:   2    -0.796549126741E+03   -0.30777E+01   -0.31359E+01 32520   0.105E+01    0.346E+00
DAV:   3    -0.796698335442E+03   -0.14921E+00   -0.63525E-01 39780   0.182E+00    0.187E+00
DAV:   4    -0.796691385193E+03    0.69502E-02   -0.50734E-02 45120   0.612E-01    0.124E+00
DAV:   5    -0.796693708385E+03   -0.23232E-02   -0.24824E-02 45180   0.491E-01    0.448E-01
DAV:   6    -0.796695769816E+03   -0.20614E-02   -0.84668E-03 43210   0.296E-01    0.270E-01
DAV:   7    -0.796695797479E+03   -0.27663E-04   -0.13760E-03 42430   0.127E-01    0.142E-01
DAV:   8    -0.796695886781E+03   -0.89302E-04   -0.31039E-04 41920   0.599E-02    0.850E-02
DAV:   9    -0.796695976203E+03   -0.89422E-04   -0.16465E-04 40900   0.370E-02    0.617E-02
DAV:  10    -0.796696024977E+03   -0.48774E-04   -0.63415E-05 31600   0.225E-02    0.521E-02
DAV:  11    -0.796696073032E+03   -0.48055E-04   -0.29315E-05 23490   0.161E-02    0.464E-02
DAV:  12    -0.796696149676E+03   -0.76644E-04   -0.49007E-05 31990   0.218E-02    0.377E-02
DAV:  13    -0.796696231206E+03   -0.81530E-04   -0.18997E-04 37960   0.364E-02    0.270E-02
DAV:  14    -0.796696272990E+03   -0.41783E-04   -0.11089E-04 34040   0.222E-02    0.220E-02
DAV:  15    -0.796696289744E+03   -0.16755E-04   -0.27494E-05 22080   0.135E-02    0.133E-02
DAV:  16    -0.796696297913E+03   -0.81690E-05   -0.20845E-05 23580   0.877E-03
 197 F= -.79669630E+03 E0= -.79669630E+03  d E =0.276148E-01  mag=    47.0000
       N       E                     dE             d eps       ncg     rms          rms(c)
DAV:   1    -0.795365496944E+03    0.13308E+01   -0.13230E+02 35430   0.359E+01    0.407E+00
DAV:   2    -0.796630082277E+03   -0.12646E+01   -0.12826E+01 31730   0.672E+00    0.211E+00
DAV:   3    -0.796690297507E+03   -0.60215E-01   -0.24902E-01 39360   0.110E+00    0.115E+00
DAV:   4    -0.796687729032E+03    0.25685E-02   -0.19861E-02 45830   0.365E-01    0.743E-01
DAV:   5    -0.796689168289E+03   -0.14393E-02   -0.81355E-03 45100   0.290E-01    0.250E-01
DAV:   6    -0.796689872679E+03   -0.70439E-03   -0.29039E-03 43210   0.173E-01    0.156E-01
DAV:   7    -0.796689872438E+03    0.24021E-06   -0.38690E-04 41600   0.766E-02    0.848E-02
DAV:   8    -0.796689905305E+03   -0.32866E-04   -0.12004E-04 40060   0.374E-02    0.484E-02
DAV:   9    -0.796689938444E+03   -0.33140E-04   -0.59358E-05 33050   0.201E-02    0.371E-02
DAV:  10    -0.796689956519E+03   -0.18075E-04   -0.19301E-05 20350   0.135E-02    0.329E-02
DAV:  11    -0.796689977430E+03   -0.20910E-04   -0.12366E-05 19520   0.998E-03    0.289E-02
DAV:  12    -0.796690008267E+03   -0.30837E-04   -0.20700E-05 27380   0.144E-02    0.235E-02
DAV:  13    -0.796690040145E+03   -0.31878E-04   -0.89169E-05 35370   0.244E-02    0.166E-02
DAV:  14    -0.796690057317E+03   -0.17173E-04   -0.49772E-05 25500   0.139E-02    0.130E-02
DAV:  15    -0.796690063405E+03   -0.60875E-05   -0.89069E-06 19380   0.758E-03
 198 F= -.79669006E+03 E0= -.79669006E+03  d E =0.623451E-02  mag=    47.0000
       N       E                     dE             d eps       ncg     rms          rms(c)
DAV:   1    -0.791911177612E+03    0.47789E+01   -0.49105E+02 35400   0.683E+01    0.778E+00
DAV:   2    -0.796442229922E+03   -0.45311E+01   -0.46005E+01 31440   0.127E+01    0.407E+00
DAV:   3    -0.796657842559E+03   -0.21561E+00   -0.87364E-01 39570   0.204E+00    0.219E+00
DAV:   4    -0.796648416906E+03    0.94257E-02   -0.66657E-02 43990   0.621E-01    0.139E+00
DAV:   5    -0.796654151251E+03   -0.57343E-02   -0.25943E-02 44850   0.495E-01    0.473E-01
DAV:   6    -0.796656560313E+03   -0.24091E-02   -0.92379E-03 43310   0.303E-01    0.283E-01
DAV:   7    -0.796656522448E+03    0.37864E-04   -0.12623E-03 42300   0.143E-01    0.153E-01
DAV:   8    -0.796656600769E+03   -0.78321E-04   -0.38349E-04 42030   0.685E-02    0.785E-02
DAV:   9    -0.796656685891E+03   -0.85122E-04   -0.17267E-04 39270   0.330E-02    0.596E-02
DAV:  10    -0.796656730962E+03   -0.45070E-04   -0.46400E-05 27910   0.207E-02    0.520E-02
DAV:  11    -0.796656780947E+03   -0.49985E-04   -0.28034E-05 23990   0.150E-02    0.463E-02
DAV:  12    -0.796656866645E+03   -0.85698E-04   -0.62062E-05 33630   0.260E-02    0.357E-02
DAV:  13    -0.796656942698E+03   -0.76053E-04   -0.24585E-04 40320   0.409E-02    0.248E-02
DAV:  14    -0.796656983455E+03   -0.40757E-04   -0.11302E-04 33120   0.217E-02    0.197E-02
DAV:  15    -0.796656996615E+03   -0.13160E-04   -0.20342E-05 21300   0.105E-02    0.125E-02
DAV:  16    -0.796657002536E+03   -0.59212E-05   -0.11155E-05 19540   0.674E-03
 199 F= -.79665700E+03 E0= -.79665700E+03  d E =0.330609E-01  mag=    47.0000
       N       E                     dE             d eps       ncg     rms          rms(c)
DAV:   1    -0.793611570261E+03    0.30454E+01   -0.31548E+02 35490   0.548E+01    0.620E+00
DAV:   2    -0.796499845392E+03   -0.28883E+01   -0.29343E+01 31460   0.101E+01    0.323E+00
DAV:   3    -0.796637747546E+03   -0.13790E+00   -0.54840E-01 38930   0.161E+00    0.175E+00
DAV:   4    -0.796631261691E+03    0.64859E-02   -0.43940E-02 42060   0.492E-01    0.109E+00
DAV:   5    -0.796635288890E+03   -0.40272E-02   -0.16184E-02 43320   0.382E-01    0.355E-01
DAV:   6    -0.796636727259E+03   -0.14384E-02   -0.54962E-03 43100   0.226E-01    0.216E-01
DAV:   7    -0.796636707566E+03    0.19693E-04   -0.70195E-04 42500   0.111E-01    0.120E-01
DAV:   8    -0.796636740127E+03   -0.32561E-04   -0.22399E-04 42160   0.551E-02    0.588E-02
DAV:   9    -0.796636783759E+03   -0.43632E-04   -0.10380E-04 37560   0.265E-02    0.430E-02
DAV:  10    -0.796636805225E+03   -0.21466E-04   -0.26323E-05 23910   0.161E-02    0.366E-02
DAV:  11    -0.796636829358E+03   -0.24133E-04   -0.14150E-05 19660   0.108E-02    0.330E-02
DAV:  12    -0.796636868510E+03   -0.39152E-04   -0.23252E-05 27520   0.163E-02    0.270E-02
DAV:  13    -0.796636909434E+03   -0.40924E-04   -0.10898E-04 35990   0.265E-02    0.184E-02
DAV:  14    -0.796636931278E+03   -0.21844E-04   -0.64965E-05 28280   0.171E-02    0.158E-02
DAV:  15    -0.796636939964E+03   -0.86864E-05   -0.16005E-05 20820   0.924E-03
 200 F= -.79663694E+03 E0= -.79663694E+03  d E =0.200626E-01  mag=    47.0000
