       N       E                     dE             d eps       ncg     rms          ort
DAV:   1     0.571927259735E+04    0.57193E+04   -0.23009E+05  4144   0.175E+03
DAV:   2     0.839822669770E+02   -0.56353E+04   -0.51171E+04  4144   0.502E+02
DAV:   3    -0.749619493211E+03   -0.83360E+03   -0.78437E+03  4144   0.204E+02
DAV:   4    -0.792333361376E+03   -0.42714E+02   -0.42220E+02  4144   0.471E+01
DAV:   5    -0.792850111351E+03   -0.51675E+00   -0.51571E+00  4144   0.565E+00
SDA:   6    -0.274332196068E+03    0.51852E+03   -0.51571E+00  4144   0.187E+04 0.000E+00
CGA:   7    -0.541816858951E+03   -0.26748E+03   -0.26385E+03  4144   0.207E+03 0.109E+02
CGA:   8    -0.581662174908E+03   -0.39845E+02   -0.39825E+02  4144   0.600E+02-0.106E+01
CGA:   9    -0.596399410285E+03   -0.14737E+02   -0.14684E+02  4144   0.290E+02 0.790E+00
CGA:  10    -0.603149393079E+03   -0.67500E+01   -0.67539E+01  4144   0.780E+01-0.169E+00
CGA:  11    -0.604953722723E+03   -0.18043E+01   -0.18123E+01  4144   0.205E+01-0.245E+00
CGA:  12    -0.605453478107E+03   -0.49976E+00   -0.50738E+00  4144   0.639E+00-0.144E+00
CGA:  13    -0.605636626644E+03   -0.18315E+00   -0.19171E+00  4144   0.274E+00-0.742E-01
CGA:  14    -0.605723104214E+03   -0.86478E-01   -0.10387E+00  4144   0.208E+00-0.815E-01
CGA:  15    -0.605737664249E+03   -0.14560E-01   -0.10287E+00  4144   0.392E+00-0.185E+00
CGA:  16    -0.605831418487E+03   -0.93754E-01   -0.93842E-01  4144   0.725E-01 0.131E-01
CGA:  17    -0.605855603271E+03   -0.24185E-01   -0.24536E-01  4144   0.201E-01-0.429E-02
CGA:  18    -0.605861034259E+03   -0.54310E-02   -0.53129E-02  4144   0.477E-02 0.389E-02
CGA:  19    -0.605863114240E+03   -0.20800E-02   -0.19750E-02  4144   0.200E-02 0.111E-02
CGA:  20    -0.605864417380E+03   -0.13031E-02   -0.16266E-02  4144   0.268E-02-0.789E-03
CGA:  21    -0.605864851353E+03   -0.43397E-03   -0.43062E-03  4144   0.162E-02-0.301E-03
CGA:  22    -0.605865794644E+03   -0.94329E-03    0.10351E-02  4144   0.100E-02-0.161E-03
CGA:  23    -0.605867120551E+03   -0.13259E-02    0.74350E-04  4144   0.605E-03-0.132E-03
CGA:  24    -0.605868281320E+03   -0.11608E-02    0.24060E-04  4144   0.419E-03 0.520E-04
CGA:  25    -0.605869215605E+03   -0.93429E-03    0.23066E-04  4144   0.246E-03-0.174E-06
CGA:  26    -0.605869935455E+03   -0.71985E-03    0.79000E-05  4144   0.126E-03 0.406E-04
CGA:  27    -0.605870357024E+03   -0.42157E-03    0.48425E-05  4144   0.550E-04-0.180E-04
CGA:  28    -0.605870400908E+03   -0.43884E-04    0.94428E-05  4144   0.313E-04 0.789E-05
CGA:  29    -0.605870393325E+03    0.75822E-05   -0.81180E-06  4144   0.285E-04 0.332E-04
   1 F= -.60587039E+03 E0= -.60587039E+03  d E =-.605870E+03  mag=    55.0000
       N       E                     dE             d eps       ncg     rms          ort
SDA:   1    -0.605868405913E+03    0.19950E-02    0.00000E+00  4144   0.496E-02 0.000E+00
CGA:   2    -0.605869489300E+03   -0.10834E-02   -0.10868E-02  4144   0.217E-02 0.107E-03
CGA:   3    -0.605869941732E+03   -0.45243E-03   -0.46059E-03  4144   0.512E-03 0.195E-03
CGA:   4    -0.605870021927E+03   -0.80194E-04   -0.89758E-04  4144   0.969E-04 0.111E-03
CGA:   5    -0.605870023632E+03   -0.17056E-05   -0.11603E-04  4144   0.389E-04 0.685E-04
   2 F= -.60587002E+03 E0= -.60587002E+03  d E =0.369693E-03  mag=    55.0000
       N       E                     dE             d eps       ncg     rms          ort
SDA:   1    -0.605869570632E+03    0.45129E-03    0.00000E+00  4144   0.107E-02 0.000E+00
CGA:   2    -0.605869784422E+03   -0.21379E-03   -0.21569E-03  4144   0.403E-03 0.747E-04
CGA:   3    -0.605869868567E+03   -0.84145E-04   -0.85933E-04  4144   0.988E-04 0.679E-04
CGA:   4    -0.605869881590E+03   -0.13023E-04   -0.16411E-04  4144   0.218E-04 0.412E-04
CGA:   5    -0.605869880985E+03    0.60548E-06   -0.23736E-05  4144   0.111E-04 0.208E-04
   3 F= -.60586988E+03 E0= -.60586988E+03  d E =0.142647E-03  mag=    55.0000
       N       E                     dE             d eps       ncg     rms          ort
SDA:   1    -0.605869820241E+03    0.61350E-04    0.00000E+00  4144   0.624E-04 0.000E+00
CGA:   2    -0.605869827668E+03   -0.74277E-05   -0.85489E-05  4144   0.141E-04 0.166E-04
CGA:   3    -0.605869827828E+03   -0.15933E-06   -0.15185E-05  4144   0.725E-05 0.117E-04
CGA:   4    -0.605869827363E+03    0.46437E-06   -0.39988E-06  4144   0.532E-05 0.616E-05
   4 F= -.60586983E+03 E0= -.60586983E+03  d E =0.536217E-04  mag=    55.0000
       N       E                     dE             d eps       ncg     rms          ort
SDA:   1    -0.605869796488E+03    0.31339E-04    0.00000E+00  4144   0.331E-04 0.000E+00
CGA:   2    -0.605869808239E+03   -0.11750E-04   -0.15601E-04  4144   0.357E-04-0.133E-04
CGA:   3    -0.605869807867E+03    0.37186E-06   -0.12289E-05  4144   0.190E-04 0.116E-04
CGA:   4    -0.605869806993E+03    0.87387E-06   -0.10850E-05  4144   0.741E-05 0.135E-04
   5 F= -.60586981E+03 E0= -.60586981E+03  d E =0.203704E-04  mag=    55.0000
       N       E                     dE             d eps       ncg     rms          ort
SDA:   1    -0.574393954550E+03    0.31476E+02    0.00000E+00  4144   0.787E+02 0.000E+00
CGA:   2    -0.597632742498E+03   -0.23239E+02   -0.23249E+02  4144   0.314E+02-0.223E-01
CGA:   3    -0.603793517376E+03   -0.61608E+01   -0.61584E+01  4144   0.697E+01 0.980E-01
CGA:   4    -0.605147504516E+03   -0.13540E+01   -0.13537E+01  4144   0.139E+01 0.211E-01
CGA:   5    -0.605433773523E+03   -0.28627E+00   -0.28629E+00  4144   0.344E+00-0.906E-03
CGA:   6    -0.605515892479E+03   -0.82119E-01   -0.82140E-01  4144   0.108E+00-0.462E-03
CGA:   7    -0.605545485996E+03   -0.29594E-01   -0.29567E-01  4144   0.365E-01 0.275E-03
CGA:   8    -0.605556839006E+03   -0.11353E-01   -0.11132E-01  4144   0.136E-01 0.194E-02
CGA:   9    -0.605560958692E+03   -0.41197E-02   -0.39516E-02  4144   0.418E-02 0.212E-02
CGA:  10    -0.605562693050E+03   -0.17344E-02   -0.17008E-02  4144   0.169E-02 0.219E-03
CGA:  11    -0.605563288472E+03   -0.59542E-03   -0.56659E-03  4144   0.692E-03 0.254E-03
CGA:  12    -0.605563480986E+03   -0.19251E-03   -0.18484E-03  4144   0.355E-03 0.402E-03
CGA:  13    -0.605563577725E+03   -0.96739E-04   -0.89048E-04  4144   0.188E-03 0.207E-03
CGA:  14    -0.605563622216E+03   -0.44491E-04   -0.42713E-04  4144   0.147E-03 0.161E-03
CGA:  15    -0.605563660004E+03   -0.37788E-04   -0.34918E-04  4144   0.121E-03 0.132E-03
CGA:  16    -0.605563681398E+03   -0.21395E-04   -0.23770E-04  4144   0.105E-03 0.112E-03
CGA:  17    -0.605563700797E+03   -0.19399E-04   -0.21046E-04  4144   0.922E-04 0.984E-04
CGA:  18    -0.605563714403E+03   -0.13605E-04   -0.16659E-04  4144   0.822E-04 0.869E-04
CGA:  19    -0.605563725597E+03   -0.11194E-04   -0.14301E-04  4144   0.737E-04 0.777E-04
CGA:  20    -0.605563734311E+03   -0.87141E-05   -0.12082E-04  4144   0.667E-04 0.700E-04
CGA:  21    -0.605563741345E+03   -0.70346E-05   -0.10420E-04  4144   0.607E-04 0.635E-04
   6 F= -.60556374E+03 E0= -.60556374E+03  d E =0.306066E+00  mag=    55.0000
       N       E                     dE             d eps       ncg     rms          ort
SDA:   1    -0.579463591557E+03    0.26100E+02    0.00000E+00  4144   0.661E+02 0.000E+00
CGA:   2    -0.599131715995E+03   -0.19668E+02   -0.19671E+02  4144   0.267E+02-0.516E-02
CGA:   3    -0.604354250980E+03   -0.52225E+01   -0.52235E+01  4144   0.603E+01 0.380E-01
CGA:   4    -0.605514825021E+03   -0.11606E+01   -0.11606E+01  4144   0.119E+01 0.200E-02
CGA:   5    -0.605759538706E+03   -0.24471E+00   -0.24472E+00  4144   0.290E+00 0.194E-02
CGA:   6    -0.605827525475E+03   -0.67987E-01   -0.67922E-01  4144   0.875E-01 0.232E-02
CGA:   7    -0.605852285585E+03   -0.24760E-01   -0.24903E-01  4144   0.303E-01-0.194E-02
CGA:   8    -0.605862125963E+03   -0.98404E-02   -0.10374E-01  4144   0.149E-01-0.387E-02
CGA:   9    -0.605866150366E+03   -0.40244E-02   -0.42157E-02  4144   0.530E-02-0.183E-02
CGA:  10    -0.605867756790E+03   -0.16064E-02   -0.18283E-02  4144   0.225E-02-0.132E-02
CGA:  11    -0.605868358605E+03   -0.60181E-03   -0.74985E-03  4144   0.135E-02-0.705E-03
CGA:  12    -0.605865730834E+03    0.26278E-02   -0.14399E-02  4144   0.149E-01-0.310E-02
CGA:  13    -0.605868905126E+03   -0.31743E-02   -0.33149E-02  4144   0.148E-02 0.636E-03
CGA:  14    -0.605869462002E+03   -0.55688E-03   -0.55474E-03  4144   0.393E-03-0.289E-04
CGA:  15    -0.605869474498E+03   -0.12496E-04   -0.64541E-04  4144   0.144E-03 0.199E-03
CGA:  16    -0.605869490021E+03   -0.15524E-04   -0.30819E-04  4144   0.547E-04 0.757E-04
CGA:  17    -0.605869495847E+03   -0.58255E-05   -0.12627E-04  4144   0.316E-04 0.389E-04
   7 F= -.60586950E+03 E0= -.60586950E+03  d E =-.305755E+00  mag=    55.0000
       N       E                     dE             d eps       ncg     rms          ort
SDA:   1    -0.605654626391E+03    0.21486E+00    0.00000E+00  4144   0.548E+00 0.000E+00
CGA:   2    -0.605806713638E+03   -0.15209E+00   -0.15217E+00  4144   0.241E+00 0.596E-03
CGA:   3    -0.605854714242E+03   -0.48001E-01   -0.47927E-01  4144   0.539E-01-0.455E-03
CGA:   4    -0.605865257958E+03   -0.10544E-01   -0.10493E-01  4144   0.108E-01-0.302E-03
CGA:   5    -0.605867365366E+03   -0.21074E-02   -0.21192E-02  4144   0.241E-02 0.694E-04
CGA:   6    -0.605867894027E+03   -0.52866E-03   -0.53935E-03  4144   0.650E-03 0.823E-04
CGA:   7    -0.605868081343E+03   -0.18732E-03   -0.18603E-03  4144   0.216E-03-0.189E-04
CGA:   8    -0.605868163177E+03   -0.81835E-04   -0.10001E-03  4144   0.253E-03-0.135E-03
CGA:   9    -0.605868212881E+03   -0.49704E-04   -0.48008E-04  4144   0.345E-04-0.108E-04
CGA:  10    -0.605868224163E+03   -0.11281E-04   -0.11289E-04  4144   0.118E-04-0.473E-05
CGA:  11    -0.605868234377E+03   -0.10214E-04    0.37058E-05  4144   0.382E-05-0.227E-06
CGA:  12    -0.605868241549E+03   -0.71720E-05    0.35279E-06  4144   0.132E-05 0.634E-06
   8 F= -.60586824E+03 E0= -.60586824E+03  d E =0.125430E-02  mag=    55.0000
       N       E                     dE             d eps       ncg     rms          ort
SDA:   1    -0.605807716717E+03    0.60518E-01    0.00000E+00  4144   0.164E+00 0.000E+00
CGA:   2    -0.605851017761E+03   -0.43301E-01   -0.43292E-01  4144   0.738E-01-0.194E-03
CGA:   3    -0.605866079014E+03   -0.15061E-01   -0.15093E-01  4144   0.168E-01 0.212E-03
CGA:   4    -0.605869243546E+03   -0.31645E-02   -0.31935E-02  4144   0.338E-02 0.201E-03
CGA:   5    -0.605869935730E+03   -0.69218E-03   -0.69188E-03  4144   0.775E-03-0.348E-05
CGA:   6    -0.605870125605E+03   -0.18988E-03   -0.18652E-03  4144   0.244E-03-0.443E-04
CGA:   7    -0.605870176082E+03   -0.50477E-04   -0.52357E-04  4144   0.603E-04 0.218E-04
CGA:   8    -0.605870180904E+03   -0.48227E-05   -0.98881E-05  4144   0.219E-04 0.320E-04
   9 F= -.60587018E+03 E0= -.60587018E+03  d E =-.193936E-02  mag=    55.0000
