       N       E                     dE             d eps       ncg     rms          rms(c)
DAV:   1     0.307249098587E+04    0.30725E+04   -0.25836E+05 73596   0.131E+03
DAV:   2    -0.610609138956E+03   -0.36831E+04   -0.35493E+04 89700   0.297E+02
DAV:   3    -0.872377754770E+03   -0.26177E+03   -0.26009E+03 89100   0.838E+01
DAV:   4    -0.875650644986E+03   -0.32729E+01   -0.32609E+01 89364   0.101E+01
DAV:   5    -0.875706096995E+03   -0.55452E-01   -0.55317E-01 91080   0.121E+00    0.990E+01
DAV:   6    -0.779920749308E+03    0.95785E+02   -0.40559E+02 83952   0.319E+01    0.502E+01
DAV:   7    -0.789356201494E+03   -0.94355E+01   -0.22225E+01 83220   0.768E+00    0.163E+01
DAV:   8    -0.793433097471E+03   -0.40769E+01   -0.16782E+00 87492   0.247E+00    0.780E+00
DAV:   9    -0.795569983963E+03   -0.21369E+01   -0.94669E-01 87108   0.166E+00    0.382E+00
DAV:  10    -0.796080743662E+03   -0.51076E+00   -0.28515E-01 85620   0.930E-01    0.112E+00
DAV:  11    -0.796152740461E+03   -0.71997E-01   -0.40938E-02 86064   0.357E-01    0.623E-01
DAV:  12    -0.796162219070E+03   -0.94786E-02   -0.47705E-03 86688   0.136E-01    0.280E-01
DAV:  13    -0.796164646226E+03   -0.24272E-02   -0.14251E-03 86244   0.722E-02    0.822E-02
DAV:  14    -0.796165038036E+03   -0.39181E-03   -0.27367E-04 85800   0.340E-02    0.461E-02
DAV:  15    -0.796165070377E+03   -0.32341E-04   -0.43350E-05 82728   0.169E-02    0.294E-02
DAV:  16    -0.796165082875E+03   -0.12497E-04   -0.13320E-05 60420   0.114E-02    0.113E-02
DAV:  17    -0.796165083493E+03   -0.61826E-06   -0.88965E-06 61824   0.104E-02
   1 F= -.79616508E+03 E0= -.79616508E+03  d E =-.796165E+03  mag=    -0.0020
