       N       E                     dE             d eps       ncg     rms          rms(c)
DAV:   1     0.573864601731E+04    0.57386E+04   -0.20952E+05 16848   0.159E+03
DAV:   2     0.371031328812E+03   -0.53676E+04   -0.48673E+04 16624   0.481E+02
DAV:   3    -0.427558874722E+03   -0.79859E+03   -0.74907E+03 17664   0.194E+02
DAV:   4    -0.468865350431E+03   -0.41306E+02   -0.40837E+02 18656   0.452E+01
DAV:   5    -0.469379326722E+03   -0.51398E+00   -0.51298E+00 18120   0.552E+00    0.114E+02
DAV:   6    -0.386596448800E+03    0.82783E+02   -0.54081E+02 20464   0.908E+01    0.101E+02
DAV:   7    -0.382857889197E+03    0.37386E+01   -0.24277E+02 18480   0.769E+01    0.521E+01
DAV:   8    -0.377667656012E+03    0.51902E+01   -0.36410E+01 18720   0.249E+01    0.269E+01
DAV:   9    -0.379274137192E+03   -0.16065E+01   -0.92587E+00 18360   0.125E+01    0.203E+01
DAV:  10    -0.379587616670E+03   -0.31348E+00   -0.27233E+00 17616   0.482E+00    0.953E+00
DAV:  11    -0.379305544482E+03    0.28207E+00   -0.13439E+00 19688   0.530E+00    0.337E+00
DAV:  12    -0.379401060837E+03   -0.95516E-01   -0.20686E-01 17672   0.193E+00    0.237E+00
DAV:  13    -0.379413532917E+03   -0.12472E-01   -0.45002E-02 17776   0.821E-01    0.107E+00
DAV:  14    -0.379417787223E+03   -0.42543E-02   -0.99537E-03 18800   0.376E-01    0.637E-01
DAV:  15    -0.379418726886E+03   -0.93966E-03   -0.43297E-03 17920   0.201E-01    0.337E-01
DAV:  16    -0.379418457315E+03    0.26957E-03   -0.11636E-03 18352   0.112E-01    0.171E-01
DAV:  17    -0.379418547763E+03   -0.90447E-04   -0.42188E-04 17656   0.790E-02    0.708E-02
DAV:  18    -0.379418598211E+03   -0.50448E-04   -0.87297E-05 16960   0.384E-02    0.273E-02
DAV:  19    -0.379418614318E+03   -0.16107E-04   -0.32131E-05 13704   0.182E-02    0.194E-02
DAV:  20    -0.379418620301E+03   -0.59823E-05   -0.86017E-06 10048   0.999E-03
   1 F= -.37941862E+03 E0= -.37941862E+03  d E =-.379419E+03  mag=    54.9999
