       N       E                     dE             d eps       ncg     rms          ort
DAV:   1     0.112219888031E+05    0.11222E+05   -0.46672E+05  8540   0.170E+03
DAV:   2     0.216526003439E+02   -0.11200E+05   -0.10192E+05  8540   0.487E+02
DAV:   3    -0.160817227191E+04   -0.16298E+04   -0.15442E+04  8540   0.197E+02
DAV:   4    -0.169195239431E+04   -0.83780E+02   -0.82567E+02  8540   0.456E+01
DAV:   5    -0.169302517277E+04   -0.10728E+01   -0.10694E+01  8540   0.558E+00
SDA:   6    -0.801699123832E+03    0.89133E+03   -0.10694E+01  8540   0.301E+04 0.000E+00
CGA:   7    -0.122034177442E+04   -0.41864E+03   -0.41862E+03  8540   0.352E+03 0.748E+02
CGA:   8    -0.127573157779E+04   -0.55390E+02   -0.47844E+02  8540   0.106E+03 0.536E+02
CGA:   9    -0.129563371894E+04   -0.19902E+02   -0.19747E+02  8540   0.750E+02 0.981E+00
CGA:  10    -0.130924308366E+04   -0.13609E+02   -0.13391E+02  8540   0.574E+02-0.717E+01
CGA:  11    -0.131672256892E+04   -0.74795E+01   -0.50790E+01  8540   0.245E+02 0.250E+02
CGA:  12    -0.131575367998E+04    0.96889E+00   -0.17340E+01  8540   0.384E+02-0.111E+02
CGA:  13    -0.131652076252E+04   -0.76708E+00   -0.92446E+00  8540   0.495E+02-0.605E+01
CGA:  14    -0.132079258421E+04   -0.42718E+01   -0.14725E+01  8540   0.969E+01-0.289E+02
CGA:  15    -0.132153181622E+04   -0.73923E+00   -0.46133E+00  8540   0.619E+01 0.365E+00
CGA:  16    -0.132184594459E+04   -0.31413E+00   -0.26652E+00  8540   0.149E+02 0.705E+00
CGA:  17    -0.132221534909E+04   -0.36940E+00   -0.52189E+00  8540   0.182E+02-0.448E+01
CGA:  18    -0.132235686921E+04   -0.14152E+00   -0.24813E+00  8540   0.782E+01-0.459E+01
CGA:  19    -0.132235337509E+04    0.34941E-02   -0.22366E+00  8540   0.500E+01-0.329E+01
CGA:  20    -0.132241801288E+04   -0.64638E-01   -0.35989E-01  8540   0.369E+01 0.223E+01
CGA:  21    -0.132251379852E+04   -0.95786E-01   -0.87794E-01  8540   0.292E+01-0.285E+00
CGA:  22    -0.132255529345E+04   -0.41495E-01   -0.46470E-01  8540   0.698E+01-0.253E+00
CGA:  23    -0.132264785487E+04   -0.92561E-01   -0.12758E+00  8540   0.147E+02-0.123E+01
CGA:  24    -0.132275212322E+04   -0.10427E+00   -0.11466E+00  8540   0.940E+01-0.820E+00
CGA:  25    -0.132275958229E+04   -0.74591E-02   -0.12291E+00  8540   0.182E+01-0.712E+01
CGA:  26    -0.132301250747E+04   -0.25293E+00   -0.25253E+00  8540   0.162E+01-0.571E-01
CGA:  27    -0.132307913654E+04   -0.66629E-01   -0.39330E-01  8540   0.406E+00 0.782E+00
CGA:  28    -0.132309213165E+04   -0.12995E-01   -0.89391E-02  8540   0.109E+00 0.211E+00
CGA:  29    -0.132311637516E+04   -0.24244E-01   -0.30800E-01  8540   0.726E+00-0.369E-01
CGA:  30    -0.132313225413E+04   -0.15879E-01   -0.15207E-01  8540   0.254E+00-0.729E-01
CGA:  31    -0.132313872682E+04   -0.64727E-02   -0.81050E-02  8540   0.160E+00-0.875E-01
CGA:  32    -0.132314887962E+04   -0.10153E-01   -0.23169E-01  8540   0.278E+00-0.108E+00
CGA:  33    -0.132315890957E+04   -0.10030E-01   -0.82094E-02  8540   0.577E-01 0.736E-01
CGA:  34    -0.132316346257E+04   -0.45530E-02   -0.48856E-02  8540   0.106E+00 0.117E-01
CGA:  35    -0.132316963168E+04   -0.61691E-02   -0.69547E-02  8540   0.470E-01 0.171E-01
CGA:  36    -0.132317126803E+04   -0.16363E-02   -0.19338E-02  8540   0.232E-01-0.113E-02
CGA:  37    -0.132317417772E+04   -0.29097E-02   -0.29460E-02  8540   0.355E-01-0.107E-02
CGA:  38    -0.132317533829E+04   -0.11606E-02   -0.10627E-02  8540   0.450E-02 0.699E-03
CGA:  39    -0.132317576380E+04   -0.42550E-03   -0.45219E-03  8540   0.237E-01-0.489E-02
CGA:  40    -0.132317677807E+04   -0.10143E-02   -0.90043E-03  8540   0.465E-02-0.430E-02
CGA:  41    -0.132317761324E+04   -0.83518E-03    0.82987E-03  8540   0.188E-02 0.211E-02
CGA:  42    -0.132317851597E+04   -0.90273E-03    0.15192E-03  8540   0.158E-02 0.249E-02
CGA:  43    -0.132317896152E+04   -0.44554E-03    0.12879E-03  8540   0.215E-02 0.129E-02
CGA:  44    -0.132317943935E+04   -0.47784E-03    0.42919E-03  8540   0.527E-02-0.543E-04
CGA:  45    -0.132318105493E+04   -0.16156E-02    0.31782E-03  8540   0.223E-01 0.258E-02
CGA:  46    -0.132318102951E+04    0.25422E-04   -0.17360E-02  8540   0.261E+00-0.667E-01
CGA:  47    -0.132318656825E+04   -0.55387E-02   -0.50001E-02  8540   0.659E-02 0.418E-01
CGA:  48    -0.132318665904E+04   -0.90785E-04   -0.13313E-03  8540   0.364E-03 0.860E-03
CGA:  49    -0.132318667180E+04   -0.12760E-04   -0.18343E-04  8540   0.540E-03 0.150E-03
CGA:  50    -0.132318649907E+04    0.17272E-03   -0.13423E-03  8540   0.188E-02-0.139E-02
CGA:  51    -0.132318406350E+04    0.24356E-02   -0.13610E-02  8540   0.355E-01-0.524E-02
CGA:  52    -0.132318516768E+04   -0.11042E-02   -0.10499E-02  8540   0.132E-01 0.572E-02
CGA:  53    -0.132318747481E+04   -0.23071E-02   -0.22470E-02  8540   0.817E-02-0.627E-03
CGA:  54    -0.132318772019E+04   -0.24538E-03   -0.19085E-03  8540   0.987E-03-0.851E-03
CGA:  55    -0.132318777981E+04   -0.59621E-04   -0.10377E-03  8540   0.631E-03 0.367E-03
CGA:  56    -0.132318776390E+04    0.15909E-04   -0.27316E-04  8540   0.180E-03 0.221E-03
CGA:  57    -0.132318775868E+04    0.52278E-05   -0.15235E-04  8540   0.574E-04 0.128E-03
   1 F= -.13231878E+04 E0= -.13231790E+04  d E =-.132319E+04  mag=   126.0000
       N       E                     dE             d eps       ncg     rms          ort
SDA:   1    -0.132318516589E+04    0.25980E-02    0.00000E+00  8540   0.466E+00 0.000E+00
CGA:   2    -0.132318906055E+04   -0.38947E-02   -0.18320E-01  8540   0.303E+00-0.340E+00
CGA:   3    -0.132319508427E+04   -0.60237E-02   -0.48064E-02  8540   0.295E-01 0.928E-01
CGA:   4    -0.132319565327E+04   -0.56900E-03   -0.59581E-03  8540   0.436E-02 0.599E-02
CGA:   5    -0.132319591279E+04   -0.25953E-03   -0.31517E-03  8540   0.126E-01 0.527E-03
CGA:   6    -0.132319683462E+04   -0.92183E-03   -0.95449E-03  8540   0.155E-01 0.290E-03
CGA:   7    -0.132319719004E+04   -0.35542E-03   -0.31672E-03  8540   0.202E-02-0.149E-02
CGA:   8    -0.132319731500E+04   -0.12495E-03   -0.86268E-04  8540   0.359E-02-0.370E-03
CGA:   9    -0.132319752561E+04   -0.21061E-03   -0.19077E-03  8540   0.338E-02-0.213E-03
CGA:  10    -0.132319755885E+04   -0.33240E-04   -0.53923E-04  8540   0.542E-03 0.234E-03
CGA:  11    -0.132319755899E+04   -0.14200E-06   -0.11689E-04  8540   0.372E-03 0.968E-04
CGA:  12    -0.132319758109E+04   -0.22101E-04   -0.27394E-04  8540   0.105E-02 0.678E-04
CGA:  13    -0.132319765639E+04   -0.75292E-04   -0.54270E-04  8540   0.266E-03-0.227E-03
CGA:  14    -0.132319767895E+04   -0.22565E-04   -0.61512E-05  8540   0.153E-03-0.163E-03
CGA:  15    -0.132319767788E+04    0.10753E-05   -0.45761E-05  8540   0.800E-04 0.582E-04
CGA:  16    -0.132319769823E+04   -0.20353E-04   -0.22414E-04  8540   0.191E-03-0.256E-04
CGA:  17    -0.132319771317E+04   -0.14941E-04   -0.38482E-05  8540   0.381E-04-0.116E-03
CGA:  18    -0.132319771197E+04    0.11974E-05   -0.13284E-05  8540   0.255E-04 0.291E-04
   2 F= -.13231977E+04 E0= -.13231890E+04  d E =-.995330E-02  mag=   126.0000
       N       E                     dE             d eps       ncg     rms          ort
SDA:   1    -0.132191981560E+04    0.12779E+01    0.00000E+00  8540   0.549E+01 0.000E+00
CGA:   2    -0.132222777812E+04   -0.30796E+00   -0.23364E+00  8540   0.433E+01 0.117E+01
CGA:   3    -0.132299285869E+04   -0.76508E+00   -0.76489E+00  8540   0.195E+01 0.314E-02
CGA:   4    -0.132312453589E+04   -0.13168E+00   -0.14957E+00  8540   0.257E+01-0.122E-01
CGA:   5    -0.132330916924E+04   -0.18463E+00   -0.17613E+00  8540   0.265E+00 0.484E-01
CGA:   6    -0.132336376891E+04   -0.54600E-01   -0.54553E-01  8540   0.823E-01 0.446E-03
CGA:   7    -0.132337045163E+04   -0.66827E-02   -0.66897E-02  8540   0.127E+00-0.351E-02
CGA:   8    -0.132337833649E+04   -0.78849E-02   -0.79446E-02  8540   0.147E-01 0.289E-02
CGA:   9    -0.132338077022E+04   -0.24337E-02   -0.23661E-02  8540   0.317E-01 0.152E-02
CGA:  10    -0.132338242934E+04   -0.16591E-02   -0.15909E-02  8540   0.559E-02-0.226E-02
CGA:  11    -0.132338287289E+04   -0.44355E-03   -0.46152E-03  8540   0.505E-02 0.835E-03
CGA:  12    -0.132338346176E+04   -0.58887E-03   -0.57643E-03  8540   0.616E-02-0.122E-02
CGA:  13    -0.132338361814E+04   -0.15638E-03   -0.18575E-03  8540   0.957E-03 0.458E-03
CGA:  14    -0.132338364873E+04   -0.30591E-04   -0.45859E-04  8540   0.108E-02 0.254E-03
CGA:  15    -0.132338387127E+04   -0.22254E-03   -0.33796E-03  8540   0.648E-03-0.807E-03
CGA:  16    -0.132338394651E+04   -0.75240E-04   -0.84491E-04  8540   0.340E-02-0.460E-03
CGA:  17    -0.132338397921E+04   -0.32695E-04   -0.71945E-04  8540   0.185E-03 0.537E-03
CGA:  18    -0.132338397651E+04    0.27044E-05   -0.54158E-05  8540   0.133E-03 0.100E-03
CGA:  19    -0.132338401003E+04   -0.33525E-04    0.29919E-04  8540   0.218E-03 0.436E-04
CGA:  20    -0.132338401859E+04   -0.85572E-05   -0.14830E-04  8540   0.306E-04 0.123E-03
   3 F= -.13233840E+04 E0= -.13233764E+04  d E =-.186307E+00  mag=   126.0000
       N       E                     dE             d eps       ncg     rms          ort
SDA:   1    -0.130701868481E+04    0.16365E+02    0.00000E+00  8540   0.448E+02 0.000E+00
CGA:   2    -0.131053614023E+04   -0.35175E+01   -0.11418E+02  8540   0.858E+02-0.109E+02
CGA:   3    -0.131756134316E+04   -0.70252E+01   -0.63005E+01  8540   0.381E+02-0.346E+02
CGA:   4    -0.132038945274E+04   -0.28281E+01   -0.28258E+01  8540   0.141E+02 0.110E+00
CGA:   5    -0.132198817758E+04   -0.15987E+01   -0.17470E+01  8540   0.101E+02-0.112E+02
CGA:   6    -0.132279976207E+04   -0.81158E+00   -0.91695E+00  8540   0.262E+01 0.221E+01
CGA:   7    -0.132260439558E+04    0.19537E+00   -0.77646E+00  8540   0.575E+02-0.111E+02
CGA:   8    -0.132346117005E+04   -0.85677E+00   -0.34425E+01  8540   0.140E+01-0.177E+01
CGA:   9    -0.132344350149E+04    0.17669E-01   -0.18906E+00  8540   0.102E+02-0.737E+01
CGA:  10    -0.132364607194E+04   -0.20257E+00   -0.60438E+00  8540   0.389E+00-0.724E+00
CGA:  11    -0.132368785322E+04   -0.41781E-01   -0.32040E-01  8540   0.755E-01-0.502E-01
CGA:  12    -0.132371790666E+04   -0.30053E-01   -0.29795E-01  8540   0.582E-01 0.928E-03
CGA:  13    -0.132372251002E+04   -0.46034E-02   -0.50312E-02  8540   0.203E-01-0.285E-02
CGA:  14    -0.132372510361E+04   -0.25936E-02   -0.25696E-02  8540   0.407E-02 0.303E-02
CGA:  15    -0.132372661196E+04   -0.15083E-02   -0.28494E-02  8540   0.844E-02-0.269E-02
CGA:  16    -0.132372794981E+04   -0.13379E-02   -0.13490E-02  8540   0.377E-02-0.120E-02
CGA:  17    -0.132372825376E+04   -0.30394E-03   -0.33633E-03  8540   0.603E-03 0.781E-03
CGA:  18    -0.132372830479E+04   -0.51028E-04   -0.62458E-04  8540   0.274E-03 0.198E-03
CGA:  19    -0.132372842396E+04   -0.11917E-03    0.19341E-03  8540   0.237E-03 0.131E-03
CGA:  20    -0.132372858472E+04   -0.16075E-03    0.42659E-04  8540   0.207E-03 0.859E-04
CGA:  21    -0.132372869997E+04   -0.11525E-03    0.49316E-04  8540   0.133E-03 0.133E-03
CGA:  22    -0.132372870215E+04   -0.21830E-05   -0.85164E-05  8540   0.579E-04 0.790E-04
CGA:  23    -0.132372871965E+04   -0.17499E-04    0.53264E-04  8540   0.340E-04 0.383E-04
CGA:  24    -0.132372874819E+04   -0.28544E-04    0.11990E-05  8540   0.257E-04 0.275E-04
CGA:  25    -0.132372876483E+04   -0.16635E-04    0.13811E-05  8540   0.210E-04 0.224E-04
CGA:  26    -0.132372878557E+04   -0.20746E-04    0.58357E-06  8540   0.178E-04 0.190E-04
CGA:  27    -0.132372880104E+04   -0.15463E-04    0.59411E-06  8540   0.153E-04 0.163E-04
CGA:  28    -0.132372881763E+04   -0.16594E-04    0.37637E-06  8540   0.133E-04 0.142E-04
CGA:  29    -0.132372883156E+04   -0.13925E-04    0.34481E-06  8540   0.117E-04 0.124E-04
CGA:  30    -0.132372884549E+04   -0.13932E-04    0.25237E-06  8540   0.103E-04 0.109E-04
CGA:  31    -0.132372885782E+04   -0.12330E-04    0.21934E-06  8540   0.903E-05 0.960E-05
CGA:  32    -0.132372886981E+04   -0.11997E-04    0.16952E-06  8540   0.795E-05 0.845E-05
CGA:  33    -0.132372888070E+04   -0.10889E-04    0.14389E-06  8540   0.702E-05 0.745E-05
CGA:  34    -0.132372889118E+04   -0.10480E-04    0.11396E-06  8540   0.620E-05 0.658E-05
CGA:  35    -0.132372890080E+04   -0.96115E-05    0.96181E-07  8540   0.548E-05 0.582E-05
   4 F= -.13237289E+04 E0= -.13237282E+04  d E =-.344882E+00  mag=   126.0000
       N       E                     dE             d eps       ncg     rms          ort
SDA:   1    -0.132109740813E+04    0.26315E+01    0.00000E+00  8540   0.683E+01 0.000E+00
CGA:   2    -0.132312667351E+04   -0.20293E+01   -0.20378E+01  8540   0.304E+01-0.741E-01
CGA:   3    -0.132369050749E+04   -0.56383E+00   -0.56058E+00  8540   0.563E+00 0.527E-01
CGA:   4    -0.132381349892E+04   -0.12299E+00   -0.12264E+00  8540   0.100E+00 0.536E-02
CGA:   5    -0.132383580886E+04   -0.22310E-01   -0.22447E-01  8540   0.233E-01-0.204E-02
CGA:   6    -0.132384171320E+04   -0.59043E-02   -0.59638E-02  8540   0.711E-02-0.574E-03
CGA:   7    -0.132384381752E+04   -0.21043E-02   -0.23678E-02  8540   0.348E-02-0.147E-02
CGA:   8    -0.132384459131E+04   -0.77379E-03   -0.78222E-03  8540   0.120E-02-0.743E-04
CGA:   9    -0.132384469795E+04   -0.10663E-03   -0.74333E-03  8540   0.277E-02-0.140E-02
CGA:  10    -0.132384512186E+04   -0.42391E-03   -0.44199E-03  8540   0.365E-03 0.454E-03
CGA:  11    -0.132384485722E+04    0.26463E-03   -0.33950E-03  8540   0.263E-02-0.100E-02
CGA:  12    -0.132384528599E+04   -0.42877E-03   -0.45199E-03  8540   0.338E-03 0.423E-03
CGA:  13    -0.132384537284E+04   -0.86850E-04   -0.16788E-03  8540   0.437E-03-0.398E-03
CGA:  14    -0.132384540827E+04   -0.35427E-04   -0.53014E-04  8540   0.809E-04 0.155E-03
CGA:  15    -0.132384542468E+04   -0.16404E-04   -0.17696E-04  8540   0.176E-04 0.190E-04
CGA:  16    -0.132384545442E+04   -0.29744E-04    0.12114E-05  8540   0.581E-05-0.693E-05
CGA:  17    -0.132384546470E+04   -0.10282E-04    0.72848E-07  8540   0.327E-05 0.172E-05
CGA:  18    -0.132384547531E+04   -0.10613E-04    0.10531E-06  8540   0.195E-05 0.135E-05
CGA:  19    -0.132384549217E+04   -0.16859E-04    0.24812E-07  8540   0.816E-06 0.987E-06
CGA:  20    -0.132384549724E+04   -0.50707E-05    0.72215E-08  8540   0.393E-06 0.487E-06
   5 F= -.13238455E+04 E0= -.13238455E+04  d E =-.116596E+00  mag=   126.0000
       N       E                     dE             d eps       ncg     rms          ort
SDA:   1    -0.131191157134E+04    0.11934E+02    0.00000E+00  8540   0.299E+02 0.000E+00
CGA:   2    -0.132082530431E+04   -0.89137E+01   -0.89195E+01  8540   0.128E+02-0.721E-01
CGA:   3    -0.132329792718E+04   -0.24726E+01   -0.24738E+01  8540   0.253E+01 0.175E-01
CGA:   4    -0.132383281799E+04   -0.53489E+00   -0.53504E+00  8540   0.446E+00 0.815E-02
CGA:   5    -0.132393288111E+04   -0.10006E+00   -0.10006E+00  8540   0.104E+00-0.780E-03
CGA:   6    -0.132396037651E+04   -0.27495E-01   -0.27560E-01  8540   0.324E-01-0.175E-02
CGA:   7    -0.132396974671E+04   -0.93702E-02   -0.94006E-02  8540   0.109E-01-0.462E-03
CGA:   8    -0.132397334600E+04   -0.35993E-02   -0.36244E-02  8540   0.414E-02-0.237E-03
CGA:   9    -0.132397477186E+04   -0.14259E-02   -0.14930E-02  8540   0.152E-02-0.512E-03
CGA:  10    -0.132397522678E+04   -0.45492E-03   -0.48620E-03  8540   0.562E-03-0.257E-03
CGA:  11    -0.132397313066E+04    0.20961E-02   -0.11310E-02  8540   0.129E-01-0.211E-02
CGA:  12    -0.132397519551E+04   -0.20649E-02   -0.22171E-02  8540   0.157E-02 0.593E-03
CGA:  13    -0.132397572726E+04   -0.53175E-03   -0.50400E-03  8540   0.409E-03-0.207E-03
CGA:  14    -0.132397578369E+04   -0.56432E-04   -0.78721E-04  8540   0.103E-03 0.105E-03
CGA:  15    -0.132397581259E+04   -0.28897E-04   -0.33363E-04  8540   0.382E-04 0.269E-04
CGA:  16    -0.132397572344E+04    0.89147E-04   -0.69588E-04  8540   0.698E-03-0.155E-03
CGA:  17    -0.132397577187E+04   -0.48429E-04   -0.10191E-03  8540   0.111E-03 0.168E-03
CGA:  18    -0.132397579297E+04   -0.21101E-04   -0.29312E-04  8540   0.399E-04 0.346E-04
CGA:  19    -0.132397572498E+04    0.67989E-04   -0.57146E-04  8540   0.744E-03-0.192E-03
CGA:  20    -0.132397576941E+04   -0.44423E-04   -0.10192E-03  8540   0.108E-03 0.173E-03
CGA:  21    -0.132397578399E+04   -0.14582E-04   -0.25358E-04  8540   0.406E-04 0.407E-04
CGA:  22    -0.132397579832E+04   -0.14333E-04   -0.34950E-04  8540   0.192E-03-0.113E-03
CGA:  23    -0.132397580009E+04   -0.17696E-05   -0.24017E-04  8540   0.404E-04 0.686E-04
   6 F= -.13239758E+04 E0= -.13239758E+04  d E =-.130303E+00  mag=   126.0000
       N       E                     dE             d eps       ncg     rms          ort
SDA:   1    -0.132180001497E+04    0.21758E+01    0.00000E+00  8540   0.581E+01 0.000E+00
CGA:   2    -0.132332638849E+04   -0.15264E+01   -0.15271E+01  8540   0.268E+01 0.138E-02
CGA:   3    -0.132387495278E+04   -0.54856E+00   -0.54816E+00  8540   0.518E+00 0.107E-02
CGA:   4    -0.132398237685E+04   -0.10742E+00   -0.10746E+00  8540   0.953E-01 0.670E-04
CGA:   5    -0.132400343822E+04   -0.21061E-01   -0.21094E-01  8540   0.212E-01 0.146E-03
CGA:   6    -0.132400870096E+04   -0.52627E-02   -0.52623E-02  8540   0.577E-02-0.936E-05
CGA:   7    -0.132401030103E+04   -0.16001E-02   -0.16074E-02  8540   0.173E-02 0.735E-04
CGA:   8    -0.132401090798E+04   -0.60694E-03   -0.60347E-03  8540   0.703E-03-0.130E-03
CGA:   9    -0.132401113712E+04   -0.22914E-03   -0.22794E-03  8540   0.250E-03-0.599E-04
CGA:  10    -0.132401122241E+04   -0.85294E-04   -0.85454E-04  8540   0.103E-03-0.450E-04
CGA:  11    -0.132401124990E+04   -0.27489E-04   -0.26901E-04  8540   0.436E-04-0.113E-04
CGA:  12    -0.132401128328E+04   -0.33384E-04    0.41542E-04  8540   0.242E-04-0.916E-05
CGA:  13    -0.132401129134E+04   -0.80558E-05   -0.10373E-04  8540   0.266E-04-0.133E-04
CGA:  14    -0.132401123216E+04    0.59182E-04   -0.30278E-04  8540   0.688E-03-0.117E-03
CGA:  15    -0.132401129921E+04   -0.67048E-04   -0.90008E-04  8540   0.341E-04 0.822E-04
CGA:  16    -0.132401130309E+04   -0.38817E-05   -0.63174E-05  8540   0.723E-05 0.104E-04
CGA:  17    -0.132401110414E+04    0.19895E-03   -0.10864E-03  8540   0.988E-03-0.106E-03
CGA:  18    -0.132401126579E+04   -0.16165E-03   -0.18984E-03  8540   0.162E-03 0.559E-04
CGA:  19    -0.132401131133E+04   -0.45536E-04   -0.43130E-04  8540   0.108E-04-0.554E-05
CGA:  20    -0.132401131432E+04   -0.29893E-05   -0.31550E-05  8540   0.120E-05 0.462E-06
   7 F= -.13240113E+04 E0= -.13240113E+04  d E =-.355142E-01  mag=   126.0000
       N       E                     dE             d eps       ncg     rms          ort
SDA:   1    -0.132329934408E+04    0.71197E+00    0.00000E+00  8540   0.188E+01 0.000E+00
CGA:   2    -0.132381914909E+04   -0.51981E+00   -0.52005E+00  8540   0.838E+00 0.137E-03
CGA:   3    -0.132398512385E+04   -0.16597E+00   -0.16600E+00  8540   0.162E+00 0.472E-03
CGA:   4    -0.132401909539E+04   -0.33972E-01   -0.34023E-01  8540   0.290E-01 0.115E-03
CGA:   5    -0.132402541790E+04   -0.63225E-02   -0.63266E-02  8540   0.633E-02 0.151E-05
CGA:   6    -0.132402697136E+04   -0.15535E-02   -0.15822E-02  8540   0.170E-02 0.969E-04
CGA:   7    -0.132402740832E+04   -0.43695E-03   -0.46275E-03  8540   0.493E-03 0.988E-04
CGA:   8    -0.132402757894E+04   -0.17062E-03   -0.17244E-03  8540   0.186E-03 0.970E-05
CGA:   9    -0.132402763215E+04   -0.53208E-04   -0.57481E-04  8540   0.545E-04 0.210E-04
CGA:  10    -0.132402764970E+04   -0.17555E-04   -0.18836E-04  8540   0.166E-04 0.689E-05
CGA:  11    -0.132402765101E+04   -0.13137E-05   -0.37584E-05  8540   0.606E-05 0.855E-05
   8 F= -.13240277E+04 E0= -.13240277E+04  d E =-.163367E-01  mag=   126.0000
       N       E                     dE             d eps       ncg     rms          ort
SDA:   1    -0.132292002197E+04    0.11076E+01    0.00000E+00  8540   0.284E+01 0.000E+00
CGA:   2    -0.132371621434E+04   -0.79619E+00   -0.79638E+00  8540   0.131E+01 0.199E-03
CGA:   3    -0.132397548617E+04   -0.25927E+00   -0.25935E+00  8540   0.241E+00 0.278E-03
CGA:   4    -0.132402551698E+04   -0.50031E-01   -0.50036E-01  8540   0.420E-01 0.297E-04
CGA:   5    -0.132403491578E+04   -0.93988E-02   -0.93694E-02  8540   0.955E-02-0.158E-03
CGA:   6    -0.132403730851E+04   -0.23927E-02   -0.23901E-02  8540   0.249E-02-0.176E-04
CGA:   7    -0.132403798273E+04   -0.67422E-03   -0.68485E-03  8540   0.746E-03 0.782E-04
CGA:   8    -0.132403824779E+04   -0.26507E-03   -0.26397E-03  8540   0.289E-03-0.183E-04
CGA:   9    -0.132403834991E+04   -0.10211E-03   -0.10133E-03  8540   0.101E-03-0.191E-04
CGA:  10    -0.132403838932E+04   -0.39410E-04   -0.40098E-04  8540   0.469E-04-0.283E-04
CGA:  11    -0.132403839780E+04   -0.84842E-05   -0.90307E-05  8540   0.149E-04 0.406E-05
CGA:  12    -0.132403840388E+04   -0.60729E-05   -0.10708E-04  8540   0.357E-04-0.175E-04
   9 F= -.13240384E+04 E0= -.13240384E+04  d E =-.107529E-01  mag=   126.0000
       N       E                     dE             d eps       ncg     rms          ort
SDA:   1    -0.132298079471E+04    0.10576E+01    0.00000E+00  8540   0.267E+01 0.000E+00
CGA:   2    -0.132374066022E+04   -0.75987E+00   -0.76005E+00  8540   0.125E+01 0.550E-03
CGA:   3    -0.132398718602E+04   -0.24653E+00   -0.24648E+00  8540   0.221E+00-0.259E-03
CGA:   4    -0.132403303820E+04   -0.45852E-01   -0.45837E-01  8540   0.382E-01-0.837E-04
CGA:   5    -0.132404169166E+04   -0.86535E-02   -0.86238E-02  8540   0.874E-02-0.216E-03
CGA:   6    -0.132404389353E+04   -0.22019E-02   -0.21932E-02  8540   0.224E-02-0.791E-04
CGA:   7    -0.132404450142E+04   -0.60789E-03   -0.61305E-03  8540   0.668E-03 0.622E-04
CGA:   8    -0.132404473662E+04   -0.23520E-03   -0.23497E-03  8540   0.255E-03-0.189E-04
CGA:   9    -0.132404483551E+04   -0.98884E-04   -0.10202E-03  8540   0.118E-03-0.548E-04
CGA:  10    -0.132404487252E+04   -0.37011E-04   -0.46131E-04  8540   0.868E-04-0.642E-04
CGA:  11    -0.132404488454E+04   -0.12022E-04   -0.15772E-04  8540   0.144E-04 0.206E-04
CGA:  12    -0.132404489165E+04   -0.71102E-05   -0.72922E-05  8540   0.103E-04-0.328E-05
  10 F= -.13240449E+04 E0= -.13240449E+04  d E =-.648777E-02  mag=   126.0000
       N       E                     dE             d eps       ncg     rms          ort
SDA:   1    -0.132297586092E+04    0.10690E+01    0.00000E+00  8540   0.277E+01 0.000E+00
CGA:   2    -0.132371068929E+04   -0.73483E+00   -0.73505E+00  8540   0.133E+01 0.137E-02
CGA:   3    -0.132398370063E+04   -0.27301E+00   -0.27297E+00  8540   0.244E+00-0.668E-03
CGA:   4    -0.132403414295E+04   -0.50442E-01   -0.50413E-01  8540   0.431E-01-0.266E-03
CGA:   5    -0.132404381867E+04   -0.96757E-02   -0.96504E-02  8540   0.986E-02-0.254E-03
CGA:   6    -0.132404630664E+04   -0.24880E-02   -0.24766E-02  8540   0.255E-02-0.160E-03
CGA:   7    -0.132404699479E+04   -0.68815E-03   -0.68993E-03  8540   0.731E-03 0.382E-04
CGA:   8    -0.132404723772E+04   -0.24293E-03   -0.24306E-03  8540   0.259E-03-0.146E-04
CGA:   9    -0.132404734012E+04   -0.10240E-03   -0.11248E-03  8540   0.149E-03-0.810E-04
CGA:  10    -0.132404736814E+04   -0.28021E-04   -0.62112E-04  8540   0.186E-03-0.122E-03
CGA:  11    -0.132404739991E+04   -0.31769E-04   -0.36196E-04  8540   0.278E-04 0.306E-04
CGA:  12    -0.132404741077E+04   -0.10858E-04   -0.10846E-04  8540   0.111E-04 0.398E-05
CGA:  13    -0.132404741154E+04   -0.76895E-06   -0.20074E-05  8540   0.495E-05 0.712E-05
  11 F= -.13240474E+04 E0= -.13240474E+04  d E =-.251989E-02  mag=   126.0000
       N       E                     dE             d eps       ncg     rms          ort
SDA:   1    -0.132373388314E+04    0.31353E+00    0.00000E+00  8540   0.840E+00 0.000E+00
CGA:   2    -0.132395148981E+04   -0.21761E+00   -0.21765E+00  8540   0.388E+00 0.270E-03
CGA:   3    -0.132403231130E+04   -0.80821E-01   -0.80789E-01  8540   0.756E-01-0.391E-03
CGA:   4    -0.132404819074E+04   -0.15879E-01   -0.15877E-01  8540   0.134E-01-0.269E-04
CGA:   5    -0.132405114496E+04   -0.29542E-02   -0.29484E-02  8540   0.297E-02-0.632E-04
CGA:   6    -0.132405193624E+04   -0.79129E-03   -0.78519E-03  8540   0.852E-03-0.124E-03
CGA:   7    -0.132405216593E+04   -0.22968E-03   -0.22900E-03  8540   0.248E-03-0.216E-04
CGA:   8    -0.132405224215E+04   -0.76228E-04   -0.76237E-04  8540   0.799E-04-0.185E-05
CGA:   9    -0.132405227396E+04   -0.31801E-04   -0.35911E-04  8540   0.495E-04-0.290E-04
CGA:  10    -0.132405226631E+04    0.76433E-05   -0.26497E-04  8540   0.141E-03-0.654E-04
CGA:  11    -0.132405229834E+04   -0.32026E-04   -0.32085E-04  8540   0.205E-04 0.488E-06
CGA:  12    -0.132405230542E+04   -0.70815E-05   -0.70641E-05  8540   0.503E-05 0.365E-05
  12 F= -.13240523E+04 E0= -.13240523E+04  d E =-.489388E-02  mag=   126.0000
       N       E                     dE             d eps       ncg     rms          ort
SDA:   1    -0.132400246444E+04    0.49834E-01    0.00000E+00  8540   0.129E+00 0.000E+00
CGA:   2    -0.132403962355E+04   -0.37159E-01   -0.37148E-01  8540   0.590E-01-0.269E-03
CGA:   3    -0.132405108259E+04   -0.11459E-01   -0.11450E-01  8540   0.107E-01-0.854E-04
CGA:   4    -0.132405333569E+04   -0.22531E-02   -0.22593E-02  8540   0.185E-02 0.533E-04
CGA:   5    -0.132405373298E+04   -0.39729E-03   -0.40066E-03  8540   0.403E-03 0.323E-04
CGA:   6    -0.132405384324E+04   -0.11025E-03   -0.10956E-03  8540   0.117E-03-0.151E-04
CGA:   7    -0.132405388128E+04   -0.38048E-04   -0.39019E-04  8540   0.560E-04-0.266E-04
CGA:   8    -0.132405389641E+04   -0.15128E-04   -0.15853E-04  8540   0.250E-04-0.135E-04
CGA:   9    -0.132405390163E+04   -0.52194E-05   -0.52315E-05  8540   0.651E-05 0.299E-06
  13 F= -.13240539E+04 E0= -.13240539E+04  d E =-.159621E-02  mag=   126.0000
       N       E                     dE             d eps       ncg     rms          ort
SDA:   1    -0.132395745731E+04    0.96439E-01    0.00000E+00  8540   0.253E+00 0.000E+00
CGA:   2    -0.132402366760E+04   -0.66210E-01   -0.66227E-01  8540   0.124E+00 0.257E-03
CGA:   3    -0.132404950330E+04   -0.25836E-01   -0.25806E-01  8540   0.226E-01-0.329E-03
CGA:   4    -0.132405414316E+04   -0.46399E-02   -0.46349E-02  8540   0.393E-02-0.569E-04
CGA:   5    -0.132405503248E+04   -0.88933E-03   -0.88771E-03  8540   0.905E-03-0.244E-04
CGA:   6    -0.132405526436E+04   -0.23188E-03   -0.23066E-03  8540   0.239E-03-0.340E-04
CGA:   7    -0.132405532929E+04   -0.64927E-04   -0.64873E-04  8540   0.708E-04-0.581E-05
CGA:   8    -0.132405535510E+04   -0.25811E-04   -0.29173E-04  8540   0.462E-04-0.255E-04
CGA:   9    -0.132405536503E+04   -0.99283E-05   -0.13293E-04  8540   0.308E-04-0.220E-04
CGA:  10    -0.132405537567E+04   -0.10640E-04    0.29100E-04  8540   0.116E-04-0.397E-05
CGA:  11    -0.132405537884E+04   -0.31740E-05   -0.31792E-05  8540   0.584E-05-0.577E-06
  14 F= -.13240554E+04 E0= -.13240554E+04  d E =-.147721E-02  mag=   126.0000
       N       E                     dE             d eps       ncg     rms          ort
SDA:   1    -0.132349013154E+04    0.56524E+00    0.00000E+00  8540   0.141E+01 0.000E+00
CGA:   2    -0.132389433708E+04   -0.40421E+00   -0.40423E+00  8540   0.679E+00-0.912E-04
CGA:   3    -0.132402531264E+04   -0.13098E+00   -0.13093E+00  8540   0.113E+00-0.360E-03
CGA:   4    -0.132404915041E+04   -0.23838E-01   -0.23858E-01  8540   0.204E-01 0.137E-03
CGA:   5    -0.132405369662E+04   -0.45462E-02   -0.45485E-02  8540   0.451E-02 0.145E-04
CGA:   6    -0.132405481864E+04   -0.11220E-02   -0.11216E-02  8540   0.117E-02-0.614E-05
CGA:   7    -0.132405515037E+04   -0.33173E-03   -0.33189E-03  8540   0.361E-03 0.356E-05
CGA:   8    -0.132405527233E+04   -0.12197E-03   -0.12212E-03  8540   0.135E-03-0.130E-04
CGA:   9    -0.132405531770E+04   -0.45366E-04   -0.45569E-04  8540   0.425E-04-0.853E-05
CGA:  10    -0.132405533370E+04   -0.16003E-04   -0.18128E-04  8540   0.227E-04-0.166E-04
CGA:  11    -0.132405533564E+04   -0.19350E-05   -0.25919E-05  8540   0.904E-05 0.450E-05
  15 F= -.13240553E+04 E0= -.13240553E+04  d E =0.432079E-04  mag=   126.0000
       N       E                     dE             d eps       ncg     rms          ort
SDA:   1    -0.132358820613E+04    0.46713E+00    0.00000E+00  8540   0.121E+01 0.000E+00
CGA:   2    -0.132390142285E+04   -0.31322E+00   -0.31330E+00  8540   0.594E+00 0.861E-03
CGA:   3    -0.132402625920E+04   -0.12484E+00   -0.12474E+00  8540   0.109E+00-0.995E-03
CGA:   4    -0.132404848444E+04   -0.22225E-01   -0.22203E-01  8540   0.189E-01-0.225E-03
CGA:   5    -0.132405271279E+04   -0.42283E-02   -0.42385E-02  8540   0.427E-02 0.115E-03
CGA:   6    -0.132405379888E+04   -0.10861E-02   -0.10833E-02  8540   0.110E-02-0.548E-04
CGA:   7    -0.132405411324E+04   -0.31436E-03   -0.31387E-03  8540   0.340E-03-0.427E-04
CGA:   8    -0.132405422741E+04   -0.11416E-03   -0.11738E-03  8540   0.146E-03-0.543E-04
CGA:   9    -0.132405427182E+04   -0.44414E-04   -0.47253E-04  8540   0.618E-04-0.350E-04
CGA:  10    -0.132405428805E+04   -0.16226E-04   -0.24741E-04  8540   0.559E-04-0.389E-04
CGA:  11    -0.132405429915E+04   -0.11101E-04   -0.11524E-04  8540   0.837E-05 0.377E-05
CGA:  12    -0.132405430521E+04   -0.60617E-05    0.16362E-04  8540   0.330E-05 0.425E-06
  16 F= -.13240543E+04 E0= -.13240543E+04  d E =0.103043E-02  mag=   126.0000
       N       E                     dE             d eps       ncg     rms          ort
SDA:   1    -0.132386320569E+04    0.19109E+00    0.00000E+00  8540   0.520E+00 0.000E+00
CGA:   2    -0.132398971270E+04   -0.12651E+00   -0.12653E+00  8540   0.245E+00 0.679E-04
CGA:   3    -0.132404286178E+04   -0.53149E-01   -0.53180E-01  8540   0.483E-01 0.271E-03
CGA:   4    -0.132405279508E+04   -0.99333E-02   -0.99584E-02  8540   0.855E-02 0.260E-03
CGA:   5    -0.132405470324E+04   -0.19082E-02   -0.19099E-02  8540   0.192E-02 0.211E-04
CGA:   6    -0.132405518779E+04   -0.48455E-03   -0.48425E-03  8540   0.502E-03-0.807E-05
CGA:   7    -0.132405532162E+04   -0.13383E-03   -0.13431E-03  8540   0.137E-03 0.233E-04
CGA:   8    -0.132405536206E+04   -0.40442E-04   -0.40513E-04  8540   0.407E-04 0.163E-04
CGA:   9    -0.132405537245E+04   -0.10386E-04   -0.11053E-04  8540   0.125E-04 0.149E-04
CGA:  10    -0.132405537468E+04   -0.22278E-05   -0.31153E-05  8540   0.526E-05 0.864E-05
  17 F= -.13240554E+04 E0= -.13240554E+04  d E =-.106947E-02  mag=   126.0000
       N       E                     dE             d eps       ncg     rms          ort
SDA:   1    -0.132355717481E+04    0.49820E+00    0.00000E+00  8540   0.129E+01 0.000E+00
CGA:   2    -0.132389125579E+04   -0.33408E+00   -0.33410E+00  8540   0.629E+00 0.557E-03
CGA:   3    -0.132402095432E+04   -0.12970E+00   -0.12974E+00  8540   0.118E+00 0.457E-03
CGA:   4    -0.132404499905E+04   -0.24045E-01   -0.24074E-01  8540   0.207E-01 0.412E-03
CGA:   5    -0.132404962579E+04   -0.46267E-02   -0.46276E-02  8540   0.465E-02 0.140E-04
CGA:   6    -0.132405079021E+04   -0.11644E-02   -0.11641E-02  8540   0.121E-02-0.199E-04
CGA:   7    -0.132405112359E+04   -0.33338E-03   -0.33307E-03  8540   0.345E-03 0.269E-04
CGA:   8    -0.132405123614E+04   -0.11255E-03   -0.11235E-03  8540   0.118E-03 0.377E-05
CGA:   9    -0.132405127112E+04   -0.34977E-04   -0.34569E-04  8540   0.320E-04 0.180E-04
CGA:  10    -0.132405128371E+04   -0.12595E-04   -0.12441E-04  8540   0.106E-04 0.224E-05
CGA:  11    -0.132405128531E+04   -0.15990E-05   -0.20880E-05  8540   0.395E-05 0.551E-05
  18 F= -.13240513E+04 E0= -.13240513E+04  d E =0.408936E-02  mag=   126.0000
       N       E                     dE             d eps       ncg     rms          ort
SDA:   1    -0.129807340716E+04    0.25978E+02    0.00000E+00  8540   0.774E+02 0.000E+00
CGA:   2    -0.131376245713E+04   -0.15689E+02   -0.15741E+02  8540   0.309E+02 0.203E+00
CGA:   3    -0.132151102492E+04   -0.77486E+01   -0.77493E+01  8540   0.781E+01 0.178E-01
CGA:   4    -0.132311237098E+04   -0.16013E+01   -0.16006E+01  8540   0.135E+01-0.169E-01
CGA:   5    -0.132341040807E+04   -0.29804E+00   -0.29806E+00  8540   0.314E+00-0.305E-03
CGA:   6    -0.132348775563E+04   -0.77348E-01   -0.77357E-01  8540   0.783E-01 0.349E-03
CGA:   7    -0.132350959413E+04   -0.21839E-01   -0.21834E-01  8540   0.223E-01 0.364E-03
CGA:   8    -0.132351662856E+04   -0.70344E-02   -0.70688E-02  8540   0.758E-02-0.713E-03
CGA:   9    -0.132351927208E+04   -0.26435E-02   -0.27268E-02  8540   0.305E-02-0.815E-03
CGA:  10    -0.132352015068E+04   -0.87859E-03   -0.87464E-03  8540   0.850E-03 0.827E-04
CGA:  11    -0.132352048778E+04   -0.33710E-03   -0.37591E-03  8540   0.388E-03-0.253E-03
CGA:  12    -0.132352059100E+04   -0.10322E-03   -0.11779E-03  8540   0.204E-03-0.989E-04
CGA:  13    -0.132352069484E+04   -0.10384E-03    0.12834E-03  8540   0.749E-04 0.115E-04
CGA:  14    -0.132352024674E+04    0.44810E-03   -0.24146E-03  8540   0.205E-02-0.387E-03
CGA:  15    -0.132352073724E+04   -0.49050E-03   -0.49878E-03  8540   0.343E-03 0.282E-04
CGA:  16    -0.132352080718E+04   -0.69941E-04   -0.77207E-04  8540   0.669E-04 0.249E-04
CGA:  17    -0.132352084349E+04   -0.36309E-04   -0.36506E-04  8540   0.434E-04-0.318E-04
CGA:  18    -0.132352083783E+04    0.56640E-05   -0.17153E-05  8540   0.325E-04 0.173E-04
  19 F= -.13235208E+04 E0= -.13235208E+04  d E =0.530447E+00  mag=   126.0000
       N       E                     dE             d eps       ncg     rms          ort
SDA:   1    -0.131175387779E+04    0.11767E+02    0.00000E+00  8540   0.364E+02 0.000E+00
CGA:   2    -0.131935408369E+04   -0.76002E+01   -0.76268E+01  8540   0.150E+02 0.317E-02
CGA:   3    -0.132304246955E+04   -0.36884E+01   -0.36902E+01  8540   0.363E+01 0.168E-01
CGA:   4    -0.132378384661E+04   -0.74138E+00   -0.74258E+00  8540   0.639E+00 0.310E-02
CGA:   5    -0.132392705505E+04   -0.14321E+00   -0.14313E+00  8540   0.148E+00-0.663E-03
CGA:   6    -0.132396393756E+04   -0.36883E-01   -0.36688E-01  8540   0.383E-01-0.119E-02
CGA:   7    -0.132397431331E+04   -0.10376E-01   -0.10449E-01  8540   0.106E-01 0.545E-03
CGA:   8    -0.132397746659E+04   -0.31533E-02   -0.31786E-02  8540   0.322E-02 0.237E-03
CGA:   9    -0.132397847993E+04   -0.10133E-02   -0.10340E-02  8540   0.103E-02 0.250E-03
CGA:  10    -0.132397887835E+04   -0.39842E-03   -0.39847E-03  8540   0.401E-03 0.796E-06
CGA:  11    -0.132397894863E+04   -0.70279E-04   -0.89499E-04  8540   0.117E-03 0.115E-03
CGA:  12    -0.132397897743E+04   -0.28798E-04   -0.34946E-04  8540   0.380E-04 0.407E-04
CGA:  13    -0.132397898102E+04   -0.35936E-05   -0.89565E-05  8540   0.183E-04 0.269E-04
  20 F= -.13239790E+04 E0= -.13239790E+04  d E =-.458143E+00  mag=   126.0000
       N       E                     dE             d eps       ncg     rms          ort
SDA:   1    -0.132367005151E+04    0.30893E+00    0.00000E+00  8540   0.978E+00 0.000E+00
CGA:   2    -0.132388666874E+04   -0.21662E+00   -0.21676E+00  8540   0.427E+00 0.505E-03
CGA:   3    -0.132398586069E+04   -0.99192E-01   -0.99297E-01  8540   0.938E-01 0.706E-03
CGA:   4    -0.132400531555E+04   -0.19455E-01   -0.19490E-01  8540   0.170E-01 0.253E-03
CGA:   5    -0.132400912357E+04   -0.38080E-02   -0.38093E-02  8540   0.387E-02 0.566E-05
CGA:   6    -0.132401009161E+04   -0.96804E-03   -0.96644E-03  8540   0.993E-03-0.216E-04
CGA:   7    -0.132401036040E+04   -0.26879E-03   -0.27018E-03  8540   0.269E-03 0.276E-04
CGA:   8    -0.132401044068E+04   -0.80277E-04   -0.80699E-04  8540   0.809E-04 0.145E-04
CGA:   9    -0.132401047065E+04   -0.29975E-04   -0.29973E-04  8540   0.287E-04 0.278E-07
CGA:  10    -0.132401047783E+04   -0.71794E-05   -0.75904E-05  8540   0.791E-05 0.723E-05
  21 F= -.13240105E+04 E0= -.13240105E+04  d E =-.314968E-01  mag=   126.0000
       N       E                     dE             d eps       ncg     rms          ort
SDA:   1    -0.132253812494E+04    0.14723E+01    0.00000E+00  8540   0.430E+01 0.000E+00
CGA:   2    -0.132349497422E+04   -0.95685E+00   -0.95745E+00  8540   0.189E+01 0.297E-02
CGA:   3    -0.132393458398E+04   -0.43961E+00   -0.43967E+00  8540   0.415E+00 0.301E-04
CGA:   4    -0.132402060879E+04   -0.86025E-01   -0.85972E-01  8540   0.747E-01-0.573E-03
CGA:   5    -0.132403718122E+04   -0.16572E-01   -0.16596E-01  8540   0.168E-01 0.268E-03
CGA:   6    -0.132404133546E+04   -0.41542E-02   -0.41635E-02  8540   0.419E-02 0.175E-03
CGA:   7    -0.132404251659E+04   -0.11811E-02   -0.11822E-02  8540   0.118E-02 0.630E-04
CGA:   8    -0.132404289958E+04   -0.38299E-03   -0.38420E-03  8540   0.406E-03-0.478E-04
CGA:   9    -0.132404304158E+04   -0.14199E-03   -0.14638E-03  8540   0.159E-03-0.552E-04
CGA:  10    -0.132404307901E+04   -0.37436E-04   -0.37884E-04  8540   0.397E-04 0.181E-04
CGA:  11    -0.132404309508E+04   -0.16065E-04   -0.16763E-04  8540   0.165E-04-0.878E-05
CGA:  12    -0.132404309653E+04   -0.14499E-05   -0.97191E-05  8540   0.367E-04-0.182E-04
CGA:  13    -0.132404310841E+04   -0.11879E-04   -0.11850E-04  8540   0.110E-04-0.110E-04
CGA:  14    -0.132404310974E+04   -0.13326E-05   -0.16096E-05  8540   0.271E-05 0.236E-05
CGA:  15    -0.132404306712E+04    0.42615E-04   -0.23147E-04  8540   0.212E-03-0.283E-04
CGA:  16    -0.132404311284E+04   -0.45713E-04   -0.48652E-04  8540   0.531E-05 0.826E-05
CGA:  17    -0.132404311991E+04   -0.70765E-05    0.11643E-04  8540   0.102E-04-0.465E-05
  22 F= -.13240431E+04 E0= -.13240431E+04  d E =-.326421E-01  mag=   126.0000
       N       E                     dE             d eps       ncg     rms          ort
SDA:   1    -0.132390423738E+04    0.13888E+00    0.00000E+00  8540   0.420E+00 0.000E+00
CGA:   2    -0.132399219697E+04   -0.87960E-01   -0.88124E-01  8540   0.177E+00 0.238E-03
CGA:   3    -0.132403561818E+04   -0.43421E-01   -0.43421E-01  8540   0.433E-01-0.819E-04
CGA:   4    -0.132404455165E+04   -0.89335E-02   -0.88809E-02  8540   0.741E-02-0.180E-03
CGA:   5    -0.132404615874E+04   -0.16071E-02   -0.16214E-02  8540   0.167E-02 0.487E-04
CGA:   6    -0.132404654669E+04   -0.38795E-03   -0.40289E-03  8540   0.381E-03 0.614E-04
CGA:   7    -0.132404665455E+04   -0.10785E-03   -0.10918E-03  8540   0.108E-03 0.677E-05
CGA:   8    -0.132404669013E+04   -0.35588E-04   -0.35059E-04  8540   0.362E-04-0.377E-05
CGA:   9    -0.132404670330E+04   -0.13168E-04   -0.12838E-04  8540   0.140E-04-0.388E-05
CGA:  10    -0.132404670440E+04   -0.10956E-05   -0.24313E-05  8540   0.470E-05 0.525E-05
  23 F= -.13240467E+04 E0= -.13240467E+04  d E =-.358448E-02  mag=   126.0000
       N       E                     dE             d eps       ncg     rms          ort
SDA:   1    -0.132367458423E+04    0.37212E+00    0.00000E+00  8540   0.110E+01 0.000E+00
CGA:   2    -0.132390290719E+04   -0.22832E+00   -0.22871E+00  8540   0.459E+00 0.968E-03
CGA:   3    -0.132401706930E+04   -0.11416E+00   -0.11421E+00  8540   0.115E+00 0.954E-04
CGA:   4    -0.132404066893E+04   -0.23600E-01   -0.23565E-01  8540   0.191E-01-0.198E-03
CGA:   5    -0.132404485041E+04   -0.41815E-02   -0.41907E-02  8540   0.433E-02 0.438E-04
CGA:   6    -0.132404592183E+04   -0.10714E-02   -0.10769E-02  8540   0.101E-02 0.387E-04
CGA:   7    -0.132404620146E+04   -0.27963E-03   -0.27974E-03  8540   0.281E-03 0.872E-06
CGA:   8    -0.132404629054E+04   -0.89084E-04   -0.88526E-04  8540   0.901E-04-0.975E-05
CGA:   9    -0.132404631964E+04   -0.29094E-04   -0.29044E-04  8540   0.299E-04-0.146E-05
CGA:  10    -0.132404632779E+04   -0.81513E-05   -0.85640E-05  8540   0.808E-05 0.538E-05
  24 F= -.13240463E+04 E0= -.13240463E+04  d E =0.376610E-03  mag=   126.0000
       N       E                     dE             d eps       ncg     rms          ort
SDA:   1    -0.132394414198E+04    0.10218E+00    0.00000E+00  8540   0.267E+00 0.000E+00
CGA:   2    -0.132401534461E+04   -0.71203E-01   -0.71225E-01  8540   0.125E+00 0.143E-03
CGA:   3    -0.132404068943E+04   -0.25345E-01   -0.25307E-01  8540   0.229E-01-0.280E-03
CGA:   4    -0.132404555034E+04   -0.48609E-02   -0.48674E-02  8540   0.416E-02 0.445E-04
CGA:   5    -0.132404646041E+04   -0.91007E-03   -0.90924E-03  8540   0.907E-03-0.811E-05
CGA:   6    -0.132404669918E+04   -0.23877E-03   -0.23711E-03  8540   0.254E-03-0.226E-04
CGA:   7    -0.132404676641E+04   -0.67229E-04   -0.67605E-04  8540   0.706E-04 0.632E-05
CGA:   8    -0.132404679006E+04   -0.23649E-04   -0.23646E-04  8540   0.247E-04-0.125E-05
CGA:   9    -0.132404679793E+04   -0.78677E-05   -0.78697E-05  8540   0.703E-05 0.505E-06
CGA:  10    -0.132404674377E+04    0.54153E-04   -0.29162E-04  8540   0.240E-03-0.390E-04
CGA:  11    -0.132404678682E+04   -0.43048E-04   -0.51773E-04  8540   0.285E-04 0.227E-04
CGA:  12    -0.132404680456E+04   -0.17735E-04   -0.16706E-04  8540   0.431E-04-0.231E-04
CGA:  13    -0.132404680116E+04    0.33989E-05   -0.46543E-05  8540   0.914E-05 0.172E-04
  25 F= -.13240468E+04 E0= -.13240468E+04  d E =-.473370E-03  mag=   126.0000
       N       E                     dE             d eps       ncg     rms          ort
SDA:   1    -0.132380213396E+04    0.24467E+00    0.00000E+00  8540   0.620E+00 0.000E+00
CGA:   2    -0.132397459446E+04   -0.17246E+00   -0.17243E+00  8540   0.293E+00-0.325E-03
CGA:   3    -0.132403224407E+04   -0.57650E-01   -0.57560E-01  8540   0.506E-01-0.296E-03
CGA:   4    -0.132404302228E+04   -0.10778E-01   -0.10777E-01  8540   0.926E-02-0.101E-04
CGA:   5    -0.132404506838E+04   -0.20461E-02   -0.20377E-02  8540   0.201E-02-0.346E-04
CGA:   6    -0.132404558390E+04   -0.51552E-03   -0.51143E-03  8540   0.540E-03-0.190E-04
CGA:   7    -0.132404573230E+04   -0.14840E-03   -0.14979E-03  8540   0.157E-03 0.746E-05
CGA:   8    -0.132404578549E+04   -0.53194E-04   -0.52807E-04  8540   0.566E-04-0.314E-05
CGA:   9    -0.132404580595E+04   -0.20455E-04   -0.19994E-04  8540   0.185E-04-0.522E-05
CGA:  10    -0.132404581369E+04   -0.77424E-05   -0.98717E-05  8540   0.217E-04-0.148E-04
  26 F= -.13240458E+04 E0= -.13240458E+04  d E =0.987466E-03  mag=   126.0000
       N       E                     dE             d eps       ncg     rms          ort
SDA:   1    -0.132391500693E+04    0.13080E+00    0.00000E+00  8540   0.382E+00 0.000E+00
CGA:   2    -0.132399588504E+04   -0.80878E-01   -0.80994E-01  8540   0.163E+00 0.294E-03
CGA:   3    -0.132403561283E+04   -0.39728E-01   -0.39714E-01  8540   0.403E-01-0.154E-03
CGA:   4    -0.132404381794E+04   -0.82051E-02   -0.82034E-02  8540   0.677E-02-0.179E-04
CGA:   5    -0.132404532179E+04   -0.15039E-02   -0.14977E-02  8540   0.156E-02-0.360E-04
CGA:   6    -0.132404574173E+04   -0.41994E-03   -0.40684E-03  8540   0.419E-03-0.979E-04
CGA:   7    -0.132404585078E+04   -0.10905E-03   -0.10769E-03  8540   0.113E-03-0.117E-04
CGA:   8    -0.132404588139E+04   -0.30603E-04   -0.31019E-04  8540   0.308E-04 0.404E-05
CGA:   9    -0.132404589274E+04   -0.11351E-04   -0.11325E-04  8540   0.113E-04-0.111E-05
CGA:  10    -0.132404590178E+04   -0.90446E-05    0.21865E-04  8540   0.406E-05-0.706E-06
  27 F= -.13240459E+04 E0= -.13240459E+04  d E =-.880897E-04  mag=   126.0000
       N       E                     dE             d eps       ncg     rms          ort
SDA:   1    -0.132399132227E+04    0.54570E-01    0.00000E+00  8540   0.160E+00 0.000E+00
CGA:   2    -0.132402695930E+04   -0.35637E-01   -0.35676E-01  8540   0.697E-01 0.172E-03
CGA:   3    -0.132404296458E+04   -0.16005E-01   -0.16008E-01  8540   0.161E-01-0.133E-04
CGA:   4    -0.132404634888E+04   -0.33843E-02   -0.33757E-02  8540   0.291E-02-0.592E-04
CGA:   5    -0.132404698023E+04   -0.63135E-03   -0.62954E-03  8540   0.639E-03-0.141E-04
CGA:   6    -0.132404714080E+04   -0.16058E-03   -0.16037E-03  8540   0.166E-03-0.232E-05
CGA:   7    -0.132404718911E+04   -0.48313E-04   -0.48023E-04  8540   0.482E-04-0.548E-05
CGA:   8    -0.132404720723E+04   -0.18120E-04   -0.19585E-04  8540   0.323E-04-0.187E-04
CGA:   9    -0.132404721411E+04   -0.68705E-05   -0.68969E-05  8540   0.128E-04-0.737E-05
  28 F= -.13240472E+04 E0= -.13240472E+04  d E =-.131232E-02  mag=   126.0000
       N       E                     dE             d eps       ncg     rms          ort
SDA:   1    -0.132403612159E+04    0.11086E-01    0.00000E+00  8540   0.331E-01 0.000E+00
CGA:   2    -0.132404300294E+04   -0.68813E-02   -0.68905E-02  8540   0.134E-01 0.502E-04
CGA:   3    -0.132404626219E+04   -0.32592E-02   -0.32582E-02  8540   0.336E-02-0.190E-04
CGA:   4    -0.132404699104E+04   -0.72885E-03   -0.71950E-03  8540   0.633E-03-0.798E-04
CGA:   5    -0.132404711919E+04   -0.12815E-03   -0.12960E-03  8540   0.130E-03 0.121E-04
CGA:   6    -0.132404714234E+04   -0.23145E-04   -0.26458E-04  8540   0.285E-04 0.272E-04
CGA:   7    -0.132404714939E+04   -0.70495E-05   -0.77463E-05  8540   0.873E-05 0.772E-05
  29 F= -.13240471E+04 E0= -.13240471E+04  d E =0.647176E-04  mag=   126.0000
       N       E                     dE             d eps       ncg     rms          ort
SDA:   1    -0.132401703036E+04    0.30112E-01    0.00000E+00  8540   0.800E-01 0.000E+00
CGA:   2    -0.132403565138E+04   -0.18621E-01   -0.18632E-01  8540   0.373E-01 0.809E-04
CGA:   3    -0.132404395365E+04   -0.83023E-02   -0.82952E-02  8540   0.788E-02-0.806E-04
CGA:   4    -0.132404557958E+04   -0.16259E-02   -0.16163E-02  8540   0.142E-02-0.882E-04
CGA:   5    -0.132404588233E+04   -0.30275E-03   -0.30525E-03  8540   0.308E-03 0.260E-04
CGA:   6    -0.132404595043E+04   -0.68092E-04   -0.70642E-04  8540   0.691E-04 0.312E-04
CGA:   7    -0.132404597184E+04   -0.21412E-04   -0.21474E-04  8540   0.211E-04 0.306E-05
CGA:   8    -0.132404598025E+04   -0.84067E-05   -0.11195E-04  8540   0.239E-04-0.135E-04
  30 F= -.13240460E+04 E0= -.13240460E+04  d E =0.116914E-02  mag=   126.0000
       N       E                     dE             d eps       ncg     rms          ort
SDA:   1    -0.132397405978E+04    0.71912E-01    0.00000E+00  8540   0.178E+00 0.000E+00
CGA:   2    -0.132402166173E+04   -0.47602E-01   -0.47597E-01  8540   0.867E-01-0.206E-03
CGA:   3    -0.132403934558E+04   -0.17684E-01   -0.17686E-01  8540   0.152E-01-0.563E-05
CGA:   4    -0.132404253391E+04   -0.31883E-02   -0.31854E-02  8540   0.279E-02-0.356E-04
CGA:   5    -0.132404313809E+04   -0.60418E-03   -0.60783E-03  8540   0.600E-03 0.469E-04
CGA:   6    -0.132404327549E+04   -0.13740E-03   -0.14067E-03  8540   0.141E-03 0.541E-04
CGA:   7    -0.132404331834E+04   -0.42851E-04   -0.42940E-04  8540   0.432E-04 0.987E-05
CGA:   8    -0.132404333367E+04   -0.15331E-04   -0.15321E-04  8540   0.167E-04 0.224E-06
CGA:   9    -0.132404333894E+04   -0.52676E-05   -0.52389E-05  8540   0.486E-05 0.129E-05
  31 F= -.13240433E+04 E0= -.13240433E+04  d E =0.264130E-02  mag=   126.0000
       N       E                     dE             d eps       ncg     rms          ort
SDA:   1    -0.132385398969E+04    0.18934E+00    0.00000E+00  8540   0.461E+00 0.000E+00
CGA:   2    -0.132398580703E+04   -0.13182E+00   -0.13182E+00  8540   0.224E+00-0.912E-04
CGA:   3    -0.132402942607E+04   -0.43619E-01   -0.43604E-01  8540   0.371E-01-0.217E-03
CGA:   4    -0.132403719551E+04   -0.77694E-02   -0.77786E-02  8540   0.687E-02 0.125E-03
CGA:   5    -0.132403870228E+04   -0.15068E-02   -0.15131E-02  8540   0.146E-02 0.111E-03
CGA:   6    -0.132403907450E+04   -0.37222E-03   -0.37238E-03  8540   0.387E-03 0.703E-05
CGA:   7    -0.132403917971E+04   -0.10521E-03   -0.10523E-03  8540   0.108E-03 0.208E-04
CGA:   8    -0.132403921201E+04   -0.32302E-04   -0.32133E-04  8540   0.336E-04 0.183E-04
CGA:   9    -0.132403922301E+04   -0.10999E-04   -0.10935E-04  8540   0.104E-04 0.984E-05
CGA:  10    -0.132403922494E+04   -0.19297E-05   -0.25079E-05  8540   0.400E-05 0.673E-05
  32 F= -.13240392E+04 E0= -.13240392E+04  d E =0.411400E-02  mag=   126.0000
       N       E                     dE             d eps       ncg     rms          ort
SDA:   1    -0.132398143413E+04    0.57789E-01    0.00000E+00  8540   0.160E+00 0.000E+00
CGA:   2    -0.132401851835E+04   -0.37084E-01   -0.37093E-01  8540   0.723E-01 0.226E-03
CGA:   3    -0.132403489263E+04   -0.16374E-01   -0.16368E-01  8540   0.153E-01-0.222E-03
CGA:   4    -0.132403802419E+04   -0.31316E-02   -0.31331E-02  8540   0.270E-02 0.271E-04
CGA:   5    -0.132403862559E+04   -0.60141E-03   -0.60128E-03  8540   0.617E-03-0.478E-05
CGA:   6    -0.132403879807E+04   -0.17248E-03   -0.17494E-03  8540   0.200E-03-0.833E-04
CGA:   7    -0.132403884412E+04   -0.46052E-04   -0.46145E-04  8540   0.537E-04-0.849E-05
CGA:   8    -0.132403885750E+04   -0.13385E-04   -0.13367E-04  8540   0.133E-04 0.528E-05
CGA:   9    -0.132403886138E+04   -0.38773E-05   -0.38550E-05  8540   0.389E-05 0.289E-05
  33 F= -.13240389E+04 E0= -.13240389E+04  d E =0.363557E-03  mag=   126.0000
       N       E                     dE             d eps       ncg     rms          ort
SDA:   1    -0.132402230887E+04    0.16549E-01    0.00000E+00  8540   0.500E-01 0.000E+00
CGA:   2    -0.132403328302E+04   -0.10974E-01   -0.10977E-01  8540   0.220E-01 0.245E-04
CGA:   3    -0.132403844314E+04   -0.51601E-02   -0.51572E-02  8540   0.504E-02-0.871E-04
CGA:   4    -0.132403949817E+04   -0.10550E-02   -0.10506E-02  8540   0.919E-03-0.726E-04
CGA:   5    -0.132403970197E+04   -0.20379E-03   -0.20281E-03  8540   0.210E-03-0.229E-04
CGA:   6    -0.132403975266E+04   -0.50695E-04   -0.50627E-04  8540   0.527E-04-0.380E-05
CGA:   7    -0.132403976801E+04   -0.15349E-04   -0.15495E-04  8540   0.163E-04-0.419E-05
CGA:   8    -0.132403976806E+04   -0.49760E-07   -0.11060E-04  8540   0.569E-04-0.234E-04
  34 F= -.13240398E+04 E0= -.13240398E+04  d E =-.906681E-03  mag=   126.0000
       N       E                     dE             d eps       ncg     rms          ort
SDA:   1    -0.132399871407E+04    0.41054E-01    0.00000E+00  8540   0.101E+00 0.000E+00
CGA:   2    -0.132402560854E+04   -0.26894E-01   -0.26896E-01  8540   0.508E-01 0.807E-04
CGA:   3    -0.132403596577E+04   -0.10357E-01   -0.10343E-01  8540   0.854E-02-0.191E-03
CGA:   4    -0.132403772322E+04   -0.17574E-02   -0.17522E-02  8540   0.156E-02-0.727E-04
CGA:   5    -0.132403806408E+04   -0.34086E-03   -0.34275E-03  8540   0.344E-03 0.345E-04
CGA:   6    -0.132403814690E+04   -0.82820E-04   -0.83371E-04  8540   0.790E-04 0.153E-04
CGA:   7    -0.132403817263E+04   -0.25732E-04   -0.26035E-04  8540   0.290E-04-0.683E-05
CGA:   8    -0.132403818229E+04   -0.96603E-05   -0.11297E-04  8540   0.189E-04-0.106E-04
  35 F= -.13240382E+04 E0= -.13240382E+04  d E =0.158577E-02  mag=   126.0000
       N       E                     dE             d eps       ncg     rms          ort
SDA:   1    -0.132388416926E+04    0.15400E+00    0.00000E+00  8540   0.392E+00 0.000E+00
CGA:   2    -0.132398684266E+04   -0.10267E+00   -0.10267E+00  8540   0.199E+00-0.159E-03
CGA:   3    -0.132402779349E+04   -0.40951E-01   -0.40952E-01  8540   0.346E-01-0.358E-04
CGA:   4    -0.132403486789E+04   -0.70744E-02   -0.70766E-02  8540   0.612E-02 0.230E-04
CGA:   5    -0.132403623976E+04   -0.13719E-02   -0.13749E-02  8540   0.137E-02 0.608E-04
CGA:   6    -0.132403657451E+04   -0.33475E-03   -0.33572E-03  8540   0.326E-03 0.348E-04
CGA:   7    -0.132403667127E+04   -0.96763E-04   -0.96789E-04  8540   0.983E-04-0.128E-05
CGA:   8    -0.132403670254E+04   -0.31269E-04   -0.31266E-04  8540   0.334E-04 0.325E-07
CGA:   9    -0.132403671376E+04   -0.11223E-04   -0.11208E-04  8540   0.100E-04 0.234E-06
CGA:  10    -0.132403671559E+04   -0.18305E-05   -0.20971E-05  8540   0.299E-05 0.394E-05
  36 F= -.13240367E+04 E0= -.13240367E+04  d E =0.146670E-02  mag=   126.0000
       N       E                     dE             d eps       ncg     rms          ort
SDA:   1    -0.132401565744E+04    0.21056E-01    0.00000E+00  8540   0.587E-01 0.000E+00
CGA:   2    -0.132402908343E+04   -0.13426E-01   -0.13424E-01  8540   0.273E-01-0.643E-04
CGA:   3    -0.132403530038E+04   -0.62170E-02   -0.62212E-02  8540   0.564E-02 0.101E-03
CGA:   4    -0.132403641258E+04   -0.11122E-02   -0.11209E-02  8540   0.941E-03 0.128E-03
CGA:   5    -0.132403663366E+04   -0.22108E-03   -0.22112E-03  8540   0.227E-03 0.918E-06
CGA:   6    -0.132403669256E+04   -0.58899E-04   -0.58892E-04  8540   0.594E-04-0.112E-04
CGA:   7    -0.132403670355E+04   -0.10995E-04   -0.11686E-04  8540   0.139E-04 0.129E-04
CGA:   8    -0.132403670450E+04   -0.95147E-06   -0.21829E-05  8540   0.600E-05 0.958E-05
  37 F= -.13240367E+04 E0= -.13240367E+04  d E =0.110919E-04  mag=   126.0000
       N       E                     dE             d eps       ncg     rms          ort
SDA:   1    -0.132402178547E+04    0.14918E-01    0.00000E+00  8540   0.377E-01 0.000E+00
CGA:   2    -0.132403118849E+04   -0.94030E-02   -0.94027E-02  8540   0.182E-01 0.459E-04
CGA:   3    -0.132403509216E+04   -0.39037E-02   -0.39032E-02  8540   0.338E-02-0.217E-04
CGA:   4    -0.132403578231E+04   -0.69015E-03   -0.69128E-03  8540   0.614E-03 0.288E-04
CGA:   5    -0.132403592238E+04   -0.14006E-03   -0.14002E-03  8540   0.141E-03-0.344E-05
CGA:   6    -0.132403595970E+04   -0.37327E-04   -0.37651E-04  8540   0.406E-04-0.115E-04
CGA:   7    -0.132403596890E+04   -0.91995E-05   -0.91859E-05  8540   0.981E-05 0.283E-05
  38 F= -.13240360E+04 E0= -.13240360E+04  d E =0.735601E-03  mag=   126.0000
       N       E                     dE             d eps       ncg     rms          ort
SDA:   1    -0.132397415491E+04    0.61805E-01    0.00000E+00  8540   0.159E+00 0.000E+00
CGA:   2    -0.132401431630E+04   -0.40161E-01   -0.40161E-01  8540   0.782E-01-0.733E-04
CGA:   3    -0.132403082771E+04   -0.16511E-01   -0.16513E-01  8540   0.141E-01 0.457E-04
CGA:   4    -0.132403369669E+04   -0.28690E-02   -0.28717E-02  8540   0.255E-02 0.759E-04
CGA:   5    -0.132403428297E+04   -0.58628E-03   -0.58610E-03  8540   0.596E-03-0.249E-04
CGA:   6    -0.132403442929E+04   -0.14632E-03   -0.14638E-03  8540   0.146E-03-0.557E-05
CGA:   7    -0.132403446549E+04   -0.36202E-04   -0.36004E-04  8540   0.360E-04 0.161E-04
CGA:   8    -0.132403447406E+04   -0.85702E-05   -0.87967E-05  8540   0.110E-04 0.133E-04
  39 F= -.13240345E+04 E0= -.13240345E+04  d E =0.149484E-02  mag=   126.0000
       N       E                     dE             d eps       ncg     rms          ort
SDA:   1    -0.132361660350E+04    0.41786E+00    0.00000E+00  8540   0.100E+01 0.000E+00
CGA:   2    -0.132391570480E+04   -0.29910E+00   -0.29913E+00  8540   0.500E+00-0.797E-03
CGA:   3    -0.132401003185E+04   -0.94327E-01   -0.94347E-01  8540   0.757E-01 0.255E-03
CGA:   4    -0.132402580382E+04   -0.15772E-01   -0.15777E-01  8540   0.141E-01 0.173E-03
CGA:   5    -0.132402901515E+04   -0.32113E-02   -0.32110E-02  8540   0.317E-02-0.717E-04
CGA:   6    -0.132402978882E+04   -0.77367E-03   -0.77351E-03  8540   0.753E-03 0.121E-04
CGA:   7    -0.132402999828E+04   -0.20946E-03   -0.20834E-03  8540   0.218E-03 0.265E-04
CGA:   8    -0.132403006815E+04   -0.69871E-04   -0.68377E-04  8540   0.702E-04 0.223E-04
CGA:   9    -0.132403009418E+04   -0.26026E-04   -0.25367E-04  8540   0.210E-04 0.744E-05
CGA:  10    -0.132403010328E+04   -0.91073E-05   -0.10640E-04  8540   0.118E-04-0.715E-05
  40 F= -.13240301E+04 E0= -.13240301E+04  d E =0.437077E-02  mag=   126.0000
       N       E                     dE             d eps       ncg     rms          ort
SDA:   1    -0.132386872815E+04    0.16137E+00    0.00000E+00  8540   0.426E+00 0.000E+00
CGA:   2    -0.132397561627E+04   -0.10689E+00   -0.10689E+00  8540   0.210E+00-0.260E-03
CGA:   3    -0.132402043326E+04   -0.44817E-01   -0.44832E-01  8540   0.386E-01 0.347E-03
CGA:   4    -0.132402818076E+04   -0.77475E-02   -0.77572E-02  8540   0.675E-02 0.201E-03
CGA:   5    -0.132402972670E+04   -0.15459E-02   -0.15455E-02  8540   0.160E-02-0.293E-04
CGA:   6    -0.132403011884E+04   -0.39214E-03   -0.39214E-03  8540   0.380E-03 0.103E-05
CGA:   7    -0.132403021922E+04   -0.10038E-03   -0.99955E-04  8540   0.100E-03 0.224E-04
CGA:   8    -0.132403024948E+04   -0.30257E-04   -0.29725E-04  8540   0.293E-04 0.150E-04
CGA:   9    -0.132403026060E+04   -0.11117E-04   -0.10793E-04  8540   0.999E-05 0.439E-05
CGA:  10    -0.132403026455E+04   -0.39561E-05   -0.75180E-05  8540   0.153E-04-0.882E-05
  41 F= -.13240303E+04 E0= -.13240303E+04  d E =-.161268E-03  mag=   126.0000
       N       E                     dE             d eps       ncg     rms          ort
SDA:   1    -0.132390588065E+04    0.12438E+00    0.00000E+00  8540   0.358E+00 0.000E+00
CGA:   2    -0.132398500456E+04   -0.79124E-01   -0.79132E-01  8540   0.161E+00-0.445E-05
CGA:   3    -0.132402245233E+04   -0.37448E-01   -0.37452E-01  8540   0.363E-01 0.933E-04
CGA:   4    -0.132402982999E+04   -0.73777E-02   -0.73863E-02  8540   0.629E-02 0.140E-03
CGA:   5    -0.132403123127E+04   -0.14013E-02   -0.14027E-02  8540   0.141E-02 0.344E-04
CGA:   6    -0.132403158505E+04   -0.35378E-03   -0.35372E-03  8540   0.351E-03-0.692E-05
CGA:   7    -0.132403167442E+04   -0.89372E-04   -0.89402E-04  8540   0.859E-04 0.297E-04
CGA:   8    -0.132403170001E+04   -0.25589E-04   -0.25390E-04  8540   0.248E-04 0.129E-04
CGA:   9    -0.132403170752E+04   -0.75107E-05   -0.74722E-05  8540   0.803E-05 0.814E-05
  42 F= -.13240317E+04 E0= -.13240317E+04  d E =-.144297E-02  mag=   126.0000
       N       E                     dE             d eps       ncg     rms          ort
SDA:   1    -0.132386431067E+04    0.16739E+00    0.00000E+00  8540   0.440E+00 0.000E+00
CGA:   2    -0.132397504389E+04   -0.11073E+00   -0.11073E+00  8540   0.222E+00-0.181E-03
CGA:   3    -0.132402226377E+04   -0.47220E-01   -0.47227E-01  8540   0.398E-01 0.103E-03
CGA:   4    -0.132403025458E+04   -0.79908E-02   -0.79934E-02  8540   0.700E-02 0.430E-04
CGA:   5    -0.132403186477E+04   -0.16102E-02   -0.16093E-02  8540   0.166E-02-0.475E-04
CGA:   6    -0.132403226945E+04   -0.40468E-03   -0.40466E-03  8540   0.392E-03-0.674E-05
CGA:   7    -0.132403237375E+04   -0.10430E-03   -0.10394E-03  8540   0.104E-03 0.198E-04
CGA:   8    -0.132403240711E+04   -0.33363E-04   -0.32976E-04  8540   0.327E-04 0.723E-05
CGA:   9    -0.132403241862E+04   -0.11513E-04   -0.11264E-04  8540   0.102E-04 0.349E-05
CGA:  10    -0.132403242224E+04   -0.36145E-05   -0.35229E-05  8540   0.296E-05 0.164E-05
  43 F= -.13240324E+04 E0= -.13240324E+04  d E =-.714714E-03  mag=   126.0000
       N       E                     dE             d eps       ncg     rms          ort
SDA:   1    -0.131486235271E+04    0.91701E+01    0.00000E+00  8540   0.272E+02 0.000E+00
CGA:   2    -0.132042872295E+04   -0.55664E+01   -0.55745E+01  8540   0.110E+02 0.564E-01
CGA:   3    -0.132316848363E+04   -0.27398E+01   -0.27399E+01  8540   0.278E+01 0.692E-02
CGA:   4    -0.132374030314E+04   -0.57182E+00   -0.57158E+00  8540   0.484E+00-0.542E-02
CGA:   5    -0.132384711392E+04   -0.10681E+00   -0.10681E+00  8540   0.111E+00-0.379E-03
CGA:   6    -0.132387445699E+04   -0.27343E-01   -0.27341E-01  8540   0.268E-01-0.291E-03
CGA:   7    -0.132388186513E+04   -0.74081E-02   -0.74035E-02  8540   0.730E-02 0.213E-03
CGA:   8    -0.132388412940E+04   -0.22643E-02   -0.22684E-02  8540   0.232E-02-0.820E-04
CGA:   9    -0.132388494452E+04   -0.81513E-03   -0.82996E-03  8540   0.855E-03-0.147E-03
CGA:  10    -0.132388520147E+04   -0.25695E-03   -0.25319E-03  8540   0.235E-03 0.725E-04
CGA:  11    -0.132388530192E+04   -0.10044E-03   -0.12562E-03  8540   0.154E-03-0.112E-03
CGA:  12    -0.132388532179E+04   -0.19869E-04   -0.20081E-04  8540   0.709E-04 0.713E-05
CGA:  13    -0.132388534520E+04   -0.23416E-04   -0.33828E-04  8540   0.778E-04-0.583E-04
CGA:  14    -0.132388536064E+04   -0.15439E-04   -0.47111E-04  8540   0.160E-03-0.990E-04
CGA:  15    -0.132388537626E+04   -0.15617E-04   -0.24175E-04  8540   0.209E-04 0.566E-04
CGA:  16    -0.132388538033E+04   -0.40725E-05   -0.46569E-05  8540   0.191E-05 0.451E-05
  44 F= -.13238854E+04 E0= -.13238854E+04  d E =0.147042E+00  mag=   126.0000
       N       E                     dE             d eps       ncg     rms          ort
SDA:   1    -0.131917509521E+04    0.47103E+01    0.00000E+00  8540   0.148E+02 0.000E+00
CGA:   2    -0.132218291080E+04   -0.30078E+01   -0.30118E+01  8540   0.582E+01 0.170E-01
CGA:   3    -0.132363089893E+04   -0.14480E+01   -0.14483E+01  8540   0.149E+01 0.405E-02
CGA:   4    -0.132394134909E+04   -0.31045E+00   -0.31051E+00  8540   0.269E+00 0.204E-03
CGA:   5    -0.132400129334E+04   -0.59944E-01   -0.59941E-01  8540   0.612E-01-0.177E-03
CGA:   6    -0.132401624572E+04   -0.14952E-01   -0.14944E-01  8540   0.151E-01-0.302E-03
CGA:   7    -0.132402039897E+04   -0.41532E-02   -0.41525E-02  8540   0.408E-02 0.362E-03
CGA:   8    -0.132402162985E+04   -0.12309E-02   -0.12284E-02  8540   0.124E-02 0.119E-03
CGA:   9    -0.132402205497E+04   -0.42511E-03   -0.42089E-03  8540   0.410E-03 0.765E-04
CGA:  10    -0.132402220605E+04   -0.15109E-03   -0.14875E-03  8540   0.133E-03 0.361E-04
CGA:  11    -0.132402223853E+04   -0.32482E-04   -0.34544E-04  8540   0.376E-04 0.480E-04
CGA:  12    -0.132402224977E+04   -0.11231E-04   -0.11960E-04  8540   0.127E-04 0.163E-04
CGA:  13    -0.132402225031E+04   -0.54018E-06   -0.23797E-05  8540   0.736E-05 0.126E-04
  45 F= -.13240223E+04 E0= -.13240223E+04  d E =-.136870E+00  mag=   126.0000
       N       E                     dE             d eps       ncg     rms          ort
SDA:   1    -0.132395049777E+04    0.71752E-01    0.00000E+00  8540   0.243E+00 0.000E+00
CGA:   2    -0.132400046561E+04   -0.49968E-01   -0.49987E-01  8540   0.979E-01 0.219E-03
CGA:   3    -0.132402464525E+04   -0.24180E-01   -0.24177E-01  8540   0.250E-01-0.261E-03
CGA:   4    -0.132402987505E+04   -0.52298E-02   -0.52183E-02  8540   0.454E-02-0.245E-03
CGA:   5    -0.132403084935E+04   -0.97431E-03   -0.97528E-03  8540   0.988E-03 0.236E-04
CGA:   6    -0.132403108672E+04   -0.23736E-03   -0.23786E-03  8540   0.234E-03 0.356E-04
CGA:   7    -0.132403115886E+04   -0.72138E-04   -0.72652E-04  8540   0.736E-04-0.109E-04
CGA:   8    -0.132403118104E+04   -0.22183E-04   -0.36470E-04  8540   0.941E-04-0.540E-04
CGA:   9    -0.132403119885E+04   -0.17811E-04   -0.17969E-04  8540   0.103E-04 0.202E-05
CGA:  10    -0.132403120216E+04   -0.33054E-05   -0.32835E-05  8540   0.237E-05 0.450E-06
  46 F= -.13240312E+04 E0= -.13240312E+04  d E =-.895185E-02  mag=   126.0000
       N       E                     dE             d eps       ncg     rms          ort
SDA:   1    -0.132368864128E+04    0.34256E+00    0.00000E+00  8540   0.104E+01 0.000E+00
CGA:   2    -0.132390416171E+04   -0.21552E+00   -0.21562E+00  8540   0.427E+00 0.919E-03
CGA:   3    -0.132401014330E+04   -0.10598E+00   -0.10598E+00  8540   0.108E+00-0.362E-03
CGA:   4    -0.132403246885E+04   -0.22326E-01   -0.22295E-01  8540   0.188E-01-0.562E-03
CGA:   5    -0.132403655645E+04   -0.40876E-02   -0.40910E-02  8540   0.418E-02 0.725E-04
CGA:   6    -0.132403757737E+04   -0.10209E-02   -0.10225E-02  8540   0.979E-03 0.106E-03
CGA:   7    -0.132403786384E+04   -0.28647E-03   -0.28669E-03  8540   0.283E-03-0.823E-05
CGA:   8    -0.132403796277E+04   -0.98926E-04   -0.10995E-03  8540   0.157E-03-0.834E-04
CGA:   9    -0.132403800001E+04   -0.37243E-04   -0.46972E-04  8540   0.903E-04-0.611E-04
CGA:  10    -0.132403801561E+04   -0.15599E-04   -0.15623E-04  8540   0.297E-04-0.242E-05
CGA:  11    -0.132403802520E+04   -0.95933E-05   -0.10038E-04  8540   0.153E-04-0.613E-05
  47 F= -.13240380E+04 E0= -.13240380E+04  d E =-.682305E-02  mag=   126.0000
       N       E                     dE             d eps       ncg     rms          ort
SDA:   1    -0.132400007983E+04    0.37936E-01    0.00000E+00  8540   0.114E+00 0.000E+00
CGA:   2    -0.132402513594E+04   -0.25056E-01   -0.25067E-01  8540   0.506E-01 0.974E-04
CGA:   3    -0.132403703065E+04   -0.11895E-01   -0.11888E-01  8540   0.115E-01-0.128E-03
CGA:   4    -0.132403938056E+04   -0.23499E-02   -0.23446E-02  8540   0.200E-02-0.660E-04
CGA:   5    -0.132403981627E+04   -0.43571E-03   -0.43741E-03  8540   0.445E-03 0.261E-04
CGA:   6    -0.132403991946E+04   -0.10319E-03   -0.10455E-03  8540   0.100E-03 0.280E-04
CGA:   7    -0.132403995032E+04   -0.30853E-04   -0.30865E-04  8540   0.306E-04-0.953E-06
CGA:   8    -0.132403996138E+04   -0.11063E-04   -0.12855E-04  8540   0.211E-04-0.123E-04
CGA:   9    -0.132403996519E+04   -0.38051E-05   -0.38752E-05  8540   0.797E-05-0.328E-05
  48 F= -.13240400E+04 E0= -.13240400E+04  d E =-.193998E-02  mag=   126.0000
       N       E                     dE             d eps       ncg     rms          ort
SDA:   1    -0.132388029755E+04    0.15966E+00    0.00000E+00  8540   0.483E+00 0.000E+00
CGA:   2    -0.132397868076E+04   -0.98383E-01   -0.98436E-01  8540   0.201E+00 0.403E-03
CGA:   3    -0.132402881750E+04   -0.50137E-01   -0.50145E-01  8540   0.518E-01 0.216E-03
CGA:   4    -0.132403920963E+04   -0.10392E-01   -0.10397E-01  8540   0.839E-02 0.594E-04
CGA:   5    -0.132404108551E+04   -0.18759E-02   -0.18762E-02  8540   0.196E-02 0.131E-05
CGA:   6    -0.132404156658E+04   -0.48107E-03   -0.48118E-03  8540   0.449E-03 0.350E-05
CGA:   7    -0.132404168534E+04   -0.11876E-03   -0.11886E-03  8540   0.116E-03 0.160E-04
CGA:   8    -0.132404171713E+04   -0.31796E-04   -0.31856E-04  8540   0.308E-04 0.152E-04
CGA:   9    -0.132404172523E+04   -0.80935E-05   -0.84165E-05  8540   0.979E-05 0.114E-04
  49 F= -.13240417E+04 E0= -.13240417E+04  d E =-.176004E-02  mag=   126.0000
       N       E                     dE             d eps       ncg     rms          ort
SDA:   1    -0.132393903597E+04    0.10268E+00    0.00000E+00  8540   0.300E+00 0.000E+00
CGA:   2    -0.132400328450E+04   -0.64249E-01   -0.64263E-01  8540   0.132E+00 0.136E-03
CGA:   3    -0.132403449550E+04   -0.31211E-01   -0.31214E-01  8540   0.310E-01 0.762E-04
CGA:   4    -0.132404071576E+04   -0.62203E-02   -0.62231E-02  8540   0.523E-02 0.452E-04
CGA:   5    -0.132404188763E+04   -0.11719E-02   -0.11715E-02  8540   0.122E-02-0.120E-04
CGA:   6    -0.132404218992E+04   -0.30229E-03   -0.30218E-03  8540   0.292E-03-0.140E-04
CGA:   7    -0.132404226774E+04   -0.77820E-04   -0.77773E-04  8540   0.777E-04 0.354E-05
CGA:   8    -0.132404228917E+04   -0.21430E-04   -0.21319E-04  8540   0.206E-04 0.821E-05
CGA:   9    -0.132404229539E+04   -0.62174E-05   -0.61543E-05  8540   0.625E-05 0.546E-05
  50 F= -.13240423E+04 E0= -.13240423E+04  d E =-.570162E-03  mag=   126.0000
       N       E                     dE             d eps       ncg     rms          ort
SDA:   1    -0.132385153160E+04    0.19076E+00    0.00000E+00  8540   0.538E+00 0.000E+00
CGA:   2    -0.132397317851E+04   -0.12165E+00   -0.12165E+00  8540   0.247E+00-0.542E-04
CGA:   3    -0.132402945169E+04   -0.56273E-01   -0.56290E-01  8540   0.541E-01 0.448E-03
CGA:   4    -0.132404040137E+04   -0.10950E-01   -0.10963E-01  8540   0.904E-02 0.225E-03
CGA:   5    -0.132404243394E+04   -0.20326E-02   -0.20330E-02  8540   0.211E-02 0.101E-04
CGA:   6    -0.132404296301E+04   -0.52907E-03   -0.52902E-03  8540   0.509E-03-0.973E-05
CGA:   7    -0.132404309974E+04   -0.13673E-03   -0.13652E-03  8540   0.135E-03 0.154E-04
CGA:   8    -0.132404313741E+04   -0.37669E-04   -0.37425E-04  8540   0.364E-04 0.188E-04
CGA:   9    -0.132404314989E+04   -0.12475E-04   -0.12198E-04  8540   0.116E-04 0.743E-05
CGA:  10    -0.132404315571E+04   -0.58237E-05   -0.61423E-05  8540   0.644E-05-0.178E-05
  51 F= -.13240432E+04 E0= -.13240432E+04  d E =-.860321E-03  mag=   126.0000
       N       E                     dE             d eps       ncg     rms          ort
SDA:   1    -0.132374647133E+04    0.29668E+00    0.00000E+00  8540   0.810E+00 0.000E+00
CGA:   2    -0.132394115154E+04   -0.19468E+00   -0.19468E+00  8540   0.378E+00-0.333E-03
CGA:   3    -0.132402403138E+04   -0.82880E-01   -0.82939E-01  8540   0.758E-01 0.954E-03
CGA:   4    -0.132403959095E+04   -0.15560E-01   -0.15587E-01  8540   0.130E-01 0.401E-03
CGA:   5    -0.132404253898E+04   -0.29480E-02   -0.29450E-02  8540   0.306E-02-0.752E-04
CGA:   6    -0.132404331727E+04   -0.77829E-03   -0.77768E-03  8540   0.765E-03-0.570E-04
CGA:   7    -0.132404351380E+04   -0.19653E-03   -0.19669E-03  8540   0.198E-03 0.406E-04
CGA:   8    -0.132404356666E+04   -0.52864E-04   -0.53299E-04  8540   0.536E-04 0.414E-04
CGA:   9    -0.132404358280E+04   -0.16134E-04   -0.16377E-04  8540   0.180E-04 0.196E-04
CGA:  10    -0.132404358958E+04   -0.67889E-05   -0.67229E-05  8540   0.694E-05 0.711E-05
  52 F= -.13240436E+04 E0= -.13240436E+04  d E =-.433875E-03  mag=   126.0000
       N       E                     dE             d eps       ncg     rms          ort
SDA:   1    -0.132388550931E+04    0.15807E+00    0.00000E+00  8540   0.472E+00 0.000E+00
CGA:   2    -0.132398488978E+04   -0.99380E-01   -0.99427E-01  8540   0.200E+00 0.576E-03
CGA:   3    -0.132403319331E+04   -0.48304E-01   -0.48303E-01  8540   0.486E-01-0.874E-04
CGA:   4    -0.132404311605E+04   -0.99227E-02   -0.99143E-02  8540   0.846E-02-0.149E-03
CGA:   5    -0.132404498973E+04   -0.18737E-02   -0.18731E-02  8540   0.191E-02-0.205E-04
CGA:   6    -0.132404546279E+04   -0.47306E-03   -0.47296E-03  8540   0.462E-03-0.105E-04
CGA:   7    -0.132404558354E+04   -0.12075E-03   -0.12063E-03  8540   0.117E-03 0.224E-04
CGA:   8    -0.132404561870E+04   -0.35160E-04   -0.34901E-04  8540   0.338E-04 0.931E-05
CGA:   9    -0.132404563129E+04   -0.12588E-04   -0.12468E-04  8540   0.119E-04 0.144E-05
CGA:  10    -0.132404563411E+04   -0.28250E-05   -0.29397E-05  8540   0.368E-05 0.431E-05
  53 F= -.13240456E+04 E0= -.13240456E+04  d E =-.204453E-02  mag=   126.0000
       N       E                     dE             d eps       ncg     rms          ort
SDA:   1    -0.132402161635E+04    0.24015E-01    0.00000E+00  8540   0.707E-01 0.000E+00
CGA:   2    -0.132403760545E+04   -0.15989E-01   -0.15996E-01  8540   0.315E-01 0.191E-03
CGA:   3    -0.132404486457E+04   -0.72591E-02   -0.72513E-02  8540   0.700E-02-0.306E-03
CGA:   4    -0.132404633113E+04   -0.14666E-02   -0.14597E-02  8540   0.127E-02-0.155E-03
CGA:   5    -0.132404659245E+04   -0.26133E-03   -0.26270E-03  8540   0.268E-03 0.333E-04
CGA:   6    -0.132404665266E+04   -0.60204E-04   -0.61200E-04  8540   0.596E-04 0.351E-04
CGA:   7    -0.132404667198E+04   -0.19325E-04   -0.19238E-04  8540   0.192E-04 0.241E-05
CGA:   8    -0.132404666203E+04    0.99560E-05   -0.18978E-04  8540   0.120E-03-0.414E-04
CGA:   9    -0.132404668310E+04   -0.21077E-04   -0.22105E-04  8540   0.121E-04 0.999E-05
CGA:  10    -0.132404668465E+04   -0.15432E-05   -0.22477E-05  8540   0.410E-05 0.645E-05
  54 F= -.13240467E+04 E0= -.13240467E+04  d E =-.105053E-02  mag=   126.0000
       N       E                     dE             d eps       ncg     rms          ort
SDA:   1    -0.132402324954E+04    0.23434E-01    0.00000E+00  8540   0.654E-01 0.000E+00
CGA:   2    -0.132403952493E+04   -0.16275E-01   -0.16277E-01  8540   0.315E-01 0.580E-04
CGA:   3    -0.132404624414E+04   -0.67192E-02   -0.67154E-02  8540   0.592E-02-0.727E-04
CGA:   4    -0.132404747365E+04   -0.12295E-02   -0.12266E-02  8540   0.107E-02-0.481E-04
CGA:   5    -0.132404770471E+04   -0.23106E-03   -0.23240E-03  8540   0.230E-03 0.279E-04
CGA:   6    -0.132404775626E+04   -0.51551E-04   -0.52656E-04  8540   0.513E-04 0.275E-04
CGA:   7    -0.132404777195E+04   -0.15693E-04   -0.15637E-04  8540   0.156E-04 0.530E-05
CGA:   8    -0.132404777847E+04   -0.65182E-05   -0.74896E-05  8540   0.115E-04-0.559E-05
  55 F= -.13240478E+04 E0= -.13240478E+04  d E =-.109383E-02  mag=   126.0000
       N       E                     dE             d eps       ncg     rms          ort
SDA:   1    -0.132381967837E+04    0.22809E+00    0.00000E+00  8540   0.593E+00 0.000E+00
CGA:   2    -0.132397815863E+04   -0.15848E+00   -0.15848E+00  8540   0.283E+00 0.432E-03
CGA:   3    -0.132403546176E+04   -0.57303E-01   -0.57293E-01  8540   0.505E-01-0.219E-03
CGA:   4    -0.132404619690E+04   -0.10735E-01   -0.10722E-01  8540   0.933E-02-0.234E-03
CGA:   5    -0.132404822337E+04   -0.20265E-02   -0.20299E-02  8540   0.200E-02 0.664E-04
CGA:   6    -0.132404871905E+04   -0.49568E-03   -0.49692E-03  8540   0.504E-03 0.655E-04
CGA:   7    -0.132404887516E+04   -0.15611E-03   -0.15674E-03  8540   0.165E-03-0.171E-04
CGA:   8    -0.132404893376E+04   -0.58598E-04   -0.66032E-04  8540   0.996E-04-0.501E-04
CGA:   9    -0.132404895706E+04   -0.23296E-04   -0.27309E-04  8540   0.445E-04-0.333E-04
CGA:  10    -0.132404896276E+04   -0.57041E-05   -0.62044E-05  8540   0.156E-04 0.716E-05
  56 F= -.13240490E+04 E0= -.13240490E+04  d E =-.118429E-02  mag=   126.0000
       N       E                     dE             d eps       ncg     rms          ort
SDA:   1    -0.132384309975E+04    0.20586E+00    0.00000E+00  8540   0.555E+00 0.000E+00
CGA:   2    -0.132398723683E+04   -0.14414E+00   -0.14414E+00  8540   0.263E+00 0.126E-03
CGA:   3    -0.132404161041E+04   -0.54374E-01   -0.54389E-01  8540   0.481E-01 0.146E-03
CGA:   4    -0.132405181288E+04   -0.10202E-01   -0.10203E-01  8540   0.889E-02-0.831E-06
CGA:   5    -0.132405378823E+04   -0.19754E-02   -0.19740E-02  8540   0.199E-02-0.337E-04
CGA:   6    -0.132405429852E+04   -0.51028E-03   -0.51001E-03  8540   0.528E-03-0.439E-04
CGA:   7    -0.132405444319E+04   -0.14467E-03   -0.14461E-03  8540   0.149E-03 0.328E-05
CGA:   8    -0.132405449567E+04   -0.52483E-04   -0.54979E-04  8540   0.676E-04-0.242E-04
CGA:   9    -0.132405451477E+04   -0.19098E-04   -0.29570E-04  8540   0.618E-04-0.413E-04
CGA:  10    -0.132405452651E+04   -0.11737E-04   -0.12226E-04  8540   0.745E-05 0.583E-05
CGA:  11    -0.132405451519E+04    0.11318E-04   -0.10365E-04  8540   0.679E-04-0.218E-04
CGA:  12    -0.132405452953E+04   -0.14342E-04   -0.15505E-04  8540   0.782E-05 0.118E-04
CGA:  13    -0.132405453624E+04   -0.67159E-05    0.10798E-04  8540   0.148E-05-0.101E-05
  57 F= -.13240545E+04 E0= -.13240545E+04  d E =-.557348E-02  mag=   126.0000
       N       E                     dE             d eps       ncg     rms          ort
SDA:   1    -0.132197470276E+04    0.20798E+01    0.00000E+00  8540   0.590E+01 0.000E+00
CGA:   2    -0.132326446908E+04   -0.12898E+01   -0.12906E+01  8540   0.256E+01 0.456E-02
CGA:   3    -0.132386907963E+04   -0.60461E+00   -0.60478E+00  8540   0.591E+00 0.127E-02
CGA:   4    -0.132399139034E+04   -0.12231E+00   -0.12228E+00  8540   0.102E+00-0.547E-03
CGA:   5    -0.132401410450E+04   -0.22714E-01   -0.22672E-01  8540   0.235E-01-0.612E-03
CGA:   6    -0.132402006790E+04   -0.59634E-02   -0.59477E-02  8540   0.602E-02-0.436E-03
CGA:   7    -0.132402169809E+04   -0.16302E-02   -0.16304E-02  8540   0.162E-02 0.992E-05
CGA:   8    -0.132402217577E+04   -0.47767E-03   -0.47740E-03  8540   0.481E-03 0.534E-04
CGA:   9    -0.132402234067E+04   -0.16490E-03   -0.16407E-03  8540   0.153E-03 0.203E-04
CGA:  10    -0.132402240826E+04   -0.67592E-04   -0.78481E-04  8540   0.990E-04-0.547E-04
CGA:  11    -0.132402242806E+04   -0.19798E-04   -0.33440E-04  8540   0.764E-04-0.611E-04
CGA:  12    -0.132402243603E+04   -0.79700E-05   -0.12559E-04  8540   0.189E-04 0.310E-04
  58 F= -.13240224E+04 E0= -.13240224E+04  d E =0.321002E-01  mag=   126.0000
       N       E                     dE             d eps       ncg     rms          ort
SDA:   1    -0.132343340783E+04    0.58902E+00    0.00000E+00  8540   0.193E+01 0.000E+00
CGA:   2    -0.132381430787E+04   -0.38090E+00   -0.38116E+00  8540   0.741E+00 0.957E-03
CGA:   3    -0.132400393306E+04   -0.18963E+00   -0.18966E+00  8540   0.202E+00 0.249E-03
CGA:   4    -0.132404577410E+04   -0.41841E-01   -0.41849E-01  8540   0.346E-01 0.163E-04
CGA:   5    -0.132405337139E+04   -0.75973E-02   -0.76083E-02  8540   0.788E-02 0.144E-03
CGA:   6    -0.132405531400E+04   -0.19426E-02   -0.19438E-02  8540   0.190E-02 0.267E-04
CGA:   7    -0.132405583844E+04   -0.52444E-03   -0.52484E-03  8540   0.520E-03 0.450E-04
CGA:   8    -0.132405599723E+04   -0.15879E-03   -0.15868E-03  8540   0.163E-03 0.761E-05
CGA:   9    -0.132405605881E+04   -0.61579E-04   -0.63303E-04  8540   0.694E-04-0.176E-04
CGA:  10    -0.132405607456E+04   -0.15749E-04   -0.16154E-04  8540   0.196E-04 0.141E-04
CGA:  11    -0.132405607869E+04   -0.41317E-05   -0.48178E-05  8540   0.612E-05 0.823E-05
  59 F= -.13240561E+04 E0= -.13240561E+04  d E =-.336427E-01  mag=   126.0000
       N       E                     dE             d eps       ncg     rms          ort
SDA:   1    -0.132399757441E+04    0.58500E-01    0.00000E+00  8540   0.179E+00 0.000E+00
CGA:   2    -0.132403489868E+04   -0.37324E-01   -0.37337E-01  8540   0.746E-01 0.675E-04
CGA:   3    -0.132405330373E+04   -0.18405E-01   -0.18401E-01  8540   0.185E-01-0.171E-03
CGA:   4    -0.132405712482E+04   -0.38211E-02   -0.38122E-02  8540   0.321E-02-0.131E-03
CGA:   5    -0.132405780484E+04   -0.68002E-03   -0.68462E-03  8540   0.705E-03 0.775E-04
CGA:   6    -0.132405796588E+04   -0.16104E-03   -0.16415E-03  8540   0.156E-03 0.718E-04
CGA:   7    -0.132405801254E+04   -0.46661E-04   -0.46617E-04  8540   0.452E-04 0.133E-04
CGA:   8    -0.132405802985E+04   -0.17317E-04   -0.25957E-04  8540   0.595E-04-0.332E-04
CGA:   9    -0.132405804265E+04   -0.12794E-04   -0.12632E-04  8540   0.781E-05-0.233E-05
CGA:  10    -0.132405804345E+04   -0.80574E-06   -0.12227E-05  8540   0.227E-05 0.362E-05
  60 F= -.13240580E+04 E0= -.13240580E+04  d E =-.196476E-02  mag=   126.0000
       N       E                     dE             d eps       ncg     rms          ort
SDA:   1    -0.132404311509E+04    0.14928E-01    0.00000E+00  8540   0.455E-01 0.000E+00
CGA:   2    -0.132405328410E+04   -0.10169E-01   -0.10177E-01  8540   0.202E-01 0.153E-03
CGA:   3    -0.132405797901E+04   -0.46949E-02   -0.46895E-02  8540   0.456E-02-0.163E-03
CGA:   4    -0.132405895049E+04   -0.97148E-03   -0.96217E-03  8540   0.860E-03-0.181E-03
CGA:   5    -0.132405911899E+04   -0.16850E-03   -0.17018E-03  8540   0.175E-03 0.297E-04
CGA:   6    -0.132405915298E+04   -0.33985E-04   -0.36236E-04  8540   0.392E-04 0.385E-04
CGA:   7    -0.132405916534E+04   -0.12367E-04   -0.12356E-04  8540   0.133E-04 0.508E-05
CGA:   8    -0.132405917351E+04   -0.81677E-05    0.31836E-04  8540   0.446E-05 0.214E-05
  61 F= -.13240592E+04 E0= -.13240592E+04  d E =-.113006E-02  mag=   126.0000
       N       E                     dE             d eps       ncg     rms          ort
SDA:   1    -0.132400110142E+04    0.58064E-01    0.00000E+00  8540   0.167E+00 0.000E+00
CGA:   2    -0.132403802760E+04   -0.36926E-01   -0.36943E-01  8540   0.744E-01 0.399E-03
CGA:   3    -0.132405535504E+04   -0.17327E-01   -0.17321E-01  8540   0.170E-01-0.307E-03
CGA:   4    -0.132405886938E+04   -0.35143E-02   -0.34988E-02  8540   0.303E-02-0.335E-03
CGA:   5    -0.132405950454E+04   -0.63516E-03   -0.63722E-03  8540   0.649E-03 0.551E-04
CGA:   6    -0.132405964771E+04   -0.14316E-03   -0.14554E-03  8540   0.142E-03 0.816E-04
CGA:   7    -0.132405969204E+04   -0.44338E-04   -0.44112E-04  8540   0.434E-04 0.779E-05
CGA:   8    -0.132405968609E+04    0.59486E-05   -0.37740E-04  8540   0.190E-03-0.760E-04
CGA:   9    -0.132405972126E+04   -0.35161E-04   -0.36073E-04  8540   0.192E-04 0.103E-04
CGA:  10    -0.132405972454E+04   -0.32861E-05   -0.39333E-05  8540   0.501E-05 0.817E-05
  62 F= -.13240597E+04 E0= -.13240597E+04  d E =-.551029E-03  mag=   126.0000
       N       E                     dE             d eps       ncg     rms          ort
SDA:   1    -0.132404609244E+04    0.13629E-01    0.00000E+00  8540   0.373E-01 0.000E+00
CGA:   2    -0.132405470547E+04   -0.86130E-02   -0.86207E-02  8540   0.172E-01 0.173E-03
CGA:   3    -0.132405862423E+04   -0.39188E-02   -0.39140E-02  8540   0.374E-02-0.112E-03
CGA:   4    -0.132405940528E+04   -0.78105E-03   -0.77462E-03  8540   0.668E-03-0.110E-03
CGA:   5    -0.132405954328E+04   -0.13799E-03   -0.13855E-03  8540   0.141E-03 0.107E-04
CGA:   6    -0.132405957402E+04   -0.30743E-04   -0.31560E-04  8540   0.303E-04 0.192E-04
[...]
CGA:  11    -0.132404604065E+04   -0.61741E-05   -0.70138E-05  8540   0.163E-04 0.204E-04
 105 F= -.13240460E+04 E0= -.13240460E+04  d E =-.690707E-01  mag=   126.0000
       N       E                     dE             d eps       ncg     rms          ort
SDA:   1    -0.132384461844E+04    0.20142E+00    0.00000E+00  8540   0.637E+00 0.000E+00
CGA:   2    -0.132397623759E+04   -0.13162E+00   -0.13166E+00  8540   0.251E+00 0.113E-02
CGA:   3    -0.132403707749E+04   -0.60840E-01   -0.60838E-01  8540   0.638E-01 0.630E-04
CGA:   4    -0.132405061571E+04   -0.13538E-01   -0.13536E-01  8540   0.120E-01-0.109E-03
CGA:   5    -0.132405320957E+04   -0.25939E-02   -0.25949E-02  8540   0.255E-02 0.634E-04
CGA:   6    -0.132405379790E+04   -0.58833E-03   -0.58886E-03  8540   0.600E-03 0.211E-03
CGA:   7    -0.132405395367E+04   -0.15577E-03   -0.15492E-03  8540   0.154E-03 0.123E-03
CGA:   8    -0.132405400299E+04   -0.49320E-04   -0.48229E-04  8540   0.521E-04 0.381E-04
CGA:   9    -0.132405401335E+04   -0.10360E-04   -0.11995E-04  8540   0.218E-04 0.333E-04
CGA:  10    -0.132405401404E+04   -0.69290E-06   -0.25662E-05  8540   0.134E-04 0.166E-04
 106 F= -.13240540E+04 E0= -.13240540E+04  d E =-.797339E-02  mag=   126.0000
       N       E                     dE             d eps       ncg     rms          ort
SDA:   1    -0.132400863463E+04    0.45379E-01    0.00000E+00  8540   0.139E+00 0.000E+00
CGA:   2    -0.132403868718E+04   -0.30053E-01   -0.30054E-01  8540   0.598E-01 0.483E-03
CGA:   3    -0.132405301030E+04   -0.14323E-01   -0.14326E-01  8540   0.139E-01-0.179E-03
CGA:   4    -0.132405586001E+04   -0.28497E-02   -0.28489E-02  8540   0.246E-02-0.562E-04
CGA:   5    -0.132405639016E+04   -0.53015E-03   -0.53031E-03  8540   0.536E-03 0.592E-04
CGA:   6    -0.132405650293E+04   -0.11277E-03   -0.11390E-03  8540   0.118E-03 0.974E-04
CGA:   7    -0.132405652926E+04   -0.26331E-04   -0.27330E-04  8540   0.354E-04 0.460E-04
CGA:   8    -0.132405653882E+04   -0.95577E-05   -0.98579E-05  8540   0.136E-04 0.176E-04
 107 F= -.13240565E+04 E0= -.13240565E+04  d E =-.252478E-02  mag=   126.0000
       N       E                     dE             d eps       ncg     rms          ort
SDA:   1    -0.132373864254E+04    0.31789E+00    0.00000E+00  8540   0.909E+00 0.000E+00
CGA:   2    -0.132393864671E+04   -0.20000E+00   -0.19999E+00  8540   0.401E+00 0.202E-02
CGA:   3    -0.132403362891E+04   -0.94982E-01   -0.94982E-01  8540   0.904E-01-0.155E-03
CGA:   4    -0.132405200810E+04   -0.18379E-01   -0.18379E-01  8540   0.156E-01-0.594E-04
CGA:   5    -0.132405549689E+04   -0.34888E-02   -0.34882E-02  8540   0.357E-02 0.659E-04
CGA:   6    -0.132405635064E+04   -0.85376E-03   -0.85025E-03  8540   0.823E-03 0.157E-03
CGA:   7    -0.132405656922E+04   -0.21857E-03   -0.21530E-03  8540   0.209E-03 0.947E-04
CGA:   8    -0.132405663873E+04   -0.69509E-04   -0.67825E-04  8540   0.677E-04 0.228E-04
CGA:   9    -0.132405665553E+04   -0.16801E-04   -0.16754E-04  8540   0.225E-04 0.287E-04
CGA:  10    -0.132405665874E+04   -0.32082E-05   -0.46478E-05  8540   0.108E-04 0.189E-04
 108 F= -.13240567E+04 E0= -.13240567E+04  d E =-.119915E-03  mag=   126.0000
       N       E                     dE             d eps       ncg     rms          ort
SDA:   1    -0.132370288206E+04    0.35377E+00    0.00000E+00  8540   0.916E+00 0.000E+00
CGA:   2    -0.132393289359E+04   -0.23001E+00   -0.22996E+00  8540   0.450E+00 0.100E-02
CGA:   3    -0.132402916449E+04   -0.96271E-01   -0.96271E-01  8540   0.825E-01-0.204E-03
CGA:   4    -0.132404586771E+04   -0.16703E-01   -0.16703E-01  8540   0.146E-01 0.997E-05
CGA:   5    -0.132404917798E+04   -0.33103E-02   -0.33094E-02  8540   0.337E-02 0.617E-04
CGA:   6    -0.132405001690E+04   -0.83892E-03   -0.83952E-03  8540   0.821E-03-0.186E-04
CGA:   7    -0.132405023711E+04   -0.22021E-03   -0.21870E-03  8540   0.225E-03 0.292E-04
CGA:   8    -0.132405031084E+04   -0.73724E-04   -0.73525E-04  8540   0.758E-04 0.200E-05
CGA:   9    -0.132405033255E+04   -0.21708E-04   -0.20950E-04  8540   0.206E-04 0.151E-04
CGA:  10    -0.132405033891E+04   -0.63629E-05   -0.61857E-05  8540   0.635E-05 0.741E-05
 109 F= -.13240503E+04 E0= -.13240503E+04  d E =0.631983E-02  mag=   126.0000
       N       E                     dE             d eps       ncg     rms          ort
SDA:   1    -0.131731590352E+04    0.67344E+01    0.00000E+00  8540   0.199E+02 0.000E+00
CGA:   2    -0.132143726650E+04   -0.41214E+01   -0.41230E+01  8540   0.810E+01 0.435E-01
CGA:   3    -0.132344354871E+04   -0.20063E+01   -0.20060E+01  8540   0.202E+01 0.660E-02
CGA:   4    -0.132385886746E+04   -0.41532E+00   -0.41530E+00  8540   0.354E+00-0.179E-02
CGA:   5    -0.132393725141E+04   -0.78384E-01   -0.78384E-01  8540   0.799E-01-0.168E-03
CGA:   6    -0.132395726337E+04   -0.20012E-01   -0.20032E-01  8540   0.200E-01-0.849E-03
CGA:   7    -0.132396267595E+04   -0.54126E-02   -0.54041E-02  8540   0.536E-02 0.184E-03
CGA:   8    -0.132396427642E+04   -0.16005E-02   -0.15876E-02  8540   0.158E-02 0.200E-03
CGA:   9    -0.132396484635E+04   -0.56994E-03   -0.56889E-03  8540   0.557E-03 0.828E-05
CGA:  10    -0.132396503102E+04   -0.18467E-03   -0.17944E-03  8540   0.162E-03 0.635E-04
CGA:  11    -0.132396510234E+04   -0.71317E-04   -0.80920E-04  8540   0.778E-04-0.466E-04
CGA:  12    -0.132396511110E+04   -0.87590E-05   -0.10292E-04  8540   0.328E-04 0.228E-04
 110 F= -.13239651E+04 E0= -.13239651E+04  d E =0.852278E-01  mag=   126.0000
       N       E                     dE             d eps       ncg     rms          ort
SDA:   1    -0.132152310158E+04    0.24420E+01    0.00000E+00  8540   0.765E+01 0.000E+00
CGA:   2    -0.132308642248E+04   -0.15633E+01   -0.15644E+01  8540   0.301E+01 0.158E-01
CGA:   3    -0.132383106998E+04   -0.74465E+00   -0.74464E+00  8540   0.778E+00 0.211E-03
CGA:   4    -0.132399351278E+04   -0.16244E+00   -0.16237E+00  8540   0.143E+00-0.221E-02
CGA:   5    -0.132402463178E+04   -0.31119E-01   -0.31128E-01  8540   0.312E-01 0.311E-03
CGA:   6    -0.132403220314E+04   -0.75714E-02   -0.75713E-02  8540   0.773E-02 0.463E-03
CGA:   7    -0.132403432367E+04   -0.21205E-02   -0.21120E-02  8540   0.205E-02 0.310E-03
CGA:   8    -0.132403499820E+04   -0.67453E-03   -0.67921E-03  8540   0.713E-03-0.632E-04
CGA:   9    -0.132403521738E+04   -0.21918E-03   -0.21603E-03  8540   0.221E-03 0.478E-04
CGA:  10    -0.132403527803E+04   -0.60645E-04   -0.60261E-04  8540   0.655E-04 0.687E-04
CGA:  11    -0.132403529344E+04   -0.15415E-04   -0.17263E-04  8540   0.240E-04 0.371E-04
CGA:  12    -0.132403530048E+04   -0.70375E-05   -0.66973E-05  8540   0.946E-05 0.108E-04
 111 F= -.13240353E+04 E0= -.13240353E+04  d E =-.701894E-01  mag=   126.0000
       N       E                     dE             d eps       ncg     rms          ort
SDA:   1    -0.132394103157E+04    0.94262E-01    0.00000E+00  8540   0.288E+00 0.000E+00
CGA:   2    -0.132400559413E+04   -0.64563E-01   -0.64572E-01  8540   0.124E+00 0.334E-03
CGA:   3    -0.132403408895E+04   -0.28495E-01   -0.28496E-01  8540   0.281E-01 0.643E-04
CGA:   4    -0.132403992809E+04   -0.58391E-02   -0.58455E-02  8540   0.512E-02 0.181E-03
CGA:   5    -0.132404105307E+04   -0.11250E-02   -0.11267E-02  8540   0.110E-02 0.794E-04
CGA:   6    -0.132404129806E+04   -0.24499E-03   -0.24729E-03  8540   0.258E-03 0.135E-03
CGA:   7    -0.132404135710E+04   -0.59038E-04   -0.61294E-04  8540   0.706E-04 0.846E-04
CGA:   8    -0.132404137479E+04   -0.17691E-04   -0.18924E-04  8540   0.266E-04 0.351E-04
CGA:   9    -0.132404137944E+04   -0.46463E-05   -0.63492E-05  8540   0.130E-04 0.224E-04
 112 F= -.13240414E+04 E0= -.13240414E+04  d E =-.607896E-02  mag=   126.0000
       N       E                     dE             d eps       ncg     rms          ort
SDA:   1    -0.132310356455E+04    0.93781E+00    0.00000E+00  8540   0.267E+01 0.000E+00
CGA:   2    -0.132369871163E+04   -0.59515E+00   -0.59516E+00  8540   0.118E+01 0.422E-02
CGA:   3    -0.132397026340E+04   -0.27155E+00   -0.27155E+00  8540   0.263E+00-0.314E-03
CGA:   4    -0.132402460755E+04   -0.54344E-01   -0.54346E-01  8540   0.472E-01 0.422E-04
CGA:   5    -0.132403510541E+04   -0.10498E-01   -0.10498E-01  8540   0.105E-01 0.153E-03
CGA:   6    -0.132403764324E+04   -0.25378E-02   -0.25323E-02  8540   0.258E-02 0.330E-03
CGA:   7    -0.132403833897E+04   -0.69573E-03   -0.68721E-03  8540   0.656E-03 0.254E-03
CGA:   8    -0.132403855281E+04   -0.21384E-03   -0.20928E-03  8540   0.210E-03 0.718E-04
CGA:   9    -0.132403861404E+04   -0.61233E-04   -0.59497E-04  8540   0.654E-04 0.698E-04
CGA:  10    -0.132403862506E+04   -0.11024E-04   -0.14307E-04  8540   0.292E-04 0.488E-04
CGA:  11    -0.132403862619E+04   -0.11249E-05   -0.35435E-05  8540   0.187E-04 0.227E-04
 113 F= -.13240386E+04 E0= -.13240386E+04  d E =0.275325E-02  mag=   126.0000
       N       E                     dE             d eps       ncg     rms          ort
SDA:   1    -0.132354463587E+04    0.49399E+00    0.00000E+00  8540   0.129E+01 0.000E+00
CGA:   2    -0.132386431723E+04   -0.31968E+00   -0.31964E+00  8540   0.634E+00 0.798E-03
CGA:   3    -0.132400097388E+04   -0.13666E+00   -0.13666E+00  8540   0.116E+00-0.266E-03
CGA:   4    -0.132402433290E+04   -0.23359E-01   -0.23365E-01  8540   0.204E-01 0.353E-03
CGA:   5    -0.132402898697E+04   -0.46541E-02   -0.46526E-02  8540   0.473E-02 0.130E-03
CGA:   6    -0.132403015866E+04   -0.11717E-02   -0.11713E-02  8540   0.112E-02 0.114E-04
CGA:   7    -0.132403045113E+04   -0.29248E-03   -0.28906E-03  8540   0.293E-03 0.892E-04
CGA:   8    -0.132403053739E+04   -0.86258E-04   -0.83707E-04  8540   0.847E-04 0.586E-04
CGA:   9    -0.132403056191E+04   -0.24523E-04   -0.24032E-04  8540   0.290E-04 0.370E-04
CGA:  10    -0.132403056700E+04   -0.50881E-05   -0.66455E-05  8540   0.137E-04 0.242E-04
 114 F= -.13240306E+04 E0= -.13240306E+04  d E =0.805918E-02  mag=   126.0000
       N       E                     dE             d eps       ncg     rms          ort
SDA:   1    -0.131685081347E+04    0.71797E+01    0.00000E+00  8540   0.205E+02 0.000E+00
CGA:   2    -0.132139391175E+04   -0.45431E+01   -0.45427E+01  8540   0.869E+01 0.389E-01
CGA:   3    -0.132341878545E+04   -0.20249E+01   -0.20248E+01  8540   0.199E+01-0.274E-02
CGA:   4    -0.132383364680E+04   -0.41486E+00   -0.41484E+00  8540   0.368E+00-0.353E-02
CGA:   5    -0.132391480223E+04   -0.81155E-01   -0.81153E-01  8540   0.811E-01 0.306E-03
CGA:   6    -0.132393517185E+04   -0.20370E-01   -0.20404E-01  8540   0.217E-01-0.101E-02
CGA:   7    -0.132394120720E+04   -0.60354E-02   -0.60567E-02  8540   0.609E-02-0.340E-03
CGA:   8    -0.132394307373E+04   -0.18665E-02   -0.18881E-02  8540   0.201E-02-0.233E-03
CGA:   9    -0.132394376177E+04   -0.68804E-03   -0.73183E-03  8540   0.798E-03-0.288E-03
CGA:  10    -0.132394400918E+04   -0.24742E-03   -0.28818E-03  8540   0.352E-03-0.218E-03
CGA:  11    -0.132394363034E+04    0.37884E-03   -0.29438E-03  8540   0.245E-02-0.744E-03
CGA:  12    -0.132394414220E+04   -0.51186E-03   -0.52192E-03  8540   0.254E-03 0.133E-03
CGA:  13    -0.132394424170E+04   -0.99503E-04   -0.10427E-03  8540   0.127E-03-0.457E-04
CGA:  14    -0.132394427372E+04   -0.32017E-04   -0.32572E-04  8540   0.718E-04-0.238E-04
CGA:  15    -0.132394427490E+04   -0.11871E-05   -0.70755E-05  8540   0.335E-04 0.347E-04
 115 F= -.13239443E+04 E0= -.13239443E+04  d E =0.862921E-01  mag=   126.0000
       N       E                     dE             d eps       ncg     rms          ort
SDA:   1    -0.132110306600E+04    0.28412E+01    0.00000E+00  8540   0.887E+01 0.000E+00
CGA:   2    -0.132295760589E+04   -0.18545E+01   -0.18561E+01  8540   0.342E+01 0.136E-01
CGA:   3    -0.132378005451E+04   -0.82245E+00   -0.82251E+00  8540   0.874E+00 0.508E-03
CGA:   4    -0.132396578941E+04   -0.18573E+00   -0.18583E+00  8540   0.169E+00 0.138E-02
CGA:   5    -0.132400276926E+04   -0.36980E-01   -0.36993E-01  8540   0.352E-01 0.208E-03
CGA:   6    -0.132401136351E+04   -0.85943E-02   -0.86031E-02  8540   0.927E-02 0.450E-03
CGA:   7    -0.132401382253E+04   -0.24590E-02   -0.24594E-02  8540   0.235E-02 0.637E-03
CGA:   8    -0.132401457934E+04   -0.75681E-03   -0.75259E-03  8540   0.772E-03 0.113E-03
CGA:   9    -0.132401478827E+04   -0.20893E-03   -0.20997E-03  8540   0.232E-03 0.204E-03
CGA:  10    -0.132401485225E+04   -0.63988E-04   -0.67661E-04  8540   0.863E-04 0.110E-03
CGA:  11    -0.132401486361E+04   -0.11351E-04   -0.19613E-04  8540   0.431E-04 0.760E-04
CGA:  12    -0.132401486389E+04   -0.28572E-06   -0.50619E-05  8540   0.291E-04 0.342E-04
 116 F= -.13240149E+04 E0= -.13240149E+04  d E =-.705890E-01  mag=   126.0000
       N       E                     dE             d eps       ncg     rms          ort
SDA:   1    -0.132393279058E+04    0.82073E-01    0.00000E+00  8540   0.254E+00 0.000E+00
CGA:   2    -0.132398862885E+04   -0.55838E-01   -0.55857E-01  8540   0.109E+00 0.698E-03
CGA:   3    -0.132401434984E+04   -0.25721E-01   -0.25720E-01  8540   0.251E-01-0.226E-03
CGA:   4    -0.132401952288E+04   -0.51730E-02   -0.51707E-02  8540   0.458E-02-0.727E-04
CGA:   5    -0.132402050791E+04   -0.98503E-03   -0.98743E-03  8540   0.987E-03 0.101E-03
CGA:   6    -0.132402073653E+04   -0.22862E-03   -0.22964E-03  8540   0.229E-03 0.942E-04
CGA:   7    -0.132402079876E+04   -0.62234E-04   -0.61866E-04  8540   0.602E-04 0.398E-04
CGA:   8    -0.132402082121E+04   -0.22447E-04   -0.22188E-04  8540   0.233E-04 0.341E-05
CGA:   9    -0.132402082597E+04   -0.47634E-05   -0.51024E-05  8540   0.794E-05 0.967E-05
 117 F= -.13240208E+04 E0= -.13240208E+04  d E =-.596208E-02  mag=   126.0000
       N       E                     dE             d eps       ncg     rms          ort
SDA:   1    -0.132205790876E+04    0.19629E+01    0.00000E+00  8540   0.534E+01 0.000E+00
CGA:   2    -0.132332245482E+04   -0.12645E+01   -0.12645E+01  8540   0.248E+01 0.907E-02
CGA:   3    -0.132387838420E+04   -0.55593E+00   -0.55592E+00  8540   0.505E+00-0.208E-02
CGA:   4    -0.132398096882E+04   -0.10258E+00   -0.10257E+00  8540   0.913E-01-0.685E-03
CGA:   5    -0.132400132204E+04   -0.20353E-01   -0.20357E-01  8540   0.207E-01 0.404E-03
CGA:   6    -0.132400639232E+04   -0.50703E-02   -0.50662E-02  8540   0.506E-02 0.340E-03
CGA:   7    -0.132400780745E+04   -0.14151E-02   -0.14090E-02  8540   0.139E-02 0.147E-03
CGA:   8    -0.132400827961E+04   -0.47216E-03   -0.48121E-03  8540   0.523E-03-0.895E-04
CGA:   9    -0.132400843942E+04   -0.15981E-03   -0.16014E-03  8540   0.162E-03-0.387E-05
CGA:  10    -0.132400848722E+04   -0.47800E-04   -0.46851E-04  8540   0.418E-04 0.196E-04
CGA:  11    -0.132400849802E+04   -0.10805E-04   -0.10978E-04  8540   0.120E-04 0.142E-04
CGA:  12    -0.132400850607E+04   -0.80421E-05    0.13580E-03  8540   0.427E-05 0.487E-05
 118 F= -.13240085E+04 E0= -.13240085E+04  d E =0.123199E-01  mag=   126.0000
       N       E                     dE             d eps       ncg     rms          ort
SDA:   1    -0.132176722523E+04    0.22413E+01    0.00000E+00  8540   0.561E+01 0.000E+00
CGA:   2    -0.132329094355E+04   -0.15237E+01   -0.15236E+01  8540   0.284E+01 0.301E-02
CGA:   3    -0.132386845745E+04   -0.57751E+00   -0.57754E+00  8540   0.464E+00-0.366E-03
CGA:   4    -0.132396335240E+04   -0.94895E-01   -0.94915E-01  8540   0.849E-01 0.416E-03
CGA:   5    -0.132398271788E+04   -0.19365E-01   -0.19371E-01  8540   0.193E-01 0.377E-03
CGA:   6    -0.132398746936E+04   -0.47515E-02   -0.47515E-02  8540   0.467E-02 0.646E-06
CGA:   7    -0.132398876258E+04   -0.12932E-02   -0.12892E-02  8540   0.132E-02 0.117E-03
CGA:   8    -0.132398918137E+04   -0.41878E-03   -0.41393E-03  8540   0.425E-03 0.790E-04
CGA:   9    -0.132398932973E+04   -0.14836E-03   -0.14527E-03  8540   0.125E-03 0.407E-04
CGA:  10    -0.132398935587E+04   -0.26138E-04   -0.28533E-04  8540   0.390E-04 0.567E-04
CGA:  11    -0.132398936290E+04   -0.70286E-05   -0.93333E-05  8540   0.153E-04 0.274E-04
 119 F= -.13239894E+04 E0= -.13239894E+04  d E =0.191432E-01  mag=   126.0000
       N       E                     dE             d eps       ncg     rms          ort
SDA:   1    -0.131719297423E+04    0.67964E+01    0.00000E+00  8540   0.200E+02 0.000E+00
CGA:   2    -0.132139245701E+04   -0.41995E+01   -0.42018E+01  8540   0.816E+01 0.375E-01
CGA:   3    -0.132339473041E+04   -0.20023E+01   -0.20023E+01  8540   0.202E+01 0.360E-02
CGA:   4    -0.132381473920E+04   -0.42001E+00   -0.42001E+00  8540   0.365E+00-0.904E-03
CGA:   5    -0.132389489246E+04   -0.80153E-01   -0.80144E-01  8540   0.814E-01-0.581E-03
CGA:   6    -0.132391522041E+04   -0.20328E-01   -0.20336E-01  8540   0.211E-01-0.759E-03
CGA:   7    -0.132392090590E+04   -0.56855E-02   -0.56750E-02  8540   0.558E-02 0.336E-03
CGA:   8    -0.132392262069E+04   -0.17148E-02   -0.17102E-02  8540   0.175E-02 0.737E-04
CGA:   9    -0.132392319209E+04   -0.57140E-03   -0.56136E-03  8540   0.543E-03 0.140E-03
CGA:  10    -0.132392339850E+04   -0.20641E-03   -0.20289E-03  8540   0.185E-03 0.358E-04
CGA:  11    -0.132392344077E+04   -0.42269E-04   -0.44291E-04  8540   0.552E-04 0.698E-04
CGA:  12    -0.132392345864E+04   -0.17868E-04   -0.18140E-04  8540   0.185E-04 0.206E-04
CGA:  13    -0.132392346111E+04   -0.24774E-05   -0.39642E-05  8540   0.979E-05 0.156E-04
 120 F= -.13239235E+04 E0= -.13239235E+04  d E =0.659018E-01  mag=   126.0000
       N       E                     dE             d eps       ncg     rms          ort
SDA:   1    -0.132261027052E+04    0.13132E+01    0.00000E+00  8540   0.423E+01 0.000E+00
CGA:   2    -0.132347877176E+04   -0.86850E+00   -0.86887E+00  8540   0.163E+01 0.673E-02
CGA:   3    -0.132388232954E+04   -0.40356E+00   -0.40355E+00  8540   0.429E+00 0.134E-03
CGA:   4    -0.132397203434E+04   -0.89705E-01   -0.89684E-01  8540   0.802E-01-0.848E-03
CGA:   5    -0.132398932642E+04   -0.17292E-01   -0.17300E-01  8540   0.171E-01 0.366E-03
CGA:   6    -0.132399355070E+04   -0.42243E-02   -0.42237E-02  8540   0.446E-02 0.503E-04
CGA:   7    -0.132399478934E+04   -0.12386E-02   -0.12380E-02  8540   0.121E-02 0.156E-04
CGA:   8    -0.132399518110E+04   -0.39177E-03   -0.40262E-03  8540   0.453E-03-0.117E-03
CGA:   9    -0.132399532852E+04   -0.14742E-03   -0.16814E-03  8540   0.238E-03-0.124E-03
CGA:  10    -0.132399538751E+04   -0.58997E-04   -0.65987E-04  8540   0.985E-04-0.535E-04
CGA:  11    -0.132399524910E+04    0.13841E-03   -0.90370E-04  8540   0.990E-03-0.247E-03
CGA:  12    -0.132399542547E+04   -0.17636E-03   -0.18013E-03  8540   0.147E-03 0.313E-04
CGA:  13    -0.132399546855E+04   -0.43082E-04   -0.42766E-04  8540   0.386E-04-0.198E-04
CGA:  14    -0.132399548122E+04   -0.12671E-04   -0.17626E-04  8540   0.467E-04-0.215E-04
CGA:  15    -0.132399548889E+04   -0.76711E-05   -0.79103E-05  8540   0.694E-05 0.174E-05
 121 F= -.13239955E+04 E0= -.13239955E+04  d E =-.720278E-01  mag=   126.0000
       N       E                     dE             d eps       ncg     rms          ort
SDA:   1    -0.132379362112E+04    0.20186E+00    0.00000E+00  8540   0.596E+00 0.000E+00
CGA:   2    -0.132392462391E+04   -0.13100E+00   -0.13107E+00  8540   0.254E+00 0.536E-03
CGA:   3    -0.132398442545E+04   -0.59802E-01   -0.59799E-01  8540   0.591E-01-0.185E-03
CGA:   4    -0.132399669080E+04   -0.12265E-01   -0.12241E-01  8540   0.110E-01-0.321E-03
CGA:   5    -0.132399902968E+04   -0.23389E-02   -0.23499E-02  8540   0.236E-02 0.163E-03
CGA:   6    -0.132399959213E+04   -0.56245E-03   -0.56755E-03  8540   0.573E-03 0.122E-03
CGA:   7    -0.132399975923E+04   -0.16709E-03   -0.16708E-03  8540   0.160E-03 0.184E-04
CGA:   8    -0.132399981457E+04   -0.55342E-04   -0.56312E-04  8540   0.633E-04-0.151E-04
CGA:   9    -0.132399983554E+04   -0.20967E-04   -0.29761E-04  8540   0.594E-04-0.367E-04
CGA:  10    -0.132399984065E+04   -0.51142E-05   -0.83247E-05  8540   0.110E-04 0.212E-04
