       N       E                     dE             d eps       ncg     rms          rms(c)
DAV:   1     0.112458893771E+05    0.11246E+05   -0.43016E+05 34760   0.160E+03
DAV:   2     0.261919670644E+02   -0.11220E+05   -0.10207E+05 34170   0.487E+02
DAV:   3    -0.160837093186E+04   -0.16346E+04   -0.15493E+04 36470   0.198E+02
DAV:   4    -0.169234561325E+04   -0.83975E+02   -0.82761E+02 39180   0.457E+01
DAV:   5    -0.169342100632E+04   -0.10754E+01   -0.10720E+01 37590   0.558E+00    0.146E+02
DAV:   6    -0.128386866419E+04    0.40955E+03   -0.81145E+02 40910   0.762E+01    0.120E+02
DAV:   7    -0.133435330336E+04   -0.50485E+02   -0.34051E+02 37000   0.662E+01    0.882E+01
DAV:   8    -0.130797975131E+04    0.26374E+02   -0.51195E+01 38760   0.235E+01    0.694E+01
DAV:   9    -0.131498361675E+04   -0.70039E+01   -0.50815E+01 37240   0.314E+01    0.659E+01
DAV:  10    -0.132080064869E+04   -0.58170E+01   -0.44953E+01 37320   0.198E+01    0.459E+01
DAV:  11    -0.132012964190E+04    0.67101E+00   -0.16300E+01 37180   0.112E+01    0.276E+01
DAV:  12    -0.131846313028E+04    0.16665E+01   -0.73866E+00 40700   0.776E+00    0.191E+01
DAV:  13    -0.132173908328E+04   -0.32760E+01   -0.22542E+01 36770   0.507E+00    0.297E+01
DAV:  14    -0.131970017120E+04    0.20389E+01   -0.63981E+00 37330   0.388E+00    0.172E+01
DAV:  15    -0.132106907155E+04   -0.13689E+01   -0.16334E+00 35870   0.161E+00    0.192E+01
DAV:  16    -0.132120385858E+04   -0.13479E+00   -0.31297E-01 35550   0.531E-01    0.193E+01
DAV:  17    -0.132116972822E+04    0.34130E-01   -0.54843E-01 39510   0.740E-01    0.190E+01
DAV:  18    -0.132120297801E+04   -0.33250E-01   -0.80346E+00 40410   0.212E+00    0.141E+01
DAV:  19    -0.132244309082E+04   -0.12401E+01   -0.70792E-01 36990   0.154E+00    0.125E+01
DAV:  20    -0.132248021512E+04   -0.37124E-01   -0.39751E-01 38980   0.233E+00    0.105E+01
DAV:  21    -0.132214509860E+04    0.33512E+00   -0.62268E-01 40760   0.281E+00    0.153E+01
DAV:  22    -0.132252019326E+04   -0.37509E+00   -0.39350E-01 35950   0.119E+00    0.197E+01
DAV:  23    -0.132291018812E+04   -0.38999E+00   -0.10123E-01 40340   0.124E+00    0.214E+01
DAV:  24    -0.132312162887E+04   -0.21144E+00   -0.10482E-01 46330   0.105E+00    0.221E+01
DAV:  25    -0.132333094026E+04   -0.20931E+00   -0.69272E-02 46210   0.719E-01    0.250E+01
DAV:  26    -0.132345470884E+04   -0.12377E+00   -0.43462E-02 35750   0.452E-01    0.338E+01
DAV:  27    -0.132389925450E+04   -0.44455E+00   -0.46733E-01 36810   0.121E+00    0.362E+01
DAV:  28    -0.132383058696E+04    0.68668E-01   -0.54748E-01 36540   0.942E-01    0.383E+01
DAV:  29    -0.132395254740E+04   -0.12196E+00   -0.98969E-02 35830   0.646E-01    0.393E+01
DAV:  30    -0.132400825938E+04   -0.55712E-01   -0.52908E-02 34730   0.274E-01    0.404E+01
DAV:  31    -0.132416936457E+04   -0.16111E+00   -0.10960E-01 35880   0.449E-01    0.421E+01
DAV:  32    -0.132428554664E+04   -0.11618E+00   -0.57823E-02 34520   0.502E-01    0.429E+01
DAV:  33    -0.132434761488E+04   -0.62068E-01   -0.12434E-02 35450   0.311E-01    0.432E+01
DAV:  34    -0.132436729090E+04   -0.19676E-01   -0.33598E-03 34730   0.135E-01    0.433E+01
DAV:  35    -0.132438237591E+04   -0.15085E-01   -0.12429E-03 40060   0.204E-01    0.433E+01
DAV:  36    -0.132442896786E+04   -0.46592E-01   -0.48761E-03 42930   0.416E-01    0.432E+01
DAV:  37    -0.132447414723E+04   -0.45179E-01   -0.51114E-03 46260   0.232E-01    0.432E+01
DAV:  38    -0.132449154365E+04   -0.17396E-01   -0.16467E-03 36030   0.909E-02    0.432E+01
DAV:  39    -0.132448626241E+04    0.52812E-02   -0.53197E-04 36670   0.151E-01    0.433E+01
DAV:  40    -0.132443432246E+04    0.51940E-01   -0.18324E-03 37400   0.273E-01    0.430E+01
DAV:  41    -0.132404783110E+04    0.38649E+00   -0.95454E-03 41770   0.470E-01    0.423E+01
DAV:  42    -0.132361184255E+04    0.43599E+00   -0.13207E-02 43590   0.558E-01    0.415E+01
DAV:  43    -0.132344321826E+04    0.16862E+00   -0.97382E-03 42410   0.282E-01    0.411E+01
DAV:  44    -0.132259285586E+04    0.85036E+00   -0.33862E-02 41240   0.109E+00    0.387E+01
DAV:  45    -0.132173069525E+04    0.86216E+00   -0.31033E-01 44790   0.155E+00    0.262E+01
DAV:  46    -0.132222353625E+04   -0.49284E+00   -0.95668E-01 35170   0.158E+00    0.244E+01
DAV:  47    -0.132222269479E+04    0.84146E-03   -0.18386E-01 36350   0.584E-01    0.235E+01
DAV:  48    -0.132203980525E+04    0.18289E+00   -0.12139E-01 39890   0.563E-01    0.219E+01
DAV:  49    -0.132188981868E+04    0.14999E+00   -0.11661E+00 43880   0.117E+00    0.158E+01
DAV:  50    -0.132215561719E+04   -0.26580E+00   -0.76468E-01 38660   0.143E+00    0.977E+00
DAV:  51    -0.132240688377E+04   -0.25127E+00   -0.31773E-01 36420   0.119E+00    0.983E+00
DAV:  52    -0.132243351132E+04   -0.26628E-01   -0.33108E-02 41870   0.555E-01    0.101E+01
DAV:  53    -0.132241021637E+04    0.23295E-01   -0.60833E-02 37800   0.557E-01    0.987E+00
DAV:  54    -0.132248642768E+04   -0.76211E-01   -0.61085E-01 39400   0.157E+00    0.104E+01
DAV:  55    -0.132252691582E+04   -0.40488E-01   -0.22472E-01 38200   0.760E-01    0.117E+01
DAV:  56    -0.132279435794E+04   -0.26744E+00   -0.55483E+00 41080   0.566E+00    0.912E+00
DAV:  57    -0.132273492465E+04    0.59433E-01   -0.38442E-01 39870   0.283E+00    0.761E+00
DAV:  58    -0.132271535898E+04    0.19566E-01   -0.29206E-01 45910   0.243E+00    0.877E+00
DAV:  59    -0.132269787879E+04    0.17480E-01   -0.28401E-01 45430   0.147E+00    0.107E+01
DAV:  60    -0.132270513478E+04   -0.72560E-02   -0.12662E-01 46290   0.913E-01    0.122E+01
DAV:  61    -0.132378453998E+04   -0.10794E+01   -0.25770E+00 43830   0.282E+00    0.324E+01
DAV:  62    -0.132535861594E+04   -0.15741E+01   -0.10131E+00 35660   0.247E+00    0.354E+01
DAV:  63    -0.132568742981E+04   -0.32881E+00   -0.14704E-01 36400   0.940E-01    0.369E+01
DAV:  64    -0.132596353088E+04   -0.27610E+00   -0.35953E-02 36160   0.469E-01    0.394E+01
DAV:  65    -0.132606838844E+04   -0.10486E+00   -0.62128E-02 35260   0.417E-01    0.413E+01
DAV:  66    -0.132707880632E+04   -0.10104E+01   -0.10560E-01 42070   0.170E+00    0.428E+01
DAV:  67    -0.132658977343E+04    0.48903E+00   -0.63925E-02 36380   0.816E-01    0.447E+01
DAV:  68    -0.132643253698E+04    0.15724E+00   -0.13341E-01 37730   0.132E+00    0.470E+01
DAV:  69    -0.132655826024E+04   -0.12572E+00   -0.14837E-01 35350   0.667E-01    0.478E+01
DAV:  70    -0.132666784875E+04   -0.10959E+00   -0.41058E-02 35640   0.374E-01    0.480E+01
DAV:  71    -0.132080100393E+04    0.58668E+01   -0.94888E+00 39480   0.767E+00    0.228E+01
DAV:  72    -0.132264851391E+04   -0.18475E+01   -0.23518E+00 38340   0.291E+00    0.127E+01
DAV:  73    -0.132324368486E+04   -0.59517E+00   -0.48735E-01 36130   0.183E+00    0.117E+01
DAV:  74    -0.132325485087E+04   -0.11166E-01   -0.10196E-01 38880   0.784E-01    0.116E+01
DAV:  75    -0.132327450117E+04   -0.19650E-01   -0.27528E-02 36500   0.272E-01    0.120E+01
DAV:  76    -0.132306996045E+04    0.20454E+00   -0.10792E-01 42600   0.158E+00    0.112E+01
DAV:  77    -0.132298922510E+04    0.80735E-01   -0.72513E-02 41860   0.885E-01    0.110E+01
DAV:  78    -0.132303845064E+04   -0.49226E-01   -0.29177E-02 40850   0.534E-01    0.111E+01
DAV:  79    -0.132306346269E+04   -0.25012E-01   -0.61992E-02 35880   0.215E-01    0.114E+01
DAV:  80    -0.132324354834E+04   -0.18009E+00   -0.41430E-01 40730   0.163E+00    0.128E+01
DAV:  81    -0.132327113638E+04   -0.27588E-01   -0.20136E-01 40400   0.105E+00    0.129E+01
DAV:  82    -0.132326476372E+04    0.63727E-02   -0.44434E-02 43860   0.487E-01    0.129E+01
DAV:  83    -0.132323658631E+04    0.28177E-01   -0.95846E-03 41720   0.362E-01    0.130E+01
DAV:  84    -0.132321631647E+04    0.20270E-01   -0.16423E-02 42380   0.562E-01    0.133E+01
DAV:  85    -0.132322560487E+04   -0.92884E-02   -0.11431E-02 42600   0.247E-01    0.135E+01
DAV:  86    -0.132310016460E+04    0.12544E+00   -0.36680E-02 40340   0.107E+00    0.127E+01
DAV:  87    -0.132315703880E+04   -0.56874E-01   -0.19085E-02 39940   0.327E-01    0.124E+01
DAV:  88    -0.132326378492E+04   -0.10675E+00   -0.28848E-02 40700   0.955E-01    0.111E+01
DAV:  89    -0.132341043239E+04   -0.14665E+00   -0.58600E-02 43410   0.106E+00    0.994E+00
DAV:  90    -0.132351158448E+04   -0.10115E+00   -0.56471E-02 46050   0.106E+00    0.941E+00
DAV:  91    -0.132351966046E+04   -0.80760E-02   -0.36440E-01 42510   0.534E+00    0.108E+01
DAV:  92    -0.132358956540E+04   -0.69905E-01   -0.40261E-01 37270   0.107E+00    0.111E+01
DAV:  93    -0.132354325444E+04    0.46311E-01   -0.23105E-02 42010   0.540E-01    0.110E+01
DAV:  94    -0.132352557094E+04    0.17684E-01   -0.17790E-02 46790   0.526E-01    0.112E+01
DAV:  95    -0.132352776577E+04   -0.21948E-02   -0.12332E-02 45450   0.517E-01    0.113E+01
DAV:  96    -0.132323821226E+04    0.28955E+00   -0.20529E-01 40280   0.243E+00    0.101E+01
DAV:  97    -0.132330690307E+04   -0.68691E-01   -0.10033E-01 41120   0.119E+00    0.967E+00
DAV:  98    -0.132333240732E+04   -0.25504E-01   -0.52982E-02 46910   0.702E-01    0.968E+00
DAV:  99    -0.132338364503E+04   -0.51238E-01   -0.29314E-02 46780   0.523E-01    0.987E+00
DAV: 100    -0.132341668250E+04   -0.33037E-01   -0.11891E-02 46000   0.440E-01    0.101E+01
DAV: 101    -0.132342374794E+04   -0.70654E-02   -0.54164E-02 43000   0.133E+00    0.109E+01
DAV: 102    -0.132344445988E+04   -0.20712E-01   -0.49835E-02 45800   0.739E-01    0.114E+01
DAV: 103    -0.132346247223E+04   -0.18012E-01   -0.69934E-02 36040   0.253E-01    0.116E+01
DAV: 104    -0.132351962625E+04   -0.57154E-01   -0.27141E-01 34370   0.270E-01    0.133E+01
DAV: 105    -0.132358644786E+04   -0.66822E-01   -0.11614E-01 34800   0.505E-01    0.137E+01
DAV: 106    -0.132330633165E+04    0.28012E+00   -0.75894E-01 41260   0.450E+00    0.774E+00
DAV: 107    -0.132364628301E+04   -0.33995E+00   -0.29357E-01 36900   0.167E+00    0.652E+00
DAV: 108    -0.132363713792E+04    0.91451E-02   -0.70029E-02 46380   0.866E-01    0.589E+00
DAV: 109    -0.132363226241E+04    0.48755E-02   -0.31442E-02 46230   0.585E-01    0.554E+00
DAV: 110    -0.132362928275E+04    0.29797E-02   -0.12657E-02 39890   0.273E-01    0.538E+00
DAV: 111    -0.132366971538E+04   -0.40433E-01   -0.19992E-01 39460   0.275E+00    0.477E+00
DAV: 112    -0.132366588934E+04    0.38260E-02   -0.66460E-02 38980   0.912E-01    0.416E+00
DAV: 113    -0.132366425067E+04    0.16387E-02   -0.17950E-02 47080   0.636E-01    0.382E+00
DAV: 114    -0.132367148572E+04   -0.72350E-02   -0.16257E-02 45260   0.416E-01    0.363E+00
DAV: 115    -0.132367315913E+04   -0.16734E-02   -0.66369E-03 40480   0.209E-01    0.351E+00
DAV: 116    -0.132362782618E+04    0.45333E-01   -0.98994E-02 41170   0.236E+00    0.314E+00
DAV: 117    -0.132361921454E+04    0.86116E-02   -0.41231E-02 37920   0.537E-01    0.294E+00
DAV: 118    -0.132361650144E+04    0.27131E-02   -0.66104E-03 45650   0.257E-01    0.287E+00
DAV: 119    -0.132361564188E+04    0.85957E-03   -0.46020E-03 41940   0.193E-01    0.288E+00
DAV: 120    -0.132361495310E+04    0.68877E-03   -0.17096E-03 38100   0.113E-01    0.294E+00
DAV: 121    -0.132359788572E+04    0.17067E-01   -0.59972E-02 40830   0.156E+00    0.282E+00
DAV: 122    -0.132359860781E+04   -0.72209E-03   -0.27483E-02 38340   0.420E-01    0.260E+00
DAV: 123    -0.132359673500E+04    0.18728E-02   -0.45911E-03 41190   0.233E-01    0.247E+00
DAV: 124    -0.132359748971E+04   -0.75471E-03   -0.19748E-03 39040   0.171E-01    0.248E+00
DAV: 125    -0.132359939300E+04   -0.19033E-02   -0.12722E-03 38100   0.102E-01    0.251E+00
DAV: 126    -0.132359923475E+04    0.15825E-03   -0.47717E-04 36930   0.580E-02    0.249E+00
DAV: 127    -0.132359926023E+04   -0.25481E-04   -0.12052E-04 29600   0.245E-02
   1 F= -.13235993E+04 E0= -.13235993E+04  d E =-.132360E+04  mag=   114.0025
       N       E                     dE             d eps       ncg     rms          rms(c)
DAV:   1    -0.132361074797E+04   -0.11513E-01   -0.23620E-02 49090   0.694E-01    0.249E+00
DAV:   2    -0.132362759189E+04   -0.16844E-01   -0.24559E-01 39020   0.235E+00    0.324E+00
DAV:   3    -0.132358381390E+04    0.43778E-01   -0.14433E-01 38760   0.144E+00    0.100E+00
DAV:   4    -0.132358871313E+04   -0.48992E-02   -0.14553E-02 40800   0.424E-01    0.592E-01
DAV:   5    -0.132358756103E+04    0.11521E-02   -0.62332E-03 39110   0.266E-01    0.428E-01
DAV:   6    -0.132358735564E+04    0.20539E-03   -0.44819E-03 37470   0.211E-01    0.279E-01
DAV:   7    -0.132358679830E+04    0.55735E-03   -0.10274E-03 36670   0.111E-01    0.116E-01
DAV:   8    -0.132358679046E+04    0.78372E-05   -0.31182E-04 35260   0.428E-02
   2 F= -.13235868E+04 E0= -.13235868E+04  d E =0.124698E-01  mag=   114.0000
       N       E                     dE             d eps       ncg     rms          rms(c)
DAV:   1    -0.132362072643E+04   -0.33928E-01   -0.30764E-01 49150   0.252E+00    0.432E-01
DAV:   2    -0.132362947537E+04   -0.87489E-02   -0.76924E-02 37920   0.425E-01    0.246E-01
DAV:   3    -0.132362983774E+04   -0.36236E-03   -0.32015E-03 37310   0.141E-01    0.177E-01
DAV:   4    -0.132362957115E+04    0.26658E-03   -0.41179E-04 33780   0.601E-02    0.895E-02
DAV:   5    -0.132362965700E+04   -0.85850E-04   -0.61611E-05 21500   0.259E-02    0.633E-02
DAV:   6    -0.132362953963E+04    0.11737E-03   -0.79268E-05 24330   0.278E-02    0.377E-02
DAV:   7    -0.132362962613E+04   -0.86497E-04   -0.37439E-05 19440   0.177E-02    0.172E-02
DAV:   8    -0.132362957638E+04    0.49751E-04   -0.83780E-06 18030   0.805E-03
   3 F= -.13236296E+04 E0= -.13236296E+04  d E =-.427859E-01  mag=   114.0000
       N       E                     dE             d eps       ncg     rms          rms(c)
DAV:   1    -0.131979743364E+04    0.38322E+01   -0.18268E+02 49050   0.544E+01    0.954E+00
DAV:   2    -0.132393114474E+04   -0.41337E+01   -0.36059E+01 37700   0.951E+00    0.761E+00
DAV:   3    -0.132405268477E+04   -0.12154E+00   -0.16500E+00 37180   0.343E+00    0.349E+00
DAV:   4    -0.132403268925E+04    0.19996E-01   -0.16723E-01 38700   0.133E+00    0.185E+00
DAV:   5    -0.132402849644E+04    0.41928E-02   -0.51397E-02 41030   0.585E-01    0.127E+00
DAV:   6    -0.132402276332E+04    0.57331E-02   -0.46845E-02 39030   0.646E-01    0.105E+00
DAV:   7    -0.132402154702E+04    0.12163E-02   -0.16642E-02 40190   0.411E-01    0.326E-01
DAV:   8    -0.132402165934E+04   -0.11233E-03   -0.36641E-03 38560   0.109E-01    0.171E-01
DAV:   9    -0.132402139930E+04    0.26005E-03   -0.43151E-04 37150   0.686E-02    0.109E-01
DAV:  10    -0.132402153916E+04   -0.13987E-03   -0.16705E-04 33500   0.339E-02    0.598E-02
DAV:  11    -0.132402155345E+04   -0.14285E-04   -0.48823E-05 22050   0.184E-02
   4 F= -.13240216E+04 E0= -.13240216E+04  d E =-.391977E+00  mag=   114.0000
       N       E                     dE             d eps       ncg     rms          rms(c)
DAV:   1    -0.132395649998E+04    0.65039E-01   -0.28930E+00 49190   0.842E+00    0.136E+00
DAV:   2    -0.132404425223E+04   -0.87752E-01   -0.78344E-01 37560   0.140E+00    0.690E-01
DAV:   3    -0.132404647816E+04   -0.22259E-02   -0.27418E-02 37030   0.346E-01    0.364E-01
DAV:   4    -0.132404680079E+04   -0.32263E-03   -0.23978E-03 38970   0.118E-01    0.252E-01
DAV:   5    -0.132404633782E+04    0.46297E-03   -0.79534E-04 36890   0.867E-02    0.191E-01
DAV:   6    -0.132404642013E+04   -0.82309E-04   -0.63549E-04 38830   0.881E-02    0.836E-02
DAV:   7    -0.132404623232E+04    0.18781E-03   -0.24002E-04 36000   0.401E-02    0.333E-02
DAV:   8    -0.132404636761E+04   -0.13530E-03   -0.42660E-05 19940   0.192E-02    0.223E-02
DAV:   9    -0.132404634683E+04    0.20784E-04   -0.10037E-05 18310   0.904E-03
   5 F= -.13240463E+04 E0= -.13240463E+04  d E =-.247934E-01  mag=   114.0000
       N       E                     dE             d eps       ncg     rms          rms(c)
DAV:   1    -0.132348118084E+04    0.56519E+00   -0.25063E+01 46800   0.212E+01    0.341E+00
DAV:   2    -0.132402699827E+04   -0.54582E+00   -0.50794E+00 36760   0.368E+00    0.180E+00
DAV:   3    -0.132403744581E+04   -0.10448E-01   -0.16395E-01 36880   0.969E-01    0.109E+00
DAV:   4    -0.132403689740E+04    0.54842E-03   -0.21020E-02 38970   0.387E-01    0.680E-01
DAV:   5    -0.132403465388E+04    0.22435E-02   -0.33688E-03 38510   0.196E-01    0.485E-01
DAV:   6    -0.132403406949E+04    0.58439E-03   -0.36610E-03 43320   0.226E-01    0.230E-01
DAV:   7    -0.132403349619E+04    0.57330E-03   -0.19649E-03 39460   0.122E-01    0.122E-01
DAV:   8    -0.132403398560E+04   -0.48941E-03   -0.30987E-04 34080   0.553E-02    0.481E-02
DAV:   9    -0.132403397064E+04    0.14957E-04   -0.35544E-05 20170   0.159E-02
   6 F= -.13240340E+04 E0= -.13240340E+04  d E =0.123762E-01  mag=   114.0000
       N       E                     dE             d eps       ncg     rms          rms(c)
DAV:   1    -0.132191600362E+04    0.21180E+01   -0.13498E+02 43520   0.421E+01    0.666E+00
DAV:   2    -0.132394381466E+04   -0.20278E+01   -0.19806E+01 36320   0.753E+00    0.353E+00
DAV:   3    -0.132397405925E+04   -0.30245E-01   -0.55828E-01 37210   0.155E+00    0.165E+00
DAV:   4    -0.132396915453E+04    0.49047E-02   -0.33637E-02 40640   0.354E-01    0.119E+00
DAV:   5    -0.132396111459E+04    0.80399E-02   -0.88875E-03 42920   0.331E-01    0.663E-01
DAV:   6    -0.132395953464E+04    0.15800E-02   -0.86961E-03 42330   0.286E-01    0.313E-01
DAV:   7    -0.132395976992E+04   -0.23528E-03   -0.52889E-03 38280   0.197E-01    0.232E-01
DAV:   8    -0.132396060444E+04   -0.83452E-03   -0.90202E-04 35610   0.926E-02    0.742E-02
DAV:   9    -0.132396030819E+04    0.29625E-03   -0.13376E-04 29080   0.315E-02    0.546E-02
DAV:  10    -0.132396022940E+04    0.78784E-04   -0.41749E-05 20310   0.227E-02    0.309E-02
DAV:  11    -0.132396031256E+04   -0.83155E-04   -0.17704E-05 18970   0.146E-02    0.177E-02
DAV:  12    -0.132396029949E+04    0.13070E-04   -0.95861E-06 18150   0.917E-03
   7 F= -.13239603E+04 E0= -.13239603E+04  d E =0.736712E-01  mag=   114.0000
       N       E                     dE             d eps       ncg     rms          rms(c)
DAV:   1    -0.131693552727E+04    0.70248E+01   -0.21543E+02 49600   0.722E+01    0.128E+01
DAV:   2    -0.132359156720E+04   -0.66560E+01   -0.58425E+01 37970   0.125E+01    0.129E+01
DAV:   3    -0.132381937221E+04   -0.22781E+00   -0.79171E+00 37250   0.731E+00    0.868E+00
DAV:   4    -0.132367090197E+04    0.14847E+00   -0.59806E-01 38250   0.289E+00    0.333E+00
DAV:   5    -0.132364432865E+04    0.26573E-01   -0.11606E-01 41580   0.890E-01    0.200E+00
DAV:   6    -0.132363871672E+04    0.56119E-02   -0.48005E-02 40360   0.537E-01    0.123E+00
DAV:   7    -0.132363513510E+04    0.35816E-02   -0.16801E-02 41240   0.371E-01    0.726E-01
DAV:   8    -0.132363493404E+04    0.20106E-03   -0.99892E-03 40820   0.298E-01    0.395E-01
DAV:   9    -0.132363470505E+04    0.22899E-03   -0.32659E-03 37350   0.190E-01    0.197E-01
DAV:  10    -0.132363442023E+04    0.28482E-03   -0.75302E-04 37030   0.882E-02    0.957E-02
DAV:  11    -0.132363466757E+04   -0.24733E-03   -0.17082E-04 30640   0.331E-02    0.512E-02
DAV:  12    -0.132363472355E+04   -0.55981E-04   -0.30896E-05 19730   0.178E-02    0.265E-02
DAV:  13    -0.132363467982E+04    0.43730E-04   -0.29798E-05 19790   0.149E-02
   8 F= -.13236347E+04 E0= -.13236347E+04  d E =0.325620E+00  mag=   114.0000
       N       E                     dE             d eps       ncg     rms          rms(c)
DAV:   1    -0.132291032247E+04    0.72440E+00   -0.36060E+01 49630   0.288E+01    0.484E+00
DAV:   2    -0.132394323388E+04   -0.10329E+01   -0.91344E+00 38160   0.478E+00    0.298E+00
DAV:   3    -0.132398442017E+04   -0.41186E-01   -0.46040E-01 37230   0.160E+00    0.194E+00
DAV:   4    -0.132398098578E+04    0.34344E-02   -0.63494E-02 38390   0.728E-01    0.980E-01
DAV:   5    -0.132397757141E+04    0.34144E-02   -0.10469E-02 38470   0.278E-01    0.659E-01
DAV:   6    -0.132397634012E+04    0.12313E-02   -0.55533E-03 41590   0.225E-01    0.302E-01
DAV:   7    -0.132397623514E+04    0.10498E-03   -0.22738E-03 40780   0.128E-01    0.177E-01
DAV:   8    -0.132397613687E+04    0.98272E-04   -0.72570E-04 37300   0.864E-02    0.869E-02
DAV:   9    -0.132397633225E+04   -0.19539E-03   -0.13094E-04 26730   0.392E-02    0.469E-02
DAV:  10    -0.132397634774E+04   -0.15485E-04   -0.48747E-05 21140   0.202E-02
   9 F= -.13239763E+04 E0= -.13239763E+04  d E =-.341668E+00  mag=   114.0000
       N       E                     dE             d eps       ncg     rms          rms(c)
DAV:   1    -0.132361052138E+04    0.36581E+00   -0.13087E+01 49350   0.176E+01    0.289E+00
DAV:   2    -0.132401615018E+04   -0.40563E+00   -0.36410E+00 38340   0.297E+00    0.157E+00
DAV:   3    -0.132403154538E+04   -0.15395E-01   -0.14097E-01 37030   0.765E-01    0.846E-01
DAV:   4    -0.132403131641E+04    0.22897E-03   -0.94591E-03 40600   0.220E-01    0.538E-01
DAV:   5    -0.132403018022E+04    0.11362E-02   -0.41442E-03 41280   0.195E-01    0.419E-01
DAV:   6    -0.132403005205E+04    0.12817E-03   -0.39831E-03 38970   0.196E-01    0.251E-01
DAV:   7    -0.132402930211E+04    0.74994E-03   -0.13604E-03 39570   0.110E-01    0.951E-02
DAV:   8    -0.132402979462E+04   -0.49251E-03   -0.36849E-04 35860   0.536E-02    0.618E-02
DAV:   9    -0.132402972880E+04    0.65827E-04   -0.58267E-05 21700   0.231E-02    0.263E-02
DAV:  10    -0.132402973052E+04   -0.17274E-05   -0.16855E-05 18710   0.120E-02
  10 F= -.13240297E+04 E0= -.13240297E+04  d E =-.533828E-01  mag=   114.0000
       N       E                     dE             d eps       ncg     rms          rms(c)
DAV:   1    -0.132400383751E+04    0.25891E-01   -0.11234E+00 47530   0.474E+00    0.784E-01
DAV:   2    -0.132403143883E+04   -0.27601E-01   -0.25606E-01 36870   0.827E-01    0.395E-01
DAV:   3    -0.132403252675E+04   -0.10879E-02   -0.87227E-03 36990   0.211E-01    0.236E-01
DAV:   4    -0.132403201598E+04    0.51077E-03   -0.91732E-04 37470   0.798E-02    0.157E-01
DAV:   5    -0.132403210723E+04   -0.91250E-04   -0.12350E-04 24060   0.389E-02    0.116E-01
DAV:   6    -0.132403199211E+04    0.11512E-03   -0.19963E-04 32380   0.544E-02    0.470E-02
DAV:   7    -0.132403202724E+04   -0.35126E-04   -0.92517E-05 24000   0.253E-02
  11 F= -.13240320E+04 E0= -.13240320E+04  d E =-.229672E-02  mag=   114.0000
       N       E                     dE             d eps       ncg     rms          rms(c)
DAV:   1    -0.132342540384E+04    0.60659E+00   -0.26851E+01 45690   0.216E+01    0.361E+00
DAV:   2    -0.132399901178E+04   -0.57361E+00   -0.53261E+00 36340   0.379E+00    0.187E+00
DAV:   3    -0.132401070475E+04   -0.11693E-01   -0.16824E-01 37030   0.916E-01    0.101E+00
DAV:   4    -0.132400796903E+04    0.27357E-02   -0.16606E-02 39510   0.337E-01    0.709E-01
DAV:   5    -0.132400743667E+04    0.53236E-03   -0.29697E-03 38730   0.191E-01    0.523E-01
DAV:   6    -0.132400558419E+04    0.18525E-02   -0.34527E-03 43770   0.243E-01    0.246E-01
DAV:   7    -0.132400600247E+04   -0.41829E-03   -0.20473E-03 39150   0.126E-01    0.116E-01
DAV:   8    -0.132400599908E+04    0.33904E-05   -0.27088E-04 34230   0.535E-02
  12 F= -.13240060E+04 E0= -.13240060E+04  d E =0.260282E-01  mag=   114.0000
       N       E                     dE             d eps       ncg     rms          rms(c)
DAV:   1    -0.132367539546E+04    0.33061E+00   -0.11845E+01 48410   0.162E+01    0.251E+00
DAV:   2    -0.132398792575E+04   -0.31253E+00   -0.28274E+00 37070   0.269E+00    0.131E+00
DAV:   3    -0.132399575938E+04   -0.78336E-02   -0.92649E-02 36950   0.626E-01    0.656E-01
DAV:   4    -0.132399578595E+04   -0.26567E-04   -0.50704E-03 40080   0.137E-01    0.447E-01
DAV:   5    -0.132399454930E+04    0.12367E-02   -0.17920E-03 43850   0.144E-01    0.230E-01
DAV:   6    -0.132399449052E+04    0.58781E-04   -0.10206E-03 41770   0.102E-01    0.106E-01
DAV:   7    -0.132399440875E+04    0.81764E-04   -0.49562E-04 37540   0.639E-02    0.705E-02
DAV:   8    -0.132399458204E+04   -0.17329E-03   -0.87925E-05 22250   0.285E-02    0.330E-02
DAV:   9    -0.132399448875E+04    0.93284E-04   -0.26198E-05 19330   0.162E-02    0.276E-02
DAV:  10    -0.132399449282E+04   -0.40693E-05   -0.12117E-05 18430   0.126E-02
  13 F= -.13239945E+04 E0= -.13239945E+04  d E =0.115063E-01  mag=   114.0000
       N       E                     dE             d eps       ncg     rms          rms(c)
DAV:   1    -0.132344626715E+04    0.54822E+00   -0.31644E+01 42930   0.218E+01    0.352E+00
DAV:   2    -0.132402922453E+04   -0.58296E+00   -0.56182E+00 37270   0.399E+00    0.187E+00
DAV:   3    -0.132403536142E+04   -0.61369E-02   -0.15941E-01 37070   0.931E-01    0.104E+00
DAV:   4    -0.132403409009E+04    0.12713E-02   -0.12018E-02 39190   0.291E-01    0.700E-01
DAV:   5    -0.132403195300E+04    0.21371E-02   -0.32985E-03 41610   0.213E-01    0.508E-01
DAV:   6    -0.132403032802E+04    0.16250E-02   -0.59346E-03 41570   0.264E-01    0.357E-01
DAV:   7    -0.132403068270E+04   -0.35468E-03   -0.32103E-03 39360   0.159E-01    0.130E-01
DAV:   8    -0.132403033635E+04    0.34635E-03   -0.52156E-04 36170   0.678E-02    0.602E-02
DAV:   9    -0.132403045225E+04   -0.11590E-03   -0.56236E-05 22350   0.213E-02    0.341E-02
DAV:  10    -0.132403037924E+04    0.73012E-04   -0.17241E-05 18780   0.114E-02    0.234E-02
DAV:  11    -0.132403035034E+04    0.28901E-04   -0.63611E-06 18710   0.825E-03
  14 F= -.13240304E+04 E0= -.13240304E+04  d E =-.358575E-01  mag=   114.0000
       N       E                     dE             d eps       ncg     rms          rms(c)
DAV:   1    -0.132232014154E+04    0.17102E+01   -0.12337E+02 42620   0.377E+01    0.583E+00
DAV:   2    -0.132399229554E+04   -0.16722E+01   -0.16782E+01 36190   0.692E+00    0.330E+00
DAV:   3    -0.132401412015E+04   -0.21825E-01   -0.52485E-01 37210   0.165E+00    0.198E+00
DAV:   4    -0.132400895440E+04    0.51657E-02   -0.72571E-02 38970   0.749E-01    0.129E+00
DAV:   5    -0.132400116656E+04    0.77878E-02   -0.12252E-02 37880   0.363E-01    0.877E-01
DAV:   6    -0.132399728554E+04    0.38810E-02   -0.11284E-02 43300   0.363E-01    0.322E-01
DAV:   7    -0.132399767496E+04   -0.38942E-03   -0.57264E-03 39610   0.166E-01    0.186E-01
DAV:   8    -0.132399788632E+04   -0.21136E-03   -0.77219E-04 36490   0.815E-02    0.995E-02
DAV:   9    -0.132399801212E+04   -0.12580E-03   -0.10063E-04 25920   0.355E-02    0.603E-02
DAV:  10    -0.132399792011E+04    0.92013E-04   -0.52470E-05 22530   0.239E-02    0.379E-02
DAV:  11    -0.132399795048E+04   -0.30374E-04   -0.23080E-05 18730   0.128E-02
  15 F= -.13239980E+04 E0= -.13239980E+04  d E =0.323999E-01  mag=   114.0000
       N       E                     dE             d eps       ncg     rms          rms(c)
DAV:   1    -0.132354898184E+04    0.44894E+00   -0.22989E+01 46220   0.201E+01    0.324E+00
DAV:   2    -0.132403171215E+04   -0.48273E+00   -0.45833E+00 36710   0.354E+00    0.163E+00
DAV:   3    -0.132404185227E+04   -0.10140E-01   -0.15310E-01 36900   0.845E-01    0.888E-01
DAV:   4    -0.132404197034E+04   -0.11807E-03   -0.13515E-02 39980   0.271E-01    0.652E-01
DAV:   5    -0.132404022884E+04    0.17415E-02   -0.34645E-03 39030   0.191E-01    0.514E-01
DAV:   6    -0.132403933540E+04    0.89344E-03   -0.34148E-03 43300   0.215E-01    0.233E-01
DAV:   7    -0.132403882018E+04    0.51522E-03   -0.15974E-03 40540   0.103E-01    0.918E-02
DAV:   8    -0.132403919326E+04   -0.37308E-03   -0.35180E-04 35900   0.527E-02    0.563E-02
DAV:   9    -0.132403914930E+04    0.43960E-04   -0.35351E-05 20550   0.215E-02
  16 F= -.13240391E+04 E0= -.13240391E+04  d E =-.411988E-01  mag=   114.0000
       N       E                     dE             d eps       ncg     rms          rms(c)
DAV:   1    -0.132288872495E+04    0.11505E+01   -0.44349E+01 48850   0.311E+01    0.504E+00
DAV:   2    -0.132402438338E+04   -0.11357E+01   -0.10221E+01 36510   0.510E+00    0.268E+00
DAV:   3    -0.132404924826E+04   -0.24865E-01   -0.32096E-01 36810   0.117E+00    0.123E+00
DAV:   4    -0.132404883903E+04    0.40923E-03   -0.21287E-02 39980   0.302E-01    0.896E-01
DAV:   5    -0.132404678330E+04    0.20557E-02   -0.50657E-03 43060   0.253E-01    0.626E-01
DAV:   6    -0.132404444804E+04    0.23353E-02   -0.81551E-03 43730   0.309E-01    0.425E-01
DAV:   7    -0.132404524375E+04   -0.79572E-03   -0.44732E-03 39270   0.200E-01    0.140E-01
DAV:   8    -0.132404513172E+04    0.11203E-03   -0.57190E-04 36710   0.746E-02    0.833E-02
DAV:   9    -0.132404506326E+04    0.68464E-04   -0.87553E-05 24370   0.301E-02    0.422E-02
DAV:  10    -0.132404505004E+04    0.13222E-04   -0.19600E-05 19390   0.143E-02
  17 F= -.13240451E+04 E0= -.13240451E+04  d E =-.590074E-02  mag=   114.0000
       N       E                     dE             d eps       ncg     rms          rms(c)
DAV:   1    -0.132307427673E+04    0.97079E+00   -0.38955E+01 46160   0.274E+01    0.452E+00
DAV:   2    -0.132401958188E+04   -0.94531E+00   -0.87489E+00 37400   0.480E+00    0.247E+00
DAV:   3    -0.132403673958E+04   -0.17158E-01   -0.30049E-01 37000   0.128E+00    0.145E+00
DAV:   4    -0.132403602054E+04    0.71903E-03   -0.37159E-02 39280   0.527E-01    0.973E-01
DAV:   5    -0.132403195324E+04    0.40673E-02   -0.59381E-03 38090   0.263E-01    0.692E-01
DAV:   6    -0.132402944199E+04    0.25113E-02   -0.55892E-03 42890   0.278E-01    0.283E-01
DAV:   7    -0.132402926794E+04    0.17405E-03   -0.28994E-03 40440   0.132E-01    0.142E-01
DAV:   8    -0.132402941989E+04   -0.15195E-03   -0.60806E-04 36940   0.693E-02    0.722E-02
DAV:   9    -0.132402946727E+04   -0.47382E-04   -0.61500E-05 23570   0.295E-02
  18 F= -.13240295E+04 E0= -.13240295E+04  d E =0.155828E-01  mag=   114.0000
       N       E                     dE             d eps       ncg     rms          rms(c)
DAV:   1    -0.132356616068E+04    0.46326E+00   -0.16308E+01 48200   0.202E+01    0.333E+00
DAV:   2    -0.132406395308E+04   -0.49779E+00   -0.44657E+00 36990   0.339E+00    0.164E+00
DAV:   3    -0.132407487567E+04   -0.10923E-01   -0.14179E-01 37230   0.778E-01    0.797E-01
DAV:   4    -0.132407523378E+04   -0.35812E-03   -0.88552E-03 39760   0.188E-01    0.582E-01
DAV:   5    -0.132407352643E+04    0.17074E-02   -0.25934E-03 42840   0.177E-01    0.429E-01
DAV:   6    -0.132407333752E+04    0.18891E-03   -0.44318E-03 42900   0.226E-01    0.294E-01
DAV:   7    -0.132407243845E+04    0.89907E-03   -0.20009E-03 39510   0.136E-01    0.740E-02
DAV:   8    -0.132407298764E+04   -0.54919E-03   -0.24130E-04 35390   0.405E-02    0.487E-02
DAV:   9    -0.132407304627E+04   -0.58635E-04   -0.35817E-05 19290   0.180E-02    0.268E-02
DAV:  10    -0.132407300823E+04    0.38045E-04   -0.12147E-05 18740   0.966E-03
  19 F= -.13240730E+04 E0= -.13240730E+04  d E =-.435410E-01  mag=   114.0000
       N       E                     dE             d eps       ncg     rms          rms(c)
DAV:   1    -0.132398668029E+04    0.86366E-01   -0.67159E+00 43470   0.916E+00    0.139E+00
DAV:   2    -0.132407616248E+04   -0.89482E-01   -0.91282E-01 35960   0.163E+00    0.702E-01
DAV:   3    -0.132407775600E+04   -0.15935E-02   -0.28730E-02 37240   0.364E-01    0.383E-01
DAV:   4    -0.132407712657E+04    0.62943E-03   -0.27171E-03 39280   0.134E-01    0.277E-01
DAV:   5    -0.132407724827E+04   -0.12169E-03   -0.79253E-04 36420   0.932E-02    0.201E-01
DAV:   6    -0.132407671861E+04    0.52965E-03   -0.76613E-04 41670   0.987E-02    0.781E-02
DAV:   7    -0.132407696212E+04   -0.24350E-03   -0.32698E-04 38140   0.415E-02    0.330E-02
DAV:   8    -0.132407694099E+04    0.21128E-04   -0.37036E-05 19520   0.168E-02
  20 F= -.13240769E+04 E0= -.13240769E+04  d E =-.393276E-02  mag=   114.0000
       N       E                     dE             d eps       ncg     rms          rms(c)
DAV:   1    -0.132399258920E+04    0.84373E-01   -0.75108E+00 42630   0.897E+00    0.134E+00
DAV:   2    -0.132407584535E+04   -0.83256E-01   -0.88859E-01 35440   0.161E+00    0.670E-01
DAV:   3    -0.132407692503E+04   -0.10797E-02   -0.26623E-02 37270   0.333E-01    0.344E-01
DAV:   4    -0.132407637265E+04    0.55238E-03   -0.23238E-03 39390   0.118E-01    0.261E-01
DAV:   5    -0.132407638680E+04   -0.14154E-04   -0.88225E-04 36560   0.973E-02    0.197E-01
DAV:   6    -0.132407586028E+04    0.52652E-03   -0.78363E-04 41360   0.979E-02    0.725E-02
DAV:   7    -0.132407615567E+04   -0.29540E-03   -0.28456E-04 36610   0.388E-02    0.319E-02
DAV:   8    -0.132407608631E+04    0.69367E-04   -0.26421E-05 19200   0.147E-02    0.204E-02
DAV:   9    -0.132407608723E+04   -0.92637E-06   -0.57851E-06 18020   0.756E-03
  21 F= -.13240761E+04 E0= -.13240761E+04  d E =0.853755E-03  mag=   114.0000
       N       E                     dE             d eps       ncg     rms          rms(c)
DAV:   1    -0.132375400764E+04    0.32208E+00   -0.27235E+01 42460   0.167E+01    0.259E+00
DAV:   2    -0.132405605543E+04   -0.30205E+00   -0.32000E+00 35410   0.303E+00    0.129E+00
DAV:   3    -0.132405989245E+04   -0.38370E-02   -0.89755E-02 37290   0.622E-01    0.659E-01
DAV:   4    -0.132405827782E+04    0.16146E-02   -0.85958E-03 39480   0.234E-01    0.507E-01
DAV:   5    -0.132405801023E+04    0.26759E-03   -0.28700E-03 39410   0.175E-01    0.364E-01
DAV:   6    -0.132405674893E+04    0.12613E-02   -0.26679E-03 42310   0.185E-01    0.143E-01
DAV:   7    -0.132405723356E+04   -0.48463E-03   -0.11036E-03 38580   0.791E-02    0.647E-02
DAV:   8    -0.132405724371E+04   -0.10150E-04   -0.10732E-04 26060   0.299E-02
  22 F= -.13240572E+04 E0= -.13240572E+04  d E =0.188435E-01  mag=   114.0000
       N       E                     dE             d eps       ncg     rms          rms(c)
DAV:   1    -0.132320017037E+04    0.85706E+00   -0.73733E+01 41330   0.273E+01    0.428E+00
DAV:   2    -0.132400343065E+04   -0.80326E+00   -0.85597E+00 35830   0.506E+00    0.210E+00
DAV:   3    -0.132401235000E+04   -0.89194E-02   -0.23329E-01 37320   0.999E-01    0.103E+00
DAV:   4    -0.132400999680E+04    0.23532E-02   -0.16776E-02 39980   0.280E-01    0.785E-01
DAV:   5    -0.132400690283E+04    0.30940E-02   -0.71699E-03 40640   0.281E-01    0.610E-01
DAV:   6    -0.132400617122E+04    0.73162E-03   -0.87737E-03 41100   0.308E-01    0.339E-01
DAV:   7    -0.132400521002E+04    0.96120E-03   -0.32727E-03 38900   0.156E-01    0.101E-01
DAV:   8    -0.132400584377E+04   -0.63375E-03   -0.43992E-04 36330   0.550E-02    0.735E-02
DAV:   9    -0.132400580762E+04    0.36143E-04   -0.55646E-05 21860   0.262E-02
  23 F= -.13240058E+04 E0= -.13240058E+04  d E =0.514361E-01  mag=   114.0000
       N       E                     dE             d eps       ncg     rms          rms(c)
DAV:   1    -0.132228474428E+04    0.17211E+01   -0.73122E+01 46570   0.372E+01    0.616E+00
DAV:   2    -0.132394307804E+04   -0.16583E+01   -0.15391E+01 35840   0.639E+00    0.318E+00
DAV:   3    -0.132397905778E+04   -0.35980E-01   -0.49319E-01 37110   0.146E+00    0.154E+00
DAV:   4    -0.132397980969E+04   -0.75191E-03   -0.48403E-02 39350   0.540E-01    0.121E+00
DAV:   5    -0.132397477167E+04    0.50380E-02   -0.11658E-02 38770   0.350E-01    0.877E-01
DAV:   6    -0.132397171604E+04    0.30556E-02   -0.87909E-03 44090   0.376E-01    0.368E-01
DAV:   7    -0.132397184414E+04   -0.12810E-03   -0.48907E-03 39660   0.170E-01    0.133E-01
DAV:   8    -0.132397262241E+04   -0.77826E-03   -0.64220E-04 36110   0.642E-02    0.733E-02
DAV:   9    -0.132397257707E+04    0.45337E-04   -0.70655E-05 23040   0.248E-02
  24 F= -.13239726E+04 E0= -.13239726E+04  d E =0.332306E-01  mag=   114.0000
       N       E                     dE             d eps       ncg     rms          rms(c)
DAV:   1    -0.131898961988E+04    0.49830E+01   -0.14716E+02 49360   0.588E+01    0.103E+01
DAV:   2    -0.132362097577E+04   -0.46314E+01   -0.41207E+01 38070   0.102E+01    0.927E+00
DAV:   3    -0.132377886924E+04   -0.15789E+00   -0.43063E+00 37480   0.523E+00    0.598E+00
DAV:   4    -0.132367938982E+04    0.99479E-01   -0.34941E-01 38510   0.209E+00    0.227E+00
DAV:   5    -0.132366979646E+04    0.95934E-02   -0.60281E-02 41530   0.579E-01    0.162E+00
DAV:   6    -0.132366180192E+04    0.79945E-02   -0.30124E-02 39310   0.529E-01    0.946E-01
DAV:   7    -0.132366004164E+04    0.17603E-02   -0.12406E-02 41260   0.375E-01    0.468E-01
DAV:   8    -0.132365966826E+04    0.37339E-03   -0.55856E-03 38360   0.209E-01    0.222E-01
DAV:   9    -0.132366005488E+04   -0.38663E-03   -0.11787E-03 37430   0.102E-01    0.132E-01
DAV:  10    -0.132366012758E+04   -0.72698E-04   -0.25831E-04 34190   0.445E-02    0.939E-02
DAV:  11    -0.132366014008E+04   -0.12500E-04   -0.59707E-05 23730   0.231E-02
  25 F= -.13236601E+04 E0= -.13236601E+04  d E =0.312437E+00  mag=   114.0000
       N       E                     dE             d eps       ncg     rms          rms(c)
DAV:   1    -0.132296121139E+04    0.69892E+00   -0.34109E+01 50340   0.283E+01    0.458E+00
DAV:   2    -0.132395203835E+04   -0.99083E+00   -0.88668E+00 37980   0.476E+00    0.334E+00
DAV:   3    -0.132398636304E+04   -0.34325E-01   -0.61385E-01 37150   0.200E+00    0.242E+00
DAV:   4    -0.132397744636E+04    0.89167E-02   -0.81995E-02 38890   0.889E-01    0.995E-01
DAV:   5    -0.132397367715E+04    0.37692E-02   -0.98867E-03 40440   0.236E-01    0.687E-01
DAV:   6    -0.132397128615E+04    0.23910E-02   -0.57040E-03 42130   0.251E-01    0.371E-01
DAV:   7    -0.132397124369E+04    0.42451E-04   -0.30511E-03 40630   0.173E-01    0.194E-01
DAV:   8    -0.132397088564E+04    0.35805E-03   -0.11079E-03 37340   0.994E-02    0.122E-01
DAV:   9    -0.132397089568E+04   -0.10039E-04   -0.24549E-04 31500   0.507E-02
  26 F= -.13239709E+04 E0= -.13239709E+04  d E =-.310756E+00  mag=   114.0000
       N       E                     dE             d eps       ncg     rms          rms(c)
DAV:   1    -0.132372173934E+04    0.24915E+00   -0.91393E+00 50020   0.148E+01    0.237E+00
DAV:   2    -0.132400579988E+04   -0.28406E+00   -0.25387E+00 37930   0.243E+00    0.147E+00
DAV:   3    -0.132401426184E+04   -0.84620E-02   -0.13037E-01 37060   0.845E-01    0.104E+00
DAV:   4    -0.132401436243E+04   -0.10059E-03   -0.20501E-02 38760   0.402E-01    0.529E-01
DAV:   5    -0.132401261643E+04    0.17460E-02   -0.24836E-03 38490   0.147E-01    0.343E-01
DAV:   6    -0.132401219730E+04    0.41913E-03   -0.17025E-03 42420   0.128E-01    0.156E-01
DAV:   7    -0.132401221322E+04   -0.15923E-04   -0.71146E-04 39850   0.709E-02    0.883E-02
DAV:   8    -0.132401212815E+04    0.85072E-04   -0.21301E-04 32370   0.423E-02    0.517E-02
DAV:   9    -0.132401218443E+04   -0.56279E-04   -0.37556E-05 20290   0.207E-02    0.313E-02
DAV:  10    -0.132401219145E+04   -0.70168E-05   -0.11695E-05 18690   0.966E-03
  27 F= -.13240122E+04 E0= -.13240122E+04  d E =-.412958E-01  mag=   114.0000
       N       E                     dE             d eps       ncg     rms          rms(c)
DAV:   1    -0.132400324575E+04    0.89387E-02   -0.41281E-01 49030   0.314E+00    0.503E-01
DAV:   2    -0.132401619033E+04   -0.12945E-01   -0.11814E-01 37570   0.523E-01    0.266E-01
DAV:   3    -0.132401669389E+04   -0.50356E-03   -0.40446E-03 36970   0.137E-01    0.165E-01
DAV:   4    -0.132401638199E+04    0.31190E-03   -0.51434E-04 34260   0.588E-02    0.110E-01
DAV:   5    -0.132401653073E+04   -0.14874E-03   -0.84122E-05 21780   0.316E-02    0.767E-02
DAV:   6    -0.132401644188E+04    0.88857E-04   -0.86989E-05 24890   0.347E-02    0.273E-02
DAV:   7    -0.132401645442E+04   -0.12539E-04   -0.44686E-05 19600   0.162E-02
  28 F= -.13240165E+04 E0= -.13240165E+04  d E =-.426297E-02  mag=   114.0000
       N       E                     dE             d eps       ncg     rms          rms(c)
DAV:   1    -0.132360122366E+04    0.41522E+00   -0.15325E+01 47830   0.182E+01    0.291E+00
DAV:   2    -0.132401292803E+04   -0.41170E+00   -0.37659E+00 36700   0.307E+00    0.150E+00
DAV:   3    -0.132402152655E+04   -0.85985E-02   -0.12338E-01 37030   0.755E-01    0.834E-01
DAV:   4    -0.132401978059E+04    0.17460E-02   -0.12636E-02 39790   0.284E-01    0.606E-01
DAV:   5    -0.132401952718E+04    0.25341E-03   -0.23942E-03 39870   0.167E-01    0.442E-01
DAV:   6    -0.132401778551E+04    0.17417E-02   -0.24171E-03 43790   0.200E-01    0.175E-01
DAV:   7    -0.132401813704E+04   -0.35153E-03   -0.12948E-03 39230   0.907E-02    0.808E-02
DAV:   8    -0.132401806621E+04    0.70838E-04   -0.20118E-04 32620   0.424E-02    0.422E-02
DAV:   9    -0.132401800984E+04    0.56368E-04   -0.25632E-05 19930   0.167E-02    0.226E-02
DAV:  10    -0.132401804907E+04   -0.39230E-04   -0.13265E-05 18670   0.116E-02
  29 F= -.13240180E+04 E0= -.13240180E+04  d E =-.159465E-02  mag=   114.0000
       N       E                     dE             d eps       ncg     rms          rms(c)
DAV:   1    -0.132345932281E+04    0.55869E+00   -0.20944E+01 47280   0.207E+01    0.337E+00
DAV:   2    -0.132400294586E+04   -0.54362E+00   -0.49676E+00 35830   0.349E+00    0.170E+00
DAV:   3    -0.132401192244E+04   -0.89766E-02   -0.14650E-01 36930   0.750E-01    0.781E-01
DAV:   4    -0.132401219012E+04   -0.26768E-03   -0.10239E-02 40490   0.216E-01    0.624E-01
DAV:   5    -0.132401050348E+04    0.16866E-02   -0.33988E-03 41280   0.195E-01    0.482E-01
DAV:   6    -0.132400975593E+04    0.74755E-03   -0.35903E-03 44240   0.232E-01    0.213E-01
DAV:   7    -0.132400935413E+04    0.40180E-03   -0.14272E-03 38350   0.993E-02    0.629E-02
DAV:   8    -0.132400974994E+04   -0.39582E-03   -0.14995E-04 30610   0.298E-02    0.415E-02
DAV:   9    -0.132400970577E+04    0.44169E-04   -0.16878E-05 18950   0.137E-02
  30 F= -.13240097E+04 E0= -.13240097E+04  d E =0.834329E-02  mag=   114.0000
       N       E                     dE             d eps       ncg     rms          rms(c)
DAV:   1    -0.131922273169E+04    0.47870E+01   -0.15201E+02 49130   0.539E+01    0.101E+01
DAV:   2    -0.132409999439E+04   -0.48773E+01   -0.41390E+01 37790   0.102E+01    0.190E+01
DAV:   3    -0.132360794268E+04    0.49205E+00   -0.91901E+00 37260   0.717E+00    0.686E+00
DAV:   4    -0.132378263494E+04   -0.17469E+00   -0.40355E-01 37210   0.225E+00    0.345E+00
DAV:   5    -0.132376241186E+04    0.20223E-01   -0.69222E-02 40160   0.740E-01    0.213E+00
DAV:   6    -0.132375108159E+04    0.11330E-01   -0.51269E-02 45680   0.721E-01    0.103E+00
DAV:   7    -0.132375145106E+04   -0.36946E-03   -0.24645E-02 40340   0.368E-01    0.674E-01
DAV:   8    -0.132375047151E+04    0.97955E-03   -0.73856E-03 40690   0.298E-01    0.438E-01
DAV:   9    -0.132375030048E+04    0.17102E-03   -0.33479E-03 38300   0.174E-01    0.201E-01
DAV:  10    -0.132374967162E+04    0.62886E-03   -0.56075E-04 35560   0.705E-02    0.114E-01
DAV:  11    -0.132375000134E+04   -0.32973E-03   -0.20659E-04 32380   0.316E-02    0.758E-02
DAV:  12    -0.132374995273E+04    0.48617E-04   -0.27300E-05 19610   0.148E-02
  31 F= -.13237500E+04 E0= -.13237500E+04  d E =0.259753E+00  mag=   114.0000
       N       E                     dE             d eps       ncg     rms          rms(c)
DAV:   1    -0.132316670011E+04    0.58330E+00   -0.24868E+01 49850   0.249E+01    0.412E+00
DAV:   2    -0.132396326045E+04   -0.79656E+00   -0.69783E+00 38240   0.411E+00    0.256E+00
DAV:   3    -0.132399084010E+04   -0.27580E-01   -0.35167E-01 37340   0.146E+00    0.182E+00
DAV:   4    -0.132398765955E+04    0.31805E-02   -0.54931E-02 38770   0.683E-01    0.856E-01
DAV:   5    -0.132398488249E+04    0.27771E-02   -0.59314E-03 39400   0.223E-01    0.589E-01
DAV:   6    -0.132398381520E+04    0.10673E-02   -0.39223E-03 42020   0.199E-01    0.277E-01
DAV:   7    -0.132398347753E+04    0.33767E-03   -0.18128E-03 40570   0.118E-01    0.131E-01
DAV:   8    -0.132398369131E+04   -0.21378E-03   -0.59753E-04 37070   0.709E-02    0.803E-02
DAV:   9    -0.132398361426E+04    0.77054E-04   -0.93001E-05 24210   0.334E-02    0.475E-02
DAV:  10    -0.132398369445E+04   -0.80195E-04   -0.27517E-05 19800   0.171E-02    0.289E-02
DAV:  11    -0.132398369853E+04   -0.40791E-05   -0.16646E-05 20100   0.104E-02
  32 F= -.13239837E+04 E0= -.13239837E+04  d E =-.233746E+00  mag=   114.0000
       N       E                     dE             d eps       ncg     rms          rms(c)
DAV:   1    -0.132380369414E+04    0.18000E+00   -0.66559E+00 49500   0.126E+01    0.208E+00
DAV:   2    -0.132401914589E+04   -0.21545E+00   -0.19132E+00 37910   0.206E+00    0.110E+00
DAV:   3    -0.132402562971E+04   -0.64838E-02   -0.70220E-02 37290   0.536E-01    0.634E-01
DAV:   4    -0.132402611949E+04   -0.48978E-03   -0.74389E-03 39190   0.218E-01    0.432E-01
DAV:   5    -0.132402513570E+04    0.98379E-03   -0.21509E-03 38820   0.137E-01    0.327E-01
DAV:   6    -0.132402523071E+04   -0.95014E-04   -0.16453E-03 42290   0.140E-01    0.127E-01
DAV:   7    -0.132402493678E+04    0.29393E-03   -0.53617E-04 39080   0.638E-02    0.618E-02
DAV:   8    -0.132402511288E+04   -0.17610E-03   -0.13430E-04 26680   0.341E-02    0.400E-02
DAV:   9    -0.132402506821E+04    0.44669E-04   -0.22269E-05 19560   0.158E-02
  33 F= -.13240251E+04 E0= -.13240251E+04  d E =-.413697E-01  mag=   114.0000
       N       E                     dE             d eps       ncg     rms          rms(c)
DAV:   1    -0.132398962969E+04    0.35483E-01   -0.13964E+00 49310   0.525E+00    0.893E-01
DAV:   2    -0.132403602360E+04   -0.46394E-01   -0.41513E-01 37460   0.847E-01    0.490E-01
DAV:   3    -0.132403708782E+04   -0.10642E-02   -0.13703E-02 36980   0.201E-01    0.259E-01
DAV:   4    -0.132403738410E+04   -0.29627E-03   -0.13617E-03 37150   0.847E-02    0.201E-01
DAV:   5    -0.132403699936E+04    0.38473E-03   -0.54869E-04 32740   0.672E-02    0.151E-01
DAV:   6    -0.132403716806E+04   -0.16870E-03   -0.31591E-04 32330   0.616E-02    0.494E-02
DAV:   7    -0.132403712420E+04    0.43862E-04   -0.86649E-05 21660   0.230E-02
  34 F= -.13240371E+04 E0= -.13240371E+04  d E =-.120560E-01  mag=   114.0000
       N       E                     dE             d eps       ncg     rms          rms(c)
DAV:   1    -0.132390481819E+04    0.13235E+00   -0.50287E+00 48910   0.987E+00    0.161E+00
DAV:   2    -0.132403666198E+04   -0.13184E+00   -0.11528E+00 37240   0.159E+00    0.837E-01
DAV:   3    -0.132404052662E+04   -0.38646E-02   -0.33550E-02 36930   0.389E-01    0.482E-01
DAV:   4    -0.132403996337E+04    0.56325E-03   -0.34802E-03 39080   0.153E-01    0.335E-01
DAV:   5    -0.132404020046E+04   -0.23709E-03   -0.16290E-03 39700   0.121E-01    0.241E-01
DAV:   6    -0.132403956066E+04    0.63981E-03   -0.10904E-03 39830   0.109E-01    0.939E-02
DAV:   7    -0.132403988981E+04   -0.32916E-03   -0.32350E-04 35890   0.487E-02    0.407E-02
DAV:   8    -0.132403977922E+04    0.11059E-03   -0.53112E-05 20810   0.210E-02    0.284E-02
DAV:   9    -0.132403980876E+04   -0.29537E-04   -0.10704E-05 18500   0.109E-02
  35 F= -.13240398E+04 E0= -.13240398E+04  d E =-.268456E-02  mag=   114.0000
       N       E                     dE             d eps       ncg     rms          rms(c)
DAV:   1    -0.132402094531E+04    0.18834E-01   -0.11547E+00 47100   0.421E+00    0.670E-01
DAV:   2    -0.132404416454E+04   -0.23219E-01   -0.21831E-01 37950   0.732E-01    0.366E-01
DAV:   3    -0.132404437418E+04   -0.20964E-03   -0.75572E-03 36760   0.194E-01    0.226E-01
DAV:   4    -0.132404445128E+04   -0.77109E-04   -0.54051E-04 38170   0.586E-02    0.137E-01
DAV:   5    -0.132404413179E+04    0.31949E-03   -0.29216E-04 31580   0.492E-02    0.110E-01
DAV:   6    -0.132404422721E+04   -0.95415E-04   -0.32886E-04 31760   0.539E-02    0.603E-02
DAV:   7    -0.132404409113E+04    0.13607E-03   -0.12068E-04 25450   0.351E-02    0.316E-02
DAV:   8    -0.132404413510E+04   -0.43963E-04   -0.28375E-05 19560   0.160E-02
  36 F= -.13240441E+04 E0= -.13240441E+04  d E =-.432633E-02  mag=   114.0000
       N       E                     dE             d eps       ncg     rms          rms(c)
DAV:   1    -0.132336072355E+04    0.68337E+00   -0.29556E+01 46090   0.232E+01    0.362E+00
DAV:   2    -0.132401243231E+04   -0.65171E+00   -0.60347E+00 36310   0.394E+00    0.196E+00
DAV:   3    -0.132402399021E+04   -0.11558E-01   -0.18567E-01 37020   0.888E-01    0.971E-01
DAV:   4    -0.132402321152E+04    0.77868E-03   -0.14942E-02 39800   0.288E-01    0.709E-01
DAV:   5    -0.132402237237E+04    0.83916E-03   -0.50988E-03 41710   0.227E-01    0.538E-01
DAV:   6    -0.132402000259E+04    0.23698E-02   -0.54197E-03 43090   0.263E-01    0.273E-01
DAV:   7    -0.132402067627E+04   -0.67368E-03   -0.22736E-03 39300   0.131E-01    0.814E-02
DAV:   8    -0.132402062341E+04    0.52860E-04   -0.29712E-04 35010   0.432E-02    0.554E-02
DAV:   9    -0.132402061294E+04    0.10471E-04   -0.28294E-05 19980   0.181E-02
  37 F= -.13240206E+04 E0= -.13240206E+04  d E =0.235222E-01  mag=   114.0000
       N       E                     dE             d eps       ncg     rms          rms(c)
DAV:   1    -0.132298806394E+04    0.10326E+01   -0.35957E+01 49660   0.262E+01    0.446E+00
DAV:   2    -0.132393134962E+04   -0.94329E+00   -0.84322E+00 37730   0.453E+00    0.419E+00
DAV:   3    -0.132395681797E+04   -0.25468E-01   -0.94578E-01 36880   0.250E+00    0.308E+00
DAV:   4    -0.132394282094E+04    0.13997E-01   -0.10055E-01 37940   0.107E+00    0.933E-01
DAV:   5    -0.132393993627E+04    0.28847E-02   -0.17451E-02 42390   0.287E-01    0.607E-01
DAV:   6    -0.132393828566E+04    0.16506E-02   -0.67845E-03 38840   0.254E-01    0.349E-01
DAV:   7    -0.132393820839E+04    0.77270E-04   -0.26506E-03 40550   0.168E-01    0.247E-01
DAV:   8    -0.132393788620E+04    0.32219E-03   -0.14394E-03 38270   0.118E-01    0.118E-01
DAV:   9    -0.132393787990E+04    0.62997E-05   -0.29306E-04 34110   0.500E-02
  38 F= -.13239379E+04 E0= -.13239379E+04  d E =0.827330E-01  mag=   114.0000
       N       E                     dE             d eps       ncg     rms          rms(c)
DAV:   1    -0.132348418065E+04    0.45371E+00   -0.21798E+01 47890   0.208E+01    0.330E+00
DAV:   2    -0.132401759133E+04   -0.53341E+00   -0.49082E+00 37610   0.355E+00    0.183E+00
DAV:   3    -0.132403171633E+04   -0.14125E-01   -0.18116E-01 37300   0.889E-01    0.100E+00
DAV:   4    -0.132403185839E+04   -0.14206E-03   -0.15318E-02 40160   0.305E-01    0.676E-01
DAV:   5    -0.132402967263E+04    0.21858E-02   -0.69348E-03 39770   0.241E-01    0.563E-01
DAV:   6    -0.132402895008E+04    0.72255E-03   -0.51619E-03 40540   0.242E-01    0.220E-01
DAV:   7    -0.132402832018E+04    0.62990E-03   -0.16803E-03 40620   0.107E-01    0.889E-02
DAV:   8    -0.132402863679E+04   -0.31661E-03   -0.41674E-04 36410   0.517E-02    0.592E-02
DAV:   9    -0.132402871383E+04   -0.77042E-04   -0.53501E-05 21610   0.230E-02    0.322E-02
DAV:  10    -0.132402866304E+04    0.50791E-04   -0.22524E-05 19230   0.144E-02    0.253E-02
DAV:  11    -0.132402867302E+04   -0.99776E-05   -0.10835E-05 18640   0.112E-02
  39 F= -.13240287E+04 E0= -.13240287E+04  d E =-.907931E-01  mag=   114.0000
       N       E                     dE             d eps       ncg     rms          rms(c)
DAV:   1    -0.132393681445E+04    0.91849E-01   -0.35626E+00 48980   0.846E+00    0.143E+00
DAV:   2    -0.132404189183E+04   -0.10508E+00   -0.95896E-01 38560   0.141E+00    0.782E-01
DAV:   3    -0.132404611965E+04   -0.42278E-02   -0.36059E-02 36970   0.376E-01    0.450E-01
DAV:   4    -0.132404558598E+04    0.53367E-03   -0.26662E-03 39710   0.120E-01    0.278E-01
DAV:   5    -0.132404588756E+04   -0.30158E-03   -0.15163E-03 37750   0.102E-01    0.231E-01
DAV:   6    -0.132404531888E+04    0.56868E-03   -0.12670E-03 36260   0.105E-01    0.119E-01
DAV:   7    -0.132404556920E+04   -0.25033E-03   -0.40077E-04 35240   0.630E-02    0.554E-02
DAV:   8    -0.132404551914E+04    0.50065E-04   -0.93313E-05 23060   0.288E-02    0.327E-02
DAV:   9    -0.132404549716E+04    0.21982E-04   -0.18341E-05 19290   0.125E-02
  40 F= -.13240455E+04 E0= -.13240455E+04  d E =-.168241E-01  mag=   114.0000
       N       E                     dE             d eps       ncg     rms          rms(c)
DAV:   1    -0.132403212925E+04    0.13390E-01   -0.58758E-01 48840   0.323E+00    0.548E-01
DAV:   2    -0.132404657162E+04   -0.14442E-01   -0.13135E-01 37680   0.535E-01    0.313E-01
DAV:   3    -0.132404730465E+04   -0.73303E-03   -0.54718E-03 36760   0.175E-01    0.243E-01
DAV:   4    -0.132404677210E+04    0.53255E-03   -0.88619E-04 36050   0.822E-02    0.114E-01
DAV:   5    -0.132404701106E+04   -0.23896E-03   -0.12461E-04 26910   0.335E-02    0.765E-02
DAV:   6    -0.132404692929E+04    0.81765E-04   -0.10472E-04 26860   0.305E-02    0.297E-02
DAV:   7    -0.132404698290E+04   -0.53613E-04   -0.34362E-05 19600   0.138E-02    0.154E-02
DAV:   8    -0.132404697621E+04    0.66912E-05   -0.80608E-06 18020   0.599E-03
  41 F= -.13240470E+04 E0= -.13240470E+04  d E =-.147906E-02  mag=   114.0000
       N       E                     dE             d eps       ncg     rms          rms(c)
DAV:   1    -0.132389654727E+04    0.15044E+00   -0.69488E+00 47500   0.107E+01    0.163E+00
DAV:   2    -0.132403419226E+04   -0.13764E+00   -0.12846E+00 36690   0.184E+00    0.895E-01
DAV:   3    -0.132403799162E+04   -0.37994E-02   -0.45454E-02 37170   0.477E-01    0.576E-01
DAV:   4    -0.132403652760E+04    0.14640E-02   -0.59230E-03 39440   0.205E-01    0.355E-01
DAV:   5    -0.132403667745E+04   -0.14985E-03   -0.12009E-03 37320   0.110E-01    0.247E-01
DAV:   6    -0.132403600649E+04    0.67096E-03   -0.10493E-03 43190   0.113E-01    0.817E-02
DAV:   7    -0.132403621590E+04   -0.20941E-03   -0.45053E-04 38950   0.464E-02    0.452E-02
DAV:   8    -0.132403616211E+04    0.53795E-04   -0.54875E-05 20560   0.207E-02    0.267E-02
DAV:   9    -0.132403612649E+04    0.35616E-04   -0.95511E-06 18700   0.992E-03
  42 F= -.13240361E+04 E0= -.13240361E+04  d E =0.108497E-01  mag=   114.0000
       N       E                     dE             d eps       ncg     rms          rms(c)
DAV:   1    -0.132395324987E+04    0.82912E-01   -0.27859E+00 49410   0.839E+00    0.137E+00
DAV:   2    -0.132404845966E+04   -0.95210E-01   -0.83764E-01 38290   0.138E+00    0.845E-01
DAV:   3    -0.132405030511E+04   -0.18455E-02   -0.47588E-02 37080   0.528E-01    0.700E-01
DAV:   4    -0.132405080716E+04   -0.50205E-03   -0.74107E-03 38570   0.252E-01    0.273E-01
DAV:   5    -0.132405005457E+04    0.75259E-03   -0.66326E-04 36750   0.654E-02    0.192E-01
DAV:   6    -0.132404985780E+04    0.19678E-03   -0.42509E-04 39260   0.755E-02    0.109E-01
DAV:   7    -0.132404992463E+04   -0.66838E-04   -0.23525E-04 36330   0.439E-02    0.427E-02
DAV:   8    -0.132404983193E+04    0.92705E-04   -0.63918E-05 20830   0.254E-02    0.325E-02
DAV:   9    -0.132404984906E+04   -0.17131E-04   -0.20606E-05 19370   0.147E-02
  43 F= -.13240498E+04 E0= -.13240498E+04  d E =-.137226E-01  mag=   114.0000
       N       E                     dE             d eps       ncg     rms          rms(c)
DAV:   1    -0.132404646492E+04    0.33670E-02   -0.20742E-01 49140   0.197E+00    0.322E-01
DAV:   2    -0.132405163204E+04   -0.51671E-02   -0.46842E-02 38020   0.330E-01    0.191E-01
DAV:   3    -0.132405153267E+04    0.99370E-04   -0.21730E-03 36950   0.114E-01    0.152E-01
DAV:   4    -0.132405178625E+04   -0.25357E-03   -0.34709E-04 31880   0.529E-02    0.684E-02
DAV:   5    -0.132405159565E+04    0.19060E-03   -0.50271E-05 20970   0.210E-02    0.454E-02
DAV:   6    -0.132405158742E+04    0.82272E-05   -0.44551E-05 22760   0.182E-02
  44 F= -.13240516E+04 E0= -.13240516E+04  d E =-.173836E-02  mag=   114.0000
       N       E                     dE             d eps       ncg     rms          rms(c)
DAV:   1    -0.132404202705E+04    0.95686E-02   -0.42442E-01 45580   0.268E+00    0.450E-01
DAV:   2    -0.132405197424E+04   -0.99472E-02   -0.93358E-02 37400   0.472E-01    0.240E-01
DAV:   3    -0.132405188988E+04    0.84357E-04   -0.31492E-03 36820   0.125E-01    0.153E-01
DAV:   4    -0.132405208125E+04   -0.19137E-03   -0.36460E-04 33160   0.499E-02    0.995E-02
DAV:   5    -0.132405189561E+04    0.18564E-03   -0.67081E-05 20930   0.271E-02    0.735E-02
DAV:   6    -0.132405190425E+04   -0.86424E-05   -0.81740E-05 25480   0.323E-02
  45 F= -.13240519E+04 E0= -.13240519E+04  d E =-.316829E-03  mag=   114.0000
       N       E                     dE             d eps       ncg     rms          rms(c)
DAV:   1    -0.132403930948E+04    0.12586E-01   -0.59829E-01 45100   0.302E+00    0.483E-01
DAV:   2    -0.132405152273E+04   -0.12213E-01   -0.11786E-01 37140   0.532E-01    0.246E-01
DAV:   3    -0.132405169116E+04   -0.16844E-03   -0.34212E-03 36850   0.122E-01    0.143E-01
DAV:   4    -0.132405149642E+04    0.19474E-03   -0.33800E-04 31810   0.445E-02    0.106E-01
DAV:   5    -0.132405158628E+04   -0.89855E-04   -0.96396E-05 21940   0.325E-02    0.800E-02
DAV:   6    -0.132405145121E+04    0.13507E-03   -0.11034E-04 26190   0.363E-02    0.300E-02
DAV:   7    -0.132405149682E+04   -0.45619E-04   -0.48237E-05 20100   0.151E-02
  46 F= -.13240515E+04 E0= -.13240515E+04  d E =0.407430E-03  mag=   114.0000
       N       E                     dE             d eps       ncg     rms          rms(c)
DAV:   1    -0.132401862280E+04    0.32828E-01   -0.22932E+00 43290   0.542E+00    0.818E-01
DAV:   2    -0.132405154799E+04   -0.32925E-01   -0.33475E-01 36530   0.967E-01    0.409E-01
DAV:   3    -0.132405202207E+04   -0.47408E-03   -0.97351E-03 37030   0.204E-01    0.212E-01
DAV:   4    -0.132405176053E+04    0.26154E-03   -0.76671E-04 37240   0.656E-02    0.158E-01
DAV:   5    -0.132405178299E+04   -0.22463E-04   -0.35340E-04 31090   0.587E-02
  47 F= -.13240518E+04 E0= -.13240518E+04  d E =-.286167E-03  mag=   114.0000
       N       E                     dE             d eps       ncg     rms          rms(c)
DAV:   1    -0.132401056549E+04    0.41195E-01   -0.25844E+00 45030   0.608E+00    0.893E-01
DAV:   2    -0.132405006479E+04   -0.39499E-01   -0.39288E-01 35840   0.106E+00    0.458E-01
DAV:   3    -0.132405056928E+04   -0.50448E-03   -0.11465E-02 37250   0.218E-01    0.231E-01
DAV:   4    -0.132405041980E+04    0.14947E-03   -0.69324E-04 38420   0.552E-02    0.165E-01
DAV:   5    -0.132405038577E+04    0.34033E-04   -0.23911E-04 32010   0.585E-02
  48 F= -.13240504E+04 E0= -.13240504E+04  d E =0.139722E-02  mag=   114.0000
       N       E                     dE             d eps       ncg     rms          rms(c)
DAV:   1    -0.132403348890E+04    0.16931E-01   -0.85020E-01 45120   0.362E+00    0.584E-01
DAV:   2    -0.132405055475E+04   -0.17066E-01   -0.16445E-01 37160   0.655E-01    0.349E-01
DAV:   3    -0.132405039567E+04    0.15909E-03   -0.72646E-03 36740   0.216E-01    0.289E-01
DAV:   4    -0.132405080987E+04   -0.41420E-03   -0.10727E-03 36390   0.959E-02    0.124E-01
DAV:   5    -0.132405051578E+04    0.29409E-03   -0.95470E-05 24530   0.268E-02    0.882E-02
DAV:   6    -0.132405042786E+04    0.87920E-04   -0.92884E-05 24490   0.379E-02    0.499E-02
DAV:   7    -0.132405045138E+04   -0.23523E-04   -0.78648E-05 20810   0.221E-02
  49 F= -.13240505E+04 E0= -.13240505E+04  d E =-.656160E-04  mag=   114.0000
       N       E                     dE             d eps       ncg     rms          rms(c)
DAV:   1    -0.132399640544E+04    0.54022E-01   -0.36116E+00 42510   0.666E+00    0.105E+00
DAV:   2    -0.132404797394E+04   -0.51569E-01   -0.52817E-01 35740   0.122E+00    0.502E-01
DAV:   3    -0.132404834189E+04   -0.36795E-03   -0.14578E-02 36920   0.248E-01    0.258E-01
DAV:   4    -0.132404843140E+04   -0.89512E-04   -0.11070E-03 38710   0.729E-02    0.201E-01
DAV:   5    -0.132404803093E+04    0.40047E-03   -0.40623E-04 31570   0.671E-02    0.161E-01
DAV:   6    -0.132404809399E+04   -0.63060E-04   -0.51618E-04 37200   0.788E-02    0.788E-02
DAV:   7    -0.132404793510E+04    0.15889E-03   -0.20170E-04 33590   0.381E-02    0.284E-02
DAV:   8    -0.132404798389E+04   -0.48788E-04   -0.32804E-05 19220   0.165E-02
  50 F= -.13240480E+04 E0= -.13240480E+04  d E =0.246750E-02  mag=   114.0000
       N       E                     dE             d eps       ncg     rms          rms(c)
DAV:   1    -0.132345339670E+04    0.59454E+00   -0.37980E+01 43290   0.221E+01    0.354E+00
DAV:   2    -0.132403166576E+04   -0.57827E+00   -0.57687E+00 35810   0.398E+00    0.176E+00
DAV:   3    -0.132403754969E+04   -0.58839E-02   -0.14371E-01 36600   0.765E-01    0.829E-01
DAV:   4    -0.132403579667E+04    0.17530E-02   -0.10253E-02 39010   0.216E-01    0.651E-01
DAV:   5    -0.132403452306E+04    0.12736E-02   -0.42438E-03 40920   0.213E-01    0.508E-01
DAV:   6    -0.132403232967E+04    0.21934E-02   -0.56631E-03 43070   0.259E-01    0.267E-01
DAV:   7    -0.132403310511E+04   -0.77544E-03   -0.20497E-03 38090   0.123E-01    0.672E-02
DAV:   8    -0.132403302372E+04    0.81388E-04   -0.23425E-04 35060   0.334E-02    0.495E-02
DAV:   9    -0.132403293191E+04    0.91806E-04   -0.19877E-05 19360   0.150E-02    0.288E-02
DAV:  10    -0.132403295433E+04   -0.22420E-04   -0.96427E-06 18090   0.105E-02
  51 F= -.13240330E+04 E0= -.13240330E+04  d E =0.150296E-01  mag=   114.0000
       N       E                     dE             d eps       ncg     rms          rms(c)
DAV:   1    -0.132310311383E+04    0.92982E+00   -0.49541E+01 44560   0.276E+01    0.444E+00
DAV:   2    -0.132400558998E+04   -0.90248E+00   -0.87031E+00 35420   0.491E+00    0.220E+00
DAV:   3    -0.132401899062E+04   -0.13401E-01   -0.24347E-01 36590   0.100E+00    0.103E+00
DAV:   4    -0.132401761314E+04    0.13775E-02   -0.17483E-02 40160   0.287E-01    0.813E-01
DAV:   5    -0.132401557065E+04    0.20425E-02   -0.51672E-03 41100   0.245E-01    0.619E-01
DAV:   6    -0.132401277403E+04    0.27966E-02   -0.83720E-03 43220   0.324E-01    0.366E-01
DAV:   7    -0.132401383458E+04   -0.10605E-02   -0.36820E-03 38570   0.172E-01    0.109E-01
DAV:   8    -0.132401354549E+04    0.28908E-03   -0.47507E-04 36320   0.617E-02    0.731E-02
DAV:   9    -0.132401357035E+04   -0.24856E-04   -0.51878E-05 21590   0.252E-02
  52 F= -.13240136E+04 E0= -.13240136E+04  d E =0.193840E-01  mag=   114.0000
       N       E                     dE             d eps       ncg     rms          rms(c)
DAV:   1    -0.132318922744E+04    0.82432E+00   -0.29362E+01 46870   0.251E+01    0.430E+00
DAV:   2    -0.132399946981E+04   -0.81024E+00   -0.74352E+00 36080   0.433E+00    0.214E+00
DAV:   3    -0.132401353266E+04   -0.14063E-01   -0.20109E-01 36740   0.936E-01    0.101E+00
DAV:   4    -0.132401279542E+04    0.73723E-03   -0.13948E-02 39350   0.257E-01    0.791E-01
DAV:   5    -0.132401145722E+04    0.13382E-02   -0.45225E-03 41340   0.229E-01    0.628E-01
DAV:   6    -0.132400881067E+04    0.26465E-02   -0.61829E-03 42450   0.286E-01    0.367E-01
DAV:   7    -0.132400971569E+04   -0.90502E-03   -0.25125E-03 40030   0.149E-01    0.104E-01
DAV:   8    -0.132400954949E+04    0.16620E-03   -0.45642E-04 36710   0.598E-02    0.652E-02
DAV:   9    -0.132400958226E+04   -0.32764E-04   -0.48160E-05 21550   0.235E-02
  53 F= -.13240096E+04 E0= -.13240096E+04  d E =0.398809E-02  mag=   114.0000
       N       E                     dE             d eps       ncg     rms          rms(c)
DAV:   1    -0.132392815781E+04    0.81392E-01   -0.32074E+00 47860   0.874E+00    0.143E+00
DAV:   2    -0.132402176389E+04   -0.93606E-01   -0.85120E-01 37710   0.149E+00    0.702E-01
DAV:   3    -0.132402349534E+04   -0.17315E-02   -0.25549E-02 36770   0.340E-01    0.365E-01
DAV:   4    -0.132402364996E+04   -0.15462E-03   -0.15310E-03 39580   0.814E-02    0.263E-01
DAV:   5    -0.132402317468E+04    0.47528E-03   -0.59715E-04 37570   0.837E-02    0.199E-01
DAV:   6    -0.132402329285E+04   -0.11817E-03   -0.10238E-03 39400   0.104E-01    0.137E-01
DAV:   7    -0.132402289323E+04    0.39962E-03   -0.36712E-04 36850   0.577E-02    0.335E-02
DAV:   8    -0.132402305139E+04   -0.15817E-03   -0.54399E-05 20240   0.227E-02    0.249E-02
DAV:   9    -0.132402309285E+04   -0.41462E-04   -0.13459E-05 18630   0.110E-02
  54 F= -.13240231E+04 E0= -.13240231E+04  d E =-.135106E-01  mag=   114.0000
       N       E                     dE             d eps       ncg     rms          rms(c)
DAV:   1    -0.132368612670E+04    0.33692E+00   -0.16777E+01 44370   0.162E+01    0.271E+00
DAV:   2    -0.132401438633E+04   -0.32826E+00   -0.31538E+00 35660   0.288E+00    0.129E+00
DAV:   3    -0.132401885149E+04   -0.44652E-02   -0.83349E-02 36700   0.568E-01    0.606E-01
DAV:   4    -0.132401834872E+04    0.50277E-03   -0.55762E-03 40340   0.148E-01    0.483E-01
DAV:   5    -0.132401764082E+04    0.70790E-03   -0.18620E-03 42030   0.154E-01    0.379E-01
DAV:   6    -0.132401646416E+04    0.11767E-02   -0.30964E-03 44570   0.197E-01    0.209E-01
DAV:   7    -0.132401715186E+04   -0.68770E-03   -0.11024E-03 38030   0.939E-02    0.562E-02
DAV:   8    -0.132401697493E+04    0.17693E-03   -0.13015E-04 29630   0.318E-02    0.416E-02
DAV:   9    -0.132401697287E+04    0.20603E-05   -0.18249E-05 19060   0.149E-02
  55 F= -.13240170E+04 E0= -.13240170E+04  d E =0.611999E-02  mag=   114.0000
       N       E                     dE             d eps       ncg     rms          rms(c)
DAV:   1    -0.131751994479E+04    0.64970E+01   -0.18810E+02 49780   0.713E+01    0.124E+01
DAV:   2    -0.132356386787E+04   -0.60439E+01   -0.53261E+01 37210   0.119E+01    0.749E+00
DAV:   3    -0.132372934142E+04   -0.16547E+00   -0.18434E+00 37140   0.298E+00    0.329E+00
DAV:   4    -0.132373245716E+04   -0.31157E-02   -0.15031E-01 40260   0.100E+00    0.237E+00
DAV:   5    -0.132372007082E+04    0.12386E-01   -0.44551E-02 38790   0.639E-01    0.182E+00
DAV:   6    -0.132371142631E+04    0.86445E-02   -0.30545E-02 42460   0.652E-01    0.976E-01
DAV:   7    -0.132370829396E+04    0.31323E-02   -0.18857E-02 41180   0.445E-01    0.382E-01
DAV:   8    -0.132371103960E+04   -0.27456E-02   -0.48557E-03 37380   0.200E-01    0.198E-01
DAV:   9    -0.132371117690E+04   -0.13730E-03   -0.68344E-04 37260   0.730E-02    0.972E-02
DAV:  10    -0.132371063254E+04    0.54437E-03   -0.15913E-04 29820   0.377E-02    0.540E-02
DAV:  11    -0.132371086428E+04   -0.23174E-03   -0.48633E-05 20250   0.211E-02    0.269E-02
DAV:  12    -0.132371086346E+04    0.81296E-06   -0.21105E-05 18750   0.125E-02
  56 F= -.13237109E+04 E0= -.13237109E+04  d E =0.306109E+00  mag=   114.0000
       N       E                     dE             d eps       ncg     rms          rms(c)
DAV:   1    -0.132181544696E+04    0.18954E+01   -0.66673E+01 50300   0.432E+01    0.723E+00
DAV:   2    -0.132392711560E+04   -0.21117E+01   -0.18371E+01 38240   0.723E+00    0.431E+00
DAV:   3    -0.132401226366E+04   -0.85148E-01   -0.90001E-01 37210   0.226E+00    0.240E+00
DAV:   4    -0.132401071007E+04    0.15536E-02   -0.10247E-01 39460   0.903E-01    0.147E+00
DAV:   5    -0.132400329600E+04    0.74141E-02   -0.20924E-02 38580   0.448E-01    0.101E+00
DAV:   6    -0.132399928084E+04    0.40152E-02   -0.15023E-02 41000   0.401E-01    0.525E-01
DAV:   7    -0.132399821035E+04    0.10705E-02   -0.68820E-03 40520   0.263E-01    0.320E-01
DAV:   8    -0.132399857336E+04   -0.36300E-03   -0.25127E-03 38320   0.156E-01    0.121E-01
DAV:   9    -0.132399869013E+04   -0.11677E-03   -0.34839E-04 34590   0.603E-02    0.608E-02
DAV:  10    -0.132399858310E+04    0.10703E-03   -0.11975E-04 28660   0.289E-02    0.553E-02
DAV:  11    -0.132399860384E+04   -0.20739E-04   -0.26627E-05 19670   0.164E-02
  57 F= -.13239986E+04 E0= -.13239986E+04  d E =-.287740E+00  mag=   114.0000
       N       E                     dE             d eps       ncg     rms          rms(c)
DAV:   1    -0.132397762040E+04    0.20963E-01   -0.11216E+00 48880   0.559E+00    0.913E-01
DAV:   2    -0.132401799520E+04   -0.40375E-01   -0.36384E-01 37770   0.952E-01    0.462E-01
DAV:   3    -0.132401896720E+04   -0.97200E-03   -0.12600E-02 36910   0.238E-01    0.257E-01
DAV:   4    -0.132401899016E+04   -0.22962E-04   -0.74259E-04 39050   0.574E-02    0.173E-01
DAV:   5    -0.132401869891E+04    0.29125E-03   -0.18533E-04 30920   0.479E-02    0.117E-01
DAV:   6    -0.132401876079E+04   -0.61884E-04   -0.27859E-04 35050   0.590E-02    0.737E-02
DAV:   7    -0.132401857758E+04    0.18321E-03   -0.19234E-04 27310   0.403E-02    0.380E-02
DAV:   8    -0.132401870530E+04   -0.12773E-03   -0.40051E-05 19860   0.207E-02    0.179E-02
DAV:   9    -0.132401869469E+04    0.10611E-04   -0.10577E-05 18350   0.945E-03
  58 F= -.13240187E+04 E0= -.13240187E+04  d E =-.200909E-01  mag=   114.0000
       N       E                     dE             d eps       ncg     rms          rms(c)
DAV:   1    -0.132382397143E+04    0.19473E+00   -0.61067E+00 49060   0.131E+01    0.210E+00
DAV:   2    -0.132403887885E+04   -0.21491E+00   -0.19079E+00 37300   0.216E+00    0.107E+00
DAV:   3    -0.132404347003E+04   -0.45912E-02   -0.61924E-02 36810   0.516E-01    0.554E-01
DAV:   4    -0.132404380337E+04   -0.33333E-03   -0.45228E-03 39740   0.150E-01    0.401E-01
DAV:   5    -0.132404282063E+04    0.98274E-03   -0.13517E-03 39000   0.122E-01    0.312E-01
DAV:   6    -0.132404266256E+04    0.15807E-03   -0.17657E-03 44030   0.151E-01    0.155E-01
DAV:   7    -0.132404228337E+04    0.37919E-03   -0.73641E-04 39260   0.817E-02    0.576E-02
DAV:   8    -0.132404244228E+04   -0.15890E-03   -0.11654E-04 26540   0.332E-02    0.357E-02
DAV:   9    -0.132404248547E+04   -0.43191E-04   -0.22208E-05 19550   0.147E-02
  59 F= -.13240425E+04 E0= -.13240425E+04  d E =-.237908E-01  mag=   114.0000
       N       E                     dE             d eps       ncg     rms          rms(c)
DAV:   1    -0.132402223658E+04    0.20206E-01   -0.10581E+00 48570   0.488E+00    0.729E-01
DAV:   2    -0.132404979655E+04   -0.27560E-01   -0.25199E-01 36610   0.797E-01    0.389E-01
DAV:   3    -0.132405074620E+04   -0.94965E-03   -0.92738E-03 36530   0.210E-01    0.232E-01
DAV:   4    -0.132405035679E+04    0.38941E-03   -0.10854E-03 38190   0.876E-02    0.156E-01
DAV:   5    -0.132405054639E+04   -0.18961E-03   -0.16925E-04 25990   0.449E-02    0.108E-01
DAV:   6    -0.132405031013E+04    0.23626E-03   -0.15589E-04 31170   0.496E-02    0.355E-02
DAV:   7    -0.132405040232E+04   -0.92191E-04   -0.71278E-05 21530   0.179E-02    0.161E-02
DAV:   8    -0.132405037567E+04    0.26647E-04   -0.11298E-05 18010   0.812E-03
  60 F= -.13240504E+04 E0= -.13240504E+04  d E =-.789021E-02  mag=   114.0000
       N       E                     dE             d eps       ncg     rms          rms(c)
DAV:   1    -0.132359888216E+04    0.45152E+00   -0.17405E+01 47370   0.194E+01    0.300E+00
DAV:   2    -0.132404990284E+04   -0.45102E+00   -0.40458E+00 36580   0.319E+00    0.164E+00
DAV:   3    -0.132405870413E+04   -0.88013E-02   -0.13934E-01 36950   0.814E-01    0.906E-01
DAV:   4    -0.132405692262E+04    0.17815E-02   -0.15759E-02 39230   0.338E-01    0.622E-01
DAV:   5    -0.132405700613E+04   -0.83509E-04   -0.26939E-03 38560   0.181E-01    0.435E-01
DAV:   6    -0.132405504738E+04    0.19587E-02   -0.21642E-03 43840   0.196E-01    0.154E-01
DAV:   7    -0.132405551915E+04   -0.47177E-03   -0.11073E-03 38860   0.712E-02    0.639E-02
DAV:   8    -0.132405542109E+04    0.98057E-04   -0.90378E-05 25140   0.253E-02    0.317E-02
DAV:   9    -0.132405542197E+04   -0.87687E-06   -0.14023E-05 18730   0.978E-03
  61 F= -.13240554E+04 E0= -.13240554E+04  d E =-.504630E-02  mag=   114.0000
       N       E                     dE             d eps       ncg     rms          rms(c)
DAV:   1    -0.132400945437E+04    0.45967E-01   -0.26785E+00 45760   0.669E+00    0.105E+00
DAV:   2    -0.132406117258E+04   -0.51718E-01   -0.49099E-01 36490   0.116E+00    0.518E-01
DAV:   3    -0.132406202503E+04   -0.85245E-03   -0.15532E-02 37130   0.250E-01    0.255E-01
DAV:   4    -0.132406192053E+04    0.10451E-03   -0.97306E-04 38930   0.625E-02    0.184E-01
DAV:   5    -0.132406196051E+04   -0.39986E-04   -0.31244E-04 32440   0.643E-02
  62 F= -.13240620E+04 E0= -.13240620E+04  d E =-.653854E-02  mag=   114.0000
       N       E                     dE             d eps       ncg     rms          rms(c)
DAV:   1    -0.132391981070E+04    0.14211E+00   -0.93058E+00 44310   0.114E+01    0.173E+00
DAV:   2    -0.132406173143E+04   -0.14192E+00   -0.13868E+00 36090   0.196E+00    0.887E-01
DAV:   3    -0.132406304716E+04   -0.13157E-02   -0.45344E-02 37140   0.457E-01    0.513E-01
DAV:   4    -0.132406338891E+04   -0.34174E-03   -0.51334E-03 39270   0.193E-01    0.345E-01
DAV:   5    -0.132406251548E+04    0.87343E-03   -0.10176E-03 37170   0.111E-01    0.241E-01
DAV:   6    -0.132406252808E+04   -0.12604E-04   -0.10499E-03 44230   0.119E-01    0.794E-02
DAV:   7    -0.132406230290E+04    0.22518E-03   -0.43628E-04 38070   0.467E-02    0.427E-02
DAV:   8    -0.132406247302E+04   -0.17012E-03   -0.36496E-05 19630   0.189E-02    0.243E-02
DAV:   9    -0.132406247280E+04    0.22619E-06   -0.88631E-06 18400   0.937E-03
  63 F= -.13240625E+04 E0= -.13240625E+04  d E =-.512287E-03  mag=   114.0000
       N       E                     dE             d eps       ncg     rms          rms(c)
DAV:   1    -0.132176359356E+04    0.22989E+01   -0.17220E+02 43120   0.429E+01    0.723E+00
DAV:   2    -0.132397774411E+04   -0.22142E+01   -0.21327E+01 35750   0.762E+00    0.420E+00
DAV:   3    -0.132400718440E+04   -0.29440E-01   -0.62127E-01 37340   0.162E+00    0.183E+00
DAV:   4    -0.132400371016E+04    0.34742E-02   -0.62518E-02 39690   0.626E-01    0.141E+00
DAV:   5    -0.132399649931E+04    0.72108E-02   -0.24140E-02 38790   0.473E-01    0.105E+00
DAV:   6    -0.132399343778E+04    0.30615E-02   -0.14738E-02 42900   0.440E-01    0.461E-01
DAV:   7    -0.132399220920E+04    0.12286E-02   -0.74286E-03 39320   0.204E-01    0.157E-01
DAV:   8    -0.132399332851E+04   -0.11193E-02   -0.90846E-04 36670   0.696E-02    0.919E-02
DAV:   9    -0.132399327803E+04    0.50476E-04   -0.66310E-05 24470   0.276E-02    0.548E-02
DAV:  10    -0.132399319912E+04    0.78910E-04   -0.48551E-05 20520   0.234E-02    0.327E-02
DAV:  11    -0.132399323541E+04   -0.36288E-04   -0.20528E-05 18830   0.149E-02
  64 F= -.13239932E+04 E0= -.13239932E+04  d E =0.692374E-01  mag=   114.0000
       N       E                     dE             d eps       ncg     rms          rms(c)
DAV:   1    -0.131999038739E+04    0.40028E+01   -0.25038E+02 43170   0.559E+01    0.971E+00
DAV:   2    -0.132388461090E+04   -0.38942E+01   -0.36588E+01 36290   0.100E+01    0.548E+00
DAV:   3    -0.132394197477E+04   -0.57364E-01   -0.98230E-01 37180   0.202E+00    0.231E+00
DAV:   4    -0.132393317768E+04    0.87971E-02   -0.68375E-02 40690   0.549E-01    0.173E+00
DAV:   5    -0.132392426385E+04    0.89138E-02   -0.18075E-02 39670   0.438E-01    0.120E+00
DAV:   6    -0.132391945439E+04    0.48095E-02   -0.32186E-02 40370   0.582E-01    0.928E-01
DAV:   7    -0.132391964810E+04   -0.19371E-03   -0.16471E-02 39550   0.391E-01    0.230E-01
DAV:   8    -0.132391986068E+04   -0.21258E-03   -0.22131E-03 37350   0.125E-01    0.146E-01
DAV:   9    -0.132391968990E+04    0.17078E-03   -0.33372E-04 35210   0.558E-02    0.794E-02
DAV:  10    -0.132391969272E+04   -0.28184E-05   -0.60858E-05 23440   0.283E-02
  65 F= -.13239197E+04 E0= -.13239197E+04  d E =0.735427E-01  mag=   114.0000
       N       E                     dE             d eps       ncg     rms          rms(c)
DAV:   1    -0.131575811961E+04    0.81616E+01   -0.22695E+02 48970   0.768E+01    0.141E+01
DAV:   2    -0.132330969079E+04   -0.75516E+01   -0.66919E+01 38270   0.135E+01    0.108E+01
DAV:   3    -0.132360794783E+04   -0.29826E+00   -0.48453E+00 37240   0.599E+00    0.718E+00
DAV:   4    -0.132349100227E+04    0.11695E+00   -0.58836E-01 38830   0.267E+00    0.292E+00
DAV:   5    -0.132347742152E+04    0.13581E-01   -0.66908E-02 41260   0.727E-01    0.226E+00
DAV:   6    -0.132346799438E+04    0.94271E-02   -0.47626E-02 39830   0.724E-01    0.166E+00
DAV:   7    -0.132346181380E+04    0.61806E-02   -0.45524E-02 40670   0.702E-01    0.120E+00
DAV:   8    -0.132346007542E+04    0.17384E-02   -0.21642E-02 40100   0.503E-01    0.376E-01
DAV:   9    -0.132345979260E+04    0.28282E-03   -0.47757E-03 38470   0.145E-01    0.186E-01
DAV:  10    -0.132345986440E+04   -0.71805E-04   -0.42887E-04 38260   0.574E-02    0.100E-01
DAV:  11    -0.132345991347E+04   -0.49062E-04   -0.21020E-04 32430   0.427E-02
  66 F= -.13234599E+04 E0= -.13234599E+04  d E =0.459779E+00  mag=   114.0000
       N       E                     dE             d eps       ncg     rms          rms(c)
DAV:   1    -0.132228686597E+04    0.11730E+01   -0.55332E+01 50790   0.377E+01    0.603E+00
DAV:   2    -0.132389370270E+04   -0.16068E+01   -0.14175E+01 38490   0.622E+00    0.379E+00
DAV:   3    -0.132395591019E+04   -0.62207E-01   -0.64218E-01 37460   0.193E+00    0.232E+00
DAV:   4    -0.132395424623E+04    0.16640E-02   -0.81716E-02 39130   0.838E-01    0.118E+00
DAV:   5    -0.132394904878E+04    0.51974E-02   -0.22961E-02 38490   0.417E-01    0.880E-01
DAV:   6    -0.132394752760E+04    0.15212E-02   -0.16199E-02 41110   0.410E-01    0.467E-01
DAV:   7    -0.132394615856E+04    0.13690E-02   -0.70611E-03 39880   0.280E-01    0.317E-01
DAV:   8    -0.132394659831E+04   -0.43975E-03   -0.19479E-03 37970   0.134E-01    0.117E-01
DAV:   9    -0.132394690077E+04   -0.30246E-03   -0.33195E-04 35710   0.526E-02    0.602E-02
DAV:  10    -0.132394676600E+04    0.13477E-03   -0.12759E-04 29150   0.307E-02    0.498E-02
DAV:  11    -0.132394680668E+04   -0.40678E-04   -0.27394E-05 20570   0.191E-02
  67 F= -.13239468E+04 E0= -.13239468E+04  d E =-.486893E+00  mag=   114.0000
       N       E                     dE             d eps       ncg     rms          rms(c)
DAV:   1    -0.132362038987E+04    0.32638E+00   -0.11415E+01 50070   0.175E+01    0.282E+00
DAV:   2    -0.132398745075E+04   -0.36706E+00   -0.32228E+00 38250   0.285E+00    0.149E+00
DAV:   3    -0.132400132789E+04   -0.13877E-01   -0.12279E-01 37300   0.730E-01    0.769E-01
DAV:   4    -0.132400173468E+04   -0.40678E-03   -0.74917E-03 40410   0.200E-01    0.478E-01
DAV:   5    -0.132400077295E+04    0.96173E-03   -0.27789E-03 41200   0.153E-01    0.306E-01
DAV:   6    -0.132400072652E+04    0.46430E-04   -0.14907E-03 40390   0.140E-01    0.167E-01
DAV:   7    -0.132400054891E+04    0.17761E-03   -0.69663E-04 38960   0.840E-02    0.812E-02
DAV:   8    -0.132400088052E+04   -0.33161E-03   -0.24692E-04 32470   0.448E-02    0.520E-02
DAV:   9    -0.132400076969E+04    0.11083E-03   -0.78730E-05 20840   0.261E-02    0.335E-02
DAV:  10    -0.132400080372E+04   -0.34029E-04   -0.16173E-05 18710   0.132E-02
  68 F= -.13240008E+04 E0= -.13240008E+04  d E =-.539970E-01  mag=   114.0000
       N       E                     dE             d eps       ncg     rms          rms(c)
DAV:   1    -0.132398540639E+04    0.15363E-01   -0.67546E-01 49250   0.417E+00    0.698E-01
DAV:   2    -0.132400771200E+04   -0.22306E-01   -0.19835E-01 37380   0.702E-01    0.342E-01
DAV:   3    -0.132400813981E+04   -0.42781E-03   -0.63577E-03 37340   0.168E-01    0.184E-01
DAV:   4    -0.132400829778E+04   -0.15797E-03   -0.52101E-04 34550   0.558E-02    0.131E-01
DAV:   5    -0.132400808628E+04    0.21150E-03   -0.12814E-04 23220   0.387E-02    0.101E-01
DAV:   6    -0.132400814730E+04   -0.61025E-04   -0.18500E-04 28730   0.504E-02    0.455E-02
DAV:   7    -0.132400805466E+04    0.92642E-04   -0.79698E-05 22120   0.243E-02    0.166E-02
DAV:   8    -0.132400807274E+04   -0.18081E-04   -0.14294E-05 18110   0.989E-03
  69 F= -.13240081E+04 E0= -.13240081E+04  d E =-.726902E-02  mag=   114.0000
[...]
DAV:   7    -0.132409314026E+04    0.37013E-03   -0.15148E-03 38860   0.112E-01    0.891E-02
DAV:   8    -0.132409347390E+04   -0.33364E-03   -0.23285E-04 33650   0.475E-02    0.491E-02
DAV:   9    -0.132409349616E+04   -0.22261E-04   -0.40756E-05 20480   0.209E-02
 156 F= -.13240935E+04 E0= -.13240935E+04  d E =0.237792E-02  mag=   114.0000
       N       E                     dE             d eps       ncg     rms          rms(c)
DAV:   1    -0.132348283306E+04    0.61064E+00   -0.31228E+01 45020   0.220E+01    0.360E+00
DAV:   2    -0.132407267707E+04   -0.58984E+00   -0.56073E+00 36220   0.388E+00    0.183E+00
DAV:   3    -0.132408334687E+04   -0.10670E-01   -0.16655E-01 36920   0.839E-01    0.892E-01
DAV:   4    -0.132408277638E+04    0.57050E-03   -0.10953E-02 39820   0.215E-01    0.653E-01
DAV:   5    -0.132408068060E+04    0.20958E-02   -0.30817E-03 42030   0.201E-01    0.471E-01
DAV:   6    -0.132408022868E+04    0.45191E-03   -0.47160E-03 42570   0.242E-01    0.284E-01
DAV:   7    -0.132407958533E+04    0.64336E-03   -0.21920E-03 38560   0.136E-01    0.798E-02
DAV:   8    -0.132408004312E+04   -0.45780E-03   -0.25639E-04 35030   0.397E-02    0.447E-02
DAV:   9    -0.132408001225E+04    0.30870E-04   -0.25733E-05 18910   0.158E-02
 157 F= -.13240800E+04 E0= -.13240800E+04  d E =0.134839E-01  mag=   114.0000
       N       E                     dE             d eps       ncg     rms          rms(c)
DAV:   1    -0.131391612289E+04    0.10164E+02   -0.27849E+02 49260   0.823E+01    0.165E+01
DAV:   2    -0.132304246548E+04   -0.91263E+01   -0.80162E+01 37470   0.145E+01    0.114E+01
DAV:   3    -0.132335036724E+04   -0.30790E+00   -0.32856E+00 37550   0.420E+00    0.495E+00
DAV:   4    -0.132334624043E+04    0.41268E-02   -0.27782E-01 39810   0.144E+00    0.343E+00
DAV:   5    -0.132333265778E+04    0.13583E-01   -0.62750E-02 39030   0.763E-01    0.254E+00
DAV:   6    -0.132331940306E+04    0.13255E-01   -0.55810E-02 40850   0.851E-01    0.165E+00
DAV:   7    -0.132331617420E+04    0.32289E-02   -0.43136E-02 40660   0.706E-01    0.755E-01
DAV:   8    -0.132331569277E+04    0.48143E-03   -0.11460E-02 38290   0.317E-01    0.265E-01
DAV:   9    -0.132331716843E+04   -0.14757E-02   -0.14930E-03 37570   0.983E-02    0.127E-01
DAV:  10    -0.132331705616E+04    0.11227E-03   -0.43167E-04 35620   0.570E-02    0.708E-02
DAV:  11    -0.132331696297E+04    0.93186E-04   -0.85828E-05 23750   0.354E-02    0.316E-02
DAV:  12    -0.132331712939E+04   -0.16642E-03   -0.55033E-05 20200   0.215E-02    0.165E-02
DAV:  13    -0.132331703465E+04    0.94740E-04   -0.11630E-05 18670   0.843E-03    0.915E-03
DAV:  14    -0.132331701628E+04    0.18372E-04   -0.19851E-06 18360   0.344E-03
 158 F= -.13233170E+04 E0= -.13233170E+04  d E =0.762996E+00  mag=   114.0000
       N       E                     dE             d eps       ncg     rms          rms(c)
DAV:   1    -0.132122896409E+04    0.20881E+01   -0.79734E+01 49630   0.463E+01    0.833E+00
DAV:   2    -0.132391891801E+04   -0.26900E+01   -0.23501E+01 37640   0.787E+00    0.531E+00
DAV:   3    -0.132401250699E+04   -0.93589E-01   -0.10005E+00 36940   0.239E+00    0.257E+00
DAV:   4    -0.132401108819E+04    0.14188E-02   -0.74806E-02 39700   0.794E-01    0.157E+00
DAV:   5    -0.132400493953E+04    0.61487E-02   -0.16038E-02 40210   0.395E-01    0.111E+00
DAV:   6    -0.132399983920E+04    0.51003E-02   -0.13320E-02 41880   0.448E-01    0.579E-01
DAV:   7    -0.132400073484E+04   -0.89565E-03   -0.10637E-02 39430   0.311E-01    0.364E-01
DAV:   8    -0.132400017213E+04    0.56271E-03   -0.30139E-03 37300   0.172E-01    0.131E-01
DAV:   9    -0.132400083321E+04   -0.66108E-03   -0.33805E-04 34890   0.588E-02    0.667E-02
DAV:  10    -0.132400065135E+04    0.18186E-03   -0.99022E-05 24900   0.283E-02    0.464E-02
DAV:  11    -0.132400065198E+04   -0.62288E-06   -0.34183E-05 19420   0.174E-02
 159 F= -.13240007E+04 E0= -.13240007E+04  d E =-.683636E+00  mag=   114.0000
       N       E                     dE             d eps       ncg     rms          rms(c)
DAV:   1    -0.132338969818E+04    0.61095E+00   -0.17011E+01 48760   0.220E+01    0.402E+00
DAV:   2    -0.132407355423E+04   -0.68386E+00   -0.59664E+00 38600   0.366E+00    0.206E+00
DAV:   3    -0.132409062390E+04   -0.17070E-01   -0.15816E-01 36660   0.870E-01    0.101E+00
DAV:   4    -0.132409070355E+04   -0.79653E-04   -0.10545E-02 39420   0.244E-01    0.704E-01
DAV:   5    -0.132408918409E+04    0.15195E-02   -0.29273E-03 43030   0.181E-01    0.489E-01
DAV:   6    -0.132408804243E+04    0.11417E-02   -0.33629E-03 42860   0.222E-01    0.284E-01
DAV:   7    -0.132408847788E+04   -0.43545E-03   -0.21107E-03 39490   0.142E-01    0.128E-01
DAV:   8    -0.132408828900E+04    0.18888E-03   -0.37968E-04 35820   0.614E-02    0.622E-02
DAV:   9    -0.132408846302E+04   -0.17402E-03   -0.85300E-05 23670   0.279E-02    0.307E-02
DAV:  10    -0.132408837973E+04    0.83291E-04   -0.16034E-05 18840   0.111E-02    0.174E-02
DAV:  11    -0.132408839665E+04   -0.16919E-04   -0.45882E-06 18320   0.666E-03
 160 F= -.13240884E+04 E0= -.13240884E+04  d E =-.877447E-01  mag=   114.0000
       N       E                     dE             d eps       ncg     rms          rms(c)
DAV:   1    -0.132406178530E+04    0.26594E-01   -0.13910E+00 49280   0.555E+00    0.909E-01
DAV:   2    -0.132410019366E+04   -0.38408E-01   -0.34598E-01 37120   0.928E-01    0.468E-01
DAV:   3    -0.132410149020E+04   -0.12965E-02   -0.11844E-02 36250   0.225E-01    0.246E-01
DAV:   4    -0.132410131579E+04    0.17441E-03   -0.75503E-04 38970   0.555E-02    0.163E-01
DAV:   5    -0.132410133381E+04   -0.18020E-04   -0.22583E-04 30660   0.540E-02
 161 F= -.13241013E+04 E0= -.13241013E+04  d E =-.129372E-01  mag=   114.0000
       N       E                     dE             d eps       ncg     rms          rms(c)
DAV:   1    -0.132392113205E+04    0.18018E+00   -0.69321E+00 47260   0.120E+01    0.190E+00
DAV:   2    -0.132409981506E+04   -0.17868E+00   -0.16280E+00 37450   0.206E+00    0.103E+00
DAV:   3    -0.132410382968E+04   -0.40146E-02   -0.51423E-02 36650   0.506E-01    0.584E-01
DAV:   4    -0.132410342643E+04    0.40325E-03   -0.34269E-03 39990   0.133E-01    0.396E-01
DAV:   5    -0.132410271979E+04    0.70664E-03   -0.11141E-03 41930   0.131E-01    0.259E-01
DAV:   6    -0.132410266471E+04    0.55077E-04   -0.14791E-03 42760   0.135E-01    0.140E-01
DAV:   7    -0.132410244737E+04    0.21735E-03   -0.72501E-04 38000   0.826E-02    0.677E-02
DAV:   8    -0.132410264975E+04   -0.20238E-03   -0.99040E-05 23750   0.310E-02    0.331E-02
DAV:   9    -0.132410256996E+04    0.79783E-04   -0.22072E-05 19620   0.149E-02    0.190E-02
DAV:  10    -0.132410258487E+04   -0.14903E-04   -0.49489E-06 18230   0.725E-03
 162 F= -.13241026E+04 E0= -.13241026E+04  d E =-.125106E-02  mag=   114.0000
       N       E                     dE             d eps       ncg     rms          rms(c)
DAV:   1    -0.132408502309E+04    0.17547E-01   -0.80423E-01 49030   0.416E+00    0.676E-01
DAV:   2    -0.132410741901E+04   -0.22396E-01   -0.20268E-01 38040   0.695E-01    0.364E-01
DAV:   3    -0.132410769847E+04   -0.27947E-03   -0.75657E-03 36640   0.193E-01    0.229E-01
DAV:   4    -0.132410790770E+04   -0.20923E-03   -0.77265E-04 37050   0.728E-02    0.133E-01
DAV:   5    -0.132410760357E+04    0.30413E-03   -0.20376E-04 29730   0.457E-02    0.942E-02
DAV:   6    -0.132410761412E+04   -0.10550E-04   -0.17271E-04 29070   0.436E-02
 163 F= -.13241076E+04 E0= -.13241076E+04  d E =-.502926E-02  mag=   114.0000
       N       E                     dE             d eps       ncg     rms          rms(c)
DAV:   1    -0.132351333148E+04    0.59427E+00   -0.20137E+01 46890   0.206E+01    0.363E+00
DAV:   2    -0.132407626757E+04   -0.56294E+00   -0.51100E+00 36290   0.352E+00    0.180E+00
DAV:   3    -0.132408770761E+04   -0.11440E-01   -0.15610E-01 37030   0.796E-01    0.866E-01
DAV:   4    -0.132408827896E+04   -0.57135E-03   -0.11361E-02 40070   0.223E-01    0.662E-01
DAV:   5    -0.132408668589E+04    0.15931E-02   -0.28348E-03 40410   0.193E-01    0.515E-01
DAV:   6    -0.132408589239E+04    0.79350E-03   -0.35695E-03 44650   0.230E-01    0.255E-01
DAV:   7    -0.132408558868E+04    0.30372E-03   -0.16200E-03 39170   0.113E-01    0.742E-02
DAV:   8    -0.132408611745E+04   -0.52878E-03   -0.21807E-04 34560   0.373E-02    0.431E-02
DAV:   9    -0.132408605121E+04    0.66237E-04   -0.24988E-05 19710   0.171E-02    0.263E-02
DAV:  10    -0.132408601868E+04    0.32535E-04   -0.86497E-06 18250   0.113E-02
 164 F= -.13240860E+04 E0= -.13240860E+04  d E =0.215954E-01  mag=   114.0000
       N       E                     dE             d eps       ncg     rms          rms(c)
DAV:   1    -0.132370466151E+04    0.38139E+00   -0.18796E+01 43970   0.172E+01    0.287E+00
DAV:   2    -0.132407405641E+04   -0.36939E+00   -0.35395E+00 37130   0.305E+00    0.139E+00
DAV:   3    -0.132407906129E+04   -0.50049E-02   -0.94759E-02 37160   0.634E-01    0.683E-01
DAV:   4    -0.132407909724E+04   -0.35947E-04   -0.62588E-03 38940   0.160E-01    0.515E-01
DAV:   5    -0.132407745384E+04    0.16434E-02   -0.18209E-03 42920   0.155E-01    0.362E-01
DAV:   6    -0.132407721044E+04    0.24339E-03   -0.26772E-03 44630   0.182E-01    0.206E-01
DAV:   7    -0.132407681705E+04    0.39339E-03   -0.13117E-03 38480   0.104E-01    0.758E-02
DAV:   8    -0.132407716911E+04   -0.35206E-03   -0.17158E-04 32370   0.407E-02    0.461E-02
DAV:   9    -0.132407719445E+04   -0.25336E-04   -0.34282E-05 20100   0.186E-02
 165 F= -.13240772E+04 E0= -.13240772E+04  d E =0.882423E-02  mag=   114.0000
       N       E                     dE             d eps       ncg     rms          rms(c)
DAV:   1    -0.132365634467E+04    0.42082E+00   -0.17048E+01 46470   0.180E+01    0.300E+00
DAV:   2    -0.132406784201E+04   -0.41150E+00   -0.37807E+00 36620   0.311E+00    0.150E+00
DAV:   3    -0.132407598618E+04   -0.81442E-02   -0.11190E-01 36930   0.675E-01    0.734E-01
DAV:   4    -0.132407559477E+04    0.39141E-03   -0.81094E-03 39730   0.196E-01    0.546E-01
DAV:   5    -0.132407486473E+04    0.73005E-03   -0.20237E-03 40970   0.163E-01    0.402E-01
DAV:   6    -0.132407364560E+04    0.12191E-02   -0.27850E-03 43920   0.202E-01    0.182E-01
DAV:   7    -0.132407416916E+04   -0.52356E-03   -0.13178E-03 38660   0.101E-01    0.687E-02
DAV:   8    -0.132407402884E+04    0.14033E-03   -0.15476E-04 30950   0.362E-02    0.429E-02
DAV:   9    -0.132407407445E+04   -0.45618E-04   -0.26143E-05 19820   0.175E-02
 166 F= -.13240741E+04 E0= -.13240741E+04  d E =0.311999E-02  mag=   114.0000
       N       E                     dE             d eps       ncg     rms          rms(c)
DAV:   1    -0.132376546344E+04    0.30857E+00   -0.14996E+01 44550   0.163E+01    0.253E+00
DAV:   2    -0.132408199128E+04   -0.31653E+00   -0.29859E+00 37410   0.287E+00    0.135E+00
DAV:   3    -0.132408886001E+04   -0.68687E-02   -0.10063E-01 36790   0.711E-01    0.771E-01
DAV:   4    -0.132408797984E+04    0.88017E-03   -0.65717E-03 39820   0.188E-01    0.502E-01
DAV:   5    -0.132408680722E+04    0.11726E-02   -0.19597E-03 41290   0.158E-01    0.349E-01
DAV:   6    -0.132408637605E+04    0.43116E-03   -0.25309E-03 41570   0.184E-01    0.212E-01
DAV:   7    -0.132408610401E+04    0.27204E-03   -0.12340E-03 39210   0.103E-01    0.741E-02
DAV:   8    -0.132408632310E+04   -0.21908E-03   -0.25915E-04 34210   0.450E-02    0.482E-02
DAV:   9    -0.132408621051E+04    0.11259E-03   -0.44239E-05 20570   0.205E-02    0.251E-02
DAV:  10    -0.132408627082E+04   -0.60310E-04   -0.92690E-06 18690   0.963E-03    0.155E-02
DAV:  11    -0.132408627925E+04   -0.84351E-05   -0.44273E-06 18250   0.527E-03
 167 F= -.13240863E+04 E0= -.13240863E+04  d E =-.122048E-01  mag=   114.0000
       N       E                     dE             d eps       ncg     rms          rms(c)
DAV:   1    -0.132393094749E+04    0.15532E+00   -0.67498E+00 47960   0.114E+01    0.184E+00
DAV:   2    -0.132409145696E+04   -0.16051E+00   -0.14881E+00 37390   0.196E+00    0.950E-01
DAV:   3    -0.132409517173E+04   -0.37148E-02   -0.49829E-02 36880   0.487E-01    0.525E-01
DAV:   4    -0.132409510950E+04    0.62228E-04   -0.41820E-03 39200   0.164E-01    0.350E-01
DAV:   5    -0.132409456156E+04    0.54794E-03   -0.10814E-03 39380   0.111E-01    0.254E-01
DAV:   6    -0.132409450871E+04    0.52851E-04   -0.11358E-03 42770   0.120E-01    0.119E-01
DAV:   7    -0.132409427630E+04    0.23241E-03   -0.52048E-04 38990   0.638E-02    0.598E-02
DAV:   8    -0.132409449552E+04   -0.21922E-03   -0.10295E-04 24490   0.302E-02    0.313E-02
DAV:   9    -0.132409445110E+04    0.44426E-04   -0.16048E-05 18490   0.106E-02
 168 F= -.13240945E+04 E0= -.13240945E+04  d E =-.817184E-02  mag=   114.0000
       N       E                     dE             d eps       ncg     rms          rms(c)
DAV:   1    -0.132384279856E+04    0.25170E+00   -0.13785E+01 43990   0.143E+01    0.224E+00
DAV:   2    -0.132408695662E+04   -0.24416E+00   -0.23693E+00 37440   0.255E+00    0.118E+00
DAV:   3    -0.132408980025E+04   -0.28436E-02   -0.68362E-02 36830   0.586E-01    0.669E-01
DAV:   4    -0.132408977133E+04    0.28926E-04   -0.59208E-03 39500   0.185E-01    0.459E-01
DAV:   5    -0.132408871294E+04    0.10584E-02   -0.15844E-03 39820   0.146E-01    0.335E-01
DAV:   6    -0.132408842831E+04    0.28463E-03   -0.21069E-03 43120   0.167E-01    0.140E-01
DAV:   7    -0.132408818665E+04    0.24165E-03   -0.94765E-04 38570   0.814E-02    0.549E-02
DAV:   8    -0.132408838630E+04   -0.19964E-03   -0.10438E-04 26000   0.280E-02    0.309E-02
DAV:   9    -0.132408834112E+04    0.45172E-04   -0.15393E-05 18720   0.116E-02
 169 F= -.13240883E+04 E0= -.13240883E+04  d E =0.610997E-02  mag=   114.0000
       N       E                     dE             d eps       ncg     rms          rms(c)
DAV:   1    -0.131705366017E+04    0.70347E+01   -0.23323E+02 49910   0.672E+01    0.124E+01
DAV:   2    -0.132385770890E+04   -0.68040E+01   -0.57714E+01 38170   0.122E+01    0.189E+01
DAV:   3    -0.132356078984E+04    0.29692E+00   -0.11125E+01 37410   0.864E+00    0.851E+00
DAV:   4    -0.132360330734E+04   -0.42517E-01   -0.63601E-01 37420   0.275E+00    0.387E+00
DAV:   5    -0.132356984493E+04    0.33462E-01   -0.11043E-01 41590   0.898E-01    0.235E+00
DAV:   6    -0.132355850663E+04    0.11338E-01   -0.60688E-02 43140   0.813E-01    0.124E+00
DAV:   7    -0.132355934022E+04   -0.83358E-03   -0.34465E-02 39560   0.492E-01    0.872E-01
DAV:   8    -0.132355736984E+04    0.19704E-02   -0.11077E-02 40010   0.382E-01    0.455E-01
DAV:   9    -0.132355777934E+04   -0.40950E-03   -0.41317E-03 39340   0.174E-01    0.212E-01
DAV:  10    -0.132355677267E+04    0.10067E-02   -0.68225E-04 38050   0.675E-02    0.118E-01
DAV:  11    -0.132355707266E+04   -0.29999E-03   -0.20562E-04 31610   0.260E-02    0.701E-02
DAV:  12    -0.132355715681E+04   -0.84145E-04   -0.29503E-05 19940   0.166E-02    0.433E-02
DAV:  13    -0.132355704879E+04    0.10802E-03   -0.36754E-05 19800   0.177E-02    0.168E-02
DAV:  14    -0.132355719644E+04   -0.14766E-03   -0.14021E-05 18430   0.670E-03    0.968E-03
DAV:  15    -0.132355722040E+04   -0.23959E-04   -0.17972E-06 18010   0.328E-03
 170 F= -.13235572E+04 E0= -.13235572E+04  d E =0.531121E+00  mag=   114.0000
       N       E                     dE             d eps       ncg     rms          rms(c)
DAV:   1    -0.132167271957E+04    0.18845E+01   -0.84984E+01 49920   0.419E+01    0.734E+00
DAV:   2    -0.132401280935E+04   -0.23401E+01   -0.20636E+01 38210   0.732E+00    0.601E+00
DAV:   3    -0.132410100413E+04   -0.88195E-01   -0.18423E+00 36910   0.343E+00    0.382E+00
DAV:   4    -0.132406291784E+04    0.38086E-01   -0.18042E-01 38520   0.142E+00    0.146E+00
DAV:   5    -0.132405998679E+04    0.29310E-02   -0.31725E-02 41720   0.357E-01    0.961E-01
DAV:   6    -0.132405673983E+04    0.32470E-02   -0.16661E-02 40170   0.409E-01    0.537E-01
DAV:   7    -0.132405703779E+04   -0.29796E-03   -0.73831E-03 40560   0.268E-01    0.330E-01
DAV:   8    -0.132405605025E+04    0.98754E-03   -0.21377E-03 37330   0.148E-01    0.128E-01
DAV:   9    -0.132405628158E+04   -0.23133E-03   -0.41670E-04 34620   0.673E-02    0.717E-02
DAV:  10    -0.132405643698E+04   -0.15539E-03   -0.12523E-04 27880   0.318E-02    0.408E-02
DAV:  11    -0.132405633324E+04    0.10373E-03   -0.28346E-05 19090   0.170E-02    0.175E-02
DAV:  12    -0.132405645734E+04   -0.12410E-03   -0.15369E-05 18530   0.108E-02    0.101E-02
DAV:  13    -0.132405641485E+04    0.42495E-04   -0.38043E-06 18180   0.521E-03
 171 F= -.13240564E+04 E0= -.13240564E+04  d E =-.499194E+00  mag=   114.0000
       N       E                     dE             d eps       ncg     rms          rms(c)
DAV:   1    -0.132391484218E+04    0.14162E+00   -0.55450E+00 49920   0.119E+01    0.195E+00
DAV:   2    -0.132408740865E+04   -0.17257E+00   -0.14904E+00 37900   0.189E+00    0.960E-01
DAV:   3    -0.132409306552E+04   -0.56569E-02   -0.48705E-02 36960   0.464E-01    0.473E-01
DAV:   4    -0.132409352934E+04   -0.46382E-03   -0.30918E-03 39520   0.130E-01    0.323E-01
DAV:   5    -0.132409290754E+04    0.62180E-03   -0.15144E-03 42090   0.121E-01    0.237E-01
DAV:   6    -0.132409308235E+04   -0.17481E-03   -0.12375E-03 39950   0.117E-01    0.118E-01
DAV:   7    -0.132409284429E+04    0.23807E-03   -0.36953E-04 36320   0.593E-02    0.484E-02
DAV:   8    -0.132409296563E+04   -0.12134E-03   -0.86960E-05 22630   0.274E-02    0.327E-02
DAV:   9    -0.132409297942E+04   -0.13793E-04   -0.16311E-05 18990   0.130E-02
 172 F= -.13240930E+04 E0= -.13240930E+04  d E =-.365646E-01  mag=   114.0000
       N       E                     dE             d eps       ncg     rms          rms(c)
DAV:   1    -0.132398957816E+04    0.10339E+00   -0.37201E+00 49700   0.946E+00    0.154E+00
DAV:   2    -0.132410289633E+04   -0.11332E+00   -0.98916E-01 37300   0.151E+00    0.756E-01
DAV:   3    -0.132410557874E+04   -0.26824E-02   -0.28549E-02 37020   0.351E-01    0.368E-01
DAV:   4    -0.132410578087E+04   -0.20213E-03   -0.16636E-03 38400   0.943E-02    0.255E-01
DAV:   5    -0.132410539000E+04    0.39087E-03   -0.61268E-04 41340   0.904E-02    0.151E-01
DAV:   6    -0.132410547787E+04   -0.87868E-04   -0.37419E-04 37410   0.706E-02    0.666E-02
DAV:   7    -0.132410544971E+04    0.28165E-04   -0.13885E-04 28100   0.377E-02
 173 F= -.13241054E+04 E0= -.13241054E+04  d E =-.124703E-01  mag=   114.0000
       N       E                     dE             d eps       ncg     rms          rms(c)
DAV:   1    -0.132393877612E+04    0.16670E+00   -0.56986E+00 48700   0.107E+01    0.172E+00
DAV:   2    -0.132409571430E+04   -0.15694E+00   -0.14282E+00 36650   0.178E+00    0.908E-01
DAV:   3    -0.132409950797E+04   -0.37937E-02   -0.45744E-02 36810   0.408E-01    0.477E-01
DAV:   4    -0.132409915107E+04    0.35690E-03   -0.34242E-03 39860   0.126E-01    0.347E-01
DAV:   5    -0.132409927687E+04   -0.12580E-03   -0.11746E-03 38110   0.118E-01    0.253E-01
DAV:   6    -0.132409872823E+04    0.54864E-03   -0.11616E-03 39770   0.121E-01    0.118E-01
DAV:   7    -0.132409900835E+04   -0.28012E-03   -0.40052E-04 36320   0.578E-02    0.429E-02
DAV:   8    -0.132409897059E+04    0.37759E-04   -0.62460E-05 21150   0.226E-02
 174 F= -.13240990E+04 E0= -.13240990E+04  d E =0.647911E-02  mag=   114.0000
       N       E                     dE             d eps       ncg     rms          rms(c)
DAV:   1    -0.132361038245E+04    0.48863E+00   -0.29178E+01 44760   0.201E+01    0.305E+00
DAV:   2    -0.132406092933E+04   -0.45055E+00   -0.44502E+00 36730   0.356E+00    0.160E+00
DAV:   3    -0.132406880401E+04   -0.78747E-02   -0.14033E-01 36750   0.857E-01    0.902E-01
DAV:   4    -0.132406780670E+04    0.99732E-03   -0.10513E-02 39410   0.268E-01    0.579E-01
