       N       E                     dE             d eps       ncg     rms          rms(c)
DAV:   1     0.112535986536E+05    0.11254E+05   -0.43012E+05 34780   0.160E+03
DAV:   2     0.292015826792E+02   -0.11224E+05   -0.10209E+05 34160   0.487E+02
DAV:   3    -0.160815202701E+04   -0.16374E+04   -0.15519E+04 36420   0.198E+02
DAV:   4    -0.169245357054E+04   -0.84302E+02   -0.83073E+02 39280   0.457E+01
DAV:   5    -0.169353164671E+04   -0.10781E+01   -0.10747E+01 37550   0.559E+00    0.146E+02
DAV:   6    -0.128379973772E+04    0.40973E+03   -0.81063E+02 40870   0.760E+01    0.119E+02
DAV:   7    -0.133396463491E+04   -0.50165E+02   -0.35374E+02 37050   0.647E+01    0.873E+01
DAV:   8    -0.130889563760E+04    0.25069E+02   -0.49196E+01 38550   0.229E+01    0.686E+01
DAV:   9    -0.131637266815E+04   -0.74770E+01   -0.54659E+01 37030   0.311E+01    0.640E+01
DAV:  10    -0.132145216426E+04   -0.50795E+01   -0.36341E+01 38130   0.168E+01    0.424E+01
DAV:  11    -0.131992021202E+04    0.15320E+01   -0.11622E+01 36710   0.108E+01    0.255E+01
DAV:  12    -0.131963332101E+04    0.28689E+00   -0.32208E+00 40110   0.693E+00    0.203E+01
DAV:  13    -0.132224519428E+04   -0.26119E+01   -0.22643E+01 36860   0.473E+00    0.269E+01
DAV:  14    -0.132047954074E+04    0.17657E+01   -0.40286E+00 37700   0.357E+00    0.176E+01
DAV:  15    -0.132136276146E+04   -0.88322E+00   -0.96035E-01 35670   0.138E+00    0.188E+01
DAV:  16    -0.132152236177E+04   -0.15960E+00   -0.50132E-01 35680   0.505E-01    0.189E+01
DAV:  17    -0.132173201630E+04   -0.20965E+00   -0.58106E-01 35320   0.397E-01    0.187E+01
DAV:  18    -0.132167113090E+04    0.60885E-01   -0.18472E-01 35260   0.569E-01    0.194E+01
DAV:  19    -0.132188207303E+04   -0.21094E+00   -0.14448E-01 35400   0.369E-01    0.191E+01
DAV:  20    -0.132208819217E+04   -0.20612E+00   -0.35683E+00 40220   0.434E+00    0.175E+01
DAV:  21    -0.131978578312E+04    0.23024E+01   -0.19167E+00 38070   0.344E+00    0.203E+01
DAV:  22    -0.132132907782E+04   -0.15433E+01   -0.15061E+00 35420   0.200E+00    0.181E+01
DAV:  23    -0.132144310452E+04   -0.11403E+00   -0.50832E-01 35650   0.122E+00    0.191E+01
DAV:  24    -0.132149407809E+04   -0.50974E-01   -0.30197E-01 35940   0.480E-01    0.195E+01
DAV:  25    -0.132137229682E+04    0.12178E+00   -0.91221E-02 34500   0.457E-01    0.203E+01
DAV:  26    -0.132223153192E+04   -0.85924E+00   -0.14089E-01 36370   0.957E-01    0.194E+01
DAV:  27    -0.132350934944E+04   -0.12778E+01   -0.20340E-01 41710   0.163E+00    0.178E+01
DAV:  28    -0.132341842992E+04    0.90920E-01   -0.61030E-02 36300   0.443E-01    0.178E+01
DAV:  29    -0.132345129298E+04   -0.32863E-01   -0.28194E-02 45360   0.488E-01    0.177E+01
DAV:  30    -0.132542021404E+04   -0.19689E+01   -0.11856E+00 46650   0.309E+00    0.213E+01
DAV:  31    -0.132613581824E+04   -0.71560E+00   -0.14869E+00 38420   0.141E+00    0.264E+01
DAV:  32    -0.132579053004E+04    0.34529E+00   -0.85914E-01 37130   0.126E+00    0.289E+01
DAV:  33    -0.132592750713E+04   -0.13698E+00   -0.33296E-01 36280   0.619E-01    0.301E+01
DAV:  34    -0.132573186626E+04    0.19564E+00   -0.10631E-01 37220   0.636E-01    0.303E+01
DAV:  35    -0.132587845021E+04   -0.14658E+00   -0.16413E-01 43520   0.903E-01    0.312E+01
DAV:  36    -0.132921231557E+04   -0.33339E+01   -0.28807E+00 43000   0.246E+00    0.410E+01
DAV:  37    -0.132981012763E+04   -0.59781E+00   -0.39102E-01 35580   0.123E+00    0.414E+01
DAV:  38    -0.132976156178E+04    0.48566E-01   -0.38788E-02 35420   0.427E-01    0.416E+01
DAV:  39    -0.132976625766E+04   -0.46959E-02   -0.45087E-03 36830   0.240E-01    0.415E+01
DAV:  40    -0.132945500862E+04    0.31125E+00   -0.16866E-02 41900   0.609E-01    0.412E+01
DAV:  41    -0.132935617230E+04    0.98836E-01   -0.30533E-01 40240   0.256E+00    0.411E+01
DAV:  42    -0.132980477955E+04   -0.44861E+00   -0.76438E+00 43040   0.293E+00    0.463E+01
DAV:  43    -0.133108654749E+04   -0.12818E+01   -0.90983E-01 35230   0.219E+00    0.479E+01
DAV:  44    -0.133140021154E+04   -0.31366E+00   -0.12461E-01 36290   0.105E+00    0.483E+01
DAV:  45    -0.133139851670E+04    0.16948E-02   -0.22514E-02 35360   0.256E-01    0.483E+01
DAV:  46    -0.133141128371E+04   -0.12767E-01   -0.14764E-03 36780   0.138E-01    0.482E+01
DAV:  47    -0.133141969961E+04   -0.84159E-02   -0.23122E-02 44300   0.766E-01    0.481E+01
DAV:  48    -0.133180894318E+04   -0.38924E+00   -0.13346E-02 38100   0.587E-01    0.485E+01
DAV:  49    -0.133145637470E+04    0.35257E+00   -0.43412E-03 36110   0.406E-01    0.483E+01
DAV:  50    -0.133136722274E+04    0.89152E-01   -0.29976E-03 40120   0.112E-01    0.482E+01
DAV:  51    -0.133153963122E+04   -0.17241E+00   -0.69441E-03 41200   0.381E-01    0.486E+01
DAV:  52    -0.133140520545E+04    0.13443E+00   -0.12627E-02 40670   0.490E-01    0.481E+01
DAV:  53    -0.133145509829E+04   -0.49893E-01   -0.40206E-03 36190   0.139E-01    0.481E+01
DAV:  54    -0.133140861334E+04    0.46485E-01   -0.39430E-04 33680   0.676E-02    0.481E+01
DAV:  55    -0.133139543696E+04    0.13176E-01   -0.16033E-03 38380   0.204E-01    0.480E+01
DAV:  56    -0.132242015456E+04    0.89753E+01   -0.27008E+00 42560   0.825E+00    0.215E+01
DAV:  57    -0.132392333349E+04   -0.15032E+01   -0.65144E+00 41600   0.413E+00    0.208E+01
DAV:  58    -0.132408121262E+04   -0.15788E+00   -0.14390E+00 45680   0.286E+00    0.243E+01
DAV:  59    -0.132426064458E+04   -0.17943E+00   -0.66893E-01 35950   0.154E+00    0.269E+01
DAV:  60    -0.132413124770E+04    0.12940E+00   -0.54401E-02 38620   0.842E-01    0.269E+01
DAV:  61    -0.132426727909E+04   -0.13603E+00   -0.10279E+00 45210   0.532E+00    0.194E+01
DAV:  62    -0.132516231499E+04   -0.89504E+00   -0.10161E+00 37300   0.218E+00    0.192E+01
DAV:  63    -0.132532040968E+04   -0.15809E+00   -0.82656E-02 39670   0.793E-01    0.188E+01
DAV:  64    -0.132531339371E+04    0.70160E-02   -0.13030E-01 43020   0.150E+00    0.180E+01
DAV:  65    -0.132566461469E+04   -0.35122E+00   -0.21556E-01 43770   0.185E+00    0.205E+01
DAV:  66    -0.132510730108E+04    0.55731E+00   -0.55562E-01 41790   0.336E+00    0.211E+01
DAV:  67    -0.132491542385E+04    0.19188E+00   -0.19529E-01 39310   0.168E+00    0.212E+01
DAV:  68    -0.132465857509E+04    0.25685E+00   -0.13440E-01 42610   0.198E+00    0.211E+01
DAV:  69    -0.132513681779E+04   -0.47824E+00   -0.24816E-01 40750   0.149E+00    0.231E+01
DAV:  70    -0.132522540791E+04   -0.88590E-01   -0.11748E-01 40340   0.110E+00    0.227E+01
DAV:  71    -0.132562927748E+04   -0.40387E+00   -0.31321E-01 43010   0.295E+00    0.227E+01
DAV:  72    -0.132601257378E+04   -0.38330E+00   -0.26991E-01 45770   0.151E+00    0.232E+01
DAV:  73    -0.132641940758E+04   -0.40683E+00   -0.10487E-01 45640   0.132E+00    0.239E+01
DAV:  74    -0.132731892898E+04   -0.89952E+00   -0.26261E+00 45480   0.124E+00    0.287E+01
DAV:  75    -0.132803247789E+04   -0.71355E+00   -0.27802E-01 35160   0.994E-01    0.292E+01
DAV:  76    -0.133202022198E+04   -0.39877E+01   -0.45550E+00 43690   0.416E+00    0.453E+01
DAV:  77    -0.133314981044E+04   -0.11296E+01   -0.13580E+00 35480   0.172E+00    0.485E+01
DAV:  78    -0.133379188862E+04   -0.64208E+00   -0.11150E+00 36560   0.950E-01    0.520E+01
DAV:  79    -0.133410334377E+04   -0.31146E+00   -0.72975E-02 36010   0.760E-01    0.522E+01
DAV:  80    -0.133416699102E+04   -0.63647E-01   -0.10746E-02 35520   0.213E-01    0.523E+01
DAV:  81    -0.133190509022E+04    0.22619E+01   -0.21645E-01 42950   0.188E+00    0.517E+01
DAV:  82    -0.133117723121E+04    0.72786E+00   -0.11137E-01 37740   0.929E-01    0.514E+01
DAV:  83    -0.133075016555E+04    0.42707E+00   -0.36393E-02 45530   0.675E-01    0.514E+01
DAV:  84    -0.133018276953E+04    0.56740E+00   -0.32581E-02 44270   0.569E-01    0.512E+01
DAV:  85    -0.132973463380E+04    0.44814E+00   -0.22752E-02 44560   0.427E-01    0.512E+01
DAV:  86    -0.132252418316E+04    0.72105E+01   -0.30659E+01 43800   0.675E+00    0.188E+01
DAV:  87    -0.132414042026E+04   -0.16162E+01   -0.14111E+00 36780   0.326E+00    0.186E+01
DAV:  88    -0.132411547871E+04    0.24942E-01   -0.18355E-01 40120   0.129E+00    0.175E+01
DAV:  89    -0.132399889025E+04    0.11659E+00   -0.14087E-01 41350   0.122E+00    0.162E+01
DAV:  90    -0.132389104121E+04    0.10785E+00   -0.52047E-01 46020   0.119E+00    0.141E+01
DAV:  91    -0.132364728668E+04    0.24375E+00   -0.33998E+00 42000   0.236E+00    0.109E+01
DAV:  92    -0.132364120793E+04    0.60788E-02   -0.34003E-01 39330   0.191E+00    0.101E+01
DAV:  93    -0.132351514845E+04    0.12606E+00   -0.29853E-01 44660   0.148E+00    0.774E+00
DAV:  94    -0.132398236460E+04   -0.46722E+00   -0.81125E-01 38220   0.119E+00    0.120E+01
DAV:  95    -0.132411953520E+04   -0.13717E+00   -0.71430E-02 35340   0.797E-01    0.120E+01
DAV:  96    -0.132398490571E+04    0.13463E+00   -0.77433E-02 39160   0.166E+00    0.109E+01
DAV:  97    -0.132398882890E+04   -0.39232E-02   -0.80717E-02 43940   0.132E+00    0.105E+01
DAV:  98    -0.132403611148E+04   -0.47283E-01   -0.71253E-02 44980   0.115E+00    0.104E+01
DAV:  99    -0.132408420486E+04   -0.48093E-01   -0.40422E-02 43860   0.543E-01    0.105E+01
DAV: 100    -0.132412928206E+04   -0.45077E-01   -0.63771E-03 40650   0.329E-01    0.104E+01
DAV: 101    -0.132433024264E+04   -0.20096E+00   -0.13570E-01 42240   0.192E+00    0.862E+00
DAV: 102    -0.132439611646E+04   -0.65874E-01   -0.12169E-01 39300   0.159E+00    0.923E+00
DAV: 103    -0.132445359464E+04   -0.57478E-01   -0.63241E-02 43330   0.960E-01    0.102E+01
DAV: 104    -0.132447505220E+04   -0.21458E-01   -0.32110E-02 37130   0.397E-01    0.104E+01
DAV: 105    -0.132445437688E+04    0.20675E-01   -0.97216E-03 41220   0.427E-01    0.104E+01
DAV: 106    -0.132443431040E+04    0.20066E-01   -0.43936E-02 39490   0.109E+00    0.101E+01
DAV: 107    -0.132442456712E+04    0.97433E-02   -0.32967E-02 45640   0.541E-01    0.102E+01
DAV: 108    -0.132443136098E+04   -0.67939E-02   -0.10343E-02 35960   0.273E-01    0.102E+01
DAV: 109    -0.132442802182E+04    0.33392E-02   -0.60613E-04 40870   0.102E-01    0.102E+01
DAV: 110    -0.132442714964E+04    0.87219E-03   -0.10138E-03 34670   0.180E-01    0.102E+01
DAV: 111    -0.132444587508E+04   -0.18725E-01   -0.10840E-02 40140   0.554E-01    0.101E+01
DAV: 112    -0.132442216267E+04    0.23712E-01   -0.64127E-03 38530   0.447E-01    0.976E+00
DAV: 113    -0.132439113732E+04    0.31025E-01   -0.79208E-03 45020   0.378E-01    0.943E+00
DAV: 114    -0.132434598540E+04    0.45152E-01   -0.94642E-03 44700   0.486E-01    0.905E+00
DAV: 115    -0.132430051170E+04    0.45474E-01   -0.13868E-02 45130   0.524E-01    0.875E+00
DAV: 116    -0.132444398705E+04   -0.14348E+00   -0.90254E-02 40640   0.179E+00    0.969E+00
DAV: 117    -0.132443231222E+04    0.11675E-01   -0.26516E-02 36360   0.350E-01    0.943E+00
DAV: 118    -0.132440534999E+04    0.26962E-01   -0.19989E-03 44580   0.191E-01    0.924E+00
DAV: 119    -0.132437738487E+04    0.27965E-01   -0.32914E-03 43590   0.263E-01    0.893E+00
DAV: 120    -0.132432567763E+04    0.51707E-01   -0.10054E-02 41530   0.628E-01    0.835E+00
DAV: 121    -0.132432387856E+04    0.17991E-02   -0.43946E-01 39740   0.446E+00    0.887E+00
DAV: 122    -0.132429128180E+04    0.32597E-01   -0.19385E-01 40500   0.134E+00    0.781E+00
DAV: 123    -0.132420221246E+04    0.89069E-01   -0.59127E-02 46480   0.114E+00    0.669E+00
DAV: 124    -0.132414699005E+04    0.55222E-01   -0.36554E-02 42330   0.918E-01    0.578E+00
DAV: 125    -0.132413343960E+04    0.13550E-01   -0.19445E-02 44380   0.570E-01    0.511E+00
DAV: 126    -0.132410828481E+04    0.25155E-01   -0.11764E-02 41760   0.536E-01    0.454E+00
DAV: 127    -0.132407614175E+04    0.32143E-01   -0.19519E-02 43760   0.908E-01    0.351E+00
DAV: 128    -0.132406483735E+04    0.11304E-01   -0.26520E-02 43940   0.388E-01    0.306E+00
DAV: 129    -0.132406137300E+04    0.34644E-02   -0.47730E-03 38260   0.131E-01    0.291E+00
DAV: 130    -0.132405417092E+04    0.72021E-02   -0.80512E-04 42140   0.198E-01    0.274E+00
DAV: 131    -0.132404541104E+04    0.87599E-02   -0.24813E-02 41960   0.995E-01    0.300E+00
DAV: 132    -0.132402298227E+04    0.22429E-01   -0.25399E-02 39680   0.793E-01    0.199E+00
DAV: 133    -0.132401190775E+04    0.11075E-01   -0.95093E-03 43830   0.365E-01    0.149E+00
DAV: 134    -0.132400837243E+04    0.35353E-02   -0.53236E-03 46670   0.239E-01    0.114E+00
DAV: 135    -0.132400441067E+04    0.39618E-02   -0.17745E-03 44690   0.268E-01    0.765E-01
DAV: 136    -0.132400109368E+04    0.33170E-02   -0.70050E-03 46000   0.515E-01    0.149E-01
DAV: 137    -0.132400068901E+04    0.40467E-03   -0.69581E-03 37780   0.144E-01    0.171E-01
DAV: 138    -0.132400026959E+04    0.41942E-03   -0.39584E-04 37320   0.485E-02    0.131E-01
DAV: 139    -0.132400021987E+04    0.49725E-04   -0.10657E-04 27180   0.224E-02
   1 F= -.13240002E+04 E0= -.13240002E+04  d E =-.132400E+04  mag=   120.0052
       N       E                     dE             d eps       ncg     rms          rms(c)
DAV:   1    -0.132400259123E+04   -0.23216E-02   -0.10005E-02 48480   0.459E-01    0.953E-02
DAV:   2    -0.132400279071E+04   -0.19947E-03   -0.24401E-03 38530   0.825E-02    0.520E-02
DAV:   3    -0.132400284287E+04   -0.52165E-04   -0.14172E-04 27250   0.290E-02    0.365E-02
DAV:   4    -0.132400286894E+04   -0.26069E-04   -0.13051E-05 18790   0.114E-02
   2 F= -.13240029E+04 E0= -.13240029E+04  d E =-.264907E-02  mag=   120.0011
       N       E                     dE             d eps       ncg     rms          rms(c)
DAV:   1    -0.132400482737E+04   -0.19845E-02   -0.71575E-03 47800   0.390E-01    0.630E-02
DAV:   2    -0.132400503750E+04   -0.21013E-03   -0.17610E-03 38150   0.659E-02    0.347E-02
DAV:   3    -0.132400504673E+04   -0.92309E-05   -0.63176E-05 20610   0.163E-02    0.205E-02
DAV:   4    -0.132400505697E+04   -0.10232E-04   -0.47233E-06 17940   0.494E-03
   3 F= -.13240051E+04 E0= -.13240051E+04  d E =-.218802E-02  mag=   120.0002
       N       E                     dE             d eps       ncg     rms          rms(c)
DAV:   1    -0.132173522744E+04    0.22698E+01   -0.89651E+01 48870   0.412E+01    0.701E+00
DAV:   2    -0.132390304863E+04   -0.21678E+01   -0.19547E+01 37330   0.711E+00    0.471E+00
DAV:   3    -0.132396503763E+04   -0.61989E-01   -0.83374E-01 37040   0.214E+00    0.237E+00
DAV:   4    -0.132396069237E+04    0.43453E-02   -0.71983E-02 39420   0.771E-01    0.139E+00
DAV:   5    -0.132395434809E+04    0.63443E-02   -0.18516E-02 40840   0.390E-01    0.882E-01
DAV:   6    -0.132395111244E+04    0.32356E-02   -0.94938E-03 40960   0.313E-01    0.389E-01
DAV:   7    -0.132395149734E+04   -0.38490E-03   -0.41219E-03 39910   0.145E-01    0.154E-01
DAV:   8    -0.132395211144E+04   -0.61410E-03   -0.72979E-04 36970   0.611E-02    0.795E-02
DAV:   9    -0.132395186484E+04    0.24660E-03   -0.14604E-04 32650   0.308E-02    0.599E-02
DAV:  10    -0.132395187938E+04   -0.14537E-04   -0.40690E-05 20430   0.207E-02
   4 F= -.13239519E+04 E0= -.13239519E+04  d E =0.531776E-01  mag=   120.0000
       N       E                     dE             d eps       ncg     rms          rms(c)
DAV:   1    -0.132367649403E+04    0.27537E+00   -0.14192E+01 49400   0.170E+01    0.293E+00
DAV:   2    -0.132404185045E+04   -0.36536E+00   -0.32559E+00 38180   0.293E+00    0.177E+00
DAV:   3    -0.132405422994E+04   -0.12379E-01   -0.15518E-01 36850   0.937E-01    0.110E+00
DAV:   4    -0.132405336068E+04    0.86926E-03   -0.12375E-02 39860   0.314E-01    0.558E-01
DAV:   5    -0.132405118104E+04    0.21796E-02   -0.41442E-03 40260   0.177E-01    0.365E-01
DAV:   6    -0.132405060687E+04    0.57417E-03   -0.22744E-03 40210   0.146E-01    0.152E-01
DAV:   7    -0.132405051343E+04    0.93447E-04   -0.81699E-04 39020   0.726E-02    0.755E-02
DAV:   8    -0.132405061592E+04   -0.10249E-03   -0.22267E-04 33050   0.354E-02    0.452E-02
DAV:   9    -0.132405058301E+04    0.32908E-04   -0.31616E-05 19130   0.145E-02
   5 F= -.13240506E+04 E0= -.13240506E+04  d E =-.987036E-01  mag=   120.0000
       N       E                     dE             d eps       ncg     rms          rms(c)
DAV:   1    -0.132399696120E+04    0.53655E-01   -0.23476E+00 48450   0.683E+00    0.116E+00
DAV:   2    -0.132405776294E+04   -0.60802E-01   -0.55056E-01 37540   0.117E+00    0.587E-01
DAV:   3    -0.132405925068E+04   -0.14877E-02   -0.20246E-02 36950   0.294E-01    0.325E-01
DAV:   4    -0.132405921567E+04    0.35008E-04   -0.12180E-03 39180   0.776E-02    0.202E-01
DAV:   5    -0.132405875236E+04    0.46331E-03   -0.38957E-04 35080   0.638E-02    0.135E-01
DAV:   6    -0.132405873904E+04    0.13319E-04   -0.33064E-04 38450   0.644E-02
   6 F= -.13240587E+04 E0= -.13240587E+04  d E =-.815603E-02  mag=   120.0000
       N       E                     dE             d eps       ncg     rms          rms(c)
DAV:   1    -0.132366643633E+04    0.39232E+00   -0.21080E+01 44530   0.179E+01    0.289E+00
DAV:   2    -0.132404817654E+04   -0.38174E+00   -0.36475E+00 35880   0.313E+00    0.146E+00
DAV:   3    -0.132405359343E+04   -0.54169E-02   -0.10842E-01 36740   0.643E-01    0.696E-01
DAV:   4    -0.132405319576E+04    0.39768E-03   -0.65781E-03 39940   0.145E-01    0.502E-01
DAV:   5    -0.132405151805E+04    0.16777E-02   -0.12802E-03 43530   0.145E-01    0.284E-01
DAV:   6    -0.132405131320E+04    0.20485E-03   -0.14856E-03 43870   0.123E-01    0.104E-01
DAV:   7    -0.132405135149E+04   -0.38289E-04   -0.55408E-04 37150   0.564E-02    0.559E-02
DAV:   8    -0.132405143425E+04   -0.82764E-04   -0.39422E-05 20220   0.203E-02    0.314E-02
DAV:   9    -0.132405139030E+04    0.43953E-04   -0.12909E-05 18570   0.121E-02
   7 F= -.13240514E+04 E0= -.13240514E+04  d E =0.734875E-02  mag=   120.0000
       N       E                     dE             d eps       ncg     rms          rms(c)
DAV:   1    -0.131834586942E+04    0.57056E+01   -0.19099E+02 48700   0.619E+01    0.117E+01
DAV:   2    -0.132345116651E+04   -0.51053E+01   -0.46217E+01 38290   0.110E+01    0.825E+00
DAV:   3    -0.132362952199E+04   -0.17836E+00   -0.20176E+00 37280   0.332E+00    0.394E+00
DAV:   4    -0.132361782502E+04    0.11697E-01   -0.16060E-01 38920   0.118E+00    0.241E+00
DAV:   5    -0.132360287326E+04    0.14952E-01   -0.37244E-02 40920   0.543E-01    0.164E+00
DAV:   6    -0.132359384517E+04    0.90281E-02   -0.20914E-02 40570   0.498E-01    0.859E-01
DAV:   7    -0.132359357983E+04    0.26534E-03   -0.11617E-02 40790   0.326E-01    0.313E-01
DAV:   8    -0.132359519291E+04   -0.16131E-02   -0.42809E-03 37430   0.158E-01    0.188E-01
DAV:   9    -0.132359487397E+04    0.31894E-03   -0.62561E-04 37140   0.568E-02    0.105E-01
DAV:  10    -0.132359466422E+04    0.20975E-03   -0.10075E-04 27400   0.342E-02    0.579E-02
DAV:  11    -0.132359495176E+04   -0.28753E-03   -0.65909E-05 23560   0.243E-02    0.263E-02
DAV:  12    -0.132359477555E+04    0.17620E-03   -0.23950E-05 18840   0.140E-02    0.137E-02
DAV:  13    -0.132359477607E+04   -0.51683E-06   -0.82970E-06 18690   0.587E-03
   8 F= -.13235948E+04 E0= -.13235948E+04  d E =0.456614E+00  mag=   120.0000
       N       E                     dE             d eps       ncg     rms          rms(c)
DAV:   1    -0.132207823624E+04    0.15165E+01   -0.65706E+01 49540   0.381E+01    0.705E+00
DAV:   2    -0.132397054584E+04   -0.18923E+01   -0.16831E+01 38350   0.683E+00    0.510E+00
DAV:   3    -0.132404693429E+04   -0.76388E-01   -0.10133E+00 37000   0.253E+00    0.283E+00
DAV:   4    -0.132403773038E+04    0.92039E-02   -0.85085E-02 39490   0.880E-01    0.140E+00
DAV:   5    -0.132403029904E+04    0.74313E-02   -0.21900E-02 40370   0.376E-01    0.954E-01
DAV:   6    -0.132402569431E+04    0.46047E-02   -0.10410E-02 40810   0.328E-01    0.450E-01
DAV:   7    -0.132402579565E+04   -0.10134E-03   -0.45492E-03 39940   0.202E-01    0.249E-01
DAV:   8    -0.132402634423E+04   -0.54859E-03   -0.17499E-03 37290   0.975E-02    0.116E-01
DAV:   9    -0.132402613833E+04    0.20590E-03   -0.21863E-04 34390   0.371E-02    0.702E-02
DAV:  10    -0.132402606625E+04    0.72077E-04   -0.66044E-05 23590   0.218E-02    0.398E-02
DAV:  11    -0.132402624953E+04   -0.18328E-03   -0.23288E-05 21920   0.189E-02    0.208E-02
DAV:  12    -0.132402622437E+04    0.25165E-04   -0.17222E-05 18900   0.113E-02
   9 F= -.13240262E+04 E0= -.13240262E+04  d E =-.431448E+00  mag=   120.0000
       N       E                     dE             d eps       ncg     rms          rms(c)
DAV:   1    -0.132392915725E+04    0.97092E-01   -0.32703E+00 49600   0.887E+00    0.163E+00
DAV:   2    -0.132404135316E+04   -0.11220E+00   -0.98853E-01 37930   0.150E+00    0.888E-01
DAV:   3    -0.132404481059E+04   -0.34574E-02   -0.41644E-02 37180   0.435E-01    0.516E-01
DAV:   4    -0.132404501738E+04   -0.20679E-03   -0.28291E-03 39390   0.126E-01    0.290E-01
DAV:   5    -0.132404444425E+04    0.57313E-03   -0.59333E-04 36440   0.720E-02    0.210E-01
DAV:   6    -0.132404428858E+04    0.15566E-03   -0.55325E-04 39990   0.850E-02    0.996E-02
DAV:   7    -0.132404423632E+04    0.52268E-04   -0.28544E-04 37040   0.530E-02    0.552E-02
DAV:   8    -0.132404431990E+04   -0.83580E-04   -0.74438E-05 22870   0.255E-02    0.243E-02
DAV:   9    -0.132404428984E+04    0.30052E-04   -0.16973E-05 18800   0.849E-03
  10 F= -.13240443E+04 E0= -.13240443E+04  d E =-.180655E-01  mag=   120.0000
       N       E                     dE             d eps       ncg     rms          rms(c)
DAV:   1    -0.132399562313E+04    0.48697E-01   -0.15886E+00 48780   0.624E+00    0.113E+00
DAV:   2    -0.132404971155E+04   -0.54088E-01   -0.48139E-01 36730   0.104E+00    0.543E-01
DAV:   3    -0.132405119310E+04   -0.14815E-02   -0.14896E-02 37390   0.238E-01    0.259E-01
DAV:   4    -0.132405108093E+04    0.11218E-03   -0.88260E-04 37670   0.534E-02    0.191E-01
DAV:   5    -0.132405099219E+04    0.88735E-04   -0.12124E-04 27740   0.472E-02    0.131E-01
DAV:   6    -0.132405086450E+04    0.12769E-03   -0.22648E-04 35390   0.592E-02    0.584E-02
DAV:   7    -0.132405097294E+04   -0.10844E-03   -0.10629E-04 24550   0.299E-02    0.220E-02
DAV:   8    -0.132405092230E+04    0.50633E-04   -0.16861E-05 18520   0.117E-02    0.119E-02
DAV:   9    -0.132405092519E+04   -0.28858E-05   -0.39488E-06 17930   0.426E-03
  11 F= -.13240509E+04 E0= -.13240509E+04  d E =-.663535E-02  mag=   120.0000
       N       E                     dE             d eps       ncg     rms          rms(c)
DAV:   1    -0.132388920903E+04    0.16171E+00   -0.57589E+00 46440   0.112E+01    0.194E+00
DAV:   2    -0.132405235449E+04   -0.16315E+00   -0.14800E+00 36120   0.191E+00    0.922E-01
DAV:   3    -0.132405610095E+04   -0.37465E-02   -0.45676E-02 37180   0.438E-01    0.457E-01
DAV:   4    -0.132405572444E+04    0.37651E-03   -0.30597E-03 39490   0.118E-01    0.346E-01
DAV:   5    -0.132405549793E+04    0.22650E-03   -0.34099E-04 35800   0.840E-02    0.244E-01
DAV:   6    -0.132405501029E+04    0.48764E-03   -0.74010E-04 44420   0.118E-01    0.878E-02
DAV:   7    -0.132405526476E+04   -0.25447E-03   -0.36035E-04 37670   0.475E-02    0.310E-02
DAV:   8    -0.132405519775E+04    0.67005E-04   -0.24047E-05 19410   0.148E-02    0.183E-02
DAV:   9    -0.132405518728E+04    0.10478E-04   -0.63923E-06 18180   0.686E-03
  12 F= -.13240552E+04 E0= -.13240552E+04  d E =-.426209E-02  mag=   120.0000
       N       E                     dE             d eps       ncg     rms          rms(c)
DAV:   1    -0.132363602944E+04    0.41917E+00   -0.18606E+01 45730   0.183E+01    0.304E+00
DAV:   2    -0.132404791041E+04   -0.41188E+00   -0.37957E+00 35790   0.311E+00    0.147E+00
DAV:   3    -0.132405527105E+04   -0.73606E-02   -0.10706E-01 37140   0.659E-01    0.685E-01
DAV:   4    -0.132405463305E+04    0.63800E-03   -0.72074E-03 39580   0.179E-01    0.511E-01
DAV:   5    -0.132405382498E+04    0.80807E-03   -0.11897E-03 44620   0.148E-01    0.339E-01
DAV:   6    -0.132405283509E+04    0.98989E-03   -0.17039E-03 43920   0.170E-01    0.132E-01
DAV:   7    -0.132405328184E+04   -0.44675E-03   -0.79701E-04 37610   0.754E-02    0.518E-02
DAV:   8    -0.132405324139E+04    0.40449E-04   -0.57100E-05 21870   0.209E-02
  13 F= -.13240532E+04 E0= -.13240532E+04  d E =0.194588E-02  mag=   120.0000
       N       E                     dE             d eps       ncg     rms          rms(c)
DAV:   1    -0.131617001241E+04    0.78833E+01   -0.23516E+02 49100   0.706E+01    0.142E+01
DAV:   2    -0.132338388322E+04   -0.72139E+01   -0.64347E+01 37600   0.129E+01    0.109E+01
DAV:   3    -0.132359452281E+04   -0.21064E+00   -0.30082E+00 37420   0.453E+00    0.483E+00
DAV:   4    -0.132356542850E+04    0.29094E-01   -0.26975E-01 39140   0.172E+00    0.295E+00
DAV:   5    -0.132355177449E+04    0.13654E-01   -0.42506E-02 39970   0.554E-01    0.211E+00
DAV:   6    -0.132353975394E+04    0.12021E-01   -0.17282E-02 42490   0.463E-01    0.104E+00
DAV:   7    -0.132354012085E+04   -0.36691E-03   -0.12956E-02 40960   0.299E-01    0.354E-01
DAV:   8    -0.132354143172E+04   -0.13109E-02   -0.42949E-03 37420   0.189E-01    0.171E-01
DAV:   9    -0.132354155822E+04   -0.12650E-03   -0.62480E-04 36650   0.622E-02    0.996E-02
DAV:  10    -0.132354113925E+04    0.41896E-03   -0.11136E-04 29080   0.294E-02    0.537E-02
DAV:  11    -0.132354132495E+04   -0.18570E-03   -0.46979E-05 20240   0.241E-02    0.304E-02
DAV:  12    -0.132354139507E+04   -0.70123E-04   -0.22130E-05 19220   0.161E-02    0.105E-02
DAV:  13    -0.132354131440E+04    0.80673E-04   -0.60140E-06 18400   0.630E-03    0.743E-03
DAV:  14    -0.132354132618E+04   -0.11778E-04   -0.14071E-06 18150   0.246E-03
  14 F= -.13235413E+04 E0= -.13235413E+04  d E =0.511915E+00  mag=   120.0000
       N       E                     dE             d eps       ncg     rms          rms(c)
DAV:   1    -0.132111389999E+04    0.24274E+01   -0.72723E+01 49620   0.449E+01    0.878E+00
DAV:   2    -0.132391338951E+04   -0.27995E+01   -0.24545E+01 38160   0.765E+00    0.546E+00
DAV:   3    -0.132401553486E+04   -0.10215E+00   -0.97813E-01 37410   0.218E+00    0.256E+00
DAV:   4    -0.132401657040E+04   -0.10355E-02   -0.73275E-02 39830   0.650E-01    0.167E+00
DAV:   5    -0.132400986051E+04    0.67099E-02   -0.14764E-02 40230   0.359E-01    0.119E+00
DAV:   6    -0.132400587927E+04    0.39812E-02   -0.10078E-02 42440   0.396E-01    0.626E-01
DAV:   7    -0.132400522177E+04    0.65750E-03   -0.61308E-03 40680   0.253E-01    0.238E-01
DAV:   8    -0.132400624732E+04   -0.10256E-02   -0.16518E-03 37670   0.116E-01    0.114E-01
DAV:   9    -0.132400611372E+04    0.13360E-03   -0.35743E-04 35900   0.399E-02    0.635E-02
DAV:  10    -0.132400598896E+04    0.12476E-03   -0.42328E-05 21550   0.223E-02    0.360E-02
DAV:  11    -0.132400615081E+04   -0.16185E-03   -0.27920E-05 19500   0.169E-02    0.170E-02
DAV:  12    -0.132400609396E+04    0.56843E-04   -0.10009E-05 18780   0.811E-03    0.915E-03
DAV:  13    -0.132400608534E+04    0.86238E-05   -0.29037E-06 18270   0.388E-03
  15 F= -.13240061E+04 E0= -.13240061E+04  d E =-.464759E+00  mag=   120.0000
       N       E                     dE             d eps       ncg     rms          rms(c)
DAV:   1    -0.132371271734E+04    0.29338E+00   -0.83521E+00 49460   0.152E+01    0.277E+00
DAV:   2    -0.132403868460E+04   -0.32597E+00   -0.28030E+00 37750   0.245E+00    0.141E+00
DAV:   3    -0.132404899192E+04   -0.10307E-01   -0.92660E-02 37200   0.577E-01    0.642E-01
DAV:   4    -0.132404888847E+04    0.10346E-03   -0.55187E-03 39860   0.123E-01    0.456E-01
DAV:   5    -0.132404807765E+04    0.81082E-03   -0.94307E-04 43170   0.104E-01    0.274E-01
DAV:   6    -0.132404793975E+04    0.13790E-03   -0.64940E-04 43970   0.900E-02    0.960E-02
DAV:   7    -0.132404804528E+04   -0.10552E-03   -0.33468E-04 38260   0.432E-02    0.513E-02
DAV:   8    -0.132404801886E+04    0.26411E-04   -0.37293E-05 19780   0.176E-02
  16 F= -.13240480E+04 E0= -.13240480E+04  d E =-.419335E-01  mag=   120.0000
       N       E                     dE             d eps       ncg     rms          rms(c)
DAV:   1    -0.132397601726E+04    0.72028E-01   -0.29688E+00 49930   0.846E+00    0.136E+00
DAV:   2    -0.132405967139E+04   -0.83654E-01   -0.73087E-01 36670   0.137E+00    0.679E-01
DAV:   3    -0.132406240662E+04   -0.27352E-02   -0.25574E-02 37250   0.333E-01    0.346E-01
DAV:   4    -0.132406201642E+04    0.39020E-03   -0.17208E-03 39610   0.928E-02    0.236E-01
DAV:   5    -0.132406189448E+04    0.12194E-03   -0.34772E-04 34690   0.723E-02    0.154E-01
DAV:   6    -0.132406175382E+04    0.14066E-03   -0.36778E-04 39930   0.725E-02    0.603E-02
DAV:   7    -0.132406187722E+04   -0.12339E-03   -0.16068E-04 31530   0.345E-02    0.266E-02
DAV:   8    -0.132406181039E+04    0.66827E-04   -0.21270E-05 19540   0.136E-02    0.150E-02
DAV:   9    -0.132406181826E+04   -0.78672E-05   -0.44951E-06 18280   0.531E-03
  17 F= -.13240618E+04 E0= -.13240618E+04  d E =-.137994E-01  mag=   120.0000
       N       E                     dE             d eps       ncg     rms          rms(c)
DAV:   1    -0.132397083958E+04    0.90971E-01   -0.38982E+00 47270   0.869E+00    0.137E+00
DAV:   2    -0.132406166631E+04   -0.90827E-01   -0.83586E-01 36880   0.147E+00    0.698E-01
DAV:   3    -0.132406385107E+04   -0.21848E-02   -0.28848E-02 37010   0.353E-01    0.383E-01
DAV:   4    -0.132406357188E+04    0.27919E-03   -0.20264E-03 39340   0.954E-02    0.256E-01
DAV:   5    -0.132406329272E+04    0.27916E-03   -0.38428E-04 37060   0.713E-02    0.163E-01
DAV:   6    -0.132406312091E+04    0.17181E-03   -0.40449E-04 40540   0.743E-02    0.672E-02
DAV:   7    -0.132406326493E+04   -0.14402E-03   -0.20104E-04 34230   0.387E-02    0.338E-02
DAV:   8    -0.132406318765E+04    0.77285E-04   -0.23605E-05 19760   0.154E-02    0.170E-02
DAV:   9    -0.132406320044E+04   -0.12792E-04   -0.46920E-06 18230   0.561E-03
  18 F= -.13240632E+04 E0= -.13240632E+04  d E =-.138218E-02  mag=   120.0000
       N       E                     dE             d eps       ncg     rms          rms(c)
DAV:   1    -0.132402887361E+04    0.34314E-01   -0.24395E+00 42150   0.546E+00    0.800E-01
DAV:   2    -0.132406102684E+04   -0.32153E-01   -0.32864E-01 37080   0.968E-01    0.432E-01
DAV:   3    -0.132406164200E+04   -0.61516E-03   -0.10105E-02 37180   0.216E-01    0.244E-01
DAV:   4    -0.132406141030E+04    0.23170E-03   -0.65582E-04 37770   0.573E-02    0.157E-01
DAV:   5    -0.132406138128E+04    0.29023E-04   -0.19335E-04 31600   0.521E-02
  19 F= -.13240614E+04 E0= -.13240614E+04  d E =0.181916E-02  mag=   120.0000
       N       E                     dE             d eps       ncg     rms          rms(c)
DAV:   1    -0.132329922168E+04    0.76219E+00   -0.42563E+01 44070   0.244E+01    0.385E+00
DAV:   2    -0.132402523459E+04   -0.72601E+00   -0.69399E+00 35900   0.424E+00    0.224E+00
DAV:   3    -0.132403356133E+04   -0.83267E-02   -0.20453E-01 37140   0.893E-01    0.101E+00
DAV:   4    -0.132403271124E+04    0.85009E-03   -0.12925E-02 40720   0.229E-01    0.721E-01
DAV:   5    -0.132402996438E+04    0.27469E-02   -0.26103E-03 43020   0.197E-01    0.415E-01
DAV:   6    -0.132402923815E+04    0.72623E-03   -0.30290E-03 41760   0.197E-01    0.213E-01
DAV:   7    -0.132402907405E+04    0.16410E-03   -0.14129E-03 37990   0.108E-01    0.799E-02
DAV:   8    -0.132402944543E+04   -0.37138E-03   -0.12117E-04 29390   0.317E-02    0.393E-02
DAV:   9    -0.132402937990E+04    0.65525E-04   -0.19309E-05 19170   0.121E-02    0.234E-02
DAV:  10    -0.132402934554E+04    0.34363E-04   -0.13875E-05 18920   0.128E-02
  20 F= -.13240293E+04 E0= -.13240293E+04  d E =0.320357E-01  mag=   120.0000
       N       E                     dE             d eps       ncg     rms          rms(c)
DAV:   1    -0.132347449775E+04    0.55488E+00   -0.31229E+01 45310   0.218E+01    0.332E+00
DAV:   2    -0.132399415788E+04   -0.51966E+00   -0.49674E+00 36000   0.375E+00    0.174E+00
DAV:   3    -0.132400361509E+04   -0.94572E-02   -0.15948E-01 37280   0.816E-01    0.837E-01
DAV:   4    -0.132400317349E+04    0.44161E-03   -0.94629E-03 40280   0.204E-01    0.569E-01
DAV:   5    -0.132400132966E+04    0.18438E-02   -0.22283E-03 42760   0.173E-01    0.340E-01
DAV:   6    -0.132400082480E+04    0.50486E-03   -0.23204E-03 42170   0.166E-01    0.168E-01
DAV:   7    -0.132400079929E+04    0.25505E-04   -0.10387E-03 38030   0.872E-02    0.697E-02
DAV:   8    -0.132400102498E+04   -0.22569E-03   -0.10197E-04 26800   0.320E-02    0.397E-02
DAV:   9    -0.132400096518E+04    0.59807E-04   -0.21746E-05 18930   0.127E-02    0.266E-02
DAV:  10    -0.132400094569E+04    0.19485E-04   -0.81512E-06 18620   0.915E-03
  21 F= -.13240009E+04 E0= -.13240009E+04  d E =0.283999E-01  mag=   120.0000
       N       E                     dE             d eps       ncg     rms          rms(c)
DAV:   1    -0.132375960104E+04    0.24136E+00   -0.11601E+01 45910   0.148E+01    0.231E+00
DAV:   2    -0.132402336671E+04   -0.26377E+00   -0.24460E+00 36900   0.256E+00    0.126E+00
DAV:   3    -0.132402903273E+04   -0.56660E-02   -0.85499E-02 37230   0.612E-01    0.673E-01
DAV:   4    -0.132402871987E+04    0.31286E-03   -0.52653E-03 40260   0.141E-01    0.446E-01
DAV:   5    -0.132402781534E+04    0.90452E-03   -0.11383E-03 42420   0.120E-01    0.266E-01
DAV:   6    -0.132402721696E+04    0.59838E-03   -0.10975E-03 42240   0.114E-01    0.107E-01
DAV:   7    -0.132402747433E+04   -0.25737E-03   -0.54923E-04 38370   0.574E-02    0.555E-02
DAV:   8    -0.132402744865E+04    0.25681E-04   -0.51986E-05 21410   0.234E-02
  22 F= -.13240274E+04 E0= -.13240274E+04  d E =-.265030E-01  mag=   120.0000
       N       E                     dE             d eps       ncg     rms          rms(c)
DAV:   1    -0.132389408210E+04    0.13339E+00   -0.83773E+00 45100   0.113E+01    0.172E+00
DAV:   2    -0.132404540398E+04   -0.15132E+00   -0.14416E+00 36790   0.196E+00    0.976E-01
DAV:   3    -0.132404742223E+04   -0.20183E-02   -0.52320E-02 37100   0.501E-01    0.560E-01
DAV:   4    -0.132404746546E+04   -0.43222E-04   -0.34188E-03 39500   0.138E-01    0.336E-01
DAV:   5    -0.132404658637E+04    0.87909E-03   -0.80726E-04 41250   0.970E-02    0.226E-01
DAV:   6    -0.132404637966E+04    0.20670E-03   -0.88530E-04 41360   0.107E-01    0.102E-01
DAV:   7    -0.132404627475E+04    0.10491E-03   -0.43766E-04 38310   0.584E-02    0.524E-02
DAV:   8    -0.132404636265E+04   -0.87896E-04   -0.60451E-05 21350   0.223E-02    0.238E-02
DAV:   9    -0.132404634631E+04    0.16342E-04   -0.10830E-05 18800   0.725E-03
  23 F= -.13240463E+04 E0= -.13240463E+04  d E =-.188977E-01  mag=   120.0000
       N       E                     dE             d eps       ncg     rms          rms(c)
DAV:   1    -0.132399295159E+04    0.53411E-01   -0.25114E+00 46540   0.720E+00    0.114E+00
DAV:   2    -0.132405197674E+04   -0.59025E-01   -0.53796E-01 36640   0.121E+00    0.567E-01
DAV:   3    -0.132405333185E+04   -0.13551E-02   -0.17651E-02 37070   0.267E-01    0.272E-01
DAV:   4    -0.132405328977E+04    0.42079E-04   -0.10158E-03 39120   0.588E-02    0.186E-01
DAV:   5    -0.132405307235E+04    0.21742E-03   -0.20566E-04 33260   0.561E-02    0.101E-01
DAV:   6    -0.132405303653E+04    0.35821E-04   -0.21494E-04 38220   0.436E-02
  24 F= -.13240530E+04 E0= -.13240530E+04  d E =-.669022E-02  mag=   120.0000
       N       E                     dE             d eps       ncg     rms          rms(c)
DAV:   1    -0.131965406936E+04    0.43990E+01   -0.14706E+02 49190   0.572E+01    0.989E+00
DAV:   2    -0.132361682306E+04   -0.39628E+01   -0.35301E+01 37480   0.972E+00    0.636E+00
DAV:   3    -0.132374959184E+04   -0.13277E+00   -0.13824E+00 37310   0.246E+00    0.280E+00
DAV:   4    -0.132374704794E+04    0.25439E-02   -0.78607E-02 40520   0.639E-01    0.183E+00
DAV:   5    -0.132373621307E+04    0.10835E-01   -0.21538E-02 41340   0.443E-01    0.119E+00
DAV:   6    -0.132373103672E+04    0.51763E-02   -0.15059E-02 40750   0.472E-01    0.677E-01
DAV:   7    -0.132373062527E+04    0.41146E-03   -0.90930E-03 39910   0.284E-01    0.239E-01
DAV:   8    -0.132373196351E+04   -0.13382E-02   -0.17127E-03 37290   0.119E-01    0.115E-01
DAV:   9    -0.132373158774E+04    0.37577E-03   -0.36369E-04 35580   0.422E-02    0.804E-02
DAV:  10    -0.132373153745E+04    0.50290E-04   -0.49263E-05 22710   0.243E-02    0.434E-02
DAV:  11    -0.132373168675E+04   -0.14930E-03   -0.32251E-05 19380   0.161E-02    0.190E-02
DAV:  12    -0.132373163208E+04    0.54675E-04   -0.11471E-05 18740   0.904E-03    0.103E-02
DAV:  13    -0.132373161219E+04    0.19884E-04   -0.38085E-06 18550   0.487E-03
  25 F= -.13237316E+04 E0= -.13237316E+04  d E =0.321424E+00  mag=   120.0000
       N       E                     dE             d eps       ncg     rms          rms(c)
DAV:   1    -0.132090383780E+04    0.28278E+01   -0.93569E+01 49650   0.482E+01    0.902E+00
DAV:   2    -0.132393979795E+04   -0.30360E+01   -0.26628E+01 38520   0.833E+00    0.604E+00
DAV:   3    -0.132405169745E+04   -0.11190E+00   -0.11838E+00 37630   0.272E+00    0.304E+00
DAV:   4    -0.132404594849E+04    0.57490E-02   -0.99786E-02 39310   0.948E-01    0.169E+00
DAV:   5    -0.132403722610E+04    0.87224E-02   -0.23072E-02 39230   0.425E-01    0.116E+00
DAV:   6    -0.132403125535E+04    0.59707E-02   -0.12725E-02 40780   0.387E-01    0.565E-01
DAV:   7    -0.132403158004E+04   -0.32468E-03   -0.64203E-03 40710   0.241E-01    0.251E-01
DAV:   8    -0.132403257563E+04   -0.99559E-03   -0.21999E-03 37490   0.114E-01    0.134E-01
DAV:   9    -0.132403238633E+04    0.18930E-03   -0.34628E-04 36710   0.415E-02    0.795E-02
DAV:  10    -0.132403224619E+04    0.14013E-03   -0.56551E-05 22720   0.228E-02    0.447E-02
DAV:  11    -0.132403251356E+04   -0.26737E-03   -0.36794E-05 22490   0.193E-02    0.183E-02
DAV:  12    -0.132403242529E+04    0.88276E-04   -0.14751E-05 18790   0.999E-03    0.101E-02
DAV:  13    -0.132403242371E+04    0.15793E-05   -0.38707E-06 18610   0.391E-03
  26 F= -.13240324E+04 E0= -.13240324E+04  d E =-.300812E+00  mag=   120.0000
       N       E                     dE             d eps       ncg     rms          rms(c)
DAV:   1    -0.132398116632E+04    0.51259E-01   -0.21694E+00 49490   0.788E+00    0.138E+00
DAV:   2    -0.132406045113E+04   -0.79285E-01   -0.69890E-01 38190   0.133E+00    0.687E-01
DAV:   3    -0.132406381608E+04   -0.33650E-02   -0.28386E-02 37990   0.350E-01    0.390E-01
DAV:   4    -0.132406353782E+04    0.27826E-03   -0.15402E-03 39270   0.866E-02    0.239E-01
DAV:   5    -0.132406335433E+04    0.18348E-03   -0.44521E-04 37610   0.626E-02    0.160E-01
DAV:   6    -0.132406306007E+04    0.29426E-03   -0.38454E-04 38570   0.731E-02    0.819E-02
DAV:   7    -0.132406317104E+04   -0.11098E-03   -0.22542E-04 36060   0.455E-02    0.376E-02
DAV:   8    -0.132406312136E+04    0.49690E-04   -0.46866E-05 20720   0.230E-02
  27 F= -.13240631E+04 E0= -.13240631E+04  d E =-.306976E-01  mag=   120.0000
       N       E                     dE             d eps       ncg     rms          rms(c)
DAV:   1    -0.132390832198E+04    0.15485E+00   -0.45992E+00 49310   0.112E+01    0.192E+00
DAV:   2    -0.132407173861E+04   -0.16342E+00   -0.14181E+00 37580   0.185E+00    0.966E-01
DAV:   3    -0.132407673398E+04   -0.49954E-02   -0.53471E-02 37440   0.461E-01    0.500E-01
DAV:   4    -0.132407648590E+04    0.24807E-03   -0.32023E-03 40050   0.118E-01    0.327E-01
DAV:   5    -0.132407614243E+04    0.34347E-03   -0.62783E-04 41110   0.856E-02    0.211E-01
DAV:   6    -0.132407576101E+04    0.38142E-03   -0.62555E-04 41870   0.989E-02    0.109E-01
DAV:   7    -0.132407596499E+04   -0.20398E-03   -0.37552E-04 38750   0.572E-02    0.451E-02
DAV:   8    -0.132407589875E+04    0.66240E-04   -0.49924E-05 21210   0.243E-02    0.223E-02
DAV:   9    -0.132407589004E+04    0.87124E-05   -0.15078E-05 18780   0.874E-03
  28 F= -.13240759E+04 E0= -.13240759E+04  d E =-.127687E-01  mag=   120.0000
       N       E                     dE             d eps       ncg     rms          rms(c)
DAV:   1    -0.132405962936E+04    0.16269E-01   -0.71514E-01 47430   0.395E+00    0.637E-01
DAV:   2    -0.132407946993E+04   -0.19841E-01   -0.17842E-01 36950   0.656E-01    0.327E-01
DAV:   3    -0.132407996471E+04   -0.49478E-03   -0.59925E-03 36890   0.155E-01    0.169E-01
DAV:   4    -0.132407980802E+04    0.15669E-03   -0.37354E-04 33010   0.439E-02    0.118E-01
DAV:   5    -0.132407982459E+04   -0.16565E-04   -0.72443E-05 23010   0.360E-02
  29 F= -.13240798E+04 E0= -.13240798E+04  d E =-.393455E-02  mag=   120.0000
       N       E                     dE             d eps       ncg     rms          rms(c)
DAV:   1    -0.132382042250E+04    0.25939E+00   -0.12458E+01 45480   0.147E+01    0.227E+00
DAV:   2    -0.132407435362E+04   -0.25393E+00   -0.23849E+00 36910   0.252E+00    0.121E+00
DAV:   3    -0.132407820449E+04   -0.38509E-02   -0.79114E-02 36990   0.576E-01    0.636E-01
DAV:   4    -0.132407800925E+04    0.19524E-03   -0.46880E-03 40610   0.130E-01    0.433E-01
DAV:   5    -0.132407698478E+04    0.10245E-02   -0.10880E-03 42590   0.126E-01    0.236E-01
DAV:   6    -0.132407662372E+04    0.36106E-03   -0.11315E-03 42470   0.108E-01    0.101E-01
DAV:   7    -0.132407684434E+04   -0.22062E-03   -0.48368E-04 37670   0.562E-02    0.507E-02
DAV:   8    -0.132407679125E+04    0.53086E-04   -0.46266E-05 21030   0.229E-02    0.274E-02
DAV:   9    -0.132407680563E+04   -0.14376E-04   -0.12229E-05 18800   0.973E-03
  30 F= -.13240768E+04 E0= -.13240768E+04  d E =0.301896E-02  mag=   120.0000
       N       E                     dE             d eps       ncg     rms          rms(c)
DAV:   1    -0.132401796292E+04    0.58828E-01   -0.23116E+00 48510   0.722E+00    0.119E+00
DAV:   2    -0.132407981193E+04   -0.61849E-01   -0.55581E-01 37780   0.123E+00    0.597E-01
DAV:   3    -0.132408139846E+04   -0.15865E-02   -0.20313E-02 37220   0.297E-01    0.316E-01
DAV:   4    -0.132408145693E+04   -0.58468E-04   -0.11375E-03 39740   0.642E-02    0.203E-01
DAV:   5    -0.132408125302E+04    0.20391E-03   -0.33082E-04 36290   0.592E-02    0.115E-01
DAV:   6    -0.132408117764E+04    0.75382E-04   -0.22924E-04 38470   0.519E-02    0.426E-02
DAV:   7    -0.132408119517E+04   -0.17537E-04   -0.10926E-04 26660   0.275E-02
  31 F= -.13240812E+04 E0= -.13240812E+04  d E =-.438955E-02  mag=   120.0000
       N       E                     dE             d eps       ncg     rms          rms(c)
DAV:   1    -0.132405617217E+04    0.25005E-01   -0.10469E+00 47640   0.490E+00    0.795E-01
DAV:   2    -0.132408647673E+04   -0.30305E-01   -0.27685E-01 36990   0.821E-01    0.398E-01
DAV:   3    -0.132408685078E+04   -0.37405E-03   -0.82863E-03 37070   0.181E-01    0.201E-01
DAV:   4    -0.132408697077E+04   -0.11999E-03   -0.49605E-04 33360   0.427E-02    0.149E-01
DAV:   5    -0.132408679075E+04    0.18002E-03   -0.99381E-05 25460   0.441E-02    0.906E-02
DAV:   6    -0.132408679114E+04   -0.39415E-06   -0.14461E-04 29520   0.413E-02
  32 F= -.13240868E+04 E0= -.13240868E+04  d E =-.559597E-02  mag=   120.0000
       N       E                     dE             d eps       ncg     rms          rms(c)
DAV:   1    -0.132399880338E+04    0.87987E-01   -0.40931E+00 46390   0.857E+00    0.141E+00
DAV:   2    -0.132408873438E+04   -0.89931E-01   -0.83632E-01 36570   0.147E+00    0.686E-01
DAV:   3    -0.132408975867E+04   -0.10243E-02   -0.24699E-02 37160   0.313E-01    0.338E-01
DAV:   4    -0.132408997253E+04   -0.21386E-03   -0.16004E-03 38700   0.806E-02    0.247E-01
DAV:   5    -0.132408953357E+04    0.43896E-03   -0.28816E-04 34910   0.728E-02    0.156E-01
DAV:   6    -0.132408947508E+04    0.58490E-04   -0.43326E-04 41960   0.759E-02    0.667E-02
DAV:   7    -0.132408940543E+04    0.69652E-04   -0.18649E-04 31410   0.388E-02    0.294E-02
DAV:   8    -0.132408948419E+04   -0.78768E-04   -0.18706E-05 18760   0.129E-02    0.161E-02
DAV:   9    -0.132408948242E+04    0.17712E-05   -0.42320E-06 17970   0.506E-03
  33 F= -.13240895E+04 E0= -.13240895E+04  d E =-.269128E-02  mag=   120.0000
       N       E                     dE             d eps       ncg     rms          rms(c)
DAV:   1    -0.132368251022E+04    0.40697E+00   -0.20964E+01 45430   0.176E+01    0.303E+00
DAV:   2    -0.132407813219E+04   -0.39562E+00   -0.37576E+00 36080   0.308E+00    0.150E+00
DAV:   3    -0.132408375219E+04   -0.56200E-02   -0.99030E-02 37200   0.621E-01    0.687E-01
DAV:   4    -0.132408360866E+04    0.14353E-03   -0.65644E-03 39390   0.157E-01    0.515E-01
DAV:   5    -0.132408208551E+04    0.15231E-02   -0.12047E-03 43010   0.140E-01    0.320E-01
DAV:   6    -0.132408188133E+04    0.20418E-03   -0.17113E-03 44550   0.149E-01    0.140E-01
DAV:   7    -0.132408178561E+04    0.95723E-04   -0.81974E-04 37700   0.790E-02    0.627E-02
DAV:   8    -0.132408197007E+04   -0.18446E-03   -0.65439E-05 22560   0.265E-02    0.318E-02
DAV:   9    -0.132408196365E+04    0.64248E-05   -0.14936E-05 18690   0.105E-02
  34 F= -.13240820E+04 E0= -.13240820E+04  d E =0.751877E-02  mag=   120.0000
       N       E                     dE             d eps       ncg     rms          rms(c)
DAV:   1    -0.132396887390E+04    0.11310E+00   -0.83738E+00 43710   0.103E+01    0.159E+00
DAV:   2    -0.132408285749E+04   -0.11398E+00   -0.11504E+00 36540   0.186E+00    0.802E-01
DAV:   3    -0.132408514921E+04   -0.22917E-02   -0.39013E-02 37310   0.403E-01    0.425E-01
DAV:   4    -0.132408474578E+04    0.40343E-03   -0.23067E-03 39800   0.941E-02    0.279E-01
DAV:   5    -0.132408425756E+04    0.48822E-03   -0.70352E-04 41840   0.856E-02    0.150E-01
DAV:   6    -0.132408417981E+04    0.77749E-04   -0.60840E-04 41060   0.727E-02    0.591E-02
DAV:   7    -0.132408418914E+04   -0.93327E-05   -0.26181E-04 36520   0.388E-02
  35 F= -.13240842E+04 E0= -.13240842E+04  d E =-.222550E-02  mag=   120.0000
       N       E                     dE             d eps       ncg     rms          rms(c)
DAV:   1    -0.132405342958E+04    0.30750E-01   -0.15112E+00 46630   0.542E+00    0.875E-01
DAV:   2    -0.132408900828E+04   -0.35579E-01   -0.32924E-01 37450   0.934E-01    0.438E-01
DAV:   3    -0.132408994763E+04   -0.93935E-03   -0.11642E-02 37400   0.216E-01    0.232E-01
DAV:   4    -0.132408985535E+04    0.92284E-04   -0.69524E-04 37690   0.533E-02    0.156E-01
DAV:   5    -0.132408977102E+04    0.84328E-04   -0.16956E-04 31770   0.474E-02    0.933E-02
DAV:   6    -0.132408968377E+04    0.87248E-04   -0.18249E-04 34460   0.473E-02    0.496E-02
DAV:   7    -0.132408978767E+04   -0.10390E-03   -0.89112E-05 23820   0.277E-02    0.214E-02
DAV:   8    -0.132408975738E+04    0.30287E-04   -0.16538E-05 18690   0.118E-02
  36 F= -.13240898E+04 E0= -.13240898E+04  d E =-.556824E-02  mag=   120.0000
       N       E                     dE             d eps       ncg     rms          rms(c)
DAV:   1    -0.132402989639E+04    0.59891E-01   -0.46994E+00 43600   0.738E+00    0.113E+00
DAV:   2    -0.132408744475E+04   -0.57548E-01   -0.59180E-01 35480   0.132E+00    0.540E-01
DAV:   3    -0.132408814436E+04   -0.69961E-03   -0.17186E-02 36860   0.252E-01    0.251E-01
DAV:   4    -0.132408801685E+04    0.12750E-03   -0.10797E-03 38880   0.588E-02    0.182E-01
DAV:   5    -0.132408772611E+04    0.29074E-03   -0.26120E-04 33250   0.651E-02    0.975E-02
DAV:   6    -0.132408782876E+04   -0.10264E-03   -0.31548E-04 38450   0.491E-02    0.472E-02
DAV:   7    -0.132408775746E+04    0.71302E-04   -0.84053E-05 22350   0.273E-02    0.222E-02
DAV:   8    -0.132408779037E+04   -0.32913E-04   -0.12398E-05 17920   0.946E-03
  37 F= -.13240878E+04 E0= -.13240878E+04  d E =0.196701E-02  mag=   120.0000
       N       E                     dE             d eps       ncg     rms          rms(c)
DAV:   1    -0.131882121780E+04    0.52665E+01   -0.16131E+02 48030   0.629E+01    0.111E+01
DAV:   2    -0.132377694497E+04   -0.49557E+01   -0.43730E+01 36450   0.106E+01    0.709E+00
DAV:   3    -0.132389914479E+04   -0.12220E+00   -0.14225E+00 36950   0.249E+00    0.276E+00
DAV:   4    -0.132390059159E+04   -0.14468E-02   -0.92420E-02 42010   0.621E-01    0.199E+00
DAV:   5    -0.132389123242E+04    0.93592E-02   -0.11544E-02 42400   0.351E-01    0.133E+00
DAV:   6    -0.132388264328E+04    0.85891E-02   -0.93963E-03 43760   0.445E-01    0.553E-01
DAV:   7    -0.132388502863E+04   -0.23854E-02   -0.83522E-03 39220   0.245E-01    0.248E-01
DAV:   8    -0.132388547973E+04   -0.45110E-03   -0.13089E-03 37090   0.115E-01    0.111E-01
DAV:   9    -0.132388551701E+04   -0.37289E-04   -0.21518E-04 33940   0.389E-02
  38 F= -.13238855E+04 E0= -.13238855E+04  d E =0.202273E+00  mag=   120.0000
       N       E                     dE             d eps       ncg     rms          rms(c)
DAV:   1    -0.132223700409E+04    0.16485E+01   -0.48180E+01 50540   0.384E+01    0.667E+00
DAV:   2    -0.132398298849E+04   -0.17460E+01   -0.14939E+01 38070   0.623E+00    0.362E+00
DAV:   3    -0.132404625831E+04   -0.63270E-01   -0.51845E-01 37470   0.154E+00    0.158E+00
DAV:   4    -0.132404749138E+04   -0.12331E-02   -0.30780E-02 41360   0.362E-01    0.103E+00
DAV:   5    -0.132404327428E+04    0.42171E-02   -0.79681E-03 41480   0.255E-01    0.609E-01
DAV:   6    -0.132404160598E+04    0.16683E-02   -0.34198E-03 41440   0.221E-01    0.247E-01
DAV:   7    -0.132404258818E+04   -0.98220E-03   -0.24095E-03 39480   0.137E-01    0.144E-01
DAV:   8    -0.132404280267E+04   -0.21449E-03   -0.58213E-04 37430   0.679E-02    0.748E-02
DAV:   9    -0.132404251155E+04    0.29113E-03   -0.88787E-05 24610   0.265E-02    0.437E-02
DAV:  10    -0.132404258899E+04   -0.77440E-04   -0.29618E-05 19570   0.158E-02    0.249E-02
DAV:  11    -0.132404267582E+04   -0.86833E-04   -0.11183E-05 19850   0.916E-03    0.117E-02
DAV:  12    -0.132404260592E+04    0.69900E-04   -0.57004E-06 18590   0.711E-03    0.812E-03
DAV:  13    -0.132404262066E+04   -0.14746E-04   -0.13520E-06 18250   0.278E-03
  39 F= -.13240426E+04 E0= -.13240426E+04  d E =-.157104E+00  mag=   120.0000
       N       E                     dE             d eps       ncg     rms          rms(c)
DAV:   1    -0.132400432009E+04    0.38286E-01   -0.16949E+00 49780   0.708E+00    0.117E+00
DAV:   2    -0.132406410619E+04   -0.59786E-01   -0.52040E-01 37980   0.116E+00    0.570E-01
DAV:   3    -0.132406599209E+04   -0.18859E-02   -0.19881E-02 37520   0.291E-01    0.298E-01
DAV:   4    -0.132406604120E+04   -0.49111E-04   -0.11597E-03 39390   0.708E-02    0.190E-01
DAV:   5    -0.132406575688E+04    0.28432E-03   -0.33391E-04 36270   0.577E-02    0.119E-01
DAV:   6    -0.132406577573E+04   -0.18851E-04   -0.25155E-04 38210   0.602E-02
  40 F= -.13240658E+04 E0= -.13240658E+04  d E =-.231551E-01  mag=   120.0000
       N       E                     dE             d eps       ncg     rms          rms(c)
DAV:   1    -0.132397393063E+04    0.91826E-01   -0.31629E+00 50020   0.930E+00    0.146E+00
DAV:   2    -0.132407554651E+04   -0.10162E+00   -0.88205E-01 37230   0.150E+00    0.735E-01
DAV:   3    -0.132407800485E+04   -0.24583E-02   -0.32871E-02 37140   0.360E-01    0.363E-01
DAV:   4    -0.132407806379E+04   -0.58945E-04   -0.18663E-03 40050   0.855E-02    0.240E-01
DAV:   5    -0.132407765329E+04    0.41051E-03   -0.43637E-04 39350   0.743E-02    0.139E-01
DAV:   6    -0.132407769662E+04   -0.43326E-04   -0.34451E-04 39340   0.699E-02
  41 F= -.13240777E+04 E0= -.13240777E+04  d E =-.119209E-01  mag=   120.0000
       N       E                     dE             d eps       ncg     rms          rms(c)
DAV:   1    -0.132405267408E+04    0.24979E-01   -0.10550E+00 47030   0.466E+00    0.755E-01
DAV:   2    -0.132408128422E+04   -0.28610E-01   -0.25731E-01 36760   0.776E-01    0.390E-01
DAV:   3    -0.132408172044E+04   -0.43622E-03   -0.84755E-03 36820   0.177E-01    0.195E-01
DAV:   4    -0.132408175312E+04   -0.32676E-04   -0.52071E-04 34530   0.462E-02    0.139E-01
DAV:   5    -0.132408158289E+04    0.17023E-03   -0.92040E-05 24530   0.420E-02    0.889E-02
DAV:   6    -0.132408162290E+04   -0.40011E-04   -0.14525E-04 28830   0.439E-02
  42 F= -.13240816E+04 E0= -.13240816E+04  d E =-.392629E-02  mag=   120.0000
       N       E                     dE             d eps       ncg     rms          rms(c)
DAV:   1    -0.132395147581E+04    0.13011E+00   -0.54690E+00 45220   0.975E+00    0.166E+00
DAV:   2    -0.132408396477E+04   -0.13249E+00   -0.12309E+00 37160   0.170E+00    0.821E-01
DAV:   3    -0.132408585175E+04   -0.18870E-02   -0.32923E-02 36750   0.361E-01    0.424E-01
DAV:   4    -0.132408579405E+04    0.57700E-04   -0.21690E-03 39470   0.876E-02    0.314E-01
DAV:   5    -0.132408522128E+04    0.57277E-03   -0.38889E-04 41060   0.796E-02    0.193E-01
DAV:   6    -0.132408516304E+04    0.58240E-04   -0.51700E-04 42790   0.807E-02    0.701E-02
DAV:   7    -0.132408507110E+04    0.91940E-04   -0.23775E-04 35560   0.414E-02    0.390E-02
DAV:   8    -0.132408513229E+04   -0.61193E-04   -0.22730E-05 19370   0.159E-02    0.190E-02
DAV:   9    -0.132408511995E+04    0.12340E-04   -0.54417E-06 18200   0.684E-03
  43 F= -.13240851E+04 E0= -.13240851E+04  d E =-.349705E-02  mag=   120.0000
       N       E                     dE             d eps       ncg     rms          rms(c)
DAV:   1    -0.132404193178E+04    0.43201E-01   -0.23585E+00 45600   0.595E+00    0.101E+00
DAV:   2    -0.132408566212E+04   -0.43730E-01   -0.41302E-01 37250   0.105E+00    0.499E-01
DAV:   3    -0.132408656052E+04   -0.89839E-03   -0.12351E-02 37040   0.223E-01    0.251E-01
DAV:   4    -0.132408661624E+04   -0.55719E-04   -0.81208E-04 38040   0.553E-02    0.168E-01
DAV:   5    -0.132408638285E+04    0.23339E-03   -0.19145E-04 31020   0.542E-02    0.106E-01
DAV:   6    -0.132408644383E+04   -0.60983E-04   -0.26150E-04 38180   0.547E-02    0.576E-02
DAV:   7    -0.132408635787E+04    0.85966E-04   -0.96369E-05 24360   0.290E-02    0.191E-02
DAV:   8    -0.132408640898E+04   -0.51114E-04   -0.14414E-05 18280   0.972E-03    0.113E-02
DAV:   9    -0.132408641245E+04   -0.34702E-05   -0.29503E-06 17960   0.382E-03
  44 F= -.13240864E+04 E0= -.13240864E+04  d E =-.129250E-02  mag=   120.0000
       N       E                     dE             d eps       ncg     rms          rms(c)
DAV:   1    -0.132398143439E+04    0.10497E+00   -0.50348E+00 45510   0.919E+00    0.156E+00
DAV:   2    -0.132408656533E+04   -0.10513E+00   -0.98663E-01 36460   0.159E+00    0.733E-01
DAV:   3    -0.132408884467E+04   -0.22793E-02   -0.30295E-02 37020   0.337E-01    0.353E-01
DAV:   4    -0.132408881640E+04    0.28270E-04   -0.20054E-03 39340   0.796E-02    0.264E-01
DAV:   5    -0.132408857501E+04    0.24138E-03   -0.30222E-04 35620   0.751E-02    0.168E-01
DAV:   6    -0.132408832873E+04    0.24628E-03   -0.51831E-04 43440   0.823E-02    0.749E-02
DAV:   7    -0.132408852583E+04   -0.19710E-03   -0.22384E-04 34970   0.420E-02    0.312E-02
DAV:   8    -0.132408849317E+04    0.32664E-04   -0.19177E-05 19210   0.134E-02
  45 F= -.13240885E+04 E0= -.13240885E+04  d E =-.208071E-02  mag=   120.0000
       N       E                     dE             d eps       ncg     rms          rms(c)
DAV:   1    -0.132349209760E+04    0.59643E+00   -0.29106E+01 45480   0.214E+01    0.366E+00
DAV:   2    -0.132406866030E+04   -0.57656E+00   -0.54156E+00 36600   0.372E+00    0.183E+00
DAV:   3    -0.132407616349E+04   -0.75032E-02   -0.13252E-01 37040   0.717E-01    0.819E-01
DAV:   4    -0.132407559247E+04    0.57102E-03   -0.84913E-03 39580   0.175E-01    0.615E-01
DAV:   5    -0.132407378221E+04    0.18103E-02   -0.18079E-03 44820   0.177E-01    0.364E-01
DAV:   6    -0.132407290788E+04    0.87433E-03   -0.23389E-03 43440   0.169E-01    0.170E-01
DAV:   7    -0.132407347117E+04   -0.56329E-03   -0.10153E-03 37740   0.914E-02    0.715E-02
DAV:   8    -0.132407347785E+04   -0.66766E-05   -0.83267E-05 26110   0.269E-02
  46 F= -.13240735E+04 E0= -.13240735E+04  d E =0.150153E-01  mag=   120.0000
       N       E                     dE             d eps       ncg     rms          rms(c)
DAV:   1    -0.132395756676E+04    0.11590E+00   -0.37084E+00 48920   0.979E+00    0.166E+00
DAV:   2    -0.132407825752E+04   -0.12069E+00   -0.10508E+00 36490   0.162E+00    0.790E-01
DAV:   3    -0.132408147766E+04   -0.32201E-02   -0.38412E-02 37350   0.378E-01    0.380E-01
DAV:   4    -0.132408156724E+04   -0.89583E-04   -0.23020E-03 39110   0.839E-02    0.273E-01
DAV:   5    -0.132408112724E+04    0.44000E-03   -0.37159E-04 37810   0.737E-02    0.170E-01
DAV:   6    -0.132408113913E+04   -0.11893E-04   -0.39392E-04 41900   0.786E-02
  47 F= -.13240811E+04 E0= -.13240811E+04  d E =-.766128E-02  mag=   120.0000
       N       E                     dE             d eps       ncg     rms          rms(c)
DAV:   1    -0.132406957099E+04    0.11556E-01   -0.59722E-01 46080   0.341E+00    0.562E-01
DAV:   2    -0.132408512734E+04   -0.15556E-01   -0.14038E-01 37190   0.578E-01    0.288E-01
DAV:   3    -0.132408518510E+04   -0.57760E-04   -0.43754E-03 37180   0.131E-01    0.149E-01
DAV:   4    -0.132408527394E+04   -0.88840E-04   -0.27541E-04 30020   0.355E-02    0.105E-01
DAV:   5    -0.132408518583E+04    0.88111E-04   -0.57015E-05 21180   0.303E-02    0.683E-02
DAV:   6    -0.132408519893E+04   -0.13097E-04   -0.89062E-05 25470   0.342E-02
  48 F= -.13240852E+04 E0= -.13240852E+04  d E =-.405979E-02  mag=   120.0000
       N       E                     dE             d eps       ncg     rms          rms(c)
DAV:   1    -0.132407200325E+04    0.13183E-01   -0.68577E-01 45340   0.343E+00    0.529E-01
DAV:   2    -0.132408599649E+04   -0.13993E-01   -0.13240E-01 36760   0.586E-01    0.272E-01
DAV:   3    -0.132408619933E+04   -0.20284E-03   -0.43341E-03 37190   0.128E-01    0.144E-01
DAV:   4    -0.132408617135E+04    0.27980E-04   -0.24807E-04 29380   0.284E-02
  49 F= -.13240862E+04 E0= -.13240862E+04  d E =-.972426E-03  mag=   120.0000
       N       E                     dE             d eps       ncg     rms          rms(c)
DAV:   1    -0.132402399779E+04    0.62202E-01   -0.32758E+00 45740   0.707E+00    0.107E+00
DAV:   2    -0.132408249212E+04   -0.58494E-01   -0.55607E-01 35890   0.119E+00    0.561E-01
DAV:   3    -0.132408314335E+04   -0.65123E-03   -0.17604E-02 37110   0.242E-01    0.273E-01
DAV:   4    -0.132408314016E+04    0.31966E-05   -0.10283E-03 40830   0.558E-02    0.199E-01
DAV:   5    -0.132408285545E+04    0.28470E-03   -0.24986E-04 35370   0.662E-02    0.916E-02
DAV:   6    -0.132408282348E+04    0.31974E-04   -0.25310E-04 38630   0.361E-02
  50 F= -.13240828E+04 E0= -.13240828E+04  d E =0.334787E-02  mag=   120.0000
       N       E                     dE             d eps       ncg     rms          rms(c)
DAV:   1    -0.132368344841E+04    0.39941E+00   -0.23207E+01 45690   0.180E+01    0.286E+00
DAV:   2    -0.132406101833E+04   -0.37757E+00   -0.36045E+00 35540   0.310E+00    0.145E+00
DAV:   3    -0.132406663698E+04   -0.56186E-02   -0.11223E-01 37170   0.629E-01    0.664E-01
DAV:   4    -0.132406661787E+04    0.19112E-04   -0.70066E-03 41300   0.150E-01    0.483E-01
DAV:   5    -0.132406509823E+04    0.15196E-02   -0.14402E-03 43370   0.149E-01    0.266E-01
DAV:   6    -0.132406501324E+04    0.84987E-04   -0.15833E-03 42040   0.126E-01    0.123E-01
DAV:   7    -0.132406492560E+04    0.87638E-04   -0.56638E-04 36580   0.701E-02    0.580E-02
DAV:   8    -0.132406507258E+04   -0.14697E-03   -0.47182E-05 20560   0.212E-02    0.304E-02
DAV:   9    -0.132406504049E+04    0.32088E-04   -0.11589E-05 18310   0.104E-02
  51 F= -.13240650E+04 E0= -.13240650E+04  d E =0.177830E-01  mag=   120.0000
       N       E                     dE             d eps       ncg     rms          rms(c)
DAV:   1    -0.132400281217E+04    0.62260E-01   -0.24565E+00 46950   0.729E+00    0.119E+00
DAV:   2    -0.132407220866E+04   -0.69396E-01   -0.62338E-01 36280   0.121E+00    0.590E-01
DAV:   3    -0.132407348186E+04   -0.12732E-02   -0.20993E-02 37350   0.273E-01    0.289E-01
DAV:   4    -0.132407361590E+04   -0.13404E-03   -0.12353E-03 39030   0.659E-02    0.211E-01
DAV:   5    -0.132407328974E+04    0.32616E-03   -0.22011E-04 34180   0.628E-02    0.129E-01
DAV:   6    -0.132407328055E+04    0.91847E-05   -0.29060E-04 39630   0.640E-02
  52 F= -.13240733E+04 E0= -.13240733E+04  d E =-.824007E-02  mag=   120.0000
       N       E                     dE             d eps       ncg     rms          rms(c)
DAV:   1    -0.132406933655E+04    0.39532E-02   -0.38076E-01 43250   0.219E+00    0.346E-01
DAV:   2    -0.132407494666E+04   -0.56101E-02   -0.55754E-02 37210   0.399E-01    0.183E-01
DAV:   3    -0.132407499972E+04   -0.53055E-04   -0.17751E-03 36930   0.896E-02    0.105E-01
DAV:   4    -0.132407499981E+04   -0.92157E-07   -0.10512E-04 24250   0.208E-02
  53 F= -.13240750E+04 E0= -.13240750E+04  d E =-.171925E-02  mag=   120.0000
       N       E                     dE             d eps       ncg     rms          rms(c)
DAV:   1    -0.132406277521E+04    0.12225E-01   -0.58824E-01 45380   0.332E+00    0.511E-01
DAV:   2    -0.132407645250E+04   -0.13677E-01   -0.12703E-01 36920   0.554E-01    0.275E-01
DAV:   3    -0.132407661746E+04   -0.16497E-03   -0.43356E-03 37490   0.126E-01    0.152E-01
DAV:   4    -0.132407661285E+04    0.46163E-05   -0.22872E-04 28910   0.285E-02
  54 F= -.13240766E+04 E0= -.13240766E+04  d E =-.161304E-02  mag=   120.0000
       N       E                     dE             d eps       ncg     rms          rms(c)
DAV:   1    -0.132404482286E+04    0.31795E-01   -0.10599E+00 46700   0.476E+00    0.776E-01
DAV:   2    -0.132407777582E+04   -0.32953E-01   -0.28538E-01 36130   0.738E-01    0.420E-01
DAV:   3    -0.132407824782E+04   -0.47200E-03   -0.93147E-03 36950   0.159E-01    0.193E-01
DAV:   4    -0.132407831290E+04   -0.65079E-04   -0.48460E-04 33350   0.376E-02    0.142E-01
DAV:   5    -0.132407813248E+04    0.18042E-03   -0.10009E-04 25150   0.433E-02    0.657E-02
DAV:   6    -0.132407811246E+04    0.20019E-04   -0.92855E-05 25260   0.244E-02
  55 F= -.13240781E+04 E0= -.13240781E+04  d E =-.149961E-02  mag=   120.0000
       N       E                     dE             d eps       ncg     rms          rms(c)
DAV:   1    -0.132400386452E+04    0.74268E-01   -0.34477E+00 46620   0.760E+00    0.127E+00
DAV:   2    -0.132408071089E+04   -0.76846E-01   -0.70149E-01 36070   0.127E+00    0.666E-01
DAV:   3    -0.132408157470E+04   -0.86381E-03   -0.21784E-02 37110   0.263E-01    0.293E-01
DAV:   4    -0.132408157405E+04    0.65117E-06   -0.12414E-03 40330   0.613E-02    0.214E-01
DAV:   5    -0.132408120857E+04    0.36548E-03   -0.22015E-04 34730   0.597E-02    0.110E-01
DAV:   6    -0.132408113944E+04    0.69131E-04   -0.24499E-04 40010   0.435E-02    0.337E-02
DAV:   7    -0.132408114856E+04   -0.91171E-05   -0.78341E-05 23880   0.228E-02
  56 F= -.13240811E+04 E0= -.13240811E+04  d E =-.303610E-02  mag=   120.0000
       N       E                     dE             d eps       ncg     rms          rms(c)
DAV:   1    -0.132406889655E+04    0.12243E-01   -0.93573E-01 43150   0.356E+00    0.572E-01
DAV:   2    -0.132408398578E+04   -0.15089E-01   -0.15067E-01 37190   0.641E-01    0.285E-01
DAV:   3    -0.132408417274E+04   -0.18696E-03   -0.45747E-03 37130   0.140E-01    0.155E-01
DAV:   4    -0.132408411385E+04    0.58888E-04   -0.27947E-04 30760   0.349E-02    0.108E-01
DAV:   5    -0.132408407770E+04    0.36147E-04   -0.79387E-05 23400   0.328E-02
  57 F= -.13240841E+04 E0= -.13240841E+04  d E =-.292915E-02  mag=   120.0000
       N       E                     dE             d eps       ncg     rms          rms(c)
DAV:   1    -0.132407953245E+04    0.45814E-02   -0.27933E-01 45150   0.213E+00    0.343E-01
DAV:   2    -0.132408536931E+04   -0.58369E-02   -0.53507E-02 36510   0.366E-01    0.181E-01
DAV:   3    -0.132408537941E+04   -0.10100E-04   -0.17804E-03 37380   0.875E-02    0.979E-02
DAV:   4    -0.132408545073E+04   -0.71320E-04   -0.11409E-04 25000   0.266E-02    0.657E-02
DAV:   5    -0.132408540939E+04    0.41331E-04   -0.25314E-05 19100   0.194E-02
  58 F= -.13240854E+04 E0= -.13240854E+04  d E =-.133169E-02  mag=   120.0000
       N       E                     dE             d eps       ncg     rms          rms(c)
DAV:   1    -0.132407953251E+04    0.59182E-02   -0.53679E-01 42950   0.255E+00    0.428E-01
DAV:   2    -0.132408747970E+04   -0.79472E-02   -0.80558E-02 36950   0.466E-01    0.206E-01
DAV:   3    -0.132408761300E+04   -0.13329E-03   -0.21733E-03 36900   0.957E-02    0.109E-01
DAV:   4    -0.132408756144E+04    0.51562E-04   -0.13690E-04 27100   0.236E-02    0.788E-02
DAV:   5    -0.132408755789E+04    0.35479E-05   -0.35834E-05 19020   0.228E-02
  59 F= -.13240876E+04 E0= -.13240876E+04  d E =-.214849E-02  mag=   120.0000
       N       E                     dE             d eps       ncg     rms          rms(c)
DAV:   1    -0.132401056109E+04    0.77000E-01   -0.56958E+00 43050   0.835E+00    0.134E+00
DAV:   2    -0.132409153043E+04   -0.80969E-01   -0.81128E-01 35820   0.150E+00    0.641E-01
DAV:   3    -0.132409224110E+04   -0.71068E-03   -0.23245E-02 36850   0.304E-01    0.323E-01
DAV:   4    -0.132409213151E+04    0.10959E-03   -0.15218E-03 38760   0.767E-02    0.237E-01
DAV:   5    -0.132409177524E+04    0.35627E-03   -0.27291E-04 34930   0.668E-02    0.145E-01
DAV:   6    -0.132409167494E+04    0.10031E-03   -0.44597E-04 41300   0.702E-02    0.567E-02
DAV:   7    -0.132409162676E+04    0.48176E-04   -0.17511E-04 31210   0.349E-02
  60 F= -.13240916E+04 E0= -.13240916E+04  d E =-.406887E-02  mag=   120.0000
       N       E                     dE             d eps       ncg     rms          rms(c)
DAV:   1    -0.132406447144E+04    0.27203E-01   -0.15293E+00 43560   0.479E+00    0.799E-01
DAV:   2    -0.132409428417E+04   -0.29813E-01   -0.29080E-01 36860   0.863E-01    0.386E-01
DAV:   3    -0.132409474325E+04   -0.45908E-03   -0.78082E-03 37230   0.175E-01    0.199E-01
DAV:   4    -0.132409468213E+04    0.61111E-04   -0.46974E-04 32870   0.396E-02    0.150E-01
DAV:   5    -0.132409454373E+04    0.13840E-03   -0.11461E-04 26410   0.431E-02    0.913E-02
DAV:   6    -0.132409455548E+04   -0.11747E-04   -0.16676E-04 33210   0.408E-02
  61 F= -.13240946E+04 E0= -.13240946E+04  d E =-.292872E-02  mag=   120.0000
       N       E                     dE             d eps       ncg     rms          rms(c)
DAV:   1    -0.132408509561E+04    0.94481E-02   -0.80841E-01 41290   0.291E+00    0.444E-01
DAV:   2    -0.132409410561E+04   -0.90100E-02   -0.96656E-02 36780   0.537E-01    0.231E-01
DAV:   3    -0.132409410694E+04   -0.13289E-05   -0.27219E-03 36900   0.116E-01    0.133E-01
DAV:   4    -0.132409410608E+04    0.86131E-06   -0.16770E-04 28290   0.282E-02
  62 F= -.13240941E+04 E0= -.13240941E+04  d E =0.449397E-03  mag=   120.0000
       N       E                     dE             d eps       ncg     rms          rms(c)
DAV:   1    -0.132409165962E+04    0.24473E-02   -0.17701E-01 45150   0.168E+00    0.287E-01
DAV:   2    -0.132409497342E+04   -0.33138E-02   -0.32245E-02 37070   0.297E-01    0.134E-01
DAV:   3    -0.132409501591E+04   -0.42485E-04   -0.97708E-04 36860   0.624E-02    0.660E-02
DAV:   4    -0.132409500147E+04    0.14432E-04   -0.56849E-05 22130   0.155E-02
  63 F= -.13240950E+04 E0= -.13240950E+04  d E =-.895393E-03  mag=   120.0000
       N       E                     dE             d eps       ncg     rms          rms(c)
DAV:   1    -0.132403946804E+04    0.55548E-01   -0.47309E+00 42310   0.718E+00    0.114E+00
DAV:   2    -0.132409776296E+04   -0.58295E-01   -0.61156E-01 35970   0.131E+00    0.547E-01
DAV:   3    -0.132409820907E+04   -0.44611E-03   -0.15320E-02 36890   0.246E-01    0.269E-01
DAV:   4    -0.132409789441E+04    0.31467E-03   -0.99059E-04 38650   0.643E-02    0.204E-01
DAV:   5    -0.132409776287E+04    0.13154E-03   -0.29015E-04 34610   0.714E-02    0.126E-01
DAV:   6    -0.132409754938E+04    0.21349E-03   -0.40716E-04 38950   0.662E-02    0.552E-02
DAV:   7    -0.132409766542E+04   -0.11604E-03   -0.12533E-04 26470   0.311E-02    0.217E-02
DAV:   8    -0.132409764287E+04    0.22551E-04   -0.15642E-05 18110   0.945E-03
  64 F= -.13240976E+04 E0= -.13240976E+04  d E =-.264140E-02  mag=   120.0000
       N       E                     dE             d eps       ncg     rms          rms(c)
DAV:   1    -0.132408988042E+04    0.77850E-02   -0.48369E-01 45000   0.271E+00    0.427E-01
DAV:   2    -0.132409839758E+04   -0.85172E-02   -0.83133E-02 36390   0.469E-01    0.209E-01
DAV:   3    -0.132409861284E+04   -0.21526E-03   -0.25451E-03 37290   0.955E-02    0.996E-02
DAV:   4    -0.132409856135E+04    0.51485E-04   -0.15009E-04 26190   0.228E-02    0.735E-02
DAV:   5    -0.132409854440E+04    0.16953E-04   -0.37457E-05 19050   0.231E-02
  65 F= -.13240985E+04 E0= -.13240985E+04  d E =-.901528E-03  mag=   120.0000
       N       E                     dE             d eps       ncg     rms          rms(c)
DAV:   1    -0.132409482141E+04    0.37399E-02   -0.15611E-01 46850   0.180E+00    0.304E-01
DAV:   2    -0.132409896443E+04   -0.41430E-02   -0.37202E-02 37120   0.307E-01    0.146E-01
DAV:   3    -0.132409907169E+04   -0.10726E-03   -0.12205E-03 37280   0.679E-02    0.723E-02
DAV:   4    -0.132409909985E+04   -0.28163E-04   -0.72368E-05 22540   0.156E-02
  66 F= -.13240991E+04 E0= -.13240991E+04  d E =-.555455E-03  mag=   120.0000
       N       E                     dE             d eps       ncg     rms          rms(c)
DAV:   1    -0.132409693989E+04    0.21318E-02   -0.16391E-01 44520   0.152E+00    0.238E-01
DAV:   2    -0.132409965756E+04   -0.27177E-02   -0.26291E-02 36590   0.267E-01    0.122E-01
DAV:   3    -0.132409968545E+04   -0.27884E-04   -0.74135E-04 35950   0.544E-02    0.635E-02
DAV:   4    -0.132409970729E+04   -0.21842E-04   -0.46804E-05 21080   0.150E-02
  67 F= -.13240997E+04 E0= -.13240997E+04  d E =-.607434E-03  mag=   120.0000
       N       E                     dE             d eps       ncg     rms          rms(c)
DAV:   1    -0.132406910242E+04    0.30583E-01   -0.25505E+00 43070   0.534E+00    0.841E-01
DAV:   2    -0.132410144210E+04   -0.32340E-01   -0.33600E-01 35340   0.966E-01    0.412E-01
DAV:   3    -0.132410177998E+04   -0.33788E-03   -0.92400E-03 37050   0.194E-01    0.213E-01
DAV:   4    -0.132410167315E+04    0.10684E-03   -0.61987E-04 37680   0.482E-02    0.159E-01
DAV:   5    -0.132410153026E+04    0.14288E-03   -0.11672E-04 27230   0.450E-02    0.943E-02
DAV:   6    -0.132410149454E+04    0.35726E-04   -0.21549E-04 36940   0.420E-02
  68 F= -.13241015E+04 E0= -.13241015E+04  d E =-.178725E-02  mag=   120.0000
       N       E                     dE             d eps       ncg     rms          rms(c)
DAV:   1    -0.132405952449E+04    0.42006E-01   -0.17653E+00 46070   0.548E+00    0.965E-01
DAV:   2    -0.132410161954E+04   -0.42095E-01   -0.38959E-01 35850   0.954E-01    0.455E-01
DAV:   3    -0.132410257099E+04   -0.95145E-03   -0.12349E-02 37130   0.202E-01    0.219E-01
DAV:   4    -0.132410252675E+04    0.44241E-04   -0.79045E-04 36650   0.471E-02    0.169E-01
DAV:   5    -0.132410241046E+04    0.11629E-03   -0.78272E-05 23020   0.392E-02    0.109E-01
DAV:   6    -0.132410232266E+04    0.87804E-04   -0.17727E-04 34250   0.449E-02    0.335E-02
DAV:   7    -0.132410236057E+04   -0.37917E-04   -0.77001E-05 22040   0.188E-02
  69 F= -.13241024E+04 E0= -.13241024E+04  d E =-.866034E-03  mag=   120.0000
       N       E                     dE             d eps       ncg     rms          rms(c)
DAV:   1    -0.132409539685E+04    0.69258E-02   -0.31304E-01 47660   0.251E+00    0.417E-01
DAV:   2    -0.132410290399E+04   -0.75071E-02   -0.68089E-02 37160   0.425E-01    0.204E-01
DAV:   3    -0.132410304619E+04   -0.14220E-03   -0.24548E-03 37430   0.100E-01    0.104E-01
DAV:   4    -0.132410306956E+04   -0.23368E-04   -0.14265E-04 26050   0.251E-02
  70 F= -.13241031E+04 E0= -.13241031E+04  d E =-.708985E-03  mag=   120.0000
       N       E                     dE             d eps       ncg     rms          rms(c)
DAV:   1    -0.132410198007E+04    0.10661E-02   -0.10485E-01 42770   0.111E+00    0.175E-01
DAV:   2    -0.132410336466E+04   -0.13846E-02   -0.13987E-02 36270   0.200E-01    0.855E-02
DAV:   3    -0.132410335717E+04    0.74900E-05   -0.41971E-04 33700   0.419E-02    0.455E-02
DAV:   4    -0.132410336238E+04   -0.52128E-05   -0.28697E-05 20190   0.131E-02
  71 F= -.13241034E+04 E0= -.13241034E+04  d E =-.292826E-03  mag=   120.0000
       N       E                     dE             d eps       ncg     rms          rms(c)
DAV:   1    -0.132408828084E+04    0.15076E-01   -0.10344E+00 44360   0.363E+00    0.564E-01
DAV:   2    -0.132410415331E+04   -0.15872E-01   -0.15649E-01 35050   0.635E-01    0.279E-01
DAV:   3    -0.132410429386E+04   -0.14055E-03   -0.45663E-03 37010   0.125E-01    0.137E-01
DAV:   4    -0.132410425774E+04    0.36122E-04   -0.27625E-04 30020   0.320E-02
  72 F= -.13241043E+04 E0= -.13241043E+04  d E =-.895351E-03  mag=   120.0000
       N       E                     dE             d eps       ncg     rms          rms(c)
DAV:   1    -0.132404337406E+04    0.60920E-01   -0.25076E+00 46490   0.668E+00    0.107E+00
DAV:   2    -0.132410293816E+04   -0.59564E-01   -0.53914E-01 35510   0.111E+00    0.553E-01
DAV:   3    -0.132410368351E+04   -0.74535E-03   -0.16944E-02 37020   0.227E-01    0.261E-01
DAV:   4    -0.132410374121E+04   -0.57702E-04   -0.99183E-04 39550   0.562E-02    0.193E-01
DAV:   5    -0.132410339095E+04    0.35026E-03   -0.21741E-04 32570   0.662E-02    0.105E-01
DAV:   6    -0.132410344748E+04   -0.56522E-04   -0.27805E-04 37630   0.538E-02    0.525E-02
DAV:   7    -0.132410337011E+04    0.77369E-04   -0.87026E-05 23590   0.298E-02    0.195E-02
DAV:   8    -0.132410341229E+04   -0.42186E-04   -0.10941E-05 18070   0.834E-03
  73 F= -.13241034E+04 E0= -.13241034E+04  d E =0.845443E-03  mag=   120.0000
       N       E                     dE             d eps       ncg     rms          rms(c)
DAV:   1    -0.132409470080E+04    0.86693E-02   -0.26776E-01 48940   0.264E+00    0.460E-01
DAV:   2    -0.132410443175E+04   -0.97310E-02   -0.84112E-02 37130   0.432E-01    0.221E-01
DAV:   3    -0.132410469992E+04   -0.26817E-03   -0.28915E-03 37360   0.993E-02    0.106E-01
DAV:   4    -0.132410468349E+04    0.16428E-04   -0.15715E-04 26330   0.225E-02
  74 F= -.13241047E+04 E0= -.13241047E+04  d E =-.127120E-02  mag=   120.0000
       N       E                     dE             d eps       ncg     rms          rms(c)
DAV:   1    -0.132410064784E+04    0.40521E-02   -0.12257E-01 48690   0.171E+00    0.283E-01
DAV:   2    -0.132410504603E+04   -0.43982E-02   -0.38401E-02 35890   0.268E-01    0.151E-01
DAV:   3    -0.132410513882E+04   -0.92798E-04   -0.12334E-03 35710   0.608E-02    0.762E-02
DAV:   4    -0.132410512288E+04    0.15940E-04   -0.68993E-05 21370   0.168E-02
  75 F= -.13241051E+04 E0= -.13241051E+04  d E =-.439389E-03  mag=   120.0000
       N       E                     dE             d eps       ncg     rms          rms(c)
DAV:   1    -0.132409812639E+04    0.70124E-02   -0.47031E-01 44330   0.236E+00    0.400E-01
DAV:   2    -0.132410535719E+04   -0.72308E-02   -0.72310E-02 35740   0.420E-01    0.197E-01
DAV:   3    -0.132410552347E+04   -0.16627E-03   -0.19764E-03 36780   0.862E-02    0.102E-01
DAV:   4    -0.132410543660E+04    0.86866E-04   -0.13673E-04 26220   0.265E-02    0.751E-02
DAV:   5    -0.132410544452E+04   -0.79186E-05   -0.33866E-05 18940   0.234E-02
  76 F= -.13241054E+04 E0= -.13241054E+04  d E =-.321635E-03  mag=   120.0000
       N       E                     dE             d eps       ncg     rms          rms(c)
DAV:   1    -0.132350556690E+04    0.59987E+00   -0.33630E+01 43620   0.202E+01    0.372E+00
DAV:   2    -0.132408637126E+04   -0.58080E+00   -0.56532E+00 35830   0.363E+00    0.192E+00
DAV:   3    -0.132409530808E+04   -0.89368E-02   -0.15543E-01 36900   0.721E-01    0.886E-01
DAV:   4    -0.132409420231E+04    0.11058E-02   -0.10539E-02 39690   0.180E-01    0.690E-01
DAV:   5    -0.132409246174E+04    0.17406E-02   -0.14143E-03 42950   0.144E-01    0.443E-01
DAV:   6    -0.132409113000E+04    0.13317E-02   -0.23241E-03 44010   0.178E-01    0.191E-01
DAV:   7    -0.132409169878E+04   -0.56878E-03   -0.12996E-03 38220   0.949E-02    0.786E-02
DAV:   8    -0.132409169226E+04    0.65169E-05   -0.11715E-04 29180   0.315E-02
  77 F= -.13240917E+04 E0= -.13240917E+04  d E =0.137523E-01  mag=   120.0000
       N       E                     dE             d eps       ncg     rms          rms(c)
DAV:   1    -0.132377570570E+04    0.31599E+00   -0.16148E+01 45090   0.150E+01    0.276E+00
DAV:   2    -0.132410056642E+04   -0.32486E+00   -0.30688E+00 35570   0.265E+00    0.136E+00
DAV:   3    -0.132410610786E+04   -0.55414E-02   -0.88269E-02 36940   0.535E-01    0.632E-01
DAV:   4    -0.132410613629E+04   -0.28426E-04   -0.58501E-03 39680   0.131E-01    0.489E-01
DAV:   5    -0.132410487714E+04    0.12592E-02   -0.78642E-04 43290   0.111E-01    0.316E-01
DAV:   6    -0.132410452577E+04    0.35136E-03   -0.12337E-03 44710   0.131E-01    0.138E-01
DAV:   7    -0.132410442624E+04    0.99535E-04   -0.66424E-04 38030   0.695E-02    0.561E-02
DAV:   8    -0.132410462210E+04   -0.19586E-03   -0.58160E-05 22560   0.229E-02    0.264E-02
DAV:   9    -0.132410460977E+04    0.12326E-04   -0.12241E-05 18290   0.952E-03
  78 F= -.13241046E+04 E0= -.13241046E+04  d E =-.129175E-01  mag=   120.0000
       N       E                     dE             d eps       ncg     rms          rms(c)
DAV:   1    -0.132402509384E+04    0.79528E-01   -0.33014E+00 46210   0.771E+00    0.127E+00
DAV:   2    -0.132410006019E+04   -0.74966E-01   -0.68130E-01 36430   0.130E+00    0.637E-01
DAV:   3    -0.132410206550E+04   -0.20053E-02   -0.23884E-02 37170   0.299E-01    0.318E-01
DAV:   4    -0.132410204778E+04    0.17717E-04   -0.13891E-03 39170   0.679E-02    0.215E-01
DAV:   5    -0.132410174210E+04    0.30568E-03   -0.34149E-04 38020   0.611E-02    0.120E-01
DAV:   6    -0.132410172550E+04    0.16604E-04   -0.24598E-04 39920   0.523E-02
  79 F= -.13241017E+04 E0= -.13241017E+04  d E =0.288427E-02  mag=   120.0000
       N       E                     dE             d eps       ncg     rms          rms(c)
DAV:   1    -0.132406993852E+04    0.31804E-01   -0.15087E+00 46290   0.527E+00    0.879E-01
DAV:   2    -0.132410538714E+04   -0.35449E-01   -0.32000E-01 36350   0.888E-01    0.423E-01
DAV:   3    -0.132410608762E+04   -0.70047E-03   -0.10409E-02 37120   0.198E-01    0.208E-01
DAV:   4    -0.132410615200E+04   -0.64387E-04   -0.62522E-04 35960   0.471E-02    0.146E-01
DAV:   5    -0.132410598174E+04    0.17026E-03   -0.15692E-04 31390   0.448E-02    0.895E-02
DAV:   6    -0.132410600208E+04   -0.20333E-04   -0.14679E-04 32460   0.428E-02
  80 F= -.13241060E+04 E0= -.13241060E+04  d E =-.427658E-02  mag=   120.0000
       N       E                     dE             d eps       ncg     rms          rms(c)
DAV:   1    -0.132410350066E+04    0.24811E-02   -0.10961E-01 45820   0.137E+00    0.231E-01
DAV:   2    -0.132410607626E+04   -0.25756E-02   -0.23454E-02 36130   0.236E-01    0.112E-01
DAV:   3    -0.132410605758E+04    0.18687E-04   -0.69527E-04 34980   0.515E-02    0.580E-02
DAV:   4    -0.132410608518E+04   -0.27605E-04   -0.45159E-05 20870   0.148E-02
  81 F= -.13241061E+04 E0= -.13241061E+04  d E =-.831027E-04  mag=   120.0000
       N       E                     dE             d eps       ncg     rms          rms(c)
DAV:   1    -0.132379900035E+04    0.30706E+00   -0.12391E+01 46420   0.149E+01    0.248E+00
DAV:   2    -0.132409297444E+04   -0.29397E+00   -0.26883E+00 35070   0.247E+00    0.129E+00
DAV:   3    -0.132409851490E+04   -0.55405E-02   -0.87948E-02 37210   0.527E-01    0.574E-01
DAV:   4    -0.132409855036E+04   -0.35456E-04   -0.52478E-03 41100   0.119E-01    0.432E-01
DAV:   5    -0.132409750046E+04    0.10499E-02   -0.72180E-04 45060   0.113E-01    0.236E-01
DAV:   6    -0.132409727897E+04    0.22149E-03   -0.88189E-04 44360   0.975E-02    0.777E-02
DAV:   7    -0.132409730612E+04   -0.27152E-04   -0.37958E-04 35940   0.526E-02
  82 F= -.13240973E+04 E0= -.13240973E+04  d E =0.877906E-02  mag=   120.0000
       N       E                     dE             d eps       ncg     rms          rms(c)
DAV:   1    -0.132397833447E+04    0.11894E+00   -0.45726E+00 46910   0.950E+00    0.163E+00
DAV:   2    -0.132410339007E+04   -0.12506E+00   -0.11223E+00 35580   0.158E+00    0.793E-01
DAV:   3    -0.132410595995E+04   -0.25699E-02   -0.35833E-02 37240   0.337E-01    0.367E-01
DAV:   4    -0.132410603385E+04   -0.73898E-04   -0.20777E-03 39790   0.744E-02    0.275E-01
DAV:   5    -0.132410561791E+04    0.41595E-03   -0.31715E-04 36450   0.757E-02    0.157E-01
DAV:   6    -0.132410536808E+04    0.24982E-03   -0.39745E-04 42780   0.693E-02    0.648E-02
DAV:   7    -0.132410555267E+04   -0.18459E-03   -0.17653E-04 30560   0.384E-02    0.314E-02
DAV:   8    -0.132410551283E+04    0.39839E-04   -0.18572E-05 18500   0.134E-02
  83 F= -.13241055E+04 E0= -.13241055E+04  d E =-.820671E-02  mag=   120.0000
       N       E                     dE             d eps       ncg     rms          rms(c)
DAV:   1    -0.132406374997E+04    0.41803E-01   -0.12165E+00 47600   0.526E+00    0.912E-01
DAV:   2    -0.132410492162E+04   -0.41172E-01   -0.35761E-01 35740   0.860E-01    0.445E-01
DAV:   3    -0.132410572365E+04   -0.80203E-03   -0.12191E-02 37390   0.190E-01    0.207E-01
DAV:   4    -0.132410581182E+04   -0.88176E-04   -0.68759E-04 32940   0.425E-02    0.157E-01
DAV:   5    -0.132410560953E+04    0.20229E-03   -0.10423E-04 26550   0.419E-02    0.896E-02
DAV:   6    -0.132410559145E+04    0.18081E-04   -0.12901E-04 29540   0.390E-02
  84 F= -.13241056E+04 E0= -.13241056E+04  d E =-.786205E-04  mag=   120.0000
       N       E                     dE             d eps       ncg     rms          rms(c)
DAV:   1    -0.132409187095E+04    0.13739E-01   -0.45344E-01 47690   0.318E+00    0.548E-01
DAV:   2    -0.132410634425E+04   -0.14473E-01   -0.12833E-01 36050   0.521E-01    0.263E-01
DAV:   3    -0.132410653229E+04   -0.18804E-03   -0.40948E-03 37320   0.115E-01    0.125E-01
DAV:   4    -0.132410659328E+04   -0.60984E-04   -0.23386E-04 27830   0.283E-02    0.934E-02
DAV:   5    -0.132410650378E+04    0.89493E-04   -0.41374E-05 19680   0.277E-02    0.604E-02
DAV:   6    -0.132410653425E+04   -0.30463E-04   -0.60004E-05 23160   0.291E-02
  85 F= -.13241065E+04 E0= -.13241065E+04  d E =-.942796E-03  mag=   120.0000
       N       E                     dE             d eps       ncg     rms          rms(c)
DAV:   1    -0.132408446071E+04    0.22043E-01   -0.10394E+00 46090   0.400E+00    0.664E-01
DAV:   2    -0.132410557296E+04   -0.21112E-01   -0.19777E-01 35470   0.675E-01    0.322E-01
DAV:   3    -0.132410586904E+04   -0.29607E-03   -0.61309E-03 37150   0.133E-01    0.147E-01
DAV:   4    -0.132410587070E+04   -0.16588E-05   -0.34848E-04 29740   0.295E-02
  86 F= -.13241059E+04 E0= -.13241059E+04  d E =0.663550E-03  mag=   120.0000
       N       E                     dE             d eps       ncg     rms          rms(c)
DAV:   1    -0.132408898157E+04    0.16887E-01   -0.46663E-01 48040   0.338E+00    0.596E-01
DAV:   2    -0.132410554047E+04   -0.16559E-01   -0.14790E-01 36100   0.544E-01    0.289E-01
DAV:   3    -0.132410587443E+04   -0.33396E-03   -0.47542E-03 37280   0.121E-01    0.138E-01
DAV:   4    -0.132410589513E+04   -0.20707E-04   -0.27712E-04 28510   0.293E-02
  87 F= -.13241059E+04 E0= -.13241059E+04  d E =-.244381E-04  mag=   120.0000
       N       E                     dE             d eps       ncg     rms          rms(c)
DAV:   1    -0.132403926966E+04    0.66605E-01   -0.21938E+00 47180   0.686E+00    0.110E+00
DAV:   2    -0.132410341168E+04   -0.64142E-01   -0.56294E-01 35870   0.108E+00    0.585E-01
DAV:   3    -0.132410430067E+04   -0.88899E-03   -0.18710E-02 37130   0.241E-01    0.279E-01
DAV:   4    -0.132410440626E+04   -0.10559E-03   -0.10636E-03 39250   0.647E-02    0.205E-01
DAV:   5    -0.132410409131E+04    0.31495E-03   -0.20356E-04 31550   0.666E-02    0.120E-01
DAV:   6    -0.132410408320E+04    0.81166E-05   -0.29608E-04 38900   0.620E-02
  88 F= -.13241041E+04 E0= -.13241041E+04  d E =0.181194E-02  mag=   120.0000
       N       E                     dE             d eps       ncg     rms          rms(c)
DAV:   1    -0.132408247297E+04    0.21618E-01   -0.46748E-01 48630   0.381E+00    0.712E-01
DAV:   2    -0.132410553173E+04   -0.23059E-01   -0.19938E-01 36950   0.616E-01    0.335E-01
DAV:   3    -0.132410593015E+04   -0.39841E-03   -0.60919E-03 37480   0.141E-01    0.161E-01
DAV:   4    -0.132410602986E+04   -0.99717E-04   -0.35090E-04 29410   0.299E-02    0.124E-01
DAV:   5    -0.132410593077E+04    0.99094E-04   -0.43990E-05 20450   0.283E-02    0.787E-02
DAV:   6    -0.132410593831E+04   -0.75363E-05   -0.67706E-05 24630   0.305E-02
  89 F= -.13241059E+04 E0= -.13241059E+04  d E =-.185511E-02  mag=   120.0000
       N       E                     dE             d eps       ncg     rms          rms(c)
DAV:   1    -0.132410017756E+04    0.57532E-02   -0.18727E-01 47100   0.206E+00    0.341E-01
DAV:   2    -0.132410617780E+04   -0.60002E-02   -0.52774E-02 36010   0.329E-01    0.174E-01
DAV:   3    -0.132410622630E+04   -0.48500E-04   -0.17442E-03 36700   0.733E-02    0.826E-02
DAV:   4    -0.132410626871E+04   -0.42404E-04   -0.90840E-05 22430   0.183E-02
  90 F= -.13241063E+04 E0= -.13241063E+04  d E =-.330399E-03  mag=   120.0000
       N       E                     dE             d eps       ncg     rms          rms(c)
DAV:   1    -0.132410011723E+04    0.61091E-02   -0.25301E-01 46050   0.213E+00    0.329E-01
DAV:   2    -0.132410585596E+04   -0.57387E-02   -0.53027E-02 36090   0.348E-01    0.176E-01
DAV:   3    -0.132410586934E+04   -0.13385E-04   -0.16850E-03 37160   0.756E-02    0.893E-02
DAV:   4    -0.132410590792E+04   -0.38582E-04   -0.95673E-05 22700   0.221E-02
  91 F= -.13241059E+04 E0= -.13241059E+04  d E =0.360783E-03  mag=   120.0000
       N       E                     dE             d eps       ncg     rms          rms(c)
DAV:   1    -0.132408718355E+04    0.18686E-01   -0.72406E-01 45740   0.352E+00    0.577E-01
DAV:   2    -0.132410486941E+04   -0.17686E-01   -0.15712E-01 36020   0.575E-01    0.302E-01
DAV:   3    -0.132410492722E+04   -0.57817E-04   -0.51232E-03 37030   0.126E-01    0.147E-01
DAV:   4    -0.132410502297E+04   -0.95741E-04   -0.28812E-04 30260   0.371E-02    0.106E-01
DAV:   5    -0.132410490595E+04    0.11701E-03   -0.73275E-05 22750   0.359E-02    0.657E-02
DAV:   6    -0.132410491274E+04   -0.67872E-05   -0.90861E-05 24880   0.332E-02
  92 F= -.13241049E+04 E0= -.13241049E+04  d E =0.995184E-03  mag=   120.0000
       N       E                     dE             d eps       ncg     rms          rms(c)
DAV:   1    -0.132409969664E+04    0.52093E-02   -0.25429E-01 45880   0.210E+00    0.341E-01
DAV:   2    -0.132410541338E+04   -0.57167E-02   -0.51715E-02 36530   0.357E-01    0.167E-01
DAV:   3    -0.132410544358E+04   -0.30200E-04   -0.16338E-03 37190   0.742E-02    0.805E-02
DAV:   4    -0.132410547749E+04   -0.33917E-04   -0.91892E-05 23090   0.172E-02
  93 F= -.13241055E+04 E0= -.13241055E+04  d E =-.564754E-03  mag=   120.0000
       N       E                     dE             d eps       ncg     rms          rms(c)
DAV:   1    -0.132409967634E+04    0.57672E-02   -0.14613E-01 48850   0.204E+00    0.353E-01
DAV:   2    -0.132410563866E+04   -0.59623E-02   -0.51150E-02 36630   0.323E-01    0.170E-01
DAV:   3    -0.132410574494E+04   -0.10628E-03   -0.17544E-03 37290   0.742E-02    0.783E-02
DAV:   4    -0.132410578315E+04   -0.38209E-04   -0.92986E-05 22200   0.180E-02
  94 F= -.13241058E+04 E0= -.13241058E+04  d E =-.305653E-03  mag=   120.0000
       N       E                     dE             d eps       ncg     rms          rms(c)
DAV:   1    -0.132410487505E+04    0.86989E-03   -0.26727E-02 47530   0.809E-01    0.128E-01
DAV:   2    -0.132410577057E+04   -0.89552E-03   -0.76456E-03 37420   0.132E-01    0.749E-02
DAV:   3    -0.132410572906E+04    0.41502E-04   -0.27599E-04 29340   0.359E-02    0.437E-02
DAV:   4    -0.132410576824E+04   -0.39179E-04   -0.19031E-05 18700   0.127E-02
  95 F= -.13241058E+04 E0= -.13241058E+04  d E =0.149033E-04  mag=   120.0000
