       N       E                     dE             d eps       ncg     rms          ort
DAV:   1     0.112460132177E+05    0.11246E+05   -0.46629E+05  8540   0.170E+03
DAV:   2     0.269830796531E+02   -0.11219E+05   -0.10204E+05  8540   0.487E+02
DAV:   3    -0.160847078079E+04   -0.16355E+04   -0.15502E+04  8540   0.198E+02
DAV:   4    -0.169255434355E+04   -0.84084E+02   -0.82874E+02  8540   0.457E+01
DAV:   5    -0.169362873558E+04   -0.10744E+01   -0.10710E+01  8540   0.558E+00
SDA:   6    -0.804195151200E+03    0.88943E+03   -0.10710E+01  8540   0.299E+04 0.000E+00
CGA:   7    -0.122889713449E+04   -0.42470E+03   -0.42305E+03  8540   0.310E+03 0.403E+02
CGA:   8    -0.128720949669E+04   -0.58312E+02   -0.58411E+02  8540   0.741E+02 0.549E+01
CGA:   9    -0.131116196216E+04   -0.23952E+02   -0.24423E+02  8540   0.566E+02-0.540E+01
CGA:  10    -0.131888993330E+04   -0.77280E+01   -0.84034E+01  8540   0.155E+02 0.528E+01
CGA:  11    -0.132243278237E+04   -0.35428E+01   -0.35481E+01  8540   0.459E+01-0.637E+00
CGA:  12    -0.132343848752E+04   -0.10057E+01   -0.10164E+01  8540   0.132E+01-0.361E+00
CGA:  13    -0.132375111404E+04   -0.31263E+00   -0.31406E+00  8540   0.502E+00-0.272E-01
CGA:  14    -0.132387286137E+04   -0.12175E+00   -0.12045E+00  8540   0.185E+00 0.320E-01
CGA:  15    -0.132393257518E+04   -0.59714E-01   -0.61654E-01  8540   0.852E-01-0.189E-01
CGA:  16    -0.132394825904E+04   -0.15684E-01   -0.44935E-01  8540   0.129E+00-0.787E-01
CGA:  17    -0.132398018211E+04   -0.31923E-01   -0.31876E-01  8540   0.254E-01 0.299E-02
CGA:  18    -0.132398785583E+04   -0.76737E-02   -0.11936E-01  8540   0.347E-01-0.188E-01
CGA:  19    -0.132399359019E+04   -0.57344E-02   -0.56399E-02  8540   0.351E-02-0.104E-02
CGA:  20    -0.132399529704E+04   -0.17068E-02    0.85887E-02  8540   0.600E-03 0.913E-03
CGA:  21    -0.132399611581E+04   -0.81877E-03    0.71774E-04  8540   0.430E-03 0.428E-03
CGA:  22    -0.132399656565E+04   -0.44984E-03    0.43491E-04  8540   0.309E-03 0.255E-03
CGA:  23    -0.132399698436E+04   -0.41871E-03    0.20238E-04  8540   0.242E-03 0.195E-03
CGA:  24    -0.132399732022E+04   -0.33585E-03    0.15260E-04  8540   0.195E-03 0.149E-03
CGA:  25    -0.132399763231E+04   -0.31210E-03    0.99740E-05  8540   0.161E-03 0.112E-03
CGA:  26    -0.132399788615E+04   -0.25384E-03    0.84075E-05  8540   0.137E-03 0.804E-04
CGA:  27    -0.132399833139E+04   -0.44525E-03    0.69518E-05  8540   0.773E-04 0.160E-03
CGA:  28    -0.132399851060E+04   -0.17920E-03    0.24087E-05  8540   0.660E-04 0.418E-04
CGA:  29    -0.132399865626E+04   -0.14566E-03    0.21904E-05  8540   0.581E-04 0.285E-04
CGA:  30    -0.132399892284E+04   -0.26658E-03    0.17497E-05  8540   0.325E-04 0.652E-04
CGA:  31    -0.132399903085E+04   -0.10801E-03    0.65529E-06  8540   0.281E-04 0.150E-04
CGA:  32    -0.132399920956E+04   -0.17871E-03    0.60988E-06  8540   0.161E-04 0.324E-04
CGA:  33    -0.132399927815E+04   -0.68593E-04    0.24497E-06  8540   0.140E-04 0.788E-05
CGA:  34    -0.132399940335E+04   -0.12520E-03    0.21679E-06  8540   0.801E-05 0.165E-04
CGA:  35    -0.132399945364E+04   -0.50285E-04    0.79172E-07  8540   0.680E-05 0.427E-05
CGA:  36    -0.132399949552E+04   -0.41881E-04    0.68615E-07  8540   0.588E-05 0.303E-05
CGA:  37    -0.132399957221E+04   -0.76689E-04    0.57093E-07  8540   0.345E-05 0.674E-05
CGA:  38    -0.132399960308E+04   -0.30877E-04    0.23297E-07  8540   0.290E-05 0.163E-05
CGA:  39    -0.132399965486E+04   -0.51779E-04    0.21034E-07  8540   0.176E-05 0.341E-05
CGA:  40    -0.132399967582E+04   -0.20954E-04    0.88458E-08  8540   0.147E-05 0.865E-06
CGA:  41    -0.132399971236E+04   -0.36542E-04    0.78107E-08  8540   0.906E-06 0.176E-05
CGA:  42    -0.132399972715E+04   -0.14797E-04    0.32754E-08  8540   0.739E-06 0.468E-06
CGA:  43    -0.132399974029E+04   -0.13131E-04    0.24515E-08  8540   0.608E-06 0.365E-06
CGA:  44    -0.132399976293E+04   -0.22645E-04    0.21309E-08  8540   0.386E-06 0.730E-06
CGA:  45    -0.132399977224E+04   -0.93067E-05    0.93508E-09  8540   0.311E-06 0.196E-06
