       N       E                     dE             d eps       ncg     rms          rms(c)
DAV:   1     0.828084114731E+04    0.82808E+04   -0.23631E+05 34332   0.219E+03
DAV:   2     0.121561624947E+04   -0.70652E+04   -0.66387E+04 33696   0.633E+02
DAV:   3    -0.315470547317E+03   -0.15311E+04   -0.13398E+04 36000   0.271E+02
DAV:   4    -0.468558663028E+03   -0.15309E+03   -0.15050E+03 36804   0.833E+01
DAV:   5    -0.471056298848E+03   -0.24976E+01   -0.24879E+01 36804   0.120E+01    0.107E+02
DAV:   6    -0.492718354961E+03   -0.21662E+02   -0.85224E+02 45720   0.116E+02    0.120E+02
DAV:   7    -0.392439176583E+03    0.10028E+03   -0.32042E+02 37512   0.113E+02    0.382E+01
DAV:   8    -0.401083521625E+03   -0.86443E+01   -0.82021E+01 43392   0.326E+01    0.422E+01
DAV:   9    -0.402358796413E+03   -0.12753E+01   -0.68023E+01 37080   0.353E+01    0.291E+01
DAV:  10    -0.400362931890E+03    0.19959E+01   -0.13386E+01 37140   0.227E+01    0.204E+01
DAV:  11    -0.400009154212E+03    0.35378E+00   -0.12086E+01 37068   0.181E+01    0.166E+01
DAV:  12    -0.399545585255E+03    0.46357E+00   -0.36088E+00 36984   0.113E+01    0.103E+01
DAV:  13    -0.399486968271E+03    0.58617E-01   -0.11175E+00 37500   0.630E+00    0.768E+00
DAV:  14    -0.399722097140E+03   -0.23513E+00   -0.81541E-01 39588   0.467E+00    0.654E+00
DAV:  15    -0.399758593504E+03   -0.36496E-01   -0.69738E-01 38124   0.432E+00    0.564E+00
DAV:  16    -0.399733044199E+03    0.25549E-01   -0.22515E-01 37188   0.389E+00    0.418E+00
DAV:  17    -0.399724956470E+03    0.80877E-02   -0.16147E-01 37140   0.345E+00    0.311E+00
DAV:  18    -0.399701231883E+03    0.23725E-01   -0.21913E-01 39588   0.258E+00    0.236E+00
DAV:  19    -0.399703277084E+03   -0.20452E-02   -0.68221E-02 37548   0.182E+00    0.209E+00
DAV:  20    -0.399703144133E+03    0.13295E-03   -0.24555E-02 37656   0.102E+00    0.176E+00
DAV:  21    -0.399698828746E+03    0.43154E-02   -0.20922E-02 42396   0.115E+00    0.924E-01
DAV:  22    -0.399700714234E+03   -0.18855E-02   -0.14663E-02 43644   0.884E-01    0.573E-01
DAV:  23    -0.399702629840E+03   -0.19156E-02   -0.92079E-03 38568   0.558E-01    0.459E-01
DAV:  24    -0.399703950090E+03   -0.13203E-02   -0.43616E-03 39420   0.369E-01    0.363E-01
DAV:  25    -0.399704845904E+03   -0.89581E-03   -0.13735E-03 44352   0.283E-01    0.250E-01
DAV:  26    -0.399705655930E+03   -0.81003E-03   -0.13468E-03 43836   0.303E-01    0.167E-01
DAV:  27    -0.399706135771E+03   -0.47984E-03   -0.13472E-03 41328   0.214E-01    0.111E-01
DAV:  28    -0.399706435399E+03   -0.29963E-03   -0.61438E-04 40632   0.121E-01    0.916E-02
DAV:  29    -0.399706650629E+03   -0.21523E-03   -0.25439E-04 37872   0.115E-01    0.828E-02
DAV:  30    -0.399706832503E+03   -0.18187E-03   -0.17253E-04 39912   0.966E-02    0.755E-02
DAV:  31    -0.399707068344E+03   -0.23584E-03   -0.20757E-04 42612   0.971E-02    0.806E-02
DAV:  32    -0.399707195302E+03   -0.12696E-03   -0.19861E-04 37992   0.699E-02    0.753E-02
DAV:  33    -0.399707271456E+03   -0.76155E-04   -0.56052E-05 36012   0.533E-02    0.633E-02
DAV:  34    -0.399707395251E+03   -0.12379E-03   -0.59760E-05 34776   0.749E-02    0.449E-02
DAV:  35    -0.399707516820E+03   -0.12157E-03   -0.14073E-04 39612   0.787E-02    0.345E-02
DAV:  36    -0.399707596833E+03   -0.80013E-04   -0.11779E-04 39720   0.605E-02    0.304E-02
DAV:  37    -0.399707664226E+03   -0.67394E-04   -0.66297E-05 34704   0.601E-02    0.252E-02
DAV:  38    -0.399707712853E+03   -0.48627E-04   -0.84048E-05 36060   0.549E-02    0.246E-02
DAV:  39    -0.399707741220E+03   -0.28367E-04   -0.64005E-05 35868   0.376E-02    0.205E-02
DAV:  40    -0.399707756795E+03   -0.15575E-04   -0.29793E-05 29052   0.234E-02    0.169E-02
DAV:  41    -0.399707767233E+03   -0.10438E-04   -0.97876E-06 22884   0.246E-02    0.123E-02
DAV:  42    -0.399707772750E+03   -0.55173E-05   -0.15074E-05 25140   0.172E-02
   1 F= -.39970777E+03 E0= -.39970331E+03  d E =-.399708E+03  mag=     1.9957
       N       E                     dE             d eps       ncg     rms          rms(c)
DAV:   1    -0.399713128664E+03   -0.53614E-02   -0.57653E-03 46476   0.655E-01    0.354E-02
DAV:   2    -0.399713302909E+03   -0.17425E-03   -0.17814E-03 36864   0.922E-02    0.334E-02
DAV:   3    -0.399713306968E+03   -0.40593E-05   -0.10350E-04 34296   0.542E-02    0.285E-02
DAV:   4    -0.399713303581E+03    0.33871E-05   -0.14836E-05 22260   0.248E-02
   2 F= -.39971330E+03 E0= -.39970883E+03  d E =-.553083E-02  mag=     1.9952
       N       E                     dE             d eps       ncg     rms          rms(c)
DAV:   1    -0.399732794560E+03   -0.19488E-01   -0.33432E+00 45912   0.157E+01    0.848E-01
DAV:   2    -0.399833912238E+03   -0.10112E+00   -0.10335E+00 37188   0.223E+00    0.924E-01
DAV:   3    -0.399834748487E+03   -0.83625E-03   -0.61620E-02 37524   0.130E+00    0.654E-01
DAV:   4    -0.399832988790E+03    0.17597E-02   -0.86222E-03 37644   0.566E-01    0.370E-01
DAV:   5    -0.399833167607E+03   -0.17882E-03   -0.32651E-03 38172   0.399E-01    0.345E-01
DAV:   6    -0.399832840490E+03    0.32712E-03   -0.40934E-03 36768   0.378E-01    0.182E-01
DAV:   7    -0.399832855792E+03   -0.15303E-04   -0.20987E-03 37596   0.237E-01    0.127E-01
DAV:   8    -0.399832840276E+03    0.15517E-04   -0.42183E-04 36888   0.152E-01    0.745E-02
DAV:   9    -0.399832838183E+03    0.20922E-05   -0.18799E-04 35352   0.871E-02    0.415E-02
DAV:  10    -0.399832846537E+03   -0.83535E-05   -0.84525E-05 33660   0.502E-02
   3 F= -.39983285E+03 E0= -.39982788E+03  d E =-.119543E+00  mag=     1.9922
       N       E                     dE             d eps       ncg     rms          rms(c)
DAV:   1    -0.398772433465E+03    0.10604E+01   -0.51344E+01 45552   0.543E+01    0.346E+00
DAV:   2    -0.400140419309E+03   -0.13680E+01   -0.13782E+01 37944   0.965E+00    0.473E+00
DAV:   3    -0.400099005728E+03    0.41414E-01   -0.12523E+00 36612   0.592E+00    0.216E+00
DAV:   4    -0.400084115805E+03    0.14890E-01   -0.11713E-01 37572   0.191E+00    0.144E+00
DAV:   5    -0.400085720300E+03   -0.16045E-02   -0.48078E-02 37668   0.146E+00    0.110E+00
DAV:   6    -0.400082285809E+03    0.34345E-02   -0.41936E-02 37608   0.148E+00    0.542E-01
DAV:   7    -0.400083189985E+03   -0.90418E-03   -0.16429E-02 38076   0.774E-01    0.390E-01
DAV:   8    -0.400083089747E+03    0.10024E-03   -0.52209E-03 36960   0.435E-01    0.226E-01
DAV:   9    -0.400083107546E+03   -0.17799E-04   -0.22152E-03 37500   0.310E-01    0.148E-01
DAV:  10    -0.400083121815E+03   -0.14269E-04   -0.78324E-04 37284   0.192E-01    0.107E-01
DAV:  11    -0.400083146740E+03   -0.24925E-04   -0.28244E-04 36864   0.102E-01    0.663E-02
DAV:  12    -0.400083200532E+03   -0.53792E-04   -0.15253E-04 37272   0.925E-02    0.528E-02
DAV:  13    -0.400083225780E+03   -0.25248E-04   -0.10472E-04 36132   0.621E-02    0.445E-02
DAV:  14    -0.400083237388E+03   -0.11607E-04   -0.34720E-05 29436   0.369E-02    0.326E-02
DAV:  15    -0.400083249417E+03   -0.12030E-04   -0.26003E-05 21060   0.302E-02    0.262E-02
DAV:  16    -0.400083259365E+03   -0.99472E-05   -0.17930E-05 23112   0.359E-02
   4 F= -.40008326E+03 E0= -.40007700E+03  d E =-.250413E+00  mag=     1.9736
       N       E                     dE             d eps       ncg     rms          rms(c)
DAV:   1    -0.400019992229E+03    0.63257E-01   -0.58308E+00 45312   0.172E+01    0.960E-01
DAV:   2    -0.400138480350E+03   -0.11849E+00   -0.12163E+00 38220   0.271E+00    0.924E-01
DAV:   3    -0.400139094839E+03   -0.61449E-03   -0.62519E-02 36840   0.137E+00    0.662E-01
DAV:   4    -0.400137150051E+03    0.19448E-02   -0.72406E-03 37788   0.626E-01    0.410E-01
DAV:   5    -0.400136919825E+03    0.23023E-03   -0.36750E-03 40044   0.389E-01    0.244E-01
DAV:   6    -0.400136832063E+03    0.87762E-04   -0.32617E-03 36648   0.418E-01    0.140E-01
DAV:   7    -0.400136786156E+03    0.45907E-04   -0.83586E-04 36768   0.207E-01    0.666E-02
DAV:   8    -0.400136789703E+03   -0.35466E-05   -0.26303E-04 39264   0.105E-01    0.514E-02
DAV:   9    -0.400136783485E+03    0.62175E-05   -0.12694E-04 35916   0.752E-02    0.339E-02
DAV:  10    -0.400136781895E+03    0.15901E-05   -0.44363E-05 27564   0.427E-02
   5 F= -.40013678E+03 E0= -.40013065E+03  d E =-.535225E-01  mag=     1.9692
       N       E                     dE             d eps       ncg     rms          rms(c)
DAV:   1    -0.399739273696E+03    0.39751E+00   -0.25213E+01 44004   0.336E+01    0.184E+00
DAV:   2    -0.400198451651E+03   -0.45918E+00   -0.47447E+00 37596   0.511E+00    0.151E+00
DAV:   3    -0.400203405761E+03   -0.49541E-02   -0.19592E-01 38244   0.235E+00    0.118E+00
DAV:   4    -0.400196163638E+03    0.72421E-02   -0.27744E-02 38076   0.126E+00    0.713E-01
DAV:   5    -0.400195065785E+03    0.10979E-02   -0.13135E-02 39624   0.660E-01    0.468E-01
DAV:   6    -0.400194780612E+03    0.28517E-03   -0.10115E-02 36732   0.701E-01    0.250E-01
DAV:   7    -0.400194749196E+03    0.31415E-04   -0.37885E-03 36852   0.370E-01    0.178E-01
DAV:   8    -0.400194705335E+03    0.43861E-04   -0.13889E-03 37860   0.215E-01    0.976E-02
DAV:   9    -0.400194686567E+03    0.18769E-04   -0.40076E-04 37668   0.144E-01    0.624E-02
DAV:  10    -0.400194689004E+03   -0.24369E-05   -0.13374E-04 36876   0.815E-02    0.424E-02
DAV:  11    -0.400194704155E+03   -0.15152E-04   -0.93041E-05 35412   0.500E-02    0.343E-02
DAV:  12    -0.400194714149E+03   -0.99936E-05   -0.36170E-05 30888   0.382E-02
   6 F= -.40019471E+03 E0= -.40018929E+03  d E =-.579323E-01  mag=     1.9630
       N       E                     dE             d eps       ncg     rms          rms(c)
DAV:   1    -0.400117840071E+03    0.76864E-01   -0.55670E+00 43344   0.148E+01    0.801E-01
DAV:   2    -0.400211325068E+03   -0.93485E-01   -0.95824E-01 37080   0.206E+00    0.510E-01
DAV:   3    -0.400212183991E+03   -0.85892E-03   -0.24216E-02 37848   0.719E-01    0.435E-01
DAV:   4    -0.400211609238E+03    0.57475E-03   -0.57232E-03 38832   0.485E-01    0.308E-01
DAV:   5    -0.400211557444E+03    0.51794E-04   -0.24817E-03 39720   0.349E-01    0.242E-01
DAV:   6    -0.400211373504E+03    0.18394E-03   -0.20247E-03 38412   0.351E-01    0.968E-02
DAV:   7    -0.400211404377E+03   -0.30873E-04   -0.59438E-04 38388   0.127E-01    0.643E-02
DAV:   8    -0.400211407315E+03   -0.29371E-05   -0.17594E-04 37488   0.825E-02    0.388E-02
DAV:   9    -0.400211406845E+03    0.46976E-06   -0.68875E-05 34608   0.542E-02
   7 F= -.40021141E+03 E0= -.40020629E+03  d E =-.166927E-01  mag=     1.9642
       N       E                     dE             d eps       ncg     rms          rms(c)
DAV:   1    -0.400165487554E+03    0.45920E-01   -0.35318E+00 44004   0.112E+01    0.638E-01
DAV:   2    -0.400221299684E+03   -0.55812E-01   -0.57187E-01 37404   0.161E+00    0.436E-01
DAV:   3    -0.400221851212E+03   -0.55153E-03   -0.16384E-02 36996   0.636E-01    0.394E-01
DAV:   4    -0.400221338368E+03    0.51284E-03   -0.35809E-03 38508   0.438E-01    0.264E-01
DAV:   5    -0.400221335314E+03    0.30547E-05   -0.18149E-03 41508   0.285E-01    0.217E-01
DAV:   6    -0.400221198167E+03    0.13715E-03   -0.17059E-03 37188   0.299E-01    0.808E-02
DAV:   7    -0.400221211615E+03   -0.13448E-04   -0.41058E-04 37896   0.122E-01    0.491E-02
DAV:   8    -0.400221207672E+03    0.39432E-05   -0.11909E-04 36600   0.741E-02    0.305E-02
DAV:   9    -0.400221205735E+03    0.19366E-05   -0.31960E-05 29148   0.377E-02
   8 F= -.40022121E+03 E0= -.40021625E+03  d E =-.979889E-02  mag=     1.9665
       N       E                     dE             d eps       ncg     rms          rms(c)
DAV:   1    -0.400191979349E+03    0.29228E-01   -0.18099E+00 44832   0.924E+00    0.485E-01
DAV:   2    -0.400227048582E+03   -0.35069E-01   -0.35943E-01 36912   0.127E+00    0.294E-01
DAV:   3    -0.400227262183E+03   -0.21360E-03   -0.75185E-03 37284   0.377E-01    0.244E-01
DAV:   4    -0.400227135244E+03    0.12694E-03   -0.20455E-03 39228   0.289E-01    0.195E-01
DAV:   5    -0.400227075555E+03    0.59689E-04   -0.84017E-04 39516   0.212E-01    0.131E-01
DAV:   6    -0.400227024320E+03    0.51235E-04   -0.65517E-04 38352   0.195E-01    0.535E-02
DAV:   7    -0.400227030981E+03   -0.66605E-05   -0.19696E-04 37560   0.788E-02    0.356E-02
DAV:   8    -0.400227030261E+03    0.71972E-06   -0.52559E-05 33588   0.426E-02
   9 F= -.40022703E+03 E0= -.40022213E+03  d E =-.582453E-02  mag=     1.9665
       N       E                     dE             d eps       ncg     rms          rms(c)
DAV:   1    -0.400186726914E+03    0.40304E-01   -0.22555E+00 45192   0.107E+01    0.543E-01
DAV:   2    -0.400232096090E+03   -0.45369E-01   -0.46458E-01 37488   0.147E+00    0.332E-01
DAV:   3    -0.400232339290E+03   -0.24320E-03   -0.98450E-03 37476   0.499E-01    0.270E-01
DAV:   4    -0.400232086247E+03    0.25304E-03   -0.21287E-03 37632   0.333E-01    0.195E-01
DAV:   5    -0.400232015336E+03    0.70911E-04   -0.10709E-03 39672   0.232E-01    0.155E-01
DAV:   6    -0.400231948753E+03    0.66583E-04   -0.91483E-04 38064   0.230E-01    0.649E-02
DAV:   7    -0.400231956599E+03   -0.78464E-05   -0.26781E-04 37284   0.907E-02    0.408E-02
DAV:   8    -0.400231955429E+03    0.11706E-05   -0.71578E-05 34284   0.548E-02
  10 F= -.40023196E+03 E0= -.40022700E+03  d E =-.492517E-02  mag=     1.9662
       N       E                     dE             d eps       ncg     rms          rms(c)
DAV:   1    -0.400216743022E+03    0.15214E-01   -0.66345E-01 45552   0.683E+00    0.344E-01
DAV:   2    -0.400234313603E+03   -0.17571E-01   -0.18029E-01 37452   0.917E-01    0.220E-01
DAV:   3    -0.400234497877E+03   -0.18427E-03   -0.45552E-03 37236   0.347E-01    0.182E-01
DAV:   4    -0.400234375933E+03    0.12194E-03   -0.98571E-04 38556   0.215E-01    0.125E-01
DAV:   5    -0.400234371012E+03    0.49209E-05   -0.33599E-04 39240   0.138E-01    0.101E-01
DAV:   6    -0.400234347955E+03    0.23058E-04   -0.36568E-04 37332   0.149E-01    0.470E-02
DAV:   7    -0.400234348070E+03   -0.11513E-06   -0.12638E-04 34296   0.602E-02    0.266E-02
DAV:   8    -0.400234347986E+03    0.83324E-07   -0.26428E-05 25668   0.363E-02
  11 F= -.40023435E+03 E0= -.40022948E+03  d E =-.239256E-02  mag=     1.9662
       N       E                     dE             d eps       ncg     rms          rms(c)
DAV:   1    -0.400231863137E+03    0.24849E-02   -0.15538E-01 45192   0.271E+00    0.139E-01
DAV:   2    -0.400234902131E+03   -0.30390E-02   -0.31124E-02 36720   0.369E-01    0.846E-02
DAV:   3    -0.400234927143E+03   -0.25012E-04   -0.75476E-04 36888   0.122E-01    0.680E-02
DAV:   4    -0.400234913745E+03    0.13398E-04   -0.14940E-04 38076   0.896E-02    0.524E-02
DAV:   5    -0.400234905320E+03    0.84250E-05   -0.69129E-05 34512   0.551E-02
  12 F= -.40023491E+03 E0= -.40023004E+03  d E =-.557334E-03  mag=     1.9660
       N       E                     dE             d eps       ncg     rms          rms(c)
DAV:   1    -0.400232581780E+03    0.23320E-02   -0.14593E-01 45504   0.267E+00    0.137E-01
DAV:   2    -0.400235458959E+03   -0.28772E-02   -0.29195E-02 37896   0.377E-01    0.986E-02
DAV:   3    -0.400235500692E+03   -0.41733E-04   -0.92525E-04 38184   0.180E-01    0.101E-01
DAV:   4    -0.400235458380E+03    0.42312E-04   -0.19811E-04 36276   0.104E-01    0.498E-02
DAV:   5    -0.400235457559E+03    0.82039E-06   -0.54817E-05 33744   0.499E-02
  13 F= -.40023546E+03 E0= -.40023060E+03  d E =-.552239E-03  mag=     1.9662
       N       E                     dE             d eps       ncg     rms          rms(c)
DAV:   1    -0.400220806549E+03    0.14652E-01   -0.72548E-01 45600   0.617E+00    0.317E-01
DAV:   2    -0.400236297603E+03   -0.15491E-01   -0.15692E-01 37488   0.863E-01    0.206E-01
DAV:   3    -0.400236496559E+03   -0.19896E-03   -0.41747E-03 38088   0.350E-01    0.204E-01
DAV:   4    -0.400236322848E+03    0.17371E-03   -0.90775E-04 38304   0.210E-01    0.109E-01
DAV:   5    -0.400236322147E+03    0.70142E-06   -0.25841E-04 41412   0.121E-01    0.857E-02
DAV:   6    -0.400236297914E+03    0.24233E-04   -0.27994E-04 37116   0.133E-01    0.498E-02
DAV:   7    -0.400236299012E+03   -0.10977E-05   -0.10639E-04 33708   0.630E-02    0.254E-02
DAV:   8    -0.400236300864E+03   -0.18523E-05   -0.28037E-05 24564   0.372E-02
  14 F= -.40023630E+03 E0= -.40023161E+03  d E =-.843305E-03  mag=     1.9670
       N       E                     dE             d eps       ncg     rms          rms(c)
DAV:   1    -0.400190965911E+03    0.45333E-01   -0.13225E+00 46524   0.115E+01    0.548E-01
DAV:   2    -0.400236165437E+03   -0.45200E-01   -0.46163E-01 37008   0.141E+00    0.306E-01
DAV:   3    -0.400236626341E+03   -0.46090E-03   -0.80975E-03 37824   0.383E-01    0.249E-01
DAV:   4    -0.400236530144E+03    0.96197E-04   -0.19897E-03 38496   0.297E-01    0.198E-01
DAV:   5    -0.400236511323E+03    0.18821E-04   -0.64958E-04 39276   0.202E-01    0.128E-01
DAV:   6    -0.400236473982E+03    0.37341E-04   -0.58203E-04 37632   0.197E-01    0.657E-02
DAV:   7    -0.400236470686E+03    0.32960E-05   -0.20505E-04 35784   0.844E-02    0.318E-02
DAV:   8    -0.400236471261E+03   -0.57535E-06   -0.34339E-05 28080   0.399E-02
  15 F= -.40023647E+03 E0= -.40023188E+03  d E =-.170397E-03  mag=     1.9684
       N       E                     dE             d eps       ncg     rms          rms(c)
DAV:   1    -0.400230209809E+03    0.62609E-02   -0.18779E-01 46272   0.433E+00    0.210E-01
DAV:   2    -0.400236787169E+03   -0.65774E-02   -0.67717E-02 36948   0.545E-01    0.129E-01
DAV:   3    -0.400236879915E+03   -0.92746E-04   -0.17427E-03 37512   0.202E-01    0.116E-01
DAV:   4    -0.400236833670E+03    0.46245E-04   -0.34502E-04 37896   0.130E-01    0.752E-02
DAV:   5    -0.400236835713E+03   -0.20427E-05   -0.11303E-04 35544   0.863E-02    0.606E-02
DAV:   6    -0.400236823383E+03    0.12330E-04   -0.12680E-04 36348   0.918E-02    0.294E-02
DAV:   7    -0.400236823636E+03   -0.25368E-06   -0.40031E-05 28008   0.385E-02
  16 F= -.40023682E+03 E0= -.40023223E+03  d E =-.352375E-03  mag=     1.9678
       N       E                     dE             d eps       ncg     rms          rms(c)
DAV:   1    -0.400235918728E+03    0.90465E-03   -0.31511E-02 46032   0.168E+00    0.824E-02
DAV:   2    -0.400236950462E+03   -0.10317E-02   -0.10604E-02 36252   0.212E-01    0.574E-02
DAV:   3    -0.400236973861E+03   -0.23399E-04   -0.39344E-04 36972   0.102E-01    0.582E-02
DAV:   4    -0.400236960552E+03    0.13309E-04   -0.82193E-05 32256   0.589E-02    0.296E-02
DAV:   5    -0.400236961036E+03   -0.48365E-06   -0.14363E-05 20748   0.297E-02
  17 F= -.40023696E+03 E0= -.40023238E+03  d E =-.137400E-03  mag=     1.9678
