       N       E                     dE             d eps       ncg     rms          rms(c)
DAV:   1     0.306947409951E+04    0.30695E+04   -0.25842E+05 73656   0.131E+03
DAV:   2    -0.608866227264E+03   -0.36783E+04   -0.35451E+04 89496   0.297E+02
DAV:   3    -0.871013681026E+03   -0.26215E+03   -0.26046E+03 89112   0.839E+01
DAV:   4    -0.874295602314E+03   -0.32819E+01   -0.32698E+01 89388   0.101E+01
DAV:   5    -0.874351317505E+03   -0.55715E-01   -0.55579E-01 90936   0.121E+00    0.992E+01
DAV:   6    -0.777844288543E+03    0.96507E+02   -0.40782E+02 83772   0.320E+01    0.509E+01
DAV:   7    -0.787288735460E+03   -0.94444E+01   -0.22669E+01 83352   0.776E+00    0.163E+01
DAV:   8    -0.791121055072E+03   -0.38323E+01   -0.15218E+00 87312   0.243E+00    0.796E+00
DAV:   9    -0.793310710697E+03   -0.21897E+01   -0.99109E-01 87720   0.171E+00    0.388E+00
DAV:  10    -0.793798513677E+03   -0.48780E+00   -0.26486E-01 85164   0.910E-01    0.112E+00
DAV:  11    -0.793875751684E+03   -0.77238E-01   -0.45931E-02 86136   0.380E-01    0.606E-01
DAV:  12    -0.793886090612E+03   -0.10339E-01   -0.50565E-03 86724   0.142E-01    0.288E-01
DAV:  13    -0.793888889367E+03   -0.27988E-02   -0.18478E-03 86124   0.808E-02    0.988E-02
DAV:  14    -0.793889381782E+03   -0.49242E-03   -0.33753E-04 85368   0.351E-02    0.429E-02
DAV:  15    -0.793889424870E+03   -0.43088E-04   -0.58049E-05 84984   0.188E-02    0.270E-02
DAV:  16    -0.793889443629E+03   -0.18759E-04   -0.19689E-05 67284   0.108E-02    0.114E-02
DAV:  17    -0.793889446567E+03   -0.29381E-05   -0.64714E-06 60972   0.774E-03
   1 F= -.79388945E+03 E0= -.79388945E+03  d E =-.793889E+03  mag=    -0.0019
       N       E                     dE             d eps       ncg     rms          rms(c)
DAV:   1    -0.793926417285E+03   -0.36974E-01   -0.15709E-02 77460   0.180E-01    0.614E-02
DAV:   2    -0.793926431294E+03   -0.14009E-04   -0.34494E-04 87960   0.223E-02    0.204E-02
DAV:   3    -0.793926421771E+03    0.95230E-05   -0.12224E-05 74664   0.787E-03    0.101E-02
DAV:   4    -0.793926419637E+03    0.21335E-05   -0.86184E-06 55752   0.456E-03
   2 F= -.79392642E+03 E0= -.79392642E+03  d E =-.369731E-01  mag=    -0.0002
       N       E                     dE             d eps       ncg     rms          rms(c)
DAV:   1    -0.794680652240E+03   -0.75423E+00   -0.10900E+01 73704   0.476E+00    0.163E+00
DAV:   2    -0.794692408079E+03   -0.11756E-01   -0.24056E-01 88704   0.590E-01    0.512E-01
DAV:   3    -0.794686499016E+03    0.59091E-02   -0.85638E-03 91272   0.199E-01    0.261E-01
DAV:   4    -0.794685348975E+03    0.11500E-02   -0.55387E-03 88692   0.118E-01    0.104E-01
DAV:   5    -0.794685320068E+03    0.28907E-04   -0.88917E-04 89844   0.550E-02    0.668E-02
DAV:   6    -0.794685299740E+03    0.20328E-04   -0.39437E-05 84108   0.179E-02    0.312E-02
DAV:   7    -0.794685283110E+03    0.16630E-04   -0.11886E-05 75168   0.128E-02    0.119E-02
DAV:   8    -0.794685276865E+03    0.62451E-05   -0.12367E-05 70764   0.146E-02
   3 F= -.79468528E+03 E0= -.79468528E+03  d E =-.758857E+00  mag=     0.0000
       N       E                     dE             d eps       ncg     rms          rms(c)
DAV:   1    -0.795302241002E+03   -0.61696E+00   -0.20307E+01 73440   0.692E+00    0.175E+00
DAV:   2    -0.795331501026E+03   -0.29260E-01   -0.48106E-01 88776   0.937E-01    0.705E-01
DAV:   3    -0.795321401289E+03    0.10100E-01   -0.15340E-02 91200   0.278E-01    0.375E-01
DAV:   4    -0.795318962900E+03    0.24384E-02   -0.95004E-03 89508   0.168E-01    0.138E-01
DAV:   5    -0.795318818194E+03    0.14471E-03   -0.17231E-03 91200   0.904E-02    0.775E-02
DAV:   6    -0.795318808552E+03    0.96422E-05   -0.17544E-04 89676   0.280E-02    0.509E-02
DAV:   7    -0.795318779329E+03    0.29224E-04   -0.32544E-05 87024   0.160E-02    0.227E-02
DAV:   8    -0.795318770254E+03    0.90749E-05   -0.12393E-05 70680   0.152E-02
   4 F= -.79531877E+03 E0= -.79531877E+03  d E =-.633493E+00  mag=     0.0000
       N       E                     dE             d eps       ncg     rms          rms(c)
DAV:   1    -0.795556009359E+03   -0.23723E+00   -0.92725E+00 73440   0.511E+00    0.999E-01
DAV:   2    -0.795576794063E+03   -0.20785E-01   -0.26667E-01 88872   0.786E-01    0.619E-01
DAV:   3    -0.795572222816E+03    0.45712E-02   -0.84323E-03 88260   0.217E-01    0.324E-01
DAV:   4    -0.795571049913E+03    0.11729E-02   -0.43760E-03 87732   0.119E-01    0.135E-01
DAV:   5    -0.795570923693E+03    0.12622E-03   -0.85058E-04 94380   0.754E-02    0.456E-02
DAV:   6    -0.795570933322E+03   -0.96290E-05   -0.23441E-04 87744   0.268E-02    0.320E-02
DAV:   7    -0.795570923275E+03    0.10047E-04   -0.21713E-05 75492   0.112E-02    0.158E-02
DAV:   8    -0.795570918838E+03    0.44376E-05   -0.56981E-06 62448   0.107E-02
   5 F= -.79557092E+03 E0= -.79557092E+03  d E =-.252149E+00  mag=     0.0000
       N       E                     dE             d eps       ncg     rms          rms(c)
DAV:   1    -0.795704436472E+03   -0.13351E+00   -0.18366E+01 73440   0.746E+00    0.159E+00
DAV:   2    -0.795738123654E+03   -0.33687E-01   -0.43830E-01 89424   0.100E+00    0.535E-01
DAV:   3    -0.795731922236E+03    0.62014E-02   -0.13419E-02 89808   0.277E-01    0.272E-01
DAV:   4    -0.795730566301E+03    0.13559E-02   -0.62357E-03 90504   0.149E-01    0.118E-01
DAV:   5    -0.795730462695E+03    0.10361E-03   -0.77939E-04 90072   0.648E-02    0.746E-02
DAV:   6    -0.795730456091E+03    0.66041E-05   -0.15619E-04 90132   0.279E-02    0.409E-02
DAV:   7    -0.795730441038E+03    0.15053E-04   -0.25665E-05 84972   0.161E-02    0.218E-02
DAV:   8    -0.795730435675E+03    0.53631E-05   -0.16403E-05 74904   0.128E-02
   6 F= -.79573044E+03 E0= -.79573044E+03  d E =-.159517E+00  mag=     0.0000
       N       E                     dE             d eps       ncg     rms          rms(c)
DAV:   1    -0.795744079613E+03   -0.13639E-01   -0.32753E+01 73440   0.100E+01    0.242E+00
DAV:   2    -0.795817042649E+03   -0.72963E-01   -0.86152E-01 89796   0.141E+00    0.803E-01
DAV:   3    -0.795806906950E+03    0.10136E-01   -0.22548E-02 90564   0.316E-01    0.428E-01
DAV:   4    -0.795803787041E+03    0.31199E-02   -0.85877E-03 89016   0.213E-01    0.190E-01
DAV:   5    -0.795803546300E+03    0.24074E-03   -0.24342E-03 89796   0.108E-01    0.992E-02
DAV:   6    -0.795803468516E+03    0.77784E-04   -0.47768E-04 89988   0.481E-02    0.553E-02
DAV:   7    -0.795803415267E+03    0.53249E-04   -0.55627E-05 90432   0.277E-02    0.235E-02
DAV:   8    -0.795803399871E+03    0.15396E-04   -0.45935E-05 86328   0.210E-02    0.825E-03
DAV:   9    -0.795803397136E+03    0.27350E-05   -0.17401E-05 68520   0.138E-02
   7 F= -.79580340E+03 E0= -.79580340E+03  d E =-.729615E-01  mag=    -0.0000
       N       E                     dE             d eps       ncg     rms          rms(c)
DAV:   1    -0.795822621950E+03   -0.19222E-01   -0.22182E+01 73440   0.843E+00    0.201E+00
DAV:   2    -0.795859959354E+03   -0.37337E-01   -0.56980E-01 89184   0.131E+00    0.846E-01
DAV:   3    -0.795850230400E+03    0.97290E-02   -0.18537E-02 91764   0.307E-01    0.420E-01
DAV:   4    -0.795846293139E+03    0.39373E-02   -0.81650E-03 88884   0.223E-01    0.132E-01
DAV:   5    -0.795845811766E+03    0.48137E-03   -0.22264E-03 94140   0.139E-01    0.843E-02
DAV:   6    -0.795845720426E+03    0.91340E-04   -0.73462E-04 89412   0.618E-02    0.608E-02
DAV:   7    -0.795845632736E+03    0.87690E-04   -0.86714E-05 89676   0.338E-02    0.294E-02
DAV:   8    -0.795845585447E+03    0.47289E-04   -0.81197E-05 89220   0.395E-02    0.132E-02
DAV:   9    -0.795845585967E+03   -0.51985E-06   -0.63493E-05 90576   0.170E-02
   8 F= -.79584559E+03 E0= -.79584559E+03  d E =-.421888E-01  mag=    -0.0000
       N       E                     dE             d eps       ncg     rms          rms(c)
DAV:   1    -0.795875858952E+03   -0.30274E-01   -0.69262E+00 73440   0.483E+00    0.144E+00
DAV:   2    -0.795891205462E+03   -0.15347E-01   -0.21267E-01 89652   0.789E-01    0.531E-01
DAV:   3    -0.795886294238E+03    0.49112E-02   -0.46529E-03 91368   0.193E-01    0.244E-01
DAV:   4    -0.795884509837E+03    0.17844E-02   -0.37442E-03 89652   0.181E-01    0.758E-02
DAV:   5    -0.795884421938E+03    0.87899E-04   -0.16057E-03 92076   0.103E-01    0.663E-02
DAV:   6    -0.795884386392E+03    0.35546E-04   -0.21173E-04 90444   0.277E-02    0.501E-02
DAV:   7    -0.795884348082E+03    0.38311E-04   -0.37450E-05 84276   0.127E-02    0.292E-02
DAV:   8    -0.795884311124E+03    0.36957E-04   -0.60034E-05 88620   0.289E-02    0.115E-02
DAV:   9    -0.795884309635E+03    0.14893E-05   -0.27047E-05 78492   0.146E-02
   9 F= -.79588431E+03 E0= -.79588431E+03  d E =-.387237E-01  mag=    -0.0000
       N       E                     dE             d eps       ncg     rms          rms(c)
DAV:   1    -0.795903890964E+03   -0.19580E-01   -0.13260E+00 73440   0.186E+00    0.570E-01
DAV:   2    -0.795906526012E+03   -0.26350E-02   -0.35253E-02 89580   0.276E-01    0.187E-01
DAV:   3    -0.795905854980E+03    0.67103E-03   -0.68217E-04 91560   0.631E-02    0.857E-02
DAV:   4    -0.795905652617E+03    0.20236E-03   -0.54891E-04 88668   0.538E-02    0.227E-02
DAV:   5    -0.795905651582E+03    0.10352E-05   -0.15119E-04 91428   0.265E-02    0.231E-02
DAV:   6    -0.795905646739E+03    0.48435E-05   -0.12131E-05 57828   0.744E-03
  10 F= -.79590565E+03 E0= -.79590565E+03  d E =-.213371E-01  mag=     0.0000
       N       E                     dE             d eps       ncg     rms          rms(c)
DAV:   1    -0.795918034542E+03   -0.12383E-01   -0.57724E+00 73440   0.414E+00    0.594E-01
DAV:   2    -0.795928857582E+03   -0.10823E-01   -0.12556E-01 86520   0.553E-01    0.243E-01
DAV:   3    -0.795927720169E+03    0.11374E-02   -0.15576E-03 90816   0.917E-02    0.140E-01
DAV:   4    -0.795927245607E+03    0.47456E-03   -0.17166E-03 88356   0.958E-02    0.413E-02
DAV:   5    -0.795927254804E+03   -0.91970E-05   -0.39737E-04 88596   0.405E-02    0.323E-02
DAV:   6    -0.795927246626E+03    0.81780E-05   -0.87188E-05 87576   0.189E-02
  11 F= -.79592725E+03 E0= -.79592725E+03  d E =-.215999E-01  mag=    -0.0000
       N       E                     dE             d eps       ncg     rms          rms(c)
DAV:   1    -0.795917509918E+03    0.97449E-02   -0.18057E+01 73440   0.764E+00    0.771E-01
DAV:   2    -0.795952171877E+03   -0.34662E-01   -0.38583E-01 86220   0.102E+00    0.411E-01
DAV:   3    -0.795949943718E+03    0.22282E-02   -0.44070E-03 91776   0.149E-01    0.259E-01
DAV:   4    -0.795948862472E+03    0.10812E-02   -0.44802E-03 88680   0.161E-01    0.867E-02
DAV:   5    -0.795948864112E+03   -0.16405E-05   -0.91080E-04 87048   0.654E-02    0.580E-02
DAV:   6    -0.795948865891E+03   -0.17787E-05   -0.33027E-04 87720   0.375E-02    0.279E-02
DAV:   7    -0.795948856214E+03    0.96770E-05   -0.37457E-05 81168   0.156E-02
  12 F= -.79594886E+03 E0= -.79594886E+03  d E =-.216096E-01  mag=    -0.0000
       N       E                     dE             d eps       ncg     rms          rms(c)
DAV:   1    -0.794891981278E+03    0.10569E+01   -0.10644E+02 73440   0.190E+01    0.697E+00
DAV:   2    -0.795148455248E+03   -0.25647E+00   -0.35379E+00 90024   0.323E+00    0.221E+00
DAV:   3    -0.795065624004E+03    0.82831E-01   -0.97250E-02 91200   0.841E-01    0.991E-01
DAV:   4    -0.795036664385E+03    0.28960E-01   -0.59801E-02 88488   0.698E-01    0.311E-01
DAV:   5    -0.795034288327E+03    0.23761E-02   -0.23756E-02 91224   0.413E-01    0.269E-01
DAV:   6    -0.795033582135E+03    0.70619E-03   -0.33849E-03 91440   0.118E-01    0.178E-01
DAV:   7    -0.795032868777E+03    0.71336E-03   -0.75071E-04 89808   0.593E-02    0.923E-02
DAV:   8    -0.795032346722E+03    0.52205E-03   -0.87466E-04 91044   0.117E-01    0.485E-02
DAV:   9    -0.795032343071E+03    0.36509E-05   -0.55019E-04 90336   0.534E-02    0.404E-02
DAV:  10    -0.795032342949E+03    0.12236E-06   -0.84652E-05 89748   0.181E-02
  13 F= -.79503234E+03 E0= -.79503234E+03  d E =0.916513E+00  mag=    -0.0000
       N       E                     dE             d eps       ncg     rms          rms(c)
DAV:   1    -0.795580748278E+03   -0.54841E+00   -0.78862E+00 73440   0.502E+00    0.221E+00
DAV:   2    -0.795600967069E+03   -0.20219E-01   -0.31833E-01 90120   0.935E-01    0.834E-01
DAV:   3    -0.795591123343E+03    0.98437E-02   -0.94899E-03 90000   0.275E-01    0.421E-01
DAV:   4    -0.795587506587E+03    0.36168E-02   -0.72027E-03 89400   0.264E-01    0.111E-01
DAV:   5    -0.795587368325E+03    0.13826E-03   -0.33914E-03 91524   0.142E-01    0.985E-02
DAV:   6    -0.795587289813E+03    0.78512E-04   -0.34119E-04 90996   0.351E-02    0.740E-02
DAV:   7    -0.795587207575E+03    0.82238E-04   -0.84687E-05 89460   0.177E-02    0.450E-02
DAV:   8    -0.795587129659E+03    0.77916E-04   -0.18620E-04 90996   0.447E-02    0.269E-02
DAV:   9    -0.795587129137E+03    0.52199E-06   -0.63646E-05 89364   0.158E-02
  14 F= -.79558713E+03 E0= -.79558713E+03  d E =-.554786E+00  mag=    -0.0000
       N       E                     dE             d eps       ncg     rms          rms(c)
DAV:   1    -0.795741888578E+03   -0.15476E+00   -0.13673E+00 75708   0.208E+00    0.893E-01
DAV:   2    -0.795745113157E+03   -0.32246E-02   -0.52580E-02 90072   0.389E-01    0.319E-01
DAV:   3    -0.795743407404E+03    0.17058E-02   -0.16220E-03 90780   0.116E-01    0.144E-01
DAV:   4    -0.795742813110E+03    0.59429E-03   -0.11595E-03 89292   0.106E-01    0.446E-02
DAV:   5    -0.795742770260E+03    0.42850E-04   -0.53962E-04 91344   0.619E-02    0.400E-02
DAV:   6    -0.795742759153E+03    0.11106E-04   -0.79235E-05 88692   0.169E-02    0.322E-02
DAV:   7    -0.795742747351E+03    0.11803E-04   -0.95354E-06 50424   0.603E-03    0.222E-02
DAV:   8    -0.795742731369E+03    0.15981E-04   -0.48511E-05 83688   0.194E-02    0.127E-02
DAV:   9    -0.795742730584E+03    0.78526E-06   -0.10846E-05 62496   0.771E-03
  15 F= -.79574273E+03 E0= -.79574273E+03  d E =-.155601E+00  mag=    -0.0000
       N       E                     dE             d eps       ncg     rms          rms(c)
DAV:   1    -0.795948476531E+03   -0.20575E+00   -0.10217E+01 75216   0.570E+00    0.240E+00
DAV:   2    -0.795972848057E+03   -0.24372E-01   -0.38707E-01 90192   0.105E+00    0.848E-01
DAV:   3    -0.795960851470E+03    0.11997E-01   -0.11086E-02 90768   0.297E-01    0.384E-01
DAV:   4    -0.795956528644E+03    0.43228E-02   -0.80297E-03 89244   0.283E-01    0.109E-01
DAV:   5    -0.795956251097E+03    0.27755E-03   -0.38534E-03 92256   0.165E-01    0.102E-01
DAV:   6    -0.795956176522E+03    0.74575E-04   -0.58267E-04 91056   0.454E-02    0.851E-02
DAV:   7    -0.795956101377E+03    0.75145E-04   -0.61795E-05 86484   0.150E-02    0.604E-02
DAV:   8    -0.795955980365E+03    0.12101E-03   -0.30684E-04 90840   0.510E-02    0.302E-02
DAV:   9    -0.795955978507E+03    0.18577E-05   -0.72177E-05 89640   0.192E-02
  16 F= -.79595598E+03 E0= -.79595598E+03  d E =-.213248E+00  mag=    -0.0000
       N       E                     dE             d eps       ncg     rms          rms(c)
DAV:   1    -0.795963362936E+03   -0.73826E-02   -0.29212E-01 74952   0.936E-01    0.391E-01
DAV:   2    -0.795964004130E+03   -0.64119E-03   -0.97393E-03 90408   0.163E-01    0.116E-01
DAV:   3    -0.795963760879E+03    0.24325E-03   -0.35310E-04 90852   0.469E-02    0.528E-02
DAV:   4    -0.795963683473E+03    0.77405E-04   -0.17626E-04 88704   0.354E-02    0.232E-02
DAV:   5    -0.795963676784E+03    0.66895E-05   -0.61290E-05 90888   0.208E-02
  17 F= -.79596368E+03 E0= -.79596368E+03  d E =-.769828E-02  mag=    -0.0000
       N       E                     dE             d eps       ncg     rms          rms(c)
DAV:   1    -0.795966907979E+03   -0.32245E-02   -0.10148E+00 73464   0.172E+00    0.675E-01
DAV:   2    -0.795968845346E+03   -0.19374E-02   -0.27691E-02 90312   0.265E-01    0.163E-01
DAV:   3    -0.795968345124E+03    0.50022E-03   -0.10534E-03 91632   0.741E-02    0.775E-02
DAV:   4    -0.795968235504E+03    0.10962E-03   -0.45599E-04 88908   0.451E-02    0.341E-02
DAV:   5    -0.795968229427E+03    0.60774E-05   -0.91964E-05 91248   0.234E-02
  18 F= -.79596823E+03 E0= -.79596823E+03  d E =-.455264E-02  mag=     0.0000
       N       E                     dE             d eps       ncg     rms          rms(c)
DAV:   1    -0.795970377253E+03   -0.21417E-02   -0.52120E-02 75792   0.417E-01    0.126E-01
DAV:   2    -0.795970496474E+03   -0.11922E-03   -0.16201E-03 89832   0.687E-02    0.489E-02
DAV:   3    -0.795970461578E+03    0.34896E-04   -0.39362E-05 85824   0.159E-02    0.214E-02
DAV:   4    -0.795970451301E+03    0.10278E-04   -0.25477E-05 73500   0.128E-02    0.585E-03
DAV:   5    -0.795970450841E+03    0.45992E-06   -0.84562E-06 50160   0.735E-03
  19 F= -.79597045E+03 E0= -.79597045E+03  d E =-.222141E-02  mag=    -0.0000
       N       E                     dE             d eps       ncg     rms          rms(c)
DAV:   1    -0.795973098854E+03   -0.26476E-02   -0.54528E-01 73608   0.133E+00    0.260E-01
DAV:   2    -0.795974080932E+03   -0.98208E-03   -0.12861E-02 89376   0.193E-01    0.103E-01
DAV:   3    -0.795973894765E+03    0.18617E-03   -0.24816E-04 92184   0.393E-02    0.534E-02
DAV:   4    -0.795973815436E+03    0.79329E-04   -0.19947E-04 88572   0.369E-02    0.158E-02
DAV:   5    -0.795973811527E+03    0.39092E-05   -0.62197E-05 91812   0.195E-02
  20 F= -.79597381E+03 E0= -.79597381E+03  d E =-.336069E-02  mag=    -0.0000
       N       E                     dE             d eps       ncg     rms          rms(c)
DAV:   1    -0.795975064459E+03   -0.12490E-02   -0.41122E-01 73440   0.114E+00    0.140E-01
DAV:   2    -0.795975802718E+03   -0.73826E-03   -0.87375E-03 88752   0.155E-01    0.649E-02
DAV:   3    -0.795975731243E+03    0.71475E-04   -0.11770E-04 92136   0.257E-02    0.390E-02
DAV:   4    -0.795975697489E+03    0.33753E-04   -0.11619E-04 87912   0.265E-02    0.124E-02
DAV:   5    -0.795975697054E+03    0.43514E-06   -0.27584E-05 70044   0.119E-02
  21 F= -.79597570E+03 E0= -.79597570E+03  d E =-.188553E-02  mag=    -0.0000
       N       E                     dE             d eps       ncg     rms          rms(c)
DAV:   1    -0.795972324412E+03    0.33731E-02   -0.20794E+00 73440   0.259E+00    0.530E-01
DAV:   2    -0.795976550429E+03   -0.42260E-02   -0.49424E-02 87984   0.367E-01    0.189E-01
DAV:   3    -0.795976004564E+03    0.54586E-03   -0.79188E-04 91464   0.671E-02    0.925E-02
DAV:   4    -0.795975844318E+03    0.16025E-03   -0.58200E-04 88056   0.538E-02    0.300E-02
DAV:   5    -0.795975843885E+03    0.43306E-06   -0.12111E-04 91632   0.242E-02    0.216E-02
DAV:   6    -0.795975842170E+03    0.17151E-05   -0.17726E-05 58848   0.834E-03
  22 F= -.79597584E+03 E0= -.79597584E+03  d E =-.145116E-03  mag=    -0.0000
       N       E                     dE             d eps       ncg     rms          rms(c)
DAV:   1    -0.795970869780E+03    0.49741E-02   -0.39213E+00 73440   0.361E+00    0.722E-01
DAV:   2    -0.795979233147E+03   -0.83634E-02   -0.97107E-02 88752   0.522E-01    0.286E-01
DAV:   3    -0.795978136852E+03    0.10963E-02   -0.15347E-03 91272   0.919E-02    0.140E-01
DAV:   4    -0.795977797600E+03    0.33925E-03   -0.11483E-03 88224   0.786E-02    0.416E-02
DAV:   5    -0.795977796121E+03    0.14786E-05   -0.26563E-04 91428   0.371E-02    0.318E-02
DAV:   6    -0.795977792119E+03    0.40019E-05   -0.40825E-05 80004   0.124E-02
  23 F= -.79597779E+03 E0= -.79597779E+03  d E =-.194995E-02  mag=     0.0000
       N       E                     dE             d eps       ncg     rms          rms(c)
DAV:   1    -0.795980655695E+03   -0.28596E-02   -0.62680E-01 73440   0.142E+00    0.414E-01
DAV:   2    -0.795981930009E+03   -0.12743E-02   -0.17389E-02 89640   0.224E-01    0.136E-01
DAV:   3    -0.795981596063E+03    0.33395E-03   -0.46206E-04 91428   0.517E-02    0.632E-02
DAV:   4    -0.795981500597E+03    0.95466E-04   -0.27523E-04 88416   0.370E-02    0.257E-02
DAV:   5    -0.795981497900E+03    0.26975E-05   -0.68119E-05 90108   0.190E-02
  24 F= -.79598150E+03 E0= -.79598150E+03  d E =-.370578E-02  mag=    -0.0000
       N       E                     dE             d eps       ncg     rms          rms(c)
DAV:   1    -0.795982967406E+03   -0.14668E-02   -0.38710E-01 73440   0.115E+00    0.233E-01
DAV:   2    -0.795983796007E+03   -0.82860E-03   -0.96557E-03 88968   0.169E-01    0.805E-02
DAV:   3    -0.795983685242E+03    0.11076E-03   -0.14727E-04 91968   0.304E-02    0.402E-02
DAV:   4    -0.795983647056E+03    0.38186E-04   -0.11272E-04 90408   0.269E-02    0.128E-02
DAV:   5    -0.795983646245E+03    0.81092E-06   -0.31648E-05 75768   0.145E-02
  25 F= -.79598365E+03 E0= -.79598365E+03  d E =-.214835E-02  mag=     0.0000
       N       E                     dE             d eps       ncg     rms          rms(c)
DAV:   1    -0.795978820253E+03    0.48268E-02   -0.36421E+00 73440   0.352E+00    0.396E-01
DAV:   2    -0.795985922096E+03   -0.71018E-02   -0.77739E-02 85908   0.477E-01    0.176E-01
DAV:   3    -0.795985506408E+03    0.41569E-03   -0.90950E-04 92052   0.670E-02    0.106E-01
DAV:   4    -0.795985328440E+03    0.17797E-03   -0.80058E-04 88992   0.692E-02    0.351E-02
DAV:   5    -0.795985330479E+03   -0.20385E-05   -0.16551E-04 87936   0.288E-02    0.274E-02
DAV:   6    -0.795985329862E+03    0.61686E-06   -0.53382E-05 80952   0.156E-02
  26 F= -.79598533E+03 E0= -.79598533E+03  d E =-.168362E-02  mag=     0.0000
       N       E                     dE             d eps       ncg     rms          rms(c)
DAV:   1    -0.795844502483E+03    0.14083E+00   -0.61320E+01 73440   0.145E+01    0.189E+00
DAV:   2    -0.795968003981E+03   -0.12350E+00   -0.13642E+00 86352   0.200E+00    0.778E-01
DAV:   3    -0.795959642949E+03    0.83610E-02   -0.16420E-02 91776   0.289E-01    0.455E-01
DAV:   4    -0.795955924460E+03    0.37185E-02   -0.14500E-02 88632   0.305E-01    0.145E-01
DAV:   5    -0.795955924104E+03    0.35617E-06   -0.34136E-03 90024   0.131E-01    0.109E-01
DAV:   6    -0.795955850602E+03    0.73502E-04   -0.94367E-04 87864   0.646E-02    0.528E-02
DAV:   7    -0.795955808716E+03    0.41885E-04   -0.55515E-05 87576   0.287E-02    0.298E-02
DAV:   8    -0.795955786081E+03    0.22635E-04   -0.42569E-05 85140   0.257E-02    0.967E-03
DAV:   9    -0.795955782954E+03    0.31265E-05   -0.21375E-05 67824   0.135E-02
  27 F= -.79595578E+03 E0= -.79595578E+03  d E =0.295469E-01  mag=    -0.0000
       N       E                     dE             d eps       ncg     rms          rms(c)
DAV:   1    -0.795957378484E+03   -0.15924E-02   -0.55301E+00 73440   0.438E+00    0.149E+00
DAV:   2    -0.795970958071E+03   -0.13580E-01   -0.18456E-01 90360   0.749E-01    0.504E-01
DAV:   3    -0.795966603636E+03    0.43544E-02   -0.40857E-03 91392   0.181E-01    0.219E-01
DAV:   4    -0.795965098385E+03    0.15053E-02   -0.30697E-03 89724   0.167E-01    0.667E-02
DAV:   5    -0.795965010940E+03    0.87446E-04   -0.13533E-03 93048   0.981E-02    0.629E-02
DAV:   6    -0.795964987764E+03    0.23176E-04   -0.21013E-04 90624   0.277E-02    0.483E-02
DAV:   7    -0.795964953000E+03    0.34764E-04   -0.33364E-05 82932   0.118E-02    0.303E-02
DAV:   8    -0.795964915021E+03    0.37980E-04   -0.73543E-05 89736   0.310E-02    0.149E-02
DAV:   9    -0.795964913692E+03    0.13286E-05   -0.31816E-05 83100   0.151E-02
  28 F= -.79596491E+03 E0= -.79596491E+03  d E =-.913074E-02  mag=     0.0000
       N       E                     dE             d eps       ncg     rms          rms(c)
DAV:   1    -0.795970738336E+03   -0.58233E-02   -0.92456E+00 73440   0.568E+00    0.106E+00
DAV:   2    -0.795990500193E+03   -0.19762E-01   -0.22536E-01 88368   0.826E-01    0.379E-01
DAV:   3    -0.795988397916E+03    0.21023E-02   -0.35078E-03 91872   0.145E-01    0.198E-01
DAV:   4    -0.795987629163E+03    0.76875E-03   -0.25883E-03 89328   0.132E-01    0.628E-02
DAV:   5    -0.795987614801E+03    0.14362E-04   -0.71745E-04 91704   0.653E-02    0.554E-02
DAV:   6    -0.795987596405E+03    0.18395E-04   -0.13527E-04 88368   0.251E-02    0.342E-02
DAV:   7    -0.795987576369E+03    0.20037E-04   -0.63861E-06 65748   0.170E-02    0.179E-02
DAV:   8    -0.795987564662E+03    0.11706E-04   -0.20815E-05 70068   0.195E-02    0.571E-03
DAV:   9    -0.795987563515E+03    0.11478E-05   -0.14048E-05 61344   0.117E-02
  29 F= -.79598756E+03 E0= -.79598756E+03  d E =-.226498E-01  mag=     0.0000
       N       E                     dE             d eps       ncg     rms          rms(c)
DAV:   1    -0.795987425760E+03    0.13890E-03   -0.19290E-01 73464   0.826E-01    0.220E-01
DAV:   2    -0.795987848507E+03   -0.42275E-03   -0.52674E-03 90516   0.127E-01    0.663E-02
DAV:   3    -0.795987781101E+03    0.67405E-04   -0.12780E-04 92400   0.267E-02    0.337E-02
DAV:   4    -0.795987760740E+03    0.20361E-04   -0.76594E-05 89784   0.202E-02    0.125E-02
DAV:   5    -0.795987759798E+03    0.94215E-06   -0.14457E-05 54816   0.977E-03
  30 F= -.79598776E+03 E0= -.79598776E+03  d E =-.196283E-03  mag=     0.0000
       N       E                     dE             d eps       ncg     rms          rms(c)
DAV:   1    -0.795988055746E+03   -0.29501E-03   -0.20857E-02 74568   0.271E-01    0.976E-02
DAV:   2    -0.795988116054E+03   -0.60308E-04   -0.80582E-04 90432   0.497E-02    0.361E-02
DAV:   3    -0.795988097317E+03    0.18737E-04   -0.18708E-05 68580   0.118E-02    0.150E-02
DAV:   4    -0.795988092221E+03    0.50951E-05   -0.13760E-05 61032   0.970E-03
  31 F= -.79598809E+03 E0= -.79598809E+03  d E =-.332423E-03  mag=    -0.0000
