       N       E                     dE             d eps       ncg     rms          ort
DAV:   1     0.287252541419E+04    0.28725E+04   -0.29188E+05  2880   0.140E+03
DAV:   2    -0.955641897058E+03   -0.38282E+04   -0.36916E+04  2880   0.312E+02
DAV:   3    -0.121995263271E+04   -0.26431E+03   -0.26262E+03  2880   0.860E+01
DAV:   4    -0.122310994502E+04   -0.31573E+01   -0.31465E+01  2880   0.997E+00
DAV:   5    -0.122316278082E+04   -0.52836E-01   -0.52726E-01  2880   0.119E+00
SDA:   6    -0.860570128521E+03    0.36259E+03   -0.52726E-01  2880   0.624E+03 0.000E+00
CGA:   7    -0.973804202633E+03   -0.11323E+03   -0.11302E+03  2880   0.438E+02-0.263E+01
CGA:   8    -0.986895501153E+03   -0.13091E+02   -0.13062E+02  2880   0.106E+02 0.240E+00
CGA:   9    -0.990761982314E+03   -0.38665E+01   -0.38679E+01  2880   0.404E+01-0.138E-01
CGA:  10    -0.992049394373E+03   -0.12874E+01   -0.12914E+01  2880   0.892E+00-0.342E-01
CGA:  11    -0.992387883877E+03   -0.33849E+00   -0.33863E+00  2880   0.195E+00-0.760E-03
CGA:  12    -0.992455160464E+03   -0.67277E-01   -0.67242E-01  2880   0.443E-01 0.256E-03
CGA:  13    -0.992471854055E+03   -0.16694E-01   -0.16822E-01  2880   0.103E-01-0.889E-03
CGA:  14    -0.992475700883E+03   -0.38468E-02   -0.37720E-02  2880   0.225E-02 0.546E-03
CGA:  15    -0.992476682282E+03   -0.98140E-03   -0.95070E-03  2880   0.561E-03 0.195E-03
CGA:  16    -0.992476969891E+03   -0.28761E-03   -0.39760E-03  2880   0.436E-03-0.277E-03
CGA:  17    -0.992477033693E+03   -0.63802E-04   -0.63761E-04  2880   0.186E-03 0.216E-05
CGA:  18    -0.992477066194E+03   -0.32501E-04   -0.36440E-04  2880   0.741E-04 0.496E-04
CGA:  19    -0.992477081263E+03   -0.15069E-04   -0.17902E-04  2880   0.396E-04 0.355E-04
CGA:  20    -0.992477092678E+03   -0.11415E-04   -0.12368E-04  2880   0.181E-04 0.172E-04
CGA:  21    -0.992477100752E+03   -0.80741E-05   -0.82033E-05  2880   0.924E-05-0.248E-05
   1 F= -.99247710E+03 E0= -.99247710E+03  d E =-.992477E+03  mag=    -0.0000
       N       E                     dE             d eps       ncg     rms          ort
SDA:   1    -0.992480484442E+03   -0.33918E-02    0.00000E+00  2880   0.302E-04 0.000E+00
CGA:   2    -0.992480492782E+03   -0.83399E-05   -0.83061E-05  2880   0.764E-05 0.350E-05
CGA:   3    -0.992480495592E+03   -0.28101E-05   -0.40175E-05  2880   0.760E-05-0.589E-05
CGA:   4    -0.992480496413E+03   -0.82066E-06   -0.10547E-05  2880   0.787E-06 0.170E-05
   2 F= -.99248050E+03 E0= -.99248050E+03  d E =-.339566E-02  mag=    -0.0000
       N       E                     dE             d eps       ncg     rms          ort
SDA:   1    -0.992543874094E+03   -0.63379E-01    0.00000E+00  2880   0.899E-02 0.000E+00
CGA:   2    -0.992546926992E+03   -0.30529E-02   -0.30487E-02  2880   0.223E-02 0.565E-04
CGA:   3    -0.992547515921E+03   -0.58893E-03   -0.58880E-03  2880   0.353E-03-0.260E-04
CGA:   4    -0.992547612527E+03   -0.96606E-04   -0.96621E-04  2880   0.615E-04-0.145E-05
CGA:   5    -0.992547631778E+03   -0.19251E-04   -0.19133E-04  2880   0.149E-04 0.262E-05
CGA:   6    -0.992547637821E+03   -0.60432E-05   -0.62130E-05  2880   0.570E-05-0.130E-05
   3 F= -.99254764E+03 E0= -.99254764E+03  d E =-.671414E-01  mag=    -0.0000
       N       E                     dE             d eps       ncg     rms          ort
SDA:   1    -0.992728351634E+03   -0.18072E+00    0.00000E+00  2880   0.122E+00 0.000E+00
CGA:   2    -0.992770026502E+03   -0.41675E-01   -0.41671E-01  2880   0.301E-01 0.976E-04
CGA:   3    -0.992777777144E+03   -0.77506E-02   -0.77486E-02  2880   0.454E-02-0.898E-04
CGA:   4    -0.992779038017E+03   -0.12609E-02   -0.12609E-02  2880   0.795E-03 0.875E-06
CGA:   5    -0.992779296128E+03   -0.25811E-03   -0.25769E-03  2880   0.201E-03 0.973E-05
CGA:   6    -0.992779371188E+03   -0.75061E-04   -0.75467E-04  2880   0.651E-04-0.465E-05
CGA:   7    -0.992779394901E+03   -0.23713E-04   -0.23560E-04  2880   0.154E-04 0.184E-05
CGA:   8    -0.992779401334E+03   -0.64329E-05   -0.66293E-05  2880   0.396E-05-0.153E-05
   4 F= -.99277940E+03 E0= -.99277940E+03  d E =-.231764E+00  mag=     0.0000
       N       E                     dE             d eps       ncg     rms          ort
SDA:   1    -0.992965093304E+03   -0.18570E+00    0.00000E+00  2880   0.680E+00 0.000E+00
CGA:   2    -0.993201584653E+03   -0.23649E+00   -0.23653E+00  2880   0.163E+00-0.607E-03
CGA:   3    -0.993242927974E+03   -0.41343E-01   -0.41342E-01  2880   0.237E-01-0.180E-03
CGA:   4    -0.993249511184E+03   -0.65832E-02   -0.65835E-02  2880   0.401E-02 0.150E-04
CGA:   5    -0.993250831110E+03   -0.13199E-02   -0.13195E-02  2880   0.986E-03 0.205E-04
CGA:   6    -0.993251197191E+03   -0.36608E-03   -0.36677E-03  2880   0.318E-03-0.111E-04
CGA:   7    -0.993251315712E+03   -0.11852E-03   -0.11811E-03  2880   0.782E-04 0.630E-05
CGA:   8    -0.993251347690E+03   -0.31979E-04   -0.32455E-04  2880   0.180E-04-0.513E-05
CGA:   9    -0.993251354233E+03   -0.65424E-05   -0.66992E-05  2880   0.392E-05-0.195E-05
   5 F= -.99325135E+03 E0= -.99325135E+03  d E =-.471953E+00  mag=    -0.0000
       N       E                     dE             d eps       ncg     rms          ort
SDA:   1    -0.993321745626E+03   -0.70398E-01    0.00000E+00  2880   0.887E+00 0.000E+00
CGA:   2    -0.993639749186E+03   -0.31800E+00   -0.31806E+00  2880   0.202E+00-0.952E-03
CGA:   3    -0.993689973081E+03   -0.50224E-01   -0.50229E-01  2880   0.284E-01-0.210E-03
CGA:   4    -0.993697727844E+03   -0.77548E-02   -0.77554E-02  2880   0.467E-02 0.241E-04
CGA:   5    -0.993699245786E+03   -0.15179E-02   -0.15178E-02  2880   0.107E-02 0.146E-04
CGA:   6    -0.993699650160E+03   -0.40437E-03   -0.40501E-03  2880   0.351E-03-0.106E-04
CGA:   7    -0.993699781522E+03   -0.13136E-03   -0.13099E-03  2880   0.907E-04 0.656E-05
CGA:   8    -0.993699818440E+03   -0.36919E-04   -0.37495E-04  2880   0.210E-04-0.695E-05
CGA:   9    -0.993699825530E+03   -0.70893E-05   -0.71208E-05  2880   0.376E-05-0.765E-06
   6 F= -.99369983E+03 E0= -.99369983E+03  d E =-.448471E+00  mag=    -0.0000
       N       E                     dE             d eps       ncg     rms          ort
SDA:   1    -0.993231055510E+03    0.46876E+00    0.00000E+00  2880   0.236E+01 0.000E+00
CGA:   2    -0.994118297412E+03   -0.88724E+00   -0.88737E+00  2880   0.486E+00-0.239E-02
CGA:   3    -0.994238591687E+03   -0.12029E+00   -0.12036E+00  2880   0.678E-01-0.178E-03
CGA:   4    -0.994256852486E+03   -0.18261E-01   -0.18264E-01  2880   0.112E-01 0.907E-04
CGA:   5    -0.994260440878E+03   -0.35884E-02   -0.35884E-02  2880   0.249E-02 0.459E-05
CGA:   6    -0.994261409241E+03   -0.96836E-03   -0.96890E-03  2880   0.816E-03-0.856E-05
CGA:   7    -0.994261727606E+03   -0.31836E-03   -0.31765E-03  2880   0.218E-03 0.112E-04
CGA:   8    -0.994261811996E+03   -0.84389E-04   -0.85075E-04  2880   0.453E-04-0.123E-04
CGA:   9    -0.994261826854E+03   -0.14858E-04   -0.14849E-04  2880   0.715E-05 0.648E-06
CGA:  10    -0.994261829593E+03   -0.27393E-05   -0.27359E-05  2880   0.153E-05 0.768E-07
   7 F= -.99426183E+03 E0= -.99426183E+03  d E =-.562004E+00  mag=    -0.0000
       N       E                     dE             d eps       ncg     rms          ort
SDA:   1    -0.991642891853E+03    0.26189E+01    0.00000E+00  2880   0.728E+01 0.000E+00
CGA:   2    -0.994428668717E+03   -0.27858E+01   -0.27859E+01  2880   0.144E+01-0.322E-02
CGA:   3    -0.994788148627E+03   -0.35948E+00   -0.35970E+00  2880   0.202E+00 0.338E-04
CGA:   4    -0.994843361583E+03   -0.55213E-01   -0.55221E-01  2880   0.346E-01 0.151E-03
CGA:   5    -0.994854460353E+03   -0.11099E-01   -0.11100E-01  2880   0.828E-02 0.403E-04
CGA:   6    -0.994857706041E+03   -0.32457E-02   -0.32460E-02  2880   0.276E-02-0.790E-05
CGA:   7    -0.994858793342E+03   -0.10873E-02   -0.10869E-02  2880   0.732E-03 0.642E-05
CGA:   8    -0.994859059167E+03   -0.26583E-03   -0.26612E-03  2880   0.129E-03-0.146E-04
CGA:   9    -0.994859106459E+03   -0.47292E-04   -0.47474E-04  2880   0.229E-04-0.557E-05
CGA:  10    -0.994859114381E+03   -0.79218E-05   -0.79123E-05  2880   0.419E-05 0.619E-06
   8 F= -.99485911E+03 E0= -.99485911E+03  d E =-.597285E+00  mag=    -0.0000
       N       E                     dE             d eps       ncg     rms          ort
SDA:   1    -0.991709285427E+03    0.31498E+01    0.00000E+00  2880   0.807E+01 0.000E+00
CGA:   2    -0.994698224927E+03   -0.29889E+01   -0.29890E+01  2880   0.164E+01-0.240E-02
CGA:   3    -0.995112448888E+03   -0.41422E+00   -0.41445E+00  2880   0.241E+00-0.103E-03
CGA:   4    -0.995176014607E+03   -0.63566E-01   -0.63556E-01  2880   0.375E-01-0.710E-04
CGA:   5    -0.995187863119E+03   -0.11849E-01   -0.11850E-01  2880   0.784E-02 0.400E-04
CGA:   6    -0.995190905954E+03   -0.30428E-02   -0.30417E-02  2880   0.253E-02 0.258E-04
CGA:   7    -0.995191938978E+03   -0.10330E-02   -0.10348E-02  2880   0.734E-03-0.289E-04
CGA:   8    -0.995192205822E+03   -0.26684E-03   -0.26707E-03  2880   0.136E-03-0.122E-04
CGA:   9    -0.995192255647E+03   -0.49826E-04   -0.49926E-04  2880   0.236E-04-0.443E-05
CGA:  10    -0.995192264857E+03   -0.92098E-05   -0.93105E-05  2880   0.542E-05-0.178E-05
   9 F= -.99519226E+03 E0= -.99519226E+03  d E =-.333150E+00  mag=    -0.0000
       N       E                     dE             d eps       ncg     rms          ort
SDA:   1    -0.981652036197E+03    0.13540E+02    0.00000E+00  2880   0.300E+02 0.000E+00
CGA:   2    -0.992524302697E+03   -0.10872E+02   -0.10873E+02  2880   0.645E+01-0.120E+00
CGA:   3    -0.994126943822E+03   -0.16026E+01   -0.16104E+01  2880   0.101E+01 0.978E-02
CGA:   4    -0.994420366698E+03   -0.29342E+00   -0.29334E+00  2880   0.185E+00 0.608E-04
CGA:   5    -0.994483581129E+03   -0.63214E-01   -0.63216E-01  2880   0.511E-01 0.128E-03
CGA:   6    -0.994502829664E+03   -0.19249E-01   -0.19245E-01  2880   0.163E-01 0.540E-04
CGA:   7    -0.994508998558E+03   -0.61689E-02   -0.61666E-02  2880   0.415E-02 0.829E-04
CGA:   8    -0.994510530893E+03   -0.15323E-02   -0.15334E-02  2880   0.877E-03-0.622E-04
CGA:   9    -0.994510838179E+03   -0.30729E-03   -0.30734E-03  2880   0.177E-03-0.114E-04
CGA:  10    -0.994510907658E+03   -0.69479E-04   -0.69717E-04  2880   0.366E-04-0.497E-05
CGA:  11    -0.994510922808E+03   -0.15149E-04   -0.15134E-04  2880   0.754E-05 0.210E-06
CGA:  12    -0.994510926488E+03   -0.36801E-05   -0.38718E-05  2880   0.224E-05-0.126E-05
  10 F= -.99451093E+03 E0= -.99451093E+03  d E =0.681338E+00  mag=    -0.0000
       N       E                     dE             d eps       ncg     rms          ort
SDA:   1    -0.989788584860E+03    0.47223E+01    0.00000E+00  2880   0.128E+02 0.000E+00
CGA:   2    -0.994238253443E+03   -0.44497E+01   -0.44502E+01  2880   0.338E+01 0.135E-01
CGA:   3    -0.995096672097E+03   -0.85842E+00   -0.85912E+00  2880   0.490E+00-0.311E-03
CGA:   4    -0.995248779041E+03   -0.15211E+00   -0.15213E+00  2880   0.915E-01 0.247E-03
CGA:   5    -0.995279774539E+03   -0.30995E-01   -0.30997E-01  2880   0.256E-01 0.960E-04
CGA:   6    -0.995289587345E+03   -0.98128E-02   -0.98146E-02  2880   0.777E-02-0.657E-04
CGA:   7    -0.995292538946E+03   -0.29516E-02   -0.29511E-02  2880   0.188E-02 0.218E-04
CGA:   8    -0.995293233825E+03   -0.69488E-03   -0.69517E-03  2880   0.376E-03-0.230E-04
CGA:   9    -0.995293364501E+03   -0.13068E-03   -0.13067E-03  2880   0.745E-04-0.763E-06
CGA:  10    -0.995293393509E+03   -0.29008E-04   -0.28976E-04  2880   0.133E-04 0.972E-06
CGA:  11    -0.995293400385E+03   -0.68761E-05   -0.77383E-05  2880   0.578E-05-0.404E-05
  11 F= -.99529340E+03 E0= -.99529340E+03  d E =-.782474E+00  mag=     0.0000
       N       E                     dE             d eps       ncg     rms          ort
SDA:   1    -0.995240705628E+03    0.52688E-01    0.00000E+00  2880   0.217E+00 0.000E+00
CGA:   2    -0.995315546148E+03   -0.74841E-01   -0.74847E-01  2880   0.519E-01 0.207E-03
CGA:   3    -0.995329568832E+03   -0.14023E-01   -0.14025E-01  2880   0.800E-02 0.478E-04
CGA:   4    -0.995331913802E+03   -0.23450E-02   -0.23367E-02  2880   0.137E-02-0.125E-03
CGA:   5    -0.995332369690E+03   -0.45589E-03   -0.45569E-03  2880   0.380E-03-0.111E-04
CGA:   6    -0.995332504467E+03   -0.13478E-03   -0.13471E-03  2880   0.105E-03 0.255E-04
CGA:   7    -0.995332555403E+03   -0.50936E-04   -0.52876E-04  2880   0.418E-04-0.165E-04
CGA:   8    -0.995332566610E+03   -0.11207E-04   -0.11228E-04  2880   0.704E-05 0.497E-06
CGA:   9    -0.995332568888E+03   -0.22780E-05   -0.22904E-05  2880   0.147E-05 0.335E-06
  12 F= -.99533257E+03 E0= -.99533257E+03  d E =-.391685E-01  mag=     0.0000
       N       E                     dE             d eps       ncg     rms          ort
SDA:   1    -0.994775842073E+03    0.55672E+00    0.00000E+00  2880   0.142E+01 0.000E+00
CGA:   2    -0.995262494176E+03   -0.48665E+00   -0.48866E+00  2880   0.332E+00-0.157E-02
CGA:   3    -0.995353907505E+03   -0.91413E-01   -0.91182E-01  2880   0.522E-01 0.858E-03
CGA:   4    -0.995368643540E+03   -0.14736E-01   -0.14701E-01  2880   0.883E-02-0.217E-03
CGA:   5    -0.995371588510E+03   -0.29450E-02   -0.29420E-02  2880   0.251E-02-0.159E-04
CGA:   6    -0.995372534582E+03   -0.94607E-03   -0.95516E-03  2880   0.772E-03 0.453E-04
CGA:   7    -0.995372861966E+03   -0.32738E-03   -0.32271E-03  2880   0.219E-03-0.285E-04
CGA:   8    -0.995372938148E+03   -0.76181E-04   -0.75677E-04  2880   0.363E-04-0.236E-05
CGA:   9    -0.995372950639E+03   -0.12491E-04   -0.12590E-04  2880   0.669E-05 0.483E-06
CGA:  10    -0.995372954101E+03   -0.34623E-05   -0.33666E-05  2880   0.237E-05-0.186E-05
  13 F= -.99537295E+03 E0= -.99537295E+03  d E =-.403852E-01  mag=    -0.0000
       N       E                     dE             d eps       ncg     rms          ort
SDA:   1    -0.995364884659E+03    0.80660E-02    0.00000E+00  2880   0.384E-01 0.000E+00
CGA:   2    -0.995379072425E+03   -0.14188E-01   -0.14190E-01  2880   0.738E-02 0.112E-04
CGA:   3    -0.995380966744E+03   -0.18943E-02   -0.18982E-02  2880   0.109E-02 0.152E-04
CGA:   4    -0.995381255407E+03   -0.28866E-03   -0.28563E-03  2880   0.163E-03-0.123E-04
CGA:   5    -0.995381307444E+03   -0.52037E-04   -0.51454E-04  2880   0.329E-04-0.330E-05
CGA:   6    -0.995381318121E+03   -0.10677E-04   -0.11143E-04  2880   0.890E-05 0.329E-05
CGA:   7    -0.995381323059E+03   -0.49382E-05   -0.49835E-05  2880   0.443E-05-0.157E-05
  14 F= -.99538132E+03 E0= -.99538132E+03  d E =-.836896E-02  mag=     0.0000
       N       E                     dE             d eps       ncg     rms          ort
SDA:   1    -0.993813644523E+03    0.15677E+01    0.00000E+00  2880   0.382E+01 0.000E+00
CGA:   2    -0.995229005179E+03   -0.14154E+01   -0.14157E+01  2880   0.726E+00 0.480E-03
CGA:   3    -0.995414482603E+03   -0.18548E+00   -0.18544E+00  2880   0.107E+00 0.318E-03
CGA:   4    -0.995442018499E+03   -0.27536E-01   -0.27523E-01  2880   0.155E-01-0.862E-04
CGA:   5    -0.995446899833E+03   -0.48813E-02   -0.48771E-02  2880   0.298E-02-0.330E-04
CGA:   6    -0.995448044409E+03   -0.11446E-02   -0.11463E-02  2880   0.963E-03 0.305E-04
CGA:   7    -0.995448454472E+03   -0.41006E-03   -0.40975E-03  2880   0.303E-03-0.175E-04
CGA:   8    -0.995448567475E+03   -0.11300E-03   -0.11257E-03  2880   0.549E-04-0.711E-05
CGA:   9    -0.995448587566E+03   -0.20092E-04   -0.19950E-04  2880   0.891E-05-0.222E-05
CGA:  10    -0.995448590630E+03   -0.30635E-05   -0.30702E-05  2880   0.153E-05 0.944E-07
  15 F= -.99544859E+03 E0= -.99544859E+03  d E =-.672676E-01  mag=     0.0000
       N       E                     dE             d eps       ncg     rms          ort
SDA:   1    -0.985304960737E+03    0.10144E+02    0.00000E+00  2880   0.239E+02 0.000E+00
CGA:   2    -0.993619810547E+03   -0.83148E+01   -0.83110E+01  2880   0.481E+01-0.398E-01
CGA:   3    -0.994931782148E+03   -0.13120E+01   -0.13189E+01  2880   0.785E+00-0.418E-02
CGA:   4    -0.995146802507E+03   -0.21502E+00   -0.21470E+00  2880   0.119E+00 0.138E-03
CGA:   5    -0.995187881833E+03   -0.41079E-01   -0.41070E-01  2880   0.318E-01-0.182E-03
CGA:   6    -0.995200532711E+03   -0.12651E-01   -0.12650E-01  2880   0.103E-01-0.173E-03
CGA:   7    -0.995204467570E+03   -0.39349E-02   -0.39375E-02  2880   0.250E-02 0.148E-03
CGA:   8    -0.995205418850E+03   -0.95128E-03   -0.95001E-03  2880   0.455E-03-0.475E-04
CGA:   9    -0.995205587492E+03   -0.16864E-03   -0.16854E-03  2880   0.840E-04-0.415E-05
CGA:  10    -0.995205618944E+03   -0.31452E-04   -0.31470E-04  2880   0.165E-04 0.857E-06
CGA:  11    -0.995205627623E+03   -0.86795E-05   -0.93614E-05  2880   0.675E-05-0.419E-05
  16 F= -.99520563E+03 E0= -.99520563E+03  d E =0.242963E+00  mag=     0.0000
       N       E                     dE             d eps       ncg     rms          ort
SDA:   1    -0.994895288304E+03    0.31033E+00    0.00000E+00  2880   0.119E+01 0.000E+00
CGA:   2    -0.995311997699E+03   -0.41671E+00   -0.41682E+00  2880   0.279E+00 0.118E-02
CGA:   3    -0.995386503879E+03   -0.74506E-01   -0.74465E-01  2880   0.439E-01-0.214E-04
CGA:   4    -0.995399385159E+03   -0.12881E-01   -0.12871E-01  2880   0.729E-02-0.124E-03
CGA:   5    -0.995401927016E+03   -0.25419E-02   -0.25421E-02  2880   0.207E-02 0.608E-05
CGA:   6    -0.995402717444E+03   -0.79043E-03   -0.79055E-03  2880   0.621E-03 0.337E-04
CGA:   7    -0.995402977688E+03   -0.26024E-03   -0.26113E-03  2880   0.173E-03-0.307E-04
CGA:   8    -0.995403036161E+03   -0.58473E-04   -0.58404E-04  2880   0.288E-04-0.223E-05
CGA:   9    -0.995403045782E+03   -0.96206E-05   -0.97016E-05  2880   0.507E-05 0.185E-05
  17 F= -.99540305E+03 E0= -.99540305E+03  d E =-.197418E+00  mag=    -0.0000
       N       E                     dE             d eps       ncg     rms          ort
SDA:   1    -0.995391953862E+03    0.11082E-01    0.00000E+00  2880   0.130E+00 0.000E+00
CGA:   2    -0.995436937576E+03   -0.44984E-01   -0.44993E-01  2880   0.293E-01 0.164E-03
CGA:   3    -0.995445037162E+03   -0.80996E-02   -0.80957E-02  2880   0.481E-02-0.217E-04
CGA:   4    -0.995446427302E+03   -0.13901E-02   -0.13830E-02  2880   0.794E-03-0.780E-04
CGA:   5    -0.995446699238E+03   -0.27194E-03   -0.27194E-03  2880   0.223E-03-0.297E-07
CGA:   6    -0.995446782110E+03   -0.82872E-04   -0.82929E-04  2880   0.619E-04 0.147E-04
CGA:   7    -0.995446814086E+03   -0.31976E-04   -0.34745E-04  2880   0.318E-04-0.182E-04
CGA:   8    -0.995446819913E+03   -0.58276E-05   -0.60374E-05  2880   0.682E-05 0.185E-05
  18 F= -.99544682E+03 E0= -.99544682E+03  d E =-.437741E-01  mag=     0.0000
       N       E                     dE             d eps       ncg     rms          ort
SDA:   1    -0.993762928449E+03    0.16839E+01    0.00000E+00  2880   0.426E+01 0.000E+00
CGA:   2    -0.995218254329E+03   -0.14553E+01   -0.14561E+01  2880   0.964E+00 0.145E-01
CGA:   3    -0.995492998850E+03   -0.27474E+00   -0.27450E+00  2880   0.165E+00-0.134E-03
CGA:   4    -0.995539123914E+03   -0.46125E-01   -0.46140E-01  2880   0.272E-01-0.126E-03
CGA:   5    -0.995548827949E+03   -0.97040E-02   -0.97042E-02  2880   0.828E-02 0.828E-04
CGA:   6    -0.995552147367E+03   -0.33194E-02   -0.33148E-02  2880   0.249E-02 0.110E-03
CGA:   7    -0.995553179095E+03   -0.10317E-02   -0.10373E-02  2880   0.661E-03-0.111E-03
CGA:   8    -0.995553398967E+03   -0.21987E-03   -0.21993E-03  2880   0.993E-04 0.405E-05
CGA:   9    -0.995553434866E+03   -0.35899E-04   -0.35909E-04  2880   0.185E-04 0.367E-05
CGA:  10    -0.995553444013E+03   -0.91473E-05   -0.11249E-04  2880   0.119E-04-0.935E-05
  19 F= -.99555344E+03 E0= -.99555344E+03  d E =-.106624E+00  mag=     0.0000
       N       E                     dE             d eps       ncg     rms          ort
SDA:   1    -0.995527776565E+03    0.25658E-01    0.00000E+00  2880   0.834E-01 0.000E+00
CGA:   2    -0.995556748526E+03   -0.28972E-01   -0.28975E-01  2880   0.181E-01 0.128E-03
CGA:   3    -0.995561787878E+03   -0.50394E-02   -0.50401E-02  2880   0.287E-02 0.170E-04
CGA:   4    -0.995562595036E+03   -0.80716E-03   -0.79921E-03  2880   0.479E-03-0.995E-04
CGA:   5    -0.995562744999E+03   -0.14996E-03   -0.15001E-03  2880   0.119E-03 0.150E-05
CGA:   6    -0.995562786793E+03   -0.41794E-04   -0.41852E-04  2880   0.330E-04 0.143E-04
CGA:   7    -0.995562805110E+03   -0.18317E-04   -0.23998E-04  2880   0.337E-04-0.191E-04
CGA:   8    -0.995562810235E+03   -0.51253E-05   -0.63922E-05  2880   0.296E-05 0.711E-05
  20 F= -.99556281E+03 E0= -.99556281E+03  d E =-.936622E-02  mag=     0.0000
       N       E                     dE             d eps       ncg     rms          ort
SDA:   1    -0.995339366497E+03    0.22344E+00    0.00000E+00  2880   0.572E+00 0.000E+00
CGA:   2    -0.995548410097E+03   -0.20904E+00   -0.20904E+00  2880   0.117E+00 0.411E-03
CGA:   3    -0.995578890112E+03   -0.30480E-01   -0.30471E-01  2880   0.173E-01 0.905E-05
CGA:   4    -0.995583512065E+03   -0.46220E-02   -0.46089E-02  2880   0.271E-02-0.163E-03
CGA:   5    -0.995584366902E+03   -0.85484E-03   -0.85487E-03  2880   0.588E-03 0.117E-05
CGA:   6    -0.995584585117E+03   -0.21821E-03   -0.21748E-03  2880   0.184E-03 0.278E-04
CGA:   7    -0.995584672698E+03   -0.87581E-04   -0.91288E-04  2880   0.773E-04-0.285E-04
CGA:   8    -0.995584692714E+03   -0.20016E-04   -0.20187E-04  2880   0.126E-04 0.408E-05
CGA:   9    -0.995584696660E+03   -0.39454E-05   -0.40098E-05  2880   0.278E-05 0.138E-05
  21 F= -.99558470E+03 E0= -.99558470E+03  d E =-.218864E-01  mag=    -0.0000
       N       E                     dE             d eps       ncg     rms          ort
SDA:   1    -0.995328554865E+03    0.25614E+00    0.00000E+00  2880   0.657E+00 0.000E+00
CGA:   2    -0.995573652953E+03   -0.24510E+00   -0.24510E+00  2880   0.121E+00-0.560E-04
CGA:   3    -0.995604836153E+03   -0.31183E-01   -0.31182E-01  2880   0.175E-01 0.943E-05
CGA:   4    -0.995609290748E+03   -0.44546E-02   -0.44525E-02  2880   0.260E-02-0.192E-04
CGA:   5    -0.995610079814E+03   -0.78907E-03   -0.78916E-03  2880   0.456E-03 0.148E-05
CGA:   6    -0.995610257654E+03   -0.17784E-03   -0.17782E-03  2880   0.150E-03 0.118E-05
CGA:   7    -0.995610319865E+03   -0.62211E-04   -0.62284E-04  2880   0.475E-04-0.166E-05
CGA:   8    -0.995610336949E+03   -0.17084E-04   -0.17096E-04  2880   0.804E-05 0.129E-05
CGA:   9    -0.995610340453E+03   -0.35042E-05   -0.35997E-05  2880   0.194E-05-0.151E-05
  22 F= -.99561034E+03 E0= -.99561034E+03  d E =-.256438E-01  mag=     0.0000
       N       E                     dE             d eps       ncg     rms          ort
SDA:   1    -0.986794797551E+03    0.88155E+01    0.00000E+00  2880   0.205E+02 0.000E+00
CGA:   2    -0.993920671273E+03   -0.71259E+01   -0.71245E+01  2880   0.424E+01-0.408E-01
CGA:   3    -0.995061197691E+03   -0.11405E+01   -0.11439E+01  2880   0.667E+00 0.430E-02
CGA:   4    -0.995245496432E+03   -0.18430E+00   -0.18425E+00  2880   0.107E+00 0.778E-03
CGA:   5    -0.995281694159E+03   -0.36198E-01   -0.36198E-01  2880   0.272E-01-0.515E-04
CGA:   6    -0.995292570826E+03   -0.10877E-01   -0.10885E-01  2880   0.885E-02-0.203E-03
CGA:   7    -0.995295932151E+03   -0.33613E-02   -0.33587E-02  2880   0.220E-02 0.136E-03
CGA:   8    -0.995296770896E+03   -0.83875E-03   -0.83926E-03  2880   0.414E-03-0.432E-04
CGA:   9    -0.995296917269E+03   -0.14637E-03   -0.14639E-03  2880   0.756E-04 0.478E-05
CGA:  10    -0.995296948760E+03   -0.31490E-04   -0.31880E-04  2880   0.180E-04-0.731E-05
CGA:  11    -0.995296955288E+03   -0.65283E-05   -0.65203E-05  2880   0.352E-05 0.228E-06
  23 F= -.99529696E+03 E0= -.99529696E+03  d E =0.313385E+00  mag=    -0.0000
       N       E                     dE             d eps       ncg     rms          ort
SDA:   1    -0.993279672127E+03    0.20173E+01    0.00000E+00  2880   0.554E+01 0.000E+00
CGA:   2    -0.995236670172E+03   -0.19570E+01   -0.19573E+01  2880   0.138E+01 0.913E-02
CGA:   3    -0.995593594133E+03   -0.35692E+00   -0.35674E+00  2880   0.205E+00 0.118E-03
CGA:   4    -0.995655334391E+03   -0.61740E-01   -0.61729E-01  2880   0.361E-01-0.327E-03
CGA:   5    -0.995667521618E+03   -0.12187E-01   -0.12189E-01  2880   0.100E-01 0.822E-04
CGA:   6    -0.995671320313E+03   -0.37987E-02   -0.37974E-02  2880   0.305E-02 0.625E-04
CGA:   7    -0.995672522189E+03   -0.12019E-02   -0.12038E-02  2880   0.805E-03-0.559E-04
CGA:   8    -0.995672803355E+03   -0.28117E-03   -0.28117E-03  2880   0.146E-03 0.103E-05
CGA:   9    -0.995672858423E+03   -0.55068E-04   -0.55205E-04  2880   0.312E-04-0.786E-05
CGA:  10    -0.995672869265E+03   -0.10842E-04   -0.10840E-04  2880   0.541E-05 0.405E-06
CGA:  11    -0.995672871958E+03   -0.26929E-05   -0.29119E-05  2880   0.204E-05-0.129E-05
  24 F= -.99567287E+03 E0= -.99567287E+03  d E =-.375917E+00  mag=     0.0000
       N       E                     dE             d eps       ncg     rms          ort
SDA:   1    -0.995623964124E+03    0.48905E-01    0.00000E+00  2880   0.163E+00 0.000E+00
CGA:   2    -0.995679153039E+03   -0.55189E-01   -0.55198E-01  2880   0.369E-01 0.262E-03
CGA:   3    -0.995689715982E+03   -0.10563E-01   -0.10562E-01  2880   0.596E-02 0.141E-04
CGA:   4    -0.995691435827E+03   -0.17198E-02   -0.17077E-02  2880   0.100E-02-0.171E-03
CGA:   5    -0.995691762066E+03   -0.32624E-03   -0.32634E-03  2880   0.276E-03 0.501E-05
CGA:   6    -0.995691862282E+03   -0.10022E-03   -0.10004E-03  2880   0.762E-04 0.248E-04
CGA:   7    -0.995691903177E+03   -0.40895E-04   -0.47544E-04  2880   0.519E-04-0.304E-04
CGA:   8    -0.995691909884E+03   -0.67075E-05   -0.71922E-05  2880   0.162E-04 0.361E-05
  25 F= -.99569191E+03 E0= -.99569191E+03  d E =-.190379E-01  mag=    -0.0000
       N       E                     dE             d eps       ncg     rms          ort
SDA:   1    -0.994865318189E+03    0.82658E+00    0.00000E+00  2880   0.205E+01 0.000E+00
CGA:   2    -0.995555591291E+03   -0.69027E+00   -0.69041E+00  2880   0.450E+00 0.541E-02
CGA:   3    -0.995688752221E+03   -0.13316E+00   -0.13309E+00  2880   0.745E-01-0.184E-03
CGA:   4    -0.995709269399E+03   -0.20517E-01   -0.20491E-01  2880   0.121E-01-0.470E-03
CGA:   5    -0.995713409950E+03   -0.41406E-02   -0.41405E-02  2880   0.366E-02 0.463E-04
CGA:   6    -0.995714854153E+03   -0.14442E-02   -0.14392E-02  2880   0.112E-02 0.101E-03
CGA:   7    -0.995715341426E+03   -0.48727E-03   -0.49614E-03  2880   0.345E-03-0.103E-03
CGA:   8    -0.995715443181E+03   -0.10176E-03   -0.10206E-03  2880   0.480E-04 0.131E-04
CGA:   9    -0.995715460528E+03   -0.17347E-04   -0.17346E-04  2880   0.973E-05 0.251E-05
CGA:  10    -0.995715454992E+03    0.55358E-05   -0.12129E-04  2880   0.527E-04-0.211E-04
CGA:  11    -0.995715464287E+03   -0.92949E-05   -0.11515E-04  2880   0.639E-05 0.130E-04
  26 F= -.99571546E+03 E0= -.99571546E+03  d E =-.235544E-01  mag=     0.0000
       N       E                     dE             d eps       ncg     rms          ort
SDA:   1    -0.995608793070E+03    0.10666E+00    0.00000E+00  2880   0.266E+00 0.000E+00
CGA:   2    -0.995698088318E+03   -0.89295E-01   -0.89269E-01  2880   0.584E-01-0.499E-03
CGA:   3    -0.995714960181E+03   -0.16872E-01   -0.16874E-01  2880   0.961E-02-0.309E-04
CGA:   4    -0.995717564000E+03   -0.26038E-02   -0.26240E-02  2880   0.140E-02 0.218E-03
CGA:   5    -0.995718066490E+03   -0.50249E-03   -0.50251E-03  2880   0.430E-03 0.135E-05
CGA:   6    -0.995718247084E+03   -0.18059E-03   -0.18264E-03  2880   0.159E-03-0.329E-04
CGA:   7    -0.995718290363E+03   -0.43279E-04   -0.44730E-04  2880   0.320E-04 0.242E-04
CGA:   8    -0.995718301685E+03   -0.11322E-04   -0.11605E-04  2880   0.724E-05 0.590E-05
CGA:   9    -0.995718305470E+03   -0.37846E-05   -0.46929E-05  2880   0.613E-05-0.485E-05
  27 F= -.99571831E+03 E0= -.99571831E+03  d E =-.284118E-02  mag=     0.0000
       N       E                     dE             d eps       ncg     rms          ort
SDA:   1    -0.995711543804E+03    0.67579E-02    0.00000E+00  2880   0.230E-01 0.000E+00
CGA:   2    -0.995719488845E+03   -0.79450E-02   -0.79462E-02  2880   0.481E-02 0.867E-04
CGA:   3    -0.995720847695E+03   -0.13588E-02   -0.13585E-02  2880   0.770E-03-0.373E-05
CGA:   4    -0.995721070976E+03   -0.22328E-03   -0.21889E-03  2880   0.144E-03-0.637E-04
CGA:   5    -0.995721109630E+03   -0.38654E-04   -0.38915E-04  2880   0.301E-04 0.473E-05
CGA:   6    -0.995721118255E+03   -0.86247E-05   -0.90775E-05  2880   0.830E-05 0.819E-05
  28 F= -.99572112E+03 E0= -.99572112E+03  d E =-.281278E-02  mag=    -0.0000
       N       E                     dE             d eps       ncg     rms          ort
SDA:   1    -0.995708023209E+03    0.13086E-01    0.00000E+00  2880   0.439E-01 0.000E+00
CGA:   2    -0.995724088970E+03   -0.16066E-01   -0.16066E-01  2880   0.843E-02 0.793E-04
CGA:   3    -0.995726332378E+03   -0.22434E-02   -0.22410E-02  2880   0.118E-02-0.219E-04
CGA:   4    -0.995726647269E+03   -0.31489E-03   -0.31084E-03  2880   0.200E-03-0.406E-04
CGA:   5    -0.995726703146E+03   -0.55876E-04   -0.56210E-04  2880   0.341E-04 0.495E-05
CGA:   6    -0.995726715177E+03   -0.12031E-04   -0.12074E-04  2880   0.995E-05 0.459E-05
CGA:   7    -0.995726719113E+03   -0.39361E-05   -0.99236E-05  2880   0.247E-04-0.114E-04
  29 F= -.99572672E+03 E0= -.99572672E+03  d E =-.560086E-02  mag=    -0.0000
       N       E                     dE             d eps       ncg     rms          ort
SDA:   1    -0.995616698386E+03    0.11002E+00    0.00000E+00  2880   0.290E+00 0.000E+00
CGA:   2    -0.995724398089E+03   -0.10770E+00   -0.10770E+00  2880   0.552E-01 0.432E-04
CGA:   3    -0.995738490685E+03   -0.14093E-01   -0.14087E-01  2880   0.795E-02-0.423E-04
CGA:   4    -0.995740508046E+03   -0.20174E-02   -0.20135E-02  2880   0.120E-02-0.351E-04
CGA:   5    -0.995740868118E+03   -0.36007E-03   -0.36054E-03  2880   0.202E-03 0.807E-05
CGA:   6    -0.995740947715E+03   -0.79597E-04   -0.79572E-04  2880   0.675E-04 0.755E-06
CGA:   7    -0.995740976947E+03   -0.29232E-04   -0.29623E-04  2880   0.240E-04-0.496E-05
CGA:   8    -0.995740984078E+03   -0.71310E-05   -0.72158E-05  2880   0.374E-05 0.222E-05
  30 F= -.99574098E+03 E0= -.99574098E+03  d E =-.142650E-01  mag=     0.0000
       N       E                     dE             d eps       ncg     rms          ort
SDA:   1    -0.991898000881E+03    0.38430E+01    0.00000E+00  2880   0.918E+01 0.000E+00
CGA:   2    -0.995271291326E+03   -0.33733E+01   -0.33733E+01  2880   0.176E+01 0.255E-02
CGA:   3    -0.995722363796E+03   -0.45107E+00   -0.45119E+00  2880   0.254E+00 0.793E-03
CGA:   4    -0.995786863129E+03   -0.64499E-01   -0.64526E-01  2880   0.396E-01 0.116E-03
CGA:   5    -0.995799055829E+03   -0.12193E-01   -0.12196E-01  2880   0.725E-02 0.533E-04
CGA:   6    -0.995801976377E+03   -0.29205E-02   -0.29207E-02  2880   0.252E-02-0.509E-05
CGA:   7    -0.995803004557E+03   -0.10282E-02   -0.10291E-02  2880   0.765E-03-0.169E-04
CGA:   8    -0.995803286160E+03   -0.28160E-03   -0.28161E-03  2880   0.131E-03-0.193E-06
CGA:   9    -0.995803336830E+03   -0.50670E-04   -0.50977E-04  2880   0.231E-04-0.984E-05
CGA:  10    -0.995803344797E+03   -0.79671E-05   -0.79811E-05  2880   0.411E-05-0.107E-05
  31 F= -.99580334E+03 E0= -.99580334E+03  d E =-.623607E-01  mag=     0.0000
       N       E                     dE             d eps       ncg     rms          ort
SDA:   1    -0.994165004573E+03    0.16383E+01    0.00000E+00  2880   0.369E+01 0.000E+00
CGA:   2    -0.995490925478E+03   -0.13259E+01   -0.13259E+01  2880   0.812E+00-0.750E-02
CGA:   3    -0.995703304498E+03   -0.21238E+00   -0.21263E+00  2880   0.118E+00-0.488E-04
CGA:   4    -0.995736277274E+03   -0.32973E-01   -0.33004E-01  2880   0.187E-01 0.504E-03
CGA:   5    -0.995742553412E+03   -0.62761E-02   -0.62763E-02  2880   0.463E-02 0.714E-05
CGA:   6    -0.995744393898E+03   -0.18405E-02   -0.18453E-02  2880   0.154E-02-0.104E-03
CGA:   7    -0.995744954631E+03   -0.56073E-03   -0.55965E-03  2880   0.368E-03 0.632E-04
CGA:   8    -0.995745100418E+03   -0.14579E-03   -0.14591E-03  2880   0.716E-04-0.473E-05
CGA:   9    -0.995745125560E+03   -0.25143E-04   -0.25144E-04  2880   0.129E-04 0.190E-05
CGA:  10    -0.995745130940E+03   -0.53797E-05   -0.54578E-05  2880   0.316E-05-0.143E-05
  32 F= -.99574513E+03 E0= -.99574513E+03  d E =0.582139E-01  mag=    -0.0000
       N       E                     dE             d eps       ncg     rms          ort
SDA:   1    -0.994757067235E+03    0.98806E+00    0.00000E+00  2880   0.247E+01 0.000E+00
CGA:   2    -0.995608616496E+03   -0.85155E+00   -0.85169E+00  2880   0.617E+00 0.344E-02
CGA:   3    -0.995770271526E+03   -0.16166E+00   -0.16159E+00  2880   0.954E-01 0.145E-03
CGA:   4    -0.995799172619E+03   -0.28901E-01   -0.28887E-01  2880   0.164E-01-0.303E-03
CGA:   5    -0.995804686293E+03   -0.55137E-02   -0.55134E-02  2880   0.454E-02-0.177E-04
CGA:   6    -0.995806372998E+03   -0.16867E-02   -0.16853E-02  2880   0.131E-02 0.827E-04
CGA:   7    -0.995806910522E+03   -0.53752E-03   -0.53937E-03  2880   0.362E-03-0.394E-04
CGA:   8    -0.995807035658E+03   -0.12514E-03   -0.12513E-03  2880   0.653E-04-0.967E-06
CGA:   9    -0.995807059542E+03   -0.23884E-04   -0.23889E-04  2880   0.132E-04-0.626E-06
CGA:  10    -0.995807065063E+03   -0.55210E-05   -0.56189E-05  2880   0.309E-05-0.141E-05
  33 F= -.99580707E+03 E0= -.99580707E+03  d E =-.619341E-01  mag=     0.0000
       N       E                     dE             d eps       ncg     rms          ort
SDA:   1    -0.995765832450E+03    0.41227E-01    0.00000E+00  2880   0.915E-01 0.000E+00
CGA:   2    -0.995795923992E+03   -0.30092E-01   -0.30097E-01  2880   0.199E-01 0.146E-03
CGA:   3    -0.995801687719E+03   -0.57637E-02   -0.57658E-02  2880   0.344E-02 0.386E-04
CGA:   4    -0.995802683878E+03   -0.99616E-03   -0.98731E-03  2880   0.562E-03-0.130E-03
CGA:   5    -0.995802861639E+03   -0.17776E-03   -0.17769E-03  2880   0.151E-03-0.318E-05
CGA:   6    -0.995802912693E+03   -0.51054E-04   -0.51245E-04  2880   0.389E-04 0.209E-04
CGA:   7    -0.995802934829E+03   -0.22136E-04   -0.27612E-04  2880   0.353E-04-0.200E-04
CGA:   8    -0.995802940583E+03   -0.57545E-05   -0.69452E-05  2880   0.299E-05 0.713E-05
  34 F= -.99580294E+03 E0= -.99580294E+03  d E =0.412448E-02  mag=     0.0000
       N       E                     dE             d eps       ncg     rms          ort
SDA:   1    -0.995644025437E+03    0.15891E+00    0.00000E+00  2880   0.408E+00 0.000E+00
CGA:   2    -0.995795610353E+03   -0.15158E+00   -0.15158E+00  2880   0.913E-01 0.355E-03
CGA:   3    -0.995818585877E+03   -0.22976E-01   -0.22961E-01  2880   0.135E-01-0.120E-03
CGA:   4    -0.995822507151E+03   -0.39213E-02   -0.39172E-02  2880   0.226E-02-0.725E-04
CGA:   5    -0.995823245823E+03   -0.73867E-03   -0.73895E-03  2880   0.569E-03 0.171E-04
CGA:   6    -0.995823459686E+03   -0.21386E-03   -0.21353E-03  2880   0.176E-03 0.116E-04
CGA:   7    -0.995823535191E+03   -0.75505E-04   -0.76894E-04  2880   0.567E-04-0.165E-04
CGA:   8    -0.995823553373E+03   -0.18181E-04   -0.18192E-04  2880   0.988E-05-0.194E-05
CGA:   9    -0.995823556013E+03   -0.26406E-05   -0.27465E-05  2880   0.176E-05 0.172E-05
  35 F= -.99582356E+03 E0= -.99582356E+03  d E =-.206154E-01  mag=     0.0000
       N       E                     dE             d eps       ncg     rms          ort
SDA:   1    -0.995760996862E+03    0.62557E-01    0.00000E+00  2880   0.148E+00 0.000E+00
CGA:   2    -0.995811363536E+03   -0.50367E-01   -0.50362E-01  2880   0.319E-01-0.258E-03
CGA:   3    -0.995820250178E+03   -0.88866E-02   -0.88843E-02  2880   0.523E-02-0.502E-04
CGA:   4    -0.995821580454E+03   -0.13303E-02   -0.13441E-02  2880   0.735E-03 0.150E-03
CGA:   5    -0.995821830277E+03   -0.24982E-03   -0.25000E-03  2880   0.195E-03 0.128E-04
CGA:   6    -0.995821917685E+03   -0.87407E-04   -0.90920E-04  2880   0.899E-04-0.308E-04
CGA:   7    -0.995821936473E+03   -0.18788E-04   -0.20238E-04  2880   0.216E-04 0.176E-04
CGA:   8    -0.995821941531E+03   -0.50585E-05   -0.59176E-05  2880   0.632E-05 0.737E-05
  36 F= -.99582194E+03 E0= -.99582194E+03  d E =0.161448E-02  mag=    -0.0000
       N       E                     dE             d eps       ncg     rms          ort
SDA:   1    -0.995817974276E+03    0.39622E-02    0.00000E+00  2880   0.947E-02 0.000E+00
CGA:   2    -0.995821518298E+03   -0.35440E-02   -0.35432E-02  2880   0.211E-02 0.270E-04
CGA:   3    -0.995822043095E+03   -0.52480E-03   -0.52323E-03  2880   0.305E-03-0.165E-04
CGA:   4    -0.995822130488E+03   -0.87393E-04   -0.87388E-04  2880   0.507E-04-0.110E-06
CGA:   5    -0.995822146357E+03   -0.15869E-04   -0.15908E-04  2880   0.118E-04 0.172E-05
CGA:   6    -0.995822151229E+03   -0.48719E-05   -0.49133E-05  2880   0.442E-05-0.603E-06
  37 F= -.99582215E+03 E0= -.99582215E+03  d E =-.209698E-03  mag=    -0.0000
       N       E                     dE             d eps       ncg     rms          ort
SDA:   1    -0.995800045419E+03    0.22101E-01    0.00000E+00  2880   0.602E-01 0.000E+00
CGA:   2    -0.995821592820E+03   -0.21547E-01   -0.21547E-01  2880   0.133E-01 0.284E-04
CGA:   3    -0.995824883142E+03   -0.32903E-02   -0.32921E-02  2880   0.195E-02 0.210E-04
CGA:   4    -0.995825407575E+03   -0.52443E-03   -0.52172E-03  2880   0.302E-03-0.384E-04
CGA:   5    -0.995825500901E+03   -0.93326E-04   -0.93269E-04  2880   0.583E-04-0.304E-05
CGA:   6    -0.995825519952E+03   -0.19051E-04   -0.19070E-04  2880   0.159E-04 0.664E-05
CGA:   7    -0.995825528538E+03   -0.85863E-05   -0.95576E-05  2880   0.101E-04-0.469E-05
  38 F= -.99582553E+03 E0= -.99582553E+03  d E =-.337731E-02  mag=     0.0000
       N       E                     dE             d eps       ncg     rms          ort
SDA:   1    -0.995824699070E+03    0.82088E-03    0.00000E+00  2880   0.113E-02 0.000E+00
CGA:   2    -0.995825108843E+03   -0.40977E-03   -0.40997E-03  2880   0.252E-03-0.778E-05
CGA:   3    -0.995825172308E+03   -0.63465E-04   -0.63033E-04  2880   0.402E-04-0.489E-05
CGA:   4    -0.995825180114E+03   -0.78057E-05   -0.86726E-05  2880   0.526E-05 0.744E-05
  39 F= -.99582518E+03 E0= -.99582518E+03  d E =0.348425E-03  mag=    -0.0000
       N       E                     dE             d eps       ncg     rms          ort
SDA:   1    -0.995824686133E+03    0.48618E-03    0.00000E+00  2880   0.254E-02 0.000E+00
CGA:   2    -0.995825619705E+03   -0.93357E-03   -0.93344E-03  2880   0.529E-03 0.346E-05
CGA:   3    -0.995825748939E+03   -0.12923E-03   -0.12933E-03  2880   0.746E-04 0.118E-05
CGA:   4    -0.995825768932E+03   -0.19993E-04   -0.19824E-04  2880   0.117E-04-0.292E-05
CGA:   5    -0.995825772200E+03   -0.32678E-05   -0.32743E-05  2880   0.176E-05 0.231E-06
  40 F= -.99582577E+03 E0= -.99582577E+03  d E =-.592086E-03  mag=     0.0000
       N       E                     dE             d eps       ncg     rms          ort
SDA:   1    -0.995785479726E+03    0.40289E-01    0.00000E+00  2880   0.102E+00 0.000E+00
CGA:   2    -0.995823224744E+03   -0.37745E-01   -0.37745E-01  2880   0.206E-01 0.176E-04
CGA:   3    -0.995828334435E+03   -0.51097E-02   -0.51089E-02  2880   0.292E-02-0.117E-04
CGA:   4    -0.995829077380E+03   -0.74295E-03   -0.74239E-03  2880   0.434E-03-0.868E-05
CGA:   5    -0.995829208904E+03   -0.13152E-03   -0.13154E-03  2880   0.734E-04 0.189E-05
CGA:   6    -0.995829237119E+03   -0.28215E-04   -0.28201E-04  2880   0.242E-04 0.194E-06
CGA:   7    -0.995829247407E+03   -0.10289E-04   -0.10430E-04  2880   0.819E-05-0.125E-05
CGA:   8    -0.995829250087E+03   -0.26794E-05   -0.26680E-05  2880   0.130E-05 0.546E-06
  41 F= -.99582925E+03 E0= -.99582925E+03  d E =-.347789E-02  mag=    -0.0000
       N       E                     dE             d eps       ncg     rms          ort
SDA:   1    -0.995657338260E+03    0.17191E+00    0.00000E+00  2880   0.416E+00 0.000E+00
CGA:   2    -0.995811482518E+03   -0.15414E+00   -0.15414E+00  2880   0.853E-01 0.259E-04
CGA:   3    -0.995832640106E+03   -0.21158E-01   -0.21155E-01  2880   0.121E-01-0.306E-04
CGA:   4    -0.995835713001E+03   -0.30729E-02   -0.30708E-02  2880   0.180E-02-0.296E-04
CGA:   5    -0.995836261725E+03   -0.54872E-03   -0.54881E-03  2880   0.308E-03 0.528E-05
CGA:   6    -0.995836379338E+03   -0.11761E-03   -0.11748E-03  2880   0.100E-03 0.220E-05
CGA:   7    -0.995836422227E+03   -0.42889E-04   -0.43429E-04  2880   0.342E-04-0.512E-05
CGA:   8    -0.995836433627E+03   -0.11400E-04   -0.11367E-04  2880   0.560E-05 0.164E-05
CGA:   9    -0.995836435967E+03   -0.23401E-05   -0.23824E-05  2880   0.122E-05-0.559E-06
  42 F= -.99583644E+03 E0= -.99583644E+03  d E =-.718588E-02  mag=     0.0000
       N       E                     dE             d eps       ncg     rms          ort
SDA:   1    -0.990871089978E+03    0.49653E+01    0.00000E+00  2880   0.116E+02 0.000E+00
CGA:   2    -0.995171123866E+03   -0.43000E+01   -0.42998E+01  2880   0.232E+01 0.315E-02
CGA:   3    -0.995750571822E+03   -0.57945E+00   -0.57983E+00  2880   0.327E+00 0.993E-03
CGA:   4    -0.995834956003E+03   -0.84384E-01   -0.84400E-01  2880   0.528E-01 0.176E-03
CGA:   5    -0.995851485875E+03   -0.16530E-01   -0.16532E-01  2880   0.102E-01 0.886E-04
CGA:   6    -0.995855589607E+03   -0.41037E-02   -0.41048E-02  2880   0.358E-02-0.169E-04
CGA:   7    -0.995857038086E+03   -0.14485E-02   -0.14501E-02  2880   0.104E-02-0.220E-04
CGA:   8    -0.995857423644E+03   -0.38556E-03   -0.38594E-03  2880   0.179E-03-0.101E-04
CGA:   9    -0.995857489505E+03   -0.65861E-04   -0.65993E-04  2880   0.290E-04-0.383E-05
CGA:  10    -0.995857501358E+03   -0.11853E-04   -0.12345E-04  2880   0.778E-05-0.512E-05
CGA:  11    -0.995857503587E+03   -0.22294E-05   -0.22268E-05  2880   0.154E-05 0.747E-06
  43 F= -.99585750E+03 E0= -.99585750E+03  d E =-.210676E-01  mag=    -0.0000
       N       E                     dE             d eps       ncg     rms          ort
SDA:   1    -0.995602685644E+03    0.25482E+00    0.00000E+00  2880   0.594E+00 0.000E+00
CGA:   2    -0.995824717811E+03   -0.22203E+00   -0.22204E+00  2880   0.129E+00-0.310E-03
CGA:   3    -0.995856364887E+03   -0.31647E-01   -0.31655E-01  2880   0.187E-01 0.124E-03
CGA:   4    -0.995861532535E+03   -0.51676E-02   -0.51687E-02  2880   0.308E-02 0.142E-04
CGA:   5    -0.995862528960E+03   -0.99642E-03   -0.99625E-03  2880   0.700E-03-0.116E-04
CGA:   6    -0.995862792789E+03   -0.26383E-03   -0.26366E-03  2880   0.229E-03 0.427E-05
CGA:   7    -0.995862880861E+03   -0.88072E-04   -0.88004E-04  2880   0.619E-04 0.163E-05
CGA:   8    -0.995862903668E+03   -0.22807E-04   -0.22764E-04  2880   0.112E-04 0.183E-05
CGA:   9    -0.995862908770E+03   -0.51021E-05   -0.57236E-05  2880   0.510E-05-0.407E-05
  44 F= -.99586291E+03 E0= -.99586291E+03  d E =-.540518E-02  mag=    -0.0000
       N       E                     dE             d eps       ncg     rms          ort
SDA:   1    -0.995831980403E+03    0.30923E-01    0.00000E+00  2880   0.676E-01 0.000E+00
CGA:   2    -0.995857635483E+03   -0.25655E-01   -0.25657E-01  2880   0.140E-01-0.558E-04
CGA:   3    -0.995861045477E+03   -0.34100E-02   -0.34124E-02  2880   0.194E-02 0.244E-04
CGA:   4    -0.995861561792E+03   -0.51632E-03   -0.51593E-03  2880   0.309E-03-0.510E-05
CGA:   5    -0.995861659434E+03   -0.97641E-04   -0.97511E-04  2880   0.620E-04-0.664E-05
CGA:   6    -0.995861680189E+03   -0.20756E-04   -0.20722E-04  2880   0.174E-04 0.522E-05
CGA:   7    -0.995861688786E+03   -0.85968E-05   -0.88722E-05  2880   0.759E-05-0.206E-05
  45 F= -.99586169E+03 E0= -.99586169E+03  d E =0.121998E-02  mag=    -0.0000
       N       E                     dE             d eps       ncg     rms          ort
SDA:   1    -0.995838202756E+03    0.23477E-01    0.00000E+00  2880   0.591E-01 0.000E+00
CGA:   2    -0.995860338609E+03   -0.22136E-01   -0.22135E-01  2880   0.119E-01 0.444E-04
CGA:   3    -0.995863292615E+03   -0.29540E-02   -0.29513E-02  2880   0.171E-02-0.285E-04
CGA:   4    -0.995863729165E+03   -0.43655E-03   -0.43568E-03  2880   0.258E-03-0.103E-04
CGA:   5    -0.995863805917E+03   -0.76751E-04   -0.76895E-04  2880   0.435E-04 0.397E-05
CGA:   6    -0.995863823062E+03   -0.17145E-04   -0.17146E-04  2880   0.148E-04-0.118E-07
CGA:   7    -0.995863829611E+03   -0.65483E-05   -0.67849E-05  2880   0.581E-05-0.195E-05
  46 F= -.99586383E+03 E0= -.99586383E+03  d E =-.214082E-02  mag=    -0.0000
       N       E                     dE             d eps       ncg     rms          ort
SDA:   1    -0.993490325725E+03    0.23735E+01    0.00000E+00  2880   0.551E+01 0.000E+00
CGA:   2    -0.995553734526E+03   -0.20634E+01   -0.20633E+01  2880   0.112E+01 0.135E-02
CGA:   3    -0.995829263750E+03   -0.27553E+00   -0.27558E+00  2880   0.159E+00-0.427E-04
CGA:   4    -0.995870065289E+03   -0.40802E-01   -0.40804E-01  2880   0.245E-01 0.173E-04
CGA:   5    -0.995877646046E+03   -0.75808E-02   -0.75820E-02  2880   0.447E-02 0.489E-04
CGA:   6    -0.995879400765E+03   -0.17547E-02   -0.17553E-02  2880   0.154E-02-0.100E-04
CGA:   7    -0.995880029137E+03   -0.62837E-03   -0.62939E-03  2880   0.463E-03-0.141E-04
CGA:   8    -0.995880201534E+03   -0.17240E-03   -0.17242E-03  2880   0.810E-04-0.475E-06
CGA:   9    -0.995880232297E+03   -0.30764E-04   -0.30923E-04  2880   0.137E-04-0.395E-05
CGA:  10    -0.995880237405E+03   -0.51075E-05   -0.51770E-05  2880   0.282E-05-0.133E-05
  47 F= -.99588024E+03 E0= -.99588024E+03  d E =-.164078E-01  mag=    -0.0000
       N       E                     dE             d eps       ncg     rms          ort
SDA:   1    -0.989103336432E+03    0.67769E+01    0.00000E+00  2880   0.159E+02 0.000E+00
CGA:   2    -0.994922321130E+03   -0.58190E+01   -0.58185E+01  2880   0.325E+01 0.132E-01
CGA:   3    -0.995729548213E+03   -0.80723E+00   -0.80808E+00  2880   0.476E+00 0.210E-02
CGA:   4    -0.995852191677E+03   -0.12264E+00   -0.12268E+00  2880   0.745E-01 0.361E-03
CGA:   5    -0.995875808767E+03   -0.23617E-01   -0.23621E-01  2880   0.147E-01 0.126E-03
CGA:   6    -0.995881762150E+03   -0.59534E-02   -0.59543E-02  2880   0.519E-02-0.209E-04
CGA:   7    -0.995883844783E+03   -0.20826E-02   -0.20837E-02  2880   0.150E-02-0.189E-04
CGA:   8    -0.995884401728E+03   -0.55694E-03   -0.55725E-03  2880   0.261E-03-0.121E-04
CGA:   9    -0.995884498151E+03   -0.96423E-04   -0.96599E-04  2880   0.444E-04-0.708E-05
CGA:  10    -0.995884515552E+03   -0.17401E-04   -0.17709E-04  2880   0.105E-04-0.510E-05
CGA:  11    -0.995884518974E+03   -0.34226E-05   -0.34111E-05  2880   0.206E-05 0.808E-06
  48 F= -.99588452E+03 E0= -.99588452E+03  d E =-.428157E-02  mag=     0.0000
       N       E                     dE             d eps       ncg     rms          ort
SDA:   1    -0.988294863736E+03    0.75897E+01    0.00000E+00  2880   0.177E+02 0.000E+00
CGA:   2    -0.994801172916E+03   -0.65063E+01   -0.65058E+01  2880   0.366E+01 0.278E-01
CGA:   3    -0.995699023985E+03   -0.89785E+00   -0.89820E+00  2880   0.549E+00 0.247E-02
CGA:   4    -0.995839741502E+03   -0.14072E+00   -0.14077E+00  2880   0.847E-01 0.512E-03
CGA:   5    -0.995866664701E+03   -0.26923E-01   -0.26925E-01  2880   0.171E-01 0.661E-05
CGA:   6    -0.995873373081E+03   -0.67084E-02   -0.67055E-02  2880   0.608E-02 0.597E-04
CGA:   7    -0.995875802113E+03   -0.24290E-02   -0.24305E-02  2880   0.181E-02-0.345E-04
CGA:   8    -0.995876483125E+03   -0.68101E-03   -0.68173E-03  2880   0.327E-03-0.263E-04
CGA:   9    -0.995876602462E+03   -0.11934E-03   -0.11953E-03  2880   0.574E-04-0.105E-04
CGA:  10    -0.995876622862E+03   -0.20400E-04   -0.20413E-04  2880   0.103E-04-0.930E-06
CGA:  11    -0.995876627776E+03   -0.49144E-05   -0.52451E-05  2880   0.375E-05-0.200E-05
  49 F= -.99587663E+03 E0= -.99587663E+03  d E =0.789120E-02  mag=     0.0000
       N       E                     dE             d eps       ncg     rms          ort
SDA:   1    -0.993867254034E+03    0.20094E+01    0.00000E+00  2880   0.461E+01 0.000E+00
CGA:   2    -0.995553641169E+03   -0.16864E+01   -0.16864E+01  2880   0.975E+00-0.138E-02
CGA:   3    -0.995792817092E+03   -0.23918E+00   -0.23929E+00  2880   0.143E+00 0.172E-03
CGA:   4    -0.995829836470E+03   -0.37019E-01   -0.37040E-01  2880   0.212E-01 0.225E-03
CGA:   5    -0.995836534589E+03   -0.66981E-02   -0.66966E-02  2880   0.406E-02-0.419E-04
CGA:   6    -0.995838087634E+03   -0.15530E-02   -0.15532E-02  2880   0.135E-02-0.322E-05
CGA:   7    -0.995838617729E+03   -0.53010E-03   -0.52946E-03  2880   0.399E-03 0.154E-04
CGA:   8    -0.995838776057E+03   -0.15833E-03   -0.15872E-03  2880   0.786E-04-0.937E-05
CGA:   9    -0.995838804058E+03   -0.28001E-04   -0.28012E-04  2880   0.133E-04-0.992E-06
CGA:  10    -0.995838809021E+03   -0.49634E-05   -0.49787E-05  2880   0.249E-05-0.604E-06
  50 F= -.99583881E+03 E0= -.99583881E+03  d E =0.378188E-01  mag=     0.0000
       N       E                     dE             d eps       ncg     rms          ort
SDA:   1    -0.993960765647E+03    0.18780E+01    0.00000E+00  2880   0.448E+01 0.000E+00
CGA:   2    -0.995599635550E+03   -0.16389E+01   -0.16388E+01  2880   0.941E+00 0.239E-02
CGA:   3    -0.995832606809E+03   -0.23297E+00   -0.23293E+00  2880   0.137E+00-0.193E-03
CGA:   4    -0.995868107924E+03   -0.35501E-01   -0.35495E-01  2880   0.208E-01-0.760E-04
CGA:   5    -0.995874624591E+03   -0.65167E-02   -0.65186E-02  2880   0.396E-02 0.552E-04
CGA:   6    -0.995876177838E+03   -0.15532E-02   -0.15533E-02  2880   0.136E-02-0.117E-05
CGA:   7    -0.995876724704E+03   -0.54687E-03   -0.54813E-03  2880   0.418E-03-0.222E-04
CGA:   8    -0.995876877803E+03   -0.15310E-03   -0.15312E-03  2880   0.737E-04-0.828E-06
CGA:   9    -0.995876905624E+03   -0.27821E-04   -0.27903E-04  2880   0.135E-04-0.295E-05
CGA:  10    -0.995876910612E+03   -0.49878E-05   -0.50278E-05  2880   0.268E-05-0.111E-05
  51 F= -.99587691E+03 E0= -.99587691E+03  d E =-.381016E-01  mag=    -0.0000
       N       E                     dE             d eps       ncg     rms          ort
SDA:   1    -0.995875855712E+03    0.10499E-02    0.00000E+00  2880   0.191E-02 0.000E+00
CGA:   2    -0.995876585530E+03   -0.72982E-03   -0.72998E-03  2880   0.379E-03-0.821E-05
CGA:   3    -0.995876676312E+03   -0.90782E-04   -0.90978E-04  2880   0.542E-04 0.157E-05
CGA:   4    -0.995876689713E+03   -0.13401E-04   -0.13628E-04  2880   0.749E-05 0.211E-05
CGA:   5    -0.995876692250E+03   -0.25373E-05   -0.25315E-05  2880   0.151E-05-0.214E-06
  52 F= -.99587669E+03 E0= -.99587669E+03  d E =0.218362E-03  mag=    -0.0000
       N       E                     dE             d eps       ncg     rms          ort
SDA:   1    -0.995860208415E+03    0.16481E-01    0.00000E+00  2880   0.369E-01 0.000E+00
CGA:   2    -0.995874382715E+03   -0.14174E-01   -0.14175E-01  2880   0.726E-02-0.205E-04
CGA:   3    -0.995876119991E+03   -0.17373E-02   -0.17371E-02  2880   0.105E-02-0.252E-05
CGA:   4    -0.995876389899E+03   -0.26991E-03   -0.27041E-03  2880   0.151E-03 0.543E-05
CGA:   5    -0.995876436250E+03   -0.46351E-04   -0.46362E-04  2880   0.265E-04 0.279E-06
CGA:   6    -0.995876446643E+03   -0.10393E-04   -0.10441E-04  2880   0.940E-05-0.963E-06
CGA:   7    -0.995876450066E+03   -0.34228E-05   -0.34095E-05  2880   0.250E-05 0.435E-06
  53 F= -.99587645E+03 E0= -.99587645E+03  d E =0.242184E-03  mag=    -0.0000
       N       E                     dE             d eps       ncg     rms          ort
SDA:   1    -0.995805844602E+03    0.70602E-01    0.00000E+00  2880   0.158E+00 0.000E+00
CGA:   2    -0.995866151844E+03   -0.60307E-01   -0.60310E-01  2880   0.307E-01-0.797E-04
CGA:   3    -0.995873518123E+03   -0.73663E-02   -0.73677E-02  2880   0.449E-02 0.125E-04
CGA:   4    -0.995874678077E+03   -0.11600E-02   -0.11599E-02  2880   0.640E-03-0.558E-06
CGA:   5    -0.995874874152E+03   -0.19608E-03   -0.19597E-03  2880   0.112E-03-0.286E-05
CGA:   6    -0.995874915132E+03   -0.40979E-04   -0.40902E-04  2880   0.350E-04 0.265E-05
CGA:   7    -0.995874930614E+03   -0.15482E-04   -0.15703E-04  2880   0.127E-04-0.226E-05
CGA:   8    -0.995874934848E+03   -0.42341E-05   -0.42288E-05  2880   0.211E-05 0.490E-06
  54 F= -.99587493E+03 E0= -.99587493E+03  d E =0.151522E-02  mag=    -0.0000
       N       E                     dE             d eps       ncg     rms          ort
SDA:   1    -0.995022510477E+03    0.85242E+00    0.00000E+00  2880   0.193E+01 0.000E+00
CGA:   2    -0.995762628395E+03   -0.74012E+00   -0.74014E+00  2880   0.376E+00-0.535E-03
CGA:   3    -0.995852516041E+03   -0.89888E-01   -0.89890E-01  2880   0.548E-01-0.283E-04
CGA:   4    -0.995866697848E+03   -0.14182E-01   -0.14185E-01  2880   0.782E-02 0.363E-04
CGA:   5    -0.995869080667E+03   -0.23828E-02   -0.23824E-02  2880   0.135E-02-0.104E-04
CGA:   6    -0.995869589808E+03   -0.50914E-03   -0.50895E-03  2880   0.444E-03 0.511E-05
CGA:   7    -0.995869773188E+03   -0.18338E-03   -0.18377E-03  2880   0.141E-03-0.541E-05
CGA:   8    -0.995869828126E+03   -0.54938E-04   -0.55091E-04  2880   0.266E-04-0.296E-05
CGA:   9    -0.995869837530E+03   -0.94039E-05   -0.94098E-05  2880   0.412E-05-0.421E-06
  55 F= -.99586984E+03 E0= -.99586984E+03  d E =0.509732E-02  mag=    -0.0000
       N       E                     dE             d eps       ncg     rms          ort
SDA:   1    -0.995765473432E+03    0.10435E+00    0.00000E+00  2880   0.242E+00 0.000E+00
CGA:   2    -0.995857233315E+03   -0.91760E-01   -0.91761E-01  2880   0.496E-01-0.422E-04
CGA:   3    -0.995869122597E+03   -0.11889E-01   -0.11889E-01  2880   0.721E-02-0.926E-05
CGA:   4    -0.995870999241E+03   -0.18766E-02   -0.18769E-02  2880   0.105E-02 0.251E-05
CGA:   5    -0.995871323204E+03   -0.32396E-03   -0.32406E-03  2880   0.192E-03 0.296E-05
CGA:   6    -0.995871396757E+03   -0.73552E-04   -0.73643E-04  2880   0.657E-04-0.220E-05
CGA:   7    -0.995871421975E+03   -0.25218E-04   -0.25147E-04  2880   0.186E-04 0.163E-05
CGA:   8    -0.995871429354E+03   -0.73796E-05   -0.73655E-05  2880   0.353E-05 0.351E-06
  56 F= -.99587143E+03 E0= -.99587143E+03  d E =-.159182E-02  mag=    -0.0000
       N       E                     dE             d eps       ncg     rms          ort
SDA:   1    -0.995662251091E+03    0.20917E+00    0.00000E+00  2880   0.483E+00 0.000E+00
CGA:   2    -0.995848003217E+03   -0.18575E+00   -0.18576E+00  2880   0.944E-01-0.857E-04
CGA:   3    -0.995870511083E+03   -0.22508E-01   -0.22505E-01  2880   0.137E-01-0.363E-04
CGA:   4    -0.995874079349E+03   -0.35683E-02   -0.35674E-02  2880   0.197E-02-0.954E-05
CGA:   5    -0.995874676261E+03   -0.59691E-03   -0.59708E-03  2880   0.337E-03 0.428E-05
CGA:   6    -0.995874804166E+03   -0.12791E-03   -0.12794E-03  2880   0.112E-03-0.875E-06
CGA:   7    -0.995874849990E+03   -0.45824E-04   -0.45936E-04  2880   0.355E-04-0.168E-05
CGA:   8    -0.995874863702E+03   -0.13712E-04   -0.13738E-04  2880   0.671E-05-0.572E-06
CGA:   9    -0.995874866117E+03   -0.24147E-05   -0.24182E-05  2880   0.112E-05-0.215E-06
  57 F= -.99587487E+03 E0= -.99587487E+03  d E =-.343676E-02  mag=    -0.0000
       N       E                     dE             d eps       ncg     rms          ort
SDA:   1    -0.995873621267E+03    0.12424E-02    0.00000E+00  2880   0.303E-02 0.000E+00
CGA:   2    -0.995874717823E+03   -0.10966E-02   -0.10965E-02  2880   0.666E-03 0.801E-05
CGA:   3    -0.995874886982E+03   -0.16916E-03   -0.16881E-03  2880   0.101E-03-0.344E-05
CGA:   4    -0.995874915138E+03   -0.28157E-04   -0.28112E-04  2880   0.162E-04-0.618E-06
CGA:   5    -0.995874919992E+03   -0.48533E-05   -0.48927E-05  2880   0.351E-05 0.892E-06
  58 F= -.99587492E+03 E0= -.99587492E+03  d E =-.538752E-04  mag=     0.0000
       N       E                     dE             d eps       ncg     rms          ort
SDA:   1    -0.995874324411E+03    0.59073E-03    0.00000E+00  2880   0.102E-02 0.000E+00
CGA:   2    -0.995874703230E+03   -0.37882E-03   -0.37893E-03  2880   0.221E-03-0.677E-05
CGA:   3    -0.995874756932E+03   -0.53702E-04   -0.53975E-04  2880   0.334E-04 0.248E-05
CGA:   4    -0.995874765301E+03   -0.83691E-05   -0.85408E-05  2880   0.477E-05 0.177E-05
  59 F= -.99587477E+03 E0= -.99587477E+03  d E =0.154691E-03  mag=    -0.0000
