       N       E                     dE             d eps       ncg     rms          rms(c)
DAV:   1     0.825996607520E+04    0.82600E+04   -0.23553E+05 34308   0.219E+03
DAV:   2     0.116457898470E+04   -0.70954E+04   -0.66495E+04 33696   0.634E+02
DAV:   3    -0.385769603913E+03   -0.15503E+04   -0.13642E+04 35976   0.273E+02
DAV:   4    -0.543746308219E+03   -0.15798E+03   -0.15518E+03 36840   0.839E+01
DAV:   5    -0.546544318407E+03   -0.27980E+01   -0.27838E+01 36900   0.125E+01    0.107E+02
DAV:   6    -0.610243972142E+03   -0.63700E+02   -0.11311E+03 44988   0.127E+02    0.152E+02
DAV:   7    -0.458308048663E+03    0.15194E+03   -0.32039E+02 39252   0.113E+02    0.676E+01
DAV:   8    -0.450966211620E+03    0.73418E+01   -0.15581E+02 43164   0.498E+01    0.720E+01
DAV:   9    -0.493916624969E+03   -0.42950E+02   -0.14419E+02 39048   0.642E+01    0.108E+02
DAV:  10    -0.469090475169E+03    0.24826E+02   -0.42741E+01 38700   0.408E+01    0.684E+01
DAV:  11    -0.460530368853E+03    0.85601E+01   -0.72679E+01 37308   0.282E+01    0.467E+01
DAV:  12    -0.444635014468E+03    0.15895E+02   -0.15962E+01 37332   0.286E+01    0.304E+01
DAV:  13    -0.442030088114E+03    0.26049E+01   -0.86911E+00 40668   0.155E+01    0.236E+01
DAV:  14    -0.441617620204E+03    0.41247E+00   -0.21366E+00 39456   0.721E+00    0.203E+01
DAV:  15    -0.441747313568E+03   -0.12969E+00   -0.94322E-01 37596   0.681E+00    0.198E+01
DAV:  16    -0.441286076983E+03    0.46124E+00   -0.38520E+00 40536   0.508E+00    0.155E+01
DAV:  17    -0.441086998154E+03    0.19908E+00   -0.14907E+00 42204   0.682E+00    0.121E+01
DAV:  18    -0.440727365188E+03    0.35963E+00   -0.14460E+00 41964   0.535E+00    0.621E+00
DAV:  19    -0.440683023666E+03    0.44342E-01   -0.11087E+00 41688   0.611E+00    0.553E+00
DAV:  20    -0.440626936785E+03    0.56087E-01   -0.71811E-01 36780   0.368E+00    0.384E+00
DAV:  21    -0.440580070707E+03    0.46866E-01   -0.26141E-01 37476   0.277E+00    0.245E+00
DAV:  22    -0.440574744576E+03    0.53261E-02   -0.74042E-02 37968   0.151E+00    0.218E+00
DAV:  23    -0.440562519499E+03    0.12225E-01   -0.39346E-02 42612   0.142E+00    0.187E+00
DAV:  24    -0.440542510416E+03    0.20009E-01   -0.46980E-02 42588   0.133E+00    0.114E+00
DAV:  25    -0.440541586087E+03    0.92433E-03   -0.25861E-02 39960   0.734E-01    0.967E-01
DAV:  26    -0.440540835428E+03    0.75066E-03   -0.90024E-03 37164   0.628E-01    0.847E-01
DAV:  27    -0.440539196230E+03    0.16392E-02   -0.67364E-03 37656   0.520E-01    0.651E-01
DAV:  28    -0.440538229725E+03    0.96650E-03   -0.77829E-03 39456   0.598E-01    0.529E-01
DAV:  29    -0.440537369726E+03    0.86000E-03   -0.33136E-03 39744   0.414E-01    0.340E-01
DAV:  30    -0.440537488693E+03   -0.11897E-03   -0.25323E-03 37896   0.296E-01    0.212E-01
DAV:  31    -0.440537417435E+03    0.71258E-04   -0.22599E-03 39780   0.268E-01    0.154E-01
DAV:  32    -0.440537345983E+03    0.71452E-04   -0.89926E-04 38988   0.161E-01    0.763E-02
DAV:  33    -0.440537349531E+03   -0.35476E-05   -0.23598E-04 35820   0.119E-01    0.557E-02
DAV:  34    -0.440537336084E+03    0.13447E-04   -0.99692E-05 33912   0.773E-02    0.252E-02
DAV:  35    -0.440537337287E+03   -0.12028E-05   -0.27541E-05 23112   0.418E-02
   1 F= -.44053734E+03 E0= -.44052294E+03  d E =-.440537E+03  mag=     0.8301
       N       E                     dE             d eps       ncg     rms          rms(c)
DAV:   1    -0.440548330203E+03   -0.10994E-01   -0.87278E-03 51132   0.949E-01    0.579E-02
DAV:   2    -0.440548765528E+03   -0.43532E-03   -0.43880E-03 35616   0.115E-01    0.440E-02
DAV:   3    -0.440548783584E+03   -0.18055E-04   -0.26172E-04 35616   0.957E-02    0.475E-02
DAV:   4    -0.440548770876E+03    0.12708E-04   -0.58744E-05 26892   0.582E-02    0.248E-02
DAV:   5    -0.440548771141E+03   -0.26521E-06   -0.16964E-05 19728   0.295E-02
   2 F= -.44054877E+03 E0= -.44053436E+03  d E =-.114339E-01  mag=     0.8296
       N       E                     dE             d eps       ncg     rms          rms(c)
DAV:   1    -0.440204760109E+03    0.34401E+00   -0.13114E+01 50292   0.367E+01    0.263E+00
DAV:   2    -0.440916048422E+03   -0.71129E+00   -0.70233E+00 35940   0.550E+00    0.246E+00
DAV:   3    -0.440923778680E+03   -0.77303E-02   -0.59133E-01 36576   0.374E+00    0.177E+00
DAV:   4    -0.440905216393E+03    0.18562E-01   -0.77788E-02 37356   0.186E+00    0.905E-01
DAV:   5    -0.440908793642E+03   -0.35772E-02   -0.39717E-02 38232   0.114E+00    0.105E+00
DAV:   6    -0.440907971659E+03    0.82198E-03   -0.40423E-02 38472   0.975E-01    0.715E-01
DAV:   7    -0.440906009515E+03    0.19621E-02   -0.17967E-02 38376   0.940E-01    0.371E-01
DAV:   8    -0.440905712694E+03    0.29682E-03   -0.69578E-03 41148   0.504E-01    0.268E-01
DAV:   9    -0.440905393978E+03    0.31872E-03   -0.28268E-03 39276   0.336E-01    0.113E-01
DAV:  10    -0.440905339741E+03    0.54237E-04   -0.51142E-04 41292   0.148E-01    0.599E-02
DAV:  11    -0.440905342096E+03   -0.23554E-05   -0.24600E-04 35880   0.110E-01    0.612E-02
DAV:  12    -0.440905316781E+03    0.25316E-04   -0.10794E-04 34188   0.819E-02    0.283E-02
DAV:  13    -0.440905318227E+03   -0.14466E-05   -0.56832E-05 29244   0.555E-02
   3 F= -.44090532E+03 E0= -.44089066E+03  d E =-.356547E+00  mag=     0.8094
       N       E                     dE             d eps       ncg     rms          rms(c)
DAV:   1    -0.439756796022E+03    0.11485E+01   -0.32156E+01 49800   0.544E+01    0.450E+00
DAV:   2    -0.441572175477E+03   -0.18154E+01   -0.16792E+01 36528   0.112E+01    0.708E+00
DAV:   3    -0.441283857695E+03    0.28832E+00   -0.22516E+00 36828   0.748E+00    0.222E+00
DAV:   4    -0.441284557762E+03   -0.70007E-03   -0.21703E-01 37188   0.270E+00    0.179E+00
DAV:   5    -0.441280088510E+03    0.44693E-02   -0.84794E-02 37620   0.187E+00    0.141E+00
DAV:   6    -0.441286531650E+03   -0.64431E-02   -0.83427E-02 39504   0.145E+00    0.153E+00
DAV:   7    -0.441278330528E+03    0.82011E-02   -0.99043E-02 39396   0.140E+00    0.699E-01
DAV:   8    -0.441278218428E+03    0.11210E-03   -0.17470E-02 39492   0.946E-01    0.492E-01
DAV:   9    -0.441277187436E+03    0.10310E-02   -0.97542E-03 40332   0.670E-01    0.280E-01
DAV:  10    -0.441276930593E+03    0.25684E-03   -0.25730E-03 41676   0.338E-01    0.156E-01
DAV:  11    -0.441276950199E+03   -0.19605E-04   -0.16886E-03 39072   0.272E-01    0.153E-01
DAV:  12    -0.441276812395E+03    0.13780E-03   -0.56020E-04 37500   0.166E-01    0.655E-02
DAV:  13    -0.441276811883E+03    0.51239E-06   -0.24395E-04 36408   0.109E-01    0.646E-02
DAV:  14    -0.441276789871E+03    0.22012E-04   -0.19526E-04 35436   0.797E-02    0.347E-02
DAV:  15    -0.441276789554E+03    0.31681E-06   -0.35515E-05 24036   0.444E-02
   4 F= -.44127679E+03 E0= -.44126171E+03  d E =-.371471E+00  mag=     0.7632
       N       E                     dE             d eps       ncg     rms          rms(c)
DAV:   1    -0.441347775624E+03   -0.70986E-01   -0.17786E+01 38700   0.191E+01    0.125E+00
DAV:   2    -0.441515806850E+03   -0.16803E+00   -0.16847E+00 40164   0.420E+00    0.180E+00
DAV:   3    -0.441502766921E+03    0.13040E-01   -0.23668E-01 36816   0.257E+00    0.980E-01
DAV:   4    -0.441501347492E+03    0.14194E-02   -0.72082E-02 37464   0.115E+00    0.873E-01
DAV:   5    -0.441497810015E+03    0.35375E-02   -0.23764E-02 38352   0.873E-01    0.420E-01
DAV:   6    -0.441499161452E+03   -0.13514E-02   -0.12048E-02 41448   0.726E-01    0.595E-01
DAV:   7    -0.441497165372E+03    0.19961E-02   -0.11784E-02 38844   0.689E-01    0.217E-01
DAV:   8    -0.441497266723E+03   -0.10135E-03   -0.30715E-03 40488   0.396E-01    0.214E-01
DAV:   9    -0.441497007873E+03    0.25885E-03   -0.12330E-03 38568   0.247E-01    0.935E-02
DAV:  10    -0.441496999782E+03    0.80905E-05   -0.41799E-04 43332   0.122E-01    0.747E-02
DAV:  11    -0.441496970388E+03    0.29394E-04   -0.26680E-04 37560   0.107E-01    0.353E-02
DAV:  12    -0.441496967296E+03    0.30929E-05   -0.53568E-05 28344   0.482E-02
   5 F= -.44149697E+03 E0= -.44148180E+03  d E =-.220178E+00  mag=     0.7415
       N       E                     dE             d eps       ncg     rms          rms(c)
DAV:   1    -0.441109631840E+03    0.38734E+00   -0.39819E+01 39900   0.395E+01    0.216E+00
DAV:   2    -0.441695262841E+03   -0.58563E+00   -0.59695E+00 37044   0.612E+00    0.229E+00
DAV:   3    -0.441704411182E+03   -0.91483E-02   -0.56791E-01 37056   0.402E+00    0.210E+00
DAV:   4    -0.441682385326E+03    0.22026E-01   -0.19487E-01 38568   0.204E+00    0.105E+00
DAV:   5    -0.441679868599E+03    0.25167E-02   -0.49109E-02 40188   0.125E+00    0.850E-01
DAV:   6    -0.441681495276E+03   -0.16267E-02   -0.42858E-02 42168   0.103E+00    0.897E-01
DAV:   7    -0.441677116319E+03    0.43790E-02   -0.32899E-02 40884   0.110E+00    0.342E-01
DAV:   8    -0.441677241187E+03   -0.12487E-03   -0.69365E-03 39072   0.504E-01    0.295E-01
DAV:   9    -0.441676783634E+03    0.45755E-03   -0.36453E-03 41892   0.407E-01    0.130E-01
DAV:  10    -0.441676783438E+03    0.19645E-06   -0.10118E-03 40704   0.172E-01    0.106E-01
DAV:  11    -0.441676720376E+03    0.63062E-04   -0.45011E-04 39396   0.157E-01    0.499E-02
DAV:  12    -0.441676713790E+03    0.65864E-05   -0.12754E-04 35928   0.733E-02    0.444E-02
DAV:  13    -0.441676709185E+03    0.46044E-05   -0.11830E-04 31452   0.745E-02    0.344E-02
DAV:  14    -0.441676703937E+03    0.52485E-05   -0.57836E-05 25680   0.456E-02
   6 F= -.44167670E+03 E0= -.44166126E+03  d E =-.179737E+00  mag=     0.6864
       N       E                     dE             d eps       ncg     rms          rms(c)
DAV:   1    -0.440152330847E+03    0.15244E+01   -0.44728E+01 47208   0.656E+01    0.380E+00
DAV:   2    -0.441742193250E+03   -0.15899E+01   -0.16224E+01 37260   0.905E+00    0.346E+00
DAV:   3    -0.441787573927E+03   -0.45381E-01   -0.14247E+00 36948   0.611E+00    0.367E+00
DAV:   4    -0.441715869896E+03    0.71704E-01   -0.65890E-01 38400   0.301E+00    0.156E+00
DAV:   5    -0.441716798615E+03   -0.92872E-03   -0.12383E-01 38544   0.178E+00    0.150E+00
DAV:   6    -0.441712737090E+03    0.40615E-02   -0.85282E-02 42492   0.142E+00    0.108E+00
DAV:   7    -0.441710240510E+03    0.24966E-02   -0.68046E-02 41808   0.146E+00    0.796E-01
DAV:   8    -0.441708891013E+03    0.13495E-02   -0.34924E-02 41688   0.986E-01    0.518E-01
DAV:   9    -0.441707880323E+03    0.10107E-02   -0.10070E-02 41700   0.665E-01    0.300E-01
DAV:  10    -0.441707487607E+03    0.39272E-03   -0.37324E-03 43080   0.438E-01    0.191E-01
DAV:  11    -0.441707377145E+03    0.11046E-03   -0.16745E-03 38976   0.281E-01    0.145E-01
DAV:  12    -0.441707256031E+03    0.12111E-03   -0.52576E-04 38508   0.173E-01    0.767E-02
DAV:  13    -0.441707255018E+03    0.10124E-05   -0.33644E-04 38868   0.108E-01    0.762E-02
DAV:  14    -0.441707232353E+03    0.22665E-04   -0.28605E-04 36756   0.108E-01    0.368E-02
DAV:  15    -0.441707233392E+03   -0.10386E-05   -0.63601E-05 28860   0.497E-02
   7 F= -.44170723E+03 E0= -.44169179E+03  d E =-.305295E-01  mag=     0.6552
       N       E                     dE             d eps       ncg     rms          rms(c)
DAV:   1    -0.441116446656E+03    0.59079E+00   -0.13111E+01 49692   0.443E+01    0.229E+00
DAV:   2    -0.441770973035E+03   -0.65453E+00   -0.67767E+00 36900   0.521E+00    0.137E+00
DAV:   3    -0.441794428574E+03   -0.23456E-01   -0.27047E-01 37416   0.259E+00    0.193E+00
DAV:   4    -0.441776638020E+03    0.17791E-01   -0.15554E-01 39624   0.172E+00    0.879E-01
DAV:   5    -0.441780762411E+03   -0.41244E-02   -0.52017E-02 42180   0.121E+00    0.109E+00
DAV:   6    -0.441776850928E+03    0.39115E-02   -0.43028E-02 41880   0.100E+00    0.523E-01
DAV:   7    -0.441776254068E+03    0.59686E-03   -0.17958E-02 41052   0.826E-01    0.382E-01
DAV:   8    -0.441775562815E+03    0.69125E-03   -0.71615E-03 40428   0.467E-01    0.147E-01
DAV:   9    -0.441775500854E+03    0.61961E-04   -0.11734E-03 37452   0.217E-01    0.940E-02
DAV:  10    -0.441775467350E+03    0.33503E-04   -0.49869E-04 37620   0.167E-01    0.614E-02
DAV:  11    -0.441775440653E+03    0.26698E-04   -0.12703E-04 35220   0.740E-02    0.320E-02
DAV:  12    -0.441775453711E+03   -0.13058E-04   -0.12881E-04 35592   0.833E-02    0.515E-02
DAV:  13    -0.441775435124E+03    0.18587E-04   -0.81833E-05 28584   0.661E-02    0.114E-02
DAV:  14    -0.441775436645E+03   -0.15212E-05   -0.16741E-05 18720   0.235E-02
   8 F= -.44177544E+03 E0= -.44175966E+03  d E =-.682033E-01  mag=     0.6283
       N       E                     dE             d eps       ncg     rms          rms(c)
DAV:   1    -0.441749597914E+03    0.25837E-01   -0.22216E+00 44544   0.109E+01    0.545E-01
DAV:   2    -0.441792629530E+03   -0.43032E-01   -0.44148E-01 36744   0.148E+00    0.464E-01
DAV:   3    -0.441795073916E+03   -0.24444E-02   -0.45729E-02 37632   0.942E-01    0.703E-01
DAV:   4    -0.441792525838E+03    0.25481E-02   -0.17755E-02 40332   0.559E-01    0.227E-01
DAV:   5    -0.441792603137E+03   -0.77298E-04   -0.21130E-03 43620   0.334E-01    0.229E-01
DAV:   6    -0.441792463057E+03    0.14008E-03   -0.21308E-03 40584   0.275E-01    0.155E-01
DAV:   7    -0.441792380739E+03    0.82318E-04   -0.11117E-03 41088   0.232E-01    0.925E-02
DAV:   8    -0.441792358299E+03    0.22440E-04   -0.27197E-04 38016   0.102E-01    0.419E-02
DAV:   9    -0.441792358264E+03    0.35361E-07   -0.10637E-04 31092   0.735E-02    0.355E-02
DAV:  10    -0.441792350933E+03    0.73304E-05   -0.36374E-05 24804   0.423E-02
   9 F= -.44179235E+03 E0= -.44177663E+03  d E =-.169143E-01  mag=     0.6463
       N       E                     dE             d eps       ncg     rms          rms(c)
DAV:   1    -0.441540388797E+03    0.25197E+00   -0.18249E+01 42984   0.288E+01    0.144E+00
DAV:   2    -0.441833640082E+03   -0.29325E+00   -0.29823E+00 36732   0.404E+00    0.105E+00
DAV:   3    -0.441845021682E+03   -0.11382E-01   -0.16829E-01 37380   0.242E+00    0.139E+00
DAV:   4    -0.441833452618E+03    0.11569E-01   -0.70183E-02 40836   0.132E+00    0.571E-01
DAV:   5    -0.441834577337E+03   -0.11247E-02   -0.24064E-02 42624   0.806E-01    0.680E-01
DAV:   6    -0.441833342254E+03    0.12351E-02   -0.22161E-02 40848   0.728E-01    0.446E-01
DAV:   7    -0.441832377251E+03    0.96500E-03   -0.80553E-03 41808   0.585E-01    0.179E-01
DAV:   8    -0.441832312961E+03    0.64290E-04   -0.15542E-03 39000   0.235E-01    0.887E-02
DAV:   9    -0.441832334403E+03   -0.21442E-04   -0.73208E-04 40872   0.176E-01    0.858E-02
DAV:  10    -0.441832287532E+03    0.46871E-04   -0.26163E-04 35448   0.111E-01    0.338E-02
DAV:  11    -0.441832294065E+03   -0.65336E-05   -0.92956E-05 29700   0.672E-02
  10 F= -.44183229E+03 E0= -.44181660E+03  d E =-.399431E-01  mag=     0.6428
       N       E                     dE             d eps       ncg     rms          rms(c)
DAV:   1    -0.441118279196E+03    0.71401E+00   -0.19756E+01 47868   0.469E+01    0.236E+00
DAV:   2    -0.441834309827E+03   -0.71603E+00   -0.73292E+00 36300   0.581E+00    0.156E+00
DAV:   3    -0.441863132751E+03   -0.28823E-01   -0.32311E-01 36816   0.333E+00    0.198E+00
DAV:   4    -0.441840046776E+03    0.23086E-01   -0.13321E-01 39984   0.194E+00    0.850E-01
DAV:   5    -0.441845824524E+03   -0.57777E-02   -0.73055E-02 42864   0.106E+00    0.123E+00
DAV:   6    -0.441840100606E+03    0.57239E-02   -0.63032E-02 42792   0.100E+00    0.480E-01
DAV:   7    -0.441839766701E+03    0.33391E-03   -0.12772E-02 40836   0.743E-01    0.376E-01
DAV:   8    -0.441839243170E+03    0.52353E-03   -0.74163E-03 42048   0.542E-01    0.198E-01
DAV:   9    -0.441839081251E+03    0.16192E-03   -0.16461E-03 39624   0.258E-01    0.107E-01
DAV:  10    -0.441839067549E+03    0.13702E-04   -0.75813E-04 40032   0.189E-01    0.886E-02
DAV:  11    -0.441839020196E+03    0.47353E-04   -0.23546E-04 35484   0.104E-01    0.442E-02
DAV:  12    -0.441839028419E+03   -0.82238E-05   -0.15806E-04 34644   0.930E-02    0.558E-02
DAV:  13    -0.441839006877E+03    0.21542E-04   -0.10198E-04 34728   0.702E-02    0.160E-02
DAV:  14    -0.441839008269E+03   -0.13920E-05   -0.26891E-05 19188   0.367E-02
  11 F= -.44183901E+03 E0= -.44182314E+03  d E =-.671420E-02  mag=     0.6610
       N       E                     dE             d eps       ncg     rms          rms(c)
DAV:   1    -0.441534888479E+03    0.30412E+00   -0.61734E+00 50340   0.322E+01    0.156E+00
DAV:   2    -0.441851364112E+03   -0.31648E+00   -0.32719E+00 36660   0.364E+00    0.899E-01
DAV:   3    -0.441862979581E+03   -0.11615E-01   -0.12078E-01 38988   0.169E+00    0.121E+00
DAV:   4    -0.441854908013E+03    0.80716E-02   -0.34647E-02 38748   0.126E+00    0.541E-01
DAV:   5    -0.441858330225E+03   -0.34222E-02   -0.28061E-02 43404   0.818E-01    0.819E-01
DAV:   6    -0.441855231263E+03    0.30990E-02   -0.29451E-02 42204   0.734E-01    0.305E-01
DAV:   7    -0.441855166176E+03    0.65087E-04   -0.65972E-03 40944   0.474E-01    0.253E-01
DAV:   8    -0.441854904504E+03    0.26167E-03   -0.22946E-03 40248   0.285E-01    0.931E-02
DAV:   9    -0.441854880333E+03    0.24170E-04   -0.43365E-04 38364   0.148E-01    0.680E-02
DAV:  10    -0.441854860826E+03    0.19507E-04   -0.23414E-04 35520   0.110E-01    0.375E-02
DAV:  11    -0.441854851073E+03    0.97530E-05   -0.54935E-05 28728   0.513E-02
  12 F= -.44185485E+03 E0= -.44183918E+03  d E =-.158428E-01  mag=     0.6572
       N       E                     dE             d eps       ncg     rms          rms(c)
DAV:   1    -0.441832963504E+03    0.21897E-01   -0.63551E-01 48480   0.797E+00    0.389E-01
DAV:   2    -0.441854227109E+03   -0.21264E-01   -0.21888E-01 36480   0.992E-01    0.311E-01
DAV:   3    -0.441855569639E+03   -0.13425E-02   -0.22402E-02 38340   0.644E-01    0.524E-01
DAV:   4    -0.441854261817E+03    0.13078E-02   -0.99765E-03 39288   0.391E-01    0.155E-01
DAV:   5    -0.441854356884E+03   -0.95067E-04   -0.10909E-03 45780   0.240E-01    0.169E-01
DAV:   6    -0.441854237758E+03    0.11913E-03   -0.81807E-04 40548   0.183E-01    0.744E-02
DAV:   7    -0.441854255395E+03   -0.17637E-04   -0.33125E-04 40764   0.132E-01    0.696E-02
DAV:   8    -0.441854232400E+03    0.22995E-04   -0.13483E-04 34788   0.822E-02    0.247E-02
DAV:   9    -0.441854234445E+03   -0.20447E-05   -0.36516E-05 23076   0.414E-02
  13 F= -.44185423E+03 E0= -.44183856E+03  d E =0.616629E-03  mag=     0.6569
       N       E                     dE             d eps       ncg     rms          rms(c)
DAV:   1    -0.441845941878E+03    0.82905E-02   -0.47544E-01 45960   0.547E+00    0.261E-01
DAV:   2    -0.441855916948E+03   -0.99751E-02   -0.10133E-01 36612   0.710E-01    0.185E-01
DAV:   3    -0.441856398491E+03   -0.48154E-03   -0.72365E-03 37644   0.379E-01    0.304E-01
DAV:   4    -0.441855943007E+03    0.45548E-03   -0.35236E-03 39900   0.251E-01    0.100E-01
DAV:   5    -0.441856006660E+03   -0.63653E-04   -0.60893E-04 39912   0.164E-01    0.126E-01
DAV:   6    -0.441855948025E+03    0.58635E-04   -0.59655E-04 42216   0.144E-01    0.727E-02
DAV:   7    -0.441855926127E+03    0.21898E-04   -0.18699E-04 36756   0.998E-02    0.377E-02
DAV:   8    -0.441855924353E+03    0.17743E-05   -0.41453E-05 26136   0.400E-02
  14 F= -.44185592E+03 E0= -.44184021E+03  d E =-.168991E-02  mag=     0.6533
       N       E                     dE             d eps       ncg     rms          rms(c)
DAV:   1    -0.441730616257E+03    0.12531E+00   -0.64580E+00 46032   0.196E+01    0.946E-01
DAV:   2    -0.441860953798E+03   -0.13034E+00   -0.13222E+00 36372   0.256E+00    0.577E-01
DAV:   3    -0.441865297718E+03   -0.43439E-02   -0.55586E-02 38136   0.120E+00    0.836E-01
DAV:   4    -0.441861846658E+03    0.34511E-02   -0.29397E-02 39264   0.816E-01    0.357E-01
DAV:   5    -0.441862802186E+03   -0.95553E-03   -0.10755E-02 42804   0.563E-01    0.490E-01
DAV:   6    -0.441861741754E+03    0.10604E-02   -0.88700E-03 41880   0.505E-01    0.210E-01
DAV:   7    -0.441861629509E+03    0.11224E-03   -0.24093E-03 41592   0.337E-01    0.131E-01
DAV:   8    -0.441861569183E+03    0.60326E-04   -0.71754E-04 39852   0.174E-01    0.617E-02
DAV:   9    -0.441861566016E+03    0.31675E-05   -0.22173E-04 38412   0.100E-01    0.474E-02
DAV:  10    -0.441861556144E+03    0.98717E-05   -0.84993E-05 28404   0.715E-02
  15 F= -.44186156E+03 E0= -.44184574E+03  d E =-.563179E-02  mag=     0.6465
       N       E                     dE             d eps       ncg     rms          rms(c)
DAV:   1    -0.441545749841E+03    0.31582E+00   -0.10533E+01 47772   0.315E+01    0.150E+00
DAV:   2    -0.441863140338E+03   -0.31739E+00   -0.32180E+00 36456   0.383E+00    0.898E-01
DAV:   3    -0.441874368429E+03   -0.11228E-01   -0.13139E-01 37680   0.184E+00    0.131E+00
DAV:   4    -0.441866127537E+03    0.82409E-02   -0.71929E-02 40164   0.122E+00    0.569E-01
DAV:   5    -0.441868551382E+03   -0.24238E-02   -0.26228E-02 41508   0.860E-01    0.755E-01
DAV:   6    -0.441866123861E+03    0.24275E-02   -0.18553E-02 42096   0.713E-01    0.317E-01
DAV:   7    -0.441865898602E+03    0.22526E-03   -0.65133E-03 42924   0.504E-01    0.218E-01
DAV:   8    -0.441865710141E+03    0.18846E-03   -0.21654E-03 40560   0.276E-01    0.916E-02
DAV:   9    -0.441865690204E+03    0.19937E-04   -0.44163E-04 37224   0.142E-01    0.628E-02
DAV:  10    -0.441865675952E+03    0.14252E-04   -0.19113E-04 35244   0.104E-01    0.403E-02
DAV:  11    -0.441865668146E+03    0.78060E-05   -0.64524E-05 28320   0.555E-02
  16 F= -.44186567E+03 E0= -.44184972E+03  d E =-.411200E-02  mag=     0.6215
       N       E                     dE             d eps       ncg     rms          rms(c)
DAV:   1    -0.441802670890E+03    0.63005E-01   -0.21396E+00 47424   0.141E+01    0.667E-01
DAV:   2    -0.441866520809E+03   -0.63850E-01   -0.65266E-01 36888   0.175E+00    0.410E-01
DAV:   3    -0.441868703600E+03   -0.21828E-02   -0.28637E-02 38856   0.773E-01    0.638E-01
DAV:   4    -0.441866775347E+03    0.19283E-02   -0.15658E-02 40032   0.559E-01    0.249E-01
DAV:   5    -0.441867357145E+03   -0.58180E-03   -0.39345E-03 43404   0.426E-01    0.338E-01
DAV:   6    -0.441866698324E+03    0.65882E-03   -0.34749E-03 41844   0.385E-01    0.124E-01
DAV:   7    -0.441866693890E+03    0.44345E-05   -0.93648E-04 40920   0.196E-01    0.880E-02
DAV:   8    -0.441866669671E+03    0.24219E-04   -0.29034E-04 36576   0.104E-01    0.393E-02
DAV:   9    -0.441866672804E+03   -0.31326E-05   -0.92507E-05 28440   0.658E-02
  17 F= -.44186667E+03 E0= -.44185081E+03  d E =-.100466E-02  mag=     0.6319
       N       E                     dE             d eps       ncg     rms          rms(c)
DAV:   1    -0.441849726646E+03    0.16943E-01   -0.44994E-01 50352   0.791E+00    0.375E-01
DAV:   2    -0.441869402762E+03   -0.19676E-01   -0.20312E-01 36708   0.923E-01    0.215E-01
DAV:   3    -0.441869804888E+03   -0.40213E-03   -0.52076E-03 39024   0.340E-01    0.244E-01
DAV:   4    -0.441869590747E+03    0.21414E-03   -0.26147E-03 38616   0.288E-01    0.151E-01
DAV:   5    -0.441869816368E+03   -0.22562E-03   -0.22707E-03 45480   0.219E-01    0.222E-01
DAV:   6    -0.441869541523E+03    0.27485E-03   -0.17279E-03 42252   0.221E-01    0.548E-02
DAV:   7    -0.441869545411E+03   -0.38888E-05   -0.22764E-04 37152   0.995E-02    0.439E-02
DAV:   8    -0.441869535890E+03    0.95219E-05   -0.79662E-05 29136   0.581E-02
  18 F= -.44186954E+03 E0= -.44185370E+03  d E =-.286309E-02  mag=     0.6380
