       N       E                     dE             d eps       ncg     rms          ort
DAV:   1     0.828863615934E+04    0.82886E+04   -0.24691E+05  8424   0.239E+03
DAV:   2     0.919095764023E+03   -0.73695E+04   -0.69199E+04  8424   0.659E+02
DAV:   3    -0.677733560760E+03   -0.15968E+04   -0.14046E+04  8424   0.283E+02
DAV:   4    -0.834311088404E+03   -0.15658E+03   -0.15384E+03  8424   0.859E+01
DAV:   5    -0.836839413707E+03   -0.25283E+01   -0.25167E+01  8424   0.122E+01
SDA:   6    -0.236988447158E+03    0.59985E+03   -0.25167E+01  8424   0.831E+04 0.000E+00
CGA:   7    -0.105067063241E+03    0.13192E+03   -0.46124E+03  8424   0.346E+05-0.640E+04
CGA:   8     0.289669292421E+04    0.30018E+04   -0.23109E+04  8424   0.301E+06-0.927E+05
CGA:   9     0.635022572073E+04    0.34535E+04   -0.25790E+05  8424   0.727E+05-0.445E+05
CGA:  10     0.461382053295E+04   -0.17364E+04   -0.43593E+04  8424   0.181E+05-0.162E+05
CGA:  11     0.458558535927E+03   -0.41553E+04   -0.48630E+03  8424   0.567E+05-0.123E+06
CGA:  12     0.301935797799E+04    0.25608E+04   -0.36493E+04  8424   0.241E+06-0.869E+05
CGA:  13     0.532898409311E+04    0.23096E+04   -0.17706E+05  8424   0.236E+05-0.147E+05
CGA:  14    -0.191503653773E+03   -0.55205E+04   -0.91980E+03  8424   0.255E+05-0.597E+05
CGA:  15    -0.127042210113E+03    0.64461E+02   -0.15019E+04  8424   0.240E+05-0.206E+05
CGA:  16    -0.279520068350E+03   -0.15248E+03   -0.11839E+04  8424   0.144E+05-0.171E+05
CGA:  17    -0.469927860877E+03   -0.19041E+03   -0.56612E+03  8424   0.245E+04-0.327E+04
CGA:  18    -0.621850516596E+03   -0.15192E+03   -0.25506E+02  8424   0.109E+04 0.295E+04
CGA:  19    -0.634212185694E+03   -0.12362E+02   -0.47170E+02  8424   0.903E+03-0.678E+03
CGA:  20    -0.623786378015E+03    0.10426E+02   -0.44420E+02  8424   0.949E+03-0.342E+03
CGA:  21    -0.650412728627E+03   -0.26626E+02   -0.26169E+02  8424   0.229E+03-0.177E+03
CGA:  22    -0.657149172313E+03   -0.67364E+01   -0.68365E+01  8424   0.502E+02 0.712E+02
CGA:  23    -0.659335928755E+03   -0.21868E+01   -0.14349E+01  8424   0.373E+02 0.689E+01
CGA:  24    -0.660022452477E+03   -0.68652E+00   -0.18247E+01  8424   0.267E+03-0.220E+02
CGA:  25    -0.661696216897E+03   -0.16738E+01   -0.13708E+02  8424   0.484E+02-0.150E+02
CGA:  26    -0.663081141073E+03   -0.13849E+01   -0.74468E+00  8424   0.379E+02 0.410E+02
CGA:  27    -0.664273821872E+03   -0.11927E+01   -0.50475E+00  8424   0.431E+02 0.550E+02
CGA:  28    -0.665652139795E+03   -0.13783E+01   -0.83377E+00  8424   0.114E+02 0.168E+02
CGA:  29    -0.666168263503E+03   -0.51612E+00   -0.52288E+00  8424   0.328E+02-0.901E+00
CGA:  30    -0.670995310728E+03   -0.48270E+01   -0.44323E+01  8424   0.646E+02-0.456E+00
CGA:  31    -0.671764409002E+03   -0.76910E+00   -0.17751E+01  8424   0.104E+02-0.262E+02
CGA:  32    -0.672266098404E+03   -0.50169E+00   -0.50968E+00  8424   0.638E+01 0.585E+00
CGA:  33    -0.673228577569E+03   -0.96248E+00   -0.95852E+00  8424   0.457E+01 0.603E-01
CGA:  34    -0.673969227763E+03   -0.74065E+00   -0.74865E+00  8424   0.282E+01-0.101E+00
CGA:  35    -0.674278150611E+03   -0.30892E+00   -0.30767E+00  8424   0.117E+01 0.453E-01
CGA:  36    -0.674470632717E+03   -0.19248E+00   -0.18979E+00  8424   0.103E+01 0.355E-01
CGA:  37    -0.674671899642E+03   -0.20127E+00   -0.19969E+00  8424   0.695E+00 0.152E-01
CGA:  38    -0.674772356528E+03   -0.10046E+00   -0.10061E+00  8424   0.385E+00-0.357E-02
CGA:  39    -0.674844875203E+03   -0.72519E-01   -0.74192E-01  8424   0.310E+00-0.192E-01
CGA:  40    -0.674891054640E+03   -0.46179E-01   -0.47436E-01  8424   0.168E+00-0.253E-01
CGA:  41    -0.674921096713E+03   -0.30042E-01   -0.32584E-01  8424   0.141E+00-0.258E-01
CGA:  42    -0.674941204191E+03   -0.20107E-01   -0.21181E-01  8424   0.719E-01-0.179E-01
CGA:  43    -0.674950995168E+03   -0.97910E-02   -0.10032E-01  8424   0.465E-01-0.608E-02
CGA:  44    -0.674959196648E+03   -0.82015E-02   -0.85012E-02  8424   0.331E-01-0.388E-02
CGA:  45    -0.674963892282E+03   -0.46956E-02   -0.47311E-02  8424   0.182E-01-0.122E-02
CGA:  46    -0.674967167265E+03   -0.32750E-02   -0.32245E-02  8424   0.151E-01 0.887E-03
CGA:  47    -0.674969833216E+03   -0.26660E-02   -0.25930E-02  8424   0.884E-02 0.216E-02
CGA:  48    -0.674971430241E+03   -0.15970E-02   -0.15549E-02  8424   0.549E-02 0.192E-02
CGA:  49    -0.674972628462E+03   -0.11982E-02   -0.11405E-02  8424   0.326E-02 0.153E-02
CGA:  50    -0.674973250271E+03   -0.62181E-03   -0.61099E-03  8424   0.159E-02 0.929E-03
CGA:  51    -0.674973550905E+03   -0.30063E-03   -0.29429E-03  8424   0.120E-02 0.752E-03
CGA:  52    -0.674973787959E+03   -0.23705E-03   -0.23820E-03  8424   0.853E-03 0.782E-03
CGA:  53    -0.674974014682E+03   -0.22672E-03   -0.20932E-03  8424   0.538E-03 0.157E-03
CGA:  54    -0.674974407299E+03   -0.39262E-03   -0.32764E-03  8424   0.459E-03 0.165E-03
CGA:  55    -0.674974944794E+03   -0.53750E-03   -0.42990E-03  8424   0.843E-03 0.167E-03
CGA:  56    -0.674976027728E+03   -0.10829E-02   -0.57117E-06  8424   0.663E-02-0.139E-02
CGA:  57    -0.674977312384E+03   -0.12847E-02   -0.13589E-02  8424   0.174E-02-0.187E-03
CGA:  58    -0.674978248469E+03   -0.93609E-03   -0.10877E-02  8424   0.250E-02-0.564E-03
CGA:  59    -0.674978616401E+03   -0.36793E-03   -0.12199E-02  8424   0.676E-02-0.232E-02
CGA:  60    -0.674979765814E+03   -0.11494E-02   -0.11274E-02  8424   0.129E-02-0.763E-04
CGA:  61    -0.674980071500E+03   -0.30569E-03   -0.14628E-02  8424   0.525E-02-0.149E-02
CGA:  62    -0.674981072991E+03   -0.10015E-02   -0.10246E-02  8424   0.139E-02 0.127E-03
CGA:  63    -0.674981503264E+03   -0.43027E-03   -0.42905E-03  8424   0.388E-03-0.162E-04
CGA:  64    -0.674981674652E+03   -0.17139E-03   -0.35154E-03  8424   0.228E-02-0.346E-03
CGA:  65    -0.674982169708E+03   -0.49506E-03   -0.45369E-03  8424   0.452E-03-0.199E-03
CGA:  66    -0.674978946559E+03    0.32231E-02   -0.17307E-02  8424   0.315E-01-0.201E-02
CGA:  67    -0.674983311686E+03   -0.43651E-02   -0.44354E-02  8424   0.249E-02-0.641E-03
CGA:  68    -0.674984115400E+03   -0.80371E-03   -0.84340E-03  8424   0.424E-03 0.110E-03
CGA:  69    -0.674984375392E+03   -0.25999E-03   -0.23123E-03  8424   0.729E-03-0.182E-03
CGA:  70    -0.674984415634E+03   -0.40242E-04   -0.48683E-03  8424   0.508E-02-0.931E-03
CGA:  71    -0.674985747455E+03   -0.13318E-02   -0.11969E-02  8424   0.200E-02-0.311E-03
CGA:  72    -0.674986416442E+03   -0.66899E-03   -0.58835E-03  8424   0.622E-03-0.220E-03
CGA:  73    -0.674986779649E+03   -0.36321E-03   -0.35398E-03  8424   0.137E-02-0.498E-03
CGA:  74    -0.674987066447E+03   -0.28680E-03   -0.26946E-03  8424   0.342E-03-0.368E-04
CGA:  75    -0.674987280714E+03   -0.21427E-03   -0.22327E-03  8424   0.109E-02-0.245E-03
CGA:  76    -0.674987512461E+03   -0.23175E-03   -0.20349E-03  8424   0.245E-03-0.601E-04
CGA:  77    -0.674987817681E+03   -0.30522E-03    0.93260E-03  8424   0.733E-03-0.130E-03
CGA:  78    -0.674987974976E+03   -0.15730E-03   -0.14325E-03  8424   0.201E-03-0.328E-04
CGA:  79    -0.674988254504E+03   -0.27953E-03    0.24814E-03  8424   0.533E-03-0.570E-04
CGA:  80    -0.674989315311E+03   -0.10608E-02    0.84073E-04  8424   0.790E-03 0.270E-03
CGA:  81    -0.674989593711E+03   -0.27840E-03   -0.23764E-03  8424   0.362E-03-0.140E-03
CGA:  82    -0.674989412427E+03    0.18128E-03   -0.33115E-03  8424   0.698E-02-0.968E-03
CGA:  83    -0.674990344999E+03   -0.93257E-03   -0.95877E-03  8424   0.456E-03 0.132E-03
CGA:  84    -0.674990589506E+03   -0.24451E-03   -0.22623E-03  8424   0.319E-03-0.195E-03
CGA:  85    -0.674991020721E+03   -0.43121E-03    0.50310E-04  8424   0.251E-03 0.106E-03
CGA:  86    -0.674991658191E+03   -0.63747E-03    0.14799E-03  8424   0.245E-03 0.658E-04
CGA:  87    -0.674992517717E+03   -0.85953E-03    0.62927E-04  8424   0.240E-03 0.202E-03
CGA:  88    -0.674990365489E+03    0.21522E-02   -0.67796E-03  8424   0.130E-01-0.127E-02
CGA:  89    -0.674993230382E+03   -0.28649E-02   -0.27950E-02  8424   0.304E-02-0.226E-03
CGA:  90    -0.674993981096E+03   -0.75071E-03   -0.69793E-03  8424   0.178E-03-0.118E-03
CGA:  91    -0.674994268236E+03   -0.28714E-03    0.18049E-03  8424   0.597E-03-0.119E-03
CGA:  92    -0.674994382363E+03   -0.11413E-03   -0.10601E-03  8424   0.115E-03-0.165E-04
CGA:  93    -0.674994691619E+03   -0.30926E-03    0.28305E-04  8424   0.202E-03 0.197E-04
CGA:  94    -0.674995518611E+03   -0.82699E-03    0.40293E-04  8424   0.237E-03 0.149E-03
CGA:  95    -0.674995666014E+03   -0.14740E-03   -0.13474E-03  8424   0.944E-03-0.250E-03
CGA:  96    -0.674995876751E+03   -0.21074E-03   -0.15814E-03  8424   0.121E-03-0.116E-03
CGA:  97    -0.674996163813E+03   -0.28706E-03    0.24986E-04  8424   0.203E-03 0.186E-04
CGA:  98    -0.674996884544E+03   -0.72073E-03    0.43998E-04  8424   0.290E-03 0.106E-03
CGA:  99    -0.674997041229E+03   -0.15669E-03   -0.92110E-04  8424   0.534E-03-0.234E-03
CGA: 100    -0.674997135185E+03   -0.93956E-04   -0.78180E-04  8424   0.834E-04-0.349E-04
CGA: 101    -0.674997423195E+03   -0.28801E-03    0.94921E-05  8424   0.709E-04 0.669E-04
CGA: 102    -0.674997672639E+03   -0.24944E-03    0.92673E-05  8424   0.168E-03 0.302E-04
CGA: 103    -0.674998504667E+03   -0.83203E-03    0.31991E-04  8424   0.125E-03 0.176E-03
CGA: 104    -0.674998693051E+03   -0.18838E-03    0.10128E-03  8424   0.758E-03-0.142E-03
CGA: 105    -0.674998826673E+03   -0.13362E-03   -0.10738E-03  8424   0.950E-04-0.644E-04
CGA: 106    -0.674999089979E+03   -0.26331E-03    0.12922E-04  8424   0.122E-03 0.353E-04
CGA: 107    -0.674999693520E+03   -0.60354E-03    0.19187E-04  8424   0.107E-03 0.128E-03
CGA: 108    -0.674999862129E+03   -0.16861E-03    0.63330E-04  8424   0.624E-03-0.104E-03
CGA: 109    -0.675000005645E+03   -0.14352E-03   -0.96790E-04  8424   0.121E-03-0.123E-03
CGA: 110    -0.675000281854E+03   -0.27621E-03    0.14597E-04  8424   0.126E-03 0.383E-04
CGA: 111    -0.675000799546E+03   -0.51769E-03    0.21307E-04  8424   0.202E-03 0.764E-04
CGA: 112    -0.675000914128E+03   -0.11458E-03   -0.73465E-04  8424   0.781E-03-0.265E-03
CGA: 113    -0.675001041747E+03   -0.12762E-03   -0.10206E-03  8424   0.794E-04-0.688E-04
CGA: 114    -0.675001291381E+03   -0.24963E-03    0.71525E-05  8424   0.799E-04 0.521E-04
CGA: 115    -0.675001487956E+03   -0.19658E-03    0.13156E-04  8424   0.331E-03-0.234E-04
CGA: 116    -0.675002579427E+03   -0.10915E-02    0.15488E-04  8424   0.104E-02 0.171E-03
CGA: 117    -0.675002752000E+03   -0.17257E-03   -0.13793E-03  8424   0.920E-04-0.946E-04
CGA: 118    -0.675002979314E+03   -0.22731E-03    0.10681E-04  8424   0.175E-03 0.134E-04
CGA: 119    -0.675003678934E+03   -0.69962E-03    0.17846E-04  8424   0.763E-04 0.159E-03
CGA: 120    -0.675003882621E+03   -0.20369E-03    0.10010E-04  8424   0.141E-03 0.140E-04
CGA: 121    -0.675004512881E+03   -0.63026E-03    0.13343E-04  8424   0.173E-03 0.115E-03
CGA: 122    -0.675004701811E+03   -0.18893E-03    0.27799E-03  8424   0.428E-03-0.130E-03
CGA: 123    -0.675004849380E+03   -0.14757E-03   -0.97100E-04  8424   0.300E-03-0.203E-03
CGA: 124    -0.675005193573E+03   -0.34419E-03    0.26835E-04  8424   0.270E-03-0.192E-04
CGA: 125    -0.675005771915E+03   -0.57834E-03    0.39565E-04  8424   0.198E-03 0.755E-04
CGA: 126    -0.675006368765E+03   -0.59685E-03    0.37888E-04  8424   0.679E-03-0.916E-04
CGA: 127    -0.675008475927E+03   -0.21072E-02    0.16120E-04  8424   0.319E-02-0.706E-04
CGA: 128    -0.675020421362E+03   -0.11945E-01    0.18755E-03  8424   0.642E-02-0.275E-03
CGA: 129    -0.675051318472E+03   -0.30897E-01    0.28890E-03  8424   0.893E-02-0.244E-02
CGA: 130    -0.675096153140E+03   -0.44835E-01    0.16526E-03  8424   0.263E-01-0.324E-01
CGA: 131    -0.675099307629E+03   -0.31545E-02   -0.36101E-02  8424   0.231E-02 0.129E-02
CGA: 132    -0.675099411692E+03   -0.10406E-03   -0.44876E-03  8424   0.115E-02 0.132E-02
CGA: 133    -0.675099341692E+03    0.70000E-04   -0.18340E-03  8424   0.884E-03 0.922E-03
CGA: 134    -0.675099221858E+03    0.11983E-03   -0.11898E-03  8424   0.801E-03 0.837E-03
CGA: 135    -0.675099103154E+03    0.11870E-03   -0.99035E-04  8424   0.747E-03 0.772E-03
CGA: 136    -0.675098987792E+03    0.11536E-03   -0.85537E-04  8424   0.706E-03 0.725E-03
CGA: 137    -0.675098876667E+03    0.11113E-03   -0.75488E-04  8424   0.674E-03 0.689E-03
CGA: 138    -0.675098770097E+03    0.10657E-03   -0.67606E-04  8424   0.648E-03 0.660E-03
CGA: 139    -0.675098668129E+03    0.10197E-03   -0.61199E-04  8424   0.626E-03 0.636E-03
CGA: 140    -0.675098570676E+03    0.97453E-04   -0.55856E-04  8424   0.607E-03 0.616E-03
CGA: 141    -0.675098477590E+03    0.93086E-04   -0.51313E-04  8424   0.591E-03 0.598E-03
CGA: 142    -0.675098388690E+03    0.88900E-04   -0.47389E-04  8424   0.577E-03 0.584E-03
CGA: 143    -0.675098303785E+03    0.84905E-04   -0.43956E-04  8424   0.565E-03 0.570E-03
CGA: 144    -0.675098222683E+03    0.81102E-04   -0.40922E-04  8424   0.554E-03 0.559E-03
CGA: 145    -0.675098145196E+03    0.77487E-04   -0.38216E-04  8424   0.544E-03 0.549E-03
CGA: 146    -0.675098071139E+03    0.74057E-04   -0.35788E-04  8424   0.536E-03 0.540E-03
CGA: 147    -0.675098000340E+03    0.70799E-04   -0.33591E-04  8424   0.528E-03 0.531E-03
CGA: 148    -0.675097932639E+03    0.67701E-04   -0.31590E-04  8424   0.521E-03 0.524E-03
CGA: 149    -0.675097867887E+03    0.64752E-04   -0.29759E-04  8424   0.515E-03 0.517E-03
CGA: 150    -0.675097805943E+03    0.61944E-04   -0.28076E-04  8424   0.509E-03 0.511E-03
CGA: 151    -0.675097746676E+03    0.59267E-04   -0.26524E-04  8424   0.503E-03 0.506E-03
CGA: 152    -0.675097689962E+03    0.56714E-04   -0.25088E-04  8424   0.498E-03 0.500E-03
CGA: 153    -0.675097635683E+03    0.54279E-04   -0.23755E-04  8424   0.493E-03 0.495E-03
CGA: 154    -0.675097583727E+03    0.51956E-04   -0.22515E-04  8424   0.489E-03 0.491E-03
CGA: 155    -0.675097533990E+03    0.49737E-04   -0.21358E-04  8424   0.485E-03 0.487E-03
CGA: 156    -0.675097486372E+03    0.47618E-04   -0.20276E-04  8424   0.481E-03 0.483E-03
CGA: 157    -0.675097440778E+03    0.45594E-04   -0.19264E-04  8424   0.478E-03 0.479E-03
CGA: 158    -0.675097397117E+03    0.43661E-04   -0.18314E-04  8424   0.474E-03 0.476E-03
CGA: 159    -0.675097355303E+03    0.41814E-04   -0.17423E-04  8424   0.471E-03 0.473E-03
CGA: 160    -0.675097315254E+03    0.40049E-04   -0.16584E-04  8424   0.468E-03 0.470E-03
CGA: 161    -0.675097276889E+03    0.38365E-04   -0.15793E-04  8424   0.465E-03 0.467E-03
CGA: 162    -0.675097240134E+03    0.36755E-04   -0.15048E-04  8424   0.463E-03 0.464E-03
CGA: 163    -0.675097204917E+03    0.35217E-04   -0.14344E-04  8424   0.460E-03 0.461E-03
CGA: 164    -0.675097171169E+03    0.33748E-04   -0.13679E-04  8424   0.458E-03 0.459E-03
CGA: 165    -0.675097138825E+03    0.32344E-04   -0.13049E-04  8424   0.456E-03 0.457E-03
CGA: 166    -0.675097107824E+03    0.31001E-04   -0.12453E-04  8424   0.454E-03 0.455E-03
CGA: 167    -0.675097078106E+03    0.29718E-04   -0.11887E-04  8424   0.452E-03 0.453E-03
CGA: 168    -0.675097049616E+03    0.28491E-04   -0.11351E-04  8424   0.450E-03 0.451E-03
CGA: 169    -0.675097022299E+03    0.27317E-04   -0.10841E-04  8424   0.448E-03 0.449E-03
CGA: 170    -0.675096996105E+03    0.26194E-04   -0.10357E-04  8424   0.447E-03 0.447E-03
CGA: 171    -0.675096970985E+03    0.25120E-04   -0.98964E-05  8424   0.445E-03 0.446E-03
CGA: 172    -0.675096946894E+03    0.24091E-04   -0.94582E-05  8424   0.443E-03 0.444E-03
CGA: 173    -0.675096923788E+03    0.23106E-04   -0.90412E-05  8424   0.442E-03 0.443E-03
CGA: 174    -0.675096901625E+03    0.22163E-04   -0.86440E-05  8424   0.441E-03 0.441E-03
CGA: 175    -0.675096880367E+03    0.21258E-04   -0.82659E-05  8424   0.439E-03 0.440E-03
CGA: 176    -0.675096859976E+03    0.20391E-04   -0.79052E-05  8424   0.438E-03 0.438E-03
CGA: 177    -0.675096840419E+03    0.19557E-04   -0.75627E-05  8424   0.437E-03 0.437E-03
CGA: 178    -0.675096821661E+03    0.18758E-04   -0.72347E-05  8424   0.436E-03 0.436E-03
CGA: 179    -0.675096803676E+03    0.17984E-04   -0.69252E-05  8424   0.435E-03 0.434E-03
CGA: 180    -0.675096786430E+03    0.17246E-04   -0.66258E-05  8424   0.434E-03 0.433E-03
CGA: 181    -0.675096769915E+03    0.16516E-04   -0.63468E-05  8424   0.433E-03 0.432E-03
CGA: 182    -0.675096754093E+03    0.15821E-04   -0.60727E-05  8424   0.433E-03 0.430E-03
CGA: 183    -0.675096738968E+03    0.15125E-04   -0.58239E-05  8424   0.433E-03 0.428E-03
CGA: 184    -0.675096724490E+03    0.14479E-04   -0.55798E-05  8424   0.432E-03 0.426E-03
CGA: 185    -0.675096710633E+03    0.13856E-04   -0.53594E-05  8424   0.431E-03 0.425E-03
CGA: 186    -0.675096697331E+03    0.13302E-04   -0.51400E-05  8424   0.429E-03 0.425E-03
CGA: 187    -0.675096684555E+03    0.12776E-04   -0.49338E-05  8424   0.427E-03 0.425E-03
CGA: 188    -0.675096672270E+03    0.12285E-04   -0.47281E-05  8424   0.426E-03 0.425E-03
CGA: 189    -0.675096660471E+03    0.11798E-04   -0.45324E-05  8424   0.425E-03 0.425E-03
CGA: 190    -0.675096649144E+03    0.11328E-04   -0.43435E-05  8424   0.424E-03 0.424E-03
CGA: 191    -0.675096638272E+03    0.10872E-04   -0.41642E-05  8424   0.423E-03 0.424E-03
CGA: 192    -0.675096627834E+03    0.10438E-04   -0.39916E-05  8424   0.423E-03 0.423E-03
CGA: 193    -0.675096617813E+03    0.10021E-04   -0.38270E-05  8424   0.422E-03 0.422E-03
CGA: 194    -0.675096608191E+03    0.96222E-05   -0.36690E-05  8424   0.422E-03 0.422E-03
   1 F= -.67509661E+03 E0= -.67509661E+03  d E =-.675097E+03  mag=     3.0000
       N       E                     dE             d eps       ncg     rms          ort
SDA:   1    -0.675095446972E+03    0.11708E-02    0.00000E+00  8424   0.578E-03 0.000E+00
CGA:   2    -0.675095440169E+03    0.68035E-05   -0.71781E-05  8424   0.558E-03 0.566E-03
CGA:   3    -0.675095433316E+03    0.68531E-05   -0.64704E-05  8424   0.542E-03 0.549E-03
CGA:   4    -0.675095426506E+03    0.68102E-05   -0.59030E-05  8424   0.529E-03 0.535E-03
   2 F= -.67509543E+03 E0= -.67509543E+03  d E =0.118169E-02  mag=     3.0000
       N       E                     dE             d eps       ncg     rms          ort
SDA:   1    -0.675094237975E+03    0.11953E-02    0.00000E+00  8424   0.549E-03 0.000E+00
CGA:   2    -0.675094231103E+03    0.68718E-05   -0.53164E-05  8424   0.530E-03 0.539E-03
CGA:   3    -0.675094224402E+03    0.67005E-05   -0.48218E-05  8424   0.515E-03 0.522E-03
CGA:   4    -0.675094217902E+03    0.65007E-05   -0.44183E-05  8424   0.502E-03 0.508E-03
   3 F= -.67509422E+03 E0= -.67509422E+03  d E =0.120860E-02  mag=     3.0000
       N       E                     dE             d eps       ncg     rms          ort
SDA:   1    -0.674887466171E+03    0.20676E+00    0.00000E+00  8424   0.576E+00 0.000E+00
CGA:   2    -0.675017123358E+03   -0.12966E+00   -0.23864E-01  8424   0.205E+00 0.139E+00
CGA:   3    -0.675082244173E+03   -0.65121E-01   -0.63235E-01  8424   0.689E-01 0.949E-02
CGA:   4    -0.675093763386E+03   -0.11519E-01   -0.11094E-01  8424   0.165E-01 0.455E-02
CGA:   5    -0.675096657314E+03   -0.28939E-02   -0.26001E-02  8424   0.338E-02 0.357E-02
CGA:   6    -0.675097164627E+03   -0.50731E-03   -0.42859E-03  8424   0.148E-02 0.228E-02
CGA:   7    -0.675097265107E+03   -0.10048E-03   -0.10265E-03  8424   0.997E-03 0.119E-02
CGA:   8    -0.675097300720E+03   -0.35613E-04   -0.52405E-04  8424   0.814E-03 0.896E-03
CGA:   9    -0.675097316348E+03   -0.15628E-04   -0.35676E-04  8424   0.707E-03 0.755E-03
CGA:  10    -0.675097322546E+03   -0.61978E-05   -0.26868E-04  8424   0.634E-03 0.667E-03
CGA:  11    -0.675097323579E+03   -0.10333E-05   -0.21409E-04  8424   0.581E-03 0.605E-03
CGA:  12    -0.675097321556E+03    0.20236E-05   -0.17698E-04  8424   0.540E-03 0.558E-03
CGA:  13    -0.675097317642E+03    0.39132E-05   -0.15016E-04  8424   0.508E-03 0.522E-03
CGA:  14    -0.675097312537E+03    0.51053E-05   -0.12989E-04  8424   0.482E-03 0.494E-03
CGA:  15    -0.675097306680E+03    0.58575E-05   -0.11404E-04  8424   0.461E-03 0.470E-03
CGA:  16    -0.675097300367E+03    0.63121E-05   -0.10148E-04  8424   0.444E-03 0.451E-03
   4 F= -.67509730E+03 E0= -.67509730E+03  d E =-.308247E-02  mag=     3.0000
       N       E                     dE             d eps       ncg     rms          ort
SDA:   1    -0.674731960170E+03    0.36535E+00    0.00000E+00  8424   0.945E+00 0.000E+00
CGA:   2    -0.674985452325E+03   -0.25349E+00   -0.43567E-03  8424   0.651E+00-0.234E+00
CGA:   3    -0.675058744528E+03   -0.73292E-01   -0.73133E-01  8424   0.166E+00 0.318E-02
CGA:   4    -0.675085992391E+03   -0.27248E-01   -0.27029E-01  8424   0.448E-01 0.367E-02
CGA:   5    -0.675093404508E+03   -0.74121E-02   -0.72641E-02  8424   0.101E-01 0.278E-02
CGA:   6    -0.675095157888E+03   -0.17534E-02   -0.16610E-02  8424   0.309E-02 0.199E-02
CGA:   7    -0.675095634910E+03   -0.47702E-03   -0.45727E-03  8424   0.123E-02 0.149E-02
CGA:   8    -0.675095763286E+03   -0.12838E-03   -0.15634E-03  8424   0.671E-03 0.109E-02
CGA:   9    -0.675095787308E+03   -0.24022E-04   -0.46708E-04  8424   0.488E-03 0.563E-03
CGA:  10    -0.675095789456E+03   -0.21485E-05   -0.26193E-04  8424   0.410E-03 0.443E-03
CGA:  11    -0.675095784997E+03    0.44592E-05   -0.18534E-04  8424   0.364E-03 0.383E-03
CGA:  12    -0.675095777780E+03    0.72172E-05   -0.14417E-04  8424   0.333E-03 0.346E-03
CGA:  13    -0.675095769288E+03    0.84918E-05   -0.11810E-04  8424   0.310E-03 0.319E-03
   5 F= -.67509577E+03 E0= -.67509577E+03  d E =0.153108E-02  mag=     3.0000
       N       E                     dE             d eps       ncg     rms          ort
SDA:   1    -0.675028286882E+03    0.67491E-01    0.00000E+00  8424   0.184E+00 0.000E+00
CGA:   2    -0.675076159223E+03   -0.47872E-01   -0.47711E-01  8424   0.662E-01 0.964E-03
CGA:   3    -0.675089220207E+03   -0.13061E-01   -0.12858E-01  8424   0.194E-01 0.220E-02
CGA:   4    -0.675092654041E+03   -0.34338E-02   -0.33154E-02  8424   0.454E-02 0.197E-02
CGA:   5    -0.675093374751E+03   -0.72071E-03   -0.68221E-03  8424   0.975E-03 0.138E-02
CGA:   6    -0.675093470809E+03   -0.96058E-04   -0.11305E-03  8424   0.500E-03 0.805E-03
CGA:   7    -0.675093482590E+03   -0.11781E-04   -0.31402E-04  8424   0.370E-03 0.425E-03
CGA:   8    -0.675093481729E+03    0.86043E-06   -0.18499E-04  8424   0.317E-03 0.342E-03
CGA:   9    -0.675093477125E+03    0.46038E-05   -0.13634E-04  8424   0.285E-03 0.300E-03
CGA:  10    -0.675093470938E+03    0.61877E-05   -0.10900E-04  8424   0.263E-03 0.273E-03
   6 F= -.67509347E+03 E0= -.67509347E+03  d E =0.229835E-02  mag=     3.0000
       N       E                     dE             d eps       ncg     rms          ort
SDA:   1    -0.674979214046E+03    0.11426E+00    0.00000E+00  8424   0.320E+00 0.000E+00
CGA:   2    -0.675050266749E+03   -0.71053E-01   -0.70926E-01  8424   0.130E+00 0.960E-03
CGA:   3    -0.675077086285E+03   -0.26820E-01   -0.26664E-01  8424   0.399E-01 0.149E-02
CGA:   4    -0.675083831984E+03   -0.67457E-02   -0.66538E-02  8424   0.955E-02 0.155E-02
CGA:   5    -0.675085415440E+03   -0.15835E-02   -0.15258E-02  8424   0.181E-02 0.128E-02
CGA:   6    -0.675085702848E+03   -0.28741E-03   -0.26960E-03  8424   0.593E-03 0.894E-03
CGA:   7    -0.675085755544E+03   -0.52696E-04   -0.71243E-04  8424   0.340E-03 0.583E-03
CGA:   8    -0.675085760670E+03   -0.51255E-05   -0.20469E-04  8424   0.278E-03 0.305E-03
CGA:   9    -0.675085759711E+03    0.95861E-06   -0.14016E-04  8424   0.246E-03 0.260E-03
CGA:  10    -0.675085756395E+03    0.33156E-05   -0.10913E-04  8424   0.225E-03 0.234E-03
   7 F= -.67508576E+03 E0= -.67508576E+03  d E =0.771454E-02  mag=     3.0000
       N       E                     dE             d eps       ncg     rms          ort
SDA:   1    -0.675058776907E+03    0.26983E-01    0.00000E+00  8424   0.636E-01 0.000E+00
CGA:   2    -0.675076428408E+03   -0.17652E-01   -0.17471E-01  8424   0.296E-01 0.102E-02
CGA:   3    -0.675081868267E+03   -0.54399E-02   -0.53663E-02  8424   0.670E-02 0.104E-02
CGA:   4    -0.675082967377E+03   -0.10991E-02   -0.10580E-02  8424   0.153E-02 0.996E-03
CGA:   5    -0.675083180422E+03   -0.21305E-03   -0.20919E-03  8424   0.445E-03 0.736E-03
CGA:   6    -0.675083211103E+03   -0.30681E-04   -0.48534E-04  8424   0.265E-03 0.446E-03
CGA:   7    -0.675083213109E+03   -0.20058E-05   -0.15015E-04  8424   0.214E-03 0.236E-03
CGA:   8    -0.675083210774E+03    0.23345E-05   -0.10064E-04  8424   0.188E-03 0.200E-03
   8 F= -.67508321E+03 E0= -.67508321E+03  d E =0.254562E-02  mag=     3.0000
       N       E                     dE             d eps       ncg     rms          ort
SDA:   1    -0.675029711427E+03    0.53502E-01    0.00000E+00  8424   0.136E+00 0.000E+00
CGA:   2    -0.675067582642E+03   -0.37871E-01   -0.37676E-01  8424   0.624E-01 0.110E-02
CGA:   3    -0.675079169489E+03   -0.11587E-01   -0.11551E-01  8424   0.152E-01 0.488E-03
CGA:   4    -0.675081723023E+03   -0.25535E-02   -0.25113E-02  8424   0.361E-02 0.850E-03
CGA:   5    -0.675082287741E+03   -0.56472E-03   -0.54440E-03  8424   0.720E-03 0.802E-03
CGA:   6    -0.675082374836E+03   -0.87095E-04   -0.93377E-04  8424   0.331E-03 0.499E-03
CGA:   7    -0.675082389297E+03   -0.14462E-04   -0.25444E-04  8424   0.228E-03 0.267E-03
CGA:   8    -0.675082390897E+03   -0.15992E-05   -0.13522E-04  8424   0.194E-03 0.210E-03
   9 F= -.67508239E+03 E0= -.67508239E+03  d E =0.819878E-03  mag=     3.0000
       N       E                     dE             d eps       ncg     rms          ort
SDA:   1    -0.674993434940E+03    0.88954E-01    0.00000E+00  8424   0.266E+00 0.000E+00
CGA:   2    -0.675053463855E+03   -0.60029E-01   -0.59864E-01  8424   0.113E+00 0.140E-02
CGA:   3    -0.675076452401E+03   -0.22989E-01   -0.22937E-01  8424   0.332E-01 0.581E-03
CGA:   4    -0.675082096102E+03   -0.56437E-02   -0.56078E-02  8424   0.808E-02 0.746E-03
CGA:   5    -0.675083418351E+03   -0.13222E-02   -0.12961E-02  8424   0.150E-02 0.756E-03
CGA:   6    -0.675083676711E+03   -0.25836E-03   -0.24438E-03  8424   0.428E-03 0.571E-03
CGA:   7    -0.675083720149E+03   -0.43438E-04   -0.55365E-04  8424   0.240E-03 0.375E-03
CGA:   8    -0.675083725831E+03   -0.56818E-05   -0.16922E-04  8424   0.189E-03 0.210E-03
CGA:   9    -0.675083725592E+03    0.23912E-06   -0.10909E-04  8424   0.166E-03 0.176E-03
  10 F= -.67508373E+03 E0= -.67508373E+03  d E =-.133469E-02  mag=     3.0000
       N       E                     dE             d eps       ncg     rms          ort
SDA:   1    -0.675012375938E+03    0.71350E-01    0.00000E+00  8424   0.210E+00 0.000E+00
CGA:   2    -0.675064651605E+03   -0.52276E-01   -0.52154E-01  8424   0.996E-01 0.882E-03
CGA:   3    -0.675084107174E+03   -0.19456E-01   -0.19420E-01  8424   0.255E-01 0.470E-03
CGA:   4    -0.675088312146E+03   -0.42050E-02   -0.41805E-02  8424   0.609E-02 0.632E-03
CGA:   5    -0.675089313043E+03   -0.10009E-02   -0.98037E-03  8424   0.118E-02 0.680E-03
CGA:   6    -0.675089504866E+03   -0.19182E-03   -0.18498E-03  8424   0.376E-03 0.525E-03
CGA:   7    -0.675089539975E+03   -0.35109E-04   -0.48850E-04  8424   0.216E-03 0.350E-03
CGA:   8    -0.675089544258E+03   -0.42833E-05   -0.15171E-04  8424   0.174E-03 0.191E-03
CGA:   9    -0.675089543675E+03    0.58259E-06   -0.10134E-04  8424   0.154E-03 0.163E-03
  11 F= -.67508954E+03 E0= -.67508954E+03  d E =-.581808E-02  mag=     3.0000
       N       E                     dE             d eps       ncg     rms          ort
SDA:   1    -0.674982635474E+03    0.10691E+00    0.00000E+00  8424   0.330E+00 0.000E+00
CGA:   2    -0.675059946931E+03   -0.77311E-01   -0.77137E-01  8424   0.152E+00 0.146E-02
CGA:   3    -0.675090355794E+03   -0.30409E-01   -0.30363E-01  8424   0.408E-01 0.579E-03
CGA:   4    -0.675097134884E+03   -0.67791E-02   -0.67583E-02  8424   0.999E-02 0.540E-03
CGA:   5    -0.675098822557E+03   -0.16877E-02   -0.16675E-02  8424   0.197E-02 0.561E-03
CGA:   6    -0.675099195565E+03   -0.37301E-03   -0.35343E-03  8424   0.497E-03 0.505E-03
CGA:   7    -0.675099260556E+03   -0.64991E-04   -0.71578E-04  8424   0.255E-03 0.366E-03
CGA:   8    -0.675099273004E+03   -0.12448E-04   -0.22061E-04  8424   0.186E-03 0.212E-03
CGA:   9    -0.675099275854E+03   -0.28502E-05   -0.13020E-04  8424   0.160E-03 0.171E-03
  12 F= -.67509928E+03 E0= -.67509928E+03  d E =-.973218E-02  mag=     3.0000
       N       E                     dE             d eps       ncg     rms          ort
SDA:   1    -0.674984004270E+03    0.11527E+00    0.00000E+00  8424   0.352E+00 0.000E+00
CGA:   2    -0.675066772154E+03   -0.82768E-01   -0.82659E-01  8424   0.160E+00 0.930E-03
CGA:   3    -0.675098704391E+03   -0.31932E-01   -0.31859E-01  8424   0.432E-01 0.102E-02
CGA:   4    -0.675105949266E+03   -0.72449E-02   -0.72311E-02  8424   0.108E-01 0.396E-03
CGA:   5    -0.675107805393E+03   -0.18561E-02   -0.18469E-02  8424   0.214E-02 0.260E-03
CGA:   6    -0.675108220505E+03   -0.41511E-03   -0.39847E-03  8424   0.506E-03 0.361E-03
CGA:   7    -0.675108299864E+03   -0.79359E-04   -0.80160E-04  8424   0.225E-03 0.303E-03
CGA:   8    -0.675108317214E+03   -0.17350E-04   -0.23347E-04  8424   0.151E-03 0.176E-03
CGA:   9    -0.675108322367E+03   -0.51526E-05   -0.12545E-04  8424   0.129E-03 0.138E-03
  13 F= -.67510832E+03 E0= -.67510832E+03  d E =-.904651E-02  mag=     3.0000
       N       E                     dE             d eps       ncg     rms          ort
SDA:   1    -0.675036688467E+03    0.71629E-01    0.00000E+00  8424   0.182E+00 0.000E+00
CGA:   2    -0.675089216913E+03   -0.52528E-01   -0.52500E-01  8424   0.746E-01 0.169E-03
CGA:   3    -0.675103001394E+03   -0.13784E-01   -0.13748E-01  8424   0.183E-01 0.785E-03
CGA:   4    -0.675106273161E+03   -0.32718E-02   -0.32660E-02  8424   0.472E-02 0.158E-03
CGA:   5    -0.675107073824E+03   -0.80066E-03   -0.79797E-03  8424   0.101E-02 0.107E-03
CGA:   6    -0.675107260595E+03   -0.18677E-03   -0.17991E-03  8424   0.265E-03 0.227E-03
CGA:   7    -0.675107305657E+03   -0.45062E-04   -0.45798E-04  8424   0.142E-03 0.175E-03
CGA:   8    -0.675107321744E+03   -0.16087E-04   -0.18027E-04  8424   0.974E-04 0.108E-03
CGA:   9    -0.675107327922E+03   -0.61780E-05   -0.99791E-05  8424   0.866E-04 0.909E-04
  14 F= -.67510733E+03 E0= -.67510733E+03  d E =0.994445E-03  mag=     3.0000
       N       E                     dE             d eps       ncg     rms          ort
SDA:   1    -0.675054850482E+03    0.52471E-01    0.00000E+00  8424   0.121E+00 0.000E+00
CGA:   2    -0.675089506401E+03   -0.34656E-01   -0.34686E-01  8424   0.583E-01-0.215E-03
CGA:   3    -0.675099773988E+03   -0.10268E-01   -0.10261E-01  8424   0.127E-01 0.226E-03
CGA:   4    -0.675101929018E+03   -0.21550E-02   -0.21516E-02  8424   0.332E-02 0.165E-03
CGA:   5    -0.675102499333E+03   -0.57032E-03   -0.56745E-03  8424   0.714E-03 0.148E-03
CGA:   6    -0.675102642928E+03   -0.14359E-03   -0.13858E-03  8424   0.202E-03 0.142E-03
CGA:   7    -0.675102687581E+03   -0.44653E-04   -0.42232E-04  8424   0.111E-03 0.111E-03
CGA:   8    -0.675102707933E+03   -0.20352E-04   -0.18982E-04  8424   0.737E-04 0.744E-04
CGA:   9    -0.675102718052E+03   -0.10119E-04   -0.10719E-04  8424   0.658E-04 0.677E-04
CGA:  10    -0.675102726412E+03   -0.83600E-05   -0.92260E-05  8424   0.622E-04 0.636E-04
  15 F= -.67510273E+03 E0= -.67510273E+03  d E =0.460151E-02  mag=     3.0000
       N       E                     dE             d eps       ncg     rms          ort
SDA:   1    -0.675087044281E+03    0.15674E-01    0.00000E+00  8424   0.432E-01 0.000E+00
CGA:   2    -0.675099514441E+03   -0.12470E-01   -0.12468E-01  8424   0.175E-01 0.103E-04
CGA:   3    -0.675102805201E+03   -0.32908E-02   -0.32928E-02  8424   0.471E-02-0.719E-04
CGA:   4    -0.675103613806E+03   -0.80860E-03   -0.80744E-03  8424   0.119E-02 0.992E-04
CGA:   5    -0.675103802777E+03   -0.18897E-03   -0.18963E-03  8424   0.261E-03 0.147E-03
CGA:   6    -0.675103850735E+03   -0.47958E-04   -0.47736E-04  8424   0.107E-03 0.112E-03
CGA:   7    -0.675103870997E+03   -0.20262E-04   -0.21903E-04  8424   0.785E-04 0.912E-04
CGA:   8    -0.675103884579E+03   -0.13582E-04   -0.13146E-04  8424   0.587E-04 0.587E-04
CGA:   9    -0.675103892006E+03   -0.74263E-05   -0.83982E-05  8424   0.550E-04 0.559E-04
  16 F= -.67510389E+03 E0= -.67510389E+03  d E =-.116559E-02  mag=     3.0000
       N       E                     dE             d eps       ncg     rms          ort
SDA:   1    -0.675053456331E+03    0.50428E-01    0.00000E+00  8424   0.135E+00 0.000E+00
CGA:   2    -0.675096836924E+03   -0.43381E-01   -0.43389E-01  8424   0.490E-01-0.548E-04
CGA:   3    -0.675106034498E+03   -0.91976E-02   -0.92003E-02  8424   0.127E-01-0.135E-03
CGA:   4    -0.675108219167E+03   -0.21847E-02   -0.21843E-02  8424   0.308E-02 0.755E-04
CGA:   5    -0.675108726982E+03   -0.50781E-03   -0.50841E-03  8424   0.694E-03 0.150E-03
CGA:   6    -0.675108868044E+03   -0.14106E-03   -0.13826E-03  8424   0.216E-03 0.125E-03
CGA:   7    -0.675108924170E+03   -0.56126E-04   -0.52470E-04  8424   0.123E-03 0.993E-04
CGA:   8    -0.675108958097E+03   -0.33927E-04   -0.32729E-04  8424   0.929E-04 0.107E-03
CGA:   9    -0.675108975284E+03   -0.17187E-04   -0.16659E-04  8424   0.653E-04 0.654E-04
CGA:  10    -0.675108987701E+03   -0.12417E-04   -0.11826E-04  8424   0.604E-04 0.613E-04
CGA:  11    -0.675108998097E+03   -0.10396E-04   -0.10393E-04  8424   0.583E-04 0.591E-04
CGA:  12    -0.675109008377E+03   -0.10280E-04   -0.10156E-04  8424   0.569E-04 0.575E-04
CGA:  13    -0.675109018375E+03   -0.99977E-05   -0.99006E-05  8424   0.559E-04 0.564E-04
  17 F= -.67510902E+03 E0= -.67510902E+03  d E =-.512637E-02  mag=     3.0000
       N       E                     dE             d eps       ncg     rms          ort
SDA:   1    -0.675086571059E+03    0.22437E-01    0.00000E+00  8424   0.700E-01 0.000E+00
CGA:   2    -0.675105007624E+03   -0.18437E-01   -0.18423E-01  8424   0.348E-01 0.138E-03
CGA:   3    -0.675111652751E+03   -0.66451E-02   -0.66438E-02  8424   0.820E-02 0.913E-04
CGA:   4    -0.675113020469E+03   -0.13677E-02   -0.13671E-02  8424   0.210E-02-0.593E-04
CGA:   5    -0.675113391623E+03   -0.37115E-03   -0.37119E-03  8424   0.520E-03-0.301E-04
CGA:   6    -0.675113505997E+03   -0.11437E-03   -0.11265E-03  8424   0.190E-03 0.401E-04
CGA:   7    -0.675113566456E+03   -0.60459E-04   -0.56242E-04  8424   0.134E-03 0.433E-04
CGA:   8    -0.675113643183E+03   -0.76727E-04   -0.64539E-04  8424   0.156E-03 0.568E-04
CGA:   9    -0.675113783425E+03   -0.14024E-03   -0.11117E-03  8424   0.235E-03 0.893E-04
CGA:  10    -0.675113858733E+03   -0.75308E-04   -0.80343E-04  8424   0.202E-03-0.384E-04
CGA:  11    -0.675113940468E+03   -0.81735E-04   -0.87362E-04  8424   0.233E-03-0.206E-04
CGA:  12    -0.675114001910E+03   -0.61443E-04   -0.28683E-04  8424   0.171E-02-0.206E-03
CGA:  13    -0.675114405438E+03   -0.40353E-03   -0.40429E-03  8424   0.316E-03 0.343E-05
CGA:  14    -0.675114516828E+03   -0.11139E-03   -0.11160E-03  8424   0.232E-03 0.299E-05
CGA:  15    -0.675114621329E+03   -0.10450E-03   -0.10716E-03  8424   0.215E-03-0.564E-04
CGA:  16    -0.675114702423E+03   -0.81094E-04   -0.85948E-04  8424   0.316E-03-0.448E-04
CGA:  17    -0.675113584290E+03    0.11181E-02   -0.61397E-03  8424   0.112E-01-0.846E-03
CGA:  18    -0.675115280576E+03   -0.16963E-02   -0.17279E-02  8424   0.176E-02-0.327E-05
CGA:  19    -0.675115903531E+03   -0.62295E-03   -0.60894E-03  8424   0.633E-03-0.366E-04
CGA:  20    -0.675116205898E+03   -0.30237E-03   -0.29242E-03  8424   0.440E-03-0.421E-04
CGA:  21    -0.675116308567E+03   -0.10267E-03   -0.10369E-03  8424   0.160E-03 0.194E-05
CGA:  22    -0.675116408956E+03   -0.10039E-03   -0.94803E-04  8424   0.171E-03-0.637E-04
CGA:  23    -0.675116474763E+03   -0.65806E-04   -0.54769E-04  8424   0.251E-03-0.805E-04
CGA:  24    -0.675116562934E+03   -0.88171E-04   -0.90725E-04  8424   0.652E-03-0.158E-03
CGA:  25    -0.675116728362E+03   -0.16543E-03   -0.14720E-03  8424   0.231E-03-0.423E-04
CGA:  26    -0.675116817258E+03   -0.88896E-04   -0.79283E-04  8424   0.175E-03-0.349E-04
CGA:  27    -0.675116897003E+03   -0.79745E-04   -0.76307E-04  8424   0.110E-03-0.303E-04
CGA:  28    -0.675114468448E+03    0.24286E-02   -0.12842E-02  8424   0.175E-01-0.821E-03
CGA:  29    -0.675116601485E+03   -0.21330E-02   -0.24811E-02  8424   0.192E-02 0.419E-03
CGA:  30    -0.675116263014E+03    0.33847E-03   -0.62508E-03  8424   0.321E-02 0.483E-03
CGA:  31    -0.675099053425E+03    0.17210E-01   -0.49194E-03  8424   0.548E-01 0.745E-02
CGA:  32    -0.675001862326E+03    0.97191E-01   -0.12886E-01  8424   0.359E+00 0.499E-01
CGA:  33    -0.674407145612E+03    0.59472E+00   -0.87345E-01  8424   0.231E+01 0.308E+00
CGA:  34    -0.671469968336E+03    0.29372E+01   -0.57558E+00  8424   0.939E+01 0.141E+01
CGA:  35    -0.666102059863E+03    0.53679E+01   -0.28337E+01  8424   0.215E+02 0.567E+01
CGA:  36    -0.663074341991E+03    0.30277E+01   -0.76078E+01  8424   0.226E+02 0.852E+01
CGA:  37    -0.656017212211E+03    0.70571E+01   -0.87788E+01  8424   0.304E+02 0.193E+02
CGA:  38    -0.659309803913E+03   -0.32926E+01   -0.11321E+02  8424   0.302E+02 0.155E+02
CGA:  39    -0.665099284770E+03   -0.57895E+01   -0.12464E+02  8424   0.171E+02 0.112E+02
CGA:  40    -0.670479919907E+03   -0.53806E+01   -0.89741E+01  8424   0.606E+01 0.554E+01
CGA:  41    -0.672405456683E+03   -0.19255E+01   -0.27329E+01  8424   0.370E+01 0.344E+01
CGA:  42    -0.673921921433E+03   -0.15165E+01   -0.16728E+01  8424   0.263E+01 0.403E+00
CGA:  43    -0.674320279785E+03   -0.39836E+00   -0.83707E+00  8424   0.109E+01 0.388E+00
CGA:  44    -0.674826652236E+03   -0.50637E+00   -0.50671E+00  8424   0.263E+00-0.411E-01
CGA:  45    -0.674932000372E+03   -0.10535E+00   -0.11097E+00  8424   0.162E+00 0.443E-02
CGA:  46    -0.674985332960E+03   -0.53333E-01   -0.59871E-01  8424   0.109E+00 0.201E-01
CGA:  47    -0.675029995430E+03   -0.44662E-01   -0.48157E-01  8424   0.638E-01 0.214E-01
CGA:  48    -0.675058350406E+03   -0.28355E-01   -0.30496E-01  8424   0.439E-01 0.117E-01
CGA:  49    -0.675076951595E+03   -0.18601E-01   -0.18723E-01  8424   0.286E-01 0.679E-02
CGA:  50    -0.675088123051E+03   -0.11171E-01   -0.10708E-01  8424   0.196E-01 0.255E-02
CGA:  51    -0.675094790482E+03   -0.66674E-02   -0.62827E-02  8424   0.171E-01 0.141E-02
CGA:  52    -0.675098937763E+03   -0.41473E-02   -0.39443E-02  8424   0.132E-01 0.140E-02
CGA:  53    -0.675102148717E+03   -0.32110E-02   -0.29822E-02  8424   0.116E-01 0.813E-03
CGA:  54    -0.675104625751E+03   -0.24770E-02   -0.21988E-02  8424   0.946E-02 0.445E-03
CGA:  55    -0.675106536714E+03   -0.19110E-02   -0.16728E-02  8424   0.862E-02 0.216E-03
CGA:  56    -0.675108059570E+03   -0.15229E-02   -0.13628E-02  8424   0.751E-02 0.308E-03
CGA:  57    -0.675109247131E+03   -0.11876E-02   -0.10979E-02  8424   0.646E-02 0.360E-03
CGA:  58    -0.675110280257E+03   -0.10331E-02   -0.95819E-03  8424   0.594E-02 0.299E-03
CGA:  59    -0.675111196754E+03   -0.91650E-03   -0.83149E-03  8424   0.525E-02 0.196E-03
CGA:  60    -0.675111975242E+03   -0.77849E-03   -0.69769E-03  8424   0.480E-02 0.107E-03
CGA:  61    -0.675112638199E+03   -0.66296E-03   -0.60807E-03  8424   0.446E-02 0.120E-03
CGA:  62    -0.675113179723E+03   -0.54152E-03   -0.52374E-03  8424   0.396E-02 0.183E-03
CGA:  63    -0.675113637525E+03   -0.45780E-03   -0.46171E-03  8424   0.367E-02 0.207E-03
CGA:  64    -0.675114069173E+03   -0.43165E-03   -0.43197E-03  8424   0.349E-02 0.177E-03
CGA:  65    -0.675114477982E+03   -0.40881E-03   -0.39078E-03  8424   0.317E-02 0.926E-04
CGA:  66    -0.675114845266E+03   -0.36728E-03   -0.33496E-03  8424   0.291E-02 0.592E-05
CGA:  67    -0.675115166550E+03   -0.32128E-03   -0.28901E-03  8424   0.271E-02-0.222E-04
CGA:  68    -0.675115436043E+03   -0.26949E-03   -0.24996E-03  8424   0.245E-02 0.760E-05
CGA:  69    -0.675115661646E+03   -0.22560E-03   -0.22031E-03  8424   0.224E-02 0.478E-04
CGA:  70    -0.675115865809E+03   -0.20416E-03   -0.20443E-03  8424   0.211E-02 0.607E-04
CGA:  71    -0.675116063577E+03   -0.19777E-03   -0.19279E-03  8424   0.195E-02 0.291E-04
SDA:  72    -0.675116253503E+03   -0.18993E-03   -0.17374E-03  8424   0.178E-02-0.361E-04
CGA:  73    -0.675093751369E+03    0.22502E-01   -0.31698E-02  8424   0.148E+00-0.264E+00
CGA:  74    -0.675115650323E+03   -0.21899E-01   -0.43052E-01  8424   0.825E-02 0.291E-02
CGA:  75    -0.675117775449E+03   -0.21251E-02   -0.20096E-02  8424   0.341E-02-0.147E-02
CGA:  76    -0.675118435261E+03   -0.65981E-03   -0.81177E-03  8424   0.253E-03 0.498E-03
CGA:  77    -0.675118594153E+03   -0.15889E-03   -0.15770E-03  8424   0.177E-03 0.187E-05
CGA:  78    -0.675118678750E+03   -0.84596E-04   -0.84355E-04  8424   0.154E-03-0.809E-04
CGA:  79    -0.675118684223E+03   -0.54736E-05   -0.10830E-04  8424   0.506E-04 0.152E-04
  18 F= -.67511868E+03 E0= -.67511868E+03  d E =-.966585E-02  mag=     3.0000
       N       E                     dE             d eps       ncg     rms          ort
SDA:   1    -0.674936150883E+03    0.18253E+00    0.00000E+00  8424   0.493E+00 0.000E+00
CGA:   2    -0.675065869538E+03   -0.12972E+00   -0.12972E+00  8424   0.242E+00-0.811E-04
CGA:   3    -0.675111330108E+03   -0.45461E-01   -0.45481E-01  8424   0.583E-01 0.853E-04
CGA:   4    -0.675121011029E+03   -0.96809E-02   -0.96789E-02  8424   0.141E-01-0.196E-04
CGA:   5    -0.675123468057E+03   -0.24570E-02   -0.24386E-02  8424   0.299E-02-0.814E-04
CGA:   6    -0.675124119598E+03   -0.65154E-03   -0.63856E-03  8424   0.773E-03-0.725E-04
CGA:   7    -0.675124310307E+03   -0.19071E-03   -0.18534E-03  8424   0.293E-03-0.384E-04
CGA:   8    -0.675124406668E+03   -0.96361E-04   -0.93274E-04  8424   0.192E-03-0.695E-04
CGA:   9    -0.675124384473E+03    0.22196E-04   -0.12774E-03  8424   0.108E-02-0.303E-03
CGA:  10    -0.675124587910E+03   -0.20344E-03   -0.19327E-03  8424   0.174E-03-0.457E-04
CGA:  11    -0.675124653379E+03   -0.65470E-04   -0.10171E-03  8424   0.373E-03-0.165E-03
CGA:  12    -0.675124727406E+03   -0.74027E-04   -0.71713E-04  8424   0.506E-04-0.112E-04
CGA:  13    -0.675124767976E+03   -0.40571E-04    0.16975E-03  8424   0.309E-04-0.101E-04
CGA:  14    -0.675124817386E+03   -0.49409E-04    0.31223E-05  8424   0.312E-04 0.815E-05
CGA:  15    -0.675124904732E+03   -0.87347E-04    0.42042E-05  8424   0.223E-04 0.162E-04
CGA:  16    -0.675124933339E+03   -0.28606E-04    0.68551E-05  8424   0.249E-04-0.204E-05
CGA:  17    -0.675124988385E+03   -0.55047E-04    0.21052E-05  8424   0.301E-04 0.649E-05
CGA:  18    -0.675125084364E+03   -0.95979E-04    0.33214E-05  8424   0.191E-04 0.237E-04
CGA:  19    -0.675125108561E+03   -0.24197E-04    0.60671E-05  8424   0.219E-04 0.106E-05
CGA:  20    -0.675125155562E+03   -0.47001E-04    0.28170E-05  8424   0.242E-04 0.192E-05
CGA:  21    -0.675125231419E+03   -0.75857E-04    0.19165E-05  8424   0.188E-04 0.195E-04
CGA:  22    -0.675125254806E+03   -0.23387E-04    0.62208E-05  8424   0.131E-04 0.546E-05
CGA:  23    -0.675125288712E+03   -0.33905E-04    0.21101E-05  8424   0.195E-04 0.120E-05
CGA:  24    -0.675125354424E+03   -0.65712E-04    0.14136E-05  8424   0.201E-04 0.128E-04
CGA:  25    -0.675125374179E+03   -0.19755E-04    0.15204E-04  8424   0.117E-04 0.536E-05
CGA:  26    -0.675125403655E+03   -0.29476E-04    0.18637E-05  8424   0.160E-04 0.917E-06
CGA:  27    -0.675125452653E+03   -0.48998E-04    0.12903E-05  8424   0.175E-04 0.919E-05
CGA:  28    -0.675125469606E+03   -0.16954E-04    0.14292E-04  8424   0.104E-04 0.393E-05
CGA:  29    -0.675125497492E+03   -0.27886E-04    0.13822E-05  8424   0.807E-05 0.401E-05
CGA:  30    -0.675125527701E+03   -0.30209E-04    0.89255E-06  8424   0.952E-05 0.860E-05
CGA:  31    -0.675125543147E+03   -0.15446E-04    0.17361E-05  8424   0.813E-05 0.325E-05
CGA:  32    -0.675125566964E+03   -0.23817E-04    0.11895E-05  8424   0.681E-05 0.648E-05
CGA:  33    -0.675125580029E+03   -0.13066E-04    0.91764E-06  8424   0.850E-05 0.242E-05
CGA:  34    -0.675125608782E+03   -0.28753E-04    0.10276E-05  8424   0.672E-05 0.814E-05
CGA:  35    -0.675125619158E+03   -0.10376E-04    0.13509E-05  8424   0.613E-05 0.265E-05
CGA:  36    -0.675125642137E+03   -0.22979E-04    0.68746E-06  8424   0.644E-05 0.680E-05
CGA:  37    -0.675125652383E+03   -0.10245E-04    0.12179E-05  8424   0.632E-05 0.224E-05
CGA:  38    -0.675125674692E+03   -0.22309E-04    0.71037E-06  8424   0.676E-05 0.628E-05
CGA:  39    -0.675125683390E+03   -0.86976E-05    0.20486E-05  8424   0.627E-05 0.180E-05
  19 F= -.67512568E+03 E0= -.67512568E+03  d E =-.699917E-02  mag=     3.0000
       N       E                     dE             d eps       ncg     rms          ort
SDA:   1    -0.674953745570E+03    0.17193E+00    0.00000E+00  8424   0.476E+00 0.000E+00
CGA:   2    -0.675064216166E+03   -0.11047E+00   -0.11047E+00  8424   0.229E+00-0.949E-04
CGA:   3    -0.675110573329E+03   -0.46357E-01   -0.46338E-01  8424   0.593E-01-0.150E-03
CGA:   4    -0.675120174908E+03   -0.96016E-02   -0.95887E-02  8424   0.143E-01-0.717E-04
CGA:   5    -0.675122696370E+03   -0.25215E-02   -0.25121E-02  8424   0.299E-02-0.516E-04
CGA:   6    -0.675123319983E+03   -0.62361E-03   -0.61954E-03  8424   0.746E-03-0.284E-04
CGA:   7    -0.675123506243E+03   -0.18626E-03   -0.17911E-03  8424   0.271E-03-0.685E-04
CGA:   8    -0.675123596907E+03   -0.90664E-04   -0.11292E-03  8424   0.376E-03-0.191E-03
CGA:   9    -0.675123674316E+03   -0.77409E-04   -0.69953E-04  8424   0.804E-04-0.462E-04
CGA:  10    -0.675123740294E+03   -0.65978E-04    0.31638E-04  8424   0.377E-04-0.110E-04
CGA:  11    -0.675123804854E+03   -0.64560E-04    0.28766E-05  8424   0.197E-04 0.631E-05
CGA:  12    -0.675123876722E+03   -0.71868E-04    0.10874E-05  8424   0.132E-04 0.127E-04
CGA:  13    -0.675123913333E+03   -0.36611E-04    0.72986E-06  8424   0.102E-04 0.542E-05
CGA:  14    -0.675123975951E+03   -0.62618E-04    0.44884E-06  8424   0.915E-05 0.115E-04
CGA:  15    -0.675124010704E+03   -0.34753E-04    0.33832E-06  8424   0.724E-05 0.606E-05
CGA:  16    -0.675124044144E+03   -0.33440E-04    0.21184E-06  8424   0.691E-05 0.617E-05
CGA:  17    -0.675124077361E+03   -0.33217E-04    0.19299E-06  8424   0.702E-05 0.588E-05
CGA:  18    -0.675124108760E+03   -0.31399E-04    0.21336E-06  8424   0.782E-05 0.514E-05
CGA:  19    -0.675124141349E+03   -0.32588E-04    0.25817E-06  8424   0.102E-04 0.340E-05
CGA:  20    -0.675124213804E+03   -0.72455E-04    0.39869E-06  8424   0.695E-05 0.138E-04
CGA:  21    -0.675124242379E+03   -0.28575E-04    0.23343E-06  8424   0.828E-05 0.370E-05
CGA:  22    -0.675124272935E+03   -0.30555E-04    0.31673E-06  8424   0.113E-04 0.144E-05
CGA:  23    -0.675124341375E+03   -0.68440E-04    0.34163E-06  8424   0.934E-05 0.127E-04
CGA:  24    -0.675124366685E+03   -0.25310E-04    0.52959E-06  8424   0.127E-04-0.626E-06
CGA:  25    -0.675124431665E+03   -0.64980E-04    0.28590E-06  8424   0.129E-04 0.114E-04
CGA:  26    -0.675124458687E+03   -0.27022E-04    0.10507E-05  8424   0.172E-04-0.536E-05
CGA:  27    -0.675124517481E+03   -0.58795E-04    0.22455E-06  8424   0.216E-04 0.937E-05
CGA:  28    -0.675124539412E+03   -0.21931E-04    0.73826E-05  8424   0.270E-04-0.152E-04
CGA:  29    -0.675124565285E+03   -0.25873E-04    0.11070E-04  8424   0.330E-04-0.212E-04
CGA:  30    -0.675124520337E+03    0.44948E-04   -0.30202E-04  8424   0.631E-03-0.131E-03
CGA:  31    -0.675124644723E+03   -0.12439E-03   -0.11288E-03  8424   0.120E-04-0.609E-04
CGA:  32    -0.675124663983E+03   -0.19259E-04    0.13061E-05  8424   0.119E-04-0.239E-05
CGA:  33    -0.675124713119E+03   -0.49136E-04    0.27711E-06  8424   0.733E-05 0.819E-05
CGA:  34    -0.675124738761E+03   -0.25641E-04    0.33950E-06  8424   0.912E-05-0.510E-06
CGA:  35    -0.675124788202E+03   -0.49442E-04    0.21391E-06  8424   0.911E-05 0.823E-05
CGA:  36    -0.675124804992E+03   -0.16789E-04    0.10425E-05  8424   0.112E-04-0.294E-05
CGA:  37    -0.675124851686E+03   -0.46694E-04    0.18080E-06  8424   0.127E-04 0.732E-05
CGA:  38    -0.675124875654E+03   -0.23968E-04    0.13883E-05  8424   0.150E-04-0.707E-05
CGA:  39    -0.675124889207E+03   -0.13554E-04    0.10556E-04  8424   0.177E-04-0.972E-05
CGA:  40    -0.675124914484E+03   -0.25276E-04    0.31927E-05  8424   0.206E-04-0.126E-04
CGA:  41    -0.675124915789E+03   -0.13053E-05   -0.12930E-04  8424   0.126E-03-0.431E-04
CGA:  42    -0.675124958902E+03   -0.43113E-04   -0.36477E-04  8424   0.608E-04-0.808E-04
CGA:  43    -0.675124970086E+03   -0.11184E-04   -0.11082E-04  8424   0.341E-05-0.545E-06
CGA:  44    -0.675124989347E+03   -0.19261E-04    0.87156E-07  8424   0.334E-05 0.304E-05
CGA:  45    -0.675125007322E+03   -0.17975E-04    0.92059E-07  8424   0.348E-05 0.257E-05
CGA:  46    -0.675125023815E+03   -0.16493E-04    0.11110E-06  8424   0.381E-05 0.226E-05
CGA:  47    -0.675125041697E+03   -0.17882E-04    0.12323E-06  8424   0.460E-05 0.167E-05
CGA:  48    -0.675125078737E+03   -0.37040E-04    0.17470E-06  8424   0.358E-05 0.636E-05
CGA:  49    -0.675125093856E+03   -0.15120E-04    0.13171E-06  8424   0.419E-05 0.168E-05
CGA:  50    -0.675125128967E+03   -0.35111E-04    0.15941E-06  8424   0.336E-05 0.595E-05
CGA:  51    -0.675125144674E+03   -0.15707E-04    0.10930E-06  8424   0.378E-05 0.170E-05
CGA:  52    -0.675125158586E+03   -0.13912E-04    0.16400E-06  8424   0.452E-05 0.107E-05
CGA:  53    -0.675125191518E+03   -0.32932E-04    0.15027E-06  8424   0.385E-05 0.563E-05
CGA:  54    -0.675125206291E+03   -0.14773E-04    0.15929E-06  8424   0.453E-05 0.737E-06
CGA:  55    -0.675125236645E+03   -0.30354E-04    0.14188E-06  8424   0.408E-05 0.529E-05
CGA:  56    -0.675125249304E+03   -0.12659E-04    0.22062E-06  8424   0.470E-05 0.280E-06
CGA:  57    -0.675125277964E+03   -0.28660E-04    0.12976E-06  8424   0.448E-05 0.493E-05
CGA:  58    -0.675125290753E+03   -0.12790E-04    0.26963E-06  8424   0.503E-05-0.317E-06
CGA:  59    -0.675125317036E+03   -0.26282E-04    0.12280E-06  8424   0.501E-05 0.458E-05
CGA:  60    -0.675125328803E+03   -0.11767E-04    0.39478E-06  8424   0.546E-05-0.100E-05
CGA:  61    -0.675125353603E+03   -0.24800E-04    0.11302E-06  8424   0.554E-05 0.425E-05
CGA:  62    -0.675125364424E+03   -0.10821E-04    0.57822E-06  8424   0.583E-05-0.165E-05
CGA:  63    -0.675125386919E+03   -0.22495E-04    0.11049E-06  8424   0.589E-05 0.396E-05
CGA:  64    -0.675125398248E+03   -0.11330E-04    0.62799E-06  8424   0.598E-05-0.206E-05
CGA:  65    -0.675125419712E+03   -0.21464E-04    0.10436E-06  8424   0.591E-05 0.373E-05
CGA:  66    -0.675125428609E+03   -0.88973E-05    0.96763E-06  8424   0.582E-05-0.213E-05
  20 F= -.67512543E+03 E0= -.67512543E+03  d E =0.254780E-03  mag=     3.0000
       N       E                     dE             d eps       ncg     rms          ort
SDA:   1    -0.675014725674E+03    0.11069E+00    0.00000E+00  8424   0.293E+00 0.000E+00
CGA:   2    -0.675088023931E+03   -0.73298E-01   -0.73307E-01  8424   0.145E+00 0.331E-04
CGA:   3    -0.675115917233E+03   -0.27893E-01   -0.27891E-01  8424   0.357E-01-0.365E-04
CGA:   4    -0.675121808040E+03   -0.58908E-02   -0.58935E-02  8424   0.869E-02 0.991E-05
CGA:   5    -0.675123286737E+03   -0.14787E-02   -0.14860E-02  8424   0.180E-02 0.430E-04
CGA:   6    -0.675123659486E+03   -0.37275E-03   -0.37438E-03  8424   0.432E-03 0.131E-04
CGA:   7    -0.675123752311E+03   -0.92825E-04   -0.94719E-04  8424   0.134E-03 0.181E-04
CGA:   8    -0.675123778508E+03   -0.26197E-04   -0.29405E-04  8424   0.407E-04 0.304E-04
CGA:   9    -0.675123782508E+03   -0.39997E-05   -0.78981E-05  8424   0.184E-04 0.254E-04
  21 F= -.67512378E+03 E0= -.67512378E+03  d E =0.164610E-02  mag=     3.0000
       N       E                     dE             d eps       ncg     rms          ort
SDA:   1    -0.675076492316E+03    0.47286E-01    0.00000E+00  8424   0.134E+00 0.000E+00
CGA:   2    -0.675109917515E+03   -0.33425E-01   -0.33432E-01  8424   0.626E-01 0.130E-03
CGA:   3    -0.675122012656E+03   -0.12095E-01   -0.12090E-01  8424   0.162E-01-0.603E-04
CGA:   4    -0.675124709972E+03   -0.26973E-02   -0.27019E-02  8424   0.399E-02 0.352E-04
CGA:   5    -0.675125368012E+03   -0.65804E-03   -0.66918E-03  8424   0.764E-03 0.978E-04
CGA:   6    -0.675125509171E+03   -0.14116E-03   -0.14817E-03  8424   0.168E-03 0.818E-04
CGA:   7    -0.675125532987E+03   -0.23815E-04   -0.30527E-04  8424   0.521E-04 0.629E-04
CGA:   8    -0.675125533404E+03   -0.41760E-06   -0.75301E-05  8424   0.272E-04 0.444E-04
  22 F= -.67512553E+03 E0= -.67512553E+03  d E =-.175090E-02  mag=     3.0000
       N       E                     dE             d eps       ncg     rms          ort
SDA:   1    -0.675109908031E+03    0.15625E-01    0.00000E+00  8424   0.470E-01 0.000E+00
CGA:   2    -0.675120986368E+03   -0.11078E-01   -0.11079E-01  8424   0.218E-01 0.714E-04
CGA:   3    -0.675125288009E+03   -0.43016E-02   -0.43081E-02  8424   0.586E-02 0.126E-03
CGA:   4    -0.675126253017E+03   -0.96501E-03   -0.97008E-03  8424   0.138E-02 0.620E-04
CGA:   5    -0.675126489300E+03   -0.23628E-03   -0.23801E-03  8424   0.273E-03 0.241E-04
CGA:   6    -0.675126538170E+03   -0.48869E-04   -0.50895E-04  8424   0.591E-04 0.371E-04
CGA:   7    -0.675126542996E+03   -0.48262E-05   -0.84605E-05  8424   0.223E-04 0.334E-04
  23 F= -.67512654E+03 E0= -.67512654E+03  d E =-.100959E-02  mag=     3.0000
       N       E                     dE             d eps       ncg     rms          ort
SDA:   1    -0.675090857794E+03    0.35680E-01    0.00000E+00  8424   0.890E-01 0.000E+00
CGA:   2    -0.675119643151E+03   -0.28785E-01   -0.28793E-01  8424   0.354E-01-0.752E-04
CGA:   3    -0.675125814368E+03   -0.61712E-02   -0.61814E-02  8424   0.824E-02 0.188E-03
CGA:   4    -0.675127285053E+03   -0.14707E-02   -0.14701E-02  8424   0.209E-02-0.147E-04
CGA:   5    -0.675127645541E+03   -0.36049E-03   -0.35874E-03  8424   0.470E-03-0.354E-04
CGA:   6    -0.675127735449E+03   -0.89907E-04   -0.90386E-04  8424   0.111E-03 0.199E-04
CGA:   7    -0.675127760917E+03   -0.25469E-04   -0.25449E-04  8424   0.392E-04 0.175E-04
CGA:   8    -0.675127770279E+03   -0.93614E-05   -0.94954E-05  8424   0.165E-04 0.147E-04
  24 F= -.67512777E+03 E0= -.67512777E+03  d E =-.122728E-02  mag=     3.0000
       N       E                     dE             d eps       ncg     rms          ort
SDA:   1    -0.675120169115E+03    0.75918E-02    0.00000E+00  8424   0.236E-01 0.000E+00
CGA:   2    -0.675126852658E+03   -0.66835E-02   -0.66778E-02  8424   0.117E-01 0.836E-04
CGA:   3    -0.675128976556E+03   -0.21239E-02   -0.21223E-02  8424   0.259E-02-0.436E-04
CGA:   4    -0.675129406459E+03   -0.42990E-03   -0.42894E-03  8424   0.658E-03-0.193E-04
CGA:   5    -0.675129516615E+03   -0.11016E-03   -0.11109E-03  8424   0.138E-03 0.209E-04
CGA:   6    -0.675129540992E+03   -0.24377E-04   -0.25355E-04  8424   0.344E-04 0.285E-04
CGA:   7    -0.675129546691E+03   -0.56997E-05   -0.66135E-05  8424   0.155E-04 0.179E-04
  25 F= -.67512955E+03 E0= -.67512955E+03  d E =-.177641E-02  mag=     3.0000
       N       E                     dE             d eps       ncg     rms          ort
SDA:   1    -0.675112959250E+03    0.16582E-01    0.00000E+00  8424   0.441E-01 0.000E+00
CGA:   2    -0.675127359805E+03   -0.14401E-01   -0.14389E-01  8424   0.172E-01 0.908E-04
CGA:   3    -0.675130392222E+03   -0.30324E-02   -0.30308E-02  8424   0.411E-02-0.477E-04
CGA:   4    -0.675131101423E+03   -0.70920E-03   -0.71065E-03  8424   0.103E-02 0.395E-04
CGA:   5    -0.675131264613E+03   -0.16319E-03   -0.16648E-03  8424   0.201E-03 0.691E-04
CGA:   6    -0.675131300419E+03   -0.35806E-04   -0.37364E-04  8424   0.520E-04 0.498E-04
CGA:   7    -0.675131306080E+03   -0.56611E-05   -0.83056E-05  8424   0.255E-04 0.350E-04
  26 F= -.67513131E+03 E0= -.67513131E+03  d E =-.175939E-02  mag=     3.0000
