       N       E                     dE             d eps       ncg     rms          ort
DAV:   1     0.828164059695E+04    0.82816E+04   -0.24668E+05  8424   0.238E+03
DAV:   2     0.916515231109E+03   -0.73651E+04   -0.69163E+04  8424   0.658E+02
DAV:   3    -0.678846478319E+03   -0.15954E+04   -0.14023E+04  8424   0.282E+02
DAV:   4    -0.835400125076E+03   -0.15655E+03   -0.15378E+03  8424   0.858E+01
DAV:   5    -0.837941057024E+03   -0.25409E+01   -0.25288E+01  8424   0.122E+01
SDA:   6    -0.211062357985E+03    0.62688E+03   -0.25288E+01  8424   0.888E+04 0.000E+00
CGA:   7    -0.365677651765E+02    0.17449E+03   -0.48883E+03  8424   0.274E+05-0.486E+04
CGA:   8     0.232098834886E+04    0.23576E+04   -0.16675E+04  8424   0.206E+06-0.738E+05
CGA:   9     0.570151843167E+04    0.33805E+04   -0.16967E+05  8424   0.462E+05-0.276E+05
CGA:  10     0.451134407241E+04   -0.11902E+04   -0.24178E+04  8424   0.985E+05-0.969E+05
CGA:  11     0.561821777651E+04    0.11069E+04   -0.67768E+04  8424   0.417E+05-0.318E+05
CGA:  12     0.235763922314E+04   -0.32606E+04   -0.15231E+04  8424   0.913E+05-0.169E+06
CGA:  13     0.532612595697E+04    0.29685E+04   -0.57670E+04  8424   0.244E+05-0.145E+05
CGA:  14     0.282855709841E+04   -0.24976E+04   -0.84164E+03  8424   0.338E+05-0.440E+05
CGA:  15     0.421717437297E+04    0.13886E+04   -0.14033E+04  8424   0.243E+06-0.139E+06
CGA:  16     0.474718574104E+04    0.53001E+03   -0.16351E+05  8424   0.220E+05-0.185E+05
CGA:  17     0.209312558236E+04   -0.26541E+04   -0.69695E+03  8424   0.138E+06 0.196E+06
CGA:  18     0.491106657763E+04    0.28179E+04   -0.79353E+04  8424   0.197E+05-0.126E+05
CGA:  19    -0.874096362042E+01   -0.49198E+04   -0.58189E+03  8424   0.216E+05-0.674E+05
CGA:  20    -0.220231534970E+03   -0.21149E+03   -0.71394E+03  8424   0.208E+05-0.230E+05
CGA:  21    -0.356808631222E+03   -0.13658E+03   -0.68799E+03  8424   0.119E+05-0.141E+05
CGA:  22    -0.589228141148E+03   -0.23242E+03   -0.28184E+03  8424   0.104E+04-0.195E+04
CGA:  23    -0.614200866017E+03   -0.24973E+02   -0.19038E+02  8424   0.245E+03 0.332E+03
CGA:  24    -0.617753106326E+03   -0.35522E+01   -0.85043E+01  8424   0.688E+03-0.347E+03
CGA:  25    -0.623122664324E+03   -0.53696E+01   -0.35185E+02  8424   0.268E+03-0.518E+02
CGA:  26    -0.632370083435E+03   -0.92474E+01   -0.50372E+01  8424   0.188E+03 0.235E+03
CGA:  27    -0.638255126312E+03   -0.58850E+01   -0.30840E+01  8424   0.762E+02 0.113E+03
CGA:  28    -0.643314905034E+03   -0.50598E+01   -0.39342E+01  8424   0.108E+03 0.102E+02
CGA:  29    -0.660068704174E+03   -0.16754E+02   -0.16804E+02  8424   0.528E+02 0.569E+00
CGA:  30    -0.666007386037E+03   -0.59387E+01   -0.57802E+01  8424   0.404E+02 0.176E+01
CGA:  31    -0.667902595591E+03   -0.18952E+01   -0.27308E+01  8424   0.634E+02 0.510E+01
CGA:  32    -0.669092776679E+03   -0.11902E+01   -0.28022E+01  8424   0.263E+02-0.129E+02
CGA:  33    -0.670010285933E+03   -0.91751E+00   -0.80581E+00  8424   0.236E+02-0.247E+02
CGA:  34    -0.670454206158E+03   -0.44392E+00   -0.98354E+00  8424   0.264E+02-0.105E+02
CGA:  35    -0.671634770296E+03   -0.11806E+01   -0.14470E+01  8424   0.204E+02-0.135E+02
CGA:  36    -0.672014956063E+03   -0.38019E+00   -0.92675E+00  8424   0.121E+02-0.311E+01
CGA:  37    -0.672586616175E+03   -0.57166E+00   -0.53981E+00  8424   0.192E+01 0.876E+00
CGA:  38    -0.672826371560E+03   -0.23976E+00   -0.23371E+00  8424   0.284E+01 0.173E+00
CGA:  39    -0.673068351899E+03   -0.24198E+00   -0.24788E+00  8424   0.424E+01 0.534E+00
CGA:  40    -0.673288054485E+03   -0.21970E+00   -0.22861E+00  8424   0.142E+01-0.775E+00
CGA:  41    -0.673480881136E+03   -0.19283E+00   -0.20706E+00  8424   0.155E+01-0.141E+00
CGA:  42    -0.673575805818E+03   -0.94925E-01   -0.98464E-01  8424   0.802E+00 0.314E-01
CGA:  43    -0.673699949100E+03   -0.12414E+00   -0.12268E+00  8424   0.450E+00 0.172E-01
CGA:  44    -0.673759739566E+03   -0.59790E-01   -0.58934E-01  8424   0.279E+00 0.104E-01
CGA:  45    -0.673792234396E+03   -0.32495E-01   -0.32632E-01  8424   0.237E+00-0.441E-02
CGA:  46    -0.673826053385E+03   -0.33819E-01   -0.36736E-01  8424   0.203E+00-0.436E-01
CGA:  47    -0.673844784912E+03   -0.18732E-01   -0.19209E-01  8424   0.183E+00-0.162E-01
CGA:  48    -0.673879551044E+03   -0.34766E-01   -0.35399E-01  8424   0.128E+00-0.439E-02
CGA:  49    -0.673896836664E+03   -0.17286E-01   -0.17232E-01  8424   0.181E+00 0.127E-02
CGA:  50    -0.673924471119E+03   -0.27634E-01   -0.29505E-01  8424   0.146E+00-0.335E-01
CGA:  51    -0.673941194453E+03   -0.16723E-01   -0.18784E-01  8424   0.197E+00-0.309E-01
CGA:  52    -0.673958273949E+03   -0.17079E-01   -0.17077E-01  8424   0.688E-01-0.281E-01
CGA:  53    -0.673980384338E+03   -0.22110E-01   -0.26165E-01  8424   0.213E+00-0.146E-01
CGA:  54    -0.674004127116E+03   -0.23743E-01   -0.23473E-01  8424   0.153E+00-0.789E-02
CGA:  55    -0.674022133360E+03   -0.18006E-01   -0.47859E-01  8424   0.627E+00-0.156E+00
CGA:  56    -0.674085489440E+03   -0.63356E-01   -0.67055E-01  8424   0.996E-01 0.206E-01
CGA:  57    -0.674130809234E+03   -0.45320E-01   -0.54978E-01  8424   0.205E+00-0.133E-01
CGA:  58    -0.674151151936E+03   -0.20343E-01   -0.74639E-01  8424   0.315E+00-0.142E+00
CGA:  59    -0.674236574250E+03   -0.85422E-01   -0.85220E-01  8424   0.145E+00 0.214E-02
CGA:  60    -0.674272159232E+03   -0.35585E-01   -0.37054E-01  8424   0.437E-01-0.182E-01
CGA:  61    -0.674285686056E+03   -0.13527E-01   -0.22567E-01  8424   0.103E+00-0.220E-01
CGA:  62    -0.674302294087E+03   -0.16608E-01   -0.16348E-01  8424   0.204E-01-0.756E-02
CGA:  63    -0.674308622394E+03   -0.63283E-02   -0.98857E-02  8424   0.363E-01-0.109E-01
CGA:  64    -0.674315091787E+03   -0.64694E-02   -0.63276E-02  8424   0.861E-02-0.384E-02
CGA:  65    -0.674316882039E+03   -0.17903E-02   -0.45268E-02  8424   0.311E-01-0.726E-02
CGA:  66    -0.674321981758E+03   -0.50997E-02   -0.48923E-02  8424   0.503E-02-0.299E-02
CGA:  67    -0.674323314763E+03   -0.13330E-02   -0.21587E-02  8424   0.115E-01-0.332E-02
CGA:  68    -0.674325525898E+03   -0.22111E-02   -0.20926E-02  8424   0.338E-02-0.210E-02
CGA:  69    -0.674323998431E+03    0.15275E-02   -0.26470E-02  8424   0.392E-01-0.581E-02
CGA:  70    -0.674329720142E+03   -0.57217E-02   -0.54913E-02  8424   0.332E-02-0.194E-02
CGA:  71    -0.674330513650E+03   -0.79351E-03   -0.78677E-03  8424   0.116E-02-0.428E-03
CGA:  72    -0.674331294642E+03   -0.78099E-03    0.28744E-03  8424   0.697E-03 0.728E-03
CGA:  73    -0.674331791828E+03   -0.49719E-03    0.26389E-03  8424   0.500E-03 0.491E-03
CGA:  74    -0.674332232752E+03   -0.44092E-03    0.98625E-04  8424   0.472E-03 0.479E-03
CGA:  75    -0.674332638667E+03   -0.40591E-03    0.99740E-04  8424   0.454E-03 0.457E-03
CGA:  76    -0.674333041365E+03   -0.40270E-03    0.88170E-04  8424   0.438E-03 0.438E-03
CGA:  77    -0.674333407446E+03   -0.36608E-03    0.99953E-04  8424   0.427E-03 0.419E-03
CGA:  78    -0.674333783694E+03   -0.37625E-03    0.84810E-04  8424   0.422E-03 0.400E-03
CGA:  79    -0.674334112347E+03   -0.32865E-03    0.11784E-03  8424   0.426E-03 0.377E-03
CGA:  80    -0.674334472715E+03   -0.36037E-03    0.94088E-04  8424   0.450E-03 0.343E-03
CGA:  81    -0.674334756214E+03   -0.28350E-03    0.31169E-03  8424   0.516E-03 0.285E-03
CGA:  82    -0.674335108377E+03   -0.35216E-03    0.23352E-03  8424   0.676E-03 0.166E-03
CGA:  83    -0.674335843144E+03   -0.73477E-03    0.21308E-03  8424   0.506E-03 0.865E-03
CGA:  84    -0.674335976408E+03   -0.13326E-03   -0.35850E-03  8424   0.532E-02-0.510E-03
CGA:  85    -0.674336755571E+03   -0.77916E-03   -0.67064E-03  8424   0.562E-03-0.688E-03
CGA:  86    -0.674337072385E+03   -0.31681E-03    0.41855E-03  8424   0.368E-03 0.341E-03
CGA:  87    -0.674337370242E+03   -0.29786E-03    0.11280E-03  8424   0.418E-03 0.294E-03
CGA:  88    -0.674337617476E+03   -0.24723E-03    0.95974E-03  8424   0.578E-03 0.201E-03
CGA:  89    -0.674338326504E+03   -0.70903E-03    0.24353E-03  8424   0.378E-03 0.821E-03
CGA:  90    -0.674338612802E+03   -0.28630E-03    0.14703E-03  8424   0.465E-03 0.259E-03
CGA:  91    -0.674338540621E+03    0.72181E-04   -0.44179E-03  8424   0.966E-02-0.771E-03
CGA:  92    -0.674339672828E+03   -0.11322E-02   -0.10499E-02  8424   0.401E-03-0.428E-03
CGA:  93    -0.674339972755E+03   -0.29993E-03    0.19656E-03  8424   0.357E-03 0.327E-03
CGA:  94    -0.674340282891E+03   -0.31014E-03    0.12225E-03  8424   0.418E-03 0.293E-03
CGA:  95    -0.674339138728E+03    0.11442E-02   -0.64040E-03  8424   0.292E-01-0.120E-02
CGA:  96    -0.674342329781E+03   -0.31911E-02   -0.29974E-02  8424   0.433E-03-0.633E-03
CGA:  97    -0.674342807659E+03   -0.47788E-03    0.16319E-02  8424   0.836E-03 0.176E-03
CGA:  98    -0.674344386773E+03   -0.15791E-02    0.11487E-02  8424   0.109E-02 0.839E-03
CGA:  99    -0.674344625091E+03   -0.23832E-03   -0.20555E-03  8424   0.766E-03-0.969E-04
CGA: 100    -0.674345498777E+03   -0.87369E-03    0.79473E-03  8424   0.894E-03 0.402E-03
CGA: 101    -0.674345911143E+03   -0.41237E-03   -0.39717E-03  8424   0.121E-02-0.230E-03
CGA: 102    -0.674347002736E+03   -0.10916E-02    0.11574E-02  8424   0.227E-02 0.317E-03
CGA: 103    -0.674350431142E+03   -0.34284E-02    0.40590E-02  8424   0.134E-02 0.181E-02
CGA: 104    -0.674350896972E+03   -0.46583E-03   -0.43952E-03  8424   0.986E-03-0.150E-03
CGA: 105    -0.674351943053E+03   -0.10461E-02    0.11065E-02  8424   0.148E-02 0.293E-03
CGA: 106    -0.674354315377E+03   -0.23723E-02    0.20451E-02  8424   0.132E-02 0.127E-02
CGA: 107    -0.674354854609E+03   -0.53923E-03   -0.49327E-03  8424   0.153E-02-0.377E-03
CGA: 108    -0.674356050365E+03   -0.11958E-02    0.24682E-02  8424   0.212E-02 0.334E-03
CGA: 109    -0.674358868784E+03   -0.28184E-02    0.59947E-02  8424   0.265E-02 0.762E-03
CGA: 110    -0.674363458483E+03   -0.45897E-02    0.30424E-02  8424   0.246E-02 0.206E-02
CGA: 111    -0.674364105341E+03   -0.64686E-03   -0.59455E-03  8424   0.112E-02-0.210E-03
CGA: 112    -0.674365257721E+03   -0.11524E-02    0.13835E-02  8424   0.155E-02 0.125E-03
CGA: 113    -0.674367733729E+03   -0.24760E-02    0.82687E-03  8424   0.112E-02 0.126E-02
CGA: 114    -0.674367459230E+03    0.27450E-03   -0.14163E-02  8424   0.158E-01-0.219E-02
CGA: 115    -0.674370368488E+03   -0.29093E-02   -0.27818E-02  8424   0.151E-02-0.388E-03
CGA: 116    -0.674371195922E+03   -0.82743E-03   -0.10192E-02  8424   0.447E-02-0.102E-02
CGA: 117    -0.674372428770E+03   -0.12328E-02   -0.97720E-03  8424   0.178E-02-0.899E-03
CGA: 118    -0.674371056691E+03    0.13721E-02   -0.21791E-02  8424   0.303E-01-0.350E-02
CGA: 119    -0.674376538932E+03   -0.54822E-02   -0.51383E-02  8424   0.447E-02-0.124E-02
CGA: 120    -0.674377941070E+03   -0.14021E-02   -0.12954E-02  8424   0.128E-02-0.477E-03
CGA: 121    -0.674379555014E+03   -0.16139E-02    0.81999E-03  8424   0.146E-02 0.233E-03
CGA: 122    -0.674382546266E+03   -0.29913E-02    0.67079E-03  8424   0.137E-02 0.122E-02
CGA: 123    -0.674356167195E+03    0.26379E-01   -0.14412E-01  8424   0.216E+00-0.108E-01
CGA: 124    -0.674387927941E+03   -0.31761E-01   -0.30818E-01  8424   0.141E-01 0.115E-01
CGA: 125    -0.674392360601E+03   -0.44327E-02   -0.40931E-02  8424   0.226E-02-0.558E-03
CGA: 126    -0.674394241982E+03   -0.18814E-02   -0.17595E-02  8424   0.809E-02-0.199E-02
CGA: 127    -0.674395887035E+03   -0.16451E-02   -0.15887E-02  8424   0.195E-02-0.539E-05
CGA: 128    -0.674396837441E+03   -0.95041E-03   -0.24628E-02  8424   0.218E-01-0.358E-02
CGA: 129    -0.674400938559E+03   -0.41011E-02   -0.40287E-02  8424   0.375E-02 0.271E-03
CGA: 130    -0.674403098425E+03   -0.21599E-02   -0.16434E-02  8424   0.362E-02-0.134E-02
CGA: 131    -0.674301140991E+03    0.10196E+00   -0.54385E-01  8424   0.552E+00-0.266E-01
CGA: 132    -0.674410753066E+03   -0.10961E+00   -0.12392E+00  8424   0.150E+00-0.642E-01
CGA: 133    -0.674442195621E+03   -0.31443E-01   -0.30678E-01  8424   0.198E-01 0.414E-02
CGA: 134    -0.674447950698E+03   -0.57551E-02   -0.52107E-02  8424   0.220E-02-0.747E-03
CGA: 135    -0.674450142023E+03   -0.21913E-02   -0.11788E-02  8424   0.671E-02-0.143E-02
CGA: 136    -0.674451346345E+03   -0.12043E-02   -0.10495E-02  8424   0.104E-02-0.765E-04
CGA: 137    -0.674456308303E+03   -0.49620E-02    0.61315E-03  8424   0.309E-02 0.154E-03
CGA: 138    -0.674474623861E+03   -0.18316E-01    0.18464E-02  8424   0.151E-01-0.198E-03
CGA: 139    -0.674553638313E+03   -0.79014E-01    0.63628E-02  8424   0.480E-01-0.264E-01
CGA: 140    -0.674561683058E+03   -0.80447E-02   -0.92538E-02  8424   0.882E-02 0.259E-02
CGA: 141    -0.674563519775E+03   -0.18367E-02   -0.27200E-02  8424   0.309E-02 0.992E-03
CGA: 142    -0.674563336500E+03    0.18328E-03   -0.10428E-02  8424   0.202E-02 0.151E-02
CGA: 143    -0.674562668165E+03    0.66833E-03   -0.80507E-03  8424   0.156E-02 0.186E-02
CGA: 144    -0.674562587134E+03    0.81031E-04   -0.48232E-03  8424   0.117E-02 0.780E-03
CGA: 145    -0.674562279813E+03    0.30732E-03   -0.26563E-03  8424   0.962E-03 0.752E-03
CGA: 146    -0.674562058800E+03    0.22101E-03   -0.26552E-03  8424   0.940E-03 0.716E-03
CGA: 147    -0.674561773119E+03    0.28568E-03   -0.19858E-03  8424   0.838E-03 0.683E-03
CGA: 148    -0.674561556637E+03    0.21648E-03   -0.20830E-03  8424   0.811E-03 0.666E-03
CGA: 149    -0.674561301838E+03    0.25480E-03   -0.16463E-03  8424   0.745E-03 0.645E-03
CGA: 150    -0.674561097844E+03    0.20399E-03   -0.16978E-03  8424   0.715E-03 0.629E-03
CGA: 151    -0.674560871094E+03    0.22675E-03   -0.13897E-03  8424   0.670E-03 0.612E-03
CGA: 152    -0.674560682342E+03    0.18875E-03   -0.14103E-03  8424   0.643E-03 0.597E-03
CGA: 153    -0.674560481290E+03    0.20105E-03   -0.11893E-03  8424   0.611E-03 0.582E-03
CGA: 154    -0.674560308572E+03    0.17272E-03   -0.11876E-03  8424   0.588E-03 0.568E-03
CGA: 155    -0.674560130980E+03    0.17759E-03   -0.10295E-03  8424   0.565E-03 0.554E-03
CGA: 156    -0.674559974342E+03    0.15664E-03   -0.10122E-03  8424   0.546E-03 0.540E-03
CGA: 157    -0.674559817872E+03    0.15647E-03   -0.89983E-04  8424   0.529E-03 0.527E-03
CGA: 158    -0.674559676926E+03    0.14095E-03   -0.87343E-04  8424   0.514E-03 0.514E-03
CGA: 159    -0.674559539049E+03    0.13788E-03   -0.79269E-04  8424   0.501E-03 0.502E-03
CGA: 160    -0.674559412920E+03    0.12613E-03   -0.76276E-04  8424   0.489E-03 0.490E-03
CGA: 161    -0.674559291195E+03    0.12172E-03   -0.70292E-04  8424   0.478E-03 0.479E-03
CGA: 162    -0.674559178647E+03    0.11255E-03   -0.67301E-04  8424   0.468E-03 0.469E-03
CGA: 163    -0.674559070892E+03    0.10776E-03   -0.62697E-04  8424   0.459E-03 0.459E-03
CGA: 164    -0.674558970486E+03    0.10041E-03   -0.59883E-04  8424   0.450E-03 0.450E-03
CGA: 165    -0.674558874711E+03    0.95775E-04   -0.56206E-04  8424   0.442E-03 0.442E-03
CGA: 166    -0.674558784913E+03    0.89798E-04   -0.53626E-04  8424   0.434E-03 0.434E-03
CGA: 167    -0.674558699394E+03    0.85519E-04   -0.50599E-04  8424   0.427E-03 0.427E-03
CGA: 168    -0.674558618813E+03    0.80581E-04   -0.48243E-04  8424   0.420E-03 0.421E-03
CGA: 169    -0.674558542190E+03    0.76623E-04   -0.45716E-04  8424   0.414E-03 0.415E-03
CGA: 170    -0.674558469711E+03    0.72479E-04   -0.43567E-04  8424   0.408E-03 0.409E-03
CGA: 171    -0.674558400919E+03    0.68792E-04   -0.41453E-04  8424   0.402E-03 0.403E-03
CGA: 172    -0.674558335640E+03    0.65279E-04   -0.39495E-04  8424   0.397E-03 0.398E-03
CGA: 173    -0.674558273804E+03    0.61836E-04   -0.37725E-04  8424   0.392E-03 0.393E-03
CGA: 174    -0.674558214947E+03    0.58857E-04   -0.35933E-04  8424   0.388E-03 0.389E-03
CGA: 175    -0.674558159297E+03    0.55651E-04   -0.34445E-04  8424   0.383E-03 0.384E-03
CGA: 176    -0.674558106157E+03    0.53140E-04   -0.32793E-04  8424   0.379E-03 0.380E-03
CGA: 177    -0.674558055986E+03    0.50170E-04   -0.31533E-04  8424   0.376E-03 0.376E-03
CGA: 178    -0.674558007926E+03    0.48061E-04   -0.30003E-04  8424   0.372E-03 0.373E-03
CGA: 179    -0.674557962599E+03    0.45326E-04   -0.28925E-04  8424   0.369E-03 0.369E-03
CGA: 180    -0.674557919058E+03    0.43541E-04   -0.27511E-04  8424   0.365E-03 0.366E-03
CGA: 181    -0.674557878027E+03    0.41031E-04   -0.26578E-04  8424   0.362E-03 0.363E-03
CGA: 182    -0.674557838520E+03    0.39507E-04   -0.25274E-04  8424   0.359E-03 0.360E-03
CGA: 183    -0.674557801324E+03    0.37196E-04   -0.24465E-04  8424   0.356E-03 0.357E-03
CGA: 184    -0.674557765427E+03    0.35897E-04   -0.23258E-04  8424   0.354E-03 0.354E-03
CGA: 185    -0.674557731672E+03    0.33755E-04   -0.22561E-04  8424   0.351E-03 0.352E-03
CGA: 186    -0.674557699014E+03    0.32658E-04   -0.21436E-04  8424   0.349E-03 0.349E-03
CGA: 187    -0.674557668346E+03    0.30668E-04   -0.20835E-04  8424   0.347E-03 0.347E-03
CGA: 188    -0.674557638599E+03    0.29747E-04   -0.19785E-04  8424   0.345E-03 0.345E-03
CGA: 189    -0.674557610698E+03    0.27902E-04   -0.19264E-04  8424   0.342E-03 0.343E-03
CGA: 190    -0.674557583573E+03    0.27125E-04   -0.18285E-04  8424   0.341E-03 0.341E-03
CGA: 191    -0.674557558149E+03    0.25424E-04   -0.17827E-04  8424   0.339E-03 0.339E-03
CGA: 192    -0.674557533388E+03    0.24760E-04   -0.16918E-04  8424   0.337E-03 0.337E-03
CGA: 193    -0.674557510192E+03    0.23197E-04   -0.16511E-04  8424   0.335E-03 0.336E-03
CGA: 194    -0.674557487565E+03    0.22627E-04   -0.15668E-04  8424   0.334E-03 0.334E-03
CGA: 195    -0.674557466377E+03    0.21188E-04   -0.15306E-04  8424   0.332E-03 0.332E-03
CGA: 196    -0.674557445678E+03    0.20699E-04   -0.14523E-04  8424   0.331E-03 0.331E-03
CGA: 197    -0.674557426307E+03    0.19371E-04   -0.14201E-04  8424   0.329E-03 0.329E-03
CGA: 198    -0.674557407352E+03    0.18955E-04   -0.13472E-04  8424   0.328E-03 0.328E-03
CGA: 199    -0.674557389624E+03    0.17728E-04   -0.13185E-04  8424   0.326E-03 0.327E-03
CGA: 200    -0.674557372250E+03    0.17373E-04   -0.12506E-04  8424   0.325E-03 0.325E-03
   1 F= -.67455737E+03 E0= -.67455737E+03  d E =-.674557E+03  mag=     5.0000
       N       E                     dE             d eps       ncg     rms          ort
SDA:   1    -0.674562262928E+03   -0.48733E-02    0.00000E+00  8424   0.289E-01 0.000E+00
CGA:   2    -0.674570665195E+03   -0.84023E-02   -0.80430E-02  8424   0.880E-02 0.228E-02
CGA:   3    -0.674572617621E+03   -0.19524E-02   -0.18875E-02  8424   0.298E-02 0.926E-03
CGA:   4    -0.674573079674E+03   -0.46205E-03   -0.45527E-03  8424   0.802E-03 0.113E-02
CGA:   5    -0.674573134623E+03   -0.54949E-04   -0.92535E-04  8424   0.483E-03 0.765E-03
CGA:   6    -0.674573139499E+03   -0.48757E-05   -0.32229E-04  8424   0.393E-03 0.430E-03
CGA:   7    -0.674573137610E+03    0.18889E-05   -0.23440E-04  8424   0.358E-03 0.375E-03
CGA:   8    -0.674573133669E+03    0.39415E-05   -0.19835E-04  8424   0.338E-03 0.348E-03
CGA:   9    -0.674573128798E+03    0.48705E-05   -0.17638E-04  8424   0.324E-03 0.330E-03
CGA:  10    -0.674573123469E+03    0.53286E-05   -0.16090E-04  8424   0.314E-03 0.319E-03
CGA:  11    -0.674573117927E+03    0.55428E-05   -0.14909E-04  8424   0.306E-03 0.310E-03
CGA:  12    -0.674573112311E+03    0.56158E-05   -0.13960E-04  8424   0.300E-03 0.303E-03
CGA:  13    -0.674573106709E+03    0.56017E-05   -0.13167E-04  8424   0.295E-03 0.297E-03
CGA:  14    -0.674573101178E+03    0.55316E-05   -0.12486E-04  8424   0.291E-03 0.293E-03
CGA:  15    -0.674573095753E+03    0.54251E-05   -0.11888E-04  8424   0.287E-03 0.289E-03
CGA:  16    -0.674573090458E+03    0.52946E-05   -0.11355E-04  8424   0.284E-03 0.286E-03
CGA:  17    -0.674573085309E+03    0.51490E-05   -0.10872E-04  8424   0.282E-03 0.283E-03
CGA:  18    -0.674573080318E+03    0.49907E-05   -0.10434E-04  8424   0.279E-03 0.280E-03
CGA:  19    -0.674573075493E+03    0.48254E-05   -0.10033E-04  8424   0.277E-03 0.278E-03
   2 F= -.67457308E+03 E0= -.67457308E+03  d E =-.157032E-01  mag=     5.0000
       N       E                     dE             d eps       ncg     rms          ort
SDA:   1    -0.674205460490E+03    0.36762E+00    0.00000E+00  8424   0.120E+01 0.000E+00
CGA:   2    -0.674565648012E+03   -0.36019E+00   -0.35979E+00  8424   0.398E+00 0.190E-02
CGA:   3    -0.674645484740E+03   -0.79837E-01   -0.80414E-01  8424   0.129E+00-0.542E-02
CGA:   4    -0.674667356649E+03   -0.21872E-01   -0.21818E-01  8424   0.273E-01 0.735E-03
CGA:   5    -0.674671717711E+03   -0.43611E-02   -0.42159E-02  8424   0.553E-02 0.290E-02
CGA:   6    -0.674672768571E+03   -0.10509E-02   -0.95670E-03  8424   0.157E-02 0.188E-02
CGA:   7    -0.674673065469E+03   -0.29690E-03   -0.27329E-03  8424   0.850E-03 0.112E-02
CGA:   8    -0.674673167300E+03   -0.10183E-03   -0.98106E-04  8424   0.566E-03 0.649E-03
CGA:   9    -0.674673202932E+03   -0.35631E-04   -0.48453E-04  8424   0.491E-03 0.523E-03
CGA:  10    -0.674673222375E+03   -0.19443E-04   -0.35967E-04  8424   0.445E-03 0.465E-03
CGA:  11    -0.674673233709E+03   -0.11334E-04   -0.29118E-04  8424   0.413E-03 0.427E-03
CGA:  12    -0.674673240231E+03   -0.65214E-05   -0.24638E-04  8424   0.389E-03 0.400E-03
CGA:  13    -0.674673243645E+03   -0.34140E-05   -0.21434E-04  8424   0.370E-03 0.378E-03
CGA:  14    -0.674673244949E+03   -0.13047E-05   -0.19011E-04  8424   0.355E-03 0.362E-03
CGA:  15    -0.674673244777E+03    0.17268E-06   -0.17106E-04  8424   0.342E-03 0.348E-03
CGA:  16    -0.674673243550E+03    0.12266E-05   -0.15564E-04  8424   0.332E-03 0.336E-03
CGA:  17    -0.674673241574E+03    0.19757E-05   -0.14301E-04  8424   0.323E-03 0.327E-03
CGA:  18    -0.674673239057E+03    0.25174E-05   -0.13235E-04  8424   0.315E-03 0.319E-03
CGA:  19    -0.674673236147E+03    0.29095E-05   -0.12320E-04  8424   0.309E-03 0.312E-03
CGA:  20    -0.674673232958E+03    0.31898E-05   -0.11524E-04  8424   0.303E-03 0.305E-03
CGA:  21    -0.674673229571E+03    0.33862E-05   -0.10822E-04  8424   0.298E-03 0.300E-03
CGA:  22    -0.674673226054E+03    0.35177E-05   -0.10199E-04  8424   0.293E-03 0.295E-03
   3 F= -.67467323E+03 E0= -.67467323E+03  d E =-.100151E+00  mag=     5.0000
       N       E                     dE             d eps       ncg     rms          ort
SDA:   1    -0.544444150982E+03    0.13023E+03    0.00000E+00  8424   0.398E+03 0.000E+00
CGA:   2    -0.630258392766E+03   -0.85814E+02   -0.80687E+02  8424   0.147E+03 0.388E+02
CGA:   3    -0.661816617514E+03   -0.31558E+02   -0.31176E+02  8424   0.455E+02 0.317E+01
CGA:   4    -0.671662750898E+03   -0.98461E+01   -0.98746E+01  8424   0.102E+02-0.143E+00
CGA:   5    -0.673505855236E+03   -0.18431E+01   -0.18413E+01  8424   0.306E+01 0.365E-01
CGA:   6    -0.674130682190E+03   -0.62483E+00   -0.61842E+00  8424   0.899E+00 0.648E-01
CGA:   7    -0.674406781568E+03   -0.27610E+00   -0.27280E+00  8424   0.435E+00 0.175E-01
CGA:   8    -0.674517078855E+03   -0.11030E+00   -0.10893E+00  8424   0.158E+00 0.100E-01
CGA:   9    -0.674563133588E+03   -0.46055E-01   -0.44271E-01  8424   0.579E-01 0.116E-01
CGA:  10    -0.674580863923E+03   -0.17730E-01   -0.16166E-01  8424   0.187E-01 0.118E-01
CGA:  11    -0.674586315533E+03   -0.54516E-02   -0.47984E-02  8424   0.670E-02 0.823E-02
CGA:  12    -0.674587943548E+03   -0.16280E-02   -0.15133E-02  8424   0.420E-02 0.616E-02
CGA:  13    -0.674588538097E+03   -0.59455E-03   -0.59031E-03  8424   0.318E-02 0.350E-02
CGA:  14    -0.674588903639E+03   -0.36554E-03   -0.40353E-03  8424   0.288E-02 0.302E-02
CGA:  15    -0.674589180706E+03   -0.27707E-03   -0.33705E-03  8424   0.270E-02 0.278E-02
CGA:  16    -0.674589410509E+03   -0.22980E-03   -0.29961E-03  8424   0.257E-02 0.263E-02
CGA:  17    -0.674589609025E+03   -0.19852E-03   -0.27366E-03  8424   0.247E-02 0.252E-02
CGA:  18    -0.674589784807E+03   -0.17578E-03   -0.25390E-03  8424   0.239E-02 0.243E-02
CGA:  19    -0.674589942994E+03   -0.15819E-03   -0.23790E-03  8424   0.232E-02 0.236E-02
CGA:  20    -0.674590086957E+03   -0.14396E-03   -0.22441E-03  8424   0.227E-02 0.230E-02
CGA:  21    -0.674590219047E+03   -0.13209E-03   -0.21270E-03  8424   0.221E-02 0.224E-02
CGA:  22    -0.674590341004E+03   -0.12196E-03   -0.20233E-03  8424   0.217E-02 0.219E-02
CGA:  23    -0.674590454148E+03   -0.11314E-03   -0.19300E-03  8424   0.213E-02 0.215E-02
CGA:  24    -0.674590559525E+03   -0.10538E-03   -0.18452E-03  8424   0.209E-02 0.211E-02
CGA:  25    -0.674590657981E+03   -0.98456E-04   -0.17673E-03  8424   0.205E-02 0.207E-02
CGA:  26    -0.674590750246E+03   -0.92266E-04   -0.16955E-03  8424   0.202E-02 0.204E-02
CGA:  27    -0.674590837014E+03   -0.86768E-04   -0.16297E-03  8424   0.199E-02 0.200E-02
CGA:  28    -0.674590918794E+03   -0.81780E-04   -0.15685E-03  8424   0.196E-02 0.198E-02
CGA:  29    -0.674590995990E+03   -0.77196E-04   -0.15109E-03  8424   0.194E-02 0.195E-02
CGA:  30    -0.674591068958E+03   -0.72968E-04   -0.14566E-03  8424   0.191E-02 0.192E-02
CGA:  31    -0.674591138014E+03   -0.69056E-04   -0.14052E-03  8424   0.189E-02 0.190E-02
CGA:  32    -0.674591203442E+03   -0.65427E-04   -0.13563E-03  8424   0.187E-02 0.188E-02
CGA:  33    -0.674591265494E+03   -0.62052E-04   -0.13099E-03  8424   0.184E-02 0.185E-02
CGA:  34    -0.674591324402E+03   -0.58908E-04   -0.12656E-03  8424   0.182E-02 0.183E-02
CGA:  35    -0.674591380376E+03   -0.55974E-04   -0.12234E-03  8424   0.180E-02 0.181E-02
CGA:  36    -0.674591433610E+03   -0.53234E-04   -0.11830E-03  8424   0.179E-02 0.179E-02
CGA:  37    -0.674591484284E+03   -0.50674E-04   -0.11444E-03  8424   0.177E-02 0.178E-02
CGA:  38    -0.674591532562E+03   -0.48278E-04   -0.11075E-03  8424   0.175E-02 0.176E-02
CGA:  39    -0.674591578595E+03   -0.46033E-04   -0.10722E-03  8424   0.173E-02 0.174E-02
CGA:  40    -0.674591622524E+03   -0.43929E-04   -0.10383E-03  8424   0.172E-02 0.172E-02
CGA:  41    -0.674591664477E+03   -0.41953E-04   -0.10058E-03  8424   0.170E-02 0.171E-02
CGA:  42    -0.674591704575E+03   -0.40098E-04   -0.97468E-04  8424   0.168E-02 0.169E-02
CGA:  43    -0.674591742923E+03   -0.38348E-04   -0.94474E-04  8424   0.167E-02 0.168E-02
CGA:  44    -0.674591779620E+03   -0.36696E-04   -0.91594E-04  8424   0.166E-02 0.166E-02
CGA:  45    -0.674591814701E+03   -0.35081E-04   -0.88789E-04  8424   0.164E-02 0.165E-02
CGA:  46    -0.674591848194E+03   -0.33493E-04   -0.86056E-04  8424   0.164E-02 0.163E-02
CGA:  47    -0.674591879899E+03   -0.31705E-04   -0.83287E-04  8424   0.164E-02 0.161E-02
CGA:  48    -0.674591909882E+03   -0.29983E-04   -0.80646E-04  8424   0.165E-02 0.158E-02
CGA:  49    -0.674591938104E+03   -0.28222E-04   -0.78110E-04  8424   0.165E-02 0.154E-02
CGA:  50    -0.674591965279E+03   -0.27175E-04   -0.76025E-04  8424   0.165E-02 0.152E-02
CGA:  51    -0.674591991510E+03   -0.26231E-04   -0.73990E-04  8424   0.164E-02 0.150E-02
CGA:  52    -0.674592017038E+03   -0.25528E-04   -0.72042E-04  8424   0.162E-02 0.150E-02
CGA:  53    -0.674592042251E+03   -0.25213E-04   -0.70270E-04  8424   0.159E-02 0.150E-02
CGA:  54    -0.674592066338E+03   -0.24086E-04   -0.68054E-04  8424   0.156E-02 0.151E-02
CGA:  55    -0.674592090548E+03   -0.24211E-04   -0.66464E-04  8424   0.154E-02 0.152E-02
CGA:  56    -0.674592112556E+03   -0.22008E-04   -0.63824E-04  8424   0.153E-02 0.151E-02
CGA:  57    -0.674592135478E+03   -0.22921E-04   -0.62857E-04  8424   0.152E-02 0.150E-02
CGA:  58    -0.674592155812E+03   -0.20334E-04   -0.60226E-04  8424   0.150E-02 0.150E-02
CGA:  59    -0.674592177375E+03   -0.21564E-04   -0.59522E-04  8424   0.149E-02 0.149E-02
CGA:  60    -0.674592196500E+03   -0.19125E-04   -0.57045E-04  8424   0.148E-02 0.148E-02
CGA:  61    -0.674592216397E+03   -0.19896E-04   -0.56207E-04  8424   0.147E-02 0.148E-02
CGA:  62    -0.674592234421E+03   -0.18024E-04   -0.54105E-04  8424   0.147E-02 0.147E-02
CGA:  63    -0.674592252743E+03   -0.18322E-04   -0.53119E-04  8424   0.146E-02 0.146E-02
CGA:  64    -0.674592269595E+03   -0.16852E-04   -0.51294E-04  8424   0.145E-02 0.145E-02
CGA:  65    -0.674592286639E+03   -0.17044E-04   -0.50325E-04  8424   0.145E-02 0.145E-02
CGA:  66    -0.674592302317E+03   -0.15678E-04   -0.48612E-04  8424   0.144E-02 0.144E-02
CGA:  67    -0.674592318345E+03   -0.16028E-04   -0.47778E-04  8424   0.143E-02 0.143E-02
CGA:  68    -0.674592332893E+03   -0.14548E-04   -0.46058E-04  8424   0.143E-02 0.143E-02
CGA:  69    -0.674592348126E+03   -0.15233E-04   -0.45439E-04  8424   0.142E-02 0.142E-02
CGA:  70    -0.674592361674E+03   -0.13548E-04   -0.43668E-04  8424   0.141E-02 0.141E-02
CGA:  71    -0.674592376114E+03   -0.14440E-04   -0.43201E-04  8424   0.141E-02 0.141E-02
CGA:  72    -0.674592388870E+03   -0.12755E-04   -0.41482E-04  8424   0.140E-02 0.140E-02
CGA:  73    -0.674592402395E+03   -0.13525E-04   -0.41004E-04  8424   0.139E-02 0.140E-02
CGA:  74    -0.674592414481E+03   -0.12087E-04   -0.39456E-04  8424   0.139E-02 0.139E-02
CGA:  75    -0.674592427078E+03   -0.12597E-04   -0.38898E-04  8424   0.138E-02 0.139E-02
CGA:  76    -0.674592438475E+03   -0.11396E-04   -0.37515E-04  8424   0.138E-02 0.138E-02
CGA:  77    -0.674592450266E+03   -0.11791E-04   -0.36946E-04  8424   0.137E-02 0.137E-02
CGA:  78    -0.674592460964E+03   -0.10698E-04   -0.35658E-04  8424   0.137E-02 0.137E-02
CGA:  79    -0.674592472086E+03   -0.11122E-04   -0.35142E-04  8424   0.136E-02 0.137E-02
CGA:  80    -0.674592482137E+03   -0.10050E-04   -0.33902E-04  8424   0.136E-02 0.136E-02
CGA:  81    -0.674592492656E+03   -0.10519E-04   -0.33444E-04  8424   0.135E-02 0.136E-02
CGA:  82    -0.674592502142E+03   -0.94858E-05   -0.32258E-04  8424   0.135E-02 0.135E-02
CGA:  83    -0.674592512068E+03   -0.99262E-05   -0.31820E-04  8424   0.135E-02 0.135E-02
CGA:  84    -0.674592521051E+03   -0.89836E-05   -0.30714E-04  8424   0.134E-02 0.134E-02
CGA:  85    -0.674592530395E+03   -0.93437E-05   -0.30271E-04  8424   0.134E-02 0.134E-02
CGA:  86    -0.674592538898E+03   -0.85025E-05   -0.29249E-04  8424   0.133E-02 0.133E-02
CGA:  87    -0.674592547702E+03   -0.88041E-05   -0.28809E-04  8424   0.133E-02 0.133E-02
CGA:  88    -0.674592555734E+03   -0.80327E-05   -0.27852E-04  8424   0.133E-02 0.133E-02
CGA:  89    -0.674592564053E+03   -0.83183E-05   -0.27434E-04  8424   0.132E-02 0.132E-02
CGA:  90    -0.674592571642E+03   -0.75888E-05   -0.26527E-04  8424   0.132E-02 0.132E-02
CGA:  91    -0.674592579514E+03   -0.78724E-05   -0.26135E-04  8424   0.131E-02 0.132E-02
CGA:  92    -0.674592586696E+03   -0.71821E-05   -0.25274E-04  8424   0.131E-02 0.131E-02
CGA:  93    -0.674592594145E+03   -0.74491E-05   -0.24901E-04  8424   0.131E-02 0.131E-02
CGA:  94    -0.674592600954E+03   -0.68089E-05   -0.24090E-04  8424   0.130E-02 0.131E-02
CGA:  95    -0.674592607999E+03   -0.70450E-05   -0.23726E-04  8424   0.130E-02 0.130E-02
CGA:  96    -0.674592614456E+03   -0.64573E-05   -0.22966E-04  8424   0.130E-02 0.130E-02
CGA:  97    -0.674592621122E+03   -0.66658E-05   -0.22612E-04  8424   0.130E-02 0.130E-02
CGA:  98    -0.674592627244E+03   -0.61220E-05   -0.21897E-04  8424   0.129E-02 0.129E-02
CGA:  99    -0.674592633558E+03   -0.63142E-05   -0.21558E-04  8424   0.129E-02 0.129E-02
CGA: 100    -0.674592639363E+03   -0.58052E-05   -0.20882E-04  8424   0.129E-02 0.129E-02
CGA: 101    -0.674592645350E+03   -0.59869E-05   -0.20558E-04  8424   0.128E-02 0.128E-02
CGA: 102    -0.674592650859E+03   -0.55092E-05   -0.19918E-04  8424   0.128E-02 0.128E-02
CGA: 103    -0.674592656538E+03   -0.56783E-05   -0.19607E-04  8424   0.128E-02 0.128E-02
CGA: 104    -0.674592661770E+03   -0.52325E-05   -0.19002E-04  8424   0.128E-02 0.128E-02
CGA: 105    -0.674592667156E+03   -0.53860E-05   -0.18703E-04  8424   0.127E-02 0.127E-02
CGA: 106    -0.674592672128E+03   -0.49718E-05   -0.18133E-04  8424   0.127E-02 0.127E-02
CGA: 107    -0.674592677238E+03   -0.51103E-05   -0.17844E-04  8424   0.127E-02 0.127E-02
CGA: 108    -0.674592681963E+03   -0.47247E-05   -0.17305E-04  8424   0.127E-02 0.127E-02
CGA: 109    -0.674592686814E+03   -0.48515E-05   -0.17027E-04  8424   0.126E-02 0.126E-02
CGA: 110    -0.674592691305E+03   -0.44907E-05   -0.16517E-04  8424   0.126E-02 0.126E-02
CGA: 111    -0.674592695914E+03   -0.46085E-05   -0.16251E-04  8424   0.126E-02 0.126E-02
CGA: 112    -0.674592700184E+03   -0.42703E-05   -0.15768E-04  8424   0.126E-02 0.126E-02
CGA: 113    -0.674592704563E+03   -0.43791E-05   -0.15513E-04  8424   0.126E-02 0.126E-02
CGA: 114    -0.674592708626E+03   -0.40626E-05   -0.15055E-04  8424   0.125E-02 0.125E-02
CGA: 115    -0.674592712788E+03   -0.41623E-05   -0.14810E-04  8424   0.125E-02 0.125E-02
CGA: 116    -0.674592716654E+03   -0.38664E-05   -0.14376E-04  8424   0.125E-02 0.125E-02
CGA: 117    -0.674592720611E+03   -0.39571E-05   -0.14141E-04  8424   0.125E-02 0.125E-02
CGA: 118    -0.674592724292E+03   -0.36804E-05   -0.13730E-04  8424   0.125E-02 0.125E-02
CGA: 119    -0.674592728055E+03   -0.37634E-05   -0.13503E-04  8424   0.124E-02 0.124E-02
CGA: 120    -0.674592731559E+03   -0.35043E-05   -0.13114E-04  8424   0.124E-02 0.124E-02
CGA: 121    -0.674592735140E+03   -0.35804E-05   -0.12897E-04  8424   0.124E-02 0.124E-02
CGA: 122    -0.674592738477E+03   -0.33376E-05   -0.12527E-04  8424   0.124E-02 0.124E-02
CGA: 123    -0.674592741885E+03   -0.34078E-05   -0.12319E-04  8424   0.124E-02 0.124E-02
CGA: 124    -0.674592745065E+03   -0.31796E-05   -0.11968E-04  8424   0.124E-02 0.124E-02
CGA: 125    -0.674592748309E+03   -0.32439E-05   -0.11768E-04  8424   0.123E-02 0.124E-02
CGA: 126    -0.674592751339E+03   -0.30299E-05   -0.11435E-04  8424   0.123E-02 0.123E-02
CGA: 127    -0.674592754427E+03   -0.30888E-05   -0.11243E-04  8424   0.123E-02 0.123E-02
CGA: 128    -0.674592757315E+03   -0.28881E-05   -0.10928E-04  8424   0.123E-02 0.123E-02
CGA: 129    -0.674592760257E+03   -0.29419E-05   -0.10743E-04  8424   0.123E-02 0.123E-02
CGA: 130    -0.674592763011E+03   -0.27532E-05   -0.10443E-04  8424   0.123E-02 0.123E-02
CGA: 131    -0.674592765813E+03   -0.28028E-05   -0.10266E-04  8424   0.123E-02 0.123E-02
   4 F= -.67459277E+03 E0= -.67459277E+03  d E =0.804602E-01  mag=     5.0000
       N       E                     dE             d eps       ncg     rms          ort
SDA:   1    -0.662165499964E+03    0.12427E+02    0.00000E+00  8424   0.349E+02 0.000E+00
CGA:   2    -0.667384970897E+03   -0.52195E+01   -0.50923E+01  8424   0.173E+02 0.231E+02
CGA:   3    -0.671812343340E+03   -0.44274E+01   -0.28309E+01  8424   0.636E+01 0.969E+01
CGA:   4    -0.674388332790E+03   -0.25760E+01   -0.74537E+00  8424   0.123E+01 0.225E+01
CGA:   5    -0.674873398347E+03   -0.48507E+00   -0.48723E+00  8424   0.830E+00-0.109E-01
CGA:   6    -0.674972302632E+03   -0.98904E-01   -0.98877E-01  8424   0.678E-01 0.817E-03
CGA:   7    -0.674988237692E+03   -0.15935E-01   -0.15472E-01  8424   0.457E-01 0.350E-02
CGA:   8    -0.674998394317E+03   -0.10157E-01   -0.99726E-02  8424   0.138E-01 0.174E-02
CGA:   9    -0.675001484303E+03   -0.30900E-02   -0.28959E-02  8424   0.534E-02 0.206E-02
CGA:  10    -0.675002609805E+03   -0.11255E-02   -0.10089E-02  8424   0.221E-02 0.223E-02
CGA:  11    -0.675003145539E+03   -0.53573E-03   -0.47978E-03  8424   0.109E-02 0.147E-02
CGA:  12    -0.675003398290E+03   -0.25275E-03   -0.20952E-03  8424   0.561E-03 0.571E-03
CGA:  13    -0.675003438377E+03   -0.40087E-04   -0.53216E-04  8424   0.475E-03 0.510E-03
CGA:  14    -0.675003469892E+03   -0.31514E-04   -0.43796E-04  8424   0.432E-03 0.452E-03
CGA:  15    -0.675003493388E+03   -0.23497E-04   -0.36973E-04  8424   0.402E-03 0.417E-03
CGA:  16    -0.675003511151E+03   -0.17763E-04   -0.32106E-04  8424   0.381E-03 0.392E-03
CGA:  17    -0.675003524905E+03   -0.13754E-04   -0.28537E-04  8424   0.364E-03 0.372E-03
CGA:  18    -0.675003535758E+03   -0.10852E-04   -0.25794E-04  8424   0.351E-03 0.357E-03
CGA:  19    -0.675003544435E+03   -0.86772E-05   -0.23600E-04  8424   0.340E-03 0.345E-03
CGA:  20    -0.675003551438E+03   -0.70027E-05   -0.21793E-04  8424   0.330E-03 0.335E-03
CGA:  21    -0.675003557125E+03   -0.56874E-05   -0.20271E-04  8424   0.322E-03 0.326E-03
CGA:  22    -0.675003561762E+03   -0.46366E-05   -0.18965E-04  8424   0.315E-03 0.318E-03
CGA:  23    -0.675003565548E+03   -0.37869E-05   -0.17828E-04  8424   0.309E-03 0.312E-03
CGA:  24    -0.675003568643E+03   -0.30942E-05   -0.16827E-04  8424   0.303E-03 0.306E-03
CGA:  25    -0.675003571168E+03   -0.25253E-05   -0.15938E-04  8424   0.298E-03 0.301E-03
CGA:  26    -0.675003573223E+03   -0.20553E-05   -0.15141E-04  8424   0.294E-03 0.296E-03
CGA:  27    -0.675003574891E+03   -0.16680E-05   -0.14428E-04  8424   0.290E-03 0.292E-03
CGA:  28    -0.675003576239E+03   -0.13474E-05   -0.13785E-04  8424   0.287E-03 0.289E-03
CGA:  29    -0.675003577318E+03   -0.10794E-05   -0.13196E-04  8424   0.284E-03 0.285E-03
CGA:  30    -0.675003578172E+03   -0.85370E-06   -0.12653E-04  8424   0.281E-03 0.283E-03
CGA:  31    -0.675003578835E+03   -0.66353E-06   -0.12150E-04  8424   0.279E-03 0.280E-03
CGA:  32    -0.675003579338E+03   -0.50270E-06   -0.11681E-04  8424   0.277E-03 0.278E-03
CGA:  33    -0.675003579705E+03   -0.36676E-06   -0.11244E-04  8424   0.275E-03 0.275E-03
CGA:  34    -0.675003579956E+03   -0.25140E-06   -0.10833E-04  8424   0.273E-03 0.273E-03
CGA:  35    -0.675003580110E+03   -0.15368E-06   -0.10446E-04  8424   0.271E-03 0.272E-03
CGA:  36    -0.675003580180E+03   -0.70238E-07   -0.10081E-04  8424   0.269E-03 0.270E-03
   5 F= -.67500358E+03 E0= -.67500358E+03  d E =-.410814E+00  mag=     5.0000
       N       E                     dE             d eps       ncg     rms          ort
SDA:   1    -0.673469821136E+03    0.15338E+01    0.00000E+00  8424   0.416E+01 0.000E+00
CGA:   2    -0.674697259933E+03   -0.12274E+01   -0.12277E+01  8424   0.134E+01-0.124E-02
CGA:   3    -0.674960627848E+03   -0.26337E+00   -0.26123E+00  8424   0.402E+00 0.186E-01
CGA:   4    -0.675034582062E+03   -0.73954E-01   -0.74318E-01  8424   0.964E-01-0.391E-02
CGA:   5    -0.675050738372E+03   -0.16156E-01   -0.16533E-01  8424   0.221E-01-0.466E-02
CGA:   6    -0.675054884007E+03   -0.41456E-02   -0.41672E-02  8424   0.534E-02-0.220E-03
CGA:   7    -0.675056167354E+03   -0.12833E-02   -0.11801E-02  8424   0.176E-02 0.846E-03
CGA:   8    -0.675056614035E+03   -0.44668E-03   -0.38304E-03  8424   0.679E-03 0.793E-03
CGA:   9    -0.675056788364E+03   -0.17433E-03   -0.15114E-03  8424   0.390E-03 0.550E-03
CGA:  10    -0.675056915405E+03   -0.12704E-03   -0.95959E-04  8424   0.255E-03 0.234E-03
CGA:  11    -0.675056980103E+03   -0.64698E-04   -0.49201E-04  8424   0.208E-03 0.211E-03
CGA:  12    -0.675057023214E+03   -0.43111E-04   -0.34648E-04  8424   0.189E-03 0.196E-03
CGA:  13    -0.675057063243E+03   -0.40029E-04   -0.32038E-04  8424   0.176E-03 0.182E-03
CGA:  14    -0.675057097903E+03   -0.34660E-04   -0.28705E-04  8424   0.168E-03 0.172E-03
CGA:  15    -0.675057130929E+03   -0.33026E-04   -0.27451E-04  8424   0.161E-03 0.164E-03
CGA:  16    -0.675057162178E+03   -0.31249E-04   -0.26248E-04  8424   0.156E-03 0.158E-03
CGA:  17    -0.675057192939E+03   -0.30760E-04   -0.25776E-04  8424   0.152E-03 0.154E-03
CGA:  18    -0.675057223257E+03   -0.30319E-04   -0.25395E-04  8424   0.148E-03 0.150E-03
CGA:  19    -0.675057253835E+03   -0.30578E-04   -0.25413E-04  8424   0.145E-03 0.147E-03
CGA:  20    -0.675057284715E+03   -0.30880E-04   -0.25497E-04  8424   0.143E-03 0.144E-03
CGA:  21    -0.675057316458E+03   -0.31743E-04   -0.25895E-04  8424   0.141E-03 0.142E-03
CGA:  22    -0.675057349082E+03   -0.32624E-04   -0.26338E-04  8424   0.139E-03 0.140E-03
CGA:  23    -0.675057382913E+03   -0.33831E-04   -0.26996E-04  8424   0.139E-03 0.138E-03
CGA:  24    -0.675057417825E+03   -0.34912E-04   -0.27755E-04  8424   0.143E-03 0.134E-03
CGA:  25    -0.675057449504E+03   -0.31679E-04   -0.26873E-04  8424   0.159E-03 0.122E-03
CGA:  26    -0.675057478395E+03   -0.28891E-04   -0.27070E-04  8424   0.191E-03 0.959E-04
CGA:  27    -0.675057501085E+03   -0.22689E-04   -0.24637E-04  8424   0.174E-03 0.839E-04
CGA:  28    -0.675057578119E+03   -0.77034E-04   -0.57455E-04  8424   0.197E-03 0.246E-03
CGA:  29    -0.675057606555E+03   -0.28436E-04   -0.28981E-04  8424   0.190E-03 0.656E-04
CGA:  30    -0.675057697994E+03   -0.91439E-04   -0.65246E-04  8424   0.198E-03 0.249E-03
CGA:  31    -0.675057727397E+03   -0.29403E-04   -0.29946E-04  8424   0.180E-03 0.649E-04
CGA:  32    -0.675057842471E+03   -0.11507E-03   -0.76809E-04  8424   0.201E-03 0.233E-03
CGA:  33    -0.675057876175E+03   -0.33704E-04   -0.33701E-04  8424   0.189E-03 0.537E-04
CGA:  34    -0.675058015676E+03   -0.13950E-03   -0.91008E-04  8424   0.205E-03 0.224E-03
CGA:  35    -0.675058062268E+03   -0.46592E-04   -0.45212E-04  8424   0.232E-03 0.317E-04
CGA:  36    -0.675058256193E+03   -0.19393E-03   -0.13401E-03  8424   0.340E-03 0.180E-03
CGA:  37    -0.675058334688E+03   -0.78495E-04   -0.77311E-04  8424   0.162E-03 0.372E-04
CGA:  38    -0.675058527852E+03   -0.19316E-03   -0.15249E-03  8424   0.665E-03 0.562E-04
CGA:  39    -0.675059666463E+03   -0.11386E-02   -0.92792E-03  8424   0.440E-02 0.114E-03
CGA:  40    -0.675063067357E+03   -0.34009E-02    0.31664E-02  8424   0.363E-02 0.385E-02
CGA:  41    -0.675063755853E+03   -0.68850E-03   -0.67116E-03  8424   0.860E-03-0.205E-03
CGA:  42    -0.675063941403E+03   -0.18555E-03   -0.17896E-03  8424   0.288E-03-0.146E-03
CGA:  43    -0.675064102871E+03   -0.16147E-03    0.11422E-03  8424   0.147E-03 0.115E-03
CGA:  44    -0.675064278215E+03   -0.17534E-03    0.43569E-04  8424   0.149E-03 0.149E-03
CGA:  45    -0.675064383259E+03   -0.10504E-03    0.58434E-04  8424   0.137E-03 0.728E-04
CGA:  46    -0.675064579608E+03   -0.19635E-03    0.33117E-04  8424   0.127E-03 0.177E-03
CGA:  47    -0.675064688462E+03   -0.10885E-03    0.26590E-04  8424   0.109E-03 0.945E-04
CGA:  48    -0.675064791804E+03   -0.10334E-03    0.18152E-04  8424   0.111E-03 0.946E-04
CGA:  49    -0.675064896963E+03   -0.10516E-03    0.18682E-04  8424   0.116E-03 0.926E-04
CGA:  50    -0.675065001174E+03   -0.10421E-03    0.21688E-04  8424   0.123E-03 0.885E-04
CGA:  51    -0.675065107004E+03   -0.10583E-03    0.25819E-04  8424   0.134E-03 0.814E-04
CGA:  52    -0.675065211297E+03   -0.10429E-03    0.37837E-04  8424   0.154E-03 0.682E-04
CGA:  53    -0.675065316339E+03   -0.10504E-03    0.70380E-04  8424   0.189E-03 0.442E-04
CGA:  54    -0.675065560751E+03   -0.24441E-03    0.35480E-04  8424   0.168E-03 0.244E-03
CGA:  55    -0.675065665228E+03   -0.10448E-03    0.12639E-03  8424   0.214E-03 0.322E-04
CGA:  56    -0.675065919786E+03   -0.25456E-03    0.37679E-04  8424   0.195E-03 0.256E-03
CGA:  57    -0.675066026356E+03   -0.10657E-03    0.79424E-03  8424   0.260E-03 0.405E-05
CGA:  58    -0.675066291254E+03   -0.26490E-03    0.39446E-04  8424   0.260E-03 0.267E-03
CGA:  59    -0.675066333639E+03   -0.42385E-04   -0.13062E-03  8424   0.179E-02-0.372E-03
CGA:  60    -0.675066578743E+03   -0.24510E-03   -0.22993E-03  8424   0.152E-03-0.103E-03
CGA:  61    -0.675066711250E+03   -0.13251E-03    0.26400E-04  8424   0.125E-03 0.128E-03
CGA:  62    -0.675066829368E+03   -0.11812E-03    0.21988E-04  8424   0.127E-03 0.116E-03
CGA:  63    -0.675066950113E+03   -0.12075E-03    0.22381E-04  8424   0.130E-03 0.115E-03
CGA:  64    -0.675067070215E+03   -0.12010E-03    0.24276E-04  8424   0.133E-03 0.115E-03
CGA:  65    -0.675067190843E+03   -0.12063E-03    0.25660E-04  8424   0.135E-03 0.114E-03
CGA:  66    -0.675067314538E+03   -0.12369E-03    0.25668E-04  8424   0.138E-03 0.114E-03
CGA:  67    -0.675067433091E+03   -0.11855E-03    0.30660E-04  8424   0.141E-03 0.113E-03
CGA:  68    -0.675067562244E+03   -0.12915E-03    0.27031E-04  8424   0.147E-03 0.111E-03
CGA:  69    -0.675067675627E+03   -0.11338E-03    0.45220E-04  8424   0.157E-03 0.105E-03
CGA:  70    -0.675067812741E+03   -0.13711E-03    0.33359E-04  8424   0.174E-03 0.948E-04
CGA:  71    -0.675067914111E+03   -0.10137E-03    0.28084E-03  8424   0.208E-03 0.728E-04
CGA:  72    -0.675068199829E+03   -0.28572E-03    0.49472E-04  8424   0.179E-03 0.294E-03
CGA:  73    -0.675068341419E+03   -0.14159E-03    0.51300E-04  8424   0.210E-03 0.760E-04
CGA:  74    -0.675068617974E+03   -0.27655E-03    0.55850E-04  8424   0.184E-03 0.298E-03
CGA:  75    -0.675068731173E+03   -0.11320E-03    0.17324E-03  8424   0.209E-03 0.802E-04
CGA:  76    -0.675069015804E+03   -0.28463E-03    0.52518E-04  8424   0.189E-03 0.297E-03
CGA:  77    -0.675069154284E+03   -0.13848E-03    0.69078E-04  8424   0.202E-03 0.875E-04
CGA:  78    -0.675069422567E+03   -0.26828E-03    0.57232E-04  8424   0.191E-03 0.292E-03
CGA:  79    -0.675069550228E+03   -0.12766E-03    0.10464E-03  8424   0.192E-03 0.969E-04
CGA:  80    -0.675069689922E+03   -0.13969E-03    0.71793E-04  8424   0.198E-03 0.936E-04
CGA:  81    -0.675069957361E+03   -0.26744E-03    0.57674E-04  8424   0.194E-03 0.295E-03
CGA:  82    -0.675070085821E+03   -0.12846E-03    0.11298E-03  8424   0.193E-03 0.990E-04
CGA:  83    -0.675070226459E+03   -0.14064E-03    0.72318E-04  8424   0.193E-03 0.101E-03
CGA:  84    -0.675070349027E+03   -0.12257E-03    0.14446E-03  8424   0.198E-03 0.998E-04
CGA:  85    -0.675070494930E+03   -0.14590E-03    0.71173E-04  8424   0.208E-03 0.940E-04
CGA:  86    -0.675070767703E+03   -0.27277E-03    0.62946E-04  8424   0.199E-03 0.306E-03
CGA:  87    -0.675070890057E+03   -0.12235E-03    0.18466E-03  8424   0.206E-03 0.971E-04
CGA:  88    -0.675071166548E+03   -0.27649E-03    0.60695E-04  8424   0.199E-03 0.305E-03
CGA:  89    -0.675071307339E+03   -0.14079E-03    0.84993E-04  8424   0.201E-03 0.101E-03
CGA:  90    -0.675071430084E+03   -0.12275E-03    0.19627E-03  8424   0.206E-03 0.981E-04
CGA:  91    -0.675071704368E+03   -0.27428E-03    0.62150E-04  8424   0.201E-03 0.305E-03
CGA:  92    -0.675071844711E+03   -0.14034E-03    0.89187E-04  8424   0.201E-03 0.102E-03
CGA:  93    -0.675071967572E+03   -0.12286E-03    0.19121E-03  8424   0.204E-03 0.100E-03
CGA:  94    -0.675072239191E+03   -0.27162E-03    0.63058E-04  8424   0.200E-03 0.304E-03
CGA:  95    -0.675072378933E+03   -0.13974E-03    0.89281E-04  8424   0.199E-03 0.104E-03
CGA:  96    -0.675072501932E+03   -0.12300E-03    0.17500E-03  8424   0.201E-03 0.103E-03
CGA:  97    -0.675072645453E+03   -0.14352E-03    0.82078E-04  8424   0.208E-03 0.991E-04
CGA:  98    -0.675072913875E+03   -0.26842E-03    0.68748E-04  8424   0.200E-03 0.309E-03
CGA:  99    -0.675073036102E+03   -0.12223E-03    0.19672E-03  8424   0.206E-03 0.102E-03
CGA: 100    -0.675073179093E+03   -0.14299E-03    0.93381E-04  8424   0.216E-03 0.941E-04
CGA: 101    -0.675073449425E+03   -0.27033E-03    0.70995E-04  8424   0.205E-03 0.314E-03
CGA: 102    -0.675073570635E+03   -0.12121E-03    0.28059E-03  8424   0.213E-03 0.965E-04
CGA: 103    -0.675073842484E+03   -0.27185E-03    0.67759E-04  8424   0.205E-03 0.311E-03
CGA: 104    -0.675073981116E+03   -0.13863E-03    0.10640E-03  8424   0.207E-03 0.997E-04
CGA: 105    -0.675074243120E+03   -0.26200E-03    0.70347E-04  8424   0.205E-03 0.306E-03
CGA: 106    -0.675074369815E+03   -0.12669E-03    0.18119E-03  8424   0.199E-03 0.104E-03
CGA: 107    -0.675074508090E+03   -0.13828E-03    0.92065E-04  8424   0.196E-03 0.108E-03
CGA: 108    -0.675074630232E+03   -0.12214E-03    0.16519E-03  8424   0.196E-03 0.110E-03
CGA: 109    -0.675074770900E+03   -0.14067E-03    0.78261E-04  8424   0.200E-03 0.108E-03
CGA: 110    -0.675074888094E+03   -0.11719E-03    0.29097E-03  8424   0.209E-03 0.102E-03
CGA: 111    -0.675075031349E+03   -0.14325E-03    0.10061E-03  8424   0.225E-03 0.904E-04
CGA: 112    -0.675075302837E+03   -0.27149E-03    0.76414E-04  8424   0.208E-03 0.321E-03
CGA: 113    -0.675075416851E+03   -0.11401E-03    0.14357E-02  8424   0.226E-03 0.899E-04
CGA: 114    -0.675075692113E+03   -0.27526E-03    0.74774E-04  8424   0.207E-03 0.322E-03
CGA: 115    -0.675075831523E+03   -0.13941E-03    0.11061E-03  8424   0.225E-03 0.903E-04
CGA: 116    -0.675076100201E+03   -0.26868E-03    0.78598E-04  8424   0.207E-03 0.320E-03
CGA: 117    -0.675076215931E+03   -0.11573E-03    0.67565E-03  8424   0.220E-03 0.919E-04
CGA: 118    -0.675076483935E+03   -0.26800E-03    0.74270E-04  8424   0.206E-03 0.315E-03
CGA: 119    -0.675076619655E+03   -0.13572E-03    0.12389E-03  8424   0.212E-03 0.948E-04
CGA: 120    -0.675076875588E+03   -0.25593E-03    0.76302E-04  8424   0.205E-03 0.306E-03
CGA: 121    -0.675076995461E+03   -0.11987E-03    0.31807E-03  8424   0.202E-03 0.983E-04
CGA: 122    -0.675077246800E+03   -0.25134E-03    0.70387E-04  8424   0.203E-03 0.296E-03
CGA: 123    -0.675077377956E+03   -0.13116E-03    0.13446E-03  8424   0.191E-03 0.102E-03
CGA: 124    -0.675077497477E+03   -0.11952E-03    0.15324E-03  8424   0.181E-03 0.112E-03
CGA: 125    -0.675077629327E+03   -0.13185E-03    0.68612E-04  8424   0.175E-03 0.118E-03
CGA: 126    -0.675077745183E+03   -0.11586E-03    0.10026E-03  8424   0.171E-03 0.122E-03
CGA: 127    -0.675077876739E+03   -0.13156E-03    0.53242E-04  8424   0.170E-03 0.123E-03
CGA: 128    -0.675077989516E+03   -0.11278E-03    0.96241E-04  8424   0.171E-03 0.122E-03
CGA: 129    -0.675078120991E+03   -0.13147E-03    0.52882E-04  8424   0.174E-03 0.119E-03
CGA: 130    -0.675078229610E+03   -0.10862E-03    0.14674E-03  8424   0.182E-03 0.112E-03
CGA: 131    -0.675078361821E+03   -0.13221E-03    0.69152E-04  8424   0.196E-03 0.100E-03
CGA: 132    -0.675077917298E+03    0.44452E-03   -0.25201E-03  8424   0.954E-02-0.553E-03
CGA: 133    -0.675079193726E+03   -0.12764E-02   -0.11882E-02  8424   0.163E-03-0.243E-03
CGA: 134    -0.675079381488E+03   -0.18776E-03    0.14801E-03  8424   0.245E-03 0.101E-03
CGA: 135    -0.675079495251E+03   -0.11376E-03   -0.10905E-03  8424   0.103E-02-0.174E-03
CGA: 136    -0.675079634428E+03   -0.13918E-03   -0.13594E-03  8424   0.163E-03-0.962E-05
CGA: 137    -0.675079857877E+03   -0.22345E-03    0.68900E-04  8424   0.174E-03 0.147E-03
CGA: 138    -0.675078460031E+03    0.13978E-02   -0.75364E-03  8424   0.201E-01-0.768E-03
CGA: 139    -0.675081128759E+03   -0.26687E-02   -0.25763E-02  8424   0.221E-03-0.176E-03
CGA: 140    -0.675081203618E+03   -0.74858E-04   -0.73596E-04  8424   0.340E-03-0.333E-05
CGA: 141    -0.675081912938E+03   -0.70932E-03    0.34354E-03  8424   0.476E-03 0.238E-03
CGA: 142    -0.675082099982E+03   -0.18704E-03   -0.15496E-03  8424   0.271E-03-0.732E-04
CGA: 143    -0.675082274101E+03   -0.17412E-03   -0.33483E-03  8424   0.404E-02-0.230E-03
CGA: 144    -0.675082925255E+03   -0.65115E-03   -0.56269E-03  8424   0.363E-03-0.141E-03
CGA: 145    -0.675083109381E+03   -0.18413E-03   -0.16520E-03  8424   0.329E-03-0.687E-04
CGA: 146    -0.675083217519E+03   -0.10814E-03   -0.44771E-03  8424   0.630E-02-0.368E-03
CGA: 147    -0.675084128552E+03   -0.91103E-03   -0.83726E-03  8424   0.592E-03-0.128E-03
CGA: 148    -0.675084362788E+03   -0.23424E-03   -0.22797E-03  8424   0.229E-03-0.184E-04
CGA: 149    -0.675084527809E+03   -0.16502E-03   -0.17833E-03  8424   0.138E-02-0.189E-03
CGA: 150    -0.675084716888E+03   -0.18908E-03   -0.21378E-03  8424   0.225E-03 0.446E-04
CGA: 151    -0.675084885554E+03   -0.16867E-03   -0.17799E-03  8424   0.918E-03-0.157E-03
CGA: 152    -0.675085021988E+03   -0.13643E-03   -0.15832E-03  8424   0.191E-03 0.380E-04
CGA: 153    -0.675085160647E+03   -0.13866E-03   -0.15772E-03  8424   0.956E-03-0.123E-03
CGA: 154    -0.675085272341E+03   -0.11169E-03   -0.16344E-03  8424   0.285E-03 0.667E-04
CGA: 155    -0.675085112135E+03    0.16021E-03   -0.65717E-04  8424   0.835E-03 0.241E-03
CGA: 156    -0.675084625111E+03    0.48702E-03   -0.17898E-03  8424   0.244E-02 0.620E-03
CGA: 157    -0.675083755545E+03    0.86957E-03   -0.60339E-03  8424   0.487E-02 0.136E-02
CGA: 158    -0.675084204192E+03   -0.44865E-03   -0.15367E-02  8424   0.331E-02 0.193E-02
CGA: 159    -0.675084969047E+03   -0.76486E-03   -0.13928E-02  8424   0.106E-02 0.145E-02
CGA: 160    -0.675084709387E+03    0.25966E-03   -0.26258E-03  8424   0.371E-02 0.106E-02
CGA: 161    -0.675083740914E+03    0.96847E-03   -0.73682E-03  8424   0.814E-02 0.190E-02
CGA: 162    -0.675081363383E+03    0.23775E-02   -0.14938E-02  8424   0.146E-01 0.372E-02
CGA: 163    -0.675069337711E+03    0.12026E-01   -0.26494E-02  8424   0.533E-01 0.245E-01
CGA: 164    -0.675077345095E+03   -0.80074E-02   -0.14860E-01  8424   0.357E-01 0.125E-01
CGA: 165    -0.675080216467E+03   -0.28714E-02   -0.11205E-01  8424   0.107E-01 0.145E-01
CGA: 166    -0.675085511004E+03   -0.52945E-02   -0.54262E-02  8424   0.284E-02-0.114E-02
CGA: 167    -0.675086034351E+03   -0.52335E-03   -0.70838E-03  8424   0.227E-03-0.139E-04
CGA: 168    -0.675086260528E+03   -0.22618E-03   -0.29696E-03  8424   0.192E-02-0.291E-03
CGA: 169    -0.675086586637E+03   -0.32611E-03   -0.25136E-03  8424   0.405E-03-0.203E-03
CGA: 170    -0.675086778196E+03   -0.19156E-03   -0.19203E-03  8424   0.402E-03-0.966E-05
CGA: 171    -0.675086983680E+03   -0.20548E-03   -0.22459E-03  8424   0.156E-02-0.220E-03
CGA: 172    -0.675087136372E+03   -0.15269E-03   -0.16628E-03  8424   0.137E-03 0.371E-04
CGA: 173    -0.675086394987E+03    0.74139E-03   -0.40346E-03  8424   0.493E-02-0.454E-03
CGA: 174    -0.675087523597E+03   -0.11286E-02   -0.11754E-02  8424   0.121E-02 0.733E-04
CGA: 175    -0.675087854673E+03   -0.33108E-03   -0.28892E-03  8424   0.214E-03-0.718E-04
CGA: 176    -0.675087904704E+03   -0.50030E-04   -0.59444E-04  8424   0.155E-03 0.185E-04
CGA: 177    -0.675088024347E+03   -0.11964E-03   -0.21925E-03  8424   0.139E-02-0.190E-03
CGA: 178    -0.675088249580E+03   -0.22523E-03   -0.25405E-03  8424   0.332E-03 0.456E-04
CGA: 179    -0.675088356101E+03   -0.10652E-03   -0.99333E-04  8424   0.135E-03-0.156E-04
CGA: 180    -0.675088451992E+03   -0.95892E-04   -0.96960E-04  8424   0.684E-03-0.116E-03
CGA: 181    -0.675088515364E+03   -0.63372E-04   -0.10254E-03  8424   0.112E-03 0.662E-04
CGA: 182    -0.675088586377E+03   -0.71013E-04   -0.62096E-04  8424   0.202E-03-0.428E-04
CGA: 183    -0.675088672067E+03   -0.85690E-04   -0.77373E-04  8424   0.481E-03-0.986E-04
CGA: 184    -0.675088846598E+03   -0.17453E-03   -0.19107E-03  8424   0.215E-02-0.243E-03
CGA: 185    -0.675089404705E+03   -0.55811E-03   -0.52371E-03  8424   0.535E-03-0.781E-04
CGA: 186    -0.675089489788E+03   -0.85082E-04   -0.11138E-03  8424   0.117E-03 0.558E-04
CGA: 187    -0.675089538599E+03   -0.48811E-04   -0.42440E-04  8424   0.590E-04-0.194E-04
CGA: 188    -0.675089588929E+03   -0.50330E-04   -0.58954E-04  8424   0.153E-03-0.129E-04
CGA: 189    -0.675089643076E+03   -0.54147E-04   -0.57830E-04  8424   0.193E-03 0.224E-04
CGA: 190    -0.675089800438E+03   -0.15736E-03   -0.22678E-03  8424   0.105E-02-0.208E-03
CGA: 191    -0.675089941223E+03   -0.14078E-03   -0.19832E-03  8424   0.227E-03 0.944E-04
CGA: 192    -0.675090024064E+03   -0.82841E-04   -0.82862E-04  8424   0.155E-03 0.808E-05
CGA: 193    -0.675090047479E+03   -0.23415E-04   -0.43112E-04  8424   0.143E-03 0.697E-04
CGA: 194    -0.675089981061E+03    0.66418E-04   -0.27972E-04  8424   0.226E-03 0.136E-03
CGA: 195    -0.675090003691E+03   -0.22631E-04   -0.60328E-04  8424   0.218E-03 0.164E-03
CGA: 196    -0.675090123353E+03   -0.11966E-03   -0.12114E-03  8424   0.424E-04 0.567E-05
CGA: 197    -0.675090133489E+03   -0.10136E-04   -0.14670E-04  8424   0.275E-04 0.142E-04
CGA: 198    -0.675090176259E+03   -0.42770E-04    0.38377E-03  8424   0.258E-04 0.459E-05
CGA: 199    -0.675090185341E+03   -0.90819E-05   -0.10159E-04  8424   0.207E-04 0.677E-05
CGA: 200    -0.675090226705E+03   -0.41364E-04    0.16830E-04  8424   0.177E-04 0.114E-04
   6 F= -.67509023E+03 E0= -.67509023E+03  d E =-.866465E-01  mag=     5.0000
       N       E                     dE             d eps       ncg     rms          ort
SDA:   1    -0.673300616944E+03    0.17896E+01    0.00000E+00  8424   0.491E+01 0.000E+00
CGA:   2    -0.674629524801E+03   -0.13289E+01   -0.13291E+01  8424   0.184E+01 0.200E-02
CGA:   3    -0.674977946228E+03   -0.34842E+00   -0.34946E+00  8424   0.533E+00 0.751E-03
CGA:   4    -0.675073543898E+03   -0.95598E-01   -0.95504E-01  8424   0.136E+00-0.941E-03
CGA:   5    -0.675096726366E+03   -0.23182E-01   -0.22826E-01  8424   0.266E-01-0.109E-02
CGA:   6    -0.675102309407E+03   -0.55830E-02   -0.54428E-02  8424   0.661E-02-0.508E-03
CGA:   7    -0.675103984868E+03   -0.16755E-02   -0.16494E-02  8424   0.246E-02-0.122E-03
CGA:   8    -0.675104644005E+03   -0.65914E-03   -0.64650E-03  8424   0.876E-03-0.660E-04
CGA:   9    -0.675104968064E+03   -0.32406E-03   -0.30305E-03  8424   0.547E-03-0.221E-03
CGA:  10    -0.675097286844E+03    0.76812E-02   -0.41826E-02  8424   0.379E-01-0.359E-02
CGA:  11    -0.675104065023E+03   -0.67782E-02   -0.69135E-02  8424   0.513E-02 0.204E-03
CGA:  12    -0.675105869146E+03   -0.18041E-02   -0.18028E-02  8424   0.182E-02-0.356E-05
CGA:  13    -0.675106557857E+03   -0.68871E-03   -0.68423E-03  8424   0.809E-03-0.111E-04
CGA:  14    -0.675106984212E+03   -0.42635E-03   -0.33697E-03  8424   0.622E-03-0.278E-03
CGA:  15    -0.675107103191E+03   -0.11898E-03   -0.93451E-04  8424   0.179E-03-0.516E-04
CGA:  16    -0.675107197853E+03   -0.94662E-04   -0.71055E-04  8424   0.220E-03-0.888E-04
CGA:  17    -0.675107409358E+03   -0.21150E-03    0.98629E-04  8424   0.969E-03-0.292E-03
CGA:  18    -0.675107579707E+03   -0.17035E-03   -0.18511E-03  8424   0.228E-03 0.301E-04
CGA:  19    -0.675107718034E+03   -0.13833E-03   -0.18069E-03  8424   0.982E-03-0.396E-03
CGA:  20    -0.675107845915E+03   -0.12788E-03   -0.16883E-03  8424   0.178E-03 0.827E-04
CGA:  21    -0.675107946202E+03   -0.10029E-03   -0.77691E-04  8424   0.949E-04-0.942E-04
CGA:  22    -0.675108004810E+03   -0.58608E-04   -0.62439E-04  8424   0.452E-03-0.143E-03
CGA:  23    -0.675108125238E+03   -0.12043E-03   -0.80012E-04  8424   0.882E-04-0.891E-04
CGA:  24    -0.675108168761E+03   -0.43523E-04   -0.39056E-04  8424   0.209E-03-0.771E-04
CGA:  25    -0.675108269346E+03   -0.10058E-03   -0.53350E-04  8424   0.182E-03-0.135E-03
CGA:  26    -0.675108292018E+03   -0.22672E-04   -0.23304E-04  8424   0.141E-04 0.138E-05
CGA:  27    -0.675108392971E+03   -0.10095E-03    0.76395E-06  8424   0.150E-04 0.130E-04
CGA:  28    -0.675108488930E+03   -0.95959E-04    0.91793E-06  8424   0.408E-04 0.423E-05
CGA:  29    -0.675108819248E+03   -0.33032E-03    0.32382E-05  8424   0.271E-04 0.373E-04
CGA:  30    -0.675108911108E+03   -0.91860E-04    0.38598E-05  8424   0.107E-03-0.243E-04
CGA:  31    -0.675108936961E+03   -0.25853E-04   -0.18981E-04  8424   0.269E-04-0.178E-04
CGA:  32    -0.675109036902E+03   -0.99941E-04    0.19892E-05  8424   0.562E-04-0.532E-05
CGA:  33    -0.675109331640E+03   -0.29474E-03    0.24748E-05  8424   0.298E-04 0.320E-04
CGA:  34    -0.675109408586E+03   -0.76946E-04    0.59738E-05  8424   0.445E-04-0.145E-04
CGA:  35    -0.675109610734E+03   -0.20215E-03    0.88349E-06  8424   0.974E-04-0.673E-05
CGA:  36    -0.675110099319E+03   -0.48859E-03    0.51235E-05  8424   0.737E-04 0.370E-04
CGA:  37    -0.675110499935E+03   -0.40062E-03    0.10684E-04  8424   0.132E-03-0.181E-04
CGA:  38    -0.675111315955E+03   -0.81602E-03    0.41834E-05  8424   0.322E-03-0.776E-04
CGA:  39    -0.675111399236E+03   -0.83281E-04   -0.82139E-04  8424   0.747E-04-0.445E-05
CGA:  40    -0.675111497817E+03   -0.98582E-04    0.75767E-04  8424   0.238E-03-0.110E-03
CGA:  41    -0.675111510942E+03   -0.13124E-04   -0.29499E-04  8424   0.221E-04 0.401E-04
CGA:  42    -0.675110800447E+03    0.71049E-03   -0.38531E-03  8424   0.403E-02-0.283E-03
CGA:  43    -0.675111669803E+03   -0.86936E-03   -0.76164E-03  8424   0.885E-03-0.212E-03
CGA:  44    -0.675111715807E+03   -0.46005E-04   -0.21138E-03  8424   0.414E-03 0.784E-04
CGA:  45    -0.675110944660E+03    0.77115E-03   -0.70178E-04  8424   0.206E-02 0.484E-03
CGA:  46    -0.675109460834E+03    0.14838E-02   -0.50903E-03  8424   0.496E-02 0.151E-02
CGA:  47    -0.675107157225E+03    0.23036E-02   -0.12708E-02  8424   0.912E-02 0.346E-02
CGA:  48    -0.675103846283E+03    0.33109E-02   -0.23440E-02  8424   0.153E-01 0.596E-02
CGA:  49    -0.675095699824E+03    0.81465E-02   -0.34725E-02  8424   0.276E-01 0.104E-01
CGA:  50    -0.675083062580E+03    0.12637E-01   -0.62236E-02  8424   0.573E-01 0.209E-01
CGA:  51    -0.675048184503E+03    0.34878E-01   -0.11932E-01  8424   0.106E+00 0.369E-01
CGA:  52    -0.675031107183E+03    0.17077E-01   -0.27407E-01  8424   0.165E+00 0.733E-01
CGA:  53    -0.675031795989E+03   -0.68881E-03   -0.47249E-01  8424   0.144E+00 0.669E-01
CGA:  54    -0.674873743053E+03    0.15805E+00   -0.29513E-01  8424   0.456E+00 0.244E+00
CGA:  55    -0.674903424716E+03   -0.29682E-01   -0.12969E+00  8424   0.490E+00 0.187E+00
CGA:  56    -0.674670850086E+03    0.23257E+00   -0.12978E+00  8424   0.712E+00 0.590E+00
CGA:  57    -0.674888549728E+03   -0.21770E+00   -0.25396E+00  8424   0.448E+00 0.315E+00
CGA:  58    -0.675004623731E+03   -0.11607E+00   -0.20139E+00  8424   0.152E+00 0.194E+00
CGA:  59    -0.675046913239E+03   -0.42290E-01   -0.58028E-01  8424   0.151E+00 0.131E+00
CGA:  60    -0.675097355247E+03   -0.50442E-01   -0.60124E-01  8424   0.181E-01 0.351E-01
CGA:  61    -0.675107364697E+03   -0.10009E-01   -0.10498E-01  8424   0.478E-02 0.564E-02
CGA:  62    -0.675109283550E+03   -0.19189E-02   -0.19034E-02  8424   0.627E-02-0.630E-04
CGA:  63    -0.675111853758E+03   -0.25702E-02   -0.25646E-02  8424   0.194E-02 0.254E-03
CGA:  64    -0.675112015879E+03   -0.16212E-03   -0.22842E-03  8424   0.447E-03 0.221E-03
CGA:  65    -0.675112158503E+03   -0.14262E-03   -0.15028E-03  8424   0.723E-03 0.593E-04
CGA:  66    -0.675112429094E+03   -0.27059E-03   -0.20478E-03  8424   0.377E-03-0.215E-03
CGA:  67    -0.675112554130E+03   -0.12504E-03   -0.93705E-04  8424   0.454E-03-0.275E-03
CGA:  68    -0.675112580886E+03   -0.26756E-04   -0.59049E-04  8424   0.115E-03 0.982E-04
CGA:  69    -0.675112655475E+03   -0.74588E-04   -0.13228E-03  8424   0.583E-03-0.119E-03
CGA:  70    -0.675112843539E+03   -0.18806E-03   -0.11759E-03  8424   0.272E-03-0.262E-03
CGA:  71    -0.675112867941E+03   -0.24402E-04   -0.30983E-04  8424   0.383E-04 0.262E-04
CGA:  72    -0.675112866729E+03    0.12118E-05   -0.36765E-05  8424   0.833E-05 0.137E-04
   7 F= -.67511287E+03 E0= -.67511287E+03  d E =-.226400E-01  mag=     5.0000
       N       E                     dE             d eps       ncg     rms          ort
SDA:   1    -0.675037897747E+03    0.74970E-01    0.00000E+00  8424   0.210E+00 0.000E+00
CGA:   2    -0.675089132180E+03   -0.51234E-01   -0.51269E-01  8424   0.100E+00 0.124E-03
CGA:   3    -0.675108679834E+03   -0.19548E-01   -0.19466E-01  8424   0.261E-01-0.357E-03
CGA:   4    -0.675113019124E+03   -0.43393E-02   -0.43382E-02  8424   0.631E-02-0.779E-05
CGA:   5    -0.675114095673E+03   -0.10765E-02   -0.10776E-02  8424   0.127E-02 0.318E-05
CGA:   6    -0.675114395843E+03   -0.30017E-03   -0.28391E-03  8424   0.354E-03-0.102E-03
CGA:   7    -0.675114494808E+03   -0.98965E-04   -0.90621E-04  8424   0.175E-03-0.862E-04
CGA:   8    -0.675114198989E+03    0.29582E-03   -0.15555E-03  8424   0.299E-02-0.560E-03
CGA:   9    -0.675114650884E+03   -0.45189E-03   -0.44984E-03  8424   0.325E-03-0.851E-05
CGA:  10    -0.675114773987E+03   -0.12310E-03   -0.12032E-03  8424   0.160E-03-0.105E-03
CGA:  11    -0.675114637401E+03    0.13659E-03   -0.11886E-03  8424   0.163E-02-0.364E-03
CGA:  12    -0.675114950979E+03   -0.31358E-03   -0.28846E-03  8424   0.194E-03-0.986E-04
CGA:  13    -0.675115013092E+03   -0.62113E-04   -0.58714E-04  8424   0.117E-03-0.351E-04
CGA:  14    -0.675115094579E+03   -0.81487E-04    0.87010E-03  8424   0.189E-03-0.112E-03
CGA:  15    -0.675115116057E+03   -0.21478E-04   -0.24580E-04  8424   0.237E-04 0.110E-04
CGA:  16    -0.675115168689E+03   -0.52632E-04    0.30816E-05  8424   0.127E-04-0.313E-05
CGA:  17    -0.675115233710E+03   -0.65022E-04    0.34687E-06  8424   0.108E-04-0.581E-06
CGA:  18    -0.675115321788E+03   -0.88077E-04    0.21112E-06  8424   0.164E-04 0.323E-05
CGA:  19    -0.675115507348E+03   -0.18556E-03    0.43339E-06  8424   0.939E-05 0.129E-04
CGA:  20    -0.675115544259E+03   -0.36911E-04    0.48040E-06  8424   0.683E-05 0.239E-06
CGA:  21    -0.675115609673E+03   -0.65414E-04    0.13132E-06  8424   0.624E-05 0.341E-05
CGA:  22    -0.675115704932E+03   -0.95260E-04    0.15959E-06  8424   0.597E-05 0.668E-05
CGA:  23    -0.675115741744E+03   -0.36812E-04    0.17775E-06  8424   0.576E-05 0.910E-06
CGA:  24    -0.675115813159E+03   -0.71415E-04    0.10648E-06  8424   0.468E-05 0.524E-05
CGA:  25    -0.675115848607E+03   -0.35448E-04    0.11071E-06  8424   0.414E-05 0.173E-05
CGA:  26    -0.675115915885E+03   -0.67278E-04    0.81971E-07  8424   0.404E-05 0.501E-05
CGA:  27    -0.675115950067E+03   -0.34182E-04    0.84213E-07  8424   0.347E-05 0.212E-05
CGA:  28    -0.675115986511E+03   -0.36444E-04    0.57131E-07  8424   0.360E-05 0.214E-05
CGA:  29    -0.675116017380E+03   -0.30869E-04    0.74145E-07  8424   0.495E-05 0.153E-05
CGA:  30    -0.675116101461E+03   -0.84081E-04    0.10121E-06  8424   0.365E-05 0.625E-05
CGA:  31    -0.675116135453E+03   -0.33992E-04    0.68409E-07  8424   0.335E-05 0.189E-05
CGA:  32    -0.675116168893E+03   -0.33440E-04    0.58364E-07  8424   0.327E-05 0.205E-05
CGA:  33    -0.675116202862E+03   -0.33969E-04    0.54500E-07  8424   0.367E-05 0.189E-05
CGA:  34    -0.675116234539E+03   -0.31678E-04    0.74988E-07  8424   0.545E-05 0.958E-06
CGA:  35    -0.675116318083E+03   -0.83543E-04    0.96712E-07  8424   0.400E-05 0.638E-05
CGA:  36    -0.675116350352E+03   -0.32270E-04    0.87932E-07  8424   0.531E-05 0.644E-06
CGA:  37    -0.675116425977E+03   -0.75625E-04    0.85897E-07  8424   0.475E-05 0.543E-05
CGA:  38    -0.675116458609E+03   -0.32632E-04    0.12527E-06  8424   0.442E-05 0.359E-06
CGA:  39    -0.675116519321E+03   -0.60712E-04    0.63541E-07  8424   0.454E-05 0.444E-05
CGA:  40    -0.675116550997E+03   -0.31676E-04    0.11787E-06  8424   0.347E-05 0.852E-06
CGA:  41    -0.675116605781E+03   -0.54784E-04    0.52760E-07  8424   0.374E-05 0.402E-05
CGA:  42    -0.675116636889E+03   -0.31108E-04    0.79800E-07  8424   0.278E-05 0.153E-05
CGA:  43    -0.675116690000E+03   -0.53111E-04    0.49313E-07  8424   0.326E-05 0.380E-05
CGA:  44    -0.675116720367E+03   -0.30367E-04    0.61256E-07  8424   0.249E-05 0.182E-05
CGA:  45    -0.675116750323E+03   -0.29955E-04    0.35497E-07  8424   0.231E-05 0.215E-05
CGA:  46    -0.675116780345E+03   -0.30023E-04    0.30236E-07  8424   0.226E-05 0.221E-05
CGA:  47    -0.675116809797E+03   -0.29451E-04    0.29512E-07  8424   0.224E-05 0.221E-05
CGA:  48    -0.675116839910E+03   -0.30114E-04    0.28325E-07  8424   0.224E-05 0.219E-05
CGA:  49    -0.675116868523E+03   -0.28612E-04    0.29910E-07  8424   0.229E-05 0.215E-05
CGA:  50    -0.675116899402E+03   -0.30879E-04    0.28770E-07  8424   0.250E-05 0.202E-05
CGA:  51    -0.675116925648E+03   -0.26247E-04    0.41400E-07  8424   0.344E-05 0.153E-05
CGA:  52    -0.675116959603E+03   -0.33955E-04    0.60755E-07  8424   0.757E-05-0.444E-06
CGA:  53    -0.675117053577E+03   -0.93974E-04    0.78390E-07  8424   0.966E-05 0.643E-05
CGA:  54    -0.675117064728E+03   -0.11151E-04    0.43688E-05  8424   0.383E-04-0.142E-04
CGA:  55    -0.675117102938E+03   -0.38210E-04    0.30932E-04  8424   0.188E-03-0.791E-04
CGA:  56    -0.675117116242E+03   -0.13304E-04   -0.20107E-04  8424   0.456E-05 0.234E-04
CGA:  57    -0.675117132456E+03   -0.16214E-04    0.31845E-06  8424   0.238E-04-0.666E-05
CGA:  58    -0.675117169337E+03   -0.36881E-04    0.45092E-05  8424   0.121E-03-0.484E-04
CGA:  59    -0.675117177163E+03   -0.78259E-05   -0.12242E-04  8424   0.361E-05 0.156E-04
   8 F= -.67511718E+03 E0= -.67511718E+03  d E =-.431043E-02  mag=     5.0000
       N       E                     dE             d eps       ncg     rms          ort
SDA:   1    -0.674761207989E+03    0.35596E+00    0.00000E+00  8424   0.932E+00 0.000E+00
CGA:   2    -0.675013222964E+03   -0.25201E+00   -0.25200E+00  8424   0.432E+00-0.432E-03
CGA:   3    -0.675093075093E+03   -0.79852E-01   -0.79669E-01  8424   0.107E+00-0.917E-03
CGA:   4    -0.675111386189E+03   -0.18311E-01   -0.18365E-01  8424   0.263E-01 0.303E-03
CGA:   5    -0.675115768045E+03   -0.43819E-02   -0.44315E-02  8424   0.522E-02 0.271E-03
CGA:   6    -0.675116891127E+03   -0.11231E-02   -0.11161E-02  8424   0.134E-02-0.557E-04
CGA:   7    -0.675117222340E+03   -0.33121E-03   -0.32347E-03  8424   0.498E-03-0.876E-04
CGA:   8    -0.675117383773E+03   -0.16143E-03   -0.16767E-03  8424   0.352E-03-0.193E-03
CGA:   9    -0.675117444135E+03   -0.60362E-04   -0.10797E-03  8424   0.535E-03-0.279E-03
CGA:  10    -0.675117546871E+03   -0.10274E-03   -0.10116E-03  8424   0.114E-03-0.107E-04
CGA:  11    -0.675117437788E+03    0.10908E-03   -0.12881E-03  8424   0.113E-02-0.289E-03
CGA:  12    -0.675117676215E+03   -0.23843E-03   -0.22819E-03  8424   0.191E-03-0.604E-04
CGA:  13    -0.675117743059E+03   -0.66844E-04   -0.94101E-04  8424   0.298E-03-0.173E-03
CGA:  14    -0.675117803102E+03   -0.60043E-04   -0.53240E-04  8424   0.639E-04-0.354E-04
CGA:  15    -0.675117820882E+03   -0.17780E-04   -0.29361E-04  8424   0.170E-03-0.726E-04
CGA:  16    -0.675117876673E+03   -0.55791E-04   -0.40785E-04  8424   0.146E-03-0.116E-03
CGA:  17    -0.675117892206E+03   -0.15533E-04   -0.16801E-04  8424   0.669E-05 0.515E-05
CGA:  18    -0.675117925642E+03   -0.33436E-04    0.20652E-06  8424   0.743E-05 0.517E-05
CGA:  19    -0.675117956150E+03   -0.30508E-04    0.26867E-06  8424   0.140E-04 0.157E-05
CGA:  20    -0.675118042901E+03   -0.86751E-04    0.47424E-06  8424   0.851E-05 0.156E-04
CGA:  21    -0.675118073064E+03   -0.30163E-04    0.36829E-06  8424   0.163E-04-0.284E-06
CGA:  22    -0.675118160457E+03   -0.87393E-04    0.39821E-06  8424   0.156E-04 0.121E-04
CGA:  23    -0.675118183421E+03   -0.22964E-04    0.25115E-05  8424   0.244E-04-0.707E-05
CGA:  24    -0.675118251056E+03   -0.67635E-04    0.37840E-06  8424   0.340E-04-0.561E-06
CGA:  25    -0.675118389871E+03   -0.13881E-03    0.11729E-05  8424   0.508E-04 0.919E-05
CGA:  26    -0.675118619424E+03   -0.22955E-03    0.27833E-05  8424   0.426E-04 0.661E-05
CGA:  27    -0.675118824879E+03   -0.20545E-03    0.16583E-05  8424   0.276E-04 0.231E-04
CGA:  28    -0.675118868024E+03   -0.43145E-04    0.39370E-05  8424   0.328E-04-0.151E-04
CGA:  29    -0.675118868984E+03   -0.96065E-06   -0.33259E-05  8424   0.512E-05 0.947E-05
   9 F= -.67511887E+03 E0= -.67511887E+03  d E =-.169182E-02  mag=     5.0000
       N       E                     dE             d eps       ncg     rms          ort
SDA:   1    -0.674961261479E+03    0.15761E+00    0.00000E+00  8424   0.433E+00 0.000E+00
CGA:   2    -0.675070989115E+03   -0.10973E+00   -0.10971E+00  8424   0.204E+00-0.343E-03
CGA:   3    -0.675110301990E+03   -0.39313E-01   -0.39263E-01  8424   0.534E-01-0.336E-03
CGA:   4    -0.675119134287E+03   -0.88323E-02   -0.88584E-02  8424   0.126E-01 0.161E-03
CGA:   5    -0.675121242229E+03   -0.21079E-02   -0.21337E-02  8424   0.248E-02 0.169E-03
CGA:   6    -0.675121775336E+03   -0.53311E-03   -0.53147E-03  8424   0.629E-03-0.170E-04
CGA:   7    -0.675121940354E+03   -0.16502E-03   -0.16120E-03  8424   0.259E-03-0.794E-04
CGA:   8    -0.675122016020E+03   -0.75666E-04   -0.82782E-04  8424   0.205E-03-0.114E-03
CGA:   9    -0.675121953946E+03    0.62075E-04   -0.91650E-04  8424   0.964E-03-0.310E-03
CGA:  10    -0.675122114330E+03   -0.16038E-03   -0.16331E-03  8424   0.149E-03 0.178E-04
CGA:  11    -0.675122177304E+03   -0.62974E-04   -0.74117E-04  8424   0.127E-03-0.677E-04
CGA:  12    -0.675122135122E+03    0.42182E-04   -0.65832E-04  8424   0.491E-03-0.175E-03
CGA:  13    -0.675122279781E+03   -0.14466E-03   -0.13586E-03  8424   0.173E-03-0.102E-03
CGA:  14    -0.675122323807E+03   -0.44026E-04   -0.44111E-04  8424   0.382E-04 0.220E-05
CGA:  15    -0.675122365647E+03   -0.41840E-04    0.13471E-04  8424   0.329E-04-0.126E-04
CGA:  16    -0.675122386995E+03   -0.21348E-04    0.11108E-04  8424   0.251E-04-0.983E-06
CGA:  17    -0.675122432238E+03   -0.45243E-04    0.27161E-05  8424   0.168E-04 0.722E-05
CGA:  18    -0.675122491583E+03   -0.59344E-04    0.13555E-05  8424   0.195E-04 0.495E-05
CGA:  19    -0.675122553832E+03   -0.62250E-04    0.18301E-05  8424   0.170E-04 0.125E-04
CGA:  20    -0.675122567905E+03   -0.14073E-04    0.18667E-04  8424   0.735E-05 0.187E-05
CGA:  21    -0.675122592915E+03   -0.25010E-04    0.44216E-06  8424   0.723E-05 0.470E-05
CGA:  22    -0.675122604171E+03   -0.11256E-04    0.10915E-05  8424   0.749E-05 0.241E-05
CGA:  23    -0.675122637351E+03   -0.33180E-04    0.48773E-06  8424   0.689E-05 0.625E-05
CGA:  24    -0.675122652577E+03   -0.15226E-04    0.58733E-06  8424   0.575E-05 0.302E-05
CGA:  25    -0.675122676632E+03   -0.24055E-04    0.48150E-06  8424   0.687E-05 0.524E-05
CGA:  26    -0.675122694837E+03   -0.18205E-04    0.45279E-06  8424   0.860E-05 0.159E-05
CGA:  27    -0.675122724683E+03   -0.29846E-04    0.64128E-06  8424   0.791E-05 0.539E-05
CGA:  28    -0.675122740343E+03   -0.15660E-04    0.79708E-06  8424   0.636E-05 0.209E-05
CGA:  29    -0.675122760526E+03   -0.20183E-04    0.57003E-06  8424   0.896E-05 0.347E-05
CGA:  30    -0.675122781449E+03   -0.20923E-04    0.70346E-06  8424   0.162E-04-0.233E-05
CGA:  31    -0.675122817217E+03   -0.35768E-04    0.66702E-06  8424   0.182E-04 0.181E-05
CGA:  32    -0.675122864077E+03   -0.46860E-04    0.16180E-05  8424   0.378E-04 0.591E-05
CGA:  33    -0.675122997217E+03   -0.13314E-03    0.32781E-05  8424   0.190E-04 0.200E-04
CGA:  34    -0.675123023081E+03   -0.25864E-04    0.37127E-05  8424   0.147E-04-0.679E-05
CGA:  35    -0.675123036373E+03   -0.13292E-04    0.17186E-05  8424   0.248E-04-0.530E-05
CGA:  36    -0.675123082359E+03   -0.45986E-04    0.92205E-06  8424   0.188E-04 0.113E-04
CGA:  37    -0.675123135934E+03   -0.53575E-04    0.28238E-05  8424   0.556E-04-0.135E-04
CGA:  38    -0.675123138952E+03   -0.30185E-05   -0.54778E-05  8424   0.456E-05 0.952E-05
  10 F= -.67512314E+03 E0= -.67512314E+03  d E =-.426997E-02  mag=     5.0000
       N       E                     dE             d eps       ncg     rms          ort
SDA:   1    -0.675016420954E+03    0.10671E+00    0.00000E+00  8424   0.298E+00 0.000E+00
CGA:   2    -0.675090851365E+03   -0.74430E-01   -0.74441E-01  8424   0.147E+00 0.475E-04
CGA:   3    -0.675119462960E+03   -0.28612E-01   -0.28602E-01  8424   0.373E-01-0.756E-04
CGA:   4    -0.675125426272E+03   -0.59633E-02   -0.59865E-02  8424   0.861E-02 0.133E-03
CGA:   5    -0.675126920744E+03   -0.14945E-02   -0.15032E-02  8424   0.173E-02 0.563E-04
CGA:   6    -0.675127299371E+03   -0.37863E-03   -0.37294E-03  8424   0.478E-03-0.561E-04
CGA:   7    -0.675127403162E+03   -0.10379E-03   -0.10300E-03  8424   0.147E-03-0.911E-05
CGA:   8    -0.675127444694E+03   -0.41533E-04   -0.41339E-04  8424   0.615E-04-0.984E-05
CGA:   9    -0.675127466111E+03   -0.21416E-04   -0.25810E-04  8424   0.758E-04-0.307E-04
CGA:  10    -0.675127478265E+03   -0.12154E-04   -0.17378E-04  8424   0.818E-04-0.367E-04
CGA:  11    -0.675127506320E+03   -0.28055E-04    0.17734E-03  8424   0.595E-04-0.106E-04
CGA:  12    -0.675127541274E+03   -0.34954E-04    0.15316E-03  8424   0.482E-04 0.341E-05
CGA:  13    -0.675127333938E+03    0.20734E-03   -0.11334E-03  8424   0.127E-02-0.193E-03
CGA:  14    -0.675127655481E+03   -0.32154E-03   -0.30817E-03  8424   0.248E-03-0.395E-04
CGA:  15    -0.675127711240E+03   -0.55759E-04   -0.61714E-04  8424   0.558E-04 0.192E-04
CGA:  16    -0.675127733972E+03   -0.22732E-04   -0.21774E-04  8424   0.225E-04-0.515E-05
CGA:  17    -0.675127743636E+03   -0.96642E-05   -0.95506E-05  8424   0.156E-04-0.167E-05
CGA:  18    -0.675127750619E+03   -0.69828E-05   -0.14367E-04  8424   0.886E-04-0.166E-04
CGA:  19    -0.675127762733E+03   -0.12114E-04   -0.14082E-04  8424   0.153E-04 0.492E-05
CGA:  20    -0.675127765184E+03   -0.24516E-05   -0.17597E-04  8424   0.993E-04-0.278E-04
CGA:  21    -0.675127774969E+03   -0.97851E-05   -0.17652E-04  8424   0.186E-04 0.201E-04
CGA:  22    -0.675127785087E+03   -0.10118E-04   -0.15524E-04  8424   0.820E-04-0.371E-04
CGA:  23    -0.675127789610E+03   -0.45223E-05   -0.12743E-04  8424   0.163E-04 0.205E-04
  11 F= -.67512779E+03 E0= -.67512779E+03  d E =-.465066E-02  mag=     5.0000
       N       E                     dE             d eps       ncg     rms          ort
SDA:   1    -0.675053483210E+03    0.74302E-01    0.00000E+00  8424   0.211E+00 0.000E+00
CGA:   2    -0.675108329890E+03   -0.54847E-01   -0.54884E-01  8424   0.100E+00 0.124E-03
CGA:   3    -0.675127061332E+03   -0.18731E-01   -0.18764E-01  8424   0.257E-01 0.934E-04
CGA:   4    -0.675131372858E+03   -0.43115E-02   -0.43032E-02  8424   0.628E-02-0.314E-04
CGA:   5    -0.675132488211E+03   -0.11154E-02   -0.10887E-02  8424   0.126E-02-0.886E-04
CGA:   6    -0.675132767980E+03   -0.27977E-03   -0.26503E-03  8424   0.340E-03-0.592E-04
CGA:   7    -0.675132840715E+03   -0.72735E-04   -0.72436E-04  8424   0.108E-03-0.140E-05
CGA:   8    -0.675132867470E+03   -0.26755E-04   -0.27465E-04  8424   0.371E-04 0.379E-05
CGA:   9    -0.675132884255E+03   -0.16785E-04   -0.23521E-04  8424   0.100E-03-0.373E-04
CGA:  10    -0.675132907909E+03   -0.23654E-04   -0.20624E-04  8424   0.202E-04-0.130E-04
CGA:  11    -0.675132929808E+03   -0.21899E-04    0.82194E-05  8424   0.195E-04-0.742E-05
CGA:  12    -0.675132955882E+03   -0.26073E-04    0.17885E-05  8424   0.128E-04 0.176E-05
CGA:  13    -0.675132985170E+03   -0.29288E-04    0.20682E-05  8424   0.978E-05 0.448E-05
CGA:  14    -0.675133021155E+03   -0.35985E-04    0.12936E-05  8424   0.899E-05 0.429E-05
CGA:  15    -0.675133067299E+03   -0.46144E-04    0.87424E-06  8424   0.753E-05 0.808E-05
CGA:  16    -0.675133082144E+03   -0.14846E-04    0.12356E-05  8424   0.616E-05-0.103E-06
CGA:  17    -0.675133103839E+03   -0.21694E-04    0.41102E-06  8424   0.574E-05 0.288E-05
CGA:  18    -0.675133134790E+03   -0.30951E-04    0.54726E-06  8424   0.548E-05 0.529E-05
CGA:  19    -0.675133148411E+03   -0.13621E-04    0.61682E-06  8424   0.402E-05 0.126E-05
CGA:  20    -0.675133164334E+03   -0.15923E-04    0.38275E-06  8424   0.418E-05 0.333E-05
CGA:  21    -0.675133181691E+03   -0.17357E-04    0.23250E-06  8424   0.610E-05 0.634E-06
CGA:  22    -0.675133203876E+03   -0.22185E-04    0.56040E-06  8424   0.642E-05 0.317E-05
CGA:  23    -0.675133218346E+03   -0.14470E-04    0.84189E-06  8424   0.722E-05-0.579E-06
CGA:  24    -0.675133233094E+03   -0.14748E-04    0.86744E-06  8424   0.129E-04-0.103E-05
CGA:  25    -0.675133285387E+03   -0.52293E-04    0.52627E-06  8424   0.124E-04 0.965E-05
CGA:  26    -0.675133304690E+03   -0.19303E-04    0.32830E-05  8424   0.275E-04-0.820E-05
CGA:  27    -0.675133304665E+03    0.24731E-07   -0.25185E-05  8424   0.348E-05 0.756E-05
  12 F= -.67513330E+03 E0= -.67513330E+03  d E =-.551506E-02  mag=     5.0000
       N       E                     dE             d eps       ncg     rms          ort
SDA:   1    -0.675113126092E+03    0.20179E-01    0.00000E+00  8424   0.587E-01 0.000E+00
CGA:   2    -0.675128304210E+03   -0.15178E-01   -0.15226E-01  8424   0.269E-01 0.319E-03
CGA:   3    -0.675133507419E+03   -0.52032E-02   -0.51849E-02  8424   0.709E-02-0.915E-04
CGA:   4    -0.675134709502E+03   -0.12021E-02   -0.11961E-02  8424   0.166E-02-0.289E-04
CGA:   5    -0.675135013336E+03   -0.30383E-03   -0.28961E-03  8424   0.367E-03-0.702E-04
CGA:   6    -0.675135112033E+03   -0.98697E-04   -0.88519E-04  8424   0.146E-03-0.874E-04
CGA:   7    -0.675135136083E+03   -0.24050E-04   -0.23358E-04  8424   0.425E-04-0.459E-05
CGA:   8    -0.675135151567E+03   -0.15485E-04   -0.19266E-04  8424   0.654E-04-0.335E-04
CGA:   9    -0.675135174900E+03   -0.23333E-04   -0.22144E-04  8424   0.709E-04-0.539E-04
CGA:  10    -0.675135190181E+03   -0.15282E-04   -0.13127E-04  8424   0.886E-05-0.124E-04
CGA:  11    -0.675135204613E+03   -0.14431E-04    0.70729E-06  8424   0.679E-05-0.480E-06
CGA:  12    -0.675135230686E+03   -0.26074E-04    0.23553E-06  8424   0.383E-05 0.421E-05
CGA:  13    -0.675135242852E+03   -0.12166E-04    0.19006E-06  8424   0.402E-05 0.107E-05
CGA:  14    -0.675135272082E+03   -0.29229E-04    0.12716E-06  8424   0.396E-05 0.429E-05
CGA:  15    -0.675135283334E+03   -0.11252E-04    0.22740E-06  8424   0.341E-05 0.119E-05
CGA:  16    -0.675135308736E+03   -0.25403E-04    0.10835E-06  8424   0.377E-05 0.362E-05
CGA:  17    -0.675135320605E+03   -0.11868E-04    0.18981E-06  8424   0.346E-05 0.126E-05
CGA:  18    -0.675135347701E+03   -0.27097E-04    0.10998E-06  8424   0.404E-05 0.322E-05
CGA:  19    -0.675135357170E+03   -0.94690E-05    0.30264E-06  8424   0.431E-05 0.847E-06
  13 F= -.67513536E+03 E0= -.67513536E+03  d E =-.205250E-02  mag=     5.0000
       N       E                     dE             d eps       ncg     rms          ort
SDA:   1    -0.675110012356E+03    0.25335E-01    0.00000E+00  8424   0.694E-01 0.000E+00
CGA:   2    -0.675127956611E+03   -0.17944E-01   -0.17949E-01  8424   0.340E-01 0.417E-04
CGA:   3    -0.675134481891E+03   -0.65253E-02   -0.65128E-02  8424   0.846E-02-0.849E-04
CGA:   4    -0.675135896891E+03   -0.14150E-02   -0.14050E-02  8424   0.201E-02-0.602E-04
CGA:   5    -0.675136248183E+03   -0.35129E-03   -0.34303E-03  8424   0.436E-03-0.528E-04
CGA:   6    -0.675136351161E+03   -0.10298E-03   -0.97912E-04  8424   0.132E-03-0.557E-04
CGA:   7    -0.675136386674E+03   -0.35513E-04   -0.34760E-04  8424   0.815E-04-0.463E-04
CGA:   8    -0.675135707656E+03    0.67902E-03   -0.36891E-03  8424   0.466E-02-0.455E-03
CGA:   9    -0.675136404848E+03   -0.69719E-03   -0.68539E-03  8424   0.479E-03-0.280E-04
CGA:  10    -0.675136561367E+03   -0.15652E-03   -0.14745E-03  8424   0.131E-03-0.369E-04
CGA:  11    -0.675136616109E+03   -0.54741E-04   -0.48817E-04  8424   0.828E-04-0.426E-04
CGA:  12    -0.675136645849E+03   -0.29740E-04   -0.32070E-04  8424   0.107E-03-0.615E-04
CGA:  13    -0.675136688660E+03   -0.42812E-04   -0.32652E-04  8424   0.605E-04-0.436E-04
CGA:  14    -0.675136705017E+03   -0.16356E-04   -0.24423E-04  8424   0.139E-03-0.524E-04
CGA:  15    -0.675136751494E+03   -0.46478E-04   -0.30943E-04  8424   0.616E-04-0.500E-04
CGA:  16    -0.675136765146E+03   -0.13652E-04   -0.11798E-04  8424   0.134E-04-0.848E-05
CGA:  17    -0.675136796012E+03   -0.30866E-04    0.18048E-05  8424   0.309E-04-0.915E-05
CGA:  18    -0.675136804611E+03   -0.85986E-05   -0.61394E-05  8424   0.747E-05-0.796E-05
  14 F= -.67513680E+03 E0= -.67513680E+03  d E =-.144744E-02  mag=     5.0000
       N       E                     dE             d eps       ncg     rms          ort
SDA:   1    -0.675101256774E+03    0.35539E-01    0.00000E+00  8424   0.957E-01 0.000E+00
CGA:   2    -0.675125558162E+03   -0.24301E-01   -0.24265E-01  8424   0.511E-01-0.166E-03
CGA:   3    -0.675135450690E+03   -0.98925E-02   -0.98767E-02  8424   0.124E-01-0.619E-04
CGA:   4    -0.675137405703E+03   -0.19550E-02   -0.19589E-02  8424   0.275E-02 0.100E-04
CGA:   5    -0.675137866950E+03   -0.46125E-03   -0.46646E-03  8424   0.559E-03 0.180E-04
CGA:   6    -0.675137988118E+03   -0.12117E-03   -0.12056E-03  8424   0.143E-03-0.287E-05
CGA:   7    -0.675138032583E+03   -0.44465E-04   -0.39379E-04  8424   0.724E-04-0.343E-04
CGA:   8    -0.675138054461E+03   -0.21877E-04   -0.27945E-04  8424   0.151E-03-0.681E-04
CGA:   9    -0.675138084474E+03   -0.30013E-04   -0.26446E-04  8424   0.311E-04-0.144E-04
CGA:  10    -0.675138082811E+03    0.16627E-05   -0.25136E-04  8424   0.196E-03-0.557E-04
CGA:  11    -0.675138132146E+03   -0.49335E-04   -0.40264E-04  8424   0.446E-04-0.396E-04
CGA:  12    -0.675138147429E+03   -0.15283E-04   -0.15822E-04  8424   0.408E-04-0.246E-04
CGA:  13    -0.675138157117E+03   -0.96875E-05   -0.22955E-04  8424   0.324E-03-0.962E-04
CGA:  14    -0.675138178454E+03   -0.21337E-04   -0.34985E-04  8424   0.153E-04 0.424E-04
CGA:  15    -0.675138185643E+03   -0.71893E-05   -0.68708E-05  8424   0.371E-04-0.179E-04
CGA:  16    -0.675138112450E+03    0.73193E-04   -0.36497E-04  8424   0.123E-02-0.193E-03
CGA:  17    -0.675138221525E+03   -0.10908E-03   -0.14203E-03  8424   0.533E-04 0.102E-03
CGA:  18    -0.675138239088E+03   -0.17563E-04   -0.15029E-04  8424   0.133E-04-0.153E-04
CGA:  19    -0.675138267484E+03   -0.28397E-04    0.76964E-06  8424   0.350E-04-0.824E-05
CGA:  20    -0.675138267325E+03    0.15970E-06   -0.33156E-05  8424   0.541E-05 0.108E-04
  15 F= -.67513827E+03 E0= -.67513827E+03  d E =-.146271E-02  mag=     5.0000
       N       E                     dE             d eps       ncg     rms          ort
SDA:   1    -0.674970490529E+03    0.16778E+00    0.00000E+00  8424   0.437E+00 0.000E+00
CGA:   2    -0.675083455528E+03   -0.11296E+00   -0.11296E+00  8424   0.236E+00-0.907E-04
CGA:   3    -0.675128603426E+03   -0.45148E-01   -0.45090E-01  8424   0.553E-01-0.316E-03
CGA:   4    -0.675137283742E+03   -0.86803E-02   -0.87091E-02  8424   0.123E-01 0.118E-03
CGA:   5    -0.675139343116E+03   -0.20594E-02   -0.20893E-02  8424   0.248E-02 0.148E-03
CGA:   6    -0.675139866521E+03   -0.52341E-03   -0.52820E-03  8424   0.600E-03 0.317E-04
CGA:   7    -0.675140005975E+03   -0.13945E-03   -0.13820E-03  8424   0.189E-03-0.103E-04
CGA:   8    -0.675140064735E+03   -0.58761E-04   -0.57488E-04  8424   0.974E-04-0.353E-04
CGA:   9    -0.675140089441E+03   -0.24705E-04   -0.24317E-04  8424   0.481E-04-0.108E-04
CGA:  10    -0.675140103158E+03   -0.13717E-04   -0.13802E-04  8424   0.236E-04 0.412E-05
CGA:  11    -0.675140115525E+03   -0.12368E-04   -0.15979E-04  8424   0.476E-04-0.132E-04
CGA:  12    -0.675140131082E+03   -0.15557E-04   -0.15034E-04  8424   0.262E-04-0.134E-04
CGA:  13    -0.675140024565E+03    0.10652E-03   -0.57577E-04  8424   0.760E-03-0.800E-04
CGA:  14    -0.675140164288E+03   -0.13972E-03   -0.14423E-03  8424   0.999E-04 0.979E-05
CGA:  15    -0.675140187626E+03   -0.23338E-04   -0.27960E-04  8424   0.238E-04 0.133E-04
CGA:  16    -0.675140203865E+03   -0.16240E-04   -0.16046E-04  8424   0.534E-04-0.212E-04
CGA:  17    -0.675140207149E+03   -0.32835E-05   -0.84343E-05  8424   0.111E-04 0.115E-04
CGA:  18    -0.675140222898E+03   -0.15749E-04    0.15140E-01  8424   0.268E-04-0.760E-05
CGA:  19    -0.675140230050E+03   -0.71519E-05   -0.73562E-05  8424   0.643E-05 0.611E-06
  16 F= -.67514023E+03 E0= -.67514023E+03  d E =-.196273E-02  mag=     5.0000
       N       E                     dE             d eps       ncg     rms          ort
SDA:   1    -0.675113031836E+03    0.27191E-01    0.00000E+00  8424   0.743E-01 0.000E+00
CGA:   2    -0.675131922912E+03   -0.18891E-01   -0.18878E-01  8424   0.378E-01-0.520E-04
CGA:   3    -0.675139087922E+03   -0.71650E-02   -0.71870E-02  8424   0.922E-02 0.558E-04
CGA:   4    -0.675140603421E+03   -0.15155E-02   -0.15031E-02  8424   0.216E-02-0.350E-04
CGA:   5    -0.675140985005E+03   -0.38158E-03   -0.37334E-03  8424   0.456E-03-0.246E-04
CGA:   6    -0.675141080043E+03   -0.95038E-04   -0.94262E-04  8424   0.115E-03-0.283E-05
CGA:   7    -0.675141117408E+03   -0.37365E-04   -0.32270E-04  8424   0.619E-04-0.256E-04
CGA:   8    -0.675141140046E+03   -0.22637E-04   -0.22188E-04  8424   0.933E-04-0.418E-04
CGA:   9    -0.675141163737E+03   -0.23691E-04   -0.19176E-04  8424   0.321E-04-0.170E-04
CGA:  10    -0.675140977793E+03    0.18594E-03   -0.54514E-04  8424   0.142E-02-0.149E-03
CGA:  11    -0.675141229175E+03   -0.25138E-03   -0.23857E-03  8424   0.186E-03-0.345E-04
CGA:  12    -0.675141278642E+03   -0.49467E-04   -0.50296E-04  8424   0.400E-04 0.333E-05
CGA:  13    -0.675141294786E+03   -0.16144E-04   -0.25274E-04  8424   0.294E-03-0.819E-04
CGA:  14    -0.675141318884E+03   -0.24098E-04   -0.33970E-04  8424   0.195E-04 0.249E-04
CGA:  15    -0.675140840804E+03    0.47808E-03   -0.26051E-03  8424   0.260E-02-0.202E-03
CGA:  16    -0.675141400855E+03   -0.56005E-03   -0.55239E-03  8424   0.236E-03-0.114E-04
CGA:  17    -0.675141448606E+03   -0.47751E-04   -0.49045E-04  8424   0.879E-04 0.210E-05
CGA:  18    -0.675141488634E+03   -0.40027E-04   -0.26885E-04  8424   0.213E-04-0.248E-04
CGA:  19    -0.675141497084E+03   -0.84501E-05   -0.60679E-05  8424   0.308E-04-0.593E-05
  17 F= -.67514150E+03 E0= -.67514150E+03  d E =-.126703E-02  mag=     5.0000
       N       E                     dE             d eps       ncg     rms          ort
SDA:   1    -0.675123966922E+03    0.17522E-01    0.00000E+00  8424   0.474E-01 0.000E+00
CGA:   2    -0.675135500742E+03   -0.11534E-01   -0.11445E-01  8424   0.244E-01-0.188E-03
CGA:   3    -0.675140142417E+03   -0.46417E-02   -0.47028E-02  8424   0.610E-02 0.105E-03
CGA:   4    -0.675141156265E+03   -0.10138E-02   -0.99247E-03  8424   0.143E-02-0.384E-04
CGA:   5    -0.675141421670E+03   -0.26541E-03   -0.24284E-03  8424   0.321E-03-0.427E-04
CGA:   6    -0.675141485793E+03   -0.64123E-04   -0.62560E-04  8424   0.852E-04-0.339E-05
CGA:   7    -0.675141518275E+03   -0.32482E-04   -0.24008E-04  8424   0.490E-04-0.231E-04
CGA:   8    -0.675141541361E+03   -0.23086E-04   -0.18150E-04  8424   0.962E-04-0.393E-04
CGA:   9    -0.675141564133E+03   -0.22772E-04   -0.17738E-04  8424   0.256E-04-0.114E-04
CGA:  10    -0.675141593297E+03   -0.29164E-04    0.10328E-03  8424   0.508E-04-0.196E-04
CGA:  11    -0.675141610387E+03   -0.17090E-04   -0.11955E-04  8424   0.210E-04-0.139E-04
CGA:  12    -0.675141630839E+03   -0.20452E-04    0.31502E-04  8424   0.462E-04-0.136E-04
CGA:  13    -0.675141656694E+03   -0.25855E-04   -0.14595E-04  8424   0.803E-04-0.415E-04
CGA:  14    -0.675141662429E+03   -0.57347E-05   -0.88108E-05  8424   0.451E-05 0.665E-05
  18 F= -.67514166E+03 E0= -.67514166E+03  d E =-.165345E-03  mag=     5.0000
       N       E                     dE             d eps       ncg     rms          ort
SDA:   1    -0.675128805972E+03    0.12851E-01    0.00000E+00  8424   0.349E-01 0.000E+00
CGA:   2    -0.675137462433E+03   -0.86565E-02   -0.86971E-02  8424   0.169E-01 0.133E-03
CGA:   3    -0.675140674248E+03   -0.32118E-02   -0.32136E-02  8424   0.424E-02 0.209E-05
CGA:   4    -0.675141398215E+03   -0.72397E-03   -0.71121E-03  8424   0.107E-02-0.373E-04
CGA:   5    -0.675141606103E+03   -0.20789E-03   -0.18841E-03  8424   0.246E-03-0.605E-04
CGA:   6    -0.675141674713E+03   -0.68610E-04   -0.55936E-04  8424   0.922E-04-0.522E-04
CGA:   7    -0.675141694639E+03   -0.19926E-04   -0.17265E-04  8424   0.378E-04-0.114E-04
CGA:   8    -0.675141705885E+03   -0.11245E-04   -0.22840E-04  8424   0.158E-03-0.508E-04
CGA:   9    -0.675141742632E+03   -0.36747E-04   -0.30136E-04  8424   0.333E-04-0.235E-04
CGA:  10    -0.675141773972E+03   -0.31340E-04    0.31521E-04  8424   0.541E-04-0.250E-04
CGA:  11    -0.675141781065E+03   -0.70931E-05   -0.83792E-05  8424   0.747E-05 0.422E-05
  19 F= -.67514178E+03 E0= -.67514178E+03  d E =-.118637E-03  mag=     5.0000
       N       E                     dE             d eps       ncg     rms          ort
SDA:   1    -0.675138365531E+03    0.34084E-02    0.00000E+00  8424   0.876E-02 0.000E+00
CGA:   2    -0.675140592120E+03   -0.22266E-02   -0.22124E-02  8424   0.474E-02-0.759E-04
CGA:   3    -0.675141492254E+03   -0.90013E-03   -0.89273E-03  8424   0.118E-02-0.313E-04
CGA:   4    -0.675141688428E+03   -0.19617E-03   -0.18912E-03  8424   0.284E-03-0.274E-04
CGA:   5    -0.675141742434E+03   -0.54007E-04   -0.49971E-04  8424   0.697E-04-0.178E-04
CGA:   6    -0.675141762087E+03   -0.19653E-04   -0.17208E-04  8424   0.368E-04-0.184E-04
CGA:   7    -0.675141791123E+03   -0.29036E-04    0.14095E-04  8424   0.535E-04-0.219E-04
CGA:   8    -0.675141806031E+03   -0.14908E-04   -0.11404E-04  8424   0.301E-04-0.198E-04
CGA:   9    -0.675141836603E+03   -0.30572E-04    0.32509E-05  8424   0.189E-04-0.658E-05
CGA:  10    -0.675141869901E+03   -0.33298E-04    0.14482E-05  8424   0.136E-04 0.277E-05
CGA:  11    -0.675141911663E+03   -0.41762E-04    0.11919E-05  8424   0.112E-04 0.368E-05
CGA:  12    -0.675141963772E+03   -0.52108E-04    0.71829E-06  8424   0.943E-05 0.740E-05
CGA:  13    -0.675141982695E+03   -0.18924E-04    0.11027E-05  8424   0.694E-05 0.198E-06
CGA:  14    -0.675142012081E+03   -0.29386E-04    0.30453E-06  8424   0.623E-05 0.434E-05
CGA:  15    -0.675142029847E+03   -0.17766E-04    0.43401E-06  8424   0.512E-05 0.222E-05
CGA:  16    -0.675142058571E+03   -0.28724E-04    0.29896E-06  8424   0.655E-05 0.400E-05
CGA:  17    -0.675142077325E+03   -0.18753E-04    0.45408E-06  8424   0.105E-04-0.716E-07
CGA:  18    -0.675142120725E+03   -0.43401E-04    0.44059E-06  8424   0.949E-05 0.395E-05
CGA:  19    -0.675142174661E+03   -0.53936E-04    0.56435E-06  8424   0.116E-04 0.965E-05
CGA:  20    -0.675142194386E+03   -0.19725E-04    0.17957E-05  8424   0.338E-04-0.102E-04
CGA:  21    -0.675142199598E+03   -0.52125E-05   -0.46221E-05  8424   0.435E-05-0.243E-05
  20 F= -.67514220E+03 E0= -.67514220E+03  d E =-.418533E-03  mag=     5.0000
       N       E                     dE             d eps       ncg     rms          ort
SDA:   1    -0.675131628587E+03    0.10566E-01    0.00000E+00  8424   0.276E-01 0.000E+00
CGA:   2    -0.675139248185E+03   -0.76196E-02   -0.76168E-02  8424   0.150E-01-0.330E-04
CGA:   3    -0.675142020648E+03   -0.27725E-02   -0.27609E-02  8424   0.322E-02-0.661E-04
CGA:   4    -0.675142531129E+03   -0.51048E-03   -0.51088E-03  8424   0.745E-03 0.142E-05
CGA:   5    -0.675142664932E+03   -0.13380E-03   -0.13230E-03  8424   0.165E-03-0.915E-05
CGA:   6    -0.675142711965E+03   -0.47033E-04   -0.43994E-04  8424   0.743E-04-0.452E-04
CGA:   7    -0.675142714851E+03   -0.28858E-05   -0.32708E-04  8424   0.329E-03-0.110E-03
CGA:   8    -0.675142769670E+03   -0.54819E-04   -0.49591E-04  8424   0.457E-04-0.267E-04
CGA:   9    -0.675142689740E+03    0.79930E-04   -0.51354E-04  8424   0.815E-03-0.149E-03
CGA:  10    -0.675142829257E+03   -0.13952E-03   -0.13199E-03  8424   0.964E-04-0.344E-04
CGA:  11    -0.675142864069E+03   -0.34812E-04   -0.35183E-04  8424   0.373E-04-0.365E-04
CGA:  12    -0.675142895559E+03   -0.31490E-04    0.51807E-05  8424   0.281E-04-0.936E-05
CGA:  13    -0.675142922405E+03   -0.26845E-04    0.54649E-05  8424   0.280E-04-0.632E-05
