       N       E                     dE             d eps       ncg     rms          ort
DAV:   1     0.829318971330E+04    0.82932E+04   -0.24707E+05  8424   0.239E+03
DAV:   2     0.921407656229E+03   -0.73718E+04   -0.69223E+04  8424   0.659E+02
DAV:   3    -0.676558570021E+03   -0.15980E+04   -0.14063E+04  8424   0.283E+02
DAV:   4    -0.833145818784E+03   -0.15659E+03   -0.15387E+03  8424   0.859E+01
DAV:   5    -0.835673351771E+03   -0.25275E+01   -0.25161E+01  8424   0.122E+01
SDA:   6    -0.228190123905E+03    0.60748E+03   -0.25161E+01  8424   0.572E+04 0.000E+00
CGA:   7    -0.287607748327E+03   -0.59418E+02   -0.36618E+03  8424   0.176E+05-0.213E+04
CGA:   8    -0.349675390873E+03   -0.62068E+02   -0.52716E+03  8424   0.579E+04-0.327E+04
CGA:   9    -0.350545428481E+03   -0.87004E+00   -0.18799E+03  8424   0.231E+04-0.791E+03
CGA:  10    -0.340585577602E+03    0.99599E+01   -0.10721E+03  8424   0.257E+04-0.682E+03
CGA:  11    -0.517704780630E+03   -0.17712E+03   -0.41573E+02  8424   0.104E+04 0.216E+04
CGA:  12    -0.503320564040E+03    0.14384E+02   -0.34811E+02  8424   0.798E+04-0.434E+04
CGA:  13    -0.392265873071E+03    0.11105E+03   -0.53171E+03  8424   0.206E+04-0.626E+03
CGA:  14    -0.563016740247E+03   -0.17075E+03   -0.49849E+02  8424   0.122E+04 0.626E+03
CGA:  15    -0.495397686665E+03    0.67619E+02   -0.43213E+02  8424   0.317E+04-0.166E+04
CGA:  16    -0.563417052200E+03   -0.68019E+02   -0.10650E+03  8424   0.300E+04-0.379E+04
CGA:  17    -0.535572717430E+03    0.27844E+02   -0.13884E+03  8424   0.407E+04-0.357E+04
CGA:  18    -0.545080200349E+03   -0.95075E+01   -0.15957E+03  8424   0.278E+04-0.247E+04
CGA:  19    -0.547219402450E+03   -0.21392E+01   -0.10983E+03  8424   0.360E+04-0.334E+04
CGA:  20    -0.574625676749E+03   -0.27406E+02   -0.12485E+03  8424   0.194E+04-0.226E+04
CGA:  21    -0.596120224688E+03   -0.21495E+02   -0.65253E+02  8424   0.205E+04-0.243E+04
CGA:  22    -0.603099923251E+03   -0.69797E+01   -0.67712E+02  8424   0.135E+04-0.140E+04
CGA:  23    -0.623845765692E+03   -0.20746E+02   -0.38012E+02  8424   0.129E+04-0.170E+04
CGA:  24    -0.617372911631E+03    0.64729E+01   -0.44356E+02  8424   0.861E+03-0.693E+03
CGA:  25    -0.643788736506E+03   -0.26416E+02   -0.19041E+02  8424   0.380E+03-0.897E+03
CGA:  26    -0.638331219367E+03    0.54575E+01   -0.12421E+02  8424   0.649E+03-0.354E+03
CGA:  27    -0.641396463523E+03   -0.30652E+01   -0.15538E+02  8424   0.662E+03-0.665E+03
CGA:  28    -0.635773722509E+03    0.56227E+01   -0.21928E+02  8424   0.617E+03-0.412E+03
CGA:  29    -0.649171216501E+03   -0.13397E+02   -0.13320E+02  8424   0.283E+03-0.551E+03
CGA:  30    -0.649228739146E+03   -0.57523E-01   -0.80312E+01  8424   0.293E+03-0.213E+03
CGA:  31    -0.652324470633E+03   -0.30957E+01   -0.67449E+01  8424   0.142E+03-0.157E+03
CGA:  32    -0.653514504313E+03   -0.11900E+01   -0.37745E+01  8424   0.112E+03-0.884E+02
CGA:  33    -0.654984493984E+03   -0.14700E+01   -0.26814E+01  8424   0.613E+02-0.492E+02
CGA:  34    -0.660443597036E+03   -0.54591E+01   -0.49313E+01  8424   0.385E+02 0.765E+01
CGA:  35    -0.661957602539E+03   -0.15140E+01   -0.20587E+01  8424   0.298E+02-0.677E+00
CGA:  36    -0.664600367496E+03   -0.26428E+01   -0.25688E+01  8424   0.106E+02 0.345E+01
CGA:  37    -0.665957888044E+03   -0.13575E+01   -0.12009E+01  8424   0.330E+01 0.417E+01
CGA:  38    -0.667255766043E+03   -0.12979E+01   -0.11606E+01  8424   0.332E+01 0.861E+00
CGA:  39    -0.667976692417E+03   -0.72093E+00   -0.66447E+00  8424   0.865E+00 0.827E+00
CGA:  40    -0.668209454356E+03   -0.23276E+00   -0.22689E+00  8424   0.586E+00 0.445E-01
CGA:  41    -0.668434190800E+03   -0.22474E+00   -0.20947E+00  8424   0.336E+00-0.101E-01
CGA:  42    -0.668488734558E+03   -0.54544E-01   -0.58307E-01  8424   0.164E+00-0.504E-01
CGA:  43    -0.668540956675E+03   -0.52222E-01   -0.68327E-01  8424   0.147E+00-0.409E-01
CGA:  44    -0.668567088784E+03   -0.26132E-01   -0.30192E-01  8424   0.917E-01-0.286E-01
CGA:  45    -0.668591078273E+03   -0.23989E-01   -0.29318E-01  8424   0.690E-01-0.211E-01
CGA:  46    -0.668607225359E+03   -0.16147E-01   -0.17633E-01  8424   0.564E-01-0.860E-02
CGA:  47    -0.668622302166E+03   -0.15077E-01   -0.14540E-01  8424   0.376E-01 0.375E-02
CGA:  48    -0.668635565813E+03   -0.13264E-01   -0.12649E-01  8424   0.256E-01 0.390E-02
CGA:  49    -0.668647825032E+03   -0.12259E-01   -0.10835E-01  8424   0.200E-01 0.657E-02
CGA:  50    -0.668657780448E+03   -0.99554E-02   -0.86925E-02  8424   0.176E-01 0.756E-02
CGA:  51    -0.668668453949E+03   -0.10674E-01   -0.96752E-02  8424   0.239E-01 0.450E-02
CGA:  52    -0.668683260072E+03   -0.14806E-01   -0.13333E-01  8424   0.290E-01 0.518E-02
CGA:  53    -0.668705520767E+03   -0.22261E-01   -0.25087E-01  8424   0.531E-01-0.818E-02
CGA:  54    -0.668717174022E+03   -0.11653E-01   -0.13451E-01  8424   0.500E-01-0.181E-01
CGA:  55    -0.668726890862E+03   -0.97168E-02   -0.11876E-01  8424   0.505E-01-0.217E-01
CGA:  56    -0.668734310157E+03   -0.74193E-02   -0.78788E-02  8424   0.448E-01-0.210E-01
CGA:  57    -0.668741259845E+03   -0.69497E-02   -0.74518E-02  8424   0.400E-01-0.164E-01
CGA:  58    -0.668746231875E+03   -0.49720E-02   -0.47252E-02  8424   0.309E-01-0.392E-02
CGA:  59    -0.668752223835E+03   -0.59920E-02   -0.60823E-02  8424   0.283E-01 0.239E-02
CGA:  60    -0.668757921713E+03   -0.56979E-02   -0.58589E-02  8424   0.225E-01 0.475E-02
CGA:  61    -0.668762205616E+03   -0.42839E-02   -0.47578E-02  8424   0.227E-01 0.696E-02
CGA:  62    -0.668766955291E+03   -0.47497E-02   -0.54726E-02  8424   0.216E-01 0.113E-01
SDA:  63    -0.668771613249E+03   -0.46580E-02   -0.56403E-02  8424   0.169E-01 0.132E-01
CGA:  64    -0.668777922419E+03   -0.63092E-02   -0.57189E-02  8424   0.105E-01 0.545E-02
CGA:  65    -0.668784262614E+03   -0.63402E-02   -0.53146E-02  8424   0.685E-02 0.700E-02
CGA:  66    -0.668786765827E+03   -0.25032E-02   -0.22869E-02  8424   0.603E-02 0.251E-02
CGA:  67    -0.668790849085E+03   -0.40833E-02   -0.33298E-02  8424   0.505E-02 0.487E-02
CGA:  68    -0.668792826832E+03   -0.19777E-02   -0.18102E-02  8424   0.378E-02 0.169E-02
CGA:  69    -0.668795646929E+03   -0.28201E-02   -0.22637E-02  8424   0.457E-02 0.297E-02
CGA:  70    -0.668797108687E+03   -0.14618E-02   -0.14304E-02  8424   0.366E-02 0.810E-03
CGA:  71    -0.668799431503E+03   -0.23228E-02   -0.20237E-02  8424   0.485E-02 0.149E-02
CGA:  72    -0.668805853169E+03   -0.64217E-02   -0.46519E-02  8424   0.316E-02 0.418E-02
CGA:  73    -0.668806768497E+03   -0.91533E-03   -0.91218E-03  8424   0.288E-02-0.186E-03
CGA:  74    -0.668807925456E+03   -0.11570E-02   -0.11051E-02  8424   0.272E-02 0.482E-03
CGA:  75    -0.668811672099E+03   -0.37466E-02   -0.41282E-02  8424   0.191E-01-0.527E-03
CGA:  76    -0.668818775396E+03   -0.71033E-02   -0.75020E-02  8424   0.347E-01-0.537E-02
CGA:  77    -0.668825359419E+03   -0.65840E-02   -0.56648E-02  8424   0.232E-01-0.893E-02
CGA:  78    -0.668828848059E+03   -0.34886E-02   -0.27130E-02  8424   0.906E-02-0.466E-02
CGA:  79    -0.668830320925E+03   -0.14729E-02   -0.12759E-02  8424   0.705E-02-0.132E-02
CGA:  80    -0.668831787960E+03   -0.14670E-02   -0.14802E-02  8424   0.847E-02-0.731E-07
CGA:  81    -0.668833553050E+03   -0.17651E-02   -0.19169E-02  8424   0.971E-02 0.122E-02
CGA:  82    -0.668837235472E+03   -0.36824E-02   -0.36800E-02  8424   0.172E-01 0.248E-02
CGA:  83    -0.668843514743E+03   -0.62793E-02   -0.64138E-02  8424   0.136E-01 0.222E-02
CGA:  84    -0.668849124771E+03   -0.56100E-02   -0.56552E-02  8424   0.190E-01-0.168E-02
CGA:  85    -0.668853692868E+03   -0.45681E-02   -0.44576E-02  8424   0.142E-01-0.381E-02
CGA:  86    -0.668857234420E+03   -0.35416E-02   -0.33865E-02  8424   0.163E-01-0.636E-02
CGA:  87    -0.668860181309E+03   -0.29469E-02   -0.29375E-02  8424   0.172E-01-0.127E-01
CGA:  88    -0.668866093235E+03   -0.59119E-02   -0.59204E-02  8424   0.847E-02-0.444E-03
CGA:  89    -0.668869114562E+03   -0.30213E-02   -0.30455E-02  8424   0.646E-02-0.587E-03
CGA:  90    -0.668871794891E+03   -0.26803E-02   -0.27793E-02  8424   0.578E-02-0.767E-03
CGA:  91    -0.668873584890E+03   -0.17900E-02   -0.34234E-02  8424   0.185E-01-0.492E-02
CGA:  92    -0.668876042360E+03   -0.24575E-02   -0.26104E-02  8424   0.230E-02 0.822E-03
CGA:  93    -0.668877192174E+03   -0.11498E-02   -0.13506E-02  8424   0.345E-02-0.915E-03
CGA:  94    -0.668877991806E+03   -0.79963E-03   -0.95811E-03  8424   0.474E-02-0.147E-02
CGA:  95    -0.668879140468E+03   -0.11487E-02   -0.13535E-02  8424   0.544E-02-0.150E-02
CGA:  96    -0.668880341773E+03   -0.12013E-02   -0.11663E-02  8424   0.527E-02-0.727E-03
CGA:  97    -0.668882341179E+03   -0.19994E-02   -0.20672E-02  8424   0.551E-02-0.859E-03
CGA:  98    -0.668884278354E+03   -0.19372E-02   -0.21463E-02  8424   0.608E-02-0.223E-02
CGA:  99    -0.668885666056E+03   -0.13877E-02   -0.19213E-02  8424   0.120E-01-0.350E-02
CGA: 100    -0.668888257898E+03   -0.25918E-02   -0.26049E-02  8424   0.385E-02 0.854E-04
CGA: 101    -0.668889663761E+03   -0.14059E-02   -0.13941E-02  8424   0.226E-02-0.917E-03
CGA: 102    -0.668890124388E+03   -0.46063E-03   -0.43241E-03  8424   0.796E-03-0.235E-03
CGA: 103    -0.668890217879E+03   -0.93491E-04   -0.60548E-03  8424   0.365E-02-0.107E-02
CGA: 104    -0.668890783463E+03   -0.56558E-03   -0.63811E-03  8424   0.535E-03 0.339E-03
CGA: 105    -0.668890981182E+03   -0.19772E-03   -0.19430E-03  8424   0.221E-03-0.746E-04
CGA: 106    -0.668891076315E+03   -0.95133E-04   -0.13618E-03  8424   0.740E-03-0.123E-03
CGA: 107    -0.668891276697E+03   -0.20038E-03   -0.15633E-03  8424   0.366E-03-0.243E-03
CGA: 108    -0.668891337910E+03   -0.61213E-04   -0.18715E-03  8424   0.134E-02-0.336E-03
CGA: 109    -0.668891656260E+03   -0.31835E-03   -0.25397E-03  8424   0.436E-03-0.304E-03
CGA: 110    -0.668891724251E+03   -0.67991E-04   -0.72638E-04  8424   0.823E-04 0.262E-04
CGA: 111    -0.668891802567E+03   -0.78316E-04    0.98344E-04  8424   0.114E-03 0.233E-04
CGA: 112    -0.668892061257E+03   -0.25869E-03    0.21776E-04  8424   0.160E-03 0.675E-04
CGA: 113    -0.668892119727E+03   -0.58470E-04   -0.54795E-04  8424   0.245E-03-0.900E-04
CGA: 114    -0.668892215709E+03   -0.95982E-04   -0.80046E-04  8424   0.646E-03-0.293E-03
CGA: 115    -0.668892268940E+03   -0.53230E-04   -0.70048E-04  8424   0.446E-04 0.634E-04
CGA: 116    -0.668892349580E+03   -0.80640E-04    0.71229E-05  8424   0.923E-04 0.202E-04
CGA: 117    -0.668892643466E+03   -0.29389E-03    0.12281E-04  8424   0.891E-04 0.106E-03
CGA: 118    -0.668891549688E+03    0.10938E-02   -0.59216E-03  8424   0.881E-02-0.648E-03
CGA: 119    -0.668893246142E+03   -0.16965E-02   -0.15499E-02  8424   0.168E-03-0.314E-03
CGA: 120    -0.668893267369E+03   -0.21227E-04   -0.26966E-04  8424   0.485E-04 0.121E-04
CGA: 121    -0.668893434473E+03   -0.16710E-03    0.10030E-04  8424   0.150E-03 0.985E-06
CGA: 122    -0.668894143771E+03   -0.70930E-03    0.17310E-04  8424   0.221E-03 0.107E-03
CGA: 123    -0.668894207153E+03   -0.63383E-04   -0.54368E-04  8424   0.970E-04-0.245E-04
CGA: 124    -0.668894403890E+03   -0.19674E-03    0.28665E-04  8424   0.401E-03-0.865E-04
CGA: 125    -0.668894439309E+03   -0.35419E-04   -0.51243E-04  8424   0.577E-04 0.344E-04
CGA: 126    -0.668894574747E+03   -0.13544E-03    0.20580E-04  8424   0.106E-03-0.219E-04
CGA: 127    -0.668894949628E+03   -0.37488E-03    0.47955E-05  8424   0.296E-03-0.999E-05
CGA: 128    -0.668896085467E+03   -0.11358E-02    0.28733E-04  8424   0.497E-03 0.148E-04
CGA: 129    -0.668898318205E+03   -0.22327E-02    0.55369E-04  8424   0.507E-03 0.180E-03
CGA: 130    -0.668900799704E+03   -0.24815E-02    0.93982E-04  8424   0.601E-03-0.132E-03
CGA: 131    -0.668903432532E+03   -0.26328E-02    0.30847E-04  8424   0.149E-02-0.473E-03
CGA: 132    -0.668903842745E+03   -0.41021E-03   -0.31208E-03  8424   0.574E-03-0.272E-03
CGA: 133    -0.668903945552E+03   -0.10281E-03   -0.10523E-03  8424   0.621E-04 0.792E-05
CGA: 134    -0.668903977577E+03   -0.32025E-04   -0.27679E-04  8424   0.112E-03-0.429E-04
CGA: 135    -0.668904042504E+03   -0.64927E-04   -0.56331E-04  8424   0.789E-03-0.265E-03
CGA: 136    -0.668904092367E+03   -0.49864E-04   -0.89457E-04  8424   0.241E-04 0.951E-04
CGA: 137    -0.668904106231E+03   -0.13863E-04   -0.13823E-04  8424   0.189E-03-0.532E-04
CGA: 138    -0.668904189794E+03   -0.83563E-04   -0.45619E-04  8424   0.136E-03-0.140E-03
CGA: 139    -0.668904199564E+03   -0.97701E-05   -0.16034E-04  8424   0.855E-05 0.165E-04
   1 F= -.66890420E+03 E0= -.66890420E+03  d E =-.668904E+03  mag=    21.0000
       N       E                     dE             d eps       ncg     rms          ort
SDA:   1    -0.668924511121E+03   -0.20321E-01    0.00000E+00  8424   0.848E-02 0.000E+00
CGA:   2    -0.668926666551E+03   -0.21554E-02   -0.21554E-02  8424   0.368E-02-0.160E-05
CGA:   3    -0.668927335428E+03   -0.66888E-03   -0.67205E-03  8424   0.106E-02 0.103E-04
CGA:   4    -0.668927507740E+03   -0.17231E-03   -0.18325E-03  8424   0.254E-03 0.384E-04
CGA:   5    -0.668927572856E+03   -0.65116E-04   -0.54780E-04  8424   0.974E-04-0.447E-04
CGA:   6    -0.668927651114E+03   -0.78258E-04    0.12613E-03  8424   0.232E-03-0.102E-03
CGA:   7    -0.668927679091E+03   -0.27977E-04   -0.29559E-04  8424   0.330E-04 0.512E-05
CGA:   8    -0.668927720498E+03   -0.41407E-04    0.14560E-04  8424   0.363E-04-0.142E-04
CGA:   9    -0.668927818687E+03   -0.98189E-04    0.90513E-06  8424   0.452E-04-0.678E-05
CGA:  10    -0.668928003871E+03   -0.18518E-03    0.15001E-05  8424   0.430E-04 0.796E-05
CGA:  11    -0.668928232598E+03   -0.22873E-03    0.23451E-05  8424   0.478E-04 0.394E-05
CGA:  12    -0.668928532260E+03   -0.29966E-03    0.18195E-05  8424   0.414E-04 0.224E-04
CGA:  13    -0.668928821200E+03   -0.28894E-03    0.26534E-05  8424   0.368E-04 0.117E-04
CGA:  14    -0.668929106023E+03   -0.28482E-03    0.15507E-05  8424   0.352E-04 0.160E-04
CGA:  15    -0.668929438030E+03   -0.33201E-03    0.15090E-05  8424   0.313E-04 0.246E-04
CGA:  16    -0.668929488386E+03   -0.50355E-04    0.68632E-05  8424   0.228E-04-0.993E-05
CGA:  17    -0.668929559799E+03   -0.71413E-04    0.71298E-06  8424   0.195E-04-0.191E-05
CGA:  18    -0.668929631799E+03   -0.72000E-04    0.95782E-06  8424   0.255E-04 0.138E-06
CGA:  19    -0.668929785298E+03   -0.15350E-03    0.85684E-06  8424   0.196E-04 0.811E-05
CGA:  20    -0.668929933174E+03   -0.14788E-03    0.90408E-06  8424   0.143E-04 0.127E-04
CGA:  21    -0.668929962539E+03   -0.29364E-04    0.20148E-05  8424   0.168E-04-0.389E-05
CGA:  22    -0.668930049961E+03   -0.87422E-04    0.33262E-06  8424   0.183E-04-0.569E-06
CGA:  23    -0.668930159893E+03   -0.10993E-03    0.56040E-06  8424   0.201E-04 0.491E-05
CGA:  24    -0.668930307482E+03   -0.14759E-03    0.88225E-06  8424   0.188E-04 0.105E-04
CGA:  25    -0.668930357725E+03   -0.50242E-04    0.17419E-05  8424   0.367E-04-0.140E-04
CGA:  26    -0.668930359404E+03   -0.16791E-05   -0.43159E-05  8424   0.506E-05 0.890E-05
   2 F= -.66893036E+03 E0= -.66893036E+03  d E =-.261598E-01  mag=    21.0000
       N       E                     dE             d eps       ncg     rms          ort
SDA:   1    -0.656880409748E+03    0.12050E+02    0.00000E+00  8424   0.370E+02 0.000E+00
CGA:   2    -0.666182029776E+03   -0.93016E+01   -0.93408E+01  8424   0.156E+02-0.112E-01
CGA:   3    -0.669050626159E+03   -0.28686E+01   -0.28643E+01  8424   0.450E+01 0.982E-01
CGA:   4    -0.669856175141E+03   -0.80555E+00   -0.80780E+00  8424   0.113E+01 0.143E-01
CGA:   5    -0.670046980959E+03   -0.19081E+00   -0.19171E+00  8424   0.245E+00 0.821E-03
CGA:   6    -0.670095997611E+03   -0.49017E-01   -0.48976E-01  8424   0.667E-01-0.373E-03
CGA:   7    -0.670111504161E+03   -0.15507E-01   -0.15487E-01  8424   0.237E-01-0.170E-03
CGA:   8    -0.670117436045E+03   -0.59319E-02   -0.60272E-02  8424   0.758E-02 0.102E-02
CGA:   9    -0.670119351228E+03   -0.19152E-02   -0.19810E-02  8424   0.248E-02 0.712E-03
CGA:  10    -0.670120190829E+03   -0.83960E-03   -0.84301E-03  8424   0.105E-02 0.124E-03
CGA:  11    -0.670120579229E+03   -0.38840E-03   -0.39022E-03  8424   0.514E-03-0.992E-04
CGA:  12    -0.670120693833E+03   -0.11460E-03   -0.36890E-03  8424   0.159E-02-0.562E-03
CGA:  13    -0.670120976568E+03   -0.28273E-03   -0.30988E-03  8424   0.304E-03 0.163E-03
CGA:  14    -0.670121127097E+03   -0.15053E-03   -0.16831E-03  8424   0.483E-03-0.119E-03
CGA:  15    -0.670121191583E+03   -0.64486E-04   -0.63003E-04  8424   0.346E-03-0.113E-04
CGA:  16    -0.670121320173E+03   -0.12859E-03   -0.13457E-03  8424   0.723E-03-0.132E-03
CGA:  17    -0.670121476719E+03   -0.15655E-03   -0.16201E-03  8424   0.122E-02-0.675E-03
CGA:  18    -0.670121833324E+03   -0.35661E-03   -0.36245E-03  8424   0.204E-03 0.100E-03
CGA:  19    -0.670121734557E+03    0.98767E-04   -0.28071E-03  8424   0.309E-02-0.414E-03
CGA:  20    -0.670122014521E+03   -0.27996E-03   -0.36255E-03  8424   0.251E-03 0.303E-03
CGA:  21    -0.670122098479E+03   -0.83959E-04   -0.85671E-04  8424   0.147E-03 0.233E-04
CGA:  22    -0.670121658784E+03    0.43970E-03   -0.19875E-03  8424   0.562E-02-0.745E-03
CGA:  23    -0.670122190479E+03   -0.53169E-03   -0.66128E-03  8424   0.467E-03 0.447E-03
CGA:  24    -0.670122335957E+03   -0.14548E-03   -0.15374E-03  8424   0.190E-03 0.798E-04
CGA:  25    -0.670122425627E+03   -0.89671E-04   -0.88700E-04  8424   0.598E-03-0.252E-03
CGA:  26    -0.670122446289E+03   -0.20662E-04   -0.60282E-04  8424   0.750E-04 0.132E-03
CGA:  27    -0.670122449706E+03   -0.34170E-05   -0.13245E-04  8424   0.629E-04 0.404E-04
CGA:  28    -0.670122519236E+03   -0.69530E-04    0.25015E-04  8424   0.137E-03-0.804E-05
CGA:  29    -0.670122614657E+03   -0.95421E-04    0.37529E-03  8424   0.118E-03 0.585E-04
CGA:  30    -0.670122643664E+03   -0.29007E-04   -0.37306E-04  8424   0.145E-03 0.528E-04
CGA:  31    -0.670122821950E+03   -0.17829E-03    0.24390E-03  8424   0.161E-03 0.157E-03
CGA:  32    -0.670122657666E+03    0.16428E-03   -0.12657E-03  8424   0.433E-02-0.693E-03
CGA:  33    -0.670122954189E+03   -0.29652E-03   -0.43165E-03  8424   0.978E-04 0.474E-03
CGA:  34    -0.670122948847E+03    0.53420E-05   -0.89990E-05  8424   0.367E-04 0.492E-04
CGA:  35    -0.670122980371E+03   -0.31524E-04   -0.30753E-04  8424   0.140E-03 0.130E-05
CGA:  36    -0.670123141549E+03   -0.16118E-03    0.62445E-04  8424   0.139E-03 0.804E-04
CGA:  37    -0.670123188498E+03   -0.46949E-04   -0.46820E-04  8424   0.499E-04-0.298E-05
CGA:  38    -0.670123209364E+03   -0.20866E-04   -0.42048E-04  8424   0.481E-03-0.447E-04
CGA:  39    -0.670123285818E+03   -0.76455E-04   -0.65700E-04  8424   0.643E-04-0.403E-04
CGA:  40    -0.670123310740E+03   -0.24921E-04   -0.24875E-04  8424   0.650E-04 0.135E-05
CGA:  41    -0.670123398868E+03   -0.88129E-04    0.18940E-04  8424   0.755E-04 0.271E-04
CGA:  42    -0.670123486704E+03   -0.87835E-04    0.48198E-03  8424   0.388E-04 0.787E-04
CGA:  43    -0.670123528749E+03   -0.42045E-04    0.20208E-04  8424   0.562E-04 0.744E-05
CGA:  44    -0.670123494919E+03    0.33831E-04   -0.41218E-04  8424   0.183E-02-0.107E-03
CGA:  45    -0.670123877414E+03   -0.38250E-03   -0.29502E-03  8424   0.430E-03-0.159E-03
CGA:  46    -0.670123980246E+03   -0.10283E-03   -0.11497E-03  8424   0.573E-04 0.304E-04
CGA:  47    -0.670124019399E+03   -0.39153E-04   -0.31920E-04  8424   0.212E-03-0.485E-04
CGA:  48    -0.670124045568E+03   -0.26169E-04   -0.27901E-04  8424   0.279E-04 0.329E-05
CGA:  49    -0.670124090073E+03   -0.44505E-04    0.38182E-04  8424   0.686E-04 0.462E-05
CGA:  50    -0.670123389457E+03    0.70062E-03   -0.38188E-03  8424   0.761E-02-0.322E-03
CGA:  51    -0.670124736946E+03   -0.13475E-02   -0.11762E-02  8424   0.111E-02-0.189E-03
CGA:  52    -0.670124969250E+03   -0.23230E-03   -0.28059E-03  8424   0.376E-03 0.567E-04
CGA:  53    -0.670125083966E+03   -0.11472E-03   -0.88531E-04  8424   0.756E-04-0.343E-04
CGA:  54    -0.670124997580E+03    0.86387E-04   -0.12621E-04  8424   0.270E-03 0.434E-04
CGA:  55    -0.670123407091E+03    0.15905E-02   -0.29942E-04  8424   0.440E-02 0.573E-03
CGA:  56    -0.670098671627E+03    0.24735E-01   -0.53170E-03  8424   0.703E-01 0.801E-02
CGA:  57    -0.670036379158E+03    0.62292E-01   -0.20304E-01  8424   0.252E+00 0.584E-01
CGA:  58    -0.670011361870E+03    0.25017E-01   -0.93722E-01  8424   0.252E+00 0.951E-01
CGA:  59    -0.669856583089E+03    0.15478E+00   -0.82574E-01  8424   0.568E+00 0.297E+00
CGA:  60    -0.669990715351E+03   -0.13413E+00   -0.24345E+00  8424   0.255E+00 0.201E+00
CGA:  61    -0.670076596945E+03   -0.85882E-01   -0.14567E+00  8424   0.619E-01 0.923E-01
CGA:  62    -0.670118260798E+03   -0.41664E-01   -0.46965E-01  8424   0.988E-02 0.104E-02
CGA:  63    -0.670121529050E+03   -0.32683E-02   -0.41493E-02  8424   0.636E-02 0.137E-02
CGA:  64    -0.670122406477E+03   -0.87743E-03   -0.19109E-02  8424   0.359E-02 0.856E-03
CGA:  65    -0.670122683527E+03   -0.27705E-03   -0.10260E-02  8424   0.206E-02 0.837E-03
CGA:  66    -0.670123176168E+03   -0.49264E-03   -0.65586E-03  8424   0.220E-02-0.104E-03
CGA:  67    -0.670123769329E+03   -0.59316E-03   -0.53595E-03  8424   0.224E-02-0.253E-03
CGA:  68    -0.670124261299E+03   -0.49197E-03   -0.48901E-03  8424   0.201E-02-0.612E-03
CGA:  69    -0.670124434270E+03   -0.17297E-03   -0.29341E-03  8424   0.108E-02-0.522E-03
CGA:  70    -0.670124599870E+03   -0.16560E-03   -0.19613E-03  8424   0.819E-03-0.255E-03
CGA:  71    -0.670124870289E+03   -0.27042E-03   -0.21146E-03  8424   0.737E-03-0.325E-03
CGA:  72    -0.670125034117E+03   -0.16383E-03   -0.12019E-03  8424   0.428E-03-0.865E-04
CGA:  73    -0.670125201558E+03   -0.16744E-03   -0.15842E-03  8424   0.466E-03 0.173E-05
CGA:  74    -0.670125358724E+03   -0.15717E-03   -0.10892E-03  8424   0.259E-03-0.562E-04
CGA:  75    -0.670125457634E+03   -0.98911E-04   -0.81229E-04  8424   0.234E-03-0.489E-04
CGA:  76    -0.670125489428E+03   -0.31794E-04   -0.33479E-04  8424   0.198E-03 0.272E-04
CGA:  77    -0.670125562544E+03   -0.73116E-04   -0.66101E-04  8424   0.272E-03-0.397E-05
CGA:  78    -0.670125650006E+03   -0.87462E-04   -0.53084E-04  8424   0.249E-03-0.559E-04
CGA:  79    -0.670125708446E+03   -0.58440E-04   -0.28745E-04  8424   0.266E-03-0.460E-04
CGA:  80    -0.670125758636E+03   -0.50190E-04   -0.27338E-04  8424   0.309E-03-0.244E-04
CGA:  81    -0.670125805699E+03   -0.47063E-04   -0.28906E-04  8424   0.307E-03-0.515E-05
CGA:  82    -0.670125852441E+03   -0.46742E-04   -0.28641E-04  8424   0.289E-03-0.116E-04
CGA:  83    -0.670125903184E+03   -0.50743E-04   -0.26620E-04  8424   0.304E-03-0.387E-04
CGA:  84    -0.670125958391E+03   -0.55207E-04   -0.23216E-04  8424   0.332E-03-0.655E-04
CGA:  85    -0.670126012669E+03   -0.54278E-04   -0.19183E-04  8424   0.339E-03-0.775E-04
CGA:  86    -0.670126064992E+03   -0.52323E-04   -0.17560E-04  8424   0.344E-03-0.847E-04
CGA:  87    -0.670126115076E+03   -0.50084E-04   -0.16738E-04  8424   0.371E-03-0.894E-04
CGA:  88    -0.670126165601E+03   -0.50525E-04   -0.16970E-04  8424   0.409E-03-0.973E-04
CGA:  89    -0.670126218246E+03   -0.52645E-04   -0.17454E-04  8424   0.432E-03-0.110E-03
SDA:  90    -0.670126273247E+03   -0.55001E-04   -0.17456E-04  8424   0.440E-03-0.126E-03
CGA:  91    -0.670126523164E+03   -0.24992E-03   -0.46344E-03  8424   0.214E-02-0.344E-03
CGA:  92    -0.670126786998E+03   -0.26383E-03   -0.28362E-03  8424   0.165E-03 0.959E-04
CGA:  93    -0.670126837211E+03   -0.50213E-04   -0.10035E-03  8424   0.601E-03-0.199E-03
CGA:  94    -0.670126883599E+03   -0.46388E-04   -0.70615E-04  8424   0.613E-04 0.108E-03
CGA:  95    -0.670126900385E+03   -0.16786E-04   -0.16820E-04  8424   0.372E-04 0.242E-06
CGA:  96    -0.670126938972E+03   -0.38587E-04    0.10443E-04  8424   0.473E-04 0.285E-05
CGA:  97    -0.670126986321E+03   -0.47349E-04    0.19480E-04  8424   0.704E-04 0.237E-04
CGA:  98    -0.670127001551E+03   -0.15230E-04   -0.16383E-04  8424   0.268E-04 0.123E-04
CGA:  99    -0.670127030819E+03   -0.29268E-04    0.11251E-04  8424   0.202E-04 0.164E-04
CGA: 100    -0.670127048955E+03   -0.18136E-04    0.82508E-05  8424   0.174E-04 0.151E-04
CGA: 101    -0.670127067871E+03   -0.18916E-04    0.40097E-05  8424   0.177E-04 0.150E-04
CGA: 102    -0.670127083350E+03   -0.15479E-04    0.78060E-05  8424   0.187E-04 0.147E-04
CGA: 103    -0.670127105389E+03   -0.22039E-04    0.36131E-05  8424   0.218E-04 0.133E-04
CGA: 104    -0.670127114965E+03   -0.95756E-05   -0.91692E-05  8424   0.496E-04 0.401E-05
CGA: 105    -0.670127182103E+03   -0.67138E-04    0.12750E-04  8424   0.346E-04 0.570E-04
CGA: 106    -0.670127207912E+03   -0.25809E-04    0.39403E-04  8424   0.601E-04-0.844E-05
CGA: 107    -0.670127252711E+03   -0.44799E-04    0.14492E-04  8424   0.822E-04 0.391E-04
CGA: 108    -0.670127266818E+03   -0.14107E-04   -0.14443E-04  8424   0.251E-04 0.217E-05
CGA: 109    -0.670127295488E+03   -0.28670E-04    0.54752E-05  8424   0.289E-04 0.194E-04
CGA: 110    -0.670127307654E+03   -0.12166E-04   -0.12058E-04  8424   0.494E-04 0.961E-06
CGA: 111    -0.670127366287E+03   -0.58633E-04    0.10670E-04  8424   0.497E-04 0.479E-04
CGA: 112    -0.670127376165E+03   -0.98775E-05   -0.33656E-04  8424   0.266E-03-0.676E-04
CGA: 113    -0.670127422883E+03   -0.46718E-04   -0.48121E-04  8424   0.247E-04 0.864E-05
CGA: 114    -0.670127449184E+03   -0.26301E-04    0.77917E-05  8424   0.243E-04 0.173E-04
CGA: 115    -0.670127468326E+03   -0.19142E-04    0.22027E-04  8424   0.223E-04 0.166E-04
CGA: 116    -0.670127490736E+03   -0.22409E-04    0.73394E-05  8424   0.220E-04 0.177E-04
CGA: 117    -0.670127512451E+03   -0.21715E-04    0.75930E-05  8424   0.227E-04 0.179E-04
CGA: 118    -0.670127529824E+03   -0.17373E-04    0.25658E-04  8424   0.258E-04 0.166E-04
CGA: 119    -0.670127558744E+03   -0.28921E-04    0.62747E-05  8424   0.361E-04 0.112E-04
CGA: 120    -0.670127606221E+03   -0.47476E-04    0.23069E-04  8424   0.253E-04 0.498E-04
CGA: 121    -0.670127625579E+03   -0.19358E-04    0.28595E-04  8424   0.301E-04 0.145E-04
CGA: 122    -0.670127652844E+03   -0.27265E-04    0.13863E-04  8424   0.468E-04 0.589E-05
CGA: 123    -0.670127702763E+03   -0.49919E-04    0.27500E-04  8424   0.380E-04 0.530E-04
CGA: 124    -0.670127693922E+03    0.88406E-05   -0.35993E-04  8424   0.577E-03-0.734E-04
CGA: 125    -0.670127787474E+03   -0.93552E-04   -0.85230E-04  8424   0.463E-04-0.387E-04
CGA: 126    -0.670127788988E+03   -0.15141E-05   -0.62595E-05  8424   0.230E-04 0.228E-04
CGA: 127    -0.670127814670E+03   -0.25682E-04   -0.40800E-04  8424   0.535E-03-0.186E-04
CGA: 128    -0.670127933331E+03   -0.11866E-03   -0.83542E-04  8424   0.943E-04-0.154E-03
CGA: 129    -0.670127942919E+03   -0.95872E-05   -0.13666E-04  8424   0.241E-04 0.240E-04
CGA: 130    -0.670127968090E+03   -0.25172E-04    0.38602E-04  8424   0.374E-04 0.235E-04
CGA: 131    -0.670128007690E+03   -0.39600E-04    0.15098E-04  8424   0.923E-04-0.919E-05
CGA: 132    -0.670128092323E+03   -0.84632E-04    0.19068E-04  8424   0.161E-03 0.634E-04
CGA: 133    -0.670128098894E+03   -0.65706E-05   -0.16614E-04  8424   0.262E-04 0.384E-04
   3 F= -.67012810E+03 E0= -.67012810E+03  d E =-.119774E+01  mag=    21.0000
       N       E                     dE             d eps       ncg     rms          ort
SDA:   1    -0.638280961084E+03    0.31847E+02    0.00000E+00  8424   0.920E+02 0.000E+00
CGA:   2    -0.661537773415E+03   -0.23257E+02   -0.23359E+02  8424   0.370E+02 0.174E+00
CGA:   3    -0.668389828458E+03   -0.68521E+01   -0.68457E+01  8424   0.110E+02 0.268E+00
CGA:   4    -0.670391411920E+03   -0.20016E+01   -0.20072E+01  8424   0.264E+01 0.418E-01
CGA:   5    -0.670839802401E+03   -0.44839E+00   -0.45070E+00  8424   0.574E+00 0.370E-02
CGA:   6    -0.670956447098E+03   -0.11664E+00   -0.11675E+00  8424   0.165E+00 0.490E-03
CGA:   7    -0.670996048591E+03   -0.39601E-01   -0.39543E-01  8424   0.623E-01-0.856E-03
CGA:   8    -0.671012682532E+03   -0.16634E-01   -0.16676E-01  8424   0.213E-01 0.980E-03
CGA:   9    -0.671018297456E+03   -0.56149E-02   -0.56713E-02  8424   0.755E-02 0.119E-02
CGA:  10    -0.671020829858E+03   -0.25324E-02   -0.25324E-02  8424   0.312E-02-0.614E-05
CGA:  11    -0.671021847017E+03   -0.10172E-02   -0.10215E-02  8424   0.136E-02-0.212E-03
CGA:  12    -0.671022379093E+03   -0.53208E-03   -0.75154E-03  8424   0.228E-02-0.772E-03
CGA:  13    -0.671022784382E+03   -0.40529E-03   -0.43846E-03  8424   0.622E-03 0.255E-03
CGA:  14    -0.671023102535E+03   -0.31815E-03   -0.35689E-03  8424   0.113E-02-0.196E-03
CGA:  15    -0.671023417147E+03   -0.31461E-03   -0.33064E-03  8424   0.153E-02-0.169E-03
CGA:  16    -0.671023744515E+03   -0.32737E-03   -0.14160E-02  8424   0.890E-02-0.151E-02
CGA:  17    -0.671025824348E+03   -0.20798E-02   -0.20172E-02  8424   0.371E-02-0.448E-03
CGA:  18    -0.671026661200E+03   -0.83685E-03   -0.86069E-03  8424   0.121E-02 0.206E-03
CGA:  19    -0.671027423303E+03   -0.76210E-03   -0.85499E-03  8424   0.110E-02-0.298E-03
CGA:  20    -0.671027820293E+03   -0.39699E-03   -0.49088E-03  8424   0.245E-02-0.430E-03
CGA:  21    -0.671028276797E+03   -0.45650E-03   -0.43761E-03  8424   0.192E-02-0.223E-03
CGA:  22    -0.671029207476E+03   -0.93068E-03   -0.11540E-02  8424   0.694E-02-0.795E-03
CGA:  23    -0.671030627846E+03   -0.14204E-02   -0.12953E-02  8424   0.108E-01-0.160E-02
CGA:  24    -0.671033315477E+03   -0.26876E-02   -0.24952E-02  8424   0.164E-01-0.260E-02
CGA:  25    -0.671037575312E+03   -0.42598E-02   -0.39390E-02  8424   0.222E-01-0.590E-02
CGA:  26    -0.671041977044E+03   -0.44017E-02   -0.31930E-02  8424   0.237E-01-0.768E-02
CGA:  27    -0.671045788245E+03   -0.38112E-02   -0.24016E-02  8424   0.154E-01-0.660E-02
CGA:  28    -0.671048164068E+03   -0.23758E-02   -0.15099E-02  8424   0.102E-01-0.394E-02
CGA:  29    -0.671049914688E+03   -0.17506E-02   -0.12845E-02  8424   0.963E-02-0.283E-02
CGA:  30    -0.671051263350E+03   -0.13487E-02   -0.10313E-02  8424   0.736E-02-0.206E-02
CGA:  31    -0.671052267260E+03   -0.10039E-02   -0.79699E-03  8424   0.529E-02-0.125E-02
CGA:  32    -0.671053137643E+03   -0.87038E-03   -0.73315E-03  8424   0.509E-02-0.101E-02
CGA:  33    -0.671053940699E+03   -0.80306E-03   -0.70230E-03  8424   0.477E-02-0.812E-03
CGA:  34    -0.671054534088E+03   -0.59339E-03   -0.55934E-03  8424   0.347E-02-0.292E-03
CGA:  35    -0.671054933915E+03   -0.39983E-03   -0.42545E-03  8424   0.257E-02 0.106E-03
CGA:  36    -0.671055306493E+03   -0.37258E-03   -0.40114E-03  8424   0.229E-02 0.177E-03
CGA:  37    -0.671055732679E+03   -0.42619E-03   -0.41981E-03  8424   0.182E-02-0.802E-04
CGA:  38    -0.671056089980E+03   -0.35730E-03   -0.31776E-03  8424   0.154E-02-0.423E-03
CGA:  39    -0.671056372505E+03   -0.28253E-03   -0.25377E-03  8424   0.196E-02-0.501E-03
CGA:  40    -0.671056629200E+03   -0.25669E-03   -0.22240E-03  8424   0.216E-02-0.350E-03
CGA:  41    -0.671056991558E+03   -0.36236E-03   -0.33321E-03  8424   0.252E-02-0.397E-03
CGA:  42    -0.671057528308E+03   -0.53675E-03   -0.53610E-03  8424   0.370E-02-0.122E-02
CGA:  43    -0.671058038357E+03   -0.51005E-03   -0.38473E-03  8424   0.479E-02-0.224E-02
CGA:  44    -0.671059925329E+03   -0.18870E-02   -0.19243E-02  8424   0.313E-02-0.263E-03
CGA:  45    -0.671061262232E+03   -0.13369E-02   -0.12696E-02  8424   0.195E-02 0.407E-03
CGA:  46    -0.671062259565E+03   -0.99733E-03   -0.98492E-03  8424   0.134E-02 0.662E-04
CGA:  47    -0.671062920981E+03   -0.66142E-03   -0.60655E-03  8424   0.810E-03 0.343E-03
CGA:  48    -0.671063468328E+03   -0.54735E-03   -0.50666E-03  8424   0.927E-03 0.191E-03
CGA:  49    -0.671063947836E+03   -0.47951E-03   -0.43746E-03  8424   0.536E-03 0.511E-03
CGA:  50    -0.671064151491E+03   -0.20366E-03   -0.19942E-03  8424   0.290E-03 0.615E-04
CGA:  51    -0.671064269361E+03   -0.11787E-03   -0.11031E-03  8424   0.232E-03 0.230E-03
CGA:  52    -0.671064371662E+03   -0.10230E-03   -0.92493E-04  8424   0.173E-03 0.109E-03
CGA:  53    -0.671064477908E+03   -0.10625E-03   -0.94073E-04  8424   0.180E-03 0.219E-03
CGA:  54    -0.671064592734E+03   -0.11483E-03   -0.97010E-04  8424   0.176E-03 0.798E-04
CGA:  55    -0.671064700810E+03   -0.10808E-03   -0.96456E-04  8424   0.168E-03 0.221E-03
CGA:  56    -0.671064823006E+03   -0.12220E-03   -0.11408E-03  8424   0.289E-03 0.227E-04
CGA:  57    -0.671064919439E+03   -0.96433E-04   -0.10366E-03  8424   0.232E-03 0.230E-03
CGA:  58    -0.671065031493E+03   -0.11205E-03   -0.10870E-03  8424   0.139E-03 0.272E-04
CGA:  59    -0.671065084023E+03   -0.52530E-04   -0.53471E-04  8424   0.142E-03 0.127E-03
CGA:  60    -0.671065194321E+03   -0.11030E-03   -0.11713E-03  8424   0.333E-03-0.152E-04
CGA:  61    -0.671065260962E+03   -0.66640E-04   -0.83960E-04  8424   0.289E-03 0.184E-03
CGA:  62    -0.671065366270E+03   -0.10531E-03   -0.10563E-03  8424   0.769E-04 0.621E-04
CGA:  63    -0.671065458461E+03   -0.92191E-04   -0.69317E-04  8424   0.138E-03 0.609E-04
CGA:  64    -0.671065485300E+03   -0.26839E-04   -0.35700E-04  8424   0.790E-04 0.678E-04
CGA:  65    -0.671065558015E+03   -0.72715E-04   -0.63997E-04  8424   0.121E-03 0.536E-04
CGA:  66    -0.671065619771E+03   -0.61756E-04   -0.58429E-04  8424   0.699E-04 0.352E-04
CGA:  67    -0.671065679916E+03   -0.60145E-04   -0.48500E-04  8424   0.838E-04 0.814E-04
CGA:  68    -0.671065757473E+03   -0.77556E-04   -0.80778E-04  8424   0.200E-03-0.626E-05
CGA:  69    -0.671065797135E+03   -0.39662E-04   -0.55551E-04  8424   0.179E-03 0.120E-03
CGA:  70    -0.671065879032E+03   -0.81897E-04   -0.81438E-04  8424   0.539E-04 0.152E-04
CGA:  71    -0.671065901254E+03   -0.22222E-04   -0.23471E-04  8424   0.581E-04 0.509E-04
CGA:  72    -0.671065843603E+03    0.57650E-04   -0.47871E-04  8424   0.149E-02-0.951E-04
CGA:  73    -0.671066024904E+03   -0.18130E-03   -0.26158E-03  8424   0.184E-03 0.142E-03
CGA:  74    -0.671066095965E+03   -0.71061E-04   -0.74555E-04  8424   0.475E-04 0.926E-05
CGA:  75    -0.671066061327E+03    0.34639E-04   -0.99145E-04  8424   0.167E-02-0.107E-03
CGA:  76    -0.671066223220E+03   -0.16189E-03   -0.24497E-03  8424   0.710E-04 0.142E-03
CGA:  77    -0.671066234406E+03   -0.11186E-04   -0.22183E-04  8424   0.457E-04 0.234E-04
CGA:  78    -0.671066276042E+03   -0.41636E-04   -0.39763E-04  8424   0.143E-03-0.243E-04
CGA:  79    -0.671066288326E+03   -0.12284E-04   -0.30720E-04  8424   0.452E-04 0.359E-04
CGA:  80    -0.671066318748E+03   -0.30423E-04   -0.29654E-04  8424   0.505E-04-0.454E-05
CGA:  81    -0.671066414971E+03   -0.96223E-04   -0.90258E-04  8424   0.395E-03 0.163E-05
CGA:  82    -0.671066654277E+03   -0.23931E-03   -0.25661E-03  8424   0.407E-03 0.748E-04
CGA:  83    -0.671066937323E+03   -0.28305E-03   -0.26595E-03  8424   0.131E-03-0.154E-03
CGA:  84    -0.671066943840E+03   -0.65167E-05   -0.15552E-04  8424   0.423E-04 0.126E-04
CGA:  85    -0.671066949873E+03   -0.60332E-05   -0.10355E-04  8424   0.174E-04 0.802E-05
CGA:  86    -0.671066964959E+03   -0.15086E-04   -0.12901E-04  8424   0.634E-04-0.327E-04
CGA:  87    -0.671066966842E+03   -0.18830E-05   -0.11061E-04  8424   0.147E-04 0.180E-04
CGA:  88    -0.671066979303E+03   -0.12461E-04   -0.12081E-04  8424   0.303E-04-0.171E-04
CGA:  89    -0.671065802190E+03    0.11771E-02   -0.64478E-03  8424   0.620E-02-0.364E-03
CGA:  90    -0.671066833844E+03   -0.10317E-02   -0.11759E-02  8424   0.817E-03 0.234E-03
CGA:  91    -0.671067142977E+03   -0.30913E-03   -0.26240E-03  8424   0.248E-04-0.556E-04
CGA:  92    -0.671067154442E+03   -0.11465E-04   -0.75048E-05  8424   0.965E-05-0.506E-05
CGA:  93    -0.671067211500E+03   -0.57058E-04    0.16700E-05  8424   0.414E-04-0.787E-05
CGA:  94    -0.671067218836E+03   -0.73357E-05   -0.90376E-05  8424   0.664E-05 0.202E-05
   4 F= -.67106722E+03 E0= -.67106722E+03  d E =-.939120E+00  mag=    21.0000
       N       E                     dE             d eps       ncg     rms          ort
SDA:   1    -0.666351349213E+03    0.47159E+01    0.00000E+00  8424   0.126E+02 0.000E+00
CGA:   2    -0.670057527555E+03   -0.37062E+01   -0.37139E+01  8424   0.471E+01 0.445E-01
CGA:   3    -0.670948970815E+03   -0.89144E+00   -0.89472E+00  8424   0.134E+01 0.369E-01
CGA:   4    -0.671184836023E+03   -0.23587E+00   -0.23793E+00  8424   0.305E+00 0.477E-02
CGA:   5    -0.671235997087E+03   -0.51161E-01   -0.51388E-01  8424   0.656E-01 0.749E-03
CGA:   6    -0.671249875084E+03   -0.13878E-01   -0.13757E-01  8424   0.183E-01-0.172E-03
CGA:   7    -0.671254233927E+03   -0.43588E-02   -0.42742E-02  8424   0.657E-02-0.143E-03
CGA:   8    -0.671255911833E+03   -0.16779E-02   -0.17338E-02  8424   0.221E-02 0.997E-04
CGA:   9    -0.671256503934E+03   -0.59210E-03   -0.63137E-03  8424   0.909E-03 0.773E-04
CGA:  10    -0.671256848992E+03   -0.34506E-03   -0.32577E-03  8424   0.471E-03-0.474E-04
CGA:  11    -0.671257070397E+03   -0.22140E-03   -0.18388E-03  8424   0.348E-03-0.116E-03
CGA:  12    -0.671257108315E+03   -0.37919E-04   -0.32878E-03  8424   0.258E-02-0.555E-03
CGA:  13    -0.671257541553E+03   -0.43324E-03   -0.50468E-03  8424   0.536E-03 0.131E-03
CGA:  14    -0.671257784231E+03   -0.24268E-03   -0.21421E-03  8424   0.391E-03-0.838E-04
CGA:  15    -0.671257887916E+03   -0.10368E-03   -0.10217E-03  8424   0.189E-03-0.420E-05
CGA:  16    -0.671257994505E+03   -0.10659E-03   -0.19112E-03  8424   0.825E-03-0.250E-03
CGA:  17    -0.671258231470E+03   -0.23696E-03   -0.22016E-03  8424   0.225E-03-0.387E-04
CGA:  18    -0.671258319551E+03   -0.88081E-04   -0.69123E-04  8424   0.165E-03-0.532E-04
CGA:  19    -0.671255789518E+03    0.25300E-02   -0.13649E-02  8424   0.148E-01-0.854E-03
CGA:  20    -0.671258265601E+03   -0.24761E-02   -0.23466E-02  8424   0.256E-02-0.396E-03
CGA:  21    -0.671259121935E+03   -0.85633E-03   -0.90125E-03  8424   0.763E-03 0.569E-04
CGA:  22    -0.671259503774E+03   -0.38184E-03   -0.34499E-03  8424   0.290E-03-0.546E-04
CGA:  23    -0.671259558867E+03   -0.55093E-04   -0.68066E-04  8424   0.103E-03 0.156E-04
CGA:  24    -0.671259676807E+03   -0.11794E-03   -0.84016E-04  8424   0.387E-03-0.126E-03
CGA:  25    -0.671259707756E+03   -0.30948E-04   -0.63186E-04  8424   0.544E-04 0.375E-04
CGA:  26    -0.671259767891E+03   -0.60136E-04   -0.37925E-04  8424   0.180E-03-0.640E-04
CGA:  27    -0.671259806689E+03   -0.38798E-04   -0.37766E-04  8424   0.328E-04-0.133E-05
CGA:  28    -0.671259881188E+03   -0.74499E-04    0.64845E-04  8424   0.452E-03-0.749E-04
CGA:  29    -0.671259916589E+03   -0.35401E-04   -0.60547E-04  8424   0.342E-04 0.327E-04
CGA:  30    -0.671259950331E+03   -0.33743E-04   -0.30219E-04  8424   0.171E-03-0.551E-04
CGA:  31    -0.671260019811E+03   -0.69479E-04   -0.51965E-04  8424   0.266E-04-0.303E-04
CGA:  32    -0.671260080197E+03   -0.60386E-04    0.15438E-04  8424   0.698E-04-0.915E-05
CGA:  33    -0.671260347769E+03   -0.26757E-03    0.81410E-05  8424   0.234E-03-0.133E-04
CGA:  34    -0.671261225528E+03   -0.87776E-03    0.47286E-04  8424   0.308E-03-0.387E-04
CGA:  35    -0.671262446689E+03   -0.12212E-02    0.61806E-04  8424   0.639E-03-0.242E-03
CGA:  36    -0.671262513037E+03   -0.66348E-04   -0.10194E-03  8424   0.455E-04 0.520E-04
CGA:  37    -0.671262525354E+03   -0.12316E-04   -0.12539E-04  8424   0.682E-05 0.374E-06
CGA:  38    -0.671262530464E+03   -0.51103E-05   -0.43556E-05  8424   0.196E-04-0.470E-05
   5 F= -.67126253E+03 E0= -.67126253E+03  d E =-.195312E+00  mag=    21.0000
       N       E                     dE             d eps       ncg     rms          ort
SDA:   1    -0.661083556367E+03    0.10179E+02    0.00000E+00  8424   0.259E+02 0.000E+00
CGA:   2    -0.668791368053E+03   -0.77078E+01   -0.77391E+01  8424   0.109E+02 0.249E-01
CGA:   3    -0.670788373940E+03   -0.19970E+01   -0.20038E+01  8424   0.266E+01 0.574E-01
CGA:   4    -0.671254953961E+03   -0.46658E+00   -0.46814E+00  8424   0.643E+00 0.957E-02
CGA:   5    -0.671363712690E+03   -0.10876E+00   -0.10906E+00  8424   0.142E+00 0.118E-02
CGA:   6    -0.671394472816E+03   -0.30760E-01   -0.30647E-01  8424   0.405E-01-0.378E-03
CGA:   7    -0.671404060626E+03   -0.95878E-02   -0.94368E-02  8424   0.145E-01-0.428E-03
CGA:   8    -0.671408031540E+03   -0.39709E-02   -0.39771E-02  8424   0.535E-02 0.174E-04
CGA:   9    -0.671409588103E+03   -0.15566E-02   -0.15790E-02  8424   0.237E-02 0.734E-04
CGA:  10    -0.671410422241E+03   -0.83414E-03   -0.81441E-03  8424   0.117E-02-0.842E-04
CGA:  11    -0.671410879380E+03   -0.45714E-03   -0.43184E-03  8424   0.743E-03-0.138E-03
CGA:  12    -0.671411291009E+03   -0.41163E-03   -0.47329E-03  8424   0.153E-02-0.380E-03
CGA:  13    -0.671411581376E+03   -0.29037E-03   -0.33688E-03  8424   0.450E-03 0.135E-03
CGA:  14    -0.671411834087E+03   -0.25271E-03   -0.24761E-03  8424   0.662E-03-0.120E-03
CGA:  15    -0.671411989798E+03   -0.15571E-03   -0.15567E-03  8424   0.504E-03-0.276E-05
CGA:  16    -0.671412278911E+03   -0.28911E-03   -0.29620E-03  8424   0.101E-02-0.134E-03
CGA:  17    -0.671412662242E+03   -0.38333E-03   -0.32696E-03  8424   0.203E-02-0.613E-03
CGA:  18    -0.671413058797E+03   -0.39655E-03   -0.45289E-03  8424   0.733E-03 0.183E-03
CGA:  19    -0.671413346707E+03   -0.28791E-03   -0.26667E-03  8424   0.397E-03-0.116E-03
CGA:  20    -0.671413543583E+03   -0.19688E-03   -0.20200E-03  8424   0.373E-03-0.540E-04
CGA:  21    -0.671413710859E+03   -0.16728E-03   -0.17341E-03  8424   0.800E-03-0.247E-03
CGA:  22    -0.671413803798E+03   -0.92939E-04   -0.11379E-03  8424   0.160E-03 0.573E-04
CGA:  23    -0.671413917534E+03   -0.11374E-03   -0.20415E-03  8424   0.570E-03-0.132E-03
CGA:  24    -0.671414106788E+03   -0.18925E-03   -0.17821E-03  8424   0.146E-03-0.510E-04
CGA:  25    -0.671414157579E+03   -0.50791E-04   -0.43542E-04  8424   0.173E-03-0.378E-04
CGA:  26    -0.671414290700E+03   -0.13312E-03    0.17744E-02  8424   0.140E-03 0.270E-04
CGA:  27    -0.671414362742E+03   -0.72042E-04   -0.17208E-03  8424   0.161E-02-0.184E-03
CGA:  28    -0.671414676487E+03   -0.31374E-03   -0.26038E-03  8424   0.120E-03-0.142E-03
CGA:  29    -0.671414715862E+03   -0.39375E-04   -0.38406E-04  8424   0.801E-04-0.591E-05
CGA:  30    -0.671414546723E+03    0.16914E-03   -0.13987E-03  8424   0.255E-02-0.235E-03
CGA:  31    -0.671414942592E+03   -0.39587E-03   -0.36390E-03  8424   0.230E-03-0.796E-04
CGA:  32    -0.671415012638E+03   -0.70046E-04   -0.74762E-04  8424   0.789E-04 0.214E-04
CGA:  33    -0.671412961377E+03    0.20513E-02   -0.11179E-02  8424   0.123E-01-0.789E-03
CGA:  34    -0.671414731040E+03   -0.17697E-02   -0.19826E-02  8424   0.124E-02 0.366E-03
CGA:  35    -0.671415234702E+03   -0.50366E-03   -0.45537E-03  8424   0.835E-03-0.823E-04
CGA:  36    -0.671415430636E+03   -0.19593E-03   -0.18357E-03  8424   0.844E-04-0.175E-04
CGA:  37    -0.671415464655E+03   -0.34018E-04   -0.30699E-04  8424   0.540E-04-0.656E-05
CGA:  38    -0.671414985169E+03    0.47949E-03   -0.13003E-03  8424   0.357E-02-0.350E-03
CGA:  39    -0.671415519910E+03   -0.53474E-03   -0.65168E-03  8424   0.531E-03 0.163E-03
CGA:  40    -0.671415745034E+03   -0.22512E-03   -0.18657E-03  8424   0.187E-03-0.674E-04
CGA:  41    -0.671415772748E+03   -0.27714E-04   -0.33387E-04  8424   0.342E-04 0.839E-05
CGA:  42    -0.671415800203E+03   -0.27455E-04   -0.24272E-04  8424   0.967E-04-0.190E-04
CGA:  43    -0.671415855479E+03   -0.55276E-04   -0.27018E-04  8424   0.534E-04-0.505E-04
CGA:  44    -0.671415852043E+03    0.34360E-05   -0.66856E-05  8424   0.888E-05 0.147E-04
   6 F= -.67141585E+03 E0= -.67141585E+03  d E =-.153322E+00  mag=    21.0000
       N       E                     dE             d eps       ncg     rms          ort
SDA:   1    -0.667469766224E+03    0.39461E+01    0.00000E+00  8424   0.105E+02 0.000E+00
CGA:   2    -0.670350940078E+03   -0.28812E+01   -0.28928E+01  8424   0.481E+01-0.122E-01
CGA:   3    -0.671235994262E+03   -0.88505E+00   -0.88390E+00  8424   0.118E+01 0.174E-01
CGA:   4    -0.671442909780E+03   -0.20692E+00   -0.20597E+00  8424   0.295E+00 0.287E-02
CGA:   5    -0.671493191594E+03   -0.50282E-01   -0.50229E-01  8424   0.619E-01 0.959E-05
CGA:   6    -0.671506067041E+03   -0.12875E-01   -0.12962E-01  8424   0.168E-01 0.152E-03
CGA:   7    -0.671509952942E+03   -0.38859E-02   -0.38928E-02  8424   0.578E-02 0.552E-05
CGA:   8    -0.671511525574E+03   -0.15726E-02   -0.15665E-02  8424   0.210E-02-0.185E-04
CGA:   9    -0.671512143461E+03   -0.61789E-03   -0.61432E-03  8424   0.920E-03-0.126E-04
CGA:  10    -0.671512412625E+03   -0.26916E-03   -0.28457E-03  8424   0.406E-03 0.562E-04
CGA:  11    -0.671512512655E+03   -0.10003E-03   -0.12631E-03  8424   0.186E-03 0.952E-04
CGA:  12    -0.671512580817E+03   -0.68162E-04   -0.83239E-04  8424   0.151E-03 0.778E-04
CGA:  13    -0.671512635876E+03   -0.55059E-04   -0.75472E-04  8424   0.134E-03 0.105E-03
CGA:  14    -0.671512680643E+03   -0.44767E-04   -0.50881E-04  8424   0.877E-04 0.392E-04
CGA:  15    -0.671512736330E+03   -0.55687E-04   -0.57086E-04  8424   0.930E-04 0.579E-04
CGA:  16    -0.671512753901E+03   -0.17571E-04   -0.26918E-04  8424   0.635E-04 0.393E-04
CGA:  17    -0.671512795868E+03   -0.41967E-04   -0.43664E-04  8424   0.703E-04 0.543E-04
CGA:  18    -0.671512810943E+03   -0.15075E-04   -0.22905E-04  8424   0.467E-04 0.417E-04
CGA:  19    -0.671512854387E+03   -0.43444E-04   -0.36708E-04  8424   0.123E-03 0.235E-04
CGA:  20    -0.671512852605E+03    0.17815E-05   -0.15231E-04  8424   0.399E-04 0.433E-04
   7 F= -.67151285E+03 E0= -.67151285E+03  d E =-.970006E-01  mag=    21.0000
       N       E                     dE             d eps       ncg     rms          ort
SDA:   1    -0.668838617657E+03    0.26742E+01    0.00000E+00  8424   0.733E+01 0.000E+00
CGA:   2    -0.670764302204E+03   -0.19257E+01   -0.19287E+01  8424   0.321E+01 0.452E-03
CGA:   3    -0.671352601969E+03   -0.58830E+00   -0.58681E+00  8424   0.913E+00 0.435E-02
CGA:   4    -0.671512548454E+03   -0.15995E+00   -0.15895E+00  8424   0.222E+00-0.181E-02
CGA:   5    -0.671550573677E+03   -0.38025E-01   -0.37799E-01  8424   0.454E-01-0.926E-03
CGA:   6    -0.671559698613E+03   -0.91249E-02   -0.91899E-02  8424   0.116E-01 0.265E-03
CGA:   7    -0.671562373328E+03   -0.26747E-02   -0.26995E-02  8424   0.406E-02 0.130E-03
CGA:   8    -0.671563462492E+03   -0.10892E-02   -0.10875E-02  8424   0.141E-02-0.134E-04
CGA:   9    -0.671563872159E+03   -0.40967E-03   -0.40806E-03  8424   0.566E-03-0.154E-04
CGA:  10    -0.671564026556E+03   -0.15440E-03   -0.16128E-03  8424   0.222E-03 0.634E-04
CGA:  11    -0.671564047198E+03   -0.20642E-04   -0.45667E-04  8424   0.950E-04 0.122E-03
CGA:  12    -0.671564046330E+03    0.86755E-06   -0.14723E-04  8424   0.586E-04 0.692E-04
   8 F= -.67156405E+03 E0= -.67156405E+03  d E =-.511937E-01  mag=    21.0000
       N       E                     dE             d eps       ncg     rms          ort
SDA:   1    -0.670030061562E+03    0.15340E+01    0.00000E+00  8424   0.416E+01 0.000E+00
CGA:   2    -0.671070223541E+03   -0.10402E+01   -0.10409E+01  8424   0.206E+01 0.309E-02
CGA:   3    -0.671451507008E+03   -0.38128E+00   -0.38102E+00  8424   0.558E+00 0.699E-05
CGA:   4    -0.671545344756E+03   -0.93838E-01   -0.93473E-01  8424   0.132E+00-0.190E-02
CGA:   5    -0.671568129646E+03   -0.22785E-01   -0.22648E-01  8424   0.271E-01-0.904E-03
CGA:   6    -0.671573563484E+03   -0.54338E-02   -0.54512E-02  8424   0.696E-02 0.131E-03
CGA:   7    -0.671575053529E+03   -0.14900E-02   -0.15152E-02  8424   0.218E-02 0.241E-03
CGA:   8    -0.671575602219E+03   -0.54869E-03   -0.56003E-03  8424   0.724E-03 0.169E-03
CGA:   9    -0.671575796907E+03   -0.19469E-03   -0.20161E-03  8424   0.286E-03 0.129E-03
CGA:  10    -0.671575855497E+03   -0.58590E-04   -0.72443E-04  8424   0.135E-03 0.147E-03
CGA:  11    -0.671575858018E+03   -0.25214E-05   -0.18673E-04  8424   0.811E-04 0.975E-04
   9 F= -.67157586E+03 E0= -.67157586E+03  d E =-.118117E-01  mag=    21.0000
       N       E                     dE             d eps       ncg     rms          ort
SDA:   1    -0.669897686055E+03    0.16782E+01    0.00000E+00  8424   0.431E+01 0.000E+00
CGA:   2    -0.671057794858E+03   -0.11601E+01   -0.11601E+01  8424   0.227E+01 0.141E-03
CGA:   3    -0.671466250341E+03   -0.40846E+00   -0.40846E+00  8424   0.530E+00 0.237E-03
CGA:   4    -0.671553387993E+03   -0.87138E-01   -0.87139E-01  8424   0.125E+00-0.197E-03
CGA:   5    -0.671574967142E+03   -0.21579E-01   -0.21572E-01  8424   0.265E-01-0.117E-03
CGA:   6    -0.671580356485E+03   -0.53893E-02   -0.54008E-02  8424   0.671E-02 0.169E-03
CGA:   7    -0.671581773810E+03   -0.14173E-02   -0.14352E-02  8424   0.206E-02 0.332E-03
CGA:   8    -0.671582258733E+03   -0.48492E-03   -0.49693E-03  8424   0.678E-03 0.356E-03
CGA:   9    -0.671582413390E+03   -0.15466E-03   -0.16864E-03  8424   0.291E-03 0.281E-03
CGA:  10    -0.671582458099E+03   -0.44710E-04   -0.67697E-04  8424   0.169E-03 0.242E-03
CGA:  11    -0.671582463954E+03   -0.58548E-05   -0.22223E-04  8424   0.115E-03 0.133E-03
CGA:  12    -0.671582460258E+03    0.36956E-05   -0.11917E-04  8424   0.101E-03 0.108E-03
