       N       E                     dE             d eps       ncg     rms          ort
DAV:   1     0.828590866669E+04    0.82859E+04   -0.24673E+05  8424   0.238E+03
DAV:   2     0.917936470623E+03   -0.73680E+04   -0.69186E+04  8424   0.658E+02
DAV:   3    -0.678159791284E+03   -0.15961E+04   -0.14041E+04  8424   0.283E+02
DAV:   4    -0.834399125286E+03   -0.15624E+03   -0.15351E+03  8424   0.857E+01
DAV:   5    -0.836924723937E+03   -0.25256E+01   -0.25138E+01  8424   0.122E+01
SDA:   6    -0.248167388009E+03    0.58876E+03   -0.25138E+01  8424   0.637E+04 0.000E+00
CGA:   7    -0.270591462644E+03   -0.22424E+02   -0.42043E+03  8424   0.229E+05-0.282E+04
CGA:   8    -0.185125893975E+03    0.85466E+02   -0.61620E+03  8424   0.905E+04-0.251E+04
CGA:   9    -0.274561596237E+03   -0.89436E+02   -0.35363E+03  8424   0.204E+04-0.973E+03
CGA:  10    -0.286661551008E+03   -0.12100E+02   -0.11565E+03  8424   0.244E+04-0.153E+03
CGA:  11    -0.468037248644E+03   -0.18138E+03   -0.55965E+02  8424   0.168E+04 0.386E+04
CGA:  12    -0.435280683847E+03    0.32757E+02   -0.76238E+02  8424   0.220E+04-0.291E+03
CGA:  13    -0.544241438541E+03   -0.10896E+03   -0.66057E+02  8424   0.536E+03 0.323E+03
CGA:  14    -0.564107275455E+03   -0.19866E+02   -0.11154E+02  8424   0.134E+04 0.154E+04
CGA:  15    -0.484955632210E+03    0.79152E+02   -0.38498E+02  8424   0.278E+04-0.116E+04
CGA:  16    -0.432083193631E+03    0.52872E+02   -0.12622E+03  8424   0.113E+04-0.674E+03
CGA:  17    -0.569337845312E+03   -0.13725E+03   -0.12659E+02  8424   0.410E+03 0.585E+03
CGA:  18    -0.577062072280E+03   -0.77242E+01   -0.42854E+01  8424   0.348E+03 0.371E+03
CGA:  19    -0.583241088106E+03   -0.61790E+01   -0.30136E+01  8424   0.709E+03 0.759E+03
CGA:  20    -0.618156789653E+03   -0.34916E+02   -0.10456E+02  8424   0.272E+03-0.759E+03
CGA:  21    -0.613952531199E+03    0.42043E+01   -0.10971E+02  8424   0.871E+03-0.186E+03
CGA:  22    -0.606633321190E+03    0.73192E+01   -0.27921E+02  8424   0.269E+04-0.154E+04
CGA:  23    -0.594115882029E+03    0.12517E+02   -0.10947E+03  8424   0.418E+03-0.194E+03
CGA:  24    -0.623592963182E+03   -0.29477E+02   -0.47993E+01  8424   0.638E+03 0.107E+04
CGA:  25    -0.626501561939E+03   -0.29086E+01   -0.16222E+02  8424   0.725E+03-0.643E+03
CGA:  26    -0.614014552642E+03    0.12487E+02   -0.27199E+02  8424   0.172E+04-0.990E+03
CGA:  27    -0.626115835132E+03   -0.12101E+02   -0.56360E+02  8424   0.196E+03-0.138E+03
CGA:  28    -0.644809657837E+03   -0.18694E+02   -0.38077E+01  8424   0.467E+02 0.114E+03
CGA:  29    -0.648235269125E+03   -0.34256E+01   -0.34602E+01  8424   0.105E+03 0.172E+01
CGA:  30    -0.656883919645E+03   -0.86487E+01   -0.78596E+01  8424   0.153E+03-0.329E+02
CGA:  31    -0.661163703129E+03   -0.42798E+01   -0.33456E+01  8424   0.160E+02 0.899E+01
CGA:  32    -0.662053375849E+03   -0.88967E+00   -0.88239E+00  8424   0.191E+02 0.385E-01
CGA:  33    -0.664211618800E+03   -0.21582E+01   -0.21072E+01  8424   0.153E+02-0.989E-01
CGA:  34    -0.664790111379E+03   -0.57849E+00   -0.61926E+00  8424   0.207E+02-0.594E+00
CGA:  35    -0.665868589336E+03   -0.10785E+01   -0.91608E+00  8424   0.103E+02 0.268E+00
CGA:  36    -0.666729784048E+03   -0.86119E+00   -0.84711E+00  8424   0.802E+01 0.195E+01
CGA:  37    -0.667323505009E+03   -0.59372E+00   -0.60871E+00  8424   0.670E+01 0.263E+00
CGA:  38    -0.667683732397E+03   -0.36023E+00   -0.38800E+00  8424   0.353E+01 0.188E+00
CGA:  39    -0.668267360152E+03   -0.58363E+00   -0.50348E+00  8424   0.241E+01 0.888E+00
CGA:  40    -0.668643623416E+03   -0.37626E+00   -0.37411E+00  8424   0.118E+01 0.103E+00
CGA:  41    -0.668960130307E+03   -0.31651E+00   -0.27080E+00  8424   0.112E+01 0.402E+00
CGA:  42    -0.669106310749E+03   -0.14618E+00   -0.14298E+00  8424   0.472E+00 0.246E+00
CGA:  43    -0.669251654687E+03   -0.14534E+00   -0.14659E+00  8424   0.397E+00-0.465E-02
CGA:  44    -0.669343960985E+03   -0.92306E-01   -0.96542E-01  8424   0.292E+00-0.282E-01
CGA:  45    -0.669397335426E+03   -0.53374E-01   -0.55116E-01  8424   0.188E+00-0.173E-01
CGA:  46    -0.669437585622E+03   -0.40250E-01   -0.37952E-01  8424   0.126E+00 0.198E-01
CGA:  47    -0.669473315745E+03   -0.35730E-01   -0.34208E-01  8424   0.786E-01 0.108E-01
CGA:  48    -0.669495203025E+03   -0.21887E-01   -0.19203E-01  8424   0.525E-01 0.259E-01
CGA:  49    -0.669516533626E+03   -0.21331E-01   -0.18253E-01  8424   0.547E-01 0.210E-01
CGA:  50    -0.669532334588E+03   -0.15801E-01   -0.14572E-01  8424   0.297E-01 0.217E-01
CGA:  51    -0.669541418442E+03   -0.90839E-02   -0.81286E-02  8424   0.281E-01 0.157E-01
CGA:  52    -0.669546785192E+03   -0.53668E-02   -0.51835E-02  8424   0.203E-01 0.396E-02
CGA:  53    -0.669556735005E+03   -0.99498E-02   -0.82984E-02  8424   0.149E-01 0.747E-02
CGA:  54    -0.669564155583E+03   -0.74206E-02   -0.65617E-02  8424   0.171E-01 0.496E-02
CGA:  55    -0.669572530323E+03   -0.83747E-02   -0.69140E-02  8424   0.157E-01 0.999E-02
CGA:  56    -0.669575544630E+03   -0.30143E-02   -0.29674E-02  8424   0.123E-01 0.223E-02
CGA:  57    -0.669581932712E+03   -0.63881E-02   -0.54628E-02  8424   0.152E-01 0.417E-02
CGA:  58    -0.669591620856E+03   -0.96881E-02   -0.86652E-02  8424   0.197E-01 0.403E-02
CGA:  59    -0.669604797087E+03   -0.13176E-01   -0.10863E-01  8424   0.303E-01 0.918E-02
CGA:  60    -0.669628914234E+03   -0.24117E-01   -0.21175E-01  8424   0.458E-01 0.986E-02
CGA:  61    -0.669650298210E+03   -0.21384E-01   -0.21556E-01  8424   0.528E-01-0.197E-02
CGA:  62    -0.669662952468E+03   -0.12654E-01   -0.12608E-01  8424   0.374E-01 0.671E-03
CGA:  63    -0.669669992263E+03   -0.70398E-02   -0.71698E-02  8424   0.270E-01 0.301E-02
CGA:  64    -0.669681233466E+03   -0.11241E-01   -0.10652E-01  8424   0.241E-01 0.328E-02
CGA:  65    -0.669688407395E+03   -0.71739E-02   -0.71505E-02  8424   0.227E-01-0.564E-04
CGA:  66    -0.669694121766E+03   -0.57144E-02   -0.56456E-02  8424   0.238E-01 0.284E-02
CGA:  67    -0.669702156730E+03   -0.80350E-02   -0.78825E-02  8424   0.216E-01 0.154E-02
CGA:  68    -0.669711322934E+03   -0.91662E-02   -0.90840E-02  8424   0.280E-01-0.141E-02
CGA:  69    -0.669720603724E+03   -0.92808E-02   -0.10127E-01  8424   0.358E-01-0.882E-02
CGA:  70    -0.669728324869E+03   -0.77211E-02   -0.87927E-02  8424   0.406E-01-0.146E-01
CGA:  71    -0.669734185521E+03   -0.58607E-02   -0.52584E-02  8424   0.455E-01-0.190E-01
CGA:  72    -0.669740371432E+03   -0.61859E-02   -0.56976E-02  8424   0.385E-01-0.284E-01
CGA:  73    -0.669746963274E+03   -0.65918E-02   -0.66743E-02  8424   0.350E-01 0.114E-02
CGA:  74    -0.669754265839E+03   -0.73026E-02   -0.75168E-02  8424   0.270E-01 0.469E-02
CGA:  75    -0.669762823350E+03   -0.85575E-02   -0.84233E-02  8424   0.126E-01 0.482E-02
CGA:  76    -0.669766820226E+03   -0.39969E-02   -0.39534E-02  8424   0.105E-01 0.239E-02
CGA:  77    -0.669769189273E+03   -0.23690E-02   -0.25231E-02  8424   0.848E-02 0.265E-02
CGA:  78    -0.669771254181E+03   -0.20649E-02   -0.21505E-02  8424   0.436E-02 0.177E-02
CGA:  79    -0.669773089939E+03   -0.18358E-02   -0.17163E-02  8424   0.286E-02 0.141E-02
CGA:  80    -0.669775049404E+03   -0.19595E-02   -0.17809E-02  8424   0.480E-02 0.737E-03
CGA:  81    -0.669776597194E+03   -0.15478E-02   -0.15494E-02  8424   0.549E-02 0.302E-03
CGA:  82    -0.669777935027E+03   -0.13378E-02   -0.13625E-02  8424   0.242E-02 0.715E-03
CGA:  83    -0.669779185214E+03   -0.12502E-02   -0.13083E-02  8424   0.581E-02-0.345E-03
CGA:  84    -0.669780238124E+03   -0.10529E-02   -0.95224E-03  8424   0.364E-02-0.147E-02
CGA:  85    -0.669780951611E+03   -0.71349E-03   -0.11808E-02  8424   0.818E-02-0.299E-02
CGA:  86    -0.669782202725E+03   -0.12511E-02   -0.12448E-02  8424   0.279E-02-0.571E-04
CGA:  87    -0.669783167171E+03   -0.96445E-03   -0.13194E-02  8424   0.874E-02-0.172E-02
CGA:  88    -0.669784157313E+03   -0.99014E-03   -0.97655E-03  8424   0.134E-02-0.884E-04
CGA:  89    -0.669784581087E+03   -0.42377E-03   -0.56346E-03  8424   0.365E-02-0.918E-03
CGA:  90    -0.669785064883E+03   -0.48380E-03   -0.48636E-03  8424   0.807E-03 0.938E-05
CGA:  91    -0.669785115767E+03   -0.50884E-04   -0.51218E-03  8424   0.760E-02-0.128E-02
CGA:  92    -0.669785957510E+03   -0.84174E-03   -0.84129E-03  8424   0.951E-03-0.246E-04
CGA:  93    -0.669786225757E+03   -0.26825E-03   -0.27060E-03  8424   0.104E-02-0.450E-03
CGA:  94    -0.669786625703E+03   -0.39995E-03    0.24848E-03  8424   0.983E-03 0.246E-03
CGA:  95    -0.669787315941E+03   -0.69024E-03    0.13671E-01  8424   0.698E-03 0.257E-03
CGA:  96    -0.669787864465E+03   -0.54852E-03    0.11206E-02  8424   0.109E-02-0.139E-03
CGA:  97    -0.669788680832E+03   -0.81637E-03    0.18157E-03  8424   0.128E-02 0.155E-03
CGA:  98    -0.669789632985E+03   -0.95215E-03    0.12599E-02  8424   0.195E-02-0.231E-03
CGA:  99    -0.669790764905E+03   -0.11319E-02    0.85992E-03  8424   0.254E-02-0.162E-02
CGA: 100    -0.669791269105E+03   -0.50420E-03   -0.48365E-03  8424   0.559E-03-0.231E-03
CGA: 101    -0.669791373390E+03   -0.10429E-03   -0.99946E-04  8424   0.430E-03-0.552E-04
CGA: 102    -0.669791492827E+03   -0.11944E-03   -0.11574E-03  8424   0.350E-03 0.136E-03
CGA: 103    -0.669791732952E+03   -0.24013E-03   -0.38340E-03  8424   0.218E-02-0.271E-03
CGA: 104    -0.669792027287E+03   -0.29434E-03   -0.27304E-03  8424   0.343E-03-0.110E-03
CGA: 105    -0.669792102298E+03   -0.75011E-04   -0.67394E-04  8424   0.178E-03-0.903E-04
CGA: 106    -0.669792257967E+03   -0.15567E-03    0.17846E-04  8424   0.116E-03 0.450E-04
CGA: 107    -0.669792437571E+03   -0.17960E-03    0.18279E-04  8424   0.676E-04 0.921E-04
CGA: 108    -0.669792513465E+03   -0.75893E-04    0.10268E-04  8424   0.710E-04 0.292E-04
CGA: 109    -0.669792691389E+03   -0.17792E-03    0.71842E-05  8424   0.629E-04 0.935E-04
CGA: 110    -0.669792780066E+03   -0.88677E-04    0.62788E-05  8424   0.745E-04 0.261E-04
CGA: 111    -0.669792969149E+03   -0.18908E-03    0.71790E-05  8424   0.700E-04 0.920E-04
CGA: 112    -0.669793039148E+03   -0.69999E-04    0.13720E-04  8424   0.110E-03 0.708E-05
CGA: 113    -0.669793258643E+03   -0.21950E-03    0.80896E-05  8424   0.117E-03 0.911E-04
CGA: 114    -0.669793347596E+03   -0.88954E-04    0.53017E-04  8424   0.172E-03-0.486E-04
CGA: 115    -0.669793550143E+03   -0.20255E-03    0.57925E-05  8424   0.244E-03 0.625E-04
CGA: 116    -0.669793920841E+03   -0.37070E-03    0.51264E-04  8424   0.254E-03 0.425E-04
CGA: 117    -0.669794416521E+03   -0.49568E-03    0.22794E-04  8424   0.230E-03 0.176E-03
CGA: 118    -0.669794479258E+03   -0.62737E-04   -0.73368E-04  8424   0.939E-03-0.342E-03
CGA: 119    -0.669794562210E+03   -0.82951E-04   -0.85622E-04  8424   0.662E-04 0.638E-05
CGA: 120    -0.669794646859E+03   -0.84649E-04    0.73313E-05  8424   0.831E-04 0.545E-05
CGA: 121    -0.669794843495E+03   -0.19664E-03    0.43269E-05  8424   0.804E-04 0.836E-04
CGA: 122    -0.669794920470E+03   -0.76975E-04    0.15809E-04  8424   0.973E-04-0.823E-05
CGA: 123    -0.669795096427E+03   -0.17596E-03    0.47042E-05  8424   0.127E-03 0.497E-04
CGA: 124    -0.669795174460E+03   -0.78033E-04    0.17718E-03  8424   0.159E-03-0.532E-04
CGA: 125    -0.669795351892E+03   -0.17743E-03    0.52806E-05  8424   0.244E-03-0.394E-05
CGA: 126    -0.669795735218E+03   -0.38333E-03    0.17651E-04  8424   0.185E-03 0.138E-03
CGA: 127    -0.669795771984E+03   -0.36766E-04   -0.30479E-04  8424   0.122E-03-0.555E-04
CGA: 128    -0.669795900671E+03   -0.12869E-03    0.67314E-05  8424   0.982E-04 0.186E-04
CGA: 129    -0.669796105835E+03   -0.20516E-03    0.67182E-05  8424   0.945E-04 0.607E-04
CGA: 130    -0.669795989658E+03    0.11618E-03   -0.71791E-04  8424   0.323E-02-0.388E-03
CGA: 131    -0.669796338574E+03   -0.34892E-03   -0.29701E-03  8424   0.960E-04-0.196E-03
CGA: 132    -0.669796423932E+03   -0.85358E-04    0.20157E-04  8424   0.142E-03-0.333E-04
CGA: 133    -0.669796632337E+03   -0.20841E-03    0.46458E-05  8424   0.141E-03 0.485E-04
CGA: 134    -0.669796913441E+03   -0.28110E-03    0.17038E-04  8424   0.161E-03 0.556E-04
CGA: 135    -0.669797302418E+03   -0.38898E-03    0.16064E-04  8424   0.263E-03 0.472E-04
CGA: 136    -0.669798081001E+03   -0.77858E-03    0.16503E-04  8424   0.273E-03 0.193E-03
CGA: 137    -0.669798156901E+03   -0.75899E-04   -0.72803E-04  8424   0.245E-03-0.149E-03
CGA: 138    -0.669798220713E+03   -0.63812E-04   -0.49233E-04  8424   0.265E-03-0.170E-03
CGA: 139    -0.669798279365E+03   -0.58652E-04   -0.39669E-04  8424   0.167E-03-0.142E-03
CGA: 140    -0.669798313772E+03   -0.34407E-04   -0.24353E-04  8424   0.115E-03-0.780E-04
CGA: 141    -0.669798449251E+03   -0.13548E-03    0.26654E-05  8424   0.569E-04 0.550E-04
CGA: 142    -0.669798582064E+03   -0.13281E-03    0.58706E-05  8424   0.228E-03-0.268E-04
CGA: 143    -0.669799083411E+03   -0.50135E-03    0.24091E-05  8424   0.197E-02-0.160E-03
CGA: 144    -0.669799243447E+03   -0.16004E-03   -0.16126E-03  8424   0.390E-04-0.133E-04
CGA: 145    -0.669799324245E+03   -0.80798E-04    0.16745E-05  8424   0.461E-04 0.154E-04
CGA: 146    -0.669799482686E+03   -0.15844E-03    0.22430E-05  8424   0.364E-04 0.629E-04
CGA: 147    -0.669799546389E+03   -0.63703E-04    0.20083E-05  8424   0.448E-04 0.161E-04
CGA: 148    -0.669799710603E+03   -0.16421E-03    0.21564E-05  8424   0.381E-04 0.609E-04
CGA: 149    -0.669799786567E+03   -0.75963E-04    0.17542E-05  8424   0.505E-04 0.125E-04
CGA: 150    -0.669799956021E+03   -0.16945E-03    0.22608E-05  8424   0.450E-04 0.608E-04
CGA: 151    -0.669800014480E+03   -0.58460E-04    0.39137E-05  8424   0.635E-04 0.309E-05
CGA: 152    -0.669800189217E+03   -0.17474E-03    0.22311E-05  8424   0.649E-04 0.584E-04
CGA: 153    -0.669800271040E+03   -0.81823E-04    0.59254E-05  8424   0.896E-04-0.194E-04
CGA: 154    -0.669800440493E+03   -0.16945E-03    0.19498E-05  8424   0.111E-03 0.482E-04
CGA: 155    -0.669800389099E+03    0.51394E-04   -0.70711E-04  8424   0.155E-02-0.323E-03
CGA: 156    -0.669800658200E+03   -0.26910E-03   -0.22231E-03  8424   0.172E-03-0.345E-03
CGA: 157    -0.669800675587E+03   -0.17387E-04   -0.59746E-04  8424   0.106E-02-0.244E-03
CGA: 158    -0.669800816977E+03   -0.14139E-03   -0.10682E-03  8424   0.107E-03-0.184E-03
CGA: 159    -0.669800889222E+03   -0.72246E-04    0.23741E-04  8424   0.184E-03-0.552E-04
CGA: 160    -0.669800939189E+03   -0.49967E-04   -0.35529E-04  8424   0.327E-03-0.184E-03
CGA: 161    -0.669800979232E+03   -0.40043E-04   -0.31877E-04  8424   0.469E-04-0.495E-04
CGA: 162    -0.669801067209E+03   -0.87977E-04    0.15862E-05  8424   0.370E-04 0.215E-04
CGA: 163    -0.669801199701E+03   -0.13249E-03    0.18780E-05  8424   0.269E-04 0.469E-04
CGA: 164    -0.669801273111E+03   -0.73410E-04    0.82228E-06  8424   0.312E-04 0.227E-04
CGA: 165    -0.669801337521E+03   -0.64410E-04    0.13599E-05  8424   0.544E-04 0.127E-04
CGA: 166    -0.669801536751E+03   -0.19923E-03    0.24761E-05  8424   0.321E-04 0.683E-04
CGA: 167    -0.669801609762E+03   -0.73011E-04    0.12334E-05  8424   0.409E-04 0.145E-04
CGA: 168    -0.669801772388E+03   -0.16263E-03    0.18054E-05  8424   0.309E-04 0.581E-04
CGA: 169    -0.669801838457E+03   -0.66069E-04    0.12890E-05  8424   0.382E-04 0.158E-04
CGA: 170    -0.669801913581E+03   -0.75124E-04    0.17774E-05  8424   0.561E-04 0.426E-05
CGA: 171    -0.669802088462E+03   -0.17488E-03    0.18330E-05  8424   0.513E-04 0.606E-04
CGA: 172    -0.669802148765E+03   -0.60302E-04    0.52522E-05  8424   0.831E-04-0.150E-04
CGA: 173    -0.669802328013E+03   -0.17925E-03    0.15624E-05  8424   0.114E-03 0.553E-04
CGA: 174    -0.669802404987E+03   -0.76974E-04    0.48620E-04  8424   0.211E-03-0.105E-03
CGA: 175    -0.669802448301E+03   -0.43314E-04   -0.35397E-04  8424   0.903E-04-0.866E-04
CGA: 176    -0.669802556559E+03   -0.10826E-03    0.22678E-05  8424   0.326E-04 0.388E-04
CGA: 177    -0.669802664780E+03   -0.10822E-03    0.16725E-05  8424   0.561E-04 0.162E-04
CGA: 178    -0.669802915962E+03   -0.25118E-03    0.21928E-05  8424   0.687E-04 0.804E-04
CGA: 179    -0.669802968073E+03   -0.52111E-04    0.17971E-04  8424   0.975E-04-0.338E-04
CGA: 180    -0.669803126682E+03   -0.15861E-03    0.11973E-05  8424   0.137E-03 0.425E-04
CGA: 181    -0.669803452140E+03   -0.32546E-03    0.11077E-04  8424   0.134E-03 0.124E-04
CGA: 182    -0.669803826382E+03   -0.37424E-03    0.46682E-05  8424   0.880E-04 0.114E-03
CGA: 183    -0.669802811188E+03    0.10152E-02   -0.55255E-03  8424   0.117E-01-0.837E-03
CGA: 184    -0.669804242477E+03   -0.14313E-02   -0.12964E-02  8424   0.680E-03-0.310E-03
CGA: 185    -0.669804329549E+03   -0.87072E-04   -0.71831E-04  8424   0.552E-04-0.512E-04
CGA: 186    -0.669804426812E+03   -0.97264E-04    0.90335E-05  8424   0.212E-03-0.442E-04
CGA: 187    -0.669804489208E+03   -0.62395E-04   -0.35929E-04  8424   0.136E-03-0.102E-03
CGA: 188    -0.669804664118E+03   -0.17491E-03    0.74746E-05  8424   0.385E-03-0.714E-04
CGA: 189    -0.669804706000E+03   -0.41882E-04   -0.41083E-04  8424   0.534E-04-0.465E-05
CGA: 190    -0.669804805093E+03   -0.99093E-04    0.79086E-05  8424   0.213E-03-0.502E-04
CGA: 191    -0.669804864331E+03   -0.59237E-04   -0.36142E-04  8424   0.143E-03-0.100E-03
CGA: 192    -0.669805030001E+03   -0.16567E-03    0.82147E-05  8424   0.335E-03-0.815E-04
CGA: 193    -0.669805075627E+03   -0.45626E-04   -0.42476E-04  8424   0.658E-04-0.134E-04
CGA: 194    -0.669805174615E+03   -0.98989E-04    0.11057E-04  8424   0.270E-03-0.740E-04
CGA: 195    -0.669805227136E+03   -0.52521E-04   -0.36081E-04  8424   0.910E-04-0.686E-04
CGA: 196    -0.669805358914E+03   -0.13178E-03    0.74571E-05  8424   0.193E-03-0.533E-04
CGA: 197    -0.669805394731E+03   -0.35818E-04   -0.27558E-04  8424   0.750E-04-0.384E-04
CGA: 198    -0.669805514301E+03   -0.11957E-03    0.58569E-05  8424   0.153E-03-0.379E-04
CGA: 199    -0.669805569063E+03   -0.54762E-04   -0.41258E-04  8424   0.370E-03-0.162E-03
CGA: 200    -0.669805634839E+03   -0.65776E-04   -0.41999E-04  8424   0.737E-04-0.988E-04
   1 F= -.66980563E+03 E0= -.66980179E+03  d E =-.669806E+03  mag=    21.0000
       N       E                     dE             d eps       ncg     rms          ort
SDA:   1    -0.669817139368E+03   -0.11570E-01    0.00000E+00  8424   0.321E-01 0.000E+00
CGA:   2    -0.669821893649E+03   -0.47543E-02   -0.48783E-02  8424   0.177E-01 0.244E-04
CGA:   3    -0.669825050094E+03   -0.31564E-02   -0.31299E-02  8424   0.369E-02-0.140E-03
CGA:   4    -0.669825823236E+03   -0.77314E-03   -0.78067E-03  8424   0.817E-03 0.693E-04
CGA:   5    -0.669826030481E+03   -0.20724E-03   -0.19172E-03  8424   0.368E-03-0.183E-03
CGA:   6    -0.669825915474E+03    0.11501E-03   -0.18556E-03  8424   0.361E-02-0.891E-03
CGA:   7    -0.669826308833E+03   -0.39336E-03   -0.40308E-03  8424   0.298E-03 0.421E-04
CGA:   8    -0.669826414931E+03   -0.10610E-03   -0.11507E-03  8424   0.298E-03-0.139E-03
CGA:   9    -0.669822705902E+03    0.37090E-02   -0.20540E-02  8424   0.354E-01-0.230E-02
CGA:  10    -0.669826247165E+03   -0.35413E-02   -0.30176E-02  8424   0.344E-02 0.433E-02
CGA:  11    -0.669827220047E+03   -0.97288E-03   -0.89550E-03  8424   0.211E-02-0.236E-03
CGA:  12    -0.669827559692E+03   -0.33965E-03   -0.28627E-03  8424   0.941E-03-0.150E-03
CGA:  13    -0.669827811300E+03   -0.25161E-03   -0.18225E-03  8424   0.295E-03-0.221E-03
CGA:  14    -0.669827913690E+03   -0.10239E-03   -0.80804E-04  8424   0.523E-03-0.145E-03
CGA:  15    -0.669827984906E+03   -0.71216E-04   -0.31089E-04  8424   0.215E-03-0.107E-03
CGA:  16    -0.669828060113E+03   -0.75207E-04   -0.85515E-04  8424   0.295E-02-0.525E-03
CGA:  17    -0.669828361951E+03   -0.30184E-03   -0.25168E-03  8424   0.125E-03-0.201E-04
CGA:  18    -0.669828496303E+03   -0.13435E-03    0.17309E-03  8424   0.209E-03-0.802E-04
CGA:  19    -0.669828587221E+03   -0.90918E-04   -0.56033E-04  8424   0.321E-03-0.180E-03
CGA:  20    -0.669828623772E+03   -0.36551E-04   -0.33606E-04  8424   0.367E-04-0.971E-05
CGA:  21    -0.669828724695E+03   -0.10092E-03    0.34280E-05  8424   0.203E-03-0.358E-04
CGA:  22    -0.669828771635E+03   -0.46940E-04   -0.27604E-04  8424   0.716E-04-0.656E-04
CGA:  23    -0.669828913920E+03   -0.14229E-03    0.40890E-05  8424   0.259E-03-0.461E-04
CGA:  24    -0.669828942873E+03   -0.28952E-04   -0.25376E-04  8424   0.315E-04-0.129E-04
CGA:  25    -0.669829042986E+03   -0.10011E-03    0.19215E-05  8424   0.987E-04-0.114E-04
CGA:  26    -0.669829469152E+03   -0.42617E-03    0.17192E-05  8424   0.200E-03 0.431E-04
CGA:  27    -0.669830464703E+03   -0.99555E-03    0.17626E-04  8424   0.673E-03-0.531E-04
CGA:  28    -0.669833814670E+03   -0.33500E-02    0.13527E-04  8424   0.305E-02-0.398E-03
CGA:  29    -0.669834205067E+03   -0.39040E-03   -0.41408E-03  8424   0.675E-04 0.898E-04
CGA:  30    -0.669834274644E+03   -0.69577E-04    0.48186E-04  8424   0.189E-03-0.870E-04
CGA:  31    -0.669834329488E+03   -0.54844E-04   -0.39851E-04  8424   0.928E-04-0.838E-04
CGA:  32    -0.669834449266E+03   -0.11978E-03    0.48151E-05  8424   0.291E-03-0.655E-04
CGA:  33    -0.669834480900E+03   -0.31634E-04   -0.28632E-04  8424   0.314E-04-0.134E-04
CGA:  34    -0.669834562218E+03   -0.81318E-04    0.20379E-05  8424   0.566E-04-0.147E-04
CGA:  35    -0.669834780640E+03   -0.21842E-03    0.62381E-06  8424   0.888E-04 0.166E-04
CGA:  36    -0.669835239353E+03   -0.45871E-03    0.47682E-05  8424   0.436E-04 0.386E-04
CGA:  37    -0.669835531104E+03   -0.29175E-03    0.21507E-05  8424   0.191E-03-0.118E-04
CGA:  38    -0.669836813490E+03   -0.12824E-02    0.22335E-05  8424   0.121E-02-0.408E-04
CGA:  39    -0.669845385185E+03   -0.85717E-02    0.15463E-04  8424   0.493E-02-0.158E-02
CGA:  40    -0.669846358690E+03   -0.97351E-03   -0.94687E-03  8424   0.280E-03-0.153E-03
CGA:  41    -0.669846436458E+03   -0.77767E-04   -0.60253E-04  8424   0.286E-03-0.127E-03
CGA:  42    -0.669846487132E+03   -0.50674E-04   -0.39827E-04  8424   0.175E-03-0.113E-03
CGA:  43    -0.669844728427E+03    0.17587E-02   -0.95847E-03  8424   0.172E-01-0.105E-02
CGA:  44    -0.669846793564E+03   -0.20651E-02   -0.19333E-02  8424   0.833E-03 0.336E-03
CGA:  45    -0.669846933097E+03   -0.13953E-03   -0.13559E-03  8424   0.317E-03-0.154E-04
CGA:  46    -0.669847032952E+03   -0.99856E-04   -0.80814E-04  8424   0.184E-03-0.589E-04
CGA:  47    -0.669847084138E+03   -0.51186E-04   -0.42986E-04  8424   0.940E-04-0.292E-04
CGA:  48    -0.669847172367E+03   -0.88229E-04    0.35186E-02  8424   0.277E-03-0.891E-04
CGA:  49    -0.669847202897E+03   -0.30530E-04   -0.33347E-04  8424   0.574E-04 0.411E-05
CGA:  50    -0.669847012753E+03    0.19014E-03   -0.79961E-04  8424   0.268E-02-0.323E-03
CGA:  51    -0.669847310819E+03   -0.29807E-03   -0.31159E-03  8424   0.428E-03-0.908E-05
CGA:  52    -0.669847415180E+03   -0.10436E-03   -0.82364E-04  8424   0.877E-04-0.604E-04
CGA:  53    -0.669847435314E+03   -0.20134E-04   -0.16298E-04  8424   0.273E-04-0.123E-04
CGA:  54    -0.669847497773E+03   -0.62459E-04    0.38488E-05  8424   0.111E-03-0.232E-04
CGA:  55    -0.669847512311E+03   -0.14538E-04   -0.11639E-04  8424   0.142E-04-0.784E-05
CGA:  56    -0.669847570313E+03   -0.58002E-04    0.95396E-06  8424   0.420E-04-0.941E-05
CGA:  57    -0.669847579373E+03   -0.90603E-05   -0.65101E-05  8424   0.177E-04-0.769E-05
   2 F= -.66984758E+03 E0= -.66984372E+03  d E =-.419445E-01  mag=    21.0000
       N       E                     dE             d eps       ncg     rms          ort
SDA:   1    -0.655231634969E+03    0.14616E+02    0.00000E+00  8424   0.416E+02 0.000E+00
CGA:   2    -0.666330707255E+03   -0.11099E+02   -0.11132E+02  8424   0.178E+02 0.913E-01
CGA:   3    -0.668899892660E+03   -0.25692E+01   -0.29570E+01  8424   0.100E+02-0.270E+01
CGA:   4    -0.669995962100E+03   -0.10961E+01   -0.10283E+01  8424   0.185E+01 0.287E+00
CGA:   5    -0.670321355737E+03   -0.32539E+00   -0.32521E+00  8424   0.477E+00 0.973E-03
CGA:   6    -0.670383002141E+03   -0.61646E-01   -0.62643E-01  8424   0.254E+00-0.175E-01
CGA:   7    -0.670413951963E+03   -0.30950E-01   -0.31411E-01  8424   0.697E-01-0.206E-02
CGA:   8    -0.670429641590E+03   -0.15690E-01   -0.15667E-01  8424   0.316E-01-0.299E-03
CGA:   9    -0.670435837260E+03   -0.61957E-02   -0.61786E-02  8424   0.300E-01-0.488E-03
CGA:  10    -0.670439445270E+03   -0.36080E-02   -0.37887E-02  8424   0.103E-01 0.783E-03
CGA:  11    -0.670442894929E+03   -0.34497E-02   -0.34603E-02  8424   0.909E-02 0.212E-03
CGA:  12    -0.670445463258E+03   -0.25683E-02   -0.24944E-02  8424   0.178E-01-0.128E-02
CGA:  13    -0.670448510911E+03   -0.30477E-02   -0.27404E-02  8424   0.138E-01-0.103E-02
CGA:  14    -0.670453242769E+03   -0.47319E-02   -0.48556E-02  8424   0.454E-01-0.431E-02
CGA:  15    -0.670456408141E+03   -0.31654E-02   -0.20509E-02  8424   0.477E-01 0.566E-02
CGA:  16    -0.670463244870E+03   -0.68367E-02   -0.69710E-02  8424   0.353E-01-0.619E-02
CGA:  17    -0.670469776418E+03   -0.65315E-02   -0.64560E-02  8424   0.357E-01-0.488E-02
CGA:  18    -0.670477213760E+03   -0.74373E-02   -0.67423E-02  8424   0.274E-01-0.613E-02
CGA:  19    -0.670483362124E+03   -0.61484E-02   -0.57985E-02  8424   0.307E-01-0.636E-02
CGA:  20    -0.670489065448E+03   -0.57033E-02   -0.51754E-02  8424   0.221E-01-0.755E-02
CGA:  21    -0.670492882362E+03   -0.38169E-02   -0.33289E-02  8424   0.167E-01-0.529E-02
CGA:  22    -0.670495872645E+03   -0.29903E-02   -0.27120E-02  8424   0.128E-01-0.351E-02
CGA:  23    -0.670497870219E+03   -0.19976E-02   -0.18399E-02  8424   0.923E-02-0.158E-02
CGA:  24    -0.670499591751E+03   -0.17215E-02   -0.16887E-02  8424   0.802E-02-0.567E-03
CGA:  25    -0.670501058821E+03   -0.14671E-02   -0.15065E-02  8424   0.625E-02 0.335E-03
CGA:  26    -0.670502129340E+03   -0.10705E-02   -0.11917E-02  8424   0.495E-02 0.121E-02
CGA:  27    -0.670502997290E+03   -0.86795E-03   -0.10485E-02  8424   0.402E-02 0.180E-02
CGA:  28    -0.670503719449E+03   -0.72216E-03   -0.92906E-03  8424   0.304E-02 0.200E-02
CGA:  29    -0.670504283382E+03   -0.56393E-03   -0.76207E-03  8424   0.258E-02 0.200E-02
CGA:  30    -0.670505176419E+03   -0.89304E-03   -0.83386E-03  8424   0.172E-02 0.968E-03
CGA:  31    -0.670505918045E+03   -0.74163E-03   -0.70315E-03  8424   0.957E-03 0.124E-02
CGA:  32    -0.670506153518E+03   -0.23547E-03   -0.24405E-03  8424   0.742E-03 0.681E-03
CGA:  33    -0.670506398311E+03   -0.24479E-03   -0.22508E-03  8424   0.756E-03 0.538E-03
CGA:  34    -0.670506480506E+03   -0.82195E-04   -0.13028E-03  8424   0.608E-03 0.497E-03
CGA:  35    -0.670506659631E+03   -0.17913E-03   -0.17094E-03  8424   0.613E-03 0.473E-03
CGA:  36    -0.670506723793E+03   -0.64162E-04   -0.10558E-03  8424   0.520E-03 0.446E-03
CGA:  37    -0.670506864197E+03   -0.14040E-03   -0.13816E-03  8424   0.516E-03 0.426E-03
CGA:  38    -0.670506917621E+03   -0.53424E-04   -0.89031E-04  8424   0.455E-03 0.404E-03
CGA:  39    -0.670507030795E+03   -0.11317E-03   -0.11469E-03  8424   0.445E-03 0.387E-03
CGA:  40    -0.670507076882E+03   -0.46087E-04   -0.76853E-04  8424   0.403E-03 0.368E-03
CGA:  41    -0.670507169755E+03   -0.92873E-04   -0.96848E-04  8424   0.390E-03 0.354E-03
CGA:  42    -0.670507210745E+03   -0.40990E-04   -0.67499E-04  8424   0.360E-03 0.338E-03
CGA:  43    -0.670507287753E+03   -0.77008E-04   -0.82695E-04  8424   0.346E-03 0.326E-03
CGA:  44    -0.670507325164E+03   -0.37411E-04   -0.60124E-04  8424   0.324E-03 0.312E-03
CGA:  45    -0.670507389364E+03   -0.64200E-04   -0.71162E-04  8424   0.310E-03 0.301E-03
CGA:  46    -0.670507424194E+03   -0.34830E-04   -0.54185E-04  8424   0.294E-03 0.289E-03
CGA:  47    -0.670507477861E+03   -0.53667E-04   -0.61620E-04  8424   0.281E-03 0.279E-03
CGA:  48    -0.670507510691E+03   -0.32830E-04   -0.49289E-04  8424   0.268E-03 0.268E-03
CGA:  49    -0.670507555662E+03   -0.44971E-04   -0.53682E-04  8424   0.257E-03 0.259E-03
CGA:  50    -0.670507586727E+03   -0.31066E-04   -0.45122E-04  8424   0.247E-03 0.249E-03
CGA:  51    -0.670507624644E+03   -0.37917E-04   -0.47121E-04  8424   0.237E-03 0.240E-03
CGA:  52    -0.670507653918E+03   -0.29274E-04   -0.41440E-04  8424   0.228E-03 0.232E-03
CGA:  53    -0.670507686336E+03   -0.32418E-04   -0.41783E-04  8424   0.220E-03 0.223E-03
CGA:  54    -0.670507713670E+03   -0.27333E-04   -0.38075E-04  8424   0.213E-03 0.216E-03
CGA:  55    -0.670507741991E+03   -0.28321E-04   -0.37496E-04  8424   0.205E-03 0.209E-03
CGA:  56    -0.670507767340E+03   -0.25349E-04   -0.34993E-04  8424   0.199E-03 0.202E-03
CGA:  57    -0.670507792629E+03   -0.25289E-04   -0.34017E-04  8424   0.193E-03 0.195E-03
CGA:  58    -0.670507816108E+03   -0.23479E-04   -0.32219E-04  8424   0.187E-03 0.189E-03
CGA:  59    -0.670507839065E+03   -0.22957E-04   -0.31124E-04  8424   0.181E-03 0.184E-03
CGA:  60    -0.670507860889E+03   -0.21824E-04   -0.29772E-04  8424   0.176E-03 0.178E-03
CGA:  61    -0.670507881983E+03   -0.21094E-04   -0.28670E-04  8424   0.171E-03 0.173E-03
CGA:  62    -0.670507902382E+03   -0.20399E-04   -0.27626E-04  8424   0.166E-03 0.168E-03
CGA:  63    -0.670507921950E+03   -0.19567E-04   -0.26555E-04  8424   0.162E-03 0.164E-03
CGA:  64    -0.670507941146E+03   -0.19196E-04   -0.25749E-04  8424   0.158E-03 0.159E-03
CGA:  65    -0.670507959435E+03   -0.18289E-04   -0.24711E-04  8424   0.153E-03 0.155E-03
CGA:  66    -0.670507977632E+03   -0.18197E-04   -0.24112E-04  8424   0.150E-03 0.151E-03
CGA:  67    -0.670507994855E+03   -0.17223E-04   -0.23103E-04  8424   0.146E-03 0.148E-03
CGA:  68    -0.670508012232E+03   -0.17377E-04   -0.22685E-04  8424   0.142E-03 0.144E-03
CGA:  69    -0.670508028568E+03   -0.16336E-04   -0.21697E-04  8424   0.139E-03 0.141E-03
CGA:  70    -0.670508045274E+03   -0.16706E-04   -0.21439E-04  8424   0.136E-03 0.137E-03
CGA:  71    -0.670508060880E+03   -0.15606E-04   -0.20470E-04  8424   0.133E-03 0.134E-03
CGA:  72    -0.670508077043E+03   -0.16163E-04   -0.20350E-04  8424   0.130E-03 0.131E-03
CGA:  73    -0.670508092056E+03   -0.15012E-04   -0.19399E-04  8424   0.127E-03 0.128E-03
CGA:  74    -0.670508107786E+03   -0.15730E-04   -0.19400E-04  8424   0.125E-03 0.126E-03
CGA:  75    -0.670508122329E+03   -0.14543E-04   -0.18469E-04  8424   0.122E-03 0.123E-03
CGA:  76    -0.670508137730E+03   -0.15401E-04   -0.18576E-04  8424   0.120E-03 0.121E-03
CGA:  77    -0.670508151912E+03   -0.14182E-04   -0.17664E-04  8424   0.117E-03 0.118E-03
CGA:  78    -0.670508167089E+03   -0.15177E-04   -0.17872E-04  8424   0.115E-03 0.116E-03
CGA:  79    -0.670508181012E+03   -0.13924E-04   -0.16975E-04  8424   0.113E-03 0.114E-03
CGA:  80    -0.670508196073E+03   -0.15061E-04   -0.17282E-04  8424   0.111E-03 0.111E-03
CGA:  81    -0.670508209835E+03   -0.13762E-04   -0.16391E-04  8424   0.109E-03 0.109E-03
CGA:  82    -0.670508224894E+03   -0.15060E-04   -0.16806E-04  8424   0.107E-03 0.107E-03
CGA:  83    -0.670508238582E+03   -0.13688E-04   -0.15906E-04  8424   0.105E-03 0.105E-03
CGA:  84    -0.670508253764E+03   -0.15182E-04   -0.16444E-04  8424   0.103E-03 0.104E-03
CGA:  85    -0.670508267465E+03   -0.13700E-04   -0.15513E-04  8424   0.101E-03 0.102E-03
CGA:  86    -0.670508282902E+03   -0.15438E-04   -0.16195E-04  8424   0.994E-04 0.100E-03
CGA:  87    -0.670508296702E+03   -0.13800E-04   -0.15210E-04  8424   0.978E-04 0.983E-04
CGA:  88    -0.670508312544E+03   -0.15842E-04   -0.16066E-04  8424   0.962E-04 0.967E-04
CGA:  89    -0.670508326537E+03   -0.13993E-04   -0.14998E-04  8424   0.947E-04 0.951E-04
CGA:  90    -0.670508342957E+03   -0.16420E-04   -0.16068E-04  8424   0.932E-04 0.935E-04
CGA:  91    -0.670508357250E+03   -0.14293E-04   -0.14883E-04  8424   0.918E-04 0.920E-04
CGA:  92    -0.670508374455E+03   -0.17205E-04   -0.16216E-04  8424   0.904E-04 0.905E-04
CGA:  93    -0.670508389171E+03   -0.14716E-04   -0.14875E-04  8424   0.891E-04 0.891E-04
CGA:  94    -0.670508407409E+03   -0.18237E-04   -0.16534E-04  8424   0.878E-04 0.876E-04
CGA:  95    -0.670508422692E+03   -0.15283E-04   -0.14988E-04  8424   0.866E-04 0.862E-04
CGA:  96    -0.670508442247E+03   -0.19555E-04   -0.17050E-04  8424   0.856E-04 0.847E-04
CGA:  97    -0.670508458275E+03   -0.16028E-04   -0.15253E-04  8424   0.845E-04 0.832E-04
CGA:  98    -0.670508479406E+03   -0.21131E-04   -0.17778E-04  8424   0.841E-04 0.816E-04
CGA:  99    -0.670508496369E+03   -0.16963E-04   -0.15723E-04  8424   0.833E-04 0.797E-04
CGA: 100    -0.670508518957E+03   -0.22588E-04   -0.18616E-04  8424   0.846E-04 0.774E-04
CGA: 101    -0.670508537010E+03   -0.18053E-04   -0.16520E-04  8424   0.848E-04 0.743E-04
CGA: 102    -0.670508559417E+03   -0.22407E-04   -0.18997E-04  8424   0.894E-04 0.702E-04
CGA: 103    -0.670508578915E+03   -0.19498E-04   -0.18000E-04  8424   0.920E-04 0.643E-04
CGA: 104    -0.670508598073E+03   -0.19158E-04   -0.18104E-04  8424   0.937E-04 0.604E-04
CGA: 105    -0.670508620871E+03   -0.22797E-04   -0.20669E-04  8424   0.106E-03 0.526E-04
CGA: 106    -0.670508636521E+03   -0.15650E-04   -0.16894E-04  8424   0.887E-04 0.544E-04
CGA: 107    -0.670508666339E+03   -0.29818E-04   -0.25041E-04  8424   0.127E-03 0.469E-04
CGA: 108    -0.670508679848E+03   -0.13509E-04   -0.16560E-04  8424   0.805E-04 0.542E-04
CGA: 109    -0.670508718727E+03   -0.38879E-04   -0.30426E-04  8424   0.138E-03 0.103E-03
CGA: 110    -0.670508745990E+03   -0.27263E-04   -0.27241E-04  8424   0.146E-03 0.197E-05
CGA: 111    -0.670508818087E+03   -0.72097E-04   -0.50107E-04  8424   0.143E-03 0.146E-03
CGA: 112    -0.670508838454E+03   -0.20367E-04   -0.21664E-04  8424   0.927E-04 0.295E-04
CGA: 113    -0.670508957347E+03   -0.11889E-03   -0.71497E-04  8424   0.165E-03 0.105E-03
CGA: 114    -0.670508976903E+03   -0.19557E-04   -0.22287E-04  8424   0.813E-04 0.337E-04
CGA: 115    -0.670509047104E+03   -0.70200E-04   -0.46801E-04  8424   0.160E-03 0.871E-04
CGA: 116    -0.670509086164E+03   -0.39061E-04   -0.41966E-04  8424   0.305E-03-0.796E-04
CGA: 117    -0.670509323995E+03   -0.23783E-03   -0.10326E-04  8424   0.346E-02-0.261E-04
CGA: 118    -0.670510892266E+03   -0.15683E-02   -0.15626E-02  8424   0.622E-02-0.155E-03
CGA: 119    -0.670514040939E+03   -0.31487E-02   -0.61711E-02  8424   0.411E-01-0.736E-02
CGA: 120    -0.670519005114E+03   -0.49642E-02   -0.49273E-02  8424   0.374E-02-0.217E-03
CGA: 121    -0.670519668490E+03   -0.66338E-03   -0.78058E-03  8424   0.131E-02 0.522E-03
CGA: 122    -0.670520315125E+03   -0.64664E-03   -0.63984E-03  8424   0.137E-02 0.784E-03
CGA: 123    -0.670520776149E+03   -0.46102E-03   -0.44835E-03  8424   0.188E-02-0.140E-03
CGA: 124    -0.670521890597E+03   -0.11144E-02   -0.12191E-02  8424   0.492E-02-0.390E-03
CGA: 125    -0.670524940586E+03   -0.30500E-02   -0.36775E-02  8424   0.642E-02-0.167E-02
CGA: 126    -0.670526592175E+03   -0.16516E-02   -0.14619E-02  8424   0.501E-02-0.190E-02
CGA: 127    -0.670528182151E+03   -0.15900E-02   -0.15794E-02  8424   0.659E-02-0.281E-02
CGA: 128    -0.670529821342E+03   -0.16392E-02   -0.15464E-02  8424   0.435E-02-0.430E-03
CGA: 129    -0.670531800324E+03   -0.19790E-02   -0.28172E-02  8424   0.122E-01-0.334E-02
CGA: 130    -0.670533587168E+03   -0.17868E-02   -0.19852E-02  8424   0.281E-02 0.722E-03
CGA: 131    -0.670534259789E+03   -0.67262E-03   -0.71348E-03  8424   0.657E-03 0.202E-03
CGA: 132    -0.670534577189E+03   -0.31740E-03   -0.31369E-03  8424   0.690E-03 0.219E-03
CGA: 133    -0.670535205299E+03   -0.62811E-03   -0.57781E-03  8424   0.151E-02 0.241E-03
CGA: 134    -0.670536542518E+03   -0.13372E-02   -0.13792E-02  8424   0.246E-02-0.258E-03
CGA: 135    -0.670536961850E+03   -0.41933E-03   -0.45135E-03  8424   0.109E-02 0.859E-04
CGA: 136    -0.670537192880E+03   -0.23103E-03   -0.28355E-03  8424   0.102E-02 0.257E-03
CGA: 137    -0.670537487871E+03   -0.29499E-03   -0.35852E-03  8424   0.102E-02 0.403E-03
CGA: 138    -0.670537799965E+03   -0.31209E-03   -0.40890E-03  8424   0.113E-02 0.693E-03
CGA: 139    -0.670538065918E+03   -0.26595E-03   -0.29845E-03  8424   0.679E-03 0.211E-03
CGA: 140    -0.670538354215E+03   -0.28830E-03   -0.29556E-03  8424   0.458E-03 0.169E-03
CGA: 141    -0.670538687115E+03   -0.33290E-03   -0.29760E-03  8424   0.415E-03 0.305E-03
CGA: 142    -0.670538872993E+03   -0.18588E-03   -0.20989E-03  8424   0.121E-02-0.259E-03
CGA: 143    -0.670539013546E+03   -0.14055E-03   -0.15556E-03  8424   0.142E-03 0.538E-04
CGA: 144    -0.670539164464E+03   -0.15092E-03    0.11359E-03  8424   0.178E-03 0.946E-04
CGA: 145    -0.670539248086E+03   -0.83623E-04   -0.10029E-03  8424   0.743E-03-0.103E-03
CGA: 146    -0.670539383227E+03   -0.13514E-03   -0.12177E-03  8424   0.145E-03-0.542E-04
CGA: 147    -0.670539519759E+03   -0.13653E-03    0.97952E-04  8424   0.124E-03 0.920E-04
CGA: 148    -0.670538960277E+03    0.55948E-03   -0.30690E-03  8424   0.683E-02-0.407E-03
CGA: 149    -0.670540211994E+03   -0.12517E-02   -0.11728E-02  8424   0.403E-03-0.155E-03
CGA: 150    -0.670540255424E+03   -0.43430E-04   -0.58631E-04  8424   0.785E-04 0.283E-04
CGA: 151    -0.670540408557E+03   -0.15313E-03    0.78824E-04  8424   0.167E-03 0.474E-04
CGA: 152    -0.670540495379E+03   -0.86821E-04   -0.59795E-04  8424   0.313E-03-0.866E-04
CGA: 153    -0.670540528289E+03   -0.32910E-04   -0.44188E-04  8424   0.683E-04 0.223E-04
CGA: 154    -0.670540671922E+03   -0.14363E-03    0.41340E-04  8424   0.150E-03 0.459E-04
CGA: 155    -0.670540726919E+03   -0.54997E-04   -0.42079E-04  8424   0.150E-03-0.371E-04
CGA: 156    -0.670540932720E+03   -0.20580E-03    0.71728E-04  8424   0.161E-03 0.818E-04
CGA: 157    -0.670541012638E+03   -0.79918E-04   -0.61410E-04  8424   0.212E-03-0.806E-04
CGA: 158    -0.670541052035E+03   -0.39397E-04   -0.41320E-04  8424   0.648E-04 0.465E-05
CGA: 159    -0.670541168940E+03   -0.11690E-03    0.36985E-04  8424   0.116E-03 0.328E-04
CGA: 160    -0.670541217800E+03   -0.48860E-04   -0.40726E-04  8424   0.145E-03-0.356E-04
CGA: 161    -0.670541398036E+03   -0.18024E-03    0.49766E-04  8424   0.324E-03 0.971E-05
CGA: 162    -0.670541881575E+03   -0.48354E-03    0.43110E-03  8424   0.209E-03 0.138E-03
CGA: 163    -0.670540673631E+03    0.12079E-02   -0.59224E-03  8424   0.171E-01-0.129E-02
CGA: 164    -0.670543060618E+03   -0.23870E-02   -0.23763E-02  8424   0.651E-03-0.963E-04
CGA: 165    -0.670543115911E+03   -0.55292E-04   -0.97519E-04  8424   0.628E-04 0.917E-04
CGA: 166    -0.670543143671E+03   -0.27760E-04   -0.22688E-04  8424   0.327E-04-0.186E-04
CGA: 167    -0.670543198198E+03   -0.54527E-04    0.63410E-05  8424   0.103E-03-0.125E-04
CGA: 168    -0.670543342910E+03   -0.14471E-03    0.18970E-04  8424   0.179E-03 0.160E-04
CGA: 169    -0.670537731323E+03    0.56116E-02   -0.30629E-02  8424   0.460E-01-0.210E-02
CGA: 170    -0.670544712739E+03   -0.69814E-02   -0.67190E-02  8424   0.190E-02-0.293E-03
CGA: 171    -0.670545097572E+03   -0.38483E-03   -0.41005E-03  8424   0.485E-03 0.176E-04
CGA: 172    -0.670545229300E+03   -0.13173E-03   -0.13461E-03  8424   0.313E-03-0.534E-04
CGA: 173    -0.670545274983E+03   -0.45683E-04   -0.10580E-03  8424   0.418E-03 0.830E-04
CGA: 174    -0.670544765769E+03    0.50921E-03   -0.10165E-03  8424   0.166E-02 0.423E-03
CGA: 175    -0.670544545551E+03    0.22022E-03   -0.56913E-03  8424   0.262E-02 0.806E-03
CGA: 176    -0.670541164369E+03    0.33812E-02   -0.78685E-03  8424   0.599E-02 0.359E-02
CGA: 177    -0.670541275016E+03   -0.11065E-03   -0.18994E-02  8424   0.812E-02 0.449E-02
CGA: 178    -0.670543632776E+03   -0.23578E-02   -0.34950E-02  8424   0.375E-02 0.109E-02
CGA: 179    -0.670541261893E+03    0.23709E-02   -0.78041E-03  8424   0.712E-02 0.299E-02
CGA: 180    -0.670541271926E+03   -0.10033E-04   -0.22445E-02  8424   0.758E-02 0.389E-02
CGA: 181    -0.670542906217E+03   -0.16343E-02   -0.28184E-02  8424   0.571E-02 0.233E-02
CGA: 182    -0.670542893667E+03    0.12550E-04   -0.19176E-02  8424   0.462E-02 0.324E-02
CGA: 183    -0.670543918186E+03   -0.10245E-02   -0.13997E-02  8424   0.459E-02 0.797E-03
CGA: 184    -0.670544437993E+03   -0.51981E-03   -0.15343E-02  8424   0.163E-02 0.160E-02
CGA: 185    -0.670545315254E+03   -0.87726E-03   -0.91326E-03  8424   0.328E-03-0.130E-03
CGA: 186    -0.670545400253E+03   -0.84999E-04   -0.87272E-04  8424   0.253E-03 0.590E-04
CGA: 187    -0.670545453206E+03   -0.52954E-04   -0.57105E-04  8424   0.965E-04 0.107E-03
CGA: 188    -0.670545472646E+03   -0.19440E-04   -0.32427E-04  8424   0.630E-04 0.495E-04
CGA: 189    -0.670545506314E+03   -0.33667E-04   -0.28130E-04  8424   0.203E-03-0.400E-04
CGA: 190    -0.670545511404E+03   -0.50898E-05   -0.19756E-04  8424   0.179E-04 0.317E-04
   3 F= -.67054551E+03 E0= -.67054551E+03  d E =-.697932E+00  mag=    21.0000
       N       E                     dE             d eps       ncg     rms          ort
SDA:   1    -0.642840379132E+03    0.27705E+02    0.00000E+00  8424   0.739E+02 0.000E+00
CGA:   2    -0.664482349775E+03   -0.21642E+02   -0.21703E+02  8424   0.244E+02 0.116E+00
CGA:   3    -0.669158859529E+03   -0.46765E+01   -0.47285E+01  8424   0.752E+01-0.295E-01
CGA:   4    -0.670546029122E+03   -0.13872E+01   -0.13968E+01  8424   0.149E+01-0.191E-01
CGA:   5    -0.670798828160E+03   -0.25280E+00   -0.25161E+00  8424   0.395E+00 0.647E-03
CGA:   6    -0.670880021151E+03   -0.81193E-01   -0.81065E-01  8424   0.119E+00-0.161E-03
CGA:   7    -0.670909429301E+03   -0.29408E-01   -0.29464E-01  8424   0.525E-01 0.145E-02
CGA:   8    -0.670922387951E+03   -0.12959E-01   -0.13286E-01  8424   0.233E-01 0.152E-02
CGA:   9    -0.670927558512E+03   -0.51706E-02   -0.54242E-02  8424   0.106E-01 0.635E-03
CGA:  10    -0.670930388699E+03   -0.28302E-02   -0.28620E-02  8424   0.433E-02-0.208E-04
CGA:  11    -0.670931614470E+03   -0.12258E-02   -0.11564E-02  8424   0.205E-02-0.398E-03
CGA:  12    -0.670932353124E+03   -0.73865E-03   -0.73139E-03  8424   0.152E-02-0.504E-03
CGA:  13    -0.670932834214E+03   -0.48109E-03   -0.48421E-03  8424   0.140E-02-0.231E-03
CGA:  14    -0.670933440201E+03   -0.60599E-03   -0.91771E-03  8424   0.280E-02-0.101E-02
CGA:  15    -0.670934224996E+03   -0.78480E-03   -0.78400E-03  8424   0.864E-03-0.701E-05
CGA:  16    -0.670934473049E+03   -0.24805E-03   -0.25131E-03  8424   0.456E-03 0.264E-04
CGA:  17    -0.670934643444E+03   -0.17040E-03   -0.17151E-03  8424   0.276E-03 0.236E-04
CGA:  18    -0.670934691956E+03   -0.48512E-04   -0.70572E-04  8424   0.135E-03 0.132E-03
CGA:  19    -0.670934768545E+03   -0.76589E-04   -0.77419E-04  8424   0.152E-03 0.642E-04
CGA:  20    -0.670934906137E+03   -0.13759E-03   -0.13694E-03  8424   0.451E-03-0.299E-05
CGA:  21    -0.670934987209E+03   -0.81071E-04   -0.10252E-03  8424   0.491E-03 0.997E-04
CGA:  22    -0.670935072965E+03   -0.85756E-04   -0.11699E-03  8424   0.524E-03 0.125E-03
CGA:  23    -0.670935300014E+03   -0.22705E-03   -0.23082E-03  8424   0.738E-03 0.308E-04
CGA:  24    -0.670935503943E+03   -0.20393E-03   -0.18638E-03  8424   0.747E-03-0.191E-03
CGA:  25    -0.670935644021E+03   -0.14008E-03   -0.13927E-03  8424   0.851E-03-0.813E-04
CGA:  26    -0.670935734055E+03   -0.90034E-04   -0.11256E-03  8424   0.506E-03 0.442E-04
CGA:  27    -0.670935809075E+03   -0.75020E-04   -0.95594E-04  8424   0.426E-03 0.875E-04
CGA:  28    -0.670935889571E+03   -0.80496E-04   -0.88620E-04  8424   0.195E-03 0.307E-04
CGA:  29    -0.670935915103E+03   -0.25532E-04   -0.33892E-04  8424   0.144E-03 0.416E-04
CGA:  30    -0.670935916336E+03   -0.12339E-05   -0.21261E-04  8424   0.110E-03 0.908E-04
CGA:  31    -0.670935917021E+03   -0.68459E-06   -0.14821E-04  8424   0.677E-04 0.738E-04
CGA:  32    -0.670935923119E+03   -0.60980E-05   -0.13166E-04  8424   0.521E-04 0.576E-04
   4 F= -.67093592E+03 E0= -.67093592E+03  d E =-.390412E+00  mag=    21.0000
       N       E                     dE             d eps       ncg     rms          ort
SDA:   1    -0.669928641012E+03    0.10073E+01    0.00000E+00  8424   0.314E+01 0.000E+00
CGA:   2    -0.670624060975E+03   -0.69542E+00   -0.69591E+00  8424   0.139E+01 0.393E-02
CGA:   3    -0.670907694680E+03   -0.28363E+00   -0.28345E+00  8424   0.394E+00-0.171E-02
CGA:   4    -0.670975252834E+03   -0.67558E-01   -0.67471E-01  8424   0.989E-01-0.793E-03
CGA:   5    -0.670991765476E+03   -0.16513E-01   -0.16516E-01  8424   0.202E-01-0.730E-06
CGA:   6    -0.670995864080E+03   -0.40986E-02   -0.41007E-02  8424   0.483E-02 0.216E-04
CGA:   7    -0.670996951442E+03   -0.10874E-02   -0.10956E-02  8424   0.154E-02 0.160E-03
CGA:   8    -0.670997336515E+03   -0.38507E-03   -0.38735E-03  8424   0.505E-03 0.713E-04
CGA:   9    -0.670997478365E+03   -0.14185E-03   -0.14212E-03  8424   0.192E-03 0.592E-04
CGA:  10    -0.670997518707E+03   -0.40342E-04   -0.45900E-04  8424   0.874E-04 0.939E-04
CGA:  11    -0.670997531352E+03   -0.12644E-04   -0.21133E-04  8424   0.511E-04 0.783E-04
CGA:  12    -0.670997536448E+03   -0.50963E-05   -0.87660E-05  8424   0.354E-04 0.392E-04
   5 F= -.67099754E+03 E0= -.67099754E+03  d E =-.616133E-01  mag=    21.0000
       N       E                     dE             d eps       ncg     rms          ort
SDA:   1    -0.669560670880E+03    0.14369E+01    0.00000E+00  8424   0.380E+01 0.000E+00
CGA:   2    -0.670609440456E+03   -0.10488E+01   -0.10486E+01  8424   0.172E+01 0.552E-02
CGA:   3    -0.670926715961E+03   -0.31728E+00   -0.31698E+00  8424   0.433E+00-0.405E-02
CGA:   4    -0.671003030774E+03   -0.76315E-01   -0.76135E-01  8424   0.108E+00-0.246E-02
CGA:   5    -0.671020811600E+03   -0.17781E-01   -0.17762E-01  8424   0.231E-01-0.256E-03
CGA:   6    -0.671025498146E+03   -0.46865E-02   -0.46980E-02  8424   0.578E-02 0.278E-03
CGA:   7    -0.671026874383E+03   -0.13762E-02   -0.13776E-02  8424   0.202E-02 0.192E-03
CGA:   8    -0.671027443497E+03   -0.56911E-03   -0.57024E-03  8424   0.850E-03-0.366E-04
CGA:   9    -0.671027689433E+03   -0.24594E-03   -0.24412E-03  8424   0.380E-03 0.366E-04
CGA:  10    -0.671027779276E+03   -0.89843E-04   -0.92032E-04  8424   0.169E-03 0.160E-03
CGA:  11    -0.671027812362E+03   -0.33086E-04   -0.42533E-04  8424   0.998E-04 0.139E-03
CGA:  12    -0.671027830087E+03   -0.17725E-04   -0.20453E-04  8424   0.698E-04 0.741E-04
CGA:  13    -0.671027840918E+03   -0.10832E-04   -0.13693E-04  8424   0.626E-04 0.652E-04
CGA:  14    -0.671027851627E+03   -0.10709E-04   -0.12754E-04  8424   0.587E-04 0.604E-04
CGA:  15    -0.671027861073E+03   -0.94453E-05   -0.11623E-04  8424   0.561E-04 0.573E-04
CGA:  16    -0.671027870639E+03   -0.95666E-05   -0.11339E-04  8424   0.542E-04 0.551E-04
CGA:  17    -0.671027879735E+03   -0.90959E-05   -0.10831E-04  8424   0.525E-04 0.533E-04
CGA:  18    -0.671027888768E+03   -0.90328E-05   -0.10573E-04  8424   0.512E-04 0.518E-04
CGA:  19    -0.671027897498E+03   -0.87299E-05   -0.10224E-04  8424   0.499E-04 0.505E-04
   6 F= -.67102790E+03 E0= -.67102790E+03  d E =-.303611E-01  mag=    21.0000
       N       E                     dE             d eps       ncg     rms          ort
SDA:   1    -0.670296272036E+03    0.73162E+00    0.00000E+00  8424   0.191E+01 0.000E+00
CGA:   2    -0.670835291203E+03   -0.53902E+00   -0.53885E+00  8424   0.819E+00 0.290E-02
CGA:   3    -0.670987578445E+03   -0.15229E+00   -0.15221E+00  8424   0.209E+00-0.193E-02
CGA:   4    -0.671024282782E+03   -0.36704E-01   -0.36606E-01  8424   0.519E-01-0.195E-02
CGA:   5    -0.671032970387E+03   -0.86876E-02   -0.86695E-02  8424   0.114E-01-0.337E-03
CGA:   6    -0.671035176927E+03   -0.22065E-02   -0.22152E-02  8424   0.279E-02 0.336E-03
CGA:   7    -0.671035844719E+03   -0.66779E-03   -0.66521E-03  8424   0.981E-03 0.224E-03
CGA:   8    -0.671036129492E+03   -0.28477E-03   -0.28080E-03  8424   0.454E-03 0.901E-04
CGA:   9    -0.671036264001E+03   -0.13451E-03   -0.12929E-03  8424   0.231E-03 0.140E-03
CGA:  10    -0.671036319119E+03   -0.55117E-04   -0.59858E-04  8424   0.150E-03 0.179E-03
CGA:  11    -0.671036340635E+03   -0.21516E-04   -0.26433E-04  8424   0.957E-04 0.104E-03
CGA:  12    -0.671036352286E+03   -0.11651E-04   -0.16269E-04  8424   0.856E-04 0.896E-04
CGA:  13    -0.671036362595E+03   -0.10309E-04   -0.14455E-04  8424   0.807E-04 0.830E-04
CGA:  14    -0.671036372318E+03   -0.97233E-05   -0.13560E-04  8424   0.777E-04 0.791E-04
CGA:  15    -0.671036381560E+03   -0.92421E-05   -0.12909E-04  8424   0.755E-04 0.766E-04
CGA:  16    -0.671036390460E+03   -0.88998E-05   -0.12420E-04  8424   0.738E-04 0.746E-04
CGA:  17    -0.671036399040E+03   -0.85798E-05   -0.11995E-04  8424   0.724E-04 0.730E-04
CGA:  18    -0.671036407327E+03   -0.82871E-05   -0.11615E-04  8424   0.711E-04 0.717E-04
CGA:  19    -0.671036415338E+03   -0.80105E-05   -0.11267E-04  8424   0.700E-04 0.705E-04
CGA:  20    -0.671036423088E+03   -0.77500E-05   -0.10944E-04  8424   0.690E-04 0.695E-04
CGA:  21    -0.671036430589E+03   -0.75013E-05   -0.10640E-04  8424   0.681E-04 0.685E-04
CGA:  22    -0.671036437854E+03   -0.72655E-05   -0.10353E-04  8424   0.672E-04 0.676E-04
CGA:  23    -0.671036444892E+03   -0.70372E-05   -0.10079E-04  8424   0.665E-04 0.668E-04
   7 F= -.67103644E+03 E0= -.67103644E+03  d E =-.854739E-02  mag=    21.0000
       N       E                     dE             d eps       ncg     rms          ort
SDA:   1    -0.669698237004E+03    0.13382E+01    0.00000E+00  8424   0.336E+01 0.000E+00
CGA:   2    -0.670635478490E+03   -0.93724E+00   -0.93693E+00  8424   0.164E+01 0.293E-02
CGA:   3    -0.670931400270E+03   -0.29592E+00   -0.29591E+00  8424   0.379E+00-0.124E-02
CGA:   4    -0.670996736644E+03   -0.65336E-01   -0.65284E-01  8424   0.914E-01-0.241E-02
CGA:   5    -0.671012109986E+03   -0.15373E-01   -0.15358E-01  8424   0.204E-01-0.645E-03
CGA:   6    -0.671016178928E+03   -0.40689E-02   -0.40643E-02  8424   0.505E-02 0.514E-03
CGA:   7    -0.671017327572E+03   -0.11486E-02   -0.11387E-02  8424   0.169E-02 0.366E-03
CGA:   8    -0.671017806937E+03   -0.47936E-03   -0.46433E-03  8424   0.731E-03 0.244E-03
CGA:   9    -0.671018032851E+03   -0.22591E-03   -0.21062E-03  8424   0.392E-03 0.277E-03
CGA:  10    -0.671018160196E+03   -0.12734E-03   -0.12048E-03  8424   0.268E-03 0.299E-03
CGA:  11    -0.671018218802E+03   -0.58607E-04   -0.56751E-04  8424   0.168E-03 0.169E-03
CGA:  12    -0.671018252563E+03   -0.33761E-04   -0.33845E-04  8424   0.150E-03 0.154E-03
CGA:  13    -0.671018284029E+03   -0.31465E-04   -0.30846E-04  8424   0.142E-03 0.145E-03
CGA:  14    -0.671018312393E+03   -0.28365E-04   -0.28493E-04  8424   0.137E-03 0.139E-03
CGA:  15    -0.671018338995E+03   -0.26602E-04   -0.27100E-04  8424   0.133E-03 0.135E-03
CGA:  16    -0.671018364326E+03   -0.25330E-04   -0.26066E-04  8424   0.130E-03 0.131E-03
CGA:  17    -0.671018388384E+03   -0.24059E-04   -0.25094E-04  8424   0.127E-03 0.128E-03
CGA:  18    -0.671018411437E+03   -0.23053E-04   -0.24293E-04  8424   0.125E-03 0.126E-03
CGA:  19    -0.671018433507E+03   -0.22069E-04   -0.23529E-04  8424   0.123E-03 0.124E-03
CGA:  20    -0.671018454718E+03   -0.21211E-04   -0.22847E-04  8424   0.121E-03 0.122E-03
CGA:  21    -0.671018475112E+03   -0.20395E-04   -0.22201E-04  8424   0.119E-03 0.120E-03
CGA:  22    -0.671018494763E+03   -0.19650E-04   -0.21603E-04  8424   0.117E-03 0.118E-03
CGA:  23    -0.671018513713E+03   -0.18950E-04   -0.21039E-04  8424   0.116E-03 0.116E-03
CGA:  24    -0.671018532023E+03   -0.18310E-04   -0.20515E-04  8424   0.114E-03 0.115E-03
CGA:  25    -0.671018549718E+03   -0.17695E-04   -0.20013E-04  8424   0.113E-03 0.113E-03
CGA:  26    -0.671018566852E+03   -0.17135E-04   -0.19544E-04  8424   0.112E-03 0.112E-03
CGA:  27    -0.671018583426E+03   -0.16573E-04   -0.19079E-04  8424   0.110E-03 0.111E-03
CGA:  28    -0.671018599507E+03   -0.16081E-04   -0.18653E-04  8424   0.109E-03 0.110E-03
CGA:  29    -0.671018615044E+03   -0.15537E-04   -0.18206E-04  8424   0.108E-03 0.108E-03
CGA:  30    -0.671018630072E+03   -0.15028E-04   -0.17788E-04  8424   0.108E-03 0.107E-03
CGA:  31    -0.671018644529E+03   -0.14458E-04   -0.17361E-04  8424   0.108E-03 0.105E-03
CGA:  32    -0.671018658029E+03   -0.13500E-04   -0.16774E-04  8424   0.109E-03 0.103E-03
CGA:  33    -0.671018671536E+03   -0.13507E-04   -0.16707E-04  8424   0.110E-03 0.996E-04
CGA:  34    -0.671018683010E+03   -0.11474E-04   -0.15604E-04  8424   0.110E-03 0.969E-04
CGA:  35    -0.671018696094E+03   -0.13084E-04   -0.16306E-04  8424   0.112E-03 0.945E-04
CGA:  36    -0.671018706297E+03   -0.10204E-04   -0.14725E-04  8424   0.110E-03 0.930E-04
CGA:  37    -0.671018718235E+03   -0.11938E-04   -0.15405E-04  8424   0.110E-03 0.923E-04
CGA:  38    -0.671018728880E+03   -0.10644E-04   -0.14599E-04  8424   0.107E-03 0.921E-04
CGA:  39    -0.671018739289E+03   -0.10410E-04   -0.14235E-04  8424   0.104E-03 0.935E-04
CGA:  40    -0.671018750897E+03   -0.11607E-04   -0.14588E-04  8424   0.102E-03 0.946E-04
CGA:  41    -0.671018760338E+03   -0.94413E-05   -0.13261E-04  8424   0.990E-04 0.958E-04
CGA:  42    -0.671018771749E+03   -0.11411E-04   -0.13996E-04  8424   0.976E-04 0.963E-04
CGA:  43    -0.671018780846E+03   -0.90965E-05   -0.12665E-04  8424   0.964E-04 0.961E-04
CGA:  44    -0.671018791215E+03   -0.10369E-04   -0.13132E-04  8424   0.956E-04 0.957E-04
CGA:  45    -0.671018800173E+03   -0.89586E-05   -0.12293E-04  8424   0.949E-04 0.951E-04
CGA:  46    -0.671018809593E+03   -0.94194E-05   -0.12386E-04  8424   0.943E-04 0.945E-04
CGA:  47    -0.671018818237E+03   -0.86443E-05   -0.11872E-04  8424   0.937E-04 0.939E-04
CGA:  48    -0.671018826981E+03   -0.87436E-05   -0.11794E-04  8424   0.931E-04 0.933E-04
CGA:  49    -0.671018835215E+03   -0.82346E-05   -0.11417E-04  8424   0.925E-04 0.927E-04
CGA:  50    -0.671018843424E+03   -0.82084E-05   -0.11281E-04  8424   0.920E-04 0.922E-04
CGA:  51    -0.671018851233E+03   -0.78091E-05   -0.10962E-04  8424   0.915E-04 0.916E-04
CGA:  52    -0.671018858981E+03   -0.77480E-05   -0.10812E-04  8424   0.909E-04 0.911E-04
CGA:  53    -0.671018866356E+03   -0.73751E-05   -0.10509E-04  8424   0.904E-04 0.906E-04
CGA:  54    -0.671018873716E+03   -0.73600E-05   -0.10384E-04  8424   0.899E-04 0.900E-04
CGA:  55    -0.671018880618E+03   -0.69026E-05   -0.10041E-04  8424   0.894E-04 0.895E-04
   8 F= -.67101888E+03 E0= -.67101888E+03  d E =0.175643E-01  mag=    21.0000
       N       E                     dE             d eps       ncg     rms          ort
SDA:   1    -0.669938339934E+03    0.10805E+01    0.00000E+00  8424   0.285E+01 0.000E+00
CGA:   2    -0.670650651821E+03   -0.71231E+00   -0.71277E+00  8424   0.140E+01-0.442E-02
CGA:   3    -0.670917424085E+03   -0.26677E+00   -0.26666E+00  8424   0.347E+00 0.246E-02
CGA:   4    -0.670976655487E+03   -0.59231E-01   -0.59204E-01  8424   0.816E-01 0.131E-02
CGA:   5    -0.670990383324E+03   -0.13728E-01   -0.13723E-01  8424   0.178E-01 0.287E-03
CGA:   6    -0.670994038931E+03   -0.36556E-02   -0.36421E-02  8424   0.447E-02 0.260E-03
CGA:   7    -0.670995071003E+03   -0.10321E-02   -0.10150E-02  8424   0.148E-02 0.248E-03
CGA:   8    -0.670995440186E+03   -0.36918E-03   -0.34603E-03  8424   0.550E-03 0.366E-03
CGA:   9    -0.670995593076E+03   -0.15289E-03   -0.13965E-03  8424   0.299E-03 0.315E-03
CGA:  10    -0.670995679719E+03   -0.86643E-04   -0.73316E-04  8424   0.194E-03 0.163E-03
CGA:  11    -0.670995726267E+03   -0.46547E-04   -0.40332E-04  8424   0.160E-03 0.154E-03
CGA:  12    -0.670995773546E+03   -0.47279E-04   -0.37711E-04  8424   0.146E-03 0.146E-03
CGA:  13    -0.670995805694E+03   -0.32149E-04   -0.28813E-04  8424   0.138E-03 0.140E-03
CGA:  14    -0.670995841064E+03   -0.35369E-04   -0.29802E-04  8424   0.133E-03 0.134E-03
CGA:  15    -0.670995868925E+03   -0.27861E-04   -0.25640E-04  8424   0.129E-03 0.130E-03
CGA:  16    -0.670995897975E+03   -0.29050E-04   -0.25940E-04  8424   0.125E-03 0.127E-03
CGA:  17    -0.670995923308E+03   -0.25333E-04   -0.23843E-04  8424   0.122E-03 0.124E-03
CGA:  18    -0.670995948604E+03   -0.25296E-04   -0.23620E-04  8424   0.120E-03 0.121E-03
CGA:  19    -0.670995971957E+03   -0.23353E-04   -0.22470E-04  8424   0.118E-03 0.119E-03
CGA:  20    -0.670995994696E+03   -0.22739E-04   -0.21998E-04  8424   0.116E-03 0.117E-03
CGA:  21    -0.670996016445E+03   -0.21749E-04   -0.21351E-04  8424   0.114E-03 0.115E-03
CGA:  22    -0.670996037156E+03   -0.20711E-04   -0.20689E-04  8424   0.113E-03 0.114E-03
CGA:  23    -0.670996057699E+03   -0.20543E-04   -0.20469E-04  8424   0.111E-03 0.112E-03
CGA:  24    -0.670996076526E+03   -0.18827E-04   -0.19483E-04  8424   0.110E-03 0.111E-03
CGA:  25    -0.670996096421E+03   -0.19895E-04   -0.19888E-04  8424   0.109E-03 0.109E-03
CGA:  26    -0.670996113144E+03   -0.16723E-04   -0.18186E-04  8424   0.108E-03 0.108E-03
CGA:  27    -0.670996133011E+03   -0.19867E-04   -0.19631E-04  8424   0.107E-03 0.107E-03
CGA:  28    -0.670996147308E+03   -0.14297E-04   -0.16746E-04  8424   0.106E-03 0.105E-03
CGA:  29    -0.670996167317E+03   -0.20009E-04   -0.19476E-04  8424   0.105E-03 0.104E-03
CGA:  30    -0.670996179507E+03   -0.12190E-04   -0.15479E-04  8424   0.104E-03 0.103E-03
CGA:  31    -0.670996198946E+03   -0.19439E-04   -0.18959E-04  8424   0.104E-03 0.101E-03
CGA:  32    -0.670996210211E+03   -0.11265E-04   -0.14777E-04  8424   0.102E-03 0.101E-03
CGA:  33    -0.670996228141E+03   -0.17930E-04   -0.17934E-04  8424   0.101E-03 0.998E-04
CGA:  34    -0.670996239467E+03   -0.11326E-04   -0.14523E-04  8424   0.998E-04 0.991E-04
CGA:  35    -0.670996255538E+03   -0.16071E-04   -0.16725E-04  8424   0.989E-04 0.984E-04
CGA:  36    -0.670996267088E+03   -0.11550E-04   -0.14353E-04  8424   0.978E-04 0.977E-04
CGA:  37    -0.670996281492E+03   -0.14404E-04   -0.15631E-04  8424   0.969E-04 0.969E-04
CGA:  38    -0.670996292988E+03   -0.11495E-04   -0.14065E-04  8424   0.961E-04 0.962E-04
CGA:  39    -0.670996306112E+03   -0.13124E-04   -0.14746E-04  8424   0.953E-04 0.954E-04
CGA:  40    -0.670996317268E+03   -0.11156E-04   -0.13650E-04  8424   0.945E-04 0.946E-04
CGA:  41    -0.670996329439E+03   -0.12170E-04   -0.14031E-04  8424   0.937E-04 0.939E-04
CGA:  42    -0.670996340094E+03   -0.10656E-04   -0.13162E-04  8424   0.930E-04 0.932E-04
CGA:  43    -0.670996351518E+03   -0.11423E-04   -0.13425E-04  8424   0.923E-04 0.925E-04
CGA:  44    -0.670996361603E+03   -0.10085E-04   -0.12645E-04  8424   0.916E-04 0.917E-04
CGA:  45    -0.670996372398E+03   -0.10795E-04   -0.12880E-04  8424   0.909E-04 0.910E-04
CGA:  46    -0.670996381890E+03   -0.94915E-05   -0.12119E-04  8424   0.903E-04 0.904E-04
CGA:  47    -0.670996392120E+03   -0.10231E-04   -0.12370E-04  8424   0.896E-04 0.897E-04
CGA:  48    -0.670996401037E+03   -0.89164E-05   -0.11605E-04  8424   0.889E-04 0.890E-04
CGA:  49    -0.670996410725E+03   -0.96880E-05   -0.11873E-04  8424   0.883E-04 0.884E-04
CGA:  50    -0.670996419116E+03   -0.83914E-05   -0.11119E-04  8424   0.877E-04 0.878E-04
CGA:  51    -0.670996428261E+03   -0.91451E-05   -0.11380E-04  8424   0.871E-04 0.872E-04
CGA:  52    -0.670996436191E+03   -0.79297E-05   -0.10668E-04  8424   0.865E-04 0.866E-04
CGA:  53    -0.670996444801E+03   -0.86101E-05   -0.10896E-04  8424   0.859E-04 0.860E-04
CGA:  54    -0.670996452318E+03   -0.75169E-05   -0.10247E-04  8424   0.853E-04 0.855E-04
CGA:  55    -0.670996460419E+03   -0.81012E-05   -0.10431E-04  8424   0.848E-04 0.849E-04
   9 F= -.67099646E+03 E0= -.67099646E+03  d E =0.224202E-01  mag=    21.0000
       N       E                     dE             d eps       ncg     rms          ort
SDA:   1    -0.670288131526E+03    0.70832E+00    0.00000E+00  8424   0.196E+01 0.000E+00
CGA:   2    -0.670770289252E+03   -0.48216E+00   -0.48256E+00  8424   0.917E+00-0.445E-02
CGA:   3    -0.670948812356E+03   -0.17852E+00   -0.17842E+00  8424   0.230E+00 0.226E-02
CGA:   4    -0.670988264683E+03   -0.39452E-01   -0.39401E-01  8424   0.555E-01 0.299E-02
CGA:   5    -0.670997661268E+03   -0.93966E-02   -0.93817E-02  8424   0.113E-01 0.119E-02
CGA:   6    -0.671000083241E+03   -0.24220E-02   -0.24109E-02  8424   0.287E-02 0.206E-03
CGA:   7    -0.671000772793E+03   -0.68955E-03   -0.68263E-03  8424   0.980E-03 0.909E-04
CGA:   8    -0.671000989923E+03   -0.21713E-03   -0.20518E-03  8424   0.337E-03 0.289E-03
CGA:   9    -0.671001061136E+03   -0.71213E-04   -0.71275E-04  8424   0.178E-03 0.228E-03
CGA:  10    -0.671001101643E+03   -0.40507E-04   -0.36081E-04  8424   0.112E-03 0.114E-03
CGA:  11    -0.671001120574E+03   -0.18931E-04   -0.18780E-04  8424   0.954E-04 0.999E-04
CGA:  12    -0.671001135971E+03   -0.15397E-04   -0.15599E-04  8424   0.875E-04 0.908E-04
CGA:  13    -0.671001147718E+03   -0.11747E-04   -0.13098E-04  8424   0.826E-04 0.848E-04
CGA:  14    -0.671001157676E+03   -0.99580E-05   -0.11763E-04  8424   0.790E-04 0.806E-04
CGA:  15    -0.671001166210E+03   -0.85339E-05   -0.10716E-04  8424   0.763E-04 0.776E-04
  10 F= -.67100117E+03 E0= -.67100117E+03  d E =-.470579E-02  mag=    21.0000
       N       E                     dE             d eps       ncg     rms          ort
SDA:   1    -0.670441900611E+03    0.55926E+00    0.00000E+00  8424   0.158E+01 0.000E+00
CGA:   2    -0.670842494990E+03   -0.40059E+00   -0.40090E+00  8424   0.676E+00-0.344E-02
CGA:   3    -0.670973105453E+03   -0.13061E+00   -0.13059E+00  8424   0.180E+00 0.613E-03
CGA:   4    -0.671004188198E+03   -0.31083E-01   -0.31070E-01  8424   0.433E-01 0.228E-02
CGA:   5    -0.671011475088E+03   -0.72869E-02   -0.72877E-02  8424   0.886E-02 0.956E-03
CGA:   6    -0.671013355225E+03   -0.18801E-02   -0.18793E-02  8424   0.226E-02 0.188E-04
CGA:   7    -0.671013906443E+03   -0.55122E-03   -0.54986E-03  8424   0.794E-03 0.179E-04
CGA:   8    -0.671014082259E+03   -0.17582E-03   -0.16956E-03  8424   0.263E-03 0.159E-03
CGA:   9    -0.671014136700E+03   -0.54440E-04   -0.54646E-04  8424   0.124E-03 0.153E-03
CGA:  10    -0.671014156551E+03   -0.19852E-04   -0.20555E-04  8424   0.744E-04 0.833E-04
CGA:  11    -0.671014164289E+03   -0.77371E-05   -0.10220E-04  8424   0.629E-04 0.675E-04
  11 F= -.67101416E+03 E0= -.67101416E+03  d E =-.129981E-01  mag=    21.0000
       N       E                     dE             d eps       ncg     rms          ort
SDA:   1    -0.670831063089E+03    0.18309E+00    0.00000E+00  8424   0.519E+00 0.000E+00
CGA:   2    -0.670957383927E+03   -0.12632E+00   -0.12621E+00  8424   0.245E+00 0.145E-02
CGA:   3    -0.671004639050E+03   -0.47255E-01   -0.47274E-01  8424   0.620E-01-0.103E-02
CGA:   4    -0.671015212134E+03   -0.10573E-01   -0.10572E-01  8424   0.154E-01-0.354E-03
CGA:   5    -0.671017785786E+03   -0.25737E-02   -0.25747E-02  8424   0.313E-02 0.166E-03
CGA:   6    -0.671018403793E+03   -0.61801E-03   -0.61357E-03  8424   0.743E-03 0.221E-03
CGA:   7    -0.671018563996E+03   -0.16020E-03   -0.15692E-03  8424   0.232E-03 0.146E-03
CGA:   8    -0.671018619007E+03   -0.55011E-04   -0.53326E-04  8424   0.994E-04 0.105E-03
CGA:   9    -0.671018635521E+03   -0.16515E-04   -0.19956E-04  8424   0.599E-04 0.884E-04
CGA:  10    -0.671018638158E+03   -0.26368E-05   -0.62274E-05  8424   0.455E-04 0.506E-04
  12 F= -.67101864E+03 E0= -.67101864E+03  d E =-.447387E-02  mag=    21.0000
       N       E                     dE             d eps       ncg     rms          ort
SDA:   1    -0.669665526896E+03    0.13531E+01    0.00000E+00  8424   0.355E+01 0.000E+00
CGA:   2    -0.670605965921E+03   -0.94044E+00   -0.93947E+00  8424   0.161E+01 0.944E-02
CGA:   3    -0.670911285353E+03   -0.30532E+00   -0.30538E+00  8424   0.416E+00-0.355E-02
CGA:   4    -0.670983108303E+03   -0.71823E-01   -0.71823E-01  8424   0.102E+00-0.446E-02
CGA:   5    -0.671000234087E+03   -0.17126E-01   -0.17121E-01  8424   0.216E-01-0.143E-02
CGA:   6    -0.671004583973E+03   -0.43499E-02   -0.43402E-02  8424   0.541E-02 0.308E-03
CGA:   7    -0.671005785814E+03   -0.12018E-02   -0.11895E-02  8424   0.166E-02 0.288E-03
CGA:   8    -0.671006270830E+03   -0.48502E-03   -0.48742E-03  8424   0.669E-03-0.244E-04
CGA:   9    -0.671006459587E+03   -0.18876E-03   -0.18792E-03  8424   0.289E-03 0.752E-05
CGA:  10    -0.671006532616E+03   -0.73029E-04   -0.68481E-04  8424   0.115E-03 0.947E-04
CGA:  11    -0.671006547953E+03   -0.15337E-04   -0.20695E-04  8424   0.661E-04 0.999E-04
CGA:  12    -0.671006549374E+03   -0.14211E-05   -0.64471E-05  8424   0.497E-04 0.565E-04
  13 F= -.67100655E+03 E0= -.67100655E+03  d E =0.120888E-01  mag=    21.0000
       N       E                     dE             d eps       ncg     rms          ort
SDA:   1    -0.637557782821E+03    0.33449E+02    0.00000E+00  8424   0.956E+02 0.000E+00
CGA:   2    -0.659495647417E+03   -0.21938E+02   -0.21905E+02  8424   0.422E+02 0.448E+00
CGA:   3    -0.667789966140E+03   -0.82943E+01   -0.82947E+01  8424   0.115E+02-0.305E-01
CGA:   4    -0.669809684722E+03   -0.20197E+01   -0.20197E+01  8424   0.298E+01-0.765E-02
CGA:   5    -0.670310782179E+03   -0.50110E+00   -0.50109E+00  8424   0.631E+00-0.286E-02
CGA:   6    -0.670440884249E+03   -0.13010E+00   -0.13012E+00  8424   0.168E+00-0.735E-03
CGA:   7    -0.670480504027E+03   -0.39620E-01   -0.39627E-01  8424   0.598E-01-0.184E-03
CGA:   8    -0.670496171619E+03   -0.15668E-01   -0.15704E-01  8424   0.219E-01-0.474E-03
CGA:   9    -0.670502613178E+03   -0.64416E-02   -0.66603E-02  8424   0.934E-02-0.184E-02
CGA:  10    -0.670505446566E+03   -0.28334E-02   -0.32025E-02  8424   0.477E-02-0.204E-02
CGA:  11    -0.670506573057E+03   -0.11265E-02   -0.12660E-02  8424   0.214E-02-0.102E-02
CGA:  12    -0.670507137665E+03   -0.56461E-03   -0.85649E-03  8424   0.226E-02-0.983E-03
CGA:  13    -0.670507205260E+03   -0.67594E-04   -0.84840E-03  8424   0.577E-02-0.168E-02
CGA:  14    -0.670508407753E+03   -0.12025E-02   -0.11808E-02  8424   0.209E-02-0.506E-03
CGA:  15    -0.670508880324E+03   -0.47257E-03   -0.47245E-03  8424   0.494E-03 0.709E-04
CGA:  16    -0.670509017276E+03   -0.13695E-03   -0.39748E-03  8424   0.194E-02-0.492E-03
CGA:  17    -0.670509322759E+03   -0.30548E-03   -0.32359E-03  8424   0.270E-03 0.171E-03
CGA:  18    -0.670509398858E+03   -0.76099E-04   -0.22382E-03  8424   0.127E-02-0.301E-03
CGA:  19    -0.670509635899E+03   -0.23704E-03   -0.23904E-03  8424   0.270E-03 0.191E-04
CGA:  20    -0.670509258214E+03    0.37769E-03   -0.31663E-03  8424   0.545E-02-0.803E-03
CGA:  21    -0.670509965724E+03   -0.70751E-03   -0.75550E-03  8424   0.653E-03 0.259E-03
CGA:  22    -0.670510191677E+03   -0.22595E-03   -0.22795E-03  8424   0.236E-03-0.157E-03
CGA:  23    -0.670510310549E+03   -0.11887E-03    0.94730E-03  8424   0.190E-03 0.961E-04
CGA:  24    -0.670510520423E+03   -0.20987E-03    0.19055E-03  8424   0.123E-03 0.161E-03
CGA:  25    -0.670510618238E+03   -0.97816E-04    0.83475E-04  8424   0.101E-03 0.723E-04
CGA:  26    -0.670510697828E+03   -0.79589E-04    0.70579E-04  8424   0.108E-03 0.686E-04
CGA:  27    -0.670510792547E+03   -0.94719E-04    0.47280E-04  8424   0.143E-03 0.485E-04
CGA:  28    -0.670510989257E+03   -0.19671E-03    0.69470E-04  8424   0.100E-03 0.194E-03
CGA:  29    -0.670511067606E+03   -0.78349E-04    0.72906E-04  8424   0.110E-03 0.603E-04
CGA:  30    -0.670511155334E+03   -0.87729E-04    0.72159E-04  8424   0.149E-03 0.379E-04
CGA:  31    -0.670511350367E+03   -0.19503E-03    0.62550E-04  8424   0.110E-03 0.188E-03
CGA:  32    -0.670511428689E+03   -0.78321E-04    0.17068E-03  8424   0.128E-03 0.410E-04
CGA:  33    -0.670511608205E+03   -0.17952E-03    0.47009E-04  8424   0.111E-03 0.162E-03
CGA:  34    -0.670511688784E+03   -0.80579E-04    0.14252E-03  8424   0.991E-04 0.487E-04
CGA:  35    -0.670511840158E+03   -0.15137E-03    0.34915E-04  8424   0.106E-03 0.136E-03
CGA:  36    -0.670511925716E+03   -0.85558E-04    0.67917E-04  8424   0.836E-04 0.573E-04
CGA:  37    -0.670512005674E+03   -0.79959E-04    0.27392E-04  8424   0.764E-04 0.690E-04
CGA:  38    -0.670512085919E+03   -0.80245E-04    0.19289E-04  8424   0.744E-04 0.716E-04
CGA:  39    -0.670512163979E+03   -0.78060E-04    0.18837E-04  8424   0.739E-04 0.717E-04
CGA:  40    -0.670512244095E+03   -0.80115E-04    0.17205E-04  8424   0.742E-04 0.708E-04
CGA:  41    -0.670512319786E+03   -0.75691E-04    0.20225E-04  8424   0.757E-04 0.690E-04
CGA:  42    -0.670512401996E+03   -0.82210E-04    0.17580E-04  8424   0.793E-04 0.657E-04
CGA:  43    -0.670512470890E+03   -0.68894E-04    0.36111E-04  8424   0.879E-04 0.592E-04
CGA:  44    -0.670512560267E+03   -0.89378E-04    0.24204E-04  8424   0.112E-03 0.443E-04
CGA:  45    -0.670512602605E+03   -0.42338E-04   -0.44069E-04  8424   0.290E-03-0.243E-04
CGA:  46    -0.670512859321E+03   -0.25672E-03    0.49469E-04  8424   0.443E-03 0.203E-03
CGA:  47    -0.670512979087E+03   -0.11977E-03   -0.96075E-04  8424   0.324E-03-0.221E-03
CGA:  48    -0.670513101412E+03   -0.12233E-03    0.14440E-03  8424   0.192E-03 0.963E-04
CGA:  49    -0.670513193559E+03   -0.92147E-04   -0.11433E-03  8424   0.983E-03-0.161E-03
CGA:  50    -0.670513375180E+03   -0.18162E-03   -0.14436E-03  8424   0.154E-03-0.208E-03
CGA:  51    -0.670513383275E+03   -0.80943E-05   -0.14988E-03  8424   0.223E-02-0.156E-03
CGA:  52    -0.670513735967E+03   -0.35269E-03   -0.28255E-03  8424   0.139E-03-0.299E-03
CGA:  53    -0.670513790553E+03   -0.54586E-04   -0.67500E-04  8424   0.535E-03-0.623E-04
CGA:  54    -0.670514164503E+03   -0.37395E-03    0.71158E-04  8424   0.711E-03 0.201E-03
CGA:  55    -0.670513974909E+03    0.18959E-03   -0.74412E-03  8424   0.179E-01-0.237E-02
CGA:  56    -0.670515657675E+03   -0.16828E-02   -0.18052E-02  8424   0.882E-04 0.489E-03
CGA:  57    -0.670515692848E+03   -0.35172E-04   -0.45658E-04  8424   0.497E-03-0.777E-04
CGA:  58    -0.670515788638E+03   -0.95790E-04   -0.73234E-04  8424   0.108E-03-0.996E-04
CGA:  59    -0.670515865658E+03   -0.77020E-04    0.68863E-04  8424   0.732E-04 0.430E-04
CGA:  60    -0.670516013480E+03   -0.14782E-03    0.18787E-04  8424   0.642E-04 0.789E-04
CGA:  61    -0.670516063147E+03   -0.49667E-04    0.17889E-03  8424   0.106E-03 0.184E-04
CGA:  62    -0.670516264293E+03   -0.20115E-03    0.24023E-04  8424   0.783E-04 0.121E-03
CGA:  63    -0.670516344983E+03   -0.80690E-04    0.33975E-04  8424   0.111E-03 0.221E-05
CGA:  64    -0.670516517859E+03   -0.17288E-03    0.19321E-04  8424   0.105E-03 0.102E-03
CGA:  65    -0.670516560418E+03   -0.42559E-04   -0.46007E-04  8424   0.198E-03-0.470E-04
CGA:  66    -0.670516741428E+03   -0.18101E-03    0.16035E-04  8424   0.297E-03 0.662E-04
CGA:  67    -0.670517162802E+03   -0.42137E-03    0.16317E-03  8424   0.311E-03 0.525E-04
CGA:  68    -0.670517630781E+03   -0.46798E-03    0.90737E-04  8424   0.192E-03 0.237E-03
CGA:  69    -0.670517691756E+03   -0.60974E-04   -0.57162E-04  8424   0.996E-04-0.549E-04
CGA:  70    -0.670517787006E+03   -0.95251E-04    0.15360E-04  8424   0.771E-04 0.450E-04
CGA:  71    -0.670517946918E+03   -0.15991E-03    0.21093E-04  8424   0.686E-04 0.466E-04
CGA:  72    -0.670517416999E+03    0.52992E-03   -0.28517E-03  8424   0.426E-02-0.349E-03
CGA:  73    -0.670518411805E+03   -0.99481E-03   -0.88149E-03  8424   0.111E-03-0.262E-03
CGA:  74    -0.670518428351E+03   -0.16546E-04   -0.22857E-04  8424   0.487E-04 0.145E-04
CGA:  75    -0.670518564094E+03   -0.13574E-03    0.17177E-04  8424   0.106E-03 0.165E-04
CGA:  76    -0.670519020644E+03   -0.45655E-03    0.27313E-04  8424   0.902E-04 0.102E-03
CGA:  77    -0.670519054803E+03   -0.34159E-04   -0.32391E-04  8424   0.965E-04-0.696E-05
CGA:  78    -0.670519266153E+03   -0.21135E-03    0.28161E-04  8424   0.206E-03-0.330E-04
CGA:  79    -0.670519757977E+03   -0.49182E-03    0.20514E-04  8424   0.335E-03 0.232E-04
CGA:  80    -0.670520645359E+03   -0.88738E-03    0.11687E-03  8424   0.508E-03 0.584E-04
CGA:  81    -0.670521994456E+03   -0.13491E-02    0.20830E-03  8424   0.213E-02-0.463E-03
CGA:  82    -0.670522262433E+03   -0.26798E-03   -0.30913E-03  8424   0.314E-03 0.978E-04
CGA:  83    -0.670522452712E+03   -0.19028E-03   -0.18934E-03  8424   0.265E-03-0.150E-03
CGA:  84    -0.670522517691E+03   -0.64979E-04   -0.12085E-03  8424   0.610E-03-0.188E-03
CGA:  85    -0.670522752865E+03   -0.23517E-03   -0.18507E-03  8424   0.235E-03-0.171E-03
CGA:  86    -0.670522844297E+03   -0.91432E-04   -0.85646E-04  8424   0.130E-03-0.755E-04
CGA:  87    -0.670522984007E+03   -0.13971E-03    0.68935E-04  8424   0.213E-03-0.383E-04
CGA:  88    -0.670523295370E+03   -0.31136E-03    0.54888E-04  8424   0.435E-03-0.153E-03
CGA:  89    -0.670523323054E+03   -0.27684E-04   -0.58033E-04  8424   0.664E-04 0.688E-04
CGA:  90    -0.670523368139E+03   -0.45085E-04   -0.48889E-04  8424   0.169E-03-0.486E-04
CGA:  91    -0.670523437694E+03   -0.69556E-04   -0.11163E-03  8424   0.150E-02-0.417E-03
CGA:  92    -0.670523546439E+03   -0.10874E-03   -0.18560E-03  8424   0.643E-04 0.178E-03
CGA:  93    -0.670523554126E+03   -0.76866E-05   -0.11904E-04  8424   0.189E-04 0.111E-04
  14 F= -.67052355E+03 E0= -.67052355E+03  d E =0.482995E+00  mag=    21.0000
       N       E                     dE             d eps       ncg     rms          ort
SDA:   1    -0.663425724431E+03    0.70978E+01    0.00000E+00  8424   0.236E+02 0.000E+00
CGA:   2    -0.668192010800E+03   -0.47663E+01   -0.47861E+01  8424   0.962E+01-0.109E-01
CGA:   3    -0.670217130322E+03   -0.20251E+01   -0.20196E+01  8424   0.286E+01 0.282E-01
CGA:   4    -0.670711919890E+03   -0.49479E+00   -0.49580E+00  8424   0.737E+00 0.400E-02
CGA:   5    -0.670837809181E+03   -0.12589E+00   -0.12658E+00  8424   0.156E+00 0.151E-02
CGA:   6    -0.670868780041E+03   -0.30971E-01   -0.30950E-01  8424   0.354E-01-0.941E-04
CGA:   7    -0.670876824028E+03   -0.80440E-02   -0.81010E-02  8424   0.113E-01 0.255E-03
CGA:   8    -0.670879498090E+03   -0.26741E-02   -0.27316E-02  8424   0.342E-02 0.288E-03
CGA:   9    -0.670880365762E+03   -0.86767E-03   -0.90860E-03  8424   0.106E-02 0.241E-03
CGA:  10    -0.670880617505E+03   -0.25174E-03   -0.29442E-03  8424   0.396E-03 0.264E-03
CGA:  11    -0.670880695537E+03   -0.78032E-04   -0.11132E-03  8424   0.151E-03 0.178E-03
CGA:  12    -0.670880706465E+03   -0.10927E-04   -0.38695E-04  8424   0.813E-04 0.123E-03
CGA:  13    -0.670880702143E+03    0.43214E-05   -0.11647E-04  8424   0.563E-04 0.643E-04
  15 F= -.67088070E+03 E0= -.67088070E+03  d E =-.357148E+00  mag=    21.0000
       N       E                     dE             d eps       ncg     rms          ort
SDA:   1    -0.670354092778E+03    0.52661E+00    0.00000E+00  8424   0.172E+01 0.000E+00
CGA:   2    -0.670723714837E+03   -0.36962E+00   -0.36970E+00  8424   0.766E+00 0.816E-04
CGA:   3    -0.670879550754E+03   -0.15584E+00   -0.15572E+00  8424   0.221E+00-0.659E-03
CGA:   4    -0.670916598560E+03   -0.37048E-01   -0.37191E-01  8424   0.546E-01 0.757E-03
CGA:   5    -0.670925760903E+03   -0.91623E-02   -0.92864E-02  8424   0.111E-01 0.705E-03
CGA:   6    -0.670927979010E+03   -0.22181E-02   -0.22443E-02  8424   0.265E-02 0.193E-03
CGA:   7    -0.670928546397E+03   -0.56739E-03   -0.58533E-03  8424   0.827E-03 0.165E-03
CGA:   8    -0.670928710715E+03   -0.16432E-03   -0.18494E-03  8424   0.256E-03 0.187E-03
CGA:   9    -0.670928736960E+03   -0.26244E-04   -0.50656E-04  8424   0.117E-03 0.159E-03
CGA:  10    -0.670928734333E+03    0.26269E-05   -0.14039E-04  8424   0.760E-04 0.890E-04
  16 F= -.67092873E+03 E0= -.67092873E+03  d E =-.480322E-01  mag=    21.0000
       N       E                     dE             d eps       ncg     rms          ort
SDA:   1    -0.669017424356E+03    0.19113E+01    0.00000E+00  8424   0.558E+01 0.000E+00
CGA:   2    -0.670287963966E+03   -0.12705E+01   -0.12708E+01  8424   0.269E+01 0.430E-03
CGA:   3    -0.670813051663E+03   -0.52509E+00   -0.52480E+00  8424   0.728E+00-0.253E-02
CGA:   4    -0.670933503309E+03   -0.12045E+00   -0.12060E+00  8424   0.176E+00 0.115E-02
CGA:   5    -0.670963505548E+03   -0.30002E-01   -0.30168E-01  8424   0.361E-01 0.152E-02
CGA:   6    -0.670970773342E+03   -0.72678E-02   -0.72971E-02  8424   0.897E-02 0.413E-03
CGA:   7    -0.670972761801E+03   -0.19885E-02   -0.19960E-02  8424   0.287E-02 0.163E-03
CGA:   8    -0.670973451380E+03   -0.68958E-03   -0.69592E-03  8424   0.911E-03 0.247E-03
CGA:   9    -0.670973650516E+03   -0.19914E-03   -0.21292E-03  8424   0.325E-03 0.292E-03
CGA:  10    -0.670973689258E+03   -0.38742E-04   -0.65495E-04  8424   0.174E-03 0.249E-03
CGA:  11    -0.670973693473E+03   -0.42150E-05   -0.21842E-04  8424   0.116E-03 0.136E-03
CGA:  12    -0.670973689571E+03    0.39027E-05   -0.11749E-04  8424   0.983E-04 0.106E-03
  17 F= -.67097369E+03 E0= -.67097369E+03  d E =-.449552E-01  mag=    21.0000
       N       E                     dE             d eps       ncg     rms          ort
SDA:   1    -0.670665870628E+03    0.30782E+00    0.00000E+00  8424   0.839E+00 0.000E+00
CGA:   2    -0.670882374195E+03   -0.21650E+00   -0.21650E+00  8424   0.447E+00 0.135E-03
CGA:   3    -0.670964809473E+03   -0.82435E-01   -0.82392E-01  8424   0.975E-01-0.906E-03
CGA:   4    -0.670981252428E+03   -0.16443E-01   -0.16459E-01  8424   0.242E-01 0.254E-03
CGA:   5    -0.670985225341E+03   -0.39729E-02   -0.40045E-02  8424   0.515E-02 0.492E-03
CGA:   6    -0.670986238504E+03   -0.10132E-02   -0.10230E-02  8424   0.123E-02 0.319E-03
