       N       E                     dE             d eps       ncg     rms          rms(c)
DAV:   1     0.668546213637E+04    0.66855E+04   -0.19125E+05  5088   0.163E+03
DAV:   2     0.847494454151E+03   -0.58380E+04   -0.53708E+04  4808   0.520E+02
DAV:   3    -0.347638779609E+03   -0.11951E+04   -0.10415E+04  5008   0.240E+02
DAV:   4    -0.509295264581E+03   -0.16166E+03   -0.15719E+03  7520   0.892E+01
DAV:   5    -0.512753832489E+03   -0.34586E+01   -0.34232E+01  7416   0.189E+01    0.781E+01
RMM:   6    -0.452528990923E+03    0.60225E+02   -0.59369E+02  5320   0.622E+01    0.768E+01
RMM:   7    -0.454943541945E+03   -0.24146E+01   -0.68104E+01  6101   0.223E+01    0.625E+01
RMM:   8    -0.417269314668E+03    0.37674E+02   -0.21340E+01  5572   0.137E+01    0.354E+01
RMM:   9    -0.428650750336E+03   -0.11381E+02   -0.11535E+01  5437   0.840E+00    0.465E+01
RMM:  10    -0.415563240116E+03    0.13088E+02   -0.64783E+00  5725   0.669E+00    0.178E+01
RMM:  11    -0.418631028828E+03   -0.30678E+01   -0.23972E+00  5164   0.341E+00    0.186E+01
RMM:  12    -0.419020518322E+03   -0.38949E+00   -0.96169E-01  5371   0.254E+00    0.141E+01
RMM:  13    -0.420031182237E+03   -0.10107E+01   -0.13302E+00  5458   0.255E+00    0.126E+01
RMM:  14    -0.419891005068E+03    0.14018E+00   -0.10445E+00  5625   0.231E+00    0.745E+00
RMM:  15    -0.420101016703E+03   -0.21001E+00   -0.74054E-01  5578   0.186E+00    0.645E+00
RMM:  16    -0.420028240756E+03    0.72776E-01   -0.31460E-01  5943   0.115E+00    0.413E+00
RMM:  17    -0.420143814633E+03   -0.11557E+00   -0.11725E-01  5670   0.823E-01    0.394E+00
RMM:  18    -0.420156455413E+03   -0.12641E-01   -0.56557E-02  5776   0.603E-01    0.274E+00
RMM:  19    -0.420143422634E+03    0.13033E-01   -0.30184E-02  5546   0.468E-01    0.190E+00
RMM:  20    -0.420125926261E+03    0.17496E-01   -0.17236E-02  5653   0.377E-01    0.170E+00
RMM:  21    -0.420134546823E+03   -0.86206E-02   -0.63757E-03  5593   0.211E-01    0.132E+00
RMM:  22    -0.420141675333E+03   -0.71285E-02   -0.32097E-03  5858   0.131E-01    0.815E-01
RMM:  23    -0.420145989424E+03   -0.43141E-02   -0.25239E-03  5677   0.115E-01    0.374E-01
RMM:  24    -0.420146947032E+03   -0.95761E-03   -0.85439E-04  5336   0.722E-02    0.154E-01
RMM:  25    -0.420147156316E+03   -0.20928E-03   -0.25132E-04  5125   0.466E-02    0.539E-02
RMM:  26    -0.420147173479E+03   -0.17164E-04   -0.60146E-05  4193   0.215E-02    0.217E-02
RMM:  27    -0.420147177084E+03   -0.36044E-05   -0.12056E-05  2950   0.116E-02
   1 F= -.42014718E+03 E0= -.42013421E+03  d E =-.420147E+03  mag=    62.0008
       N       E                     dE             d eps       ncg     rms          rms(c)
DAV:   1    -0.415133167365E+03    0.50140E+01   -0.14311E+02  6528   0.109E+02    0.859E+00
RMM:   2    -0.420277626744E+03   -0.51445E+01   -0.48924E+01  7248   0.179E+01    0.638E+00
RMM:   3    -0.420536101470E+03   -0.25847E+00   -0.20234E+00  5892   0.404E+00    0.763E+00
RMM:   4    -0.420318242184E+03    0.21786E+00   -0.26719E-01  5838   0.138E+00    0.258E+00
RMM:   5    -0.420316685757E+03    0.15564E-02   -0.48654E-02  5789   0.555E-01    0.168E+00
RMM:   6    -0.420307351390E+03    0.93344E-02   -0.19551E-02  5939   0.318E-01    0.801E-01
RMM:   7    -0.420304670508E+03    0.26809E-02   -0.15284E-02  5587   0.321E-01    0.489E-01
RMM:   8    -0.420304024283E+03    0.64622E-03   -0.60845E-03  6014   0.199E-01    0.392E-01
RMM:   9    -0.420303643457E+03    0.38083E-03   -0.97119E-04  6202   0.847E-02    0.196E-01
RMM:  10    -0.420303669756E+03   -0.26299E-04   -0.23032E-04  4893   0.428E-02    0.166E-01
RMM:  11    -0.420303628326E+03    0.41430E-04   -0.10211E-04  4802   0.272E-02    0.676E-02
RMM:  12    -0.420303633422E+03   -0.50956E-05   -0.41646E-05  3960   0.209E-02
   2 F= -.42030363E+03 E0= -.42028999E+03  d E =-.156456E+00  mag=    62.0000
       N       E                     dE             d eps       ncg     rms          rms(c)
DAV:   1    -0.419869376105E+03    0.43425E+00   -0.12132E+01  6432   0.344E+01    0.274E+00
RMM:   2    -0.420342838506E+03   -0.47346E+00   -0.45313E+00  7030   0.518E+00    0.147E+00
RMM:   3    -0.420377844236E+03   -0.35006E-01   -0.25004E-01  6099   0.155E+00    0.178E+00
RMM:   4    -0.420368840469E+03    0.90038E-02   -0.18472E-02  6007   0.343E-01    0.443E-01
RMM:   5    -0.420369073512E+03   -0.23304E-03   -0.32943E-03  5916   0.137E-01    0.369E-01
RMM:   6    -0.420369057278E+03    0.16234E-04   -0.10113E-03  5519   0.878E-02    0.559E-01
RMM:   7    -0.420368367935E+03    0.68934E-03   -0.12294E-03  5439   0.962E-02    0.184E-01
RMM:   8    -0.420368336986E+03    0.30949E-04   -0.64375E-04  5700   0.676E-02    0.635E-02
RMM:   9    -0.420368332577E+03    0.44094E-05   -0.78848E-05  4473   0.264E-02
   3 F= -.42036833E+03 E0= -.42035481E+03  d E =-.646992E-01  mag=    62.0000
       N       E                     dE             d eps       ncg     rms          rms(c)
DAV:   1    -0.420336760371E+03    0.31577E-01   -0.19995E+00  6008   0.109E+01    0.911E-01
RMM:   2    -0.420392438583E+03   -0.55678E-01   -0.51548E-01  7218   0.188E+00    0.102E+00
RMM:   3    -0.420396785313E+03   -0.43467E-02   -0.25723E-02  5830   0.458E-01    0.133E+00
RMM:   4    -0.420392676369E+03    0.41089E-02   -0.34636E-03  5605   0.183E-01    0.375E-01
RMM:   5    -0.420392849807E+03   -0.17344E-03   -0.58808E-04  5374   0.711E-02    0.151E-01
RMM:   6    -0.420392765119E+03    0.84688E-04   -0.25828E-04  5144   0.389E-02    0.856E-02
RMM:   7    -0.420392718629E+03    0.46489E-04   -0.28245E-04  5223   0.426E-02    0.833E-02
RMM:   8    -0.420392706473E+03    0.12156E-04   -0.86557E-05  4472   0.271E-02    0.784E-02
RMM:   9    -0.420392688984E+03    0.17490E-04   -0.20202E-05  3240   0.149E-02    0.175E-02
RMM:  10    -0.420392690225E+03   -0.12417E-05   -0.56800E-06  2767   0.101E-02
   4 F= -.42039269E+03 E0= -.42037908E+03  d E =-.243576E-01  mag=    62.0000
       N       E                     dE             d eps       ncg     rms          rms(c)
DAV:   1    -0.419929948431E+03    0.46274E+00   -0.30665E+01  5504   0.330E+01    0.276E+00
RMM:   2    -0.420492804324E+03   -0.56286E+00   -0.49181E+00  7291   0.626E+00    0.489E+00
RMM:   3    -0.420449168617E+03    0.43636E-01   -0.21140E-01  5794   0.126E+00    0.276E+00
RMM:   4    -0.420436851029E+03    0.12318E-01   -0.29898E-02  5894   0.523E-01    0.126E+00
RMM:   5    -0.420433467048E+03    0.33840E-02   -0.50166E-03  5780   0.202E-01    0.479E-01
RMM:   6    -0.420432015557E+03    0.14515E-02   -0.32874E-03  5555   0.122E-01    0.301E-01
RMM:   7    -0.420431288508E+03    0.72705E-03   -0.33448E-03  5509   0.145E-01    0.181E-01
RMM:   8    -0.420431198364E+03    0.90144E-04   -0.70256E-04  5955   0.682E-02    0.937E-02
RMM:   9    -0.420431175990E+03    0.22374E-04   -0.82668E-05  4395   0.281E-02    0.454E-02
RMM:  10    -0.420431177699E+03   -0.17096E-05   -0.18252E-05  3276   0.147E-02
   5 F= -.42043118E+03 E0= -.42041736E+03  d E =-.384875E-01  mag=    62.0000
       N       E                     dE             d eps       ncg     rms          rms(c)
DAV:   1    -0.420361455999E+03    0.69720E-01   -0.54692E+00  5384   0.124E+01    0.106E+00
RMM:   2    -0.420450430018E+03   -0.88974E-01   -0.76008E-01  7249   0.238E+00    0.247E+00
RMM:   3    -0.420438345412E+03    0.12085E-01   -0.33948E-02  5810   0.497E-01    0.117E+00
RMM:   4    -0.420438375745E+03   -0.30334E-04   -0.57738E-03  5815   0.228E-01    0.748E-01
RMM:   5    -0.420436884652E+03    0.14911E-02   -0.12100E-03  5450   0.101E-01    0.223E-01
RMM:   6    -0.420436772450E+03    0.11220E-03   -0.66954E-04  5334   0.568E-02    0.119E-01
RMM:   7    -0.420436734294E+03    0.38156E-04   -0.46506E-04  5194   0.598E-02    0.999E-02
RMM:   8    -0.420436725123E+03    0.91711E-05   -0.12567E-04  4758   0.302E-02    0.829E-02
RMM:   9    -0.420436708496E+03    0.16627E-04   -0.21680E-05  3281   0.155E-02    0.354E-02
RMM:  10    -0.420436707277E+03    0.12189E-05   -0.73312E-06  2902   0.109E-02
   6 F= -.42043671E+03 E0= -.42042292E+03  d E =-.552958E-02  mag=    62.0000
       N       E                     dE             d eps       ncg     rms          rms(c)
DAV:   1    -0.420288053694E+03    0.14865E+00   -0.99021E+00  5456   0.182E+01    0.146E+00
RMM:   2    -0.420460309932E+03   -0.17226E+00   -0.15483E+00  7299   0.345E+00    0.280E+00
RMM:   3    -0.420450356546E+03    0.99534E-02   -0.62085E-02  5838   0.682E-01    0.168E+00
RMM:   4    -0.420446553930E+03    0.38026E-02   -0.10210E-02  5806   0.308E-01    0.832E-01
RMM:   5    -0.420444942053E+03    0.16119E-02   -0.19423E-03  5577   0.125E-01    0.340E-01
RMM:   6    -0.420444653894E+03    0.28816E-03   -0.11441E-03  5515   0.745E-02    0.187E-01
RMM:   7    -0.420444506217E+03    0.14768E-03   -0.88889E-04  5415   0.810E-02    0.122E-01
RMM:   8    -0.420444487280E+03    0.18937E-04   -0.27913E-04  5510   0.439E-02    0.849E-02
RMM:   9    -0.420444471335E+03    0.15945E-04   -0.27598E-05  3446   0.179E-02    0.483E-02
RMM:  10    -0.420444469121E+03    0.22146E-05   -0.88990E-06  2981   0.117E-02
   7 F= -.42044447E+03 E0= -.42043081E+03  d E =-.776184E-02  mag=    62.0000
       N       E                     dE             d eps       ncg     rms          rms(c)
DAV:   1    -0.420388240739E+03    0.56231E-01   -0.44361E+00  5504   0.123E+01    0.959E-01
RMM:   2    -0.420459323336E+03   -0.71083E-01   -0.66258E-01  7338   0.229E+00    0.134E+00
RMM:   3    -0.420460381468E+03   -0.10581E-02   -0.24482E-02  5850   0.433E-01    0.118E+00
RMM:   4    -0.420456849542E+03    0.35319E-02   -0.38082E-03  5660   0.192E-01    0.399E-01
RMM:   5    -0.420456746791E+03    0.10275E-03   -0.67161E-04  5420   0.722E-02    0.223E-01
RMM:   6    -0.420456547796E+03    0.19899E-03   -0.45150E-04  5177   0.469E-02    0.116E-01
RMM:   7    -0.420456486007E+03    0.61789E-04   -0.44786E-04  5255   0.580E-02    0.836E-02
RMM:   8    -0.420456480451E+03    0.55561E-05   -0.12172E-04  4770   0.295E-02    0.813E-02
RMM:   9    -0.420456463964E+03    0.16487E-04   -0.17139E-05  3175   0.142E-02    0.371E-02
RMM:  10    -0.420456462994E+03    0.97087E-06   -0.57406E-06  2844   0.975E-03
   8 F= -.42045646E+03 E0= -.42044291E+03  d E =-.119939E-01  mag=    62.0000
       N       E                     dE             d eps       ncg     rms          rms(c)
DAV:   1    -0.420300192619E+03    0.15627E+00   -0.12936E+01  5472   0.190E+01    0.143E+00
RMM:   2    -0.420475128579E+03   -0.17494E+00   -0.16655E+00  7280   0.365E+00    0.170E+00
RMM:   3    -0.420478118970E+03   -0.29904E-02   -0.59177E-02  5963   0.651E-01    0.154E+00
RMM:   4    -0.420469833375E+03    0.82856E-02   -0.84800E-03  5745   0.268E-01    0.356E-01
RMM:   5    -0.420470128936E+03   -0.29556E-03   -0.14915E-03  5757   0.956E-02    0.489E-01
RMM:   6    -0.420469168803E+03    0.96013E-03   -0.10495E-03  5486   0.732E-02    0.180E-01
RMM:   7    -0.420469064030E+03    0.10477E-03   -0.13864E-03  5458   0.932E-02    0.174E-01
RMM:   8    -0.420469039600E+03    0.24430E-04   -0.28436E-04  5409   0.442E-02    0.161E-01
RMM:   9    -0.420468974730E+03    0.64870E-04   -0.63198E-05  4050   0.241E-02    0.583E-02
RMM:  10    -0.420468973114E+03    0.16158E-05   -0.12602E-05  3112   0.128E-02
   9 F= -.42046897E+03 E0= -.42045559E+03  d E =-.125101E-01  mag=    62.0000
       N       E                     dE             d eps       ncg     rms          rms(c)
DAV:   1    -0.420409767644E+03    0.59207E-01   -0.47740E+00  5568   0.112E+01    0.862E-01
RMM:   2    -0.420473081506E+03   -0.63314E-01   -0.61040E-01  7281   0.212E+00    0.808E-01
RMM:   3    -0.420475456156E+03   -0.23747E-02   -0.19193E-02  6101   0.363E-01    0.917E-01
RMM:   4    -0.420472386081E+03    0.30701E-02   -0.28747E-03  5715   0.149E-01    0.173E-01
RMM:   5    -0.420472443348E+03   -0.57266E-04   -0.64503E-04  5523   0.566E-02    0.271E-01
RMM:   6    -0.420472189994E+03    0.25335E-03   -0.26835E-04  5319   0.401E-02    0.123E-01
RMM:   7    -0.420472133540E+03    0.56454E-04   -0.49639E-04  5279   0.519E-02    0.928E-02
RMM:   8    -0.420472125307E+03    0.82333E-05   -0.68090E-05  4193   0.246E-02
  10 F= -.42047213E+03 E0= -.42045881E+03  d E =-.315219E-02  mag=    62.0000
       N       E                     dE             d eps       ncg     rms          rms(c)
DAV:   1    -0.420354893552E+03    0.11724E+00   -0.64414E+00  5712   0.157E+01    0.123E+00
RMM:   2    -0.420476310533E+03   -0.12142E+00   -0.11563E+00  7313   0.289E+00    0.121E+00
RMM:   3    -0.420481678017E+03   -0.53675E-02   -0.42523E-02  5897   0.564E-01    0.130E+00
RMM:   4    -0.420476066905E+03    0.56111E-02   -0.59491E-03  5850   0.220E-01    0.354E-01
RMM:   5    -0.420476103680E+03   -0.36776E-04   -0.97476E-04  5445   0.814E-02    0.282E-01
RMM:   6    -0.420475689969E+03    0.41371E-03   -0.61098E-04  5365   0.544E-02    0.146E-01
RMM:   7    -0.420475556618E+03    0.13335E-03   -0.81653E-04  5426   0.731E-02    0.120E-01
RMM:   8    -0.420475567699E+03   -0.11081E-04   -0.19595E-04  5099   0.384E-02    0.154E-01
RMM:   9    -0.420475505501E+03    0.62197E-04   -0.41922E-05  3730   0.211E-02    0.380E-02
RMM:  10    -0.420475509781E+03   -0.42793E-05   -0.93707E-06  3010   0.120E-02
  11 F= -.42047551E+03 E0= -.42046226E+03  d E =-.338447E-02  mag=    62.0000
       N       E                     dE             d eps       ncg     rms          rms(c)
DAV:   1    -0.420417988270E+03    0.57517E-01   -0.30277E+00  5904   0.119E+01    0.956E-01
RMM:   2    -0.420486685294E+03   -0.68697E-01   -0.62404E-01  7259   0.212E+00    0.153E+00
RMM:   3    -0.420486210934E+03    0.47436E-03   -0.26210E-02  5772   0.475E-01    0.110E+00
RMM:   4    -0.420483741955E+03    0.24690E-02   -0.40622E-03  5758   0.193E-01    0.379E-01
RMM:   5    -0.420483425924E+03    0.31603E-03   -0.66209E-04  5350   0.721E-02    0.174E-01
RMM:   6    -0.420483247584E+03    0.17834E-03   -0.39382E-04  5211   0.412E-02    0.105E-01
RMM:   7    -0.420483190904E+03    0.56679E-04   -0.39941E-04  5177   0.551E-02    0.862E-02
RMM:   8    -0.420483185318E+03    0.55859E-05   -0.75608E-05  4332   0.255E-02
  12 F= -.42048319E+03 E0= -.42046999E+03  d E =-.767554E-02  mag=    62.0000
       N       E                     dE             d eps       ncg     rms          rms(c)
DAV:   1    -0.420386960730E+03    0.96230E-01   -0.61682E+00  5608   0.150E+01    0.129E+00
RMM:   2    -0.420507624128E+03   -0.12066E+00   -0.10693E+00  7286   0.279E+00    0.250E+00
RMM:   3    -0.420499761974E+03    0.78622E-02   -0.45496E-02  5717   0.601E-01    0.131E+00
RMM:   4    -0.420497172743E+03    0.25892E-02   -0.72080E-03  5849   0.255E-01    0.517E-01
RMM:   5    -0.420496311695E+03    0.86105E-03   -0.11404E-03  5464   0.928E-02    0.288E-01
RMM:   6    -0.420495873211E+03    0.43848E-03   -0.83583E-04  5428   0.583E-02    0.143E-01
RMM:   7    -0.420495802192E+03    0.71019E-04   -0.67596E-04  5127   0.737E-02    0.129E-01
RMM:   8    -0.420495784266E+03    0.17926E-04   -0.14005E-04  4793   0.324E-02    0.865E-02
RMM:   9    -0.420495769207E+03    0.15060E-04   -0.20460E-05  3239   0.157E-02    0.447E-02
RMM:  10    -0.420495767648E+03    0.15583E-05   -0.82351E-06  2968   0.112E-02
  13 F= -.42049577E+03 E0= -.42048265E+03  d E =-.125823E-01  mag=    62.0000
       N       E                     dE             d eps       ncg     rms          rms(c)
DAV:   1    -0.420457842774E+03    0.37926E-01   -0.30994E+00  5480   0.987E+00    0.873E-01
RMM:   2    -0.420512204011E+03   -0.54361E-01   -0.47606E-01  7243   0.186E+00    0.182E+00
RMM:   3    -0.420506578632E+03    0.56254E-02   -0.21726E-02  5764   0.402E-01    0.823E-01
RMM:   4    -0.420505808846E+03    0.76979E-03   -0.31921E-03  5768   0.170E-01    0.327E-01
RMM:   5    -0.420505427569E+03    0.38128E-03   -0.54471E-04  5356   0.630E-02    0.188E-01
RMM:   6    -0.420505226424E+03    0.20114E-03   -0.42207E-04  5155   0.415E-02    0.114E-01
RMM:   7    -0.420505303242E+03   -0.76817E-04   -0.19937E-04  4767   0.422E-02    0.241E-01
RMM:   8    -0.420505170132E+03    0.13311E-03   -0.14254E-04  4705   0.341E-02    0.593E-02
RMM:   9    -0.420505182198E+03   -0.12067E-04   -0.19433E-05  3199   0.157E-02    0.983E-03
RMM:  10    -0.420505185074E+03   -0.28756E-05   -0.55657E-06  2769   0.962E-03
  14 F= -.42050519E+03 E0= -.42049214E+03  d E =-.941743E-02  mag=    62.0000
       N       E                     dE             d eps       ncg     rms          rms(c)
DAV:   1    -0.420463924665E+03    0.41258E-01   -0.30024E+00  5696   0.106E+01    0.887E-01
RMM:   2    -0.420515672705E+03   -0.51748E-01   -0.46947E-01  7304   0.191E+00    0.142E+00
RMM:   3    -0.420513899936E+03    0.17728E-02   -0.19344E-02  5799   0.394E-01    0.851E-01
RMM:   4    -0.420512188771E+03    0.17112E-02   -0.29456E-03  5724   0.167E-01    0.277E-01
RMM:   5    -0.420511967621E+03    0.22115E-03   -0.52365E-04  5460   0.614E-02    0.178E-01
RMM:   6    -0.420511826381E+03    0.14124E-03   -0.40176E-04  5286   0.419E-02    0.163E-01
RMM:   7    -0.420511816928E+03    0.94535E-05   -0.16097E-04  4782   0.352E-02    0.186E-01
RMM:   8    -0.420511750021E+03    0.66907E-04   -0.15419E-04  4842   0.342E-02    0.538E-02
RMM:   9    -0.420511750256E+03   -0.23481E-06   -0.24754E-05  3370   0.167E-02
  15 F= -.42051175E+03 E0= -.42049876E+03  d E =-.656518E-02  mag=    62.0000
       N       E                     dE             d eps       ncg     rms          rms(c)
DAV:   1    -0.420480381785E+03    0.31368E-01   -0.17118E+00  5688   0.889E+00    0.713E-01
RMM:   2    -0.420515708716E+03   -0.35327E-01   -0.33262E-01  7349   0.158E+00    0.734E-01
RMM:   3    -0.420517101339E+03   -0.13926E-02   -0.12178E-02  5837   0.309E-01    0.669E-01
RMM:   4    -0.420515586440E+03    0.15149E-02   -0.17768E-03  5615   0.130E-01    0.172E-01
RMM:   5    -0.420515565593E+03    0.20847E-04   -0.28718E-04  5313   0.448E-02    0.149E-01
RMM:   6    -0.420515531212E+03    0.34381E-04   -0.14795E-04  4880   0.304E-02    0.180E-01
RMM:   7    -0.420515435293E+03    0.95919E-04   -0.16022E-04  4937   0.308E-02    0.745E-02
RMM:   8    -0.420515427347E+03    0.79465E-05   -0.10692E-04  4577   0.283E-02    0.313E-02
RMM:   9    -0.420515423975E+03    0.33721E-05   -0.13070E-05  3066   0.126E-02
  16 F= -.42051542E+03 E0= -.42050246E+03  d E =-.367372E-02  mag=    62.0000
       N       E                     dE             d eps       ncg     rms          rms(c)
DAV:   1    -0.420471675643E+03    0.43752E-01   -0.22751E+00  5608   0.100E+01    0.782E-01
RMM:   2    -0.420519095483E+03   -0.47420E-01   -0.45332E-01  7341   0.183E+00    0.616E-01
RMM:   3    -0.420521245364E+03   -0.21499E-02   -0.15684E-02  6015   0.338E-01    0.629E-01
RMM:   4    -0.420519794084E+03    0.14513E-02   -0.18409E-03  5669   0.126E-01    0.244E-01
RMM:   5    -0.420519729294E+03    0.64790E-04   -0.29099E-04  5303   0.460E-02    0.170E-01
RMM:   6    -0.420519640121E+03    0.89173E-04   -0.17017E-04  4961   0.340E-02    0.133E-01
RMM:   7    -0.420519557984E+03    0.82136E-04   -0.23202E-04  5172   0.358E-02    0.841E-02
RMM:   8    -0.420519530783E+03    0.27201E-04   -0.14846E-04  4881   0.327E-02    0.312E-02
RMM:   9    -0.420519526436E+03    0.43473E-05   -0.14669E-05  3128   0.133E-02
  17 F= -.42051953E+03 E0= -.42050657E+03  d E =-.410246E-02  mag=    62.0000
       N       E                     dE             d eps       ncg     rms          rms(c)
DAV:   1    -0.420498557279E+03    0.20974E-01   -0.12681E+00  5528   0.708E+00    0.541E-01
RMM:   2    -0.420523773282E+03   -0.25216E-01   -0.24350E-01  7326   0.130E+00    0.314E-01
RMM:   3    -0.420524849978E+03   -0.10767E-02   -0.78658E-03  6296   0.236E-01    0.314E-01
RMM:   4    -0.420524475428E+03    0.37455E-03   -0.76218E-04  5552   0.748E-02    0.130E-01
RMM:   5    -0.420524464971E+03    0.10457E-04   -0.11929E-04  4617   0.306E-02    0.138E-01
RMM:   6    -0.420524396067E+03    0.68904E-04   -0.81436E-05  4387   0.231E-02    0.807E-02
RMM:   7    -0.420524386521E+03    0.95466E-05   -0.10186E-04  4558   0.264E-02    0.763E-02
RMM:   8    -0.420524361484E+03    0.25037E-04   -0.61682E-05  4234   0.213E-02    0.130E-02
RMM:   9    -0.420524362591E+03   -0.11069E-05   -0.59717E-06  2775   0.953E-03
  18 F= -.42052436E+03 E0= -.42051139E+03  d E =-.483615E-02  mag=    62.0000
       N       E                     dE             d eps       ncg     rms          rms(c)
DAV:   1    -0.420496319155E+03    0.28042E-01   -0.19051E+00  5576   0.852E+00    0.652E-01
RMM:   2    -0.420529621173E+03   -0.33302E-01   -0.32122E-01  7334   0.154E+00    0.367E-01
RMM:   3    -0.420530968954E+03   -0.13478E-02   -0.96329E-03  6398   0.265E-01    0.329E-01
RMM:   4    -0.420530574728E+03    0.39423E-03   -0.90500E-04  5623   0.803E-02    0.175E-01
RMM:   5    -0.420530541380E+03    0.33347E-04   -0.14973E-04  4764   0.347E-02    0.161E-01
RMM:   6    -0.420530442646E+03    0.98735E-04   -0.12914E-04  4708   0.283E-02    0.856E-02
RMM:   7    -0.420530436834E+03    0.58113E-05   -0.14289E-04  4882   0.311E-02    0.875E-02
RMM:   8    -0.420530400442E+03    0.36393E-04   -0.75550E-05  4374   0.239E-02    0.142E-02
RMM:   9    -0.420530402180E+03   -0.17378E-05   -0.71411E-06  2834   0.101E-02
  19 F= -.42053040E+03 E0= -.42051741E+03  d E =-.603959E-02  mag=    62.0000
       N       E                     dE             d eps       ncg     rms          rms(c)
DAV:   1    -0.420508977707E+03    0.21423E-01   -0.12677E+00  5528   0.732E+00    0.545E-01
RMM:   2    -0.420533967360E+03   -0.24990E-01   -0.24241E-01  7347   0.133E+00    0.295E-01
RMM:   3    -0.420534949824E+03   -0.98246E-03   -0.72783E-03  6375   0.226E-01    0.255E-01
RMM:   4    -0.420534688048E+03    0.26178E-03   -0.70425E-04  5589   0.709E-02    0.104E-01
RMM:   5    -0.420534683186E+03    0.48618E-05   -0.11546E-04  4698   0.303E-02    0.164E-01
RMM:   6    -0.420534607951E+03    0.75235E-04   -0.72479E-05  4328   0.238E-02    0.845E-02
RMM:   7    -0.420534601969E+03    0.59814E-05   -0.10673E-04  4528   0.267E-02    0.687E-02
RMM:   8    -0.420534579139E+03    0.22831E-04   -0.51061E-05  4088   0.202E-02    0.125E-02
RMM:   9    -0.420534580258E+03   -0.11195E-05   -0.54649E-06  2753   0.871E-03
  20 F= -.42053458E+03 E0= -.42052158E+03  d E =-.417808E-02  mag=    62.0000
       N       E                     dE             d eps       ncg     rms          rms(c)
DAV:   1    -0.420513413602E+03    0.21166E-01   -0.13953E+00  5520   0.719E+00    0.534E-01
RMM:   2    -0.420537705315E+03   -0.24292E-01   -0.23561E-01  7367   0.134E+00    0.306E-01
RMM:   3    -0.420538572706E+03   -0.86739E-03   -0.68112E-03  6297   0.214E-01    0.285E-01
RMM:   4    -0.420538244401E+03    0.32831E-03   -0.73004E-04  5636   0.721E-02    0.141E-01
RMM:   5    -0.420538223368E+03    0.21032E-04   -0.10718E-04  4545   0.299E-02    0.146E-01
RMM:   6    -0.420538145998E+03    0.77370E-04   -0.85293E-05  4338   0.248E-02    0.774E-02
RMM:   7    -0.420538123747E+03    0.22252E-04   -0.12718E-04  4658   0.264E-02    0.600E-02
RMM:   8    -0.420538105194E+03    0.18552E-04   -0.52902E-05  4141   0.209E-02    0.111E-02
RMM:   9    -0.420538105948E+03   -0.75383E-06   -0.54958E-06  2753   0.845E-03
  21 F= -.42053811E+03 E0= -.42052510E+03  d E =-.352569E-02  mag=    62.0000
       N       E                     dE             d eps       ncg     rms          rms(c)
DAV:   1    -0.420530423999E+03    0.76812E-02   -0.62938E-01  5408   0.448E+00    0.344E-01
RMM:   2    -0.420540600227E+03   -0.10176E-01   -0.98561E-02  7380   0.850E-01    0.215E-01
RMM:   3    -0.420540970251E+03   -0.37002E-03   -0.28998E-03  6232   0.137E-01    0.208E-01
RMM:   4    -0.420540779403E+03    0.19085E-03   -0.31600E-04  5278   0.496E-02    0.794E-02
RMM:   5    -0.420540776761E+03    0.26417E-05   -0.46687E-05  3688   0.211E-02
  22 F= -.42054078E+03 E0= -.42052780E+03  d E =-.267081E-02  mag=    62.0000
       N       E                     dE             d eps       ncg     rms          rms(c)
DAV:   1    -0.420518980886E+03    0.21799E-01   -0.17692E+00  5280   0.711E+00    0.533E-01
RMM:   2    -0.420544817930E+03   -0.25837E-01   -0.25026E-01  7336   0.136E+00    0.421E-01
RMM:   3    -0.420546252439E+03   -0.14345E-02   -0.80948E-03  6204   0.224E-01    0.773E-01
RMM:   4    -0.420544939059E+03    0.13134E-02   -0.11500E-03  5586   0.987E-02    0.285E-01
RMM:   5    -0.420544907021E+03    0.32038E-04   -0.29884E-04  4839   0.545E-02    0.104E-01
RMM:   6    -0.420544818036E+03    0.88985E-04   -0.18383E-04  4855   0.322E-02    0.807E-02
RMM:   7    -0.420544781265E+03    0.36771E-04   -0.21815E-04  5124   0.352E-02    0.586E-02
RMM:   8    -0.420544764184E+03    0.17081E-04   -0.48684E-05  4002   0.214E-02    0.248E-02
RMM:   9    -0.420544763643E+03    0.54140E-06   -0.60254E-06  2764   0.925E-03
  23 F= -.42054476E+03 E0= -.42053182E+03  d E =-.398688E-02  mag=    62.0000
       N       E                     dE             d eps       ncg     rms          rms(c)
DAV:   1    -0.420537549999E+03    0.72142E-02   -0.55662E-01  5640   0.452E+00    0.334E-01
RMM:   2    -0.420546883914E+03   -0.93339E-02   -0.90592E-02  7356   0.818E-01    0.212E-01
RMM:   3    -0.420547313527E+03   -0.42961E-03   -0.27876E-03  6333   0.139E-01    0.237E-01
RMM:   4    -0.420547138542E+03    0.17498E-03   -0.30366E-04  5247   0.490E-02    0.161E-01
RMM:   5    -0.420547097492E+03    0.41050E-04   -0.58215E-05  3966   0.256E-02    0.667E-02
RMM:   6    -0.420547077413E+03    0.20080E-04   -0.37734E-05  3846   0.176E-02    0.412E-02
RMM:   7    -0.420547066753E+03    0.10659E-04   -0.51950E-05  4134   0.178E-02    0.335E-02
RMM:   8    -0.420547060780E+03    0.59737E-05   -0.16825E-05  2998   0.127E-02
  24 F= -.42054706E+03 E0= -.42053416E+03  d E =-.229714E-02  mag=    62.0000
       N       E                     dE             d eps       ncg     rms          rms(c)
DAV:   1    -0.420510486301E+03    0.36580E-01   -0.25629E+00  5528   0.919E+00    0.686E-01
RMM:   2    -0.420549891732E+03   -0.39405E-01   -0.38281E-01  7397   0.169E+00    0.453E-01
RMM:   3    -0.420551956840E+03   -0.20651E-02   -0.11017E-02  6387   0.270E-01    0.664E-01
RMM:   4    -0.420550902059E+03    0.10548E-02   -0.13097E-03  5617   0.102E-01    0.368E-01
RMM:   5    -0.420550717784E+03    0.18428E-03   -0.35601E-04  4893   0.589E-02    0.120E-01
RMM:   6    -0.420550624526E+03    0.93258E-04   -0.18861E-04  4895   0.330E-02    0.804E-02
RMM:   7    -0.420550581833E+03    0.42694E-04   -0.23407E-04  5211   0.359E-02    0.668E-02
RMM:   8    -0.420550554853E+03    0.26980E-04   -0.73072E-05  4389   0.246E-02    0.220E-02
RMM:   9    -0.420550554702E+03    0.15012E-06   -0.73453E-06  2844   0.943E-03
  25 F= -.42055055E+03 E0= -.42053777E+03  d E =-.349392E-02  mag=    62.0000
       N       E                     dE             d eps       ncg     rms          rms(c)
DAV:   1    -0.420547110999E+03    0.34439E-02   -0.27805E-01  5608   0.303E+00    0.230E-01
RMM:   2    -0.420551746306E+03   -0.46353E-02   -0.45034E-02  7376   0.561E-01    0.151E-01
RMM:   3    -0.420551949967E+03   -0.20366E-03   -0.13360E-03  6105   0.926E-02    0.185E-01
RMM:   4    -0.420551856065E+03    0.93902E-04   -0.16215E-04  4777   0.368E-02    0.124E-01
RMM:   5    -0.420551832048E+03    0.24017E-04   -0.30682E-05  3457   0.195E-02    0.427E-02
RMM:   6    -0.420551821794E+03    0.10254E-04   -0.16942E-05  2974   0.137E-02    0.270E-02
RMM:   7    -0.420551818544E+03    0.32498E-05   -0.34135E-05  3728   0.150E-02
  26 F= -.42055182E+03 E0= -.42053906E+03  d E =-.126384E-02  mag=    62.0000
       N       E                     dE             d eps       ncg     rms          rms(c)
DAV:   1    -0.420509557507E+03    0.42264E-01   -0.27812E+00  5384   0.922E+00    0.699E-01
RMM:   2    -0.420554156040E+03   -0.44599E-01   -0.43368E-01  7356   0.173E+00    0.438E-01
RMM:   3    -0.420556003451E+03   -0.18474E-02   -0.13107E-02  6301   0.284E-01    0.589E-01
RMM:   4    -0.420555115929E+03    0.88752E-03   -0.15616E-03  5625   0.107E-01    0.369E-01
RMM:   5    -0.420554909912E+03    0.20602E-03   -0.33201E-04  4927   0.572E-02    0.127E-01
RMM:   6    -0.420554809495E+03    0.10042E-03   -0.17951E-04  4876   0.329E-02    0.839E-02
RMM:   7    -0.420554762307E+03    0.47188E-04   -0.28315E-04  5267   0.386E-02    0.652E-02
RMM:   8    -0.420554735382E+03    0.26925E-04   -0.66217E-05  4336   0.250E-02    0.207E-02
RMM:   9    -0.420554735225E+03    0.15739E-06   -0.69572E-06  2809   0.924E-03
  27 F= -.42055474E+03 E0= -.42054213E+03  d E =-.291668E-02  mag=    62.0000
       N       E                     dE             d eps       ncg     rms          rms(c)
DAV:   1    -0.420550870044E+03    0.38653E-02   -0.28654E-01  5544   0.308E+00    0.246E-01
RMM:   2    -0.420555632683E+03   -0.47626E-02   -0.45930E-02  7354   0.574E-01    0.152E-01
RMM:   3    -0.420555952375E+03   -0.31969E-03   -0.13627E-03  6016   0.961E-02    0.321E-01
RMM:   4    -0.420555720192E+03    0.23218E-03   -0.19301E-04  4989   0.429E-02    0.102E-01
RMM:   5    -0.420555732349E+03   -0.12156E-04   -0.44239E-05  3775   0.236E-02    0.370E-02
RMM:   6    -0.420555719849E+03    0.12499E-04   -0.18828E-05  3003   0.131E-02    0.251E-02
RMM:   7    -0.420555716165E+03    0.36843E-05   -0.35281E-05  3750   0.151E-02
  28 F= -.42055572E+03 E0= -.42054314E+03  d E =-.980940E-03  mag=    62.0000
       N       E                     dE             d eps       ncg     rms          rms(c)
DAV:   1    -0.420501345660E+03    0.54374E-01   -0.37987E+00  5440   0.106E+01    0.829E-01
RMM:   2    -0.420556394423E+03   -0.55049E-01   -0.53132E-01  7361   0.197E+00    0.524E-01
RMM:   3    -0.420560198952E+03   -0.38045E-02   -0.15522E-02  6215   0.323E-01    0.115E+00
RMM:   4    -0.420557130590E+03    0.30684E-02   -0.23158E-03  5598   0.144E-01    0.315E-01
RMM:   5    -0.420557343426E+03   -0.21284E-03   -0.54452E-04  4973   0.751E-02    0.129E-01
RMM:   6    -0.420557178802E+03    0.16462E-03   -0.26595E-04  4826   0.394E-02    0.838E-02
RMM:   7    -0.420557121476E+03    0.57326E-04   -0.36326E-04  5165   0.483E-02    0.335E-02
RMM:   8    -0.420557119581E+03    0.18949E-05   -0.32026E-05  3586   0.185E-02
  29 F= -.42055712E+03 E0= -.42054472E+03  d E =-.140342E-02  mag=    62.0000
       N       E                     dE             d eps       ncg     rms          rms(c)
DAV:   1    -0.420556302818E+03    0.81866E-03   -0.50734E-02  6080   0.159E+00    0.134E-01
RMM:   2    -0.420557492690E+03   -0.11899E-02   -0.11015E-02  7259   0.275E-01    0.164E-01
RMM:   3    -0.420557655756E+03   -0.16307E-03   -0.45227E-04  5353   0.596E-02    0.314E-01
RMM:   4    -0.420557461028E+03    0.19473E-03   -0.10377E-04  4440   0.353E-02    0.412E-02
RMM:   5    -0.420557496871E+03   -0.35843E-04   -0.15126E-05  3116   0.152E-02    0.175E-02
RMM:   6    -0.420557497537E+03   -0.66547E-06   -0.83802E-06  2741   0.994E-03
  30 F= -.42055750E+03 E0= -.42054512E+03  d E =-.377956E-03  mag=    62.0000
       N       E                     dE             d eps       ncg     rms          rms(c)
DAV:   1    -0.420530726345E+03    0.26771E-01   -0.11195E+00  5736   0.747E+00    0.616E-01
RMM:   2    -0.420555716524E+03   -0.24990E-01   -0.23938E-01  7250   0.129E+00    0.324E-01
RMM:   3    -0.420557129370E+03   -0.14128E-02   -0.94771E-03  6316   0.271E-01    0.338E-01
RMM:   4    -0.420556791872E+03    0.33750E-03   -0.75436E-04  5575   0.693E-02    0.203E-01
RMM:   5    -0.420556742913E+03    0.48959E-04   -0.13790E-04  4592   0.363E-02    0.121E-01
RMM:   6    -0.420556668058E+03    0.74855E-04   -0.12288E-04  4448   0.250E-02    0.564E-02
RMM:   7    -0.420556644773E+03    0.23285E-04   -0.15354E-04  4929   0.327E-02    0.298E-02
RMM:   8    -0.420556640344E+03    0.44294E-05   -0.21829E-05  3309   0.147E-02
  31 F= -.42055664E+03 E0= -.42054444E+03  d E =0.857193E-03  mag=    62.0000
       N       E                     dE             d eps       ncg     rms          rms(c)
DAV:   1    -0.420549736977E+03    0.69078E-02   -0.55711E-01  5312   0.375E+00    0.278E-01
RMM:   2    -0.420557131107E+03   -0.73941E-02   -0.72215E-02  7328   0.720E-01    0.147E-01
RMM:   3    -0.420557408737E+03   -0.27763E-03   -0.21048E-03  6441   0.112E-01    0.217E-01
RMM:   4    -0.420557292341E+03    0.11640E-03   -0.20998E-04  4990   0.393E-02    0.108E-01
RMM:   5    -0.420557278821E+03    0.13520E-04   -0.39680E-05  3679   0.216E-02    0.563E-02
RMM:   6    -0.420557253555E+03    0.25266E-04   -0.27664E-05  3331   0.155E-02    0.336E-02
RMM:   7    -0.420557244686E+03    0.88690E-05   -0.66098E-05  4232   0.201E-02
  32 F= -.42055724E+03 E0= -.42054507E+03  d E =-.604343E-03  mag=    62.0000
       N       E                     dE             d eps       ncg     rms          rms(c)
DAV:   1    -0.420229493381E+03    0.32776E+00   -0.23952E+01  5328   0.246E+01    0.182E+00
RMM:   2    -0.420549433304E+03   -0.31994E+00   -0.31290E+00  7341   0.475E+00    0.999E-01
RMM:   3    -0.420566866775E+03   -0.17433E-01   -0.90146E-02  6589   0.739E-01    0.238E+00
RMM:   4    -0.420553781819E+03    0.13085E-01   -0.10124E-02  5787   0.287E-01    0.365E-01
RMM:   5    -0.420554873598E+03   -0.10918E-02   -0.21361E-03  5473   0.123E-01    0.254E-01
RMM:   6    -0.420554614395E+03    0.25920E-03   -0.20550E-03  5494   0.113E-01    0.349E-01
RMM:   7    -0.420554107297E+03    0.50710E-03   -0.14291E-03  5500   0.994E-02    0.176E-01
RMM:   8    -0.420554052791E+03    0.54506E-04   -0.23409E-04  5566   0.421E-02    0.901E-02
RMM:   9    -0.420554062301E+03   -0.95092E-05   -0.34078E-05  3660   0.198E-02
  33 F= -.42055406E+03 E0= -.42054185E+03  d E =0.318239E-02  mag=    62.0000
       N       E                     dE             d eps       ncg     rms          rms(c)
DAV:   1    -0.420394617127E+03    0.15944E+00   -0.12510E+01  5248   0.173E+01    0.128E+00
RMM:   2    -0.420555537637E+03   -0.16092E+00   -0.15723E+00  7316   0.335E+00    0.718E-01
RMM:   3    -0.420562573196E+03   -0.70356E-02   -0.46755E-02  6560   0.527E-01    0.138E+00
RMM:   4    -0.420558261099E+03    0.43121E-02   -0.49172E-03  5829   0.193E-01    0.495E-01
RMM:   5    -0.420558330111E+03   -0.69012E-04   -0.11190E-03  5162   0.102E-01    0.253E-01
RMM:   6    -0.420557738370E+03    0.59174E-03   -0.64667E-04  5158   0.593E-02    0.151E-01
RMM:   7    -0.420557502118E+03    0.23625E-03   -0.12471E-03  5387   0.888E-02    0.773E-02
RMM:   8    -0.420557472518E+03    0.29600E-04   -0.17053E-04  5261   0.324E-02    0.386E-02
RMM:   9    -0.420557466936E+03    0.55819E-05   -0.13034E-05  3128   0.126E-02
  34 F= -.42055747E+03 E0= -.42054529E+03  d E =-.340464E-02  mag=    62.0000
       N       E                     dE             d eps       ncg     rms          rms(c)
DAV:   1    -0.420546374581E+03    0.11098E-01   -0.88406E-01  5176   0.445E+00    0.327E-01
RMM:   2    -0.420556974651E+03   -0.10600E-01   -0.10384E-01  7300   0.869E-01    0.159E-01
RMM:   3    -0.420557252085E+03   -0.27743E-03   -0.29473E-03  6694   0.128E-01    0.118E-01
RMM:   4    -0.420557185299E+03    0.66786E-04   -0.23667E-04  4923   0.386E-02    0.698E-02
RMM:   5    -0.420557146396E+03    0.38904E-04   -0.50527E-05  4067   0.195E-02    0.611E-02
RMM:   6    -0.420557154095E+03   -0.76993E-05   -0.28757E-05  3309   0.174E-02
  35 F= -.42055715E+03 E0= -.42054499E+03  d E =0.312841E-03  mag=    62.0000
       N       E                     dE             d eps       ncg     rms          rms(c)
DAV:   1    -0.420527121186E+03    0.30025E-01   -0.24658E+00  5256   0.735E+00    0.538E-01
RMM:   2    -0.420555575619E+03   -0.28454E-01   -0.27668E-01  7255   0.143E+00    0.453E-01
RMM:   3    -0.420558371679E+03   -0.27961E-02   -0.92658E-03  6288   0.240E-01    0.120E+00
RMM:   4    -0.420555155502E+03    0.32162E-02   -0.16532E-03  5469   0.124E-01    0.148E-01
RMM:   5    -0.420555696624E+03   -0.54112E-03   -0.29800E-04  4881   0.539E-02    0.112E-01
RMM:   6    -0.420555628858E+03    0.67766E-04   -0.15396E-04  4668   0.325E-02    0.747E-02
RMM:   7    -0.420555596385E+03    0.32473E-04   -0.22464E-04  4971   0.373E-02    0.419E-02
RMM:   8    -0.420555592246E+03    0.41380E-05   -0.23816E-05  3311   0.161E-02
  36 F= -.42055559E+03 E0= -.42054338E+03  d E =0.156185E-02  mag=    62.0000
       N       E                     dE             d eps       ncg     rms          rms(c)
DAV:   1    -0.420553388859E+03    0.22075E-02   -0.17788E-01  5304   0.207E+00    0.156E-01
RMM:   2    -0.420555644639E+03   -0.22558E-02   -0.21046E-02  7254   0.396E-01    0.267E-01
RMM:   3    -0.420555708215E+03   -0.63576E-04   -0.78183E-04  5721   0.734E-02    0.318E-01
RMM:   4    -0.420555537328E+03    0.17089E-03   -0.16535E-04  4789   0.431E-02    0.673E-02
RMM:   5    -0.420555552217E+03   -0.14889E-04   -0.24058E-05  3307   0.176E-02    0.276E-02
RMM:   6    -0.420555544990E+03    0.72260E-05   -0.14365E-05  2836   0.114E-02
  37 F= -.42055554E+03 E0= -.42054337E+03  d E =0.472560E-04  mag=    62.0000
       N       E                     dE             d eps       ncg     rms          rms(c)
DAV:   1    -0.420497542809E+03    0.58009E-01   -0.25740E+00  5656   0.102E+01    0.771E-01
RMM:   2    -0.420551232108E+03   -0.53689E-01   -0.49415E-01  7287   0.190E+00    0.138E+00
RMM:   3    -0.420552727348E+03   -0.14952E-02   -0.20096E-02  5869   0.391E-01    0.150E+00
RMM:   4    -0.420549171424E+03    0.35559E-02   -0.39560E-03  5506   0.202E-01    0.377E-01
RMM:   5    -0.420549322466E+03   -0.15104E-03   -0.67655E-04  5213   0.802E-02    0.141E-01
RMM:   6    -0.420549233067E+03    0.89398E-04   -0.30524E-04  5010   0.420E-02    0.785E-02
RMM:   7    -0.420549214224E+03    0.18843E-04   -0.28683E-04  5032   0.502E-02    0.464E-02
RMM:   8    -0.420549210011E+03    0.42139E-05   -0.50860E-05  3977   0.208E-02
  38 F= -.42054921E+03 E0= -.42053718E+03  d E =0.633498E-02  mag=    62.0000
       N       E                     dE             d eps       ncg     rms          rms(c)
DAV:   1    -0.420523879780E+03    0.25334E-01   -0.17367E+00  5544   0.753E+00    0.593E-01
RMM:   2    -0.420554660416E+03   -0.30781E-01   -0.28647E-01  7322   0.144E+00    0.927E-01
RMM:   3    -0.420555935986E+03   -0.12756E-02   -0.10701E-02  5905   0.271E-01    0.122E+00
RMM:   4    -0.420553278897E+03    0.26571E-02   -0.22906E-03  5399   0.151E-01    0.258E-01
RMM:   5    -0.420553539219E+03   -0.26032E-03   -0.41442E-04  4933   0.639E-02    0.981E-02
RMM:   6    -0.420553480593E+03    0.58626E-04   -0.18297E-04  4783   0.328E-02    0.694E-02
RMM:   7    -0.420553454935E+03    0.25658E-04   -0.14804E-04  4822   0.342E-02    0.451E-02
RMM:   8    -0.420553446231E+03    0.87037E-05   -0.48403E-05  4070   0.193E-02
  39 F= -.42055345E+03 E0= -.42054124E+03  d E =-.423622E-02  mag=    62.0000
