       N       E                     dE             d eps       ncg     rms          ort
DAV:   1     0.107149279685E+05    0.10715E+05   -0.46527E+05  8260   0.177E+03
DAV:   2     0.181629052474E+03   -0.10533E+05   -0.97022E+04  8260   0.491E+02
DAV:   3    -0.141040276426E+04   -0.15920E+04   -0.14376E+04  8260   0.196E+02
DAV:   4    -0.150642784885E+04   -0.96025E+02   -0.94649E+02  8260   0.470E+01
DAV:   5    -0.150763377128E+04   -0.12059E+01   -0.12035E+01  8260   0.568E+00
SDA:   6    -0.127694859761E+04    0.23069E+03   -0.12035E+01  8260   0.404E+02 0.000E+00
CGA:   7    -0.128413894365E+04   -0.71903E+01   -0.71989E+01  8260   0.609E+01 0.266E+00
CGA:   8    -0.128527189914E+04   -0.11330E+01   -0.11366E+01  8260   0.164E+01 0.267E+00
CGA:   9    -0.128570421809E+04   -0.43232E+00   -0.42284E+00  8260   0.462E+00 0.196E+00
CGA:  10    -0.128586619023E+04   -0.16197E+00   -0.16537E+00  8260   0.334E+00-0.292E-01
CGA:  11    -0.128594784451E+04   -0.81654E-01   -0.86041E-01  8260   0.142E+00-0.652E-01
CGA:  12    -0.128597747707E+04   -0.29633E-01   -0.29903E-01  8260   0.547E-01-0.533E-02
CGA:  13    -0.128598685360E+04   -0.93765E-02   -0.96816E-02  8260   0.139E-01 0.106E-01
CGA:  14    -0.128599022580E+04   -0.33722E-02   -0.33969E-02  8260   0.584E-02 0.381E-02
CGA:  15    -0.128599227298E+04   -0.20472E-02   -0.20490E-02  8260   0.223E-02-0.365E-04
CGA:  16    -0.128599262896E+04   -0.35599E-03   -0.39056E-03  8260   0.109E-02 0.920E-03
CGA:  17    -0.128599286242E+04   -0.23346E-03   -0.25918E-03  8260   0.503E-03 0.595E-03
CGA:  18    -0.128599327292E+04   -0.41050E-03    0.55979E-04  8260   0.217E-03 0.284E-03
CGA:  19    -0.128599345309E+04   -0.18017E-03    0.23302E-04  8260   0.122E-03 0.156E-03
CGA:  20    -0.128599360737E+04   -0.15429E-03    0.63483E-05  8260   0.749E-04 0.930E-04
CGA:  21    -0.128599369732E+04   -0.89948E-04    0.42307E-05  8260   0.488E-04 0.593E-04
CGA:  22    -0.128599377714E+04   -0.79817E-04    0.17731E-05  8260   0.330E-04 0.396E-04
CGA:  23    -0.128599383031E+04   -0.53166E-04    0.12225E-05  8260   0.228E-04 0.271E-04
CGA:  24    -0.128599388201E+04   -0.51701E-04    0.54498E-06  8260   0.160E-04 0.189E-04
CGA:  25    -0.128599391717E+04   -0.35159E-04    0.39715E-06  8260   0.114E-04 0.133E-04
CGA:  26    -0.128599395818E+04   -0.41011E-04    0.15752E-06  8260   0.820E-05 0.942E-05
CGA:  27    -0.128599398198E+04   -0.23800E-04    0.14574E-06  8260   0.608E-05 0.669E-05
CGA:  28    -0.128599402531E+04   -0.43331E-04    0.39989E-07  8260   0.475E-05 0.468E-05
CGA:  29    -0.128599403632E+04   -0.11015E-04    0.11011E-06  8260   0.403E-05 0.308E-05
CGA:  30    -0.128599409049E+04   -0.54163E-04    0.13649E-07  8260   0.374E-05 0.172E-05
CGA:  31    -0.128599413411E+04   -0.43621E-04    0.30448E-07  8260   0.164E-05 0.385E-05
CGA:  32    -0.128599414375E+04   -0.96440E-05    0.13244E-07  8260   0.140E-05 0.915E-06
   1 F= -.12859941E+04 E0= -.12859941E+04  d E =-.128599E+04  mag=   126.0000
       N       E                     dE             d eps       ncg     rms          ort
SDA:   1    -0.128599140723E+04    0.27269E-02    0.00000E+00  8260   0.112E-01 0.000E+00
CGA:   2    -0.128599307809E+04   -0.16709E-02   -0.17761E-02  8260   0.306E-02 0.203E-02
CGA:   3    -0.128599390344E+04   -0.82535E-03   -0.81436E-03  8260   0.936E-03 0.613E-03
CGA:   4    -0.128599438113E+04   -0.47769E-03    0.57467E-02  8260   0.202E-03 0.177E-03
CGA:   5    -0.128599450037E+04   -0.11924E-03    0.13138E-03  8260   0.537E-04 0.248E-04
CGA:   6    -0.128599449635E+04    0.40237E-05   -0.32716E-05  8260   0.335E-04 0.473E-04
   2 F= -.12859945E+04 E0= -.12859945E+04  d E =-.352598E-03  mag=   126.0000
       N       E                     dE             d eps       ncg     rms          ort
SDA:   1    -0.128599440069E+04    0.99684E-04    0.00000E+00  8260   0.668E-04 0.000E+00
CGA:   2    -0.128599449040E+04   -0.89714E-04    0.25745E-05  8260   0.278E-04 0.187E-05
CGA:   3    -0.128599453119E+04   -0.40789E-04    0.10116E-05  8260   0.511E-05 0.109E-05
CGA:   4    -0.128599453035E+04    0.83870E-06   -0.58121E-07  8260   0.421E-05 0.495E-05
   3 F= -.12859945E+04 E0= -.12859945E+04  d E =-.386601E-03  mag=   126.0000
       N       E                     dE             d eps       ncg     rms          ort
SDA:   1    -0.128599335014E+04    0.11811E-02    0.00000E+00  8260   0.311E-02 0.000E+00
CGA:   2    -0.128599394910E+04   -0.59896E-03   -0.11591E-02  8260   0.632E-02-0.283E-02
CGA:   3    -0.128599450159E+04   -0.55249E-03   -0.63753E-03  8260   0.369E-03 0.102E-02
CGA:   4    -0.128599449356E+04    0.80335E-05   -0.25023E-04  8260   0.168E-03 0.272E-03
   4 F= -.12859945E+04 E0= -.12859945E+04  d E =-.349809E-03  mag=   126.0000
       N       E                     dE             d eps       ncg     rms          ort
SDA:   1    -0.128599450002E+04    0.15717E-05    0.00000E+00  8260   0.859E-03 0.000E+00
CGA:   2    -0.128599452095E+04   -0.20926E-04   -0.64766E-04  8260   0.282E-03 0.474E-03
CGA:   3    -0.128599451818E+04    0.27634E-05   -0.17832E-04  8260   0.151E-03 0.206E-03
CGA:   4    -0.128599451545E+04    0.27322E-05   -0.90197E-05  8260   0.940E-04 0.119E-03
   5 F= -.12859945E+04 E0= -.12859945E+04  d E =-.371701E-03  mag=   126.0000
       N       E                     dE             d eps       ncg     rms          ort
SDA:   1    -0.128599426410E+04    0.25408E-03    0.00000E+00  8260   0.243E-03 0.000E+00
CGA:   2    -0.128599444124E+04   -0.17714E-03    0.12363E-04  8260   0.565E-04 0.225E-04
CGA:   3    -0.128599450848E+04   -0.67249E-04    0.17204E-05  8260   0.217E-04 0.284E-04
CGA:   4    -0.128599450635E+04    0.21377E-05   -0.45418E-06  8260   0.189E-04 0.203E-04
   6 F= -.12859945E+04 E0= -.12859945E+04  d E =-.362596E-03  mag=   126.0000
       N       E                     dE             d eps       ncg     rms          ort
SDA:   1    -0.128599464032E+04   -0.13183E-03    0.00000E+00  8260   0.129E-03 0.000E+00
CGA:   2    -0.128599462918E+04    0.11138E-04   -0.23286E-05  8260   0.968E-04 0.114E-03
CGA:   3    -0.128599462051E+04    0.86671E-05   -0.14877E-05  8260   0.775E-04 0.884E-04
CGA:   4    -0.128599461355E+04    0.69665E-05   -0.10409E-05  8260   0.646E-04 0.721E-04
   7 F= -.12859946E+04 E0= -.12859946E+04  d E =-.469797E-03  mag=   126.0000
       N       E                     dE             d eps       ncg     rms          ort
SDA:   1    -0.128599429987E+04    0.32064E-03    0.00000E+00  8260   0.105E-03 0.000E+00
CGA:   2    -0.128599441640E+04   -0.11653E-03    0.15265E-05  8260   0.207E-04 0.312E-04
CGA:   3    -0.128599448432E+04   -0.67920E-04    0.15023E-06  8260   0.111E-04 0.135E-04
CGA:   4    -0.128599449142E+04   -0.70958E-05    0.34935E-06  8260   0.654E-05 0.790E-05
   8 F= -.12859945E+04 E0= -.12859945E+04  d E =-.347665E-03  mag=   126.0000
       N       E                     dE             d eps       ncg     rms          ort
SDA:   1    -0.128599464944E+04   -0.16512E-03    0.00000E+00  8260   0.526E-04 0.000E+00
CGA:   2    -0.128599464451E+04    0.49315E-05   -0.37849E-06  8260   0.460E-04 0.499E-04
CGA:   3    -0.128599464032E+04    0.41946E-05   -0.29306E-06  8260   0.410E-04 0.440E-04
CGA:   4    -0.128599463670E+04    0.36186E-05   -0.23399E-06  8260   0.371E-04 0.395E-04
   9 F= -.12859946E+04 E0= -.12859946E+04  d E =-.492947E-03  mag=   126.0000
       N       E                     dE             d eps       ncg     rms          ort
SDA:   1    -0.128599425449E+04    0.38583E-03    0.00000E+00  8260   0.172E-03 0.000E+00
CGA:   2    -0.128599437667E+04   -0.12218E-03    0.28892E-05  8260   0.375E-04 0.675E-04
CGA:   3    -0.128599445712E+04   -0.80457E-04    0.33788E-06  8260   0.159E-04 0.219E-04
CGA:   4    -0.128599447674E+04   -0.19614E-04    0.13337E-06  8260   0.104E-04 0.124E-04
CGA:   5    -0.128599448750E+04   -0.10767E-04    0.10706E-06  8260   0.758E-05 0.880E-05
CGA:   6    -0.128599449329E+04   -0.57874E-05    0.11530E-06  8260   0.563E-05 0.650E-05
  10 F= -.12859945E+04 E0= -.12859945E+04  d E =-.349540E-03  mag=   126.0000
