       N       E                     dE             d eps       ncg     rms          ort
DAV:   1     0.826510141659E+04    0.82651E+04   -0.24584E+05  8424   0.238E+03
DAV:   2     0.878765445035E+03   -0.73863E+04   -0.69158E+04  8424   0.658E+02
DAV:   3    -0.736236878566E+03   -0.16150E+04   -0.14250E+04  8424   0.284E+02
DAV:   4    -0.895106284942E+03   -0.15887E+03   -0.15615E+03  8424   0.863E+01
DAV:   5    -0.897763196939E+03   -0.26569E+01   -0.26434E+01  8424   0.125E+01
SDA:   6    -0.208609277633E+03    0.68915E+03   -0.26434E+01  8424   0.551E+04 0.000E+00
CGA:   7    -0.356154423460E+03   -0.14755E+03   -0.32580E+03  8424   0.145E+05-0.239E+04
CGA:   8    -0.449279775337E+03   -0.93125E+02   -0.35892E+03  8424   0.139E+04 0.211E+04
CGA:   9    -0.474773238875E+03   -0.25493E+02   -0.38953E+02  8424   0.329E+04-0.108E+04
CGA:  10    -0.373610469067E+03    0.10116E+03   -0.24649E+03  8424   0.208E+04-0.399E+03
CGA:  11    -0.507231291165E+03   -0.13362E+03   -0.26087E+02  8424   0.111E+05 0.161E+05
CGA:  12    -0.366344468455E+03    0.14089E+03   -0.66390E+03  8424   0.873E+04-0.346E+04
CGA:  13    -0.584632651914E+03   -0.21829E+03   -0.13538E+03  8424   0.323E+04 0.473E+04
CGA:  14    -0.430389519018E+03    0.15424E+03   -0.18479E+03  8424   0.210E+04-0.955E+03
CGA:  15    -0.599845383276E+03   -0.16946E+03   -0.22415E+02  8424   0.111E+04 0.172E+04
CGA:  16    -0.639994374432E+03   -0.40149E+02   -0.24290E+02  8424   0.231E+04-0.365E+04
CGA:  17    -0.594358877419E+03    0.45635E+02   -0.10939E+03  8424   0.138E+04-0.541E+03
CGA:  18    -0.661919993645E+03   -0.67561E+02   -0.21821E+02  8424   0.102E+04 0.259E+04
CGA:  19    -0.640576698042E+03    0.21343E+02   -0.28718E+02  8424   0.219E+04-0.882E+03
CGA:  20    -0.610212299256E+03    0.30364E+02   -0.93978E+02  8424   0.547E+03-0.299E+03
CGA:  21    -0.617690059205E+03   -0.74778E+01   -0.40001E+01  8424   0.452E+03 0.433E+03
CGA:  22    -0.639686033986E+03   -0.21996E+02   -0.33016E+01  8424   0.371E+04 0.471E+04
CGA:  23    -0.597465232723E+03    0.42221E+02   -0.11068E+03  8424   0.433E+04-0.273E+04
CGA:  24    -0.602799573058E+03   -0.53343E+01   -0.17821E+03  8424   0.696E+03-0.575E+03
CGA:  25    -0.612415792888E+03   -0.96162E+01   -0.51530E+01  8424   0.545E+03 0.537E+03
CGA:  26    -0.619536368736E+03   -0.71206E+01   -0.38064E+01  8424   0.447E+03 0.499E+03
CGA:  27    -0.635568841466E+03   -0.16032E+02   -0.24268E+01  8424   0.380E+04 0.446E+04
CGA:  28    -0.637704008183E+03   -0.21352E+01   -0.89947E+02  8424   0.285E+04-0.278E+04
CGA:  29    -0.620979052678E+03    0.16725E+02   -0.84193E+02  8424   0.638E+03-0.485E+03
CGA:  30    -0.649001192249E+03   -0.28022E+02   -0.29910E+01  8424   0.302E+04 0.355E+04
CGA:  31    -0.660648455472E+03   -0.11647E+02   -0.67344E+02  8424   0.158E+04-0.188E+04
CGA:  32    -0.656488236252E+03    0.41602E+01   -0.46105E+02  8424   0.196E+04-0.159E+04
CGA:  33    -0.674896921230E+03   -0.18409E+02   -0.43827E+02  8424   0.599E+03-0.107E+04
CGA:  34    -0.679183274972E+03   -0.42864E+01   -0.13703E+02  8424   0.141E+03-0.142E+03
CGA:  35    -0.681758369618E+03   -0.25751E+01   -0.18250E+01  8424   0.323E+02 0.327E+02
CGA:  36    -0.682335758793E+03   -0.57739E+00   -0.32248E+00  8424   0.202E+02 0.286E+02
CGA:  37    -0.682888860647E+03   -0.55310E+00   -0.41929E+00  8424   0.941E+01 0.476E+01
CGA:  38    -0.686243894261E+03   -0.33550E+01   -0.27396E+01  8424   0.112E+03 0.108E+01
CGA:  39    -0.687358228106E+03   -0.11143E+01   -0.19770E+01  8424   0.763E+02-0.748E+02
CGA:  40    -0.688311372688E+03   -0.95314E+00   -0.14354E+01  8424   0.515E+02-0.237E+02
CGA:  41    -0.689424084591E+03   -0.11127E+01   -0.11754E+01  8424   0.464E+02-0.118E+01
CGA:  42    -0.690340309568E+03   -0.91622E+00   -0.12671E+01  8424   0.206E+02-0.636E+01
CGA:  43    -0.690920596096E+03   -0.58029E+00   -0.61455E+00  8424   0.184E+02-0.376E+00
CGA:  44    -0.691535955413E+03   -0.61536E+00   -0.66418E+00  8424   0.192E+02-0.243E+00
CGA:  45    -0.692641356088E+03   -0.11054E+01   -0.11035E+01  8424   0.157E+02 0.155E+01
CGA:  46    -0.693264902402E+03   -0.62355E+00   -0.67306E+00  8424   0.897E+01 0.234E+00
CGA:  47    -0.693728687418E+03   -0.46379E+00   -0.46654E+00  8424   0.741E+01 0.213E+00
CGA:  48    -0.694224727946E+03   -0.49604E+00   -0.49014E+00  8424   0.732E+01 0.489E+00
CGA:  49    -0.694683332737E+03   -0.45860E+00   -0.45983E+00  8424   0.845E+01-0.306E+00
CGA:  50    -0.695115262000E+03   -0.43193E+00   -0.42865E+00  8424   0.434E+01-0.292E+00
CGA:  51    -0.695325448205E+03   -0.21019E+00   -0.21521E+00  8424   0.275E+01 0.379E+00
CGA:  52    -0.695485826140E+03   -0.16038E+00   -0.16003E+00  8424   0.309E+01-0.177E-01
CGA:  53    -0.695766156445E+03   -0.28033E+00   -0.25852E+00  8424   0.201E+01 0.671E+00
CGA:  54    -0.695726987066E+03    0.39169E-01   -0.31553E+00  8424   0.249E+02-0.493E+01
CGA:  55    -0.696320660344E+03   -0.59367E+00   -0.73106E+00  8424   0.202E+01-0.222E+01
CGA:  56    -0.696581851925E+03   -0.26119E+00   -0.30569E+00  8424   0.789E+01-0.314E+00
CGA:  57    -0.697053441409E+03   -0.47159E+00   -0.47976E+00  8424   0.582E+01-0.567E+00
CGA:  58    -0.697383101655E+03   -0.32966E+00   -0.31639E+00  8424   0.337E+01-0.597E+00
CGA:  59    -0.697593247441E+03   -0.21015E+00   -0.21319E+00  8424   0.664E+01-0.333E+00
CGA:  60    -0.697788387204E+03   -0.19514E+00   -0.20937E+00  8424   0.319E+01-0.955E-01
CGA:  61    -0.697875272126E+03   -0.86885E-01   -0.11166E+00  8424   0.156E+01-0.154E+00
CGA:  62    -0.698056635054E+03   -0.18136E+00   -0.16495E+00  8424   0.827E+00 0.283E+00
CGA:  63    -0.698153977009E+03   -0.97342E-01   -0.94745E-01  8424   0.467E+00 0.796E-01
CGA:  64    -0.698232600727E+03   -0.78624E-01   -0.71985E-01  8424   0.454E+00 0.879E-01
CGA:  65    -0.698305450646E+03   -0.72850E-01   -0.68282E-01  8424   0.284E+00 0.755E-01
CGA:  66    -0.698367227171E+03   -0.61777E-01   -0.55252E-01  8424   0.301E+00 0.650E-01
CGA:  67    -0.698421269605E+03   -0.54042E-01   -0.52405E-01  8424   0.401E+00 0.287E-01
CGA:  68    -0.698466166755E+03   -0.44897E-01   -0.43300E-01  8424   0.493E+00 0.829E-01
CGA:  69    -0.698511837540E+03   -0.45671E-01   -0.45938E-01  8424   0.331E+00 0.510E-01
CGA:  70    -0.698544768400E+03   -0.32931E-01   -0.32632E-01  8424   0.357E+00 0.328E-01
CGA:  71    -0.698582403361E+03   -0.37635E-01   -0.37514E-01  8424   0.353E+00 0.181E-01
CGA:  72    -0.698606550908E+03   -0.24148E-01   -0.24693E-01  8424   0.245E+00 0.268E-01
CGA:  73    -0.698623944415E+03   -0.17394E-01   -0.17691E-01  8424   0.177E+00 0.164E-01
CGA:  74    -0.698639647618E+03   -0.15703E-01   -0.15678E-01  8424   0.209E+00 0.116E-01
CGA:  75    -0.698658065697E+03   -0.18418E-01   -0.18401E-01  8424   0.208E+00 0.125E-01
CGA:  76    -0.698671836265E+03   -0.13771E-01   -0.13865E-01  8424   0.155E+00 0.841E-02
CGA:  77    -0.698682586220E+03   -0.10750E-01   -0.10785E-01  8424   0.153E+00 0.463E-02
CGA:  78    -0.698693592829E+03   -0.11007E-01   -0.11053E-01  8424   0.158E+00 0.311E-02
CGA:  79    -0.698704412807E+03   -0.10820E-01   -0.10912E-01  8424   0.140E+00 0.225E-02
CGA:  80    -0.698714577866E+03   -0.10165E-01   -0.10176E-01  8424   0.107E+00 0.156E-04
CGA:  81    -0.698720994877E+03   -0.64170E-02   -0.63463E-02  8424   0.721E-01-0.871E-03
CGA:  82    -0.698726054975E+03   -0.50601E-02   -0.50554E-02  8424   0.849E-01-0.110E-03
CGA:  83    -0.698732505278E+03   -0.64503E-02   -0.64511E-02  8424   0.985E-01 0.610E-03
CGA:  84    -0.698738651137E+03   -0.61459E-02   -0.61240E-02  8424   0.776E-01-0.726E-03
SDA:  85    -0.698743336163E+03   -0.46850E-02   -0.45899E-02  8424   0.701E-01-0.282E-02
CGA:  86    -0.698751128543E+03   -0.77924E-02   -0.79452E-02  8424   0.497E-01-0.379E-02
CGA:  87    -0.698760121715E+03   -0.89932E-02   -0.94247E-02  8424   0.675E-01-0.405E-02
CGA:  88    -0.698771182600E+03   -0.11061E-01   -0.11789E-01  8424   0.473E-01-0.786E-02
CGA:  89    -0.698778164454E+03   -0.69819E-02   -0.69562E-02  8424   0.188E-01 0.434E-03
CGA:  90    -0.698780735321E+03   -0.25709E-02   -0.25819E-02  8424   0.777E-02-0.248E-03
CGA:  91    -0.698781546025E+03   -0.81070E-03   -0.81404E-03  8424   0.663E-02-0.278E-03
CGA:  92    -0.698782336178E+03   -0.79015E-03   -0.81075E-03  8424   0.444E-02-0.637E-03
CGA:  93    -0.698782810453E+03   -0.47428E-03   -0.47298E-03  8424   0.207E-02 0.605E-04
CGA:  94    -0.698783241439E+03   -0.43099E-03   -0.39466E-03  8424   0.185E-02 0.399E-03
CGA:  95    -0.698783664204E+03   -0.42277E-03   -0.41388E-03  8424   0.148E-02 0.102E-03
CGA:  96    -0.698783933020E+03   -0.26882E-03   -0.36187E-03  8424   0.169E-02-0.759E-03
CGA:  97    -0.698784032968E+03   -0.99947E-04   -0.10527E-03  8424   0.703E-03 0.105E-03
CGA:  98    -0.698784112364E+03   -0.79396E-04   -0.79641E-04  8424   0.354E-03 0.643E-04
CGA:  99    -0.698784193248E+03   -0.80884E-04   -0.80074E-04  8424   0.164E-03 0.812E-05
CGA: 100    -0.698783922382E+03    0.27087E-03   -0.14756E-03  8424   0.893E-02-0.657E-03
CGA: 101    -0.698784288352E+03   -0.36597E-03   -0.37009E-03  8424   0.681E-03-0.693E-04
CGA: 102    -0.698784330302E+03   -0.41950E-04   -0.55366E-04  8424   0.128E-03 0.112E-03
CGA: 103    -0.698784343438E+03   -0.13137E-04   -0.18067E-04  8424   0.754E-04 0.664E-04
CGA: 104    -0.698784280206E+03    0.63232E-04   -0.46359E-04  8424   0.329E-02-0.260E-03
CGA: 105    -0.698784398592E+03   -0.11839E-03   -0.12896E-03  8424   0.198E-03 0.894E-04
CGA: 106    -0.698784407392E+03   -0.87993E-05   -0.14569E-04  8424   0.279E-04 0.434E-04
   1 F= -.69878441E+03 E0= -.69877611E+03  d E =-.698784E+03  mag=     1.9937
       N       E                     dE             d eps       ncg     rms          ort
SDA:   1    -0.698797223506E+03   -0.12825E-01    0.00000E+00  8424   0.843E-02 0.000E+00
CGA:   2    -0.698797869320E+03   -0.64581E-03   -0.63537E-03  8424   0.604E-02-0.146E-03
CGA:   3    -0.698798534108E+03   -0.66479E-03   -0.66369E-03  8424   0.180E-02-0.140E-04
CGA:   4    -0.698798868197E+03   -0.33409E-03   -0.33422E-03  8424   0.721E-03-0.301E-04
CGA:   5    -0.698798972094E+03   -0.10390E-03   -0.10137E-03  8424   0.323E-03-0.662E-04
CGA:   6    -0.698798996403E+03   -0.24309E-04   -0.24420E-04  8424   0.169E-03 0.581E-06
CGA:   7    -0.698799005715E+03   -0.93121E-05   -0.11733E-04  8424   0.422E-04 0.228E-04
CGA:   8    -0.698799014331E+03   -0.86163E-05   -0.17319E-04  8424   0.156E-03-0.458E-04
CGA:   9    -0.698799026806E+03   -0.12475E-04   -0.11170E-04  8424   0.708E-04-0.125E-04
CGA:  10    -0.698799033732E+03   -0.69260E-05   -0.60622E-05  8424   0.382E-04-0.108E-04
CGA:  11    -0.698799046438E+03   -0.12705E-04    0.17616E-04  8424   0.342E-04-0.130E-04
CGA:  12    -0.698799056432E+03   -0.99943E-05    0.62733E-05  8424   0.365E-04 0.344E-05
CGA:  13    -0.698799071851E+03   -0.15419E-04    0.26230E-04  8424   0.107E-03-0.149E-04
CGA:  14    -0.698799111121E+03   -0.39270E-04    0.64195E-05  8424   0.167E-03-0.370E-04
CGA:  15    -0.698799155352E+03   -0.44231E-04    0.46474E-04  8424   0.708E-03-0.219E-03
CGA:  16    -0.698799188765E+03   -0.33412E-04   -0.32020E-04  8424   0.136E-03-0.143E-04
CGA:  17    -0.698799207062E+03   -0.18297E-04   -0.18565E-04  8424   0.489E-04 0.110E-04
CGA:  18    -0.698799210160E+03   -0.30985E-05   -0.15147E-04  8424   0.294E-03-0.972E-04
CGA:  19    -0.698799220831E+03   -0.10671E-04   -0.14766E-04  8424   0.348E-04 0.350E-04
CGA:  20    -0.698799222378E+03   -0.15469E-05   -0.22117E-05  8424   0.107E-04 0.622E-05
   2 F= -.69879922E+03 E0= -.69879090E+03  d E =-.148150E-01  mag=     1.9937
       N       E                     dE             d eps       ncg     rms          ort
SDA:   1    -0.697431475677E+03    0.13677E+01    0.00000E+00  8424   0.666E+01 0.000E+00
CGA:   2    -0.698339141223E+03   -0.90767E+00   -0.91706E+00  8424   0.456E+01 0.127E+00
CGA:   3    -0.698691727128E+03   -0.35259E+00   -0.33597E+00  8424   0.234E+01 0.852E-01
CGA:   4    -0.699028815502E+03   -0.33709E+00   -0.33718E+00  8424   0.720E+00 0.124E-02
CGA:   5    -0.699131907972E+03   -0.10309E+00   -0.10295E+00  8424   0.250E+00-0.652E-02
CGA:   6    -0.699160718030E+03   -0.28810E-01   -0.29005E-01  8424   0.782E-01 0.262E-02
CGA:   7    -0.699167372235E+03   -0.66542E-02   -0.66756E-02  8424   0.554E-01 0.813E-03
CGA:   8    -0.699172373072E+03   -0.50008E-02   -0.50022E-02  8424   0.100E-01-0.291E-03
CGA:   9    -0.699174214700E+03   -0.18416E-02   -0.18465E-02  8424   0.527E-02-0.122E-03
CGA:  10    -0.699174766761E+03   -0.55206E-03   -0.54733E-03  8424   0.401E-02-0.128E-03
CGA:  11    -0.699175061554E+03   -0.29479E-03   -0.30136E-03  8424   0.153E-02 0.961E-04
CGA:  12    -0.699175286266E+03   -0.22471E-03   -0.22462E-03  8424   0.473E-03 0.105E-03
CGA:  13    -0.699175383538E+03   -0.97272E-04   -0.17615E-03  8424   0.124E-02-0.384E-03
CGA:  14    -0.699175442260E+03   -0.58722E-04   -0.77037E-04  8424   0.149E-03 0.200E-03
CGA:  15    -0.699175448793E+03   -0.65329E-05   -0.12377E-04  8424   0.888E-04 0.754E-04
CGA:  16    -0.699175460556E+03   -0.11763E-04   -0.11763E-04  8424   0.108E-03-0.145E-06
CGA:  17    -0.699175469885E+03   -0.93288E-05   -0.97487E-05  8424   0.510E-04 0.762E-05
   3 F= -.69917547E+03 E0= -.69916697E+03  d E =-.376248E+00  mag=     1.9934
       N       E                     dE             d eps       ncg     rms          ort
SDA:   1    -0.695129700499E+03    0.40458E+01    0.00000E+00  8424   0.244E+02 0.000E+00
CGA:   2    -0.696939876309E+03   -0.18102E+01   -0.21528E+01  8424   0.146E+02-0.613E-01
CGA:   3    -0.698182076870E+03   -0.12422E+01   -0.11684E+01  8424   0.665E+01-0.851E-01
CGA:   4    -0.699079949439E+03   -0.89787E+00   -0.89682E+00  8424   0.225E+01 0.155E+00
CGA:   5    -0.699363701793E+03   -0.28375E+00   -0.27959E+00  8424   0.157E+01-0.155E+00
CGA:   6    -0.699461873954E+03   -0.98172E-01   -0.10157E+00  8424   0.517E+00-0.247E-01
CGA:   7    -0.699508676824E+03   -0.46803E-01   -0.46420E-01  8424   0.114E+00 0.301E-02
CGA:   8    -0.699525506876E+03   -0.16830E-01   -0.16785E-01  8424   0.746E-01 0.166E-02
CGA:   9    -0.699529757607E+03   -0.42507E-02   -0.42448E-02  8424   0.211E-01 0.340E-03
CGA:  10    -0.699533563359E+03   -0.38058E-02   -0.38332E-02  8424   0.111E-01-0.533E-03
CGA:  11    -0.699534584645E+03   -0.10213E-02   -0.10239E-02  8424   0.750E-02 0.729E-04
CGA:  12    -0.699535223106E+03   -0.63846E-03   -0.64801E-03  8424   0.359E-02 0.189E-03
CGA:  13    -0.699535683352E+03   -0.46025E-03   -0.45969E-03  8424   0.118E-02 0.362E-03
CGA:  14    -0.699535907962E+03   -0.22461E-03   -0.26434E-03  8424   0.344E-02-0.503E-03
CGA:  15    -0.699536012808E+03   -0.10485E-03   -0.89867E-04  8424   0.157E-02-0.184E-03
CGA:  16    -0.699536048296E+03   -0.35488E-04   -0.44731E-04  8424   0.684E-03 0.977E-04
CGA:  17    -0.699536061206E+03   -0.12910E-04   -0.30806E-04  8424   0.627E-03 0.234E-03
CGA:  18    -0.699536072880E+03   -0.11675E-04   -0.32257E-04  8424   0.276E-03 0.268E-03
CGA:  19    -0.699536081919E+03   -0.90389E-05   -0.16484E-04  8424   0.222E-03 0.107E-03
CGA:  20    -0.699536102678E+03   -0.20759E-04   -0.22540E-04  8424   0.231E-03 0.512E-04
CGA:  21    -0.699536117586E+03   -0.14907E-04   -0.12937E-04  8424   0.700E-04-0.333E-04
CGA:  22    -0.699536134310E+03   -0.16724E-04    0.86028E-05  8424   0.101E-03-0.161E-04
CGA:  23    -0.699535971303E+03    0.16301E-03   -0.33142E-04  8424   0.352E-02-0.612E-03
CGA:  24    -0.699536095285E+03   -0.12398E-03   -0.14627E-03  8424   0.533E-03 0.294E-03
CGA:  25    -0.699536107173E+03   -0.11888E-04   -0.28804E-04  8424   0.177E-03 0.259E-03
CGA:  26    -0.699536105846E+03    0.13273E-05   -0.95166E-05  8424   0.981E-04 0.143E-03
   4 F= -.69953611E+03 E0= -.69952723E+03  d E =-.360636E+00  mag=     1.9937
       N       E                     dE             d eps       ncg     rms          ort
SDA:   1    -0.698406318629E+03    0.11298E+01    0.00000E+00  8424   0.350E+01 0.000E+00
CGA:   2    -0.698985597119E+03   -0.57928E+00   -0.56978E+00  8424   0.503E+01 0.147E+00
CGA:   3    -0.699365832711E+03   -0.38024E+00   -0.37228E+00  8424   0.133E+01-0.153E-01
CGA:   4    -0.699549117875E+03   -0.18329E+00   -0.18362E+00  8424   0.498E+00-0.782E-02
CGA:   5    -0.699593547095E+03   -0.44429E-01   -0.44276E-01  8424   0.262E+00-0.243E-02
CGA:   6    -0.699612622972E+03   -0.19076E-01   -0.19193E-01  8424   0.830E-01 0.426E-03
CGA:   7    -0.699622044006E+03   -0.94210E-02   -0.94061E-02  8424   0.206E-01 0.201E-02
CGA:   8    -0.699624131001E+03   -0.20870E-02   -0.20860E-02  8424   0.170E-01-0.203E-03
CGA:   9    -0.699625539487E+03   -0.14085E-02   -0.14040E-02  8424   0.495E-02-0.201E-03
CGA:  10    -0.699626240381E+03   -0.70089E-03   -0.69409E-03  8424   0.233E-02 0.175E-03
CGA:  11    -0.699626452607E+03   -0.21223E-03   -0.21358E-03  8424   0.178E-02 0.757E-04
CGA:  12    -0.699626652593E+03   -0.19999E-03   -0.20001E-03  8424   0.805E-03-0.871E-05
CGA:  13    -0.699626753269E+03   -0.10068E-03   -0.99569E-04  8424   0.409E-03 0.593E-04
CGA:  14    -0.699626801250E+03   -0.47980E-04   -0.48088E-04  8424   0.493E-03-0.388E-04
CGA:  15    -0.699626848307E+03   -0.47057E-04   -0.47041E-04  8424   0.111E-03-0.118E-04
CGA:  16    -0.699626855212E+03   -0.69047E-05   -0.86020E-05  8424   0.500E-04 0.618E-04
   5 F= -.69962686E+03 E0= -.69961783E+03  d E =-.907494E-01  mag=     1.9940
       N       E                     dE             d eps       ncg     rms          ort
SDA:   1    -0.696989650207E+03    0.26372E+01    0.00000E+00  8424   0.725E+01 0.000E+00
CGA:   2    -0.698792998424E+03   -0.18033E+01   -0.18006E+01  8424   0.414E+01 0.204E-01
CGA:   3    -0.699389375635E+03   -0.59638E+00   -0.59733E+00  8424   0.217E+01-0.212E-01
CGA:   4    -0.699545317685E+03   -0.15594E+00   -0.15323E+00  8424   0.967E+00 0.616E-02
CGA:   5    -0.699632553646E+03   -0.87236E-01   -0.86867E-01  8424   0.252E+00-0.204E-02
CGA:   6    -0.699667220099E+03   -0.34666E-01   -0.34677E-01  8424   0.716E-01-0.440E-03
CGA:   7    -0.699675519857E+03   -0.82998E-02   -0.82939E-02  8424   0.446E-01 0.983E-03
CGA:   8    -0.699678536709E+03   -0.30169E-02   -0.30201E-02  8424   0.166E-01 0.275E-03
CGA:   9    -0.699680869522E+03   -0.23328E-02   -0.23461E-02  8424   0.687E-02-0.448E-03
CGA:  10    -0.699681713300E+03   -0.84378E-03   -0.83830E-03  8424   0.377E-02 0.391E-03
CGA:  11    -0.699682082667E+03   -0.36937E-03   -0.37057E-03  8424   0.322E-02 0.610E-04
CGA:  12    -0.699682448672E+03   -0.36601E-03   -0.36602E-03  8424   0.970E-03-0.152E-04
CGA:  13    -0.699682614379E+03   -0.16571E-03   -0.16483E-03  8424   0.911E-03 0.138E-04
CGA:  14    -0.699682682734E+03   -0.68355E-04   -0.69702E-04  8424   0.443E-03 0.339E-04
CGA:  15    -0.699682740252E+03   -0.57518E-04   -0.57430E-04  8424   0.193E-03 0.650E-05
CGA:  16    -0.699682766225E+03   -0.25974E-04   -0.25475E-04  8424   0.121E-03 0.279E-04
CGA:  17    -0.699682779269E+03   -0.13043E-04   -0.12576E-04  8424   0.936E-04-0.206E-04
CGA:  18    -0.699682789368E+03   -0.10100E-04   -0.15927E-04  8424   0.146E-03-0.633E-04
CGA:  19    -0.699682794947E+03   -0.55784E-05   -0.61474E-05  8424   0.295E-04 0.732E-05
   6 F= -.69968279E+03 E0= -.69967373E+03  d E =-.559397E-01  mag=     1.9936
       N       E                     dE             d eps       ncg     rms          ort
SDA:   1    -0.697185239530E+03    0.24975E+01    0.00000E+00  8424   0.775E+01 0.000E+00
CGA:   2    -0.698516448897E+03   -0.13312E+01   -0.13355E+01  8424   0.772E+01-0.465E-01
CGA:   3    -0.699064281894E+03   -0.54783E+00   -0.56262E+00  8424   0.374E+01-0.741E-01
CGA:   4    -0.699508493263E+03   -0.44421E+00   -0.44394E+00  8424   0.118E+01 0.158E-01
CGA:   5    -0.699645542104E+03   -0.13705E+00   -0.13704E+00  8424   0.292E+00 0.311E-02
CGA:   6    -0.699685320076E+03   -0.39778E-01   -0.39873E-01  8424   0.165E+00-0.280E-02
CGA:   7    -0.699695583984E+03   -0.10264E-01   -0.10355E-01  8424   0.529E-01-0.587E-03
CGA:   8    -0.699701571992E+03   -0.59880E-02   -0.59879E-02  8424   0.202E-01 0.228E-03
CGA:   9    -0.699704426031E+03   -0.28540E-02   -0.28763E-02  8424   0.927E-02-0.754E-03
CGA:  10    -0.699705276537E+03   -0.85051E-03   -0.85608E-03  8424   0.649E-02 0.313E-03
CGA:  11    -0.699705835393E+03   -0.55886E-03   -0.56955E-03  8424   0.220E-02 0.358E-03
CGA:  12    -0.699706249664E+03   -0.41427E-03   -0.40958E-03  8424   0.100E-02 0.689E-04
CGA:  13    -0.699706390319E+03   -0.14065E-03   -0.14181E-03  8424   0.125E-02-0.524E-04
CGA:  14    -0.699706487998E+03   -0.97679E-04   -0.96812E-04  8424   0.422E-03-0.292E-04
CGA:  15    -0.699706551643E+03   -0.63645E-04   -0.64424E-04  8424   0.251E-03-0.187E-04
CGA:  16    -0.699706579640E+03   -0.27997E-04   -0.27942E-04  8424   0.681E-04 0.674E-04
CGA:  17    -0.699706560422E+03    0.19218E-04   -0.43826E-04  8424   0.111E-02-0.161E-03
CGA:  18    -0.699706610871E+03   -0.50449E-04   -0.50784E-04  8424   0.153E-03 0.489E-05
CGA:  19    -0.699706618880E+03   -0.80091E-05   -0.99576E-05  8424   0.316E-04 0.294E-04
   7 F= -.69970662E+03 E0= -.69969732E+03  d E =-.238239E-01  mag=     1.9930
       N       E                     dE             d eps       ncg     rms          ort
SDA:   1    -0.699213244246E+03    0.49337E+00    0.00000E+00  8424   0.151E+01 0.000E+00
CGA:   2    -0.699516465173E+03   -0.30322E+00   -0.30344E+00  8424   0.102E+01-0.253E-02
CGA:   3    -0.699608730558E+03   -0.92265E-01   -0.93293E-01  8424   0.826E+00 0.121E-02
CGA:   4    -0.699688558537E+03   -0.79828E-01   -0.79726E-01  8424   0.167E+00-0.134E-03
CGA:   5    -0.699710443201E+03   -0.21885E-01   -0.21880E-01  8424   0.540E-01 0.967E-03
CGA:   6    -0.699716235832E+03   -0.57926E-02   -0.57967E-02  8424   0.344E-01 0.562E-04
CGA:   7    -0.699718588759E+03   -0.23529E-02   -0.23436E-02  8424   0.796E-02-0.421E-03
CGA:   8    -0.699719761327E+03   -0.11726E-02   -0.11771E-02  8424   0.305E-02-0.169E-03
CGA:   9    -0.699720092158E+03   -0.33083E-03   -0.33023E-03  8424   0.241E-02-0.532E-04
CGA:  10    -0.699720268771E+03   -0.17661E-03   -0.18072E-03  8424   0.696E-03 0.849E-04
CGA:  11    -0.699720367687E+03   -0.98916E-04   -0.96990E-04  8424   0.234E-03 0.137E-03
CGA:  12    -0.699720419312E+03   -0.51625E-04   -0.48059E-04  8424   0.102E-03 0.705E-04
CGA:  13    -0.699720437861E+03   -0.18549E-04   -0.18619E-04  8424   0.197E-03-0.446E-05
CGA:  14    -0.699720451692E+03   -0.13831E-04   -0.14770E-04  8424   0.625E-04 0.200E-04
CGA:  15    -0.699720453376E+03   -0.16845E-05   -0.32365E-05  8424   0.408E-04 0.206E-04
   8 F= -.69972045E+03 E0= -.69971113E+03  d E =-.138345E-01  mag=     1.9928
       N       E                     dE             d eps       ncg     rms          ort
SDA:   1    -0.699477783871E+03    0.24267E+00    0.00000E+00  8424   0.715E+00 0.000E+00
CGA:   2    -0.699631238044E+03   -0.15345E+00   -0.15353E+00  8424   0.488E+00-0.876E-03
CGA:   3    -0.699675672641E+03   -0.44435E-01   -0.44722E-01  8424   0.390E+00 0.196E-02
CGA:   4    -0.699710962171E+03   -0.35290E-01   -0.35240E-01  8424   0.777E-01 0.698E-03
CGA:   5    -0.699721285226E+03   -0.10323E-01   -0.10323E-01  8424   0.292E-01-0.187E-03
CGA:   6    -0.699724084684E+03   -0.27995E-02   -0.28023E-02  8424   0.154E-01 0.235E-03
CGA:   7    -0.699725223542E+03   -0.11389E-02   -0.11356E-02  8424   0.477E-02-0.162E-03
CGA:   8    -0.699725820950E+03   -0.59741E-03   -0.60198E-03  8424   0.183E-02-0.373E-03
CGA:   9    -0.699725988006E+03   -0.16706E-03   -0.16814E-03  8424   0.106E-02 0.630E-04
CGA:  10    -0.699726072133E+03   -0.84127E-04   -0.87994E-04  8424   0.419E-03 0.110E-03
CGA:  11    -0.699726139936E+03   -0.67804E-04   -0.67745E-04  8424   0.191E-03 0.159E-05
CGA:  12    -0.699726154781E+03   -0.14844E-04   -0.16477E-04  8424   0.103E-03 0.562E-04
CGA:  13    -0.699726166361E+03   -0.11580E-04   -0.12416E-04  8424   0.478E-04 0.405E-04
CGA:  14    -0.699726179863E+03   -0.13502E-04   -0.13320E-04  8424   0.306E-04 0.203E-05
CGA:  15    -0.699726181488E+03   -0.16254E-05   -0.22898E-05  8424   0.184E-04 0.146E-04
   9 F= -.69972618E+03 E0= -.69971690E+03  d E =-.572811E-02  mag=     1.9927
       N       E                     dE             d eps       ncg     rms          ort
SDA:   1    -0.699421002808E+03    0.30518E+00    0.00000E+00  8424   0.893E+00 0.000E+00
CGA:   2    -0.699607540332E+03   -0.18654E+00   -0.18646E+00  8424   0.680E+00 0.594E-03
CGA:   3    -0.699662117797E+03   -0.54577E-01   -0.54079E-01  8424   0.455E+00 0.541E-03
CGA:   4    -0.699711820916E+03   -0.49703E-01   -0.49709E-01  8424   0.994E-01 0.110E-02
CGA:   5    -0.699723569240E+03   -0.11748E-01   -0.11752E-01  8424   0.341E-01-0.787E-03
CGA:   6    -0.699727872624E+03   -0.43034E-02   -0.42892E-02  8424   0.126E-01 0.107E-02
CGA:   7    -0.699728755597E+03   -0.88297E-03   -0.88234E-03  8424   0.585E-02 0.129E-04
CGA:   8    -0.699729503092E+03   -0.74749E-03   -0.75745E-03  8424   0.220E-02-0.619E-03
CGA:   9    -0.699729719380E+03   -0.21629E-03   -0.21661E-03  8424   0.106E-02 0.893E-04
CGA:  10    -0.699729807336E+03   -0.87956E-04   -0.90702E-04  8424   0.542E-03 0.867E-04
CGA:  11    -0.699729866576E+03   -0.59241E-04   -0.60154E-04  8424   0.176E-03 0.951E-04
CGA:  12    -0.699729903237E+03   -0.36661E-04   -0.34173E-04  8424   0.119E-03 0.461E-04
CGA:  13    -0.699729913765E+03   -0.10528E-04   -0.11628E-04  8424   0.638E-04 0.296E-04
CGA:  14    -0.699729924480E+03   -0.10714E-04   -0.10407E-04  8424   0.343E-04 0.169E-04
CGA:  15    -0.699729929666E+03   -0.51862E-05   -0.51237E-05  8424   0.188E-04 0.136E-04
  10 F= -.69972993E+03 E0= -.69972059E+03  d E =-.374818E-02  mag=     1.9926
       N       E                     dE             d eps       ncg     rms          ort
SDA:   1    -0.698665865567E+03    0.10641E+01    0.00000E+00  8424   0.300E+01 0.000E+00
CGA:   2    -0.699348373824E+03   -0.68251E+00   -0.68234E+00  8424   0.147E+01 0.124E-02
CGA:   3    -0.699621228113E+03   -0.27285E+00   -0.27341E+00  8424   0.822E+00-0.718E-02
CGA:   4    -0.699672638812E+03   -0.51411E-01   -0.51922E-01  8424   0.339E+00-0.516E-02
CGA:   5    -0.699707405816E+03   -0.34767E-01   -0.34759E-01  8424   0.869E-01 0.713E-03
CGA:   6    -0.699718462829E+03   -0.11057E-01   -0.11031E-01  8424   0.291E-01 0.216E-02
CGA:   7    -0.699721409678E+03   -0.29468E-02   -0.29370E-02  8424   0.190E-01-0.406E-03
CGA:   8    -0.699722840147E+03   -0.14305E-02   -0.14130E-02  8424   0.639E-02-0.473E-03
CGA:   9    -0.699723697071E+03   -0.85692E-03   -0.85217E-03  8424   0.208E-02 0.214E-03
CGA:  10    -0.699723990509E+03   -0.29344E-03   -0.29234E-03  8424   0.161E-02 0.534E-04
CGA:  11    -0.699724109383E+03   -0.11887E-03   -0.12396E-03  8424   0.819E-03 0.121E-03
CGA:  12    -0.699724214326E+03   -0.10494E-03   -0.10444E-03  8424   0.257E-03 0.128E-03
CGA:  13    -0.699724284457E+03   -0.70130E-04   -0.76280E-04  8424   0.244E-03-0.434E-04
CGA:  14    -0.699724296809E+03   -0.12352E-04   -0.15863E-04  8424   0.993E-04 0.797E-04
CGA:  15    -0.699724301185E+03   -0.43761E-05   -0.81837E-05  8424   0.558E-04 0.659E-04
CGA:  16    -0.699724312327E+03   -0.11142E-04   -0.10366E-04  8424   0.376E-04 0.112E-04
CGA:  17    -0.699724315027E+03   -0.27002E-05   -0.36235E-05  8424   0.113E-04 0.229E-04
  11 F= -.69972432E+03 E0= -.69971486E+03  d E =0.561464E-02  mag=     1.9926
       N       E                     dE             d eps       ncg     rms          ort
SDA:   1    -0.699403898117E+03    0.32041E+00    0.00000E+00  8424   0.102E+01 0.000E+00
CGA:   2    -0.699608286377E+03   -0.20439E+00   -0.20442E+00  8424   0.475E+00-0.531E-03
CGA:   3    -0.699689621949E+03   -0.81336E-01   -0.81366E-01  8424   0.382E+00-0.587E-03
CGA:   4    -0.699712635105E+03   -0.23013E-01   -0.23240E-01  8424   0.125E+00-0.323E-02
CGA:   5    -0.699727053670E+03   -0.14419E-01   -0.14425E-01  8424   0.327E-01 0.478E-03
CGA:   6    -0.699731261332E+03   -0.42077E-02   -0.42044E-02  8424   0.118E-01 0.755E-03
CGA:   7    -0.699732267480E+03   -0.10061E-02   -0.10106E-02  8424   0.731E-02 0.101E-03
CGA:   8    -0.699732911288E+03   -0.64381E-03   -0.63914E-03  8424   0.183E-02-0.145E-03
CGA:   9    -0.699733166482E+03   -0.25519E-03   -0.25296E-03  8424   0.889E-03 0.107E-03
CGA:  10    -0.699733261824E+03   -0.95342E-04   -0.93950E-04  8424   0.766E-03-0.671E-04
CGA:  11    -0.699733327678E+03   -0.65853E-04   -0.64870E-04  8424   0.255E-03-0.353E-04
CGA:  12    -0.699733359379E+03   -0.31702E-04   -0.31418E-04  8424   0.997E-04 0.267E-04
CGA:  13    -0.699733381644E+03   -0.22265E-04   -0.25852E-04  8424   0.143E-03-0.311E-04
CGA:  14    -0.699733386942E+03   -0.52981E-05   -0.51645E-05  8424   0.589E-04-0.205E-05
  12 F= -.69973339E+03 E0= -.69972392E+03  d E =-.907191E-02  mag=     1.9924
       N       E                     dE             d eps       ncg     rms          ort
SDA:   1    -0.699689301548E+03    0.44080E-01    0.00000E+00  8424   0.128E+00 0.000E+00
CGA:   2    -0.699717118922E+03   -0.27817E-01   -0.27761E-01  8424   0.133E+00 0.544E-03
CGA:   3    -0.699726081063E+03   -0.89621E-02   -0.89527E-02  8424   0.576E-01-0.652E-04
CGA:   4    -0.699732575391E+03   -0.64943E-02   -0.64890E-02  8424   0.174E-01-0.811E-03
CGA:   5    -0.699734483662E+03   -0.19083E-02   -0.19117E-02  8424   0.491E-02 0.385E-03
CGA:   6    -0.699735091998E+03   -0.60834E-03   -0.60865E-03  8424   0.405E-02-0.186E-03
CGA:   7    -0.699735333473E+03   -0.24147E-03   -0.23968E-03  8424   0.670E-03-0.339E-04
CGA:   8    -0.699735423424E+03   -0.89952E-04   -0.88498E-04  8424   0.218E-03 0.879E-04
CGA:   9    -0.699735463409E+03   -0.39985E-04   -0.40933E-04  8424   0.140E-03-0.196E-04
CGA:  10    -0.699735473892E+03   -0.10483E-04   -0.10810E-04  8424   0.912E-04 0.928E-05
CGA:  11    -0.699735483784E+03   -0.98928E-05   -0.97269E-05  8424   0.497E-04-0.923E-05
CGA:  12    -0.699735461823E+03    0.21961E-04   -0.22944E-04  8424   0.476E-03-0.114E-03
CGA:  13    -0.699735484714E+03   -0.22891E-04   -0.25229E-04  8424   0.124E-03 0.253E-04
CGA:  14    -0.699735492432E+03   -0.77184E-05   -0.94629E-05  8424   0.421E-04 0.288E-04
  13 F= -.69973549E+03 E0= -.69972604E+03  d E =-.210549E-02  mag=     1.9924
       N       E                     dE             d eps       ncg     rms          ort
SDA:   1    -0.699703682739E+03    0.31802E-01    0.00000E+00  8424   0.125E+00 0.000E+00
CGA:   2    -0.699714822439E+03   -0.11140E-01   -0.11121E-01  8424   0.126E+00 0.131E-03
CGA:   3    -0.699728333962E+03   -0.13512E-01   -0.13507E-01  8424   0.336E-01-0.347E-03
CGA:   4    -0.699734649665E+03   -0.63157E-02   -0.63314E-02  8424   0.857E-02-0.266E-03
CGA:   5    -0.699735778978E+03   -0.11293E-02   -0.11291E-02  8424   0.351E-02 0.109E-03
CGA:   6    -0.699736066854E+03   -0.28788E-03   -0.29641E-03  8424   0.188E-02 0.179E-03
CGA:   7    -0.699736215587E+03   -0.14873E-03   -0.15073E-03  8424   0.460E-03 0.330E-04
CGA:   8    -0.699736293568E+03   -0.77981E-04   -0.83493E-04  8424   0.316E-03-0.106E-03
CGA:   9    -0.699736311230E+03   -0.17663E-04   -0.18214E-04  8424   0.137E-03 0.976E-05
CGA:  10    -0.699736318988E+03   -0.77580E-05   -0.97977E-05  8424   0.480E-04 0.358E-04
  14 F= -.69973632E+03 E0= -.69972686E+03  d E =-.826556E-03  mag=     1.9924
       N       E                     dE             d eps       ncg     rms          ort
SDA:   1    -0.699602132426E+03    0.13418E+00    0.00000E+00  8424   0.402E+00 0.000E+00
CGA:   2    -0.699648361978E+03   -0.46230E-01   -0.46206E-01  8424   0.622E+00-0.893E-03
CGA:   3    -0.699715357250E+03   -0.66995E-01   -0.67022E-01  8424   0.102E+00 0.313E-03
CGA:   4    -0.699730477555E+03   -0.15120E-01   -0.15156E-01  8424   0.363E-01-0.125E-02
CGA:   5    -0.699734477139E+03   -0.39996E-02   -0.40091E-02  8424   0.102E-01 0.773E-03
CGA:   6    -0.699735790219E+03   -0.13131E-02   -0.13137E-02  8424   0.828E-02-0.222E-03
CGA:   7    -0.699736267633E+03   -0.47741E-03   -0.47373E-03  8424   0.150E-02-0.372E-04
CGA:   8    -0.699736477967E+03   -0.21033E-03   -0.20930E-03  8424   0.558E-03 0.493E-04
CGA:   9    -0.699736565197E+03   -0.87230E-04   -0.89002E-04  8424   0.385E-03-0.534E-04
CGA:  10    -0.699736585710E+03   -0.20513E-04   -0.21781E-04  8424   0.193E-03 0.209E-04
CGA:  11    -0.699736608926E+03   -0.23215E-04   -0.23344E-04  8424   0.778E-04 0.276E-04
CGA:  12    -0.699736621709E+03   -0.12783E-04   -0.15383E-04  8424   0.268E-03-0.487E-04
CGA:  13    -0.699736630082E+03   -0.83733E-05   -0.96504E-05  8424   0.199E-04 0.147E-04
  15 F= -.69973663E+03 E0= -.69972718E+03  d E =-.311093E-03  mag=     1.9924
       N       E                     dE             d eps       ncg     rms          ort
SDA:   1    -0.699648573178E+03    0.88049E-01    0.00000E+00  8424   0.263E+00 0.000E+00
CGA:   2    -0.699693885742E+03   -0.45313E-01   -0.45281E-01  8424   0.301E+00 0.611E-03
CGA:   3    -0.699713943857E+03   -0.20058E-01   -0.20159E-01  8424   0.116E+00-0.111E-02
CGA:   4    -0.699731600564E+03   -0.17657E-01   -0.17659E-01  8424   0.265E-01-0.804E-04
CGA:   5    -0.699734816792E+03   -0.32162E-02   -0.32159E-02  8424   0.131E-01 0.203E-03
CGA:   6    -0.699735735804E+03   -0.91901E-03   -0.92057E-03  8424   0.568E-02 0.463E-04
CGA:   7    -0.699736356019E+03   -0.62022E-03   -0.61761E-03  8424   0.144E-02-0.271E-03
CGA:   8    -0.699736529723E+03   -0.17370E-03   -0.17392E-03  8424   0.853E-03-0.238E-04
CGA:   9    -0.699736598260E+03   -0.68538E-04   -0.65970E-04  8424   0.443E-03-0.667E-04
CGA:  10    -0.699736641080E+03   -0.42820E-04   -0.42778E-04  8424   0.137E-03-0.399E-05
CGA:  11    -0.699736651868E+03   -0.10788E-04   -0.12055E-04  8424   0.503E-04 0.478E-04
CGA:  12    -0.699736656844E+03   -0.49759E-05   -0.58732E-05  8424   0.264E-04 0.325E-04
CGA:  13    -0.699736619402E+03    0.37441E-04   -0.20523E-04  8424   0.127E-02-0.964E-04
CGA:  14    -0.699736664236E+03   -0.44833E-04   -0.52542E-04  8424   0.113E-03 0.533E-04
CGA:  15    -0.699736667496E+03   -0.32608E-05   -0.61850E-05  8424   0.130E-04 0.199E-04
  16 F= -.69973667E+03 E0= -.69972718E+03  d E =-.374146E-04  mag=     1.9925
       N       E                     dE             d eps       ncg     rms          ort
SDA:   1    -0.699703882430E+03    0.32782E-01    0.00000E+00  8424   0.118E+00 0.000E+00
CGA:   2    -0.699715686448E+03   -0.11804E-01   -0.11862E-01  8424   0.143E+00-0.896E-03
CGA:   3    -0.699730330984E+03   -0.14645E-01   -0.14634E-01  8424   0.319E-01 0.698E-04
CGA:   4    -0.699735167235E+03   -0.48363E-02   -0.48529E-02  8424   0.114E-01 0.639E-03
CGA:   5    -0.699736583449E+03   -0.14162E-02   -0.14031E-02  8424   0.369E-02-0.238E-03
CGA:   6    -0.699736976930E+03   -0.39348E-03   -0.40075E-03  8424   0.236E-02 0.122E-03
CGA:   7    -0.699737125208E+03   -0.14828E-03   -0.15081E-03  8424   0.525E-03 0.186E-04
CGA:   8    -0.699737204241E+03   -0.79033E-04   -0.78430E-04  8424   0.223E-03-0.381E-04
CGA:   9    -0.699737224448E+03   -0.20207E-04   -0.20885E-04  8424   0.120E-03 0.104E-04
CGA:  10    -0.699737232548E+03   -0.81003E-05   -0.94372E-05  8424   0.556E-04 0.157E-04
CGA:  11    -0.699737243492E+03   -0.10944E-04   -0.11112E-04  8424   0.296E-04-0.812E-05
CGA:  12    -0.699737244378E+03   -0.88562E-06   -0.17611E-05  8424   0.141E-04 0.100E-04
  17 F= -.69973724E+03 E0= -.69972774E+03  d E =-.576881E-03  mag=     1.9923
       N       E                     dE             d eps       ncg     rms          ort
SDA:   1    -0.699732387964E+03    0.48555E-02    0.00000E+00  8424   0.163E-01 0.000E+00
CGA:   2    -0.699735432322E+03   -0.30444E-02   -0.30398E-02  8424   0.712E-02 0.117E-03
CGA:   3    -0.699736776013E+03   -0.13437E-02   -0.13445E-02  8424   0.588E-02-0.244E-04
CGA:   4    -0.699737164079E+03   -0.38807E-03   -0.39049E-03  8424   0.225E-02 0.511E-06
CGA:   5    -0.699737362333E+03   -0.19825E-03   -0.20224E-03  8424   0.582E-03 0.707E-04
CGA:   6    -0.699737454176E+03   -0.91843E-04   -0.92869E-04  8424   0.237E-03-0.108E-03
CGA:   7    -0.699737466694E+03   -0.12518E-04   -0.15542E-04  8424   0.696E-04 0.463E-04
CGA:   8    -0.699737470480E+03   -0.37869E-05   -0.56718E-05  8424   0.303E-04 0.253E-04
  18 F= -.69973747E+03 E0= -.69972798E+03  d E =-.226103E-03  mag=     1.9924
       N       E                     dE             d eps       ncg     rms          ort
SDA:   1    -0.699726135675E+03    0.11331E-01    0.00000E+00  8424   0.321E-01 0.000E+00
CGA:   2    -0.699731145563E+03   -0.50099E-02   -0.50130E-02  8424   0.554E-01-0.200E-03
CGA:   3    -0.699735339161E+03   -0.41936E-02   -0.41888E-02  8424   0.112E-01 0.558E-04
CGA:   4    -0.699737081222E+03   -0.17421E-02   -0.17447E-02  8424   0.302E-02-0.131E-03
CGA:   5    -0.699737425251E+03   -0.34403E-03   -0.34820E-03  8424   0.803E-03 0.217E-03
CGA:   6    -0.699737553525E+03   -0.12827E-03   -0.12765E-03  8424   0.213E-03 0.467E-04
CGA:   7    -0.699737576045E+03   -0.22520E-04   -0.24175E-04  8424   0.592E-04 0.585E-04
CGA:   8    -0.699737589154E+03   -0.13109E-04   -0.13398E-04  8424   0.635E-04-0.668E-05
CGA:   9    -0.699737592077E+03   -0.29232E-05   -0.30094E-05  8424   0.222E-04 0.999E-06
  19 F= -.69973759E+03 E0= -.69972810E+03  d E =-.121597E-03  mag=     1.9924
       N       E                     dE             d eps       ncg     rms          ort
SDA:   1    -0.699731960085E+03    0.56291E-02    0.00000E+00  8424   0.250E-01 0.000E+00
CGA:   2    -0.699733624269E+03   -0.16642E-02   -0.16633E-02  8424   0.177E-01 0.201E-04
CGA:   3    -0.699736446626E+03   -0.28224E-02   -0.28334E-02  8424   0.653E-02-0.354E-03
CGA:   4    -0.699737335704E+03   -0.88908E-03   -0.88746E-03  8424   0.214E-02 0.174E-03
CGA:   5    -0.699737594691E+03   -0.25899E-03   -0.25769E-03  8424   0.620E-03-0.103E-03
CGA:   6    -0.699737635127E+03   -0.40436E-04   -0.45512E-04  8424   0.333E-03 0.970E-04
CGA:   7    -0.699737659538E+03   -0.24411E-04   -0.28541E-04  8424   0.670E-04 0.780E-04
CGA:   8    -0.699737674805E+03   -0.15267E-04   -0.15941E-04  8424   0.419E-04-0.988E-05
CGA:   9    -0.699737676808E+03   -0.20026E-05   -0.25321E-05  8424   0.190E-04 0.933E-05
  20 F= -.69973768E+03 E0= -.69972818E+03  d E =-.847308E-04  mag=     1.9925
       N       E                     dE             d eps       ncg     rms          ort
SDA:   1    -0.699154238964E+03    0.58344E+00    0.00000E+00  8424   0.153E+01 0.000E+00
CGA:   2    -0.699534847422E+03   -0.38061E+00   -0.38071E+00  8424   0.837E+00-0.997E-03
CGA:   3    -0.699687666892E+03   -0.15282E+00   -0.15287E+00  8424   0.345E+00-0.106E-02
CGA:   4    -0.699711475005E+03   -0.23808E-01   -0.23919E-01  8424   0.172E+00 0.391E-03
CGA:   5    -0.699726582553E+03   -0.15108E-01   -0.15196E-01  8424   0.424E-01 0.694E-03
CGA:   6    -0.699732363780E+03   -0.57812E-02   -0.57795E-02  8424   0.123E-01 0.260E-03
CGA:   7    -0.699733833963E+03   -0.14702E-02   -0.14699E-02  8424   0.860E-02-0.881E-04
CGA:   8    -0.699734407072E+03   -0.57311E-03   -0.57129E-03  8424   0.293E-02-0.386E-04
CGA:   9    -0.699734821673E+03   -0.41460E-03   -0.41736E-03  8424   0.106E-02-0.143E-03
CGA:  10    -0.699734929792E+03   -0.10812E-03   -0.11042E-03  8424   0.497E-03 0.155E-03
CGA:  11    -0.699734989383E+03   -0.59590E-04   -0.60169E-04  8424   0.484E-03 0.317E-04
CGA:  12    -0.699735039452E+03   -0.50069E-04   -0.50487E-04  8424   0.131E-03 0.167E-04
CGA:  13    -0.699735062788E+03   -0.23336E-04   -0.24048E-04  8424   0.153E-03-0.129E-04
CGA:  14    -0.699735073973E+03   -0.11184E-04   -0.11655E-04  8424   0.763E-04 0.117E-04
CGA:  15    -0.699735080359E+03   -0.63866E-05   -0.67928E-05  8424   0.236E-04 0.102E-04
  21 F= -.69973508E+03 E0= -.69972556E+03  d E =0.259645E-02  mag=     1.9926
       N       E                     dE             d eps       ncg     rms          ort
SDA:   1    -0.699341503408E+03    0.39357E+00    0.00000E+00  8424   0.105E+01 0.000E+00
CGA:   2    -0.699600342103E+03   -0.25884E+00   -0.25876E+00  8424   0.600E+00 0.545E-03
CGA:   3    -0.699690264262E+03   -0.89922E-01   -0.89771E-01  8424   0.515E+00 0.402E-02
CGA:   4    -0.699719452196E+03   -0.29188E-01   -0.28921E-01  8424   0.889E-01 0.346E-02
CGA:   5    -0.699732415716E+03   -0.12964E-01   -0.12982E-01  8424   0.263E-01-0.849E-03
CGA:   6    -0.699736004774E+03   -0.35891E-02   -0.35948E-02  8424   0.119E-01-0.419E-03
CGA:   7    -0.699736790983E+03   -0.78621E-03   -0.78784E-03  8424   0.549E-02 0.153E-04
CGA:   8    -0.699737351481E+03   -0.56050E-03   -0.56642E-03  8424   0.149E-02 0.315E-03
CGA:   9    -0.699737615657E+03   -0.26418E-03   -0.26728E-03  8424   0.631E-03-0.647E-04
CGA:  10    -0.699737692520E+03   -0.76862E-04   -0.76688E-04  8424   0.320E-03 0.465E-04
CGA:  11    -0.699737738326E+03   -0.45806E-04   -0.46684E-04  8424   0.527E-03-0.705E-04
CGA:  12    -0.699737769864E+03   -0.31538E-04   -0.29459E-04  8424   0.133E-03-0.400E-04
CGA:  13    -0.699737776162E+03   -0.62979E-05   -0.75916E-05  8424   0.107E-03 0.217E-04
CGA:  14    -0.699737785344E+03   -0.91828E-05   -0.10260E-04  8424   0.508E-04 0.296E-04
  22 F= -.69973779E+03 E0= -.69972829E+03  d E =-.270499E-02  mag=     1.9925
       N       E                     dE             d eps       ncg     rms          ort
SDA:   1    -0.699724455712E+03    0.13320E-01    0.00000E+00  8424   0.144E+00 0.000E+00
CGA:   2    -0.699730443583E+03   -0.59879E-02   -0.60418E-02  8424   0.247E-01-0.169E-02
CGA:   3    -0.699735288883E+03   -0.48453E-02   -0.48500E-02  8424   0.990E-02-0.607E-04
CGA:   4    -0.699737033547E+03   -0.17447E-02   -0.17467E-02  8424   0.728E-02-0.426E-04
CGA:   5    -0.699737457704E+03   -0.42416E-03   -0.42663E-03  8424   0.202E-02 0.587E-04
CGA:   6    -0.699737675162E+03   -0.21746E-03   -0.21786E-03  8424   0.730E-03 0.367E-04
CGA:   7    -0.699737751230E+03   -0.76068E-04   -0.77782E-04  8424   0.129E-03 0.138E-03
CGA:   8    -0.699737777530E+03   -0.26300E-04   -0.30824E-04  8424   0.268E-03-0.540E-04
CGA:   9    -0.699737784651E+03   -0.71212E-05   -0.63105E-05  8424   0.120E-03-0.102E-04
  23 F= -.69973778E+03 E0= -.69972827E+03  d E =0.693013E-06  mag=     1.9925
       N       E                     dE             d eps       ncg     rms          ort
SDA:   1    -0.699735416200E+03    0.23613E-02    0.00000E+00  8424   0.213E-01 0.000E+00
CGA:   2    -0.699736387061E+03   -0.97086E-03   -0.97781E-03  8424   0.537E-02 0.762E-04
CGA:   3    -0.699737275490E+03   -0.88843E-03   -0.89467E-03  8424   0.299E-02-0.113E-03
CGA:   4    -0.699737676989E+03   -0.40150E-03   -0.40063E-03  8424   0.994E-03 0.332E-04
CGA:   5    -0.699737821720E+03   -0.14473E-03   -0.14389E-03  8424   0.317E-03 0.277E-04
CGA:   6    -0.699737842283E+03   -0.20563E-04   -0.20897E-04  8424   0.155E-03 0.637E-05
CGA:   7    -0.699737864492E+03   -0.22209E-04   -0.23502E-04  8424   0.685E-04-0.356E-04
CGA:   8    -0.699737867482E+03   -0.29905E-05   -0.34773E-05  8424   0.212E-04 0.101E-04
  24 F= -.69973787E+03 E0= -.69972836E+03  d E =-.828308E-04  mag=     1.9925
       N       E                     dE             d eps       ncg     rms          ort
SDA:   1    -0.699736978485E+03    0.88601E-03    0.00000E+00  8424   0.291E-02 0.000E+00
CGA:   2    -0.699737317273E+03   -0.33879E-03   -0.33802E-03  8424   0.359E-02 0.122E-03
CGA:   3    -0.699737676773E+03   -0.35950E-03   -0.35910E-03  8424   0.140E-02-0.322E-04
CGA:   4    -0.699737834220E+03   -0.15745E-03   -0.15780E-03  8424   0.462E-03-0.832E-04
CGA:   5    -0.699737876308E+03   -0.42087E-04   -0.42335E-04  8424   0.199E-03 0.192E-04
CGA:   6    -0.699737888018E+03   -0.11711E-04   -0.12784E-04  8424   0.514E-04 0.226E-04
CGA:   7    -0.699737897792E+03   -0.97742E-05   -0.11637E-04  8424   0.420E-04-0.193E-04
  25 F= -.69973790E+03 E0= -.69972840E+03  d E =-.303102E-04  mag=     1.9926
       N       E                     dE             d eps       ncg     rms          ort
SDA:   1    -0.699731233025E+03    0.66550E-02    0.00000E+00  8424   0.187E-01 0.000E+00
CGA:   2    -0.699734924953E+03   -0.36919E-02   -0.37742E-02  8424   0.204E-01-0.889E-03
CGA:   3    -0.699736734501E+03   -0.18095E-02   -0.18157E-02  8424   0.987E-02 0.349E-03
CGA:   4    -0.699737389614E+03   -0.65511E-03   -0.66308E-03  8424   0.280E-02 0.167E-03
CGA:   5    -0.699737772022E+03   -0.38241E-03   -0.38267E-03  8424   0.642E-03-0.111E-04
CGA:   6    -0.699737849804E+03   -0.77782E-04   -0.77196E-04  8424   0.240E-03 0.579E-04
CGA:   7    -0.699737870328E+03   -0.20523E-04   -0.21568E-04  8424   0.135E-03 0.362E-04
CGA:   8    -0.699737884576E+03   -0.14248E-04   -0.14173E-04  8424   0.374E-04-0.407E-05
CGA:   9    -0.699737889294E+03   -0.47181E-05   -0.47589E-05  8424   0.336E-04-0.186E-05
  26 F= -.69973789E+03 E0= -.69972839E+03  d E =0.849858E-05  mag=     1.9925
       N       E                     dE             d eps       ncg     rms          ort
SDA:   1    -0.699736291155E+03    0.15934E-02    0.00000E+00  8424   0.696E-02 0.000E+00
CGA:   2    -0.699736834925E+03   -0.54377E-03   -0.54131E-03  8424   0.615E-02-0.100E-03
CGA:   3    -0.699737585820E+03   -0.75090E-03   -0.74994E-03  8424   0.177E-02 0.544E-04
CGA:   4    -0.699737867372E+03   -0.28155E-03   -0.27793E-03  8424   0.547E-03 0.750E-04
CGA:   5    -0.699737945602E+03   -0.78230E-04   -0.80859E-04  8424   0.246E-03-0.834E-04
CGA:   6    -0.699737959682E+03   -0.14080E-04   -0.15046E-04  8424   0.116E-03 0.244E-04
CGA:   7    -0.699737968508E+03   -0.88262E-05   -0.92890E-05  8424   0.261E-04 0.126E-04
CGA:   8    -0.699737960817E+03    0.76915E-05   -0.13558E-04  8424   0.180E-03-0.589E-04
CGA:   9    -0.699737969158E+03   -0.83414E-05   -0.10991E-04  8424   0.401E-04 0.408E-04
  27 F= -.69973797E+03 E0= -.69972846E+03  d E =-.798642E-04  mag=     1.9925
