       N       E                     dE             d eps       ncg     rms          ort
DAV:   1     0.282665859363E+04    0.28267E+04   -0.29354E+05  2880   0.140E+03
DAV:   2    -0.970053166447E+03   -0.37967E+04   -0.36634E+04  2880   0.313E+02
DAV:   3    -0.122716981095E+04   -0.25712E+03   -0.25502E+03  2880   0.849E+01
DAV:   4    -0.123015874547E+04   -0.29889E+01   -0.29789E+01  2880   0.973E+00
DAV:   5    -0.123020707375E+04   -0.48328E-01   -0.48228E-01  2880   0.114E+00
SDA:   6    -0.873129829964E+03    0.35708E+03   -0.48228E-01  2880   0.622E+03 0.000E+00
CGA:   7    -0.982459313973E+03   -0.10933E+03   -0.11007E+03  2880   0.544E+02 0.164E+02
CGA:   8    -0.994302129290E+03   -0.11843E+02   -0.11861E+02  2880   0.246E+02-0.143E+01
CGA:   9    -0.999457594682E+03   -0.51555E+01   -0.50605E+01  2880   0.104E+02 0.407E+01
CGA:  10    -0.999733446041E+03   -0.27585E+00   -0.10880E+01  2880   0.258E+02-0.717E+01
CGA:  11    -0.100082493537E+04   -0.10915E+01   -0.26791E+01  2880   0.833E+01-0.134E+01
CGA:  12    -0.100183215171E+04   -0.10072E+01   -0.10281E+01  2880   0.367E+01 0.321E+00
CGA:  13    -0.100206355434E+04   -0.23140E+00   -0.29103E+00  2880   0.928E+01-0.134E+01
CGA:  14    -0.100230742452E+04   -0.24387E+00   -0.27981E+00  2880   0.289E+01-0.323E+01
CGA:  15    -0.100260387960E+04   -0.29646E+00   -0.66538E+00  2880   0.299E+01-0.178E+01
CGA:  16    -0.100282872715E+04   -0.22485E+00   -0.30251E+00  2880   0.275E+01-0.277E+00
CGA:  17    -0.100290201884E+04   -0.73292E-01   -0.71893E-01  2880   0.972E+00-0.470E+00
CGA:  18    -0.100293397750E+04   -0.31959E-01   -0.40906E-01  2880   0.174E+01-0.141E+00
CGA:  19    -0.100297528647E+04   -0.41309E-01   -0.58938E-01  2880   0.149E+01-0.491E+00
CGA:  20    -0.100298356376E+04   -0.82773E-02   -0.44950E-01  2880   0.108E+01-0.593E+00
CGA:  21    -0.100300342942E+04   -0.19866E-01   -0.24701E-01  2880   0.644E+00-0.110E+00
CGA:  22    -0.100302741463E+04   -0.23985E-01   -0.29690E-01  2880   0.437E+00-0.885E-01
CGA:  23    -0.100303922084E+04   -0.11806E-01   -0.90475E-02  2880   0.165E+00 0.108E+00
CGA:  24    -0.100304396327E+04   -0.47424E-02   -0.41497E-02  2880   0.540E-01 0.333E-01
CGA:  25    -0.100304616440E+04   -0.22011E-02   -0.22961E-02  2880   0.655E-01-0.105E-03
CGA:  26    -0.100304929195E+04   -0.31276E-02   -0.31038E-02  2880   0.121E+00 0.293E-04
CGA:  27    -0.100305305817E+04   -0.37662E-02   -0.33159E-02  2880   0.105E+00 0.831E-02
CGA:  28    -0.100305618820E+04   -0.31300E-02   -0.32527E-02  2880   0.790E-01-0.134E-01
CGA:  29    -0.100305849404E+04   -0.23058E-02   -0.21403E-02  2880   0.764E-01-0.571E-02
CGA:  30    -0.100306079190E+04   -0.22979E-02   -0.22886E-02  2880   0.545E-01-0.912E-02
CGA:  31    -0.100306197375E+04   -0.11818E-02   -0.12290E-02  2880   0.191E-01-0.584E-02
CGA:  32    -0.100306231151E+04   -0.33776E-03   -0.35216E-03  2880   0.795E-02 0.182E-03
CGA:  33    -0.100306249926E+04   -0.18775E-03   -0.22581E-03  2880   0.768E-02 0.471E-03
CGA:  34    -0.100306281858E+04   -0.31932E-03   -0.36969E-03  2880   0.140E-01 0.982E-03
CGA:  35    -0.100306344565E+04   -0.62707E-03   -0.68440E-03  2880   0.161E-01 0.144E-02
CGA:  36    -0.100306397186E+04   -0.52621E-03   -0.58066E-03  2880   0.109E-01 0.178E-03
CGA:  37    -0.100306434732E+04   -0.37546E-03   -0.38946E-03  2880   0.898E-02-0.145E-03
CGA:  38    -0.100306465931E+04   -0.31199E-03   -0.32469E-03  2880   0.634E-02 0.303E-04
CGA:  39    -0.100306480776E+04   -0.14844E-03   -0.17344E-03  2880   0.247E-02 0.335E-03
CGA:  40    -0.100306484779E+04   -0.40037E-04   -0.62000E-04  2880   0.129E-02 0.408E-03
CGA:  41    -0.100306487239E+04   -0.24599E-04   -0.45277E-04  2880   0.144E-02 0.460E-03
CGA:  42    -0.100306493030E+04   -0.57905E-04   -0.81378E-04  2880   0.214E-02 0.761E-03
CGA:  43    -0.100306507787E+04   -0.14757E-03   -0.14612E-03  2880   0.957E-03-0.417E-03
CGA:  44    -0.100306520611E+04   -0.12824E-03   -0.10212E-03  2880   0.299E-03 0.431E-03
CGA:  45    -0.100306525230E+04   -0.46198E-04   -0.41915E-04  2880   0.273E-03 0.197E-03
CGA:  46    -0.100306524785E+04    0.44564E-05   -0.60879E-04  2880   0.244E-02-0.450E-03
CGA:  47    -0.100306532395E+04   -0.76098E-04   -0.92733E-04  2880   0.120E-03 0.364E-03
CGA:  48    -0.100306532633E+04   -0.23881E-05   -0.55316E-05  2880   0.856E-04 0.766E-04
   1 F= -.10030653E+04 E0= -.10030486E+04  d E =-.100307E+04  mag=     1.0000
       N       E                     dE             d eps       ncg     rms          ort
SDA:   1    -0.100308830062E+04   -0.22977E-01    0.00000E+00  2880   0.346E+00 0.000E+00
CGA:   2    -0.100310217581E+04   -0.13875E-01   -0.14673E-01  2880   0.703E-02-0.244E-01
CGA:   3    -0.100310281469E+04   -0.63888E-03   -0.65677E-03  2880   0.499E-02 0.433E-03
CGA:   4    -0.100310376428E+04   -0.94959E-03   -0.97393E-03  2880   0.418E-02-0.551E-03
CGA:   5    -0.100310399505E+04   -0.23077E-03   -0.24826E-03  2880   0.484E-03 0.247E-03
CGA:   6    -0.100310408144E+04   -0.86389E-04   -0.85820E-04  2880   0.336E-03 0.173E-04
CGA:   7    -0.100310412694E+04   -0.45506E-04   -0.45615E-04  2880   0.852E-04 0.165E-04
CGA:   8    -0.100310412795E+04   -0.10086E-05   -0.44102E-05  2880   0.361E-04 0.386E-04
   2 F= -.10031041E+04 E0= -.10030872E+04  d E =-.388016E-01  mag=     0.9990
       N       E                     dE             d eps       ncg     rms          ort
SDA:   1    -0.100228953901E+04    0.81459E+00    0.00000E+00  2880   0.505E+01 0.000E+00
CGA:   2    -0.100322155847E+04   -0.93202E+00   -0.84567E+00  2880   0.183E+01 0.152E+01
CGA:   3    -0.100364667236E+04   -0.42511E+00   -0.47870E+00  2880   0.368E+01-0.662E+00
CGA:   4    -0.100377089339E+04   -0.12422E+00   -0.12443E+00  2880   0.183E+01-0.149E-01
CGA:   5    -0.100382669401E+04   -0.55801E-01   -0.83627E-01  2880   0.777E+00-0.465E+00
CGA:   6    -0.100386110076E+04   -0.34407E-01   -0.34725E-01  2880   0.285E+00-0.392E-02
CGA:   7    -0.100387837189E+04   -0.17271E-01   -0.17104E-01  2880   0.250E+00 0.508E-02
CGA:   8    -0.100391019859E+04   -0.31827E-01   -0.31812E-01  2880   0.264E+00 0.226E-02
CGA:   9    -0.100392185008E+04   -0.11651E-01   -0.11946E-01  2880   0.548E-01-0.993E-02
CGA:  10    -0.100392692110E+04   -0.50710E-02   -0.50099E-02  2880   0.687E-01-0.181E-02
CGA:  11    -0.100393207114E+04   -0.51500E-02   -0.52183E-02  2880   0.513E-01 0.112E-02
CGA:  12    -0.100393571071E+04   -0.36396E-02   -0.36888E-02  2880   0.392E-01 0.127E-02
CGA:  13    -0.100393845936E+04   -0.27486E-02   -0.27543E-02  2880   0.110E-01-0.878E-03
CGA:  14    -0.100393920501E+04   -0.74565E-03   -0.71290E-03  2880   0.972E-02-0.872E-03
CGA:  15    -0.100394041138E+04   -0.12064E-02   -0.12063E-02  2880   0.914E-02 0.749E-05
CGA:  16    -0.100394078771E+04   -0.37633E-03   -0.41184E-03  2880   0.210E-02 0.547E-03
CGA:  17    -0.100394097321E+04   -0.18550E-03   -0.18743E-03  2880   0.223E-02 0.755E-04
CGA:  18    -0.100394121198E+04   -0.23878E-03   -0.23805E-03  2880   0.199E-02-0.547E-03
CGA:  19    -0.100394134456E+04   -0.13257E-03   -0.13152E-03  2880   0.140E-02-0.648E-04
CGA:  20    -0.100394138693E+04   -0.42373E-04   -0.57177E-04  2880   0.377E-03 0.220E-03
CGA:  21    -0.100394140044E+04   -0.13514E-04   -0.20542E-04  2880   0.282E-03 0.128E-03
CGA:  22    -0.100394144176E+04   -0.41318E-04   -0.40786E-04  2880   0.397E-03 0.531E-04
CGA:  23    -0.100394148590E+04   -0.44140E-04   -0.42579E-04  2880   0.288E-03-0.193E-03
CGA:  24    -0.100394149379E+04   -0.78854E-05   -0.76632E-05  2880   0.235E-03-0.587E-05
   3 F= -.10039415E+04 E0= -.10039244E+04  d E =-.837366E+00  mag=     0.9975
       N       E                     dE             d eps       ncg     rms          ort
SDA:   1    -0.100027760189E+04    0.36639E+01    0.00000E+00  2880   0.283E+02 0.000E+00
CGA:   2    -0.100266455072E+04   -0.23869E+01   -0.23983E+01  2880   0.793E+01-0.669E+00
CGA:   3    -0.100335543975E+04   -0.69089E+00   -0.68017E+00  2880   0.656E+01-0.110E+01
CGA:   4    -0.100396062554E+04   -0.60519E+00   -0.67819E+00  2880   0.720E+01-0.190E+01
CGA:   5    -0.100421259529E+04   -0.25197E+00   -0.26813E+00  2880   0.320E+01-0.343E+00
CGA:   6    -0.100435558320E+04   -0.14299E+00   -0.16576E+00  2880   0.177E+01-0.154E+00
CGA:   7    -0.100445247581E+04   -0.96893E-01   -0.85747E-01  2880   0.385E+00 0.787E-01
CGA:   8    -0.100447397230E+04   -0.21496E-01   -0.21216E-01  2880   0.318E+00 0.404E-02
CGA:   9    -0.100450173621E+04   -0.27764E-01   -0.27763E-01  2880   0.285E+00 0.130E-02
CGA:  10    -0.100451787400E+04   -0.16138E-01   -0.16674E-01  2880   0.192E+00-0.484E-02
CGA:  11    -0.100453254885E+04   -0.14675E-01   -0.14608E-01  2880   0.934E-01-0.330E-02
CGA:  12    -0.100453700966E+04   -0.44608E-02   -0.46376E-02  2880   0.357E-01 0.278E-02
CGA:  13    -0.100453980783E+04   -0.27982E-02   -0.27860E-02  2880   0.388E-01-0.189E-03
CGA:  14    -0.100454280611E+04   -0.29983E-02   -0.29935E-02  2880   0.308E-01-0.159E-02
CGA:  15    -0.100454481551E+04   -0.20094E-02   -0.20079E-02  2880   0.281E-01-0.105E-02
CGA:  16    -0.100454653451E+04   -0.17190E-02   -0.17449E-02  2880   0.107E-01 0.133E-02
CGA:  17    -0.100454700603E+04   -0.47152E-03   -0.51255E-03  2880   0.450E-02 0.934E-03
CGA:  18    -0.100454745979E+04   -0.45376E-03   -0.45353E-03  2880   0.541E-02-0.948E-05
CGA:  19    -0.100454793865E+04   -0.47886E-03   -0.49352E-03  2880   0.444E-02-0.133E-02
CGA:  20    -0.100454823917E+04   -0.30052E-03   -0.30723E-03  2880   0.373E-02-0.583E-03
CGA:  21    -0.100454835922E+04   -0.12005E-03   -0.13778E-03  2880   0.127E-02 0.471E-03
CGA:  22    -0.100454839750E+04   -0.38283E-04   -0.55481E-04  2880   0.746E-03 0.418E-03
CGA:  23    -0.100454844560E+04   -0.48102E-04   -0.55391E-04  2880   0.676E-03 0.343E-03
CGA:  24    -0.100454851588E+04   -0.70276E-04   -0.70566E-04  2880   0.478E-03 0.648E-04
CGA:  25    -0.100454856542E+04   -0.49541E-04   -0.53194E-04  2880   0.586E-03-0.142E-03
CGA:  26    -0.100454857912E+04   -0.13698E-04   -0.15692E-04  2880   0.410E-03 0.502E-04
CGA:  27    -0.100454859063E+04   -0.11516E-04   -0.15660E-04  2880   0.258E-03 0.104E-03
CGA:  28    -0.100454860637E+04   -0.15735E-04   -0.16796E-04  2880   0.248E-03 0.510E-04
CGA:  29    -0.100454862933E+04   -0.22959E-04   -0.29791E-04  2880   0.319E-03-0.241E-03
CGA:  30    -0.100454864649E+04   -0.17164E-04   -0.70766E-04  2880   0.706E-03-0.360E-03
CGA:  31    -0.100454867652E+04   -0.30033E-04   -0.36551E-04  2880   0.973E-04 0.225E-03
CGA:  32    -0.100454868104E+04   -0.45133E-05   -0.58862E-05  2880   0.201E-04 0.409E-04
   4 F= -.10045487E+04 E0= -.10045312E+04  d E =-.607187E+00  mag=     0.9980
       N       E                     dE             d eps       ncg     rms          ort
SDA:   1    -0.100145448282E+04    0.30942E+01    0.00000E+00  2880   0.145E+02 0.000E+00
CGA:   2    -0.100153446972E+04   -0.79987E-01   -0.39264E+01  2880   0.181E+02-0.717E+01
CGA:   3    -0.100214915552E+04   -0.61469E+00   -0.14571E+01  2880   0.218E+02-0.598E+01
CGA:   4    -0.100350990751E+04   -0.13608E+01   -0.13540E+01  2880   0.671E+01-0.283E+01
CGA:   5    -0.100419941442E+04   -0.68951E+00   -0.66767E+00  2880   0.342E+01 0.311E+00
CGA:   6    -0.100430417702E+04   -0.10476E+00   -0.13620E+00  2880   0.238E+01-0.633E+00
CGA:   7    -0.100447043963E+04   -0.16626E+00   -0.14173E+00  2880   0.225E+01-0.296E+00
CGA:   8    -0.100456290280E+04   -0.92463E-01   -0.95590E-01  2880   0.267E+01 0.662E-01
CGA:   9    -0.100462629043E+04   -0.63388E-01   -0.56320E-01  2880   0.168E+01 0.144E-01
CGA:  10    -0.100465223032E+04   -0.25940E-01   -0.43286E-01  2880   0.193E+01-0.551E+00
CGA:  11    -0.100469039961E+04   -0.38169E-01   -0.53123E-01  2880   0.161E+01-0.105E+00
CGA:  12    -0.100472627153E+04   -0.35872E-01   -0.31591E-01  2880   0.596E+00 0.129E+00
CGA:  13    -0.100474776789E+04   -0.21496E-01   -0.22767E-01  2880   0.720E+00-0.350E-01
CGA:  14    -0.100478025851E+04   -0.32491E-01   -0.26913E-01  2880   0.803E+00 0.640E-01
CGA:  15    -0.100479507499E+04   -0.14816E-01   -0.13219E-01  2880   0.490E+00 0.108E+00
CGA:  16    -0.100480365307E+04   -0.85781E-02   -0.10422E-01  2880   0.327E+00-0.638E-01
CGA:  17    -0.100480899594E+04   -0.53429E-02   -0.63121E-02  2880   0.312E+00-0.258E-01
CGA:  18    -0.100481562899E+04   -0.66331E-02   -0.62086E-02  2880   0.320E+00 0.200E-01
CGA:  19    -0.100482324716E+04   -0.76182E-02   -0.68704E-02  2880   0.343E+00 0.330E-01
CGA:  20    -0.100483104819E+04   -0.78010E-02   -0.76903E-02  2880   0.342E+00 0.365E-02
CGA:  21    -0.100483700230E+04   -0.59541E-02   -0.59994E-02  2880   0.250E+00-0.113E-01
CGA:  22    -0.100484060555E+04   -0.36032E-02   -0.33672E-02  2880   0.167E+00 0.225E-02
CGA:  23    -0.100484336536E+04   -0.27598E-02   -0.27320E-02  2880   0.151E+00-0.766E-02
CGA:  24    -0.100484617230E+04   -0.28069E-02   -0.29306E-02  2880   0.181E+00-0.810E-02
CGA:  25    -0.100484931702E+04   -0.31447E-02   -0.31759E-02  2880   0.163E+00 0.122E-02
CGA:  26    -0.100485170236E+04   -0.23853E-02   -0.25471E-02  2880   0.104E+00-0.989E-04
CGA:  27    -0.100485315803E+04   -0.14557E-02   -0.16488E-02  2880   0.668E-01-0.203E-02
CGA:  28    -0.100485422198E+04   -0.10639E-02   -0.11462E-02  2880   0.538E-01 0.700E-03
CGA:  29    -0.100485530089E+04   -0.10789E-02   -0.11102E-02  2880   0.546E-01 0.655E-03
CGA:  30    -0.100485651567E+04   -0.12148E-02   -0.12307E-02  2880   0.559E-01-0.533E-03
CGA:  31    -0.100485768135E+04   -0.11657E-02   -0.11562E-02  2880   0.431E-01-0.187E-02
SDA:  32    -0.100485850749E+04   -0.82614E-03   -0.78606E-03  2880   0.283E-01-0.219E-02
CGA:  33    -0.100486084863E+04   -0.23411E-02   -0.24103E-02  2880   0.779E-02-0.167E-02
CGA:  34    -0.100486137395E+04   -0.52531E-03   -0.48445E-03  2880   0.340E-02 0.171E-02
CGA:  35    -0.100486227599E+04   -0.90204E-03   -0.74471E-03  2880   0.650E-02 0.115E-02
CGA:  36    -0.100486320282E+04   -0.92683E-03   -0.10064E-02  2880   0.326E-02-0.125E-02
CGA:  37    -0.100486344326E+04   -0.24044E-03   -0.22572E-03  2880   0.684E-03 0.457E-03
CGA:  38    -0.100486352868E+04   -0.85421E-04   -0.75181E-04  2880   0.655E-03 0.248E-03
CGA:  39    -0.100486363464E+04   -0.10596E-03   -0.20131E-04  2880   0.370E-02-0.737E-03
CGA:  40    -0.100486385463E+04   -0.21999E-03   -0.22797E-03  2880   0.468E-03 0.111E-03
CGA:  41    -0.100486390638E+04   -0.51751E-04   -0.53991E-04  2880   0.356E-03-0.248E-03
CGA:  42    -0.100486391464E+04   -0.82582E-05   -0.15510E-04  2880   0.857E-04 0.119E-03
   5 F= -.10048639E+04 E0= -.10048464E+04  d E =-.315234E+00  mag=     0.9990
       N       E                     dE             d eps       ncg     rms          ort
SDA:   1    -0.100093448935E+04    0.39294E+01    0.00000E+00  2880   0.163E+02 0.000E+00
CGA:   2    -0.100262373374E+04   -0.16892E+01   -0.17555E+01  2880   0.119E+02-0.223E+01
CGA:   3    -0.100364345943E+04   -0.10197E+01   -0.10268E+01  2880   0.124E+02-0.232E+01
CGA:   4    -0.100440511504E+04   -0.76166E+00   -0.54289E+00  2880   0.544E+01-0.324E+01
CGA:   5    -0.100470059994E+04   -0.29548E+00   -0.31111E+00  2880   0.269E+01 0.222E+00
CGA:   6    -0.100480482711E+04   -0.10423E+00   -0.11109E+00  2880   0.130E+01-0.239E+00
CGA:   7    -0.100490306984E+04   -0.98243E-01   -0.93133E-01  2880   0.986E+00-0.107E+00
CGA:   8    -0.100493047960E+04   -0.27410E-01   -0.24317E-01  2880   0.653E+00 0.946E-01
CGA:   9    -0.100495695421E+04   -0.26475E-01   -0.25879E-01  2880   0.661E+00-0.165E-03
CGA:  10    -0.100497934559E+04   -0.22391E-01   -0.21620E-01  2880   0.616E+00-0.743E-02
CGA:  11    -0.100499561426E+04   -0.16269E-01   -0.17156E-01  2880   0.403E+00-0.474E-01
CGA:  12    -0.100500550642E+04   -0.98922E-02   -0.10783E-01  2880   0.350E+00-0.275E-01
CGA:  13    -0.100501740880E+04   -0.11902E-01   -0.13117E-01  2880   0.352E+00-0.807E-02
CGA:  14    -0.100502705845E+04   -0.96497E-02   -0.10723E-01  2880   0.159E+00-0.764E-02
CGA:  15    -0.100503134327E+04   -0.42848E-02   -0.43902E-02  2880   0.749E-01 0.337E-02
CGA:  16    -0.100503417301E+04   -0.28297E-02   -0.27443E-02  2880   0.666E-01-0.207E-03
CGA:  17    -0.100503706974E+04   -0.28967E-02   -0.28438E-02  2880   0.634E-01-0.388E-02
CGA:  18    -0.100503908612E+04   -0.20164E-02   -0.19641E-02  2880   0.444E-01-0.344E-02
CGA:  19    -0.100504082209E+04   -0.17360E-02   -0.18366E-02  2880   0.511E-01-0.418E-03
CGA:  20    -0.100504360340E+04   -0.27813E-02   -0.28596E-02  2880   0.318E-01 0.534E-02
CGA:  21    -0.100504482853E+04   -0.12251E-02   -0.13068E-02  2880   0.915E-02 0.213E-02
CGA:  22    -0.100504538221E+04   -0.55368E-03   -0.55126E-03  2880   0.711E-02-0.290E-03
CGA:  23    -0.100504587971E+04   -0.49749E-03   -0.51780E-03  2880   0.673E-02-0.178E-02
CGA:  24    -0.100504620648E+04   -0.32677E-03   -0.32759E-03  2880   0.792E-02-0.814E-03
CGA:  25    -0.100504665164E+04   -0.44516E-03   -0.44515E-03  2880   0.563E-02 0.963E-03
CGA:  26    -0.100504685300E+04   -0.20136E-03   -0.23045E-03  2880   0.131E-02 0.103E-02
CGA:  27    -0.100504691419E+04   -0.61184E-04   -0.66958E-04  2880   0.832E-03 0.292E-03
CGA:  28    -0.100504701233E+04   -0.98146E-04   -0.10616E-03  2880   0.150E-02-0.192E-03
CGA:  29    -0.100504708515E+04   -0.72814E-04   -0.72518E-04  2880   0.171E-02-0.379E-03
CGA:  30    -0.100504714552E+04   -0.60371E-04   -0.59765E-04  2880   0.167E-02-0.515E-04
CGA:  31    -0.100504719857E+04   -0.53056E-04   -0.61358E-04  2880   0.947E-03 0.334E-03
SDA:  32    -0.100504721899E+04   -0.20414E-04   -0.30639E-04  2880   0.338E-03 0.308E-03
CGA:  33    -0.100504724653E+04   -0.27544E-04   -0.26454E-04  2880   0.159E-03 0.572E-04
CGA:  34    -0.100504722760E+04    0.18930E-04   -0.19954E-04  2880   0.106E-02-0.301E-03
CGA:  35    -0.100504727640E+04   -0.48804E-04   -0.60542E-04  2880   0.254E-03 0.220E-03
CGA:  36    -0.100504730554E+04   -0.29131E-04   -0.29475E-04  2880   0.386E-04 0.269E-04
CGA:  37    -0.100504731925E+04   -0.13719E-04    0.46402E-05  2880   0.432E-04-0.199E-04
CGA:  38    -0.100504731838E+04    0.87282E-06   -0.11169E-05  2880   0.162E-04 0.242E-04
   6 F= -.10050473E+04 E0= -.10050304E+04  d E =-.183404E+00  mag=     0.9991
       N       E                     dE             d eps       ncg     rms          ort
SDA:   1    -0.999480616903E+03    0.55667E+01    0.00000E+00  2880   0.182E+02 0.000E+00
CGA:   2    -0.100153257567E+04   -0.20520E+01   -0.23834E+01  2880   0.172E+02-0.173E+01
CGA:   3    -0.100383309392E+04   -0.23005E+01   -0.23958E+01  2880   0.880E+01 0.144E+00
CGA:   4    -0.100433410243E+04   -0.50101E+00   -0.61354E+00  2880   0.371E+01 0.137E+00
CGA:   5    -0.100477814631E+04   -0.44404E+00   -0.27082E+00  2880   0.772E+00 0.542E-01
CGA:   6    -0.100485243900E+04   -0.74293E-01   -0.74209E-01  2880   0.200E+01-0.952E-03
CGA:   7    -0.100499302603E+04   -0.14059E+00   -0.12203E+00  2880   0.106E+01 0.158E+00
CGA:   8    -0.100502514031E+04   -0.32114E-01   -0.29459E-01  2880   0.389E+00 0.764E-01
CGA:   9    -0.100504036811E+04   -0.15228E-01   -0.13284E-01  2880   0.324E+00 0.297E-01
CGA:  10    -0.100505495988E+04   -0.14592E-01   -0.13757E-01  2880   0.405E+00-0.446E-02
CGA:  11    -0.100506897541E+04   -0.14016E-01   -0.14873E-01  2880   0.387E+00-0.253E-01
CGA:  12    -0.100508056663E+04   -0.11591E-01   -0.13599E-01  2880   0.405E+00-0.294E-01
CGA:  13    -0.100509664527E+04   -0.16079E-01   -0.16404E-01  2880   0.256E+00 0.189E-01
CGA:  14    -0.100510311453E+04   -0.64693E-02   -0.64640E-02  2880   0.846E-01 0.133E-01
CGA:  15    -0.100510605250E+04   -0.29380E-02   -0.29403E-02  2880   0.748E-01 0.138E-02
CGA:  16    -0.100510989835E+04   -0.38459E-02   -0.37223E-02  2880   0.125E+00-0.663E-03
CGA:  17    -0.100511452137E+04   -0.46230E-02   -0.48291E-02  2880   0.124E+00-0.340E-02
CGA:  18    -0.100511811316E+04   -0.35918E-02   -0.40350E-02  2880   0.532E-01-0.717E-02
CGA:  19    -0.100511994214E+04   -0.18290E-02   -0.19481E-02  2880   0.410E-01-0.148E-03
CGA:  20    -0.100512250839E+04   -0.25663E-02   -0.25983E-02  2880   0.351E-01 0.350E-02
CGA:  21    -0.100512396935E+04   -0.14610E-02   -0.14727E-02  2880   0.985E-02 0.127E-02
CGA:  22    -0.100512457725E+04   -0.60791E-03   -0.60057E-03  2880   0.113E-01-0.830E-03
CGA:  23    -0.100512564539E+04   -0.10681E-02   -0.11942E-02  2880   0.253E-01-0.269E-02
CGA:  24    -0.100512644599E+04   -0.80059E-03   -0.78229E-03  2880   0.164E-01-0.731E-03
CGA:  25    -0.100512693097E+04   -0.48499E-03   -0.52622E-03  2880   0.830E-02 0.931E-03
CGA:  26    -0.100512717810E+04   -0.24713E-03   -0.29279E-03  2880   0.463E-02 0.140E-02
CGA:  27    -0.100512732277E+04   -0.14467E-03   -0.17443E-03  2880   0.255E-02 0.897E-03
CGA:  28    -0.100512745370E+04   -0.13093E-03   -0.13568E-03  2880   0.282E-02 0.244E-03
CGA:  29    -0.100512768631E+04   -0.23261E-03   -0.24334E-03  2880   0.622E-02-0.662E-03
CGA:  30    -0.100512787309E+04   -0.18677E-03   -0.16635E-03  2880   0.600E-02-0.769E-03
CGA:  31    -0.100512801841E+04   -0.14532E-03   -0.13248E-03  2880   0.320E-02-0.379E-03
SDA:  32    -0.100512808957E+04   -0.71162E-04   -0.74471E-04  2880   0.222E-02 0.823E-04
CGA:  33    -0.100512825899E+04   -0.16942E-03   -0.15975E-03  2880   0.626E-03 0.724E-03
CGA:  34    -0.100512834222E+04   -0.83237E-04   -0.76195E-04  2880   0.284E-03 0.214E-03
CGA:  35    -0.100512839204E+04   -0.49813E-04    0.14834E-03  2880   0.181E-03 0.237E-03
CGA:  36    -0.100512841731E+04   -0.25276E-04    0.36122E-04  2880   0.124E-03 0.136E-03
CGA:  37    -0.100512843258E+04   -0.15272E-04    0.19414E-03  2880   0.102E-03 0.108E-03
CGA:  38    -0.100512844555E+04   -0.12969E-04    0.65746E-04  2880   0.880E-04 0.924E-04
CGA:  39    -0.100512845674E+04   -0.11191E-04    0.54747E-04  2880   0.771E-04 0.805E-04
CGA:  40    -0.100512846669E+04   -0.99452E-05    0.36194E-04  2880   0.678E-04 0.708E-04
CGA:  41    -0.100512847550E+04   -0.88141E-05    0.28464E-04  2880   0.598E-04 0.624E-04
CGA:  42    -0.100512848337E+04   -0.78711E-05    0.21324E-04  2880   0.528E-04 0.552E-04
CGA:  43    -0.100512849040E+04   -0.70240E-05    0.16543E-04  2880   0.466E-04 0.488E-04
CGA:  44    -0.100512849668E+04   -0.62838E-05    0.12695E-04  2880   0.412E-04 0.431E-04
   7 F= -.10051285E+04 E0= -.10051127E+04  d E =-.811783E-01  mag=     0.9996
       N       E                     dE             d eps       ncg     rms          ort
SDA:   1    -0.100203502108E+04    0.30935E+01    0.00000E+00  2880   0.102E+02 0.000E+00
CGA:   2    -0.100307655756E+04   -0.10415E+01   -0.10347E+01  2880   0.972E+01 0.838E+00
CGA:   3    -0.100474378287E+04   -0.16672E+01   -0.18706E+01  2880   0.326E+01-0.164E+01
CGA:   4    -0.100493144515E+04   -0.18766E+00   -0.18786E+00  2880   0.101E+01-0.114E+00
CGA:   5    -0.100510132174E+04   -0.16988E+00   -0.17240E+00  2880   0.379E+00-0.269E-01
CGA:   6    -0.100512735786E+04   -0.26036E-01   -0.26123E-01  2880   0.129E+00 0.154E-01
CGA:   7    -0.100514589906E+04   -0.18541E-01   -0.18986E-01  2880   0.742E-01-0.670E-02
CGA:   8    -0.100515328647E+04   -0.73874E-02   -0.73507E-02  2880   0.332E-01 0.768E-03
CGA:   9    -0.100515674186E+04   -0.34554E-02   -0.34192E-02  2880   0.119E-01 0.130E-02
CGA:  10    -0.100515835975E+04   -0.16179E-02   -0.15600E-02  2880   0.770E-02 0.121E-02
CGA:  11    -0.100515958131E+04   -0.12216E-02   -0.12911E-02  2880   0.718E-02-0.101E-02
CGA:  12    -0.100516013133E+04   -0.55002E-03   -0.54914E-03  2880   0.206E-02 0.287E-03
CGA:  13    -0.100516032573E+04   -0.19440E-03   -0.19215E-03  2880   0.861E-03 0.558E-03
CGA:  14    -0.100516059062E+04   -0.26489E-03   -0.27938E-03  2880   0.174E-02-0.870E-04
CGA:  15    -0.100516068676E+04   -0.96140E-04   -0.93279E-04  2880   0.434E-03-0.867E-04
CGA:  16    -0.100516072162E+04   -0.34863E-04   -0.34676E-04  2880   0.373E-03-0.245E-04
CGA:  17    -0.100516074534E+04   -0.23726E-04   -0.24371E-04  2880   0.238E-03 0.273E-04
CGA:  18    -0.100516076270E+04   -0.17360E-04   -0.18770E-04  2880   0.215E-03 0.795E-04
CGA:  19    -0.100516077941E+04   -0.16706E-04   -0.18503E-04  2880   0.557E-04 0.701E-04
CGA:  20    -0.100516077605E+04    0.33566E-05   -0.18697E-04  2880   0.497E-03-0.135E-03
CGA:  21    -0.100516079496E+04   -0.18905E-04   -0.21618E-04  2880   0.487E-04 0.469E-04
CGA:  22    -0.100516079516E+04   -0.19739E-06   -0.20721E-05  2880   0.234E-04 0.338E-04
   8 F= -.10051608E+04 E0= -.10051452E+04  d E =-.322985E-01  mag=     0.9993
       N       E                     dE             d eps       ncg     rms          ort
SDA:   1    -0.100425263383E+04    0.90816E+00    0.00000E+00  2880   0.349E+01 0.000E+00
CGA:   2    -0.100454444615E+04   -0.29181E+00   -0.29305E+00  2880   0.301E+01 0.844E-01
CGA:   3    -0.100509523229E+04   -0.55079E+00   -0.55368E+00  2880   0.407E+00-0.291E-01
CGA:   4    -0.100516116012E+04   -0.65928E-01   -0.65652E-01  2880   0.362E+00 0.365E-02
CGA:   5    -0.100518933568E+04   -0.28176E-01   -0.28196E-01  2880   0.967E-01-0.139E-02
CGA:   6    -0.100519975637E+04   -0.10421E-01   -0.10407E-01  2880   0.280E-01 0.138E-02
CGA:   7    -0.100520517029E+04   -0.54139E-02   -0.55632E-02  2880   0.202E-01-0.159E-02
CGA:   8    -0.100520651895E+04   -0.13487E-02   -0.13894E-02  2880   0.658E-02 0.128E-02
CGA:   9    -0.100520734756E+04   -0.82862E-03   -0.81605E-03  2880   0.334E-02 0.757E-03
CGA:  10    -0.100520808465E+04   -0.73709E-03   -0.95614E-03  2880   0.495E-02-0.140E-02
CGA:  11    -0.100520828800E+04   -0.20335E-03   -0.21430E-03  2880   0.261E-02 0.332E-03
CGA:  12    -0.100520842161E+04   -0.13362E-03   -0.15737E-03  2880   0.997E-03 0.516E-03
CGA:  13    -0.100520851721E+04   -0.95594E-04   -0.10020E-03  2880   0.801E-03 0.217E-03
CGA:  14    -0.100520862235E+04   -0.10514E-03   -0.10560E-03  2880   0.485E-03-0.975E-04
CGA:  15    -0.100520868215E+04   -0.59803E-04   -0.64702E-04  2880   0.625E-03-0.102E-03
CGA:  16    -0.100520870433E+04   -0.22180E-04   -0.26261E-04  2880   0.263E-03 0.736E-04
CGA:  17    -0.100520871040E+04   -0.60649E-05   -0.11804E-04  2880   0.124E-03 0.878E-04
   9 F= -.10052087E+04 E0= -.10051927E+04  d E =-.479152E-01  mag=     0.9991
       N       E                     dE             d eps       ncg     rms          ort
SDA:   1    -0.100495236651E+04    0.25634E+00    0.00000E+00  2880   0.987E+00 0.000E+00
CGA:   2    -0.100504609912E+04   -0.93733E-01   -0.94065E-01  2880   0.856E+00 0.644E-01
CGA:   3    -0.100517549627E+04   -0.12940E+00   -0.12895E+00  2880   0.456E+00 0.955E-02
CGA:   4    -0.100521266135E+04   -0.37165E-01   -0.37672E-01  2880   0.609E-01 0.160E-02
CGA:   5    -0.100522556872E+04   -0.12907E-01   -0.12774E-01  2880   0.336E-01 0.110E-02
CGA:   6    -0.100522814758E+04   -0.25789E-02   -0.25354E-02  2880   0.117E-01-0.118E-02
CGA:   7    -0.100522948301E+04   -0.13354E-02   -0.13457E-02  2880   0.502E-02-0.645E-03
CGA:   8    -0.100523008700E+04   -0.60400E-03   -0.59326E-03  2880   0.166E-02 0.488E-03
CGA:   9    -0.100523033892E+04   -0.25191E-03   -0.25449E-03  2880   0.154E-02-0.832E-04
CGA:  10    -0.100523049801E+04   -0.15910E-03   -0.15981E-03  2880   0.773E-03-0.273E-03
CGA:  11    -0.100523055420E+04   -0.56184E-04   -0.58874E-04  2880   0.208E-03 0.190E-03
CGA:  12    -0.100523058898E+04   -0.34780E-04   -0.33008E-04  2880   0.137E-03 0.830E-04
CGA:  13    -0.100523051748E+04    0.71495E-04   -0.87765E-04  2880   0.274E-02-0.453E-03
CGA:  14    -0.100523062077E+04   -0.10329E-03   -0.12158E-03  2880   0.272E-03 0.213E-03
CGA:  15    -0.100523063916E+04   -0.18396E-04   -0.22901E-04  2880   0.915E-04 0.107E-03
CGA:  16    -0.100523065263E+04   -0.13470E-04   -0.13207E-04  2880   0.765E-04-0.189E-04
CGA:  17    -0.100523065819E+04   -0.55538E-05   -0.51297E-05  2880   0.347E-04-0.131E-04
  10 F= -.10052307E+04 E0= -.10052146E+04  d E =-.219478E-01  mag=     0.9992
       N       E                     dE             d eps       ncg     rms          ort
SDA:   1    -0.100101621835E+04    0.42144E+01    0.00000E+00  2880   0.209E+02 0.000E+00
CGA:   2    -0.100242459759E+04   -0.14084E+01   -0.16821E+01  2880   0.126E+02-0.128E+01
CGA:   3    -0.100419551780E+04   -0.17709E+01   -0.18899E+01  2880   0.108E+02-0.134E+01
CGA:   4    -0.100497244210E+04   -0.77692E+00   -0.81608E+00  2880   0.140E+01 0.732E-01
CGA:   5    -0.100507194594E+04   -0.99504E-01   -0.10117E+00  2880   0.109E+01-0.226E-01
CGA:   6    -0.100519913003E+04   -0.12718E+00   -0.13112E+00  2880   0.503E+00-0.211E+00
CGA:   7    -0.100523234728E+04   -0.33217E-01   -0.33924E-01  2880   0.136E+00-0.126E-02
CGA:   8    -0.100524302293E+04   -0.10676E-01   -0.11023E-01  2880   0.751E-01 0.161E-02
CGA:   9    -0.100525170452E+04   -0.86816E-02   -0.86730E-02  2880   0.330E-01 0.173E-02
CGA:  10    -0.100525681369E+04   -0.51092E-02   -0.50712E-02  2880   0.111E-01 0.522E-03
CGA:  11    -0.100525782853E+04   -0.10148E-02   -0.10167E-02  2880   0.804E-02 0.195E-04
CGA:  12    -0.100525907224E+04   -0.12437E-02   -0.12252E-02  2880   0.365E-02 0.444E-03
CGA:  13    -0.100525974783E+04   -0.67559E-03   -0.69414E-03  2880   0.245E-02-0.281E-03
CGA:  14    -0.100525993197E+04   -0.18414E-03   -0.18459E-03  2880   0.121E-02-0.132E-04
CGA:  15    -0.100526011160E+04   -0.17962E-03   -0.17564E-03  2880   0.606E-03 0.119E-03
CGA:  16    -0.100526024245E+04   -0.13085E-03   -0.13271E-03  2880   0.190E-03-0.229E-04
CGA:  17    -0.100526025537E+04   -0.12917E-04   -0.16063E-04  2880   0.952E-04 0.983E-04
CGA:  18    -0.100526014988E+04    0.10549E-03   -0.58957E-04  2880   0.302E-02-0.280E-03
CGA:  19    -0.100526027807E+04   -0.12819E-03   -0.14547E-03  2880   0.345E-03 0.691E-04
CGA:  20    -0.100526029566E+04   -0.17586E-04   -0.27152E-04  2880   0.536E-04 0.756E-04
CGA:  21    -0.100526030301E+04   -0.73550E-05   -0.76458E-05  2880   0.399E-04 0.315E-05
  11 F= -.10052603E+04 E0= -.10052442E+04  d E =-.296448E-01  mag=     0.9993
       N       E                     dE             d eps       ncg     rms          ort
SDA:   1    -0.997971533482E+03    0.72888E+01    0.00000E+00  2880   0.237E+02 0.000E+00
CGA:   2    -0.100129069033E+04   -0.33192E+01   -0.37693E+01  2880   0.150E+02 0.555E+01
CGA:   3    -0.100370827285E+04   -0.24176E+01   -0.25969E+01  2880   0.697E+01-0.418E+00
CGA:   4    -0.100485723008E+04   -0.11490E+01   -0.74301E+00  2880   0.112E+01 0.748E+00
CGA:   5    -0.100498636431E+04   -0.12913E+00   -0.13873E+00  2880   0.251E+01-0.327E-01
CGA:   6    -0.100509278367E+04   -0.10642E+00   -0.79405E-01  2880   0.101E+01 0.643E+00
CGA:   7    -0.100512647778E+04   -0.33694E-01   -0.57007E-01  2880   0.988E+00-0.474E+00
CGA:   8    -0.100514397115E+04   -0.17493E-01   -0.18316E-01  2880   0.110E+01-0.407E-01
CGA:   9    -0.100517500263E+04   -0.31031E-01   -0.50322E-01  2880   0.300E+00-0.304E+00
CGA:  10    -0.100518246894E+04   -0.74663E-02   -0.81257E-02  2880   0.179E+00-0.113E-01
CGA:  11    -0.100519493875E+04   -0.12470E-01   -0.12096E-01  2880   0.166E+00 0.870E-02
CGA:  12    -0.100520131452E+04   -0.63758E-02   -0.61660E-02  2880   0.739E-01 0.108E-01
CGA:  13    -0.100520578581E+04   -0.44713E-02   -0.45170E-02  2880   0.962E-01-0.156E-02
CGA:  14    -0.100521172925E+04   -0.59434E-02   -0.62138E-02  2880   0.920E-01-0.470E-02
CGA:  15    -0.100521469362E+04   -0.29644E-02   -0.31900E-02  2880   0.250E-01-0.502E-02
CGA:  16    -0.100521575498E+04   -0.10614E-02   -0.11902E-02  2880   0.232E-01 0.364E-03
CGA:  17    -0.100521727235E+04   -0.15174E-02   -0.15436E-02  2880   0.195E-01 0.218E-02
CGA:  18    -0.100521834724E+04   -0.10749E-02   -0.10900E-02  2880   0.157E-01 0.261E-03
CGA:  19    -0.100521963391E+04   -0.12867E-02   -0.12371E-02  2880   0.184E-01-0.141E-02
CGA:  20    -0.100522040909E+04   -0.77518E-03   -0.74606E-03  2880   0.712E-02-0.131E-02
CGA:  21    -0.100522064863E+04   -0.23955E-03   -0.26135E-03  2880   0.405E-02 0.261E-03
CGA:  22    -0.100522080683E+04   -0.15819E-03   -0.19987E-03  2880   0.287E-02 0.704E-03
CGA:  23    -0.100522092856E+04   -0.12173E-03   -0.15358E-03  2880   0.184E-02 0.492E-03
CGA:  24    -0.100522108678E+04   -0.15822E-03   -0.16135E-03  2880   0.258E-02 0.109E-03
CGA:  25    -0.100522126225E+04   -0.17547E-03   -0.16870E-03  2880   0.128E-02-0.196E-03
CGA:  26    -0.100522131029E+04   -0.48045E-04   -0.44767E-04  2880   0.578E-03-0.621E-04
CGA:  27    -0.100522134393E+04   -0.33633E-04   -0.34920E-04  2880   0.700E-03 0.404E-04
CGA:  28    -0.100522138353E+04   -0.39608E-04   -0.42699E-04  2880   0.428E-03 0.823E-04
CGA:  29    -0.100522141095E+04   -0.27415E-04   -0.27639E-04  2880   0.396E-03 0.347E-05
CGA:  30    -0.100522145048E+04   -0.39534E-04   -0.40512E-04  2880   0.449E-03-0.840E-04
CGA:  31    -0.100522146425E+04   -0.13770E-04   -0.12118E-04  2880   0.149E-03-0.315E-04
SDA:  32    -0.100522146960E+04   -0.53437E-05   -0.52196E-05  2880   0.111E-03-0.369E-05
CGA:  33    -0.100522148011E+04   -0.10515E-04   -0.10366E-04  2880   0.730E-04 0.165E-04
CGA:  34    -0.100522148861E+04   -0.84927E-05   -0.81832E-05  2880   0.353E-04 0.254E-04
  12 F= -.10052215E+04 E0= -.10052055E+04  d E =0.388144E-01  mag=     0.9992
       N       E                     dE             d eps       ncg     rms          ort
SDA:   1    -0.100419264086E+04    0.10288E+01    0.00000E+00  2880   0.260E+01 0.000E+00
CGA:   2    -0.100504104308E+04   -0.84840E+00   -0.86061E+00  2880   0.195E+01-0.561E-01
CGA:   3    -0.100514690045E+04   -0.10586E+00   -0.11538E+00  2880   0.659E+00-0.485E-01
CGA:   4    -0.100522858622E+04   -0.81686E-01   -0.82289E-01  2880   0.354E+00-0.132E-01
CGA:   5    -0.100526406476E+04   -0.35479E-01   -0.35431E-01  2880   0.570E-01 0.601E-02
CGA:   6    -0.100527274594E+04   -0.86812E-02   -0.85273E-02  2880   0.470E-01 0.271E-02
CGA:   7    -0.100527674155E+04   -0.39956E-02   -0.40118E-02  2880   0.177E-01 0.209E-03
CGA:   8    -0.100527900390E+04   -0.22624E-02   -0.22724E-02  2880   0.709E-02-0.573E-03
CGA:   9    -0.100527996472E+04   -0.96082E-03   -0.94056E-03  2880   0.385E-02 0.614E-03
CGA:  10    -0.100528037881E+04   -0.41409E-03   -0.41517E-03  2880   0.289E-02 0.200E-03
CGA:  11    -0.100528091597E+04   -0.53716E-03   -0.58359E-03  2880   0.145E-02-0.533E-03
CGA:  12    -0.100528099416E+04   -0.78186E-04   -0.83919E-04  2880   0.613E-03 0.147E-03
CGA:  13    -0.100528108577E+04   -0.91615E-04   -0.86145E-04  2880   0.308E-03 0.259E-03
CGA:  14    -0.100528114154E+04   -0.55764E-04   -0.11702E-03  2880   0.164E-02-0.387E-03
CGA:  15    -0.100528119977E+04   -0.58234E-04   -0.68722E-04  2880   0.128E-03 0.125E-03
CGA:  16    -0.100528120467E+04   -0.48986E-05   -0.82250E-05  2880   0.538E-04 0.638E-04
  13 F= -.10052812E+04 E0= -.10052653E+04  d E =-.597161E-01  mag=     0.9991
       N       E                     dE             d eps       ncg     rms          ort
SDA:   1    -0.100524607170E+04    0.35128E-01    0.00000E+00  2880   0.118E+00 0.000E+00
CGA:   2    -0.100526463101E+04   -0.18559E-01   -0.18552E-01  2880   0.112E+00 0.107E-02
CGA:   3    -0.100528248974E+04   -0.17859E-01   -0.17997E-01  2880   0.191E-01-0.319E-02
CGA:   4    -0.100528411078E+04   -0.16210E-02   -0.16305E-02  2880   0.144E-01 0.282E-03
CGA:   5    -0.100528574908E+04   -0.16383E-02   -0.16382E-02  2880   0.318E-02 0.531E-03
CGA:   6    -0.100528620697E+04   -0.45790E-03   -0.47833E-03  2880   0.172E-02-0.648E-03
CGA:   7    -0.100528636665E+04   -0.15967E-03   -0.15904E-03  2880   0.610E-03 0.296E-03
CGA:   8    -0.100528641163E+04   -0.44981E-04   -0.50713E-04  2880   0.200E-03 0.130E-03
CGA:   9    -0.100528645520E+04   -0.43567E-04   -0.79167E-04  2880   0.627E-03-0.166E-03
CGA:  10    -0.100528648306E+04   -0.27869E-04   -0.34654E-04  2880   0.111E-03 0.104E-03
CGA:  11    -0.100528649066E+04   -0.75947E-05   -0.89648E-05  2880   0.389E-04 0.271E-04
CGA:  12    -0.100528650249E+04   -0.11832E-04    0.60368E-04  2880   0.311E-04 0.189E-04
CGA:  13    -0.100528650889E+04   -0.64031E-05   -0.78809E-05  2880   0.689E-04-0.276E-04
  14 F= -.10052865E+04 E0= -.10052706E+04  d E =-.530422E-02  mag=     0.9991
       N       E                     dE             d eps       ncg     rms          ort
SDA:   1    -0.100509352918E+04    0.19297E+00    0.00000E+00  2880   0.127E+01 0.000E+00
CGA:   2    -0.100515883082E+04   -0.65302E-01   -0.66732E-01  2880   0.412E+00-0.363E-01
CGA:   3    -0.100526694776E+04   -0.10812E+00   -0.10668E+00  2880   0.143E+00 0.933E-02
CGA:   4    -0.100528099370E+04   -0.14046E-01   -0.14120E-01  2880   0.388E-01-0.298E-02
CGA:   5    -0.100528832784E+04   -0.73341E-02   -0.72226E-02  2880   0.953E-02 0.160E-02
CGA:   6    -0.100528960760E+04   -0.12798E-02   -0.12851E-02  2880   0.473E-02-0.946E-03
CGA:   7    -0.100529009017E+04   -0.48257E-03   -0.48644E-03  2880   0.299E-02 0.426E-03
CGA:   8    -0.100529031075E+04   -0.22058E-03   -0.23331E-03  2880   0.506E-03 0.283E-03
CGA:   9    -0.100528990061E+04    0.41014E-03   -0.24409E-03  2880   0.876E-02-0.127E-02
CGA:  10    -0.100529033305E+04   -0.43244E-03   -0.51843E-03  2880   0.123E-02 0.573E-03
CGA:  11    -0.100529040234E+04   -0.69287E-04   -0.94699E-04  2880   0.529E-03 0.192E-03
CGA:  12    -0.100529051967E+04   -0.11733E-03   -0.11594E-03  2880   0.254E-03-0.100E-03
CGA:  13    -0.100529054994E+04   -0.30274E-04   -0.28308E-04  2880   0.122E-03-0.306E-04
CGA:  14    -0.100529055621E+04   -0.62605E-05   -0.66781E-05  2880   0.519E-04 0.240E-05
CGA:  15    -0.100529056817E+04   -0.11960E-04   -0.12011E-04  2880   0.397E-04-0.147E-05
CGA:  16    -0.100529056960E+04   -0.14387E-05   -0.19720E-05  2880   0.113E-04 0.352E-05
  15 F= -.10052906E+04 E0= -.10052748E+04  d E =-.406071E-02  mag=     0.9991
       N       E                     dE             d eps       ncg     rms          ort
SDA:   1    -0.100287184161E+04    0.24187E+01    0.00000E+00  2880   0.946E+01 0.000E+00
CGA:   2    -0.100353947650E+04   -0.66763E+00   -0.93286E+00  2880   0.110E+02-0.272E+01
CGA:   3    -0.100486988305E+04   -0.13304E+01   -0.13288E+01  2880   0.377E+01-0.113E+00
CGA:   4    -0.100510634751E+04   -0.23646E+00   -0.19814E+00  2880   0.829E+00-0.253E+00
CGA:   5    -0.100519651365E+04   -0.90166E-01   -0.97205E-01  2880   0.721E+00 0.237E-01
CGA:   6    -0.100524502237E+04   -0.48509E-01   -0.53562E-01  2880   0.375E+00-0.366E-01
CGA:   7    -0.100526745606E+04   -0.22434E-01   -0.18994E-01  2880   0.694E-01 0.597E-01
CGA:   8    -0.100527282302E+04   -0.53670E-02   -0.51535E-02  2880   0.577E-01 0.176E-02
CGA:   9    -0.100527941414E+04   -0.65911E-02   -0.66353E-02  2880   0.468E-01-0.416E-03
CGA:  10    -0.100528185190E+04   -0.24378E-02   -0.24759E-02  2880   0.212E-01-0.676E-03
CGA:  11    -0.100528361933E+04   -0.17674E-02   -0.18166E-02  2880   0.101E-01 0.190E-03
CGA:  12    -0.100528415825E+04   -0.53892E-03   -0.55632E-03  2880   0.499E-02 0.104E-03
CGA:  13    -0.100528483503E+04   -0.67678E-03   -0.67842E-03  2880   0.622E-02 0.445E-03
CGA:  14    -0.100528528589E+04   -0.45086E-03   -0.45454E-03  2880   0.247E-02 0.521E-04
CGA:  15    -0.100528558289E+04   -0.29700E-03   -0.28457E-03  2880   0.143E-02-0.652E-03
CGA:  16    -0.100528566098E+04   -0.78088E-04   -0.81089E-04  2880   0.111E-02 0.418E-04
CGA:  17    -0.100528572648E+04   -0.65500E-04   -0.86370E-04  2880   0.570E-03 0.365E-03
CGA:  18    -0.100528577923E+04   -0.52755E-04   -0.59486E-04  2880   0.384E-03 0.128E-03
CGA:  19    -0.100528584336E+04   -0.64126E-04   -0.70441E-04  2880   0.501E-03-0.266E-03
CGA:  20    -0.100528586270E+04   -0.19341E-04   -0.29203E-04  2880   0.838E-04 0.147E-03
CGA:  21    -0.100528586909E+04   -0.63926E-05   -0.77030E-05  2880   0.358E-04 0.249E-04
CGA:  22    -0.100528588204E+04   -0.12946E-04    0.18221E-04  2880   0.370E-04 0.165E-04
CGA:  23    -0.100528580231E+04    0.79732E-04   -0.43534E-04  2880   0.113E-02-0.191E-03
CGA:  24    -0.100528584973E+04   -0.47422E-04   -0.66431E-04  2880   0.216E-03 0.912E-04
CGA:  25    -0.100528585465E+04   -0.49216E-05   -0.15794E-04  2880   0.848E-04 0.753E-04
CGA:  26    -0.100528587506E+04   -0.20408E-04   -0.20494E-04  2880   0.122E-03 0.308E-05
CGA:  27    -0.100528588839E+04   -0.13329E-04   -0.94361E-05  2880   0.397E-04-0.307E-04
CGA:  28    -0.100528588904E+04   -0.65250E-06   -0.19916E-05  2880   0.202E-04 0.104E-04
  16 F= -.10052859E+04 E0= -.10052702E+04  d E =0.468056E-02  mag=     0.9989
       N       E                     dE             d eps       ncg     rms          ort
SDA:   1    -0.995816199293E+03    0.94697E+01    0.00000E+00  2880   0.262E+02 0.000E+00
CGA:   2    -0.100081414508E+04   -0.49979E+01   -0.49281E+01  2880   0.132E+02 0.795E+01
CGA:   3    -0.100329032056E+04   -0.24762E+01   -0.22994E+01  2880   0.123E+02-0.513E+01
CGA:   4    -0.100428059893E+04   -0.99028E+00   -0.10202E+01  2880   0.975E+01 0.296E+00
CGA:   5    -0.100432484482E+04   -0.44246E-01   -0.59111E+00  2880   0.830E+01-0.108E+02
CGA:   6    -0.100464150375E+04   -0.31666E+00   -0.52373E+00  2880   0.692E+01-0.690E+01
CGA:   7    -0.100471776850E+04   -0.76265E-01   -0.48976E+00  2880   0.587E+01-0.433E+01
CGA:   8    -0.100493699207E+04   -0.21922E+00   -0.31257E+00  2880   0.255E+01-0.352E+01
CGA:   9    -0.100501791663E+04   -0.80925E-01   -0.13451E+00  2880   0.116E+01-0.961E+00
CGA:  10    -0.100516703049E+04   -0.14911E+00   -0.14995E+00  2880   0.616E+00-0.111E-01
CGA:  11    -0.100519585577E+04   -0.28825E-01   -0.34678E-01  2880   0.140E+00-0.688E-01
CGA:  12    -0.100520741441E+04   -0.11559E-01   -0.11829E-01  2880   0.706E-01-0.197E-02
CGA:  13    -0.100521536518E+04   -0.79508E-02   -0.80156E-02  2880   0.531E-01 0.130E-02
CGA:  14    -0.100522104307E+04   -0.56779E-02   -0.57619E-02  2880   0.225E-01-0.274E-03
CGA:  15    -0.100522281649E+04   -0.17734E-02   -0.18610E-02  2880   0.871E-02 0.903E-03
CGA:  16    -0.100522406008E+04   -0.12436E-02   -0.12448E-02  2880   0.821E-02 0.681E-04
CGA:  17    -0.100522495200E+04   -0.89192E-03   -0.90690E-03  2880   0.369E-02 0.516E-03
CGA:  18    -0.100522536493E+04   -0.41293E-03   -0.41466E-03  2880   0.202E-02-0.286E-04
CGA:  19    -0.100522556452E+04   -0.19959E-03   -0.21120E-03  2880   0.924E-03 0.357E-03
CGA:  20    -0.100522573608E+04   -0.17156E-03   -0.17123E-03  2880   0.104E-02 0.122E-04
CGA:  21    -0.100522582935E+04   -0.93262E-04   -0.10085E-03  2880   0.304E-03 0.179E-03
CGA:  22    -0.100522587494E+04   -0.45599E-04   -0.45746E-04  2880   0.151E-03 0.218E-04
CGA:  23    -0.100522588319E+04   -0.82411E-05   -0.12541E-04  2880   0.729E-04 0.745E-04
CGA:  24    -0.100522589745E+04   -0.14269E-04   -0.14289E-04  2880   0.354E-04 0.412E-04
CGA:  25    -0.100522580484E+04    0.92612E-04   -0.50237E-04  2880   0.252E-02-0.176E-03
CGA:  26    -0.100522589569E+04   -0.90852E-04   -0.12470E-03  2880   0.275E-03 0.755E-04
CGA:  27    -0.100522590844E+04   -0.12747E-04   -0.16170E-04  2880   0.794E-05 0.251E-04
CGA:  28    -0.100522591516E+04   -0.67212E-05    0.12821E-05  2880   0.419E-04-0.973E-05
  17 F= -.10052259E+04 E0= -.10052104E+04  d E =0.599739E-01  mag=     0.9982
       N       E                     dE             d eps       ncg     rms          ort
SDA:   1    -0.100087270311E+04    0.43532E+01    0.00000E+00  2880   0.110E+02 0.000E+00
CGA:   2    -0.100341988532E+04   -0.25472E+01   -0.25188E+01  2880   0.150E+02 0.100E+01
CGA:   3    -0.100455566954E+04   -0.11358E+01   -0.16502E+01  2880   0.612E+01-0.460E+01
CGA:   4    -0.100498076757E+04   -0.42510E+00   -0.35175E+00  2880   0.112E+01 0.129E+00
CGA:   5    -0.100514107859E+04   -0.16031E+00   -0.16249E+00  2880   0.127E+01-0.287E-02
CGA:   6    -0.100521777672E+04   -0.76698E-01   -0.87900E-01  2880   0.349E+00-0.132E+00
CGA:   7    -0.100525121822E+04   -0.33442E-01   -0.29002E-01  2880   0.876E-01 0.323E-01
CGA:   8    -0.100526779586E+04   -0.16578E-01   -0.16585E-01  2880   0.773E-01-0.666E-03
CGA:   9    -0.100527522226E+04   -0.74264E-02   -0.75587E-02  2880   0.398E-01-0.119E-02
CGA:  10    -0.100527812331E+04   -0.29010E-02   -0.29883E-02  2880   0.129E-01 0.884E-03
CGA:  11    -0.100528018337E+04   -0.20601E-02   -0.20636E-02  2880   0.100E-01 0.683E-03
CGA:  12    -0.100528163509E+04   -0.14517E-02   -0.14215E-02  2880   0.687E-02-0.726E-03
CGA:  13    -0.100528215693E+04   -0.52184E-03   -0.50715E-03  2880   0.281E-02-0.232E-03
CGA:  14    -0.100528242341E+04   -0.26648E-03   -0.27535E-03  2880   0.129E-02 0.176E-03
CGA:  15    -0.100528270261E+04   -0.27920E-03   -0.27722E-03  2880   0.172E-02 0.510E-04
CGA:  16    -0.100528282293E+04   -0.12032E-03   -0.12065E-03  2880   0.403E-03-0.664E-05
CGA:  17    -0.100528288420E+04   -0.61267E-04   -0.61288E-04  2880   0.209E-03-0.922E-06
CGA:  18    -0.100528290207E+04   -0.17874E-04   -0.21983E-04  2880   0.134E-03 0.737E-04
CGA:  19    -0.100528292565E+04   -0.23585E-04   -0.24297E-04  2880   0.117E-03 0.282E-04
CGA:  20    -0.100528294538E+04   -0.19726E-04   -0.35320E-04  2880   0.341E-03-0.169E-03
CGA:  21    -0.100528295251E+04   -0.71331E-05   -0.15608E-04  2880   0.675E-04 0.701E-04
  18 F= -.10052830E+04 E0= -.10052671E+04  d E =-.570374E-01  mag=     0.9989
       N       E                     dE             d eps       ncg     rms          ort
SDA:   1    -0.100300193777E+04    0.22810E+01    0.00000E+00  2880   0.883E+01 0.000E+00
CGA:   2    -0.100381677924E+04   -0.81484E+00   -0.75061E+00  2880   0.694E+01-0.264E+01
CGA:   3    -0.100471454254E+04   -0.89776E+00   -0.89557E+00  2880   0.706E+01 0.388E-01
CGA:   4    -0.100507009921E+04   -0.35556E+00   -0.38062E+00  2880   0.106E+01-0.142E+01
CGA:   5    -0.100517826154E+04   -0.10816E+00   -0.11056E+00  2880   0.663E+00 0.579E-01
CGA:   6    -0.100523506634E+04   -0.56805E-01   -0.60286E-01  2880   0.408E+00-0.325E-02
CGA:   7    -0.100526423679E+04   -0.29170E-01   -0.27224E-01  2880   0.730E-01 0.168E-01
CGA:   8    -0.100527455740E+04   -0.10321E-01   -0.10317E-01  2880   0.765E-01-0.336E-02
CGA:   9    -0.100528007371E+04   -0.55163E-02   -0.55272E-02  2880   0.322E-01 0.760E-03
CGA:  10    -0.100528304830E+04   -0.29746E-02   -0.30511E-02  2880   0.105E-01 0.217E-02
CGA:  11    -0.100528412094E+04   -0.10726E-02   -0.10614E-02  2880   0.111E-01-0.437E-03
CGA:  12    -0.100528551931E+04   -0.13984E-02   -0.13985E-02  2880   0.479E-02-0.296E-03
CGA:  13    -0.100528587184E+04   -0.35253E-03   -0.37962E-03  2880   0.307E-02 0.519E-03
CGA:  14    -0.100528615761E+04   -0.28577E-03   -0.28945E-03  2880   0.119E-02 0.588E-04
CGA:  15    -0.100528636615E+04   -0.20854E-03   -0.39462E-03  2880   0.483E-02-0.934E-03
CGA:  16    -0.100528653003E+04   -0.16388E-03   -0.22256E-03  2880   0.573E-03 0.612E-03
CGA:  17    -0.100528655260E+04   -0.22569E-04   -0.38691E-04  2880   0.206E-03 0.233E-03
CGA:  18    -0.100528657594E+04   -0.23342E-04   -0.25212E-04  2880   0.179E-03 0.461E-04
CGA:  19    -0.100528660578E+04   -0.29840E-04   -0.30119E-04  2880   0.168E-03-0.244E-04
CGA:  20    -0.100528662663E+04   -0.20851E-04   -0.22084E-04  2880   0.181E-03-0.484E-04
CGA:  21    -0.100528663411E+04   -0.74801E-05   -0.65354E-05  2880   0.642E-04-0.128E-04
  19 F= -.10052866E+04 E0= -.10052708E+04  d E =-.368160E-02  mag=     0.9990
       N       E                     dE             d eps       ncg     rms          ort
SDA:   1    -0.100449281198E+04    0.79381E+00    0.00000E+00  2880   0.671E+01 0.000E+00
CGA:   2    -0.100479645248E+04   -0.30364E+00   -0.38894E+00  2880   0.225E+01-0.150E+01
CGA:   3    -0.100517464177E+04   -0.37819E+00   -0.38614E+00  2880   0.128E+01-0.667E-01
CGA:   4    -0.100525199637E+04   -0.77355E-01   -0.80197E-01  2880   0.228E+00-0.413E-01
CGA:   5    -0.100528169106E+04   -0.29695E-01   -0.29684E-01  2880   0.170E+00 0.370E-03
CGA:   6    -0.100529949503E+04   -0.17804E-01   -0.17825E-01  2880   0.596E-01-0.735E-03
CGA:   7    -0.100530485619E+04   -0.53612E-02   -0.53771E-02  2880   0.202E-01-0.207E-03
CGA:   8    -0.100530738546E+04   -0.25293E-02   -0.25243E-02  2880   0.135E-01 0.430E-03
CGA:   9    -0.100530879390E+04   -0.14084E-02   -0.14178E-02  2880   0.436E-02 0.547E-03
CGA:  10    -0.100530936455E+04   -0.57065E-03   -0.57513E-03  2880   0.395E-02-0.509E-03
CGA:  11    -0.100530977423E+04   -0.40968E-03   -0.40966E-03  2880   0.128E-02-0.534E-04
CGA:  12    -0.100530989845E+04   -0.12422E-03   -0.12821E-03  2880   0.567E-03 0.238E-03
CGA:  13    -0.100530998194E+04   -0.83488E-04   -0.82732E-04  2880   0.330E-03 0.123E-03
CGA:  14    -0.100531004500E+04   -0.63067E-04   -0.10042E-03  2880   0.158E-02-0.286E-03
CGA:  15    -0.100531009661E+04   -0.51611E-04   -0.63626E-04  2880   0.106E-03 0.128E-03
CGA:  16    -0.100531010036E+04   -0.37424E-05   -0.70005E-05  2880   0.544E-04 0.554E-04
CGA:  17    -0.100530998860E+04    0.11175E-03   -0.60302E-04  2880   0.370E-02-0.241E-03
CGA:  18    -0.100531012251E+04   -0.13390E-03   -0.14993E-03  2880   0.114E-03 0.793E-04
CGA:  19    -0.100531012734E+04   -0.48345E-05   -0.10085E-04  2880   0.276E-04 0.453E-04
  20 F= -.10053101E+04 E0= -.10052943E+04  d E =-.234932E-01  mag=     0.9990
       N       E                     dE             d eps       ncg     rms          ort
SDA:   1    -0.100527805700E+04    0.32066E-01    0.00000E+00  2880   0.100E+00 0.000E+00
CGA:   2    -0.100529056654E+04   -0.12510E-01   -0.12242E-01  2880   0.130E+00-0.236E-02
CGA:   3    -0.100530564155E+04   -0.15075E-01   -0.15002E-01  2880   0.396E-01-0.229E-03
CGA:   4    -0.100530868915E+04   -0.30476E-02   -0.30859E-02  2880   0.640E-02 0.248E-02
CGA:   5    -0.100531043925E+04   -0.17501E-02   -0.17474E-02  2880   0.211E-02 0.351E-04
CGA:   6    -0.100531071162E+04   -0.27237E-03   -0.24995E-03  2880   0.142E-02-0.374E-03
CGA:   7    -0.100531082489E+04   -0.11327E-03   -0.11148E-03  2880   0.840E-03-0.320E-04
CGA:   8    -0.100531086890E+04   -0.44010E-04   -0.62531E-04  2880   0.191E-03 0.184E-03
CGA:   9    -0.100531088789E+04   -0.18990E-04   -0.21265E-04  2880   0.152E-03 0.278E-04
CGA:  10    -0.100531091349E+04   -0.25602E-04   -0.24071E-04  2880   0.179E-03-0.521E-04
CGA:  11    -0.100531092230E+04   -0.88125E-05   -0.98644E-05  2880   0.104E-03 0.128E-04
  21 F= -.10053109E+04 E0= -.10052951E+04  d E =-.794961E-03  mag=     0.9989
       N       E                     dE             d eps       ncg     rms          ort
SDA:   1    -0.100496735751E+04    0.34356E+00    0.00000E+00  2880   0.848E+00 0.000E+00
CGA:   2    -0.100516920336E+04   -0.20185E+00   -0.20375E+00  2880   0.166E+01-0.199E-01
CGA:   3    -0.100527148015E+04   -0.10228E+00   -0.11021E+00  2880   0.221E+00-0.912E-01
CGA:   4    -0.100529188269E+04   -0.20403E-01   -0.20272E-01  2880   0.843E-01 0.516E-02
CGA:   5    -0.100530817680E+04   -0.16294E-01   -0.16373E-01  2880   0.139E-01-0.221E-02
CGA:   6    -0.100530956622E+04   -0.13894E-02   -0.14047E-02  2880   0.130E-01 0.246E-03
CGA:   7    -0.100531110152E+04   -0.15353E-02   -0.15398E-02  2880   0.265E-02 0.360E-04
CGA:   8    -0.100531145687E+04   -0.35535E-03   -0.35391E-03  2880   0.138E-02-0.935E-04
CGA:   9    -0.100531163781E+04   -0.18094E-03   -0.18101E-03  2880   0.135E-02-0.214E-05
CGA:  10    -0.100531174464E+04   -0.10683E-03   -0.11466E-03  2880   0.217E-03 0.123E-03
CGA:  11    -0.100531145104E+04    0.29360E-03   -0.16550E-03  2880   0.466E-02-0.640E-03
CGA:  12    -0.100531172550E+04   -0.27446E-03   -0.33246E-03  2880   0.766E-03 0.413E-03
CGA:  13    -0.100531179264E+04   -0.67138E-04   -0.68025E-04  2880   0.319E-03 0.965E-05
CGA:  14    -0.100531184340E+04   -0.50765E-04   -0.43784E-04  2880   0.199E-03-0.654E-04
CGA:  15    -0.100531186336E+04   -0.19958E-04   -0.21587E-04  2880   0.647E-04 0.154E-04
CGA:  16    -0.100531186327E+04    0.86853E-07   -0.41673E-05  2880   0.180E-04 0.234E-04
  22 F= -.10053119E+04 E0= -.10052960E+04  d E =-.940971E-03  mag=     0.9989
       N       E                     dE             d eps       ncg     rms          ort
SDA:   1    -0.100033740054E+04    0.49745E+01    0.00000E+00  2880   0.165E+02 0.000E+00
CGA:   2    -0.100198408374E+04   -0.16467E+01   -0.24221E+01  2880   0.179E+02 0.113E+01
CGA:   3    -0.100439623427E+04   -0.24122E+01   -0.25521E+01  2880   0.757E+01-0.250E+01
CGA:   4    -0.100485903136E+04   -0.46280E+00   -0.69275E+00  2880   0.391E+01-0.492E+00
CGA:   5    -0.100492123348E+04   -0.62202E-01   -0.20967E+00  2880   0.429E+01-0.264E+01
CGA:   6    -0.100498055529E+04   -0.59322E-01   -0.34373E+00  2880   0.432E+01-0.243E+01
CGA:   7    -0.100510675691E+04   -0.12620E+00   -0.25913E+00  2880   0.236E+01-0.290E+01
CGA:   8    -0.100517529843E+04   -0.68542E-01   -0.13276E+00  2880   0.101E+01-0.120E+01
CGA:   9    -0.100521460559E+04   -0.39307E-01   -0.45258E-01  2880   0.199E+00-0.144E+00
CGA:  10    -0.100525774407E+04   -0.43138E-01   -0.43390E-01  2880   0.238E+00-0.304E-02
CGA:  11    -0.100527110356E+04   -0.13359E-01   -0.14783E-01  2880   0.314E-01-0.132E-01
CGA:  12    -0.100527406549E+04   -0.29619E-02   -0.30048E-02  2880   0.239E-01-0.302E-03
CGA:  13    -0.100527795311E+04   -0.38876E-02   -0.39015E-02  2880   0.177E-01 0.192E-02
CGA:  14    -0.100527976908E+04   -0.18160E-02   -0.17905E-02  2880   0.849E-02-0.288E-03
CGA:  15    -0.100528065239E+04   -0.88331E-03   -0.92598E-03  2880   0.369E-02 0.396E-03
CGA:  16    -0.100528120198E+04   -0.54959E-03   -0.55112E-03  2880   0.398E-02 0.463E-04
CGA:  17    -0.100528165615E+04   -0.45417E-03   -0.47158E-03  2880   0.110E-02 0.242E-03
CGA:  18    -0.100528178823E+04   -0.13208E-03   -0.12823E-03  2880   0.835E-03-0.843E-04
CGA:  19    -0.100528186666E+04   -0.78427E-04   -0.85308E-04  2880   0.291E-03 0.136E-03
CGA:  20    -0.100528190617E+04   -0.39510E-04   -0.41993E-04  2880   0.107E-03 0.793E-04
CGA:  21    -0.100528193608E+04   -0.29913E-04   -0.30945E-04  2880   0.310E-03-0.144E-04
CGA:  22    -0.100528195764E+04   -0.21558E-04   -0.22573E-04  2880   0.129E-03 0.137E-04
CGA:  23    -0.100528195684E+04    0.79376E-06   -0.50709E-05  2880   0.565E-04 0.507E-04
  23 F= -.10052820E+04 E0= -.10052664E+04  d E =0.299064E-01  mag=     0.9994
       N       E                     dE             d eps       ncg     rms          ort
SDA:   1    -0.100419754292E+04    0.10844E+01    0.00000E+00  2880   0.305E+01 0.000E+00
CGA:   2    -0.100469961121E+04   -0.50207E+00   -0.50079E+00  2880   0.474E+01 0.441E-01
CGA:   3    -0.100516898544E+04   -0.46937E+00   -0.45270E+00  2880   0.650E+00-0.535E-01
CGA:   4    -0.100524097228E+04   -0.71987E-01   -0.72364E-01  2880   0.344E+00 0.678E-02
CGA:   5    -0.100528585956E+04   -0.44887E-01   -0.44744E-01  2880   0.176E+00-0.687E-02
CGA:   6    -0.100529870277E+04   -0.12843E-01   -0.12672E-01  2880   0.359E-01-0.298E-02
CGA:   7    -0.100530433920E+04   -0.56364E-02   -0.56183E-02  2880   0.202E-01 0.848E-03
CGA:   8    -0.100530664549E+04   -0.23063E-02   -0.23029E-02  2880   0.129E-01-0.303E-03
CGA:   9    -0.100530779131E+04   -0.11458E-02   -0.11428E-02  2880   0.289E-02 0.304E-04
CGA:  10    -0.100530841266E+04   -0.62136E-03   -0.59580E-03  2880   0.273E-02 0.338E-03
CGA:  11    -0.100530872185E+04   -0.30919E-03   -0.30658E-03  2880   0.144E-02-0.778E-04
CGA:  12    -0.100530891488E+04   -0.19302E-03   -0.19457E-03  2880   0.123E-02-0.340E-03
CGA:  13    -0.100530899643E+04   -0.81556E-04   -0.89926E-04  2880   0.258E-03 0.208E-03
CGA:  14    -0.100530901838E+04   -0.21945E-04   -0.27796E-04  2880   0.142E-03 0.143E-03
CGA:  15    -0.100530905871E+04   -0.40332E-04    0.10871E-03  2880   0.119E-03 0.466E-04
CGA:  16    -0.100530907960E+04   -0.20887E-04   -0.20854E-04  2880   0.779E-04 0.406E-04
CGA:  17    -0.100530908466E+04   -0.50653E-05   -0.74438E-05  2880   0.198E-04 0.395E-04
CGA:  18    -0.100530909027E+04   -0.56079E-05    0.12204E-04  2880   0.148E-04 0.133E-04
  24 F= -.10053091E+04 E0= -.10052930E+04  d E =-.271334E-01  mag=     0.9991
       N       E                     dE             d eps       ncg     rms          ort
SDA:   1    -0.100477529760E+04    0.53379E+00    0.00000E+00  2880   0.204E+01 0.000E+00
CGA:   2    -0.100494383737E+04   -0.16854E+00   -0.18055E+00  2880   0.187E+01-0.552E-02
CGA:   3    -0.100522928676E+04   -0.28545E+00   -0.28551E+00  2880   0.462E+00 0.790E-03
CGA:   4    -0.100527581158E+04   -0.46525E-01   -0.47271E-01  2880   0.157E+00 0.299E-05
CGA:   5    -0.100530245120E+04   -0.26640E-01   -0.26526E-01  2880   0.100E+00 0.245E-02
CGA:   6    -0.100530891713E+04   -0.64659E-02   -0.66348E-02  2880   0.237E-01-0.140E-02
CGA:   7    -0.100531214330E+04   -0.32262E-02   -0.32381E-02  2880   0.104E-01-0.815E-03
CGA:   8    -0.100531357091E+04   -0.14276E-02   -0.14190E-02  2880   0.706E-02 0.464E-03
CGA:   9    -0.100531417719E+04   -0.60628E-03   -0.61484E-03  2880   0.255E-02 0.189E-03
CGA:  10    -0.100531464204E+04   -0.46484E-03   -0.55779E-03  2880   0.437E-02-0.105E-02
CGA:  11    -0.100531483886E+04   -0.19683E-03   -0.20660E-03  2880   0.190E-02 0.192E-03
CGA:  12    -0.100531492166E+04   -0.82798E-04   -0.11377E-03  2880   0.730E-03 0.480E-03
CGA:  13    -0.100531496525E+04   -0.43584E-04   -0.56178E-04  2880   0.377E-03 0.209E-03
CGA:  14    -0.100531503642E+04   -0.71170E-04   -0.73952E-04  2880   0.607E-03-0.850E-04
CGA:  15    -0.100531507046E+04   -0.34047E-04   -0.29294E-04  2880   0.448E-03-0.824E-04
CGA:  16    -0.100531510223E+04   -0.31770E-04   -0.29180E-04  2880   0.443E-03-0.621E-04
CGA:  17    -0.100531512465E+04   -0.22414E-04   -0.19814E-04  2880   0.148E-03-0.427E-04
CGA:  18    -0.100531513136E+04   -0.67079E-05   -0.63432E-05  2880   0.103E-03-0.639E-05
  25 F= -.10053151E+04 E0= -.10052994E+04  d E =-.604108E-02  mag=     0.9991
       N       E                     dE             d eps       ncg     rms          ort
SDA:   1    -0.100522854419E+04    0.86580E-01    0.00000E+00  2880   0.235E+00 0.000E+00
CGA:   2    -0.100527555296E+04   -0.47009E-01   -0.46146E-01  2880   0.378E+00 0.889E-02
CGA:   3    -0.100530539787E+04   -0.29845E-01   -0.29914E-01  2880   0.577E-01-0.222E-02
CGA:   4    -0.100531240338E+04   -0.70055E-02   -0.70249E-02  2880   0.314E-01-0.193E-02
CGA:   5    -0.100531622758E+04   -0.38242E-02   -0.38032E-02  2880   0.120E-01 0.135E-02
CGA:   6    -0.100531709046E+04   -0.86288E-03   -0.89931E-03  2880   0.378E-02 0.765E-03
CGA:   7    -0.100531777232E+04   -0.68185E-03   -0.74701E-03  2880   0.238E-02-0.862E-03
CGA:   8    -0.100531792101E+04   -0.14870E-03   -0.15578E-03  2880   0.117E-02 0.238E-03
CGA:   9    -0.100531803498E+04   -0.11397E-03   -0.11925E-03  2880   0.226E-03 0.281E-03
CGA:  10    -0.100531808091E+04   -0.45929E-04   -0.94218E-04  2880   0.126E-02-0.217E-03
CGA:  11    -0.100531812773E+04   -0.46823E-04   -0.58792E-04  2880   0.194E-03 0.143E-03
CGA:  12    -0.100531814536E+04   -0.17624E-04   -0.18864E-04  2880   0.497E-04 0.393E-04
CGA:  13    -0.100531816214E+04   -0.16781E-04    0.17741E-04  2880   0.795E-04-0.128E-04
CGA:  14    -0.100531817718E+04   -0.15037E-04    0.39914E-04  2880   0.979E-04-0.116E-04
CGA:  15    -0.100531817847E+04   -0.12972E-05   -0.38529E-05  2880   0.744E-04 0.357E-04
  26 F= -.10053182E+04 E0= -.10053024E+04  d E =-.304712E-02  mag=     0.9991
