       N       E                     dE             d eps       ncg     rms          ort
DAV:   1     0.281939345278E+04    0.28194E+04   -0.29262E+05  2880   0.140E+03
DAV:   2    -0.963761480676E+03   -0.37832E+04   -0.36562E+04  2880   0.312E+02
DAV:   3    -0.122047375584E+04   -0.25671E+03   -0.25422E+03  2880   0.849E+01
DAV:   4    -0.122350413037E+04   -0.30304E+01   -0.30198E+01  2880   0.978E+00
DAV:   5    -0.122355428920E+04   -0.50159E-01   -0.50049E-01  2880   0.116E+00
SDA:   6    -0.869790443862E+03    0.35376E+03   -0.50049E-01  2880   0.613E+03 0.000E+00
CGA:   7    -0.973898800415E+03   -0.10411E+03   -0.10523E+03  2880   0.800E+02 0.169E+02
CGA:   8    -0.985546649250E+03   -0.11648E+02   -0.12209E+02  2880   0.354E+02-0.471E+01
CGA:   9    -0.991307210792E+03   -0.57606E+01   -0.57645E+01  2880   0.190E+02-0.125E+01
CGA:  10    -0.993681532488E+03   -0.23743E+01   -0.23424E+01  2880   0.334E+02-0.285E+01
CGA:  11    -0.992177589884E+03    0.15039E+01   -0.15399E+01  2880   0.495E+02-0.232E+02
CGA:  12    -0.994346980183E+03   -0.21694E+01   -0.47140E+01  2880   0.271E+02-0.933E+01
CGA:  13    -0.996255711343E+03   -0.19087E+01   -0.22592E+01  2880   0.791E+01 0.565E+00
CGA:  14    -0.996313630459E+03   -0.57919E-01   -0.56640E+00  2880   0.104E+02-0.492E+01
CGA:  15    -0.996666448439E+03   -0.35282E+00   -0.51454E+00  2880   0.899E+01-0.952E+01
CGA:  16    -0.996616441836E+03    0.50007E-01   -0.62514E+00  2880   0.803E+01-0.424E+01
CGA:  17    -0.996865354946E+03   -0.24891E+00   -0.13675E+00  2880   0.534E+01 0.287E+01
CGA:  18    -0.996696675102E+03    0.16868E+00   -0.30686E+00  2880   0.175E+02-0.124E+02
CGA:  19    -0.996684727733E+03    0.11947E-01   -0.12102E+01  2880   0.600E+01-0.433E+01
CGA:  20    -0.997130870889E+03   -0.44614E+00   -0.20592E+00  2880   0.105E+01 0.250E+01
CGA:  21    -0.997166292929E+03   -0.35422E-01   -0.30980E-01  2880   0.434E+00 0.262E+00
CGA:  22    -0.997182893348E+03   -0.16600E-01   -0.10646E-01  2880   0.477E+00 0.313E+00
CGA:  23    -0.997210170030E+03   -0.27277E-01   -0.29700E-01  2880   0.506E+00-0.503E-01
CGA:  24    -0.997271858723E+03   -0.61689E-01   -0.62806E-01  2880   0.116E+01-0.468E-01
CGA:  25    -0.997422790984E+03   -0.15093E+00   -0.14919E+00  2880   0.241E+00 0.561E-01
CGA:  26    -0.997434272455E+03   -0.11481E-01   -0.12418E-01  2880   0.305E-01-0.183E-01
CGA:  27    -0.997438852401E+03   -0.45799E-02   -0.44736E-02  2880   0.437E-01 0.276E-02
CGA:  28    -0.997445070388E+03   -0.62180E-02   -0.61990E-02  2880   0.171E-01 0.321E-02
CGA:  29    -0.997446699698E+03   -0.16293E-02   -0.16108E-02  2880   0.933E-02-0.706E-03
CGA:  30    -0.997447806099E+03   -0.11064E-02   -0.11049E-02  2880   0.640E-02 0.146E-02
CGA:  31    -0.997448898856E+03   -0.10928E-02   -0.11444E-02  2880   0.127E-01-0.159E-02
CGA:  32    -0.997450045787E+03   -0.11469E-02   -0.11471E-02  2880   0.324E-02 0.382E-03
CGA:  33    -0.997450232501E+03   -0.18671E-03   -0.19209E-03  2880   0.167E-02 0.893E-04
CGA:  34    -0.997447450229E+03    0.27823E-02   -0.14772E-02  2880   0.624E-01-0.619E-02
CGA:  35    -0.997449728553E+03   -0.22783E-02   -0.23636E-02  2880   0.687E-02 0.632E-02
CGA:  36    -0.997450176801E+03   -0.44825E-03   -0.54191E-03  2880   0.304E-02 0.867E-03
CGA:  37    -0.997450557362E+03   -0.38056E-03   -0.37282E-03  2880   0.314E-02-0.111E-03
CGA:  38    -0.997450783552E+03   -0.22619E-03   -0.21546E-03  2880   0.169E-02-0.929E-04
CGA:  39    -0.997450942865E+03   -0.15931E-03   -0.15959E-03  2880   0.102E-02 0.130E-04
CGA:  40    -0.997450980865E+03   -0.38000E-04   -0.55364E-04  2880   0.523E-03 0.144E-03
CGA:  41    -0.997451009329E+03   -0.28464E-04   -0.48677E-04  2880   0.529E-03 0.206E-03
CGA:  42    -0.997451089150E+03   -0.79821E-04   -0.79802E-04  2880   0.589E-03 0.375E-05
CGA:  43    -0.997451140472E+03   -0.51322E-04   -0.41455E-04  2880   0.257E-03-0.994E-04
CGA:  44    -0.997451135468E+03    0.50038E-05   -0.76971E-05  2880   0.154E-03 0.987E-04
   1 F= -.99745114E+03 E0= -.99743177E+03  d E =-.997451E+03  mag=     2.0000
       N       E                     dE             d eps       ncg     rms          ort
SDA:   1    -0.997411000779E+03    0.40140E-01    0.00000E+00  2880   0.108E+01 0.000E+00
CGA:   2    -0.997445509907E+03   -0.34509E-01   -0.39806E-01  2880   0.448E-01-0.171E+00
CGA:   3    -0.997447420354E+03   -0.19104E-02   -0.20219E-02  2880   0.109E-01 0.136E-02
CGA:   4    -0.997449836987E+03   -0.24166E-02   -0.24170E-02  2880   0.113E-01-0.567E-04
CGA:   5    -0.997450407482E+03   -0.57049E-03   -0.60573E-03  2880   0.249E-02 0.416E-03
CGA:   6    -0.997450876146E+03   -0.46866E-03   -0.50019E-03  2880   0.347E-02-0.631E-03
CGA:   7    -0.997450967342E+03   -0.91196E-04   -0.12982E-03  2880   0.103E-02 0.408E-03
CGA:   8    -0.997451010558E+03   -0.43217E-04   -0.61138E-04  2880   0.456E-03 0.219E-03
CGA:   9    -0.997451061537E+03   -0.50978E-04   -0.42234E-04  2880   0.334E-03-0.148E-03
CGA:  10    -0.997451079886E+03   -0.18350E-04   -0.17959E-04  2880   0.238E-03-0.809E-05
CGA:  11    -0.997451085148E+03   -0.52612E-05   -0.10736E-04  2880   0.123E-03 0.648E-04
CGA:  12    -0.997451095168E+03   -0.10021E-04   -0.10221E-04  2880   0.514E-04 0.344E-05
CGA:  13    -0.997451115628E+03   -0.20459E-04    0.57511E-05  2880   0.108E-03-0.418E-04
CGA:  14    -0.997451112531E+03    0.30965E-05   -0.27314E-05  2880   0.390E-04 0.592E-04
   2 F= -.99745111E+03 E0= -.99743169E+03  d E =0.229369E-04  mag=     2.0000
       N       E                     dE             d eps       ncg     rms          ort
SDA:   1    -0.997448764230E+03    0.23514E-02    0.00000E+00  2880   0.444E-01 0.000E+00
CGA:   2    -0.997450448537E+03   -0.16843E-02   -0.15528E-02  2880   0.260E-02-0.139E-02
CGA:   3    -0.997450770223E+03   -0.32169E-03   -0.31825E-03  2880   0.192E-02 0.218E-03
CGA:   4    -0.997451046692E+03   -0.27647E-03   -0.29052E-03  2880   0.272E-02-0.497E-03
CGA:   5    -0.997451175903E+03   -0.12921E-03   -0.12889E-03  2880   0.594E-03-0.778E-05
CGA:   6    -0.997451193431E+03   -0.17529E-04   -0.25143E-04  2880   0.217E-03 0.109E-03
CGA:   7    -0.997451202527E+03   -0.90959E-05   -0.14161E-04  2880   0.170E-03 0.978E-04
CGA:   8    -0.997451219078E+03   -0.16551E-04   -0.18484E-04  2880   0.101E-03 0.660E-04
CGA:   9    -0.997451222051E+03   -0.29730E-05   -0.27415E-04  2880   0.701E-03-0.267E-03
CGA:  10    -0.997451240958E+03   -0.18906E-04   -0.24855E-04  2880   0.652E-04 0.803E-04
CGA:  11    -0.997451237965E+03    0.29924E-05   -0.14951E-05  2880   0.416E-04 0.540E-04
   3 F= -.99745124E+03 E0= -.99743185E+03  d E =-.125434E-03  mag=     2.0000
       N       E                     dE             d eps       ncg     rms          ort
SDA:   1    -0.997450626619E+03    0.61434E-03    0.00000E+00  2880   0.989E-02 0.000E+00
CGA:   2    -0.997451073512E+03   -0.44689E-03   -0.37614E-03  2880   0.822E-03-0.134E-02
CGA:   3    -0.997451142110E+03   -0.68599E-04   -0.68446E-04  2880   0.554E-03 0.405E-04
CGA:   4    -0.997451217740E+03   -0.75629E-04   -0.10548E-03  2880   0.143E-02-0.344E-03
CGA:   5    -0.997451252470E+03   -0.34731E-04   -0.43807E-04  2880   0.627E-04 0.128E-03
CGA:   6    -0.997451137400E+03    0.11507E-03   -0.62147E-04  2880   0.418E-02-0.316E-03
CGA:   7    -0.997451266289E+03   -0.12889E-03   -0.14635E-03  2880   0.189E-03 0.812E-04
CGA:   8    -0.997451261199E+03    0.50900E-05   -0.76994E-05  2880   0.756E-04 0.103E-03
CGA:   9    -0.997451270409E+03   -0.92101E-05   -0.24890E-04  2880   0.420E-03-0.929E-04
CGA:  10    -0.997451284838E+03   -0.14429E-04   -0.16082E-04  2880   0.389E-04 0.590E-05
CGA:  11    -0.997451283147E+03    0.16910E-05   -0.14028E-05  2880   0.171E-04 0.247E-04
   4 F= -.99745128E+03 E0= -.99743190E+03  d E =-.451818E-04  mag=     2.0000
       N       E                     dE             d eps       ncg     rms          ort
SDA:   1    -0.997448496388E+03    0.27885E-02    0.00000E+00  2880   0.387E-01 0.000E+00
CGA:   2    -0.997450016105E+03   -0.15197E-02   -0.13838E-02  2880   0.332E-02-0.102E-02
CGA:   3    -0.997450666548E+03   -0.65044E-03   -0.63821E-03  2880   0.499E-02 0.226E-03
CGA:   4    -0.997451116863E+03   -0.45032E-03   -0.43007E-03  2880   0.109E-02-0.368E-03
CGA:   5    -0.997451217253E+03   -0.10039E-03   -0.90673E-04  2880   0.819E-03-0.185E-03
CGA:   6    -0.997451282430E+03   -0.65176E-04   -0.64822E-04  2880   0.322E-03-0.126E-04
CGA:   7    -0.997451282092E+03    0.33723E-06   -0.12852E-04  2880   0.763E-04 0.134E-03
   5 F= -.99745128E+03 E0= -.99743191E+03  d E =0.105483E-05  mag=     2.0000
       N       E                     dE             d eps       ncg     rms          ort
SDA:   1    -0.997417431316E+03    0.33851E-01    0.00000E+00  2880   0.103E+01 0.000E+00
CGA:   2    -0.997450655518E+03   -0.33224E-01   -0.35078E-01  2880   0.965E-02-0.865E-01
CGA:   3    -0.997450971743E+03   -0.31622E-03   -0.34199E-03  2880   0.937E-03 0.329E-03
CGA:   4    -0.997451243017E+03   -0.27127E-03   -0.34211E-03  2880   0.105E-02-0.308E-03
CGA:   5    -0.997451283993E+03   -0.40977E-04   -0.38917E-04  2880   0.357E-03-0.230E-04
CGA:   6    -0.997451329318E+03   -0.45325E-04   -0.45459E-04  2880   0.559E-03-0.111E-03
CGA:   7    -0.997451362522E+03   -0.33204E-04   -0.29265E-04  2880   0.328E-03-0.747E-04
CGA:   8    -0.997451367298E+03   -0.47761E-05   -0.97229E-05  2880   0.112E-03 0.568E-04
   6 F= -.99745137E+03 E0= -.99743200E+03  d E =-.852056E-04  mag=     2.0000
       N       E                     dE             d eps       ncg     rms          ort
SDA:   1    -0.997450465165E+03    0.89736E-03    0.00000E+00  2880   0.206E-01 0.000E+00
CGA:   2    -0.997451016445E+03   -0.55128E-03   -0.64432E-03  2880   0.828E-03 0.108E-02
CGA:   3    -0.997451129727E+03   -0.11328E-03   -0.10917E-03  2880   0.105E-02 0.327E-03
CGA:   4    -0.997451303164E+03   -0.17344E-03   -0.17871E-03  2880   0.185E-02-0.633E-03
CGA:   5    -0.997451334257E+03   -0.31092E-04   -0.54749E-04  2880   0.139E-03 0.267E-03
CGA:   6    -0.997451336274E+03   -0.20169E-05   -0.72028E-05  2880   0.111E-03 0.802E-04
CGA:   7    -0.997451298753E+03    0.37521E-04   -0.39148E-04  2880   0.310E-02-0.315E-03
CGA:   8    -0.997451359789E+03   -0.61036E-04   -0.90177E-04  2880   0.578E-04 0.310E-03
CGA:   9    -0.997451359833E+03   -0.44325E-07   -0.20012E-05  2880   0.238E-04 0.234E-04
CGA:  10    -0.997451262138E+03    0.97696E-04   -0.52743E-04  2880   0.193E-02-0.202E-03
CGA:  11    -0.997451373213E+03   -0.11108E-03   -0.93294E-04  2880   0.532E-03-0.151E-03
CGA:  12    -0.997451380887E+03   -0.76739E-05   -0.26935E-04  2880   0.609E-04 0.139E-03
   7 F= -.99745138E+03 E0= -.99743201E+03  d E =-.135889E-04  mag=     2.0000
       N       E                     dE             d eps       ncg     rms          ort
SDA:   1    -0.997423458466E+03    0.27915E-01    0.00000E+00  2880   0.761E+00 0.000E+00
CGA:   2    -0.997448291987E+03   -0.24834E-01   -0.27779E-01  2880   0.237E-01-0.111E+00
CGA:   3    -0.997449215151E+03   -0.92316E-03   -0.98195E-03  2880   0.480E-02 0.595E-03
CGA:   4    -0.997450633633E+03   -0.14185E-02   -0.14624E-02  2880   0.535E-02-0.346E-03
CGA:   5    -0.997450873719E+03   -0.24009E-03   -0.23507E-03  2880   0.966E-03 0.634E-05
CGA:   6    -0.997451072635E+03   -0.19892E-03   -0.22446E-03  2880   0.209E-02-0.387E-03
CGA:   7    -0.997451082475E+03   -0.98406E-05   -0.45603E-04  2880   0.928E-03 0.277E-03
CGA:   8    -0.997451080822E+03    0.16533E-05   -0.28691E-04  2880   0.297E-03 0.263E-03
CGA:   9    -0.997451086259E+03   -0.54374E-05   -0.14039E-04  2880   0.167E-03 0.801E-04
CGA:  10    -0.997451117370E+03   -0.31111E-04   -0.23055E-04  2880   0.438E-03-0.198E-03
CGA:  11    -0.997451135609E+03   -0.18239E-04   -0.23140E-04  2880   0.498E-04 0.507E-04
CGA:  12    -0.997450643002E+03    0.49261E-03   -0.27503E-03  2880   0.130E-01-0.693E-03
CGA:  13    -0.997451063515E+03   -0.42051E-03   -0.48787E-03  2880   0.123E-02 0.916E-03
CGA:  14    -0.997451138998E+03   -0.75483E-04   -0.76488E-04  2880   0.831E-04 0.423E-04
CGA:  15    -0.997451157645E+03   -0.18647E-04   -0.10087E-04  2880   0.170E-03-0.704E-04
CGA:  16    -0.997451152562E+03    0.50833E-05   -0.44951E-05  2880   0.183E-04 0.452E-04
   8 F= -.99745115E+03 E0= -.99743175E+03  d E =0.228325E-03  mag=     2.0000
       N       E                     dE             d eps       ncg     rms          ort
SDA:   1    -0.997403403321E+03    0.47754E-01    0.00000E+00  2880   0.141E+01 0.000E+00
CGA:   2    -0.997443941825E+03   -0.40539E-01   -0.62318E-01  2880   0.223E+00-0.564E+00
CGA:   3    -0.997450698138E+03   -0.67563E-02   -0.69799E-02  2880   0.231E-02 0.267E-02
CGA:   4    -0.997450780265E+03   -0.82127E-04   -0.12828E-03  2880   0.109E-02 0.344E-03
CGA:   5    -0.997451079160E+03   -0.29890E-03   -0.32258E-03  2880   0.210E-02-0.359E-03
CGA:   6    -0.997451134322E+03   -0.55162E-04   -0.44501E-04  2880   0.533E-03-0.705E-04
CGA:   7    -0.997451150190E+03   -0.15868E-04   -0.17291E-04  2880   0.336E-03 0.824E-05
CGA:   8    -0.997451175009E+03   -0.24819E-04   -0.28026E-04  2880   0.592E-03 0.330E-04
CGA:   9    -0.997451204264E+03   -0.29254E-04   -0.31477E-04  2880   0.168E-03 0.165E-04
CGA:  10    -0.997451210737E+03   -0.64730E-05   -0.64859E-05  2880   0.560E-04 0.432E-06
   9 F= -.99745121E+03 E0= -.99743182E+03  d E =-.581748E-04  mag=     2.0000
       N       E                     dE             d eps       ncg     rms          ort
SDA:   1    -0.997299569286E+03    0.15163E+00    0.00000E+00  2880   0.337E+01 0.000E+00
CGA:   2    -0.997405549244E+03   -0.10598E+00   -0.14748E+00  2880   0.519E+00-0.119E+01
CGA:   3    -0.997427849913E+03   -0.22301E-01   -0.22009E-01  2880   0.621E-01 0.911E-02
CGA:   4    -0.997438673052E+03   -0.10823E-01   -0.10804E-01  2880   0.115E+00-0.166E-03
CGA:   5    -0.997447930043E+03   -0.92570E-02   -0.92078E-02  2880   0.141E-01 0.997E-03
CGA:   6    -0.997449120943E+03   -0.11909E-02   -0.11648E-02  2880   0.115E-01-0.577E-03
CGA:   7    -0.997450393792E+03   -0.12728E-02   -0.12999E-02  2880   0.337E-02 0.114E-02
CGA:   8    -0.997450825246E+03   -0.43145E-03   -0.38616E-03  2880   0.301E-02-0.134E-02
CGA:   9    -0.997450909429E+03   -0.84184E-04   -0.11015E-03  2880   0.132E-02 0.336E-03
CGA:  10    -0.997450930948E+03   -0.21518E-04   -0.63091E-04  2880   0.461E-03 0.460E-03
CGA:  11    -0.997450956221E+03   -0.25274E-04   -0.32306E-04  2880   0.246E-03 0.862E-04
CGA:  12    -0.997451031693E+03   -0.75472E-04    0.63155E-03  2880   0.375E-03 0.302E-04
CGA:  13    -0.997451058234E+03   -0.26541E-04   -0.26451E-04  2880   0.158E-03-0.151E-05
CGA:  14    -0.997451057154E+03    0.10798E-05   -0.53750E-05  2880   0.747E-04 0.741E-04
  10 F= -.99745106E+03 E0= -.99743172E+03  d E =0.153583E-03  mag=     2.0000
       N       E                     dE             d eps       ncg     rms          ort
SDA:   1    -0.997448359228E+03    0.26990E-02    0.00000E+00  2880   0.278E-01 0.000E+00
CGA:   2    -0.997449370787E+03   -0.10116E-02   -0.11126E-02  2880   0.613E-02 0.165E-02
CGA:   3    -0.997450274743E+03   -0.90396E-03   -0.90054E-03  2880   0.715E-02 0.147E-03
CGA:   4    -0.997451100431E+03   -0.82569E-03   -0.82676E-03  2880   0.406E-02-0.739E-03
CGA:   5    -0.997451209483E+03   -0.10905E-03   -0.14849E-03  2880   0.912E-03 0.562E-03
CGA:   6    -0.997451252632E+03   -0.43148E-04   -0.56636E-04  2880   0.648E-03 0.254E-03
CGA:   7    -0.997451355122E+03   -0.10249E-03   -0.12868E-03  2880   0.146E-02-0.527E-03
CGA:   8    -0.997451403415E+03   -0.48293E-04   -0.58738E-04  2880   0.226E-03 0.153E-03
CGA:   9    -0.997451420707E+03   -0.17292E-04   -0.17835E-04  2880   0.475E-04 0.170E-04
CGA:  10    -0.997451421567E+03   -0.86032E-06   -0.23260E-05  2880   0.255E-04 0.255E-04
  11 F= -.99745142E+03 E0= -.99743206E+03  d E =-.364413E-03  mag=     2.0000
       N       E                     dE             d eps       ncg     rms          ort
SDA:   1    -0.997418819790E+03    0.32601E-01    0.00000E+00  2880   0.689E+00 0.000E+00
CGA:   2    -0.997441308681E+03   -0.22489E-01   -0.23328E-01  2880   0.305E-01-0.111E-01
CGA:   3    -0.997445800462E+03   -0.44918E-02   -0.46412E-02  2880   0.371E-01-0.314E-02
CGA:   4    -0.997449778355E+03   -0.39779E-02   -0.39661E-02  2880   0.102E-01 0.154E-02
CGA:   5    -0.997450522845E+03   -0.74449E-03   -0.74145E-03  2880   0.434E-02-0.128E-03
CGA:   6    -0.997450989653E+03   -0.46681E-03   -0.46681E-03  2880   0.332E-02-0.969E-05
CGA:   7    -0.997451296817E+03   -0.30716E-03   -0.29960E-03  2880   0.140E-02-0.411E-03
CGA:   8    -0.997451346268E+03   -0.49452E-04   -0.66659E-04  2880   0.314E-03 0.317E-03
CGA:   9    -0.997451389092E+03   -0.42824E-04   -0.43774E-04  2880   0.394E-03-0.124E-03
CGA:  10    -0.997451319295E+03    0.69797E-04   -0.65700E-04  2880   0.361E-02-0.803E-03
CGA:  11    -0.997451395057E+03   -0.75762E-04   -0.12680E-03  2880   0.485E-03 0.655E-03
CGA:  12    -0.997451411209E+03   -0.16152E-04   -0.27491E-04  2880   0.166E-03 0.184E-03
CGA:  13    -0.997451434534E+03   -0.23325E-04   -0.21859E-04  2880   0.252E-03-0.120E-03
CGA:  14    -0.997451437243E+03   -0.27088E-05   -0.83528E-05  2880   0.531E-04 0.755E-04
  12 F= -.99745144E+03 E0= -.99743206E+03  d E =-.156756E-04  mag=     2.0000
       N       E                     dE             d eps       ncg     rms          ort
SDA:   1    -0.997413656176E+03    0.37778E-01    0.00000E+00  2880   0.109E+01 0.000E+00
CGA:   2    -0.997449794071E+03   -0.36138E-01   -0.35593E-01  2880   0.655E-02-0.261E-01
CGA:   3    -0.997450302495E+03   -0.50842E-03   -0.50777E-03  2880   0.560E-02-0.352E-04
CGA:   4    -0.997451194508E+03   -0.89201E-03   -0.90156E-03  2880   0.213E-02-0.163E-03
CGA:   5    -0.997451315464E+03   -0.12096E-03   -0.12109E-03  2880   0.924E-03-0.150E-04
CGA:   6    -0.997450493719E+03    0.82175E-03   -0.46117E-03  2880   0.203E-01-0.269E-02
CGA:   7    -0.997451018482E+03   -0.52476E-03   -0.73936E-03  2880   0.215E-02 0.154E-02
CGA:   8    -0.997451155048E+03   -0.13657E-03   -0.18756E-03  2880   0.138E-02 0.573E-03
CGA:   9    -0.997451439085E+03   -0.28404E-03   -0.27753E-03  2880   0.202E-02-0.835E-03
CGA:  10    -0.997451455891E+03   -0.16807E-04   -0.65972E-04  2880   0.243E-03 0.374E-03
CGA:  11    -0.997451456416E+03   -0.52456E-06   -0.14306E-04  2880   0.189E-03 0.126E-03
CGA:  12    -0.997451524871E+03   -0.68455E-04    0.85399E-04  2880   0.722E-03-0.121E-03
CGA:  13    -0.997451518711E+03    0.61593E-05   -0.19177E-04  2880   0.825E-04 0.194E-03
  13 F= -.99745152E+03 E0= -.99743214E+03  d E =-.814688E-04  mag=     2.0000
       N       E                     dE             d eps       ncg     rms          ort
SDA:   1    -0.997163609107E+03    0.28792E+00    0.00000E+00  2880   0.273E+01 0.000E+00
CGA:   2    -0.997269405575E+03   -0.10580E+00   -0.12293E+00  2880   0.751E+00-0.504E+00
CGA:   3    -0.997388651467E+03   -0.11925E+00   -0.12006E+00  2880   0.607E+00-0.103E-01
CGA:   4    -0.997421229380E+03   -0.32578E-01   -0.35727E-01  2880   0.141E+00-0.452E-01
CGA:   5    -0.997433826291E+03   -0.12597E-01   -0.12648E-01  2880   0.907E-01 0.887E-03
CGA:   6    -0.997443067972E+03   -0.92417E-02   -0.92187E-02  2880   0.409E-01-0.830E-03
CGA:   7    -0.997445617473E+03   -0.25495E-02   -0.26759E-02  2880   0.919E-02 0.149E-02
CGA:   8    -0.997446884511E+03   -0.12670E-02   -0.12779E-02  2880   0.150E-01-0.217E-02
CGA:   9    -0.997447841995E+03   -0.95748E-03   -0.10007E-02  2880   0.235E-02 0.101E-02
CGA:  10    -0.997447915321E+03   -0.73326E-04   -0.13126E-03  2880   0.792E-03 0.780E-03
CGA:  11    -0.997448021507E+03   -0.10619E-03   -0.10766E-03  2880   0.105E-02 0.659E-04
CGA:  12    -0.997448175128E+03   -0.15362E-03   -0.16588E-03  2880   0.142E-02-0.517E-03
CGA:  13    -0.997448203852E+03   -0.28723E-04   -0.28216E-04  2880   0.915E-03-0.367E-05
CGA:  14    -0.997448224520E+03   -0.20669E-04   -0.32058E-04  2880   0.437E-03 0.143E-03
CGA:  15    -0.997448237311E+03   -0.12791E-04   -0.21472E-04  2880   0.311E-03 0.123E-03
CGA:  16    -0.997448258313E+03   -0.21001E-04   -0.23071E-04  2880   0.274E-03 0.385E-04
CGA:  17    -0.997448288921E+03   -0.30608E-04   -0.29531E-04  2880   0.405E-03-0.857E-04
CGA:  18    -0.997448294793E+03   -0.58724E-05   -0.80497E-05  2880   0.276E-03 0.275E-04
  14 F= -.99744829E+03 E0= -.99742894E+03  d E =0.322392E-02  mag=     2.0000
       N       E                     dE             d eps       ncg     rms          ort
SDA:   1    -0.997345773174E+03    0.10252E+00    0.00000E+00  2880   0.309E+00 0.000E+00
CGA:   2    -0.997384336609E+03   -0.38563E-01   -0.38359E-01  2880   0.541E+00 0.492E-02
CGA:   3    -0.997434804269E+03   -0.50468E-01   -0.50415E-01  2880   0.929E-01-0.642E-02
CGA:   4    -0.997441458033E+03   -0.66538E-02   -0.67767E-02  2880   0.403E-01 0.634E-02
CGA:   5    -0.997448863468E+03   -0.74054E-02   -0.75494E-02  2880   0.201E-01-0.195E-02
CGA:   6    -0.997450010230E+03   -0.11468E-02   -0.11172E-02  2880   0.694E-02-0.604E-03
CGA:   7    -0.997450694776E+03   -0.68455E-03   -0.68487E-03  2880   0.334E-02-0.467E-03
CGA:   8    -0.997450919514E+03   -0.22474E-03   -0.24407E-03  2880   0.161E-02 0.845E-03
CGA:   9    -0.997451189078E+03   -0.26956E-03   -0.30114E-03  2880   0.111E-02-0.639E-03
CGA:  10    -0.997451204519E+03   -0.15441E-04   -0.32669E-04  2880   0.638E-03 0.324E-03
CGA:  11    -0.997451229447E+03   -0.24928E-04   -0.39680E-04  2880   0.303E-03 0.293E-03
CGA:  12    -0.997451271216E+03   -0.41770E-04   -0.81383E-04  2880   0.950E-03-0.457E-03
CGA:  13    -0.997451326295E+03   -0.55079E-04   -0.62567E-04  2880   0.123E-03 0.214E-03
CGA:  14    -0.997451342059E+03   -0.15764E-04   -0.16778E-04  2880   0.155E-03-0.861E-04
CGA:  15    -0.997451340707E+03    0.13521E-05   -0.39477E-05  2880   0.446E-04 0.704E-04
  15 F= -.99745134E+03 E0= -.99743198E+03  d E =-.304591E-02  mag=     2.0000
       N       E                     dE             d eps       ncg     rms          ort
SDA:   1    -0.997394843510E+03    0.56499E-01    0.00000E+00  2880   0.120E+01 0.000E+00
CGA:   2    -0.997435735293E+03   -0.40892E-01   -0.40072E-01  2880   0.389E-01-0.227E-01
CGA:   3    -0.997444108186E+03   -0.83729E-02   -0.86024E-02  2880   0.813E-01-0.165E-02
CGA:   4    -0.997449316762E+03   -0.52086E-02   -0.52745E-02  2880   0.911E-02 0.147E-02
CGA:   5    -0.997450112870E+03   -0.79611E-03   -0.80218E-03  2880   0.571E-02 0.707E-03
CGA:   6    -0.997450867330E+03   -0.75446E-03   -0.84071E-03  2880   0.794E-02-0.209E-02
CGA:   7    -0.997451097577E+03   -0.23025E-03   -0.25635E-03  2880   0.293E-02 0.600E-03
CGA:   8    -0.997451160266E+03   -0.62689E-04   -0.10265E-03  2880   0.101E-02 0.662E-03
CGA:   9    -0.997451209683E+03   -0.49417E-04   -0.60578E-04  2880   0.669E-03 0.264E-03
CGA:  10    -0.997451283164E+03   -0.73481E-04   -0.72034E-04  2880   0.767E-03-0.350E-03
CGA:  11    -0.997451317308E+03   -0.34144E-04   -0.40467E-04  2880   0.234E-03 0.172E-03
CGA:  12    -0.997451336912E+03   -0.19604E-04   -0.50380E-04  2880   0.727E-03-0.347E-03
CGA:  13    -0.997451357685E+03   -0.20773E-04   -0.30525E-04  2880   0.175E-03 0.194E-03
CGA:  14    -0.997451370871E+03   -0.13186E-04   -0.13937E-04  2880   0.288E-04 0.293E-04
CGA:  15    -0.997451291255E+03    0.79617E-04   -0.42966E-04  2880   0.301E-02-0.209E-03
CGA:  16    -0.997451365190E+03   -0.73936E-04   -0.99105E-04  2880   0.140E-03 0.187E-03
CGA:  17    -0.997451388002E+03   -0.22811E-04   -0.22321E-04  2880   0.167E-03-0.126E-03
CGA:  18    -0.997451393717E+03   -0.57157E-05   -0.74794E-05  2880   0.310E-04 0.150E-04
  16 F= -.99745139E+03 E0= -.99743200E+03  d E =-.530098E-04  mag=     2.0000
       N       E                     dE             d eps       ncg     rms          ort
SDA:   1    -0.997448012682E+03    0.33753E-02    0.00000E+00  2880   0.871E-02 0.000E+00
CGA:   2    -0.997449938559E+03   -0.19259E-02   -0.19732E-02  2880   0.119E-01-0.585E-03
CGA:   3    -0.997450713684E+03   -0.77513E-03   -0.78535E-03  2880   0.491E-02 0.114E-03
CGA:   4    -0.997450955886E+03   -0.24220E-03   -0.29582E-03  2880   0.108E-02 0.669E-03
CGA:   5    -0.997451120276E+03   -0.16439E-03   -0.16152E-03  2880   0.134E-02-0.437E-03
CGA:   6    -0.997451192064E+03   -0.71789E-04   -0.67041E-04  2880   0.972E-03-0.904E-04
CGA:   7    -0.997451208467E+03   -0.16402E-04   -0.36524E-04  2880   0.305E-03 0.223E-03
CGA:   8    -0.997451214345E+03   -0.58779E-05   -0.14789E-04  2880   0.122E-03 0.985E-04
CGA:   9    -0.997451234210E+03   -0.19865E-04   -0.22908E-04  2880   0.342E-03-0.193E-03
CGA:  10    -0.997451254174E+03   -0.19964E-04   -0.22448E-04  2880   0.499E-04 0.403E-04
CGA:  11    -0.997451253764E+03    0.40950E-06   -0.20368E-05  2880   0.162E-04 0.279E-04
  17 F= -.99745125E+03 E0= -.99743185E+03  d E =0.139953E-03  mag=     2.0000
       N       E                     dE             d eps       ncg     rms          ort
SDA:   1    -0.997434239237E+03    0.17015E-01    0.00000E+00  2880   0.253E+00 0.000E+00
CGA:   2    -0.997443210426E+03   -0.89712E-02   -0.88511E-02  2880   0.215E-01-0.575E-02
CGA:   3    -0.997448768388E+03   -0.55580E-02   -0.52620E-02  2880   0.203E-01 0.212E-02
CGA:   4    -0.997450539163E+03   -0.17708E-02   -0.16963E-02  2880   0.705E-02-0.235E-02
CGA:   5    -0.997450993038E+03   -0.45387E-03   -0.47147E-03  2880   0.344E-02 0.403E-03
CGA:   6    -0.997451277980E+03   -0.28494E-03   -0.29976E-03  2880   0.118E-02 0.440E-03
CGA:   7    -0.997451429889E+03   -0.15191E-03   -0.15189E-03  2880   0.733E-03-0.383E-04
CGA:   8    -0.997451515605E+03   -0.85717E-04   -0.12575E-03  2880   0.172E-02-0.640E-03
CGA:   9    -0.997451528758E+03   -0.13153E-04   -0.52894E-04  2880   0.179E-03 0.471E-03
CGA:  10    -0.997451523550E+03    0.52080E-05   -0.52339E-05  2880   0.799E-04 0.116E-03
  18 F= -.99745152E+03 E0= -.99743215E+03  d E =-.269786E-03  mag=     2.0000
       N       E                     dE             d eps       ncg     rms          ort
SDA:   1    -0.997434668384E+03    0.16860E-01    0.00000E+00  2880   0.833E-01 0.000E+00
CGA:   2    -0.997439105129E+03   -0.44367E-02   -0.44035E-02  2880   0.481E-01-0.155E-02
CGA:   3    -0.997448675810E+03   -0.95707E-02   -0.92972E-02  2880   0.169E-01 0.293E-02
CGA:   4    -0.997450354644E+03   -0.16788E-02   -0.16124E-02  2880   0.901E-02-0.390E-02
CGA:   5    -0.997451029037E+03   -0.67439E-03   -0.68990E-03  2880   0.256E-02 0.175E-02
CGA:   6    -0.997451208777E+03   -0.17974E-03   -0.19924E-03  2880   0.735E-03 0.436E-03
CGA:   7    -0.997450001742E+03    0.12070E-02   -0.66604E-03  2880   0.275E-01-0.313E-02
CGA:   8    -0.997450923095E+03   -0.92135E-03   -0.10877E-02  2880   0.289E-02 0.372E-02
CGA:   9    -0.997451061103E+03   -0.13801E-03   -0.18901E-03  2880   0.136E-02 0.481E-03
CGA:  10    -0.997451369882E+03   -0.30878E-03   -0.32008E-03  2880   0.228E-02-0.493E-03
CGA:  11    -0.997451407171E+03   -0.37289E-04   -0.41609E-04  2880   0.791E-03 0.233E-04
CGA:  12    -0.997451413359E+03   -0.61882E-05   -0.19839E-04  2880   0.308E-03 0.893E-04
CGA:  13    -0.997451415057E+03   -0.16974E-05   -0.11286E-04  2880   0.232E-03 0.702E-04
CGA:  14    -0.997451424584E+03   -0.95275E-05   -0.13084E-04  2880   0.246E-03 0.294E-04
CGA:  15    -0.997451447184E+03   -0.22600E-04   -0.19383E-04  2880   0.417E-03-0.395E-04
CGA:  16    -0.997451460066E+03   -0.12882E-04   -0.10999E-04  2880   0.241E-03-0.153E-04
CGA:  17    -0.997451463337E+03   -0.32706E-05   -0.45345E-05  2880   0.728E-04 0.116E-04
  19 F= -.99745146E+03 E0= -.99743212E+03  d E =0.602135E-04  mag=     2.0000
       N       E                     dE             d eps       ncg     rms          ort
SDA:   1    -0.997409525300E+03    0.41935E-01    0.00000E+00  2880   0.118E+01 0.000E+00
CGA:   2    -0.997448565030E+03   -0.39040E-01   -0.40624E-01  2880   0.164E-01-0.919E-01
CGA:   3    -0.997449379307E+03   -0.81428E-03   -0.84182E-03  2880   0.690E-02 0.398E-03
CGA:   4    -0.997450974685E+03   -0.15954E-02   -0.16136E-02  2880   0.468E-02-0.203E-03
CGA:   5    -0.997451224277E+03   -0.24959E-03   -0.26134E-03  2880   0.147E-02 0.159E-03
CGA:   6    -0.997451431935E+03   -0.20766E-03   -0.22200E-03  2880   0.191E-02-0.679E-03
CGA:   7    -0.997451466098E+03   -0.34164E-04   -0.51673E-04  2880   0.999E-03 0.233E-03
CGA:   8    -0.997451493602E+03   -0.27504E-04   -0.48735E-04  2880   0.465E-03 0.277E-03
CGA:   9    -0.997451528440E+03   -0.34838E-04   -0.34117E-04  2880   0.104E-03-0.104E-04
CGA:  10    -0.997451557663E+03   -0.29222E-04    0.23498E-04  2880   0.201E-03-0.478E-04
CGA:  11    -0.997451560407E+03   -0.27441E-05   -0.43383E-05  2880   0.173E-03 0.210E-04
  20 F= -.99745156E+03 E0= -.99743220E+03  d E =-.970700E-04  mag=     2.0000
