       N       E                     dE             d eps       ncg     rms          ort
DAV:   1     0.290118712224E+04    0.29012E+04   -0.21040E+05  2592   0.138E+03
DAV:   2    -0.716423389037E+03   -0.36176E+04   -0.34702E+04  2592   0.242E+02
DAV:   3    -0.120075647957E+04   -0.48433E+03   -0.47953E+03  2592   0.952E+01
DAV:   4    -0.122389624411E+04   -0.23140E+02   -0.22962E+02  2592   0.231E+01
DAV:   5    -0.122519793524E+04   -0.13017E+01   -0.12997E+01  2592   0.538E+00
SDA:   6    -0.109317945948E+04    0.13202E+03   -0.12997E+01  2592   0.717E+02 0.000E+00
CGA:   7    -0.110907554460E+04   -0.15896E+02   -0.15899E+02  2592   0.652E+01 0.925E-01
CGA:   8    -0.111099345146E+04   -0.19179E+01   -0.19083E+01  2592   0.152E+01 0.893E-01
CGA:   9    -0.111149667044E+04   -0.50322E+00   -0.50300E+00  2592   0.408E+00 0.196E-02
CGA:  10    -0.111165103288E+04   -0.15436E+00   -0.15576E+00  2592   0.107E+00-0.901E-02
CGA:  11    -0.111169087753E+04   -0.39845E-01   -0.40009E-01  2592   0.263E-01-0.105E-02
CGA:  12    -0.111169985601E+04   -0.89785E-02   -0.89921E-02  2592   0.552E-02-0.123E-03
CGA:  13    -0.111170221340E+04   -0.23574E-02   -0.25079E-02  2592   0.174E-02-0.682E-03
CGA:  14    -0.111170273807E+04   -0.52467E-03   -0.51723E-03  2592   0.402E-03 0.780E-04
CGA:  15    -0.111170284108E+04   -0.10301E-03   -0.10355E-03  2592   0.115E-03 0.143E-03
CGA:  16    -0.111170286376E+04   -0.22679E-04   -0.28115E-04  2592   0.452E-04 0.786E-04
CGA:  17    -0.111170287213E+04   -0.83726E-05   -0.93899E-05  2592   0.211E-04 0.265E-04
   1 F= -.11117029E+04 E0= -.11117029E+04  d E =-.111170E+04  mag=     0.0000
       N       E                     dE             d eps       ncg     rms          ort
SDA:   1    -0.111169729774E+04    0.55660E-02    0.00000E+00  2592   0.180E-01 0.000E+00
CGA:   2    -0.111170175792E+04   -0.44602E-02   -0.44555E-02  2592   0.346E-02 0.746E-03
CGA:   3    -0.111170287062E+04   -0.11127E-02   -0.10861E-02  2592   0.785E-03 0.445E-03
CGA:   4    -0.111170315822E+04   -0.28759E-03   -0.28118E-03  2592   0.210E-03 0.879E-04
CGA:   5    -0.111170324566E+04   -0.87446E-04   -0.88223E-04  2592   0.733E-04-0.606E-05
CGA:   6    -0.111170326505E+04   -0.19384E-04   -0.19159E-04  2592   0.167E-04 0.155E-04
CGA:   7    -0.111170327176E+04   -0.67158E-05   -0.65576E-05  2592   0.570E-05 0.227E-05
   2 F= -.11117033E+04 E0= -.11117033E+04  d E =-.399632E-03  mag=    -0.0000
       N       E                     dE             d eps       ncg     rms          ort
SDA:   1    -0.111170324280E+04    0.22245E-04    0.00000E+00  2592   0.547E-04 0.000E+00
CGA:   2    -0.111170292499E+04    0.31782E-03   -0.17116E-03  2592   0.192E-02-0.287E-03
CGA:   3    -0.111170326876E+04   -0.34378E-03   -0.36258E-03  2592   0.112E-03 0.662E-04
CGA:   4    -0.111170328368E+04   -0.14920E-04   -0.22554E-04  2592   0.161E-04 0.290E-04
CGA:   5    -0.111170328351E+04    0.17490E-06   -0.29241E-05  2592   0.624E-05 0.103E-04
   3 F= -.11117033E+04 E0= -.11117033E+04  d E =-.411377E-03  mag=    -0.0000
       N       E                     dE             d eps       ncg     rms          ort
SDA:   1    -0.111170306178E+04    0.22191E-03    0.00000E+00  2592   0.498E-03 0.000E+00
CGA:   2    -0.111170321423E+04   -0.15246E-03   -0.14231E-03  2592   0.129E-03-0.777E-04
CGA:   3    -0.111170326013E+04   -0.45897E-04   -0.46994E-04  2592   0.725E-04-0.501E-04
CGA:   4    -0.111170327278E+04   -0.12647E-04   -0.12167E-04  2592   0.166E-04-0.354E-05
CGA:   5    -0.111170327364E+04   -0.86211E-06   -0.25258E-05  2592   0.615E-05 0.680E-05
   4 F= -.11117033E+04 E0= -.11117033E+04  d E =-.401508E-03  mag=    -0.0000
       N       E                     dE             d eps       ncg     rms          ort
SDA:   1    -0.111170229258E+04    0.98020E-03    0.00000E+00  2592   0.396E-02 0.000E+00
CGA:   2    -0.111170316436E+04   -0.87178E-03   -0.93489E-03  2592   0.797E-03 0.445E-03
CGA:   3    -0.111170337216E+04   -0.20780E-03   -0.23218E-03  2592   0.187E-03 0.223E-03
CGA:   4    -0.111170344187E+04   -0.69711E-04   -0.72465E-04  2592   0.520E-04 0.440E-04
CGA:   5    -0.111170346469E+04   -0.22820E-04   -0.22812E-04  2592   0.185E-04-0.117E-05
CGA:   6    -0.111170346851E+04   -0.38280E-05   -0.44076E-05  2592   0.487E-05 0.488E-05
   5 F= -.11117035E+04 E0= -.11117035E+04  d E =-.194875E-03  mag=    -0.0000
       N       E                     dE             d eps       ncg     rms          ort
SDA:   1    -0.111169983493E+04    0.36298E-02    0.00000E+00  2592   0.114E-01 0.000E+00
CGA:   2    -0.111170252237E+04   -0.26874E-02   -0.27763E-02  2592   0.234E-02 0.822E-03
CGA:   3    -0.111170321234E+04   -0.68998E-03   -0.71533E-03  2592   0.526E-03 0.411E-03
CGA:   4    -0.111170342436E+04   -0.21201E-03   -0.21204E-03  2592   0.143E-03 0.438E-04
CGA:   5    -0.111170348074E+04   -0.56383E-04   -0.56628E-04  2592   0.509E-04-0.114E-04
CGA:   6    -0.111170349226E+04   -0.11520E-04   -0.12288E-04  2592   0.113E-04 0.931E-05
CGA:   7    -0.111170349773E+04   -0.54678E-05   -0.58252E-05  2592   0.755E-05-0.380E-05
   6 F= -.11117035E+04 E0= -.11117035E+04  d E =-.224086E-03  mag=     0.0000
       N       E                     dE             d eps       ncg     rms          ort
SDA:   1    -0.111170274754E+04    0.74472E-03    0.00000E+00  2592   0.172E-02 0.000E+00
CGA:   2    -0.111170332272E+04   -0.57519E-03   -0.56926E-03  2592   0.722E-03-0.443E-03
CGA:   3    -0.111170351274E+04   -0.19002E-03   -0.19266E-03  2592   0.245E-03-0.172E-03
CGA:   4    -0.111170354548E+04   -0.32733E-04   -0.38973E-04  2592   0.525E-04 0.458E-04
CGA:   5    -0.111170354687E+04   -0.13953E-05   -0.77537E-05  2592   0.187E-04 0.297E-04
   7 F= -.11117035E+04 E0= -.11117035E+04  d E =-.273232E-03  mag=     0.0000
       N       E                     dE             d eps       ncg     rms          ort
SDA:   1    -0.111170303419E+04    0.51128E-03    0.00000E+00  2592   0.104E-02 0.000E+00
CGA:   2    -0.111170337990E+04   -0.34571E-03   -0.35407E-03  2592   0.531E-03-0.363E-03
CGA:   3    -0.111170350773E+04   -0.12783E-03   -0.14876E-03  2592   0.263E-03-0.187E-03
CGA:   4    -0.111170353467E+04   -0.26944E-04   -0.32843E-04  2592   0.744E-04 0.449E-04
CGA:   5    -0.111170353711E+04   -0.24389E-05   -0.10264E-04  2592   0.277E-04 0.391E-04
   8 F= -.11117035E+04 E0= -.11117035E+04  d E =-.263473E-03  mag=     0.0000
       N       E                     dE             d eps       ncg     rms          ort
SDA:   1    -0.111170338443E+04    0.15025E-03    0.00000E+00  2592   0.226E-03 0.000E+00
CGA:   2    -0.111170345282E+04   -0.68388E-04   -0.10186E-03  2592   0.344E-03-0.219E-03
CGA:   3    -0.111170350203E+04   -0.49213E-04   -0.54822E-04  2592   0.136E-04 0.382E-04
CGA:   4    -0.111170350207E+04   -0.40171E-07   -0.16484E-05  2592   0.533E-05 0.849E-05
   9 F= -.11117035E+04 E0= -.11117035E+04  d E =-.228429E-03  mag=     0.0000
       N       E                     dE             d eps       ncg     rms          ort
SDA:   1    -0.111170353138E+04   -0.29351E-04    0.00000E+00  2592   0.811E-04 0.000E+00
CGA:   2    -0.111170353312E+04   -0.17423E-05   -0.92377E-05  2592   0.280E-04 0.449E-04
CGA:   3    -0.111170353148E+04    0.16413E-05   -0.23320E-05  2592   0.164E-04 0.210E-04
CGA:   4    -0.111170352998E+04    0.14984E-05   -0.11176E-05  2592   0.113E-04 0.134E-04
  10 F= -.11117035E+04 E0= -.11117035E+04  d E =-.256343E-03  mag=     0.0000
       N       E                     dE             d eps       ncg     rms          ort
SDA:   1    -0.111170350489E+04    0.26593E-04    0.00000E+00  2592   0.664E-05 0.000E+00
CGA:   2    -0.111170351105E+04   -0.61567E-05    0.89177E-06  2592   0.118E-05-0.153E-05
CGA:   3    -0.111170351231E+04   -0.12603E-05    0.59706E-07  2592   0.210E-06 0.126E-06
CGA:   4    -0.111170351228E+04    0.29300E-07   -0.10531E-07  2592   0.163E-06 0.201E-06
  11 F= -.11117035E+04 E0= -.11117035E+04  d E =-.238636E-03  mag=     0.0000
