       N       E                     dE             d eps       ncg     rms          rms(c)
DAV:   1     0.304618311030E+04    0.30462E+04   -0.25834E+05 73632   0.130E+03
DAV:   2    -0.614071587911E+03   -0.36603E+04   -0.35310E+04 89388   0.297E+02
DAV:   3    -0.871571829459E+03   -0.25750E+03   -0.25539E+03 88980   0.832E+01
DAV:   4    -0.874781662022E+03   -0.32098E+01   -0.31979E+01 89328   0.998E+00
DAV:   5    -0.874835951094E+03   -0.54289E-01   -0.54155E-01 91068   0.120E+00    0.987E+01
DAV:   6    -0.782327952392E+03    0.92508E+02   -0.39286E+02 84036   0.315E+01    0.504E+01
DAV:   7    -0.790906606317E+03   -0.85787E+01   -0.26860E+01 84588   0.888E+00    0.182E+01
DAV:   8    -0.794018738779E+03   -0.31121E+01   -0.77087E+00 99084   0.509E+00    0.101E+01
DAV:   9    -0.796125739082E+03   -0.21070E+01   -0.31322E+00 91932   0.303E+00    0.671E+00
DAV:  10    -0.796789371259E+03   -0.66363E+00   -0.27947E+00 95280   0.267E+00    0.530E+00
DAV:  11    -0.797245350457E+03   -0.45598E+00   -0.13575E+00 91584   0.148E+00    0.410E+00
DAV:  12    -0.797314011727E+03   -0.68661E-01   -0.15675E+00105468   0.133E+00    0.363E+00
DAV:  13    -0.797450387709E+03   -0.13638E+00   -0.13910E+00100284   0.140E+00    0.389E+00
DAV:  14    -0.797380588934E+03    0.69799E-01   -0.26952E-01 92232   0.784E-01    0.201E+00
DAV:  15    -0.797373586813E+03    0.70021E-02   -0.49259E-02 86256   0.296E-01    0.139E+00
DAV:  16    -0.797387072246E+03   -0.13485E-01   -0.11229E-01101820   0.392E-01    0.194E+00
DAV:  17    -0.797393242791E+03   -0.61705E-02   -0.11745E-02 84828   0.212E-01    0.192E+00
DAV:  18    -0.797402136650E+03   -0.88939E-02   -0.74024E-02 92916   0.281E-01    0.253E+00
DAV:  19    -0.797401065917E+03    0.10707E-02   -0.37038E-03 77748   0.135E-01    0.256E+00
DAV:  20    -0.797399857127E+03    0.12088E-02   -0.10329E-04 89004   0.244E-02    0.256E+00
DAV:  21    -0.797394395851E+03    0.54613E-02   -0.31481E-03 93732   0.145E-01    0.223E+00
DAV:  22    -0.797378750994E+03    0.15645E-01   -0.52785E-02 95448   0.424E-01    0.838E-01
DAV:  23    -0.797385841629E+03   -0.70906E-02   -0.18390E-02 82776   0.242E-01    0.511E-01
DAV:  24    -0.797388352398E+03   -0.25108E-02   -0.21399E-02 89064   0.176E-01    0.719E-01
DAV:  25    -0.797385575367E+03    0.27770E-02   -0.26309E-03 93900   0.143E-01    0.681E-01
DAV:  26    -0.797386962364E+03   -0.13870E-02   -0.41694E-03 88752   0.141E-01    0.624E-01
DAV:  27    -0.797385603044E+03    0.13593E-02   -0.57663E-03 94812   0.211E-01    0.670E-01
DAV:  28    -0.797385603994E+03   -0.95005E-06   -0.46688E-03 89052   0.108E-01    0.627E-01
DAV:  29    -0.797386543280E+03   -0.93929E-03   -0.12673E-03 87072   0.698E-02    0.522E-01
DAV:  30    -0.797387914654E+03   -0.13714E-02   -0.27463E-03 87672   0.121E-01    0.271E-01
DAV:  31    -0.797388548353E+03   -0.63370E-03   -0.15780E-03 90576   0.980E-02    0.890E-02
DAV:  32    -0.797388644655E+03   -0.96302E-04   -0.35200E-04 88092   0.334E-02    0.864E-02
DAV:  33    -0.797388656661E+03   -0.12006E-04   -0.63166E-05 73392   0.129E-02    0.730E-02
DAV:  34    -0.797388642249E+03    0.14412E-04   -0.81554E-05 81744   0.166E-02    0.420E-02
DAV:  35    -0.797388658133E+03   -0.15884E-04   -0.47063E-05 86376   0.165E-02    0.328E-02
DAV:  36    -0.797388658004E+03    0.12929E-06   -0.25887E-05 65448   0.999E-03
   1 F= -.79738866E+03 E0= -.79737154E+03  d E =-.797389E+03  mag=     0.9991
       N       E                     dE             d eps       ncg     rms          rms(c)
DAV:   1    -0.797389541010E+03   -0.88288E-03   -0.49979E-03 75576   0.130E-01    0.937E-02
DAV:   2    -0.797389687283E+03   -0.14627E-03   -0.23429E-03106092   0.675E-02    0.314E-01
DAV:   3    -0.797389490722E+03    0.19656E-03   -0.11771E-03106020   0.500E-02    0.335E-02
DAV:   4    -0.797389539156E+03   -0.48433E-04   -0.17791E-04 83688   0.180E-02    0.518E-02
DAV:   5    -0.797389536040E+03    0.31158E-05   -0.57492E-05 51216   0.101E-02
   2 F= -.79738954E+03 E0= -.79737242E+03  d E =-.878036E-03  mag=     0.9998
       N       E                     dE             d eps       ncg     rms          rms(c)
DAV:   1    -0.797391619068E+03   -0.20799E-02   -0.42622E-02 75288   0.379E-01    0.232E-01
DAV:   2    -0.797392478315E+03   -0.85925E-03   -0.13406E-02103356   0.161E-01    0.743E-01
DAV:   3    -0.797391373778E+03    0.11045E-02   -0.64346E-03105096   0.118E-01    0.965E-02
DAV:   4    -0.797391622676E+03   -0.24890E-03   -0.11227E-03 86736   0.496E-02    0.124E-01
DAV:   5    -0.797391612365E+03    0.10311E-04   -0.17068E-04 84660   0.251E-02    0.483E-02
DAV:   6    -0.797391607817E+03    0.45477E-05   -0.13056E-04 78000   0.136E-02    0.320E-02
DAV:   7    -0.797391610926E+03   -0.31088E-05   -0.27865E-05 47328   0.829E-03
   3 F= -.79739161E+03 E0= -.79737449E+03  d E =-.207489E-02  mag=     0.9999
       N       E                     dE             d eps       ncg     rms          rms(c)
DAV:   1    -0.797394071365E+03   -0.24635E-02   -0.26193E-01 74088   0.945E-01    0.487E-01
DAV:   2    -0.797397276917E+03   -0.32056E-02   -0.49619E-02101376   0.321E-01    0.139E+00
DAV:   3    -0.797393556906E+03    0.37200E-02   -0.23344E-02104400   0.227E-01    0.222E-01
DAV:   4    -0.797394287112E+03   -0.73021E-03   -0.40258E-03 87264   0.107E-01    0.235E-01
DAV:   5    -0.797394250530E+03    0.36582E-04   -0.73030E-04 89352   0.548E-02    0.103E-01
DAV:   6    -0.797394224897E+03    0.25633E-04   -0.41232E-04 88548   0.281E-02    0.555E-02
DAV:   7    -0.797394239825E+03   -0.14928E-04   -0.17933E-04 85560   0.173E-02    0.801E-02
DAV:   8    -0.797394220870E+03    0.18955E-04   -0.27426E-04 74016   0.181E-02    0.413E-02
DAV:   9    -0.797394225007E+03   -0.41368E-05   -0.75281E-05 51708   0.100E-02
   4 F= -.79739423E+03 E0= -.79737708E+03  d E =-.261408E-02  mag=     1.0000
       N       E                     dE             d eps       ncg     rms          rms(c)
DAV:   1    -0.797394796741E+03   -0.57587E-03   -0.20557E-02 75168   0.268E-01    0.148E-01
DAV:   2    -0.797395216517E+03   -0.41978E-03   -0.70525E-03107808   0.114E-01    0.506E-01
DAV:   3    -0.797394678121E+03    0.53840E-03   -0.30162E-03106500   0.821E-02    0.847E-02
DAV:   4    -0.797394777062E+03   -0.98941E-04   -0.44238E-04 85788   0.300E-02    0.521E-02
DAV:   5    -0.797394792840E+03   -0.15778E-04   -0.66146E-05 73188   0.143E-02    0.454E-02
DAV:   6    -0.797394787168E+03    0.56719E-05   -0.47334E-05 47676   0.880E-03
   5 F= -.79739479E+03 E0= -.79737764E+03  d E =-.562161E-03  mag=     1.0000
       N       E                     dE             d eps       ncg     rms          rms(c)
DAV:   1    -0.797396385542E+03   -0.15927E-02   -0.29381E-01 73632   0.101E+00    0.274E-01
DAV:   2    -0.797397702233E+03   -0.13167E-02   -0.22415E-02 98256   0.228E-01    0.802E-01
DAV:   3    -0.797396494102E+03    0.12081E-02   -0.90573E-03100008   0.129E-01    0.885E-02
DAV:   4    -0.797396771394E+03   -0.27729E-03   -0.13409E-03 86172   0.506E-02    0.154E-01
DAV:   5    -0.797396732666E+03    0.38728E-04   -0.34920E-04 87492   0.309E-02    0.539E-02
DAV:   6    -0.797396755408E+03   -0.22742E-04   -0.57391E-04 85968   0.217E-02    0.109E-01
DAV:   7    -0.797396722581E+03    0.32826E-04   -0.18278E-04 72204   0.173E-02    0.350E-02
DAV:   8    -0.797396725089E+03   -0.25076E-05   -0.55085E-05 53520   0.887E-03
   6 F= -.79739673E+03 E0= -.79737959E+03  d E =-.193792E-02  mag=     1.0000
       N       E                     dE             d eps       ncg     rms          rms(c)
DAV:   1    -0.797398410345E+03   -0.16878E-02   -0.50214E-01 73560   0.131E+00    0.757E-01
DAV:   2    -0.797406733044E+03   -0.83227E-02   -0.17829E-01109812   0.601E-01    0.216E+00
DAV:   3    -0.797397004959E+03    0.97281E-02   -0.45347E-02107448   0.400E-01    0.581E-01
DAV:   4    -0.797397771101E+03   -0.76614E-03   -0.67731E-03 87552   0.133E-01    0.210E-01
DAV:   5    -0.797398030834E+03   -0.25973E-03   -0.18719E-03 89076   0.719E-02    0.151E-01
DAV:   6    -0.797398057990E+03   -0.27156E-04   -0.53799E-04 95136   0.406E-02    0.954E-02
DAV:   7    -0.797398045671E+03    0.12319E-04   -0.45197E-04 87060   0.286E-02    0.752E-02
DAV:   8    -0.797398046035E+03   -0.36381E-06   -0.37307E-04 85752   0.209E-02    0.793E-02
DAV:   9    -0.797398031406E+03    0.14628E-04   -0.24498E-04 66924   0.163E-02    0.407E-02
DAV:  10    -0.797398034659E+03   -0.32523E-05   -0.60725E-05 48420   0.837E-03
   7 F= -.79739803E+03 E0= -.79738091E+03  d E =-.130957E-02  mag=     0.9999
       N       E                     dE             d eps       ncg     rms          rms(c)
DAV:   1    -0.797398277863E+03   -0.24646E-03   -0.64488E-01 73488   0.151E+00    0.254E-01
DAV:   2    -0.797399727747E+03   -0.14499E-02   -0.17323E-02 88716   0.226E-01    0.322E-01
DAV:   3    -0.797399519629E+03    0.20812E-03   -0.32131E-03104028   0.875E-02    0.180E-01
DAV:   4    -0.797399447916E+03    0.71713E-04   -0.26749E-04 88860   0.383E-02    0.724E-02
DAV:   5    -0.797399510849E+03   -0.62933E-04   -0.14800E-03 89148   0.415E-02    0.199E-01
DAV:   6    -0.797399407752E+03    0.10310E-03   -0.36786E-04 85224   0.269E-02    0.821E-02
DAV:   7    -0.797399405289E+03    0.24632E-05   -0.21961E-04 79644   0.146E-02    0.268E-02
DAV:   8    -0.797399414443E+03   -0.91542E-05   -0.31522E-05 48876   0.942E-03
   8 F= -.79739941E+03 E0= -.79738229E+03  d E =-.137978E-02  mag=     0.9999
       N       E                     dE             d eps       ncg     rms          rms(c)
DAV:   1    -0.797398917434E+03    0.48785E-03   -0.29509E-01 73500   0.100E+00    0.654E-01
DAV:   2    -0.797405994055E+03   -0.70766E-02   -0.13126E-01107616   0.497E-01    0.191E+00
DAV:   3    -0.797397703101E+03    0.82910E-02   -0.31258E-02107712   0.334E-01    0.433E-01
DAV:   4    -0.797398857343E+03   -0.11542E-02   -0.15464E-02 87432   0.143E-01    0.444E-01
DAV:   5    -0.797398888579E+03   -0.31236E-04   -0.13537E-03 85008   0.764E-02    0.285E-01
DAV:   6    -0.797398683761E+03    0.20482E-03   -0.32630E-03 90204   0.502E-02    0.143E-01
DAV:   7    -0.797398736450E+03   -0.52689E-04   -0.23042E-04 78624   0.304E-02    0.885E-02
DAV:   8    -0.797398716344E+03    0.20106E-04   -0.20931E-04 72648   0.184E-02    0.411E-02
DAV:   9    -0.797398725233E+03   -0.88893E-05   -0.12070E-04 64608   0.133E-02    0.525E-02
DAV:  10    -0.797398716963E+03    0.82701E-05   -0.54507E-05 47568   0.922E-03
   9 F= -.79739872E+03 E0= -.79738160E+03  d E =0.697480E-03  mag=     0.9999
       N       E                     dE             d eps       ncg     rms          rms(c)
DAV:   1    -0.797399476814E+03   -0.75158E-03   -0.58489E-02 73656   0.438E-01    0.341E-01
DAV:   2    -0.797401604472E+03   -0.21277E-02   -0.33707E-02107424   0.255E-01    0.122E+00
DAV:   3    -0.797398757435E+03    0.28470E-02   -0.16136E-02106140   0.189E-01    0.162E-01
DAV:   4    -0.797399332402E+03   -0.57497E-03   -0.16235E-03 83856   0.651E-02    0.787E-02
DAV:   5    -0.797399385728E+03   -0.53327E-04   -0.12678E-04 81588   0.238E-02    0.484E-02
DAV:   6    -0.797399380570E+03    0.51584E-05   -0.13745E-04 73656   0.162E-02    0.482E-02
DAV:   7    -0.797399378751E+03    0.18187E-05   -0.66654E-05 51684   0.103E-02
  10 F= -.79739938E+03 E0= -.79738226E+03  d E =-.661788E-03  mag=     0.9999
       N       E                     dE             d eps       ncg     rms          rms(c)
DAV:   1    -0.797399322661E+03    0.57909E-04   -0.56401E-02 73680   0.446E-01    0.124E-01
DAV:   2    -0.797399598661E+03   -0.27600E-03   -0.41116E-03 94164   0.999E-02    0.353E-01
DAV:   3    -0.797399355371E+03    0.24329E-03   -0.16643E-03 98304   0.609E-02    0.377E-02
DAV:   4    -0.797399418061E+03   -0.62690E-04   -0.26563E-04 83472   0.227E-02    0.756E-02
DAV:   5    -0.797399404377E+03    0.13683E-04   -0.13419E-04 58644   0.148E-02    0.147E-02
DAV:   6    -0.797399410777E+03   -0.64001E-05   -0.48102E-05 47496   0.793E-03
  11 F= -.79739941E+03 E0= -.79738228E+03  d E =-.320262E-04  mag=     1.0000
