       N       E                     dE             d eps       ncg     rms          ort
DAV:   1     0.845665979769E+04    0.84567E+04   -0.38096E+05  6370   0.178E+03
DAV:   2     0.357228362656E+03   -0.80994E+04   -0.74427E+04  6370   0.459E+02
DAV:   3    -0.839579198857E+03   -0.11968E+04   -0.11697E+04  6370   0.196E+02
DAV:   4    -0.899745857697E+03   -0.60167E+02   -0.57054E+02  6370   0.441E+01
DAV:   5    -0.901949538452E+03   -0.22037E+01   -0.21444E+01  6370   0.716E+00
SDA:   6    -0.381757567492E+03    0.52019E+03   -0.21444E+01  6370   0.343E+04 0.000E+00
CGA:   7    -0.669626301190E+03   -0.28787E+03   -0.35513E+03  6370   0.393E+04-0.431E+03
CGA:   8    -0.629185762320E+03    0.40441E+02   -0.15837E+03  6370   0.238E+04-0.106E+04
CGA:   9    -0.680996620040E+03   -0.51811E+02   -0.37225E+02  6370   0.173E+04-0.106E+04
CGA:  10    -0.654477091120E+03    0.26520E+02   -0.43989E+02  6370   0.224E+04-0.708E+03
CGA:  11    -0.699880112248E+03   -0.45403E+02   -0.23811E+02  6370   0.191E+04 0.180E+04
CGA:  12    -0.721425156384E+03   -0.21545E+02   -0.73891E+02  6370   0.128E+04-0.102E+04
CGA:  13    -0.701830944583E+03    0.19594E+02   -0.73240E+02  6370   0.140E+04-0.733E+03
CGA:  14    -0.752057879911E+03   -0.50227E+02   -0.40132E+02  6370   0.460E+03-0.200E+03
CGA:  15    -0.746658884598E+03    0.53990E+01   -0.10700E+02  6370   0.102E+04-0.496E+03
CGA:  16    -0.723115239156E+03    0.23544E+02   -0.50367E+02  6370   0.164E+04-0.660E+03
CGA:  17    -0.750641944093E+03   -0.27527E+02   -0.52338E+02  6370   0.662E+03-0.828E+03
CGA:  18    -0.753806400504E+03   -0.31645E+01   -0.20871E+02  6370   0.112E+04-0.862E+03
CGA:  19    -0.743735429163E+03    0.10071E+02   -0.37537E+02  6370   0.128E+04-0.901E+03
CGA:  20    -0.714800925944E+03    0.28935E+02   -0.52810E+02  6370   0.159E+04-0.992E+03
CGA:  21    -0.736950950912E+03   -0.22150E+02   -0.47569E+02  6370   0.156E+04-0.199E+04
CGA:  22    -0.707578275596E+03    0.29373E+02   -0.59392E+02  6370   0.194E+04-0.134E+04
CGA:  23    -0.713324253972E+03   -0.57460E+01   -0.63540E+02  6370   0.274E+04-0.272E+04
CGA:  24    -0.685383561685E+03    0.27941E+02   -0.11189E+03  6370   0.193E+04-0.136E+04
CGA:  25    -0.753393504679E+03   -0.68010E+02   -0.20868E+02  6370   0.167E+04 0.369E+03
CGA:  26    -0.692601469689E+03    0.60792E+02   -0.64965E+02  6370   0.261E+04-0.114E+04
CGA:  27    -0.721336847663E+03   -0.28735E+02   -0.84990E+02  6370   0.501E+04-0.557E+04
CGA:  28    -0.668989346436E+03    0.52348E+02   -0.19377E+03  6370   0.256E+04-0.141E+04
CGA:  29    -0.745275987960E+03   -0.76287E+02   -0.45824E+02  6370   0.127E+04-0.409E+03
CGA:  30    -0.715317392018E+03    0.29959E+02   -0.22245E+02  6370   0.428E+04-0.884E+03
CGA:  31    -0.653495584419E+03    0.61822E+02   -0.14397E+03  6370   0.422E+04-0.146E+04
CGA:  32    -0.683839629432E+03   -0.30344E+02   -0.90864E+02  6370   0.320E+04-0.207E+04
CGA:  33    -0.725763673627E+03   -0.41924E+02   -0.51653E+02  6370   0.126E+04-0.321E+03
CGA:  34    -0.731422594515E+03   -0.56589E+01   -0.23681E+02  6370   0.306E+04-0.568E+03
CGA:  35    -0.685690563021E+03    0.45732E+02   -0.32012E+02  6370   0.243E+04-0.199E+04
CGA:  36    -0.759614761865E+03   -0.73924E+02   -0.72072E+02  6370   0.771E+03-0.905E+03
CGA:  37    -0.766337755570E+03   -0.67230E+01   -0.69343E+01  6370   0.630E+03-0.542E+03
CGA:  38    -0.771329878997E+03   -0.49921E+01   -0.13521E+02  6370   0.270E+03-0.319E+03
CGA:  39    -0.774899479189E+03   -0.35696E+01   -0.31592E+01  6370   0.151E+02 0.513E+01
CGA:  40    -0.775093058041E+03   -0.19358E+00   -0.17857E+00  6370   0.401E+01 0.103E+01
CGA:  41    -0.775249824512E+03   -0.15677E+00   -0.15356E+00  6370   0.975E+01 0.141E-01
CGA:  42    -0.776209381476E+03   -0.95956E+00   -0.80987E+00  6370   0.419E+02 0.400E+01
CGA:  43    -0.776195541178E+03    0.13840E-01   -0.10554E+01  6370   0.600E+02-0.406E+02
CGA:  44    -0.777022759993E+03   -0.82722E+00   -0.84864E+00  6370   0.669E+01-0.161E+01
CGA:  45    -0.777163110938E+03   -0.14035E+00   -0.14577E+00  6370   0.445E+01-0.157E+00
CGA:  46    -0.777299395318E+03   -0.13628E+00   -0.13641E+00  6370   0.600E+01-0.949E-02
CGA:  47    -0.777644576829E+03   -0.34518E+00   -0.34422E+00  6370   0.668E+01 0.102E+00
CGA:  48    -0.777813459929E+03   -0.16888E+00   -0.14558E+00  6370   0.143E+01 0.901E+00
CGA:  49    -0.777919208964E+03   -0.10575E+00   -0.10537E+00  6370   0.382E+01 0.177E-01
CGA:  50    -0.778193453495E+03   -0.27424E+00   -0.26816E+00  6370   0.605E+01 0.233E+00
CGA:  51    -0.778424914873E+03   -0.23146E+00   -0.24639E+00  6370   0.197E+01 0.216E+00
CGA:  52    -0.778508245623E+03   -0.83331E-01   -0.80041E-01  6370   0.195E+01-0.351E-01
CGA:  53    -0.778623243909E+03   -0.11500E+00   -0.11459E+00  6370   0.379E+01 0.284E-01
CGA:  54    -0.778859593967E+03   -0.23635E+00   -0.23133E+00  6370   0.200E+01 0.384E+00
CGA:  55    -0.778948372955E+03   -0.88779E-01   -0.80651E-01  6370   0.640E+00-0.139E-01
CGA:  56    -0.778989675893E+03   -0.41303E-01   -0.40503E-01  6370   0.928E+00 0.433E-01
CGA:  57    -0.779053145177E+03   -0.63469E-01   -0.64330E-01  6370   0.153E+01-0.458E-01
CGA:  58    -0.779141368785E+03   -0.88224E-01   -0.93459E-01  6370   0.853E+00-0.330E+00
CGA:  59    -0.779162418887E+03   -0.21050E-01   -0.19900E-01  6370   0.688E+00 0.174E-01
CGA:  60    -0.779193168868E+03   -0.30750E-01   -0.31320E-01  6370   0.538E+00 0.316E-01
CGA:  61    -0.779219875360E+03   -0.26706E-01   -0.26569E-01  6370   0.689E+00-0.133E-01
CGA:  62    -0.779260852579E+03   -0.40977E-01   -0.43305E-01  6370   0.119E+01-0.135E+00
CGA:  63    -0.779276197002E+03   -0.15344E-01   -0.14222E-01  6370   0.914E+00 0.597E-01
CGA:  64    -0.779293261511E+03   -0.17065E-01   -0.21390E-01  6370   0.545E+00-0.108E+00
CGA:  65    -0.779302936860E+03   -0.96753E-02   -0.95062E-02  6370   0.282E+00 0.577E-02
CGA:  66    -0.779309928651E+03   -0.69918E-02   -0.68804E-02  6370   0.278E+00 0.253E-02
CGA:  67    -0.779318941040E+03   -0.90124E-02   -0.91272E-02  6370   0.357E+00 0.146E-02
CGA:  68    -0.779329699877E+03   -0.10759E-01   -0.10906E-01  6370   0.402E+00 0.165E-03
CGA:  69    -0.779340778677E+03   -0.11079E-01   -0.10508E-01  6370   0.238E+00 0.709E-02
CGA:  70    -0.779345770689E+03   -0.49920E-02   -0.45854E-02  6370   0.178E+00 0.134E-01
CGA:  71    -0.779350197528E+03   -0.44268E-02   -0.44168E-02  6370   0.183E+00 0.261E-03
CGA:  72    -0.779354679072E+03   -0.44815E-02   -0.46365E-02  6370   0.222E+00-0.135E-02
CGA:  73    -0.779361705929E+03   -0.70269E-02   -0.70352E-02  6370   0.285E+00 0.101E-03
SDA:  74    -0.779368672210E+03   -0.69663E-02   -0.66669E-02  6370   0.287E+00 0.364E-02
CGA:  75    -0.779377535700E+03   -0.88635E-02   -0.90206E-02  6370   0.116E+00 0.468E-02
CGA:  76    -0.779380461564E+03   -0.29259E-02   -0.28780E-02  6370   0.673E-01 0.253E-03
CGA:  77    -0.779385575190E+03   -0.51136E-02   -0.52818E-02  6370   0.884E-01-0.444E-02
CGA:  78    -0.779394894949E+03   -0.93198E-02   -0.90616E-02  6370   0.210E+00 0.429E-02
CGA:  79    -0.779399778524E+03   -0.48836E-02   -0.47089E-02  6370   0.769E-01 0.397E-02
CGA:  80    -0.779403453526E+03   -0.36750E-02   -0.36969E-02  6370   0.336E-01-0.290E-02
CGA:  81    -0.779406007308E+03   -0.25538E-02   -0.25277E-02  6370   0.109E+00 0.699E-03
CGA:  82    -0.779409646695E+03   -0.36394E-02   -0.35940E-02  6370   0.406E-01-0.452E-03
CGA:  83    -0.779412214838E+03   -0.25681E-02   -0.25532E-02  6370   0.137E-01 0.615E-03
CGA:  84    -0.779413259252E+03   -0.10444E-02   -0.10328E-02  6370   0.141E-01 0.353E-03
CGA:  85    -0.779414123916E+03   -0.86466E-03   -0.86047E-03  6370   0.262E-01 0.235E-03
CGA:  86    -0.779415081014E+03   -0.95710E-03   -0.94920E-03  6370   0.204E-01-0.137E-04
CGA:  87    -0.779415172595E+03   -0.91581E-04   -0.34126E-02  6370   0.494E-01-0.304E-01
CGA:  88    -0.779416989216E+03   -0.18166E-02   -0.18352E-02  6370   0.313E-01 0.877E-04
CGA:  89    -0.779417761490E+03   -0.77227E-03   -0.76586E-03  6370   0.171E-01 0.126E-03
CGA:  90    -0.779419356831E+03   -0.15953E-02   -0.15863E-02  6370   0.138E-01 0.203E-03
CGA:  91    -0.779420250118E+03   -0.89329E-03   -0.89279E-03  6370   0.751E-02 0.160E-04
CGA:  92    -0.779420626477E+03   -0.37636E-03   -0.37599E-03  6370   0.107E-01-0.672E-04
CGA:  93    -0.779420915451E+03   -0.28897E-03   -0.28917E-03  6370   0.459E-02-0.361E-04
CGA:  94    -0.779421495786E+03   -0.58034E-03   -0.58591E-03  6370   0.555E-02-0.774E-04
CGA:  95    -0.779421758889E+03   -0.26310E-03   -0.26259E-03  6370   0.723E-02-0.413E-04
CGA:  96    -0.779421936266E+03   -0.17738E-03   -0.17828E-03  6370   0.235E-02-0.368E-04
CGA:  97    -0.779422136841E+03   -0.20058E-03   -0.20042E-03  6370   0.310E-02 0.533E-05
CGA:  98    -0.779422448749E+03   -0.31191E-03   -0.31151E-03  6370   0.933E-02 0.864E-05
CGA:  99    -0.779422669625E+03   -0.22088E-03   -0.22242E-03  6370   0.258E-02 0.108E-04
CGA: 100    -0.779422799791E+03   -0.13017E-03   -0.13017E-03  6370   0.101E-02 0.107E-04
CGA: 101    -0.779422891569E+03   -0.91779E-04   -0.91525E-04  6370   0.222E-02 0.754E-05
CGA: 102    -0.779422969324E+03   -0.77754E-04   -0.77806E-04  6370   0.276E-02 0.956E-05
CGA: 103    -0.779423165934E+03   -0.19661E-03   -0.19634E-03  6370   0.757E-03 0.188E-04
CGA: 104    -0.779423239001E+03   -0.73068E-04   -0.73010E-04  6370   0.224E-02 0.172E-05
CGA: 105    -0.779423326480E+03   -0.87479E-04   -0.87398E-04  6370   0.324E-02 0.446E-05
CGA: 106    -0.779423604966E+03   -0.27849E-03   -0.27927E-03  6370   0.226E-02-0.223E-04
CGA: 107    -0.779423701607E+03   -0.96641E-04   -0.96806E-04  6370   0.134E-02 0.255E-05
CGA: 108    -0.779423728487E+03   -0.26880E-04   -0.26931E-04  6370   0.565E-03 0.472E-07
CGA: 109    -0.779423794385E+03   -0.65899E-04   -0.66169E-04  6370   0.982E-03-0.458E-05
CGA: 110    -0.779423855485E+03   -0.61100E-04   -0.61112E-04  6370   0.107E-02-0.421E-05
CGA: 111    -0.779423874242E+03   -0.18757E-04   -0.18735E-04  6370   0.158E-03-0.194E-05
CGA: 112    -0.779423882376E+03   -0.81344E-05   -0.81235E-05  6370   0.715E-04-0.168E-05
   1 F= -.77942388E+03 E0= -.77939918E+03  d E =-.779424E+03  mag=    65.0000
