       N       E                     dE             d eps       ncg     rms          ort
DAV:   1     0.286760215758E+04    0.28676E+04   -0.29283E+05  2880   0.140E+03
DAV:   2    -0.959146224431E+03   -0.38267E+04   -0.36879E+04  2880   0.312E+02
DAV:   3    -0.122335610806E+04   -0.26421E+03   -0.26254E+03  2880   0.858E+01
DAV:   4    -0.122650190761E+04   -0.31458E+01   -0.31349E+01  2880   0.994E+00
DAV:   5    -0.122655490331E+04   -0.52996E-01   -0.52884E-01  2880   0.119E+00
SDA:   6    -0.863008438567E+03    0.36355E+03   -0.52884E-01  2880   0.626E+03 0.000E+00
CGA:   7    -0.976591879588E+03   -0.11358E+03   -0.11337E+03  2880   0.438E+02-0.266E+01
CGA:   8    -0.989709371644E+03   -0.13117E+02   -0.13089E+02  2880   0.106E+02 0.231E+00
CGA:   9    -0.993592497247E+03   -0.38831E+01   -0.38846E+01  2880   0.405E+01-0.142E-01
CGA:  10    -0.994879455440E+03   -0.12870E+01   -0.12907E+01  2880   0.892E+00-0.324E-01
CGA:  11    -0.995218896888E+03   -0.33944E+00   -0.33976E+00  2880   0.196E+00-0.180E-02
CGA:  12    -0.995286109630E+03   -0.67213E-01   -0.67188E-01  2880   0.445E-01 0.177E-03
CGA:  13    -0.995302831215E+03   -0.16722E-01   -0.16834E-01  2880   0.103E-01-0.787E-03
CGA:  14    -0.995306692318E+03   -0.38611E-02   -0.37902E-02  2880   0.226E-02 0.513E-03
CGA:  15    -0.995307669665E+03   -0.97735E-03   -0.94506E-03  2880   0.556E-03 0.209E-03
CGA:  16    -0.995307961130E+03   -0.29146E-03   -0.38531E-03  2880   0.397E-03-0.248E-03
CGA:  17    -0.995308028322E+03   -0.67193E-04   -0.67009E-04  2880   0.154E-03 0.534E-05
CGA:  18    -0.995308056906E+03   -0.28584E-04   -0.31696E-04  2880   0.614E-04 0.440E-04
CGA:  19    -0.995308070508E+03   -0.13602E-04   -0.15716E-04  2880   0.311E-04 0.295E-04
CGA:  20    -0.995308080416E+03   -0.99080E-05   -0.10396E-04  2880   0.133E-04 0.119E-04
   1 F= -.99530808E+03 E0= -.99530808E+03  d E =-.995308E+03  mag=    -0.0000
       N       E                     dE             d eps       ncg     rms          ort
SDA:   1    -0.995305696456E+03    0.23741E-02    0.00000E+00  2880   0.289E-02 0.000E+00
CGA:   2    -0.995306730238E+03   -0.10338E-02   -0.10396E-02  2880   0.616E-03-0.653E-04
CGA:   3    -0.995306880456E+03   -0.15022E-03   -0.15054E-03  2880   0.904E-04 0.130E-04
CGA:   4    -0.995306897600E+03   -0.17144E-04   -0.18687E-04  2880   0.129E-04 0.216E-04
CGA:   5    -0.995306900540E+03   -0.29396E-05   -0.32741E-05  2880   0.387E-05 0.515E-05
   2 F= -.99530690E+03 E0= -.99530690E+03  d E =0.117988E-02  mag=    -0.0000
       N       E                     dE             d eps       ncg     rms          ort
SDA:   1    -0.995291006215E+03    0.15891E-01    0.00000E+00  2880   0.285E-01 0.000E+00
CGA:   2    -0.995300918540E+03   -0.99123E-02   -0.99030E-02  2880   0.554E-02 0.125E-03
CGA:   3    -0.995302449917E+03   -0.15314E-02   -0.15314E-02  2880   0.860E-03-0.456E-04
CGA:   4    -0.995302680663E+03   -0.23075E-03   -0.23041E-03  2880   0.147E-03-0.625E-04
CGA:   5    -0.995302720562E+03   -0.39900E-04   -0.39799E-04  2880   0.248E-04 0.569E-05
CGA:   6    -0.995302727512E+03   -0.69499E-05   -0.69892E-05  2880   0.686E-05 0.796E-05
CGA:   7    -0.995302719893E+03    0.76195E-05   -0.12062E-04  2880   0.562E-04-0.186E-04
CGA:   8    -0.995302732493E+03   -0.12600E-04   -0.13180E-04  2880   0.618E-05 0.616E-05
CGA:   9    -0.995302735053E+03   -0.25609E-05   -0.25360E-05  2880   0.156E-05 0.543E-06
   3 F= -.99530274E+03 E0= -.99530274E+03  d E =0.416549E-02  mag=    -0.0000
       N       E                     dE             d eps       ncg     rms          ort
SDA:   1    -0.968070061163E+03    0.27233E+02    0.00000E+00  2880   0.576E+02 0.000E+00
CGA:   2    -0.987758966800E+03   -0.19689E+02   -0.19711E+02  2880   0.143E+02 0.552E+00
CGA:   3    -0.991419487609E+03   -0.36605E+01   -0.36585E+01  2880   0.242E+01 0.211E-01
CGA:   4    -0.992106761755E+03   -0.68727E+00   -0.68833E+00  2880   0.447E+00 0.648E-02
CGA:   5    -0.992248757320E+03   -0.14200E+00   -0.14207E+00  2880   0.125E+00 0.123E-02
CGA:   6    -0.992294564447E+03   -0.45807E-01   -0.45817E-01  2880   0.382E-01-0.605E-03
CGA:   7    -0.992308852348E+03   -0.14288E-01   -0.14277E-01  2880   0.994E-02 0.421E-03
CGA:   8    -0.992312551955E+03   -0.36996E-02   -0.36999E-02  2880   0.209E-02-0.163E-04
CGA:   9    -0.992313317785E+03   -0.76583E-03   -0.76664E-03  2880   0.419E-03-0.544E-04
CGA:  10    -0.992313476472E+03   -0.15869E-03   -0.15907E-03  2880   0.852E-04-0.103E-04
CGA:  11    -0.992313509710E+03   -0.33239E-04   -0.33203E-04  2880   0.185E-04 0.799E-06
CGA:  12    -0.992313517338E+03   -0.76274E-05   -0.76425E-05  2880   0.483E-05-0.286E-06
   4 F= -.99231352E+03 E0= -.99231352E+03  d E =0.298922E+01  mag=     0.0000
       N       E                     dE             d eps       ncg     rms          ort
SDA:   1    -0.938830465295E+03    0.53483E+02    0.00000E+00  2880   0.132E+03 0.000E+00
CGA:   2    -0.983354601954E+03   -0.44524E+02   -0.44561E+02  2880   0.301E+02 0.325E+00
CGA:   3    -0.991584563798E+03   -0.82300E+01   -0.82625E+01  2880   0.538E+01 0.383E+00
CGA:   4    -0.993372080654E+03   -0.17875E+01   -0.17933E+01  2880   0.134E+01 0.120E+00
CGA:   5    -0.993893496353E+03   -0.52142E+00   -0.52076E+00  2880   0.440E+00 0.225E-01
CGA:   6    -0.994078561106E+03   -0.18506E+00   -0.18482E+00  2880   0.135E+00 0.343E-02
CGA:   7    -0.994128785288E+03   -0.50224E-01   -0.50221E-01  2880   0.315E-01 0.104E-03
CGA:   8    -0.994140525516E+03   -0.11740E-01   -0.11740E-01  2880   0.640E-02 0.664E-05
CGA:   9    -0.994142963319E+03   -0.24378E-02   -0.24379E-02  2880   0.151E-02-0.528E-05
CGA:  10    -0.994143525469E+03   -0.56215E-03   -0.56208E-03  2880   0.434E-03 0.866E-05
CGA:  11    -0.994143694010E+03   -0.16854E-03   -0.16907E-03  2880   0.124E-03-0.223E-04
CGA:  12    -0.994143736356E+03   -0.42346E-04   -0.42413E-04  2880   0.276E-04 0.113E-04
CGA:  13    -0.994143749154E+03   -0.12798E-04   -0.12699E-04  2880   0.729E-05 0.176E-05
CGA:  14    -0.994143752769E+03   -0.36148E-05   -0.36601E-05  2880   0.209E-05-0.429E-06
   5 F= -.99414375E+03 E0= -.99414375E+03  d E =-.183024E+01  mag=    -0.0000
       N       E                     dE             d eps       ncg     rms          ort
SDA:   1    -0.992778271581E+03    0.13655E+01    0.00000E+00  2880   0.479E+01 0.000E+00
CGA:   2    -0.994422360408E+03   -0.16441E+01   -0.16452E+01  2880   0.122E+01 0.214E-01
CGA:   3    -0.994737635016E+03   -0.31527E+00   -0.31493E+00  2880   0.192E+00-0.698E-03
CGA:   4    -0.994794146507E+03   -0.56511E-01   -0.56538E-01  2880   0.330E-01-0.199E-03
CGA:   5    -0.994805804846E+03   -0.11658E-01   -0.11659E-01  2880   0.917E-02 0.122E-03
CGA:   6    -0.994809423684E+03   -0.36188E-02   -0.36175E-02  2880   0.287E-02 0.334E-04
CGA:   7    -0.994810558865E+03   -0.11352E-02   -0.11357E-02  2880   0.664E-03-0.143E-04
CGA:   8    -0.994810811765E+03   -0.25290E-03   -0.25335E-03  2880   0.127E-03-0.218E-04
CGA:   9    -0.994810852015E+03   -0.40250E-04   -0.40393E-04  2880   0.246E-04 0.402E-05
CGA:  10    -0.994810862744E+03   -0.10729E-04   -0.11135E-04  2880   0.908E-05-0.522E-05
CGA:  11    -0.994810864331E+03   -0.15864E-05   -0.17813E-05  2880   0.213E-05 0.167E-05
   6 F= -.99481086E+03 E0= -.99481086E+03  d E =-.667112E+00  mag=     0.0000
       N       E                     dE             d eps       ncg     rms          ort
SDA:   1    -0.987388822460E+03    0.74220E+01    0.00000E+00  2880   0.184E+02 0.000E+00
CGA:   2    -0.993467412174E+03   -0.60786E+01   -0.60914E+01  2880   0.502E+01 0.248E+00
CGA:   3    -0.994814695583E+03   -0.13473E+01   -0.13464E+01  2880   0.835E+00-0.405E-02
CGA:   4    -0.995064484823E+03   -0.24979E+00   -0.25012E+00  2880   0.155E+00 0.219E-02
CGA:   5    -0.995121167680E+03   -0.56683E-01   -0.56664E-01  2880   0.468E-01 0.799E-03
CGA:   6    -0.995139853182E+03   -0.18686E-01   -0.18663E-01  2880   0.139E-01 0.398E-03
CGA:   7    -0.995145337236E+03   -0.54841E-02   -0.54915E-02  2880   0.333E-02-0.180E-03
CGA:   8    -0.995146513562E+03   -0.11763E-02   -0.11764E-02  2880   0.553E-03-0.540E-05
CGA:   9    -0.995146716539E+03   -0.20298E-03   -0.20323E-03  2880   0.134E-03-0.148E-04
CGA:  10    -0.995146761836E+03   -0.45296E-04   -0.45305E-04  2880   0.273E-04 0.185E-05
CGA:  11    -0.995146773652E+03   -0.11816E-04   -0.11821E-04  2880   0.707E-05-0.639E-07
CGA:  12    -0.995146775979E+03   -0.23268E-05   -0.23571E-05  2880   0.139E-05 0.138E-05
   7 F= -.99514678E+03 E0= -.99514678E+03  d E =-.335912E+00  mag=     0.0000
       N       E                     dE             d eps       ncg     rms          ort
SDA:   1    -0.994281720948E+03    0.86505E+00    0.00000E+00  2880   0.222E+01 0.000E+00
CGA:   2    -0.995069107449E+03   -0.78739E+00   -0.78739E+00  2880   0.516E+00-0.811E-02
CGA:   3    -0.995199649027E+03   -0.13054E+00   -0.13076E+00  2880   0.788E-01 0.175E-03
CGA:   4    -0.995222815567E+03   -0.23167E-01   -0.23172E-01  2880   0.126E-01 0.187E-03
CGA:   5    -0.995227246121E+03   -0.44306E-02   -0.44305E-02  2880   0.326E-02 0.184E-04
CGA:   6    -0.995228548753E+03   -0.13026E-02   -0.13042E-02  2880   0.104E-02-0.302E-04
CGA:   7    -0.995228934883E+03   -0.38613E-03   -0.38574E-03  2880   0.252E-03 0.153E-04
CGA:   8    -0.995229031561E+03   -0.96678E-04   -0.96942E-04  2880   0.535E-04-0.935E-05
CGA:   9    -0.995229046718E+03   -0.15158E-04   -0.15477E-04  2880   0.102E-04 0.612E-05
CGA:  10    -0.995229051586E+03   -0.48673E-05   -0.50723E-05  2880   0.348E-05-0.213E-05
   8 F= -.99522905E+03 E0= -.99522905E+03  d E =-.822756E-01  mag=    -0.0000
       N       E                     dE             d eps       ncg     rms          ort
SDA:   1    -0.995181207838E+03    0.47839E-01    0.00000E+00  2880   0.143E+00 0.000E+00
CGA:   2    -0.995229595099E+03   -0.48387E-01   -0.48400E-01  2880   0.313E-01 0.484E-03
CGA:   3    -0.995238471042E+03   -0.88759E-02   -0.88742E-02  2880   0.525E-02-0.978E-05
CGA:   4    -0.995240027519E+03   -0.15565E-02   -0.15360E-02  2880   0.893E-03-0.323E-03
CGA:   5    -0.995240297005E+03   -0.26949E-03   -0.27029E-03  2880   0.208E-03 0.267E-04
CGA:   6    -0.995240371007E+03   -0.74003E-04   -0.74187E-04  2880   0.537E-04 0.378E-04
CGA:   7    -0.995240375325E+03   -0.43178E-05   -0.68690E-04  2880   0.204E-03-0.880E-04
CGA:   8    -0.995240408935E+03   -0.33610E-04   -0.41741E-04  2880   0.218E-04 0.443E-04
CGA:   9    -0.995240415074E+03   -0.61393E-05   -0.68708E-05  2880   0.659E-05 0.615E-05
CGA:  10    -0.995240347725E+03    0.67349E-04   -0.36267E-04  2880   0.210E-03-0.440E-04
CGA:  11    -0.995240393391E+03   -0.45666E-04   -0.59017E-04  2880   0.379E-04 0.336E-04
CGA:  12    -0.995240415023E+03   -0.21632E-04   -0.20486E-04  2880   0.992E-05-0.592E-05
CGA:  13    -0.995240418073E+03   -0.30507E-05   -0.30246E-05  2880   0.285E-05-0.880E-07
   9 F= -.99524042E+03 E0= -.99524042E+03  d E =-.113665E-01  mag=     0.0000
       N       E                     dE             d eps       ncg     rms          ort
SDA:   1    -0.995036159914E+03    0.20426E+00    0.00000E+00  2880   0.512E+00 0.000E+00
CGA:   2    -0.995207124154E+03   -0.17096E+00   -0.17146E+00  2880   0.108E+00 0.112E-03
CGA:   3    -0.995238969554E+03   -0.31845E-01   -0.31790E-01  2880   0.180E-01 0.625E-04
CGA:   4    -0.995244128357E+03   -0.51588E-02   -0.50353E-02  2880   0.278E-02-0.392E-03
CGA:   5    -0.995245044152E+03   -0.91579E-03   -0.92577E-03  2880   0.758E-03 0.384E-04
CGA:   6    -0.995245343455E+03   -0.29930E-03   -0.30700E-03  2880   0.223E-03 0.410E-04
CGA:   7    -0.995245472553E+03   -0.12910E-03   -0.12595E-03  2880   0.123E-03-0.729E-04
CGA:   8    -0.995245488410E+03   -0.15857E-04   -0.20088E-04  2880   0.297E-04 0.127E-04
CGA:   9    -0.995245490248E+03   -0.18380E-05   -0.55488E-05  2880   0.898E-05 0.951E-05
  10 F= -.99524549E+03 E0= -.99524549E+03  d E =-.507217E-02  mag=     0.0000
       N       E                     dE             d eps       ncg     rms          ort
SDA:   1    -0.995169243009E+03    0.76245E-01    0.00000E+00  2880   0.186E+00 0.000E+00
CGA:   2    -0.995231957460E+03   -0.62714E-01   -0.62814E-01  2880   0.382E-01 0.358E-03
CGA:   3    -0.995243206495E+03   -0.11249E-01   -0.11230E-01  2880   0.613E-02-0.487E-04
CGA:   4    -0.995244982672E+03   -0.17762E-02   -0.17212E-02  2880   0.971E-03-0.251E-03
CGA:   5    -0.995245275159E+03   -0.29249E-03   -0.29805E-03  2880   0.239E-03 0.322E-04
CGA:   6    -0.995245364898E+03   -0.89739E-04   -0.92549E-04  2880   0.695E-04 0.258E-04
CGA:   7    -0.995245402927E+03   -0.38029E-04   -0.63692E-04  2880   0.145E-03-0.736E-04
CGA:   8    -0.995245419086E+03   -0.16159E-04   -0.26486E-04  2880   0.135E-04 0.330E-04
CGA:   9    -0.995245420063E+03   -0.97737E-06   -0.29263E-05  2880   0.423E-05 0.642E-05
  11 F= -.99524542E+03 E0= -.99524542E+03  d E =0.701851E-04  mag=     0.0000
       N       E                     dE             d eps       ncg     rms          ort
SDA:   1    -0.995005697182E+03    0.23972E+00    0.00000E+00  2880   0.569E+00 0.000E+00
CGA:   2    -0.995214960122E+03   -0.20926E+00   -0.20924E+00  2880   0.112E+00-0.309E-03
CGA:   3    -0.995243236833E+03   -0.28277E-01   -0.28279E-01  2880   0.169E-01-0.130E-04
CGA:   4    -0.995247502732E+03   -0.42659E-02   -0.42953E-02  2880   0.223E-02 0.156E-03
CGA:   5    -0.995248206692E+03   -0.70396E-03   -0.70379E-03  2880   0.438E-03-0.128E-05
CGA:   6    -0.995248388062E+03   -0.18137E-03   -0.18097E-03  2880   0.159E-03-0.294E-04
CGA:   7    -0.995248434385E+03   -0.46324E-04   -0.48674E-04  2880   0.377E-04 0.239E-04
CGA:   8    -0.995248449143E+03   -0.14758E-04   -0.15123E-04  2880   0.839E-05 0.498E-05
CGA:   9    -0.995248453817E+03   -0.46738E-05   -0.56450E-05  2880   0.682E-05-0.550E-05
  12 F= -.99524845E+03 E0= -.99524845E+03  d E =-.303375E-02  mag=     0.0000
       N       E                     dE             d eps       ncg     rms          ort
SDA:   1    -0.994985208278E+03    0.26324E+00    0.00000E+00  2880   0.587E+00 0.000E+00
CGA:   2    -0.995200822100E+03   -0.21561E+00   -0.21561E+00  2880   0.128E+00-0.707E-04
CGA:   3    -0.995232619934E+03   -0.31798E-01   -0.31789E-01  2880   0.191E-01-0.106E-03
CGA:   4    -0.995238058748E+03   -0.54388E-02   -0.54406E-02  2880   0.299E-02 0.161E-04
CGA:   5    -0.995239024862E+03   -0.96611E-03   -0.96709E-03  2880   0.709E-03 0.132E-04
CGA:   6    -0.995239300397E+03   -0.27554E-03   -0.27546E-03  2880   0.235E-03-0.117E-04
CGA:   7    -0.995239387784E+03   -0.87387E-04   -0.87434E-04  2880   0.610E-04 0.312E-05
CGA:   8    -0.995239410769E+03   -0.22985E-04   -0.22983E-04  2880   0.118E-04-0.115E-06
CGA:   9    -0.995239415111E+03   -0.43416E-05   -0.43326E-05  2880   0.234E-05-0.376E-06
  13 F= -.99523942E+03 E0= -.99523942E+03  d E =0.903871E-02  mag=     0.0000
       N       E                     dE             d eps       ncg     rms          ort
SDA:   1    -0.995117400678E+03    0.12201E+00    0.00000E+00  2880   0.310E+00 0.000E+00
CGA:   2    -0.995229474758E+03   -0.11207E+00   -0.11207E+00  2880   0.725E-01-0.122E-03
CGA:   3    -0.995247812482E+03   -0.18338E-01   -0.18338E-01  2880   0.109E-01-0.518E-05
CGA:   4    -0.995251034596E+03   -0.32221E-02   -0.32282E-02  2880   0.178E-02 0.649E-04
CGA:   5    -0.995251641913E+03   -0.60732E-03   -0.60708E-03  2880   0.487E-03-0.529E-05
CGA:   6    -0.995251825796E+03   -0.18388E-03   -0.18386E-03  2880   0.149E-03-0.577E-05
CGA:   7    -0.995251879899E+03   -0.54104E-04   -0.54192E-04  2880   0.352E-04 0.573E-05
CGA:   8    -0.995251893398E+03   -0.13498E-04   -0.13505E-04  2880   0.695E-05 0.490E-06
CGA:   9    -0.995251895957E+03   -0.25593E-05   -0.25579E-05  2880   0.142E-05-0.729E-07
  14 F= -.99525190E+03 E0= -.99525190E+03  d E =-.124808E-01  mag=    -0.0000
       N       E                     dE             d eps       ncg     rms          ort
SDA:   1    -0.995243726088E+03    0.81673E-02    0.00000E+00  2880   0.213E-01 0.000E+00
CGA:   2    -0.995251051648E+03   -0.73256E-02   -0.73184E-02  2880   0.462E-02-0.202E-03
CGA:   3    -0.995252338545E+03   -0.12869E-02   -0.12892E-02  2880   0.723E-03 0.230E-04
CGA:   4    -0.995252497328E+03   -0.15878E-03   -0.17254E-03  2880   0.939E-04 0.102E-03
CGA:   5    -0.995252531112E+03   -0.33784E-04   -0.34342E-04  2880   0.288E-04 0.125E-04
CGA:   6    -0.995252538718E+03   -0.76069E-05   -0.29437E-04  2880   0.891E-04-0.405E-04
CGA:   7    -0.995252546934E+03   -0.82153E-05   -0.14623E-04  2880   0.137E-04 0.284E-04
  15 F= -.99525255E+03 E0= -.99525255E+03  d E =-.650977E-03  mag=     0.0000
       N       E                     dE             d eps       ncg     rms          ort
SDA:   1    -0.995219559799E+03    0.32979E-01    0.00000E+00  2880   0.784E-01 0.000E+00
CGA:   2    -0.995247398582E+03   -0.27839E-01   -0.27835E-01  2880   0.161E-01-0.331E-03
CGA:   3    -0.995251754401E+03   -0.43558E-02   -0.43597E-02  2880   0.239E-02 0.364E-04
CGA:   4    -0.995252326672E+03   -0.57227E-03   -0.59181E-03  2880   0.319E-03 0.172E-03
CGA:   5    -0.995252441458E+03   -0.11479E-03   -0.11488E-03  2880   0.865E-04 0.473E-05
CGA:   6    -0.995252483019E+03   -0.41561E-04   -0.49417E-04  2880   0.692E-04-0.377E-04
CGA:   7    -0.995252485646E+03   -0.26274E-05   -0.60943E-05  2880   0.349E-04 0.166E-04
  16 F= -.99525249E+03 E0= -.99525249E+03  d E =0.612877E-04  mag=     0.0000
       N       E                     dE             d eps       ncg     rms          ort
SDA:   1    -0.995109764582E+03    0.14272E+00    0.00000E+00  2880   0.328E+00 0.000E+00
CGA:   2    -0.995230118810E+03   -0.12035E+00   -0.12036E+00  2880   0.657E-01-0.118E-03
CGA:   3    -0.995246702397E+03   -0.16584E-01   -0.16576E-01  2880   0.978E-02-0.903E-04
CGA:   4    -0.995249274012E+03   -0.25716E-02   -0.25777E-02  2880   0.140E-02 0.801E-04
CGA:   5    -0.995249716991E+03   -0.44298E-03   -0.44303E-03  2880   0.289E-03 0.232E-05
CGA:   6    -0.995249834996E+03   -0.11801E-03   -0.11919E-03  2880   0.104E-03-0.153E-04
CGA:   7    -0.995249869092E+03   -0.34096E-04   -0.34024E-04  2880   0.257E-04 0.910E-05
CGA:   8    -0.995249879060E+03   -0.99671E-05   -0.99266E-05  2880   0.499E-05 0.257E-05
  17 F= -.99524988E+03 E0= -.99524988E+03  d E =0.260659E-02  mag=     0.0000
       N       E                     dE             d eps       ncg     rms          ort
SDA:   1    -0.994821850865E+03    0.42802E+00    0.00000E+00  2880   0.987E+00 0.000E+00
CGA:   2    -0.995189888761E+03   -0.36804E+00   -0.36804E+00  2880   0.195E+00-0.147E-03
CGA:   3    -0.995238925202E+03   -0.49036E-01   -0.49034E-01  2880   0.295E-01-0.514E-04
CGA:   4    -0.995246719158E+03   -0.77940E-02   -0.77952E-02  2880   0.438E-02 0.154E-04
CGA:   5    -0.995248095783E+03   -0.13766E-02   -0.13767E-02  2880   0.913E-03 0.318E-05
CGA:   6    -0.995248451575E+03   -0.35579E-03   -0.35596E-03  2880   0.303E-03-0.321E-05
CGA:   7    -0.995248571256E+03   -0.11968E-03   -0.11965E-03  2880   0.876E-04 0.568E-06
CGA:   8    -0.995248604225E+03   -0.32969E-04   -0.33002E-04  2880   0.159E-04-0.954E-06
CGA:   9    -0.995248609745E+03   -0.55199E-05   -0.55155E-05  2880   0.249E-05 0.592E-06
  18 F= -.99524861E+03 E0= -.99524861E+03  d E =0.126931E-02  mag=     0.0000
       N       E                     dE             d eps       ncg     rms          ort
SDA:   1    -0.994903828441E+03    0.34478E+00    0.00000E+00  2880   0.802E+00 0.000E+00
CGA:   2    -0.995186140954E+03   -0.28231E+00   -0.28233E+00  2880   0.179E+00 0.828E-03
CGA:   3    -0.995233270813E+03   -0.47130E-01   -0.47115E-01  2880   0.280E-01-0.550E-04
CGA:   4    -0.995241382250E+03   -0.81114E-02   -0.80867E-02  2880   0.440E-02-0.362E-03
CGA:   5    -0.995242826095E+03   -0.14438E-02   -0.14445E-02  2880   0.110E-02 0.284E-04
CGA:   6    -0.995243242061E+03   -0.41597E-03   -0.41493E-03  2880   0.325E-03 0.493E-04
CGA:   7    -0.995243395494E+03   -0.15343E-03   -0.15987E-03  2880   0.133E-03-0.554E-04
CGA:   8    -0.995243430184E+03   -0.34690E-04   -0.34791E-04  2880   0.216E-04 0.223E-05
CGA:   9    -0.995243436280E+03   -0.60954E-05   -0.63357E-05  2880   0.473E-05 0.344E-05
  19 F= -.99524344E+03 E0= -.99524344E+03  d E =0.517346E-02  mag=    -0.0000
       N       E                     dE             d eps       ncg     rms          ort
SDA:   1    -0.995127640222E+03    0.11579E+00    0.00000E+00  2880   0.296E+00 0.000E+00
CGA:   2    -0.995233127931E+03   -0.10549E+00   -0.10549E+00  2880   0.689E-01-0.850E-04
CGA:   3    -0.995250615309E+03   -0.17487E-01   -0.17486E-01  2880   0.104E-01-0.243E-04
CGA:   4    -0.995253684267E+03   -0.30690E-02   -0.30704E-02  2880   0.168E-02 0.231E-04
CGA:   5    -0.995254250069E+03   -0.56580E-03   -0.56564E-03  2880   0.452E-03-0.771E-05
CGA:   6    -0.995254416418E+03   -0.16635E-03   -0.16632E-03  2880   0.136E-03 0.229E-05
CGA:   7    -0.995254470115E+03   -0.53697E-04   -0.53725E-04  2880   0.363E-04-0.814E-06
CGA:   8    -0.995254483618E+03   -0.13503E-04   -0.13525E-04  2880   0.743E-05-0.134E-05
CGA:   9    -0.995254485686E+03   -0.20679E-05   -0.21291E-05  2880   0.121E-05 0.988E-06
  20 F= -.99525449E+03 E0= -.99525449E+03  d E =-.110494E-01  mag=     0.0000
       N       E                     dE             d eps       ncg     rms          ort
SDA:   1    -0.995247756755E+03    0.67269E-02    0.00000E+00  2880   0.167E-01 0.000E+00
CGA:   2    -0.995253706517E+03   -0.59498E-02   -0.59496E-02  2880   0.377E-02-0.117E-03
CGA:   3    -0.995254676855E+03   -0.97034E-03   -0.97186E-03  2880   0.572E-03 0.146E-04
CGA:   4    -0.995254816014E+03   -0.13916E-03   -0.14540E-03  2880   0.787E-04 0.623E-04
CGA:   5    -0.995254844540E+03   -0.28526E-04   -0.28660E-04  2880   0.222E-04 0.674E-05
CGA:   6    -0.995254852522E+03   -0.79822E-05   -0.18978E-04  2880   0.525E-04-0.250E-04
  21 F= -.99525485E+03 E0= -.99525485E+03  d E =-.366836E-03  mag=     0.0000
       N       E                     dE             d eps       ncg     rms          ort
SDA:   1    -0.995250090359E+03    0.47542E-02    0.00000E+00  2880   0.115E-01 0.000E+00
CGA:   2    -0.995254271268E+03   -0.41809E-02   -0.41812E-02  2880   0.242E-02-0.556E-04
CGA:   3    -0.995254880995E+03   -0.60973E-03   -0.61119E-03  2880   0.358E-03 0.136E-04
CGA:   4    -0.995254967850E+03   -0.86855E-04   -0.90072E-04  2880   0.489E-04 0.312E-04
CGA:   5    -0.995254985749E+03   -0.17899E-04   -0.17905E-04  2880   0.130E-04 0.519E-06
CGA:   6    -0.995254990543E+03   -0.47941E-05   -0.96347E-05  2880   0.254E-04-0.126E-04
  22 F= -.99525499E+03 E0= -.99525499E+03  d E =-.138021E-03  mag=    -0.0000
       N       E                     dE             d eps       ncg     rms          ort
SDA:   1    -0.995190840066E+03    0.64146E-01    0.00000E+00  2880   0.150E+00 0.000E+00
CGA:   2    -0.995245706714E+03   -0.54867E-01   -0.54865E-01  2880   0.294E-01 0.182E-03
CGA:   3    -0.995253370032E+03   -0.76633E-02   -0.76623E-02  2880   0.444E-02-0.638E-05
CGA:   4    -0.995254568905E+03   -0.11989E-02   -0.11880E-02  2880   0.689E-03-0.129E-03
CGA:   5    -0.995254773983E+03   -0.20508E-03   -0.20519E-03  2880   0.136E-03 0.281E-05
CGA:   6    -0.995254820593E+03   -0.46610E-04   -0.46690E-04  2880   0.371E-04 0.179E-04
CGA:   7    -0.995254839934E+03   -0.19341E-04   -0.31901E-04  2880   0.588E-04-0.303E-04
CGA:   8    -0.995254849601E+03   -0.96668E-05   -0.11545E-04  2880   0.495E-05 0.110E-04
  23 F= -.99525485E+03 E0= -.99525485E+03  d E =0.140943E-03  mag=     0.0000
       N       E                     dE             d eps       ncg     rms          ort
SDA:   1    -0.995160637297E+03    0.94203E-01    0.00000E+00  2880   0.213E+00 0.000E+00
CGA:   2    -0.995236736905E+03   -0.76100E-01   -0.76099E-01  2880   0.476E-01 0.405E-04
CGA:   3    -0.995248858622E+03   -0.12122E-01   -0.12121E-01  2880   0.742E-02-0.125E-04
CGA:   4    -0.995251018710E+03   -0.21601E-02   -0.21578E-02  2880   0.120E-02-0.405E-04
CGA:   5    -0.995251406600E+03   -0.38789E-03   -0.38782E-03  2880   0.301E-03-0.356E-05
CGA:   6    -0.995251517244E+03   -0.11064E-03   -0.11044E-03  2880   0.890E-04 0.818E-05
CGA:   7    -0.995251554824E+03   -0.37580E-04   -0.37955E-04  2880   0.279E-04-0.535E-05
CGA:   8    -0.995251564867E+03   -0.10044E-04   -0.10134E-04  2880   0.570E-05-0.239E-05
CGA:   9    -0.995251566291E+03   -0.14236E-05   -0.14824E-05  2880   0.948E-06 0.891E-06
  24 F= -.99525157E+03 E0= -.99525157E+03  d E =0.328331E-02  mag=    -0.0000
       N       E                     dE             d eps       ncg     rms          ort
SDA:   1    -0.995196355364E+03    0.55210E-01    0.00000E+00  2880   0.141E+00 0.000E+00
CGA:   2    -0.995246019136E+03   -0.49664E-01   -0.49665E-01  2880   0.308E-01-0.325E-03
CGA:   3    -0.995254093895E+03   -0.80748E-02   -0.80780E-02  2880   0.488E-02 0.311E-04
CGA:   4    -0.995255403946E+03   -0.13101E-02   -0.13226E-02  2880   0.717E-03 0.171E-03
CGA:   5    -0.995255654034E+03   -0.25009E-03   -0.25010E-03  2880   0.194E-03 0.276E-05
CGA:   6    -0.995255738051E+03   -0.84017E-04   -0.87602E-04  2880   0.873E-04-0.328E-04
CGA:   7    -0.995255754053E+03   -0.16002E-04   -0.17914E-04  2880   0.214E-04 0.194E-04
CGA:   8    -0.995255757562E+03   -0.35094E-05   -0.49814E-05  2880   0.721E-05 0.979E-05
  25 F= -.99525576E+03 E0= -.99525576E+03  d E =-.419127E-02  mag=     0.0000
       N       E                     dE             d eps       ncg     rms          ort
SDA:   1    -0.995253724587E+03    0.20295E-02    0.00000E+00  2880   0.474E-02 0.000E+00
CGA:   2    -0.995255387899E+03   -0.16633E-02   -0.16624E-02  2880   0.111E-02 0.412E-04
CGA:   3    -0.995255678111E+03   -0.29021E-03   -0.28958E-03  2880   0.176E-03-0.904E-05
CGA:   4    -0.995255736828E+03   -0.58717E-04   -0.59020E-04  2880   0.396E-04-0.246E-04
CGA:   5    -0.995255745867E+03   -0.90392E-05   -0.92178E-05  2880   0.781E-05 0.320E-05
  26 F= -.99525575E+03 E0= -.99525575E+03  d E =0.116950E-04  mag=     0.0000
       N       E                     dE             d eps       ncg     rms          ort
SDA:   1    -0.995255414936E+03    0.32189E-03    0.00000E+00  2880   0.101E-02 0.000E+00
CGA:   2    -0.995255760812E+03   -0.34588E-03   -0.34515E-03  2880   0.211E-03 0.291E-04
CGA:   3    -0.995255818321E+03   -0.57510E-04   -0.57640E-04  2880   0.338E-04 0.245E-05
CGA:   4    -0.995255826147E+03   -0.78258E-05   -0.21551E-04  2880   0.796E-04-0.438E-04
CGA:   5    -0.995255835734E+03   -0.95868E-05   -0.12392E-04  2880   0.705E-05 0.159E-04
  27 F= -.99525584E+03 E0= -.99525584E+03  d E =-.898667E-04  mag=    -0.0000
