       N       E                     dE             d eps       ncg     rms          rms(c)
DAV:   1     0.333245864272E+04    0.33325E+04   -0.18706E+05 10368   0.128E+03
DAV:   2    -0.487836071708E+02   -0.33812E+04   -0.32477E+04 12996   0.224E+02
DAV:   3    -0.501959814088E+03   -0.45318E+03   -0.44787E+03 12600   0.906E+01
DAV:   4    -0.523272929556E+03   -0.21313E+02   -0.21130E+02 13248   0.217E+01
DAV:   5    -0.524263470966E+03   -0.99054E+00   -0.98850E+00 14844   0.460E+00    0.161E+00
DAV:   6    -0.524286702864E+03   -0.23232E-01   -0.23202E-01 13164   0.760E-01    0.395E-01
DAV:   7    -0.524288039694E+03   -0.13368E-02   -0.13358E-02 15240   0.166E-01    0.467E-01
DAV:   8    -0.524288099936E+03   -0.60242E-04   -0.59731E-04 11484   0.301E-02    0.440E-01
DAV:   9    -0.524288105088E+03   -0.51521E-05   -0.44477E-05  9672   0.799E-03
   1 F= -.52428811E+03 E0= -.52427917E+03  d E =-.524288E+03  mag=    -0.0000
