       N       E                     dE             d eps       ncg     rms          ort
DAV:   1     0.102725971559E+05    0.10273E+05   -0.42503E+05 10640   0.155E+03
DAV:   2    -0.117985852201E+03   -0.10391E+05   -0.98106E+04 10640   0.474E+02
DAV:   3    -0.152250733715E+04   -0.14045E+04   -0.13104E+04 10640   0.181E+02
DAV:   4    -0.160457761793E+04   -0.82070E+02   -0.79816E+02 10640   0.462E+01
DAV:   5    -0.160693896541E+04   -0.23613E+01   -0.23540E+01 10640   0.838E+00
SDA:   6    -0.726226309157E+03    0.88071E+03   -0.23540E+01 10640   0.295E+04 0.000E+00
CGA:   7    -0.111415784822E+04   -0.38793E+03   -0.38925E+03 10640   0.162E+04-0.368E+02
CGA:   8    -0.115999360169E+04   -0.45836E+02   -0.82288E+02 10640   0.116E+04-0.765E+03
CGA:   9    -0.119049583053E+04   -0.30502E+02   -0.31779E+02 10640   0.535E+03-0.367E+02
CGA:  10    -0.121482626534E+04   -0.24330E+02   -0.32203E+02 10640   0.549E+03-0.892E+02
CGA:  11    -0.124420461972E+04   -0.29378E+02   -0.33547E+02 10640   0.296E+03-0.256E+02
CGA:  12    -0.126085331518E+04   -0.16649E+02   -0.18256E+02 10640   0.102E+03-0.164E+02
CGA:  13    -0.126789311393E+04   -0.70398E+01   -0.73716E+01 10640   0.739E+02-0.243E+01
CGA:  14    -0.127454011220E+04   -0.66470E+01   -0.68918E+01 10640   0.332E+02-0.140E+01
CGA:  15    -0.127696639770E+04   -0.24263E+01   -0.25944E+01 10640   0.129E+02-0.153E+01
CGA:  16    -0.127880286079E+04   -0.18365E+01   -0.18371E+01 10640   0.883E+01-0.201E+00
CGA:  17    -0.127959844182E+04   -0.79558E+00   -0.80961E+00 10640   0.455E+01-0.385E+00
CGA:  18    -0.128035255537E+04   -0.75411E+00   -0.75777E+00 10640   0.443E+01-0.301E+00
CGA:  19    -0.128100313200E+04   -0.65058E+00   -0.65193E+00 10640   0.280E+01-0.412E+00
CGA:  20    -0.128161948965E+04   -0.61636E+00   -0.65561E+00 10640   0.420E+01-0.413E+00
CGA:  21    -0.128219330134E+04   -0.57381E+00   -0.57467E+00 10640   0.201E+01-0.552E+00
CGA:  22    -0.128268468973E+04   -0.49139E+00   -0.61755E+00 10640   0.221E+01-0.618E+00
CGA:  23    -0.128293577354E+04   -0.25108E+00   -0.25024E+00 10640   0.958E+00-0.256E+00
CGA:  24    -0.128316011468E+04   -0.22434E+00   -0.23988E+00 10640   0.652E+00-0.132E+00
CGA:  25    -0.128327224544E+04   -0.11213E+00   -0.11244E+00 10640   0.302E+00-0.117E-01
CGA:  26    -0.128333645622E+04   -0.64211E-01   -0.62811E-01 10640   0.196E+00 0.383E-01
CGA:  27    -0.128338103608E+04   -0.44580E-01   -0.43365E-01 10640   0.108E+00 0.603E-01
CGA:  28    -0.128340480691E+04   -0.23771E-01   -0.24193E-01 10640   0.628E-01 0.606E-01
CGA:  29    -0.128341498241E+04   -0.10175E-01   -0.10451E-01 10640   0.309E-01 0.258E-01
CGA:  30    -0.128342037582E+04   -0.53934E-02   -0.63357E-02 10640   0.214E-01 0.303E-01
CGA:  31    -0.128342288376E+04   -0.25079E-02   -0.30292E-02 10640   0.152E-01 0.156E-01
CGA:  32    -0.128342434533E+04   -0.14616E-02   -0.20239E-02 10640   0.132E-01 0.140E-01
CGA:  33    -0.128342545667E+04   -0.11113E-02   -0.16726E-02 10640   0.118E-01 0.125E-01
CGA:  34    -0.128342631729E+04   -0.86061E-03   -0.14167E-02 10640   0.107E-01 0.113E-01
CGA:  35    -0.128342700226E+04   -0.68497E-03   -0.12242E-02 10640   0.983E-02 0.103E-01
CGA:  36    -0.128342755736E+04   -0.55510E-03   -0.10721E-02 10640   0.906E-02 0.943E-02
CGA:  37    -0.128342801475E+04   -0.45739E-03   -0.94914E-03 10640   0.840E-02 0.872E-02
CGA:  38    -0.128342839714E+04   -0.38239E-03   -0.84777E-03 10640   0.782E-02 0.810E-02
CGA:  39    -0.128342872134E+04   -0.32420E-03   -0.76300E-03 10640   0.732E-02 0.757E-02
CGA:  40    -0.128342899992E+04   -0.27858E-03   -0.69126E-03 10640   0.687E-02 0.709E-02
CGA:  41    -0.128342924246E+04   -0.24254E-03   -0.62996E-03 10640   0.648E-02 0.667E-02
CGA:  42    -0.128342945632E+04   -0.21387E-03   -0.57714E-03 10640   0.612E-02 0.630E-02
CGA:  43    -0.128342964724E+04   -0.19092E-03   -0.53130E-03 10640   0.580E-02 0.596E-02
CGA:  44    -0.128342981968E+04   -0.17244E-03   -0.49124E-03 10640   0.551E-02 0.566E-02
CGA:  45    -0.128342997715E+04   -0.15747E-03   -0.45601E-03 10640   0.525E-02 0.538E-02
CGA:  46    -0.128343012242E+04   -0.14527E-03   -0.42487E-03 10640   0.501E-02 0.513E-02
CGA:  47    -0.128343025769E+04   -0.13527E-03   -0.39718E-03 10640   0.479E-02 0.490E-02
CGA:  48    -0.128343038471E+04   -0.12702E-03   -0.37244E-03 10640   0.459E-02 0.469E-02
CGA:  49    -0.128343050488E+04   -0.12017E-03   -0.35023E-03 10640   0.440E-02 0.450E-02
CGA:  50    -0.128343061931E+04   -0.11443E-03   -0.33021E-03 10640   0.423E-02 0.432E-02
CGA:  51    -0.128343072891E+04   -0.10960E-03   -0.31208E-03 10640   0.408E-02 0.416E-02
CGA:  52    -0.128343083440E+04   -0.10549E-03   -0.29561E-03 10640   0.393E-02 0.400E-02
CGA:  53    -0.128343093638E+04   -0.10198E-03   -0.28058E-03 10640   0.379E-02 0.386E-02
CGA:  54    -0.128343103534E+04   -0.98957E-04   -0.26684E-03 10640   0.367E-02 0.373E-02
CGA:  55    -0.128343113167E+04   -0.96333E-04   -0.25422E-03 10640   0.355E-02 0.361E-02
CGA:  56    -0.128343122571E+04   -0.94041E-04   -0.24262E-03 10640   0.344E-02 0.349E-02
CGA:  57    -0.128343131773E+04   -0.92025E-04   -0.23191E-03 10640   0.333E-02 0.339E-02
CGA:  58    -0.128343140797E+04   -0.90238E-04   -0.22200E-03 10640   0.324E-02 0.329E-02
CGA:  59    -0.128343149662E+04   -0.88647E-04   -0.21283E-03 10640   0.314E-02 0.319E-02
CGA:  60    -0.128343158385E+04   -0.87225E-04   -0.20430E-03 10640   0.306E-02 0.310E-02
CGA:  61    -0.128343166979E+04   -0.85944E-04   -0.19637E-03 10640   0.297E-02 0.302E-02
CGA:  62    -0.128343175458E+04   -0.84788E-04   -0.18898E-03 10640   0.290E-02 0.294E-02
CGA:  63    -0.128343183832E+04   -0.83738E-04   -0.18209E-03 10640   0.282E-02 0.286E-02
CGA:  64    -0.128343192110E+04   -0.82783E-04   -0.17564E-03 10640   0.275E-02 0.279E-02
CGA:  65    -0.128343200301E+04   -0.81911E-04   -0.16960E-03 10640   0.268E-02 0.272E-02
CGA:  66    -0.128343208413E+04   -0.81116E-04   -0.16394E-03 10640   0.262E-02 0.265E-02
CGA:  67    -0.128343216451E+04   -0.80387E-04   -0.15863E-03 10640   0.256E-02 0.259E-02
CGA:  68    -0.128343224423E+04   -0.79718E-04   -0.15364E-03 10640   0.250E-02 0.253E-02
CGA:  69    -0.128343232334E+04   -0.79107E-04   -0.14895E-03 10640   0.245E-02 0.247E-02
CGA:  70    -0.128343240188E+04   -0.78545E-04   -0.14454E-03 10640   0.239E-02 0.242E-02
CGA:  71    -0.128343247992E+04   -0.78033E-04   -0.14038E-03 10640   0.234E-02 0.237E-02
CGA:  72    -0.128343255748E+04   -0.77567E-04   -0.13646E-03 10640   0.229E-02 0.232E-02
CGA:  73    -0.128343263462E+04   -0.77143E-04   -0.13277E-03 10640   0.225E-02 0.227E-02
CGA:  74    -0.128343271139E+04   -0.76762E-04   -0.12928E-03 10640   0.220E-02 0.222E-02
CGA:  75    -0.128343278781E+04   -0.76418E-04   -0.12599E-03 10640   0.216E-02 0.218E-02
CGA:  76    -0.128343286392E+04   -0.76113E-04   -0.12289E-03 10640   0.212E-02 0.214E-02
CGA:  77    -0.128343293977E+04   -0.75847E-04   -0.11995E-03 10640   0.207E-02 0.210E-02
CGA:  78    -0.128343301538E+04   -0.75614E-04   -0.11718E-03 10640   0.204E-02 0.206E-02
CGA:  79    -0.128343309080E+04   -0.75419E-04   -0.11456E-03 10640   0.200E-02 0.202E-02
CGA:  80    -0.128343316605E+04   -0.75256E-04   -0.11209E-03 10640   0.196E-02 0.198E-02
CGA:  81    -0.128343324118E+04   -0.75130E-04   -0.10975E-03 10640   0.193E-02 0.194E-02
CGA:  82    -0.128343331622E+04   -0.75036E-04   -0.10754E-03 10640   0.189E-02 0.191E-02
CGA:  83    -0.128343339120E+04   -0.74980E-04   -0.10546E-03 10640   0.186E-02 0.187E-02
CGA:  84    -0.128343346616E+04   -0.74956E-04   -0.10349E-03 10640   0.182E-02 0.184E-02
CGA:  85    -0.128343354113E+04   -0.74969E-04   -0.10164E-03 10640   0.179E-02 0.181E-02
CGA:  86    -0.128343361614E+04   -0.75016E-04   -0.99889E-04 10640   0.176E-02 0.178E-02
CGA:  87    -0.128343369124E+04   -0.75102E-04   -0.98245E-04 10640   0.173E-02 0.175E-02
CGA:  88    -0.128343376647E+04   -0.75222E-04   -0.96698E-04 10640   0.170E-02 0.172E-02
CGA:  89    -0.128343384185E+04   -0.75382E-04   -0.95248E-04 10640   0.167E-02 0.169E-02
CGA:  90    -0.128343391743E+04   -0.75580E-04   -0.93888E-04 10640   0.165E-02 0.166E-02
CGA:  91    -0.128343399325E+04   -0.75819E-04   -0.92617E-04 10640   0.162E-02 0.163E-02
CGA:  92    -0.128343406935E+04   -0.76099E-04   -0.91431E-04 10640   0.159E-02 0.160E-02
CGA:  93    -0.128343414577E+04   -0.76422E-04   -0.90330E-04 10640   0.156E-02 0.158E-02
CGA:  94    -0.128343422256E+04   -0.76789E-04   -0.89309E-04 10640   0.154E-02 0.155E-02
CGA:  95    -0.128343429976E+04   -0.77203E-04   -0.88368E-04 10640   0.151E-02 0.153E-02
CGA:  96    -0.128343437743E+04   -0.77666E-04   -0.87505E-04 10640   0.149E-02 0.150E-02
CGA:  97    -0.128343445561E+04   -0.78182E-04   -0.86721E-04 10640   0.146E-02 0.148E-02
CGA:  98    -0.128343453436E+04   -0.78750E-04   -0.86011E-04 10640   0.144E-02 0.145E-02
CGA:  99    -0.128343461373E+04   -0.79374E-04   -0.85377E-04 10640   0.142E-02 0.143E-02
CGA: 100    -0.128343469379E+04   -0.80061E-04   -0.84819E-04 10640   0.139E-02 0.140E-02
CGA: 101    -0.128343477460E+04   -0.80811E-04   -0.84337E-04 10640   0.137E-02 0.138E-02
CGA: 102    -0.128343485623E+04   -0.81630E-04   -0.83931E-04 10640   0.135E-02 0.136E-02
CGA: 103    -0.128343493876E+04   -0.82522E-04   -0.83602E-04 10640   0.132E-02 0.133E-02
CGA: 104    -0.128343502224E+04   -0.83487E-04   -0.83348E-04 10640   0.130E-02 0.131E-02
CGA: 105    -0.128343510677E+04   -0.84530E-04   -0.83172E-04 10640   0.128E-02 0.129E-02
CGA: 106    -0.128343519244E+04   -0.85667E-04   -0.83078E-04 10640   0.126E-02 0.127E-02
CGA: 107    -0.128343527934E+04   -0.86904E-04   -0.83071E-04 10640   0.123E-02 0.125E-02
CGA: 108    -0.128343536759E+04   -0.88247E-04   -0.83151E-04 10640   0.121E-02 0.122E-02
CGA: 109    -0.128343545729E+04   -0.89703E-04   -0.83321E-04 10640   0.119E-02 0.120E-02
CGA: 110    -0.128343554857E+04   -0.91281E-04   -0.83585E-04 10640   0.117E-02 0.118E-02
CGA: 111    -0.128343564156E+04   -0.92989E-04   -0.83945E-04 10640   0.115E-02 0.116E-02
CGA: 112    -0.128343573640E+04   -0.94841E-04   -0.84411E-04 10640   0.113E-02 0.114E-02
CGA: 113    -0.128343583326E+04   -0.96858E-04   -0.84990E-04 10640   0.110E-02 0.112E-02
CGA: 114    -0.128343593231E+04   -0.99046E-04   -0.85685E-04 10640   0.108E-02 0.109E-02
CGA: 115    -0.128343603373E+04   -0.10142E-03   -0.86506E-04 10640   0.106E-02 0.107E-02
CGA: 116    -0.128343613775E+04   -0.10402E-03   -0.87468E-04 10640   0.104E-02 0.105E-02
CGA: 117    -0.128343624461E+04   -0.10685E-03   -0.88577E-04 10640   0.102E-02 0.103E-02
CGA: 118    -0.128343635457E+04   -0.10996E-03   -0.89854E-04 10640   0.996E-03 0.101E-02
CGA: 119    -0.128343646793E+04   -0.11337E-03   -0.91312E-04 10640   0.974E-03 0.985E-03
CGA: 120    -0.128343658505E+04   -0.11712E-03   -0.92972E-04 10640   0.951E-03 0.962E-03
CGA: 121    -0.128343670630E+04   -0.12125E-03   -0.94856E-04 10640   0.928E-03 0.940E-03
CGA: 122    -0.128343683213E+04   -0.12583E-03   -0.96997E-04 10640   0.905E-03 0.917E-03
CGA: 123    -0.128343696304E+04   -0.13092E-03   -0.99427E-04 10640   0.882E-03 0.893E-03
CGA: 124    -0.128343709964E+04   -0.13660E-03   -0.10219E-03 10640   0.858E-03 0.870E-03
CGA: 125    -0.128343724261E+04   -0.14297E-03   -0.10533E-03 10640   0.833E-03 0.845E-03
CGA: 126    -0.128343739277E+04   -0.15016E-03   -0.10892E-03 10640   0.808E-03 0.820E-03
CGA: 127    -0.128343755110E+04   -0.15832E-03   -0.11304E-03 10640   0.782E-03 0.795E-03
CGA: 128    -0.128343771878E+04   -0.16768E-03   -0.11781E-03 10640   0.755E-03 0.769E-03
CGA: 129    -0.128343789724E+04   -0.17847E-03   -0.12333E-03 10640   0.727E-03 0.741E-03
CGA: 130    -0.128343808830E+04   -0.19106E-03   -0.12982E-03 10640   0.698E-03 0.713E-03
CGA: 131    -0.128343829421E+04   -0.20590E-03   -0.13750E-03 10640   0.668E-03 0.683E-03
CGA: 132    -0.128343851789E+04   -0.22368E-03   -0.14673E-03 10640   0.636E-03 0.652E-03
CGA: 133    -0.128343876323E+04   -0.24534E-03   -0.15799E-03 10640   0.602E-03 0.619E-03
CGA: 134    -0.128343903553E+04   -0.27231E-03   -0.17204E-03 10640   0.565E-03 0.583E-03
CGA: 135    -0.128343934236E+04   -0.30683E-03   -0.19005E-03 10640   0.524E-03 0.544E-03
CGA: 136    -0.128343969508E+04   -0.35272E-03   -0.21406E-03 10640   0.479E-03 0.501E-03
CGA: 137    -0.128344011159E+04   -0.41651E-03   -0.24760E-03 10640   0.428E-03 0.453E-03
CGA: 138    -0.128344062435E+04   -0.51276E-03   -0.29875E-03 10640   0.367E-03 0.396E-03
CGA: 139    -0.128344141829E+04   -0.79394E-03   -0.29314E-02 10640   0.276E-03 0.318E-03
CGA: 140    -0.128344250043E+04   -0.10821E-02   -0.19669E-02 10640   0.171E-03 0.208E-03
CGA: 141    -0.128344275064E+04   -0.25021E-03   -0.27123E-03 10640   0.207E-02-0.294E-04
CGA: 142    -0.128344346194E+04   -0.71131E-03   -0.69839E-03 10640   0.266E-02-0.699E-04
CGA: 143    -0.128344375853E+04   -0.29659E-03   -0.38443E-03 10640   0.173E-02 0.198E-03
CGA: 144    -0.128344288641E+04    0.87212E-03   -0.18976E-03 10640   0.605E-02 0.101E-02
CGA: 145    -0.128344284163E+04    0.44781E-04   -0.14498E-02 10640   0.534E-02 0.142E-02
CGA: 146    -0.128343281476E+04    0.10027E-01   -0.55115E-03 10640   0.457E-01 0.936E-02
CGA: 147    -0.128343179255E+04    0.10222E-02   -0.11021E-01 10640   0.392E-01 0.113E-01
CGA: 148    -0.128332079129E+04    0.11100E+00   -0.35921E-02 10640   0.464E+00 0.101E+00
CGA: 149    -0.128332331010E+04   -0.25188E-02   -0.11191E+00 10640   0.410E+00 0.116E+00
CGA: 150    -0.128244750040E+04    0.87581E+00   -0.41668E-01 10640   0.378E+01 0.949E+00
CGA: 151    -0.128302945736E+04   -0.58196E+00   -0.10895E+01 10640   0.116E+01 0.594E+00
CGA: 152    -0.128294550527E+04    0.83952E-01   -0.26682E+00 10640   0.133E+01 0.470E+00
CGA: 153    -0.127967351009E+04    0.32720E+01   -0.10382E+00 10640   0.160E+02 0.337E+01
CGA: 154    -0.128253521553E+04   -0.28617E+01   -0.45017E+01 10640   0.189E+01 0.991E+00
CGA: 155    -0.128289749513E+04   -0.36228E+00   -0.54551E+00 10640   0.839E+00 0.443E+00
CGA: 156    -0.128298141225E+04   -0.83917E-01   -0.22560E+00 10640   0.549E+00 0.424E+00
CGA: 157    -0.128316875525E+04   -0.18734E+00   -0.19891E+00 10640   0.174E+00 0.650E-01
CGA: 158    -0.128324006845E+04   -0.71313E-01   -0.71864E-01 10640   0.239E+00 0.787E-02
CGA: 159    -0.128311787642E+04    0.12219E+00   -0.61822E-02 10640   0.474E+00 0.288E+00
CGA: 160    -0.128323349873E+04   -0.11562E+00   -0.12614E+00 10640   0.322E+00 0.138E-01
CGA: 161    -0.128335062780E+04   -0.11713E+00   -0.11479E+00 10640   0.180E+00-0.221E-01
CGA: 162    -0.128338961040E+04   -0.38983E-01   -0.40122E-01 10640   0.632E-01 0.465E-02
CGA: 163    -0.128341693196E+04   -0.27322E-01   -0.27581E-01 10640   0.616E-01-0.277E-02
CGA: 164    -0.128339452036E+04    0.22412E-01   -0.42399E-04 10640   0.782E-01 0.446E-01
CGA: 165    -0.128340758232E+04   -0.13062E-01   -0.12654E-01 10640   0.384E-01-0.292E-02
CGA: 166    -0.128342911449E+04   -0.21532E-01   -0.28826E-01 10640   0.541E-01-0.264E-01
CGA: 167    -0.128343641285E+04   -0.72984E-02   -0.72927E-02 10640   0.130E-01-0.642E-03
CGA: 168    -0.128344058499E+04   -0.41721E-02   -0.42081E-02 10640   0.704E-02 0.484E-03
CGA: 169    -0.128344230154E+04   -0.17166E-02   -0.16360E-02 10640   0.185E-02-0.546E-03
CGA: 170    -0.128344299958E+04   -0.69805E-03   -0.81213E-03 10640   0.373E-02-0.931E-03
CGA: 171    -0.128344334472E+04   -0.34514E-03   -0.41297E-03 10640   0.417E-03 0.318E-03
CGA: 172    -0.128344350520E+04   -0.16048E-03   -0.16055E-03 10640   0.525E-03-0.125E-04
CGA: 173    -0.128344237338E+04    0.11318E-02   -0.47554E-03 10640   0.663E-02-0.348E-02
CGA: 174    -0.128344320743E+04   -0.83406E-03   -0.98692E-03 10640   0.165E-02 0.643E-03
CGA: 175    -0.128344391449E+04   -0.70705E-03   -0.70592E-03 10640   0.429E-03-0.362E-04
CGA: 176    -0.128344401396E+04   -0.99471E-04   -0.99958E-04 10640   0.215E-03-0.100E-05
CGA: 177    -0.128344405182E+04   -0.37863E-04   -0.44676E-04 10640   0.495E-04 0.422E-04
CGA: 178    -0.128344407634E+04   -0.24516E-04   -0.27887E-04 10640   0.115E-03-0.288E-04
CGA: 179    -0.128344408284E+04   -0.65086E-05   -0.11874E-04 10640   0.794E-05 0.213E-04
   1 F= -.12834441E+04 E0= -.12834441E+04  d E =-.280282E-04  mag=    47.0000
