       N       E                     dE             d eps       ncg     rms          ort
DAV:   1     0.282390718278E+04    0.28239E+04   -0.29484E+05  2880   0.141E+03
DAV:   2    -0.970293293931E+03   -0.37942E+04   -0.36621E+04  2880   0.313E+02
DAV:   3    -0.122738164240E+04   -0.25709E+03   -0.25499E+03  2880   0.849E+01
DAV:   4    -0.123037763610E+04   -0.29960E+01   -0.29856E+01  2880   0.974E+00
DAV:   5    -0.123042624339E+04   -0.48607E-01   -0.48506E-01  2880   0.114E+00
SDA:   6    -0.873853448304E+03    0.35657E+03   -0.48506E-01  2880   0.620E+03 0.000E+00
CGA:   7    -0.983752715051E+03   -0.10990E+03   -0.11032E+03  2880   0.489E+02 0.107E+02
CGA:   8    -0.994009617035E+03   -0.10257E+02   -0.10239E+02  2880   0.280E+02 0.211E+01
CGA:   9    -0.997697093459E+03   -0.36875E+01   -0.41221E+01  2880   0.283E+02 0.692E+00
CGA:  10    -0.999855381741E+03   -0.21583E+01   -0.30024E+01  2880   0.111E+02-0.442E+01
CGA:  11    -0.100201675557E+04   -0.21614E+01   -0.26445E+01  2880   0.669E+01-0.442E+01
CGA:  12    -0.100250090607E+04   -0.48415E+00   -0.56207E+00  2880   0.325E+01 0.277E+00
CGA:  13    -0.100291767172E+04   -0.41677E+00   -0.45692E+00  2880   0.138E+01 0.119E-01
CGA:  14    -0.100323541597E+04   -0.31774E+00   -0.33386E+00  2880   0.924E+00-0.245E+00
CGA:  15    -0.100332525053E+04   -0.89835E-01   -0.59684E-01  2880   0.318E+00 0.323E+00
CGA:  16    -0.100336931829E+04   -0.44068E-01   -0.36248E-01  2880   0.461E+00 0.495E-01
CGA:  17    -0.100342093083E+04   -0.51613E-01   -0.49992E-01  2880   0.723E+00 0.863E-02
CGA:  18    -0.100344588327E+04   -0.24952E-01   -0.25783E-01  2880   0.182E+00-0.233E-01
CGA:  19    -0.100345196809E+04   -0.60848E-02   -0.65621E-02  2880   0.138E+00-0.679E-02
CGA:  20    -0.100346455781E+04   -0.12590E-01   -0.13039E-01  2880   0.334E+00 0.766E-03
CGA:  21    -0.100348083879E+04   -0.16281E-01   -0.13770E-01  2880   0.139E+00 0.537E-01
CGA:  22    -0.100348606485E+04   -0.52261E-02   -0.46552E-02  2880   0.618E-01 0.126E-01
CGA:  23    -0.100348972400E+04   -0.36592E-02   -0.33444E-02  2880   0.888E-01 0.132E-02
CGA:  24    -0.100349382329E+04   -0.40993E-02   -0.41090E-02  2880   0.865E-01-0.349E-02
CGA:  25    -0.100349634584E+04   -0.25225E-02   -0.28449E-02  2880   0.679E-01-0.647E-02
CGA:  26    -0.100349891717E+04   -0.25713E-02   -0.27450E-02  2880   0.672E-01 0.171E-02
CGA:  27    -0.100350088639E+04   -0.19692E-02   -0.19818E-02  2880   0.301E-01 0.498E-02
CGA:  28    -0.100350181523E+04   -0.92884E-03   -0.10327E-02  2880   0.210E-01-0.121E-02
CGA:  29    -0.100350299107E+04   -0.11758E-02   -0.11812E-02  2880   0.419E-01 0.999E-04
CGA:  30    -0.100350515803E+04   -0.21670E-02   -0.21765E-02  2880   0.431E-01 0.449E-03
CGA:  31    -0.100350635746E+04   -0.11994E-02   -0.12790E-02  2880   0.135E-01-0.997E-03
CGA:  32    -0.100350676169E+04   -0.40423E-03   -0.40435E-03  2880   0.909E-02 0.244E-03
CGA:  33    -0.100350732756E+04   -0.56587E-03   -0.56156E-03  2880   0.163E-01-0.155E-03
CGA:  34    -0.100350809848E+04   -0.77092E-03   -0.73861E-03  2880   0.136E-01 0.130E-03
CGA:  35    -0.100350851600E+04   -0.41752E-03   -0.39596E-03  2880   0.840E-02 0.111E-02
CGA:  36    -0.100350882395E+04   -0.30795E-03   -0.32635E-03  2880   0.839E-02 0.819E-03
SDA:  37    -0.100350912422E+04   -0.30027E-03   -0.33295E-03  2880   0.844E-02 0.107E-02
CGA:  38    -0.100350977235E+04   -0.64812E-03   -0.63949E-03  2880   0.543E-02-0.489E-03
CGA:  39    -0.100351048289E+04   -0.71055E-03   -0.80842E-03  2880   0.596E-02-0.145E-02
CGA:  40    -0.100351117431E+04   -0.69142E-03   -0.92490E-03  2880   0.158E-01-0.317E-02
CGA:  41    -0.100351244680E+04   -0.12725E-02   -0.12450E-02  2880   0.634E-02-0.142E-02
CGA:  42    -0.100351282173E+04   -0.37493E-03   -0.38002E-03  2880   0.199E-02 0.198E-03
CGA:  43    -0.100351300449E+04   -0.18276E-03   -0.18560E-03  2880   0.986E-03 0.512E-03
CGA:  44    -0.100351334997E+04   -0.34548E-03   -0.35855E-03  2880   0.704E-02-0.485E-04
CGA:  45    -0.100351346988E+04   -0.11990E-03   -0.67622E-04  2880   0.715E-02 0.594E-02
CGA:  46    -0.100351376539E+04   -0.29552E-03   -0.28580E-03  2880   0.629E-03 0.517E-04
CGA:  47    -0.100351335480E+04    0.41060E-03   -0.29837E-03  2880   0.180E-01-0.186E-02
CGA:  48    -0.100351414579E+04   -0.79100E-03   -0.88529E-03  2880   0.131E-02 0.126E-02
CGA:  49    -0.100351419490E+04   -0.49103E-04   -0.60955E-04  2880   0.242E-03 0.157E-03
CGA:  50    -0.100351429671E+04   -0.10182E-03   -0.73512E-04  2880   0.828E-03 0.192E-03
CGA:  51    -0.100351436601E+04   -0.69295E-04   -0.60980E-04  2880   0.525E-03-0.185E-03
CGA:  52    -0.100351437753E+04   -0.11524E-04   -0.13672E-03  2880   0.655E-02-0.542E-03
CGA:  53    -0.100351456988E+04   -0.19235E-03   -0.23959E-03  2880   0.405E-03 0.337E-03
CGA:  54    -0.100351457845E+04   -0.85617E-05   -0.18945E-04  2880   0.103E-03 0.135E-03
   1 F= -.10035146E+04 E0= -.10034971E+04  d E =-.100351E+04  mag=     0.9997
       N       E                     dE             d eps       ncg     rms          ort
SDA:   1    -0.100355727703E+04   -0.42707E-01    0.00000E+00  2880   0.741E-01 0.000E+00
CGA:   2    -0.100355997486E+04   -0.26978E-02   -0.30093E-02  2880   0.114E-01-0.445E-02
CGA:   3    -0.100356080511E+04   -0.83025E-03   -0.86075E-03  2880   0.701E-02 0.870E-03
CGA:   4    -0.100356232802E+04   -0.15229E-02   -0.16542E-02  2880   0.403E-02-0.122E-02
CGA:   5    -0.100356250902E+04   -0.18100E-03   -0.21347E-03  2880   0.895E-03 0.622E-03
CGA:   6    -0.100356256946E+04   -0.60438E-04   -0.71632E-04  2880   0.457E-03 0.260E-03
CGA:   7    -0.100356263160E+04   -0.62138E-04   -0.62388E-04  2880   0.208E-03 0.481E-04
CGA:   8    -0.100356264829E+04   -0.16694E-04   -0.74831E-04  2880   0.490E-03-0.271E-03
CGA:   9    -0.100356266212E+04   -0.13825E-04   -0.25500E-04  2880   0.124E-03 0.167E-03
CGA:  10    -0.100356267181E+04   -0.96909E-05   -0.12410E-04  2880   0.802E-04 0.627E-04
CGA:  11    -0.100356269383E+04   -0.22020E-04    0.25167E-04  2880   0.697E-04-0.716E-05
CGA:  12    -0.100356269797E+04   -0.41429E-05   -0.51267E-05  2880   0.217E-04 0.279E-04
   2 F= -.10035627E+04 E0= -.10035447E+04  d E =-.481195E-01  mag=     0.9959
       N       E                     dE             d eps       ncg     rms          ort
SDA:   1    -0.100149861244E+04    0.20641E+01    0.00000E+00  2880   0.244E+02 0.000E+00
CGA:   2    -0.100280033696E+04   -0.13017E+01   -0.17582E+01  2880   0.773E+01-0.164E+00
CGA:   3    -0.100338740330E+04   -0.58707E+00   -0.64701E+00  2880   0.629E+01 0.414E+00
CGA:   4    -0.100404441223E+04   -0.65701E+00   -0.66862E+00  2880   0.256E+01 0.928E+00
CGA:   5    -0.100433028746E+04   -0.28588E+00   -0.28803E+00  2880   0.602E+00 0.859E-01
CGA:   6    -0.100438871230E+04   -0.58425E-01   -0.58695E-01  2880   0.916E+00 0.891E-02
CGA:   7    -0.100443695357E+04   -0.48241E-01   -0.46629E-01  2880   0.305E+00 0.152E-01
CGA:   8    -0.100445447151E+04   -0.17518E-01   -0.17071E-01  2880   0.224E+00-0.347E-02
CGA:   9    -0.100447240144E+04   -0.17930E-01   -0.18347E-01  2880   0.931E-01 0.453E-02
CGA:  10    -0.100447664804E+04   -0.42466E-02   -0.45236E-02  2880   0.526E-01 0.934E-03
CGA:  11    -0.100448067410E+04   -0.40261E-02   -0.40715E-02  2880   0.316E-01 0.287E-02
CGA:  12    -0.100448323977E+04   -0.25657E-02   -0.25575E-02  2880   0.334E-01-0.117E-02
CGA:  13    -0.100448604856E+04   -0.28088E-02   -0.27974E-02  2880   0.156E-01-0.186E-02
CGA:  14    -0.100448725099E+04   -0.12024E-02   -0.12160E-02  2880   0.143E-01 0.115E-02
CGA:  15    -0.100448804000E+04   -0.78901E-03   -0.82362E-03  2880   0.260E-02 0.676E-03
CGA:  16    -0.100448840295E+04   -0.36294E-03   -0.43135E-03  2880   0.101E-01-0.104E-02
CGA:  17    -0.100448875609E+04   -0.35314E-03   -0.33366E-03  2880   0.930E-02-0.578E-03
CGA:  18    -0.100448896163E+04   -0.20555E-03   -0.23087E-03  2880   0.251E-02 0.301E-03
CGA:  19    -0.100448900869E+04   -0.47056E-04   -0.77326E-04  2880   0.141E-02 0.479E-03
CGA:  20    -0.100448903974E+04   -0.31050E-04   -0.53280E-04  2880   0.729E-03 0.409E-03
CGA:  21    -0.100448906720E+04   -0.27463E-04   -0.33387E-04  2880   0.489E-03 0.114E-03
CGA:  22    -0.100448911687E+04   -0.49664E-04   -0.51238E-04  2880   0.126E-02-0.179E-03
CGA:  23    -0.100448914450E+04   -0.27637E-04   -0.21723E-04  2880   0.117E-02-0.114E-03
CGA:  24    -0.100448916786E+04   -0.23359E-04   -0.22457E-04  2880   0.602E-03-0.153E-04
CGA:  25    -0.100448917938E+04   -0.11520E-04   -0.14179E-04  2880   0.501E-03 0.469E-04
CGA:  26    -0.100448919224E+04   -0.12857E-04   -0.16050E-04  2880   0.472E-03 0.725E-04
CGA:  27    -0.100448920522E+04   -0.12980E-04   -0.14100E-04  2880   0.228E-03 0.257E-04
CGA:  28    -0.100448921435E+04   -0.91325E-05   -0.73291E-05  2880   0.179E-03-0.490E-04
CGA:  29    -0.100448921617E+04   -0.18191E-05   -0.17985E-04  2880   0.138E-02-0.270E-03
CGA:  30    -0.100448925598E+04   -0.39811E-04   -0.45075E-04  2880   0.886E-04 0.133E-03
CGA:  31    -0.100448926481E+04   -0.88330E-05   -0.86635E-05  2880   0.689E-04 0.786E-05
   3 F= -.10044893E+04 E0= -.10044715E+04  d E =-.926567E+00  mag=     0.9958
       N       E                     dE             d eps       ncg     rms          ort
SDA:   1    -0.100029927657E+04    0.41900E+01    0.00000E+00  2880   0.202E+02 0.000E+00
CGA:   2    -0.100063098178E+04   -0.33171E+00   -0.54246E+01  2880   0.264E+02-0.772E+01
CGA:   3    -0.100229687948E+04   -0.16659E+01   -0.72660E+00  2880   0.129E+02-0.303E+01
CGA:   4    -0.100353007905E+04   -0.12332E+01   -0.10753E+01  2880   0.121E+02 0.554E+01
CGA:   5    -0.100411997833E+04   -0.58990E+00   -0.81509E+00  2880   0.988E+01-0.861E+00
CGA:   6    -0.100453937823E+04   -0.41940E+00   -0.35495E+00  2880   0.381E+01-0.816E-01
CGA:   7    -0.100466299456E+04   -0.12362E+00   -0.15472E+00  2880   0.270E+01-0.378E+00
CGA:   8    -0.100487456497E+04   -0.21157E+00   -0.11888E+00  2880   0.758E+00 0.137E+00
CGA:   9    -0.100490130324E+04   -0.26738E-01   -0.25174E-01  2880   0.108E+01 0.122E-01
CGA:  10    -0.100496182034E+04   -0.60517E-01   -0.61886E-01  2880   0.231E+01 0.191E-01
CGA:  11    -0.100501077105E+04   -0.48951E-01   -0.34771E-01  2880   0.118E+01 0.901E+00
CGA:  12    -0.100503617868E+04   -0.25408E-01   -0.27591E-01  2880   0.328E+00-0.103E+00
CGA:  13    -0.100504396830E+04   -0.77896E-02   -0.87421E-02  2880   0.348E+00-0.638E-02
CGA:  14    -0.100505581496E+04   -0.11847E-01   -0.10779E-01  2880   0.345E+00 0.301E-01
CGA:  15    -0.100506395802E+04   -0.81431E-02   -0.70862E-02  2880   0.279E+00 0.514E-01
CGA:  16    -0.100507025402E+04   -0.62960E-02   -0.62201E-02  2880   0.243E+00 0.683E-03
CGA:  17    -0.100507516881E+04   -0.49148E-02   -0.55583E-02  2880   0.233E+00-0.268E-01
CGA:  18    -0.100508030167E+04   -0.51329E-02   -0.57828E-02  2880   0.159E+00-0.220E-01
CGA:  19    -0.100508398262E+04   -0.36809E-02   -0.35276E-02  2880   0.848E-01-0.651E-02
CGA:  20    -0.100508687536E+04   -0.28927E-02   -0.28608E-02  2880   0.107E+00-0.294E-02
CGA:  21    -0.100509188825E+04   -0.50129E-02   -0.49990E-02  2880   0.140E+00 0.233E-03
CGA:  22    -0.100509460135E+04   -0.27131E-02   -0.24655E-02  2880   0.789E-01 0.253E-01
CGA:  23    -0.100509600549E+04   -0.14041E-02   -0.15311E-02  2880   0.385E-01 0.690E-02
CGA:  24    -0.100509670976E+04   -0.70427E-03   -0.80382E-03  2880   0.298E-01 0.303E-02
CGA:  25    -0.100509740550E+04   -0.69574E-03   -0.72537E-03  2880   0.307E-01 0.229E-02
CGA:  26    -0.100509815599E+04   -0.75049E-03   -0.72254E-03  2880   0.320E-01 0.578E-03
CGA:  27    -0.100509887349E+04   -0.71750E-03   -0.66051E-03  2880   0.324E-01-0.204E-02
CGA:  28    -0.100509956769E+04   -0.69420E-03   -0.62214E-03  2880   0.324E-01-0.445E-02
CGA:  29    -0.100510023060E+04   -0.66292E-03   -0.58121E-03  2880   0.290E-01-0.536E-02
CGA:  30    -0.100510075279E+04   -0.52218E-03   -0.44428E-03  2880   0.212E-01-0.357E-02
CGA:  31    -0.100510110180E+04   -0.34901E-03   -0.31261E-03  2880   0.167E-01-0.123E-02
SDA:  32    -0.100510140426E+04   -0.30246E-03   -0.30475E-03  2880   0.188E-01 0.196E-03
CGA:  33    -0.100510255975E+04   -0.11555E-02   -0.10706E-02  2880   0.423E-02 0.435E-02
CGA:  34    -0.100510280157E+04   -0.24182E-03   -0.22979E-03  2880   0.151E-02 0.218E-02
CGA:  35    -0.100510305500E+04   -0.25343E-03   -0.20719E-03  2880   0.104E-02 0.464E-03
CGA:  36    -0.100510323843E+04   -0.18343E-03   -0.13638E-03  2880   0.603E-03 0.838E-03
CGA:  37    -0.100510332646E+04   -0.88039E-04   -0.38139E-05  2880   0.386E-02-0.345E-03
CGA:  38    -0.100510350207E+04   -0.17560E-03   -0.16583E-03  2880   0.678E-03-0.267E-03
CGA:  39    -0.100510355356E+04   -0.51493E-04   -0.51705E-04  2880   0.241E-03 0.216E-03
CGA:  40    -0.100510359824E+04   -0.44683E-04   -0.37168E-04  2880   0.280E-03 0.219E-03
CGA:  41    -0.100510364596E+04   -0.47713E-04    0.12972E-02  2880   0.298E-03 0.757E-04
CGA:  42    -0.100510362822E+04    0.17736E-04   -0.40025E-04  2880   0.477E-02-0.507E-03
CGA:  43    -0.100510384287E+04   -0.21465E-03   -0.22347E-03  2880   0.109E-02 0.654E-05
CGA:  44    -0.100510387909E+04   -0.36220E-04   -0.58723E-04  2880   0.818E-04 0.261E-03
CGA:  45    -0.100510387764E+04    0.14488E-05   -0.34153E-05  2880   0.361E-04 0.436E-04
   4 F= -.10051039E+04 E0= -.10050867E+04  d E =-.614613E+00  mag=     0.9956
       N       E                     dE             d eps       ncg     rms          ort
SDA:   1    -0.100228241691E+04    0.28215E+01    0.00000E+00  2880   0.129E+02 0.000E+00
CGA:   2    -0.100348596808E+04   -0.12036E+01   -0.11034E+01  2880   0.158E+02-0.687E+01
CGA:   3    -0.100411528113E+04   -0.62931E+00   -0.11307E+01  2880   0.703E+01-0.236E+01
CGA:   4    -0.100470955666E+04   -0.59428E+00   -0.65857E+00  2880   0.311E+01 0.106E+01
CGA:   5    -0.100498690919E+04   -0.27735E+00   -0.33198E+00  2880   0.439E+01 0.146E+00
CGA:   6    -0.100510359664E+04   -0.11669E+00   -0.11849E+00  2880   0.166E+01-0.950E+00
CGA:   7    -0.100517675256E+04   -0.73156E-01   -0.78746E-01  2880   0.308E+01-0.681E-01
CGA:   8    -0.100524506348E+04   -0.68311E-01   -0.73424E-01  2880   0.157E+01-0.371E+00
CGA:   9    -0.100527081122E+04   -0.25748E-01   -0.54515E-01  2880   0.113E+01-0.555E+00
CGA:  10    -0.100528942445E+04   -0.18613E-01   -0.18592E-01  2880   0.857E+00-0.185E-01
CGA:  11    -0.100532224215E+04   -0.32818E-01   -0.35233E-01  2880   0.454E+00-0.508E-01
CGA:  12    -0.100533080616E+04   -0.85640E-02   -0.77833E-02  2880   0.156E+00 0.453E-01
CGA:  13    -0.100533478847E+04   -0.39823E-02   -0.47029E-02  2880   0.117E+00-0.134E-01
CGA:  14    -0.100533795011E+04   -0.31616E-02   -0.32310E-02  2880   0.997E-01 0.419E-02
CGA:  15    -0.100534045916E+04   -0.25091E-02   -0.29145E-02  2880   0.595E-01-0.906E-02
CGA:  16    -0.100534226244E+04   -0.18033E-02   -0.18115E-02  2880   0.602E-01-0.189E-02
CGA:  17    -0.100534499546E+04   -0.27330E-02   -0.26841E-02  2880   0.851E-01-0.190E-02
CGA:  18    -0.100534777813E+04   -0.27827E-02   -0.26544E-02  2880   0.486E-01 0.131E-02
CGA:  19    -0.100534896581E+04   -0.11877E-02   -0.12128E-02  2880   0.262E-01 0.678E-03
CGA:  20    -0.100534980429E+04   -0.83847E-03   -0.86976E-03  2880   0.215E-01 0.765E-03
CGA:  21    -0.100535039237E+04   -0.58808E-03   -0.59952E-03  2880   0.103E-01 0.149E-03
CGA:  22    -0.100535065941E+04   -0.26705E-03   -0.26121E-03  2880   0.509E-02-0.530E-03
CGA:  23    -0.100535085793E+04   -0.19852E-03   -0.18463E-03  2880   0.619E-02-0.434E-03
CGA:  24    -0.100535110062E+04   -0.24269E-03   -0.23804E-03  2880   0.673E-02-0.282E-03
CGA:  25    -0.100535126886E+04   -0.16824E-03   -0.17650E-03  2880   0.416E-02 0.249E-03
CGA:  26    -0.100535138701E+04   -0.11816E-03   -0.13460E-03  2880   0.382E-02 0.401E-03
CGA:  27    -0.100535152574E+04   -0.13873E-03   -0.14948E-03  2880   0.302E-02 0.358E-03
CGA:  28    -0.100535162231E+04   -0.96565E-04   -0.95649E-04  2880   0.141E-02-0.982E-04
CGA:  29    -0.100535168637E+04   -0.64068E-04   -0.57117E-04  2880   0.166E-02-0.357E-03
CGA:  30    -0.100535175370E+04   -0.67326E-04   -0.63372E-04  2880   0.240E-02-0.419E-03
CGA:  31    -0.100535179911E+04   -0.45411E-04   -0.44017E-04  2880   0.144E-02-0.352E-04
CGA:  32    -0.100535182192E+04   -0.22809E-04   -0.29755E-04  2880   0.827E-03 0.171E-03
SDA:  33    -0.100535183625E+04   -0.14331E-04   -0.21868E-04  2880   0.621E-03 0.219E-03
CGA:  34    -0.100535186353E+04   -0.27282E-04   -0.27240E-04  2880   0.122E-03-0.121E-04
CGA:  35    -0.100535186630E+04   -0.27632E-05   -0.43646E-05  2880   0.794E-04 0.871E-04
   5 F= -.10053519E+04 E0= -.10053357E+04  d E =-.247989E+00  mag=     0.9954
       N       E                     dE             d eps       ncg     rms          ort
SDA:   1    -0.100321331977E+04    0.21385E+01    0.00000E+00  2880   0.139E+02 0.000E+00
CGA:   2    -0.100399369390E+04   -0.78037E+00   -0.78461E+00  2880   0.596E+01-0.651E+00
CGA:   3    -0.100452192547E+04   -0.52823E+00   -0.54297E+00  2880   0.107E+02-0.186E+00
CGA:   4    -0.100526646462E+04   -0.74454E+00   -0.74372E+00  2880   0.131E+01 0.822E-01
CGA:   5    -0.100534096897E+04   -0.74504E-01   -0.74416E-01  2880   0.775E+00-0.103E+00
CGA:   6    -0.100542415840E+04   -0.83189E-01   -0.89042E-01  2880   0.588E+00-0.900E-01
CGA:   7    -0.100546097816E+04   -0.36820E-01   -0.37095E-01  2880   0.871E-01-0.162E-01
CGA:   8    -0.100547095431E+04   -0.99762E-02   -0.96708E-02  2880   0.899E-01 0.550E-02
CGA:   9    -0.100547598884E+04   -0.50345E-02   -0.50867E-02  2880   0.138E-01 0.555E-02
CGA:  10    -0.100548030967E+04   -0.43208E-02   -0.44492E-02  2880   0.111E-01-0.479E-03
CGA:  11    -0.100548091559E+04   -0.60593E-03   -0.59083E-03  2880   0.434E-02-0.799E-03
CGA:  12    -0.100548141138E+04   -0.49579E-03   -0.48887E-03  2880   0.555E-02 0.132E-03
CGA:  13    -0.100548206450E+04   -0.65312E-03   -0.64660E-03  2880   0.775E-03 0.166E-03
CGA:  14    -0.100548220415E+04   -0.13964E-03   -0.13698E-03  2880   0.121E-02 0.242E-04
CGA:  15    -0.100548229976E+04   -0.95610E-04   -0.97155E-04  2880   0.446E-03 0.299E-03
CGA:  16    -0.100548233968E+04   -0.39924E-04   -0.39889E-04  2880   0.262E-03-0.726E-05
CGA:  17    -0.100548240114E+04   -0.61456E-04   -0.63020E-04  2880   0.637E-04-0.926E-05
CGA:  18    -0.100548240616E+04   -0.50180E-05   -0.51581E-05  2880   0.501E-04 0.223E-04
   6 F= -.10054824E+04 E0= -.10054670E+04  d E =-.130540E+00  mag=     0.9977
       N       E                     dE             d eps       ncg     rms          ort
SDA:   1    -0.100233537478E+04    0.31470E+01    0.00000E+00  2880   0.166E+02 0.000E+00
CGA:   2    -0.100357723482E+04   -0.12419E+01   -0.10584E+01  2880   0.123E+02-0.651E+01
CGA:   3    -0.100401780119E+04   -0.44057E+00   -0.39277E+00  2880   0.934E+01-0.202E+00
CGA:   4    -0.100488573984E+04   -0.86794E+00   -0.12474E+01  2880   0.931E+01-0.543E+01
CGA:   5    -0.100534454247E+04   -0.45880E+00   -0.40440E+00  2880   0.494E+00-0.499E+00
CGA:   6    -0.100545735198E+04   -0.11281E+00   -0.11844E+00  2880   0.482E+00-0.356E-01
CGA:   7    -0.100548392067E+04   -0.26569E-01   -0.26875E-01  2880   0.160E+00 0.922E-03
CGA:   8    -0.100550643270E+04   -0.22512E-01   -0.22267E-01  2880   0.204E+00 0.557E-02
CGA:   9    -0.100551972625E+04   -0.13294E-01   -0.13764E-01  2880   0.357E-01 0.296E-02
CGA:  10    -0.100552975413E+04   -0.10028E-01   -0.10357E-01  2880   0.702E-02-0.146E-02
CGA:  11    -0.100553032976E+04   -0.57563E-03   -0.57258E-03  2880   0.804E-02-0.287E-03
CGA:  12    -0.100553131747E+04   -0.98771E-03   -0.96762E-03  2880   0.232E-02 0.841E-03
CGA:  13    -0.100553147254E+04   -0.15506E-03   -0.16670E-03  2880   0.948E-03 0.278E-03
CGA:  14    -0.100553176183E+04   -0.28930E-03   -0.27705E-04  2880   0.282E-02-0.788E-03
CGA:  15    -0.100553187464E+04   -0.11281E-03   -0.14843E-03  2880   0.126E-02 0.299E-03
CGA:  16    -0.100553198485E+04   -0.11021E-03   -0.13510E-03  2880   0.304E-03 0.326E-03
CGA:  17    -0.100553201948E+04   -0.34636E-04   -0.33532E-04  2880   0.249E-03-0.162E-04
CGA:  18    -0.100553203768E+04   -0.18203E-04   -0.21963E-04  2880   0.142E-03 0.493E-04
CGA:  19    -0.100553204735E+04   -0.96674E-05   -0.10464E-04  2880   0.523E-04 0.640E-05
CGA:  20    -0.100553207202E+04   -0.24671E-04    0.10657E-04  2880   0.285E-04-0.321E-05
CGA:  21    -0.100553207282E+04   -0.79977E-06   -0.13656E-05  2880   0.166E-04 0.500E-05
   7 F= -.10055321E+04 E0= -.10055180E+04  d E =-.496667E-01  mag=     0.9994
       N       E                     dE             d eps       ncg     rms          ort
SDA:   1    -0.100501219157E+04    0.51988E+00    0.00000E+00  2880   0.343E+01 0.000E+00
CGA:   2    -0.100517806716E+04   -0.16588E+00   -0.22897E+00  2880   0.199E+01-0.810E+00
CGA:   3    -0.100539269450E+04   -0.21463E+00   -0.21502E+00  2880   0.234E+01 0.531E-01
CGA:   4    -0.100549118850E+04   -0.98494E-01   -0.15789E+00  2880   0.574E+00-0.529E+00
CGA:   5    -0.100552716612E+04   -0.35978E-01   -0.31267E-01  2880   0.696E-01 0.378E-01
CGA:   6    -0.100554614814E+04   -0.18982E-01   -0.19290E-01  2880   0.456E-01-0.258E-02
CGA:   7    -0.100554821257E+04   -0.20644E-02   -0.20688E-02  2880   0.141E-01 0.598E-03
CGA:   8    -0.100555009939E+04   -0.18868E-02   -0.18966E-02  2880   0.108E-01 0.172E-02
CGA:   9    -0.100555100211E+04   -0.90272E-03   -0.91494E-03  2880   0.284E-02 0.529E-04
CGA:  10    -0.100555153295E+04   -0.53084E-03   -0.53642E-03  2880   0.445E-02-0.114E-03
CGA:  11    -0.100555178146E+04   -0.24852E-03   -0.24342E-03  2880   0.100E-02-0.749E-04
CGA:  12    -0.100555190760E+04   -0.12613E-03   -0.12338E-03  2880   0.162E-02-0.328E-03
CGA:  13    -0.100555203501E+04   -0.12741E-03   -0.12840E-03  2880   0.623E-03 0.621E-04
CGA:  14    -0.100555204515E+04   -0.10141E-04   -0.22899E-04  2880   0.159E-03 0.133E-03
CGA:  15    -0.100555204755E+04   -0.24051E-05   -0.10344E-04  2880   0.159E-03 0.106E-03
CGA:  16    -0.100555206460E+04   -0.17042E-04   -0.16404E-04  2880   0.239E-03-0.320E-04
CGA:  17    -0.100555207213E+04   -0.75335E-05   -0.12630E-04  2880   0.128E-03 0.892E-04
   8 F= -.10055521E+04 E0= -.10055383E+04  d E =-.199993E-01  mag=     0.9998
       N       E                     dE             d eps       ncg     rms          ort
SDA:   1    -0.100539058271E+04    0.16148E+00    0.00000E+00  2880   0.891E+00 0.000E+00
CGA:   2    -0.100544232162E+04   -0.51739E-01   -0.52256E-01  2880   0.475E+00-0.158E-01
CGA:   3    -0.100552173878E+04   -0.79417E-01   -0.78476E-01  2880   0.483E+00 0.129E-01
CGA:   4    -0.100555226947E+04   -0.30531E-01   -0.26886E-01  2880   0.358E-01 0.422E-01
CGA:   5    -0.100556187020E+04   -0.96007E-02   -0.94056E-02  2880   0.487E-01 0.149E-02
CGA:   6    -0.100556408631E+04   -0.22161E-02   -0.22830E-02  2880   0.676E-02-0.221E-02
CGA:   7    -0.100556504554E+04   -0.95923E-03   -0.96617E-03  2880   0.959E-02-0.232E-03
CGA:   8    -0.100556578387E+04   -0.73834E-03   -0.73613E-03  2880   0.933E-03-0.858E-04
CGA:   9    -0.100556585940E+04   -0.75526E-04   -0.82057E-04  2880   0.899E-03 0.243E-03
CGA:  10    -0.100556599362E+04   -0.13422E-03   -0.13363E-03  2880   0.329E-03 0.147E-03
CGA:  11    -0.100556602440E+04   -0.30782E-04   -0.32837E-04  2880   0.278E-03 0.708E-04
CGA:  12    -0.100556606325E+04   -0.38851E-04   -0.10060E-03  2880   0.149E-02-0.334E-03
CGA:  13    -0.100556610166E+04   -0.38409E-04   -0.48565E-04  2880   0.118E-03 0.922E-04
CGA:  14    -0.100556610837E+04   -0.67052E-05   -0.95685E-05  2880   0.814E-04 0.692E-04
   9 F= -.10055661E+04 E0= -.10055520E+04  d E =-.140362E-01  mag=     0.9997
       N       E                     dE             d eps       ncg     rms          ort
SDA:   1    -0.100518339692E+04    0.38270E+00    0.00000E+00  2880   0.961E+00 0.000E+00
CGA:   2    -0.100544185388E+04   -0.25846E+00   -0.25914E+00  2880   0.166E+01-0.411E-02
CGA:   3    -0.100553144723E+04   -0.89593E-01   -0.10263E+00  2880   0.307E+00-0.112E+00
CGA:   4    -0.100554743658E+04   -0.15989E-01   -0.16599E-01  2880   0.172E+00-0.511E-02
CGA:   5    -0.100556993201E+04   -0.22495E-01   -0.22489E-01  2880   0.519E-01-0.203E-03
CGA:   6    -0.100557318442E+04   -0.32524E-02   -0.33356E-02  2880   0.221E-01-0.161E-02
CGA:   7    -0.100557496278E+04   -0.17784E-02   -0.18093E-02  2880   0.189E-01 0.788E-03
CGA:   8    -0.100557660935E+04   -0.16466E-02   -0.16667E-02  2880   0.361E-02 0.557E-03
CGA:   9    -0.100557698339E+04   -0.37403E-03   -0.37035E-03  2880   0.353E-02-0.399E-03
CGA:  10    -0.100557724090E+04   -0.25751E-03   -0.25948E-03  2880   0.223E-02 0.590E-04
CGA:  11    -0.100557739016E+04   -0.14926E-03   -0.14997E-03  2880   0.577E-03-0.188E-05
CGA:  12    -0.100557747395E+04   -0.83795E-04   -0.89666E-04  2880   0.139E-02-0.124E-03
CGA:  13    -0.100557752692E+04   -0.52968E-04   -0.60120E-04  2880   0.529E-03 0.128E-03
CGA:  14    -0.100557754037E+04   -0.13454E-04   -0.20587E-04  2880   0.174E-03 0.102E-03
CGA:  15    -0.100557754970E+04   -0.93255E-05   -0.10525E-04  2880   0.126E-03 0.213E-04
CGA:  16    -0.100557756620E+04   -0.16500E-04   -0.30680E-04  2880   0.103E-02-0.123E-03
CGA:  17    -0.100557759233E+04   -0.26134E-04   -0.31840E-04  2880   0.241E-04 0.630E-04
CGA:  18    -0.100557759485E+04   -0.25223E-05   -0.24682E-05  2880   0.388E-04-0.101E-04
  10 F= -.10055776E+04 E0= -.10055633E+04  d E =-.114865E-01  mag=     0.9996
       N       E                     dE             d eps       ncg     rms          ort
SDA:   1    -0.100283802822E+04    0.27396E+01    0.00000E+00  2880   0.146E+02 0.000E+00
CGA:   2    -0.100368283735E+04   -0.84481E+00   -0.98104E+00  2880   0.111E+02-0.347E+01
CGA:   3    -0.100437423822E+04   -0.69140E+00   -0.67789E+00  2880   0.129E+02-0.354E+00
CGA:   4    -0.100531179811E+04   -0.93756E+00   -0.92834E+00  2880   0.156E+01-0.306E+00
CGA:   5    -0.100542659190E+04   -0.11479E+00   -0.11077E+00  2880   0.101E+01-0.271E-01
CGA:   6    -0.100551487471E+04   -0.88283E-01   -0.85262E-01  2880   0.583E+00-0.470E-01
CGA:   7    -0.100555885383E+04   -0.43979E-01   -0.44531E-01  2880   0.137E+00-0.251E-02
CGA:   8    -0.100557510200E+04   -0.16248E-01   -0.16093E-01  2880   0.890E-01 0.770E-02
CGA:   9    -0.100558241434E+04   -0.73123E-02   -0.74288E-02  2880   0.430E-01 0.252E-02
CGA:  10    -0.100558534582E+04   -0.29315E-02   -0.29851E-02  2880   0.194E-01-0.676E-03
CGA:  11    -0.100558820183E+04   -0.28560E-02   -0.28353E-02  2880   0.123E-01 0.452E-03
CGA:  12    -0.100558953251E+04   -0.13307E-02   -0.13336E-02  2880   0.492E-02-0.139E-02
CGA:  13    -0.100558997991E+04   -0.44741E-03   -0.44751E-03  2880   0.262E-02 0.702E-04
CGA:  14    -0.100559019511E+04   -0.21520E-03   -0.22068E-03  2880   0.219E-02 0.250E-03
CGA:  15    -0.100559048802E+04   -0.29291E-03   -0.29451E-03  2880   0.162E-02-0.984E-04
CGA:  16    -0.100559058985E+04   -0.10183E-03   -0.11260E-03  2880   0.183E-03 0.349E-03
CGA:  17    -0.100559064576E+04   -0.55918E-04   -0.63865E-05  2880   0.214E-02-0.159E-03
CGA:  18    -0.100559073650E+04   -0.90735E-04   -0.80410E-04  2880   0.164E-03-0.148E-03
CGA:  19    -0.100559074178E+04   -0.52836E-05   -0.10523E-04  2880   0.628E-04 0.474E-04
  11 F= -.10055907E+04 E0= -.10055770E+04  d E =-.131469E-01  mag=     0.9998
       N       E                     dE             d eps       ncg     rms          ort
SDA:   1    -0.100097040569E+04    0.46203E+01    0.00000E+00  2880   0.120E+02 0.000E+00
CGA:   2    -0.100382934147E+04   -0.28589E+01   -0.26419E+01  2880   0.918E+01 0.287E+01
CGA:   3    -0.100478332314E+04   -0.95398E+00   -0.10052E+01  2880   0.644E+01-0.182E+01
CGA:   4    -0.100515401543E+04   -0.37069E+00   -0.50359E+00  2880   0.429E+01-0.247E-01
CGA:   5    -0.100527704664E+04   -0.12303E+00   -0.25566E+00  2880   0.542E+01-0.191E+01
CGA:   6    -0.100536594958E+04   -0.88903E-01   -0.56074E-01  2880   0.315E+01 0.121E+01
CGA:   7    -0.100537476702E+04   -0.88174E-02   -0.97950E-01  2880   0.320E+01-0.389E+01
CGA:   8    -0.100543627919E+04   -0.61512E-01   -0.21262E+00  2880   0.143E+01-0.109E+01
CGA:   9    -0.100550582658E+04   -0.69547E-01   -0.63534E-01  2880   0.638E+00 0.418E-01
CGA:  10    -0.100553611086E+04   -0.30284E-01   -0.32892E-01  2880   0.249E+00-0.417E-01
CGA:  11    -0.100554875006E+04   -0.12639E-01   -0.12778E-01  2880   0.204E+00-0.559E-02
CGA:  12    -0.100556679319E+04   -0.18043E-01   -0.17972E-01  2880   0.119E+00-0.860E-03
CGA:  13    -0.100557382630E+04   -0.70331E-02   -0.67577E-02  2880   0.507E-01 0.545E-02
CGA:  14    -0.100557646207E+04   -0.26358E-02   -0.27163E-02  2880   0.141E-01-0.101E-02
CGA:  15    -0.100557774473E+04   -0.12827E-02   -0.12866E-02  2880   0.170E-01-0.363E-03
CGA:  16    -0.100557881144E+04   -0.10667E-02   -0.11027E-02  2880   0.106E-01 0.396E-03
CGA:  17    -0.100557961126E+04   -0.79982E-03   -0.82474E-03  2880   0.520E-02 0.527E-03
CGA:  18    -0.100557991293E+04   -0.30166E-03   -0.29349E-03  2880   0.291E-02-0.197E-03
CGA:  19    -0.100558019442E+04   -0.28150E-03   -0.28235E-03  2880   0.224E-02 0.679E-04
CGA:  20    -0.100558035141E+04   -0.15698E-03   -0.16934E-03  2880   0.164E-02 0.339E-03
CGA:  21    -0.100558047726E+04   -0.12585E-03   -0.12830E-03  2880   0.831E-03 0.318E-04
CGA:  22    -0.100558059971E+04   -0.12245E-03   -0.12334E-03  2880   0.931E-03-0.284E-04
CGA:  23    -0.100558063908E+04   -0.39375E-04   -0.48570E-04  2880   0.346E-03 0.166E-03
CGA:  24    -0.100558065969E+04   -0.20602E-04   -0.23391E-04  2880   0.116E-03 0.532E-04
CGA:  25    -0.100558067903E+04   -0.19340E-04   -0.24092E-04  2880   0.683E-03-0.633E-04
CGA:  26    -0.100558069201E+04   -0.12988E-04   -0.19507E-04  2880   0.284E-04 0.781E-04
CGA:  27    -0.100558069222E+04   -0.20852E-06   -0.13095E-05  2880   0.265E-04 0.177E-04
CGA:  28    -0.100558066987E+04    0.22355E-04   -0.12759E-04  2880   0.176E-02-0.775E-04
CGA:  29    -0.100558070990E+04   -0.40037E-04   -0.52746E-04  2880   0.896E-05 0.699E-04
CGA:  30    -0.100558070961E+04    0.29270E-06   -0.39158E-06  2880   0.731E-05 0.511E-05
  12 F= -.10055807E+04 E0= -.10055669E+04  d E =0.100322E-01  mag=     0.9999
       N       E                     dE             d eps       ncg     rms          ort
SDA:   1    -0.100418207460E+04    0.13986E+01    0.00000E+00  2880   0.445E+01 0.000E+00
CGA:   2    -0.100466118612E+04   -0.47911E+00   -0.53594E+00  2880   0.658E+01 0.467E-01
CGA:   3    -0.100526059746E+04   -0.59941E+00   -0.63506E+00  2880   0.568E+01-0.267E+00
CGA:   4    -0.100544246972E+04   -0.18187E+00   -0.31627E+00  2880   0.129E+01-0.170E+01
CGA:   5    -0.100550648441E+04   -0.64015E-01   -0.68222E-01  2880   0.606E+00-0.391E-01
CGA:   6    -0.100554141091E+04   -0.34926E-01   -0.32267E-01  2880   0.319E+00 0.344E-01
CGA:   7    -0.100557869194E+04   -0.37281E-01   -0.37374E-01  2880   0.157E+00-0.184E-02
CGA:   8    -0.100558738113E+04   -0.86892E-02   -0.86420E-02  2880   0.556E-01-0.719E-04
CGA:   9    -0.100559129888E+04   -0.39177E-02   -0.38250E-02  2880   0.344E-01 0.231E-02
CGA:  10    -0.100559635872E+04   -0.50598E-02   -0.50600E-02  2880   0.205E-01-0.147E-03
CGA:  11    -0.100559740678E+04   -0.10481E-02   -0.10239E-02  2880   0.655E-02-0.142E-03
CGA:  12    -0.100559794218E+04   -0.53540E-03   -0.54652E-03  2880   0.490E-02 0.309E-03
CGA:  13    -0.100559868758E+04   -0.74540E-03   -0.74858E-03  2880   0.377E-02-0.228E-03
CGA:  14    -0.100559888025E+04   -0.19266E-03   -0.18092E-03  2880   0.122E-02-0.151E-03
CGA:  15    -0.100559896336E+04   -0.83109E-04   -0.92953E-04  2880   0.757E-03 0.201E-03
CGA:  16    -0.100559906664E+04   -0.10328E-03   -0.10435E-03  2880   0.850E-03 0.148E-03
CGA:  17    -0.100559913848E+04   -0.71843E-04   -0.68732E-04  2880   0.366E-03-0.649E-04
CGA:  18    -0.100559915938E+04   -0.20903E-04   -0.24738E-04  2880   0.858E-04 0.774E-04
CGA:  19    -0.100559918053E+04   -0.21146E-04   -0.27555E-04  2880   0.583E-03-0.448E-04
CGA:  20    -0.100559920626E+04   -0.25733E-04   -0.20901E-04  2880   0.342E-04-0.570E-04
CGA:  21    -0.100559920600E+04    0.26771E-06   -0.13917E-05  2880   0.187E-04 0.213E-04
  13 F= -.10055992E+04 E0= -.10055851E+04  d E =-.184964E-01  mag=     0.9999
       N       E                     dE             d eps       ncg     rms          ort
SDA:   1    -0.100530821647E+04    0.29099E+00    0.00000E+00  2880   0.378E+01 0.000E+00
CGA:   2    -0.100546009612E+04   -0.15188E+00   -0.17756E+00  2880   0.653E+00-0.627E+00
CGA:   3    -0.100550393124E+04   -0.43835E-01   -0.43929E-01  2880   0.570E+00 0.694E-03
CGA:   4    -0.100556718208E+04   -0.63251E-01   -0.63304E-01  2880   0.233E+00 0.268E-01
CGA:   5    -0.100558660303E+04   -0.19421E-01   -0.19486E-01  2880   0.651E-01 0.272E-02
CGA:   6    -0.100559280822E+04   -0.62052E-02   -0.62120E-02  2880   0.644E-01-0.411E-03
CGA:   7    -0.100559809994E+04   -0.52917E-02   -0.52973E-02  2880   0.298E-01-0.164E-02
CGA:   8    -0.100560023922E+04   -0.21393E-02   -0.21610E-02  2880   0.541E-02 0.111E-02
CGA:   9    -0.100560074499E+04   -0.50577E-03   -0.50674E-03  2880   0.553E-02 0.287E-05
CGA:  10    -0.100560129799E+04   -0.55300E-03   -0.55222E-03  2880   0.447E-02-0.197E-03
CGA:  11    -0.100560159231E+04   -0.29432E-03   -0.31050E-03  2880   0.703E-03 0.498E-03
CGA:  12    -0.100560167625E+04   -0.83939E-04   -0.84780E-04  2880   0.157E-02-0.177E-03
CGA:  13    -0.100560179978E+04   -0.12353E-03   -0.20397E-03  2880   0.282E-02-0.115E-02
CGA:  14    -0.100560189472E+04   -0.94945E-04   -0.12208E-03  2880   0.355E-03 0.385E-03
CGA:  15    -0.100560190614E+04   -0.11415E-04   -0.22528E-04  2880   0.214E-03 0.231E-03
CGA:  16    -0.100560192341E+04   -0.17270E-04   -0.18139E-04  2880   0.123E-03 0.502E-04
CGA:  17    -0.100560192413E+04   -0.72669E-06   -0.66887E-05  2880   0.608E-04 0.105E-03
  14 F= -.10056019E+04 E0= -.10055884E+04  d E =-.271814E-02  mag=     0.9999
       N       E                     dE             d eps       ncg     rms          ort
SDA:   1    -0.100553910787E+04    0.62816E-01    0.00000E+00  2880   0.432E+00 0.000E+00
CGA:   2    -0.100556143024E+04   -0.22322E-01   -0.21784E-01  2880   0.137E+00 0.661E-03
CGA:   3    -0.100558646314E+04   -0.25033E-01   -0.24875E-01  2880   0.221E+00 0.146E-02
CGA:   4    -0.100560023510E+04   -0.13772E-01   -0.13260E-01  2880   0.139E-01 0.482E-02
CGA:   5    -0.100560386853E+04   -0.36334E-02   -0.35687E-02  2880   0.107E-01 0.406E-03
CGA:   6    -0.100560441740E+04   -0.54887E-03   -0.54618E-03  2880   0.198E-02-0.120E-03
CGA:   7    -0.100560470906E+04   -0.29167E-03   -0.32441E-03  2880   0.500E-02-0.515E-03
CGA:   8    -0.100560493269E+04   -0.22362E-03   -0.22825E-03  2880   0.987E-03 0.115E-03
CGA:   9    -0.100560495136E+04   -0.18675E-04   -0.29533E-04  2880   0.283E-03 0.156E-03
CGA:  10    -0.100560496221E+04   -0.10852E-04   -0.17154E-04  2880   0.338E-03 0.137E-03
CGA:  11    -0.100560499684E+04   -0.34627E-04   -0.37624E-04  2880   0.199E-03 0.143E-03
CGA:  12    -0.100560501863E+04   -0.21789E-04   -0.20876E-04  2880   0.113E-03-0.454E-04
CGA:  13    -0.100560502408E+04   -0.54539E-05   -0.58713E-05  2880   0.919E-04 0.154E-04
  15 F= -.10056050E+04 E0= -.10055913E+04  d E =-.309995E-02  mag=     0.9999
       N       E                     dE             d eps       ncg     rms          ort
SDA:   1    -0.100549179763E+04    0.11322E+00    0.00000E+00  2880   0.361E+00 0.000E+00
CGA:   2    -0.100552452592E+04   -0.32728E-01   -0.32744E-01  2880   0.526E+00 0.798E-02
CGA:   3    -0.100559287823E+04   -0.68352E-01   -0.68362E-01  2880   0.590E-01-0.899E-03
CGA:   4    -0.100559849544E+04   -0.56172E-02   -0.56202E-02  2880   0.568E-01-0.281E-03
CGA:   5    -0.100560457769E+04   -0.60822E-02   -0.60975E-02  2880   0.163E-01-0.136E-02
CGA:   6    -0.100560528313E+04   -0.70544E-03   -0.72345E-03  2880   0.379E-02 0.111E-03
CGA:   7    -0.100560613167E+04   -0.84854E-03   -0.78453E-03  2880   0.599E-03 0.561E-03
CGA:   8    -0.100560626445E+04   -0.13278E-03   -0.14054E-03  2880   0.185E-02-0.759E-04
CGA:   9    -0.100560637221E+04   -0.10776E-03   -0.97181E-04  2880   0.287E-03-0.251E-03
CGA:  10    -0.100560638585E+04   -0.13646E-04   -0.15433E-04  2880   0.286E-03 0.450E-04
CGA:  11    -0.100560640143E+04   -0.15573E-04   -0.21209E-04  2880   0.128E-03 0.163E-03
CGA:  12    -0.100560641101E+04   -0.95832E-05   -0.95252E-05  2880   0.108E-03-0.370E-05
CGA:  13    -0.100560642893E+04   -0.17923E-04   -0.17697E-04  2880   0.117E-03 0.289E-05
CGA:  14    -0.100560643018E+04   -0.12431E-05   -0.41413E-05  2880   0.205E-04 0.444E-04
  16 F= -.10056064E+04 E0= -.10055926E+04  d E =-.140609E-02  mag=     0.9999
       N       E                     dE             d eps       ncg     rms          ort
SDA:   1    -0.100446802009E+04    0.11384E+01    0.00000E+00  2880   0.280E+01 0.000E+00
CGA:   2    -0.100501575694E+04   -0.54774E+00   -0.56939E+00  2880   0.836E+01-0.139E+00
CGA:   3    -0.100548248133E+04   -0.46672E+00   -0.46923E+00  2880   0.436E+00-0.132E+00
CGA:   4    -0.100556132237E+04   -0.78841E-01   -0.77833E-01  2880   0.558E+00 0.110E-01
CGA:   5    -0.100559008769E+04   -0.28765E-01   -0.26818E-01  2880   0.743E-01 0.275E-01
CGA:   6    -0.100559619056E+04   -0.61029E-02   -0.61687E-02  2880   0.589E-01 0.191E-02
CGA:   7    -0.100560379092E+04   -0.76004E-02   -0.75457E-02  2880   0.356E-01 0.157E-02
CGA:   8    -0.100560520463E+04   -0.14137E-02   -0.14788E-02  2880   0.664E-02 0.134E-03
CGA:   9    -0.100560675997E+04   -0.15553E-02   -0.17040E-02  2880   0.934E-02-0.925E-03
CGA:  10    -0.100560716362E+04   -0.40364E-03   -0.37757E-03  2880   0.269E-02-0.688E-03
CGA:  11    -0.100560737345E+04   -0.20983E-03   -0.21355E-03  2880   0.246E-02 0.233E-03
CGA:  12    -0.100560757895E+04   -0.20550E-03   -0.21935E-03  2880   0.979E-03 0.770E-03
CGA:  13    -0.100560764307E+04   -0.64111E-04   -0.69679E-04  2880   0.525E-03 0.113E-03
CGA:  14    -0.100560778746E+04   -0.14439E-03   -0.13009E-03  2880   0.190E-03 0.114E-03
CGA:  15    -0.100560776470E+04    0.22763E-04   -0.82093E-04  2880   0.324E-02-0.419E-03
CGA:  16    -0.100560788008E+04   -0.11538E-03   -0.11557E-03  2880   0.166E-03-0.206E-04
CGA:  17    -0.100560787996E+04    0.12108E-06   -0.59290E-05  2880   0.631E-04 0.795E-04
  17 F= -.10056079E+04 E0= -.10055938E+04  d E =-.144978E-02  mag=     0.9998
       N       E                     dE             d eps       ncg     rms          ort
SDA:   1    -0.100488863322E+04    0.71925E+00    0.00000E+00  2880   0.283E+01 0.000E+00
CGA:   2    -0.100510724399E+04   -0.21861E+00   -0.23091E+00  2880   0.206E+01 0.950E-01
CGA:   3    -0.100547518747E+04   -0.36794E+00   -0.39567E+00  2880   0.226E+01-0.315E+00
CGA:   4    -0.100555255754E+04   -0.77370E-01   -0.73716E-01  2880   0.204E+00 0.242E-01
CGA:   5    -0.100557451460E+04   -0.21957E-01   -0.21911E-01  2880   0.284E+00 0.893E-02
CGA:   6    -0.100559543540E+04   -0.20921E-01   -0.21063E-01  2880   0.101E+00 0.334E-02
CGA:   7    -0.100560047404E+04   -0.50386E-02   -0.51786E-02  2880   0.192E-01-0.908E-03
CGA:   8    -0.100560265514E+04   -0.21811E-02   -0.22006E-02  2880   0.384E-01-0.138E-02
CGA:   9    -0.100560506805E+04   -0.24129E-02   -0.24033E-02  2880   0.680E-02-0.317E-03
CGA:  10    -0.100560536082E+04   -0.29277E-03   -0.31435E-03  2880   0.349E-02 0.502E-03
CGA:  11    -0.100560567254E+04   -0.31171E-03   -0.31702E-03  2880   0.338E-02 0.432E-03
CGA:  12    -0.100560596323E+04   -0.29069E-03   -0.29754E-03  2880   0.161E-02 0.370E-03
CGA:  13    -0.100560603288E+04   -0.69651E-04   -0.79431E-04  2880   0.661E-03 0.176E-03
CGA:  14    -0.100560617665E+04   -0.14378E-03   -0.18131E-03  2880   0.222E-02-0.243E-03
CGA:  15    -0.100560623714E+04   -0.60487E-04   -0.44085E-04  2880   0.757E-03-0.246E-03
CGA:  16    -0.100560626263E+04   -0.25488E-04   -0.19676E-04  2880   0.365E-03-0.101E-03
CGA:  17    -0.100560627323E+04   -0.10602E-04   -0.13489E-04  2880   0.411E-03 0.548E-04
CGA:  18    -0.100560628070E+04   -0.74667E-05   -0.17547E-04  2880   0.349E-03 0.188E-03
CGA:  19    -0.100560628716E+04   -0.64589E-05   -0.17705E-04  2880   0.211E-03 0.212E-03
CGA:  20    -0.100560630111E+04   -0.13952E-04   -0.12806E-04  2880   0.145E-03-0.490E-04
CGA:  21    -0.100560631027E+04   -0.91601E-05   -0.92273E-05  2880   0.822E-04 0.557E-04
  18 F= -.10056063E+04 E0= -.10055917E+04  d E =0.156969E-02  mag=     0.9998
       N       E                     dE             d eps       ncg     rms          ort
SDA:   1    -0.100511477379E+04    0.49153E+00    0.00000E+00  2880   0.121E+01 0.000E+00
CGA:   2    -0.100537536952E+04   -0.26060E+00   -0.26274E+00  2880   0.332E+01-0.124E-01
CGA:   3    -0.100555397494E+04   -0.17861E+00   -0.18024E+00  2880   0.229E+00-0.188E-01
CGA:   4    -0.100557998275E+04   -0.26008E-01   -0.25928E-01  2880   0.232E+00 0.410E-03
CGA:   5    -0.100560397728E+04   -0.23995E-01   -0.23984E-01  2880   0.248E-01 0.378E-03
CGA:   6    -0.100560611245E+04   -0.21352E-02   -0.21401E-02  2880   0.302E-01 0.101E-02
CGA:   7    -0.100560949409E+04   -0.33816E-02   -0.33785E-02  2880   0.579E-02 0.267E-04
CGA:   8    -0.100560988701E+04   -0.39292E-03   -0.39922E-03  2880   0.252E-02 0.315E-03
CGA:   9    -0.100561046145E+04   -0.57443E-03   -0.96266E-03  2880   0.422E-02-0.143E-02
CGA:  10    -0.100561060441E+04   -0.14296E-03   -0.17020E-03  2880   0.112E-02 0.457E-03
CGA:  11    -0.100561072030E+04   -0.11589E-03   -0.11796E-03  2880   0.547E-03 0.426E-03
CGA:  12    -0.100561077545E+04   -0.55151E-04   -0.56437E-04  2880   0.335E-03 0.450E-04
CGA:  13    -0.100561079697E+04   -0.21515E-04   -0.24567E-04  2880   0.209E-03 0.971E-04
CGA:  14    -0.100561082929E+04   -0.32320E-04   -0.32662E-04  2880   0.259E-03-0.152E-04
CGA:  15    -0.100561058534E+04    0.24394E-03   -0.99887E-04  2880   0.585E-02-0.108E-02
CGA:  16    -0.100561074934E+04   -0.16399E-03   -0.19266E-03  2880   0.562E-03 0.385E-03
CGA:  17    -0.100561079672E+04   -0.47385E-04   -0.53431E-04  2880   0.435E-03 0.288E-03
CGA:  18    -0.100561083302E+04   -0.36301E-04   -0.34524E-04  2880   0.492E-03-0.656E-04
CGA:  19    -0.100561086466E+04   -0.31634E-04   -0.35417E-04  2880   0.239E-03 0.165E-03
CGA:  20    -0.100561087237E+04   -0.77146E-05   -0.13597E-04  2880   0.629E-04 0.919E-04
  19 F= -.10056109E+04 E0= -.10055965E+04  d E =-.456210E-02  mag=     0.9997
       N       E                     dE             d eps       ncg     rms          ort
SDA:   1    -0.100550550424E+04    0.10536E+00    0.00000E+00  2880   0.131E+01 0.000E+00
CGA:   2    -0.100556251274E+04   -0.57008E-01   -0.60285E-01  2880   0.158E+00-0.535E-01
CGA:   3    -0.100557695059E+04   -0.14438E-01   -0.14455E-01  2880   0.237E+00 0.249E-02
CGA:   4    -0.100560321969E+04   -0.26269E-01   -0.26208E-01  2880   0.507E-01 0.372E-02
CGA:   5    -0.100560665402E+04   -0.34343E-02   -0.34698E-02  2880   0.194E-01 0.509E-03
CGA:   6    -0.100560890902E+04   -0.22550E-02   -0.22638E-02  2880   0.255E-01-0.607E-03
CGA:   7    -0.100561056238E+04   -0.16534E-02   -0.16120E-02  2880   0.419E-02-0.172E-02
CGA:   8    -0.100561086461E+04   -0.30224E-03   -0.31256E-03  2880   0.207E-02 0.527E-03
CGA:   9    -0.100561105351E+04   -0.18890E-03   -0.19551E-03  2880   0.137E-02 0.484E-03
CGA:  10    -0.100561117704E+04   -0.12353E-03   -0.12353E-03  2880   0.595E-03-0.175E-04
CGA:  11    -0.100561124220E+04   -0.65162E-04   -0.63225E-04  2880   0.221E-03 0.159E-03
CGA:  12    -0.100561130480E+04   -0.62601E-04    0.83201E-04  2880   0.848E-04 0.167E-03
CGA:  13    -0.100561132705E+04   -0.22245E-04    0.11227E-04  2880   0.564E-04 0.631E-04
CGA:  14    -0.100561133988E+04   -0.12834E-04    0.14908E-04  2880   0.497E-04 0.436E-04
CGA:  15    -0.100561135062E+04   -0.10736E-04    0.19522E-04  2880   0.641E-04 0.241E-04
CGA:  16    -0.100561133093E+04    0.19688E-04   -0.16883E-04  2880   0.159E-02-0.147E-03
CGA:  17    -0.100561139192E+04   -0.60991E-04   -0.52759E-04  2880   0.600E-04-0.706E-04
CGA:  18    -0.100561139365E+04   -0.17240E-05   -0.46681E-05  2880   0.279E-04 0.338E-04
  20 F= -.10056114E+04 E0= -.10055975E+04  d E =-.521275E-03  mag=     0.9998
       N       E                     dE             d eps       ncg     rms          ort
SDA:   1    -0.100552894446E+04    0.82447E-01    0.00000E+00  2880   0.462E+00 0.000E+00
CGA:   2    -0.100555220245E+04   -0.23258E-01   -0.32164E-01  2880   0.328E+00-0.868E-01
CGA:   3    -0.100558868943E+04   -0.36487E-01   -0.36521E-01  2880   0.314E+00 0.578E-03
CGA:   4    -0.100560529965E+04   -0.16610E-01   -0.17160E-01  2880   0.282E-01-0.793E-02
CGA:   5    -0.100560860392E+04   -0.33043E-02   -0.33069E-02  2880   0.235E-01-0.251E-03
CGA:   6    -0.100561118333E+04   -0.25794E-02   -0.26101E-02  2880   0.611E-02 0.947E-03
CGA:   7    -0.100561160633E+04   -0.42300E-03   -0.40218E-03  2880   0.366E-02-0.394E-03
CGA:   8    -0.100561199924E+04   -0.39291E-03   -0.39069E-03  2880   0.265E-02-0.927E-04
CGA:   9    -0.100561220451E+04   -0.20527E-03   -0.20939E-03  2880   0.425E-03 0.455E-04
CGA:  10    -0.100561226288E+04   -0.58371E-04   -0.58397E-04  2880   0.405E-03 0.273E-05
CGA:  11    -0.100561229038E+04   -0.27502E-04   -0.34987E-04  2880   0.655E-04 0.139E-03
CGA:  12    -0.100561230547E+04   -0.15087E-04   -0.15650E-04  2880   0.301E-03-0.143E-04
CGA:  13    -0.100561231881E+04   -0.13339E-04   -0.13911E-04  2880   0.322E-03 0.731E-05
CGA:  14    -0.100561232550E+04   -0.66910E-05   -0.84545E-05  2880   0.589E-04 0.139E-04
  21 F= -.10056123E+04 E0= -.10055982E+04  d E =-.931854E-03  mag=     0.9998
