       N       E                     dE             d eps       ncg     rms          rms(c)
DAV:   1     0.583138352968E+04    0.58314E+04   -0.21044E+05 16232   0.165E+03
DAV:   2     0.414045320332E+03   -0.54173E+04   -0.49355E+04 15992   0.500E+02
DAV:   3    -0.426950963685E+03   -0.84100E+03   -0.78376E+03 16952   0.203E+02
DAV:   4    -0.475380677867E+03   -0.48430E+02   -0.47873E+02 18016   0.489E+01
DAV:   5    -0.476059678238E+03   -0.67900E+00   -0.67744E+00 17288   0.640E+00    0.111E+02
DAV:   6    -0.394483057495E+03    0.81577E+02   -0.56520E+02 19784   0.939E+01    0.979E+01
DAV:   7    -0.385538100107E+03    0.89450E+01   -0.22325E+02 17808   0.762E+01    0.518E+01
DAV:   8    -0.378542646908E+03    0.69955E+01   -0.35050E+01 18664   0.247E+01    0.265E+01
DAV:   9    -0.379053881036E+03   -0.51123E+00   -0.80010E+00 18456   0.132E+01    0.196E+01
DAV:  10    -0.379239340810E+03   -0.18546E+00   -0.30036E+00 17200   0.540E+00    0.858E+00
DAV:  11    -0.378977449720E+03    0.26189E+00   -0.13232E+00 18728   0.554E+00    0.343E+00
DAV:  12    -0.379038009219E+03   -0.60559E-01   -0.19473E-01 17176   0.205E+00    0.226E+00
DAV:  13    -0.379048593160E+03   -0.10584E-01   -0.46941E-02 17304   0.914E-01    0.968E-01
DAV:  14    -0.379051575955E+03   -0.29828E-02   -0.92827E-03 18128   0.366E-01    0.515E-01
DAV:  15    -0.379052250362E+03   -0.67441E-03   -0.39099E-03 16968   0.177E-01    0.284E-01
DAV:  16    -0.379052096513E+03    0.15385E-03   -0.12038E-03 17512   0.121E-01    0.130E-01
DAV:  17    -0.379052170861E+03   -0.74349E-04   -0.37360E-04 17968   0.699E-02    0.499E-02
DAV:  18    -0.379052204364E+03   -0.33502E-04   -0.64734E-05 16648   0.297E-02    0.231E-02
DAV:  19    -0.379052214416E+03   -0.10052E-04   -0.25203E-05 17104   0.163E-02    0.160E-02
DAV:  20    -0.379052219456E+03   -0.50403E-05   -0.62711E-06 14968   0.813E-03    0.100E-02
DAV:  21    -0.379052221648E+03   -0.21922E-05   -0.19332E-06 12216   0.465E-03    0.570E-03
DAV:  22    -0.379052222369E+03   -0.72087E-06   -0.83354E-07  9440   0.321E-03
   1 F= -.37905222E+03 E0= -.37905222E+03  d E =-.379052E+03  mag=    54.9999
       N       E                     dE             d eps       ncg     rms          rms(c)
DAV:   1    -0.379054657854E+03   -0.24362E-02   -0.13107E-01 17808   0.108E+00    0.152E-01
DAV:   2    -0.379055368097E+03   -0.71024E-03   -0.70040E-03 17312   0.222E-01    0.135E-01
DAV:   3    -0.379055372733E+03   -0.46365E-05   -0.34124E-04 17104   0.781E-02    0.798E-02
DAV:   4    -0.379055363851E+03    0.88817E-05   -0.24823E-05 18128   0.168E-02    0.419E-02
DAV:   5    -0.379055359575E+03    0.42768E-05   -0.23330E-05 18448   0.157E-02    0.136E-02
DAV:   6    -0.379055360441E+03   -0.86627E-06   -0.86700E-06 16264   0.102E-02
   2 F= -.37905536E+03 E0= -.37905536E+03  d E =-.313807E-02  mag=    55.0000
       N       E                     dE             d eps       ncg     rms          rms(c)
DAV:   1    -0.379035146290E+03    0.20213E-01   -0.55924E+00 17760   0.705E+00    0.976E-01
DAV:   2    -0.379065451956E+03   -0.30306E-01   -0.29814E-01 17288   0.144E+00    0.864E-01
DAV:   3    -0.379065668291E+03   -0.21634E-03   -0.14426E-02 17064   0.503E-01    0.512E-01
DAV:   4    -0.379065303716E+03    0.36458E-03   -0.10267E-03 18432   0.109E-01    0.269E-01
DAV:   5    -0.379065116982E+03    0.18673E-03   -0.10268E-03 18776   0.102E-01    0.880E-02
DAV:   6    -0.379065155653E+03   -0.38672E-04   -0.35123E-04 17440   0.628E-02    0.605E-02
DAV:   7    -0.379065147675E+03    0.79783E-05   -0.42321E-05 17144   0.318E-02    0.331E-02
DAV:   8    -0.379065145246E+03    0.24295E-05   -0.82828E-06 16512   0.134E-02    0.152E-02
DAV:   9    -0.379065144750E+03    0.49511E-06   -0.31791E-06 14528   0.784E-03
   3 F= -.37906514E+03 E0= -.37906514E+03  d E =-.978431E-02  mag=    55.0000
       N       E                     dE             d eps       ncg     rms          rms(c)
DAV:   1    -0.379064214360E+03    0.93089E-03   -0.10439E-01 20664   0.177E+00    0.188E-01
DAV:   2    -0.379066006037E+03   -0.17917E-02   -0.17166E-02 17272   0.311E-01    0.119E-01
DAV:   3    -0.379066089895E+03   -0.83857E-04   -0.54206E-04 16188   0.794E-02    0.677E-02
DAV:   4    -0.379066084563E+03    0.53322E-05   -0.40927E-05 18096   0.225E-02    0.383E-02
DAV:   5    -0.379066075960E+03    0.86023E-05   -0.13823E-05 17864   0.177E-02    0.204E-02
DAV:   6    -0.379066076065E+03   -0.10425E-06   -0.86049E-06 17488   0.112E-02
   4 F= -.37906608E+03 E0= -.37906608E+03  d E =-.931314E-03  mag=    55.0000
       N       E                     dE             d eps       ncg     rms          rms(c)
DAV:   1    -0.379057227139E+03    0.88488E-02   -0.53311E-01 20568   0.399E+00    0.426E-01
DAV:   2    -0.379066380037E+03   -0.91529E-02   -0.87686E-02 17264   0.703E-01    0.269E-01
DAV:   3    -0.379066809941E+03   -0.42990E-03   -0.27740E-03 16192   0.180E-01    0.153E-01
DAV:   4    -0.379066783373E+03    0.26568E-04   -0.20840E-04 18168   0.509E-02    0.866E-02
DAV:   5    -0.379066740302E+03    0.43072E-04   -0.70099E-05 18432   0.398E-02    0.462E-02
DAV:   6    -0.379066740901E+03   -0.59896E-06   -0.43829E-05 18576   0.253E-02    0.186E-02
DAV:   7    -0.379066742093E+03   -0.11921E-05   -0.11704E-05 16608   0.127E-02    0.106E-02
DAV:   8    -0.379066742137E+03   -0.43707E-07   -0.79792E-07  9288   0.422E-03
   5 F= -.37906674E+03 E0= -.37906674E+03  d E =-.666072E-03  mag=    55.0000
       N       E                     dE             d eps       ncg     rms          rms(c)
DAV:   1    -0.379066127134E+03    0.61496E-03   -0.90614E-02 19460   0.138E+00    0.151E-01
DAV:   2    -0.379067300507E+03   -0.11734E-02   -0.11288E-02 17176   0.260E-01    0.909E-02
DAV:   3    -0.379067340390E+03   -0.39884E-04   -0.29767E-04 16428   0.601E-02    0.520E-02
DAV:   4    -0.379067336135E+03    0.42554E-05   -0.23613E-05 18520   0.160E-02    0.314E-02
DAV:   5    -0.379067329074E+03    0.70606E-05   -0.79482E-06 16880   0.147E-02    0.172E-02
DAV:   6    -0.379067328981E+03    0.93751E-07   -0.75155E-06 17272   0.949E-03
   6 F= -.37906733E+03 E0= -.37906733E+03  d E =-.586844E-03  mag=    55.0000
       N       E                     dE             d eps       ncg     rms          rms(c)
DAV:   1    -0.379053543585E+03    0.13785E-01   -0.11111E+00 19408   0.483E+00    0.530E-01
DAV:   2    -0.379067927708E+03   -0.14384E-01   -0.13835E-01 17120   0.909E-01    0.320E-01
DAV:   3    -0.379068417776E+03   -0.49007E-03   -0.36736E-03 16440   0.211E-01    0.182E-01
DAV:   4    -0.379068365208E+03    0.52568E-04   -0.29299E-04 18712   0.564E-02    0.110E-01
DAV:   5    -0.379068278082E+03    0.87126E-04   -0.97320E-05 18704   0.512E-02    0.609E-02
DAV:   6    -0.379068276096E+03    0.19863E-05   -0.92661E-05 18968   0.335E-02    0.223E-02
DAV:   7    -0.379068278277E+03   -0.21814E-05   -0.19524E-05 16696   0.140E-02    0.103E-02
DAV:   8    -0.379068278297E+03   -0.19754E-07   -0.72580E-07  9440   0.420E-03
   7 F= -.37906828E+03 E0= -.37906828E+03  d E =-.949316E-03  mag=    55.0000
       N       E                     dE             d eps       ncg     rms          rms(c)
DAV:   1    -0.379066704341E+03    0.15739E-02   -0.10276E-01 21160   0.188E+00    0.200E-01
DAV:   2    -0.379068672762E+03   -0.19684E-02   -0.18714E-02 17064   0.329E-01    0.119E-01
DAV:   3    -0.379068766860E+03   -0.94098E-04   -0.62623E-04 16496   0.829E-02    0.685E-02
DAV:   4    -0.379068762859E+03    0.40010E-05   -0.47375E-05 18328   0.228E-02    0.392E-02
DAV:   5    -0.379068754728E+03    0.81309E-05   -0.12257E-05 18464   0.171E-02    0.239E-02
DAV:   6    -0.379068753889E+03    0.83890E-06   -0.85523E-06 18720   0.129E-02
   8 F= -.37906875E+03 E0= -.37906875E+03  d E =-.475592E-03  mag=    55.0000
       N       E                     dE             d eps       ncg     rms          rms(c)
DAV:   1    -0.379068325734E+03    0.42899E-03   -0.24113E-02 21316   0.907E-01    0.966E-02
DAV:   2    -0.379068782241E+03   -0.45651E-03   -0.43395E-03 17008   0.159E-01    0.584E-02
DAV:   3    -0.379068804767E+03   -0.22525E-04   -0.14773E-04 16520   0.404E-02    0.339E-02
DAV:   4    -0.379068803934E+03    0.83259E-06   -0.10936E-05 17424   0.110E-02    0.194E-02
DAV:   5    -0.379068802133E+03    0.18007E-05   -0.27620E-06 13216   0.830E-03    0.118E-02
DAV:   6    -0.379068801980E+03    0.15319E-06   -0.21591E-06 12032   0.636E-03
   9 F= -.37906880E+03 E0= -.37906880E+03  d E =-.480912E-04  mag=    55.0000
       N       E                     dE             d eps       ncg     rms          rms(c)
DAV:   1    -0.379067988914E+03    0.81322E-03   -0.89568E-02 19136   0.135E+00    0.135E-01
DAV:   2    -0.379068999142E+03   -0.10102E-02   -0.98117E-03 17152   0.247E-01    0.812E-02
DAV:   3    -0.379069032470E+03   -0.33328E-04   -0.26983E-04 16456   0.585E-02    0.490E-02
DAV:   4    -0.379069028239E+03    0.42315E-05   -0.22674E-05 18080   0.174E-02    0.294E-02
DAV:   5    -0.379069021955E+03    0.62836E-05   -0.98144E-06 17824   0.155E-02    0.150E-02
DAV:   6    -0.379069022101E+03   -0.14522E-06   -0.62205E-06 17504   0.845E-03
  10 F= -.37906902E+03 E0= -.37906902E+03  d E =-.220120E-03  mag=    55.0000
       N       E                     dE             d eps       ncg     rms          rms(c)
DAV:   1    -0.379068959455E+03    0.62500E-04   -0.68500E-03 19208   0.370E-01    0.376E-02
DAV:   2    -0.379069036099E+03   -0.76644E-04   -0.74514E-04 17032   0.687E-02    0.225E-02
DAV:   3    -0.379069038817E+03   -0.27183E-05   -0.21298E-05 16368   0.163E-02    0.137E-02
DAV:   4    -0.379069038510E+03    0.30684E-06   -0.17308E-06 11808   0.505E-03
  11 F= -.37906904E+03 E0= -.37906904E+03  d E =-.164100E-04  mag=    55.0000
       N       E                     dE             d eps       ncg     rms          rms(c)
DAV:   1    -0.379067517351E+03    0.15215E-02   -0.76825E-02 21332   0.175E+00    0.182E-01
DAV:   2    -0.379069104892E+03   -0.15875E-02   -0.14909E-02 17016   0.300E-01    0.976E-02
DAV:   3    -0.379069178194E+03   -0.73302E-04   -0.43459E-04 16188   0.681E-02    0.508E-02
DAV:   4    -0.379069174739E+03    0.34548E-05   -0.32074E-05 18352   0.195E-02    0.333E-02
DAV:   5    -0.379069168804E+03    0.59351E-05   -0.72693E-06 17212   0.153E-02    0.193E-02
DAV:   6    -0.379069168369E+03    0.43539E-06   -0.61187E-06 17584   0.113E-02
  12 F= -.37906917E+03 E0= -.37906917E+03  d E =-.129858E-03  mag=    55.0000
