       N       E                     dE             d eps       ncg     rms          rms(c)
DAV:   1     0.851882460201E+04    0.85188E+04   -0.36113E+05 27128   0.170E+03
DAV:   2     0.400844335163E+03   -0.81180E+04   -0.74569E+04 26344   0.458E+02
DAV:   3    -0.778471338004E+03   -0.11793E+04   -0.11522E+04 27768   0.195E+02
DAV:   4    -0.838964164574E+03   -0.60493E+02   -0.57086E+02 31104   0.440E+01
DAV:   5    -0.841265089289E+03   -0.23009E+01   -0.22362E+01 31864   0.710E+00    0.113E+02
DAV:   6    -0.716451017426E+03    0.12481E+03   -0.77124E+02 32976   0.645E+01    0.103E+02
DAV:   7    -0.750922996439E+03   -0.34472E+02   -0.13158E+02 30464   0.311E+01    0.541E+01
DAV:   8    -0.752146915197E+03   -0.12239E+01   -0.26325E+01 32736   0.160E+01    0.291E+01
DAV:   9    -0.754810118080E+03   -0.26632E+01   -0.48980E+00 30440   0.679E+00    0.152E+01
DAV:  10    -0.755505542040E+03   -0.69542E+00   -0.13161E+00 30536   0.253E+00    0.691E+00
DAV:  11    -0.755707025861E+03   -0.20148E+00   -0.37191E-01 29464   0.149E+00    0.278E+00
DAV:  12    -0.755747302413E+03   -0.40277E-01   -0.75649E-02 29168   0.619E-01    0.145E+00
DAV:  13    -0.755771721427E+03   -0.24419E-01   -0.15988E-02 29760   0.520E-01    0.947E-01
DAV:  14    -0.755796575521E+03   -0.24854E-01   -0.14780E-02 30512   0.383E-01    0.583E-01
DAV:  15    -0.755810926164E+03   -0.14351E-01   -0.68736E-03 30808   0.265E-01    0.509E-01
DAV:  16    -0.755823430058E+03   -0.12504E-01   -0.35484E-03 35192   0.211E-01    0.492E-01
DAV:  17    -0.755836824713E+03   -0.13395E-01   -0.34151E-03 31616   0.210E-01    0.476E-01
DAV:  18    -0.755876997175E+03   -0.40172E-01   -0.30833E-02 32464   0.783E-01    0.466E-01
DAV:  19    -0.755909002876E+03   -0.32006E-01   -0.36652E-02 32112   0.580E-01    0.453E-01
DAV:  20    -0.755927877884E+03   -0.18875E-01   -0.13935E-02 29664   0.302E-01    0.433E-01
DAV:  21    -0.755966813147E+03   -0.38935E-01   -0.29784E-02 33544   0.806E-01    0.442E-01
DAV:  22    -0.755984263721E+03   -0.17451E-01   -0.20555E-02 29152   0.290E-01    0.424E-01
DAV:  23    -0.756000134971E+03   -0.15871E-01   -0.36995E-03 33072   0.275E-01    0.425E-01
DAV:  24    -0.756017599710E+03   -0.17465E-01   -0.87522E-03 29104   0.310E-01    0.433E-01
DAV:  25    -0.756036053380E+03   -0.18454E-01   -0.88757E-03 30424   0.344E-01    0.435E-01
DAV:  26    -0.756059970747E+03   -0.23917E-01   -0.14508E-02 30744   0.465E-01    0.453E-01
DAV:  27    -0.756044069765E+03    0.15901E-01   -0.11410E-02 26408   0.446E-01    0.431E-01
DAV:  28    -0.756041160431E+03    0.29093E-02   -0.12929E-03 28800   0.875E-02    0.427E-01
DAV:  29    -0.756053751903E+03   -0.12591E-01   -0.33446E-03 30160   0.271E-01    0.400E-01
DAV:  30    -0.756107548106E+03   -0.53796E-01   -0.17440E-01 32888   0.192E+00    0.673E-01
DAV:  31    -0.756159880315E+03   -0.52332E-01   -0.32821E-01 33128   0.211E+00    0.101E+00
DAV:  32    -0.756204525924E+03   -0.44646E-01   -0.11685E-01 26072   0.115E+00    0.909E-01
DAV:  33    -0.756175801906E+03    0.28724E-01   -0.24532E-02 34792   0.608E-01    0.998E-01
DAV:  34    -0.756184606559E+03   -0.88047E-02   -0.73567E-03 26344   0.303E-01    0.942E-01
DAV:  35    -0.756214238524E+03   -0.29632E-01   -0.45174E-02 31840   0.967E-01    0.880E-01
DAV:  36    -0.756248989644E+03   -0.34751E-01   -0.75746E-02 32624   0.950E-01    0.877E-01
DAV:  37    -0.756279311884E+03   -0.30322E-01   -0.43758E-02 30656   0.594E-01    0.911E-01
DAV:  38    -0.756295625336E+03   -0.16313E-01   -0.13394E-02 27192   0.289E-01    0.830E-01
DAV:  39    -0.756307620226E+03   -0.11995E-01   -0.60330E-03 34000   0.327E-01    0.711E-01
DAV:  40    -0.756313667767E+03   -0.60475E-02   -0.39846E-03 28592   0.129E-01    0.672E-01
DAV:  41    -0.756313826692E+03   -0.15892E-03   -0.67557E-04 25520   0.734E-02    0.694E-01
DAV:  42    -0.756304611441E+03    0.92153E-02   -0.30662E-03 32688   0.249E-01    0.635E-01
DAV:  43    -0.756237644851E+03    0.66967E-01   -0.81458E-02 31944   0.126E+00    0.702E-01
DAV:  44    -0.756254782970E+03   -0.17138E-01   -0.28783E-02 25968   0.329E-01    0.603E-01
DAV:  45    -0.756170261101E+03    0.84522E-01   -0.10787E-01 32040   0.151E+00    0.765E-01
DAV:  46    -0.756185320588E+03   -0.15059E-01   -0.39438E-02 26608   0.341E-01    0.695E-01
DAV:  47    -0.756176763733E+03    0.85569E-02   -0.12620E-03 40712   0.159E-01    0.726E-01
DAV:  48    -0.756183812248E+03   -0.70485E-02   -0.20737E-03 30264   0.220E-01    0.705E-01
DAV:  49    -0.756191222850E+03   -0.74106E-02   -0.23552E-03 33728   0.181E-01    0.693E-01
DAV:  50    -0.756167725480E+03    0.23497E-01   -0.13757E-02 31744   0.564E-01    0.759E-01
DAV:  51    -0.756088244948E+03    0.79481E-01   -0.98444E-02 32496   0.132E+00    0.975E-01
DAV:  52    -0.756095764678E+03   -0.75197E-02   -0.39841E-02 26560   0.368E-01    0.912E-01
DAV:  53    -0.756130683223E+03   -0.34919E-01   -0.31064E-02 29608   0.803E-01    0.838E-01
DAV:  54    -0.756153006503E+03   -0.22323E-01   -0.66753E-02 31960   0.102E+00    0.965E-01
DAV:  55    -0.756166509896E+03   -0.13503E-01   -0.25447E-02 26736   0.298E-01    0.112E+00
DAV:  56    -0.756192712002E+03   -0.26202E-01   -0.11984E-02 34160   0.502E-01    0.107E+00
DAV:  57    -0.756206477838E+03   -0.13766E-01   -0.10262E-02 33752   0.277E-01    0.109E+00
DAV:  58    -0.756215372631E+03   -0.88948E-02   -0.27582E-03 28792   0.125E-01    0.111E+00
DAV:  59    -0.756227070586E+03   -0.11698E-01   -0.59391E-03 32504   0.361E-01    0.110E+00
DAV:  60    -0.756238448536E+03   -0.11378E-01   -0.66287E-03 32512   0.225E-01    0.109E+00
DAV:  61    -0.756250678309E+03   -0.12230E-01   -0.33450E-03 32008   0.219E-01    0.109E+00
DAV:  62    -0.756263742471E+03   -0.13064E-01   -0.14754E-02 32160   0.528E-01    0.113E+00
DAV:  63    -0.756272213706E+03   -0.84712E-02   -0.74016E-03 26760   0.168E-01    0.117E+00
DAV:  64    -0.756273821148E+03   -0.16074E-02   -0.17032E-04 28416   0.323E-02    0.117E+00
DAV:  65    -0.756275998700E+03   -0.21776E-02   -0.14474E-04 29072   0.500E-02    0.117E+00
DAV:  66    -0.756279808752E+03   -0.38101E-02   -0.64412E-04 32032   0.103E-01    0.113E+00
DAV:  67    -0.756283444798E+03   -0.36360E-02   -0.10498E-03 31976   0.122E-01    0.111E+00
DAV:  68    -0.756286181935E+03   -0.27371E-02   -0.70407E-04 29968   0.758E-02    0.108E+00
DAV:  69    -0.756286667264E+03   -0.48533E-03   -0.24648E-04 24728   0.390E-02    0.107E+00
DAV:  70    -0.756286992399E+03   -0.32513E-03   -0.86312E-05 26744   0.381E-02    0.106E+00
DAV:  71    -0.756286254722E+03    0.73768E-03   -0.65307E-04 31248   0.109E-01    0.106E+00
DAV:  72    -0.756285865362E+03    0.38936E-03   -0.34567E-04 26336   0.424E-02    0.108E+00
DAV:  73    -0.756285844703E+03    0.20659E-04   -0.16224E-04 30864   0.484E-02    0.110E+00
DAV:  74    -0.756284552448E+03    0.12923E-02   -0.27068E-04 28776   0.594E-02    0.111E+00
DAV:  75    -0.756284476814E+03    0.75634E-04   -0.11275E-04 23352   0.225E-02    0.111E+00
DAV:  76    -0.756284903576E+03   -0.42676E-03   -0.65475E-06 15896   0.114E-02    0.111E+00
DAV:  77    -0.756285369478E+03   -0.46590E-03   -0.15489E-05 16936   0.157E-02    0.111E+00
DAV:  78    -0.756285796117E+03   -0.42664E-03   -0.16264E-05 16176   0.147E-02    0.111E+00
DAV:  79    -0.756285694454E+03    0.10166E-03   -0.75390E-06 15928   0.108E-02    0.111E+00
DAV:  80    -0.756285462729E+03    0.23173E-03   -0.67489E-06 14048   0.110E-02    0.111E+00
DAV:  81    -0.756289895826E+03   -0.44331E-02   -0.73618E-04 30784   0.126E-01    0.110E+00
DAV:  82    -0.756291043256E+03   -0.11474E-02   -0.29904E-04 27464   0.298E-02    0.111E+00
DAV:  83    -0.756291223061E+03   -0.17981E-03   -0.12435E-05 18120   0.753E-03    0.111E+00
DAV:  84    -0.756291252929E+03   -0.29868E-04   -0.83219E-07 13504   0.210E-03    0.111E+00
DAV:  85    -0.756291987176E+03   -0.73425E-03   -0.27675E-05 17120   0.257E-02    0.110E+00
DAV:  86    -0.756298234633E+03   -0.62475E-02   -0.39347E-02 36112   0.748E-01    0.725E-01
DAV:  87    -0.756297509630E+03    0.72500E-03   -0.13564E-02 26888   0.275E-01    0.743E-01
DAV:  88    -0.756290970593E+03    0.65390E-02   -0.15830E-03 32488   0.143E-01    0.770E-01
DAV:  89    -0.756293754782E+03   -0.27842E-02   -0.84436E-04 26064   0.108E-01    0.745E-01
DAV:  90    -0.756284120378E+03    0.96344E-02   -0.20712E-03 31472   0.214E-01    0.773E-01
DAV:  91    -0.756316220609E+03   -0.32100E-01   -0.60315E-02 31272   0.116E+00    0.577E-01
DAV:  92    -0.756334605494E+03   -0.18385E-01   -0.21019E-02 27872   0.278E-01    0.607E-01
DAV:  93    -0.756343393761E+03   -0.87883E-02   -0.23631E-03 33272   0.203E-01    0.575E-01
DAV:  94    -0.756351613742E+03   -0.82200E-02   -0.43001E-03 31144   0.224E-01    0.571E-01
DAV:  95    -0.756352947654E+03   -0.13339E-02   -0.19108E-03 26152   0.819E-02    0.586E-01
DAV:  96    -0.756364710035E+03   -0.11762E-01   -0.42993E-02 31200   0.942E-01    0.715E-01
DAV:  97    -0.756379777663E+03   -0.15068E-01   -0.14274E-02 27680   0.310E-01    0.702E-01
DAV:  98    -0.756384409226E+03   -0.46316E-02   -0.40343E-03 33240   0.245E-01    0.707E-01
DAV:  99    -0.756364141843E+03    0.20267E-01   -0.16697E-02 29880   0.613E-01    0.728E-01
DAV: 100    -0.756353450948E+03    0.10691E-01   -0.11415E-02 32792   0.314E-01    0.828E-01
DAV: 101    -0.756339944745E+03    0.13506E-01   -0.10143E-02 31760   0.377E-01    0.963E-01
DAV: 102    -0.756344040912E+03   -0.40962E-02   -0.44181E-03 25808   0.159E-01    0.913E-01
DAV: 103    -0.756339707323E+03    0.43336E-02   -0.12467E-03 33248   0.160E-01    0.947E-01
DAV: 104    -0.756342203477E+03   -0.24962E-02   -0.10326E-03 29128   0.107E-01    0.972E-01
DAV: 105    -0.756350412775E+03   -0.82093E-02   -0.42190E-03 35936   0.229E-01    0.984E-01
DAV: 106    -0.756335812784E+03    0.14600E-01   -0.11705E-02 32216   0.483E-01    0.110E+00
DAV: 107    -0.756343042709E+03   -0.72299E-02   -0.43111E-03 27176   0.203E-01    0.111E+00
DAV: 108    -0.756346770804E+03   -0.37281E-02   -0.71940E-04 35160   0.816E-02    0.113E+00
DAV: 109    -0.756350627447E+03   -0.38566E-02   -0.69475E-04 31280   0.855E-02    0.117E+00
DAV: 110    -0.756354100132E+03   -0.34727E-02   -0.81502E-04 32640   0.809E-02    0.125E+00
DAV: 111    -0.756346317418E+03    0.77827E-02   -0.29095E-03 29832   0.229E-01    0.129E+00
DAV: 112    -0.756361127824E+03   -0.14810E-01   -0.53886E-03 30512   0.344E-01    0.129E+00
DAV: 113    -0.756365568961E+03   -0.44411E-02   -0.26519E-03 30456   0.117E-01    0.132E+00
DAV: 114    -0.756372159881E+03   -0.65909E-02   -0.13538E-03 35216   0.140E-01    0.139E+00
DAV: 115    -0.756378471834E+03   -0.63120E-02   -0.20996E-03 32904   0.138E-01    0.146E+00
DAV: 116    -0.756406862759E+03   -0.28391E-01   -0.29813E-02 33440   0.746E-01    0.163E+00
DAV: 117    -0.756405743938E+03    0.11188E-02   -0.11333E-02 25920   0.261E-01    0.167E+00
DAV: 118    -0.756403365962E+03    0.23780E-02   -0.36087E-04 29784   0.542E-02    0.168E+00
DAV: 119    -0.756403968277E+03   -0.60232E-03   -0.21589E-04 28696   0.342E-02    0.172E+00
DAV: 120    -0.756403319203E+03    0.64907E-03   -0.57518E-05 26288   0.256E-02    0.174E+00
DAV: 121    -0.756411812939E+03   -0.84937E-02   -0.26023E-03 35400   0.206E-01    0.188E+00
DAV: 122    -0.756410668197E+03    0.11447E-02   -0.90758E-04 26736   0.554E-02    0.190E+00
DAV: 123    -0.756410919480E+03   -0.25128E-03   -0.47503E-05 25160   0.324E-02    0.186E+00
DAV: 124    -0.756410470795E+03    0.44868E-03   -0.22428E-05 17744   0.133E-02    0.186E+00
DAV: 125    -0.756412891076E+03   -0.24203E-02   -0.89723E-05 25688   0.446E-02    0.186E+00
DAV: 126    -0.756383524117E+03    0.29367E-01   -0.71119E-02 36472   0.936E-01    0.622E-01
DAV: 127    -0.756386000412E+03   -0.24763E-02   -0.24702E-02 28056   0.299E-01    0.597E-01
DAV: 128    -0.756385344763E+03    0.65565E-03   -0.73960E-04 29936   0.677E-02    0.625E-01
DAV: 129    -0.756385394090E+03   -0.49327E-04   -0.23422E-04 32968   0.423E-02    0.631E-01
DAV: 130    -0.756386351593E+03   -0.95750E-03   -0.22431E-04 32808   0.510E-02    0.638E-01
DAV: 131    -0.756390079946E+03   -0.37284E-02   -0.16215E-03 31200   0.180E-01    0.678E-01
DAV: 132    -0.756403842395E+03   -0.13762E-01   -0.12224E-02 31536   0.453E-01    0.654E-01
DAV: 133    -0.756415469854E+03   -0.11627E-01   -0.12656E-02 32616   0.335E-01    0.702E-01
DAV: 134    -0.756419381912E+03   -0.39121E-02   -0.34438E-03 25848   0.117E-01    0.738E-01
DAV: 135    -0.756419935804E+03   -0.55389E-03   -0.11109E-04 29432   0.390E-02    0.730E-01
DAV: 136    -0.756429503370E+03   -0.95676E-02   -0.16807E-02 32616   0.594E-01    0.628E-01
DAV: 137    -0.756431217567E+03   -0.17142E-02   -0.56910E-03 28328   0.293E-01    0.621E-01
DAV: 138    -0.756434143573E+03   -0.29260E-02   -0.10786E-03 30888   0.144E-01    0.593E-01
DAV: 139    -0.756438843143E+03   -0.46996E-02   -0.26210E-03 32872   0.179E-01    0.539E-01
DAV: 140    -0.756441736821E+03   -0.28937E-02   -0.17636E-03 29960   0.975E-02    0.534E-01
DAV: 141    -0.756445941443E+03   -0.42046E-02   -0.41718E-03 36184   0.271E-01    0.558E-01
DAV: 142    -0.756448801866E+03   -0.28604E-02   -0.24611E-03 28104   0.102E-01    0.584E-01
DAV: 143    -0.756447954412E+03    0.84745E-03   -0.44844E-04 26648   0.709E-02    0.587E-01
DAV: 144    -0.756447666370E+03    0.28804E-03   -0.45756E-05 23328   0.162E-02    0.588E-01
DAV: 145    -0.756441043685E+03    0.66227E-02   -0.29279E-03 31920   0.243E-01    0.565E-01
DAV: 146    -0.756440800194E+03    0.24349E-03   -0.36714E-03 30664   0.254E-01    0.626E-01
DAV: 147    -0.756439115644E+03    0.16845E-02   -0.13531E-03 27000   0.136E-01    0.572E-01
DAV: 148    -0.756439393586E+03   -0.27794E-03   -0.38168E-04 30072   0.486E-02    0.533E-01
DAV: 149    -0.756441317255E+03   -0.19237E-02   -0.27311E-04 31144   0.732E-02    0.556E-01
DAV: 150    -0.756442659750E+03   -0.13425E-02   -0.31894E-04 33360   0.522E-02    0.580E-01
DAV: 151    -0.756439816767E+03    0.28430E-02   -0.73605E-04 31200   0.118E-01    0.551E-01
DAV: 152    -0.756439074661E+03    0.74211E-03   -0.29962E-04 31128   0.491E-02    0.569E-01
DAV: 153    -0.756440012415E+03   -0.93775E-03   -0.27469E-04 31840   0.665E-02    0.596E-01
DAV: 154    -0.756440079277E+03   -0.66862E-04   -0.10033E-04 24624   0.184E-02    0.599E-01
DAV: 155    -0.756439845949E+03    0.23333E-03   -0.34239E-05 20120   0.250E-02    0.612E-01
DAV: 156    -0.756445541892E+03   -0.56959E-02   -0.22379E-03 32712   0.212E-01    0.694E-01
DAV: 157    -0.756441772461E+03    0.37694E-02   -0.32365E-03 32072   0.267E-01    0.774E-01
DAV: 158    -0.756445895492E+03   -0.41230E-02   -0.33874E-03 33680   0.133E-01    0.973E-01
DAV: 159    -0.756449325216E+03   -0.34297E-02   -0.99346E-04 33928   0.865E-02    0.108E+00
DAV: 160    -0.756451774823E+03   -0.24496E-02   -0.82724E-04 34984   0.958E-02    0.113E+00
DAV: 161    -0.756456224548E+03   -0.44497E-02   -0.22888E-03 34704   0.158E-01    0.121E+00
DAV: 162    -0.756459158845E+03   -0.29343E-02   -0.18645E-03 34264   0.114E-01    0.127E+00
DAV: 163    -0.756460075755E+03   -0.91691E-03   -0.52837E-04 29192   0.520E-02    0.129E+00
DAV: 164    -0.756460495561E+03   -0.41981E-03   -0.10573E-04 28024   0.295E-02    0.130E+00
DAV: 165    -0.756460475340E+03    0.20221E-04   -0.54828E-05 21840   0.148E-02    0.130E+00
DAV: 166    -0.756383424097E+03    0.77051E-01   -0.14979E-01 33168   0.149E+00    0.408E-01
DAV: 167    -0.756394473668E+03   -0.11050E-01   -0.51592E-02 28368   0.407E-01    0.278E-01
DAV: 168    -0.756392184191E+03    0.22895E-02   -0.16815E-03 30816   0.132E-01    0.287E-01
DAV: 169    -0.756399662203E+03   -0.74780E-02   -0.44013E-03 29728   0.286E-01    0.288E-01
DAV: 170    -0.756402131613E+03   -0.24694E-02   -0.15846E-03 34008   0.912E-02    0.285E-01
DAV: 171    -0.756383627785E+03    0.18504E-01   -0.13551E-02 30224   0.512E-01    0.352E-01
DAV: 172    -0.756391892686E+03   -0.82649E-02   -0.35298E-03 28560   0.208E-01    0.319E-01
DAV: 173    -0.756391986010E+03   -0.93325E-04   -0.46277E-04 30592   0.750E-02    0.312E-01
DAV: 174    -0.756391809113E+03    0.17690E-03   -0.31730E-03 31152   0.227E-01    0.292E-01
DAV: 175    -0.756394271494E+03   -0.24624E-02   -0.83336E-03 32616   0.300E-01    0.306E-01
DAV: 176    -0.756403128947E+03   -0.88575E-02   -0.16401E-02 32408   0.490E-01    0.367E-01
DAV: 177    -0.756411503905E+03   -0.83750E-02   -0.97593E-03 30560   0.249E-01    0.399E-01
DAV: 178    -0.756413574113E+03   -0.20702E-02   -0.17140E-03 26568   0.762E-02    0.415E-01
DAV: 179    -0.756413706741E+03   -0.13263E-03   -0.63662E-05 25400   0.154E-02    0.416E-01
DAV: 180    -0.756413667076E+03    0.39665E-04   -0.39157E-06 17416   0.522E-03    0.416E-01
DAV: 181    -0.756420227479E+03   -0.65604E-02   -0.43757E-03 31704   0.302E-01    0.384E-01
DAV: 182    -0.756421268669E+03   -0.10412E-02   -0.18836E-03 28568   0.117E-01    0.356E-01
DAV: 183    -0.756425706432E+03   -0.44378E-02   -0.15382E-03 31136   0.174E-01    0.360E-01
DAV: 184    -0.756434505649E+03   -0.87992E-02   -0.11479E-02 31936   0.438E-01    0.398E-01
DAV: 185    -0.756439597386E+03   -0.50917E-02   -0.53591E-03 28760   0.143E-01    0.433E-01
DAV: 186    -0.756440601551E+03   -0.10042E-02   -0.30072E-03 32552   0.232E-01    0.491E-01
DAV: 187    -0.756443249343E+03   -0.26478E-02   -0.15314E-03 28504   0.983E-02    0.512E-01
DAV: 188    -0.756443089301E+03    0.16004E-03   -0.33496E-04 25456   0.557E-02    0.510E-01
DAV: 189    -0.756442737178E+03    0.35212E-03   -0.70687E-05 25912   0.218E-02    0.504E-01
DAV: 190    -0.756442642968E+03    0.94210E-04   -0.17991E-05 17960   0.120E-02    0.500E-01
DAV: 191    -0.756436209886E+03    0.64331E-02   -0.40723E-03 32800   0.270E-01    0.437E-01
DAV: 192    -0.756435218388E+03    0.99150E-03   -0.17735E-03 29368   0.910E-02    0.419E-01
DAV: 193    -0.756437114928E+03   -0.18965E-02   -0.22542E-03 31912   0.186E-01    0.468E-01
DAV: 194    -0.756437901878E+03   -0.78695E-03   -0.16329E-03 32176   0.122E-01    0.492E-01
DAV: 195    -0.756438360214E+03   -0.45834E-03   -0.42764E-04 26184   0.407E-02    0.496E-01
DAV: 196    -0.756442281557E+03   -0.39213E-02   -0.38461E-02 32584   0.906E-01    0.402E-01
DAV: 197    -0.756452970470E+03   -0.10689E-01   -0.13064E-02 26248   0.307E-01    0.373E-01
DAV: 198    -0.756457463125E+03   -0.44927E-02   -0.29453E-03 31984   0.224E-01    0.380E-01
DAV: 199    -0.756462647557E+03   -0.51844E-02   -0.50369E-03 31992   0.250E-01    0.408E-01
DAV: 200    -0.756465708870E+03   -0.30613E-02   -0.33518E-03 29688   0.225E-01
   1 F= -.75646571E+03 E0= -.75646571E+03  d E =-.756466E+03  mag=    64.9993
       N       E                     dE             d eps       ncg     rms          rms(c)
DAV:   1    -0.756483049418E+03   -0.20402E-01   -0.28532E-02 26904   0.430E-01    0.429E-01
DAV:   2    -0.756486502989E+03   -0.34536E-02   -0.68368E-03 31536   0.246E-01    0.276E-01
DAV:   3    -0.756488293161E+03   -0.17902E-02   -0.16391E-03 28504   0.107E-01    0.210E-01
DAV:   4    -0.756490117241E+03   -0.18241E-02   -0.47179E-04 31584   0.712E-02    0.193E-01
DAV:   5    -0.756492074502E+03   -0.19573E-02   -0.48575E-04 30320   0.682E-02    0.188E-01
DAV:   6    -0.756494026673E+03   -0.19522E-02   -0.42157E-04 29888   0.656E-02    0.185E-01
DAV:   7    -0.756501904640E+03   -0.78780E-02   -0.68053E-03 31336   0.337E-01    0.186E-01
DAV:   8    -0.756510152374E+03   -0.82477E-02   -0.12164E-02 32496   0.345E-01    0.185E-01
DAV:   9    -0.756513442893E+03   -0.32905E-02   -0.42049E-03 26896   0.110E-01    0.175E-01
DAV:  10    -0.756514735088E+03   -0.12922E-02   -0.17613E-04 27864   0.420E-02    0.174E-01
DAV:  11    -0.756513539610E+03    0.11955E-02   -0.27211E-04 26688   0.589E-02    0.176E-01
DAV:  12    -0.756511273111E+03    0.22665E-02   -0.50111E-04 31112   0.804E-02    0.183E-01
DAV:  13    -0.756519624351E+03   -0.83512E-02   -0.78924E-03 30808   0.378E-01    0.179E-01
DAV:  14    -0.756525449219E+03   -0.58249E-02   -0.67078E-03 32648   0.218E-01    0.169E-01
DAV:  15    -0.756530999332E+03   -0.55501E-02   -0.48129E-02 31248   0.872E-01    0.321E-01
DAV:  16    -0.756546357866E+03   -0.15359E-01   -0.18999E-02 26008   0.315E-01    0.174E-01
DAV:  17    -0.756552790432E+03   -0.64326E-02   -0.14011E-02 32728   0.456E-01    0.194E-01
DAV:  18    -0.756551336198E+03    0.14542E-02   -0.62569E-03 28056   0.276E-01    0.279E-01
DAV:  19    -0.756555695417E+03   -0.43592E-02   -0.27635E-03 31584   0.177E-01    0.249E-01
DAV:  20    -0.756555811047E+03   -0.11563E-03   -0.94768E-04 27120   0.503E-02    0.267E-01
DAV:  21    -0.756552278214E+03    0.35328E-02   -0.18547E-03 30032   0.170E-01    0.256E-01
DAV:  22    -0.756543965112E+03    0.83131E-02   -0.74176E-03 31224   0.358E-01    0.313E-01
DAV:  23    -0.756535967570E+03    0.79975E-02   -0.79336E-03 30784   0.193E-01    0.391E-01
DAV:  24    -0.756547338684E+03   -0.11371E-01   -0.44476E-03 28920   0.239E-01    0.280E-01
DAV:  25    -0.756553374861E+03   -0.60362E-02   -0.46869E-02 31192   0.779E-01    0.307E-01
DAV:  26    -0.756561112851E+03   -0.77380E-02   -0.26893E-02 30696   0.309E-01    0.359E-01
DAV:  27    -0.756562706930E+03   -0.15941E-02   -0.34257E-03 28368   0.117E-01    0.394E-01
DAV:  28    -0.756562837100E+03   -0.13017E-03   -0.53517E-04 27784   0.391E-02    0.403E-01
DAV:  29    -0.756563647048E+03   -0.80995E-03   -0.67665E-05 23672   0.208E-02    0.389E-01
DAV:  30    -0.756567271663E+03   -0.36246E-02   -0.39454E-04 30368   0.723E-02    0.337E-01
DAV:  31    -0.756571182905E+03   -0.39112E-02   -0.45299E-03 31680   0.235E-01    0.290E-01
DAV:  32    -0.756572217328E+03   -0.10344E-02   -0.17960E-03 26336   0.644E-02    0.287E-01
DAV:  33    -0.756572655946E+03   -0.43862E-03   -0.31335E-05 23976   0.211E-02    0.283E-01
DAV:  34    -0.756573299792E+03   -0.64385E-03   -0.61571E-04 32760   0.892E-02    0.292E-01
DAV:  35    -0.756573380595E+03   -0.80802E-04   -0.26503E-04 25824   0.263E-02    0.291E-01
DAV:  36    -0.756573392544E+03   -0.11949E-04   -0.36029E-06 18080   0.465E-03    0.291E-01
DAV:  37    -0.756573681378E+03   -0.28883E-03   -0.56467E-06 14928   0.636E-03    0.286E-01
DAV:  38    -0.756575250596E+03   -0.15692E-02   -0.47077E-04 33400   0.807E-02    0.237E-01
DAV:  39    -0.756578785138E+03   -0.35345E-02   -0.12378E-03 30552   0.109E-01    0.222E-01
DAV:  40    -0.756578583038E+03    0.20210E-03   -0.11293E-03 33880   0.997E-02    0.300E-01
DAV:  41    -0.756575994587E+03    0.25885E-02   -0.52050E-03 31360   0.266E-01    0.403E-01
DAV:  42    -0.756576628366E+03   -0.63378E-03   -0.20893E-03 25808   0.862E-02    0.392E-01
DAV:  43    -0.756571806539E+03    0.48218E-02   -0.38145E-03 32592   0.249E-01    0.431E-01
DAV:  44    -0.756570665479E+03    0.11411E-02   -0.27238E-03 29880   0.101E-01    0.427E-01
DAV:  45    -0.756569976486E+03    0.68899E-03   -0.40753E-04 29808   0.445E-02    0.390E-01
DAV:  46    -0.756570216998E+03   -0.24051E-03   -0.14651E-04 27360   0.315E-02    0.367E-01
DAV:  47    -0.756570155171E+03    0.61827E-04   -0.33264E-05 22944   0.237E-02    0.362E-01
DAV:  48    -0.756570343519E+03   -0.18835E-03   -0.61857E-05 25688   0.251E-02    0.354E-01
DAV:  49    -0.756570732177E+03   -0.38866E-03   -0.11129E-04 27728   0.332E-02    0.350E-01
DAV:  50    -0.756570842600E+03   -0.11042E-03   -0.42734E-05 21256   0.116E-02    0.357E-01
DAV:  51    -0.756570889202E+03   -0.46602E-04   -0.37196E-06 14184   0.428E-03    0.362E-01
DAV:  52    -0.756570684034E+03    0.20517E-03   -0.12754E-05 16632   0.150E-02    0.368E-01
DAV:  53    -0.756570721052E+03   -0.37018E-04   -0.49904E-06 15776   0.973E-03    0.364E-01
DAV:  54    -0.756570765554E+03   -0.44502E-04   -0.27193E-06 13920   0.592E-03    0.359E-01
DAV:  55    -0.756570944236E+03   -0.17868E-03   -0.14518E-05 16664   0.149E-02    0.351E-01
DAV:  56    -0.756571161082E+03   -0.21685E-03   -0.28593E-05 20104   0.148E-02    0.346E-01
DAV:  57    -0.756571764544E+03   -0.60346E-03   -0.11905E-04 29320   0.416E-02    0.339E-01
DAV:  58    -0.756572126381E+03   -0.36184E-03   -0.10286E-04 25264   0.194E-02    0.331E-01
DAV:  59    -0.756572860114E+03   -0.73373E-03   -0.20360E-04 31632   0.572E-02    0.313E-01
DAV:  60    -0.756573813176E+03   -0.95306E-03   -0.54073E-04 31504   0.678E-02    0.293E-01
DAV:  61    -0.756574561527E+03   -0.74835E-03   -0.30774E-04 28064   0.387E-02    0.287E-01
DAV:  62    -0.756574632474E+03   -0.70948E-04   -0.99673E-05 23952   0.322E-02    0.301E-01
DAV:  63    -0.756574582174E+03    0.50300E-04   -0.13428E-05 17280   0.655E-03    0.304E-01
DAV:  64    -0.756574650500E+03   -0.68326E-04   -0.56691E-06 15240   0.866E-03    0.299E-01
DAV:  65    -0.756574660748E+03   -0.10248E-04   -0.87952E-06 15672   0.808E-03    0.294E-01
DAV:  66    -0.756574494284E+03    0.16646E-03   -0.11752E-05 17256   0.132E-02    0.295E-01
DAV:  67    -0.756574158315E+03    0.33597E-03   -0.19845E-04 30024   0.520E-02    0.315E-01
DAV:  68    -0.756574136275E+03    0.22040E-04   -0.60433E-05 22624   0.166E-02    0.314E-01
DAV:  69    -0.756574125986E+03    0.10289E-04   -0.16372E-06 13976   0.248E-03    0.315E-01
DAV:  70    -0.756574318882E+03   -0.19290E-03   -0.18561E-05 17936   0.183E-02    0.310E-01
DAV:  71    -0.756574321501E+03   -0.26191E-05   -0.64156E-06 15936   0.803E-03
   2 F= -.75657432E+03 E0= -.75657432E+03  d E =-.108613E+00  mag=    65.0000
       N       E                     dE             d eps       ncg     rms          rms(c)
DAV:   1    -0.756729819954E+03   -0.15550E+00   -0.40381E+00 26736   0.403E+00    0.917E-01
DAV:   2    -0.756746737375E+03   -0.16917E-01   -0.18639E-01 29568   0.777E-01    0.454E-01
DAV:   3    -0.756746607071E+03    0.13030E-03   -0.73557E-03 30168   0.204E-01    0.314E-01
DAV:   4    -0.756746594805E+03    0.12265E-04   -0.14960E-03 31040   0.924E-02    0.168E-01
DAV:   5    -0.756747033509E+03   -0.43870E-03   -0.58935E-04 33120   0.778E-02    0.100E-01
DAV:   6    -0.756747499849E+03   -0.46634E-03   -0.40033E-04 30136   0.473E-02    0.902E-02
DAV:   7    -0.756747927941E+03   -0.42809E-03   -0.13023E-04 29656   0.334E-02    0.833E-02
DAV:   8    -0.756748370745E+03   -0.44280E-03   -0.10802E-04 27512   0.301E-02    0.789E-02
DAV:   9    -0.756749376891E+03   -0.10061E-02   -0.52686E-04 32328   0.838E-02    0.725E-02
DAV:  10    -0.756750562101E+03   -0.11852E-02   -0.14414E-03 32128   0.115E-01    0.693E-02
DAV:  11    -0.756751662201E+03   -0.11001E-02   -0.14109E-03 31296   0.101E-01    0.607E-02
DAV:  12    -0.756752630126E+03   -0.96792E-03   -0.22335E-03 31864   0.167E-01    0.585E-02
DAV:  13    -0.756753779706E+03   -0.11496E-02   -0.20331E-03 29312   0.796E-02    0.480E-02
DAV:  14    -0.756754275967E+03   -0.49626E-03   -0.28289E-04 26952   0.364E-02    0.400E-02
DAV:  15    -0.756754662198E+03   -0.38623E-03   -0.39314E-04 32848   0.701E-02    0.379E-02
DAV:  16    -0.756754897240E+03   -0.23504E-03   -0.17930E-03 31952   0.138E-01    0.453E-02
DAV:  17    -0.756755356065E+03   -0.45882E-03   -0.19115E-03 30960   0.106E-01    0.402E-02
DAV:  18    -0.756755813116E+03   -0.45705E-03   -0.69145E-04 28408   0.564E-02    0.279E-02
DAV:  19    -0.756756008749E+03   -0.19563E-03   -0.13718E-04 27224   0.262E-02    0.184E-02
DAV:  20    -0.756755991367E+03    0.17382E-04   -0.22138E-04 29800   0.519E-02    0.208E-02
DAV:  21    -0.756756095492E+03   -0.10413E-03   -0.13806E-04 23896   0.280E-02    0.172E-02
DAV:  22    -0.756756117386E+03   -0.21893E-04   -0.28554E-05 22176   0.199E-02    0.943E-03
DAV:  23    -0.756756120199E+03   -0.28131E-05   -0.13586E-05 17744   0.127E-02
   3 F= -.75675612E+03 E0= -.75675612E+03  d E =-.181799E+00  mag=    65.0000
       N       E                     dE             d eps       ncg     rms          rms(c)
DAV:   1    -0.756741451270E+03    0.14666E-01   -0.84718E+01 26832   0.199E+01    0.326E+00
DAV:   2    -0.757158345192E+03   -0.41689E+00   -0.44552E+00 28856   0.358E+00    0.167E+00
DAV:   3    -0.757157459832E+03    0.88536E-03   -0.12966E-01 30320   0.786E-01    0.972E-01
DAV:   4    -0.757150618221E+03    0.68416E-02   -0.19174E-02 31128   0.303E-01    0.572E-01
DAV:   5    -0.757147630708E+03    0.29875E-02   -0.83567E-03 30320   0.243E-01    0.190E-01
DAV:   6    -0.757147868199E+03   -0.23749E-03   -0.34610E-03 29728   0.116E-01    0.132E-01
DAV:   7    -0.757147943224E+03   -0.75025E-04   -0.55100E-04 30256   0.531E-02    0.875E-02
DAV:   8    -0.757147985324E+03   -0.42099E-04   -0.56155E-05 27888   0.188E-02    0.574E-02
DAV:   9    -0.757148036027E+03   -0.50703E-04   -0.55071E-05 28576   0.223E-02    0.383E-02
DAV:  10    -0.757148097563E+03   -0.61537E-04   -0.43659E-05 27824   0.215E-02    0.276E-02
DAV:  11    -0.757148130546E+03   -0.32982E-04   -0.31387E-05 21552   0.124E-02    0.247E-02
DAV:  12    -0.757148176161E+03   -0.45616E-04   -0.14608E-05 17992   0.152E-02    0.215E-02
DAV:  13    -0.757148242831E+03   -0.66670E-04   -0.81282E-05 28552   0.312E-02    0.172E-02
DAV:  14    -0.757148285361E+03   -0.42530E-04   -0.70436E-05 25856   0.211E-02    0.141E-02
DAV:  15    -0.757148311023E+03   -0.25662E-04   -0.21524E-05 18480   0.117E-02    0.125E-02
DAV:  16    -0.757148329826E+03   -0.18803E-04   -0.88377E-06 16064   0.937E-03    0.114E-02
DAV:  17    -0.757148356768E+03   -0.26943E-04   -0.24068E-05 21120   0.182E-02    0.108E-02
DAV:  18    -0.757148382859E+03   -0.26090E-04   -0.40029E-05 22752   0.164E-02    0.998E-03
DAV:  19    -0.757148404729E+03   -0.21870E-04   -0.20443E-05 18360   0.128E-02    0.861E-03
DAV:  20    -0.757148426743E+03   -0.22014E-04   -0.39896E-05 22064   0.237E-02    0.822E-03
DAV:  21    -0.757148434166E+03   -0.74232E-05   -0.15334E-04 28936   0.396E-02    0.875E-03
DAV:  22    -0.757148468603E+03   -0.34437E-04   -0.10786E-04 25608   0.228E-02    0.657E-03
DAV:  23    -0.757148489112E+03   -0.20508E-04   -0.19802E-05 18792   0.892E-03    0.446E-03
DAV:  24    -0.757148492961E+03   -0.38497E-05   -0.31387E-06 14472   0.339E-03
   4 F= -.75714849E+03 E0= -.75714849E+03  d E =-.392373E+00  mag=    65.0000
       N       E                     dE             d eps       ncg     rms          rms(c)
DAV:   1    -0.756956636507E+03    0.19185E+00   -0.39258E+01 28240   0.158E+01    0.280E+00
DAV:   2    -0.757277783747E+03   -0.32115E+00   -0.32222E+00 28640   0.290E+00    0.143E+00
DAV:   3    -0.757285495382E+03   -0.77116E-02   -0.94986E-02 29848   0.652E-01    0.738E-01
DAV:   4    -0.757282193620E+03    0.33018E-02   -0.11130E-02 31896   0.225E-01    0.439E-01
DAV:   5    -0.757280531155E+03    0.16625E-02   -0.49640E-03 32440   0.210E-01    0.158E-01
DAV:   6    -0.757280623549E+03   -0.92395E-04   -0.20158E-03 30400   0.872E-02    0.995E-02
DAV:   7    -0.757280628996E+03   -0.54465E-05   -0.39970E-04 29568   0.408E-02    0.614E-02
DAV:   8    -0.757280632326E+03   -0.33303E-05   -0.34422E-05 25488   0.145E-02
   5 F= -.75728063E+03 E0= -.75728063E+03  d E =-.132139E+00  mag=    65.0000
       N       E                     dE             d eps       ncg     rms          rms(c)
DAV:   1    -0.755973995177E+03    0.13066E+01   -0.92944E+01 30176   0.289E+01    0.583E+00
DAV:   2    -0.757187613304E+03   -0.12136E+01   -0.11932E+01 28472   0.543E+00    0.290E+00
DAV:   3    -0.757224964917E+03   -0.37352E-01   -0.37098E-01 29368   0.126E+00    0.144E+00
DAV:   4    -0.757215472263E+03    0.94927E-02   -0.43024E-02 33136   0.477E-01    0.850E-01
DAV:   5    -0.757211656803E+03    0.38155E-02   -0.11553E-02 32240   0.338E-01    0.314E-01
DAV:   6    -0.757211825405E+03   -0.16860E-03   -0.62000E-03 30992   0.179E-01    0.175E-01
DAV:   7    -0.757211932723E+03   -0.10732E-03   -0.11598E-03 29624   0.830E-02    0.102E-01
DAV:   8    -0.757211946818E+03   -0.14095E-04   -0.19113E-04 28976   0.337E-02    0.748E-02
DAV:   9    -0.757211976388E+03   -0.29570E-04   -0.79271E-05 30008   0.312E-02    0.411E-02
DAV:  10    -0.757212022482E+03   -0.46094E-04   -0.48867E-05 28696   0.285E-02    0.289E-02
DAV:  11    -0.757212058450E+03   -0.35968E-04   -0.54026E-05 27504   0.176E-02    0.267E-02
DAV:  12    -0.757212092434E+03   -0.33984E-04   -0.67064E-06 15456   0.118E-02    0.242E-02
DAV:  13    -0.757212157870E+03   -0.65436E-04   -0.29947E-05 20640   0.253E-02    0.219E-02
DAV:  14    -0.757212221595E+03   -0.63725E-04   -0.63851E-05 25536   0.264E-02    0.202E-02
DAV:  15    -0.757212280509E+03   -0.58914E-04   -0.46317E-05 20896   0.258E-02    0.185E-02
DAV:  16    -0.757212350058E+03   -0.69549E-04   -0.91227E-05 27472   0.388E-02    0.165E-02
DAV:  17    -0.757212414881E+03   -0.64823E-04   -0.14451E-04 28672   0.433E-02    0.146E-02
DAV:  18    -0.757212471020E+03   -0.56139E-04   -0.12389E-04 28184   0.382E-02    0.132E-02
DAV:  19    -0.757212514909E+03   -0.43889E-04   -0.73263E-05 25352   0.264E-02    0.113E-02
DAV:  20    -0.757212542233E+03   -0.27324E-04   -0.29059E-05 19616   0.204E-02    0.963E-03
DAV:  21    -0.757212560046E+03   -0.17813E-04   -0.82582E-05 25776   0.394E-02    0.944E-03
DAV:  22    -0.757212585700E+03   -0.25654E-04   -0.82882E-05 25736   0.208E-02    0.776E-03
DAV:  23    -0.757212597115E+03   -0.11416E-04   -0.11713E-05 15776   0.151E-02    0.606E-03
DAV:  24    -0.757212604276E+03   -0.71603E-05   -0.20539E-05 17344   0.130E-02
   6 F= -.75721260E+03 E0= -.75721260E+03  d E =0.680281E-01  mag=    65.0000
       N       E                     dE             d eps       ncg     rms          rms(c)
DAV:   1    -0.756982598218E+03    0.23000E+00   -0.40671E+01 30032   0.173E+01    0.427E+00
DAV:   2    -0.757366390466E+03   -0.38379E+00   -0.39972E+00 28968   0.347E+00    0.213E+00
DAV:   3    -0.757364231124E+03    0.21593E-02   -0.14055E-01 30176   0.861E-01    0.137E+00
DAV:   4    -0.757355795798E+03    0.84353E-02   -0.19605E-02 33288   0.386E-01    0.665E-01
DAV:   5    -0.757351557945E+03    0.42379E-02   -0.87969E-03 31504   0.335E-01    0.222E-01
DAV:   6    -0.757351753364E+03   -0.19542E-03   -0.68900E-03 30032   0.177E-01    0.167E-01
DAV:   7    -0.757351770953E+03   -0.17589E-04   -0.84485E-04 30040   0.649E-02    0.104E-01
DAV:   8    -0.757351748027E+03    0.22926E-04   -0.18039E-04 28784   0.305E-02    0.771E-02
DAV:   9    -0.757351796793E+03   -0.48766E-04   -0.11869E-04 32464   0.427E-02    0.394E-02
DAV:  10    -0.757351846891E+03   -0.50098E-04   -0.84117E-05 30088   0.258E-02    0.336E-02
DAV:  11    -0.757351886463E+03   -0.39572E-04   -0.49592E-05 26392   0.159E-02    0.311E-02
DAV:  12    -0.757351932842E+03   -0.46379E-04   -0.10201E-05 16680   0.129E-02    0.276E-02
DAV:  13    -0.757352032115E+03   -0.99273E-04   -0.65656E-05 27968   0.316E-02    0.246E-02
DAV:  14    -0.757352102486E+03   -0.70371E-04   -0.68631E-05 25336   0.213E-02    0.230E-02
DAV:  15    -0.757352200596E+03   -0.98110E-04   -0.76991E-05 27320   0.358E-02    0.213E-02
DAV:  16    -0.757352292916E+03   -0.92320E-04   -0.14392E-04 28248   0.349E-02    0.184E-02
DAV:  17    -0.757352383652E+03   -0.90736E-04   -0.16080E-04 28000   0.450E-02    0.165E-02
DAV:  18    -0.757352460972E+03   -0.77320E-04   -0.29399E-04 29000   0.575E-02    0.163E-02
DAV:  19    -0.757352557036E+03   -0.96063E-04   -0.18164E-04 26968   0.261E-02    0.129E-02
DAV:  20    -0.757352587180E+03   -0.30145E-04   -0.21201E-05 19000   0.886E-03    0.117E-02
DAV:  21    -0.757352594441E+03   -0.72605E-05   -0.37907E-06 15128   0.391E-03
   7 F= -.75735259E+03 E0= -.75735259E+03  d E =-.139990E+00  mag=    65.0000
       N       E                     dE             d eps       ncg     rms          rms(c)
DAV:   1    -0.757266360767E+03    0.86226E-01   -0.17398E+01 28920   0.113E+01    0.237E+00
DAV:   2    -0.757430044793E+03   -0.16368E+00   -0.16664E+00 28784   0.214E+00    0.113E+00
DAV:   3    -0.757432580783E+03   -0.25360E-02   -0.55558E-02 30136   0.519E-01    0.633E-01
DAV:   4    -0.757430241639E+03    0.23391E-02   -0.67010E-03 33208   0.206E-01    0.352E-01
DAV:   5    -0.757429067350E+03    0.11743E-02   -0.28518E-03 31704   0.179E-01    0.125E-01
DAV:   6    -0.757429099785E+03   -0.32435E-04   -0.17441E-03 30328   0.890E-02    0.870E-02
DAV:   7    -0.757429093889E+03    0.58966E-05   -0.25693E-04 29656   0.381E-02    0.535E-02
DAV:   8    -0.757429086639E+03    0.72493E-05   -0.44860E-05 27456   0.151E-02
   8 F= -.75742909E+03 E0= -.75742909E+03  d E =-.764922E-01  mag=    65.0000
       N       E                     dE             d eps       ncg     rms          rms(c)
DAV:   1    -0.757355320849E+03    0.73773E-01   -0.92164E+00 29504   0.873E+00    0.168E+00
DAV:   2    -0.757454613889E+03   -0.99293E-01   -0.99213E-01 28816   0.168E+00    0.824E-01
DAV:   3    -0.757457106583E+03   -0.24927E-02   -0.31244E-02 30232   0.390E-01    0.430E-01
DAV:   4    -0.757456132589E+03    0.97399E-03   -0.48494E-03 32184   0.156E-01    0.264E-01
DAV:   5    -0.757455899671E+03    0.23292E-03   -0.10835E-03 31472   0.905E-02    0.106E-01
DAV:   6    -0.757455907140E+03   -0.74691E-05   -0.47896E-04 31128   0.506E-02    0.595E-02
DAV:   7    -0.757455930250E+03   -0.23111E-04   -0.10134E-04 28664   0.236E-02    0.356E-02
DAV:   8    -0.757455937411E+03   -0.71604E-05   -0.15248E-05 17376   0.105E-02
   9 F= -.75745594E+03 E0= -.75745594E+03  d E =-.268508E-01  mag=    65.0000
       N       E                     dE             d eps       ncg     rms          rms(c)
DAV:   1    -0.757308781409E+03    0.14715E+00   -0.14866E+01 29984   0.116E+01    0.194E+00
DAV:   2    -0.757478677183E+03   -0.16990E+00   -0.16664E+00 28232   0.217E+00    0.984E-01
DAV:   3    -0.757485168351E+03   -0.64912E-02   -0.49304E-02 29648   0.477E-01    0.469E-01
DAV:   4    -0.757484286147E+03    0.88220E-03   -0.38398E-03 33480   0.134E-01    0.288E-01
DAV:   5    -0.757483665225E+03    0.62092E-03   -0.15570E-03 32496   0.137E-01    0.118E-01
DAV:   6    -0.757483754645E+03   -0.89420E-04   -0.94988E-04 30616   0.672E-02    0.592E-02
DAV:   7    -0.757483778695E+03   -0.24050E-04   -0.15512E-04 28992   0.278E-02    0.385E-02
DAV:   8    -0.757483801380E+03   -0.22685E-04   -0.29077E-05 23664   0.145E-02    0.275E-02
DAV:   9    -0.757483828713E+03   -0.27333E-04   -0.13042E-05 19240   0.133E-02    0.222E-02
DAV:  10    -0.757483856834E+03   -0.28121E-04   -0.14437E-05 18568   0.123E-02    0.194E-02
DAV:  11    -0.757483885225E+03   -0.28391E-04   -0.10706E-05 17624   0.116E-02    0.178E-02
DAV:  12    -0.757483924770E+03   -0.39545E-04   -0.19813E-05 19448   0.175E-02    0.161E-02
DAV:  13    -0.757483982664E+03   -0.57894E-04   -0.10256E-04 29400   0.382E-02    0.135E-02
DAV:  14    -0.757484028269E+03   -0.45605E-04   -0.86106E-05 25336   0.225E-02    0.118E-02
DAV:  15    -0.757484052608E+03   -0.24339E-04   -0.19692E-05 17976   0.108E-02    0.105E-02
DAV:  16    -0.757484072751E+03   -0.20143E-04   -0.10694E-05 14728   0.131E-02    0.982E-03
DAV:  17    -0.757484097118E+03   -0.24367E-04   -0.53515E-05 23712   0.272E-02    0.950E-03
DAV:  18    -0.757484121021E+03   -0.23903E-04   -0.91557E-05 27168   0.294E-02    0.883E-03
DAV:  19    -0.757484146321E+03   -0.25300E-04   -0.47254E-05 21312   0.172E-02    0.706E-03
DAV:  20    -0.757484159874E+03   -0.13553E-04   -0.15059E-05 16504   0.143E-02    0.579E-03
DAV:  21    -0.757484164434E+03   -0.45600E-05   -0.39149E-05 21440   0.215E-02
  10 F= -.75748416E+03 E0= -.75748416E+03  d E =-.282270E-01  mag=    65.0000
       N       E                     dE             d eps       ncg     rms          rms(c)
DAV:   1    -0.751568445992E+03    0.59157E+01   -0.41830E+02 26880   0.459E+01    0.205E+01
DAV:   2    -0.753940977620E+03   -0.23725E+01   -0.27088E+01 29496   0.919E+00    0.578E+00
DAV:   3    -0.753717725153E+03    0.22325E+00   -0.11346E+00 30640   0.257E+00    0.394E+00
DAV:   4    -0.753661825599E+03    0.55900E-01   -0.18574E-01 31672   0.111E+00    0.216E+00
DAV:   5    -0.753619601535E+03    0.42224E-01   -0.62834E-02 30384   0.789E-01    0.915E-01
DAV:   6    -0.753617280809E+03    0.23207E-02   -0.55347E-02 29904   0.526E-01    0.462E-01
DAV:   7    -0.753617771827E+03   -0.49102E-03   -0.11346E-02 30040   0.220E-01    0.278E-01
DAV:   8    -0.753617576809E+03    0.19502E-03   -0.18373E-03 30688   0.989E-02    0.169E-01
DAV:   9    -0.753617905072E+03   -0.32826E-03   -0.58648E-04 32760   0.861E-02    0.108E-01
DAV:  10    -0.753618303296E+03   -0.39822E-03   -0.44004E-04 30408   0.613E-02    0.924E-02
DAV:  11    -0.753618777735E+03   -0.47444E-03   -0.21855E-04 35384   0.560E-02    0.833E-02
DAV:  12    -0.753619209441E+03   -0.43171E-03   -0.19630E-04 30344   0.388E-02    0.807E-02
DAV:  13    -0.753619777071E+03   -0.56763E-03   -0.17832E-04 30704   0.497E-02    0.750E-02
DAV:  14    -0.753620527566E+03   -0.75050E-03   -0.44924E-04 31208   0.698E-02    0.730E-02
DAV:  15    -0.753621278396E+03   -0.75083E-03   -0.51113E-04 29824   0.666E-02    0.700E-02
DAV:  16    -0.753622491572E+03   -0.12132E-02   -0.13338E-03 32544   0.133E-01    0.711E-02
DAV:  17    -0.753623782065E+03   -0.12905E-02   -0.20448E-03 31904   0.130E-01    0.696E-02
DAV:  18    -0.753624905210E+03   -0.11231E-02   -0.12148E-03 29776   0.883E-02    0.662E-02
DAV:  19    -0.753625549532E+03   -0.64432E-03   -0.46829E-04 27032   0.448E-02    0.632E-02
DAV:  20    -0.753626200784E+03   -0.65125E-03   -0.26844E-04 32336   0.609E-02    0.640E-02
DAV:  21    -0.753626222605E+03   -0.21822E-04   -0.17633E-04 24808   0.263E-02    0.629E-02
DAV:  22    -0.753626194066E+03    0.28539E-04   -0.23827E-06 16944   0.362E-03    0.628E-02
DAV:  23    -0.753626182803E+03    0.11263E-04   -0.61176E-07 13968   0.185E-03    0.628E-02
DAV:  24    -0.753626402030E+03   -0.21923E-03   -0.61329E-05 26104   0.274E-02    0.675E-02
DAV:  25    -0.753627097289E+03   -0.69526E-03   -0.17594E-03 30960   0.149E-01    0.141E-01
DAV:  26    -0.753627852273E+03   -0.75498E-03   -0.14467E-03 32336   0.932E-02    0.199E-01
DAV:  27    -0.753628757294E+03   -0.90502E-03   -0.18979E-03 31272   0.144E-01    0.224E-01
DAV:  28    -0.753629953909E+03   -0.11966E-02   -0.12537E-03 28872   0.740E-02    0.247E-01
DAV:  29    -0.753630589080E+03   -0.63517E-03   -0.25691E-04 26472   0.358E-02    0.248E-01
DAV:  30    -0.753630909904E+03   -0.32082E-03   -0.82082E-05 24608   0.169E-02    0.252E-01
DAV:  31    -0.753631045314E+03   -0.13541E-03   -0.21014E-05 18680   0.906E-03    0.257E-01
DAV:  32    -0.753631233796E+03   -0.18848E-03   -0.45958E-05 22920   0.217E-02    0.259E-01
DAV:  33    -0.753631407374E+03   -0.17358E-03   -0.46261E-05 23368   0.140E-02    0.259E-01
DAV:  34    -0.753631312832E+03    0.94541E-04   -0.50437E-05 23824   0.237E-02    0.261E-01
DAV:  35    -0.753630596966E+03    0.71587E-03   -0.59928E-04 29280   0.783E-02    0.263E-01
DAV:  36    -0.753628792924E+03    0.18040E-02   -0.25784E-03 31720   0.152E-01    0.261E-01
DAV:  37    -0.753625568864E+03    0.32241E-02   -0.62644E-03 32136   0.231E-01    0.266E-01
DAV:  38    -0.753627540351E+03   -0.19715E-02   -0.30046E-03 27312   0.172E-01    0.223E-01
DAV:  39    -0.753627932591E+03   -0.39224E-03   -0.21541E-04 26312   0.272E-02    0.215E-01
DAV:  40    -0.753628169974E+03   -0.23738E-03   -0.50305E-05 23216   0.168E-02    0.216E-01
DAV:  41    -0.753629059947E+03   -0.88997E-03   -0.46139E-03 31688   0.222E-01    0.195E-01
DAV:  42    -0.753630753285E+03   -0.16933E-02   -0.57154E-03 32544   0.189E-01    0.187E-01
DAV:  43    -0.753632685699E+03   -0.19324E-02   -0.23951E-03 29352   0.993E-02    0.184E-01
DAV:  44    -0.753633827311E+03   -0.11416E-02   -0.18457E-03 30544   0.127E-01    0.181E-01
DAV:  45    -0.753635364054E+03   -0.15367E-02   -0.17076E-03 28064   0.915E-02    0.177E-01
DAV:  46    -0.753636431126E+03   -0.10671E-02   -0.14985E-03 30952   0.106E-01    0.179E-01
DAV:  47    -0.753637296949E+03   -0.86582E-03   -0.69318E-04 24984   0.439E-02    0.179E-01
DAV:  48    -0.753638003887E+03   -0.70694E-03   -0.53555E-04 32120   0.741E-02    0.175E-01
DAV:  49    -0.753638555392E+03   -0.55150E-03   -0.51969E-04 29736   0.533E-02    0.176E-01
DAV:  50    -0.753639187365E+03   -0.63197E-03   -0.50229E-04 28696   0.624E-02    0.175E-01
DAV:  51    -0.753638761736E+03    0.42563E-03   -0.95141E-04 29320   0.114E-01    0.170E-01
DAV:  52    -0.753639509512E+03   -0.74778E-03   -0.48264E-04 28424   0.795E-02    0.161E-01
DAV:  53    -0.753640044579E+03   -0.53507E-03   -0.34933E-04 29104   0.468E-02    0.158E-01
DAV:  54    -0.753640235530E+03   -0.19095E-03   -0.10244E-04 23672   0.178E-02    0.160E-01
DAV:  55    -0.753639701332E+03    0.53420E-03   -0.26009E-04 28080   0.513E-02    0.165E-01
DAV:  56    -0.753639174998E+03    0.52633E-03   -0.30636E-04 29248   0.465E-02    0.165E-01
DAV:  57    -0.753637255508E+03    0.19195E-02   -0.19466E-03 30096   0.138E-01    0.171E-01
DAV:  58    -0.753637149126E+03    0.10638E-03   -0.79694E-04 26912   0.448E-02    0.167E-01
DAV:  59    -0.753637237380E+03   -0.88255E-04   -0.80612E-05 23152   0.193E-02    0.162E-01
DAV:  60    -0.753637560977E+03   -0.32360E-03   -0.50255E-05 23984   0.258E-02    0.154E-01
DAV:  61    -0.753638166156E+03   -0.60518E-03   -0.89123E-04 29608   0.935E-02    0.151E-01
DAV:  62    -0.753611555865E+03    0.26610E-01   -0.56860E-02 31544   0.781E-01    0.609E-01
DAV:  63    -0.753629068307E+03   -0.17512E-01   -0.12839E-02 26608   0.331E-01    0.461E-01
DAV:  64    -0.753631720241E+03   -0.26519E-02   -0.59540E-04 27728   0.484E-02    0.425E-01
DAV:  65    -0.753633441317E+03   -0.17211E-02   -0.20109E-04 31376   0.408E-02    0.403E-01
DAV:  66    -0.753634703583E+03   -0.12623E-02   -0.41181E-04 29360   0.632E-02    0.389E-01
DAV:  67    -0.753635791697E+03   -0.10881E-02   -0.11004E-02 31288   0.334E-01    0.408E-01
DAV:  68    -0.753635847915E+03   -0.56218E-04   -0.47014E-03 29704   0.134E-01    0.443E-01
DAV:  69    -0.753636383721E+03   -0.53581E-03   -0.66037E-04 25160   0.474E-02    0.444E-01
DAV:  70    -0.753636126858E+03    0.25686E-03   -0.21478E-04 30488   0.472E-02    0.455E-01
DAV:  71    -0.753636840553E+03   -0.71369E-03   -0.18852E-04 27968   0.508E-02    0.438E-01
DAV:  72    -0.753633067883E+03    0.37727E-02   -0.53710E-04 29088   0.869E-02    0.502E-01
DAV:  73    -0.753635538540E+03   -0.24707E-02   -0.92290E-05 25104   0.334E-02    0.468E-01
DAV:  74    -0.753640280121E+03   -0.47416E-02   -0.15193E-04 29064   0.485E-02    0.401E-01
DAV:  75    -0.753640970358E+03   -0.69024E-03   -0.29070E-04 29040   0.493E-02    0.398E-01
DAV:  76    -0.753643797336E+03   -0.28270E-02   -0.11222E-04 26696   0.337E-02    0.351E-01
DAV:  77    -0.753640187996E+03    0.36093E-02   -0.47990E-03 30232   0.231E-01    0.448E-01
DAV:  78    -0.753642336464E+03   -0.21485E-02   -0.14662E-03 27824   0.646E-02    0.432E-01
DAV:  79    -0.753642787411E+03   -0.45095E-03   -0.12744E-04 26192   0.230E-02    0.431E-01
DAV:  80    -0.753643850557E+03   -0.10631E-02   -0.78875E-05 25288   0.272E-02    0.412E-01
DAV:  81    -0.753644463924E+03   -0.61337E-03   -0.34087E-05 22392   0.159E-02    0.399E-01
DAV:  82    -0.753648541955E+03   -0.40780E-02   -0.30986E-03 29944   0.186E-01    0.369E-01
DAV:  83    -0.753649589236E+03   -0.10473E-02   -0.49103E-04 24984   0.562E-02    0.347E-01
DAV:  84    -0.753650600663E+03   -0.10114E-02   -0.58665E-05 26456   0.202E-02    0.328E-01
DAV:  85    -0.753650563091E+03    0.37572E-04   -0.30385E-05 21232   0.142E-02    0.332E-01
DAV:  86    -0.753650649412E+03   -0.86320E-04   -0.98992E-06 16560   0.508E-03    0.331E-01
DAV:  87    -0.753647444551E+03    0.32049E-02   -0.12750E-03 29744   0.124E-01    0.411E-01
DAV:  88    -0.753647559382E+03   -0.11483E-03   -0.31069E-04 24936   0.272E-02    0.410E-01
DAV:  89    -0.753648026170E+03   -0.46679E-03   -0.22337E-05 19480   0.171E-02    0.399E-01
DAV:  90    -0.753647938140E+03    0.88029E-04   -0.12863E-05 17416   0.708E-03    0.400E-01
DAV:  91    -0.753648526101E+03   -0.58796E-03   -0.18673E-04 29520   0.463E-02    0.380E-01
DAV:  92    -0.753652534722E+03   -0.40086E-02   -0.11456E-03 29560   0.117E-01    0.275E-01
DAV:  93    -0.753651757553E+03    0.77717E-03   -0.58240E-04 27216   0.829E-02    0.317E-01
DAV:  94    -0.753651595740E+03    0.16181E-03   -0.48048E-05 21904   0.126E-02    0.323E-01
DAV:  95    -0.753651939335E+03   -0.34360E-03   -0.27862E-05 20744   0.189E-02    0.310E-01
DAV:  96    -0.753652121625E+03   -0.18229E-03   -0.59551E-06 15504   0.451E-03    0.306E-01
DAV:  97    -0.753650347600E+03    0.17740E-02   -0.94412E-04 29272   0.106E-01    0.365E-01
DAV:  98    -0.753650064484E+03    0.28312E-03   -0.27038E-04 26528   0.577E-02    0.364E-01
DAV:  99    -0.753650267410E+03   -0.20293E-03   -0.37499E-05 21312   0.237E-02    0.362E-01
DAV: 100    -0.753650700926E+03   -0.43352E-03   -0.32291E-05 21648   0.155E-02    0.355E-01
DAV: 101    -0.753652233221E+03   -0.15323E-02   -0.47629E-05 25136   0.296E-02    0.320E-01
DAV: 102    -0.753651788282E+03    0.44494E-03   -0.10666E-02 30672   0.404E-01    0.348E-01
DAV: 103    -0.753652540863E+03   -0.75258E-03   -0.47000E-03 29160   0.141E-01    0.246E-01
DAV: 104    -0.753652456278E+03    0.84585E-04   -0.66165E-04 27864   0.504E-02    0.219E-01
DAV: 105    -0.753652262995E+03    0.19328E-03   -0.15938E-04 27192   0.304E-02    0.192E-01
DAV: 106    -0.753651899068E+03    0.36393E-03   -0.15534E-04 28552   0.336E-02    0.164E-01
DAV: 107    -0.753652589887E+03   -0.69082E-03   -0.29693E-04 27144   0.644E-02    0.159E-01
DAV: 108    -0.753652647182E+03   -0.57294E-04   -0.63958E-05 25528   0.201E-02    0.135E-01
DAV: 109    -0.753653066695E+03   -0.41951E-03   -0.96740E-05 27464   0.309E-02    0.132E-01
DAV: 110    -0.753652522490E+03    0.54421E-03   -0.11785E-04 26736   0.386E-02    0.144E-01
DAV: 111    -0.753652729388E+03   -0.20690E-03   -0.12562E-05 17648   0.137E-02    0.141E-01
DAV: 112    -0.753651367216E+03    0.13622E-02   -0.11695E-03 31488   0.136E-01    0.777E-02
DAV: 113    -0.753652660490E+03   -0.12933E-02   -0.91938E-04 29544   0.106E-01    0.698E-02
DAV: 114    -0.753653588394E+03   -0.92790E-03   -0.79932E-04 30360   0.770E-02    0.746E-02
DAV: 115    -0.753654701363E+03   -0.11130E-02   -0.10249E-03 29368   0.835E-02    0.745E-02
DAV: 116    -0.753656861652E+03   -0.21603E-02   -0.46955E-03 30256   0.206E-01    0.739E-02
DAV: 117    -0.753659131714E+03   -0.22701E-02   -0.45184E-03 30576   0.158E-01    0.801E-02
DAV: 118    -0.753660144619E+03   -0.10129E-02   -0.11267E-03 25592   0.533E-02    0.765E-02
DAV: 119    -0.753660751768E+03   -0.60715E-03   -0.18504E-04 30704   0.405E-02    0.733E-02
DAV: 120    -0.753661477588E+03   -0.72582E-03   -0.55928E-04 29736   0.657E-02    0.800E-02
DAV: 121    -0.753661478218E+03   -0.62952E-06   -0.16350E-04 23944   0.239E-02    0.789E-02
DAV: 122    -0.753659340240E+03    0.21380E-02   -0.11314E-03 29360   0.113E-01    0.124E-01
DAV: 123    -0.753662275804E+03   -0.29356E-02   -0.44823E-03 29560   0.232E-01    0.724E-02
DAV: 124    -0.753663449230E+03   -0.11734E-02   -0.15211E-03 30672   0.755E-02    0.728E-02
DAV: 125    -0.753663048472E+03    0.40076E-03   -0.47397E-04 26960   0.667E-02    0.742E-02
DAV: 126    -0.753663095037E+03   -0.46566E-04   -0.27671E-05 19880   0.847E-03    0.719E-02
DAV: 127    -0.753661199016E+03    0.18960E-02   -0.17666E-03 29928   0.139E-01    0.731E-02
DAV: 128    -0.753661532107E+03   -0.33309E-03   -0.37896E-04 24784   0.304E-02    0.655E-02
DAV: 129    -0.753661578613E+03   -0.46507E-04   -0.58570E-06 19208   0.712E-03    0.648E-02
DAV: 130    -0.753662202634E+03   -0.62402E-03   -0.31559E-04 28176   0.585E-02    0.634E-02
DAV: 131    -0.753663410384E+03   -0.12078E-02   -0.21189E-03 30688   0.142E-01    0.772E-02
DAV: 132    -0.753664269138E+03   -0.85875E-03   -0.11609E-03 31472   0.748E-02    0.927E-02
DAV: 133    -0.753665155285E+03   -0.88615E-03   -0.66276E-04 29632   0.755E-02    0.936E-02
DAV: 134    -0.753665794993E+03   -0.63971E-03   -0.57916E-04 28960   0.511E-02    0.981E-02
DAV: 135    -0.753666170292E+03   -0.37530E-03   -0.18098E-04 26696   0.275E-02    0.101E-01
DAV: 136    -0.753666316248E+03   -0.14596E-03   -0.47316E-05 23544   0.111E-02    0.105E-01
DAV: 137    -0.753667096148E+03   -0.77990E-03   -0.10815E-03 30432   0.109E-01    0.102E-01
DAV: 138    -0.753666122928E+03    0.97322E-03   -0.12813E-03 28784   0.129E-01    0.990E-02
DAV: 139    -0.753666222158E+03   -0.99231E-04   -0.10939E-04 24000   0.151E-02    0.936E-02
DAV: 140    -0.753666221795E+03    0.36306E-06   -0.18253E-06 16464   0.281E-03
  11 F= -.75366622E+03 E0= -.75366622E+03  d E =0.381794E+01  mag=    65.0000
       N       E                     dE             d eps       ncg     rms          rms(c)
DAV:   1    -0.755599375041E+03   -0.19332E+01   -0.32699E+02 26632   0.307E+01    0.138E+01
DAV:   2    -0.757236136474E+03   -0.16368E+01   -0.20183E+01 30240   0.688E+00    0.869E+00
DAV:   3    -0.757043689866E+03    0.19245E+00   -0.69017E-01 30360   0.173E+00    0.680E+00
DAV:   4    -0.756943823573E+03    0.99866E-01   -0.98203E-02 32584   0.921E-01    0.532E+00
DAV:   5    -0.756848116488E+03    0.95707E-01   -0.24240E-01 31904   0.162E+00    0.175E+00
DAV:   6    -0.756852600194E+03   -0.44837E-02   -0.13195E-01 30056   0.828E-01    0.638E-01
DAV:   7    -0.756852081749E+03    0.51844E-03   -0.13374E-02 29992   0.227E-01    0.440E-01
DAV:   8    -0.756851354860E+03    0.72689E-03   -0.23055E-03 29712   0.105E-01    0.256E-01
DAV:   9    -0.756851509002E+03   -0.15414E-03   -0.14509E-03 31688   0.106E-01    0.130E-01
DAV:  10    -0.756851877788E+03   -0.36879E-03   -0.73216E-04 31056   0.815E-02    0.107E-01
DAV:  11    -0.756852250274E+03   -0.37249E-03   -0.57786E-04 30488   0.570E-02    0.917E-02
DAV:  12    -0.756852484978E+03   -0.23470E-03   -0.98597E-05 29024   0.245E-02    0.822E-02
DAV:  13    -0.756853031473E+03   -0.54649E-03   -0.18562E-04 32696   0.570E-02    0.775E-02
DAV:  14    -0.756853655223E+03   -0.62375E-03   -0.40953E-04 32088   0.681E-02    0.749E-02
DAV:  15    -0.756854177367E+03   -0.52214E-03   -0.33789E-04 30976   0.538E-02    0.712E-02
DAV:  16    -0.756855293582E+03   -0.11162E-02   -0.11421E-03 32808   0.132E-01    0.714E-02
DAV:  17    -0.756856689539E+03   -0.13960E-02   -0.33489E-03 32656   0.194E-01    0.737E-02
DAV:  18    -0.756858025356E+03   -0.13358E-02   -0.25526E-03 31832   0.132E-01    0.698E-02
DAV:  19    -0.756858484278E+03   -0.45892E-03   -0.72566E-04 26064   0.504E-02    0.634E-02
DAV:  20    -0.756858749310E+03   -0.26503E-03   -0.75677E-05 27336   0.309E-02    0.612E-02
DAV:  21    -0.756859094516E+03   -0.34521E-03   -0.16185E-04 28968   0.381E-02    0.599E-02
DAV:  22    -0.756860097676E+03   -0.10032E-02   -0.17116E-03 32392   0.154E-01    0.671E-02
DAV:  23    -0.756860865193E+03   -0.76752E-03   -0.11263E-03 30784   0.708E-02    0.651E-02
DAV:  24    -0.756861180858E+03   -0.31567E-03   -0.18952E-04 25672   0.306E-02    0.627E-02
DAV:  25    -0.756861071347E+03    0.10951E-03   -0.76192E-05 23576   0.242E-02    0.598E-02
DAV:  26    -0.756860323460E+03    0.74789E-03   -0.43480E-04 29720   0.769E-02    0.639E-02
DAV:  27    -0.756856138668E+03    0.41848E-02   -0.72007E-03 32256   0.308E-01    0.111E-01
DAV:  28    -0.756858407837E+03   -0.22692E-02   -0.19025E-03 26616   0.118E-01    0.102E-01
DAV:  29    -0.756854636621E+03    0.37712E-02   -0.51557E-03 31752   0.274E-01    0.141E-01
DAV:  30    -0.756856397641E+03   -0.17610E-02   -0.12726E-03 25808   0.941E-02    0.118E-01
DAV:  31    -0.756858061521E+03   -0.16639E-02   -0.63743E-03 31616   0.299E-01    0.111E-01
DAV:  32    -0.756858990730E+03   -0.92921E-03   -0.15279E-03 26248   0.849E-02    0.127E-01
DAV:  33    -0.756859570334E+03   -0.57960E-03   -0.60904E-04 31272   0.880E-02    0.122E-01
DAV:  34    -0.756860177530E+03   -0.60720E-03   -0.70127E-04 31496   0.692E-02    0.120E-01
DAV:  35    -0.756861082576E+03   -0.90505E-03   -0.18441E-03 30440   0.141E-01    0.124E-01
DAV:  36    -0.756861986410E+03   -0.90383E-03   -0.11108E-03 29672   0.633E-02    0.130E-01
DAV:  37    -0.756862072158E+03   -0.85748E-04   -0.19752E-04 24592   0.342E-02    0.138E-01
DAV:  38    -0.756862044096E+03    0.28062E-04   -0.81921E-06 18736   0.511E-03    0.138E-01
DAV:  39    -0.756862215701E+03   -0.17161E-03   -0.47120E-05 22936   0.248E-02    0.138E-01
DAV:  40    -0.756862621776E+03   -0.40607E-03   -0.32008E-04 29208   0.566E-02    0.143E-01
DAV:  41    -0.756863212104E+03   -0.59033E-03   -0.76600E-04 30600   0.835E-02    0.154E-01
DAV:  42    -0.756864119242E+03   -0.90714E-03   -0.17577E-03 31504   0.130E-01    0.158E-01
DAV:  43    -0.756865090742E+03   -0.97150E-03   -0.14587E-03 30656   0.927E-02    0.162E-01
DAV:  44    -0.756865663963E+03   -0.57322E-03   -0.40385E-04 25240   0.360E-02    0.166E-01
DAV:  45    -0.756865820493E+03   -0.15653E-03   -0.50615E-05 23968   0.109E-02    0.170E-01
DAV:  46    -0.756865871230E+03   -0.50737E-04   -0.56011E-06 16120   0.434E-03    0.170E-01
DAV:  47    -0.756865787489E+03    0.83741E-04   -0.23240E-05 19328   0.177E-02    0.168E-01
DAV:  48    -0.756865533967E+03    0.25352E-03   -0.93880E-05 27168   0.300E-02    0.163E-01
DAV:  49    -0.756864939819E+03    0.59415E-03   -0.39851E-04 28744   0.626E-02    0.162E-01
DAV:  50    -0.756865569553E+03   -0.62973E-03   -0.61306E-04 27904   0.923E-02    0.148E-01
DAV:  51    -0.756866086537E+03   -0.51698E-03   -0.53009E-04 29728   0.623E-02    0.134E-01
DAV:  52    -0.756866726164E+03   -0.63963E-03   -0.10918E-02 30944   0.350E-01    0.140E-01
DAV:  53    -0.756868870563E+03   -0.21444E-02   -0.28350E-03 26112   0.935E-02    0.139E-01
DAV:  54    -0.756869302416E+03   -0.43185E-03   -0.66390E-04 31248   0.857E-02    0.142E-01
DAV:  55    -0.756869675873E+03   -0.37346E-03   -0.34295E-04 27000   0.350E-02    0.140E-01
DAV:  56    -0.756869572180E+03    0.10369E-03   -0.90387E-05 24792   0.290E-02    0.148E-01
DAV:  57    -0.756869636788E+03   -0.64608E-04   -0.15792E-04 28768   0.486E-02    0.155E-01
DAV:  58    -0.756869678592E+03   -0.41804E-04   -0.40362E-05 22472   0.992E-03    0.157E-01
DAV:  59    -0.756869481226E+03    0.19737E-03   -0.18175E-04 27744   0.473E-02    0.155E-01
DAV:  60    -0.756869254210E+03    0.22702E-03   -0.23428E-04 29352   0.404E-02    0.157E-01
DAV:  61    -0.756869231714E+03    0.22496E-04   -0.85634E-05 23400   0.242E-02    0.156E-01
DAV:  62    -0.756869304532E+03   -0.72818E-04   -0.24335E-03 29760   0.170E-01    0.185E-01
DAV:  63    -0.756868928048E+03    0.37648E-03   -0.22208E-03 29040   0.178E-01    0.172E-01
DAV:  64    -0.756867604398E+03    0.13237E-02   -0.31237E-03 31928   0.169E-01    0.183E-01
DAV:  65    -0.756866980845E+03    0.62355E-03   -0.19847E-03 31848   0.101E-01    0.184E-01
DAV:  66    -0.756866300715E+03    0.68013E-03   -0.79563E-04 29344   0.793E-02    0.182E-01
DAV:  67    -0.756866129252E+03    0.17146E-03   -0.41366E-04 25640   0.358E-02    0.173E-01
DAV:  68    -0.756865829844E+03    0.29941E-03   -0.76669E-05 24808   0.279E-02    0.177E-01
DAV:  69    -0.756865369504E+03    0.46034E-03   -0.26793E-04 29456   0.452E-02    0.182E-01
DAV:  70    -0.756864556420E+03    0.81308E-03   -0.67317E-04 29544   0.797E-02    0.189E-01
DAV:  71    -0.756864098538E+03    0.45788E-03   -0.53328E-04 28632   0.525E-02    0.193E-01
DAV:  72    -0.756862667626E+03    0.14309E-02   -0.14075E-03 31424   0.130E-01    0.207E-01
DAV:  73    -0.756863519854E+03   -0.85223E-03   -0.80453E-04 27936   0.104E-01    0.183E-01
DAV:  74    -0.756863724625E+03   -0.20477E-03   -0.88199E-05 23960   0.202E-02    0.180E-01
DAV:  75    -0.756864057400E+03   -0.33277E-03   -0.15251E-04 29216   0.395E-02    0.175E-01
DAV:  76    -0.756864538997E+03   -0.48160E-03   -0.40355E-04 29344   0.617E-02    0.166E-01
DAV:  77    -0.756864750144E+03   -0.21115E-03   -0.13803E-04 23920   0.191E-02    0.170E-01
DAV:  78    -0.756864845615E+03   -0.95471E-04   -0.64814E-06 17848   0.781E-03    0.169E-01
DAV:  79    -0.756864780263E+03    0.65352E-04   -0.11628E-05 17144   0.123E-02    0.172E-01
DAV:  80    -0.756864796286E+03   -0.16024E-04   -0.99608E-07 13856   0.359E-03    0.172E-01
DAV:  81    -0.756864650360E+03    0.14593E-03   -0.23671E-05 18728   0.184E-02    0.174E-01
DAV:  82    -0.756864281140E+03    0.36922E-03   -0.13788E-04 28368   0.373E-02    0.189E-01
DAV:  83    -0.756864675493E+03   -0.39435E-03   -0.21233E-04 27272   0.563E-02    0.175E-01
DAV:  84    -0.756865122999E+03   -0.44751E-03   -0.31173E-04 29248   0.529E-02    0.163E-01
DAV:  85    -0.756865346358E+03   -0.22336E-03   -0.11619E-04 24704   0.187E-02    0.162E-01
DAV:  86    -0.756865406956E+03   -0.60599E-04   -0.10315E-05 17776   0.623E-03    0.162E-01
DAV:  87    -0.756865080679E+03    0.32628E-03   -0.15238E-04 27112   0.459E-02    0.167E-01
DAV:  88    -0.756865185810E+03   -0.10513E-03   -0.32174E-05 19856   0.192E-02    0.160E-01
DAV:  89    -0.756865469086E+03   -0.28328E-03   -0.10802E-04 26944   0.365E-02    0.154E-01
DAV:  90    -0.756865626018E+03   -0.15693E-03   -0.61547E-05 24320   0.157E-02    0.153E-01
DAV:  91    -0.756865698435E+03   -0.72416E-04   -0.98634E-06 16632   0.667E-03    0.154E-01
DAV:  92    -0.756865654852E+03    0.43583E-04   -0.83512E-06 16272   0.116E-02    0.157E-01
DAV:  93    -0.756865661041E+03   -0.61894E-05   -0.14590E-06 13592   0.370E-03
  12 F= -.75686566E+03 E0= -.75686566E+03  d E =-.319944E+01  mag=    65.0000
       N       E                     dE             d eps       ncg     rms          rms(c)
DAV:   1    -0.757218765522E+03   -0.35311E+00   -0.65663E+00 26720   0.446E+00    0.194E+00
DAV:   2    -0.757246592224E+03   -0.27827E-01   -0.34206E-01 29920   0.980E-01    0.926E-01
DAV:   3    -0.757242867587E+03    0.37246E-02   -0.14316E-02 30480   0.275E-01    0.733E-01
DAV:   4    -0.757241876487E+03    0.99110E-03   -0.24633E-03 32088   0.134E-01    0.438E-01
DAV:   5    -0.757241463848E+03    0.41264E-03   -0.19308E-03 31880   0.164E-01    0.144E-01
DAV:   6    -0.757241857534E+03   -0.39369E-03   -0.15276E-03 30032   0.857E-02    0.988E-02
DAV:   7    -0.757242052777E+03   -0.19524E-03   -0.14951E-04 29136   0.294E-02    0.788E-02
DAV:   8    -0.757242322964E+03   -0.27019E-03   -0.87702E-05 29536   0.281E-02    0.734E-02
DAV:   9    -0.757242706564E+03   -0.38360E-03   -0.15415E-04 29560   0.374E-02    0.702E-02
DAV:  10    -0.757243022953E+03   -0.31639E-03   -0.13385E-04 28104   0.295E-02    0.689E-02
DAV:  11    -0.757243569268E+03   -0.54631E-03   -0.23536E-04 29144   0.514E-02    0.688E-02
DAV:  12    -0.757244197909E+03   -0.62864E-03   -0.45576E-04 29808   0.596E-02    0.685E-02
DAV:  13    -0.757244896444E+03   -0.69854E-03   -0.51052E-04 29752   0.649E-02    0.677E-02
DAV:  14    -0.757246054695E+03   -0.11583E-02   -0.15666E-03 31584   0.126E-01    0.695E-02
DAV:  15    -0.757247015990E+03   -0.96129E-03   -0.12923E-03 29832   0.773E-02    0.662E-02
DAV:  16    -0.757248155895E+03   -0.11399E-02   -0.13075E-03 31024   0.115E-01    0.675E-02
DAV:  17    -0.757249512712E+03   -0.13568E-02   -0.30021E-03 31440   0.149E-01    0.703E-02
DAV:  18    -0.757250848442E+03   -0.13357E-02   -0.23603E-03 30176   0.112E-01    0.657E-02
DAV:  19    -0.757252169893E+03   -0.13215E-02   -0.42128E-03 31960   0.200E-01    0.728E-02
DAV:  20    -0.757253631356E+03   -0.14615E-02   -0.38840E-03 30520   0.126E-01    0.776E-02
DAV:  21    -0.757241343240E+03    0.12288E-01   -0.41239E-02 31480   0.693E-01    0.361E-01
DAV:  22    -0.757254203599E+03   -0.12860E-01   -0.23714E-02 29728   0.595E-01    0.101E-01
DAV:  23    -0.757256063367E+03   -0.18598E-02   -0.15912E-03 26152   0.840E-02    0.794E-02
DAV:  24    -0.757256553875E+03   -0.49051E-03   -0.56721E-04 30648   0.732E-02    0.710E-02
DAV:  25    -0.757257159967E+03   -0.60609E-03   -0.13580E-03 29616   0.102E-01    0.516E-02
DAV:  26    -0.757257722074E+03   -0.56211E-03   -0.13375E-03 29384   0.844E-02    0.386E-02
DAV:  27    -0.757258105166E+03   -0.38309E-03   -0.44696E-04 25336   0.331E-02    0.318E-02
DAV:  28    -0.757258143425E+03   -0.38259E-04   -0.58497E-05 22928   0.136E-02    0.314E-02
DAV:  29    -0.757258169751E+03   -0.26326E-04   -0.48047E-06 17944   0.752E-03    0.327E-02
DAV:  30    -0.757258169710E+03    0.40935E-07   -0.56737E-05 26032   0.219E-02
  13 F= -.75725817E+03 E0= -.75725817E+03  d E =-.392509E+00  mag=    65.0000
       N       E                     dE             d eps       ncg     rms          rms(c)
DAV:   1    -0.757436809969E+03   -0.17864E+00   -0.23723E+01 26696   0.865E+00    0.407E+00
DAV:   2    -0.757531979451E+03   -0.95169E-01   -0.11535E+00 29904   0.188E+00    0.154E+00
DAV:   3    -0.757518449648E+03    0.13530E-01   -0.43614E-02 30448   0.497E-01    0.118E+00
DAV:   4    -0.757515047933E+03    0.34017E-02   -0.79828E-03 31336   0.233E-01    0.650E-01
DAV:   5    -0.757512399329E+03    0.26486E-02   -0.51429E-03 30904   0.255E-01    0.235E-01
DAV:   6    -0.757512761362E+03   -0.36203E-03   -0.41429E-03 29792   0.135E-01    0.129E-01
DAV:   7    -0.757512835800E+03   -0.74438E-04   -0.42657E-04 29936   0.430E-02    0.808E-02
DAV:   8    -0.757512907104E+03   -0.71304E-04   -0.10871E-04 29528   0.256E-02    0.611E-02
DAV:   9    -0.757513067504E+03   -0.16040E-03   -0.88673E-05 30520   0.316E-02    0.467E-02
DAV:  10    -0.757513193164E+03   -0.12566E-03   -0.72769E-05 28520   0.233E-02    0.429E-02
DAV:  11    -0.757513344195E+03   -0.15103E-03   -0.49621E-05 25368   0.252E-02    0.413E-02
DAV:  12    -0.757513529109E+03   -0.18491E-03   -0.93850E-05 27616   0.299E-02    0.395E-02
DAV:  13    -0.757513858443E+03   -0.32933E-03   -0.34009E-04 31000   0.671E-02    0.371E-02
DAV:  14    -0.757514233156E+03   -0.37471E-03   -0.83107E-04 31368   0.930E-02    0.345E-02
DAV:  15    -0.757514597969E+03   -0.36481E-03   -0.12772E-03 30888   0.117E-01    0.334E-02
DAV:  16    -0.757515017855E+03   -0.41989E-03   -0.10059E-03 29816   0.759E-02    0.284E-02
DAV:  17    -0.757515289910E+03   -0.27206E-03   -0.31491E-04 27320   0.483E-02    0.234E-02
DAV:  18    -0.757515436399E+03   -0.14649E-03   -0.43983E-04 32672   0.753E-02    0.241E-02
DAV:  19    -0.757515630435E+03   -0.19404E-03   -0.42426E-04 27944   0.437E-02    0.197E-02
DAV:  20    -0.757515730098E+03   -0.99663E-04   -0.14591E-04 29432   0.430E-02    0.172E-02
DAV:  21    -0.757515663310E+03    0.66789E-04   -0.88389E-04 31376   0.102E-01    0.233E-02
DAV:  22    -0.757515916919E+03   -0.25361E-03   -0.47029E-04 26040   0.337E-02    0.116E-02
DAV:  23    -0.757515938096E+03   -0.21177E-04   -0.63752E-05 25080   0.321E-02    0.105E-02
DAV:  24    -0.757515977338E+03   -0.39242E-04   -0.71203E-05 22352   0.145E-02    0.687E-03
DAV:  25    -0.757515985283E+03   -0.79452E-05   -0.78931E-06 16760   0.573E-03
  14 F= -.75751599E+03 E0= -.75751599E+03  d E =-.257816E+00  mag=    65.0000
       N       E                     dE             d eps       ncg     rms          rms(c)
DAV:   1    -0.757523253210E+03   -0.72759E-02   -0.38642E-01 27944   0.153E+00    0.362E-01
DAV:   2    -0.757525705156E+03   -0.24519E-02   -0.26466E-02 29568   0.300E-01    0.164E-01
DAV:   3    -0.757525689932E+03    0.15223E-04   -0.10509E-03 30568   0.811E-02    0.120E-01
DAV:   4    -0.757525654370E+03    0.35563E-04   -0.13292E-04 30696   0.240E-02    0.545E-02
DAV:   5    -0.757525629972E+03    0.24398E-04   -0.61724E-05 26832   0.221E-02    0.202E-02
DAV:   6    -0.757525630106E+03   -0.13424E-06   -0.30115E-05 24496   0.123E-02
  15 F= -.75752563E+03 E0= -.75752563E+03  d E =-.964482E-02  mag=    65.0000
       N       E                     dE             d eps       ncg     rms          rms(c)
DAV:   1    -0.757490600207E+03    0.35030E-01   -0.71355E+00 28528   0.708E+00    0.129E+00
DAV:   2    -0.757546302148E+03   -0.55702E-01   -0.57772E-01 29296   0.135E+00    0.660E-01
DAV:   3    -0.757547725525E+03   -0.14234E-02   -0.20553E-02 30432   0.328E-01    0.404E-01
DAV:   4    -0.757547211123E+03    0.51440E-03   -0.19464E-03 31272   0.914E-02    0.215E-01
DAV:   5    -0.757546867663E+03    0.34346E-03   -0.11371E-03 32096   0.935E-02    0.790E-02
DAV:   6    -0.757546889323E+03   -0.21660E-04   -0.43366E-04 30936   0.458E-02    0.462E-02
DAV:   7    -0.757546896313E+03   -0.69898E-05   -0.11669E-04 28552   0.216E-02    0.313E-02
DAV:   8    -0.757546899319E+03   -0.30066E-05   -0.97969E-06 16752   0.747E-03
  16 F= -.75754690E+03 E0= -.75754690E+03  d E =-.212692E-01  mag=    65.0000
       N       E                     dE             d eps       ncg     rms          rms(c)
DAV:   1    -0.757540323219E+03    0.65731E-02   -0.10907E+00 28576   0.276E+00    0.566E-01
DAV:   2    -0.757548861917E+03   -0.85387E-02   -0.87774E-02 29112   0.530E-01    0.266E-01
DAV:   3    -0.757549008283E+03   -0.14637E-03   -0.29607E-03 30320   0.130E-01    0.175E-01
DAV:   4    -0.757548919849E+03    0.88435E-04   -0.28317E-04 31624   0.382E-02    0.847E-02
DAV:   5    -0.757548861174E+03    0.58674E-04   -0.15688E-04 30688   0.394E-02    0.316E-02
DAV:   6    -0.757548871636E+03   -0.10462E-04   -0.92605E-05 29320   0.214E-02    0.215E-02
DAV:   7    -0.757548874866E+03   -0.32301E-05   -0.16401E-05 17096   0.921E-03
  17 F= -.75754887E+03 E0= -.75754887E+03  d E =-.197555E-02  mag=    65.0000
       N       E                     dE             d eps       ncg     rms          rms(c)
DAV:   1    -0.757541281771E+03    0.75899E-02   -0.10336E+00 29632   0.294E+00    0.563E-01
DAV:   2    -0.757551360788E+03   -0.10079E-01   -0.10166E-01 28872   0.565E-01    0.276E-01
DAV:   3    -0.757551611376E+03   -0.25059E-03   -0.32261E-03 30096   0.133E-01    0.161E-01
DAV:   4    -0.757551517555E+03    0.93821E-04   -0.35376E-04 32864   0.449E-02    0.889E-02
DAV:   5    -0.757551474034E+03    0.43521E-04   -0.14052E-04 32040   0.393E-02    0.327E-02
DAV:   6    -0.757551484751E+03   -0.10717E-04   -0.83001E-05 29440   0.214E-02    0.225E-02
DAV:   7    -0.757551489649E+03   -0.48988E-05   -0.14940E-05 17320   0.905E-03
  18 F= -.75755149E+03 E0= -.75755149E+03  d E =-.261478E-02  mag=    65.0000
       N       E                     dE             d eps       ncg     rms          rms(c)
DAV:   1    -0.757529028901E+03    0.22456E-01   -0.23561E+00 29768   0.444E+00    0.786E-01
DAV:   2    -0.757552955466E+03   -0.23927E-01   -0.23770E-01 28464   0.846E-01    0.394E-01
DAV:   3    -0.757553766624E+03   -0.81116E-03   -0.71607E-03 29880   0.187E-01    0.206E-01
DAV:   4    -0.757553600935E+03    0.16569E-03   -0.61420E-04 33104   0.567E-02    0.120E-01
DAV:   5    -0.757553516341E+03    0.84595E-04   -0.27837E-04 32288   0.533E-02    0.466E-02
DAV:   6    -0.757553534951E+03   -0.18611E-04   -0.13243E-04 30136   0.263E-02    0.257E-02
DAV:   7    -0.757553544469E+03   -0.95179E-05   -0.25843E-05 22032   0.117E-02
  19 F= -.75755354E+03 E0= -.75755354E+03  d E =-.205482E-02  mag=    65.0000
       N       E                     dE             d eps       ncg     rms          rms(c)
DAV:   1    -0.757181872083E+03    0.37166E+00   -0.39083E+01 29456   0.171E+01    0.288E+00
DAV:   2    -0.757529684879E+03   -0.34781E+00   -0.34353E+00 28440   0.324E+00    0.137E+00
DAV:   3    -0.757539650459E+03   -0.99656E-02   -0.95620E-02 29832   0.667E-01    0.627E-01
DAV:   4    -0.757536990482E+03    0.26600E-02   -0.99277E-03 33920   0.237E-01    0.384E-01
DAV:   5    -0.757536195191E+03    0.79529E-03   -0.32165E-03 32272   0.178E-01    0.156E-01
DAV:   6    -0.757536353000E+03   -0.15781E-03   -0.14170E-03 30544   0.807E-02    0.827E-02
DAV:   7    -0.757536404046E+03   -0.51046E-04   -0.18522E-04 29552   0.345E-02    0.548E-02
DAV:   8    -0.757536440446E+03   -0.36400E-04   -0.39606E-05 26144   0.173E-02    0.409E-02
DAV:   9    -0.757536488195E+03   -0.47749E-04   -0.19349E-05 19296   0.183E-02    0.301E-02
DAV:  10    -0.757536543195E+03   -0.55000E-04   -0.28685E-05 20872   0.182E-02    0.266E-02
DAV:  11    -0.757536583855E+03   -0.40660E-04   -0.19862E-05 17544   0.123E-02    0.253E-02
DAV:  12    -0.757536672524E+03   -0.88669E-04   -0.37111E-05 20944   0.300E-02    0.240E-02
DAV:  13    -0.757536794674E+03   -0.12215E-03   -0.20204E-04 30608   0.539E-02    0.223E-02
DAV:  14    -0.757536900807E+03   -0.10613E-03   -0.19913E-04 29952   0.435E-02    0.197E-02
DAV:  15    -0.757536991419E+03   -0.90613E-04   -0.12722E-04 26736   0.441E-02    0.175E-02
DAV:  16    -0.757537064332E+03   -0.72913E-04   -0.25450E-04 29168   0.618E-02    0.160E-02
DAV:  17    -0.757537138166E+03   -0.73834E-04   -0.29343E-04 28544   0.536E-02    0.139E-02
DAV:  18    -0.757537205242E+03   -0.67076E-04   -0.11972E-04 24592   0.206E-02    0.118E-02
DAV:  19    -0.757537220746E+03   -0.15504E-04   -0.76603E-06 16656   0.700E-03    0.970E-03
DAV:  20    -0.757537236776E+03   -0.16030E-04   -0.25195E-05 18320   0.226E-02    0.852E-03
DAV:  21    -0.757537252926E+03   -0.16150E-04   -0.73922E-05 25552   0.286E-02    0.799E-03
DAV:  22    -0.757537270184E+03   -0.17258E-04   -0.44479E-05 20864   0.177E-02    0.694E-03
DAV:  23    -0.757537279192E+03   -0.90079E-05   -0.16701E-05 17192   0.155E-02
  20 F= -.75753728E+03 E0= -.75753728E+03  d E =0.162653E-01  mag=    65.0000
       N       E                     dE             d eps       ncg     rms          rms(c)
DAV:   1    -0.757378403125E+03    0.15887E+00   -0.16397E+01 28624   0.102E+01    0.247E+00
DAV:   2    -0.757504951126E+03   -0.12655E+00   -0.12992E+00 28992   0.202E+00    0.115E+00
DAV:   3    -0.757502955489E+03    0.19956E-02   -0.40639E-02 30016   0.497E-01    0.766E-01
DAV:   4    -0.757500960042E+03    0.19954E-02   -0.70411E-03 32392   0.211E-01    0.366E-01
DAV:   5    -0.757499936055E+03    0.10240E-02   -0.18801E-03 31344   0.153E-01    0.123E-01
DAV:   6    -0.757499973494E+03   -0.37439E-04   -0.17043E-03 29776   0.920E-02    0.975E-02
DAV:   7    -0.757499978841E+03   -0.53474E-05   -0.22737E-04 29472   0.356E-02    0.547E-02
DAV:   8    -0.757499970519E+03    0.83222E-05   -0.55042E-05 27360   0.202E-02
  21 F= -.75749997E+03 E0= -.75749997E+03  d E =0.373087E-01  mag=    65.0000
       N       E                     dE             d eps       ncg     rms          rms(c)
DAV:   1    -0.757353499556E+03    0.14648E+00   -0.26027E+01 28776   0.131E+01    0.249E+00
DAV:   2    -0.757563761494E+03   -0.21026E+00   -0.21063E+00 28704   0.251E+00    0.119E+00
DAV:   3    -0.757567039398E+03   -0.32779E-02   -0.59451E-02 30176   0.552E-01    0.638E-01
DAV:   4    -0.757564871329E+03    0.21681E-02   -0.89832E-03 33016   0.225E-01    0.402E-01
DAV:   5    -0.757564217521E+03    0.65381E-03   -0.21368E-03 31880   0.142E-01    0.145E-01
DAV:   6    -0.757564278928E+03   -0.61406E-04   -0.12361E-03 31000   0.781E-02    0.938E-02
DAV:   7    -0.757564284304E+03   -0.53765E-05   -0.15340E-04 29352   0.320E-02    0.565E-02
DAV:   8    -0.757564278029E+03    0.62751E-05   -0.40455E-05 27616   0.175E-02
  22 F= -.75756428E+03 E0= -.75756428E+03  d E =-.643075E-01  mag=    65.0000
       N       E                     dE             d eps       ncg     rms          rms(c)
DAV:   1    -0.757543863166E+03    0.20421E-01   -0.17851E+00 28952   0.357E+00    0.947E-01
DAV:   2    -0.757558633604E+03   -0.14770E-01   -0.15751E-01 29128   0.729E-01    0.436E-01
DAV:   3    -0.757558406303E+03    0.22730E-03   -0.65083E-03 30504   0.205E-01    0.331E-01
DAV:   4    -0.757558133520E+03    0.27278E-03   -0.87640E-04 32096   0.757E-02    0.132E-01
DAV:   5    -0.757557952885E+03    0.18064E-03   -0.28820E-04 31104   0.638E-02    0.508E-02
DAV:   6    -0.757557948942E+03    0.39427E-05   -0.27052E-04 29664   0.382E-02    0.377E-02
DAV:   7    -0.757557952358E+03   -0.34155E-05   -0.66036E-05 27712   0.167E-02
  23 F= -.75755795E+03 E0= -.75755795E+03  d E =0.632567E-02  mag=    65.0000
       N       E                     dE             d eps       ncg     rms          rms(c)
DAV:   1    -0.757562352636E+03   -0.44037E-02   -0.69249E-01 27480   0.200E+00    0.624E-01
DAV:   2    -0.757566614804E+03   -0.42622E-02   -0.49263E-02 29928   0.427E-01    0.293E-01
DAV:   3    -0.757566322111E+03    0.29269E-03   -0.24486E-03 30784   0.132E-01    0.245E-01
DAV:   4    -0.757566194091E+03    0.12802E-03   -0.41336E-04 31336   0.514E-02    0.871E-02
DAV:   5    -0.757566112987E+03    0.81104E-04   -0.12523E-04 29640   0.412E-02    0.330E-02
DAV:   6    -0.757566111576E+03    0.14114E-05   -0.12039E-04 28352   0.249E-02    0.290E-02
DAV:   7    -0.757566112894E+03   -0.13183E-05   -0.23900E-05 19336   0.105E-02
  24 F= -.75756611E+03 E0= -.75756611E+03  d E =-.816054E-02  mag=    65.0000
