       N       E                     dE             d eps       ncg     rms          ort
DAV:   1     0.847575976874E+04    0.84758E+04   -0.38165E+05  6342   0.179E+03
DAV:   2     0.365106774801E+03   -0.81107E+04   -0.74587E+04  6342   0.461E+02
DAV:   3    -0.838182425013E+03   -0.12033E+04   -0.11763E+04  6342   0.197E+02
DAV:   4    -0.899766126577E+03   -0.61584E+02   -0.58265E+02  6342   0.444E+01
DAV:   5    -0.902059504081E+03   -0.22934E+01   -0.22289E+01  6342   0.726E+00
SDA:   6    -0.380985407087E+03    0.52107E+03   -0.22289E+01  6342   0.349E+04 0.000E+00
CGA:   7    -0.683054237025E+03   -0.30207E+03   -0.35551E+03  6342   0.331E+04-0.364E+03
CGA:   8    -0.585590279379E+03    0.97464E+02   -0.15559E+03  6342   0.562E+04-0.156E+04
CGA:   9    -0.559004657746E+03    0.26586E+02   -0.69033E+02  6342   0.845E+04-0.384E+04
CGA:  10    -0.544197825540E+03    0.14807E+02   -0.45242E+03  6342   0.543E+04-0.644E+03
CGA:  11    -0.528976440130E+03    0.15221E+02   -0.20788E+03  6342   0.616E+04-0.207E+04
CGA:  12    -0.559256501936E+03   -0.30280E+02   -0.16111E+03  6342   0.303E+04 0.517E+03
CGA:  13    -0.622058445351E+03   -0.62802E+02   -0.85593E+02  6342   0.469E+04-0.370E+04
CGA:  14    -0.633527728742E+03   -0.11469E+02   -0.17337E+03  6342   0.529E+04-0.143E+04
CGA:  15    -0.557224690337E+03    0.76303E+02   -0.13539E+03  6342   0.484E+04-0.168E+04
CGA:  16    -0.584024364587E+03   -0.26800E+02   -0.17596E+03  6342   0.352E+04-0.135E+04
CGA:  17    -0.616690949031E+03   -0.32667E+02   -0.10798E+03  6342   0.484E+04-0.108E+04
CGA:  18    -0.582006324084E+03    0.34685E+02   -0.10430E+03  6342   0.495E+04-0.390E+04
CGA:  19    -0.673573274585E+03   -0.91567E+02   -0.17820E+03  6342   0.440E+04-0.163E+04
CGA:  20    -0.625760353896E+03    0.47813E+02   -0.81001E+02  6342   0.378E+04-0.189E+04
CGA:  21    -0.659484501694E+03   -0.33724E+02   -0.10551E+03  6342   0.335E+04-0.165E+04
CGA:  22    -0.653625245833E+03    0.58593E+01   -0.67263E+02  6342   0.317E+04-0.119E+04
CGA:  23    -0.667723655213E+03   -0.14098E+02   -0.61896E+02  6342   0.571E+04-0.296E+04
CGA:  24    -0.665095234483E+03    0.26284E+01   -0.23918E+03  6342   0.321E+04-0.142E+04
CGA:  25    -0.648300326233E+03    0.16795E+02   -0.10739E+03  6342   0.412E+04-0.737E+03
CGA:  26    -0.549458126439E+03    0.98842E+02   -0.11527E+03  6342   0.521E+04-0.174E+04
CGA:  27    -0.630618264581E+03   -0.81160E+02   -0.11181E+03  6342   0.279E+04-0.130E+04
CGA:  28    -0.614659581710E+03    0.15959E+02   -0.73585E+02  6342   0.449E+04-0.190E+04
CGA:  29    -0.661883380212E+03   -0.47224E+02   -0.13815E+03  6342   0.405E+04-0.252E+04
CGA:  30    -0.696704859003E+03   -0.34821E+02   -0.13680E+03  6342   0.260E+04-0.168E+04
CGA:  31    -0.676784688831E+03    0.19920E+02   -0.49559E+02  6342   0.349E+04-0.991E+03
CGA:  32    -0.698997532975E+03   -0.22213E+02   -0.55576E+02  6342   0.249E+04-0.227E+04
CGA:  33    -0.735760864300E+03   -0.36763E+02   -0.75285E+02  6342   0.187E+04-0.139E+04
CGA:  34    -0.765109840622E+03   -0.29349E+02   -0.48716E+02  6342   0.535E+03-0.195E+03
CGA:  35    -0.769245009379E+03   -0.41352E+01   -0.76142E+01  6342   0.304E+03-0.198E+03
CGA:  36    -0.774203741762E+03   -0.49587E+01   -0.17468E+01  6342   0.337E+03 0.409E+03
CGA:  37    -0.777531343055E+03   -0.33276E+01   -0.58477E+01  6342   0.101E+03-0.180E+03
CGA:  38    -0.778503667394E+03   -0.97232E+00   -0.16269E+01  6342   0.186E+02-0.403E+02
CGA:  39    -0.778737936108E+03   -0.23427E+00   -0.29070E+00  6342   0.246E+01-0.134E+01
CGA:  40    -0.778804120234E+03   -0.66184E-01   -0.68848E-01  6342   0.218E+01-0.383E-01
CGA:  41    -0.779075923092E+03   -0.27180E+00   -0.24368E+00  6342   0.295E+01 0.479E+00
CGA:  42    -0.779196373510E+03   -0.12045E+00   -0.14006E+00  6342   0.174E+01-0.635E-01
CGA:  43    -0.779287249357E+03   -0.90876E-01   -0.91484E-01  6342   0.146E+01 0.306E-01
CGA:  44    -0.779348080464E+03   -0.60831E-01   -0.59799E-01  6342   0.109E+01-0.358E-02
CGA:  45    -0.779398814224E+03   -0.50734E-01   -0.50902E-01  6342   0.877E+00 0.232E-02
CGA:  46    -0.779440552083E+03   -0.41738E-01   -0.42152E-01  6342   0.466E+00 0.848E-02
CGA:  47    -0.779460871030E+03   -0.20319E-01   -0.20317E-01  6342   0.462E+00-0.131E-03
CGA:  48    -0.779482726802E+03   -0.21856E-01   -0.21923E-01  6342   0.372E+00 0.164E-02
CGA:  49    -0.779503780789E+03   -0.21054E-01   -0.21065E-01  6342   0.327E+00 0.382E-02
CGA:  50    -0.779514072725E+03   -0.10292E-01   -0.10085E-01  6342   0.152E+00 0.298E-02
CGA:  51    -0.779521075142E+03   -0.70024E-02   -0.69484E-02  6342   0.106E+00-0.106E-02
CGA:  52    -0.779525600471E+03   -0.45253E-02   -0.45068E-02  6342   0.112E+00-0.133E-03
CGA:  53    -0.779531250392E+03   -0.56499E-02   -0.56532E-02  6342   0.878E-01 0.443E-03
CGA:  54    -0.779535079989E+03   -0.38296E-02   -0.38211E-02  6342   0.867E-01-0.369E-04
CGA:  55    -0.779538642208E+03   -0.35622E-02   -0.35545E-02  6342   0.539E-01 0.193E-04
CGA:  56    -0.779541250534E+03   -0.26083E-02   -0.26057E-02  6342   0.631E-01-0.137E-03
CGA:  57    -0.779543811850E+03   -0.25613E-02   -0.25604E-02  6342   0.405E-01 0.278E-04
CGA:  58    -0.779545590092E+03   -0.17782E-02   -0.17785E-02  6342   0.362E-01 0.296E-04
CGA:  59    -0.779547008237E+03   -0.14181E-02   -0.14180E-02  6342   0.300E-01 0.818E-05
CGA:  60    -0.779548889132E+03   -0.18809E-02   -0.18840E-02  6342   0.443E-01-0.178E-03
CGA:  61    -0.779550468447E+03   -0.15793E-02   -0.15834E-02  6342   0.257E-01 0.217E-04
CGA:  62    -0.779551659021E+03   -0.11906E-02   -0.11905E-02  6342   0.246E-01 0.546E-05
CGA:  63    -0.779552570677E+03   -0.91166E-03   -0.91222E-03  6342   0.188E-01 0.624E-05
CGA:  64    -0.779553794632E+03   -0.12240E-02   -0.12271E-02  6342   0.341E-01-0.156E-03
CGA:  65    -0.779555292022E+03   -0.14974E-02   -0.15011E-02  6342   0.283E-01 0.178E-03
CGA:  66    -0.779556539117E+03   -0.12471E-02   -0.12441E-02  6342   0.247E-01-0.149E-03
CGA:  67    -0.779557458802E+03   -0.91968E-03   -0.92218E-03  6342   0.185E-01 0.898E-05
SDA:  68    -0.779558461472E+03   -0.10027E-02   -0.10036E-02  6342   0.246E-01-0.138E-03
CGA:  69    -0.779558794916E+03   -0.33344E-03   -0.33459E-03  6342   0.399E-02-0.768E-04
CGA:  70    -0.779559258072E+03   -0.46316E-03   -0.45986E-03  6342   0.991E-02 0.517E-04
CGA:  71    -0.779560406176E+03   -0.11481E-02   -0.11395E-02  6342   0.906E-02 0.143E-03
CGA:  72    -0.779560923943E+03   -0.51777E-03   -0.51774E-03  6342   0.362E-02 0.182E-04
CGA:  73    -0.779561385560E+03   -0.46162E-03   -0.46314E-03  6342   0.931E-02-0.230E-04
CGA:  74    -0.779561680999E+03   -0.29544E-03   -0.29496E-03  6342   0.101E-01 0.923E-05
CGA:  75    -0.779562235615E+03   -0.55462E-03   -0.55446E-03  6342   0.276E-02-0.414E-04
CGA:  76    -0.779562435349E+03   -0.19973E-03   -0.19993E-03  6342   0.264E-02-0.140E-04
CGA:  77    -0.779562934828E+03   -0.49948E-03   -0.51362E-03  6342   0.569E-02-0.109E-03
CGA:  78    -0.779563185042E+03   -0.25021E-03   -0.24963E-03  6342   0.361E-02-0.305E-04
CGA:  79    -0.779563259839E+03   -0.74797E-04   -0.74578E-04  6342   0.148E-02-0.279E-05
CGA:  80    -0.779563423368E+03   -0.16353E-03   -0.16287E-03  6342   0.251E-02 0.131E-04
CGA:  81    -0.779563741247E+03   -0.31788E-03   -0.31750E-03  6342   0.264E-02 0.648E-05
CGA:  82    -0.779563854064E+03   -0.11282E-03   -0.11308E-03  6342   0.317E-02 0.508E-05
CGA:  83    -0.779563943576E+03   -0.89513E-04   -0.89579E-04  6342   0.133E-02 0.514E-05
CGA:  84    -0.779564133091E+03   -0.18951E-03   -0.18992E-03  6342   0.208E-02-0.500E-05
CGA:  85    -0.779564245629E+03   -0.11254E-03   -0.11252E-03  6342   0.122E-02-0.346E-05
CGA:  86    -0.779564279217E+03   -0.33588E-04   -0.33551E-04  6342   0.100E-02-0.165E-06
CGA:  87    -0.779564332895E+03   -0.53678E-04   -0.53735E-04  6342   0.751E-03 0.445E-05
CGA:  88    -0.779564413445E+03   -0.80551E-04   -0.79987E-04  6342   0.551E-03 0.136E-04
CGA:  89    -0.779564438204E+03   -0.24759E-04   -0.24912E-04  6342   0.423E-03 0.651E-05
CGA:  90    -0.779564447444E+03   -0.92399E-05   -0.93529E-05  6342   0.174E-03 0.327E-05
CGA:  91    -0.779564468162E+03   -0.20718E-04   -0.20126E-04  6342   0.251E-03 0.115E-04
CGA:  92    -0.779564487038E+03   -0.18877E-04   -0.18829E-04  6342   0.111E-03 0.113E-04
CGA:  93    -0.779564491573E+03   -0.45345E-05   -0.46406E-05  6342   0.989E-04 0.389E-05
   1 F= -.77956449E+03 E0= -.77953987E+03  d E =-.492425E-01  mag=    65.0000
