       N       E                     dE             d eps       ncg     rms          ort
DAV:   1     0.281085263781E+04    0.28109E+04   -0.29347E+05  2880   0.140E+03
DAV:   2    -0.974278341218E+03   -0.37851E+04   -0.36519E+04  2880   0.312E+02
DAV:   3    -0.122934713034E+04   -0.25507E+03   -0.25301E+03  2880   0.844E+01
DAV:   4    -0.123230674278E+04   -0.29596E+01   -0.29494E+01  2880   0.968E+00
DAV:   5    -0.123235455251E+04   -0.47810E-01   -0.47708E-01  2880   0.113E+00
SDA:   6    -0.876174875463E+03    0.35618E+03   -0.47708E-01  2880   0.624E+03 0.000E+00
CGA:   7    -0.985646712415E+03   -0.10947E+03   -0.11017E+03  2880   0.505E+02 0.155E+02
CGA:   8    -0.996385302286E+03   -0.10739E+02   -0.10831E+02  2880   0.313E+02-0.260E+01
CGA:   9    -0.100126607623E+04   -0.48808E+01   -0.49695E+01  2880   0.125E+02 0.361E+00
CGA:  10    -0.100336288899E+04   -0.20968E+01   -0.21863E+01  2880   0.667E+01 0.136E+01
CGA:  11    -0.100429686564E+04   -0.93398E+00   -0.96469E+00  2880   0.929E+01-0.397E+00
CGA:  12    -0.100497045294E+04   -0.67359E+00   -0.59575E+00  2880   0.275E+01 0.479E+00
CGA:  13    -0.100515064812E+04   -0.18020E+00   -0.20977E+00  2880   0.216E+01-0.766E+00
CGA:  14    -0.100525131307E+04   -0.10066E+00   -0.12411E+00  2880   0.288E+01-0.198E+00
CGA:  15    -0.100540405086E+04   -0.15274E+00   -0.18067E+00  2880   0.771E+00-0.296E+00
CGA:  16    -0.100545991873E+04   -0.55868E-01   -0.59918E-01  2880   0.503E+00-0.495E-01
CGA:  17    -0.100550098205E+04   -0.41063E-01   -0.35486E-01  2880   0.311E+00 0.454E-01
CGA:  18    -0.100552586661E+04   -0.24885E-01   -0.22707E-01  2880   0.210E+00 0.283E-01
CGA:  19    -0.100554191571E+04   -0.16049E-01   -0.16853E-01  2880   0.193E+00-0.234E-02
CGA:  20    -0.100555422518E+04   -0.12309E-01   -0.11955E-01  2880   0.132E+00 0.505E-02
CGA:  21    -0.100556220007E+04   -0.79749E-02   -0.80570E-02  2880   0.681E-01 0.109E-02
CGA:  22    -0.100556542329E+04   -0.32232E-02   -0.33712E-02  2880   0.393E-01 0.124E-02
CGA:  23    -0.100556861409E+04   -0.31908E-02   -0.32844E-02  2880   0.571E-01 0.143E-02
CGA:  24    -0.100557331884E+04   -0.47048E-02   -0.47370E-02  2880   0.473E-01 0.440E-03
CGA:  25    -0.100557574814E+04   -0.24293E-02   -0.21863E-02  2880   0.253E-01 0.196E-02
CGA:  26    -0.100557753483E+04   -0.17867E-02   -0.17020E-02  2880   0.245E-01-0.369E-03
CGA:  27    -0.100557856376E+04   -0.10289E-02   -0.93446E-03  2880   0.126E-01 0.263E-02
CGA:  28    -0.100557903638E+04   -0.47262E-03   -0.51329E-03  2880   0.792E-02 0.532E-03
CGA:  29    -0.100557950227E+04   -0.46589E-03   -0.49089E-03  2880   0.120E-01 0.401E-03
CGA:  30    -0.100558033268E+04   -0.83041E-03   -0.84225E-03  2880   0.140E-01-0.289E-03
CGA:  31    -0.100558096070E+04   -0.62801E-03   -0.48675E-03  2880   0.839E-02 0.163E-02
CGA:  32    -0.100558139678E+04   -0.43608E-03   -0.34248E-03  2880   0.673E-02 0.645E-03
CGA:  33    -0.100558169356E+04   -0.29679E-03   -0.25036E-03  2880   0.567E-02 0.737E-03
CGA:  34    -0.100558185151E+04   -0.15795E-03   -0.16155E-03  2880   0.369E-02 0.818E-03
CGA:  35    -0.100558193219E+04   -0.80674E-04   -0.11408E-03  2880   0.305E-02 0.450E-03
CGA:  36    -0.100558200742E+04   -0.75228E-04   -0.11505E-03  2880   0.373E-02 0.528E-03
SDA:  37    -0.100558213476E+04   -0.12734E-03   -0.16491E-03  2880   0.389E-02 0.622E-03
CGA:  38    -0.100558239055E+04   -0.25579E-03   -0.23992E-03  2880   0.957E-03-0.621E-03
CGA:  39    -0.100558247806E+04   -0.87516E-04   -0.82978E-04  2880   0.463E-03 0.275E-03
CGA:  40    -0.100558258929E+04   -0.11123E-03   -0.88610E-04  2880   0.341E-03 0.372E-03
CGA:  41    -0.100558259704E+04   -0.77482E-05   -0.84401E-04  2880   0.330E-02-0.499E-03
CGA:  42    -0.100558270270E+04   -0.10566E-03   -0.13068E-03  2880   0.172E-03 0.377E-03
CGA:  43    -0.100558271237E+04   -0.96758E-05   -0.12607E-04  2880   0.169E-03 0.976E-04
CGA:  44    -0.100558274488E+04   -0.32502E-04    0.42316E-03  2880   0.180E-03 0.771E-04
CGA:  45    -0.100558289155E+04   -0.14667E-03   -0.11162E-03  2880   0.125E-03 0.975E-04
CGA:  46    -0.100558290351E+04   -0.11966E-04   -0.11476E-04  2880   0.750E-04-0.269E-04
CGA:  47    -0.100558291081E+04   -0.72961E-05   -0.69966E-05  2880   0.622E-04 0.336E-04
CGA:  48    -0.100558288895E+04    0.21861E-04   -0.40337E-04  2880   0.127E-02-0.192E-03
CGA:  49    -0.100558295574E+04   -0.66787E-04   -0.71698E-04  2880   0.138E-04 0.603E-04
CGA:  50    -0.100558295561E+04    0.12504E-06   -0.60526E-06  2880   0.790E-05 0.892E-05
   1 F= -.10055830E+04 E0= -.10055669E+04  d E =-.100558E+04  mag=     1.0000
       N       E                     dE             d eps       ncg     rms          ort
SDA:   1    -0.100558375368E+04   -0.79795E-03    0.00000E+00  2880   0.103E-02 0.000E+00
CGA:   2    -0.100558382021E+04   -0.66529E-04   -0.66647E-04  2880   0.137E-03 0.560E-05
CGA:   3    -0.100558364667E+04    0.17354E-03   -0.95671E-04  2880   0.534E-02-0.415E-03
CGA:   4    -0.100558381453E+04   -0.16786E-03   -0.21668E-03  2880   0.210E-03 0.395E-04
CGA:   5    -0.100558385219E+04   -0.37662E-04   -0.37945E-04  2880   0.141E-03 0.656E-05
CGA:   6    -0.100558387304E+04   -0.20843E-04   -0.17620E-04  2880   0.365E-04-0.349E-04
CGA:   7    -0.100558387247E+04    0.56795E-06   -0.15153E-05  2880   0.149E-04 0.134E-04
   2 F= -.10055839E+04 E0= -.10055678E+04  d E =-.916859E-03  mag=     1.0000
       N       E                     dE             d eps       ncg     rms          ort
SDA:   1    -0.100555749557E+04    0.26377E-01    0.00000E+00  2880   0.142E+00 0.000E+00
CGA:   2    -0.100557891678E+04   -0.21421E-01   -0.21417E-01  2880   0.180E+00-0.369E-03
CGA:   3    -0.100560037807E+04   -0.21461E-01   -0.21505E-01  2880   0.476E-01-0.827E-03
CGA:   4    -0.100560313964E+04   -0.27616E-02   -0.28328E-02  2880   0.128E-01 0.144E-02
CGA:   5    -0.100560609464E+04   -0.29550E-02   -0.29727E-02  2880   0.203E-02-0.433E-03
CGA:   6    -0.100560648376E+04   -0.38912E-03   -0.38928E-03  2880   0.164E-02-0.191E-04
CGA:   7    -0.100560662293E+04   -0.13917E-03   -0.14948E-03  2880   0.282E-03 0.110E-03
CGA:   8    -0.100560667415E+04   -0.51222E-04   -0.48991E-04  2880   0.769E-03-0.127E-03
CGA:   9    -0.100560670575E+04   -0.31594E-04   -0.30225E-04  2880   0.643E-03-0.124E-04
CGA:  10    -0.100560671891E+04   -0.13159E-04   -0.20882E-04  2880   0.134E-03 0.485E-04
CGA:  11    -0.100560672227E+04   -0.33630E-05   -0.62617E-05  2880   0.888E-04 0.230E-04
   3 F= -.10056067E+04 E0= -.10055907E+04  d E =-.228498E-01  mag=     1.0000
       N       E                     dE             d eps       ncg     rms          ort
SDA:   1    -0.100536199826E+04    0.24472E+00    0.00000E+00  2880   0.144E+01 0.000E+00
CGA:   2    -0.100546749082E+04   -0.10549E+00   -0.13032E+00  2880   0.756E+00-0.101E+00
CGA:   3    -0.100560343048E+04   -0.13594E+00   -0.13704E+00  2880   0.440E+00-0.181E-01
CGA:   4    -0.100563021886E+04   -0.26788E-01   -0.23966E-01  2880   0.667E-01 0.275E-01
CGA:   5    -0.100564067735E+04   -0.10458E-01   -0.10450E-01  2880   0.614E-01-0.141E-02
CGA:   6    -0.100564731798E+04   -0.66406E-02   -0.66123E-02  2880   0.121E-01 0.119E-03
CGA:   7    -0.100564828816E+04   -0.97018E-03   -0.92449E-03  2880   0.834E-02-0.584E-03
CGA:   8    -0.100564957540E+04   -0.12872E-02   -0.12794E-02  2880   0.125E-02 0.485E-03
CGA:   9    -0.100564972489E+04   -0.14949E-03   -0.15300E-03  2880   0.122E-02 0.118E-03
CGA:  10    -0.100564997035E+04   -0.24546E-03   -0.27366E-03  2880   0.203E-02-0.471E-03
CGA:  11    -0.100565001889E+04   -0.48540E-04   -0.54419E-04  2880   0.637E-03 0.516E-04
CGA:  12    -0.100565002954E+04   -0.10643E-04   -0.22655E-04  2880   0.313E-03 0.102E-03
CGA:  13    -0.100565004591E+04   -0.16370E-04   -0.25008E-04  2880   0.449E-03 0.126E-03
CGA:  14    -0.100565008849E+04   -0.42589E-04   -0.46540E-04  2880   0.908E-04 0.669E-04
CGA:  15    -0.100565009999E+04   -0.11496E-04   -0.17548E-04  2880   0.648E-03-0.163E-03
CGA:  16    -0.100565011310E+04   -0.13107E-04   -0.23278E-04  2880   0.398E-04 0.964E-04
CGA:  17    -0.100565011572E+04   -0.26218E-05   -0.32220E-05  2880   0.399E-04 0.103E-04
   4 F= -.10056501E+04 E0= -.10056341E+04  d E =-.433934E-01  mag=     1.0000
       N       E                     dE             d eps       ncg     rms          ort
SDA:   1    -0.100521497365E+04    0.43514E+00    0.00000E+00  2880   0.441E+01 0.000E+00
CGA:   2    -0.100540815516E+04   -0.19318E+00   -0.28920E+00  2880   0.146E+01-0.791E+00
CGA:   3    -0.100553448891E+04   -0.12633E+00   -0.12877E+00  2880   0.997E+00 0.649E-01
CGA:   4    -0.100562974708E+04   -0.95258E-01   -0.96580E-01  2880   0.309E+00-0.184E-02
CGA:   5    -0.100566466747E+04   -0.34920E-01   -0.35034E-01  2880   0.133E+00 0.721E-02
CGA:   6    -0.100567557784E+04   -0.10910E-01   -0.11093E-01  2880   0.740E-01 0.206E-02
CGA:   7    -0.100568249253E+04   -0.69147E-02   -0.69197E-02  2880   0.298E-01-0.141E-02
CGA:   8    -0.100568568189E+04   -0.31894E-02   -0.31928E-02  2880   0.143E-01-0.173E-04
CGA:   9    -0.100568654838E+04   -0.86650E-03   -0.92042E-03  2880   0.557E-02 0.729E-03
CGA:  10    -0.100568718148E+04   -0.63310E-03   -0.63226E-03  2880   0.361E-02-0.218E-03
CGA:  11    -0.100568763700E+04   -0.45552E-03   -0.46107E-03  2880   0.381E-02-0.310E-03
CGA:  12    -0.100568781623E+04   -0.17922E-03   -0.20052E-03  2880   0.800E-03 0.340E-03
CGA:  13    -0.100568787154E+04   -0.55310E-04   -0.58836E-04  2880   0.453E-03 0.806E-04
CGA:  14    -0.100568793451E+04   -0.62971E-04   -0.77855E-04  2880   0.151E-02-0.322E-03
CGA:  15    -0.100568798682E+04   -0.52317E-04   -0.65135E-04  2880   0.107E-03 0.181E-03
CGA:  16    -0.100568799771E+04   -0.10888E-04   -0.10954E-04  2880   0.120E-03 0.324E-05
CGA:  17    -0.100568799282E+04    0.48947E-05   -0.15159E-04  2880   0.104E-02-0.150E-03
CGA:  18    -0.100568802587E+04   -0.33052E-04   -0.44861E-04  2880   0.929E-04 0.810E-04
CGA:  19    -0.100568804492E+04   -0.19050E-04   -0.19252E-04  2880   0.260E-03-0.463E-04
CGA:  20    -0.100568805945E+04   -0.14535E-04   -0.10410E-04  2880   0.251E-03-0.381E-04
CGA:  21    -0.100568806630E+04   -0.68500E-05   -0.76253E-05  2880   0.590E-04 0.451E-05
   5 F= -.10056881E+04 E0= -.10056721E+04  d E =-.379506E-01  mag=     1.0000
       N       E                     dE             d eps       ncg     rms          ort
SDA:   1    -0.100500320253E+04    0.68486E+00    0.00000E+00  2880   0.774E+01 0.000E+00
CGA:   2    -0.100520759670E+04   -0.20439E+00   -0.62680E+00  2880   0.467E+01-0.263E+01
CGA:   3    -0.100542439307E+04   -0.21680E+00   -0.28129E+00  2880   0.315E+01-0.328E+00
CGA:   4    -0.100560227017E+04   -0.17788E+00   -0.17806E+00  2880   0.894E+00-0.222E+00
CGA:   5    -0.100564633107E+04   -0.44061E-01   -0.37733E-01  2880   0.225E+00 0.836E-01
CGA:   6    -0.100566946741E+04   -0.23136E-01   -0.23995E-01  2880   0.235E+00-0.655E-03
CGA:   7    -0.100568817858E+04   -0.18711E-01   -0.19602E-01  2880   0.247E+00-0.128E-02
CGA:   8    -0.100570605679E+04   -0.17878E-01   -0.17757E-01  2880   0.108E+00-0.951E-03
CGA:   9    -0.100571074416E+04   -0.46874E-02   -0.43082E-02  2880   0.182E-01 0.339E-02
CGA:  10    -0.100571187255E+04   -0.11284E-02   -0.11798E-02  2880   0.110E-01-0.281E-03
CGA:  11    -0.100571248346E+04   -0.61090E-03   -0.66951E-03  2880   0.724E-02 0.727E-03
CGA:  12    -0.100571317656E+04   -0.69311E-03   -0.70540E-03  2880   0.782E-02 0.356E-03
CGA:  13    -0.100571373219E+04   -0.55563E-03   -0.53210E-03  2880   0.319E-02-0.470E-03
CGA:  14    -0.100571396337E+04   -0.23117E-03   -0.22928E-03  2880   0.239E-02-0.934E-04
CGA:  15    -0.100571407433E+04   -0.11097E-03   -0.12772E-03  2880   0.101E-02 0.244E-03
CGA:  16    -0.100571415923E+04   -0.84894E-04   -0.87024E-04  2880   0.106E-02 0.519E-04
CGA:  17    -0.100571428073E+04   -0.12150E-03   -0.11727E-03  2880   0.114E-02-0.403E-03
CGA:  18    -0.100571433521E+04   -0.54479E-04   -0.49865E-04  2880   0.839E-03-0.111E-03
CGA:  19    -0.100571435097E+04   -0.15756E-04   -0.26035E-04  2880   0.228E-03 0.128E-03
CGA:  20    -0.100571435076E+04    0.20911E-06   -0.73920E-05  2880   0.122E-03 0.919E-04
   6 F= -.10057144E+04 E0= -.10056984E+04  d E =-.262845E-01  mag=     1.0000
       N       E                     dE             d eps       ncg     rms          ort
SDA:   1    -0.100534688479E+04    0.36747E+00    0.00000E+00  2880   0.150E+01 0.000E+00
CGA:   2    -0.100548170159E+04   -0.13482E+00   -0.13470E+00  2880   0.909E+00-0.824E-02
CGA:   3    -0.100567086317E+04   -0.18916E+00   -0.19047E+00  2880   0.489E+00-0.130E-01
CGA:   4    -0.100569659834E+04   -0.25735E-01   -0.24405E-01  2880   0.875E-01 0.430E-02
CGA:   5    -0.100571449274E+04   -0.17894E-01   -0.18007E-01  2880   0.492E-01-0.122E-02
CGA:   6    -0.100571835561E+04   -0.38629E-02   -0.39109E-02  2880   0.103E-01 0.612E-03
CGA:   7    -0.100571942668E+04   -0.10711E-02   -0.10682E-02  2880   0.110E-01-0.691E-03
CGA:   8    -0.100572064969E+04   -0.12230E-02   -0.12155E-02  2880   0.217E-02 0.639E-03
CGA:   9    -0.100572086645E+04   -0.21676E-03   -0.21528E-03  2880   0.119E-02-0.134E-03
CGA:  10    -0.100572107745E+04   -0.21100E-03   -0.22920E-03  2880   0.225E-02-0.190E-03
CGA:  11    -0.100572115503E+04   -0.77581E-04   -0.95011E-04  2880   0.383E-03 0.279E-03
CGA:  12    -0.100572116615E+04   -0.11119E-04   -0.17779E-04  2880   0.195E-03 0.964E-04
CGA:  13    -0.100572119808E+04   -0.31927E-04   -0.31607E-04  2880   0.400E-03 0.125E-04
CGA:  14    -0.100572123771E+04   -0.39637E-04   -0.37164E-04  2880   0.315E-03-0.129E-03
CGA:  15    -0.100572124422E+04   -0.65025E-05   -0.77673E-05  2880   0.153E-03 0.181E-04
   7 F= -.10057212E+04 E0= -.10057055E+04  d E =-.689346E-02  mag=     1.0000
       N       E                     dE             d eps       ncg     rms          ort
SDA:   1    -0.100552673764E+04    0.19450E+00    0.00000E+00  2880   0.240E+01 0.000E+00
CGA:   2    -0.100562460248E+04   -0.97865E-01   -0.11583E+00  2880   0.401E+00-0.248E+00
CGA:   3    -0.100565973801E+04   -0.35136E-01   -0.35094E-01  2880   0.308E+00 0.150E-01
CGA:   4    -0.100570771217E+04   -0.47974E-01   -0.47859E-01  2880   0.913E-01 0.651E-03
CGA:   5    -0.100571594270E+04   -0.82305E-02   -0.82259E-02  2880   0.220E-01 0.150E-02
CGA:   6    -0.100572066339E+04   -0.47207E-02   -0.49763E-02  2880   0.233E-01-0.211E-02
CGA:   7    -0.100572197268E+04   -0.13093E-02   -0.13626E-02  2880   0.400E-02 0.107E-02
CGA:   8    -0.100572225509E+04   -0.28241E-03   -0.28977E-03  2880   0.162E-02 0.165E-03
CGA:   9    -0.100572270807E+04   -0.45298E-03   -0.52736E-03  2880   0.162E-02-0.353E-03
CGA:  10    -0.100572274330E+04   -0.35225E-04   -0.49518E-04  2880   0.444E-03 0.183E-03
CGA:  11    -0.100572276462E+04   -0.21329E-04   -0.28386E-04  2880   0.428E-03 0.138E-03
CGA:  12    -0.100572283204E+04   -0.67411E-04   -0.67561E-04  2880   0.503E-03-0.115E-04
CGA:  13    -0.100572287855E+04   -0.46519E-04   -0.41535E-04  2880   0.244E-03-0.238E-03
CGA:  14    -0.100572288211E+04   -0.35543E-05   -0.42925E-05  2880   0.141E-03 0.969E-05
   8 F= -.10057229E+04 E0= -.10057072E+04  d E =-.163789E-02  mag=     1.0000
       N       E                     dE             d eps       ncg     rms          ort
SDA:   1    -0.100570380579E+04    0.19073E-01    0.00000E+00  2880   0.215E+00 0.000E+00
CGA:   2    -0.100571301348E+04   -0.92077E-02   -0.92388E-02  2880   0.298E-01 0.317E-02
CGA:   3    -0.100571952181E+04   -0.65083E-02   -0.67056E-02  2880   0.467E-01-0.161E-02
CGA:   4    -0.100572312367E+04   -0.36019E-02   -0.36214E-02  2880   0.527E-02 0.102E-02
CGA:   5    -0.100572348934E+04   -0.36568E-03   -0.38501E-03  2880   0.358E-02 0.630E-03
CGA:   6    -0.100572409213E+04   -0.60279E-03   -0.61173E-03  2880   0.114E-02-0.172E-03
CGA:   7    -0.100572418748E+04   -0.95343E-04   -0.95458E-04  2880   0.359E-03-0.119E-05
CGA:   8    -0.100572422968E+04   -0.42207E-04   -0.40845E-04  2880   0.246E-03 0.109E-03
CGA:   9    -0.100572427056E+04   -0.40878E-04   -0.57828E-04  2880   0.400E-03-0.217E-03
CGA:  10    -0.100572427956E+04   -0.89998E-05   -0.15523E-04  2880   0.628E-04 0.948E-04
   9 F= -.10057243E+04 E0= -.10057086E+04  d E =-.139745E-02  mag=     1.0000
       N       E                     dE             d eps       ncg     rms          ort
SDA:   1    -0.100567271263E+04    0.51558E-01    0.00000E+00  2880   0.227E+00 0.000E+00
CGA:   2    -0.100568724605E+04   -0.14533E-01   -0.14912E-01  2880   0.149E+00 0.248E-02
CGA:   3    -0.100571942771E+04   -0.32182E-01   -0.32410E-01  2880   0.259E-01-0.213E-02
CGA:   4    -0.100572245078E+04   -0.30231E-02   -0.30266E-02  2880   0.145E-01 0.412E-04
CGA:   5    -0.100572440991E+04   -0.19591E-02   -0.19814E-02  2880   0.747E-02-0.769E-03
CGA:   6    -0.100572473606E+04   -0.32615E-03   -0.36123E-03  2880   0.115E-02 0.592E-03
CGA:   7    -0.100572490018E+04   -0.16412E-03   -0.15827E-03  2880   0.110E-02 0.243E-03
CGA:   8    -0.100572506023E+04   -0.16005E-03   -0.16952E-03  2880   0.976E-03-0.434E-03
CGA:   9    -0.100572507653E+04   -0.16308E-04   -0.21513E-04  2880   0.339E-03 0.721E-04
CGA:  10    -0.100572507896E+04   -0.24260E-05   -0.10166E-04  2880   0.161E-03 0.100E-03
  10 F= -.10057251E+04 E0= -.10057094E+04  d E =-.799398E-03  mag=     1.0000
       N       E                     dE             d eps       ncg     rms          ort
SDA:   1    -0.100540072872E+04    0.32435E+00    0.00000E+00  2880   0.114E+01 0.000E+00
CGA:   2    -0.100550824669E+04   -0.10752E+00   -0.10748E+00  2880   0.103E+01-0.841E-02
CGA:   3    -0.100566764281E+04   -0.15940E+00   -0.16003E+00  2880   0.526E+00-0.113E-01
CGA:   4    -0.100570251288E+04   -0.34870E-01   -0.33155E-01  2880   0.695E-01 0.576E-03
CGA:   5    -0.100572086667E+04   -0.18354E-01   -0.18271E-01  2880   0.104E-01 0.511E-03
CGA:   6    -0.100572230955E+04   -0.14429E-02   -0.14503E-02  2880   0.143E-01-0.306E-03
CGA:   7    -0.100572351595E+04   -0.12064E-02   -0.12199E-02  2880   0.315E-02 0.636E-03
CGA:   8    -0.100572380279E+04   -0.28684E-03   -0.27916E-03  2880   0.134E-02-0.420E-03
CGA:   9    -0.100572401680E+04   -0.21401E-03   -0.20083E-03  2880   0.727E-03 0.192E-03
CGA:  10    -0.100572407027E+04   -0.53464E-04   -0.59157E-04  2880   0.283E-03 0.150E-03
CGA:  11    -0.100572407493E+04   -0.46643E-05   -0.10440E-03  2880   0.260E-02-0.503E-03
CGA:  12    -0.100572415848E+04   -0.83548E-04   -0.11075E-03  2880   0.238E-03 0.385E-03
CGA:  13    -0.100572416972E+04   -0.11243E-04   -0.14364E-04  2880   0.503E-04 0.524E-04
CGA:  14    -0.100572413362E+04    0.36099E-04   -0.27810E-04  2880   0.153E-02-0.187E-03
CGA:  15    -0.100572418257E+04   -0.48945E-04   -0.63428E-04  2880   0.123E-03 0.158E-03
CGA:  16    -0.100572419500E+04   -0.12430E-04   -0.11180E-04  2880   0.282E-04-0.317E-04
CGA:  17    -0.100572420125E+04   -0.62477E-05    0.53691E-05  2880   0.230E-04 0.404E-05
  11 F= -.10057242E+04 E0= -.10057087E+04  d E =0.877713E-03  mag=     1.0000
       N       E                     dE             d eps       ncg     rms          ort
SDA:   1    -0.100512416759E+04    0.60003E+00    0.00000E+00  2880   0.161E+01 0.000E+00
CGA:   2    -0.100540248567E+04   -0.27832E+00   -0.27017E+00  2880   0.228E+01 0.134E+00
CGA:   3    -0.100564256445E+04   -0.24008E+00   -0.22978E+00  2880   0.458E+00-0.118E+00
CGA:   4    -0.100567779735E+04   -0.35233E-01   -0.34866E-01  2880   0.204E+00 0.104E-02
CGA:   5    -0.100570848916E+04   -0.30692E-01   -0.30655E-01  2880   0.863E-01-0.303E-03
CGA:   6    -0.100571353776E+04   -0.50486E-02   -0.52563E-02  2880   0.192E-01 0.137E-02
CGA:   7    -0.100571704836E+04   -0.35106E-02   -0.36521E-02  2880   0.243E-01-0.204E-02
CGA:   8    -0.100571851780E+04   -0.14694E-02   -0.15385E-02  2880   0.260E-02 0.121E-02
CGA:   9    -0.100571881087E+04   -0.29307E-03   -0.29466E-03  2880   0.236E-02 0.181E-03
CGA:  10    -0.100571935054E+04   -0.53967E-03   -0.54902E-03  2880   0.453E-03-0.944E-04
CGA:  11    -0.100571936084E+04   -0.10310E-04   -0.19166E-03  2880   0.645E-02-0.572E-03
CGA:  12    -0.100571953868E+04   -0.17783E-03   -0.22784E-03  2880   0.973E-04 0.328E-03
CGA:  13    -0.100571954195E+04   -0.32715E-05   -0.67688E-05  2880   0.805E-04 0.533E-04
CGA:  14    -0.100571956551E+04   -0.23559E-04    0.36566E-04  2880   0.151E-03-0.127E-05
CGA:  15    -0.100571958458E+04   -0.19066E-04   -0.19059E-04  2880   0.175E-04 0.283E-04
CGA:  16    -0.100571958374E+04    0.83933E-06   -0.64276E-06  2880   0.111E-04 0.152E-04
  12 F= -.10057196E+04 E0= -.10057040E+04  d E =0.461751E-02  mag=     1.0000
       N       E                     dE             d eps       ncg     rms          ort
SDA:   1    -0.100552434598E+04    0.19524E+00    0.00000E+00  2880   0.694E+00 0.000E+00
CGA:   2    -0.100558865888E+04   -0.64313E-01   -0.63699E-01  2880   0.780E+00-0.162E-01
CGA:   3    -0.100569379662E+04   -0.10514E+00   -0.10512E+00  2880   0.248E+00 0.137E-02
CGA:   4    -0.100571065631E+04   -0.16860E-01   -0.17108E-01  2880   0.555E-01 0.888E-03
CGA:   5    -0.100572369102E+04   -0.13035E-01   -0.13122E-01  2880   0.860E-02-0.756E-03
CGA:   6    -0.100572492958E+04   -0.12386E-02   -0.12437E-02  2880   0.110E-01-0.272E-03
CGA:   7    -0.100572570334E+04   -0.77376E-03   -0.80711E-03  2880   0.274E-02 0.599E-03
CGA:   8    -0.100572600353E+04   -0.30019E-03   -0.29491E-03  2880   0.951E-03-0.298E-03
CGA:   9    -0.100572618174E+04   -0.17820E-03   -0.17555E-03  2880   0.942E-03 0.286E-04
CGA:  10    -0.100572623554E+04   -0.53799E-04   -0.59660E-04  2880   0.225E-03 0.873E-04
CGA:  11    -0.100572609298E+04    0.14255E-03   -0.12003E-03  2880   0.597E-02-0.717E-03
CGA:  12    -0.100572630502E+04   -0.21204E-03   -0.26170E-03  2880   0.279E-03 0.598E-03
CGA:  13    -0.100572631515E+04   -0.10130E-04   -0.14392E-04  2880   0.465E-04 0.461E-04
CGA:  14    -0.100572632443E+04   -0.92838E-05   -0.91279E-05  2880   0.870E-04 0.407E-05
  13 F= -.10057263E+04 E0= -.10057108E+04  d E =-.674070E-02  mag=     1.0000
       N       E                     dE             d eps       ncg     rms          ort
SDA:   1    -0.100569450223E+04    0.31813E-01    0.00000E+00  2880   0.128E+00 0.000E+00
CGA:   2    -0.100570628520E+04   -0.11783E-01   -0.11882E-01  2880   0.821E-01 0.180E-02
CGA:   3    -0.100572199973E+04   -0.15715E-01   -0.15674E-01  2880   0.459E-01 0.587E-03
CGA:   4    -0.100572455822E+04   -0.25585E-02   -0.24054E-02  2880   0.885E-02-0.919E-03
CGA:   5    -0.100572659479E+04   -0.20366E-02   -0.19748E-02  2880   0.189E-02 0.607E-03
CGA:   6    -0.100572685220E+04   -0.25741E-03   -0.25377E-03  2880   0.299E-02-0.576E-03
CGA:   7    -0.100572702358E+04   -0.17138E-03   -0.17640E-03  2880   0.135E-02 0.101E-03
CGA:   8    -0.100572706419E+04   -0.40613E-04   -0.61539E-04  2880   0.398E-03 0.252E-03
CGA:   9    -0.100572708362E+04   -0.19426E-04   -0.24475E-04  2880   0.180E-03 0.692E-04
CGA:  10    -0.100572711388E+04   -0.30260E-04   -0.34876E-04  2880   0.700E-03-0.108E-03
CGA:  11    -0.100572713474E+04   -0.20864E-04   -0.28124E-04  2880   0.716E-04 0.813E-04
CGA:  12    -0.100572714509E+04   -0.10351E-04   -0.11834E-04  2880   0.133E-03-0.529E-04
CGA:  13    -0.100572715255E+04   -0.74600E-05   -0.84674E-05  2880   0.223E-04 0.173E-04
  14 F= -.10057272E+04 E0= -.10057116E+04  d E =-.828120E-03  mag=     1.0000
       N       E                     dE             d eps       ncg     rms          ort
SDA:   1    -0.100571833520E+04    0.88099E-02    0.00000E+00  2880   0.246E-01 0.000E+00
CGA:   2    -0.100572316934E+04   -0.48341E-02   -0.47952E-02  2880   0.368E-01 0.402E-03
CGA:   3    -0.100572622999E+04   -0.30607E-02   -0.30431E-02  2880   0.109E-01-0.797E-03
CGA:   4    -0.100572692888E+04   -0.69889E-03   -0.72437E-03  2880   0.239E-02 0.615E-03
CGA:   5    -0.100572742931E+04   -0.50042E-03   -0.55260E-03  2880   0.240E-02-0.507E-03
CGA:   6    -0.100572753326E+04   -0.10396E-03   -0.11823E-03  2880   0.454E-03 0.265E-03
CGA:   7    -0.100572755337E+04   -0.20106E-04   -0.27931E-04  2880   0.235E-03 0.129E-03
CGA:   8    -0.100572759319E+04   -0.39820E-04   -0.39355E-04  2880   0.233E-03 0.276E-04
CGA:   9    -0.100572762113E+04   -0.27942E-04   -0.26154E-04  2880   0.904E-04-0.129E-03
CGA:  10    -0.100572762405E+04   -0.29179E-05   -0.53096E-05  2880   0.351E-04 0.432E-04
  15 F= -.10057276E+04 E0= -.10057121E+04  d E =-.471497E-03  mag=     1.0000
       N       E                     dE             d eps       ncg     rms          ort
SDA:   1    -0.100570318587E+04    0.24435E-01    0.00000E+00  2880   0.621E-01 0.000E+00
CGA:   2    -0.100571676095E+04   -0.13575E-01   -0.13358E-01  2880   0.968E-01 0.195E-02
CGA:   3    -0.100572505114E+04   -0.82902E-02   -0.82014E-02  2880   0.186E-01-0.283E-02
CGA:   4    -0.100572619363E+04   -0.11425E-02   -0.11611E-02  2880   0.698E-02 0.448E-03
CGA:   5    -0.100572750006E+04   -0.13064E-02   -0.12913E-02  2880   0.116E-02 0.206E-03
CGA:   6    -0.100572764720E+04   -0.14715E-03   -0.14830E-03  2880   0.112E-02-0.136E-03
CGA:   7    -0.100572777978E+04   -0.13258E-03   -0.13579E-03  2880   0.622E-03-0.152E-03
CGA:   8    -0.100572778781E+04   -0.80303E-05   -0.19776E-04  2880   0.114E-03 0.144E-03
  16 F= -.10057278E+04 E0= -.10057122E+04  d E =-.163763E-03  mag=     1.0000
       N       E                     dE             d eps       ncg     rms          ort
SDA:   1    -0.100532048122E+04    0.40730E+00    0.00000E+00  2880   0.100E+01 0.000E+00
CGA:   2    -0.100553423001E+04   -0.21375E+00   -0.22638E+00  2880   0.199E+01-0.102E+00
CGA:   3    -0.100568216984E+04   -0.14794E+00   -0.14752E+00  2880   0.292E+00-0.141E-01
CGA:   4    -0.100570081180E+04   -0.18642E-01   -0.18041E-01  2880   0.105E+00 0.281E-02
CGA:   5    -0.100571963841E+04   -0.18827E-01   -0.18794E-01  2880   0.357E-01 0.423E-03
CGA:   6    -0.100572277584E+04   -0.31374E-02   -0.31023E-02  2880   0.110E-01 0.510E-03
CGA:   7    -0.100572471540E+04   -0.19396E-02   -0.19859E-02  2880   0.914E-02-0.743E-03
CGA:   8    -0.100572548363E+04   -0.76824E-03   -0.77691E-03  2880   0.132E-02 0.432E-03
CGA:   9    -0.100572563375E+04   -0.15011E-03   -0.15119E-03  2880   0.124E-02 0.228E-03
CGA:  10    -0.100572588831E+04   -0.25456E-03   -0.25406E-03  2880   0.326E-03 0.756E-05
CGA:  11    -0.100572592089E+04   -0.32581E-04   -0.67565E-04  2880   0.173E-02-0.397E-03
CGA:  12    -0.100572596329E+04   -0.42402E-04   -0.66140E-04  2880   0.183E-03 0.275E-03
CGA:  13    -0.100572596961E+04   -0.63244E-05   -0.11248E-04  2880   0.890E-04 0.769E-04
CGA:  14    -0.100572598438E+04   -0.14766E-04   -0.14802E-04  2880   0.163E-03-0.134E-04
CGA:  15    -0.100572599552E+04   -0.11138E-04   -0.10850E-04  2880   0.164E-03-0.808E-05
CGA:  16    -0.100572600052E+04   -0.50045E-05   -0.58494E-05  2880   0.641E-04 0.106E-04
  17 F= -.10057260E+04 E0= -.10057104E+04  d E =0.178729E-02  mag=     1.0000
       N       E                     dE             d eps       ncg     rms          ort
SDA:   1    -0.100533909125E+04    0.38690E+00    0.00000E+00  2880   0.191E+01 0.000E+00
CGA:   2    -0.100546847242E+04   -0.12938E+00   -0.13857E+00  2880   0.966E+00-0.219E-01
CGA:   3    -0.100562427190E+04   -0.15580E+00   -0.15401E+00  2880   0.110E+01 0.270E-01
CGA:   4    -0.100569719591E+04   -0.72924E-01   -0.75544E-01  2880   0.102E+00-0.126E-01
CGA:   5    -0.100571125118E+04   -0.14055E-01   -0.13996E-01  2880   0.710E-01 0.844E-03
CGA:   6    -0.100571961023E+04   -0.83591E-02   -0.83466E-02  2880   0.241E-01 0.653E-03
CGA:   7    -0.100572093309E+04   -0.13229E-02   -0.13978E-02  2880   0.630E-02 0.111E-02
CGA:   8    -0.100572237542E+04   -0.14423E-02   -0.15824E-02  2880   0.843E-02-0.105E-02
CGA:   9    -0.100572286346E+04   -0.48803E-03   -0.50729E-03  2880   0.103E-02 0.501E-03
CGA:  10    -0.100572294316E+04   -0.79701E-04   -0.87802E-04  2880   0.860E-03 0.275E-03
CGA:  11    -0.100572314523E+04   -0.20207E-03   -0.19905E-03  2880   0.492E-03 0.399E-04
CGA:  12    -0.100572318950E+04   -0.44268E-04   -0.42132E-04  2880   0.249E-03-0.748E-04
CGA:  13    -0.100572320256E+04   -0.13066E-04   -0.88081E-04  2880   0.120E-02-0.246E-03
CGA:  14    -0.100572324414E+04   -0.41577E-04   -0.56530E-04  2880   0.161E-03 0.187E-03
CGA:  15    -0.100572325565E+04   -0.11512E-04   -0.12686E-04  2880   0.535E-04 0.207E-04
CGA:  16    -0.100572326888E+04   -0.13231E-04   -0.12678E-04  2880   0.914E-04 0.600E-05
CGA:  17    -0.100572327027E+04   -0.13869E-05   -0.42542E-05  2880   0.173E-04 0.348E-04
  18 F= -.10057233E+04 E0= -.10057075E+04  d E =0.273025E-02  mag=     1.0000
       N       E                     dE             d eps       ncg     rms          ort
SDA:   1    -0.100552795884E+04    0.19531E+00    0.00000E+00  2880   0.570E+00 0.000E+00
CGA:   2    -0.100560323251E+04   -0.75274E-01   -0.74829E-01  2880   0.798E+00 0.189E-01
CGA:   3    -0.100570125224E+04   -0.98020E-01   -0.98129E-01  2880   0.214E+00-0.249E-01
CGA:   4    -0.100571530471E+04   -0.14052E-01   -0.13672E-01  2880   0.488E-01 0.262E-02
CGA:   5    -0.100572470722E+04   -0.94025E-02   -0.94453E-02  2880   0.278E-01-0.658E-03
CGA:   6    -0.100572640965E+04   -0.17024E-02   -0.17522E-02  2880   0.709E-02 0.715E-03
CGA:   7    -0.100572730483E+04   -0.89517E-03   -0.90138E-03  2880   0.583E-02-0.782E-03
CGA:   8    -0.100572794906E+04   -0.64424E-03   -0.64028E-03  2880   0.122E-02 0.491E-03
CGA:   9    -0.100572806377E+04   -0.11471E-03   -0.11253E-03  2880   0.711E-03-0.785E-04
CGA:  10    -0.100572815239E+04   -0.88622E-04   -0.86376E-04  2880   0.540E-03 0.142E-03
CGA:  11    -0.100572824213E+04   -0.89740E-04   -0.98825E-04  2880   0.406E-03-0.246E-03
CGA:  12    -0.100572824920E+04   -0.70644E-05   -0.12196E-04  2880   0.209E-03 0.824E-04
CGA:  13    -0.100572825668E+04   -0.74851E-05   -0.12458E-04  2880   0.868E-04 0.775E-04
CGA:  14    -0.100572826836E+04   -0.11680E-04   -0.11499E-04  2880   0.109E-03-0.137E-04
CGA:  15    -0.100572828004E+04   -0.11682E-04   -0.12240E-04  2880   0.157E-03-0.242E-04
CGA:  16    -0.100572828356E+04   -0.35151E-05   -0.43697E-05  2880   0.642E-04 0.111E-04
  19 F= -.10057283E+04 E0= -.10057126E+04  d E =-.501329E-02  mag=     1.0000
       N       E                     dE             d eps       ncg     rms          ort
SDA:   1    -0.100566136815E+04    0.66912E-01    0.00000E+00  2880   0.321E+00 0.000E+00
CGA:   2    -0.100568481240E+04   -0.23444E-01   -0.22824E-01  2880   0.144E+00 0.445E-02
CGA:   3    -0.100571061772E+04   -0.25805E-01   -0.25758E-01  2880   0.179E+00-0.949E-05
CGA:   4    -0.100572293383E+04   -0.12316E-01   -0.12119E-01  2880   0.148E-01 0.475E-03
CGA:   5    -0.100572618150E+04   -0.32477E-02   -0.32462E-02  2880   0.990E-02 0.183E-05
CGA:   6    -0.100572714473E+04   -0.96323E-03   -0.96241E-03  2880   0.179E-02 0.384E-04
CGA:   7    -0.100572737264E+04   -0.22790E-03   -0.22783E-03  2880   0.195E-02-0.344E-05
CGA:   8    -0.100572760101E+04   -0.22837E-03   -0.23005E-03  2880   0.101E-02-0.205E-03
CGA:   9    -0.100572762624E+04   -0.25235E-04   -0.40672E-04  2880   0.203E-03 0.236E-03
CGA:  10    -0.100572763246E+04   -0.62214E-05   -0.12220E-04  2880   0.172E-03 0.102E-03
CGA:  11    -0.100572767119E+04   -0.38730E-04    0.10889E-03  2880   0.188E-03 0.300E-04
CGA:  12    -0.100572769822E+04   -0.27026E-04   -0.26399E-04  2880   0.618E-04 0.399E-04
CGA:  13    -0.100572770534E+04   -0.71176E-05   -0.72744E-05  2880   0.360E-04 0.197E-04
  20 F= -.10057277E+04 E0= -.10057122E+04  d E =0.578221E-03  mag=     1.0000
       N       E                     dE             d eps       ncg     rms          ort
SDA:   1    -0.100568439863E+04    0.43300E-01    0.00000E+00  2880   0.174E+00 0.000E+00
CGA:   2    -0.100570015485E+04   -0.15756E-01   -0.15898E-01  2880   0.120E+00 0.249E-04
CGA:   3    -0.100571985361E+04   -0.19699E-01   -0.19442E-01  2880   0.101E+00 0.406E-02
CGA:   4    -0.100572587640E+04   -0.60228E-02   -0.61031E-02  2880   0.114E-01-0.171E-02
CGA:   5    -0.100572758563E+04   -0.17092E-02   -0.17127E-02  2880   0.820E-02-0.122E-03
CGA:   6    -0.100572845081E+04   -0.86518E-03   -0.86521E-03  2880   0.262E-02-0.215E-04
CGA:   7    -0.100572856711E+04   -0.11630E-03   -0.13812E-03  2880   0.586E-03 0.375E-03
CGA:   8    -0.100572873741E+04   -0.17030E-03   -0.22454E-03  2880   0.136E-02-0.237E-03
CGA:   9    -0.100572877143E+04   -0.34014E-04   -0.31846E-04  2880   0.497E-03-0.353E-04
CGA:  10    -0.100572878284E+04   -0.11411E-04   -0.16434E-04  2880   0.218E-03 0.592E-04
CGA:  11    -0.100572878586E+04   -0.30265E-05   -0.93930E-05  2880   0.182E-03 0.899E-04
CGA:  12    -0.100572879406E+04   -0.81948E-05   -0.13564E-04  2880   0.183E-03 0.101E-03
CGA:  13    -0.100572863692E+04    0.15714E-03   -0.71065E-04  2880   0.538E-02-0.802E-03
CGA:  14    -0.100572882929E+04   -0.19237E-03   -0.23475E-03  2880   0.220E-03 0.631E-03
CGA:  15    -0.100572883492E+04   -0.56265E-05   -0.94225E-05  2880   0.143E-04 0.490E-04
  21 F= -.10057288E+04 E0= -.10057132E+04  d E =-.112958E-02  mag=     1.0000
