       N       E                     dE             d eps       ncg     rms          ort
DAV:   1     0.105807939105E+05    0.10581E+05   -0.46553E+05  8260   0.177E+03
DAV:   2     0.113276826050E+03   -0.10468E+05   -0.96830E+04  8260   0.491E+02
DAV:   3    -0.144141962638E+04   -0.15547E+04   -0.13819E+04  8260   0.195E+02
DAV:   4    -0.153831081622E+04   -0.96891E+02   -0.95278E+02  8260   0.476E+01
DAV:   5    -0.153949768883E+04   -0.11869E+01   -0.11844E+01  8260   0.569E+00
SDA:   6    -0.131237165052E+04    0.22713E+03   -0.11844E+01  8260   0.519E+02 0.000E+00
CGA:   7    -0.132147656438E+04   -0.91049E+01   -0.91753E+01  8260   0.846E+01 0.114E+01
CGA:   8    -0.132307662656E+04   -0.16001E+01   -0.16016E+01  8260   0.292E+01 0.144E+00
CGA:   9    -0.132389651382E+04   -0.81989E+00   -0.81039E+00  8260   0.903E+00 0.117E+00
CGA:  10    -0.132423721679E+04   -0.34070E+00   -0.38841E+00  8260   0.850E+00-0.227E+00
CGA:  11    -0.132439633117E+04   -0.15911E+00   -0.16911E+00  8260   0.409E+00-0.191E+00
CGA:  12    -0.132448977325E+04   -0.93442E-01   -0.99571E-01  8260   0.213E+00-0.633E-01
CGA:  13    -0.132453227440E+04   -0.42501E-01   -0.42634E-01  8260   0.799E-01-0.842E-02
CGA:  14    -0.132455839863E+04   -0.26124E-01   -0.31277E-01  8260   0.640E-01-0.278E-01
CGA:  15    -0.132456919171E+04   -0.10793E-01   -0.11000E-01  8260   0.323E-01-0.625E-02
CGA:  16    -0.132457471546E+04   -0.55238E-02   -0.57264E-02  8260   0.148E-01 0.571E-02
CGA:  17    -0.132457821980E+04   -0.35043E-02   -0.35966E-02  8260   0.682E-02 0.391E-02
CGA:  18    -0.132458067418E+04   -0.24544E-02   -0.24721E-02  8260   0.332E-02-0.316E-03
CGA:  19    -0.132458097836E+04   -0.30418E-03   -0.44151E-03  8260   0.179E-02 0.148E-02
CGA:  20    -0.132458094230E+04    0.36055E-04   -0.20898E-03  8260   0.994E-03 0.167E-02
CGA:  21    -0.132458086619E+04    0.76112E-04   -0.61528E-04  8260   0.758E-03 0.871E-03
CGA:  22    -0.132458079652E+04    0.69667E-04   -0.39971E-04  8260   0.621E-03 0.688E-03
CGA:  23    -0.132458073398E+04    0.62545E-04   -0.28547E-04  8260   0.532E-03 0.576E-03
CGA:  24    -0.132458067789E+04    0.56090E-04   -0.21666E-04  8260   0.469E-03 0.500E-03
CGA:  25    -0.132458062740E+04    0.50485E-04   -0.17147E-04  8260   0.422E-03 0.446E-03
CGA:  26    -0.132458058174E+04    0.45658E-04   -0.13988E-04  8260   0.386E-03 0.404E-03
CGA:  27    -0.132458054026E+04    0.41487E-04   -0.11675E-04  8260   0.357E-03 0.371E-03
CGA:  28    -0.132458050240E+04    0.37862E-04   -0.99197E-05  8260   0.333E-03 0.345E-03
CGA:  29    -0.132458046771E+04    0.34689E-04   -0.85486E-05  8260   0.313E-03 0.323E-03
CGA:  30    -0.132458043581E+04    0.31892E-04   -0.74527E-05  8260   0.297E-03 0.305E-03
CGA:  31    -0.132458040640E+04    0.29411E-04   -0.65598E-05  8260   0.283E-03 0.290E-03
CGA:  32    -0.132458037920E+04    0.27199E-04   -0.58208E-05  8260   0.270E-03 0.277E-03
CGA:  33    -0.132458035399E+04    0.25217E-04   -0.52016E-05  8260   0.260E-03 0.265E-03
CGA:  34    -0.132458033055E+04    0.23433E-04   -0.46769E-05  8260   0.250E-03 0.255E-03
CGA:  35    -0.132458030873E+04    0.21820E-04   -0.42273E-05  8260   0.242E-03 0.246E-03
CGA:  36    -0.132458028838E+04    0.20354E-04   -0.38384E-05  8260   0.234E-03 0.238E-03
CGA:  37    -0.132458026936E+04    0.19017E-04   -0.34993E-05  8260   0.228E-03 0.231E-03
CGA:  38    -0.132458025157E+04    0.17795E-04   -0.32015E-05  8260   0.222E-03 0.225E-03
CGA:  39    -0.132458023490E+04    0.16673E-04   -0.29382E-05  8260   0.216E-03 0.219E-03
CGA:  40    -0.132458021925E+04    0.15641E-04   -0.27042E-05  8260   0.211E-03 0.214E-03
CGA:  41    -0.132458020457E+04    0.14689E-04   -0.24953E-05  8260   0.207E-03 0.209E-03
CGA:  42    -0.132458019076E+04    0.13809E-04   -0.23078E-05  8260   0.203E-03 0.205E-03
CGA:  43    -0.132458017776E+04    0.12994E-04   -0.21390E-05  8260   0.199E-03 0.201E-03
CGA:  44    -0.132458016552E+04    0.12239E-04   -0.19863E-05  8260   0.195E-03 0.197E-03
CGA:  45    -0.132458015399E+04    0.11536E-04   -0.18478E-05  8260   0.192E-03 0.193E-03
CGA:  46    -0.132458014311E+04    0.10882E-04   -0.17218E-05  8260   0.189E-03 0.190E-03
CGA:  47    -0.132458013283E+04    0.10272E-04   -0.16068E-05  8260   0.186E-03 0.187E-03
CGA:  48    -0.132458012313E+04    0.97031E-05   -0.15016E-05  8260   0.184E-03 0.185E-03
   1 F= -.13245801E+04 E0= -.13245801E+04  d E =-.132458E+04  mag=   126.0000
       N       E                     dE             d eps       ncg     rms          ort
SDA:   1    -0.132457580755E+04    0.43253E-02    0.00000E+00  8260   0.824E-02 0.000E+00
CGA:   2    -0.132457757987E+04   -0.17723E-02   -0.16906E-02  8260   0.312E-02 0.570E-03
CGA:   3    -0.132457812005E+04   -0.54019E-03   -0.44646E-03  8260   0.863E-03 0.146E-02
CGA:   4    -0.132457820511E+04   -0.85058E-04   -0.88108E-04  8260   0.447E-03 0.850E-03
CGA:   5    -0.132457822057E+04   -0.15460E-04   -0.23428E-04  8260   0.339E-03 0.388E-03
CGA:   6    -0.132457823064E+04   -0.10073E-04   -0.16808E-04  8260   0.272E-03 0.302E-03
CGA:   7    -0.132457823775E+04   -0.71066E-05   -0.12889E-04  8260   0.226E-03 0.247E-03
CGA:   8    -0.132457824286E+04   -0.51131E-05   -0.10199E-04  8260   0.192E-03 0.207E-03
   2 F= -.13245782E+04 E0= -.13245782E+04  d E =0.188027E-02  mag=   126.0000
       N       E                     dE             d eps       ncg     rms          ort
SDA:   1    -0.132457656853E+04    0.16692E-02    0.00000E+00  8260   0.530E-02 0.000E+00
CGA:   2    -0.132457729018E+04   -0.72165E-03   -0.61449E-03  8260   0.153E-02 0.219E-02
CGA:   3    -0.132457759652E+04   -0.30634E-03   -0.25698E-03  8260   0.668E-03 0.100E-02
CGA:   4    -0.132457770353E+04   -0.10701E-03    0.21270E-03  8260   0.430E-03 0.521E-03
CGA:   5    -0.132457777476E+04   -0.71227E-04    0.10351E-03  8260   0.312E-03 0.362E-03
CGA:   6    -0.132457782562E+04   -0.50866E-04    0.85787E-04  8260   0.233E-03 0.267E-03
CGA:   7    -0.132457786240E+04   -0.36780E-04    0.86955E-04  8260   0.175E-03 0.200E-03
CGA:   8    -0.132457788896E+04   -0.26560E-04    0.11835E-03  8260   0.132E-03 0.151E-03
CGA:   9    -0.132457790803E+04   -0.19063E-04    0.17210E-02  8260   0.997E-04 0.114E-03
CGA:  10    -0.132457796132E+04   -0.53297E-04   -0.58791E-05  8260   0.625E-05 0.116E-04
CGA:  11    -0.132457796060E+04    0.72218E-06   -0.87331E-07  8260   0.601E-05 0.681E-05
   3 F= -.13245780E+04 E0= -.13245780E+04  d E =0.216253E-02  mag=   126.0000
       N       E                     dE             d eps       ncg     rms          ort
SDA:   1    -0.132457788523E+04    0.76091E-04    0.00000E+00  8260   0.280E-04 0.000E+00
CGA:   2    -0.132457788537E+04   -0.13450E-06   -0.15153E-05  8260   0.166E-04 0.211E-04
CGA:   3    -0.132457788504E+04    0.32500E-06   -0.71453E-06  8260   0.123E-04 0.142E-04
CGA:   4    -0.132457788474E+04    0.30441E-06   -0.49086E-06  8260   0.976E-05 0.109E-04
   4 F= -.13245779E+04 E0= -.13245779E+04  d E =0.223839E-02  mag=   126.0000
       N       E                     dE             d eps       ncg     rms          ort
SDA:   1    -0.132457787888E+04    0.61604E-05    0.00000E+00  8260   0.749E-05 0.000E+00
CGA:   2    -0.132457787822E+04    0.65917E-06   -0.50514E-07  8260   0.660E-05 0.718E-05
CGA:   3    -0.132457787766E+04    0.55988E-06   -0.41179E-07  8260   0.591E-05 0.636E-05
CGA:   4    -0.132457787718E+04    0.48143E-06   -0.34430E-07  8260   0.536E-05 0.572E-05
   5 F= -.13245779E+04 E0= -.13245779E+04  d E =0.224595E-02  mag=   126.0000
       N       E                     dE             d eps       ncg     rms          ort
SDA:   1    -0.132457778754E+04    0.90127E-04    0.00000E+00  8260   0.293E-04 0.000E+00
CGA:   2    -0.132457781910E+04   -0.31562E-04    0.24593E-06  8260   0.635E-05 0.116E-04
CGA:   3    -0.132457784074E+04   -0.21648E-04    0.29706E-07  8260   0.264E-05 0.359E-05
CGA:   4    -0.132457784674E+04   -0.59910E-05    0.95490E-08  8260   0.166E-05 0.200E-05
   6 F= -.13245778E+04 E0= -.13245778E+04  d E =0.227639E-02  mag=   126.0000
       N       E                     dE             d eps       ncg     rms          ort
SDA:   1    -0.132457788860E+04   -0.47859E-04    0.00000E+00  8260   0.112E-04 0.000E+00
CGA:   2    -0.132457788778E+04    0.82031E-06   -0.59822E-07  8260   0.101E-04 0.108E-04
CGA:   3    -0.132457788707E+04    0.71353E-06   -0.48244E-07  8260   0.919E-05 0.973E-05
CGA:   4    -0.132457788644E+04    0.62725E-06   -0.39764E-07  8260   0.847E-05 0.891E-05
   7 F= -.13245779E+04 E0= -.13245779E+04  d E =0.223669E-02  mag=   126.0000
       N       E                     dE             d eps       ncg     rms          ort
SDA:   1    -0.132457706586E+04    0.82121E-03    0.00000E+00  8260   0.265E-02 0.000E+00
CGA:   2    -0.132457757560E+04   -0.50975E-03   -0.56416E-03  8260   0.124E-02-0.386E-03
CGA:   3    -0.132457780690E+04   -0.23130E-03   -0.21883E-03  8260   0.292E-03 0.976E-04
CGA:   4    -0.132457772286E+04    0.84049E-04   -0.61257E-04  8260   0.124E-02-0.556E-03
CGA:   5    -0.132457790770E+04   -0.18484E-03   -0.18514E-03  8260   0.720E-04 0.460E-04
CGA:   6    -0.132457791143E+04   -0.37291E-05   -0.64885E-05  8260   0.254E-04 0.404E-04
   8 F= -.13245779E+04 E0= -.13245779E+04  d E =-.249837E-04  mag=   126.0000
       N       E                     dE             d eps       ncg     rms          ort
SDA:   1    -0.132457148831E+04    0.64194E-02    0.00000E+00  8260   0.214E-01 0.000E+00
CGA:   2    -0.132457528210E+04   -0.37938E-02   -0.37551E-02  8260   0.677E-02 0.141E-02
CGA:   3    -0.132457712456E+04   -0.18425E-02   -0.17838E-02  8260   0.211E-02 0.599E-03
CGA:   4    -0.132457770518E+04   -0.58063E-03   -0.69769E-03  8260   0.978E-03-0.790E-03
CGA:   5    -0.132457778647E+04   -0.81285E-04   -0.83197E-04  8260   0.281E-03 0.724E-04
CGA:   6    -0.132457780474E+04   -0.18270E-04   -0.27187E-04  8260   0.113E-03 0.126E-03
CGA:   7    -0.132457781090E+04   -0.61601E-05   -0.12854E-04  8260   0.565E-04 0.847E-04
CGA:   8    -0.132457782984E+04   -0.18945E-04   -0.17916E-04  8260   0.213E-04 0.628E-05
CGA:   9    -0.132457783300E+04   -0.31550E-05   -0.33629E-05  8260   0.484E-05 0.108E-04
   9 F= -.13245778E+04 E0= -.13245778E+04  d E =0.534438E-04  mag=   126.0000
       N       E                     dE             d eps       ncg     rms          ort
SDA:   1    -0.132457735527E+04    0.47457E-03    0.00000E+00  8260   0.143E-02 0.000E+00
CGA:   2    -0.132457768329E+04   -0.32801E-03   -0.36824E-03  8260   0.106E-02-0.444E-03
CGA:   3    -0.132457785160E+04   -0.16831E-03   -0.18004E-03  8260   0.336E-03-0.158E-03
CGA:   4    -0.132457787152E+04   -0.19917E-04   -0.28712E-04  8260   0.108E-03 0.118E-03
CGA:   5    -0.132457787398E+04   -0.24654E-05   -0.99658E-05  8260   0.383E-04 0.731E-04
  10 F= -.13245779E+04 E0= -.13245779E+04  d E =0.124590E-04  mag=   126.0000
       N       E                     dE             d eps       ncg     rms          ort
SDA:   1    -0.132457671077E+04    0.11607E-02    0.00000E+00  8260   0.360E-02 0.000E+00
CGA:   2    -0.132457746222E+04   -0.75145E-03   -0.78971E-03  8260   0.191E-02-0.675E-03
CGA:   3    -0.132457784903E+04   -0.38681E-03   -0.40889E-03  8260   0.620E-03-0.228E-03
CGA:   4    -0.132457790117E+04   -0.52146E-04   -0.63004E-04  8260   0.143E-03 0.198E-03
CGA:   5    -0.132457790757E+04   -0.63998E-05   -0.14483E-04  8260   0.451E-04 0.894E-04
  11 F= -.13245779E+04 E0= -.13245779E+04  d E =-.211298E-04  mag=   126.0000
       N       E                     dE             d eps       ncg     rms          ort
SDA:   1    -0.132457780482E+04    0.96358E-04    0.00000E+00  8260   0.332E-03 0.000E+00
CGA:   2    -0.132457787728E+04   -0.72467E-04   -0.85814E-04  8260   0.290E-03-0.137E-03
CGA:   3    -0.132457791808E+04   -0.40801E-04   -0.45890E-04  8260   0.128E-03-0.491E-04
CGA:   4    -0.132457792225E+04   -0.41673E-05   -0.86103E-05  8260   0.477E-04 0.493E-04
  12 F= -.13245779E+04 E0= -.13245779E+04  d E =-.358071E-04  mag=   126.0000
       N       E                     dE             d eps       ncg     rms          ort
SDA:   1    -0.132457780418E+04    0.11391E-03    0.00000E+00  8260   0.314E-03 0.000E+00
CGA:   2    -0.132457771914E+04    0.85034E-04   -0.16150E-03  8260   0.228E-02-0.697E-03
CGA:   3    -0.132457794566E+04   -0.22652E-03   -0.24222E-03  8260   0.723E-04 0.216E-03
CGA:   4    -0.132457794309E+04    0.25707E-05   -0.39918E-05  8260   0.321E-04 0.527E-04
  13 F= -.13245779E+04 E0= -.13245779E+04  d E =-.566508E-04  mag=   126.0000
       N       E                     dE             d eps       ncg     rms          ort
SDA:   1    -0.132457790467E+04    0.40996E-04    0.00000E+00  8260   0.106E-03 0.000E+00
CGA:   2    -0.132457792165E+04   -0.16981E-04   -0.16987E-04  8260   0.221E-04 0.362E-05
CGA:   3    -0.132457792580E+04   -0.41503E-05   -0.11918E-04  8260   0.618E-04-0.216E-04
CGA:   4    -0.132457792837E+04   -0.25758E-05   -0.48714E-05  8260   0.938E-05 0.227E-04
  14 F= -.13245779E+04 E0= -.13245779E+04  d E =-.419318E-04  mag=   126.0000
       N       E                     dE             d eps       ncg     rms          ort
SDA:   1    -0.132457792172E+04    0.40793E-05    0.00000E+00  8260   0.414E-04 0.000E+00
CGA:   2    -0.132457792692E+04   -0.52029E-05   -0.53892E-05  8260   0.396E-05 0.488E-05
CGA:   3    -0.132457792310E+04    0.38187E-05   -0.35363E-05  8260   0.461E-04-0.116E-04
CGA:   4    -0.132457792641E+04   -0.33070E-05   -0.47009E-05  8260   0.562E-05 0.145E-04
  15 F= -.13245779E+04 E0= -.13245779E+04  d E =-.399679E-04  mag=   126.0000
       N       E                     dE             d eps       ncg     rms          ort
SDA:   1    -0.132457791380E+04    0.93057E-05    0.00000E+00  8260   0.369E-04 0.000E+00
CGA:   2    -0.132457791505E+04   -0.12486E-05   -0.15564E-04  8260   0.130E-03-0.612E-04
CGA:   3    -0.132457792878E+04   -0.13735E-04   -0.15030E-04  8260   0.565E-05 0.155E-04
CGA:   4    -0.132457792838E+04    0.40036E-06   -0.27786E-06  8260   0.279E-05 0.449E-05
  16 F= -.13245779E+04 E0= -.13245779E+04  d E =-.419388E-04  mag=   126.0000
       N       E                     dE             d eps       ncg     rms          ort
SDA:   1    -0.132457752790E+04    0.40088E-03    0.00000E+00  8260   0.133E-02 0.000E+00
CGA:   2    -0.132457775073E+04   -0.22283E-03   -0.22616E-03  8260   0.449E-03 0.343E-03
CGA:   3    -0.132457788069E+04   -0.12996E-03   -0.12468E-03  8260   0.111E-03 0.127E-03
CGA:   4    -0.132457793824E+04   -0.57550E-04    0.11572E-03  8260   0.221E-04 0.387E-04
CGA:   5    -0.132457795014E+04   -0.11902E-04    0.26115E-04  8260   0.570E-05 0.924E-05
CGA:   6    -0.132457794934E+04    0.80283E-06   -0.26356E-06  8260   0.452E-05 0.717E-05
  17 F= -.13245779E+04 E0= -.13245779E+04  d E =-.209578E-04  mag=   126.0000
       N       E                     dE             d eps       ncg     rms          ort
SDA:   1    -0.132457791060E+04    0.39543E-04    0.00000E+00  8260   0.308E-04 0.000E+00
CGA:   2    -0.132457793234E+04   -0.21736E-04    0.22746E-05  8260   0.103E-04 0.682E-05
CGA:   3    -0.132457794078E+04   -0.84438E-05    0.10184E-05  8260   0.216E-05 0.434E-05
CGA:   4    -0.132457794046E+04    0.31848E-06   -0.73576E-07  8260   0.173E-05 0.276E-05
  18 F= -.13245779E+04 E0= -.13245779E+04  d E =-.120789E-04  mag=   126.0000
       N       E                     dE             d eps       ncg     rms          ort
SDA:   1    -0.132457795024E+04   -0.94582E-05    0.00000E+00  8260   0.242E-04 0.000E+00
CGA:   2    -0.132457794860E+04    0.16396E-05   -0.76530E-06  8260   0.162E-04 0.200E-04
CGA:   3    -0.132457794738E+04    0.12218E-05   -0.45246E-06  8260   0.122E-04 0.142E-04
CGA:   4    -0.132457794644E+04    0.93976E-06   -0.31685E-06  8260   0.982E-05 0.110E-04
  19 F= -.13245779E+04 E0= -.13245779E+04  d E =-.180544E-04  mag=   126.0000
       N       E                     dE             d eps       ncg     rms          ort
SDA:   1    -0.132457791502E+04    0.32356E-04    0.00000E+00  8260   0.255E-05 0.000E+00
CGA:   2    -0.132457793126E+04   -0.16236E-04    0.68791E-08  8260   0.392E-06 0.306E-06
CGA:   3    -0.132457793798E+04   -0.67260E-05    0.48073E-09  8260   0.179E-06 0.223E-06
CGA:   4    -0.132457793796E+04    0.16909E-07   -0.26567E-08  8260   0.167E-06 0.172E-06
  20 F= -.13245779E+04 E0= -.13245779E+04  d E =-.958305E-05  mag=   126.0000
       N       E                     dE             d eps       ncg     rms          ort
SDA:   1    -0.132457795654E+04   -0.18556E-04    0.00000E+00  8260   0.361E-05 0.000E+00
CGA:   2    -0.132457795615E+04    0.38592E-06   -0.14230E-07  8260   0.335E-05 0.353E-05
CGA:   3    -0.132457795581E+04    0.34329E-06   -0.11901E-07  8260   0.314E-05 0.329E-05
CGA:   4    -0.132457795550E+04    0.30820E-06   -0.10123E-07  8260   0.297E-05 0.309E-05
  21 F= -.13245780E+04 E0= -.13245780E+04  d E =-.271189E-04  mag=   126.0000
       N       E                     dE             d eps       ncg     rms          ort
SDA:   1    -0.132457790479E+04    0.51018E-04    0.00000E+00  8260   0.342E-05 0.000E+00
CGA:   2    -0.132457792239E+04   -0.17595E-04    0.63833E-08  8260   0.925E-06 0.150E-05
CGA:   3    -0.132457793565E+04   -0.13260E-04    0.12534E-08  8260   0.456E-06 0.623E-06
CGA:   4    -0.132457793751E+04   -0.18595E-05    0.10854E-08  8260   0.299E-06 0.353E-06
  22 F= -.13245779E+04 E0= -.13245779E+04  d E =-.912444E-05  mag=   126.0000
       N       E                     dE             d eps       ncg     rms          ort
SDA:   1    -0.132457796989E+04   -0.34248E-04    0.00000E+00  8260   0.291E-05 0.000E+00
CGA:   2    -0.132457796963E+04    0.26673E-06   -0.48091E-08  8260   0.275E-05 0.287E-05
CGA:   3    -0.132457796939E+04    0.24070E-06   -0.41813E-08  8260   0.262E-05 0.272E-05
CGA:   4    -0.132457796917E+04    0.21800E-06   -0.36656E-08  8260   0.250E-05 0.259E-05
  23 F= -.13245780E+04 E0= -.13245780E+04  d E =-.407877E-04  mag=   126.0000
       N       E                     dE             d eps       ncg     rms          ort
SDA:   1    -0.132457788122E+04    0.88170E-04    0.00000E+00  8260   0.971E-05 0.000E+00
CGA:   2    -0.132457790652E+04   -0.25301E-04    0.24458E-07  8260   0.294E-05 0.489E-05
CGA:   3    -0.132457792047E+04   -0.13954E-04    0.39641E-08  8260   0.153E-05 0.205E-05
CGA:   4    -0.132457792881E+04   -0.83335E-05    0.17942E-08  8260   0.994E-06 0.121E-05
  24 F= -.13245779E+04 E0= -.13245779E+04  d E =-.424428E-06  mag=   126.0000
       N       E                     dE             d eps       ncg     rms          ort
SDA:   1    -0.132457800072E+04   -0.80251E-04    0.00000E+00  8260   0.109E-04 0.000E+00
CGA:   2    -0.132457799994E+04    0.78607E-06   -0.27162E-07  8260   0.102E-04 0.107E-04
CGA:   3    -0.132457799924E+04    0.70183E-06   -0.23132E-07  8260   0.956E-05 0.100E-04
CGA:   4    -0.132457799860E+04    0.63065E-06   -0.19933E-07  8260   0.904E-05 0.943E-05
  25 F= -.13245780E+04 E0= -.13245780E+04  d E =-.702233E-04  mag=   126.0000
       N       E                     dE             d eps       ncg     rms          ort
SDA:   1    -0.132457768469E+04    0.31454E-03    0.00000E+00  8260   0.659E-03 0.000E+00
CGA:   2    -0.132457778202E+04   -0.97330E-04    0.14381E-03  8260   0.339E-03 0.453E-03
CGA:   3    -0.132457783847E+04   -0.56453E-04    0.37149E-04  8260   0.223E-03 0.269E-03
CGA:   4    -0.132457787570E+04   -0.37223E-04    0.24061E-04  8260   0.159E-03 0.186E-03
CGA:   5    -0.132457790142E+04   -0.25724E-04    0.20293E-04  8260   0.118E-03 0.136E-03
CGA:   6    -0.132457791964E+04   -0.18215E-04    0.19396E-04  8260   0.892E-04 0.102E-03
CGA:   7    -0.132457793272E+04   -0.13086E-04    0.20550E-04  8260   0.678E-04 0.771E-04
CGA:   8    -0.132457794220E+04   -0.94802E-05    0.25481E-04  8260   0.518E-04 0.588E-04
CGA:   9    -0.132457794910E+04   -0.68950E-05    0.49926E-04  8260   0.397E-04 0.450E-04
  26 F= -.13245779E+04 E0= -.13245779E+04  d E =0.495071E-04  mag=   126.0000
