       N       E                     dE             d eps       ncg     rms          rms(c)
DAV:   1     0.308046126395E+04    0.30805E+04   -0.25834E+05 11568   0.131E+03
DAV:   2    -0.602802017679E+03   -0.36833E+04   -0.35484E+04 13872   0.298E+02
DAV:   3    -0.872551951966E+03   -0.26975E+03   -0.26788E+03 14032   0.848E+01
DAV:   4    -0.876044200590E+03   -0.34922E+01   -0.34785E+01 13864   0.103E+01
DAV:   5    -0.876107011280E+03   -0.62811E-01   -0.62638E-01 14200   0.127E+00    0.990E+01
DAV:   6    -0.780331251140E+03    0.95776E+02   -0.40556E+02 12968   0.319E+01    0.502E+01
DAV:   7    -0.789471142825E+03   -0.91399E+01   -0.21865E+01 13144   0.767E+00    0.163E+01
DAV:   8    -0.793655902207E+03   -0.41848E+01   -0.17199E+00 13608   0.247E+00    0.777E+00
DAV:   9    -0.795918046848E+03   -0.22621E+01   -0.11436E+00 13768   0.174E+00    0.382E+00
DAV:  10    -0.796416594772E+03   -0.49855E+00   -0.29133E-01 13248   0.933E-01    0.110E+00
DAV:  11    -0.796485436472E+03   -0.68842E-01   -0.38357E-02 13704   0.346E-01    0.599E-01
DAV:  12    -0.796494893872E+03   -0.94574E-02   -0.50453E-03 13488   0.136E-01    0.268E-01
DAV:  13    -0.796497100723E+03   -0.22069E-02   -0.11414E-03 13608   0.651E-02    0.822E-02
DAV:  14    -0.796497507727E+03   -0.40700E-03   -0.31488E-04 13328   0.360E-02    0.428E-02
DAV:  15    -0.796497539912E+03   -0.32185E-04   -0.43877E-05 12736   0.181E-02    0.270E-02
DAV:  16    -0.796497549732E+03   -0.98200E-05   -0.17487E-05  9720   0.134E-02
   1 F= -.79649755E+03 E0= -.79649755E+03  d E =-.796498E+03  mag=    -0.0036
       N       E                     dE             d eps       ncg     rms          rms(c)
DAV:   1    -0.796497399579E+03    0.14033E-03   -0.24945E-02 12056   0.297E-01    0.104E-01
DAV:   2    -0.796497461990E+03   -0.62411E-04   -0.89172E-04 14328   0.536E-02    0.366E-02
DAV:   3    -0.796497438017E+03    0.23973E-04   -0.30063E-05 12736   0.170E-02    0.163E-02
DAV:   4    -0.796497428111E+03    0.99062E-05   -0.13206E-05 10264   0.142E-02
   2 F= -.79649743E+03 E0= -.79649743E+03  d E =0.121621E-03  mag=    -0.0001
       N       E                     dE             d eps       ncg     rms          rms(c)
DAV:   1    -0.796497546111E+03   -0.10809E-03   -0.12184E-02 11920   0.207E-01    0.721E-02
DAV:   2    -0.796497576441E+03   -0.30331E-04   -0.42871E-04 14216   0.362E-02    0.247E-02
DAV:   3    -0.796497566973E+03    0.94683E-05   -0.11916E-05  9504   0.102E-02    0.114E-02
DAV:   4    -0.796497564763E+03    0.22097E-05   -0.86625E-06  7760   0.780E-03
   3 F= -.79649756E+03 E0= -.79649756E+03  d E =-.150311E-04  mag=    -0.0000
