       N       E                     dE             d eps       ncg     rms          rms(c)
DAV:   1     0.826764392209E+04    0.82676E+04   -0.23546E+05 34344   0.219E+03
DAV:   2     0.116657688304E+04   -0.71011E+04   -0.66558E+04 33696   0.634E+02
DAV:   3    -0.385779016861E+03   -0.15524E+04   -0.13662E+04 35844   0.273E+02
DAV:   4    -0.543823806785E+03   -0.15804E+03   -0.15522E+03 36816   0.839E+01
DAV:   5    -0.546645105006E+03   -0.28213E+01   -0.28061E+01 36708   0.126E+01    0.107E+02
DAV:   6    -0.610402518548E+03   -0.63757E+02   -0.11375E+03 45036   0.127E+02    0.153E+02
DAV:   7    -0.458168705069E+03    0.15223E+03   -0.31808E+02 39300   0.112E+02    0.673E+01
DAV:   8    -0.449720814253E+03    0.84479E+01   -0.15022E+02 43044   0.485E+01    0.689E+01
DAV:   9    -0.496417582256E+03   -0.46697E+02   -0.14676E+02 39708   0.623E+01    0.888E+01
DAV:  10    -0.466751983856E+03    0.29666E+02   -0.26537E+01 40692   0.332E+01    0.664E+01
DAV:  11    -0.462672570319E+03    0.40794E+01   -0.42204E+01 37308   0.234E+01    0.643E+01
DAV:  12    -0.452144541766E+03    0.10528E+02   -0.51143E+01 37584   0.269E+01    0.401E+01
DAV:  13    -0.443129008559E+03    0.90155E+01   -0.12163E+01 37008   0.266E+01    0.267E+01
DAV:  14    -0.441729052944E+03    0.14000E+01   -0.27674E+00 41496   0.822E+00    0.201E+01
DAV:  15    -0.441706472134E+03    0.22581E-01   -0.92096E-01 39240   0.512E+00    0.195E+01
DAV:  16    -0.441618864783E+03    0.87607E-01   -0.16074E-01 36612   0.168E+00    0.185E+01
DAV:  17    -0.441704953268E+03   -0.86088E-01   -0.90182E-01 39588   0.697E+00    0.172E+01
DAV:  18    -0.440792156359E+03    0.91280E+00   -0.10468E+00 41376   0.787E+00    0.916E+00
DAV:  19    -0.440558117036E+03    0.23404E+00   -0.23730E+00 42672   0.551E+00    0.575E+00
DAV:  20    -0.440536900026E+03    0.21217E-01   -0.63302E-01 39192   0.364E+00    0.511E+00
DAV:  21    -0.440567819615E+03   -0.30920E-01   -0.18046E-01 36852   0.274E+00    0.486E+00
DAV:  22    -0.440558961971E+03    0.88576E-02   -0.32319E-01 40524   0.267E+00    0.314E+00
DAV:  23    -0.440553638615E+03    0.53234E-02   -0.16359E-01 42588   0.279E+00    0.281E+00
DAV:  24    -0.440526180443E+03    0.27458E-01   -0.90584E-02 38904   0.185E+00    0.210E+00
DAV:  25    -0.440525008511E+03    0.11719E-02   -0.44236E-02 37296   0.128E+00    0.170E+00
DAV:  26    -0.440519612774E+03    0.53957E-02   -0.38692E-02 37188   0.122E+00    0.118E+00
DAV:  27    -0.440518116091E+03    0.14967E-02   -0.27077E-02 41448   0.110E+00    0.103E+00
DAV:  28    -0.440513750931E+03    0.43652E-02   -0.12349E-02 41736   0.756E-01    0.715E-01
DAV:  29    -0.440512423085E+03    0.13278E-02   -0.69030E-03 41268   0.438E-01    0.620E-01
DAV:  30    -0.440511295008E+03    0.11281E-02   -0.21312E-03 38700   0.293E-01    0.435E-01
DAV:  31    -0.440510736401E+03    0.55861E-03   -0.86356E-04 41544   0.192E-01    0.316E-01
DAV:  32    -0.440510508020E+03    0.22838E-03   -0.11393E-03 38400   0.238E-01    0.217E-01
DAV:  33    -0.440510297112E+03    0.21091E-03   -0.66852E-04 39648   0.204E-01    0.155E-01
DAV:  34    -0.440510324368E+03   -0.27256E-04   -0.34092E-04 37224   0.982E-02    0.114E-01
DAV:  35    -0.440510322608E+03    0.17597E-05   -0.16864E-04 35112   0.885E-02    0.955E-02
DAV:  36    -0.440510295414E+03    0.27194E-04   -0.73109E-05 27612   0.546E-02    0.347E-02
DAV:  37    -0.440510296828E+03   -0.14148E-05   -0.34885E-05 25128   0.318E-02
   1 F= -.44051030E+03 E0= -.44049577E+03  d E =-.440510E+03  mag=    -0.8292
       N       E                     dE             d eps       ncg     rms          rms(c)
DAV:   1    -0.440521965959E+03   -0.11671E-01   -0.97995E-03 49992   0.951E-01    0.599E-02
DAV:   2    -0.440522415671E+03   -0.44971E-03   -0.44370E-03 37056   0.139E-01    0.704E-02
DAV:   3    -0.440522418277E+03   -0.26063E-05   -0.43860E-04 35808   0.129E-01    0.559E-02
DAV:   4    -0.440522406074E+03    0.12203E-04   -0.10393E-04 28284   0.602E-02    0.321E-02
DAV:   5    -0.440522403211E+03    0.28628E-05   -0.31601E-05 20196   0.339E-02
   2 F= -.44052240E+03 E0= -.44050788E+03  d E =-.121064E-01  mag=    -0.8272
       N       E                     dE             d eps       ncg     rms          rms(c)
DAV:   1    -0.440203529407E+03    0.31888E+00   -0.14759E+01 48792   0.368E+01    0.256E+00
DAV:   2    -0.440912420516E+03   -0.70889E+00   -0.70090E+00 36060   0.561E+00    0.245E+00
DAV:   3    -0.440917435365E+03   -0.50148E-02   -0.57426E-01 36516   0.375E+00    0.173E+00
DAV:   4    -0.440900282802E+03    0.17153E-01   -0.77860E-02 37680   0.184E+00    0.909E-01
DAV:   5    -0.440903375338E+03   -0.30925E-02   -0.30452E-02 38220   0.127E+00    0.101E+00
DAV:   6    -0.440901919718E+03    0.14556E-02   -0.30141E-02 38532   0.101E+00    0.620E-01
DAV:   7    -0.440900305597E+03    0.16141E-02   -0.13011E-02 39216   0.880E-01    0.325E-01
DAV:   8    -0.440900056926E+03    0.24867E-03   -0.57410E-03 40548   0.479E-01    0.252E-01
DAV:   9    -0.440899802779E+03    0.25415E-03   -0.29622E-03 40020   0.259E-01    0.110E-01
DAV:  10    -0.440899775584E+03    0.27195E-04   -0.69558E-04 41136   0.143E-01    0.760E-02
DAV:  11    -0.440899772829E+03    0.27552E-05   -0.40136E-04 35940   0.127E-01    0.716E-02
DAV:  12    -0.440899740758E+03    0.32071E-04   -0.12431E-04 35328   0.829E-02    0.326E-02
DAV:  13    -0.440899743380E+03   -0.26219E-05   -0.66095E-05 28824   0.618E-02
   3 F= -.44089974E+03 E0= -.44088502E+03  d E =-.377340E+00  mag=    -0.8070
       N       E                     dE             d eps       ncg     rms          rms(c)
DAV:   1    -0.439724037279E+03    0.11757E+01   -0.37948E+01 48948   0.551E+01    0.445E+00
DAV:   2    -0.441584766160E+03   -0.18607E+01   -0.17236E+01 36336   0.113E+01    0.714E+00
DAV:   3    -0.441289606428E+03    0.29516E+00   -0.22678E+00 36804   0.764E+00    0.222E+00
DAV:   4    -0.441291996195E+03   -0.23898E-02   -0.23637E-01 37260   0.277E+00    0.191E+00
DAV:   5    -0.441284771306E+03    0.72249E-02   -0.10378E-01 37212   0.187E+00    0.142E+00
DAV:   6    -0.441291485039E+03   -0.67137E-02   -0.82378E-02 39504   0.156E+00    0.158E+00
DAV:   7    -0.441282293492E+03    0.91915E-02   -0.10377E-01 39888   0.144E+00    0.705E-01
DAV:   8    -0.441282612347E+03   -0.31886E-03   -0.21617E-02 39708   0.104E+00    0.547E-01
DAV:   9    -0.441281166459E+03    0.14459E-02   -0.10591E-02 40560   0.736E-01    0.269E-01
DAV:  10    -0.441280992280E+03    0.17418E-03   -0.31252E-03 40008   0.333E-01    0.189E-01
DAV:  11    -0.441280928709E+03    0.63571E-04   -0.18722E-03 38916   0.275E-01    0.135E-01
DAV:  12    -0.441280831617E+03    0.97092E-04   -0.65671E-04 39408   0.144E-01    0.723E-02
DAV:  13    -0.441280827892E+03    0.37247E-05   -0.30829E-04 37368   0.123E-01    0.669E-02
DAV:  14    -0.441280800737E+03    0.27155E-04   -0.11497E-04 35580   0.795E-02    0.305E-02
DAV:  15    -0.441280802132E+03   -0.13954E-05   -0.45508E-05 25896   0.498E-02
   4 F= -.44128080E+03 E0= -.44126568E+03  d E =-.381059E+00  mag=    -0.7615
       N       E                     dE             d eps       ncg     rms          rms(c)
DAV:   1    -0.441318633351E+03   -0.37833E-01   -0.19928E+01 38748   0.210E+01    0.132E+00
DAV:   2    -0.441513238414E+03   -0.19461E+00   -0.19620E+00 39036   0.439E+00    0.182E+00
DAV:   3    -0.441502219327E+03    0.11019E-01   -0.26074E-01 36948   0.269E+00    0.110E+00
DAV:   4    -0.441499657476E+03    0.25619E-02   -0.82772E-02 38160   0.123E+00    0.897E-01
DAV:   5    -0.441495972667E+03    0.36848E-02   -0.25090E-02 38556   0.915E-01    0.456E-01
DAV:   6    -0.441497481141E+03   -0.15085E-02   -0.14039E-02 41616   0.796E-01    0.643E-01
DAV:   7    -0.441495110081E+03    0.23711E-02   -0.13161E-02 39564   0.736E-01    0.218E-01
DAV:   8    -0.441495261573E+03   -0.15149E-03   -0.32882E-03 40524   0.412E-01    0.227E-01
DAV:   9    -0.441494966832E+03    0.29474E-03   -0.14050E-03 38820   0.269E-01    0.992E-02
DAV:  10    -0.441494958897E+03    0.79355E-05   -0.46086E-04 43896   0.128E-01    0.792E-02
DAV:  11    -0.441494927304E+03    0.31593E-04   -0.30909E-04 39336   0.113E-01    0.397E-02
DAV:  12    -0.441494923549E+03    0.37554E-05   -0.61419E-05 28740   0.525E-02
   5 F= -.44149492E+03 E0= -.44147969E+03  d E =-.214121E+00  mag=    -0.7403
       N       E                     dE             d eps       ncg     rms          rms(c)
DAV:   1    -0.441066647768E+03    0.42828E+00   -0.41489E+01 40356   0.413E+01    0.222E+00
DAV:   2    -0.441696463584E+03   -0.62982E+00   -0.64215E+00 36744   0.629E+00    0.230E+00
DAV:   3    -0.441709185385E+03   -0.12722E-01   -0.59610E-01 36972   0.406E+00    0.216E+00
DAV:   4    -0.441684941835E+03    0.24244E-01   -0.19548E-01 38976   0.207E+00    0.105E+00
DAV:   5    -0.441682922601E+03    0.20192E-02   -0.49645E-02 40020   0.127E+00    0.897E-01
DAV:   6    -0.441684234221E+03   -0.13116E-02   -0.45676E-02 41676   0.104E+00    0.907E-01
DAV:   7    -0.441679923050E+03    0.43112E-02   -0.35719E-02 41112   0.112E+00    0.367E-01
DAV:   8    -0.441679974506E+03   -0.51456E-04   -0.76769E-03 39144   0.524E-01    0.298E-01
DAV:   9    -0.441679501002E+03    0.47350E-03   -0.38133E-03 42108   0.430E-01    0.130E-01
DAV:  10    -0.441679498011E+03    0.29908E-05   -0.99105E-04 40656   0.173E-01    0.105E-01
DAV:  11    -0.441679439097E+03    0.58913E-04   -0.47231E-04 38700   0.159E-01    0.540E-02
DAV:  12    -0.441679428632E+03    0.10466E-04   -0.13563E-04 35892   0.759E-02    0.436E-02
DAV:  13    -0.441679424880E+03    0.37514E-05   -0.12001E-04 32268   0.751E-02    0.358E-02
DAV:  14    -0.441679418967E+03    0.59130E-05   -0.62531E-05 26664   0.491E-02
   6 F= -.44167942E+03 E0= -.44166393E+03  d E =-.184495E+00  mag=    -0.6863
       N       E                     dE             d eps       ncg     rms          rms(c)
DAV:   1    -0.440555257693E+03    0.11242E+01   -0.40808E+01 46668   0.584E+01    0.303E+00
DAV:   2    -0.441742561902E+03   -0.11873E+01   -0.12175E+01 36552   0.796E+00    0.277E+00
DAV:   3    -0.441785238513E+03   -0.42677E-01   -0.11000E+00 37152   0.512E+00    0.296E+00
DAV:   4    -0.441733881503E+03    0.51357E-01   -0.36939E-01 38544   0.258E+00    0.133E+00
DAV:   5    -0.441734564195E+03   -0.68269E-03   -0.10516E-01 41400   0.154E+00    0.129E+00
DAV:   6    -0.441731042071E+03    0.35221E-02   -0.65254E-02 42024   0.121E+00    0.841E-01
DAV:   7    -0.441728856410E+03    0.21857E-02   -0.37001E-02 41796   0.129E+00    0.563E-01
DAV:   8    -0.441727777464E+03    0.10789E-02   -0.16876E-02 41820   0.774E-01    0.345E-01
DAV:   9    -0.441727413527E+03    0.36394E-03   -0.54149E-03 42084   0.492E-01    0.213E-01
DAV:  10    -0.441727244924E+03    0.16860E-03   -0.22599E-03 41364   0.322E-01    0.134E-01
DAV:  11    -0.441727200967E+03    0.43957E-04   -0.91103E-04 37500   0.207E-01    0.108E-01
DAV:  12    -0.441727134010E+03    0.66957E-04   -0.40122E-04 37488   0.150E-01    0.546E-02
DAV:  13    -0.441727134442E+03   -0.43139E-06   -0.22481E-04 38544   0.885E-02    0.528E-02
DAV:  14    -0.441727122636E+03    0.11806E-04   -0.13979E-04 36252   0.827E-02    0.237E-02
DAV:  15    -0.441727122548E+03    0.87442E-07   -0.25534E-05 19884   0.322E-02
   7 F= -.44172712E+03 E0= -.44171152E+03  d E =-.477036E-01  mag=    -0.6634
       N       E                     dE             d eps       ncg     rms          rms(c)
DAV:   1    -0.441288469729E+03    0.43865E+00   -0.10132E+01 48864   0.391E+01    0.196E+00
DAV:   2    -0.441777288553E+03   -0.48882E+00   -0.50532E+00 36312   0.458E+00    0.120E+00
DAV:   3    -0.441796504700E+03   -0.19216E-01   -0.21074E-01 38148   0.246E+00    0.162E+00
DAV:   4    -0.441781745271E+03    0.14759E-01   -0.76377E-02 39336   0.160E+00    0.697E-01
DAV:   5    -0.441787061740E+03   -0.53165E-02   -0.40116E-02 42780   0.111E+00    0.104E+00
DAV:   6    -0.441782159857E+03    0.49019E-02   -0.43026E-02 42084   0.981E-01    0.420E-01
DAV:   7    -0.441781979408E+03    0.18045E-03   -0.13234E-02 41364   0.614E-01    0.320E-01
DAV:   8    -0.441781545342E+03    0.43407E-03   -0.48393E-03 41292   0.383E-01    0.138E-01
DAV:   9    -0.441781498788E+03    0.46554E-04   -0.10517E-03 37476   0.208E-01    0.955E-02
DAV:  10    -0.441781453304E+03    0.45484E-04   -0.41811E-04 36816   0.148E-01    0.507E-02
DAV:  11    -0.441781439818E+03    0.13486E-04   -0.11035E-04 35928   0.661E-02    0.336E-02
DAV:  12    -0.441781439568E+03    0.25045E-06   -0.79777E-05 29448   0.747E-02
   8 F= -.44178144E+03 E0= -.44176562E+03  d E =-.543170E-01  mag=    -0.6352
       N       E                     dE             d eps       ncg     rms          rms(c)
DAV:   1    -0.441763547557E+03    0.17892E-01   -0.20779E+00 43104   0.986E+00    0.501E-01
DAV:   2    -0.441798938040E+03   -0.35390E-01   -0.36185E-01 36780   0.143E+00    0.512E-01
DAV:   3    -0.441800554909E+03   -0.16169E-02   -0.43547E-02 37236   0.102E+00    0.616E-01
DAV:   4    -0.441798603254E+03    0.19517E-02   -0.14202E-02 39420   0.525E-01    0.238E-01
DAV:   5    -0.441798517238E+03    0.86015E-04   -0.25570E-03 44400   0.303E-01    0.198E-01
DAV:   6    -0.441798519141E+03   -0.19027E-05   -0.19846E-03 40944   0.247E-01    0.169E-01
DAV:   7    -0.441798364021E+03    0.15512E-03   -0.11573E-03 40464   0.247E-01    0.746E-02
DAV:   8    -0.441798361881E+03    0.21404E-05   -0.24791E-04 38772   0.986E-02    0.509E-02
DAV:   9    -0.441798350478E+03    0.11403E-04   -0.12250E-04 34008   0.760E-02    0.252E-02
DAV:  10    -0.441798348332E+03    0.21459E-05   -0.27278E-05 20988   0.329E-02
   9 F= -.44179835E+03 E0= -.44178258E+03  d E =-.169088E-01  mag=    -0.6441
       N       E                     dE             d eps       ncg     rms          rms(c)
DAV:   1    -0.441578558576E+03    0.21979E+00   -0.17502E+01 42216   0.270E+01    0.137E+00
DAV:   2    -0.441840811341E+03   -0.26225E+00   -0.26572E+00 36780   0.399E+00    0.124E+00
DAV:   3    -0.441851787125E+03   -0.10976E-01   -0.21832E-01 37128   0.269E+00    0.142E+00
DAV:   4    -0.441839017411E+03    0.12770E-01   -0.62370E-02 40404   0.137E+00    0.584E-01
DAV:   5    -0.441839219462E+03   -0.20205E-03   -0.22206E-02 42984   0.761E-01    0.593E-01
DAV:   6    -0.441839352052E+03   -0.13259E-03   -0.23069E-02 41760   0.680E-01    0.557E-01
DAV:   7    -0.441837603602E+03    0.17484E-02   -0.12237E-02 41448   0.656E-01    0.178E-01
DAV:   8    -0.441837637345E+03   -0.33743E-04   -0.17627E-03 39804   0.253E-01    0.131E-01
DAV:   9    -0.441837567334E+03    0.70010E-04   -0.90111E-04 37188   0.206E-01    0.645E-02
DAV:  10    -0.441837546747E+03    0.20587E-04   -0.15826E-04 35340   0.798E-02    0.370E-02
DAV:  11    -0.441837552293E+03   -0.55462E-05   -0.12250E-04 30012   0.754E-02    0.469E-02
DAV:  12    -0.441837540432E+03    0.11862E-04   -0.81013E-05 31068   0.573E-02    0.184E-02
DAV:  13    -0.441837540826E+03   -0.39412E-06   -0.27642E-05 18732   0.376E-02
  10 F= -.44183754E+03 E0= -.44182185E+03  d E =-.391925E-01  mag=    -0.6371
       N       E                     dE             d eps       ncg     rms          rms(c)
DAV:   1    -0.441235393423E+03    0.60215E+00   -0.17709E+01 47616   0.433E+01    0.215E+00
DAV:   2    -0.441842864223E+03   -0.60747E+00   -0.62044E+00 36444   0.542E+00    0.150E+00
DAV:   3    -0.441868475946E+03   -0.25612E-01   -0.30768E-01 36816   0.331E+00    0.187E+00
DAV:   4    -0.441846249746E+03    0.22226E-01   -0.10182E-01 39348   0.186E+00    0.750E-01
DAV:   5    -0.441852325932E+03   -0.60762E-02   -0.66553E-02 43632   0.102E+00    0.121E+00
DAV:   6    -0.441846378146E+03    0.59478E-02   -0.62611E-02 42612   0.977E-01    0.409E-01
DAV:   7    -0.441846319943E+03    0.58203E-04   -0.95214E-03 40440   0.638E-01    0.329E-01
DAV:   8    -0.441845862065E+03    0.45788E-03   -0.47216E-03 41604   0.474E-01    0.155E-01
DAV:   9    -0.441845782370E+03    0.79695E-04   -0.10866E-03 41880   0.205E-01    0.952E-02
DAV:  10    -0.441845782960E+03   -0.59021E-06   -0.51611E-04 39372   0.160E-01    0.894E-02
DAV:  11    -0.441845733478E+03    0.49482E-04   -0.20730E-04 35520   0.104E-01    0.387E-02
DAV:  12    -0.441845744069E+03   -0.10591E-04   -0.14696E-04 34908   0.896E-02    0.530E-02
DAV:  13    -0.441845723701E+03    0.20369E-04   -0.86313E-05 30132   0.694E-02    0.133E-02
DAV:  14    -0.441845725728E+03   -0.20267E-05   -0.24733E-05 18876   0.320E-02
  11 F= -.44184573E+03 E0= -.44182997E+03  d E =-.818490E-02  mag=    -0.6575
       N       E                     dE             d eps       ncg     rms          rms(c)
DAV:   1    -0.441606670799E+03    0.23905E+00   -0.49971E+00 49788   0.285E+01    0.138E+00
DAV:   2    -0.441855396479E+03   -0.24873E+00   -0.25661E+00 37068   0.325E+00    0.837E-01
DAV:   3    -0.441864855696E+03   -0.94592E-02   -0.95825E-02 38616   0.174E+00    0.121E+00
DAV:   4    -0.441856648911E+03    0.82068E-02   -0.37466E-02 38892   0.119E+00    0.480E-01
DAV:   5    -0.441859495957E+03   -0.28470E-02   -0.26160E-02 43044   0.730E-01    0.763E-01
DAV:   6    -0.441857058728E+03    0.24372E-02   -0.23917E-02 42240   0.651E-01    0.302E-01
DAV:   7    -0.441856842348E+03    0.21638E-03   -0.55289E-03 40884   0.469E-01    0.214E-01
DAV:   8    -0.441856656581E+03    0.18577E-03   -0.15174E-03 39492   0.241E-01    0.807E-02
DAV:   9    -0.441856645209E+03    0.11371E-04   -0.35266E-04 39660   0.132E-01    0.615E-02
DAV:  10    -0.441856629438E+03    0.15771E-04   -0.18958E-04 35364   0.996E-02    0.353E-02
DAV:  11    -0.441856620910E+03    0.85289E-05   -0.47210E-05 28284   0.480E-02
  12 F= -.44185662E+03 E0= -.44184093E+03  d E =-.108952E-01  mag=    -0.6507
       N       E                     dE             d eps       ncg     rms          rms(c)
DAV:   1    -0.441838508976E+03    0.18120E-01   -0.59073E-01 47376   0.726E+00    0.356E-01
DAV:   2    -0.441856224833E+03   -0.17716E-01   -0.18213E-01 36696   0.923E-01    0.303E-01
DAV:   3    -0.441857347383E+03   -0.11226E-02   -0.20142E-02 37452   0.617E-01    0.490E-01
DAV:   4    -0.441856179872E+03    0.11675E-02   -0.84640E-03 39228   0.377E-01    0.140E-01
DAV:   5    -0.441856267202E+03   -0.87330E-04   -0.99359E-04 45480   0.211E-01    0.159E-01
DAV:   6    -0.441856177158E+03    0.90044E-04   -0.93441E-04 40956   0.174E-01    0.884E-02
DAV:   7    -0.441856170047E+03    0.71108E-05   -0.44479E-04 40836   0.139E-01    0.666E-02
DAV:   8    -0.441856154790E+03    0.15257E-04   -0.12119E-04 33888   0.703E-02    0.258E-02
DAV:   9    -0.441856156120E+03   -0.13303E-05   -0.35460E-05 22656   0.438E-02
  13 F= -.44185616E+03 E0= -.44184044E+03  d E =0.464789E-03  mag=    -0.6506
       N       E                     dE             d eps       ncg     rms          rms(c)
DAV:   1    -0.441848192886E+03    0.79619E-02   -0.47917E-01 45552   0.531E+00    0.255E-01
DAV:   2    -0.441857719704E+03   -0.95268E-02   -0.96762E-02 36720   0.697E-01    0.182E-01
DAV:   3    -0.441858192300E+03   -0.47260E-03   -0.70938E-03 37584   0.377E-01    0.304E-01
DAV:   4    -0.441857736227E+03    0.45607E-03   -0.34424E-03 39612   0.246E-01    0.978E-02
DAV:   5    -0.441857793473E+03   -0.57246E-04   -0.52335E-04 39036   0.162E-01    0.120E-01
DAV:   6    -0.441857732662E+03    0.60810E-04   -0.50943E-04 41916   0.140E-01    0.638E-02
DAV:   7    -0.441857720150E+03    0.12512E-04   -0.16110E-04 36624   0.934E-02    0.383E-02
DAV:   8    -0.441857717096E+03    0.30535E-05   -0.40689E-05 25920   0.422E-02
  14 F= -.44185772E+03 E0= -.44184197E+03  d E =-.156098E-02  mag=    -0.6483
       N       E                     dE             d eps       ncg     rms          rms(c)
DAV:   1    -0.441729448283E+03    0.12827E+00   -0.63574E+00 46128   0.197E+01    0.949E-01
DAV:   2    -0.441860435384E+03   -0.13099E+00   -0.13300E+00 36432   0.256E+00    0.564E-01
DAV:   3    -0.441864400299E+03   -0.39649E-02   -0.49909E-02 38004   0.116E+00    0.803E-01
DAV:   4    -0.441861316593E+03    0.30837E-02   -0.26490E-02 38808   0.781E-01    0.354E-01
DAV:   5    -0.441862412770E+03   -0.10962E-02   -0.11187E-02 43392   0.563E-01    0.505E-01
DAV:   6    -0.441861182159E+03    0.12306E-02   -0.92580E-03 42204   0.527E-01    0.196E-01
DAV:   7    -0.441861110085E+03    0.72074E-04   -0.22596E-03 41220   0.322E-01    0.131E-01
DAV:   8    -0.441861044924E+03    0.65161E-04   -0.71291E-04 39528   0.176E-01    0.602E-02
DAV:   9    -0.441861042009E+03    0.29153E-05   -0.21001E-04 38100   0.945E-02    0.461E-02
DAV:  10    -0.441861033440E+03    0.85688E-05   -0.85497E-05 28752   0.708E-02
  15 F= -.44186103E+03 E0= -.44184518E+03  d E =-.331634E-02  mag=    -0.6453
       N       E                     dE             d eps       ncg     rms          rms(c)
DAV:   1    -0.441544809264E+03    0.31623E+00   -0.10308E+01 47832   0.314E+01    0.150E+00
DAV:   2    -0.441859954295E+03   -0.31515E+00   -0.31987E+00 36348   0.381E+00    0.897E-01
DAV:   3    -0.441871904790E+03   -0.11950E-01   -0.14271E-01 38244   0.180E+00    0.138E+00
DAV:   4    -0.441863128349E+03    0.87764E-02   -0.84071E-02 40104   0.120E+00    0.578E-01
DAV:   5    -0.441865280892E+03   -0.21525E-02   -0.23693E-02 41700   0.862E-01    0.722E-01
DAV:   6    -0.441863024741E+03    0.22562E-02   -0.15175E-02 42252   0.713E-01    0.312E-01
DAV:   7    -0.441862831718E+03    0.19302E-03   -0.63166E-03 41604   0.509E-01    0.221E-01
DAV:   8    -0.441862628647E+03    0.20307E-03   -0.22884E-03 40488   0.278E-01    0.934E-02
DAV:   9    -0.441862609148E+03    0.19499E-04   -0.45331E-04 37944   0.143E-01    0.627E-02
DAV:  10    -0.441862596623E+03    0.12525E-04   -0.19558E-04 35460   0.105E-01    0.428E-02
DAV:  11    -0.441862589028E+03    0.75944E-05   -0.70730E-05 29040   0.566E-02
  16 F= -.44186259E+03 E0= -.44184663E+03  d E =-.155559E-02  mag=    -0.6164
       N       E                     dE             d eps       ncg     rms          rms(c)
DAV:   1    -0.441806427563E+03    0.56169E-01   -0.20828E+00 47256   0.134E+01    0.637E-01
DAV:   2    -0.441864712768E+03   -0.58285E-01   -0.59564E-01 36408   0.168E+00    0.413E-01
DAV:   3    -0.441867389907E+03   -0.26771E-02   -0.35268E-02 38124   0.837E-01    0.697E-01
DAV:   4    -0.441865029498E+03    0.23604E-02   -0.18210E-02 40428   0.585E-01    0.236E-01
DAV:   5    -0.441865515734E+03   -0.48624E-03   -0.31020E-03 44100   0.417E-01    0.310E-01
DAV:   6    -0.441864972330E+03    0.54340E-03   -0.28887E-03 41736   0.362E-01    0.130E-01
DAV:   7    -0.441864968860E+03    0.34698E-05   -0.94363E-04 41604   0.205E-01    0.932E-02
DAV:   8    -0.441864942431E+03    0.26429E-04   -0.30429E-04 37140   0.111E-01    0.413E-02
DAV:   9    -0.441864947180E+03   -0.47486E-05   -0.10259E-04 28632   0.655E-02    0.422E-02
DAV:  10    -0.441864937405E+03    0.97754E-05   -0.61387E-05 25920   0.544E-02
  17 F= -.44186494E+03 E0= -.44184907E+03  d E =-.234838E-02  mag=    -0.6297
       N       E                     dE             d eps       ncg     rms          rms(c)
DAV:   1    -0.441846915247E+03    0.18032E-01   -0.45485E-01 50544   0.818E+00    0.383E-01
DAV:   2    -0.441867353264E+03   -0.20438E-01   -0.21121E-01 36360   0.951E-01    0.237E-01
DAV:   3    -0.441868122312E+03   -0.76905E-03   -0.87066E-03 37584   0.490E-01    0.335E-01
DAV:   4    -0.441867553611E+03    0.56870E-03   -0.40589E-03 39156   0.361E-01    0.145E-01
DAV:   5    -0.441867794354E+03   -0.24074E-03   -0.22967E-03 45588   0.224E-01    0.227E-01
DAV:   6    -0.441867535972E+03    0.25838E-03   -0.18161E-03 41940   0.213E-01    0.643E-02
DAV:   7    -0.441867539265E+03   -0.32930E-05   -0.28234E-04 38868   0.116E-01    0.519E-02
DAV:   8    -0.441867526814E+03    0.12451E-04   -0.11117E-04 33132   0.731E-02    0.223E-02
DAV:   9    -0.441867526344E+03    0.47011E-06   -0.28435E-05 21084   0.353E-02
  18 F= -.44186753E+03 E0= -.44185167E+03  d E =-.258894E-02  mag=    -0.6367
