       N       E                     dE             d eps       ncg     rms          ort
DAV:   1     0.106890840637E+05    0.10689E+05   -0.46551E+05  8260   0.177E+03
DAV:   2     0.174495756921E+03   -0.10515E+05   -0.96875E+04  8260   0.491E+02
DAV:   3    -0.141104129453E+04   -0.15855E+04   -0.14313E+04  8260   0.196E+02
DAV:   4    -0.150643422994E+04   -0.95393E+02   -0.94041E+02  8260   0.469E+01
DAV:   5    -0.150763382546E+04   -0.11996E+01   -0.11972E+01  8260   0.566E+00
SDA:   6    -0.127695050193E+04    0.23068E+03   -0.11972E+01  8260   0.404E+02 0.000E+00
CGA:   7    -0.128413919613E+04   -0.71887E+01   -0.71972E+01  8260   0.609E+01 0.266E+00
CGA:   8    -0.128527193755E+04   -0.11327E+01   -0.11364E+01  8260   0.164E+01 0.267E+00
CGA:   9    -0.128570400997E+04   -0.43207E+00   -0.42259E+00  8260   0.461E+00 0.196E+00
CGA:  10    -0.128586590501E+04   -0.16190E+00   -0.16532E+00  8260   0.334E+00-0.293E-01
CGA:  11    -0.128594733480E+04   -0.81430E-01   -0.85735E-01  8260   0.142E+00-0.648E-01
CGA:  12    -0.128597692863E+04   -0.29594E-01   -0.29861E-01  8260   0.548E-01-0.531E-02
CGA:  13    -0.128598632100E+04   -0.93924E-02   -0.96993E-02  8260   0.139E-01 0.106E-01
CGA:  14    -0.128598967686E+04   -0.33559E-02   -0.33837E-02  8260   0.585E-02 0.383E-02
CGA:  15    -0.128599172048E+04   -0.20436E-02   -0.20436E-02  8260   0.221E-02-0.765E-05
CGA:  16    -0.128599207922E+04   -0.35874E-03   -0.39199E-03  8260   0.107E-02 0.912E-03
CGA:  17    -0.128599231124E+04   -0.23202E-03   -0.25720E-03  8260   0.498E-03 0.591E-03
CGA:  18    -0.128599271608E+04   -0.40483E-03    0.55840E-04  8260   0.215E-03 0.282E-03
CGA:  19    -0.128599289688E+04   -0.18080E-03    0.22542E-04  8260   0.121E-03 0.155E-03
CGA:  20    -0.128599305053E+04   -0.15365E-03    0.62888E-05  8260   0.746E-04 0.925E-04
CGA:  21    -0.128599314099E+04   -0.90458E-04    0.41495E-05  8260   0.487E-04 0.591E-04
CGA:  22    -0.128599322093E+04   -0.79939E-04    0.17582E-05  8260   0.330E-04 0.395E-04
CGA:  23    -0.128599327455E+04   -0.53625E-04    0.12036E-05  8260   0.228E-04 0.271E-04
CGA:  24    -0.128599332650E+04   -0.51952E-04    0.54054E-06  8260   0.160E-04 0.189E-04
CGA:  25    -0.128599336212E+04   -0.35612E-04    0.39050E-06  8260   0.114E-04 0.133E-04
CGA:  26    -0.128599340340E+04   -0.41282E-04    0.15636E-06  8260   0.821E-05 0.943E-05
CGA:  27    -0.128599342770E+04   -0.24303E-04    0.14239E-06  8260   0.609E-05 0.670E-05
CGA:  28    -0.128599347126E+04   -0.43562E-04    0.39872E-07  8260   0.476E-05 0.468E-05
CGA:  29    -0.128599348283E+04   -0.11568E-04    0.10437E-06  8260   0.405E-05 0.308E-05
CGA:  30    -0.128599353713E+04   -0.54297E-04    0.13755E-07  8260   0.378E-05 0.171E-05
CGA:  31    -0.128599358154E+04   -0.44415E-04    0.30220E-07  8260   0.165E-05 0.387E-05
CGA:  32    -0.128599359150E+04   -0.99600E-05    0.13034E-07  8260   0.142E-05 0.914E-06
   1 F= -.12859936E+04 E0= -.12859936E+04  d E =-.128599E+04  mag=   126.0000
