       N       E                     dE             d eps       ncg     rms          ort
DAV:   1     0.282416239546E+04    0.28242E+04   -0.29268E+05  2880   0.140E+03
DAV:   2    -0.973528953965E+03   -0.37977E+04   -0.36663E+04  2880   0.312E+02
DAV:   3    -0.122915756171E+04   -0.25563E+03   -0.25354E+03  2880   0.846E+01
DAV:   4    -0.123213248010E+04   -0.29749E+01   -0.29646E+01  2880   0.971E+00
DAV:   5    -0.123218052580E+04   -0.48046E-01   -0.47943E-01  2880   0.114E+00
SDA:   6    -0.877231605642E+03    0.35495E+03   -0.47943E-01  2880   0.606E+03 0.000E+00
CGA:   7    -0.984124746386E+03   -0.10689E+03   -0.10745E+03  2880   0.630E+02 0.129E+02
CGA:   8    -0.995623415604E+03   -0.11499E+02   -0.11557E+02  2880   0.296E+02 0.124E+01
CGA:   9    -0.100052781972E+04   -0.49044E+01   -0.52037E+01  2880   0.173E+02 0.457E+01
CGA:  10    -0.100250453972E+04   -0.19767E+01   -0.23660E+01  2880   0.134E+02-0.160E+01
CGA:  11    -0.100266759813E+04   -0.16306E+00   -0.89142E+00  2880   0.347E+02-0.696E+01
CGA:  12    -0.100436907905E+04   -0.17015E+01   -0.36283E+01  2880   0.271E+01 0.659E+00
CGA:  13    -0.100475725312E+04   -0.38817E+00   -0.40419E+00  2880   0.496E+01 0.533E+00
CGA:  14    -0.100445602227E+04    0.30123E+00   -0.23010E+00  2880   0.184E+02-0.191E+02
CGA:  15    -0.100493004921E+04   -0.47403E+00   -0.14402E+01  2880   0.542E+01-0.486E+01
CGA:  16    -0.100511709158E+04   -0.18704E+00   -0.32565E+00  2880   0.366E+01-0.113E+01
CGA:  17    -0.100524733518E+04   -0.13024E+00   -0.77126E-01  2880   0.175E+01 0.155E+01
CGA:  18    -0.100527901622E+04   -0.31681E-01   -0.11917E+00  2880   0.247E+01-0.176E+01
CGA:  19    -0.100533890742E+04   -0.59891E-01   -0.17065E+00  2880   0.103E+01-0.752E+00
CGA:  20    -0.100540803430E+04   -0.69127E-01   -0.56581E-01  2880   0.553E+00 0.572E-01
CGA:  21    -0.100545052688E+04   -0.42493E-01   -0.45326E-01  2880   0.475E+00-0.234E-01
CGA:  22    -0.100549753859E+04   -0.47012E-01   -0.48673E-01  2880   0.104E+01 0.421E-02
CGA:  23    -0.100558044864E+04   -0.82910E-01   -0.84432E-01  2880   0.346E+00-0.145E-01
CGA:  24    -0.100560046687E+04   -0.20018E-01   -0.17749E-01  2880   0.696E-01 0.308E-01
CGA:  25    -0.100560369353E+04   -0.32267E-02   -0.31576E-02  2880   0.130E-01 0.745E-03
CGA:  26    -0.100560648593E+04   -0.27924E-02   -0.27118E-02  2880   0.300E-01 0.909E-03
CGA:  27    -0.100560969865E+04   -0.32127E-02   -0.32449E-02  2880   0.258E-01 0.166E-02
CGA:  28    -0.100561123434E+04   -0.15357E-02   -0.15735E-02  2880   0.432E-02 0.393E-03
CGA:  29    -0.100561169041E+04   -0.45607E-03   -0.45294E-03  2880   0.349E-02-0.193E-03
CGA:  30    -0.100561209937E+04   -0.40896E-03   -0.40910E-03  2880   0.548E-02 0.689E-04
CGA:  31    -0.100561259118E+04   -0.49181E-03   -0.48126E-03  2880   0.231E-02-0.275E-03
CGA:  32    -0.100561281392E+04   -0.22274E-03   -0.22022E-03  2880   0.941E-03-0.130E-03
CGA:  33    -0.100561287393E+04   -0.60004E-04   -0.68901E-04  2880   0.519E-03 0.209E-03
CGA:  34    -0.100561291748E+04   -0.43549E-04   -0.47907E-04  2880   0.403E-03 0.100E-03
CGA:  35    -0.100561297361E+04   -0.56128E-04   -0.56290E-04  2880   0.137E-03 0.243E-03
CGA:  36    -0.100561297813E+04   -0.45207E-05   -0.75752E-05  2880   0.107E-03 0.488E-04
CGA:  37    -0.100561300633E+04   -0.28204E-04   -0.23659E-04  2880   0.102E-03 0.949E-04
CGA:  38    -0.100561301456E+04   -0.82265E-05   -0.78264E-05  2880   0.118E-03-0.103E-04
   1 F= -.10056130E+04 E0= -.10055987E+04  d E =-.100561E+04  mag=     1.0000
       N       E                     dE             d eps       ncg     rms          ort
SDA:   1    -0.100561090102E+04    0.21053E-02    0.00000E+00  2880   0.546E-01 0.000E+00
CGA:   2    -0.100561284576E+04   -0.19447E-02   -0.20812E-02  2880   0.260E-02-0.444E-02
CGA:   3    -0.100561292846E+04   -0.82701E-04   -0.92881E-04  2880   0.433E-03 0.113E-03
CGA:   4    -0.100561300032E+04   -0.71864E-04   -0.64389E-04  2880   0.403E-03 0.201E-03
CGA:   5    -0.100561304728E+04   -0.46958E-04   -0.46980E-04  2880   0.400E-03-0.399E-05
CGA:   6    -0.100561306821E+04   -0.20925E-04   -0.25277E-04  2880   0.964E-04 0.102E-03
CGA:   7    -0.100561307029E+04   -0.20815E-05   -0.45343E-05  2880   0.421E-04 0.367E-04
   2 F= -.10056131E+04 E0= -.10055987E+04  d E =-.557304E-04  mag=     0.9997
       N       E                     dE             d eps       ncg     rms          ort
SDA:   1    -0.100561066904E+04    0.23992E-02    0.00000E+00  2880   0.479E-01 0.000E+00
CGA:   2    -0.100561257428E+04   -0.19052E-02   -0.19353E-02  2880   0.147E-02 0.128E-02
CGA:   3    -0.100561280006E+04   -0.22577E-03   -0.22309E-03  2880   0.330E-02 0.450E-04
CGA:   4    -0.100561306331E+04   -0.26326E-03   -0.26881E-03  2880   0.357E-03 0.249E-03
CGA:   5    -0.100561310683E+04   -0.43520E-04   -0.48233E-04  2880   0.756E-03-0.185E-03
CGA:   6    -0.100561313313E+04   -0.26301E-04   -0.30918E-04  2880   0.639E-04 0.731E-04
CGA:   7    -0.100561313931E+04   -0.61812E-05   -0.24976E-04  2880   0.592E-03-0.731E-04
CGA:   8    -0.100561316246E+04   -0.23143E-04   -0.23340E-04  2880   0.277E-04-0.193E-05
CGA:   9    -0.100561316535E+04   -0.28933E-05   -0.35821E-05  2880   0.121E-03-0.312E-04
   3 F= -.10056132E+04 E0= -.10055989E+04  d E =-.950620E-04  mag=     0.9997
       N       E                     dE             d eps       ncg     rms          ort
SDA:   1    -0.100560714029E+04    0.60222E-02    0.00000E+00  2880   0.308E-01 0.000E+00
CGA:   2    -0.100560882371E+04   -0.16834E-02   -0.16890E-02  2880   0.169E-01-0.582E-04
CGA:   3    -0.100561162846E+04   -0.28048E-02   -0.27454E-02  2880   0.187E-01 0.947E-03
CGA:   4    -0.100561279773E+04   -0.11693E-02   -0.11652E-02  2880   0.180E-02-0.528E-03
CGA:   5    -0.100561309548E+04   -0.29775E-03   -0.29969E-03  2880   0.212E-02-0.326E-04
CGA:   6    -0.100561325144E+04   -0.15596E-03   -0.14493E-03  2880   0.651E-03-0.324E-03
CGA:   7    -0.100561327492E+04   -0.23476E-04   -0.27106E-04  2880   0.144E-03 0.612E-04
CGA:   8    -0.100561328223E+04   -0.73124E-05   -0.10436E-04  2880   0.820E-04 0.887E-04
   4 F= -.10056133E+04 E0= -.10055990E+04  d E =-.116879E-03  mag=     0.9998
       N       E                     dE             d eps       ncg     rms          ort
SDA:   1    -0.100551986962E+04    0.93405E-01    0.00000E+00  2880   0.618E+00 0.000E+00
CGA:   2    -0.100554644986E+04   -0.26580E-01   -0.25285E-01  2880   0.196E+00 0.139E-01
CGA:   3    -0.100559408820E+04   -0.47638E-01   -0.47248E-01  2880   0.213E+00 0.259E-02
CGA:   4    -0.100560594009E+04   -0.11852E-01   -0.11655E-01  2880   0.234E-01 0.977E-04
CGA:   5    -0.100560983130E+04   -0.38912E-02   -0.40187E-02  2880   0.471E-01-0.187E-02
CGA:   6    -0.100561199601E+04   -0.21647E-02   -0.21450E-02  2880   0.304E-02 0.394E-03
CGA:   7    -0.100561222495E+04   -0.22894E-03   -0.23953E-03  2880   0.385E-02 0.446E-03
CGA:   8    -0.100561263582E+04   -0.41087E-03   -0.41374E-03  2880   0.542E-03 0.418E-03
CGA:   9    -0.100561271556E+04   -0.79739E-04   -0.11816E-03  2880   0.224E-02-0.403E-03
CGA:  10    -0.100561279166E+04   -0.76097E-04   -0.86883E-04  2880   0.123E-03 0.171E-03
CGA:  11    -0.100561280858E+04   -0.16922E-04   -0.18242E-04  2880   0.367E-03-0.375E-04
CGA:  12    -0.100561283781E+04   -0.29226E-04   -0.32215E-04  2880   0.447E-03-0.129E-03
CGA:  13    -0.100561284804E+04   -0.10228E-04   -0.80993E-05  2880   0.166E-03-0.294E-04
CGA:  14    -0.100561285296E+04   -0.49254E-05   -0.52441E-05  2880   0.124E-03 0.352E-05
   5 F= -.10056129E+04 E0= -.10055986E+04  d E =0.429267E-03  mag=     0.9998
       N       E                     dE             d eps       ncg     rms          ort
SDA:   1    -0.100553025148E+04    0.82597E-01    0.00000E+00  2880   0.353E+00 0.000E+00
CGA:   2    -0.100555303595E+04   -0.22784E-01   -0.21495E-01  2880   0.199E+00 0.522E-02
CGA:   3    -0.100559253313E+04   -0.39497E-01   -0.39803E-01  2880   0.227E+00-0.333E-02
CGA:   4    -0.100560269436E+04   -0.10161E-01   -0.10217E-01  2880   0.219E-01-0.889E-03
CGA:   5    -0.100560749727E+04   -0.48029E-02   -0.48179E-02  2880   0.257E-01-0.139E-03
CGA:   6    -0.100560877394E+04   -0.12767E-02   -0.13113E-02  2880   0.245E-02 0.890E-03
CGA:   7    -0.100560926085E+04   -0.48691E-03   -0.47747E-03  2880   0.463E-02 0.977E-04
CGA:   8    -0.100560958366E+04   -0.32281E-03   -0.32203E-03  2880   0.479E-03-0.352E-04
CGA:   9    -0.100560964388E+04   -0.60223E-04   -0.63657E-04  2880   0.123E-02-0.111E-03
CGA:  10    -0.100560972101E+04   -0.77126E-04   -0.79758E-04  2880   0.573E-03 0.139E-03
CGA:  11    -0.100560973579E+04   -0.14787E-04   -0.20858E-04  2880   0.110E-03 0.876E-04
CGA:  12    -0.100560974681E+04   -0.11016E-04   -0.10905E-04  2880   0.187E-03-0.924E-05
CGA:  13    -0.100560935962E+04    0.38719E-03   -0.20874E-03  2880   0.532E-02-0.936E-03
CGA:  14    -0.100560955154E+04   -0.19192E-03   -0.22428E-03  2880   0.138E-02 0.498E-04
CGA:  15    -0.100560968928E+04   -0.13774E-03   -0.15491E-03  2880   0.546E-03 0.280E-03
CGA:  16    -0.100560971163E+04   -0.22345E-04   -0.38598E-04  2880   0.124E-03 0.142E-03
CGA:  17    -0.100560974069E+04   -0.29065E-04   -0.28267E-04  2880   0.159E-03 0.454E-04
CGA:  18    -0.100560976528E+04   -0.24588E-04   -0.19380E-04  2880   0.176E-03-0.706E-04
CGA:  19    -0.100560977456E+04   -0.92791E-05   -0.70224E-05  2880   0.628E-04-0.254E-04
   6 F= -.10056098E+04 E0= -.10055955E+04  d E =0.307840E-02  mag=     0.9998
       N       E                     dE             d eps       ncg     rms          ort
SDA:   1    -0.100557787489E+04    0.31890E-01    0.00000E+00  2880   0.276E+00 0.000E+00
CGA:   2    -0.100559163410E+04   -0.13759E-01   -0.14055E-01  2880   0.616E-01-0.827E-02
CGA:   3    -0.100560589331E+04   -0.14259E-01   -0.14243E-01  2880   0.105E+00 0.108E-03
CGA:   4    -0.100561059679E+04   -0.47035E-02   -0.45973E-02  2880   0.835E-02 0.429E-03
CGA:   5    -0.100561227572E+04   -0.16789E-02   -0.16778E-02  2880   0.988E-02-0.416E-05
CGA:   6    -0.100561290057E+04   -0.62486E-03   -0.64615E-03  2880   0.102E-02 0.112E-03
CGA:   7    -0.100561309336E+04   -0.19279E-03   -0.19491E-03  2880   0.251E-02-0.509E-04
CGA:   8    -0.100561326585E+04   -0.17248E-03   -0.15467E-03  2880   0.245E-03-0.232E-03
CGA:   9    -0.100561327968E+04   -0.13835E-04   -0.18704E-04  2880   0.150E-03 0.839E-04
CGA:  10    -0.100561330259E+04   -0.22913E-04   -0.24292E-04  2880   0.426E-04 0.757E-04
CGA:  11    -0.100561331686E+04   -0.14268E-04    0.13830E-04  2880   0.503E-04 0.215E-04
CGA:  12    -0.100561331795E+04   -0.10928E-05   -0.21834E-05  2880   0.274E-04 0.112E-04
CGA:  13    -0.100561333100E+04   -0.13040E-04   -0.16225E-04  2880   0.148E-03-0.916E-05
CGA:  14    -0.100561333514E+04   -0.41458E-05   -0.26162E-05  2880   0.401E-04-0.127E-04
   7 F= -.10056133E+04 E0= -.10055991E+04  d E =-.356058E-02  mag=     0.9998
       N       E                     dE             d eps       ncg     rms          ort
SDA:   1    -0.100557963481E+04    0.33696E-01    0.00000E+00  2880   0.357E+00 0.000E+00
CGA:   2    -0.100559645564E+04   -0.16821E-01   -0.15937E-01  2880   0.373E-01 0.113E-01
CGA:   3    -0.100560952277E+04   -0.13067E-01   -0.13202E-01  2880   0.284E-01-0.672E-03
CGA:   4    -0.100561093650E+04   -0.14137E-02   -0.14656E-02  2880   0.662E-02-0.324E-04
CGA:   5    -0.100561244001E+04   -0.15035E-02   -0.14918E-02  2880   0.338E-02 0.137E-03
CGA:   6    -0.100561262900E+04   -0.18899E-03   -0.17255E-03  2880   0.103E-02-0.294E-03
CGA:   7    -0.100561278718E+04   -0.15818E-03   -0.16090E-03  2880   0.156E-02-0.898E-04
CGA:   8    -0.100561287977E+04   -0.92589E-04   -0.85252E-04  2880   0.136E-03-0.969E-04
CGA:   9    -0.100561289899E+04   -0.19226E-04   -0.18630E-04  2880   0.845E-04 0.631E-04
CGA:  10    -0.100561291396E+04   -0.14964E-04   -0.14905E-04  2880   0.159E-03-0.407E-05
CGA:  11    -0.100561291878E+04   -0.48239E-05   -0.79009E-05  2880   0.534E-04 0.364E-04
   8 F= -.10056129E+04 E0= -.10055986E+04  d E =0.416361E-03  mag=     0.9998
       N       E                     dE             d eps       ncg     rms          ort
SDA:   1    -0.100560168060E+04    0.11233E-01    0.00000E+00  2880   0.877E-01 0.000E+00
CGA:   2    -0.100560579925E+04   -0.41186E-02   -0.39425E-02  2880   0.203E-01 0.572E-02
CGA:   3    -0.100561000141E+04   -0.42022E-02   -0.41622E-02  2880   0.422E-01 0.491E-03
CGA:   4    -0.100561256638E+04   -0.25650E-02   -0.25929E-02  2880   0.311E-02 0.176E-03
CGA:   5    -0.100561310218E+04   -0.53580E-03   -0.57522E-03  2880   0.610E-02-0.661E-03
CGA:   6    -0.100561338198E+04   -0.27980E-03   -0.27606E-03  2880   0.110E-02-0.511E-04
CGA:   7    -0.100561341499E+04   -0.33009E-04   -0.44740E-04  2880   0.479E-03 0.134E-03
CGA:   8    -0.100561344600E+04   -0.31005E-04   -0.40015E-04  2880   0.471E-03 0.203E-03
CGA:   9    -0.100561347743E+04   -0.31433E-04   -0.39014E-04  2880   0.739E-04 0.128E-03
CGA:  10    -0.100561349283E+04   -0.15398E-04   -0.17552E-04  2880   0.268E-03-0.301E-04
CGA:  11    -0.100561350135E+04   -0.85252E-05   -0.65380E-05  2880   0.213E-03-0.261E-04
   9 F= -.10056135E+04 E0= -.10055992E+04  d E =-.582575E-03  mag=     0.9998
       N       E                     dE             d eps       ncg     rms          ort
SDA:   1    -0.100555837445E+04    0.55118E-01    0.00000E+00  2880   0.161E+00 0.000E+00
CGA:   2    -0.100557734333E+04   -0.18969E-01   -0.18976E-01  2880   0.235E+00 0.601E-04
CGA:   3    -0.100560559504E+04   -0.28252E-01   -0.28205E-01  2880   0.647E-01 0.210E-02
CGA:   4    -0.100560839770E+04   -0.28027E-02   -0.28822E-02  2880   0.170E-01-0.841E-03
CGA:   5    -0.100561209417E+04   -0.36965E-02   -0.38220E-02  2880   0.360E-02-0.105E-02
CGA:   6    -0.100561230072E+04   -0.20655E-03   -0.22157E-03  2880   0.266E-02 0.287E-03
CGA:   7    -0.100561262743E+04   -0.32671E-03   -0.32570E-03  2880   0.483E-03 0.322E-03
CGA:   8    -0.100561267479E+04   -0.47359E-04   -0.49142E-04  2880   0.413E-03 0.894E-04
CGA:   9    -0.100561274104E+04   -0.66243E-04   -0.12285E-03  2880   0.126E-02-0.402E-03
CGA:  10    -0.100561277039E+04   -0.29354E-04   -0.40223E-04  2880   0.143E-03 0.125E-03
CGA:  11    -0.100561277777E+04   -0.73753E-05   -0.11099E-04  2880   0.108E-03 0.890E-04
  10 F= -.10056128E+04 E0= -.10055985E+04  d E =0.723589E-03  mag=     0.9998
       N       E                     dE             d eps       ncg     rms          ort
SDA:   1    -0.100534421438E+04    0.26856E+00    0.00000E+00  2880   0.119E+01 0.000E+00
CGA:   2    -0.100542157659E+04   -0.77362E-01   -0.74951E-01  2880   0.707E+00-0.391E-02
CGA:   3    -0.100554947700E+04   -0.12790E+00   -0.12589E+00  2880   0.715E+00 0.243E-01
CGA:   4    -0.100558912002E+04   -0.39643E-01   -0.33813E-01  2880   0.526E-01 0.864E-01
CGA:   5    -0.100559909187E+04   -0.99719E-02   -0.10039E-01  2880   0.127E+00-0.105E-02
CGA:   6    -0.100560593144E+04   -0.68396E-02   -0.68610E-02  2880   0.213E-01-0.234E-02
CGA:   7    -0.100560694793E+04   -0.10165E-02   -0.10035E-02  2880   0.809E-02-0.284E-03
CGA:   8    -0.100560802789E+04   -0.10800E-02   -0.10605E-02  2880   0.126E-01 0.652E-03
CGA:   9    -0.100560873403E+04   -0.70614E-03   -0.72578E-03  2880   0.986E-03 0.248E-03
CGA:  10    -0.100560892189E+04   -0.18786E-03   -0.32827E-03  2880   0.615E-02-0.633E-03
CGA:  11    -0.100560911926E+04   -0.19737E-03   -0.21361E-03  2880   0.393E-03 0.704E-04
CGA:  12    -0.100560915292E+04   -0.33662E-04   -0.34302E-04  2880   0.363E-03 0.230E-04
CGA:  13    -0.100560918027E+04   -0.27347E-04   -0.31959E-04  2880   0.112E-03 0.178E-03
CGA:  14    -0.100560918818E+04   -0.79085E-05   -0.10459E-04  2880   0.100E-03 0.559E-04
CGA:  15    -0.100560920289E+04   -0.14712E-04   -0.75763E-04  2880   0.572E-03-0.154E-03
CGA:  16    -0.100560922867E+04   -0.25779E-04   -0.26892E-04  2880   0.133E-03 0.941E-05
CGA:  17    -0.100560924845E+04   -0.19787E-04   -0.19693E-04  2880   0.202E-03 0.337E-05
CGA:  18    -0.100560925355E+04   -0.50972E-05   -0.96116E-05  2880   0.198E-04 0.587E-04
  11 F= -.10056093E+04 E0= -.10055951E+04  d E =0.352421E-02  mag=     0.9998
       N       E                     dE             d eps       ncg     rms          ort
SDA:   1    -0.100556791343E+04    0.41335E-01    0.00000E+00  2880   0.576E+00 0.000E+00
CGA:   2    -0.100558973761E+04   -0.21824E-01   -0.20435E-01  2880   0.545E-01 0.267E-01
CGA:   3    -0.100559857240E+04   -0.88348E-02   -0.88303E-02  2880   0.108E+00 0.453E-04
CGA:   4    -0.100560850872E+04   -0.99363E-02   -0.99073E-02  2880   0.111E-01-0.121E-02
CGA:   5    -0.100560948023E+04   -0.97151E-03   -0.97203E-03  2880   0.143E-01-0.214E-03
CGA:   6    -0.100561082131E+04   -0.13411E-02   -0.13535E-02  2880   0.242E-02 0.893E-03
CGA:   7    -0.100561096923E+04   -0.14792E-03   -0.15556E-03  2880   0.114E-02 0.137E-03
CGA:   8    -0.100561120340E+04   -0.23417E-03   -0.35581E-03  2880   0.242E-02-0.652E-03
CGA:   9    -0.100561127368E+04   -0.70280E-04   -0.84428E-04  2880   0.361E-03 0.139E-03
CGA:  10    -0.100561130696E+04   -0.33275E-04   -0.36300E-04  2880   0.163E-03 0.171E-03
CGA:  11    -0.100561131743E+04   -0.10468E-04   -0.13882E-04  2880   0.862E-04 0.622E-04
CGA:  12    -0.100561132256E+04   -0.51338E-05   -0.77415E-05  2880   0.445E-04 0.589E-04
  12 F= -.10056113E+04 E0= -.10055971E+04  d E =-.206901E-02  mag=     0.9997
       N       E                     dE             d eps       ncg     rms          ort
SDA:   1    -0.100560585095E+04    0.54665E-02    0.00000E+00  2880   0.264E-01 0.000E+00
CGA:   2    -0.100560740512E+04   -0.15542E-02   -0.15591E-02  2880   0.182E-01-0.111E-02
CGA:   3    -0.100561029840E+04   -0.28933E-02   -0.28883E-02  2880   0.143E-01 0.443E-04
CGA:   4    -0.100561101458E+04   -0.71617E-03   -0.73622E-03  2880   0.149E-02 0.146E-03
CGA:   5    -0.100561142584E+04   -0.41127E-03   -0.38299E-03  2880   0.268E-03 0.190E-03
CGA:   6    -0.100561145695E+04   -0.31109E-04   -0.31307E-04  2880   0.281E-03 0.206E-04
CGA:   7    -0.100561150336E+04   -0.46411E-04   -0.50822E-04  2880   0.199E-03-0.791E-04
CGA:   8    -0.100561151138E+04   -0.80136E-05   -0.63377E-05  2880   0.589E-04-0.250E-04
  13 F= -.10056115E+04 E0= -.10055972E+04  d E =-.188818E-03  mag=     0.9997
       N       E                     dE             d eps       ncg     rms          ort
SDA:   1    -0.100558682929E+04    0.24674E-01    0.00000E+00  2880   0.801E-01 0.000E+00
CGA:   2    -0.100559361776E+04   -0.67885E-02   -0.68557E-02  2880   0.102E+00-0.774E-03
CGA:   3    -0.100560732130E+04   -0.13704E-01   -0.13687E-01  2880   0.428E-01 0.384E-03
CGA:   4    -0.100560938188E+04   -0.20606E-02   -0.21186E-02  2880   0.590E-02-0.630E-05
CGA:   5    -0.100561075424E+04   -0.13724E-02   -0.13267E-02  2880   0.108E-02 0.382E-03
CGA:   6    -0.100561088525E+04   -0.13101E-03   -0.13097E-03  2880   0.114E-02 0.884E-05
CGA:   7    -0.100561104401E+04   -0.15876E-03   -0.17835E-03  2880   0.672E-03-0.458E-03
CGA:   8    -0.100561105328E+04   -0.92648E-05   -0.14519E-04  2880   0.256E-03 0.670E-04
CGA:   9    -0.100561105709E+04   -0.38152E-05   -0.11236E-04  2880   0.188E-03 0.106E-03
CGA:  10    -0.100561106340E+04   -0.63044E-05   -0.12836E-04  2880   0.116E-03 0.112E-03
CGA:  11    -0.100561107446E+04   -0.11062E-04   -0.10572E-04  2880   0.134E-03-0.400E-04
CGA:  12    -0.100561107870E+04   -0.42418E-05   -0.58860E-05  2880   0.856E-04 0.460E-04
  14 F= -.10056111E+04 E0= -.10055968E+04  d E =0.432676E-03  mag=     0.9997
       N       E                     dE             d eps       ncg     rms          ort
SDA:   1    -0.100504116627E+04    0.56991E+00    0.00000E+00  2880   0.221E+01 0.000E+00
CGA:   2    -0.100518731131E+04   -0.14615E+00   -0.13437E+00  2880   0.167E+01-0.171E-01
CGA:   3    -0.100551336980E+04   -0.32606E+00   -0.33184E+00  2880   0.101E+01-0.581E-01
CGA:   4    -0.100556179682E+04   -0.48427E-01   -0.46510E-01  2880   0.143E+00 0.106E-01
CGA:   5    -0.100558927403E+04   -0.27477E-01   -0.27110E-01  2880   0.165E+00 0.387E-02
CGA:   6    -0.100559749288E+04   -0.82189E-02   -0.79178E-02  2880   0.188E-01 0.721E-02
CGA:   7    -0.100560022190E+04   -0.27290E-02   -0.27585E-02  2880   0.284E-01-0.806E-03
CGA:   8    -0.100560245499E+04   -0.22331E-02   -0.21996E-02  2880   0.431E-02-0.149E-02
CGA:   9    -0.100560289177E+04   -0.43677E-03   -0.43429E-03  2880   0.536E-02 0.463E-03
CGA:  10    -0.100560332443E+04   -0.43266E-03   -0.45139E-03  2880   0.856E-03 0.730E-03
CGA:  11    -0.100560342583E+04   -0.10140E-03   -0.10080E-03  2880   0.107E-02 0.167E-03
CGA:  12    -0.100560364760E+04   -0.22177E-03   -0.27545E-03  2880   0.607E-03-0.466E-03
CGA:  13    -0.100560365816E+04   -0.10562E-04   -0.13283E-04  2880   0.296E-03 0.399E-04
CGA:  14    -0.100560367935E+04   -0.21188E-04   -0.23729E-04  2880   0.436E-03 0.919E-04
CGA:  15    -0.100560373170E+04   -0.52348E-04   -0.52827E-04  2880   0.210E-03 0.524E-04
CGA:  16    -0.100560374616E+04   -0.14459E-04   -0.13888E-04  2880   0.503E-04-0.150E-04
CGA:  17    -0.100560375076E+04   -0.46049E-05   -0.46064E-05  2880   0.399E-04 0.208E-04
  15 F= -.10056038E+04 E0= -.10055892E+04  d E =0.732794E-02  mag=     0.9997
       N       E                     dE             d eps       ncg     rms          ort
SDA:   1    -0.100538286455E+04    0.22088E+00    0.00000E+00  2880   0.134E+01 0.000E+00
CGA:   2    -0.100545385765E+04   -0.70993E-01   -0.68947E-01  2880   0.495E+00 0.238E-03
CGA:   3    -0.100553054538E+04   -0.76688E-01   -0.74288E-01  2880   0.744E+00 0.378E-01
CGA:   4    -0.100558963476E+04   -0.59089E-01   -0.57018E-01  2880   0.521E-01-0.320E-02
CGA:   5    -0.100559821809E+04   -0.85833E-02   -0.86483E-02  2880   0.645E-01-0.119E-02
CGA:   6    -0.100560356799E+04   -0.53499E-02   -0.53663E-02  2880   0.482E-02 0.560E-03
CGA:   7    -0.100560455355E+04   -0.98556E-03   -0.98996E-03  2880   0.751E-02-0.645E-04
CGA:   8    -0.100560508878E+04   -0.53523E-03   -0.54678E-03  2880   0.985E-03 0.336E-03
CGA:   9    -0.100560518658E+04   -0.97800E-04   -0.95587E-04  2880   0.171E-02-0.181E-03
CGA:  10    -0.100560539601E+04   -0.20942E-03   -0.22047E-03  2880   0.468E-03-0.209E-03
CGA:  11    -0.100560540603E+04   -0.10022E-04   -0.15786E-04  2880   0.240E-03 0.802E-04
CGA:  12    -0.100560542253E+04   -0.16498E-04   -0.20901E-04  2880   0.233E-03 0.149E-03
CGA:  13    -0.100560543610E+04   -0.13571E-04   -0.12641E-04  2880   0.151E-03-0.210E-04
CGA:  14    -0.100560544951E+04   -0.13419E-04   -0.13535E-04  2880   0.603E-04 0.771E-04
CGA:  15    -0.100560545352E+04   -0.40052E-05   -0.41334E-05  2880   0.536E-04 0.355E-05
CGA:  16    -0.100560546518E+04   -0.11664E-04    0.65510E-04  2880   0.413E-04 0.344E-04
CGA:  17    -0.100560546663E+04   -0.14494E-05   -0.20286E-05  2880   0.163E-04 0.115E-04
  16 F= -.10056055E+04 E0= -.10055910E+04  d E =-.171587E-02  mag=     0.9998
       N       E                     dE             d eps       ncg     rms          ort
SDA:   1    -0.100547813949E+04    0.12733E+00    0.00000E+00  2880   0.304E+00 0.000E+00
CGA:   2    -0.100557220158E+04   -0.94062E-01   -0.94538E-01  2880   0.474E+00-0.316E-02
CGA:   3    -0.100559277429E+04   -0.20573E-01   -0.23030E-01  2880   0.823E-01-0.341E-01
CGA:   4    -0.100559860563E+04   -0.58313E-02   -0.59035E-02  2880   0.639E-01 0.540E-03
CGA:   5    -0.100560588434E+04   -0.72787E-02   -0.72723E-02  2880   0.947E-02 0.540E-03
CGA:   6    -0.100560677453E+04   -0.89019E-03   -0.88677E-03  2880   0.653E-02-0.301E-03
CGA:   7    -0.100560771098E+04   -0.93645E-03   -0.93652E-03  2880   0.209E-02-0.225E-04
CGA:   8    -0.100560781162E+04   -0.10064E-03   -0.10747E-03  2880   0.834E-03 0.101E-03
CGA:   9    -0.100560795766E+04   -0.14604E-03   -0.14940E-03  2880   0.130E-02-0.545E-04
CGA:  10    -0.100560803252E+04   -0.74867E-04   -0.81211E-04  2880   0.135E-03 0.152E-03
CGA:  11    -0.100560805238E+04   -0.19853E-04   -0.19548E-04  2880   0.290E-03 0.123E-04
CGA:  12    -0.100560809023E+04   -0.37850E-04   -0.65149E-04  2880   0.424E-03-0.275E-03
CGA:  13    -0.100560809954E+04   -0.93164E-05   -0.15511E-04  2880   0.115E-03 0.794E-04
  17 F= -.10056081E+04 E0= -.10055937E+04  d E =-.263291E-02  mag=     0.9997
       N       E                     dE             d eps       ncg     rms          ort
SDA:   1    -0.100552715688E+04    0.80933E-01    0.00000E+00  2880   0.394E+00 0.000E+00
CGA:   2    -0.100555187476E+04   -0.24718E-01   -0.25159E-01  2880   0.190E+00-0.113E-02
CGA:   3    -0.100559967279E+04   -0.47798E-01   -0.48256E-01  2880   0.530E-01-0.325E-02
CGA:   4    -0.100560250898E+04   -0.28362E-02   -0.28557E-02  2880   0.311E-01-0.551E-03
CGA:   5    -0.100560667512E+04   -0.41661E-02   -0.41207E-02  2880   0.394E-02 0.181E-02
CGA:   6    -0.100560733285E+04   -0.65773E-03   -0.70166E-03  2880   0.698E-02-0.774E-03
CGA:   7    -0.100560773825E+04   -0.40540E-03   -0.40342E-03  2880   0.122E-02-0.391E-04
CGA:   8    -0.100560779042E+04   -0.52166E-04   -0.63386E-04  2880   0.709E-03 0.180E-03
CGA:   9    -0.100560786970E+04   -0.79279E-04   -0.81339E-04  2880   0.540E-03 0.271E-03
CGA:  10    -0.100560791187E+04   -0.42172E-04   -0.44190E-04  2880   0.144E-03 0.383E-04
CGA:  11    -0.100560786860E+04    0.43271E-04   -0.33919E-04  2880   0.901E-03-0.262E-03
CGA:  12    -0.100560790638E+04   -0.37786E-04   -0.44361E-04  2880   0.423E-03 0.325E-04
CGA:  13    -0.100560797884E+04   -0.72458E-04   -0.73294E-04  2880   0.115E-03 0.498E-04
CGA:  14    -0.100560798154E+04   -0.27008E-05   -0.59712E-05  2880   0.127E-04 0.230E-04
CGA:  15    -0.100560798705E+04   -0.55114E-05    0.59031E-04  2880   0.181E-04 0.451E-05
CGA:  16    -0.100560799569E+04   -0.86381E-05    0.62553E-02  2880   0.863E-04-0.306E-04
  18 F= -.10056080E+04 E0= -.10055936E+04  d E =0.103851E-03  mag=     0.9996
       N       E                     dE             d eps       ncg     rms          ort
SDA:   1    -0.100551370229E+04    0.94285E-01    0.00000E+00  2880   0.621E+00 0.000E+00
CGA:   2    -0.100553951800E+04   -0.25816E-01   -0.40036E-01  2880   0.407E+00-0.162E+00
CGA:   3    -0.100557898242E+04   -0.39464E-01   -0.39682E-01  2880   0.352E+00 0.148E-02
CGA:   4    -0.100559933809E+04   -0.20356E-01   -0.20974E-01  2880   0.380E-01-0.807E-02
CGA:   5    -0.100560337754E+04   -0.40395E-02   -0.40186E-02  2880   0.285E-01-0.690E-03
CGA:   6    -0.100560663571E+04   -0.32582E-02   -0.32570E-02  2880   0.173E-01 0.390E-03
CGA:   7    -0.100560757067E+04   -0.93496E-03   -0.90972E-03  2880   0.398E-02-0.198E-03
CGA:   8    -0.100560796041E+04   -0.38974E-03   -0.38522E-03  2880   0.260E-02-0.109E-03
CGA:   9    -0.100560831984E+04   -0.35943E-03   -0.35968E-03  2880   0.942E-03 0.637E-04
CGA:  10    -0.100560841209E+04   -0.92247E-04   -0.88533E-04  2880   0.425E-03-0.755E-04
CGA:  11    -0.100560846757E+04   -0.55478E-04   -0.55499E-04  2880   0.215E-03 0.488E-04
CGA:  12    -0.100560848955E+04   -0.21976E-04   -0.22257E-04  2880   0.179E-03 0.384E-05
CGA:  13    -0.100560851458E+04   -0.25039E-04   -0.24792E-04  2880   0.358E-03-0.671E-04
CGA:  14    -0.100560852702E+04   -0.12437E-04   -0.13989E-04  2880   0.936E-04 0.198E-04
CGA:  15    -0.100560852782E+04   -0.79446E-06   -0.25675E-05  2880   0.191E-04 0.157E-04
  19 F= -.10056085E+04 E0= -.10055941E+04  d E =-.532125E-03  mag=     0.9997
       N       E                     dE             d eps       ncg     rms          ort
SDA:   1    -0.100545887702E+04    0.14965E+00    0.00000E+00  2880   0.485E+00 0.000E+00
CGA:   2    -0.100550605817E+04   -0.47181E-01   -0.46760E-01  2880   0.521E+00-0.688E-02
CGA:   3    -0.100559301522E+04   -0.86957E-01   -0.86829E-01  2880   0.434E-01 0.224E-02
CGA:   4    -0.100560240765E+04   -0.93924E-02   -0.93755E-02  2880   0.500E-01 0.160E-03
CGA:   5    -0.100560472251E+04   -0.23149E-02   -0.23927E-02  2880   0.715E-02-0.247E-02
CGA:   6    -0.100560532388E+04   -0.60137E-03   -0.60373E-03  2880   0.691E-02-0.653E-05
CGA:   7    -0.100560617245E+04   -0.84856E-03   -0.84816E-03  2880   0.918E-03-0.166E-03
CGA:   8    -0.100560624704E+04   -0.74594E-04   -0.77194E-04  2880   0.898E-03 0.586E-04
CGA:   9    -0.100560637791E+04   -0.13087E-03   -0.13121E-03  2880   0.743E-03-0.289E-04
CGA:  10    -0.100560640833E+04   -0.30427E-04   -0.35898E-04  2880   0.953E-04 0.743E-04
CGA:  11    -0.100560643400E+04   -0.25665E-04    0.39790E-03  2880   0.649E-04 0.710E-04
CGA:  12    -0.100560642540E+04    0.85978E-05   -0.21991E-04  2880   0.155E-02-0.141E-03
CGA:  13    -0.100560646274E+04   -0.37339E-04   -0.46162E-04  2880   0.333E-04 0.975E-04
CGA:  14    -0.100560646301E+04   -0.27573E-06   -0.13843E-05  2880   0.154E-04 0.125E-04
  20 F= -.10056065E+04 E0= -.10055920E+04  d E =0.206480E-02  mag=     0.9998
       N       E                     dE             d eps       ncg     rms          ort
SDA:   1    -0.100558850734E+04    0.17955E-01    0.00000E+00  2880   0.161E+00 0.000E+00
CGA:   2    -0.100559616569E+04   -0.76583E-02   -0.76152E-02  2880   0.291E-01 0.277E-02
CGA:   3    -0.100560452298E+04   -0.83573E-02   -0.85202E-02  2880   0.437E-01-0.979E-03
CGA:   4    -0.100560615483E+04   -0.16319E-02   -0.17077E-02  2880   0.500E-02-0.666E-03
CGA:   5    -0.100560706845E+04   -0.91362E-03   -0.88810E-03  2880   0.459E-02 0.421E-03
CGA:   6    -0.100560734587E+04   -0.27741E-03   -0.29775E-03  2880   0.647E-03 0.250E-03
CGA:   7    -0.100560746032E+04   -0.11445E-03   -0.11848E-03  2880   0.143E-02-0.779E-04
CGA:   8    -0.100560754569E+04   -0.85373E-04   -0.72822E-04  2880   0.178E-03-0.200E-03
CGA:   9    -0.100560755598E+04   -0.10287E-04   -0.12698E-04  2880   0.154E-03 0.649E-04
CGA:  10    -0.100560756157E+04   -0.55887E-05   -0.11579E-04  2880   0.526E-04 0.953E-04
  21 F= -.10056076E+04 E0= -.10055931E+04  d E =-.109855E-02  mag=     0.9997
       N       E                     dE             d eps       ncg     rms          ort
SDA:   1    -0.100559950576E+04    0.80502E-02    0.00000E+00  2880   0.183E+00 0.000E+00
CGA:   2    -0.100560536993E+04   -0.58642E-02   -0.68559E-02  2880   0.132E-01-0.237E-01
CGA:   3    -0.100560603310E+04   -0.66316E-03   -0.67887E-03  2880   0.592E-02 0.700E-04
CGA:   4    -0.100560727881E+04   -0.12457E-02   -0.12552E-02  2880   0.540E-02-0.114E-03
CGA:   5    -0.100560760342E+04   -0.32461E-03   -0.32435E-03  2880   0.711E-03-0.403E-04
CGA:   6    -0.100560767007E+04   -0.66654E-04   -0.65997E-04  2880   0.870E-03-0.369E-04
CGA:   7    -0.100560773638E+04   -0.66308E-04   -0.70857E-04  2880   0.868E-04 0.167E-03
CGA:   8    -0.100560774818E+04   -0.11793E-04   -0.11853E-04  2880   0.163E-03-0.204E-04
CGA:   9    -0.100560776373E+04   -0.15558E-04   -0.16811E-04  2880   0.206E-03-0.536E-04
CGA:  10    -0.100560776533E+04   -0.15933E-05   -0.35987E-05  2880   0.691E-04 0.224E-04
  22 F= -.10056078E+04 E0= -.10055933E+04  d E =-.203761E-03  mag=     0.9997
