       N       E                     dE             d eps       ncg     rms          rms(c)
DAV:   1     0.308204322096E+04    0.30820E+04   -0.25840E+05 73084   0.132E+03
DAV:   2    -0.603578998745E+03   -0.36856E+04   -0.35565E+04 87722   0.300E+02
DAV:   3    -0.871647424317E+03   -0.26807E+03   -0.26590E+03 88568   0.852E+01
DAV:   4    -0.875146383303E+03   -0.34990E+01   -0.34855E+01 87752   0.104E+01
DAV:   5    -0.875210973603E+03   -0.64590E-01   -0.64430E-01 89800   0.129E+00    0.988E+01
DAV:   6    -0.782359200314E+03    0.92852E+02   -0.39677E+02 82355   0.317E+01    0.509E+01
DAV:   7    -0.790892573163E+03   -0.85334E+01   -0.24138E+01 83376   0.828E+00    0.174E+01
DAV:   8    -0.795011536091E+03   -0.41190E+01   -0.15662E+01 97456   0.502E+00    0.984E+00
DAV:   9    -0.796541119402E+03   -0.15296E+01   -0.44851E+00 92704   0.329E+00    0.718E+00
DAV:  10    -0.796909498649E+03   -0.36838E+00   -0.55792E+00 98168   0.269E+00    0.467E+00
DAV:  11    -0.797742977702E+03   -0.83348E+00   -0.34600E+00 90648   0.234E+00    0.442E+00
DAV:  12    -0.797866622948E+03   -0.12365E+00   -0.20894E+00 92872   0.139E+00    0.526E+00
DAV:  13    -0.797731988692E+03    0.13463E+00   -0.13523E-01 88416   0.806E-01    0.389E+00
DAV:  14    -0.797709361278E+03    0.22627E-01   -0.13116E+00105336   0.143E+00    0.349E+00
DAV:  15    -0.797718547114E+03   -0.91858E-02   -0.26701E-01 83472   0.715E-01    0.229E+00
DAV:  16    -0.797728586214E+03   -0.10039E-01   -0.70605E-02 87720   0.405E-01    0.262E+00
DAV:  17    -0.797726960881E+03    0.16253E-02   -0.42410E-02 98936   0.351E-01    0.272E+00
DAV:  18    -0.797711137416E+03    0.15823E-01   -0.26198E-01107608   0.526E-01    0.143E+00
DAV:  19    -0.797719572190E+03   -0.84348E-02   -0.29672E-02 77080   0.244E-01    0.130E+00
DAV:  20    -0.797718859025E+03    0.71317E-03   -0.82506E-04 81792   0.664E-02    0.132E+00
DAV:  21    -0.797718351111E+03    0.50791E-03   -0.26325E-04 89768   0.384E-02    0.127E+00
DAV:  22    -0.797718646067E+03   -0.29496E-03   -0.55000E-03 96712   0.152E-01    0.100E+00
DAV:  23    -0.797720013471E+03   -0.13674E-02   -0.85756E-03 92656   0.249E-01    0.495E-01
DAV:  24    -0.797720622514E+03   -0.60904E-03   -0.41046E-03 86424   0.124E-01    0.343E-01
DAV:  25    -0.797720908323E+03   -0.28581E-03   -0.44907E-04 79080   0.464E-02    0.315E-01
DAV:  26    -0.797720863252E+03    0.45071E-04   -0.42471E-04 88224   0.379E-02    0.285E-01
DAV:  27    -0.797720711076E+03    0.15218E-03   -0.64943E-04 81920   0.525E-02    0.179E-01
DAV:  28    -0.797720694218E+03    0.16858E-04   -0.89959E-04 87288   0.433E-02    0.509E-02
DAV:  29    -0.797720739591E+03   -0.45373E-04   -0.12153E-04 79704   0.269E-02    0.471E-02
DAV:  30    -0.797720747431E+03   -0.78401E-05   -0.47731E-05 74336   0.127E-02
   1 F= -.79772075E+03 E0= -.79770413E+03  d E =-.797721E+03  mag=     0.9987
       N       E                     dE             d eps       ncg     rms          rms(c)
DAV:   1    -0.797720788208E+03   -0.48616E-04   -0.11319E-02 74360   0.191E-01    0.226E-01
DAV:   2    -0.797721822335E+03   -0.10341E-02   -0.17713E-02117592   0.173E-01    0.840E-01
DAV:   3    -0.797720551345E+03    0.12710E-02   -0.76879E-03111320   0.126E-01    0.106E-01
DAV:   4    -0.797720686468E+03   -0.13512E-03   -0.79116E-04 83776   0.396E-02    0.766E-02
DAV:   5    -0.797720698384E+03   -0.11916E-04   -0.11668E-04 81272   0.194E-02    0.609E-02
DAV:   6    -0.797720688890E+03    0.94939E-05   -0.85394E-05 55816   0.121E-02
   2 F= -.79772069E+03 E0= -.79770408E+03  d E =0.585414E-04  mag=     0.9986
       N       E                     dE             d eps       ncg     rms          rms(c)
DAV:   1    -0.797720815576E+03   -0.11719E-03   -0.56131E-03 74031   0.132E-01    0.164E-01
DAV:   2    -0.797721400802E+03   -0.58523E-03   -0.99201E-03118872   0.127E-01    0.625E-01
DAV:   3    -0.797720684516E+03    0.71629E-03   -0.41014E-03113896   0.930E-02    0.855E-02
DAV:   4    -0.797720752790E+03   -0.68274E-04   -0.45616E-04 83784   0.285E-02    0.517E-02
DAV:   5    -0.797720766462E+03   -0.13672E-04   -0.54542E-05 67248   0.133E-02    0.565E-02
DAV:   6    -0.797720758190E+03    0.82721E-05   -0.12939E-04 49560   0.930E-03    0.232E-02
DAV:   7    -0.797720758878E+03   -0.68782E-06   -0.74920E-06 47072   0.486E-03
   3 F= -.79772076E+03 E0= -.79770414E+03  d E =-.114462E-04  mag=     0.9986
