       N       E                     dE             d eps       ncg     rms          rms(c)
DAV:   1     0.307297580841E+04    0.30730E+04   -0.25843E+05 73644   0.131E+03
DAV:   2    -0.611385396874E+03   -0.36844E+04   -0.35511E+04 89796   0.297E+02
DAV:   3    -0.872462811250E+03   -0.26108E+03   -0.25941E+03 89124   0.837E+01
DAV:   4    -0.875725799310E+03   -0.32630E+01   -0.32509E+01 89316   0.101E+01
DAV:   5    -0.875780950571E+03   -0.55151E-01   -0.55016E-01 90948   0.121E+00    0.991E+01
DAV:   6    -0.779918390145E+03    0.95863E+02   -0.40433E+02 83244   0.319E+01    0.502E+01
DAV:   7    -0.789247675293E+03   -0.93293E+01   -0.21977E+01 82980   0.767E+00    0.163E+01
DAV:   8    -0.793627525591E+03   -0.43799E+01   -0.19665E+00 86220   0.257E+00    0.779E+00
DAV:   9    -0.795747315663E+03   -0.21198E+01   -0.95110E-01 86748   0.166E+00    0.385E+00
DAV:  10    -0.796264008563E+03   -0.51669E+00   -0.28860E-01 86304   0.931E-01    0.111E+00
DAV:  11    -0.796335548934E+03   -0.71540E-01   -0.41441E-02 85860   0.364E-01    0.615E-01
DAV:  12    -0.796345159824E+03   -0.96109E-02   -0.49989E-03 86628   0.137E-01    0.279E-01
DAV:  13    -0.796347543531E+03   -0.23837E-02   -0.12948E-03 85656   0.667E-02    0.885E-02
DAV:  14    -0.796348020894E+03   -0.47736E-03   -0.32064E-04 84852   0.324E-02    0.430E-02
DAV:  15    -0.796348059611E+03   -0.38718E-04   -0.35337E-05 79524   0.152E-02    0.283E-02
DAV:  16    -0.796348077153E+03   -0.17542E-04   -0.14978E-05 59352   0.979E-03    0.127E-02
DAV:  17    -0.796348081807E+03   -0.46542E-05   -0.61998E-06 59520   0.679E-03
   1 F= -.79634808E+03 E0= -.79634808E+03  d E =-.796348E+03  mag=    -0.0015
