       N       E                     dE             d eps       ncg     rms          rms(c)
DAV:   1     0.103578420600E+05    0.10358E+05   -0.37726E+05 32000   0.141E+03
DAV:   2     0.518284573778E+03   -0.98396E+04   -0.92887E+04 31380   0.452E+02
DAV:   3    -0.855220356708E+03   -0.13735E+04   -0.12717E+04 34820   0.172E+02
DAV:   4    -0.938926176912E+03   -0.83706E+02   -0.81371E+02 39210   0.445E+01
DAV:   5    -0.941426073386E+03   -0.24999E+01   -0.24922E+01 38340   0.835E+00    0.188E+02
DAV:   6    -0.422738208564E+03    0.51869E+03   -0.12108E+03 38750   0.765E+01    0.894E+01
DAV:   7    -0.655956670083E+03   -0.23322E+03   -0.38146E+02 39750   0.569E+01    0.738E+01
DAV:   8    -0.687611225971E+03   -0.31655E+02   -0.48566E+01 41270   0.176E+01    0.495E+01
DAV:   9    -0.737029252554E+03   -0.49418E+02   -0.42701E+01 39310   0.132E+01    0.295E+01
DAV:  10    -0.780520533294E+03   -0.43491E+02   -0.50374E+01 39820   0.155E+01    0.280E+01
DAV:  11    -0.790882922547E+03   -0.10362E+02   -0.16974E+01 39600   0.955E+00    0.141E+01
DAV:  12    -0.793708187418E+03   -0.28253E+01   -0.52822E+00 39440   0.666E+00    0.954E+00
DAV:  13    -0.794538080883E+03   -0.82989E+00   -0.15310E+00 37470   0.364E+00    0.621E+00
DAV:  14    -0.794981052591E+03   -0.44297E+00   -0.53112E-01 37960   0.203E+00    0.407E+00
DAV:  15    -0.795229470627E+03   -0.24842E+00   -0.27986E-01 38330   0.145E+00    0.221E+00
DAV:  16    -0.795292025085E+03   -0.62554E-01   -0.11804E-01 37030   0.102E+00    0.129E+00
DAV:  17    -0.795309771271E+03   -0.17746E-01   -0.36449E-02 34510   0.560E-01    0.945E-01
DAV:  18    -0.795318246339E+03   -0.84751E-02   -0.85990E-03 35680   0.296E-01    0.757E-01
DAV:  19    -0.795331065666E+03   -0.12819E-01   -0.76848E-03 42440   0.269E-01    0.578E-01
DAV:  20    -0.795339750347E+03   -0.86847E-02   -0.69716E-03 39540   0.233E-01    0.469E-01
DAV:  21    -0.795343771013E+03   -0.40207E-02   -0.41080E-03 38970   0.151E-01    0.403E-01
DAV:  22    -0.795347404531E+03   -0.36335E-02   -0.17844E-03 41160   0.124E-01    0.347E-01
DAV:  23    -0.795353549072E+03   -0.61445E-02   -0.52420E-03 44000   0.217E-01    0.281E-01
DAV:  24    -0.795358407198E+03   -0.48581E-02   -0.88968E-03 42790   0.245E-01    0.246E-01
DAV:  25    -0.795361236938E+03   -0.28297E-02   -0.43969E-03 40660   0.151E-01    0.195E-01
DAV:  26    -0.795362633662E+03   -0.13967E-02   -0.15428E-03 38610   0.891E-02    0.159E-01
DAV:  27    -0.795363538745E+03   -0.90508E-03   -0.96656E-04 41000   0.786E-02    0.118E-01
DAV:  28    -0.795364211652E+03   -0.67291E-03   -0.13658E-03 42260   0.100E-01    0.904E-02
DAV:  29    -0.795364678038E+03   -0.46639E-03   -0.10115E-03 38660   0.597E-02    0.750E-02
DAV:  30    -0.795364841127E+03   -0.16309E-03   -0.15141E-04 31000   0.256E-02    0.605E-02
DAV:  31    -0.795364966555E+03   -0.12543E-03   -0.77515E-05 34970   0.266E-02    0.503E-02
DAV:  32    -0.795365097219E+03   -0.13066E-03   -0.20637E-04 40470   0.399E-02    0.435E-02
DAV:  33    -0.795365193041E+03   -0.95822E-04   -0.18903E-04 36350   0.309E-02    0.385E-02
DAV:  34    -0.795365252813E+03   -0.59772E-04   -0.87957E-05 33590   0.232E-02    0.304E-02
DAV:  35    -0.795365300243E+03   -0.47430E-04   -0.94236E-05 35040   0.243E-02    0.234E-02
DAV:  36    -0.795365336185E+03   -0.35942E-04   -0.88248E-05 32760   0.222E-02    0.190E-02
DAV:  37    -0.795365355463E+03   -0.19278E-04   -0.37425E-05 22770   0.121E-02    0.145E-02
DAV:  38    -0.795365359850E+03   -0.43866E-05   -0.49855E-06 17580   0.526E-03
   1 F= -.79536536E+03 E0= -.79536536E+03  d E =-.795365E+03  mag=    47.0001
       N       E                     dE             d eps       ncg     rms          rms(c)
DAV:   1    -0.795378558894E+03   -0.13203E-01   -0.25593E-02 34750   0.385E-01    0.441E-02
DAV:   2    -0.795378700833E+03   -0.14194E-03   -0.14164E-03 33700   0.803E-02    0.660E-02
DAV:   3    -0.795378697976E+03    0.28567E-05   -0.52430E-05 31990   0.232E-02    0.339E-02
DAV:   4    -0.795378698916E+03   -0.93998E-06   -0.57649E-06 17310   0.715E-03
   2 F= -.79537870E+03 E0= -.79537870E+03  d E =-.133391E-01  mag=    47.0000
       N       E                     dE             d eps       ncg     rms          rms(c)
DAV:   1    -0.795437211813E+03   -0.58514E-01   -0.11258E+02 34160   0.255E+01    0.286E+00
DAV:   2    -0.796045903616E+03   -0.60869E+00   -0.62194E+00 33800   0.532E+00    0.419E+00
DAV:   3    -0.796037265759E+03    0.86379E-02   -0.22860E-01 37480   0.146E+00    0.229E+00
DAV:   4    -0.796035569774E+03    0.16960E-02   -0.24075E-02 38480   0.437E-01    0.200E+00
DAV:   5    -0.796030179723E+03    0.53901E-02   -0.34057E-02 41750   0.555E-01    0.675E-01
DAV:   6    -0.796031113906E+03   -0.93418E-03   -0.87660E-03 42020   0.263E-01    0.307E-01
DAV:   7    -0.796031354359E+03   -0.24045E-03   -0.27243E-03 40670   0.129E-01    0.224E-01
DAV:   8    -0.796031601017E+03   -0.24666E-03   -0.37562E-04 39530   0.670E-02    0.156E-01
DAV:   9    -0.796031922415E+03   -0.32140E-03   -0.31148E-04 43140   0.552E-02    0.110E-01
DAV:  10    -0.796032172271E+03   -0.24986E-03   -0.27978E-04 40000   0.414E-02    0.901E-02
DAV:  11    -0.796032337963E+03   -0.16569E-03   -0.13831E-04 37270   0.276E-02    0.798E-02
DAV:  12    -0.796032565048E+03   -0.22708E-03   -0.14300E-04 38510   0.364E-02    0.670E-02
DAV:  13    -0.796032804188E+03   -0.23914E-03   -0.39495E-04 42670   0.581E-02    0.523E-02
DAV:  14    -0.796032944277E+03   -0.14009E-03   -0.34463E-04 41110   0.407E-02    0.419E-02
DAV:  15    -0.796033012173E+03   -0.67897E-04   -0.10666E-04 33870   0.253E-02    0.311E-02
DAV:  16    -0.796033048777E+03   -0.36604E-04   -0.75497E-05 28230   0.174E-02    0.214E-02
DAV:  17    -0.796033068562E+03   -0.19785E-04   -0.28659E-05 25810   0.125E-02    0.162E-02
DAV:  18    -0.796033078817E+03   -0.10255E-04   -0.16936E-05 22180   0.895E-03    0.125E-02
DAV:  19    -0.796033084510E+03   -0.56934E-05   -0.67139E-06 18270   0.629E-03
   3 F= -.79603308E+03 E0= -.79603308E+03  d E =-.654386E+00  mag=    47.0000
       N       E                     dE             d eps       ncg     rms          rms(c)
DAV:   1    -0.795708714571E+03    0.32436E+00   -0.14242E+02 33930   0.260E+01    0.302E+00
DAV:   2    -0.796356233915E+03   -0.64752E+00   -0.66579E+00 33840   0.557E+00    0.463E+00
DAV:   3    -0.796342422384E+03    0.13812E-01   -0.21543E-01 34830   0.144E+00    0.268E+00
DAV:   4    -0.796337040560E+03    0.53818E-02   -0.22662E-02 39080   0.414E-01    0.228E+00
DAV:   5    -0.796330118841E+03    0.69217E-02   -0.32084E-02 42240   0.509E-01    0.807E-01
DAV:   6    -0.796330967617E+03   -0.84878E-03   -0.95760E-03 42170   0.265E-01    0.354E-01
DAV:   7    -0.796331031058E+03   -0.63440E-04   -0.16353E-03 38600   0.116E-01    0.269E-01
DAV:   8    -0.796331236371E+03   -0.20531E-03   -0.39724E-04 40250   0.668E-02    0.179E-01
DAV:   9    -0.796331547509E+03   -0.31114E-03   -0.48239E-04 41890   0.625E-02    0.106E-01
DAV:  10    -0.796331743943E+03   -0.19643E-03   -0.29811E-04 39900   0.372E-02    0.921E-02
DAV:  11    -0.796331948244E+03   -0.20430E-03   -0.95685E-05 38410   0.292E-02    0.807E-02
DAV:  12    -0.796332233906E+03   -0.28566E-03   -0.27188E-04 41980   0.483E-02    0.637E-02
DAV:  13    -0.796332450450E+03   -0.21654E-03   -0.44347E-04 42740   0.569E-02    0.541E-02
DAV:  14    -0.796332570941E+03   -0.12049E-03   -0.26646E-04 39520   0.376E-02    0.404E-02
DAV:  15    -0.796332625915E+03   -0.54974E-04   -0.96890E-05 31510   0.206E-02    0.314E-02
DAV:  16    -0.796332650990E+03   -0.25075E-04   -0.35702E-05 24360   0.121E-02    0.219E-02
DAV:  17    -0.796332665600E+03   -0.14611E-04   -0.16727E-05 23260   0.106E-02    0.160E-02
DAV:  18    -0.796332674514E+03   -0.89140E-05   -0.14537E-05 22230   0.905E-03
   4 F= -.79633267E+03 E0= -.79633267E+03  d E =-.299590E+00  mag=    47.0000
       N       E                     dE             d eps       ncg     rms          rms(c)
DAV:   1    -0.796245419532E+03    0.87246E-01   -0.19418E+01 34670   0.118E+01    0.134E+00
DAV:   2    -0.796384104684E+03   -0.13869E+00   -0.14115E+00 33300   0.228E+00    0.119E+00
DAV:   3    -0.796388026213E+03   -0.39215E-02   -0.34364E-02 38270   0.526E-01    0.612E-01
DAV:   4    -0.796387567262E+03    0.45895E-03   -0.37158E-03 44290   0.206E-01    0.538E-01
DAV:   5    -0.796387322624E+03    0.24464E-03   -0.33603E-03 41750   0.163E-01    0.159E-01
DAV:   6    -0.796387565682E+03   -0.24306E-03   -0.83622E-04 38150   0.712E-02    0.936E-02
DAV:   7    -0.796387614447E+03   -0.48765E-04   -0.13611E-04 37850   0.301E-02    0.702E-02
DAV:   8    -0.796387671953E+03   -0.57506E-04   -0.37876E-05 30530   0.217E-02    0.558E-02
DAV:   9    -0.796387739218E+03   -0.67265E-04   -0.60173E-05 35040   0.224E-02    0.438E-02
DAV:  10    -0.796387785985E+03   -0.46767E-04   -0.42955E-05 25920   0.158E-02    0.383E-02
DAV:  11    -0.796387836302E+03   -0.50317E-04   -0.34514E-05 29870   0.165E-02    0.323E-02
DAV:  12    -0.796387892621E+03   -0.56320E-04   -0.85984E-05 36100   0.272E-02    0.231E-02
DAV:  13    -0.796387925921E+03   -0.33299E-04   -0.11043E-04 35670   0.250E-02    0.179E-02
DAV:  14    -0.796387943676E+03   -0.17755E-04   -0.37599E-05 24090   0.121E-02    0.131E-02
DAV:  15    -0.796387948599E+03   -0.49226E-05   -0.63571E-06 18300   0.540E-03
   5 F= -.79638795E+03 E0= -.79638795E+03  d E =-.552741E-01  mag=    47.0000
       N       E                     dE             d eps       ncg     rms          rms(c)
DAV:   1    -0.796211640957E+03    0.17630E+00   -0.31330E+01 34180   0.144E+01    0.157E+00
DAV:   2    -0.796409831086E+03   -0.19819E+00   -0.20447E+00 33210   0.273E+00    0.122E+00
DAV:   3    -0.796416157714E+03   -0.63266E-02   -0.49445E-02 38590   0.595E-01    0.659E-01
DAV:   4    -0.796415190273E+03    0.96744E-03   -0.54194E-03 43780   0.259E-01    0.561E-01
DAV:   5    -0.796414831815E+03    0.35846E-03   -0.46757E-03 42300   0.201E-01    0.190E-01
DAV:   6    -0.796415230313E+03   -0.39850E-03   -0.13522E-03 39570   0.985E-02    0.123E-01
DAV:   7    -0.796415315846E+03   -0.85533E-04   -0.24233E-04 39540   0.417E-02    0.888E-02
DAV:   8    -0.796415426158E+03   -0.11031E-03   -0.73416E-05 36090   0.279E-02    0.729E-02
DAV:   9    -0.796415560474E+03   -0.13432E-03   -0.10363E-04 38590   0.296E-02    0.589E-02
DAV:  10    -0.796415645797E+03   -0.85323E-04   -0.77163E-05 31140   0.212E-02    0.519E-02
DAV:  11    -0.796415746496E+03   -0.10070E-03   -0.71333E-05 34460   0.244E-02    0.429E-02
DAV:  12    -0.796415855198E+03   -0.10870E-03   -0.19862E-04 40470   0.421E-02    0.311E-02
DAV:  13    -0.796415917101E+03   -0.61904E-04   -0.19002E-04 36550   0.320E-02    0.243E-02
DAV:  14    -0.796415946767E+03   -0.29665E-04   -0.57898E-05 27520   0.153E-02    0.170E-02
DAV:  15    -0.796415956204E+03   -0.94372E-05   -0.12743E-05 19400   0.707E-03
   6 F= -.79641596E+03 E0= -.79641596E+03  d E =-.280076E-01  mag=    47.0000
       N       E                     dE             d eps       ncg     rms          rms(c)
DAV:   1    -0.796149796501E+03    0.26615E+00   -0.42371E+01 34170   0.163E+01    0.180E+00
DAV:   2    -0.796406840848E+03   -0.25704E+00   -0.26373E+00 33020   0.301E+00    0.110E+00
DAV:   3    -0.796416042865E+03   -0.92020E-02   -0.52484E-02 38980   0.533E-01    0.637E-01
DAV:   4    -0.796414715611E+03    0.13273E-02   -0.54453E-03 44230   0.216E-01    0.470E-01
DAV:   5    -0.796414977753E+03   -0.26214E-03   -0.40543E-03 41240   0.182E-01    0.177E-01
DAV:   6    -0.796415358127E+03   -0.38037E-03   -0.13000E-03 40000   0.104E-01    0.131E-01
DAV:   7    -0.796415469885E+03   -0.11176E-03   -0.22646E-04 39500   0.461E-02    0.976E-02
DAV:   8    -0.796415655108E+03   -0.18522E-03   -0.12357E-04 38010   0.335E-02    0.796E-02
DAV:   9    -0.796415839774E+03   -0.18467E-03   -0.14283E-04 38200   0.317E-02    0.678E-02
DAV:  10    -0.796415949715E+03   -0.10994E-03   -0.86540E-05 32290   0.222E-02    0.602E-02
DAV:  11    -0.796416108034E+03   -0.15832E-03   -0.12756E-04 39200   0.342E-02    0.483E-02
DAV:  12    -0.796416250596E+03   -0.14256E-03   -0.33371E-04 42920   0.530E-02    0.345E-02
DAV:  13    -0.796416331603E+03   -0.81007E-04   -0.24400E-04 39390   0.343E-02    0.273E-02
DAV:  14    -0.796416365120E+03   -0.33517E-04   -0.55820E-05 26930   0.150E-02    0.198E-02
DAV:  15    -0.796416375991E+03   -0.10870E-04   -0.13594E-05 19420   0.734E-03    0.168E-02
DAV:  16    -0.796416384711E+03   -0.87204E-05   -0.43459E-06 17280   0.672E-03
   7 F= -.79641638E+03 E0= -.79641638E+03  d E =-.428507E-03  mag=    47.0000
       N       E                     dE             d eps       ncg     rms          rms(c)
DAV:   1    -0.795976148328E+03    0.44023E+00   -0.57534E+01 34410   0.205E+01    0.230E+00
DAV:   2    -0.796402557210E+03   -0.42641E+00   -0.43873E+00 33200   0.387E+00    0.159E+00
DAV:   3    -0.796420142032E+03   -0.17585E-01   -0.10663E-01 38390   0.849E-01    0.848E-01
DAV:   4    -0.796418661016E+03    0.14810E-02   -0.10530E-02 43560   0.345E-01    0.674E-01
DAV:   5    -0.796418444654E+03    0.21636E-03   -0.77258E-03 40680   0.259E-01    0.250E-01
DAV:   6    -0.796419196061E+03   -0.75141E-03   -0.21575E-03 39670   0.128E-01    0.164E-01
DAV:   7    -0.796419375024E+03   -0.17896E-03   -0.50404E-04 39650   0.601E-02    0.120E-01
DAV:   8    -0.796419589983E+03   -0.21496E-03   -0.14426E-04 39110   0.388E-02    0.982E-02
DAV:   9    -0.796419830322E+03   -0.24034E-03   -0.17125E-04 40240   0.381E-02    0.817E-02
DAV:  10    -0.796419994793E+03   -0.16447E-03   -0.14333E-04 34240   0.297E-02    0.717E-02
DAV:  11    -0.796420177283E+03   -0.18249E-03   -0.14009E-04 38630   0.337E-02    0.592E-02
DAV:  12    -0.796420382861E+03   -0.20558E-03   -0.38844E-04 43410   0.601E-02    0.426E-02
DAV:  13    -0.796420495470E+03   -0.11261E-03   -0.34953E-04 40730   0.417E-02    0.331E-02
DAV:  14    -0.796420544229E+03   -0.48759E-04   -0.91399E-05 31480   0.206E-02    0.228E-02
DAV:  15    -0.796420562559E+03   -0.18330E-04   -0.29417E-05 21910   0.103E-02    0.191E-02
DAV:  16    -0.796420572166E+03   -0.96067E-05   -0.47998E-06 18160   0.659E-03
   8 F= -.79642057E+03 E0= -.79642057E+03  d E =-.418745E-02  mag=    47.0000
       N       E                     dE             d eps       ncg     rms          rms(c)
DAV:   1    -0.796191720754E+03    0.22884E+00   -0.35446E+01 34280   0.165E+01    0.185E+00
DAV:   2    -0.796464954010E+03   -0.27323E+00   -0.28506E+00 33300   0.325E+00    0.148E+00
DAV:   3    -0.796476183367E+03   -0.11229E-01   -0.83329E-02 39870   0.770E-01    0.771E-01
DAV:   4    -0.796475021847E+03    0.11615E-02   -0.81286E-03 43740   0.305E-01    0.642E-01
DAV:   5    -0.796474815116E+03    0.20673E-03   -0.71330E-03 40310   0.236E-01    0.235E-01
DAV:   6    -0.796475256840E+03   -0.44172E-03   -0.17218E-03 39590   0.119E-01    0.153E-01
DAV:   7    -0.796475408506E+03   -0.15167E-03   -0.60493E-04 40290   0.583E-02    0.110E-01
DAV:   8    -0.796475566742E+03   -0.15824E-03   -0.10712E-04 37790   0.339E-02    0.916E-02
DAV:   9    -0.796475772070E+03   -0.20533E-03   -0.14276E-04 40790   0.356E-02    0.754E-02
DAV:  10    -0.796475926056E+03   -0.15399E-03   -0.13146E-04 34830   0.298E-02    0.664E-02
DAV:  11    -0.796476067968E+03   -0.14191E-03   -0.11508E-04 37990   0.288E-02    0.550E-02
DAV:  12    -0.796476238350E+03   -0.17038E-03   -0.30714E-04 43460   0.524E-02    0.401E-02
DAV:  13    -0.796476327776E+03   -0.89425E-04   -0.29258E-04 39950   0.391E-02    0.293E-02
DAV:  14    -0.796476366659E+03   -0.38883E-04   -0.83900E-05 32210   0.204E-02    0.191E-02
DAV:  15    -0.796476381197E+03   -0.14538E-04   -0.29270E-05 20920   0.992E-03    0.151E-02
DAV:  16    -0.796476385594E+03   -0.43975E-05   -0.29518E-06 16800   0.456E-03
   9 F= -.79647639E+03 E0= -.79647639E+03  d E =-.558134E-01  mag=    47.0000
       N       E                     dE             d eps       ncg     rms          rms(c)
DAV:   1    -0.795855584846E+03    0.62080E+00   -0.82555E+01 34600   0.251E+01    0.289E+00
DAV:   2    -0.796496177458E+03   -0.64059E+00   -0.66232E+00 33280   0.488E+00    0.222E+00
DAV:   3    -0.796523221855E+03   -0.27044E-01   -0.18181E-01 37840   0.114E+00    0.117E+00
DAV:   4    -0.796520810383E+03    0.24115E-02   -0.17989E-02 43570   0.451E-01    0.960E-01
DAV:   5    -0.796520319928E+03    0.49045E-03   -0.14697E-02 41240   0.354E-01    0.353E-01
DAV:   6    -0.796521541766E+03   -0.12218E-02   -0.38904E-03 39600   0.175E-01    0.225E-01
DAV:   7    -0.796521940274E+03   -0.39851E-03   -0.10932E-03 39410   0.831E-02    0.169E-01
DAV:   8    -0.796522335127E+03   -0.39485E-03   -0.26516E-04 39950   0.532E-02    0.141E-01
DAV:   9    -0.796522857134E+03   -0.52201E-03   -0.37483E-04 41190   0.566E-02    0.115E-01
DAV:  10    -0.796523233771E+03   -0.37664E-03   -0.34641E-04 39860   0.459E-02    0.100E-01
DAV:  11    -0.796523584206E+03   -0.35043E-03   -0.26951E-04 41950   0.461E-02    0.826E-02
DAV:  12    -0.796523962318E+03   -0.37811E-03   -0.71296E-04 43440   0.780E-02    0.565E-02
DAV:  13    -0.796524157839E+03   -0.19552E-03   -0.64159E-04 42030   0.573E-02    0.447E-02
DAV:  14    -0.796524241574E+03   -0.83735E-04   -0.18056E-04 36230   0.265E-02    0.283E-02
DAV:  15    -0.796524266182E+03   -0.24608E-04   -0.34742E-05 22780   0.112E-02    0.240E-02
DAV:  16    -0.796524279907E+03   -0.13725E-04   -0.51924E-06 17860   0.745E-03    0.195E-02
DAV:  17    -0.796524296926E+03   -0.17019E-04   -0.27531E-05 27520   0.181E-02    0.162E-02
DAV:  18    -0.796524306767E+03   -0.98413E-05   -0.38936E-05 21990   0.102E-02
  10 F= -.79652431E+03 E0= -.79652431E+03  d E =-.479212E-01  mag=    47.0000
       N       E                     dE             d eps       ncg     rms          rms(c)
DAV:   1    -0.796360880249E+03    0.16342E+00   -0.24750E+01 34670   0.139E+01    0.158E+00
DAV:   2    -0.796546721485E+03   -0.18584E+00   -0.19129E+00 33280   0.258E+00    0.982E-01
DAV:   3    -0.796556260785E+03   -0.95393E-02   -0.47160E-02 38000   0.521E-01    0.555E-01
DAV:   4    -0.796555518581E+03    0.74220E-03   -0.40796E-03 43970   0.192E-01    0.401E-01
DAV:   5    -0.796555600131E+03   -0.81550E-04   -0.32349E-03 41410   0.164E-01    0.162E-01
DAV:   6    -0.796555868835E+03   -0.26870E-03   -0.89011E-04 40230   0.913E-02    0.109E-01
DAV:   7    -0.796555956392E+03   -0.87557E-04   -0.25584E-04 39570   0.418E-02    0.809E-02
DAV:   8    -0.796556057267E+03   -0.10087E-03   -0.66912E-05 34160   0.260E-02    0.667E-02
DAV:   9    -0.796556172077E+03   -0.11481E-03   -0.83821E-05 36570   0.258E-02    0.547E-02
DAV:  10    -0.796556253492E+03   -0.81415E-04   -0.71568E-05 30110   0.208E-02    0.474E-02
DAV:  11    -0.796556327944E+03   -0.74452E-04   -0.58673E-05 34020   0.217E-02    0.389E-02
DAV:  12    -0.796556412787E+03   -0.84843E-04   -0.16135E-04 39390   0.385E-02    0.256E-02
DAV:  13    -0.796556456710E+03   -0.43923E-04   -0.13948E-04 35900   0.265E-02    0.210E-02
DAV:  14    -0.796556474445E+03   -0.17735E-04   -0.32369E-05 21300   0.120E-02    0.136E-02
DAV:  15    -0.796556480331E+03   -0.58857E-05   -0.92720E-06 18920   0.634E-03
  11 F= -.79655648E+03 E0= -.79655648E+03  d E =-.321736E-01  mag=    47.0000
       N       E                     dE             d eps       ncg     rms          rms(c)
DAV:   1    -0.796495025957E+03    0.61448E-01   -0.10758E+01 34500   0.930E+00    0.105E+00
DAV:   2    -0.796580473418E+03   -0.85447E-01   -0.88130E-01 33370   0.180E+00    0.801E-01
DAV:   3    -0.796583791102E+03   -0.33177E-02   -0.23446E-02 38760   0.411E-01    0.431E-01
DAV:   4    -0.796583471612E+03    0.31949E-03   -0.23143E-03 43390   0.163E-01    0.354E-01
DAV:   5    -0.796583410402E+03    0.61210E-04   -0.20469E-03 41720   0.130E-01    0.127E-01
DAV:   6    -0.796583567089E+03   -0.15669E-03   -0.53240E-04 39720   0.659E-02    0.821E-02
DAV:   7    -0.796583614478E+03   -0.47389E-04   -0.14023E-04 38300   0.300E-02    0.613E-02
DAV:   8    -0.796583669168E+03   -0.54690E-04   -0.33536E-05 27930   0.190E-02    0.519E-02
DAV:   9    -0.796583740199E+03   -0.71032E-04   -0.56187E-05 35160   0.218E-02    0.415E-02
DAV:  10    -0.796583788343E+03   -0.48144E-04   -0.47250E-05 26390   0.175E-02    0.359E-02
DAV:  11    -0.796583834054E+03   -0.45711E-04   -0.39071E-05 32650   0.182E-02    0.292E-02
DAV:  12    -0.796583879140E+03   -0.45086E-04   -0.92120E-05 36200   0.273E-02    0.191E-02
DAV:  13    -0.796583903022E+03   -0.23882E-04   -0.83130E-05 32610   0.203E-02    0.161E-02
DAV:  14    -0.796583913176E+03   -0.10154E-04   -0.23346E-05 20190   0.894E-03    0.108E-02
DAV:  15    -0.796583915303E+03   -0.21275E-05   -0.28912E-06 16620   0.415E-03
  12 F= -.79658392E+03 E0= -.79658392E+03  d E =-.274350E-01  mag=    47.0000
       N       E                     dE             d eps       ncg     rms          rms(c)
DAV:   1    -0.796342594808E+03    0.24132E+00   -0.38921E+01 33830   0.165E+01    0.184E+00
DAV:   2    -0.796613472489E+03   -0.27088E+00   -0.27756E+00 33240   0.317E+00    0.129E+00
DAV:   3    -0.796623313969E+03   -0.98415E-02   -0.66377E-02 38890   0.670E-01    0.722E-01
DAV:   4    -0.796622350089E+03    0.96388E-03   -0.65628E-03 43310   0.270E-01    0.571E-01
DAV:   5    -0.796622488387E+03   -0.13830E-03   -0.56270E-03 41820   0.220E-01    0.232E-01
DAV:   6    -0.796623165882E+03   -0.67750E-03   -0.17885E-03 39620   0.116E-01    0.165E-01
DAV:   7    -0.796623409835E+03   -0.24395E-03   -0.39861E-04 39450   0.539E-02    0.133E-01
DAV:   8    -0.796623776694E+03   -0.36686E-03   -0.21273E-04 41540   0.439E-02    0.111E-01
DAV:   9    -0.796624198357E+03   -0.42166E-03   -0.33061E-04 41080   0.520E-02    0.922E-02
DAV:  10    -0.796624459506E+03   -0.26115E-03   -0.27758E-04 38340   0.396E-02    0.804E-02
DAV:  11    -0.796624708822E+03   -0.24932E-03   -0.22192E-04 40770   0.431E-02    0.631E-02
DAV:  12    -0.796624928549E+03   -0.21973E-03   -0.61602E-04 43280   0.719E-02    0.425E-02
DAV:  13    -0.796625056090E+03   -0.12754E-03   -0.42305E-04 39830   0.412E-02    0.339E-02
DAV:  14    -0.796625097791E+03   -0.41701E-04   -0.69786E-05 25860   0.147E-02    0.231E-02
DAV:  15    -0.796625106341E+03   -0.85501E-05   -0.81637E-06 18000   0.750E-03
  13 F= -.79662511E+03 E0= -.79662511E+03  d E =-.411910E-01  mag=    47.0000
       N       E                     dE             d eps       ncg     rms          rms(c)
DAV:   1    -0.796600709248E+03    0.24389E-01   -0.57048E+00 35290   0.735E+00    0.854E-01
DAV:   2    -0.796657106049E+03   -0.56397E-01   -0.57872E-01 33320   0.143E+00    0.657E-01
DAV:   3    -0.796659591995E+03   -0.24859E-02   -0.15176E-02 38920   0.323E-01    0.349E-01
DAV:   4    -0.796659426029E+03    0.16597E-03   -0.15080E-03 42950   0.129E-01    0.288E-01
DAV:   5    -0.796659401917E+03    0.24111E-04   -0.12120E-03 41270   0.101E-01    0.960E-02
DAV:   6    -0.796659479437E+03   -0.77519E-04   -0.30378E-04 39980   0.507E-02    0.615E-02
DAV:   7    -0.796659497791E+03   -0.18354E-04   -0.82468E-05 35700   0.230E-02    0.420E-02
DAV:   8    -0.796659517736E+03   -0.19945E-04   -0.14597E-05 21060   0.136E-02    0.345E-02
DAV:   9    -0.796659542662E+03   -0.24926E-04   -0.21051E-05 25580   0.139E-02    0.277E-02
DAV:  10    -0.796659560080E+03   -0.17418E-04   -0.19313E-05 23020   0.107E-02    0.234E-02
DAV:  11    -0.796659575904E+03   -0.15824E-04   -0.11323E-05 19130   0.962E-03    0.193E-02
DAV:  12    -0.796659595337E+03   -0.19434E-04   -0.28812E-05 28900   0.161E-02    0.139E-02
DAV:  13    -0.796659606754E+03   -0.11417E-04   -0.42115E-05 27270   0.136E-02    0.102E-02
DAV:  14    -0.796659611772E+03   -0.50177E-05   -0.11536E-05 19960   0.713E-03
  14 F= -.79665961E+03 E0= -.79665961E+03  d E =-.345054E-01  mag=    47.0000
       N       E                     dE             d eps       ncg     rms          rms(c)
DAV:   1    -0.796520699529E+03    0.13891E+00   -0.20552E+01 34100   0.133E+01    0.155E+00
DAV:   2    -0.796708455814E+03   -0.18776E+00   -0.19143E+00 33250   0.259E+00    0.112E+00
DAV:   3    -0.796716109188E+03   -0.76534E-02   -0.46217E-02 39340   0.569E-01    0.589E-01
DAV:   4    -0.796715649058E+03    0.46013E-03   -0.45292E-03 42470   0.233E-01    0.485E-01
DAV:   5    -0.796715669078E+03   -0.20020E-04   -0.35378E-03 43060   0.177E-01    0.170E-01
DAV:   6    -0.796715975405E+03   -0.30633E-03   -0.92924E-04 39670   0.843E-02    0.111E-01
DAV:   7    -0.796716057460E+03   -0.82056E-04   -0.22562E-04 39280   0.396E-02    0.830E-02
DAV:   8    -0.796716153947E+03   -0.96487E-04   -0.60230E-05 31950   0.258E-02    0.701E-02
DAV:   9    -0.796716283268E+03   -0.12932E-03   -0.10671E-04 38460   0.292E-02    0.570E-02
DAV:  10    -0.796716367796E+03   -0.84528E-04   -0.81038E-05 31490   0.218E-02    0.505E-02
DAV:  11    -0.796716458407E+03   -0.90611E-04   -0.73256E-05 36280   0.244E-02    0.410E-02
DAV:  12    -0.796716552345E+03   -0.93938E-04   -0.19998E-04 41490   0.414E-02    0.283E-02
DAV:  13    -0.796716601673E+03   -0.49327E-04   -0.17553E-04 38730   0.296E-02    0.220E-02
DAV:  14    -0.796716622952E+03   -0.21279E-04   -0.51734E-05 24960   0.136E-02    0.150E-02
DAV:  15    -0.796716628515E+03   -0.55634E-05   -0.83055E-06 18570   0.636E-03
  15 F= -.79671663E+03 E0= -.79671663E+03  d E =-.570167E-01  mag=    47.0000
       N       E                     dE             d eps       ncg     rms          rms(c)
DAV:   1    -0.796670348079E+03    0.46275E-01   -0.80196E+00 34620   0.794E+00    0.897E-01
DAV:   2    -0.796734342876E+03   -0.63995E-01   -0.65363E-01 33110   0.149E+00    0.562E-01
DAV:   3    -0.796737054340E+03   -0.27115E-02   -0.13665E-02 39240   0.281E-01    0.311E-01
DAV:   4    -0.796736904144E+03    0.15020E-03   -0.13059E-03 44490   0.119E-01    0.239E-01
DAV:   5    -0.796737022930E+03   -0.11879E-03   -0.95925E-04 44620   0.955E-02    0.977E-02
DAV:   6    -0.796737150251E+03   -0.12732E-03   -0.29958E-04 39350   0.489E-02    0.765E-02
DAV:   7    -0.796737206012E+03   -0.55761E-04   -0.66114E-05 34180   0.226E-02    0.621E-02
DAV:   8    -0.796737296538E+03   -0.90526E-04   -0.54461E-05 33140   0.224E-02    0.520E-02
DAV:   9    -0.796737386122E+03   -0.89584E-04   -0.78591E-05 36270   0.241E-02    0.440E-02
DAV:  10    -0.796737449719E+03   -0.63597E-04   -0.62918E-05 31910   0.201E-02    0.384E-02
DAV:  11    -0.796737513906E+03   -0.64187E-04   -0.73872E-05 36570   0.247E-02    0.293E-02
DAV:  12    -0.796737561697E+03   -0.47791E-04   -0.17314E-04 41360   0.380E-02    0.193E-02
DAV:  13    -0.796737590617E+03   -0.28920E-04   -0.11512E-04 33730   0.206E-02    0.154E-02
DAV:  14    -0.796737598342E+03   -0.77250E-05   -0.15626E-05 19980   0.713E-03
  16 F= -.79673760E+03 E0= -.79673760E+03  d E =-.209698E-01  mag=    47.0000
       N       E                     dE             d eps       ncg     rms          rms(c)
DAV:   1    -0.796693928819E+03    0.43662E-01   -0.98063E+00 34610   0.840E+00    0.953E-01
DAV:   2    -0.796763189629E+03   -0.69261E-01   -0.70810E-01 33180   0.158E+00    0.619E-01
DAV:   3    -0.796766380252E+03   -0.31906E-02   -0.15998E-02 38830   0.325E-01    0.344E-01
DAV:   4    -0.796766229335E+03    0.15092E-03   -0.15344E-03 43110   0.136E-01    0.267E-01
DAV:   5    -0.796766350978E+03   -0.12164E-03   -0.11960E-03 42910   0.104E-01    0.111E-01
DAV:   6    -0.796766525013E+03   -0.17403E-03   -0.37193E-04 39610   0.525E-02    0.836E-02
DAV:   7    -0.796766592279E+03   -0.67266E-04   -0.84775E-05 36080   0.248E-02    0.687E-02
DAV:   8    -0.796766702219E+03   -0.10994E-03   -0.59871E-05 32710   0.236E-02    0.586E-02
DAV:   9    -0.796766821094E+03   -0.11887E-03   -0.10289E-04 37510   0.276E-02    0.491E-02
DAV:  10    -0.796766900451E+03   -0.79358E-04   -0.84262E-05 34280   0.223E-02    0.431E-02
DAV:  11    -0.796766981798E+03   -0.81346E-04   -0.90117E-05 38050   0.279E-02    0.325E-02
DAV:  12    -0.796767041779E+03   -0.59981E-04   -0.21805E-04 41800   0.420E-02    0.216E-02
DAV:  13    -0.796767078953E+03   -0.37174E-04   -0.14319E-04 36640   0.229E-02    0.169E-02
DAV:  14    -0.796767089304E+03   -0.10352E-04   -0.19738E-05 21200   0.779E-03    0.127E-02
DAV:  15    -0.796767090933E+03   -0.16286E-05   -0.13657E-06 16560   0.348E-03
  17 F= -.79676709E+03 E0= -.79676709E+03  d E =-.294926E-01  mag=    47.0000
       N       E                     dE             d eps       ncg     rms          rms(c)
DAV:   1    -0.795760310268E+03    0.10068E+01   -0.12742E+02 34730   0.315E+01    0.355E+00
DAV:   2    -0.796733910809E+03   -0.97360E+00   -0.99350E+00 32910   0.587E+00    0.214E+00
DAV:   3    -0.796780749844E+03   -0.46839E-01   -0.20991E-01 38400   0.110E+00    0.123E+00
DAV:   4    -0.796779068195E+03    0.16816E-02   -0.19306E-02 42960   0.450E-01    0.911E-01
DAV:   5    -0.796781724700E+03   -0.26565E-02   -0.13857E-02 44000   0.367E-01    0.421E-01
DAV:   6    -0.796784197407E+03   -0.24727E-02   -0.49155E-03 39720   0.200E-01    0.329E-01
DAV:   7    -0.796785341353E+03   -0.11439E-02   -0.11945E-03 40450   0.942E-02    0.273E-01
DAV:   8    -0.796787345596E+03   -0.20042E-02   -0.11743E-03 44100   0.104E-01    0.225E-01
DAV:   9    -0.796789218017E+03   -0.18724E-02   -0.17611E-03 41820   0.113E-01    0.187E-01
DAV:  10    -0.796790353384E+03   -0.11354E-02   -0.12246E-03 41410   0.839E-02    0.158E-01
DAV:  11    -0.796791384434E+03   -0.10310E-02   -0.10815E-03 41870   0.965E-02    0.120E-01
DAV:  12    -0.796792085687E+03   -0.70125E-03   -0.20522E-03 41640   0.122E-01    0.837E-02
DAV:  13    -0.796792512328E+03   -0.42664E-03   -0.12763E-03 39980   0.655E-02    0.648E-02
DAV:  14    -0.796792628684E+03   -0.11636E-03   -0.14197E-04 31130   0.217E-02    0.486E-02
DAV:  15    -0.796792690972E+03   -0.62288E-04   -0.31089E-05 27170   0.155E-02    0.407E-02
DAV:  16    -0.796792761606E+03   -0.70634E-04   -0.10270E-04 38200   0.314E-02    0.311E-02
DAV:  17    -0.796792811073E+03   -0.49467E-04   -0.12168E-04 35020   0.230E-02    0.281E-02
DAV:  18    -0.796792837446E+03   -0.26373E-04   -0.35812E-05 24850   0.125E-02    0.233E-02
DAV:  19    -0.796792859843E+03   -0.22397E-04   -0.25485E-05 28390   0.137E-02    0.205E-02
DAV:  20    -0.796792882076E+03   -0.22233E-04   -0.45499E-05 32100   0.171E-02    0.161E-02
DAV:  21    -0.796792898138E+03   -0.16062E-04   -0.49800E-05 29610   0.159E-02    0.133E-02
DAV:  22    -0.796792908193E+03   -0.10055E-04   -0.21740E-05 22350   0.867E-03    0.105E-02
DAV:  23    -0.796792909574E+03   -0.13804E-05   -0.20022E-06 16820   0.366E-03
  18 F= -.79679291E+03 E0= -.79679291E+03  d E =-.258186E-01  mag=    47.0000
       N       E                     dE             d eps       ncg     rms          rms(c)
DAV:   1    -0.795972112026E+03    0.82080E+00   -0.54280E+01 35370   0.243E+01    0.315E+00
DAV:   2    -0.796688530105E+03   -0.71642E+00   -0.75595E+00 33650   0.492E+00    0.205E+00
DAV:   3    -0.796728868189E+03   -0.40338E-01   -0.25214E-01 37750   0.116E+00    0.116E+00
DAV:   4    -0.796725349405E+03    0.35188E-02   -0.22285E-02 44460   0.415E-01    0.804E-01
DAV:   5    -0.796724519513E+03    0.82989E-03   -0.14455E-02 39090   0.334E-01    0.329E-01
DAV:   6    -0.796725060267E+03   -0.54075E-03   -0.32504E-03 39680   0.196E-01    0.202E-01
DAV:   7    -0.796725255040E+03   -0.19477E-03   -0.12985E-03 41220   0.896E-02    0.131E-01
DAV:   8    -0.796725425313E+03   -0.17027E-03   -0.20956E-04 39860   0.450E-02    0.102E-01
DAV:   9    -0.796725623159E+03   -0.19785E-03   -0.16225E-04 40630   0.351E-02    0.776E-02
DAV:  10    -0.796725753295E+03   -0.13014E-03   -0.10337E-04 34450   0.263E-02    0.667E-02
DAV:  11    -0.796725877141E+03   -0.12385E-03   -0.84774E-05 36250   0.262E-02    0.575E-02
DAV:  12    -0.796726032082E+03   -0.15494E-03   -0.17150E-04 39890   0.383E-02    0.423E-02
DAV:  13    -0.796726135381E+03   -0.10330E-03   -0.24670E-04 39770   0.409E-02    0.328E-02
DAV:  14    -0.796726186838E+03   -0.51458E-04   -0.12798E-04 35600   0.251E-02    0.227E-02
DAV:  15    -0.796726207477E+03   -0.20639E-04   -0.39120E-05 22640   0.115E-02    0.167E-02
DAV:  16    -0.796726213507E+03   -0.60304E-05   -0.49997E-06 17810   0.526E-03
  19 F= -.79672621E+03 E0= -.79672621E+03  d E =0.666961E-01  mag=    47.0000
       N       E                     dE             d eps       ncg     rms          rms(c)
DAV:   1    -0.796570277827E+03    0.15593E+00   -0.13134E+01 34710   0.129E+01    0.172E+00
DAV:   2    -0.796802298236E+03   -0.23202E+00   -0.24765E+00 34250   0.275E+00    0.131E+00
DAV:   3    -0.796814598033E+03   -0.12300E-01   -0.91088E-02 40500   0.701E-01    0.707E-01
DAV:   4    -0.796813254099E+03    0.13439E-02   -0.84639E-03 44150   0.260E-01    0.539E-01
DAV:   5    -0.796812642498E+03    0.61160E-03   -0.64602E-03 38910   0.208E-01    0.199E-01
DAV:   6    -0.796812784220E+03   -0.14172E-03   -0.11166E-03 38790   0.112E-01    0.118E-01
DAV:   7    -0.796812816812E+03   -0.32592E-04   -0.57217E-04 39880   0.523E-02    0.667E-02
DAV:   8    -0.796812842998E+03   -0.26185E-04   -0.55571E-05 34650   0.256E-02    0.484E-02
DAV:   9    -0.796812871678E+03   -0.28680E-04   -0.35504E-05 30610   0.190E-02    0.354E-02
DAV:  10    -0.796812890485E+03   -0.18807E-04   -0.20803E-05 23590   0.127E-02    0.285E-02
DAV:  11    -0.796812906426E+03   -0.15942E-04   -0.10857E-05 20320   0.901E-03    0.245E-02
DAV:  12    -0.796812928191E+03   -0.21765E-04   -0.14768E-05 25880   0.116E-02    0.203E-02
DAV:  13    -0.796812947907E+03   -0.19716E-04   -0.34984E-05 29430   0.136E-02    0.156E-02
DAV:  14    -0.796812960341E+03   -0.12434E-04   -0.29839E-05 28650   0.138E-02    0.127E-02
DAV:  15    -0.796812967174E+03   -0.68331E-05   -0.17774E-05 22310   0.850E-03
  20 F= -.79681297E+03 E0= -.79681297E+03  d E =-.867537E-01  mag=    47.0000
       N       E                     dE             d eps       ncg     rms          rms(c)
DAV:   1    -0.796786774265E+03    0.26186E-01   -0.17840E+00 35200   0.474E+00    0.616E-01
DAV:   2    -0.796817054639E+03   -0.30280E-01   -0.32251E-01 34000   0.998E-01    0.438E-01
DAV:   3    -0.796818748341E+03   -0.16937E-02   -0.11866E-02 40050   0.250E-01    0.247E-01
DAV:   4    -0.796818585839E+03    0.16250E-03   -0.10255E-03 44270   0.879E-02    0.176E-01
DAV:   5    -0.796818526666E+03    0.59174E-04   -0.74991E-04 38910   0.722E-02    0.718E-02
DAV:   6    -0.796818547173E+03   -0.20508E-04   -0.13553E-04 38650   0.397E-02    0.417E-02
DAV:   7    -0.796818552933E+03   -0.57592E-05   -0.65575E-05 34110   0.190E-02
  21 F= -.79681855E+03 E0= -.79681855E+03  d E =-.558576E-02  mag=    47.0000
       N       E                     dE             d eps       ncg     rms          rms(c)
DAV:   1    -0.796819605941E+03   -0.10588E-02   -0.12181E-01 35250   0.105E+00    0.125E-01
DAV:   2    -0.796820755120E+03   -0.11492E-02   -0.11639E-02 33310   0.207E-01    0.103E-01
DAV:   3    -0.796820806368E+03   -0.51249E-04   -0.31078E-04 37550   0.499E-02    0.531E-02
DAV:   4    -0.796820808132E+03   -0.17642E-05   -0.27820E-05 27950   0.202E-02
  22 F= -.79682081E+03 E0= -.79682081E+03  d E =-.225520E-02  mag=    47.0000
       N       E                     dE             d eps       ncg     rms          rms(c)
DAV:   1    -0.796815178351E+03    0.56280E-02   -0.18503E+00 34690   0.384E+00    0.440E-01
DAV:   2    -0.796829520986E+03   -0.14343E-01   -0.14637E-01 33300   0.743E-01    0.382E-01
DAV:   3    -0.796830054729E+03   -0.53374E-03   -0.39248E-03 36840   0.183E-01    0.192E-01
DAV:   4    -0.796830041332E+03    0.13397E-04   -0.40439E-04 42430   0.732E-02    0.173E-01
DAV:   5    -0.796830039470E+03    0.18617E-05   -0.35017E-04 42470   0.571E-02    0.567E-02
DAV:   6    -0.796830072974E+03   -0.33504E-04   -0.95681E-05 37040   0.262E-02    0.381E-02
DAV:   7    -0.796830085000E+03   -0.12026E-04   -0.19894E-05 20990   0.125E-02    0.312E-02
DAV:   8    -0.796830099131E+03   -0.14131E-04   -0.94021E-06 18440   0.951E-03    0.266E-02
DAV:   9    -0.796830118601E+03   -0.19470E-04   -0.14364E-05 23170   0.109E-02    0.219E-02
DAV:  10    -0.796830133915E+03   -0.15315E-04   -0.19502E-05 22840   0.923E-03    0.188E-02
DAV:  11    -0.796830148508E+03   -0.14593E-04   -0.10905E-05 21780   0.108E-02    0.154E-02
DAV:  12    -0.796830161725E+03   -0.13217E-04   -0.40961E-05 30660   0.157E-02    0.107E-02
DAV:  13    -0.796830169730E+03   -0.80048E-05   -0.27227E-05 24200   0.110E-02
  23 F= -.79683017E+03 E0= -.79683017E+03  d E =-.936160E-02  mag=    47.0000
       N       E                     dE             d eps       ncg     rms          rms(c)
DAV:   1    -0.796817372197E+03    0.12790E-01   -0.39634E+00 34430   0.537E+00    0.609E-01
DAV:   2    -0.796844791462E+03   -0.27419E-01   -0.28069E-01 33270   0.104E+00    0.561E-01
DAV:   3    -0.796845692547E+03   -0.90109E-03   -0.75999E-03 37160   0.260E-01    0.277E-01
DAV:   4    -0.796845661984E+03    0.30563E-04   -0.73983E-04 41330   0.983E-02    0.250E-01
DAV:   5    -0.796845630043E+03    0.31941E-04   -0.66995E-04 41380   0.783E-02    0.781E-02
DAV:   6    -0.796845687230E+03   -0.57187E-04   -0.18135E-04 39030   0.348E-02    0.461E-02
DAV:   7    -0.796845701373E+03   -0.14143E-04   -0.31705E-05 26800   0.150E-02    0.364E-02
DAV:   8    -0.796845718772E+03   -0.17400E-04   -0.11448E-05 18420   0.111E-02    0.305E-02
DAV:   9    -0.796845743214E+03   -0.24442E-04   -0.20202E-05 26320   0.126E-02    0.245E-02
DAV:  10    -0.796845758922E+03   -0.15708E-04   -0.18123E-05 21700   0.917E-03    0.216E-02
DAV:  11    -0.796845775329E+03   -0.16407E-04   -0.93011E-06 19270   0.102E-02    0.182E-02
DAV:  12    -0.796845794863E+03   -0.19534E-04   -0.50656E-05 31680   0.195E-02    0.127E-02
DAV:  13    -0.796845806472E+03   -0.11609E-04   -0.41441E-05 25950   0.125E-02    0.106E-02
DAV:  14    -0.796845810987E+03   -0.45144E-05   -0.66854E-06 19080   0.662E-03
  24 F= -.79684581E+03 E0= -.79684581E+03  d E =-.156413E-01  mag=    47.0000
       N       E                     dE             d eps       ncg     rms          rms(c)
DAV:   1    -0.796124680102E+03    0.72113E+00   -0.99835E+01 34000   0.263E+01    0.297E+00
DAV:   2    -0.796824655512E+03   -0.69998E+00   -0.71445E+00 33180   0.508E+00    0.241E+00
DAV:   3    -0.796848192305E+03   -0.23537E-01   -0.17012E-01 36510   0.113E+00    0.127E+00
DAV:   4    -0.796845946896E+03    0.22454E-02   -0.17301E-02 43350   0.465E-01    0.109E+00
DAV:   5    -0.796845927432E+03    0.19464E-04   -0.15362E-02 42440   0.351E-01    0.368E-01
DAV:   6    -0.796847539735E+03   -0.16123E-02   -0.43138E-03 37780   0.164E-01    0.257E-01
DAV:   7    -0.796848073281E+03   -0.53355E-03   -0.81567E-04 39520   0.745E-02    0.199E-01
DAV:   8    -0.796848776538E+03   -0.70326E-03   -0.38426E-04 41640   0.617E-02    0.166E-01
DAV:   9    -0.796849651202E+03   -0.87466E-03   -0.66075E-04 41240   0.733E-02    0.134E-01
DAV:  10    -0.796850143366E+03   -0.49216E-03   -0.53513E-04 40750   0.519E-02    0.117E-01
DAV:  11    -0.796850728002E+03   -0.58464E-03   -0.51300E-04 44170   0.670E-02    0.895E-02
DAV:  12    -0.796851167228E+03   -0.43923E-03   -0.10801E-03 42490   0.905E-02    0.634E-02
DAV:  13    -0.796851394908E+03   -0.22768E-03   -0.68372E-04 42270   0.576E-02    0.447E-02
DAV:  14    -0.796851485923E+03   -0.91015E-04   -0.17817E-04 33570   0.239E-02    0.343E-02
DAV:  15    -0.796851504529E+03   -0.18606E-04   -0.13973E-05 20410   0.825E-03    0.289E-02
DAV:  16    -0.796851527661E+03   -0.23132E-04   -0.84050E-06 18550   0.116E-02    0.218E-02
DAV:  17    -0.796851549296E+03   -0.21636E-04   -0.62242E-05 33630   0.192E-02    0.187E-02
DAV:  18    -0.796851560338E+03   -0.11042E-04   -0.22654E-05 22260   0.969E-03    0.151E-02
DAV:  19    -0.796851567915E+03   -0.75769E-05   -0.57138E-06 17860   0.869E-03
  25 F= -.79685157E+03 E0= -.79685157E+03  d E =-.575693E-02  mag=    47.0000
       N       E                     dE             d eps       ncg     rms          rms(c)
DAV:   1    -0.796792110133E+03    0.59450E-01   -0.52367E+00 35710   0.815E+00    0.985E-01
DAV:   2    -0.796865458091E+03   -0.73348E-01   -0.76717E-01 33490   0.160E+00    0.715E-01
DAV:   3    -0.796869342031E+03   -0.38839E-02   -0.23720E-02 40350   0.388E-01    0.381E-01
DAV:   4    -0.796869087464E+03    0.25457E-03   -0.23449E-03 43550   0.152E-01    0.299E-01
DAV:   5    -0.796869059009E+03    0.28455E-04   -0.17256E-03 41990   0.113E-01    0.107E-01
DAV:   6    -0.796869115006E+03   -0.55998E-04   -0.31883E-04 40770   0.569E-02    0.675E-02
DAV:   7    -0.796869135552E+03   -0.20546E-04   -0.14887E-04 39780   0.273E-02    0.410E-02
DAV:   8    -0.796869151687E+03   -0.16135E-04   -0.15045E-05 20880   0.139E-02    0.330E-02
DAV:   9    -0.796869171069E+03   -0.19382E-04   -0.17581E-05 22350   0.120E-02    0.266E-02
DAV:  10    -0.796869183514E+03   -0.12445E-04   -0.12219E-05 20660   0.902E-03    0.226E-02
DAV:  11    -0.796869198739E+03   -0.15226E-04   -0.90415E-06 18440   0.975E-03    0.195E-02
DAV:  12    -0.796869217405E+03   -0.18665E-04   -0.31540E-05 30440   0.140E-02    0.151E-02
DAV:  13    -0.796869229692E+03   -0.12287E-04   -0.28601E-05 27480   0.126E-02    0.119E-02
DAV:  14    -0.796869236336E+03   -0.66449E-05   -0.14438E-05 22820   0.882E-03
  26 F= -.79686924E+03 E0= -.79686924E+03  d E =-.176684E-01  mag=    47.0000
       N       E                     dE             d eps       ncg     rms          rms(c)
DAV:   1    -0.796868695059E+03    0.53463E-03   -0.45401E-01 35290   0.200E+00    0.231E-01
DAV:   2    -0.796872805616E+03   -0.41106E-02   -0.42467E-02 33410   0.393E-01    0.184E-01
DAV:   3    -0.796872994552E+03   -0.18894E-03   -0.12337E-03 39090   0.952E-02    0.962E-02
DAV:   4    -0.796872979653E+03    0.14899E-04   -0.11436E-04 40970   0.374E-02    0.802E-02
DAV:   5    -0.796872975614E+03    0.40389E-05   -0.10779E-04 38960   0.291E-02    0.280E-02
DAV:   6    -0.796872981960E+03   -0.63461E-05   -0.21984E-05 23840   0.145E-02
  27 F= -.79687298E+03 E0= -.79687298E+03  d E =-.374562E-02  mag=    47.0000
       N       E                     dE             d eps       ncg     rms          rms(c)
DAV:   1    -0.796858807892E+03    0.14168E-01   -0.20733E+00 34970   0.418E+00    0.477E-01
DAV:   2    -0.796876697549E+03   -0.17890E-01   -0.18264E-01 33290   0.804E-01    0.354E-01
DAV:   3    -0.796877482390E+03   -0.78484E-03   -0.43656E-03 38080   0.179E-01    0.186E-01
DAV:   4    -0.796877443467E+03    0.38923E-04   -0.41398E-04 42790   0.719E-02    0.154E-01
DAV:   5    -0.796877453315E+03   -0.98485E-05   -0.32865E-04 42620   0.549E-02    0.549E-02
DAV:   6    -0.796877490022E+03   -0.36707E-04   -0.95972E-05 36820   0.268E-02    0.377E-02
DAV:   7    -0.796877501487E+03   -0.11465E-04   -0.18000E-05 20260   0.121E-02    0.293E-02
DAV:   8    -0.796877517151E+03   -0.15664E-04   -0.96857E-06 18570   0.987E-03    0.253E-02
DAV:   9    -0.796877534663E+03   -0.17512E-04   -0.16197E-05 23420   0.101E-02    0.211E-02
DAV:  10    -0.796877547447E+03   -0.12785E-04   -0.12561E-05 20720   0.829E-03    0.182E-02
DAV:  11    -0.796877561797E+03   -0.14350E-04   -0.12828E-05 23110   0.113E-02    0.148E-02
DAV:  12    -0.796877574328E+03   -0.12531E-04   -0.37986E-05 30740   0.152E-02    0.104E-02
DAV:  13    -0.796877581897E+03   -0.75693E-05   -0.25341E-05 24070   0.992E-03
  28 F= -.79687758E+03 E0= -.79687758E+03  d E =-.459994E-02  mag=    47.0000
       N       E                     dE             d eps       ncg     rms          rms(c)
DAV:   1    -0.796872429104E+03    0.51452E-02   -0.62311E-01 35150   0.234E+00    0.271E-01
DAV:   2    -0.796878169193E+03   -0.57401E-02   -0.58604E-02 32820   0.440E-01    0.162E-01
DAV:   3    -0.796878449202E+03   -0.28001E-03   -0.11647E-03 39470   0.812E-02    0.897E-02
DAV:   4    -0.796878440170E+03    0.90316E-05   -0.10075E-04 39450   0.313E-02    0.653E-02
DAV:   5    -0.796878455044E+03   -0.14874E-04   -0.59119E-05 36470   0.251E-02    0.263E-02
DAV:   6    -0.796878465030E+03   -0.99860E-05   -0.19549E-05 21080   0.140E-02
  29 F= -.79687847E+03 E0= -.79687847E+03  d E =-.883133E-03  mag=    47.0000
       N       E                     dE             d eps       ncg     rms          rms(c)
DAV:   1    -0.796743350017E+03    0.13511E+00   -0.13045E+01 35170   0.109E+01    0.127E+00
DAV:   2    -0.796867271002E+03   -0.12392E+00   -0.12639E+00 32580   0.204E+00    0.699E-01
DAV:   3    -0.796873716734E+03   -0.64457E-02   -0.23950E-02 38430   0.342E-01    0.392E-01
DAV:   4    -0.796873588573E+03    0.12816E-03   -0.20636E-03 45420   0.125E-01    0.265E-01
DAV:   5    -0.796874002681E+03   -0.41411E-03   -0.98896E-04 44640   0.101E-01    0.115E-01
DAV:   6    -0.796874184905E+03   -0.18222E-03   -0.36985E-04 39730   0.614E-02    0.922E-02
DAV:   7    -0.796874266895E+03   -0.81990E-04   -0.90988E-05 34290   0.320E-02    0.751E-02
DAV:   8    -0.796874428485E+03   -0.16159E-03   -0.11847E-04 39150   0.321E-02    0.605E-02
DAV:   9    -0.796874551168E+03   -0.12268E-03   -0.11243E-04 36880   0.271E-02    0.533E-02
DAV:  10    -0.796874636663E+03   -0.85496E-04   -0.63041E-05 32130   0.213E-02    0.453E-02
DAV:  11    -0.796874739244E+03   -0.10258E-03   -0.12805E-04 38780   0.337E-02    0.352E-02
DAV:  12    -0.796874807311E+03   -0.68066E-04   -0.24810E-04 41860   0.436E-02    0.263E-02
DAV:  13    -0.796874851459E+03   -0.44149E-04   -0.13879E-04 34880   0.228E-02    0.209E-02
DAV:  14    -0.796874863224E+03   -0.11764E-04   -0.17491E-05 19890   0.746E-03    0.159E-02
DAV:  15    -0.796874865806E+03   -0.25825E-05   -0.13619E-06 16520   0.393E-03
  30 F= -.79687487E+03 E0= -.79687487E+03  d E =0.359922E-02  mag=    47.0000
       N       E                     dE             d eps       ncg     rms          rms(c)
DAV:   1    -0.796208681523E+03    0.66618E+00   -0.59559E+01 35500   0.238E+01    0.278E+00
DAV:   2    -0.796800568398E+03   -0.59189E+00   -0.60310E+00 32700   0.442E+00    0.152E+00
DAV:   3    -0.796832188766E+03   -0.31620E-01   -0.11487E-01 37830   0.728E-01    0.865E-01
DAV:   4    -0.796831810998E+03    0.37777E-03   -0.94523E-03 43070   0.244E-01    0.573E-01
DAV:   5    -0.796834164735E+03   -0.23537E-02   -0.42293E-03 43070   0.199E-01    0.266E-01
DAV:   6    -0.796835206888E+03   -0.10422E-02   -0.17511E-03 39410   0.126E-01    0.223E-01
DAV:   7    -0.796835763928E+03   -0.55704E-03   -0.49652E-04 40700   0.726E-02    0.189E-01
DAV:   8    -0.796836875278E+03   -0.11113E-02   -0.76933E-04 44540   0.829E-02    0.154E-01
DAV:   9    -0.796837768022E+03   -0.89274E-03   -0.92420E-04 41740   0.762E-02    0.133E-01
DAV:  10    -0.796838386396E+03   -0.61837E-03   -0.56918E-04 41460   0.603E-02    0.112E-01
DAV:  11    -0.796839042330E+03   -0.65593E-03   -0.95471E-04 42880   0.913E-02    0.848E-02
DAV:  12    -0.796839436441E+03   -0.39411E-03   -0.14475E-03 41570   0.981E-02    0.644E-02
DAV:  13    -0.796839666400E+03   -0.22996E-03   -0.69919E-04 40290   0.490E-02    0.499E-02
DAV:  14    -0.796839720991E+03   -0.54590E-04   -0.72087E-05 25980   0.154E-02    0.380E-02
DAV:  15    -0.796839755033E+03   -0.34043E-04   -0.13339E-05 19990   0.107E-02    0.320E-02
DAV:  16    -0.796839800331E+03   -0.45298E-04   -0.89631E-05 37220   0.270E-02    0.239E-02
DAV:  17    -0.796839828672E+03   -0.28341E-04   -0.75897E-05 31390   0.175E-02    0.205E-02
DAV:  18    -0.796839842645E+03   -0.13974E-04   -0.18443E-05 23600   0.975E-03    0.174E-02
DAV:  19    -0.796839855629E+03   -0.12984E-04   -0.17649E-05 25130   0.113E-02    0.142E-02
DAV:  20    -0.796839865512E+03   -0.98836E-05   -0.26281E-05 27310   0.120E-02
  31 F= -.79683987E+03 E0= -.79683987E+03  d E =0.350003E-01  mag=    47.0000
       N       E                     dE             d eps       ncg     rms          rms(c)
DAV:   1    -0.796516083369E+03    0.32377E+00   -0.27093E+01 35090   0.160E+01    0.188E+00
DAV:   2    -0.796785970515E+03   -0.26989E+00   -0.27488E+00 32800   0.304E+00    0.109E+00
DAV:   3    -0.796800331328E+03   -0.14361E-01   -0.55779E-02 38580   0.541E-01    0.619E-01
DAV:   4    -0.796800172713E+03    0.15862E-03   -0.48330E-03 44750   0.205E-01    0.439E-01
DAV:   5    -0.796801254386E+03   -0.10817E-02   -0.27666E-03 45450   0.169E-01    0.210E-01
DAV:   6    -0.796801846091E+03   -0.59170E-03   -0.10546E-03 39970   0.100E-01    0.174E-01
DAV:   7    -0.796802177111E+03   -0.33102E-03   -0.31294E-04 39420   0.541E-02    0.147E-01
DAV:   8    -0.796802813506E+03   -0.63639E-03   -0.43389E-04 44070   0.613E-02    0.120E-01
DAV:   9    -0.796803392608E+03   -0.57910E-03   -0.61708E-04 42130   0.655E-02    0.101E-01
DAV:  10    -0.796803752655E+03   -0.36005E-03   -0.43582E-04 41710   0.497E-02    0.843E-02
DAV:  11    -0.796804097389E+03   -0.34473E-03   -0.46661E-04 42680   0.616E-02    0.633E-02
DAV:  12    -0.796804311398E+03   -0.21401E-03   -0.81061E-04 42040   0.760E-02    0.438E-02
DAV:  13    -0.796804436538E+03   -0.12514E-03   -0.48331E-04 40280   0.402E-02    0.344E-02
DAV:  14    -0.796804466704E+03   -0.30167E-04   -0.50985E-05 25080   0.124E-02    0.252E-02
DAV:  15    -0.796804474137E+03   -0.74329E-05   -0.42752E-06 16990   0.593E-03
  32 F= -.79680447E+03 E0= -.79680447E+03  d E =0.353914E-01  mag=    47.0000
       N       E                     dE             d eps       ncg     rms          rms(c)
DAV:   1    -0.796710946658E+03    0.93520E-01   -0.11963E+01 35300   0.104E+01    0.120E+00
DAV:   2    -0.796824505777E+03   -0.11356E+00   -0.11616E+00 32780   0.195E+00    0.687E-01
DAV:   3    -0.796830197956E+03   -0.56922E-02   -0.23480E-02 38730   0.343E-01    0.385E-01
DAV:   4    -0.796829996703E+03    0.20125E-03   -0.19829E-03 45190   0.122E-01    0.262E-01
DAV:   5    -0.796830254429E+03   -0.25773E-03   -0.10242E-03 44780   0.100E-01    0.101E-01
DAV:   6    -0.796830386516E+03   -0.13209E-03   -0.35353E-04 39900   0.570E-02    0.756E-02
DAV:   7    -0.796830428774E+03   -0.42258E-04   -0.74953E-05 36010   0.276E-02    0.563E-02
DAV:   8    -0.796830497345E+03   -0.68571E-04   -0.46355E-05 31550   0.207E-02    0.456E-02
DAV:   9    -0.796830558607E+03   -0.61261E-04   -0.51834E-05 33600   0.179E-02    0.377E-02
DAV:  10    -0.796830599606E+03   -0.40999E-04   -0.31993E-05 24200   0.141E-02    0.327E-02
DAV:  11    -0.796830641656E+03   -0.42050E-04   -0.38593E-05 32020   0.179E-02    0.252E-02
DAV:  12    -0.796830675992E+03   -0.34336E-04   -0.98685E-05 37080   0.283E-02    0.155E-02
DAV:  13    -0.796830694593E+03   -0.18601E-04   -0.63834E-05 26170   0.157E-02    0.125E-02
DAV:  14    -0.796830699484E+03   -0.48910E-05   -0.83398E-06 19580   0.586E-03
  33 F= -.79683070E+03 E0= -.79683070E+03  d E =-.262253E-01  mag=    47.0000
       N       E                     dE             d eps       ncg     rms          rms(c)
DAV:   1    -0.796810837444E+03    0.19857E-01   -0.21029E+00 34450   0.395E+00    0.442E-01
DAV:   2    -0.796826286804E+03   -0.15449E-01   -0.15752E-01 33270   0.768E-01    0.355E-01
DAV:   3    -0.796826900384E+03   -0.61358E-03   -0.41655E-03 38170   0.178E-01    0.193E-01
DAV:   4    -0.796826876907E+03    0.23477E-04   -0.42905E-04 42580   0.727E-02    0.165E-01
DAV:   5    -0.796826936682E+03   -0.59776E-04   -0.40190E-04 43000   0.573E-02    0.731E-02
DAV:   6    -0.796827007074E+03   -0.70392E-04   -0.13092E-04 38640   0.295E-02    0.614E-02
DAV:   7    -0.796827048625E+03   -0.41551E-04   -0.29883E-05 27150   0.152E-02    0.528E-02
DAV:   8    -0.796827122623E+03   -0.73997E-04   -0.43290E-05 32150   0.193E-02    0.447E-02
DAV:   9    -0.796827209198E+03   -0.86576E-04   -0.10613E-04 37840   0.267E-02    0.343E-02
DAV:  10    -0.796827268870E+03   -0.59672E-04   -0.10182E-04 36470   0.236E-02    0.296E-02
DAV:  11    -0.796827306553E+03   -0.37683E-04   -0.62144E-05 32510   0.191E-02    0.211E-02
DAV:  12    -0.796827331019E+03   -0.24465E-04   -0.10301E-04 38020   0.269E-02    0.134E-02
DAV:  13    -0.796827345969E+03   -0.14950E-04   -0.66217E-05 29740   0.153E-02    0.103E-02
DAV:  14    -0.796827350243E+03   -0.42742E-05   -0.10314E-05 19330   0.605E-03
  34 F= -.79682735E+03 E0= -.79682735E+03  d E =0.334924E-02  mag=    47.0000
       N       E                     dE             d eps       ncg     rms          rms(c)
DAV:   1    -0.796657023542E+03    0.17032E+00   -0.21134E+01 34510   0.118E+01    0.133E+00
DAV:   2    -0.796790699544E+03   -0.13368E+00   -0.13501E+00 32960   0.222E+00    0.977E-01
DAV:   3    -0.796796297515E+03   -0.55980E-02   -0.28953E-02 38450   0.463E-01    0.548E-01
DAV:   4    -0.796796228434E+03    0.69081E-04   -0.32658E-03 42700   0.201E-01    0.454E-01
DAV:   5    -0.796797068105E+03   -0.83967E-03   -0.29440E-03 43480   0.158E-01    0.215E-01
DAV:   6    -0.796797774692E+03   -0.70659E-03   -0.10950E-03 38790   0.810E-02    0.189E-01
DAV:   7    -0.796798212713E+03   -0.43802E-03   -0.23293E-04 39870   0.436E-02    0.163E-01
DAV:   8    -0.796799202581E+03   -0.98987E-03   -0.80546E-04 43630   0.814E-02    0.128E-01
DAV:   9    -0.796799970673E+03   -0.76809E-03   -0.11790E-03 41800   0.854E-02    0.104E-01
DAV:  10    -0.796800385486E+03   -0.41481E-03   -0.65324E-04 42390   0.564E-02    0.854E-02
DAV:  11    -0.796800688981E+03   -0.30349E-03   -0.44959E-04 41340   0.545E-02    0.624E-02
DAV:  12    -0.796800870399E+03   -0.18142E-03   -0.75894E-04 41750   0.696E-02    0.418E-02
DAV:  13    -0.796800995445E+03   -0.12505E-03   -0.43822E-04 39770   0.368E-02    0.322E-02
DAV:  14    -0.796801023193E+03   -0.27748E-04   -0.37194E-05 24870   0.114E-02    0.227E-02
DAV:  15    -0.796801032762E+03   -0.95688E-05   -0.48551E-06 16950   0.603E-03
  35 F= -.79680103E+03 E0= -.79680103E+03  d E =0.263175E-01  mag=    47.0000
       N       E                     dE             d eps       ncg     rms          rms(c)
DAV:   1    -0.796513797250E+03    0.28723E+00   -0.30721E+01 34680   0.163E+01    0.187E+00
DAV:   2    -0.796776809077E+03   -0.26301E+00   -0.27284E+00 33390   0.330E+00    0.182E+00
DAV:   3    -0.796785565000E+03   -0.87559E-02   -0.88452E-02 39290   0.830E-01    0.946E-01
DAV:   4    -0.796784583957E+03    0.98104E-03   -0.91935E-03 42780   0.331E-01    0.852E-01
DAV:   5    -0.796783771872E+03    0.81208E-03   -0.96051E-03 40450   0.267E-01    0.273E-01
DAV:   6    -0.796784098973E+03   -0.32710E-03   -0.20652E-03 40420   0.131E-01    0.161E-01
DAV:   7    -0.796784187544E+03   -0.88571E-04   -0.73107E-04 38590   0.602E-02    0.109E-01
DAV:   8    -0.796784289455E+03   -0.10191E-03   -0.96270E-05 37920   0.339E-02    0.878E-02
DAV:   9    -0.796784429698E+03   -0.14024E-03   -0.11962E-04 40810   0.332E-02    0.685E-02
DAV:  10    -0.796784536864E+03   -0.10717E-03   -0.93949E-05 34340   0.257E-02    0.598E-02
DAV:  11    -0.796784638837E+03   -0.10197E-03   -0.84961E-05 36290   0.231E-02    0.511E-02
DAV:  12    -0.796784771923E+03   -0.13309E-03   -0.18572E-04 41160   0.382E-02    0.394E-02
DAV:  13    -0.796784853338E+03   -0.81414E-04   -0.23158E-04 41350   0.384E-02    0.290E-02
DAV:  14    -0.796784895578E+03   -0.42240E-04   -0.12121E-04 36080   0.230E-02    0.210E-02
DAV:  15    -0.796784911922E+03   -0.16344E-04   -0.32960E-05 22700   0.103E-02    0.161E-02
DAV:  16    -0.796784917505E+03   -0.55831E-05   -0.54846E-06 18070   0.518E-03
  36 F= -.79678492E+03 E0= -.79678492E+03  d E =0.161153E-01  mag=    47.0000
       N       E                     dE             d eps       ncg     rms          rms(c)
DAV:   1    -0.796756659982E+03    0.28252E-01   -0.34771E+00 35640   0.677E+00    0.831E-01
DAV:   2    -0.796808436528E+03   -0.51777E-01   -0.55654E-01 34000   0.138E+00    0.609E-01
DAV:   3    -0.796811480771E+03   -0.30442E-02   -0.20723E-02 41040   0.346E-01    0.333E-01
DAV:   4    -0.796811177910E+03    0.30286E-03   -0.20060E-03 43420   0.135E-01    0.254E-01
DAV:   5    -0.796811093561E+03    0.84349E-04   -0.15390E-03 39260   0.107E-01    0.102E-01
DAV:   6    -0.796811117531E+03   -0.23971E-04   -0.26039E-04 39680   0.593E-02    0.611E-02
DAV:   7    -0.796811129485E+03   -0.11954E-04   -0.16078E-04 41100   0.288E-02    0.357E-02
DAV:   8    -0.796811138793E+03   -0.93084E-05   -0.13156E-05 20500   0.123E-02
  37 F= -.79681114E+03 E0= -.79681114E+03  d E =-.262213E-01  mag=    47.0000
       N       E                     dE             d eps       ncg     rms          rms(c)
DAV:   1    -0.796806606848E+03    0.45226E-02   -0.78548E-01 35510   0.303E+00    0.363E-01
DAV:   2    -0.796816503967E+03   -0.98971E-02   -0.10409E-01 33490   0.611E-01    0.295E-01
DAV:   3    -0.796817002661E+03   -0.49869E-03   -0.35493E-03 40760   0.154E-01    0.157E-01
DAV:   4    -0.796816966633E+03    0.36028E-04   -0.37268E-04 42970   0.637E-02    0.132E-01
DAV:   5    -0.796816964748E+03    0.18844E-05   -0.31341E-04 40530   0.492E-02    0.500E-02
DAV:   6    -0.796816977656E+03   -0.12907E-04   -0.62396E-05 35910   0.260E-02    0.332E-02
DAV:   7    -0.796816984632E+03   -0.69766E-05   -0.34121E-05 26960   0.135E-02
  38 F= -.79681698E+03 E0= -.79681698E+03  d E =-.584584E-02  mag=    47.0000
       N       E                     dE             d eps       ncg     rms          rms(c)
DAV:   1    -0.796818162447E+03   -0.11848E-02   -0.14403E-01 34900   0.109E+00    0.127E-01
DAV:   2    -0.796819358477E+03   -0.11960E-02   -0.12108E-02 33320   0.218E-01    0.124E-01
DAV:   3    -0.796819395821E+03   -0.37344E-04   -0.33102E-04 37160   0.542E-02    0.662E-02
DAV:   4    -0.796819398549E+03   -0.27274E-05   -0.31963E-05 29170   0.224E-02
  39 F= -.79681940E+03 E0= -.79681940E+03  d E =-.241392E-02  mag=    47.0000
       N       E                     dE             d eps       ncg     rms          rms(c)
DAV:   1    -0.796811712064E+03    0.76838E-02   -0.21860E+00 34400   0.395E+00    0.444E-01
DAV:   2    -0.796826879600E+03   -0.15168E-01   -0.15466E-01 33340   0.782E-01    0.431E-01
DAV:   3    -0.796827275513E+03   -0.39591E-03   -0.40855E-03 36300   0.190E-01    0.228E-01
DAV:   4    -0.796827237849E+03    0.37664E-04   -0.43579E-04 41670   0.786E-02    0.207E-01
DAV:   5    -0.796827203399E+03    0.34450E-04   -0.44779E-04 41830   0.624E-02    0.631E-02
DAV:   6    -0.796827232900E+03   -0.29501E-04   -0.11998E-04 39290   0.295E-02    0.371E-02
DAV:   7    -0.796827238587E+03   -0.56868E-05   -0.19428E-05 19820   0.131E-02
  40 F= -.79682724E+03 E0= -.79682724E+03  d E =-.784004E-02  mag=    47.0000
       N       E                     dE             d eps       ncg     rms          rms(c)
DAV:   1    -0.796829261912E+03   -0.20290E-02   -0.71974E-01 34900   0.253E+00    0.291E-01
DAV:   2    -0.796835787598E+03   -0.65257E-02   -0.66356E-02 33200   0.478E-01    0.173E-01
DAV:   3    -0.796836111450E+03   -0.32385E-03   -0.14322E-03 38930   0.904E-02    0.988E-02
DAV:   4    -0.796836111919E+03   -0.46867E-06   -0.12942E-04 40160   0.356E-02    0.742E-02
DAV:   5    -0.796836140157E+03   -0.28239E-04   -0.85350E-05 37900   0.295E-02    0.355E-02
DAV:   6    -0.796836158022E+03   -0.17864E-04   -0.31560E-05 26440   0.173E-02    0.290E-02
DAV:   7    -0.796836167369E+03   -0.93470E-05   -0.10613E-05 17900   0.966E-03
  41 F= -.79683617E+03 E0= -.79683617E+03  d E =-.892878E-02  mag=    47.0000
       N       E                     dE             d eps       ncg     rms          rms(c)
DAV:   1    -0.796549798639E+03    0.28636E+00   -0.40508E+01 34390   0.167E+01    0.198E+00
DAV:   2    -0.796829720680E+03   -0.27992E+00   -0.28654E+00 33210   0.341E+00    0.213E+00
DAV:   3    -0.796837016849E+03   -0.72962E-02   -0.86773E-02 35850   0.888E-01    0.108E+00
DAV:   4    -0.796837464212E+03   -0.44736E-03   -0.83624E-03 41450   0.341E-01    0.101E+00
DAV:   5    -0.796836786234E+03    0.67798E-03   -0.85323E-03 41020   0.278E-01    0.311E-01
DAV:   6    -0.796837377310E+03   -0.59108E-03   -0.22450E-03 40270   0.130E-01    0.161E-01
DAV:   7    -0.796837492786E+03   -0.11548E-03   -0.42748E-04 40020   0.539E-02    0.124E-01
DAV:   8    -0.796837652287E+03   -0.15950E-03   -0.11532E-04 37590   0.363E-02    0.100E-01
DAV:   9    -0.796837893609E+03   -0.24132E-03   -0.20418E-04 42060   0.425E-02    0.780E-02
DAV:  10    -0.796838037628E+03   -0.14402E-03   -0.15085E-04 37590   0.291E-02    0.700E-02
DAV:  11    -0.796838174598E+03   -0.13697E-03   -0.82666E-05 35090   0.252E-02    0.602E-02
DAV:  12    -0.796838372174E+03   -0.19758E-03   -0.33646E-04 43240   0.564E-02    0.427E-02
DAV:  13    -0.796838477279E+03   -0.10510E-03   -0.34001E-04 41380   0.426E-02    0.336E-02
DAV:  14    -0.796838525323E+03   -0.48044E-04   -0.10250E-04 34240   0.234E-02    0.223E-02
DAV:  15    -0.796838545348E+03   -0.20025E-04   -0.42096E-05 23000   0.115E-02    0.181E-02
DAV:  16    -0.796838551700E+03   -0.63522E-05   -0.41226E-06 17050   0.516E-03
  42 F= -.79683855E+03 E0= -.79683855E+03  d E =-.238433E-02  mag=    47.0000
       N       E                     dE             d eps       ncg     rms          rms(c)
DAV:   1    -0.796780179147E+03    0.58366E-01   -0.68013E+00 35370   0.813E+00    0.953E-01
DAV:   2    -0.796848741555E+03   -0.68562E-01   -0.71276E-01 33340   0.160E+00    0.704E-01
DAV:   3    -0.796852317203E+03   -0.35756E-02   -0.20957E-02 40230   0.370E-01    0.383E-01
DAV:   4    -0.796852057249E+03    0.25995E-03   -0.20079E-03 43550   0.152E-01    0.309E-01
DAV:   5    -0.796852046982E+03    0.10267E-04   -0.17459E-03 41790   0.116E-01    0.118E-01
DAV:   6    -0.796852154364E+03   -0.10738E-03   -0.38183E-04 39640   0.604E-02    0.804E-02
DAV:   7    -0.796852196791E+03   -0.42427E-04   -0.16900E-04 39270   0.306E-02    0.576E-02
DAV:   8    -0.796852240028E+03   -0.43236E-04   -0.28893E-05 25460   0.180E-02    0.483E-02
DAV:   9    -0.796852292940E+03   -0.52912E-04   -0.39727E-05 31420   0.183E-02    0.400E-02
DAV:  10    -0.796852335338E+03   -0.42398E-04   -0.37630E-05 26030   0.157E-02    0.346E-02
DAV:  11    -0.796852375161E+03   -0.39823E-04   -0.33497E-05 30580   0.160E-02    0.286E-02
DAV:  12    -0.796852422793E+03   -0.47632E-04   -0.86855E-05 36040   0.288E-02    0.196E-02
DAV:  13    -0.796852449093E+03   -0.26300E-04   -0.11200E-04 33360   0.225E-02    0.159E-02
DAV:  14    -0.796852460520E+03   -0.11427E-04   -0.27955E-05 21420   0.101E-02    0.108E-02
DAV:  15    -0.796852463147E+03   -0.26271E-05   -0.43809E-06 17360   0.466E-03
  43 F= -.79685246E+03 E0= -.79685246E+03  d E =-.139114E-01  mag=    47.0000
       N       E                     dE             d eps       ncg     rms          rms(c)
DAV:   1    -0.796849827484E+03    0.26330E-02   -0.34906E-01 35550   0.188E+00    0.219E-01
DAV:   2    -0.796853515264E+03   -0.36878E-02   -0.39168E-02 33580   0.376E-01    0.149E-01
DAV:   3    -0.796853737331E+03   -0.22207E-03   -0.13918E-03 40380   0.886E-02    0.874E-02
DAV:   4    -0.796853720452E+03    0.16879E-04   -0.11139E-04 42270   0.307E-02    0.622E-02
DAV:   5    -0.796853725770E+03   -0.53183E-05   -0.99513E-05 37570   0.270E-02
  44 F= -.79685373E+03 E0= -.79685373E+03  d E =-.126262E-02  mag=    47.0000
       N       E                     dE             d eps       ncg     rms          rms(c)
DAV:   1    -0.796840734534E+03    0.12986E-01   -0.15716E+00 35100   0.358E+00    0.411E-01
DAV:   2    -0.796853549350E+03   -0.12815E-01   -0.13072E-01 33130   0.678E-01    0.261E-01
DAV:   3    -0.796854208481E+03   -0.65913E-03   -0.30437E-03 38420   0.134E-01    0.153E-01
DAV:   4    -0.796854205854E+03    0.26263E-05   -0.28076E-04 43150   0.535E-02    0.117E-01
DAV:   5    -0.796854278731E+03   -0.72877E-04   -0.23268E-04 43580   0.456E-02    0.597E-02
DAV:   6    -0.796854327932E+03   -0.49201E-04   -0.82072E-05 36250   0.259E-02    0.496E-02
DAV:   7    -0.796854358979E+03   -0.31046E-04   -0.26598E-05 23650   0.145E-02    0.432E-02
DAV:   8    -0.796854410651E+03   -0.51672E-04   -0.30547E-05 28410   0.170E-02    0.367E-02
DAV:   9    -0.796854465570E+03   -0.54919E-04   -0.60482E-05 33920   0.207E-02    0.301E-02
DAV:  10    -0.796854506410E+03   -0.40840E-04   -0.60600E-05 30090   0.192E-02    0.251E-02
DAV:  11    -0.796854535018E+03   -0.28608E-04   -0.48112E-05 30660   0.178E-02    0.189E-02
DAV:  12    -0.796854554063E+03   -0.19045E-04   -0.66814E-05 34740   0.233E-02    0.117E-02
DAV:  13    -0.796854566087E+03   -0.12024E-04   -0.52372E-05 27420   0.138E-02    0.104E-02
DAV:  14    -0.796854569563E+03   -0.34755E-05   -0.73270E-06 18450   0.547E-03
  45 F= -.79685457E+03 E0= -.79685457E+03  d E =-.843793E-03  mag=    47.0000
       N       E                     dE             d eps       ncg     rms          rms(c)
DAV:   1    -0.796822054032E+03    0.32512E-01   -0.38086E+00 35060   0.544E+00    0.618E-01
DAV:   2    -0.796851495986E+03   -0.29442E-01   -0.29874E-01 32590   0.102E+00    0.373E-01
DAV:   3    -0.796852904533E+03   -0.14085E-02   -0.59714E-03 38990   0.183E-01    0.218E-01
DAV:   4    -0.796852868695E+03    0.35838E-04   -0.56356E-04 43810   0.742E-02    0.161E-01
DAV:   5    -0.796852996110E+03   -0.12742E-03   -0.41401E-04 44260   0.641E-02    0.764E-02
DAV:   6    -0.796853081912E+03   -0.85802E-04   -0.16009E-04 39130   0.364E-02    0.646E-02
DAV:   7    -0.796853130059E+03   -0.48147E-04   -0.37478E-05 26040   0.184E-02    0.551E-02
DAV:   8    -0.796853236085E+03   -0.10603E-03   -0.76758E-05 36540   0.276E-02    0.443E-02
DAV:   9    -0.796853315897E+03   -0.79812E-04   -0.11014E-04 34680   0.250E-02    0.375E-02
DAV:  10    -0.796853366762E+03   -0.50865E-04   -0.53427E-05 30120   0.190E-02    0.315E-02
DAV:  11    -0.796853416374E+03   -0.49612E-04   -0.76557E-05 35060   0.251E-02    0.232E-02
DAV:  12    -0.796853444313E+03   -0.27939E-04   -0.14860E-04 40480   0.353E-02    0.163E-02
DAV:  13    -0.796853466961E+03   -0.22648E-04   -0.84581E-05 28110   0.173E-02    0.129E-02
DAV:  14    -0.796853469935E+03   -0.29744E-05   -0.40774E-06 17530   0.438E-03
  46 F= -.79685347E+03 E0= -.79685347E+03  d E =0.109963E-02  mag=    47.0000
       N       E                     dE             d eps       ncg     rms          rms(c)
DAV:   1    -0.796677239993E+03    0.17623E+00   -0.19154E+01 35290   0.124E+01    0.142E+00
DAV:   2    -0.796831021205E+03   -0.15378E+00   -0.15585E+00 32410   0.231E+00    0.844E-01
DAV:   3    -0.796838764684E+03   -0.77435E-02   -0.30910E-02 38450   0.410E-01    0.488E-01
DAV:   4    -0.796838658804E+03    0.10588E-03   -0.28674E-03 43710   0.163E-01    0.360E-01
DAV:   5    -0.796839360386E+03   -0.70158E-03   -0.19571E-03 44080   0.138E-01    0.173E-01
DAV:   6    -0.796839807688E+03   -0.44730E-03   -0.78357E-04 39230   0.784E-02    0.147E-01
DAV:   7    -0.796840064188E+03   -0.25650E-03   -0.18211E-04 37170   0.390E-02    0.125E-01
DAV:   8    -0.796840619142E+03   -0.55495E-03   -0.40144E-04 44140   0.622E-02    0.101E-01
DAV:   9    -0.796841039463E+03   -0.42032E-03   -0.50993E-04 42320   0.583E-02    0.854E-02
DAV:  10    -0.796841300094E+03   -0.26063E-03   -0.27322E-04 41200   0.430E-02    0.709E-02
DAV:  11    -0.796841545539E+03   -0.24545E-03   -0.34589E-04 42180   0.551E-02    0.538E-02
DAV:  12    -0.796841686732E+03   -0.14119E-03   -0.62815E-04 42200   0.740E-02    0.355E-02
DAV:  13    -0.796841788995E+03   -0.10226E-03   -0.39345E-04 38600   0.367E-02    0.296E-02
DAV:  14    -0.796841805297E+03   -0.16302E-04   -0.22217E-05 21960   0.934E-03    0.228E-02
DAV:  15    -0.796841808150E+03   -0.28533E-05   -0.19612E-06 16520   0.468E-03
  47 F= -.79684181E+03 E0= -.79684181E+03  d E =0.116618E-01  mag=    47.0000
       N       E                     dE             d eps       ncg     rms          rms(c)
DAV:   1    -0.794985821967E+03    0.18560E+01   -0.20054E+02 35250   0.405E+01    0.466E+00
DAV:   2    -0.796626908933E+03   -0.16411E+01   -0.16623E+01 32580   0.758E+00    0.284E+00
DAV:   3    -0.796708490894E+03   -0.81582E-01   -0.33094E-01 38700   0.138E+00    0.161E+00
DAV:   4    -0.796707641975E+03    0.84892E-03   -0.30681E-02 43210   0.547E-01    0.120E+00
DAV:   5    -0.796714277549E+03   -0.66356E-02   -0.20802E-02 44310   0.459E-01    0.576E-01
DAV:   6    -0.796719235423E+03   -0.49579E-02   -0.85636E-03 39130   0.255E-01    0.475E-01
DAV:   7    -0.796721855197E+03   -0.26198E-02   -0.19427E-03 40020   0.127E-01    0.400E-01
DAV:   8    -0.796727278657E+03   -0.54235E-02   -0.37130E-03 44440   0.190E-01    0.321E-01
DAV:   9    -0.796731398227E+03   -0.41196E-02   -0.48266E-03 42050   0.182E-01    0.269E-01
DAV:  10    -0.796733726170E+03   -0.23279E-02   -0.24159E-03 41250   0.124E-01    0.224E-01
DAV:  11    -0.796735853114E+03   -0.21269E-02   -0.23673E-03 42010   0.144E-01    0.176E-01
DAV:  12    -0.796737311370E+03   -0.14583E-02   -0.40588E-03 41770   0.183E-01    0.126E-01
DAV:  13    -0.796738207807E+03   -0.89644E-03   -0.27642E-03 40510   0.974E-02    0.984E-02
DAV:  14    -0.796738432912E+03   -0.22511E-03   -0.24091E-04 32530   0.298E-02    0.738E-02
DAV:  15    -0.796738589126E+03   -0.15621E-03   -0.85197E-05 36530   0.278E-02    0.602E-02
DAV:  16    -0.796738761461E+03   -0.17233E-03   -0.28465E-04 43150   0.531E-02    0.477E-02
DAV:  17    -0.796738874833E+03   -0.11337E-03   -0.27082E-04 39390   0.356E-02    0.427E-02
DAV:  18    -0.796738933755E+03   -0.58922E-04   -0.70596E-05 29580   0.200E-02    0.350E-02
DAV:  19    -0.796738987560E+03   -0.53805E-04   -0.73503E-05 34850   0.227E-02    0.301E-02
DAV:  20    -0.796739035677E+03   -0.48116E-04   -0.10730E-04 36260   0.282E-02    0.235E-02
DAV:  21    -0.796739069090E+03   -0.33413E-04   -0.94059E-05 28710   0.193E-02    0.201E-02
DAV:  22    -0.796739082762E+03   -0.13672E-04   -0.23176E-05 22810   0.959E-03    0.155E-02
DAV:  23    -0.796739086122E+03   -0.33595E-05   -0.32135E-06 17270   0.433E-03
  48 F= -.79673909E+03 E0= -.79673909E+03  d E =0.102722E+00  mag=    47.0000
       N       E                     dE             d eps       ncg     rms          rms(c)
DAV:   1    -0.793178678634E+03    0.35604E+01   -0.35807E+02 35400   0.550E+01    0.641E+00
DAV:   2    -0.796269942399E+03   -0.30913E+01   -0.31399E+01 32570   0.104E+01    0.383E+00
DAV:   3    -0.796423807238E+03   -0.15386E+00   -0.66709E-01 38780   0.195E+00    0.219E+00
DAV:   4    -0.796421414729E+03    0.23925E-02   -0.59306E-02 42630   0.737E-01    0.155E+00
DAV:   5    -0.796430843248E+03   -0.94285E-02   -0.37214E-02 44410   0.604E-01    0.769E-01
DAV:   6    -0.796439258867E+03   -0.84156E-02   -0.15094E-02 39350   0.344E-01    0.587E-01
DAV:   7    -0.796443175710E+03   -0.39168E-02   -0.36958E-03 40330   0.171E-01    0.495E-01
DAV:   8    -0.796450270654E+03   -0.70949E-02   -0.41215E-03 43990   0.196E-01    0.410E-01
DAV:   9    -0.796456683448E+03   -0.64128E-02   -0.60894E-03 42070   0.211E-01    0.349E-01
DAV:  10    -0.796460649294E+03   -0.39658E-02   -0.36467E-03 41120   0.158E-01    0.296E-01
DAV:  11    -0.796464417654E+03   -0.37684E-02   -0.40285E-03 41510   0.188E-01    0.234E-01
DAV:  12    -0.796467179889E+03   -0.27622E-02   -0.71989E-03 41400   0.246E-01    0.170E-01
DAV:  13    -0.796468867556E+03   -0.16877E-02   -0.51439E-03 40360   0.136E-01    0.139E-01
DAV:  14    -0.796469317692E+03   -0.45014E-03   -0.56955E-04 33990   0.445E-02    0.102E-01
DAV:  15    -0.796469559826E+03   -0.24213E-03   -0.97512E-05 36900   0.294E-02    0.866E-02
DAV:  16    -0.796469917568E+03   -0.35774E-03   -0.53804E-04 44410   0.773E-02    0.663E-02
DAV:  17    -0.796470153475E+03   -0.23591E-03   -0.58620E-04 42160   0.539E-02    0.582E-02
DAV:  18    -0.796470275378E+03   -0.12190E-03   -0.16625E-04 37310   0.323E-02    0.472E-02
DAV:  19    -0.796470364107E+03   -0.88729E-04   -0.13289E-04 34600   0.272E-02    0.400E-02
DAV:  20    -0.796470438979E+03   -0.74872E-04   -0.13126E-04 38270   0.341E-02    0.286E-02
DAV:  21    -0.796470488389E+03   -0.49410E-04   -0.18246E-04 36130   0.308E-02    0.243E-02
DAV:  22    -0.796470513454E+03   -0.25065E-04   -0.55652E-05 24810   0.154E-02    0.207E-02
DAV:  23    -0.796470516242E+03   -0.27886E-05   -0.40432E-06 17350   0.507E-03
  49 F= -.79647052E+03 E0= -.79647052E+03  d E =0.268570E+00  mag=    47.0000
       N       E                     dE             d eps       ncg     rms          rms(c)
DAV:   1    -0.796078224298E+03    0.39229E+00   -0.57173E+01 35190   0.221E+01    0.253E+00
DAV:   2    -0.796581252393E+03   -0.50303E+00   -0.51871E+00 33160   0.429E+00    0.179E+00
DAV:   3    -0.796605193661E+03   -0.23941E-01   -0.13929E-01 37740   0.943E-01    0.980E-01
DAV:   4    -0.796603607966E+03    0.15857E-02   -0.13144E-02 42390   0.376E-01    0.776E-01
DAV:   5    -0.796603775102E+03   -0.16714E-03   -0.10827E-02 42760   0.299E-01    0.307E-01
DAV:   6    -0.796604722096E+03   -0.94699E-03   -0.27839E-03 39480   0.152E-01    0.208E-01
DAV:   7    -0.796605081384E+03   -0.35929E-03   -0.97728E-04 39900   0.736E-02    0.160E-01
DAV:   8    -0.796605467427E+03   -0.38604E-03   -0.22965E-04 41180   0.476E-02    0.136E-01
DAV:   9    -0.796605954386E+03   -0.48696E-03   -0.31008E-04 41940   0.519E-02    0.113E-01
DAV:  10    -0.796606341191E+03   -0.38681E-03   -0.32236E-04 39760   0.469E-02    0.994E-02
DAV:  11    -0.796606710503E+03   -0.36931E-03   -0.31680E-04 42260   0.518E-02    0.806E-02
DAV:  12    -0.796607075058E+03   -0.36455E-03   -0.85289E-04 43430   0.864E-02    0.543E-02
DAV:  13    -0.796607273904E+03   -0.19885E-03   -0.64100E-04 42160   0.533E-02    0.433E-02
DAV:  14    -0.796607347375E+03   -0.73471E-04   -0.13643E-04 33290   0.223E-02    0.280E-02
DAV:  15    -0.796607367471E+03   -0.20096E-04   -0.24787E-05 22400   0.103E-02    0.243E-02
DAV:  16    -0.796607384480E+03   -0.17008E-04   -0.65213E-06 17890   0.109E-02    0.190E-02
DAV:  17    -0.796607401708E+03   -0.17228E-04   -0.62577E-05 33340   0.202E-02    0.162E-02
DAV:  18    -0.796607411452E+03   -0.97444E-05   -0.22113E-05 21790   0.984E-03
  50 F= -.79660741E+03 E0= -.79660741E+03  d E =-.136895E+00  mag=    47.0000
       N       E                     dE             d eps       ncg     rms          rms(c)
DAV:   1    -0.795661540013E+03    0.94586E+00   -0.12092E+02 34820   0.314E+01    0.359E+00
DAV:   2    -0.796666963800E+03   -0.10054E+01   -0.10197E+01 32400   0.594E+00    0.210E+00
DAV:   3    -0.796715004512E+03   -0.48041E-01   -0.20239E-01 38590   0.103E+00    0.121E+00
DAV:   4    -0.796713708243E+03    0.12963E-02   -0.17846E-02 44890   0.378E-01    0.863E-01
DAV:   5    -0.796717477874E+03   -0.37696E-02   -0.11061E-02 44600   0.327E-01    0.391E-01
DAV:   6    -0.796719716585E+03   -0.22387E-02   -0.43324E-03 39060   0.188E-01    0.325E-01
DAV:   7    -0.796720876729E+03   -0.11601E-02   -0.10166E-03 40110   0.971E-02    0.272E-01
DAV:   8    -0.796723265729E+03   -0.23890E-02   -0.15954E-03 43950   0.121E-01    0.223E-01
DAV:   9    -0.796725156364E+03   -0.18906E-02   -0.19047E-03 41840   0.113E-01    0.192E-01
DAV:  10    -0.796726406216E+03   -0.12499E-02   -0.10174E-03 41250   0.875E-02    0.165E-01
DAV:  11    -0.796727719476E+03   -0.13133E-02   -0.16161E-03 42520   0.123E-01    0.129E-01
DAV:  12    -0.796728565632E+03   -0.84616E-03   -0.33580E-03 42040   0.172E-01    0.934E-02
DAV:  13    -0.796729203838E+03   -0.63821E-03   -0.21120E-03 40100   0.868E-02    0.752E-02
DAV:  14    -0.796729324747E+03   -0.12091E-03   -0.14930E-04 30370   0.236E-02    0.576E-02
DAV:  15    -0.796729352661E+03   -0.27914E-04   -0.10119E-05 19370   0.105E-02    0.517E-02
DAV:  16    -0.796729443990E+03   -0.91328E-04   -0.59593E-05 34320   0.346E-02    0.380E-02
DAV:  17    -0.796729520096E+03   -0.76107E-04   -0.28189E-04 38680   0.358E-02    0.354E-02
DAV:  18    -0.796729556975E+03   -0.36879E-04   -0.68882E-05 27350   0.161E-02    0.289E-02
DAV:  19    -0.796729579227E+03   -0.22252E-04   -0.17133E-05 23220   0.132E-02    0.259E-02
DAV:  20    -0.796729607828E+03   -0.28600E-04   -0.67115E-05 33640   0.217E-02    0.195E-02
DAV:  21    -0.796729628831E+03   -0.21003E-04   -0.57980E-05 28890   0.167E-02    0.185E-02
DAV:  22    -0.796729638769E+03   -0.99388E-05   -0.17366E-05 21200   0.850E-03
  51 F= -.79672964E+03 E0= -.79672964E+03  d E =-.122227E+00  mag=    47.0000
       N       E                     dE             d eps       ncg     rms          rms(c)
DAV:   1    -0.796487212291E+03    0.24242E+00   -0.30347E+01 34760   0.149E+01    0.166E+00
DAV:   2    -0.796700207440E+03   -0.21300E+00   -0.21930E+00 33320   0.298E+00    0.164E+00
DAV:   3    -0.796706440887E+03   -0.62334E-02   -0.66598E-02 37360   0.760E-01    0.805E-01
DAV:   4    -0.796706162192E+03    0.27870E-03   -0.61949E-03 41990   0.282E-01    0.741E-01
DAV:   5    -0.796705729988E+03    0.43220E-03   -0.61867E-03 42080   0.234E-01    0.251E-01
DAV:   6    -0.796706222858E+03   -0.49287E-03   -0.16808E-03 39620   0.109E-01    0.144E-01
DAV:   7    -0.796706361037E+03   -0.13818E-03   -0.38075E-04 39440   0.488E-02    0.113E-01
DAV:   8    -0.796706525237E+03   -0.16420E-03   -0.98669E-05 37230   0.330E-02    0.937E-02
DAV:   9    -0.796706758270E+03   -0.23303E-03   -0.17604E-04 42430   0.405E-02    0.756E-02
DAV:  10    -0.796706915220E+03   -0.15695E-03   -0.15715E-04 36870   0.313E-02    0.666E-02
DAV:  11    -0.796707055353E+03   -0.14013E-03   -0.10829E-04 35660   0.281E-02    0.559E-02
DAV:  12    -0.796707227070E+03   -0.17172E-03   -0.29663E-04 43020   0.526E-02    0.397E-02
DAV:  13    -0.796707319068E+03   -0.91998E-04   -0.29528E-04 40300   0.396E-02    0.320E-02
DAV:  14    -0.796707360711E+03   -0.41643E-04   -0.88627E-05 30980   0.207E-02    0.220E-02
DAV:  15    -0.796707376260E+03   -0.15549E-04   -0.28844E-05 21540   0.101E-02    0.184E-02
DAV:  16    -0.796707382674E+03   -0.64141E-05   -0.31908E-06 16750   0.525E-03
  52 F= -.79670738E+03 E0= -.79670738E+03  d E =0.222561E-01  mag=    47.0000
       N       E                     dE             d eps       ncg     rms          rms(c)
DAV:   1    -0.796218548864E+03    0.48883E+00   -0.40635E+01 34880   0.179E+01    0.208E+00
DAV:   2    -0.796566219840E+03   -0.34767E+00   -0.35157E+00 33170   0.347E+00    0.153E+00
DAV:   3    -0.796580198921E+03   -0.13979E-01   -0.79859E-02 39270   0.758E-01    0.816E-01
DAV:   4    -0.796579858549E+03    0.34037E-03   -0.79675E-03 42660   0.316E-01    0.682E-01
DAV:   5    -0.796580517803E+03   -0.65925E-03   -0.60893E-03 44220   0.241E-01    0.268E-01
DAV:   6    -0.796581529841E+03   -0.10120E-02   -0.19936E-03 39100   0.114E-01    0.200E-01
DAV:   7    -0.796581958307E+03   -0.42847E-03   -0.42303E-04 40490   0.575E-02    0.168E-01
DAV:   8    -0.796582618843E+03   -0.66054E-03   -0.35172E-04 43520   0.590E-02    0.143E-01
DAV:   9    -0.796583414963E+03   -0.79612E-03   -0.68569E-04 41930   0.771E-02    0.118E-01
DAV:  10    -0.796583830255E+03   -0.41529E-03   -0.52855E-04 40880   0.504E-02    0.102E-01
DAV:  11    -0.796584286821E+03   -0.45657E-03   -0.40654E-04 43510   0.634E-02    0.784E-02
DAV:  12    -0.796584621699E+03   -0.33488E-03   -0.10591E-03 42620   0.911E-02    0.538E-02
DAV:  13    -0.796584818128E+03   -0.19643E-03   -0.63898E-04 42060   0.522E-02    0.411E-02
DAV:  14    -0.796584888608E+03   -0.70480E-04   -0.13379E-04 31200   0.201E-02    0.318E-02
DAV:  15    -0.796584902424E+03   -0.13816E-04   -0.77382E-06 18880   0.745E-03    0.272E-02
DAV:  16    -0.796584926504E+03   -0.24080E-04   -0.10097E-05 21550   0.132E-02    0.211E-02
DAV:  17    -0.796584949572E+03   -0.23069E-04   -0.79314E-05 34920   0.212E-02    0.186E-02
DAV:  18    -0.796584962049E+03   -0.12477E-04   -0.26067E-05 22920   0.102E-02    0.150E-02
DAV:  19    -0.796584970284E+03   -0.82342E-05   -0.70794E-06 18790   0.973E-03
  53 F= -.79658497E+03 E0= -.79658497E+03  d E =0.122412E+00  mag=    47.0000
       N       E                     dE             d eps       ncg     rms          rms(c)
[...]
DAV:  11    -0.796410713153E+03   -0.12557E-03   -0.85012E-05 38420   0.264E-02    0.505E-02
DAV:  12    -0.796410888902E+03   -0.17575E-03   -0.35007E-04 42880   0.583E-02    0.366E-02
DAV:  13    -0.796410983149E+03   -0.94248E-04   -0.33434E-04 41530   0.403E-02    0.279E-02
DAV:  14    -0.796411022543E+03   -0.39394E-04   -0.89809E-05 32940   0.216E-02    0.186E-02
DAV:  15    -0.796411038842E+03   -0.16299E-04   -0.37633E-05 22550   0.109E-02    0.150E-02
DAV:  16    -0.796411043676E+03   -0.48335E-05   -0.39466E-06 17850   0.467E-03
 188 F= -.79641104E+03 E0= -.79641104E+03  d E =0.150373E-01  mag=    47.0000
       N       E                     dE             d eps       ncg     rms          rms(c)
DAV:   1    -0.794221280370E+03    0.21898E+01   -0.13797E+02 35170   0.407E+01    0.515E+00
DAV:   2    -0.796099176076E+03   -0.18779E+01   -0.19897E+01 33600   0.826E+00    0.331E+00
DAV:   3    -0.796208479433E+03   -0.10930E+00   -0.68402E-01 40320   0.197E+00    0.186E+00
DAV:   4    -0.796198988575E+03    0.94909E-02   -0.60816E-02 44260   0.717E-01    0.128E+00
DAV:   5    -0.796196185270E+03    0.28033E-02   -0.41006E-02 40110   0.580E-01    0.578E-01
DAV:   6    -0.796197768560E+03   -0.15833E-02   -0.86009E-03 39210   0.325E-01    0.335E-01
DAV:   7    -0.796198350480E+03   -0.58192E-03   -0.37335E-03 41260   0.152E-01    0.225E-01
DAV:   8    -0.796198835455E+03   -0.48497E-03   -0.64327E-04 40920   0.781E-02    0.170E-01
DAV:   9    -0.796199333233E+03   -0.49778E-03   -0.42154E-04 40810   0.611E-02    0.135E-01
DAV:  10    -0.796199709364E+03   -0.37613E-03   -0.32105E-04 39900   0.460E-02    0.115E-01
DAV:  11    -0.796200014311E+03   -0.30495E-03   -0.19780E-04 38380   0.387E-02    0.103E-01
DAV:  12    -0.796200478078E+03   -0.46377E-03   -0.40837E-04 43590   0.587E-02    0.831E-02
DAV:  13    -0.796200916861E+03   -0.43878E-03   -0.96561E-04 42890   0.902E-02    0.658E-02
DAV:  14    -0.796201157865E+03   -0.24100E-03   -0.72130E-04 42000   0.589E-02    0.493E-02
DAV:  15    -0.796201259136E+03   -0.10127E-03   -0.17827E-04 35890   0.292E-02    0.362E-02
DAV:  16    -0.796201302335E+03   -0.43198E-04   -0.73286E-05 27640   0.159E-02    0.273E-02
DAV:  17    -0.796201327018E+03   -0.24683E-04   -0.21017E-05 24040   0.118E-02    0.213E-02
DAV:  18    -0.796201345194E+03   -0.18177E-04   -0.30369E-05 29010   0.145E-02    0.169E-02
DAV:  19    -0.796201357028E+03   -0.11833E-04   -0.25249E-05 24360   0.103E-02    0.145E-02
DAV:  20    -0.796201365475E+03   -0.84475E-05   -0.93371E-06 20070   0.751E-03
 189 F= -.79620137E+03 E0= -.79620137E+03  d E =0.209678E+00  mag=    47.0000
       N       E                     dE             d eps       ncg     rms          rms(c)
DAV:   1    -0.795356990016E+03    0.84437E+00   -0.73665E+01 35580   0.312E+01    0.391E+00
DAV:   2    -0.796445970720E+03   -0.10890E+01   -0.11779E+01 33660   0.628E+00    0.279E+00
DAV:   3    -0.796513867180E+03   -0.67896E-01   -0.45045E-01 41300   0.159E+00    0.157E+00
DAV:   4    -0.796506762412E+03    0.71048E-02   -0.42499E-02 42090   0.598E-01    0.115E+00
DAV:   5    -0.796504173979E+03    0.25884E-02   -0.33058E-02 39440   0.493E-01    0.486E-01
DAV:   6    -0.796504952899E+03   -0.77892E-03   -0.61368E-03 38280   0.280E-01    0.280E-01
DAV:   7    -0.796505205280E+03   -0.25238E-03   -0.31839E-03 42050   0.132E-01    0.171E-01
DAV:   8    -0.796505379188E+03   -0.17391E-03   -0.40251E-04 38220   0.627E-02    0.118E-01
DAV:   9    -0.796505542468E+03   -0.16328E-03   -0.21647E-04 40980   0.498E-02    0.854E-02
DAV:  10    -0.796505666820E+03   -0.12435E-03   -0.13612E-04 37170   0.319E-02    0.682E-02
DAV:  11    -0.796505749836E+03   -0.83017E-04   -0.61933E-05 30960   0.223E-02    0.592E-02
DAV:  12    -0.796505870685E+03   -0.12085E-03   -0.91742E-05 36860   0.263E-02    0.492E-02
DAV:  13    -0.796505992894E+03   -0.12221E-03   -0.15376E-04 38130   0.363E-02    0.391E-02
DAV:  14    -0.796506071296E+03   -0.78401E-04   -0.17230E-04 37960   0.336E-02    0.320E-02
DAV:  15    -0.796506112817E+03   -0.41522E-04   -0.80937E-05 30720   0.198E-02    0.226E-02
DAV:  16    -0.796506132432E+03   -0.19615E-04   -0.31159E-05 24360   0.128E-02    0.174E-02
DAV:  17    -0.796506144114E+03   -0.11681E-04   -0.18672E-05 24000   0.950E-03    0.127E-02
DAV:  18    -0.796506150515E+03   -0.64010E-05   -0.88013E-06 19690   0.697E-03
 190 F= -.79650615E+03 E0= -.79650615E+03  d E =-.304785E+00  mag=    47.0000
       N       E                     dE             d eps       ncg     rms          rms(c)
DAV:   1    -0.796510417411E+03   -0.42733E-02   -0.39538E-01 34790   0.174E+00    0.211E-01
DAV:   2    -0.796513656913E+03   -0.32395E-02   -0.32988E-02 33280   0.334E-01    0.149E-01
DAV:   3    -0.796513814687E+03   -0.15777E-03   -0.79487E-04 38740   0.730E-02    0.788E-02
DAV:   4    -0.796513808357E+03    0.63301E-05   -0.79379E-05 37740   0.304E-02
 191 F= -.79651381E+03 E0= -.79651381E+03  d E =-.765784E-02  mag=    47.0000
       N       E                     dE             d eps       ncg     rms          rms(c)
DAV:   1    -0.795577766646E+03    0.93605E+00   -0.99438E+01 35170   0.292E+01    0.357E+00
DAV:   2    -0.796483177789E+03   -0.90541E+00   -0.93371E+00 33340   0.566E+00    0.239E+00
DAV:   3    -0.796530044729E+03   -0.46867E-01   -0.24607E-01 39410   0.122E+00    0.128E+00
DAV:   4    -0.796526985513E+03    0.30592E-02   -0.23697E-02 44100   0.489E-01    0.992E-01
DAV:   5    -0.796527496700E+03   -0.51119E-03   -0.17541E-02 41650   0.376E-01    0.393E-01
DAV:   6    -0.796529011468E+03   -0.15148E-02   -0.46712E-03 39720   0.203E-01    0.283E-01
DAV:   7    -0.796529637081E+03   -0.62561E-03   -0.15095E-03 39520   0.979E-02    0.214E-01
DAV:   8    -0.796530377583E+03   -0.74050E-03   -0.44474E-04 41710   0.647E-02    0.183E-01
DAV:   9    -0.796531236684E+03   -0.85910E-03   -0.56570E-04 41530   0.704E-02    0.154E-01
DAV:  10    -0.796531962974E+03   -0.72629E-03   -0.65332E-04 40170   0.638E-02    0.136E-01
DAV:  11    -0.796532652581E+03   -0.68961E-03   -0.62109E-04 42190   0.686E-02    0.111E-01
DAV:  12    -0.796533377638E+03   -0.72506E-03   -0.18172E-03 42810   0.119E-01    0.780E-02
DAV:  13    -0.796533778593E+03   -0.40096E-03   -0.13417E-03 42130   0.755E-02    0.584E-02
DAV:  14    -0.796533936817E+03   -0.15822E-03   -0.31691E-04 36290   0.330E-02    0.394E-02
DAV:  15    -0.796533983508E+03   -0.46691E-04   -0.61271E-05 25750   0.144E-02    0.324E-02
DAV:  16    -0.796534016958E+03   -0.33450E-04   -0.18726E-05 23040   0.163E-02    0.242E-02
DAV:  17    -0.796534043914E+03   -0.26956E-04   -0.13501E-04 37010   0.274E-02    0.193E-02
DAV:  18    -0.796534062186E+03   -0.18272E-04   -0.41642E-05 24650   0.127E-02    0.161E-02
DAV:  19    -0.796534069223E+03   -0.70368E-05   -0.47234E-06 16880   0.659E-03
 192 F= -.79653407E+03 E0= -.79653407E+03  d E =-.202609E-01  mag=    47.0000
       N       E                     dE             d eps       ncg     rms          rms(c)
DAV:   1    -0.793044920000E+03    0.34891E+01   -0.20871E+02 35450   0.517E+01    0.672E+00
DAV:   2    -0.796072713964E+03   -0.30278E+01   -0.32770E+01 33700   0.106E+01    0.475E+00
DAV:   3    -0.796255861775E+03   -0.18315E+00   -0.12729E+00 41150   0.269E+00    0.259E+00
DAV:   4    -0.796235334391E+03    0.20527E-01   -0.12150E-01 42340   0.101E+00    0.190E+00
DAV:   5    -0.796225627624E+03    0.97068E-02   -0.84485E-02 39020   0.747E-01    0.780E-01
DAV:   6    -0.796228111953E+03   -0.24843E-02   -0.16041E-02 36590   0.424E-01    0.457E-01
DAV:   7    -0.796228673486E+03   -0.56153E-03   -0.77656E-03 41490   0.204E-01    0.269E-01
DAV:   8    -0.796229038288E+03   -0.36480E-03   -0.91369E-04 38210   0.929E-02    0.185E-01
DAV:   9    -0.796229413817E+03   -0.37553E-03   -0.55137E-04 40900   0.745E-02    0.127E-01
DAV:  10    -0.796229662116E+03   -0.24830E-03   -0.29385E-04 39400   0.473E-02    0.994E-02
DAV:  11    -0.796229819252E+03   -0.15714E-03   -0.12696E-04 35160   0.307E-02    0.864E-02
DAV:  12    -0.796230068479E+03   -0.24923E-03   -0.15809E-04 39660   0.361E-02    0.736E-02
DAV:  13    -0.796230329714E+03   -0.26124E-03   -0.27961E-04 42360   0.487E-02    0.606E-02
DAV:  14    -0.796230515802E+03   -0.18609E-03   -0.32043E-04 41510   0.477E-02    0.507E-02
DAV:  15    -0.796230621410E+03   -0.10561E-03   -0.17615E-04 36310   0.301E-02    0.386E-02
DAV:  16    -0.796230680794E+03   -0.59384E-04   -0.75753E-05 31190   0.212E-02    0.300E-02
DAV:  17    -0.796230721396E+03   -0.40602E-04   -0.63027E-05 31170   0.179E-02    0.232E-02
DAV:  18    -0.796230747717E+03   -0.26320E-04   -0.35432E-05 26030   0.129E-02    0.198E-02
DAV:  19    -0.796230763161E+03   -0.15445E-04   -0.15710E-05 20980   0.867E-03    0.169E-02
DAV:  20    -0.796230778801E+03   -0.15640E-04   -0.13149E-05 21550   0.121E-02    0.148E-02
DAV:  21    -0.796230792282E+03   -0.13481E-04   -0.42124E-05 30490   0.137E-02    0.127E-02
DAV:  22    -0.796230802267E+03   -0.99849E-05   -0.20342E-05 21320   0.918E-03
 193 F= -.79623080E+03 E0= -.79623080E+03  d E =0.303267E+00  mag=    47.0000
       N       E                     dE             d eps       ncg     rms          rms(c)
DAV:   1    -0.795239486324E+03    0.99131E+00   -0.87634E+01 35230   0.339E+01    0.434E+00
DAV:   2    -0.796548910114E+03   -0.13094E+01   -0.14193E+01 33710   0.683E+00    0.298E+00
DAV:   3    -0.796628658421E+03   -0.79748E-01   -0.52248E-01 40890   0.167E+00    0.164E+00
DAV:   4    -0.796620053277E+03    0.86051E-02   -0.49421E-02 43480   0.632E-01    0.119E+00
DAV:   5    -0.796616718501E+03    0.33348E-02   -0.35128E-02 38020   0.492E-01    0.467E-01
DAV:   6    -0.796617447774E+03   -0.72927E-03   -0.64294E-03 37710   0.288E-01    0.293E-01
DAV:   7    -0.796617640470E+03   -0.19270E-03   -0.33781E-03 42170   0.138E-01    0.164E-01
DAV:   8    -0.796617761012E+03   -0.12054E-03   -0.35719E-04 37710   0.597E-02    0.112E-01
DAV:   9    -0.796617894729E+03   -0.13372E-03   -0.22102E-04 41000   0.450E-02    0.748E-02
DAV:  10    -0.796617980793E+03   -0.86064E-04   -0.10207E-04 36480   0.293E-02    0.589E-02
DAV:  11    -0.796618034678E+03   -0.53885E-04   -0.43988E-05 27680   0.189E-02    0.506E-02
DAV:  12    -0.796618114953E+03   -0.80274E-04   -0.54038E-05 32270   0.209E-02    0.429E-02
DAV:  13    -0.796618204056E+03   -0.89103E-04   -0.95421E-05 36170   0.289E-02    0.350E-02
DAV:  14    -0.796618262404E+03   -0.58348E-04   -0.10865E-04 35070   0.250E-02    0.286E-02
DAV:  15    -0.796618295092E+03   -0.32689E-04   -0.49634E-05 26410   0.169E-02    0.218E-02
DAV:  16    -0.796618314036E+03   -0.18944E-04   -0.30467E-05 25730   0.130E-02    0.161E-02
DAV:  17    -0.796618325867E+03   -0.11831E-04   -0.19680E-05 23440   0.103E-02    0.129E-02
DAV:  18    -0.796618332846E+03   -0.69787E-05   -0.10966E-05 18440   0.720E-03
 194 F= -.79661833E+03 E0= -.79661833E+03  d E =-.387531E+00  mag=    47.0000
       N       E                     dE             d eps       ncg     rms          rms(c)
DAV:   1    -0.796612049742E+03    0.62761E-02   -0.89690E-01 35570   0.335E+00    0.415E-01
DAV:   2    -0.796624809142E+03   -0.12759E-01   -0.13558E-01 33630   0.669E-01    0.268E-01
DAV:   3    -0.796625556299E+03   -0.74716E-03   -0.46634E-03 39950   0.157E-01    0.152E-01
DAV:   4    -0.796625486201E+03    0.70098E-04   -0.41021E-04 44490   0.560E-02    0.106E-01
DAV:   5    -0.796625463411E+03    0.22790E-04   -0.27910E-04 38970   0.462E-02    0.436E-02
DAV:   6    -0.796625470871E+03   -0.74606E-05   -0.57331E-05 34890   0.268E-02
 195 F= -.79662547E+03 E0= -.79662547E+03  d E =-.713803E-02  mag=    47.0000
       N       E                     dE             d eps       ncg     rms          rms(c)
DAV:   1    -0.796574436586E+03    0.51027E-01   -0.68174E+00 35120   0.797E+00    0.909E-01
DAV:   2    -0.796639093129E+03   -0.64657E-01   -0.66224E-01 33010   0.151E+00    0.550E-01
DAV:   3    -0.796642139330E+03   -0.30462E-02   -0.15052E-02 39160   0.296E-01    0.303E-01
DAV:   4    -0.796641970291E+03    0.16904E-03   -0.13787E-03 44510   0.116E-01    0.221E-01
DAV:   5    -0.796641981361E+03   -0.11070E-04   -0.81515E-04 43780   0.920E-02    0.879E-02
DAV:   6    -0.796642065698E+03   -0.84336E-04   -0.25690E-04 40490   0.475E-02    0.580E-02
DAV:   7    -0.796642087027E+03   -0.21329E-04   -0.54722E-05 32110   0.211E-02    0.417E-02
DAV:   8    -0.796642116554E+03   -0.29527E-04   -0.20252E-05 23540   0.142E-02    0.349E-02
DAV:   9    -0.796642145301E+03   -0.28747E-04   -0.23754E-05 27490   0.127E-02    0.298E-02
DAV:  10    -0.796642164831E+03   -0.19530E-04   -0.16840E-05 22680   0.101E-02    0.266E-02
DAV:  11    -0.796642188267E+03   -0.23436E-04   -0.15968E-05 23280   0.122E-02    0.226E-02
DAV:  12    -0.796642216821E+03   -0.28554E-04   -0.70103E-05 35350   0.234E-02    0.150E-02
DAV:  13    -0.796642234530E+03   -0.17709E-04   -0.74079E-05 29270   0.171E-02    0.117E-02
DAV:  14    -0.796642242386E+03   -0.78555E-05   -0.18012E-05 22200   0.854E-03
 196 F= -.79664224E+03 E0= -.79664224E+03  d E =-.167715E-01  mag=    47.0000
       N       E                     dE             d eps       ncg     rms          rms(c)
DAV:   1    -0.795915537099E+03    0.72670E+00   -0.81105E+01 35230   0.272E+01    0.307E+00
DAV:   2    -0.796635447792E+03   -0.71991E+00   -0.73468E+00 32630   0.502E+00    0.174E+00
DAV:   3    -0.796669202394E+03   -0.33755E-01   -0.14732E-01 40010   0.883E-01    0.958E-01
DAV:   4    -0.796667377252E+03    0.18251E-02   -0.12997E-02 45380   0.332E-01    0.657E-01
DAV:   5    -0.796668106395E+03   -0.72914E-03   -0.69302E-03 45640   0.274E-01    0.254E-01
DAV:   6    -0.796668829266E+03   -0.72287E-03   -0.23985E-03 42130   0.154E-01    0.179E-01
DAV:   7    -0.796669008316E+03   -0.17905E-03   -0.41793E-04 39630   0.676E-02    0.126E-01
DAV:   8    -0.796669309195E+03   -0.30088E-03   -0.24105E-04 43260   0.455E-02    0.101E-01
DAV:   9    -0.796669558384E+03   -0.24919E-03   -0.20139E-04 40010   0.356E-02    0.880E-02
DAV:  10    -0.796669735847E+03   -0.17746E-03   -0.11944E-04 35150   0.277E-02    0.796E-02
DAV:  11    -0.796669971910E+03   -0.23606E-03   -0.19406E-04 40590   0.395E-02    0.651E-02
DAV:  12    -0.796670217296E+03   -0.24539E-03   -0.71977E-04 42510   0.782E-02    0.465E-02
DAV:  13    -0.796670372389E+03   -0.15509E-03   -0.58781E-04 42490   0.498E-02    0.353E-02
DAV:  14    -0.796670434790E+03   -0.62401E-04   -0.12404E-04 32560   0.212E-02    0.232E-02
DAV:  15    -0.796670453858E+03   -0.19069E-04   -0.27666E-05 23490   0.100E-02    0.186E-02
DAV:  16    -0.796670460588E+03   -0.67297E-05   -0.28419E-06 16640   0.493E-03
 197 F= -.79667046E+03 E0= -.79667046E+03  d E =-.282182E-01  mag=    47.0000
       N       E                     dE             d eps       ncg     rms          rms(c)
DAV:   1    -0.794366003475E+03    0.23045E+01   -0.24582E+02 34910   0.479E+01    0.542E+00
DAV:   2    -0.796594150099E+03   -0.22281E+01   -0.22923E+01 32920   0.885E+00    0.301E+00
DAV:   3    -0.796699307617E+03   -0.10516E+00   -0.47605E-01 39500   0.155E+00    0.167E+00
DAV:   4    -0.796692333572E+03    0.69740E-02   -0.40229E-02 45400   0.528E-01    0.109E+00
DAV:   5    -0.796693791485E+03   -0.14579E-02   -0.20157E-02 43420   0.434E-01    0.408E-01
DAV:   6    -0.796695449152E+03   -0.16577E-02   -0.67425E-03 42540   0.256E-01    0.270E-01
DAV:   7    -0.796695689739E+03   -0.24059E-03   -0.13569E-03 40920   0.117E-01    0.173E-01
DAV:   8    -0.796696049824E+03   -0.36009E-03   -0.41150E-04 41250   0.637E-02    0.130E-01
DAV:   9    -0.796696381515E+03   -0.33169E-03   -0.30079E-04 40230   0.442E-02    0.107E-01
DAV:  10    -0.796696608618E+03   -0.22710E-03   -0.17731E-04 37530   0.335E-02    0.967E-02
DAV:  11    -0.796696844809E+03   -0.23619E-03   -0.14879E-04 36460   0.318E-02    0.859E-02
DAV:  12    -0.796697249593E+03   -0.40478E-03   -0.61043E-04 43450   0.723E-02    0.644E-02
DAV:  13    -0.796697509760E+03   -0.26017E-03   -0.78520E-04 42330   0.666E-02    0.514E-02
DAV:  14    -0.796697655921E+03   -0.14616E-03   -0.37806E-04 41150   0.456E-02    0.357E-02
DAV:  15    -0.796697732367E+03   -0.76445E-04   -0.15170E-04 31970   0.233E-02    0.290E-02
DAV:  16    -0.796697758017E+03   -0.25650E-04   -0.29049E-05 23060   0.100E-02    0.216E-02
DAV:  17    -0.796697772738E+03   -0.14721E-04   -0.91489E-06 18740   0.841E-03    0.182E-02
DAV:  18    -0.796697784962E+03   -0.12224E-04   -0.20791E-05 24850   0.122E-02    0.143E-02
DAV:  19    -0.796697794010E+03   -0.90479E-05   -0.24667E-05 24730   0.937E-03
 198 F= -.79669779E+03 E0= -.79669779E+03  d E =-.273334E-01  mag=    47.0000
       N       E                     dE             d eps       ncg     rms          rms(c)
DAV:   1    -0.795639753752E+03    0.10580E+01   -0.10858E+02 34630   0.323E+01    0.366E+00
DAV:   2    -0.796648433637E+03   -0.10087E+01   -0.10410E+01 33220   0.596E+00    0.211E+00
DAV:   3    -0.796697815698E+03   -0.49382E-01   -0.23756E-01 39510   0.113E+00    0.116E+00
DAV:   4    -0.796694261468E+03    0.35542E-02   -0.19945E-02 45240   0.387E-01    0.775E-01
DAV:   5    -0.796694233766E+03    0.27702E-04   -0.11018E-02 42740   0.316E-01    0.289E-01
DAV:   6    -0.796694914481E+03   -0.68071E-03   -0.32731E-03 42590   0.182E-01    0.178E-01
DAV:   7    -0.796694948126E+03   -0.33645E-04   -0.74695E-04 42350   0.808E-02    0.968E-02
DAV:   8    -0.796694987172E+03   -0.39046E-04   -0.12320E-04 39140   0.385E-02    0.625E-02
DAV:   9    -0.796695032224E+03   -0.45051E-04   -0.80741E-05 37800   0.271E-02    0.428E-02
DAV:  10    -0.796695057623E+03   -0.25399E-04   -0.33191E-05 25450   0.167E-02    0.358E-02
DAV:  11    -0.796695076407E+03   -0.18784E-04   -0.14505E-05 19200   0.109E-02    0.320E-02
DAV:  12    -0.796695106619E+03   -0.30212E-04   -0.17595E-05 22480   0.128E-02    0.273E-02
DAV:  13    -0.796695144046E+03   -0.37426E-04   -0.66328E-05 33170   0.201E-02    0.204E-02
DAV:  14    -0.796695167069E+03   -0.23023E-04   -0.53387E-05 27320   0.163E-02    0.169E-02
DAV:  15    -0.796695179205E+03   -0.12137E-04   -0.21127E-05 25740   0.118E-02    0.118E-02
DAV:  16    -0.796695185645E+03   -0.64400E-05   -0.15808E-05 20930   0.802E-03
 199 F= -.79669519E+03 E0= -.79669519E+03  d E =0.260836E-02  mag=    47.0000
       N       E                     dE             d eps       ncg     rms          rms(c)
DAV:   1    -0.795790651579E+03    0.90453E+00   -0.98772E+01 34940   0.299E+01    0.335E+00
DAV:   2    -0.796626479280E+03   -0.83583E+00   -0.85084E+00 32170   0.544E+00    0.201E+00
DAV:   3    -0.796666399081E+03   -0.39920E-01   -0.17003E-01 40170   0.104E+00    0.105E+00
DAV:   4    -0.796664280547E+03    0.21185E-02   -0.15723E-02 43890   0.417E-01    0.776E-01
DAV:   5    -0.796664422947E+03   -0.14240E-03   -0.90734E-03 44760   0.319E-01    0.264E-01
DAV:   6    -0.796665335428E+03   -0.91248E-03   -0.27464E-03 42230   0.156E-01    0.165E-01
DAV:   7    -0.796665441687E+03   -0.10626E-03   -0.34547E-04 39930   0.626E-02    0.104E-01
DAV:   8    -0.796665595910E+03   -0.15422E-03   -0.16022E-04 42780   0.408E-02    0.796E-02
DAV:   9    -0.796665715601E+03   -0.11969E-03   -0.11377E-04 37290   0.286E-02    0.667E-02
DAV:  10    -0.796665796425E+03   -0.80824E-04   -0.54253E-05 28680   0.200E-02    0.604E-02
DAV:  11    -0.796665932173E+03   -0.13575E-03   -0.93863E-05 37100   0.277E-02    0.500E-02
DAV:  12    -0.796666095242E+03   -0.16307E-03   -0.33033E-04 41710   0.550E-02    0.372E-02
DAV:  13    -0.796666189728E+03   -0.94486E-04   -0.30811E-04 40940   0.391E-02    0.287E-02
DAV:  14    -0.796666231266E+03   -0.41538E-04   -0.73776E-05 32140   0.202E-02    0.195E-02
DAV:  15    -0.796666247603E+03   -0.16337E-04   -0.31999E-05 22630   0.107E-02    0.154E-02
DAV:  16    -0.796666254313E+03   -0.67096E-05   -0.57407E-06 18450   0.570E-03
 200 F= -.79666625E+03 E0= -.79666625E+03  d E =0.289313E-01  mag=    47.0000
