       N       E                     dE             d eps       ncg     rms          ort
DAV:   1     0.826955021448E+04    0.82696E+04   -0.24616E+05  8424   0.239E+03
DAV:   2     0.876672012940E+03   -0.73929E+04   -0.69238E+04  8424   0.659E+02
DAV:   3    -0.738218779552E+03   -0.16149E+04   -0.14263E+04  8424   0.284E+02
DAV:   4    -0.897945878364E+03   -0.15973E+03   -0.15694E+03  8424   0.864E+01
DAV:   5    -0.900672915489E+03   -0.27270E+01   -0.27120E+01  8424   0.126E+01
SDA:   6    -0.224427316943E+03    0.67625E+03   -0.27120E+01  8424   0.500E+04 0.000E+00
CGA:   7    -0.411404826967E+03   -0.18698E+03   -0.32141E+03  8424   0.101E+05-0.138E+04
CGA:   8    -0.561491172032E+03   -0.15009E+03   -0.34731E+03  8424   0.825E+03-0.676E+03
CGA:   9    -0.604754423600E+03   -0.43263E+02   -0.16570E+02  8424   0.631E+03 0.122E+04
CGA:  10    -0.605847744311E+03   -0.10933E+01   -0.23998E+02  8424   0.357E+04-0.821E+03
CGA:  11    -0.585795433421E+03    0.20052E+02   -0.22345E+03  8424   0.402E+04-0.211E+04
CGA:  12    -0.560802293563E+03    0.24993E+02   -0.19459E+03  8424   0.470E+04-0.371E+04
CGA:  13    -0.604168172065E+03   -0.43366E+02   -0.15994E+03  8424   0.981E+03-0.109E+04
CGA:  14    -0.634122200419E+03   -0.29954E+02   -0.12795E+02  8424   0.253E+04 0.294E+04
CGA:  15    -0.533411653900E+03    0.10071E+03   -0.10223E+03  8424   0.599E+04-0.273E+04
CGA:  16    -0.607461393920E+03   -0.74050E+02   -0.20685E+03  8424   0.941E+03-0.103E+04
CGA:  17    -0.633063619108E+03   -0.25602E+02   -0.13969E+02  8424   0.432E+03 0.569E+03
CGA:  18    -0.677162848553E+03   -0.44099E+02   -0.45476E+01  8424   0.164E+03 0.768E+03
CGA:  19    -0.679709707363E+03   -0.25469E+01   -0.39591E+01  8424   0.610E+02 0.110E+02
CGA:  20    -0.681640646867E+03   -0.19309E+01   -0.14757E+01  8424   0.362E+02 0.161E+02
CGA:  21    -0.687165200610E+03   -0.55246E+01   -0.55821E+01  8424   0.364E+03-0.137E+01
CGA:  22    -0.691187559654E+03   -0.40224E+01   -0.61732E+01  8424   0.162E+03-0.175E+03
CGA:  23    -0.691760154456E+03   -0.57259E+00   -0.12175E+01  8424   0.694E+02-0.409E+02
CGA:  24    -0.692395110483E+03   -0.63496E+00   -0.76365E+00  8424   0.369E+02-0.931E+01
CGA:  25    -0.692994998255E+03   -0.59989E+00   -0.42943E+00  8424   0.408E+02 0.130E+02
CGA:  26    -0.694166529450E+03   -0.11715E+01   -0.70102E+00  8424   0.329E+02 0.347E+02
CGA:  27    -0.695079676250E+03   -0.91315E+00   -0.12438E+01  8424   0.451E+02-0.593E+01
CGA:  28    -0.697078395689E+03   -0.19987E+01   -0.16841E+01  8424   0.567E+02 0.337E+01
CGA:  29    -0.698301794579E+03   -0.12234E+01   -0.12454E+01  8424   0.878E+02-0.213E+02
CGA:  30    -0.699571912567E+03   -0.12701E+01   -0.18133E+01  8424   0.736E+02-0.318E+01
CGA:  31    -0.699918529206E+03   -0.34662E+00   -0.98095E+00  8424   0.283E+02-0.407E+02
CGA:  32    -0.700250762334E+03   -0.33223E+00   -0.86211E+00  8424   0.459E+02-0.104E+02
CGA:  33    -0.701377288656E+03   -0.11265E+01   -0.95798E+00  8424   0.154E+02 0.480E+01
CGA:  34    -0.701793432555E+03   -0.41614E+00   -0.36042E+00  8424   0.507E+01 0.129E+01
CGA:  35    -0.701968048756E+03   -0.17462E+00   -0.22377E+00  8424   0.502E+01-0.290E+00
CGA:  36    -0.702221090984E+03   -0.25304E+00   -0.25891E+00  8424   0.109E+01 0.179E+00
CGA:  37    -0.702386876688E+03   -0.16579E+00   -0.15235E+00  8424   0.105E+01 0.194E+00
CGA:  38    -0.702450539204E+03   -0.63663E-01   -0.63500E-01  8424   0.594E+00 0.274E-02
CGA:  39    -0.702625199211E+03   -0.17466E+00   -0.14254E+00  8424   0.463E+00 0.327E+00
CGA:  40    -0.702329406945E+03    0.29579E+00   -0.99068E-01  8424   0.206E+02-0.295E+01
CGA:  41    -0.702868870245E+03   -0.53946E+00   -0.61039E+00  8424   0.224E+01-0.492E+01
CGA:  42    -0.702999514133E+03   -0.13064E+00   -0.12357E+00  8424   0.284E+01-0.163E+00
CGA:  43    -0.697552372096E+03    0.54471E+01   -0.13358E+02  8424   0.167E+03-0.945E+01
CGA:  44    -0.702154644918E+03   -0.46023E+01   -0.11319E+02  8424   0.230E+02-0.405E+02
CGA:  45    -0.703533786437E+03   -0.13791E+01   -0.71118E+00  8424   0.776E+01 0.135E+02
CGA:  46    -0.703866719503E+03   -0.33293E+00   -0.25928E+00  8424   0.203E+01 0.196E+01
CGA:  47    -0.703977009432E+03   -0.11029E+00   -0.71401E-01  8424   0.828E+00 0.132E+01
CGA:  48    -0.704025757387E+03   -0.48748E-01   -0.55926E-01  8424   0.500E+00-0.586E-01
CGA:  49    -0.704055792641E+03   -0.30035E-01   -0.30827E-01  8424   0.443E+00 0.240E-01
CGA:  50    -0.704152635471E+03   -0.96843E-01   -0.89792E-01  8424   0.689E+00 0.935E-01
CGA:  51    -0.704205525153E+03   -0.52890E-01   -0.56700E-01  8424   0.388E+00-0.113E-01
CGA:  52    -0.704273902935E+03   -0.68378E-01   -0.64765E-01  8424   0.199E+00 0.673E-01
CGA:  53    -0.704319450805E+03   -0.45548E-01   -0.42915E-01  8424   0.158E+00 0.390E-01
CGA:  54    -0.704350504996E+03   -0.31054E-01   -0.30450E-01  8424   0.138E+00 0.147E-01
CGA:  55    -0.704370484277E+03   -0.19979E-01   -0.19950E-01  8424   0.470E-01 0.208E-01
CGA:  56    -0.704380844935E+03   -0.10361E-01   -0.10139E-01  8424   0.489E-01 0.398E-02
CGA:  57    -0.704390852614E+03   -0.10008E-01   -0.97191E-02  8424   0.283E-01 0.512E-02
CGA:  58    -0.704395360448E+03   -0.45078E-02   -0.44750E-02  8424   0.132E-01 0.355E-02
CGA:  59    -0.704398993610E+03   -0.36332E-02   -0.34559E-02  8424   0.119E-01 0.179E-02
CGA:  60    -0.704400927028E+03   -0.19334E-02   -0.19305E-02  8424   0.570E-02 0.156E-02
CGA:  61    -0.704402416785E+03   -0.14898E-02   -0.14285E-02  8424   0.429E-02 0.794E-03
CGA:  62    -0.704404063341E+03   -0.16466E-02   -0.19394E-02  8424   0.691E-02-0.244E-02
CGA:  63    -0.704404823057E+03   -0.75972E-03   -0.76273E-03  8424   0.271E-02 0.101E-03
CGA:  64    -0.704405302968E+03   -0.47991E-03   -0.47631E-03  8424   0.130E-02 0.226E-03
CGA:  65    -0.704405641862E+03   -0.33889E-03   -0.38708E-03  8424   0.207E-02-0.404E-03
CGA:  66    -0.704405895451E+03   -0.25359E-03   -0.25984E-03  8424   0.101E-02-0.291E-03
CGA:  67    -0.704405976311E+03   -0.80860E-04   -0.85957E-04  8424   0.539E-03 0.843E-04
CGA:  68    -0.704406054553E+03   -0.78242E-04   -0.80843E-04  8424   0.422E-03 0.118E-03
CGA:  69    -0.704406128734E+03   -0.74181E-04   -0.74006E-04  8424   0.192E-03-0.123E-04
CGA:  70    -0.704406147738E+03   -0.19003E-04   -0.62743E-04  8424   0.753E-03-0.249E-03
CGA:  71    -0.704406197511E+03   -0.49773E-04   -0.59097E-04  8424   0.131E-03 0.104E-03
CGA:  72    -0.704406202710E+03   -0.51991E-05   -0.11978E-04  8424   0.696E-04 0.821E-04
CGA:  73    -0.704406216828E+03   -0.14118E-04   -0.13311E-04  8424   0.565E-04 0.248E-04
CGA:  74    -0.704406235139E+03   -0.18310E-04   -0.17817E-04  8424   0.511E-04 0.647E-05
CGA:  75    -0.704406241555E+03   -0.64165E-05   -0.71045E-05  8424   0.262E-04 0.169E-04
CGA:  76    -0.704406259504E+03   -0.17949E-04   -0.19758E-04  8424   0.116E-03-0.584E-05
CGA:  77    -0.704406270983E+03   -0.11479E-04   -0.10615E-04  8424   0.627E-04-0.217E-04
CGA:  78    -0.704406274225E+03   -0.32420E-05   -0.37828E-05  8424   0.437E-04 0.324E-05
   1 F= -.70440627E+03 E0= -.70439605E+03  d E =-.704406E+03  mag=     0.9384
       N       E                     dE             d eps       ncg     rms          ort
SDA:   1    -0.704417069528E+03   -0.10799E-01    0.00000E+00  8424   0.864E-02 0.000E+00
CGA:   2    -0.704418000308E+03   -0.93078E-03   -0.94100E-03  8424   0.307E-02 0.106E-03
CGA:   3    -0.704418550418E+03   -0.55011E-03   -0.55026E-03  8424   0.137E-02-0.144E-04
CGA:   4    -0.704418752717E+03   -0.20230E-03   -0.20292E-03  8424   0.624E-03 0.337E-04
CGA:   5    -0.704418832579E+03   -0.79862E-04   -0.77856E-04  8424   0.168E-03-0.461E-04
CGA:   6    -0.704418850585E+03   -0.18007E-04   -0.19085E-04  8424   0.319E-04 0.261E-04
CGA:   7    -0.704418856385E+03   -0.57993E-05   -0.58352E-05  8424   0.928E-05 0.901E-05
   2 F= -.70441886E+03 E0= -.70440842E+03  d E =-.125822E-01  mag=     0.9376
       N       E                     dE             d eps       ncg     rms          ort
SDA:   1    -0.702773161806E+03    0.16457E+01    0.00000E+00  8424   0.723E+01 0.000E+00
CGA:   2    -0.703985783739E+03   -0.12126E+01   -0.12120E+01  8424   0.259E+01 0.680E-01
CGA:   3    -0.704549202403E+03   -0.56342E+00   -0.56414E+00  8424   0.108E+01-0.109E-01
CGA:   4    -0.704710315397E+03   -0.16111E+00   -0.16142E+00  8424   0.401E+00 0.713E-02
CGA:   5    -0.704755209789E+03   -0.44894E-01   -0.43896E-01  8424   0.112E+00 0.187E-02
CGA:   6    -0.704771092497E+03   -0.15883E-01   -0.15901E-01  8424   0.303E-01 0.445E-03
CGA:   7    -0.704775823004E+03   -0.47305E-02   -0.47313E-02  8424   0.107E-01 0.886E-04
CGA:   8    -0.704777412156E+03   -0.15892E-02   -0.15864E-02  8424   0.461E-02-0.195E-03
CGA:   9    -0.704778058496E+03   -0.64634E-03   -0.64949E-03  8424   0.189E-02 0.195E-03
CGA:  10    -0.704778357272E+03   -0.29878E-03   -0.29852E-03  8424   0.932E-03-0.358E-04
CGA:  11    -0.704778494110E+03   -0.13684E-03   -0.13680E-03  8424   0.355E-03-0.395E-05
CGA:  12    -0.704778565782E+03   -0.71672E-04   -0.72865E-04  8424   0.219E-03-0.252E-04
CGA:  13    -0.704778583261E+03   -0.17479E-04   -0.20527E-04  8424   0.727E-04 0.508E-04
CGA:  14    -0.704778594780E+03   -0.11519E-04   -0.12208E-04  8424   0.321E-04 0.323E-04
CGA:  15    -0.704778602677E+03   -0.78977E-05   -0.79794E-05  8424   0.311E-04-0.521E-05
   3 F= -.70477860E+03 E0= -.70476799E+03  d E =-.359746E+00  mag=     0.9303
       N       E                     dE             d eps       ncg     rms          ort
SDA:   1    -0.699693245228E+03    0.50853E+01    0.00000E+00  8424   0.224E+02 0.000E+00
CGA:   2    -0.702795161880E+03   -0.31019E+01   -0.31433E+01  8424   0.747E+01 0.132E+01
CGA:   3    -0.704252602029E+03   -0.14574E+01   -0.14809E+01  8424   0.605E+01-0.442E+00
CGA:   4    -0.704829853446E+03   -0.57725E+00   -0.58831E+00  8424   0.165E+01-0.759E-01
CGA:   5    -0.705075831313E+03   -0.24598E+00   -0.24596E+00  8424   0.337E+00-0.506E-02
CGA:   6    -0.705128371072E+03   -0.52540E-01   -0.52531E-01  8424   0.110E+00 0.197E-02
CGA:   7    -0.705142575836E+03   -0.14205E-01   -0.14236E-01  8424   0.490E-01 0.135E-03
CGA:   8    -0.705148307709E+03   -0.57319E-02   -0.57111E-02  8424   0.208E-01-0.705E-04
CGA:   9    -0.705151302182E+03   -0.29945E-02   -0.29947E-02  8424   0.684E-02-0.118E-04
CGA:  10    -0.705152594352E+03   -0.12922E-02   -0.12828E-02  8424   0.259E-02 0.236E-03
CGA:  11    -0.705153060367E+03   -0.46601E-03   -0.46882E-03  8424   0.157E-02-0.120E-03
CGA:  12    -0.705153287705E+03   -0.22734E-03   -0.22734E-03  8424   0.726E-03-0.744E-04
CGA:  13    -0.705153356595E+03   -0.68890E-04   -0.73779E-04  8424   0.341E-03 0.106E-03
CGA:  14    -0.705153415563E+03   -0.58969E-04   -0.58910E-04  8424   0.119E-03 0.816E-04
CGA:  15    -0.705153443810E+03   -0.28247E-04   -0.30805E-04  8424   0.180E-03-0.430E-04
CGA:  16    -0.705153451216E+03   -0.74062E-05   -0.77528E-05  8424   0.881E-04 0.387E-05
   4 F= -.70515345E+03 E0= -.70514263E+03  d E =-.374849E+00  mag=     0.9136
       N       E                     dE             d eps       ncg     rms          ort
SDA:   1    -0.702752105441E+03    0.24013E+01    0.00000E+00  8424   0.648E+01 0.000E+00
CGA:   2    -0.704718663123E+03   -0.19666E+01   -0.19674E+01  8424   0.297E+01-0.635E-02
CGA:   3    -0.705223594876E+03   -0.50493E+00   -0.50507E+00  8424   0.762E+00-0.428E-02
CGA:   4    -0.705340809544E+03   -0.11721E+00   -0.11721E+00  8424   0.224E+00 0.378E-02
CGA:   5    -0.705373888554E+03   -0.33079E-01   -0.33052E-01  8424   0.577E-01-0.211E-02
CGA:   6    -0.705381168349E+03   -0.72798E-02   -0.73017E-02  8424   0.264E-01 0.538E-03
CGA:   7    -0.705384461260E+03   -0.32929E-02   -0.32949E-02  8424   0.113E-01-0.103E-03
CGA:   8    -0.705386015125E+03   -0.15539E-02   -0.15549E-02  8424   0.340E-02 0.847E-04
CGA:   9    -0.705386802609E+03   -0.78748E-03   -0.78511E-03  8424   0.158E-02 0.296E-04
CGA:  10    -0.705387049594E+03   -0.24698E-03   -0.24689E-03  8424   0.102E-02 0.676E-04
CGA:  11    -0.705387204453E+03   -0.15486E-03   -0.15475E-03  8424   0.599E-03-0.151E-04
CGA:  12    -0.705387280514E+03   -0.76061E-04   -0.77055E-04  8424   0.205E-03 0.440E-04
CGA:  13    -0.705387334154E+03   -0.53640E-04   -0.57991E-04  8424   0.143E-03-0.393E-04
CGA:  14    -0.705387346772E+03   -0.12618E-04   -0.12980E-04  8424   0.444E-04 0.786E-05
CGA:  15    -0.705387356174E+03   -0.94016E-05   -0.10087E-04  8424   0.498E-04-0.114E-04
   5 F= -.70538736E+03 E0= -.70537658E+03  d E =-.233905E+00  mag=     0.9069
       N       E                     dE             d eps       ncg     rms          ort
SDA:   1    -0.699347355967E+03    0.60400E+01    0.00000E+00  8424   0.168E+02 0.000E+00
CGA:   2    -0.703429435679E+03   -0.40821E+01   -0.40557E+01  8424   0.944E+01 0.257E+00
CGA:   3    -0.704792992171E+03   -0.13636E+01   -0.13628E+01  8424   0.477E+01-0.548E-01
CGA:   4    -0.705303762952E+03   -0.51077E+00   -0.47757E+00  8424   0.106E+01 0.144E-01
CGA:   5    -0.705470217782E+03   -0.16645E+00   -0.16645E+00  8424   0.305E+00 0.110E-02
CGA:   6    -0.705513403486E+03   -0.43186E-01   -0.43253E-01  8424   0.885E-01 0.244E-02
CGA:   7    -0.705525896181E+03   -0.12493E-01   -0.12471E-01  8424   0.478E-01-0.769E-03
CGA:   8    -0.705531386229E+03   -0.54900E-02   -0.55150E-02  8424   0.185E-01 0.376E-03
CGA:   9    -0.705534135356E+03   -0.27491E-02   -0.27497E-02  8424   0.804E-02 0.113E-03
CGA:  10    -0.705535622461E+03   -0.14871E-02   -0.14790E-02  8424   0.349E-02 0.246E-03
CGA:  11    -0.705536240172E+03   -0.61771E-03   -0.61655E-03  8424   0.238E-02 0.627E-04
CGA:  12    -0.705536519966E+03   -0.27979E-03   -0.28438E-03  8424   0.111E-02 0.118E-03
CGA:  13    -0.705536722355E+03   -0.20239E-03   -0.20230E-03  8424   0.481E-03 0.371E-05
CGA:  14    -0.705536799901E+03   -0.77546E-04   -0.77245E-04  8424   0.173E-03 0.473E-04
CGA:  15    -0.705536836463E+03   -0.36562E-04   -0.37385E-04  8424   0.170E-03-0.195E-04
CGA:  16    -0.705536848211E+03   -0.11747E-04   -0.12948E-04  8424   0.417E-04 0.168E-04
CGA:  17    -0.705536852260E+03   -0.40490E-05   -0.48841E-05  8424   0.304E-04 0.180E-04
   6 F= -.70553685E+03 E0= -.70552560E+03  d E =-.149496E+00  mag=     0.8808
       N       E                     dE             d eps       ncg     rms          ort
SDA:   1    -0.700239296021E+03    0.52976E+01    0.00000E+00  8424   0.166E+02 0.000E+00
CGA:   2    -0.703573305291E+03   -0.33340E+01   -0.33287E+01  8424   0.726E+01 0.772E-01
CGA:   3    -0.705065897636E+03   -0.14926E+01   -0.14939E+01  8424   0.244E+01-0.209E-01
CGA:   4    -0.705451854337E+03   -0.38596E+00   -0.38594E+00  8424   0.604E+00 0.250E-02
CGA:   5    -0.705544101371E+03   -0.92247E-01   -0.92246E-01  8424   0.234E+00 0.372E-03
CGA:   6    -0.705565764117E+03   -0.21663E-01   -0.21804E-01  8424   0.844E-01-0.144E-02
CGA:   7    -0.705577981521E+03   -0.12217E-01   -0.12215E-01  8424   0.214E-01-0.512E-03
CGA:   8    -0.705581746208E+03   -0.37647E-02   -0.37565E-02  8424   0.961E-02 0.291E-03
CGA:   9    -0.705583117021E+03   -0.13708E-02   -0.13739E-02  8424   0.519E-02 0.306E-03
CGA:  10    -0.705583743338E+03   -0.62632E-03   -0.62573E-03  8424   0.233E-02-0.295E-04
CGA:  11    -0.705584137873E+03   -0.39453E-03   -0.39409E-03  8424   0.868E-03 0.205E-04
CGA:  12    -0.705584305317E+03   -0.16744E-03   -0.16651E-03  8424   0.658E-03 0.228E-04
CGA:  13    -0.705584375168E+03   -0.69852E-04   -0.72254E-04  8424   0.243E-03 0.524E-04
CGA:  14    -0.705584424946E+03   -0.49778E-04   -0.50708E-04  8424   0.147E-03-0.215E-04
CGA:  15    -0.705584441443E+03   -0.16497E-04   -0.16661E-04  8424   0.457E-04 0.581E-05
CGA:  16    -0.705584447703E+03   -0.62597E-05   -0.64241E-05  8424   0.270E-04 0.104E-04
   7 F= -.70558445E+03 E0= -.70557362E+03  d E =-.475954E-01  mag=     0.8573
       N       E                     dE             d eps       ncg     rms          ort
SDA:   1    -0.704590787760E+03    0.99365E+00    0.00000E+00  8424   0.324E+01 0.000E+00
CGA:   2    -0.705234805174E+03   -0.64402E+00   -0.64350E+00  8424   0.150E+01 0.839E-02
CGA:   3    -0.705510848546E+03   -0.27604E+00   -0.27632E+00  8424   0.816E+00-0.510E-02
CGA:   4    -0.705591314028E+03   -0.80465E-01   -0.81433E-01  8424   0.265E+00-0.294E-02
CGA:   5    -0.705624582286E+03   -0.33268E-01   -0.33273E-01  8424   0.642E-01 0.125E-03
CGA:   6    -0.705634216953E+03   -0.96347E-02   -0.96365E-02  8424   0.178E-01-0.741E-03
CGA:   7    -0.705636586821E+03   -0.23699E-02   -0.23717E-02  8424   0.757E-02 0.510E-04
CGA:   8    -0.705637507534E+03   -0.92071E-03   -0.91887E-03  8424   0.329E-02-0.893E-04
CGA:   9    -0.705637926870E+03   -0.41934E-03   -0.42063E-03  8424   0.111E-02 0.742E-04
CGA:  10    -0.705638140199E+03   -0.21333E-03   -0.21226E-03  8424   0.444E-03 0.252E-04
CGA:  11    -0.705638208099E+03   -0.67900E-04   -0.67885E-04  8424   0.298E-03 0.717E-05
CGA:  12    -0.705638252205E+03   -0.44105E-04   -0.44052E-04  8424   0.172E-03-0.278E-04
CGA:  13    -0.705638270996E+03   -0.18791E-04   -0.19188E-04  8424   0.540E-04 0.159E-04
CGA:  14    -0.705638284497E+03   -0.13501E-04   -0.12819E-04  8424   0.153E-04 0.955E-05
CGA:  15    -0.705638287647E+03   -0.31503E-05   -0.30487E-05  8424   0.727E-05 0.520E-05
   8 F= -.70563829E+03 E0= -.70562719E+03  d E =-.538399E-01  mag=     0.8618
       N       E                     dE             d eps       ncg     rms          ort
SDA:   1    -0.705307465180E+03    0.33082E+00    0.00000E+00  8424   0.101E+01 0.000E+00
CGA:   2    -0.705527821682E+03   -0.22036E+00   -0.22027E+00  8424   0.510E+00 0.120E-02
CGA:   3    -0.705625592601E+03   -0.97771E-01   -0.97740E-01  8424   0.192E+00 0.580E-03
CGA:   4    -0.705648360139E+03   -0.22768E-01   -0.22797E-01  8424   0.708E-01-0.285E-05
CGA:   5    -0.705656010308E+03   -0.76502E-02   -0.76419E-02  8424   0.203E-01 0.161E-03
CGA:   6    -0.705658757695E+03   -0.27474E-02   -0.27425E-02  8424   0.524E-02-0.252E-03
CGA:   7    -0.705659547133E+03   -0.78944E-03   -0.78932E-03  8424   0.179E-02 0.390E-04
CGA:   8    -0.705659815944E+03   -0.26881E-03   -0.26878E-03  8424   0.916E-03-0.377E-04
CGA:   9    -0.705659910545E+03   -0.94601E-04   -0.96406E-04  8424   0.340E-03 0.425E-04
CGA:  10    -0.705659971089E+03   -0.60544E-04   -0.60001E-04  8424   0.121E-03 0.263E-04
CGA:  11    -0.705659995678E+03   -0.24589E-04   -0.24279E-04  8424   0.619E-04 0.845E-05
CGA:  12    -0.705660007687E+03   -0.12008E-04   -0.11747E-04  8424   0.236E-04 0.980E-05
CGA:  13    -0.705660011647E+03   -0.39606E-05   -0.40193E-05  8424   0.115E-04 0.107E-04
   9 F= -.70566001E+03 E0= -.70564875E+03  d E =-.217240E-01  mag=     0.8582
       N       E                     dE             d eps       ncg     rms          ort
SDA:   1    -0.704353353804E+03    0.13067E+01    0.00000E+00  8424   0.344E+01 0.000E+00
CGA:   2    -0.705262550730E+03   -0.90920E+00   -0.90846E+00  8424   0.202E+01 0.581E-02
CGA:   3    -0.705566029440E+03   -0.30348E+00   -0.30315E+00  8424   0.937E+00-0.207E-01
CGA:   4    -0.705652926615E+03   -0.86897E-01   -0.87783E-01  8424   0.217E+00-0.546E-02
CGA:   5    -0.705686455395E+03   -0.33529E-01   -0.33528E-01  8424   0.514E-01 0.330E-03
CGA:   6    -0.705694428316E+03   -0.79729E-02   -0.79731E-02  8424   0.179E-01-0.152E-03
CGA:   7    -0.705696387871E+03   -0.19596E-02   -0.19639E-02  8424   0.763E-02 0.117E-03
CGA:   8    -0.705697516161E+03   -0.11283E-02   -0.11282E-02  8424   0.222E-02-0.204E-04
CGA:   9    -0.705697892141E+03   -0.37598E-03   -0.37442E-03  8424   0.125E-02 0.867E-04
CGA:  10    -0.705698082869E+03   -0.19073E-03   -0.19080E-03  8424   0.644E-03 0.130E-04
CGA:  11    -0.705698168117E+03   -0.85248E-04   -0.85984E-04  8424   0.311E-03 0.368E-04
CGA:  12    -0.705698233892E+03   -0.65774E-04   -0.66002E-04  8424   0.163E-03-0.459E-05
CGA:  13    -0.705698254505E+03   -0.20613E-04   -0.21111E-04  8424   0.730E-04 0.226E-04
CGA:  14    -0.705698269142E+03   -0.14638E-04   -0.14541E-04  8424   0.425E-04 0.426E-05
CGA:  15    -0.705698273347E+03   -0.42051E-05   -0.45821E-05  8424   0.107E-04 0.727E-05
  10 F= -.70569827E+03 E0= -.70568693E+03  d E =-.382617E-01  mag=     0.8472
       N       E                     dE             d eps       ncg     rms          ort
SDA:   1    -0.700573583687E+03    0.51247E+01    0.00000E+00  8424   0.148E+02 0.000E+00
CGA:   2    -0.703682238868E+03   -0.31087E+01   -0.30616E+01  8424   0.807E+01 0.620E+00
CGA:   3    -0.705038910106E+03   -0.13567E+01   -0.13760E+01  8424   0.568E+01-0.133E+01
CGA:   4    -0.705502876954E+03   -0.46397E+00   -0.46119E+00  8424   0.111E+01-0.206E-01
CGA:   5    -0.705647469034E+03   -0.14459E+00   -0.14436E+00  8424   0.363E+00-0.269E-02
CGA:   6    -0.705696606393E+03   -0.49137E-01   -0.49091E-01  8424   0.928E-01-0.107E-02
CGA:   7    -0.705710340834E+03   -0.13734E-01   -0.13740E-01  8424   0.418E-01 0.114E-02
CGA:   8    -0.705714625655E+03   -0.42848E-02   -0.43011E-02  8424   0.191E-01-0.133E-03
CGA:   9    -0.705717391472E+03   -0.27658E-02   -0.27665E-02  8424   0.559E-02 0.199E-03
CGA:  10    -0.705718515701E+03   -0.11242E-02   -0.11192E-02  8424   0.247E-02 0.994E-04
CGA:  11    -0.705718995217E+03   -0.47952E-03   -0.48160E-03  8424   0.114E-02-0.524E-04
CGA:  12    -0.705719223667E+03   -0.22845E-03   -0.22843E-03  8424   0.584E-03-0.697E-06
CGA:  13    -0.705719327588E+03   -0.10392E-03   -0.10374E-03  8424   0.333E-03 0.791E-05
CGA:  14    -0.705719375931E+03   -0.48342E-04   -0.48063E-04  8424   0.226E-03-0.204E-04
CGA:  15    -0.705719400924E+03   -0.24993E-04   -0.25090E-04  8424   0.742E-04 0.176E-05
CGA:  16    -0.705719417013E+03   -0.16089E-04   -0.17920E-04  8424   0.724E-04-0.214E-04
CGA:  17    -0.705719423989E+03   -0.69761E-05   -0.69040E-05  8424   0.233E-04-0.321E-05
  11 F= -.70571942E+03 E0= -.70570806E+03  d E =-.211506E-01  mag=     0.8585
       N       E                     dE             d eps       ncg     rms          ort
SDA:   1    -0.704428816197E+03    0.12906E+01    0.00000E+00  8424   0.371E+01 0.000E+00
CGA:   2    -0.705253228874E+03   -0.82441E+00   -0.82426E+00  8424   0.214E+01 0.270E-02
CGA:   3    -0.705569349431E+03   -0.31612E+00   -0.31745E+00  8424   0.117E+01 0.273E-01
CGA:   4    -0.705688522741E+03   -0.11917E+00   -0.11734E+00  8424   0.250E+00 0.231E-02
CGA:   5    -0.705728158992E+03   -0.39636E-01   -0.39634E-01  8424   0.605E-01-0.781E-03
CGA:   6    -0.705737076837E+03   -0.89178E-02   -0.89225E-02  8424   0.230E-01 0.193E-03
CGA:   7    -0.705739578784E+03   -0.25019E-02   -0.24905E-02  8424   0.869E-02-0.234E-03
CGA:   8    -0.705740819702E+03   -0.12409E-02   -0.12412E-02  8424   0.287E-02 0.331E-04
CGA:   9    -0.705741261279E+03   -0.44158E-03   -0.44167E-03  8424   0.141E-02 0.215E-04
CGA:  10    -0.705741474222E+03   -0.21294E-03   -0.21318E-03  8424   0.664E-03 0.360E-04
CGA:  11    -0.705741577013E+03   -0.10279E-03   -0.10237E-03  8424   0.487E-03-0.692E-04
CGA:  12    -0.705741640521E+03   -0.63508E-04   -0.63321E-04  8424   0.173E-03-0.174E-04
CGA:  13    -0.705741677708E+03   -0.37187E-04   -0.39509E-04  8424   0.146E-03-0.285E-04
CGA:  14    -0.705741689840E+03   -0.12132E-04   -0.12271E-04  8424   0.421E-04 0.236E-05
CGA:  15    -0.705741698402E+03   -0.85618E-05   -0.10469E-04  8424   0.655E-04-0.217E-04
  12 F= -.70574170E+03 E0= -.70573046E+03  d E =-.222744E-01  mag=     0.8627
       N       E                     dE             d eps       ncg     rms          ort
SDA:   1    -0.705162414561E+03    0.57928E+00    0.00000E+00  8424   0.167E+01 0.000E+00
CGA:   2    -0.705529472993E+03   -0.36706E+00   -0.36658E+00  8424   0.880E+00 0.623E-02
CGA:   3    -0.705678315354E+03   -0.14884E+00   -0.14892E+00  8424   0.463E+00-0.596E-02
CGA:   4    -0.705722107959E+03   -0.43793E-01   -0.43624E-01  8424   0.116E+00 0.483E-03
CGA:   5    -0.705739039155E+03   -0.16931E-01   -0.16934E-01  8424   0.299E-01 0.100E-04
CGA:   6    -0.705743293683E+03   -0.42545E-02   -0.42559E-02  8424   0.935E-02 0.571E-04
CGA:   7    -0.705744509391E+03   -0.12157E-02   -0.12142E-02  8424   0.383E-02-0.667E-04
CGA:   8    -0.705744967796E+03   -0.45840E-03   -0.46090E-03  8424   0.150E-02 0.726E-04
CGA:   9    -0.705745195460E+03   -0.22766E-03   -0.22754E-03  8424   0.609E-03-0.266E-04
CGA:  10    -0.705745296371E+03   -0.10091E-03   -0.10048E-03  8424   0.253E-03 0.269E-04
CGA:  11    -0.705745342427E+03   -0.46056E-04   -0.46734E-04  8424   0.237E-03-0.295E-04
CGA:  12    -0.705745364119E+03   -0.21693E-04   -0.22281E-04  8424   0.694E-04 0.121E-04
CGA:  13    -0.705745377329E+03   -0.13209E-04   -0.12852E-04  8424   0.386E-04 0.149E-04
CGA:  14    -0.705745384267E+03   -0.69381E-05   -0.68931E-05  8424   0.367E-04-0.712E-05
  13 F= -.70574538E+03 E0= -.70573415E+03  d E =-.368587E-02  mag=     0.8583
       N       E                     dE             d eps       ncg     rms          ort
SDA:   1    -0.704751090962E+03    0.99429E+00    0.00000E+00  8424   0.339E+01 0.000E+00
CGA:   2    -0.705318621248E+03   -0.56753E+00   -0.56587E+00  8424   0.152E+01 0.603E-01
CGA:   3    -0.705562412140E+03   -0.24379E+00   -0.24437E+00  8424   0.109E+01-0.477E-01
CGA:   4    -0.705682963860E+03   -0.12055E+00   -0.11961E+00  8424   0.280E+00-0.529E-02
CGA:   5    -0.705720476895E+03   -0.37513E-01   -0.37500E-01  8424   0.769E-01-0.231E-03
CGA:   6    -0.705731251343E+03   -0.10774E-01   -0.10780E-01  8424   0.172E-01 0.440E-03
CGA:   7    -0.705733988168E+03   -0.27368E-02   -0.27391E-02  8424   0.745E-02-0.211E-03
CGA:   8    -0.705734768250E+03   -0.78008E-03   -0.78328E-03  8424   0.299E-02 0.753E-04
CGA:   9    -0.705735206120E+03   -0.43787E-03   -0.43791E-03  8424   0.104E-02 0.299E-04
CGA:  10    -0.705735374870E+03   -0.16875E-03   -0.16779E-03  8424   0.358E-03 0.697E-04
CGA:  11    -0.705735453143E+03   -0.78273E-04   -0.80508E-04  8424   0.243E-03-0.351E-04
CGA:  12    -0.705735473104E+03   -0.19961E-04   -0.21455E-04  8424   0.999E-04 0.281E-04
CGA:  13    -0.705735488077E+03   -0.14973E-04   -0.15286E-04  8424   0.497E-04 0.301E-04
CGA:  14    -0.705735497783E+03   -0.97060E-05   -0.96910E-05  8424   0.327E-04 0.563E-05
  14 F= -.70573550E+03 E0= -.70572434E+03  d E =0.988648E-02  mag=     0.8439
       N       E                     dE             d eps       ncg     rms          ort
SDA:   1    -0.705528674550E+03    0.20681E+00    0.00000E+00  8424   0.733E+00 0.000E+00
CGA:   2    -0.705663566295E+03   -0.13489E+00   -0.13469E+00  8424   0.327E+00 0.406E-02
CGA:   3    -0.705721623227E+03   -0.58057E-01   -0.58192E-01  8424   0.213E+00-0.323E-02
CGA:   4    -0.705743165289E+03   -0.21542E-01   -0.21499E-01  8424   0.562E-01 0.272E-03
CGA:   5    -0.705750994383E+03   -0.78291E-02   -0.78289E-02  8424   0.150E-01-0.805E-04
CGA:   6    -0.705753060643E+03   -0.20663E-02   -0.20664E-02  8424   0.411E-02 0.216E-05
CGA:   7    -0.705753640723E+03   -0.58008E-03   -0.57985E-03  8424   0.170E-02-0.657E-04
CGA:   8    -0.705753825043E+03   -0.18432E-03   -0.18568E-03  8424   0.644E-03 0.405E-04
CGA:   9    -0.705753926433E+03   -0.10139E-03   -0.10160E-03  8424   0.240E-03-0.188E-04
CGA:  10    -0.705753962465E+03   -0.36032E-04   -0.35851E-04  8424   0.870E-04 0.171E-04
CGA:  11    -0.705753980417E+03   -0.17953E-04   -0.19224E-04  8424   0.924E-04-0.205E-04
CGA:  12    -0.705753986185E+03   -0.57679E-05   -0.59827E-05  8424   0.286E-04 0.341E-05
  15 F= -.70575399E+03 E0= -.70574275E+03  d E =-.184884E-01  mag=     0.8466
       N       E                     dE             d eps       ncg     rms          ort
SDA:   1    -0.705706636222E+03    0.47344E-01    0.00000E+00  8424   0.139E+00 0.000E+00
CGA:   2    -0.705735171161E+03   -0.28535E-01   -0.28514E-01  8424   0.117E+00 0.330E-03
CGA:   3    -0.705747919073E+03   -0.12748E-01   -0.12770E-01  8424   0.447E-01-0.241E-03
CGA:   4    -0.705754092091E+03   -0.61730E-02   -0.61737E-02  8424   0.866E-02 0.118E-03
CGA:   5    -0.705755433996E+03   -0.13419E-02   -0.13418E-02  8424   0.287E-02 0.105E-04
CGA:   6    -0.705755779049E+03   -0.34505E-03   -0.34643E-03  8424   0.898E-03 0.537E-04
CGA:   7    -0.705755895061E+03   -0.11601E-03   -0.11537E-03  8424   0.398E-03-0.384E-04
CGA:   8    -0.705755940275E+03   -0.45215E-04   -0.45499E-04  8424   0.107E-03 0.121E-04
CGA:   9    -0.705755963100E+03   -0.22825E-04   -0.23137E-04  8424   0.453E-04-0.456E-05
CGA:  10    -0.705755967955E+03   -0.48547E-05   -0.51178E-05  8424   0.212E-04 0.992E-05
  16 F= -.70575597E+03 E0= -.70574472E+03  d E =-.198177E-02  mag=     0.8484
       N       E                     dE             d eps       ncg     rms          ort
SDA:   1    -0.705159488737E+03    0.59647E+00    0.00000E+00  8424   0.160E+01 0.000E+00
CGA:   2    -0.705549342333E+03   -0.38985E+00   -0.38986E+00  8424   0.956E+00-0.234E-03
CGA:   3    -0.705698912990E+03   -0.14957E+00   -0.14962E+00  8424   0.495E+00-0.475E-02
CGA:   4    -0.705743919826E+03   -0.45007E-01   -0.45394E-01  8424   0.106E+00-0.231E-02
CGA:   5    -0.705759774588E+03   -0.15855E-01   -0.15853E-01  8424   0.251E-01 0.579E-03
CGA:   6    -0.705763655933E+03   -0.38813E-02   -0.38819E-02  8424   0.876E-02-0.887E-04
CGA:   7    -0.705764649044E+03   -0.99311E-03   -0.99489E-03  8424   0.384E-02 0.463E-04
CGA:   8    -0.705765179646E+03   -0.53060E-03   -0.52993E-03  8424   0.119E-02-0.699E-04
CGA:   9    -0.705765349556E+03   -0.16991E-03   -0.17001E-03  8424   0.490E-03 0.830E-04
CGA:  10    -0.705765438731E+03   -0.89175E-04   -0.88418E-04  8424   0.259E-03 0.340E-04
CGA:  11    -0.705765470723E+03   -0.31992E-04   -0.32608E-04  8424   0.122E-03 0.204E-04
CGA:  12    -0.705765499464E+03   -0.28740E-04   -0.29878E-04  8424   0.854E-04-0.140E-04
CGA:  13    -0.705765504956E+03   -0.54921E-05   -0.67207E-05  8424   0.282E-04 0.199E-04
  17 F= -.70576550E+03 E0= -.70575427E+03  d E =-.953700E-02  mag=     0.8419
       N       E                     dE             d eps       ncg     rms          ort
SDA:   1    -0.702402737740E+03    0.33628E+01    0.00000E+00  8424   0.980E+01 0.000E+00
CGA:   2    -0.704352195902E+03   -0.19495E+01   -0.19349E+01  8424   0.567E+01 0.211E+00
CGA:   3    -0.705238121090E+03   -0.88593E+00   -0.88617E+00  8424   0.349E+01-0.280E-01
CGA:   4    -0.705617692189E+03   -0.37957E+00   -0.36794E+00  8424   0.728E+00-0.487E-01
CGA:   5    -0.705720806202E+03   -0.10311E+00   -0.10311E+00  8424   0.174E+00-0.147E-02
CGA:   6    -0.705745668990E+03   -0.24863E-01   -0.24866E-01  8424   0.622E-01 0.729E-03
CGA:   7    -0.705752473450E+03   -0.68045E-02   -0.68117E-02  8424   0.267E-01-0.252E-03
CGA:   8    -0.705756061005E+03   -0.35876E-02   -0.35903E-02  8424   0.752E-02 0.142E-03
CGA:   9    -0.705757300553E+03   -0.12395E-02   -0.12362E-02  8424   0.330E-02 0.166E-03
CGA:  10    -0.705757776283E+03   -0.47573E-03   -0.47624E-03  8424   0.179E-02 0.148E-03
CGA:  11    -0.705758026348E+03   -0.25007E-03   -0.24979E-03  8424   0.895E-03-0.289E-04
CGA:  12    -0.705758165989E+03   -0.13964E-03   -0.13959E-03  8424   0.408E-03 0.231E-05
CGA:  13    -0.705758235503E+03   -0.69514E-04   -0.69043E-04  8424   0.233E-03 0.194E-04
CGA:  14    -0.705758264245E+03   -0.28742E-04   -0.29624E-04  8424   0.910E-04 0.357E-04
CGA:  15    -0.705758282369E+03   -0.18124E-04   -0.18164E-04  8424   0.627E-04-0.144E-05
CGA:  16    -0.705758288662E+03   -0.62931E-05   -0.66851E-05  8424   0.140E-04 0.103E-04
  18 F= -.70575829E+03 E0= -.70574700E+03  d E =0.721629E-02  mag=     0.8388
       N       E                     dE             d eps       ncg     rms          ort
SDA:   1    -0.704213835674E+03    0.15444E+01    0.00000E+00  8424   0.514E+01 0.000E+00
CGA:   2    -0.705102582674E+03   -0.88875E+00   -0.88429E+00  8424   0.266E+01 0.102E+00
CGA:   3    -0.705493703484E+03   -0.39112E+00   -0.39112E+00  8424   0.170E+01-0.250E-02
CGA:   4    -0.705703485360E+03   -0.20978E+00   -0.20834E+00  8424   0.407E+00-0.231E-01
CGA:   5    -0.705760144354E+03   -0.56659E-01   -0.56652E-01  8424   0.105E+00-0.267E-02
CGA:   6    -0.705774932275E+03   -0.14788E-01   -0.14789E-01  8424   0.285E-01 0.814E-03
CGA:   7    -0.705778613482E+03   -0.36812E-02   -0.36768E-02  8424   0.140E-01-0.312E-03
CGA:   8    -0.705780201695E+03   -0.15882E-02   -0.15903E-02  8424   0.425E-02 0.445E-04
CGA:   9    -0.705780907184E+03   -0.70549E-03   -0.70432E-03  8424   0.157E-02 0.464E-04
CGA:  10    -0.705781174868E+03   -0.26768E-03   -0.26776E-03  8424   0.718E-03-0.423E-05
CGA:  11    -0.705781282425E+03   -0.10756E-03   -0.10795E-03  8424   0.468E-03-0.505E-04
CGA:  12    -0.705781333196E+03   -0.50772E-04   -0.50916E-04  8424   0.174E-03 0.498E-05
CGA:  13    -0.705781368243E+03   -0.35047E-04   -0.35263E-04  8424   0.905E-04-0.378E-05
CGA:  14    -0.705781382112E+03   -0.13869E-04   -0.13849E-04  8424   0.307E-04 0.174E-05
CGA:  15    -0.705781389095E+03   -0.69823E-05   -0.11958E-04  8424   0.492E-04-0.210E-04
  19 F= -.70578139E+03 E0= -.70577004E+03  d E =-.231004E-01  mag=     0.8394
       N       E                     dE             d eps       ncg     rms          ort
SDA:   1    -0.705596994883E+03    0.18439E+00    0.00000E+00  8424   0.609E+00 0.000E+00
CGA:   2    -0.705715574379E+03   -0.11858E+00   -0.11857E+00  8424   0.254E+00 0.263E-03
CGA:   3    -0.705769567402E+03   -0.53993E-01   -0.53992E-01  8424   0.925E-01-0.824E-04
CGA:   4    -0.705782668724E+03   -0.13101E-01   -0.13100E-01  8424   0.364E-01-0.208E-03
CGA:   5    -0.705786377089E+03   -0.37084E-02   -0.37081E-02  8424   0.115E-01 0.163E-03
CGA:   6    -0.705787945809E+03   -0.15687E-02   -0.15681E-02  8424   0.239E-02-0.409E-04
CGA:   7    -0.705788361274E+03   -0.41546E-03   -0.41467E-03  8424   0.889E-03 0.372E-04
CGA:   8    -0.705788471583E+03   -0.11031E-03   -0.10976E-03  8424   0.470E-03-0.175E-04
CGA:   9    -0.705788532705E+03   -0.61122E-04   -0.61604E-04  8424   0.142E-03 0.251E-04
CGA:  10    -0.705788560036E+03   -0.27331E-04   -0.27605E-04  8424   0.741E-04-0.851E-05
CGA:  11    -0.705788570853E+03   -0.10817E-04   -0.10816E-04  8424   0.333E-04 0.475E-06
CGA:  12    -0.705788576338E+03   -0.54855E-05   -0.55144E-05  8424   0.288E-04-0.270E-05
  20 F= -.70578858E+03 E0= -.70577727E+03  d E =-.718724E-02  mag=     0.8363
       N       E                     dE             d eps       ncg     rms          ort
SDA:   1    -0.705761295697E+03    0.27275E-01    0.00000E+00  8424   0.820E-01 0.000E+00
CGA:   2    -0.705779219432E+03   -0.17924E-01   -0.17924E-01  8424   0.440E-01-0.170E-04
CGA:   3    -0.705787376655E+03   -0.81572E-02   -0.81595E-02  8424   0.221E-01-0.614E-04
CGA:   4    -0.705789483615E+03   -0.21070E-02   -0.21031E-02  8424   0.611E-02-0.171E-03
CGA:   5    -0.705790283991E+03   -0.80038E-03   -0.80150E-03  8424   0.127E-02 0.542E-04
CGA:   6    -0.705790488427E+03   -0.20444E-03   -0.20448E-03  8424   0.405E-03-0.539E-05
CGA:   7    -0.705790533058E+03   -0.44631E-04   -0.45610E-04  8424   0.172E-03 0.248E-04
CGA:   8    -0.705790559274E+03   -0.26216E-04   -0.26189E-04  8424   0.581E-04-0.381E-05
CGA:   9    -0.705790566300E+03   -0.70258E-05   -0.71868E-05  8424   0.224E-04 0.686E-05
  21 F= -.70579057E+03 E0= -.70577925E+03  d E =-.198996E-02  mag=     0.8359
       N       E                     dE             d eps       ncg     rms          ort
SDA:   1    -0.705609572606E+03    0.18099E+00    0.00000E+00  8424   0.494E+00 0.000E+00
CGA:   2    -0.705724500338E+03   -0.11493E+00   -0.11492E+00  8424   0.302E+00 0.436E-04
CGA:   3    -0.705771337502E+03   -0.46837E-01   -0.46837E-01  8424   0.168E+00-0.992E-03
CGA:   4    -0.705787188852E+03   -0.15851E-01   -0.15891E-01  8424   0.322E-01-0.546E-03
CGA:   5    -0.705792187169E+03   -0.49983E-02   -0.49979E-02  8424   0.742E-02 0.119E-03
CGA:   6    -0.705793314458E+03   -0.11273E-02   -0.11273E-02  8424   0.299E-02-0.182E-04
CGA:   7    -0.705793613808E+03   -0.29935E-03   -0.30233E-03  8424   0.103E-02 0.604E-04
CGA:   8    -0.705793787593E+03   -0.17378E-03   -0.17386E-03  8424   0.284E-03-0.535E-05
CGA:   9    -0.705793832492E+03   -0.44899E-04   -0.44782E-04  8424   0.173E-03 0.144E-04
CGA:  10    -0.705793857958E+03   -0.25465E-04   -0.25380E-04  8424   0.843E-04-0.789E-05
CGA:  11    -0.705793867341E+03   -0.93831E-05   -0.96772E-05  8424   0.307E-04 0.977E-05
  22 F= -.70579387E+03 E0= -.70578253E+03  d E =-.330104E-02  mag=     0.8355
       N       E                     dE             d eps       ncg     rms          ort
SDA:   1    -0.705597780044E+03    0.19608E+00    0.00000E+00  8424   0.482E+00 0.000E+00
CGA:   2    -0.705737329791E+03   -0.13955E+00   -0.13963E+00  8424   0.283E+00-0.640E-03
CGA:   3    -0.705776490198E+03   -0.39160E-01   -0.39147E-01  8424   0.117E+00 0.474E-04
CGA:   4    -0.705787542113E+03   -0.11052E-01   -0.11086E-01  8424   0.275E-01-0.371E-03
CGA:   5    -0.705791881714E+03   -0.43396E-02   -0.43396E-02  8424   0.749E-02-0.257E-04
CGA:   6    -0.705792956257E+03   -0.10745E-02   -0.10741E-02  8424   0.241E-02-0.263E-04
CGA:   7    -0.705793232642E+03   -0.27639E-03   -0.27973E-03  8424   0.951E-03 0.842E-04
CGA:   8    -0.705793365404E+03   -0.13276E-03   -0.13276E-03  8424   0.368E-03-0.374E-06
CGA:   9    -0.705793422363E+03   -0.56959E-04   -0.56979E-04  8424   0.163E-03-0.812E-05
CGA:  10    -0.705793452505E+03   -0.30142E-04   -0.30802E-04  8424   0.117E-03-0.164E-04
CGA:  11    -0.705793462239E+03   -0.97337E-05   -0.10392E-04  8424   0.396E-04 0.117E-04
  23 F= -.70579346E+03 E0= -.70578213E+03  d E =0.405102E-03  mag=     0.8355
       N       E                     dE             d eps       ncg     rms          ort
SDA:   1    -0.705629817252E+03    0.16364E+00    0.00000E+00  8424   0.404E+00 0.000E+00
CGA:   2    -0.705745242631E+03   -0.11543E+00   -0.11543E+00  8424   0.224E+00-0.770E-04
CGA:   3    -0.705781143433E+03   -0.35901E-01   -0.35901E-01  8424   0.697E-01-0.576E-04
CGA:   4    -0.705788291177E+03   -0.71477E-02   -0.71333E-02  8424   0.239E-01 0.675E-04
CGA:   5    -0.705791373730E+03   -0.30826E-02   -0.30757E-02  8424   0.702E-02-0.260E-03
CGA:   6    -0.705792324915E+03   -0.95119E-03   -0.95251E-03  8424   0.176E-02 0.528E-04
CGA:   7    -0.705792596133E+03   -0.27122E-03   -0.27129E-03  8424   0.689E-03 0.311E-04
CGA:   8    -0.705792679540E+03   -0.83407E-04   -0.84622E-04  8424   0.297E-03 0.352E-04
CGA:   9    -0.705792726424E+03   -0.46884E-04   -0.46801E-04  8424   0.158E-03-0.237E-04
CGA:  10    -0.705792751281E+03   -0.24858E-04   -0.25024E-04  8424   0.700E-04-0.905E-05
CGA:  11    -0.705792761546E+03   -0.10264E-04   -0.10262E-04  8424   0.427E-04 0.123E-05
CGA:  12    -0.705792766604E+03   -0.50580E-05   -0.52645E-05  8424   0.159E-04 0.623E-05
CGA:  13    -0.705792761133E+03    0.54705E-05   -0.11925E-04  8424   0.135E-03-0.347E-04
  24 F= -.70579276E+03 E0= -.70578145E+03  d E =0.701106E-03  mag=     0.8343
       N       E                     dE             d eps       ncg     rms          ort
SDA:   1    -0.705405708374E+03    0.38706E+00    0.00000E+00  8424   0.104E+01 0.000E+00
CGA:   2    -0.705656109885E+03   -0.25040E+00   -0.25033E+00  8424   0.560E+00 0.872E-03
CGA:   3    -0.705761196707E+03   -0.10509E+00   -0.10509E+00  8424   0.192E+00-0.553E-03
CGA:   4    -0.705781584400E+03   -0.20388E-01   -0.20322E-01  8424   0.708E-01 0.762E-04
CGA:   5    -0.705789957293E+03   -0.83729E-02   -0.83707E-02  8424   0.163E-01-0.292E-03
CGA:   6    -0.705792483315E+03   -0.25260E-02   -0.25266E-02  8424   0.426E-02 0.386E-04
CGA:   7    -0.705793104051E+03   -0.62074E-03   -0.62143E-03  8424   0.227E-02 0.272E-04
CGA:   8    -0.705793348896E+03   -0.24485E-03   -0.24836E-03  8424   0.612E-03 0.594E-04
CGA:   9    -0.705793467940E+03   -0.11904E-03   -0.11971E-03  8424   0.356E-03-0.259E-04
CGA:  10    -0.705793513619E+03   -0.45679E-04   -0.45836E-04  8424   0.137E-03 0.468E-05
CGA:  11    -0.705793538194E+03   -0.24574E-04   -0.24623E-04  8424   0.103E-03-0.374E-05
CGA:  12    -0.705793549883E+03   -0.11689E-04   -0.11864E-04  8424   0.340E-04 0.368E-05
CGA:  13    -0.705793559080E+03   -0.91977E-05   -0.10411E-04  8424   0.278E-04-0.916E-05
  25 F= -.70579356E+03 E0= -.70578217E+03  d E =-.797947E-03  mag=     0.8314
       N       E                     dE             d eps       ncg     rms          ort
SDA:   1    -0.705663657643E+03    0.12989E+00    0.00000E+00  8424   0.335E+00 0.000E+00
CGA:   2    -0.705755339112E+03   -0.91681E-01   -0.91678E-01  8424   0.192E+00-0.492E-06
CGA:   3    -0.705788613873E+03   -0.33275E-01   -0.33274E-01  8424   0.502E-01 0.155E-03
CGA:   4    -0.705794596578E+03   -0.59827E-02   -0.59828E-02  8424   0.196E-01 0.126E-03
CGA:   5    -0.705796731246E+03   -0.21347E-02   -0.21345E-02  8424   0.554E-02-0.576E-04
CGA:   6    -0.705797530031E+03   -0.79879E-03   -0.79994E-03  8424   0.130E-02 0.550E-04
CGA:   7    -0.705797752587E+03   -0.22256E-03   -0.22289E-03  8424   0.641E-03-0.531E-04
CGA:   8    -0.705797817513E+03   -0.64926E-04   -0.65776E-04  8424   0.215E-03 0.145E-04
CGA:   9    -0.705797852372E+03   -0.34859E-04   -0.34863E-04  8424   0.114E-03 0.159E-05
CGA:  10    -0.705797869541E+03   -0.17169E-04   -0.17167E-04  8424   0.423E-04-0.151E-06
CGA:  11    -0.705797879526E+03   -0.99844E-05   -0.10597E-04  8424   0.356E-04-0.678E-05
  26 F= -.70579788E+03 E0= -.70578651E+03  d E =-.432045E-02  mag=     0.8321
       N       E                     dE             d eps       ncg     rms          ort
SDA:   1    -0.705740572411E+03    0.57297E-01    0.00000E+00  8424   0.154E+00 0.000E+00
CGA:   2    -0.705779097978E+03   -0.38526E-01   -0.38521E-01  8424   0.855E-01 0.326E-04
CGA:   3    -0.705793389563E+03   -0.14292E-01   -0.14292E-01  8424   0.334E-01-0.105E-03
CGA:   4    -0.705796573154E+03   -0.31836E-02   -0.31837E-02  8424   0.100E-01 0.128E-03
CGA:   5    -0.705797975197E+03   -0.14020E-02   -0.14003E-02  8424   0.251E-02-0.820E-04
CGA:   6    -0.705798352328E+03   -0.37713E-03   -0.37731E-03  8424   0.718E-03 0.173E-04
CGA:   7    -0.705798445903E+03   -0.93575E-04   -0.93680E-04  8424   0.335E-03 0.308E-05
CGA:   8    -0.705798483959E+03   -0.38056E-04   -0.38866E-04  8424   0.101E-03 0.185E-04
CGA:   9    -0.705798503730E+03   -0.19771E-04   -0.20252E-04  8424   0.679E-04-0.141E-04
CGA:  10    -0.705798511192E+03   -0.74620E-05   -0.75470E-05  8424   0.223E-04 0.285E-05
  27 F= -.70579851E+03 E0= -.70578717E+03  d E =-.631666E-03  mag=     0.8327
       N       E                     dE             d eps       ncg     rms          ort
SDA:   1    -0.705775587599E+03    0.22916E-01    0.00000E+00  8424   0.686E-01 0.000E+00
CGA:   2    -0.705790037687E+03   -0.14450E-01   -0.14449E-01  8424   0.416E-01 0.111E-04
CGA:   3    -0.705795751272E+03   -0.57136E-02   -0.57141E-02  8424   0.240E-01 0.111E-03
CGA:   4    -0.705798436136E+03   -0.26849E-02   -0.26812E-02  8424   0.461E-02-0.117E-03
CGA:   5    -0.705799126628E+03   -0.69049E-03   -0.68999E-03  8424   0.139E-02-0.751E-04
CGA:   6    -0.705799319701E+03   -0.19307E-03   -0.19207E-03  8424   0.422E-03-0.608E-04
CGA:   7    -0.705799362373E+03   -0.42672E-04   -0.44257E-04  8424   0.156E-03 0.338E-04
CGA:   8    -0.705799383608E+03   -0.21234E-04   -0.21665E-04  8424   0.485E-04 0.168E-04
CGA:   9    -0.705799393845E+03   -0.10237E-04   -0.10493E-04  8424   0.267E-04-0.601E-05
CGA:  10    -0.705799398524E+03   -0.46790E-05   -0.58769E-05  8424   0.282E-04-0.124E-04
  28 F= -.70579940E+03 E0= -.70578804E+03  d E =-.887332E-03  mag=     0.8333
       N       E                     dE             d eps       ncg     rms          ort
SDA:   1    -0.705672592753E+03    0.12680E+00    0.00000E+00  8424   0.352E+00 0.000E+00
CGA:   2    -0.705755997547E+03   -0.83405E-01   -0.83368E-01  8424   0.184E+00 0.424E-03
CGA:   3    -0.705791406016E+03   -0.35408E-01   -0.35427E-01  8424   0.649E-01-0.467E-03
CGA:   4    -0.705798322466E+03   -0.69164E-02   -0.69222E-02  8424   0.228E-01-0.187E-05
CGA:   5    -0.705801013839E+03   -0.26914E-02   -0.26829E-02  8424   0.610E-02-0.261E-03
CGA:   6    -0.705801860991E+03   -0.84715E-03   -0.84674E-03  8424   0.160E-02-0.268E-04
CGA:   7    -0.705802099006E+03   -0.23801E-03   -0.23837E-03  8424   0.639E-03 0.542E-04
CGA:   8    -0.705802179916E+03   -0.80910E-04   -0.81975E-04  8424   0.250E-03 0.334E-04
CGA:   9    -0.705802219516E+03   -0.39600E-04   -0.39471E-04  8424   0.152E-03-0.305E-04
CGA:  10    -0.705802239989E+03   -0.20473E-04   -0.20471E-04  8424   0.516E-04-0.420E-05
CGA:  11    -0.705802249477E+03   -0.94878E-05   -0.96067E-05  8424   0.380E-04-0.319E-05
  29 F= -.70580225E+03 E0= -.70579089E+03  d E =-.285095E-02  mag=     0.8334
       N       E                     dE             d eps       ncg     rms          ort
SDA:   1    -0.705626201611E+03    0.17604E+00    0.00000E+00  8424   0.471E+00 0.000E+00
CGA:   2    -0.705744053863E+03   -0.11785E+00   -0.11780E+00  8424   0.273E+00 0.442E-03
CGA:   3    -0.705785567686E+03   -0.41514E-01   -0.41520E-01  8424   0.135E+00 0.231E-03
CGA:   4    -0.705798360033E+03   -0.12792E-01   -0.12728E-01  8424   0.280E-01 0.335E-03
CGA:   5    -0.705802876007E+03   -0.45160E-02   -0.45173E-02  8424   0.712E-02-0.243E-03
CGA:   6    -0.705803936022E+03   -0.10600E-02   -0.10602E-02  8424   0.237E-02 0.357E-04
CGA:   7    -0.705804217346E+03   -0.28132E-03   -0.28143E-03  8424   0.107E-02 0.603E-06
CGA:   8    -0.705804354244E+03   -0.13690E-03   -0.13783E-03  8424   0.297E-03 0.370E-04
CGA:   9    -0.705804414572E+03   -0.60329E-04   -0.62406E-04  8424   0.202E-03-0.408E-04
CGA:  10    -0.705804439270E+03   -0.24698E-04   -0.24618E-04  8424   0.888E-04-0.582E-05
CGA:  11    -0.705804452358E+03   -0.13088E-04   -0.13070E-04  8424   0.601E-04-0.732E-05
CGA:  12    -0.705804460549E+03   -0.81909E-05   -0.81793E-05  8424   0.214E-04-0.217E-05
CGA:  13    -0.705804414411E+03    0.46138E-04   -0.24977E-04  8424   0.540E-03-0.796E-04
CGA:  14    -0.705804448211E+03   -0.33800E-04   -0.38727E-04  8424   0.106E-03 0.223E-04
CGA:  15    -0.705804461506E+03   -0.13295E-04   -0.14659E-04  8424   0.297E-04 0.993E-05
CGA:  16    -0.705804469200E+03   -0.76950E-05   -0.71529E-05  8424   0.322E-04-0.127E-04
  30 F= -.70580447E+03 E0= -.70579312E+03  d E =-.221972E-02  mag=     0.8370
       N       E                     dE             d eps       ncg     rms          ort
SDA:   1    -0.705759512794E+03    0.44949E-01    0.00000E+00  8424   0.129E+00 0.000E+00
CGA:   2    -0.705791291180E+03   -0.31778E-01   -0.31777E-01  8424   0.635E-01-0.123E-03
CGA:   3    -0.705802988754E+03   -0.11698E-01   -0.11703E-01  8424   0.163E-01 0.657E-04
CGA:   4    -0.705805534450E+03   -0.25457E-02   -0.25485E-02  8424   0.484E-02 0.283E-04
CGA:   5    -0.705806172978E+03   -0.63853E-03   -0.64822E-03  8424   0.189E-02 0.769E-04
CGA:   6    -0.705806369242E+03   -0.19626E-03   -0.19504E-03  8424   0.561E-03-0.143E-04
CGA:   7    -0.705806459029E+03   -0.89787E-04   -0.88988E-04  8424   0.168E-03-0.107E-04
CGA:   8    -0.705806484845E+03   -0.25816E-04   -0.26031E-04  8424   0.758E-04 0.293E-05
CGA:   9    -0.705806494566E+03   -0.97212E-05   -0.10422E-04  8424   0.354E-04 0.763E-05
  31 F= -.70580649E+03 E0= -.70579516E+03  d E =-.202537E-02  mag=     0.8363
       N       E                     dE             d eps       ncg     rms          ort
SDA:   1    -0.705787644642E+03    0.18840E-01    0.00000E+00  8424   0.566E-01 0.000E+00
CGA:   2    -0.705799003289E+03   -0.11359E-01   -0.11357E-01  8424   0.515E-01-0.138E-03
CGA:   3    -0.705804677590E+03   -0.56743E-02   -0.56706E-02  8424   0.184E-01 0.190E-03
CGA:   4    -0.705807318712E+03   -0.26411E-02   -0.26410E-02  8424   0.332E-02-0.165E-04
CGA:   5    -0.705807830905E+03   -0.51219E-03   -0.51164E-03  8424   0.112E-02-0.105E-04
CGA:   6    -0.705807969116E+03   -0.13821E-03   -0.13796E-03  8424   0.377E-03-0.377E-05
CGA:   7    -0.705808009147E+03   -0.40032E-04   -0.41383E-04  8424   0.129E-03 0.147E-04
CGA:   8    -0.705808029834E+03   -0.20687E-04   -0.20467E-04  8424   0.460E-04-0.493E-05
CGA:   9    -0.705808035886E+03   -0.60515E-05   -0.62875E-05  8424   0.150E-04 0.441E-05
  32 F= -.70580804E+03 E0= -.70579670E+03  d E =-.154132E-02  mag=     0.8353
       N       E                     dE             d eps       ncg     rms          ort
SDA:   1    -0.705378132896E+03    0.42990E+00    0.00000E+00  8424   0.115E+01 0.000E+00
CGA:   2    -0.705649705375E+03   -0.27157E+00   -0.27144E+00  8424   0.822E+00 0.198E-02
CGA:   3    -0.705754597694E+03   -0.10489E+00   -0.10413E+00  8424   0.420E+00-0.208E-02
CGA:   4    -0.705800587416E+03   -0.45990E-01   -0.46111E-01  8424   0.665E-01-0.810E-03
CGA:   5    -0.705811724393E+03   -0.11137E-01   -0.11140E-01  8424   0.181E-01 0.119E-03
CGA:   6    -0.705814079894E+03   -0.23555E-02   -0.23527E-02  8424   0.818E-02-0.792E-04
CGA:   7    -0.705814954819E+03   -0.87493E-03   -0.87613E-03  8424   0.222E-02 0.202E-04
CGA:   8    -0.705815338984E+03   -0.38416E-03   -0.38404E-03  8424   0.777E-03-0.153E-04
CGA:   9    -0.705815441628E+03   -0.10264E-03   -0.10386E-03  8424   0.396E-03 0.261E-04
CGA:  10    -0.705815502547E+03   -0.60919E-04   -0.61088E-04  8424   0.205E-03 0.568E-05
CGA:  11    -0.705815529058E+03   -0.26511E-04   -0.26959E-04  8424   0.788E-04 0.944E-05
CGA:  12    -0.705815548526E+03   -0.19468E-04   -0.19751E-04  8424   0.561E-04-0.429E-05
CGA:  13    -0.705815552965E+03   -0.44388E-05   -0.50301E-05  8424   0.199E-04 0.708E-05
  33 F= -.70581555E+03 E0= -.70580421E+03  d E =-.751708E-02  mag=     0.8311
       N       E                     dE             d eps       ncg     rms          ort
SDA:   1    -0.705725493908E+03    0.90055E-01    0.00000E+00  8424   0.254E+00 0.000E+00
CGA:   2    -0.705783072151E+03   -0.57578E-01   -0.57556E-01  8424   0.137E+00 0.319E-03
CGA:   3    -0.705805504083E+03   -0.22432E-01   -0.22426E-01  8424   0.742E-01-0.404E-03
CGA:   4    -0.705812530072E+03   -0.70260E-02   -0.70253E-02  8424   0.170E-01 0.215E-03
CGA:   5    -0.705815049932E+03   -0.25199E-02   -0.25237E-02  8424   0.424E-02 0.162E-03
CGA:   6    -0.705815672853E+03   -0.62292E-03   -0.62433E-03  8424   0.123E-02 0.524E-04
CGA:   7    -0.705815850066E+03   -0.17721E-03   -0.17636E-03  8424   0.604E-03-0.318E-04
CGA:   8    -0.705815917523E+03   -0.67457E-04   -0.67525E-04  8424   0.213E-03 0.107E-05
CGA:   9    -0.705815950118E+03   -0.32594E-04   -0.32598E-04  8424   0.833E-04 0.373E-06
CGA:  10    -0.705815964073E+03   -0.13956E-04   -0.13925E-04  8424   0.281E-04 0.114E-04
CGA:  11    -0.705815971420E+03   -0.73463E-05   -0.79117E-05  8424   0.362E-04-0.682E-05
  34 F= -.70581597E+03 E0= -.70580459E+03  d E =-.418455E-03  mag=     0.8318
       N       E                     dE             d eps       ncg     rms          ort
SDA:   1    -0.705779172519E+03    0.36792E-01    0.00000E+00  8424   0.108E+00 0.000E+00
CGA:   2    -0.705803401231E+03   -0.24229E-01   -0.24218E-01  8424   0.517E-01 0.165E-03
CGA:   3    -0.705813437272E+03   -0.10036E-01   -0.10039E-01  8424   0.190E-01-0.941E-04
CGA:   4    -0.705815551033E+03   -0.21138E-02   -0.21101E-02  8424   0.742E-02-0.418E-04
CGA:   5    -0.705816418924E+03   -0.86789E-03   -0.86280E-03  8424   0.188E-02-0.114E-03
CGA:   6    -0.705816684077E+03   -0.26515E-03   -0.26550E-03  8424   0.459E-03 0.167E-04
CGA:   7    -0.705816753721E+03   -0.69644E-04   -0.69836E-04  8424   0.196E-03 0.173E-04
CGA:   8    -0.705816775979E+03   -0.22257E-04   -0.23046E-04  8424   0.713E-04 0.164E-04
CGA:   9    -0.705816789402E+03   -0.13423E-04   -0.13575E-04  8424   0.464E-04-0.907E-05
CGA:  10    -0.705816795563E+03   -0.61612E-05   -0.61210E-05  8424   0.192E-04-0.485E-05
  35 F= -.70581680E+03 E0= -.70580542E+03  d E =-.824143E-03  mag=     0.8317
       N       E                     dE             d eps       ncg     rms          ort
SDA:   1    -0.705807516510E+03    0.92729E-02    0.00000E+00  8424   0.344E-01 0.000E+00
CGA:   2    -0.705813025304E+03   -0.55088E-02   -0.55088E-02  8424   0.233E-01-0.107E-03
CGA:   3    -0.705815779862E+03   -0.27546E-02   -0.27539E-02  8424   0.108E-01 0.208E-04
CGA:   4    -0.705817500955E+03   -0.17211E-02   -0.17211E-02  8424   0.217E-02-0.636E-04
CGA:   5    -0.705817829616E+03   -0.32866E-03   -0.32906E-03  8424   0.631E-03 0.688E-04
CGA:   6    -0.705817905343E+03   -0.75727E-04   -0.76204E-04  8424   0.235E-03 0.112E-04
CGA:   7    -0.705817932360E+03   -0.27017E-04   -0.27279E-04  8424   0.694E-04 0.615E-05
CGA:   8    -0.705817945790E+03   -0.13430E-04   -0.14145E-04  8424   0.438E-04-0.160E-04
CGA:   9    -0.705817948655E+03   -0.28654E-05   -0.31521E-05  8424   0.126E-04 0.454E-05
  36 F= -.70581795E+03 E0= -.70580657E+03  d E =-.115309E-02  mag=     0.8312
       N       E                     dE             d eps       ncg     rms          ort
SDA:   1    -0.705769544340E+03    0.48401E-01    0.00000E+00  8424   0.134E+00 0.000E+00
CGA:   2    -0.705802907479E+03   -0.33363E-01   -0.33357E-01  8424   0.837E-01 0.398E-04
CGA:   3    -0.705816133622E+03   -0.13226E-01   -0.13227E-01  8424   0.393E-01-0.234E-03
CGA:   4    -0.705819729034E+03   -0.35954E-02   -0.35961E-02  8424   0.850E-02 0.110E-03
CGA:   5    -0.705820991723E+03   -0.12627E-02   -0.12628E-02  8424   0.211E-02 0.311E-04
CGA:   6    -0.705821306493E+03   -0.31477E-03   -0.31489E-03  8424   0.681E-03 0.301E-04
CGA:   7    -0.705821395158E+03   -0.88665E-04   -0.88489E-04  8424   0.310E-03-0.766E-05
CGA:   8    -0.705821430834E+03   -0.35676E-04   -0.35889E-04  8424   0.977E-04 0.622E-05
CGA:   9    -0.705821447417E+03   -0.16583E-04   -0.16722E-04  8424   0.494E-04-0.752E-05
CGA:  10    -0.705821453874E+03   -0.64567E-05   -0.64950E-05  8424   0.173E-04 0.489E-05
  37 F= -.70582145E+03 E0= -.70581007E+03  d E =-.350522E-02  mag=     0.8311
       N       E                     dE             d eps       ncg     rms          ort
SDA:   1    -0.705004700748E+03    0.81675E+00    0.00000E+00  8424   0.227E+01 0.000E+00
CGA:   2    -0.705516031321E+03   -0.51133E+00   -0.51113E+00  8424   0.119E+01 0.223E-02
CGA:   3    -0.705759177430E+03   -0.24315E+00   -0.24323E+00  8424   0.337E+00-0.151E-02
CGA:   4    -0.705808428221E+03   -0.49251E-01   -0.49268E-01  8424   0.921E-01 0.867E-03
CGA:   5    -0.705819538314E+03   -0.11110E-01   -0.11111E-01  8424   0.383E-01 0.562E-04
CGA:   6    -0.705823655033E+03   -0.41167E-02   -0.41181E-02  8424   0.936E-02 0.126E-03
CGA:   7    -0.705825346502E+03   -0.16915E-02   -0.16940E-02  8424   0.298E-02-0.966E-04
CGA:   8    -0.705825767776E+03   -0.42127E-03   -0.42167E-03  8424   0.135E-02 0.299E-04
CGA:   9    -0.705825961765E+03   -0.19399E-03   -0.19424E-03  8424   0.664E-03 0.199E-04
CGA:  10    -0.705826044082E+03   -0.82316E-04   -0.82840E-04  8424   0.271E-03 0.163E-04
CGA:  11    -0.705826101874E+03   -0.57793E-04   -0.59255E-04  8424   0.139E-03-0.241E-04
CGA:  12    -0.705826118215E+03   -0.16340E-04   -0.16807E-04  8424   0.663E-04 0.205E-04
CGA:  13    -0.705826130715E+03   -0.12500E-04   -0.12421E-04  8424   0.365E-04 0.861E-05
CGA:  14    -0.705826137424E+03   -0.67094E-05   -0.67899E-05  8424   0.253E-04-0.819E-05
  38 F= -.70582614E+03 E0= -.70581472E+03  d E =-.468355E-02  mag=     0.8281
       N       E                     dE             d eps       ncg     rms          ort
SDA:   1    -0.705439135222E+03    0.38700E+00    0.00000E+00  8424   0.114E+01 0.000E+00
CGA:   2    -0.705673149607E+03   -0.23401E+00   -0.23389E+00  8424   0.559E+00 0.211E-02
CGA:   3    -0.705786155709E+03   -0.11301E+00   -0.11295E+00  8424   0.234E+00 0.103E-02
CGA:   4    -0.705812524554E+03   -0.26369E-01   -0.26383E-01  8424   0.858E-01-0.400E-03
CGA:   5    -0.705821827356E+03   -0.93028E-02   -0.92884E-02  8424   0.201E-01-0.341E-05
CGA:   6    -0.705824878771E+03   -0.30514E-02   -0.30508E-02  8424   0.487E-02-0.107E-03
CGA:   7    -0.705825661834E+03   -0.78306E-03   -0.78298E-03  8424   0.228E-02 0.139E-04
CGA:   8    -0.705825913971E+03   -0.25214E-03   -0.25203E-03  8424   0.852E-03-0.566E-05
CGA:   9    -0.705826035062E+03   -0.12109E-03   -0.12147E-03  8424   0.318E-03 0.328E-04
CGA:  10    -0.705826094469E+03   -0.59407E-04   -0.59709E-04  8424   0.144E-03-0.112E-04
CGA:  11    -0.705826115371E+03   -0.20902E-04   -0.20909E-04  8424   0.836E-04 0.148E-05
CGA:  12    -0.705826128406E+03   -0.13035E-04   -0.13027E-04  8424   0.575E-04-0.995E-05
CGA:  13    -0.705826135231E+03   -0.68258E-05   -0.68127E-05  8424   0.173E-04-0.653E-06
  39 F= -.70582614E+03 E0= -.70581475E+03  d E =0.219290E-05  mag=     0.8303
       N       E                     dE             d eps       ncg     rms          ort
SDA:   1    -0.705785848376E+03    0.40280E-01    0.00000E+00  8424   0.122E+00 0.000E+00
CGA:   2    -0.705811362295E+03   -0.25514E-01   -0.25515E-01  8424   0.744E-01-0.336E-04
CGA:   3    -0.705821951238E+03   -0.10589E-01   -0.10587E-01  8424   0.439E-01 0.492E-04
CGA:   4    -0.705826679639E+03   -0.47284E-02   -0.47301E-02  8424   0.828E-02-0.715E-04
CGA:   5    -0.705827943924E+03   -0.12643E-02   -0.12644E-02  8424   0.229E-02 0.119E-04
CGA:   6    -0.705828259302E+03   -0.31538E-03   -0.31452E-03  8424   0.778E-03-0.404E-04
CGA:   7    -0.705828344999E+03   -0.85697E-04   -0.86597E-04  8424   0.285E-03 0.203E-04
CGA:   8    -0.705828384302E+03   -0.39302E-04   -0.39372E-04  8424   0.103E-03 0.352E-05
CGA:   9    -0.705828400515E+03   -0.16213E-04   -0.16215E-04  8424   0.377E-04-0.122E-05
CGA:  10    -0.705828407403E+03   -0.68879E-05   -0.69793E-05  8424   0.265E-04-0.270E-05
  40 F= -.70582841E+03 E0= -.70581702E+03  d E =-.227217E-02  mag=     0.8306
       N       E                     dE             d eps       ncg     rms          ort
SDA:   1    -0.705820680850E+03    0.77197E-02    0.00000E+00  8424   0.246E-01 0.000E+00
CGA:   2    -0.705825447755E+03   -0.47669E-02   -0.47656E-02  8424   0.171E-01 0.258E-04
CGA:   3    -0.705827602007E+03   -0.21543E-02   -0.21536E-02  8424   0.916E-02-0.594E-04
CGA:   4    -0.705828752470E+03   -0.11505E-02   -0.11515E-02  8424   0.162E-02 0.422E-04
CGA:   5    -0.705829010630E+03   -0.25816E-03   -0.25820E-03  8424   0.445E-03-0.649E-05
CGA:   6    -0.705829067050E+03   -0.56420E-04   -0.56458E-04  8424   0.171E-03 0.141E-05
CGA:   7    -0.705829087578E+03   -0.20528E-04   -0.20266E-04  8424   0.642E-04-0.816E-05
CGA:   8    -0.705829095307E+03   -0.77289E-05   -0.78154E-05  8424   0.172E-04 0.407E-05
  41 F= -.70582910E+03 E0= -.70581771E+03  d E =-.687904E-03  mag=     0.8305
       N       E                     dE             d eps       ncg     rms          ort
SDA:   1    -0.705814017564E+03    0.15070E-01    0.00000E+00  8424   0.423E-01 0.000E+00
CGA:   2    -0.705824177190E+03   -0.10160E-01   -0.10177E-01  8424   0.289E-01-0.194E-03
CGA:   3    -0.705828068977E+03   -0.38918E-02   -0.38950E-02  8424   0.143E-01 0.135E-03
CGA:   4    -0.705829544612E+03   -0.14756E-02   -0.14760E-02  8424   0.277E-02-0.210E-04
CGA:   5    -0.705829964269E+03   -0.41966E-03   -0.41966E-03  8424   0.786E-03-0.108E-04
CGA:   6    -0.705830070637E+03   -0.10637E-03   -0.10626E-03  8424   0.263E-03-0.716E-05
CGA:   7    -0.705830101328E+03   -0.30691E-04   -0.30913E-04  8424   0.994E-04 0.686E-05
CGA:   8    -0.705830115123E+03   -0.13795E-04   -0.13732E-04  8424   0.399E-04-0.437E-05
CGA:   9    -0.705830119838E+03   -0.47144E-05   -0.48203E-05  8424   0.109E-04 0.478E-05
  42 F= -.70583012E+03 E0= -.70581874E+03  d E =-.102453E-02  mag=     0.8304
       N       E                     dE             d eps       ncg     rms          ort
SDA:   1    -0.705792837545E+03    0.37278E-01    0.00000E+00  8424   0.102E+00 0.000E+00
CGA:   2    -0.705816498403E+03   -0.23661E-01   -0.23666E-01  8424   0.712E-01-0.831E-04
CGA:   3    -0.705825860799E+03   -0.93624E-02   -0.93599E-02  8424   0.372E-01 0.741E-04
CGA:   4    -0.705829860440E+03   -0.39996E-02   -0.40020E-02  8424   0.633E-02-0.391E-04
CGA:   5    -0.705830865187E+03   -0.10047E-02   -0.10048E-02  8424   0.176E-02-0.130E-04
CGA:   6    -0.705831104091E+03   -0.23890E-03   -0.23803E-03  8424   0.718E-03-0.465E-04
CGA:   7    -0.705831178372E+03   -0.74281E-04   -0.74931E-04  8424   0.219E-03 0.138E-04
CGA:   8    -0.705831211098E+03   -0.32726E-04   -0.32758E-04  8424   0.779E-04 0.755E-05
CGA:   9    -0.705831222997E+03   -0.11899E-04   -0.11909E-04  8424   0.286E-04 0.310E-05
CGA:  10    -0.705831228767E+03   -0.57701E-05   -0.57727E-05  8424   0.194E-04-0.798E-07
  43 F= -.70583123E+03 E0= -.70581984E+03  d E =-.110893E-02  mag=     0.8297
       N       E                     dE             d eps       ncg     rms          ort
SDA:   1    -0.705773351830E+03    0.57871E-01    0.00000E+00  8424   0.156E+00 0.000E+00
CGA:   2    -0.705810817464E+03   -0.37466E-01   -0.37451E-01  8424   0.853E-01 0.150E-03
CGA:   3    -0.705827117077E+03   -0.16300E-01   -0.16298E-01  8424   0.262E-01 0.162E-04
CGA:   4    -0.705830171583E+03   -0.30545E-02   -0.30554E-02  8424   0.999E-02 0.291E-04
CGA:   5    -0.705831254477E+03   -0.10829E-02   -0.10794E-02  8424   0.264E-02-0.955E-04
CGA:   6    -0.705831646365E+03   -0.39189E-03   -0.39187E-03  8424   0.625E-03-0.134E-04
CGA:   7    -0.705831745205E+03   -0.98840E-04   -0.98754E-04  8424   0.305E-03 0.116E-04
CGA:   8    -0.705831776296E+03   -0.31091E-04   -0.31856E-04  8424   0.922E-04 0.154E-04
CGA:   9    -0.705831794731E+03   -0.18435E-04   -0.18780E-04  8424   0.530E-04-0.781E-05
CGA:  10    -0.705831800450E+03   -0.57189E-05   -0.58579E-05  8424   0.180E-04 0.448E-05
  44 F= -.70583180E+03 E0= -.70582041E+03  d E =-.571683E-03  mag=     0.8294
       N       E                     dE             d eps       ncg     rms          ort
SDA:   1    -0.705808379474E+03    0.23415E-01    0.00000E+00  8424   0.660E-01 0.000E+00
CGA:   2    -0.705821944304E+03   -0.13565E-01   -0.13562E-01  8424   0.417E-01 0.424E-04
CGA:   3    -0.705827684108E+03   -0.57398E-02   -0.57390E-02  8424   0.248E-01 0.155E-04
CGA:   4    -0.705830479332E+03   -0.27952E-02   -0.27932E-02  8424   0.443E-02-0.100E-03
CGA:   5    -0.705831174863E+03   -0.69553E-03   -0.69520E-03  8424   0.108E-02 0.580E-04
CGA:   6    -0.705831322204E+03   -0.14734E-03   -0.14735E-03  8424   0.467E-03-0.297E-06
CGA:   7    -0.705831369879E+03   -0.47675E-04   -0.48214E-04  8424   0.129E-03 0.111E-04
CGA:   8    -0.705831394256E+03   -0.24377E-04   -0.24770E-04  8424   0.533E-04-0.103E-04
CGA:   9    -0.705831400132E+03   -0.58757E-05   -0.59518E-05  8424   0.214E-04 0.255E-05
  45 F= -.70583140E+03 E0= -.70582001E+03  d E =0.400318E-03  mag=     0.8295
       N       E                     dE             d eps       ncg     rms          ort
SDA:   1    -0.705829507094E+03    0.18872E-02    0.00000E+00  8424   0.872E-02 0.000E+00
CGA:   2    -0.705830557660E+03   -0.10506E-02   -0.10489E-02  8424   0.562E-02-0.692E-04
CGA:   3    -0.705831305697E+03   -0.74804E-03   -0.74814E-03  8424   0.200E-02 0.702E-05
CGA:   4    -0.705831657526E+03   -0.35183E-03   -0.35227E-03  8424   0.524E-03-0.166E-04
CGA:   5    -0.705831732202E+03   -0.74675E-04   -0.74710E-04  8424   0.137E-03 0.567E-05
CGA:   6    -0.705831751383E+03   -0.19181E-04   -0.19247E-04  8424   0.447E-04 0.618E-05
CGA:   7    -0.705831755676E+03   -0.42931E-05   -0.45083E-05  8424   0.146E-04 0.410E-05
  46 F= -.70583176E+03 E0= -.70582038E+03  d E =-.355544E-03  mag=     0.8293
