       N       E                     dE             d eps       ncg     rms          ort
DAV:   1     0.112514537219E+05    0.11251E+05   -0.46639E+05  8540   0.170E+03
DAV:   2     0.295822999383E+02   -0.11222E+05   -0.10206E+05  8540   0.487E+02
DAV:   3    -0.160874026035E+04   -0.16383E+04   -0.15524E+04  8540   0.198E+02
DAV:   4    -0.169307153634E+04   -0.84331E+02   -0.83125E+02  8540   0.457E+01
DAV:   5    -0.169414913427E+04   -0.10776E+01   -0.10743E+01  8540   0.559E+00
SDA:   6    -0.805320247990E+03    0.88883E+03   -0.10743E+01  8540   0.299E+04 0.000E+00
CGA:   7    -0.122981691011E+04   -0.42450E+03   -0.42548E+03  8540   0.304E+03 0.318E+02
CGA:   8    -0.128796360453E+04   -0.58147E+02   -0.58142E+02  8540   0.753E+02 0.105E+01
CGA:   9    -0.131226327049E+04   -0.24300E+02   -0.24298E+02  8540   0.395E+02-0.379E-01
CGA:  10    -0.132102552456E+04   -0.87623E+01   -0.87784E+01  8540   0.107E+02-0.729E+00
CGA:  11    -0.132352075736E+04   -0.24952E+01   -0.25112E+01  8540   0.270E+01-0.505E+00
CGA:  12    -0.132416636924E+04   -0.64561E+00   -0.65370E+00  8540   0.777E+00-0.167E+00
CGA:  13    -0.132437628928E+04   -0.20992E+00   -0.21002E+00  8540   0.261E+00-0.212E-02
CGA:  14    -0.132446160892E+04   -0.85320E-01   -0.89034E-01  8540   0.117E+00-0.293E-01
CGA:  15    -0.132449730238E+04   -0.35693E-01   -0.52062E-01  8540   0.100E+00-0.589E-01
CGA:  16    -0.132452356203E+04   -0.26260E-01   -0.26633E-01  8540   0.321E-01-0.115E-01
CGA:  17    -0.132453202381E+04   -0.84618E-02   -0.11322E-01  8540   0.298E-01-0.174E-01
CGA:  18    -0.132453798157E+04   -0.59578E-02   -0.56969E-02  8540   0.634E-02-0.521E-02
CGA:  19    -0.132453802260E+04   -0.41029E-04   -0.37381E-02  8540   0.235E-01-0.783E-02
CGA:  20    -0.132454272704E+04   -0.47044E-02   -0.44076E-02  8540   0.427E-02-0.398E-02
CGA:  21    -0.132454382343E+04   -0.10964E-02   -0.12211E-02  8540   0.150E-02-0.147E-02
CGA:  22    -0.132454477856E+04   -0.95512E-03    0.15415E-03  8540   0.415E-03 0.187E-03
CGA:  23    -0.132454538022E+04   -0.60166E-03    0.42734E-04  8540   0.127E-03 0.194E-03
CGA:  24    -0.132454582065E+04   -0.44043E-03    0.70477E-05  8540   0.954E-04 0.913E-04
CGA:  25    -0.132454608332E+04   -0.26267E-03    0.29912E-05  8540   0.680E-04 0.399E-04
CGA:  26    -0.132454640033E+04   -0.31700E-03    0.24341E-05  8540   0.389E-04 0.655E-04
CGA:  27    -0.132454649295E+04   -0.92619E-04    0.14607E-05  8540   0.275E-04 0.247E-04
CGA:  28    -0.132454663130E+04   -0.13835E-03    0.42496E-06  8540   0.227E-04 0.180E-04
CGA:  29    -0.132454671749E+04   -0.86194E-04    0.48557E-06  8540   0.195E-04 0.126E-04
CGA:  30    -0.132454682243E+04   -0.10494E-03    0.27877E-06  8540   0.174E-04 0.800E-05
CGA:  31    -0.132454697632E+04   -0.15389E-03    0.29838E-06  8540   0.888E-05 0.187E-04
CGA:  32    -0.132454702105E+04   -0.44727E-04    0.13728E-06  8540   0.774E-05 0.404E-05
CGA:  33    -0.132454712219E+04   -0.10114E-03    0.93017E-07  8540   0.407E-05 0.865E-05
CGA:  34    -0.132454716958E+04   -0.47393E-04    0.25507E-07  8540   0.353E-05 0.204E-05
CGA:  35    -0.132454719288E+04   -0.23301E-04    0.40538E-07  8540   0.316E-05 0.126E-05
CGA:  36    -0.132454725215E+04   -0.59274E-04    0.22440E-07  8540   0.167E-05 0.329E-05
CGA:  37    -0.132454728179E+04   -0.29635E-04    0.67316E-08  8540   0.147E-05 0.612E-06
CGA:  38    -0.132454731925E+04   -0.37459E-04    0.77606E-08  8540   0.796E-06 0.155E-05
CGA:  39    -0.132454732769E+04   -0.84440E-05    0.55053E-08  8540   0.694E-06 0.300E-06
   1 F= -.13245473E+04 E0= -.13245473E+04  d E =-.132455E+04  mag=   126.0000
       N       E                     dE             d eps       ncg     rms          ort
SDA:   1    -0.132454688471E+04    0.43454E-03    0.00000E+00  8540   0.532E-02 0.000E+00
CGA:   2    -0.132454820931E+04   -0.13246E-02   -0.13230E-02  8540   0.242E-02-0.105E-03
CGA:   3    -0.132454867069E+04   -0.46138E-03   -0.47102E-03  8540   0.466E-03 0.149E-03
CGA:   4    -0.132454875494E+04   -0.84254E-04   -0.90289E-04  8540   0.803E-04 0.776E-04
CGA:   5    -0.132454878058E+04   -0.25638E-04   -0.26029E-04  8540   0.341E-04-0.181E-04
CGA:   6    -0.132454874743E+04    0.33155E-04   -0.24678E-04  8540   0.297E-03-0.856E-04
CGA:   7    -0.132454878670E+04   -0.39277E-04   -0.44005E-04  8540   0.335E-04 0.330E-04
CGA:   8    -0.132454878806E+04   -0.13592E-05   -0.47043E-05  8540   0.146E-04 0.212E-04
   2 F= -.13245488E+04 E0= -.13245488E+04  d E =-.146037E-02  mag=   126.0000
       N       E                     dE             d eps       ncg     rms          ort
SDA:   1    -0.132451572345E+04    0.33063E-01    0.00000E+00  8540   0.106E+00 0.000E+00
CGA:   2    -0.132454162776E+04   -0.25904E-01   -0.25892E-01  8540   0.464E-01-0.496E-03
CGA:   3    -0.132455132606E+04   -0.96983E-02   -0.97454E-02  8540   0.970E-02 0.789E-03
CGA:   4    -0.132455329895E+04   -0.19729E-02   -0.19984E-02  8540   0.168E-02 0.396E-03
CGA:   5    -0.132455369463E+04   -0.39568E-03   -0.39402E-03  8540   0.421E-03-0.442E-04
CGA:   6    -0.132455380518E+04   -0.11055E-03   -0.11102E-03  8540   0.141E-03-0.487E-04
CGA:   7    -0.132455382313E+04   -0.17953E-04   -0.21284E-04  8540   0.362E-04 0.365E-04
CGA:   8    -0.132455382218E+04    0.95333E-06   -0.40088E-05  8540   0.185E-04 0.293E-04
   3 F= -.13245538E+04 E0= -.13245538E+04  d E =-.503412E-02  mag=   126.0000
       N       E                     dE             d eps       ncg     rms          ort
SDA:   1    -0.132218017846E+04    0.23736E+01    0.00000E+00  8540   0.625E+01 0.000E+00
CGA:   2    -0.132386188971E+04   -0.16817E+01   -0.16817E+01  8540   0.272E+01-0.273E-02
CGA:   3    -0.132441218701E+04   -0.55030E+00   -0.55066E+00  8540   0.560E+00 0.977E-02
CGA:   4    -0.132452826066E+04   -0.11607E+00   -0.11622E+00  8540   0.939E-01 0.431E-02
CGA:   5    -0.132454880702E+04   -0.20546E-01   -0.20534E-01  8540   0.221E-01-0.655E-03
CGA:   6    -0.132455427980E+04   -0.54728E-02   -0.54764E-02  8540   0.619E-02-0.297E-03
CGA:   7    -0.132455574247E+04   -0.14627E-02   -0.14617E-02  8540   0.171E-02 0.521E-03
CGA:   8    -0.132455611794E+04   -0.37548E-03   -0.39200E-03  8540   0.528E-03 0.628E-03
CGA:   9    -0.132455622643E+04   -0.10849E-03   -0.12832E-03  8540   0.223E-03 0.338E-03
CGA:  10    -0.132455628823E+04   -0.61804E-04   -0.58692E-04  8540   0.990E-04 0.102E-03
CGA:  11    -0.132455630093E+04   -0.12693E-04   -0.21714E-04  8540   0.615E-04 0.107E-03
CGA:  12    -0.132455630091E+04    0.16291E-07   -0.65508E-05  8540   0.471E-04 0.529E-04
   4 F= -.13245563E+04 E0= -.13245563E+04  d E =-.247873E-02  mag=   126.0000
       N       E                     dE             d eps       ncg     rms          ort
SDA:   1    -0.132431874248E+04    0.23756E+00    0.00000E+00  8540   0.606E+00 0.000E+00
CGA:   2    -0.132450384537E+04   -0.18510E+00   -0.18494E+00  8540   0.231E+00 0.182E-02
CGA:   3    -0.132454991859E+04   -0.46073E-01   -0.45979E-01  8540   0.527E-01-0.406E-02
CGA:   4    -0.132456081344E+04   -0.10895E-01   -0.10879E-01  8540   0.860E-02-0.151E-02
CGA:   5    -0.132456241896E+04   -0.16055E-02   -0.16215E-02  8540   0.173E-02 0.605E-03
CGA:   6    -0.132456281867E+04   -0.39971E-03   -0.40054E-03  8540   0.443E-03 0.293E-03
CGA:   7    -0.132456298312E+04   -0.16445E-03   -0.24772E-03  8540   0.580E-03-0.321E-03
CGA:   8    -0.132456312073E+04   -0.13761E-03   -0.13848E-03  8540   0.135E-03-0.130E-03
CGA:   9    -0.132456317827E+04   -0.57536E-04    0.65758E-04  8540   0.226E-04 0.108E-04
CGA:  10    -0.132456319234E+04   -0.14068E-04    0.11748E-04  8540   0.700E-05 0.457E-05
CGA:  11    -0.132456320150E+04   -0.91624E-05    0.72864E-06  8540   0.326E-05 0.337E-05
   5 F= -.13245632E+04 E0= -.13245632E+04  d E =-.690059E-02  mag=   126.0000
       N       E                     dE             d eps       ncg     rms          ort
SDA:   1    -0.132453878661E+04    0.24406E-01    0.00000E+00  8540   0.723E-01 0.000E+00
CGA:   2    -0.132455604808E+04   -0.17261E-01   -0.17259E-01  8540   0.303E-01 0.319E-03
CGA:   3    -0.132456288156E+04   -0.68335E-02   -0.68287E-02  8540   0.702E-02-0.574E-03
CGA:   4    -0.132456442603E+04   -0.15445E-02   -0.15408E-02  8540   0.143E-02-0.443E-03
CGA:   5    -0.132456467064E+04   -0.24461E-03   -0.24915E-03  8540   0.268E-03 0.974E-04
CGA:   6    -0.132456471538E+04   -0.44741E-04   -0.49734E-04  8540   0.727E-04 0.894E-04
CGA:   7    -0.132456473761E+04   -0.22235E-04   -0.22203E-04  8540   0.276E-04 0.140E-04
CGA:   8    -0.132456475686E+04   -0.19249E-04    0.12967E-04  8540   0.986E-05 0.624E-05
CGA:   9    -0.132456476984E+04   -0.12975E-04    0.10031E-05  8540   0.381E-05 0.323E-05
CGA:  10    -0.132456477653E+04   -0.66962E-05    0.29871E-06  8540   0.152E-05 0.147E-05
   6 F= -.13245648E+04 E0= -.13245648E+04  d E =-.157503E-02  mag=   126.0000
       N       E                     dE             d eps       ncg     rms          ort
SDA:   1    -0.132445248981E+04    0.11228E+00    0.00000E+00  8540   0.319E+00 0.000E+00
CGA:   2    -0.132452727560E+04   -0.74786E-01   -0.74784E-01  8540   0.135E+00 0.884E-04
CGA:   3    -0.132455769038E+04   -0.30415E-01   -0.30415E-01  8540   0.316E-01 0.134E-04
CGA:   4    -0.132456436138E+04   -0.66710E-02   -0.66654E-02  8540   0.558E-02-0.352E-03
CGA:   5    -0.132456549235E+04   -0.11310E-02   -0.11336E-02  8540   0.122E-02 0.124E-03
CGA:   6    -0.132456577615E+04   -0.28381E-03   -0.28348E-03  8540   0.303E-03 0.126E-03
CGA:   7    -0.132456587144E+04   -0.95283E-04   -0.96237E-04  8540   0.106E-03-0.154E-04
CGA:   8    -0.132456590457E+04   -0.33139E-04   -0.35420E-04  8540   0.462E-04-0.187E-04
CGA:   9    -0.132456591653E+04   -0.11959E-04   -0.12686E-04  8540   0.168E-04-0.736E-05
CGA:  10    -0.132456592025E+04   -0.37115E-05   -0.36726E-05  8540   0.482E-05 0.191E-05
   7 F= -.13245659E+04 E0= -.13245659E+04  d E =-.114371E-02  mag=   126.0000
       N       E                     dE             d eps       ncg     rms          ort
SDA:   1    -0.132444831644E+04    0.11760E+00    0.00000E+00  8540   0.294E+00 0.000E+00
CGA:   2    -0.132453785920E+04   -0.89543E-01   -0.89596E-01  8540   0.117E+00-0.882E-03
CGA:   3    -0.132456048482E+04   -0.22626E-01   -0.22662E-01  8540   0.246E-01 0.685E-03
CGA:   4    -0.132456553725E+04   -0.50524E-02   -0.50579E-02  8540   0.391E-02 0.147E-03
CGA:   5    -0.132456637613E+04   -0.83888E-03   -0.83958E-03  8540   0.957E-03 0.260E-04
CGA:   6    -0.132456660029E+04   -0.22416E-03   -0.22450E-03  8540   0.236E-03 0.665E-04
CGA:   7    -0.132456666771E+04   -0.67413E-04   -0.67173E-04  8540   0.796E-04 0.841E-05
CGA:   8    -0.132456668076E+04   -0.13050E-04   -0.15097E-04  8540   0.274E-04 0.364E-04
CGA:   9    -0.132456668305E+04   -0.22941E-05   -0.49189E-05  8540   0.129E-04 0.232E-04
   8 F= -.13245667E+04 E0= -.13245667E+04  d E =-.762806E-03  mag=   126.0000
       N       E                     dE             d eps       ncg     rms          ort
SDA:   1    -0.132403290400E+04    0.53378E+00    0.00000E+00  8540   0.134E+01 0.000E+00
CGA:   2    -0.132442020264E+04   -0.38730E+00   -0.38744E+00  8540   0.588E+00-0.249E-02
CGA:   3    -0.132453520665E+04   -0.11500E+00   -0.11509E+00  8540   0.112E+00 0.226E-02
CGA:   4    -0.132455857731E+04   -0.23371E-01   -0.23390E-01  8540   0.188E-01 0.910E-03
CGA:   5    -0.132456275064E+04   -0.41733E-02   -0.41724E-02  8540   0.463E-02-0.133E-03
CGA:   6    -0.132456388279E+04   -0.11321E-02   -0.11332E-02  8540   0.126E-02-0.519E-04
CGA:   7    -0.132456419625E+04   -0.31346E-03   -0.31229E-03  8540   0.366E-03 0.498E-04
CGA:   8    -0.132456427773E+04   -0.81480E-04   -0.82820E-04  8540   0.107E-03 0.119E-03
CGA:   9    -0.132456430055E+04   -0.22827E-04   -0.25837E-04  8540   0.441E-04 0.650E-04
CGA:  10    -0.132456431502E+04   -0.14470E-04   -0.13268E-04  8540   0.195E-04 0.160E-04
CGA:  11    -0.132456431825E+04   -0.32264E-05   -0.44199E-05  8540   0.106E-04 0.187E-04
   9 F= -.13245643E+04 E0= -.13245643E+04  d E =0.236480E-02  mag=   126.0000
       N       E                     dE             d eps       ncg     rms          ort
SDA:   1    -0.132442917072E+04    0.13514E+00    0.00000E+00  8540   0.388E+00 0.000E+00
CGA:   2    -0.132451860931E+04   -0.89439E-01   -0.89431E-01  8540   0.168E+00 0.664E-03
CGA:   3    -0.132455656961E+04   -0.37960E-01   -0.37963E-01  8540   0.382E-01-0.970E-03
CGA:   4    -0.132456452680E+04   -0.79572E-02   -0.79522E-02  8540   0.693E-02-0.398E-03
CGA:   5    -0.132456598170E+04   -0.14549E-02   -0.14551E-02  8540   0.157E-02 0.179E-04
CGA:   6    -0.132456636228E+04   -0.38057E-03   -0.38058E-03  8540   0.437E-03-0.736E-06
CGA:   7    -0.132456648346E+04   -0.12119E-03   -0.12256E-03  8540   0.139E-03-0.237E-04
CGA:   8    -0.132456651924E+04   -0.35770E-04   -0.68977E-04  8540   0.204E-03-0.112E-03
CGA:   9    -0.132456655691E+04   -0.37678E-04   -0.37613E-04  8540   0.222E-04-0.122E-05
CGA:  10    -0.132456656403E+04   -0.71178E-05   -0.74535E-05  8540   0.705E-05-0.337E-05
CGA:  11    -0.132456654125E+04    0.22777E-04   -0.12311E-04  8540   0.132E-03-0.244E-04
CGA:  12    -0.132456657562E+04   -0.34368E-04   -0.30300E-04  8540   0.177E-04-0.192E-04
CGA:  13    -0.132456657571E+04   -0.90033E-07   -0.22677E-05  8540   0.544E-05 0.773E-05
  10 F= -.13245666E+04 E0= -.13245666E+04  d E =-.225746E-02  mag=   126.0000
       N       E                     dE             d eps       ncg     rms          ort
SDA:   1    -0.132450324992E+04    0.63326E-01    0.00000E+00  8540   0.163E+00 0.000E+00
CGA:   2    -0.132454943890E+04   -0.46189E-01   -0.46225E-01  8540   0.702E-01 0.254E-03
CGA:   3    -0.132456359744E+04   -0.14159E-01   -0.14108E-01  8540   0.145E-01-0.280E-03
CGA:   4    -0.132456663704E+04   -0.30396E-02   -0.30276E-02  8540   0.235E-02-0.679E-04
CGA:   5    -0.132456713318E+04   -0.49614E-03   -0.49744E-03  8540   0.561E-03 0.715E-05
CGA:   6    -0.132456727879E+04   -0.14562E-03   -0.14414E-03  8540   0.158E-03-0.131E-04
CGA:   7    -0.132456732010E+04   -0.41304E-04   -0.41014E-04  8540   0.496E-04-0.296E-05
CGA:   8    -0.132456733221E+04   -0.12116E-04   -0.34366E-04  8540   0.150E-03-0.642E-04
CGA:   9    -0.132456735747E+04   -0.25257E-04   -0.26722E-04  8540   0.138E-04 0.735E-05
CGA:  10    -0.132456736070E+04   -0.32317E-05   -0.34852E-05  8540   0.239E-05 0.200E-05
  11 F= -.13245674E+04 E0= -.13245674E+04  d E =-.784988E-03  mag=   126.0000
       N       E                     dE             d eps       ncg     rms          ort
SDA:   1    -0.132455624861E+04    0.11109E-01    0.00000E+00  8540   0.310E-01 0.000E+00
CGA:   2    -0.132456342946E+04   -0.71809E-02   -0.71905E-02  8540   0.141E-01 0.672E-04
CGA:   3    -0.132456657584E+04   -0.31464E-02   -0.31477E-02  8540   0.302E-02 0.563E-05
CGA:   4    -0.132456719263E+04   -0.61679E-03   -0.61834E-03  8540   0.540E-03 0.109E-04
CGA:   5    -0.132456730440E+04   -0.11177E-03   -0.11401E-03  8540   0.123E-03 0.182E-04
CGA:   6    -0.132456733246E+04   -0.28052E-04   -0.28893E-04  8540   0.306E-04 0.856E-05
CGA:   7    -0.132456734057E+04   -0.81182E-05   -0.83020E-05  8540   0.894E-05 0.273E-05
  12 F= -.13245673E+04 E0= -.13245673E+04  d E =0.201268E-04  mag=   126.0000
       N       E                     dE             d eps       ncg     rms          ort
SDA:   1    -0.132452030942E+04    0.47023E-01    0.00000E+00  8540   0.132E+00 0.000E+00
CGA:   2    -0.132455056982E+04   -0.30260E-01   -0.30272E-01  8540   0.598E-01 0.817E-04
CGA:   3    -0.132456407330E+04   -0.13503E-01   -0.13513E-01  8540   0.129E-01 0.934E-04
CGA:   4    -0.132456669898E+04   -0.26257E-02   -0.26287E-02  8540   0.221E-02 0.261E-04
CGA:   5    -0.132456718060E+04   -0.48163E-03   -0.48443E-03  8540   0.526E-03 0.326E-04
CGA:   6    -0.132456730586E+04   -0.12525E-03   -0.12598E-03  8540   0.133E-03 0.117E-04
CGA:   7    -0.132456734122E+04   -0.35369E-04   -0.35414E-04  8540   0.393E-04 0.130E-05
CGA:   8    -0.132456735094E+04   -0.97175E-05   -0.99696E-05  8540   0.108E-04 0.607E-05
  13 F= -.13245674E+04 E0= -.13245674E+04  d E =-.103684E-04  mag=   126.0000
       N       E                     dE             d eps       ncg     rms          ort
SDA:   1    -0.132448148137E+04    0.85860E-01    0.00000E+00  8540   0.245E+00 0.000E+00
CGA:   2    -0.132453490401E+04   -0.53423E-01   -0.53447E-01  8540   0.107E+00 0.208E-03
CGA:   3    -0.132455990942E+04   -0.25005E-01   -0.25016E-01  8540   0.246E-01 0.173E-03
CGA:   4    -0.132456492769E+04   -0.50183E-02   -0.50267E-02  8540   0.422E-02 0.102E-03
CGA:   5    -0.132456585876E+04   -0.93107E-03   -0.93214E-03  8540   0.102E-02 0.156E-04
CGA:   6    -0.132456610942E+04   -0.25066E-03   -0.25001E-03  8540   0.271E-03-0.207E-04
CGA:   7    -0.132456617732E+04   -0.67898E-04   -0.67895E-04  8540   0.775E-04-0.246E-06
CGA:   8    -0.132456619732E+04   -0.19998E-04   -0.20097E-04  8540   0.212E-04 0.667E-05
CGA:   9    -0.132456620485E+04   -0.75360E-05   -0.75019E-05  8540   0.739E-05 0.637E-06
  14 F= -.13245662E+04 E0= -.13245662E+04  d E =0.114609E-02  mag=   126.0000
       N       E                     dE             d eps       ncg     rms          ort
SDA:   1    -0.132451933620E+04    0.46861E-01    0.00000E+00  8540   0.138E+00 0.000E+00
CGA:   2    -0.132454976425E+04   -0.30428E-01   -0.30441E-01  8540   0.607E-01 0.128E-03
CGA:   3    -0.132456387925E+04   -0.14115E-01   -0.14113E-01  8540   0.138E-01-0.538E-04
CGA:   4    -0.132456672970E+04   -0.28504E-02   -0.28460E-02  8540   0.243E-02-0.642E-04
CGA:   5    -0.132456726840E+04   -0.53871E-03   -0.53708E-03  8540   0.588E-03-0.313E-04
CGA:   6    -0.132456741083E+04   -0.14243E-03   -0.14187E-03  8540   0.158E-03-0.195E-04
CGA:   7    -0.132456744920E+04   -0.38366E-04   -0.38379E-04  8540   0.446E-04 0.628E-06
CGA:   8    -0.132456746307E+04   -0.13873E-04   -0.14127E-04  8540   0.172E-04-0.571E-05
CGA:   9    -0.132456746844E+04   -0.53674E-05   -0.65248E-05  8540   0.115E-04-0.713E-05
  15 F= -.13245675E+04 E0= -.13245675E+04  d E =-.126358E-02  mag=   126.0000
       N       E                     dE             d eps       ncg     rms          ort
SDA:   1    -0.132456283999E+04    0.46231E-02    0.00000E+00  8540   0.147E-01 0.000E+00
CGA:   2    -0.132456572106E+04   -0.28811E-02   -0.28881E-02  8540   0.557E-02 0.670E-04
CGA:   3    -0.132456715104E+04   -0.14300E-02   -0.14288E-02  8540   0.161E-02-0.427E-04
CGA:   4    -0.132456749265E+04   -0.34161E-03   -0.33764E-03  8540   0.308E-03-0.545E-04
CGA:   5    -0.132456755566E+04   -0.63016E-04   -0.62432E-04  8540   0.739E-04-0.844E-05
CGA:   6    -0.132456757047E+04   -0.14812E-04   -0.15088E-04  8540   0.167E-04 0.408E-05
CGA:   7    -0.132456757527E+04   -0.47975E-05   -0.47969E-05  8540   0.543E-05-0.755E-06
CGA:   8    -0.132456757812E+04   -0.28445E-05    0.20002E-03  8540   0.157E-05 0.138E-07
  16 F= -.13245676E+04 E0= -.13245676E+04  d E =-.109681E-03  mag=   126.0000
