       N       E                     dE             d eps       ncg     rms          rms(c)
DAV:   1     0.307139808334E+04    0.30714E+04   -0.25837E+05 73548   0.131E+03
DAV:   2    -0.611253759592E+03   -0.36827E+04   -0.35498E+04 89736   0.297E+02
DAV:   3    -0.872603975684E+03   -0.26135E+03   -0.25968E+03 88956   0.837E+01
DAV:   4    -0.875876425201E+03   -0.32724E+01   -0.32603E+01 89424   0.101E+01
DAV:   5    -0.875931785700E+03   -0.55360E-01   -0.55224E-01 90996   0.121E+00    0.991E+01
DAV:   6    -0.780072653400E+03    0.95859E+02   -0.40487E+02 83388   0.319E+01    0.501E+01
DAV:   7    -0.789287025228E+03   -0.92144E+01   -0.21894E+01 82944   0.766E+00    0.163E+01
DAV:   8    -0.793593224174E+03   -0.43062E+01   -0.18540E+00 86196   0.253E+00    0.778E+00
DAV:   9    -0.795754228120E+03   -0.21610E+01   -0.10056E+00 87168   0.168E+00    0.385E+00
DAV:  10    -0.796268415908E+03   -0.51419E+00   -0.29058E-01 85764   0.932E-01    0.110E+00
DAV:  11    -0.796339431417E+03   -0.71016E-01   -0.40036E-02 86172   0.354E-01    0.609E-01
DAV:  12    -0.796349039092E+03   -0.96077E-02   -0.49820E-03 86412   0.135E-01    0.273E-01
DAV:  13    -0.796351369981E+03   -0.23309E-02   -0.12185E-03 86148   0.644E-02    0.835E-02
DAV:  14    -0.796351818156E+03   -0.44818E-03   -0.30418E-04 84276   0.316E-02    0.427E-02
DAV:  15    -0.796351857261E+03   -0.39104E-04   -0.32049E-05 77256   0.146E-02    0.272E-02
DAV:  16    -0.796351874722E+03   -0.17461E-04   -0.16001E-05 59304   0.101E-02    0.110E-02
DAV:  17    -0.796351878612E+03   -0.38905E-05   -0.57430E-06 60048   0.637E-03
   1 F= -.79635188E+03 E0= -.79635188E+03  d E =-.796352E+03  mag=    -0.0015
