       N       E                     dE             d eps       ncg     rms          ort
DAV:   1     0.102717197953E+05    0.10272E+05   -0.42605E+05 10640   0.156E+03
DAV:   2    -0.147432408725E+03   -0.10419E+05   -0.98272E+04 10640   0.475E+02
DAV:   3    -0.154812296645E+04   -0.14007E+04   -0.13088E+04 10640   0.182E+02
DAV:   4    -0.162858637669E+04   -0.80463E+02   -0.78301E+02 10640   0.459E+01
DAV:   5    -0.163088950732E+04   -0.23031E+01   -0.22955E+01 10640   0.827E+00
SDA:   6    -0.766124662976E+03    0.86476E+03   -0.22955E+01 10640   0.284E+04 0.000E+00
CGA:   7    -0.116335400694E+04   -0.39723E+03   -0.39453E+03 10640   0.114E+04-0.187E+02
CGA:   8    -0.118547800442E+04   -0.22124E+02   -0.63988E+02 10640   0.113E+04-0.672E+03
CGA:   9    -0.120459392197E+04   -0.19116E+02   -0.54309E+02 10640   0.123E+04-0.887E+03
CGA:  10    -0.121448168011E+04   -0.98878E+01   -0.60625E+02 10640   0.115E+04-0.857E+03
CGA:  11    -0.123407258968E+04   -0.19591E+02   -0.49311E+02 10640   0.843E+03-0.824E+03
CGA:  12    -0.124727196852E+04   -0.13199E+02   -0.34824E+02 10640   0.541E+03-0.493E+03
CGA:  13    -0.125857640882E+04   -0.11304E+02   -0.20330E+02 10640   0.275E+03-0.244E+03
CGA:  14    -0.127536214893E+04   -0.16786E+02   -0.12186E+02 10640   0.984E+02 0.366E+02
CGA:  15    -0.128254033658E+04   -0.71782E+01   -0.68649E+01 10640   0.108E+03 0.404E+01
CGA:  16    -0.129499920290E+04   -0.12459E+02   -0.12032E+02 10640   0.111E+03 0.813E+00
CGA:  17    -0.129840943372E+04   -0.34102E+01   -0.45943E+01 10640   0.172E+03-0.131E+03
CGA:  18    -0.129655753579E+04    0.18519E+01   -0.71737E+01 10640   0.192E+03-0.109E+03
CGA:  19    -0.129967635764E+04   -0.31188E+01   -0.55379E+01 10640   0.170E+03-0.227E+03
CGA:  20    -0.129876175637E+04    0.91460E+00   -0.65360E+01 10640   0.148E+03-0.102E+03
CGA:  21    -0.130172851745E+04   -0.29668E+01   -0.40559E+01 10640   0.859E+02-0.139E+03
CGA:  22    -0.130158092620E+04    0.14759E+00   -0.31720E+01 10640   0.757E+02-0.507E+02
CGA:  23    -0.130312014960E+04   -0.15392E+01   -0.19637E+01 10640   0.292E+02-0.475E+02
CGA:  24    -0.130332950946E+04   -0.20936E+00   -0.10483E+01 10640   0.263E+02-0.149E+02
CGA:  25    -0.130392567996E+04   -0.59617E+00   -0.61260E+00 10640   0.578E+01-0.394E+01
CGA:  26    -0.130561301341E+04   -0.16873E+01   -0.14481E+01 10640   0.420E+01 0.120E+01
CGA:  27    -0.130589906071E+04   -0.28605E+00   -0.30892E+00 10640   0.251E+01-0.230E+00
CGA:  28    -0.130633308664E+04   -0.43403E+00   -0.41473E+00 10640   0.238E+01 0.160E+00
CGA:  29    -0.130651539957E+04   -0.18231E+00   -0.18220E+00 10640   0.941E+00-0.144E+00
CGA:  30    -0.130659697807E+04   -0.81579E-01   -0.79847E-01 10640   0.892E+00-0.106E+00
CGA:  31    -0.130671373636E+04   -0.11676E+00   -0.15371E+00 10640   0.238E+01-0.502E+00
CGA:  32    -0.130679986969E+04   -0.86133E-01   -0.87150E-01 10640   0.189E+00-0.532E-01
CGA:  33    -0.130683248094E+04   -0.32611E-01   -0.39176E-01 10640   0.755E+00-0.659E-01
CGA:  34    -0.130689869242E+04   -0.66211E-01   -0.11623E+00 10640   0.110E+01-0.444E+00
CGA:  35    -0.130697614289E+04   -0.77450E-01   -0.76753E-01 10640   0.266E+00-0.221E-01
CGA:  36    -0.130702597384E+04   -0.49831E-01   -0.54646E-01 10640   0.289E+00-0.544E-01
CGA:  37    -0.130704321568E+04   -0.17242E-01   -0.15779E-01 10640   0.925E-01-0.313E-01
CGA:  38    -0.130704520962E+04   -0.19939E-02   -0.35731E-01 10640   0.594E+00-0.109E+00
CGA:  39    -0.130708127166E+04   -0.36062E-01   -0.35597E-01 10640   0.510E-01-0.850E-02
CGA:  40    -0.130707278574E+04    0.84859E-02   -0.25752E-01 10640   0.467E+00-0.903E-01
CGA:  41    -0.130710067523E+04   -0.27889E-01   -0.28191E-01 10640   0.765E-01 0.701E-03
CGA:  42    -0.130710868408E+04   -0.80088E-02   -0.78802E-02 10640   0.444E-01-0.291E-02
CGA:  43    -0.130711295507E+04   -0.42710E-02   -0.38585E-02 10640   0.134E-01-0.754E-02
CGA:  44    -0.130711614951E+04   -0.31944E-02    0.20023E+00 10640   0.227E-01-0.424E-02
CGA:  45    -0.130712503854E+04   -0.88890E-02    0.10945E-02 10640   0.178E-01 0.733E-02
CGA:  46    -0.130713337793E+04   -0.83394E-02    0.69933E-02 10640   0.288E-01-0.857E-02
CGA:  47    -0.130714565979E+04   -0.12282E-01    0.56890E-03 10640   0.547E-01-0.781E-02
CGA:  48    -0.130716753435E+04   -0.21875E-01    0.30792E-02 10640   0.675E-01-0.430E-01
CGA:  49    -0.130717162660E+04   -0.40922E-02   -0.42897E-02 10640   0.135E-01 0.249E-02
CGA:  50    -0.130717267851E+04   -0.10519E-02   -0.12605E-02 10640   0.409E-02 0.431E-02
CGA:  51    -0.130717277615E+04   -0.97640E-04   -0.27380E-03 10640   0.815E-03 0.206E-02
CGA:  52    -0.130717273821E+04    0.37937E-04   -0.29980E-04 10640   0.642E-03 0.712E-03
CGA:  53    -0.130717270116E+04    0.37053E-04   -0.20162E-04 10640   0.556E-03 0.596E-03
CGA:  54    -0.130717266665E+04    0.34506E-04   -0.15349E-04 10640   0.498E-03 0.525E-03
CGA:  55    -0.130717263468E+04    0.31968E-04   -0.12299E-04 10640   0.456E-03 0.475E-03
CGA:  56    -0.130717260505E+04    0.29635E-04   -0.10189E-04 10640   0.424E-03 0.438E-03
CGA:  57    -0.130717257752E+04    0.27531E-04   -0.86449E-05 10640   0.399E-03 0.410E-03
CGA:  58    -0.130717255188E+04    0.25638E-04   -0.74661E-05 10640   0.378E-03 0.387E-03
CGA:  59    -0.130717252795E+04    0.23931E-04   -0.65372E-05 10640   0.361E-03 0.369E-03
CGA:  60    -0.130717250557E+04    0.22381E-04   -0.57868E-05 10640   0.347E-03 0.353E-03
CGA:  61    -0.130717248460E+04    0.20970E-04   -0.51679E-05 10640   0.335E-03 0.340E-03
CGA:  62    -0.130717246492E+04    0.19679E-04   -0.46490E-05 10640   0.324E-03 0.328E-03
CGA:  63    -0.130717244643E+04    0.18492E-04   -0.42077E-05 10640   0.315E-03 0.318E-03
CGA:  64    -0.130717242903E+04    0.17397E-04   -0.38279E-05 10640   0.307E-03 0.310E-03
CGA:  65    -0.130717241265E+04    0.16384E-04   -0.34978E-05 10640   0.299E-03 0.302E-03
CGA:  66    -0.130717239720E+04    0.15444E-04   -0.32084E-05 10640   0.293E-03 0.295E-03
CGA:  67    -0.130717238263E+04    0.14571E-04   -0.29526E-05 10640   0.287E-03 0.289E-03
CGA:  68    -0.130717236887E+04    0.13758E-04   -0.27252E-05 10640   0.281E-03 0.283E-03
CGA:  69    -0.130717235587E+04    0.12998E-04   -0.25218E-05 10640   0.276E-03 0.278E-03
CGA:  70    -0.130717234359E+04    0.12288E-04   -0.23389E-05 10640   0.271E-03 0.273E-03
CGA:  71    -0.130717233196E+04    0.11625E-04   -0.21739E-05 10640   0.267E-03 0.269E-03
CGA:  72    -0.130717232096E+04    0.11002E-04   -0.20243E-05 10640   0.263E-03 0.265E-03
CGA:  73    -0.130717231054E+04    0.10418E-04   -0.18882E-05 10640   0.260E-03 0.261E-03
CGA:  74    -0.130717230067E+04    0.98693E-05   -0.17641E-05 10640   0.256E-03 0.257E-03
   1 F= -.13071723E+04 E0= -.13071513E+04  d E =-.130717E+04  mag=    47.0000
       N       E                     dE             d eps       ncg     rms          ort
SDA:   1    -0.130717068249E+04    0.16280E-02    0.00000E+00 10640   0.790E-03 0.000E+00
CGA:   2    -0.130717071034E+04   -0.27846E-04   -0.32184E-04 10640   0.531E-03 0.638E-03
CGA:   3    -0.130717072120E+04   -0.10864E-04   -0.17545E-04 10640   0.419E-03 0.472E-03
CGA:   4    -0.130717072519E+04   -0.39846E-05   -0.11410E-04 10640   0.354E-03 0.386E-03
   2 F= -.13071707E+04 E0= -.13071498E+04  d E =0.157548E-02  mag=    47.0000
       N       E                     dE             d eps       ncg     rms          ort
SDA:   1    -0.130716675331E+04    0.39679E-02    0.00000E+00 10640   0.265E-01 0.000E+00
CGA:   2    -0.130717062975E+04   -0.38764E-02   -0.35709E-02 10640   0.231E-01 0.340E-02
CGA:   3    -0.130717297858E+04   -0.23488E-02   -0.22278E-02 10640   0.844E-02 0.331E-02
CGA:   4    -0.130717406617E+04   -0.10876E-02   -0.97212E-03 10640   0.382E-02 0.232E-02
CGA:   5    -0.130717457155E+04   -0.50537E-03   -0.45699E-03 10640   0.799E-03 0.119E-02
CGA:   6    -0.130717465227E+04   -0.80728E-04   -0.73232E-04 10640   0.325E-03 0.514E-03
CGA:   7    -0.130717466514E+04   -0.12865E-04   -0.15174E-04 10640   0.220E-03 0.249E-03
CGA:   8    -0.130717466951E+04   -0.43738E-05   -0.81236E-05 10640   0.184E-03 0.202E-03
   3 F= -.13071747E+04 E0= -.13071537E+04  d E =-.394433E-02  mag=    47.0000
       N       E                     dE             d eps       ncg     rms          ort
SDA:   1    -0.130667861380E+04    0.49605E+00    0.00000E+00 10640   0.143E+01 0.000E+00
CGA:   2    -0.130695036295E+04   -0.27175E+00   -0.26926E+00 10640   0.185E+01 0.191E-01
CGA:   3    -0.130709651464E+04   -0.14615E+00   -0.14611E+00 10640   0.506E+00 0.312E-02
CGA:   4    -0.130715487159E+04   -0.58357E-01   -0.59019E-01 10640   0.304E+00-0.116E-01
CGA:   5    -0.130718171729E+04   -0.26846E-01   -0.27116E-01 10640   0.588E-01-0.962E-02
CGA:   6    -0.130718706593E+04   -0.53486E-02   -0.54085E-02 10640   0.348E-01-0.195E-02
CGA:   7    -0.130719094510E+04   -0.38792E-02   -0.39308E-02 10640   0.110E-01-0.101E-02
CGA:   8    -0.130719188188E+04   -0.93678E-03   -0.93111E-03 10640   0.390E-02 0.331E-03
CGA:   9    -0.130719243712E+04   -0.55524E-03   -0.50115E-03 10640   0.169E-02 0.991E-03
CGA:  10    -0.130719260605E+04   -0.16892E-03   -0.16619E-03 10640   0.734E-03 0.502E-03
CGA:  11    -0.130719271864E+04   -0.11259E-03   -0.98688E-04 10640   0.336E-03 0.453E-03
CGA:  12    -0.130719276205E+04   -0.43413E-04   -0.39022E-04 10640   0.269E-03 0.106E-03
CGA:  13    -0.130719283460E+04   -0.72545E-04   -0.61100E-04 10640   0.193E-03 0.119E-03
CGA:  14    -0.130719286916E+04   -0.34565E-04   -0.32524E-04 10640   0.158E-03 0.579E-04
CGA:  15    -0.130719289817E+04   -0.29011E-04   -0.26029E-04 10640   0.928E-04 0.681E-04
CGA:  16    -0.130719291261E+04   -0.14433E-04   -0.13967E-04 10640   0.471E-04 0.235E-04
CGA:  17    -0.130719291196E+04    0.65057E-06   -0.23686E-04 10640   0.552E-03-0.778E-04
CGA:  18    -0.130719293347E+04   -0.21516E-04   -0.22967E-04 10640   0.312E-04 0.246E-04
CGA:  19    -0.130719293657E+04   -0.30932E-05   -0.31267E-05 10640   0.244E-04 0.106E-04
CGA:  20    -0.130719291905E+04    0.17512E-04   -0.10735E-04 10640   0.449E-03-0.723E-04
CGA:  21    -0.130719294249E+04   -0.23440E-04   -0.23870E-04 10640   0.805E-04 0.394E-05
CGA:  22    -0.130719296008E+04   -0.17588E-04   -0.18700E-04 10640   0.105E-03-0.198E-04
CGA:  23    -0.130719296636E+04   -0.62764E-05   -0.48330E-05 10640   0.179E-04-0.123E-04
   4 F= -.13071930E+04 E0= -.13071719E+04  d E =-.182968E-01  mag=    47.0000
       N       E                     dE             d eps       ncg     rms          ort
SDA:   1    -0.130692516726E+04    0.26779E+00    0.00000E+00 10640   0.942E+00 0.000E+00
CGA:   2    -0.130707807436E+04   -0.15291E+00   -0.15290E+00 10640   0.710E+00-0.115E-02
CGA:   3    -0.130713538416E+04   -0.57310E-01   -0.57379E-01 10640   0.346E+00 0.127E-02
CGA:   4    -0.130718250503E+04   -0.47121E-01   -0.47210E-01 10640   0.189E+00 0.355E-02
CGA:   5    -0.130719734517E+04   -0.14840E-01   -0.14915E-01 10640   0.310E-01 0.990E-03
CGA:   6    -0.130720058169E+04   -0.32365E-02   -0.32548E-02 10640   0.176E-01 0.383E-03
CGA:   7    -0.130720229792E+04   -0.17162E-02   -0.17205E-02 10640   0.498E-02 0.924E-04
CGA:   8    -0.130720288122E+04   -0.58330E-03   -0.58191E-03 10640   0.315E-02-0.374E-04
CGA:   9    -0.130720325283E+04   -0.37162E-03   -0.37585E-03 10640   0.102E-02 0.148E-03
CGA:  10    -0.130720333668E+04   -0.83847E-04   -0.90898E-04 10640   0.624E-03 0.113E-03
CGA:  11    -0.130720341198E+04   -0.75300E-04   -0.80187E-04 10640   0.202E-03 0.169E-03
CGA:  12    -0.130720342576E+04   -0.13778E-04   -0.21118E-04 10640   0.868E-04 0.120E-03
CGA:  13    -0.130720342974E+04   -0.39792E-05   -0.73694E-05 10640   0.669E-04 0.613E-04
   5 F= -.13072034E+04 E0= -.13071825E+04  d E =-.104634E-01  mag=    47.0000
       N       E                     dE             d eps       ncg     rms          ort
SDA:   1    -0.130667650331E+04    0.52692E+00    0.00000E+00 10640   0.158E+01 0.000E+00
CGA:   2    -0.130696595012E+04   -0.28945E+00   -0.28926E+00 10640   0.155E+01 0.419E-02
CGA:   3    -0.130709808187E+04   -0.13213E+00   -0.13203E+00 10640   0.599E+00 0.169E-02
CGA:   4    -0.130717370692E+04   -0.75625E-01   -0.75607E-01 10640   0.322E+00-0.226E-02
CGA:   5    -0.130719888958E+04   -0.25183E-01   -0.25012E-01 10640   0.580E-01-0.270E-02
CGA:   6    -0.130720438724E+04   -0.54977E-02   -0.54838E-02 10640   0.359E-01-0.332E-03
CGA:   7    -0.130720817913E+04   -0.37919E-02   -0.37863E-02 10640   0.981E-02-0.213E-03
CGA:   8    -0.130720926393E+04   -0.10848E-02   -0.10792E-02 10640   0.554E-02-0.318E-03
CGA:   9    -0.130721000421E+04   -0.74028E-03   -0.74123E-03 10640   0.198E-02-0.808E-04
CGA:  10    -0.130721020371E+04   -0.19950E-03   -0.19664E-03 10640   0.151E-02-0.105E-03
CGA:  11    -0.130721042456E+04   -0.22085E-03   -0.23533E-03 10640   0.137E-02-0.373E-03
CGA:  12    -0.130721051990E+04   -0.95341E-04   -0.86924E-04 10640   0.449E-03-0.192E-03
CGA:  13    -0.130720989951E+04    0.62039E-03   -0.33846E-03 10640   0.167E-01-0.138E-02
CGA:  14    -0.130721070607E+04   -0.80656E-03   -0.78620E-03 10640   0.112E-02-0.798E-04
CGA:  15    -0.130721083345E+04   -0.12737E-03   -0.11653E-03 10640   0.800E-03-0.928E-04
CGA:  16    -0.130721094109E+04   -0.10765E-03   -0.10341E-03 10640   0.388E-03-0.569E-04
CGA:  17    -0.130721097649E+04   -0.35399E-04   -0.28717E-04 10640   0.153E-03-0.505E-04
CGA:  18    -0.130721089535E+04    0.81146E-04   -0.90049E-04 10640   0.372E-02-0.363E-03
CGA:  19    -0.130721106102E+04   -0.16567E-03   -0.17237E-03 10640   0.244E-03 0.447E-04
CGA:  20    -0.130721108275E+04   -0.21727E-04   -0.22144E-04 10640   0.115E-03 0.345E-05
CGA:  21    -0.130721110838E+04   -0.25632E-04   -0.28526E-04 10640   0.270E-03-0.909E-04
CGA:  22    -0.130721111955E+04   -0.11170E-04   -0.13453E-04 10640   0.374E-04 0.142E-04
CGA:  23    -0.130721112745E+04   -0.78978E-05   -0.76566E-05 10640   0.729E-04-0.211E-04
   6 F= -.13072111E+04 E0= -.13071904E+04  d E =-.769771E-02  mag=    47.0000
       N       E                     dE             d eps       ncg     rms          ort
SDA:   1    -0.130627867561E+04    0.93244E+00    0.00000E+00 10640   0.289E+01 0.000E+00
CGA:   2    -0.130683125949E+04   -0.55258E+00   -0.55254E+00 10640   0.201E+01-0.527E-02
CGA:   3    -0.130701434855E+04   -0.18309E+00   -0.18322E+00 10640   0.118E+01 0.279E-02
CGA:   4    -0.130715937575E+04   -0.14503E+00   -0.14544E+00 10640   0.448E+00 0.747E-02
CGA:   5    -0.130719196104E+04   -0.32585E-01   -0.32834E-01 10640   0.967E-01 0.205E-02
CGA:   6    -0.130720267755E+04   -0.10717E-01   -0.10806E-01 10640   0.571E-01 0.131E-02
CGA:   7    -0.130720776788E+04   -0.50903E-02   -0.51497E-02 10640   0.147E-01 0.695E-03
CGA:   8    -0.130720973519E+04   -0.19673E-02   -0.19631E-02 10640   0.108E-01-0.910E-04
CGA:   9    -0.130721088637E+04   -0.11512E-02   -0.11353E-02 10640   0.321E-02-0.228E-03
CGA:  10    -0.130721127740E+04   -0.39103E-03   -0.38844E-03 10640   0.261E-02-0.534E-04
CGA:  11    -0.130721160814E+04   -0.33074E-03   -0.32545E-03 10640   0.138E-02-0.131E-03
CGA:  12    -0.130721170792E+04   -0.99782E-04   -0.10636E-03 10640   0.607E-03 0.784E-04
CGA:  13    -0.130721179083E+04   -0.82909E-04   -0.88913E-04 10640   0.377E-03 0.263E-03
CGA:  14    -0.130721183855E+04   -0.47715E-04   -0.58362E-04 10640   0.219E-03 0.202E-03
CGA:  15    -0.130721184643E+04   -0.78841E-05   -0.14701E-04 10640   0.138E-03 0.752E-04
CGA:  16    -0.130721185399E+04   -0.75618E-05   -0.16786E-04 10640   0.127E-03 0.147E-03
   7 F= -.13072119E+04 E0= -.13071913E+04  d E =-.726544E-03  mag=    47.0000
       N       E                     dE             d eps       ncg     rms          ort
SDA:   1    -0.130683315559E+04    0.37869E+00    0.00000E+00 10640   0.121E+01 0.000E+00
CGA:   2    -0.130705663053E+04   -0.22347E+00   -0.22329E+00 10640   0.844E+00 0.516E-02
CGA:   3    -0.130713236976E+04   -0.75739E-01   -0.75729E-01 10640   0.487E+00-0.135E-02
CGA:   4    -0.130719984314E+04   -0.67473E-01   -0.67433E-01 10640   0.154E+00-0.620E-02
CGA:   5    -0.130721210956E+04   -0.12266E-01   -0.12107E-01 10640   0.371E-01-0.221E-02
CGA:   6    -0.130721656939E+04   -0.44598E-02   -0.44503E-02 10640   0.206E-01-0.464E-03
CGA:   7    -0.130721828675E+04   -0.17174E-02   -0.16929E-02 10640   0.682E-02-0.418E-03
CGA:   8    -0.130721911349E+04   -0.82674E-03   -0.81888E-03 10640   0.549E-02-0.512E-03
CGA:   9    -0.130721966044E+04   -0.54695E-03   -0.53143E-03 10640   0.153E-02-0.478E-03
CGA:  10    -0.130721988018E+04   -0.21974E-03   -0.23603E-03 10640   0.246E-02-0.484E-03
CGA:  11    -0.130722011321E+04   -0.23304E-03   -0.28899E-03 10640   0.206E-02-0.161E-02
CGA:  12    -0.130722026710E+04   -0.15389E-03   -0.14647E-03 10640   0.106E-02-0.107E-03
CGA:  13    -0.130722041406E+04   -0.14696E-03   -0.29432E-03 10640   0.288E-02-0.934E-03
CGA:  14    -0.130722057632E+04   -0.16226E-03   -0.15259E-03 10640   0.517E-03-0.103E-03
CGA:  15    -0.130722063966E+04   -0.63341E-04   -0.11735E-03 10640   0.202E-02-0.557E-03
CGA:  16    -0.130722074038E+04   -0.10072E-03   -0.98857E-04 10640   0.189E-03-0.163E-04
CGA:  17    -0.130722076572E+04   -0.25341E-04   -0.30491E-04 10640   0.595E-03-0.220E-03
CGA:  18    -0.130722080671E+04   -0.40993E-04   -0.34945E-04 10640   0.111E-03-0.734E-04
CGA:  19    -0.130722084211E+04   -0.35395E-04    0.19705E-04 10640   0.224E-03-0.619E-04
CGA:  20    -0.130722086250E+04   -0.20394E-04   -0.15587E-04 10640   0.112E-03-0.718E-04
CGA:  21    -0.130722090748E+04   -0.44981E-04    0.40822E-05 10640   0.986E-04 0.553E-05
CGA:  22    -0.130722097968E+04   -0.72193E-04    0.42155E-05 10640   0.400E-04 0.535E-04
CGA:  23    -0.130722100134E+04   -0.21664E-04    0.25400E-05 10640   0.922E-04-0.817E-05
CGA:  24    -0.130722107990E+04   -0.78557E-04    0.16035E-05 10640   0.131E-03 0.499E-04
CGA:  25    -0.130722109734E+04   -0.17441E-04   -0.16414E-04 10640   0.304E-03-0.149E-03
CGA:  26    -0.130722111398E+04   -0.16642E-04   -0.14852E-04 10640   0.352E-04-0.210E-04
CGA:  27    -0.130722113423E+04   -0.20246E-04    0.14865E-05 10640   0.466E-04-0.865E-06
CGA:  28    -0.130722118167E+04   -0.47445E-04    0.94748E-06 10640   0.268E-04 0.405E-04
CGA:  29    -0.130722119788E+04   -0.16212E-04    0.12655E-05 10640   0.382E-04-0.274E-05
CGA:  30    -0.130722123684E+04   -0.38953E-04    0.64078E-06 10640   0.459E-04 0.233E-04
CGA:  31    -0.130722124963E+04   -0.12789E-04    0.33813E-04 10640   0.559E-04-0.267E-04
CGA:  32    -0.130722087678E+04    0.37284E-03   -0.20361E-03 10640   0.873E-02-0.602E-03
CGA:  33    -0.130722132414E+04   -0.44736E-03   -0.45194E-03 10640   0.475E-03 0.418E-04
CGA:  34    -0.130722135039E+04   -0.26244E-04   -0.23046E-04 10640   0.101E-04-0.175E-04
CGA:  35    -0.130722136766E+04   -0.17268E-04    0.33358E-06 10640   0.241E-04 0.206E-05
CGA:  36    -0.130722142616E+04   -0.58500E-04    0.85011E-06 10640   0.297E-04 0.149E-04
CGA:  37    -0.130722143005E+04   -0.38918E-05   -0.21053E-05 10640   0.187E-04-0.123E-04
   8 F= -.13072214E+04 E0= -.13072012E+04  d E =-.957606E-02  mag=    47.0000
       N       E                     dE             d eps       ncg     rms          ort
SDA:   1    -0.130707061576E+04    0.15081E+00    0.00000E+00 10640   0.475E+00 0.000E+00
CGA:   2    -0.130715947366E+04   -0.88858E-01   -0.88864E-01 10640   0.362E+00 0.433E-03
CGA:   3    -0.130719263644E+04   -0.33163E-01   -0.33100E-01 10640   0.195E+00 0.335E-04
CGA:   4    -0.130721591159E+04   -0.23275E-01   -0.23272E-01 10640   0.884E-01-0.690E-04
CGA:   5    -0.130722273712E+04   -0.68255E-02   -0.68539E-02 10640   0.151E-01 0.374E-03
CGA:   6    -0.130722437446E+04   -0.16373E-02   -0.16343E-02 10640   0.100E-01-0.314E-04
CGA:   7    -0.130722530664E+04   -0.93218E-03   -0.93310E-03 10640   0.250E-02 0.175E-04
CGA:   8    -0.130722563038E+04   -0.32374E-03   -0.31422E-03 10640   0.203E-02-0.164E-03
CGA:   9    -0.130722586517E+04   -0.23479E-03   -0.22354E-03 10640   0.635E-03-0.180E-03
CGA:  10    -0.130722595344E+04   -0.88270E-04   -0.83250E-04 10640   0.686E-03-0.152E-03
CGA:  11    -0.130722604684E+04   -0.93400E-04   -0.99962E-04 10640   0.920E-03-0.391E-03
CGA:  12    -0.130722609569E+04   -0.48847E-04   -0.46429E-04 10640   0.202E-03-0.186E-04
CGA:  13    -0.130722614372E+04   -0.48034E-04   -0.59082E-04 10640   0.404E-03-0.859E-04
CGA:  14    -0.130722617276E+04   -0.29039E-04   -0.18768E-04 10640   0.152E-03-0.108E-03
CGA:  15    -0.130722585307E+04    0.31969E-03   -0.87008E-04 10640   0.689E-02-0.668E-03
CGA:  16    -0.130722628993E+04   -0.43686E-03   -0.43990E-03 10640   0.320E-03 0.309E-04
CGA:  17    -0.130722632616E+04   -0.36234E-04   -0.31904E-04 10640   0.256E-03-0.450E-04
CGA:  18    -0.130722636218E+04   -0.36013E-04   -0.34992E-04 10640   0.146E-03-0.327E-04
CGA:  19    -0.130722637124E+04   -0.90654E-05   -0.94344E-05 10640   0.366E-04 0.338E-05
CGA:  20    -0.130722638495E+04   -0.13711E-04    0.28192E-02 10640   0.526E-04 0.135E-06
CGA:  21    -0.130722580222E+04    0.58273E-03   -0.31951E-03 10640   0.877E-02-0.644E-03
CGA:  22    -0.130722622887E+04   -0.42666E-03   -0.44331E-03 10640   0.118E-02 0.827E-04
CGA:  23    -0.130722639043E+04   -0.16156E-03   -0.17057E-03 10640   0.667E-03 0.520E-04
CGA:  24    -0.130722646338E+04   -0.72946E-04   -0.69211E-04 10640   0.147E-03-0.170E-04
CGA:  25    -0.130722647470E+04   -0.11322E-04   -0.10713E-04 10640   0.686E-04-0.255E-05
CGA:  26    -0.130722648689E+04   -0.12194E-04   -0.12156E-04 10640   0.586E-04-0.292E-06
CGA:  27    -0.130722650043E+04   -0.13540E-04   -0.95483E-05 10640   0.674E-04-0.333E-04
CGA:  28    -0.130722650140E+04   -0.96382E-06   -0.35053E-05 10640   0.101E-04 0.114E-04
   9 F= -.13072265E+04 E0= -.13072066E+04  d E =-.507135E-02  mag=    47.0000
       N       E                     dE             d eps       ncg     rms          ort
SDA:   1    -0.130671285226E+04    0.51365E+00    0.00000E+00 10640   0.149E+01 0.000E+00
CGA:   2    -0.130701586442E+04   -0.30301E+00   -0.30302E+00 10640   0.131E+01 0.449E-03
CGA:   3    -0.130712713022E+04   -0.11127E+00   -0.11097E+00 10640   0.610E+00 0.164E-02
CGA:   4    -0.130720326224E+04   -0.76132E-01   -0.76248E-01 10640   0.250E+00 0.820E-03
CGA:   5    -0.130722145079E+04   -0.18189E-01   -0.18238E-01 10640   0.507E-01 0.156E-02
CGA:   6    -0.130722716581E+04   -0.57150E-02   -0.57154E-02 10640   0.292E-01 0.174E-04
CGA:   7    -0.130723001943E+04   -0.28536E-02   -0.28702E-02 10640   0.874E-02 0.154E-03
CGA:   8    -0.130723098602E+04   -0.96659E-03   -0.94269E-03 10640   0.571E-02-0.205E-03
CGA:   9    -0.130723171818E+04   -0.73217E-03   -0.70684E-03 10640   0.188E-02-0.284E-03
CGA:  10    -0.130723195144E+04   -0.23325E-03   -0.22247E-03 10640   0.143E-02-0.124E-03
CGA:  11    -0.130723217829E+04   -0.22685E-03   -0.21212E-03 10640   0.142E-02-0.309E-03
CGA:  12    -0.130723229660E+04   -0.11831E-03   -0.92835E-04 10640   0.510E-03-0.214E-03
CGA:  13    -0.130723241090E+04   -0.11430E-03   -0.13854E-03 10640   0.150E-02-0.201E-03
CGA:  14    -0.130723253233E+04   -0.12142E-03   -0.83709E-04 10640   0.535E-03-0.348E-03
CGA:  15    -0.130723260387E+04   -0.71543E-04   -0.52322E-04 10640   0.838E-03-0.274E-03
CGA:  16    -0.130723264805E+04   -0.44183E-04   -0.54667E-04 10640   0.234E-03 0.822E-04
CGA:  17    -0.130723270737E+04   -0.59320E-04   -0.60330E-04 10640   0.489E-03-0.215E-04
CGA:  18    -0.130723275106E+04   -0.43686E-04   -0.37724E-04 10640   0.129E-03-0.568E-04
CGA:  19    -0.130723276905E+04   -0.17989E-04   -0.17076E-04 10640   0.193E-03-0.259E-04
CGA:  20    -0.130723280275E+04   -0.33705E-04   -0.36892E-04 10640   0.254E-03-0.600E-04
CGA:  21    -0.130723281802E+04   -0.15270E-04   -0.10735E-04 10640   0.905E-04-0.373E-04
CGA:  22    -0.130723275631E+04    0.61713E-04   -0.41284E-04 10640   0.227E-02-0.293E-03
CGA:  23    -0.130723289104E+04   -0.13473E-03   -0.13625E-03 10640   0.121E-03 0.133E-04
CGA:  24    -0.130723290351E+04   -0.12468E-04   -0.10256E-04 10640   0.820E-04-0.205E-04
CGA:  25    -0.130723293122E+04   -0.27713E-04    0.65884E-04 10640   0.844E-04-0.283E-05
CGA:  26    -0.130723294636E+04   -0.15139E-04   -0.15364E-04 10640   0.165E-03-0.732E-04
CGA:  27    -0.130723295952E+04   -0.13153E-04   -0.10671E-04 10640   0.344E-04-0.202E-04
CGA:  28    -0.130723296467E+04   -0.51550E-05   -0.47047E-05 10640   0.625E-04-0.190E-04
  10 F= -.13072330E+04 E0= -.13072135E+04  d E =-.646327E-02  mag=    47.0000
       N       E                     dE             d eps       ncg     rms          ort
SDA:   1    -0.130630562316E+04    0.92734E+00    0.00000E+00 10640   0.267E+01 0.000E+00
CGA:   2    -0.130685105797E+04   -0.54543E+00   -0.54536E+00 10640   0.230E+01 0.239E-02
CGA:   3    -0.130704449172E+04   -0.19343E+00   -0.19277E+00 10640   0.112E+01 0.488E-02
CGA:   4    -0.130718645066E+04   -0.14196E+00   -0.14207E+00 10640   0.434E+00 0.274E-02
CGA:   5    -0.130721800901E+04   -0.31558E-01   -0.31641E-01 10640   0.868E-01 0.206E-02
CGA:   6    -0.130722828989E+04   -0.10281E-01   -0.10287E-01 10640   0.524E-01 0.161E-03
CGA:   7    -0.130723311703E+04   -0.48271E-02   -0.48484E-02 10640   0.140E-01 0.373E-03
CGA:   8    -0.130723491600E+04   -0.17990E-02   -0.17834E-02 10640   0.103E-01-0.506E-03
CGA:   9    -0.130723602678E+04   -0.11108E-02   -0.10899E-02 10640   0.307E-02-0.451E-03
CGA:  10    -0.130723640609E+04   -0.37931E-03   -0.37327E-03 10640   0.258E-02-0.230E-03
CGA:  11    -0.130723673871E+04   -0.33262E-03   -0.32557E-03 10640   0.189E-02-0.467E-03
CGA:  12    -0.130723690044E+04   -0.16174E-03   -0.14164E-03 10640   0.785E-03-0.338E-03
CGA:  13    -0.130723704737E+04   -0.14692E-03   -0.18390E-03 10640   0.174E-02-0.271E-03
CGA:  14    -0.130723717851E+04   -0.13114E-03   -0.10716E-03 10640   0.518E-03-0.401E-03
CGA:  15    -0.130723723582E+04   -0.57311E-04   -0.89827E-04 10640   0.194E-02-0.444E-03
CGA:  16    -0.130723733020E+04   -0.94386E-04   -0.10484E-03 10640   0.207E-03 0.106E-03
CGA:  17    -0.130723736214E+04   -0.31941E-04   -0.31979E-04 10640   0.316E-03 0.940E-05
CGA:  18    -0.130723742849E+04   -0.66342E-04   -0.79026E-04 10640   0.306E-03-0.143E-03
CGA:  19    -0.130723743632E+04   -0.78324E-05   -0.85174E-05 10640   0.138E-03 0.643E-05
CGA:  20    -0.130723744546E+04   -0.91461E-05   -0.10621E-04 10640   0.162E-03 0.198E-04
CGA:  21    -0.130723747593E+04   -0.30467E-04   -0.31328E-04 10640   0.258E-03-0.382E-04
CGA:  22    -0.130723749765E+04   -0.21715E-04   -0.14671E-04 10640   0.108E-03-0.992E-04
CGA:  23    -0.130723750790E+04   -0.10256E-04   -0.80413E-05 10640   0.231E-03-0.980E-04
CGA:  24    -0.130723752399E+04   -0.16089E-04   -0.16250E-04 10640   0.857E-04 0.260E-05
CGA:  25    -0.130723752663E+04   -0.26357E-05   -0.31971E-04 10640   0.749E-03-0.127E-03
CGA:  26    -0.130723756520E+04   -0.38572E-04   -0.35379E-04 10640   0.574E-04-0.301E-04
CGA:  27    -0.130723757080E+04   -0.56033E-05   -0.52106E-05 10640   0.262E-04-0.773E-05
CGA:  28    -0.130723752833E+04    0.42477E-04   -0.23182E-04 10640   0.935E-03-0.846E-04
CGA:  29    -0.130723757796E+04   -0.49637E-04   -0.45865E-04 10640   0.110E-03-0.154E-04
CGA:  30    -0.130723760191E+04   -0.23946E-04   -0.20696E-04 10640   0.244E-03-0.564E-04
CGA:  31    -0.130723761086E+04   -0.89473E-05   -0.11679E-04 10640   0.161E-04 0.142E-04
  11 F= -.13072376E+04 E0= -.13072188E+04  d E =-.464619E-02  mag=    47.0000
       N       E                     dE             d eps       ncg     rms          ort
SDA:   1    -0.130685693674E+04    0.38067E+00    0.00000E+00 10640   0.111E+01 0.000E+00
CGA:   2    -0.130708749193E+04   -0.23056E+00   -0.23054E+00 10640   0.859E+00-0.103E-02
CGA:   3    -0.130715968150E+04   -0.72190E-01   -0.71710E-01 10640   0.500E+00 0.473E-02
CGA:   4    -0.130722175338E+04   -0.62072E-01   -0.62246E-01 10640   0.143E+00 0.185E-02
CGA:   5    -0.130723336501E+04   -0.11612E-01   -0.11752E-01 10640   0.326E-01 0.142E-02
CGA:   6    -0.130723752204E+04   -0.41570E-02   -0.41671E-02 10640   0.194E-01 0.125E-03
CGA:   7    -0.130723906665E+04   -0.15446E-02   -0.15922E-02 10640   0.495E-02 0.422E-03
CGA:   8    -0.130723978828E+04   -0.72163E-03   -0.72752E-03 10640   0.346E-02 0.109E-03
CGA:   9    -0.130724013779E+04   -0.34951E-03   -0.33443E-03 10640   0.118E-02-0.144E-03
CGA:  10    -0.130724026650E+04   -0.12870E-03   -0.12865E-03 10640   0.816E-03 0.158E-06
CGA:  11    -0.130724034510E+04   -0.78609E-04   -0.85554E-04 10640   0.275E-03 0.849E-04
CGA:  12    -0.130724037629E+04   -0.31185E-04   -0.33341E-04 10640   0.164E-03 0.296E-04
CGA:  13    -0.130724038574E+04   -0.94465E-05   -0.17536E-04 10640   0.622E-04 0.977E-04
  12 F= -.13072404E+04 E0= -.13072217E+04  d E =-.277488E-02  mag=    47.0000
       N       E                     dE             d eps       ncg     rms          ort
SDA:   1    -0.130714828383E+04    0.92092E-01    0.00000E+00 10640   0.279E+00 0.000E+00
CGA:   2    -0.130720568800E+04   -0.57404E-01   -0.57405E-01 10640   0.164E+00 0.387E-04
CGA:   3    -0.130722373265E+04   -0.18045E-01   -0.18037E-01 10640   0.130E+00-0.661E-04
CGA:   4    -0.130723718128E+04   -0.13449E-01   -0.13386E-01 10640   0.348E-01-0.853E-03
CGA:   5    -0.130723981816E+04   -0.26369E-02   -0.25973E-02 10640   0.951E-02-0.426E-03
CGA:   6    -0.130724091732E+04   -0.10992E-02   -0.11057E-02 10640   0.383E-02 0.159E-03
CGA:   7    -0.130724130446E+04   -0.38714E-03   -0.38669E-03 10640   0.138E-02-0.324E-05
CGA:   8    -0.130724145731E+04   -0.15285E-03   -0.15892E-03 10640   0.715E-03 0.151E-03
CGA:   9    -0.130724153419E+04   -0.76879E-04   -0.77872E-04 10640   0.297E-03 0.188E-04
CGA:  10    -0.130724157281E+04   -0.38615E-04   -0.38807E-04 10640   0.173E-03 0.833E-05
CGA:  11    -0.130724158779E+04   -0.14976E-04   -0.16677E-04 10640   0.671E-04 0.305E-04
CGA:  12    -0.130724159593E+04   -0.81454E-05   -0.86738E-05 10640   0.438E-04 0.142E-04
CGA:  13    -0.130724160687E+04   -0.10940E-04   -0.13584E-04 10640   0.946E-04-0.240E-04
CGA:  14    -0.130724160895E+04   -0.20741E-05   -0.42014E-05 10640   0.161E-04 0.201E-04
  13 F= -.13072416E+04 E0= -.13072228E+04  d E =-.122321E-02  mag=    47.0000
       N       E                     dE             d eps       ncg     rms          ort
SDA:   1    -0.130717095644E+04    0.70650E-01    0.00000E+00 10640   0.201E+00 0.000E+00
CGA:   2    -0.130721632537E+04   -0.45369E-01   -0.45339E-01 10640   0.127E+00 0.383E-03
CGA:   3    -0.130723163749E+04   -0.15312E-01   -0.15298E-01 10640   0.801E-01-0.445E-03
CGA:   4    -0.130724052731E+04   -0.88898E-02   -0.89122E-02 10640   0.134E-01 0.717E-03
CGA:   5    -0.130724179412E+04   -0.12668E-02   -0.12713E-02 10640   0.602E-02 0.106E-03
CGA:   6    -0.130724244522E+04   -0.65110E-03   -0.65687E-03 10640   0.215E-02 0.184E-03
CGA:   7    -0.130724262713E+04   -0.18191E-03   -0.18688E-03 10640   0.920E-03 0.937E-04
CGA:   8    -0.130724279023E+04   -0.16309E-03   -0.17095E-03 10640   0.617E-03-0.186E-03
CGA:   9    -0.130724282674E+04   -0.36510E-04   -0.35212E-04 10640   0.207E-03-0.189E-04
CGA:  10    -0.130724286068E+04   -0.33945E-04   -0.41974E-04 10640   0.433E-03-0.108E-03
CGA:  11    -0.130724289149E+04   -0.30805E-04   -0.26517E-04 10640   0.614E-04-0.545E-04
CGA:  12    -0.130724289946E+04   -0.79730E-05   -0.83280E-05 10640   0.103E-03-0.172E-04
CGA:  13    -0.130724291083E+04   -0.11368E-04   -0.13542E-04 10640   0.827E-04-0.469E-04
CGA:  14    -0.130724287299E+04    0.37834E-04   -0.16376E-04 10640   0.136E-02-0.241E-03
CGA:  15    -0.130724292743E+04   -0.54440E-04   -0.60472E-04 10640   0.740E-04 0.599E-04
CGA:  16    -0.130724293581E+04   -0.83802E-05   -0.82777E-05 10640   0.716E-04-0.268E-05
CGA:  17    -0.130724293405E+04    0.17658E-05   -0.27942E-04 10640   0.267E-03-0.113E-03
CGA:  18    -0.130724294394E+04   -0.98938E-05   -0.14325E-04 10640   0.468E-04 0.441E-04
  14 F= -.13072429E+04 E0= -.13072243E+04  d E =-.133500E-02  mag=    47.0000
       N       E                     dE             d eps       ncg     rms          ort
SDA:   1    -0.130330158182E+04    0.39414E+01    0.00000E+00 10640   0.119E+02 0.000E+00
CGA:   2    -0.130547633265E+04   -0.21748E+01   -0.21755E+01 10640   0.985E+01-0.106E-01
CGA:   3    -0.130641276124E+04   -0.93643E+00   -0.93759E+00 10640   0.473E+01 0.122E-01
CGA:   4    -0.130697055053E+04   -0.55779E+00   -0.55791E+00 10640   0.237E+01 0.696E-02
CGA:   5    -0.130715697762E+04   -0.18643E+00   -0.18630E+00 10640   0.385E+00 0.270E-02
CGA:   6    -0.130719567347E+04   -0.38696E-01   -0.38776E-01 10640   0.234E+00 0.175E-02
CGA:   7    -0.130721944109E+04   -0.23768E-01   -0.23865E-01 10640   0.641E-01 0.272E-02
CGA:   8    -0.130722703451E+04   -0.75934E-02   -0.75722E-02 10640   0.373E-01-0.960E-03
CGA:   9    -0.130723189390E+04   -0.48594E-02   -0.48560E-02 10640   0.128E-01-0.658E-03
CGA:  10    -0.130723323755E+04   -0.13437E-02   -0.13247E-02 10640   0.847E-02-0.581E-03
CGA:  11    -0.130723443601E+04   -0.11985E-02   -0.12162E-02 10640   0.603E-02-0.119E-02
CGA:  12    -0.130723486414E+04   -0.42813E-03   -0.39930E-03 10640   0.189E-02-0.483E-03
CGA:  13    -0.130723520211E+04   -0.33797E-03   -0.34886E-03 10640   0.251E-02-0.163E-03
CGA:  14    -0.130723548717E+04   -0.28505E-03   -0.27905E-03 10640   0.748E-03-0.408E-03
CGA:  15    -0.130723558151E+04   -0.94341E-04   -0.99354E-04 10640   0.114E-02-0.219E-03
CGA:  16    -0.130723570699E+04   -0.12548E-03   -0.13989E-03 10640   0.622E-03-0.402E-03
CGA:  17    -0.130723576259E+04   -0.55604E-04   -0.65476E-04 10640   0.976E-03-0.421E-03
CGA:  18    -0.130723580827E+04   -0.45678E-04   -0.55943E-04 10640   0.215E-03 0.125E-03
CGA:  19    -0.130723585769E+04   -0.49418E-04   -0.48465E-04 10640   0.353E-03 0.148E-04
CGA:  20    -0.130723590752E+04   -0.49832E-04   -0.48991E-04 10640   0.149E-03-0.912E-04
CGA:  21    -0.130723591511E+04   -0.75941E-05   -0.87106E-05 10640   0.877E-04 0.187E-04
CGA:  22    -0.130723593810E+04   -0.22983E-04   -0.25676E-04 10640   0.233E-03-0.222E-04
CGA:  23    -0.130723596113E+04   -0.23031E-04   -0.27748E-04 10640   0.238E-03-0.275E-03
CGA:  24    -0.130723597444E+04   -0.13310E-04   -0.17266E-04 10640   0.115E-03 0.567E-04
CGA:  25    -0.130723599306E+04   -0.18620E-04   -0.18863E-04 10640   0.462E-04 0.382E-04
CGA:  26    -0.130723599247E+04    0.58469E-06   -0.18197E-04 10640   0.475E-03-0.120E-03
CGA:  27    -0.130723600979E+04   -0.17317E-04   -0.22502E-04 10640   0.314E-04 0.529E-04
CGA:  28    -0.130723601467E+04   -0.48819E-05   -0.74154E-05 10640   0.140E-03-0.358E-04
CGA:  29    -0.130723602947E+04   -0.14793E-04   -0.10973E-04 10640   0.410E-04-0.571E-04
CGA:  30    -0.130723603238E+04   -0.29153E-05   -0.26494E-05 10640   0.252E-04-0.812E-05
  15 F= -.13072360E+04 E0= -.13072179E+04  d E =0.691156E-02  mag=    47.0000
       N       E                     dE             d eps       ncg     rms          ort
SDA:   1    -0.130546322586E+04    0.17728E+01    0.00000E+00 10640   0.540E+01 0.000E+00
CGA:   2    -0.130653330207E+04   -0.10701E+01   -0.10700E+01 10640   0.331E+01 0.163E-02
CGA:   3    -0.130689064759E+04   -0.35735E+00   -0.35764E+00 10640   0.244E+01 0.116E-02
CGA:   4    -0.130714477451E+04   -0.25413E+00   -0.25384E+00 10640   0.848E+00-0.660E-03
CGA:   5    -0.130720909543E+04   -0.64321E-01   -0.64154E-01 10640   0.159E+00-0.800E-03
CGA:   6    -0.130723067642E+04   -0.21581E-01   -0.21579E-01 10640   0.758E-01-0.132E-02
CGA:   7    -0.130723766544E+04   -0.69890E-02   -0.69800E-02 10640   0.285E-01-0.136E-03
CGA:   8    -0.130724091302E+04   -0.32476E-02   -0.32456E-02 10640   0.175E-01-0.638E-04
CGA:   9    -0.130724274390E+04   -0.18309E-02   -0.18293E-02 10640   0.548E-02-0.451E-04
CGA:  10    -0.130724331472E+04   -0.57083E-03   -0.57687E-03 10640   0.338E-02 0.229E-03
CGA:  11    -0.130724380969E+04   -0.49496E-03   -0.49536E-03 10640   0.152E-02-0.397E-04
CGA:  12    -0.130724393866E+04   -0.12897E-03   -0.13081E-03 10640   0.794E-03 0.423E-04
CGA:  13    -0.130724409350E+04   -0.15484E-03   -0.16474E-03 10640   0.114E-02-0.137E-03
CGA:  14    -0.130724420565E+04   -0.11215E-03   -0.10701E-03 10640   0.339E-03-0.258E-03
CGA:  15    -0.130724425021E+04   -0.44559E-04   -0.60991E-04 10640   0.913E-03-0.164E-03
CGA:  16    -0.130724430649E+04   -0.56273E-04   -0.45488E-04 10640   0.368E-03-0.271E-03
CGA:  17    -0.130724433946E+04   -0.32972E-04   -0.27095E-04 10640   0.387E-03-0.193E-03
CGA:  18    -0.130724435921E+04   -0.19752E-04   -0.23444E-04 10640   0.153E-03 0.509E-04
CGA:  19    -0.130724438918E+04   -0.29974E-04   -0.28297E-04 10640   0.129E-03 0.493E-04
CGA:  20    -0.130724441647E+04   -0.27291E-04   -0.32373E-04 10640   0.262E-03-0.875E-04
CGA:  21    -0.130724442359E+04   -0.71192E-05   -0.11819E-04 10640   0.365E-04 0.528E-04
  16 F= -.13072444E+04 E0= -.13072259E+04  d E =-.839121E-02  mag=    47.0000
       N       E                     dE             d eps       ncg     rms          ort
SDA:   1    -0.130709472886E+04    0.14969E+00    0.00000E+00 10640   0.490E+00 0.000E+00
CGA:   2    -0.130718239423E+04   -0.87665E-01   -0.87583E-01 10640   0.308E+00 0.169E-02
CGA:   3    -0.130721138253E+04   -0.28988E-01   -0.28928E-01 10640   0.196E+00-0.177E-02
CGA:   4    -0.130723728661E+04   -0.25904E-01   -0.25905E-01 10640   0.649E-01-0.654E-04
CGA:   5    -0.130724193421E+04   -0.46476E-02   -0.46993E-02 10640   0.153E-01 0.101E-02
CGA:   6    -0.130724372114E+04   -0.17869E-02   -0.17832E-02 10640   0.878E-02-0.331E-03
CGA:   7    -0.130724445951E+04   -0.73838E-03   -0.73378E-03 10640   0.237E-02-0.105E-03
CGA:   8    -0.130724477070E+04   -0.31119E-03   -0.31031E-03 10640   0.135E-02 0.956E-04
CGA:   9    -0.130724494885E+04   -0.17815E-03   -0.17862E-03 10640   0.536E-03-0.117E-03
CGA:  10    -0.130724500579E+04   -0.56939E-04   -0.56653E-04 10640   0.381E-03-0.356E-04
CGA:  11    -0.130724504149E+04   -0.35699E-04   -0.36011E-04 10640   0.138E-03 0.144E-04
CGA:  12    -0.130724506222E+04   -0.20723E-04   -0.24263E-04 10640   0.259E-03-0.742E-04
CGA:  13    -0.130724507428E+04   -0.12059E-04   -0.13174E-04 10640   0.367E-04 0.155E-04
CGA:  14    -0.130724505527E+04    0.19007E-04   -0.21260E-04 10640   0.866E-03-0.947E-04
CGA:  15    -0.130724509870E+04   -0.43431E-04   -0.43038E-04 10640   0.612E-04-0.300E-05
CGA:  16    -0.130724510318E+04   -0.44849E-05   -0.44574E-05 10640   0.227E-04-0.369E-06
  17 F= -.13072451E+04 E0= -.13072266E+04  d E =-.679590E-03  mag=    47.0000
       N       E                     dE             d eps       ncg     rms          ort
SDA:   1    -0.130720611412E+04    0.38985E-01    0.00000E+00 10640   0.130E+00 0.000E+00
CGA:   2    -0.130723070320E+04   -0.24589E-01   -0.24582E-01 10640   0.586E-01 0.144E-03
CGA:   3    -0.130723960031E+04   -0.88971E-02   -0.88983E-02 10640   0.492E-01-0.569E-04
CGA:   4    -0.130724445422E+04   -0.48539E-02   -0.48906E-02 10640   0.103E-01 0.991E-03
CGA:   5    -0.130724535248E+04   -0.89826E-03   -0.90011E-03 10640   0.366E-02 0.454E-04
CGA:   6    -0.130724571613E+04   -0.36365E-03   -0.36980E-03 10640   0.133E-02 0.189E-03
CGA:   7    -0.130724584606E+04   -0.12994E-03   -0.13317E-03 10640   0.530E-03 0.894E-04
CGA:   8    -0.130724592020E+04   -0.74132E-04   -0.74156E-04 10640   0.429E-03-0.193E-04
CGA:   9    -0.130724595331E+04   -0.33116E-04   -0.33800E-04 10640   0.927E-04 0.145E-04
CGA:  10    -0.130724596320E+04   -0.98840E-05   -0.10449E-04 10640   0.468E-04 0.305E-04
CGA:  11    -0.130724597406E+04   -0.10859E-04   -0.13185E-04 10640   0.809E-04-0.272E-04
CGA:  12    -0.130724597455E+04   -0.49103E-06   -0.29639E-05 10640   0.148E-04 0.263E-04
  18 F= -.13072460E+04 E0= -.13072274E+04  d E =-.871362E-03  mag=    47.0000
       N       E                     dE             d eps       ncg     rms          ort
SDA:   1    -0.130722598589E+04    0.19988E-01    0.00000E+00 10640   0.573E-01 0.000E+00
CGA:   2    -0.130723862223E+04   -0.12636E-01   -0.12703E-01 10640   0.418E-01-0.650E-03
CGA:   3    -0.130724253232E+04   -0.39101E-02   -0.39443E-02 10640   0.240E-01 0.115E-02
CGA:   4    -0.130724518440E+04   -0.26521E-02   -0.26597E-02 10640   0.882E-02 0.454E-03
CGA:   5    -0.130724583725E+04   -0.65285E-03   -0.64942E-03 10640   0.157E-02-0.523E-04
CGA:   6    -0.130724604193E+04   -0.20469E-03   -0.20242E-03 10640   0.594E-03 0.271E-03
CGA:   7    -0.130724609902E+04   -0.57090E-04   -0.60352E-04 10640   0.268E-03 0.937E-04
CGA:   8    -0.130724613580E+04   -0.36780E-04   -0.36844E-04 10640   0.109E-03 0.496E-04
CGA:   9    -0.130724614193E+04   -0.61263E-05   -0.89720E-05 10640   0.354E-04 0.566E-04
  19 F= -.13072461E+04 E0= -.13072276E+04  d E =-.167381E-03  mag=    47.0000
       N       E                     dE             d eps       ncg     rms          ort
SDA:   1    -0.130699296630E+04    0.25317E+00    0.00000E+00 10640   0.606E+00 0.000E+00
CGA:   2    -0.130717166561E+04   -0.17870E+00   -0.17908E+00 10640   0.553E+00-0.205E-02
CGA:   3    -0.130721108709E+04   -0.39421E-01   -0.39426E-01 10640   0.214E+00 0.240E-02
CGA:   4    -0.130723642362E+04   -0.25337E-01   -0.25339E-01 10640   0.649E-01 0.572E-03
CGA:   5    -0.130724146685E+04   -0.50432E-02   -0.50132E-02 10640   0.180E-01-0.489E-03
CGA:   6    -0.130724392888E+04   -0.24620E-02   -0.24549E-02 10640   0.912E-02 0.414E-03
CGA:   7    -0.130724474598E+04   -0.81709E-03   -0.81897E-03 10640   0.269E-02 0.710E-04
CGA:   8    -0.130724509362E+04   -0.34765E-03   -0.34959E-03 10640   0.224E-02-0.198E-03
CGA:   9    -0.130724527323E+04   -0.17960E-03   -0.18267E-03 10640   0.446E-03 0.989E-04
CGA:  10    -0.130724533753E+04   -0.64300E-04   -0.63588E-04 10640   0.417E-03 0.385E-04
CGA:  11    -0.130724539569E+04   -0.58165E-04   -0.58739E-04 10640   0.209E-03-0.543E-04
CGA:  12    -0.130724540709E+04   -0.11399E-04   -0.13027E-04 10640   0.814E-04 0.340E-04
CGA:  13    -0.130724541700E+04   -0.99070E-05   -0.10316E-04 10640   0.679E-04 0.508E-04
  20 F= -.13072454E+04 E0= -.13072268E+04  d E =0.724929E-03  mag=    47.0000
       N       E                     dE             d eps       ncg     rms          ort
SDA:   1    -0.130718227085E+04    0.63136E-01    0.00000E+00 10640   0.277E+00 0.000E+00
CGA:   2    -0.130720644538E+04   -0.24175E-01   -0.24167E-01 10640   0.193E+00-0.232E-03
CGA:   3    -0.130723084303E+04   -0.24398E-01   -0.24387E-01 10640   0.631E-01 0.109E-02
CGA:   4    -0.130724054281E+04   -0.96998E-02   -0.96992E-02 10640   0.554E-01 0.415E-04
CGA:   5    -0.130724453380E+04   -0.39910E-02   -0.39354E-02 10640   0.771E-02-0.117E-02
CGA:   6    -0.130724527670E+04   -0.74289E-03   -0.73925E-03 10640   0.380E-02-0.198E-03
CGA:   7    -0.130724568953E+04   -0.41284E-03   -0.41312E-03 10640   0.950E-03 0.935E-04
CGA:   8    -0.130724580687E+04   -0.11734E-03   -0.11745E-03 10640   0.718E-03-0.167E-04
CGA:   9    -0.130724587342E+04   -0.66550E-04   -0.68044E-04 10640   0.196E-03 0.817E-04
CGA:  10    -0.130724588467E+04   -0.11246E-04   -0.14776E-04 10640   0.728E-04 0.767E-04
CGA:  11    -0.130724589281E+04   -0.81418E-05   -0.92702E-05 10640   0.492E-04 0.560E-04
  21 F= -.13072459E+04 E0= -.13072273E+04  d E =-.475813E-03  mag=    47.0000
       N       E                     dE             d eps       ncg     rms          ort
SDA:   1    -0.130723580806E+04    0.10077E-01    0.00000E+00 10640   0.407E-01 0.000E+00
CGA:   2    -0.130724014747E+04   -0.43394E-02   -0.43384E-02 10640   0.374E-01-0.384E-03
CGA:   3    -0.130724379970E+04   -0.36522E-02   -0.36514E-02 10640   0.108E-01-0.556E-04
CGA:   4    -0.130724556081E+04   -0.17611E-02   -0.17219E-02 10640   0.648E-02 0.759E-03
CGA:   5    -0.130724602094E+04   -0.46013E-03   -0.47638E-03 10640   0.111E-02 0.392E-03
CGA:   6    -0.130724613337E+04   -0.11243E-03   -0.11415E-03 10640   0.511E-03 0.148E-03
CGA:   7    -0.130724618657E+04   -0.53198E-04   -0.54886E-04 10640   0.118E-03 0.125E-03
CGA:   8    -0.130724621276E+04   -0.26192E-04   -0.25151E-04 10640   0.867E-04 0.164E-04
CGA:   9    -0.130724621750E+04   -0.47416E-05   -0.65419E-05 10640   0.235E-04 0.405E-04
  22 F= -.13072462E+04 E0= -.13072276E+04  d E =-.324693E-03  mag=    47.0000
