       N       E                     dE             d eps       ncg     rms          rms(c)
DAV:   1     0.852353629643E+04    0.85235E+04   -0.36097E+05 27160   0.170E+03
DAV:   2     0.404743353195E+03   -0.81188E+04   -0.74616E+04 26328   0.458E+02
DAV:   3    -0.778504905777E+03   -0.11832E+04   -0.11558E+04 27800   0.195E+02
DAV:   4    -0.839395164889E+03   -0.60890E+02   -0.57434E+02 31088   0.442E+01
DAV:   5    -0.841685816601E+03   -0.22907E+01   -0.22271E+01 31912   0.711E+00    0.113E+02
DAV:   6    -0.717227145646E+03    0.12446E+03   -0.77131E+02 32984   0.643E+01    0.103E+02
DAV:   7    -0.751919837368E+03   -0.34693E+02   -0.12798E+02 30488   0.306E+01    0.538E+01
DAV:   8    -0.753291821417E+03   -0.13720E+01   -0.25863E+01 33048   0.154E+01    0.284E+01
DAV:   9    -0.756062447823E+03   -0.27706E+01   -0.44738E+00 30568   0.681E+00    0.144E+01
DAV:  10    -0.756739239185E+03   -0.67679E+00   -0.13564E+00 30696   0.252E+00    0.698E+00
DAV:  11    -0.756937821636E+03   -0.19858E+00   -0.36753E-01 29800   0.151E+00    0.272E+00
DAV:  12    -0.756974328727E+03   -0.36507E-01   -0.76663E-02 29064   0.631E-01    0.147E+00
DAV:  13    -0.757000052880E+03   -0.25724E-01   -0.15953E-02 29872   0.521E-01    0.984E-01
DAV:  14    -0.757028763012E+03   -0.28710E-01   -0.16107E-02 31064   0.427E-01    0.616E-01
DAV:  15    -0.757045874524E+03   -0.17112E-01   -0.85889E-03 31080   0.307E-01    0.544E-01
DAV:  16    -0.757060384409E+03   -0.14510E-01   -0.43664E-03 34448   0.231E-01    0.533E-01
DAV:  17    -0.757074630576E+03   -0.14246E-01   -0.33780E-03 31520   0.207E-01    0.518E-01
DAV:  18    -0.757124285721E+03   -0.49655E-01   -0.38124E-02 33008   0.900E-01    0.517E-01
DAV:  19    -0.757161746968E+03   -0.37461E-01   -0.41811E-02 32432   0.617E-01    0.507E-01
DAV:  20    -0.757181562933E+03   -0.19816E-01   -0.13980E-02 29304   0.296E-01    0.486E-01
DAV:  21    -0.757227037872E+03   -0.45475E-01   -0.30834E-02 34136   0.846E-01    0.500E-01
DAV:  22    -0.757246068551E+03   -0.19031E-01   -0.21080E-02 29168   0.300E-01    0.481E-01
DAV:  23    -0.757273293146E+03   -0.27225E-01   -0.10015E-02 35152   0.476E-01    0.492E-01
DAV:  24    -0.757264210730E+03    0.90824E-02   -0.75878E-03 26688   0.363E-01    0.506E-01
DAV:  25    -0.757317579010E+03   -0.53368E-01   -0.48319E-02 31064   0.105E+00    0.535E-01
DAV:  26    -0.757340305891E+03   -0.22727E-01   -0.28559E-02 29864   0.369E-01    0.529E-01
DAV:  27    -0.757234329656E+03    0.10598E+00   -0.12039E-01 31104   0.163E+00    0.532E-01
DAV:  28    -0.756810724234E+03    0.42361E+00   -0.87056E-01 32440   0.404E+00    0.136E+00
DAV:  29    -0.757178598383E+03   -0.36787E+00   -0.73844E-01 30680   0.427E+00    0.685E-01
DAV:  30    -0.757273097387E+03   -0.94499E-01   -0.20229E-01 31552   0.124E+00    0.583E-01
DAV:  31    -0.757295833429E+03   -0.22736E-01   -0.31941E-02 27344   0.354E-01    0.637E-01
DAV:  32    -0.757330169355E+03   -0.34336E-01   -0.21465E-02 33928   0.689E-01    0.605E-01
DAV:  33    -0.757367408119E+03   -0.37239E-01   -0.38406E-02 31872   0.691E-01    0.567E-01
DAV:  34    -0.757404714431E+03   -0.37306E-01   -0.35567E-02 31696   0.687E-01    0.546E-01
DAV:  35    -0.757431422016E+03   -0.26708E-01   -0.24503E-02 30704   0.496E-01    0.577E-01
DAV:  36    -0.757436302583E+03   -0.48806E-02   -0.90514E-03 26144   0.204E-01    0.587E-01
DAV:  37    -0.757435627942E+03    0.67464E-03   -0.24354E-04 30768   0.651E-02    0.575E-01
DAV:  38    -0.757442465512E+03   -0.68376E-02   -0.12632E-03 30608   0.171E-01    0.595E-01
DAV:  39    -0.757442763102E+03   -0.29759E-03   -0.35413E-04 26592   0.325E-02    0.608E-01
DAV:  40    -0.757443778830E+03   -0.10157E-02   -0.82032E-05 24184   0.457E-02    0.630E-01
DAV:  41    -0.757445652321E+03   -0.18735E-02   -0.14576E-04 28040   0.392E-02    0.619E-01
DAV:  42    -0.757451868850E+03   -0.62165E-02   -0.67564E-04 34784   0.112E-01    0.555E-01
DAV:  43    -0.757452272451E+03   -0.40360E-03   -0.10253E-03 29696   0.119E-01    0.497E-01
DAV:  44    -0.757464084728E+03   -0.11812E-01   -0.24140E-03 31232   0.238E-01    0.497E-01
DAV:  45    -0.757470125432E+03   -0.60407E-02   -0.15942E-03 29832   0.991E-02    0.494E-01
DAV:  46    -0.757464993083E+03    0.51323E-02   -0.70569E-04 27024   0.114E-01    0.485E-01
DAV:  47    -0.757462695176E+03    0.22979E-02   -0.25922E-04 30288   0.496E-02    0.484E-01
DAV:  48    -0.757446702507E+03    0.15993E-01   -0.33181E-03 31384   0.272E-01    0.503E-01
DAV:  49    -0.757457817879E+03   -0.11115E-01   -0.14542E-03 28664   0.179E-01    0.470E-01
DAV:  50    -0.757482815818E+03   -0.24998E-01   -0.42933E-02 31656   0.983E-01    0.613E-01
DAV:  51    -0.757525570489E+03   -0.42755E-01   -0.10773E-01 32760   0.129E+00    0.653E-01
DAV:  52    -0.757558761620E+03   -0.33191E-01   -0.62524E-02 30464   0.656E-01    0.743E-01
DAV:  53    -0.757569169229E+03   -0.10408E-01   -0.14465E-02 25960   0.326E-01    0.657E-01
DAV:  54    -0.757570549051E+03   -0.13798E-02   -0.41378E-04 30904   0.467E-02    0.649E-01
DAV:  55    -0.757569999115E+03    0.54994E-03   -0.41205E-05 22288   0.212E-02    0.652E-01
DAV:  56    -0.757572551396E+03   -0.25523E-02   -0.11400E-03 30200   0.157E-01    0.611E-01
DAV:  57    -0.757569669825E+03    0.28816E-02   -0.77251E-04 32360   0.814E-02    0.616E-01
DAV:  58    -0.757563056977E+03    0.66128E-02   -0.66217E-04 29912   0.109E-01    0.637E-01
DAV:  59    -0.757561831342E+03    0.12256E-02   -0.46809E-04 27008   0.453E-02    0.635E-01
DAV:  60    -0.757578593551E+03   -0.16762E-01   -0.51784E-03 30808   0.335E-01    0.709E-01
DAV:  61    -0.757584550439E+03   -0.59569E-02   -0.74552E-03 32104   0.297E-01    0.771E-01
DAV:  62    -0.757569665835E+03    0.14885E-01   -0.13835E-02 29848   0.565E-01    0.676E-01
DAV:  63    -0.757579176217E+03   -0.95104E-02   -0.20941E-03 28032   0.122E-01    0.719E-01
DAV:  64    -0.757580415491E+03   -0.12393E-02   -0.19538E-04 29576   0.284E-02    0.713E-01
DAV:  65    -0.757580594854E+03   -0.17936E-03   -0.14847E-05 17848   0.681E-03    0.711E-01
DAV:  66    -0.757561294426E+03    0.19300E-01   -0.53365E-03 31208   0.339E-01    0.710E-01
DAV:  67    -0.757572909803E+03   -0.11615E-01   -0.61413E-03 30592   0.384E-01    0.608E-01
DAV:  68    -0.757573354482E+03   -0.44468E-03   -0.90311E-04 26672   0.546E-02    0.592E-01
DAV:  69    -0.757580206793E+03   -0.68523E-02   -0.69445E-04 30920   0.122E-01    0.571E-01
DAV:  70    -0.757609658841E+03   -0.29452E-01   -0.32014E-02 31304   0.803E-01    0.486E-01
DAV:  71    -0.757621839513E+03   -0.12181E-01   -0.27284E-01 31400   0.223E+00    0.115E+00
DAV:  72    -0.757669671375E+03   -0.47832E-01   -0.96225E-02 25648   0.703E-01    0.113E+00
DAV:  73    -0.757673675102E+03   -0.40037E-02   -0.39862E-03 32168   0.229E-01    0.120E+00
DAV:  74    -0.757673984961E+03   -0.30986E-03   -0.13359E-03 28344   0.720E-02    0.121E+00
DAV:  75    -0.757673351853E+03    0.63311E-03   -0.11937E-04 24984   0.221E-02    0.120E+00
DAV:  76    -0.757680234463E+03   -0.68826E-02   -0.24171E-03 32224   0.232E-01    0.125E+00
DAV:  77    -0.757682254735E+03   -0.20203E-02   -0.18829E-03 30224   0.220E-01    0.115E+00
DAV:  78    -0.757666485241E+03    0.15769E-01   -0.11911E-02 32312   0.469E-01    0.107E+00
DAV:  79    -0.757671093945E+03   -0.46087E-02   -0.37707E-03 25840   0.113E-01    0.109E+00
DAV:  80    -0.757673061308E+03   -0.19674E-02   -0.13877E-04 27288   0.468E-02    0.113E+00
DAV:  81    -0.757662615819E+03    0.10445E-01   -0.31220E-02 31232   0.801E-01    0.102E+00
DAV:  82    -0.757664768427E+03   -0.21526E-02   -0.92775E-03 26168   0.206E-01    0.989E-01
DAV:  83    -0.757663376059E+03    0.13924E-02   -0.36376E-04 32424   0.802E-02    0.969E-01
DAV:  84    -0.757652519451E+03    0.10857E-01   -0.21076E-03 32224   0.190E-01    0.100E+00
DAV:  85    -0.757639941861E+03    0.12578E-01   -0.18420E-03 31640   0.123E-01    0.114E+00
DAV:  86    -0.757652895610E+03   -0.12954E-01   -0.10603E-02 32064   0.483E-01    0.953E-01
DAV:  87    -0.757654321348E+03   -0.14257E-02   -0.29381E-03 25824   0.150E-01    0.997E-01
DAV:  88    -0.757649080460E+03    0.52409E-02   -0.57676E-04 31080   0.102E-01    0.101E+00
DAV:  89    -0.757640432330E+03    0.86481E-02   -0.32347E-03 31568   0.238E-01    0.995E-01
DAV:  90    -0.757650577474E+03   -0.10145E-01   -0.18002E-03 28696   0.194E-01    0.984E-01
DAV:  91    -0.757699492315E+03   -0.48915E-01   -0.32857E-02 31952   0.841E-01    0.797E-01
DAV:  92    -0.757705078180E+03   -0.55859E-02   -0.12459E-02 26408   0.195E-01    0.774E-01
DAV:  93    -0.757710681118E+03   -0.56029E-02   -0.28765E-03 34584   0.254E-01    0.798E-01
DAV:  94    -0.757716632115E+03   -0.59510E-02   -0.79323E-03 31712   0.321E-01    0.823E-01
DAV:  95    -0.757713940464E+03    0.26917E-02   -0.34249E-03 27120   0.229E-01    0.785E-01
DAV:  96    -0.757689264986E+03    0.24675E-01   -0.85501E-03 33464   0.403E-01    0.737E-01
DAV:  97    -0.757682069216E+03    0.71958E-02   -0.56702E-03 32160   0.184E-01    0.753E-01
DAV:  98    -0.757666997171E+03    0.15072E-01   -0.80404E-03 32024   0.395E-01    0.747E-01
DAV:  99    -0.757664948153E+03    0.20490E-02   -0.56921E-03 28584   0.151E-01    0.736E-01
DAV: 100    -0.757666769390E+03   -0.18212E-02   -0.69284E-04 24768   0.687E-02    0.742E-01
DAV: 101    -0.757655824012E+03    0.10945E-01   -0.18634E-02 32088   0.603E-01    0.654E-01
DAV: 102    -0.757653868405E+03    0.19556E-02   -0.85109E-03 28904   0.180E-01    0.650E-01
DAV: 103    -0.757649865262E+03    0.40031E-02   -0.70176E-04 29840   0.990E-02    0.674E-01
DAV: 104    -0.757662000980E+03   -0.12136E-01   -0.65671E-03 30312   0.376E-01    0.646E-01
DAV: 105    -0.757675442876E+03   -0.13442E-01   -0.13160E-02 32648   0.414E-01    0.654E-01
DAV: 106    -0.757657916533E+03    0.17526E-01   -0.12196E-02 29280   0.507E-01    0.717E-01
DAV: 107    -0.757670409470E+03   -0.12493E-01   -0.55022E-03 29928   0.394E-01    0.710E-01
DAV: 108    -0.757680729552E+03   -0.10320E-01   -0.10074E-02 32432   0.368E-01    0.716E-01
DAV: 109    -0.757687108041E+03   -0.63785E-02   -0.52209E-03 30272   0.157E-01    0.723E-01
DAV: 110    -0.757693865049E+03   -0.67570E-02   -0.29781E-03 35144   0.245E-01    0.741E-01
DAV: 111    -0.757592644147E+03    0.10122E+00   -0.24005E-01 30752   0.226E+00    0.103E+00
DAV: 112    -0.757631966603E+03   -0.39322E-01   -0.72266E-02 25904   0.481E-01    0.104E+00
DAV: 113    -0.757634831719E+03   -0.28651E-02   -0.12204E-03 28832   0.841E-02    0.104E+00
DAV: 114    -0.757639973847E+03   -0.51421E-02   -0.57629E-04 29792   0.111E-01    0.103E+00
DAV: 115    -0.757654274437E+03   -0.14301E-01   -0.12707E-02 30472   0.488E-01    0.878E-01
DAV: 116    -0.757630789223E+03    0.23485E-01   -0.51199E-01 30696   0.316E+00    0.984E-01
DAV: 117    -0.757731430908E+03   -0.10064E+00   -0.17469E-01 25568   0.843E-01    0.840E-01
DAV: 118    -0.757730798155E+03    0.63275E-03   -0.16307E-02 33656   0.555E-01    0.965E-01
DAV: 119    -0.757737764101E+03   -0.69659E-02   -0.88564E-03 28784   0.201E-01    0.101E+00
DAV: 120    -0.757741834159E+03   -0.40701E-02   -0.10834E-03 30248   0.995E-02    0.104E+00
DAV: 121    -0.757734870979E+03    0.69632E-02   -0.18845E-02 31016   0.630E-01    0.938E-01
DAV: 122    -0.757738896495E+03   -0.40255E-02   -0.46620E-03 25840   0.164E-01    0.968E-01
DAV: 123    -0.757741994284E+03   -0.30978E-02   -0.35112E-04 29920   0.630E-02    0.104E+00
DAV: 124    -0.757743921573E+03   -0.19273E-02   -0.42808E-04 30568   0.676E-02    0.112E+00
DAV: 125    -0.757745306310E+03   -0.13847E-02   -0.34917E-03 33008   0.264E-01    0.120E+00
DAV: 126    -0.757748240508E+03   -0.29342E-02   -0.47479E-03 29264   0.297E-01    0.137E+00
DAV: 127    -0.757755053424E+03   -0.68129E-02   -0.69634E-03 31808   0.300E-01    0.158E+00
DAV: 128    -0.757762566032E+03   -0.75126E-02   -0.33812E-03 29696   0.133E-01    0.173E+00
DAV: 129    -0.757763957115E+03   -0.13911E-02   -0.49288E-04 28168   0.430E-02    0.174E+00
DAV: 130    -0.757764196298E+03   -0.23918E-03   -0.11969E-04 26640   0.436E-02    0.174E+00
DAV: 131    -0.757763250496E+03    0.94580E-03   -0.19454E-03 31688   0.196E-01    0.187E+00
DAV: 132    -0.757762898874E+03    0.35162E-03   -0.71594E-04 26176   0.880E-02    0.186E+00
DAV: 133    -0.757763811872E+03   -0.91300E-03   -0.55534E-05 24488   0.222E-02    0.186E+00
DAV: 134    -0.757764523125E+03   -0.71125E-03   -0.43468E-05 21472   0.231E-02    0.185E+00
DAV: 135    -0.757764435444E+03    0.87681E-04   -0.17466E-05 15968   0.133E-02    0.186E+00
DAV: 136    -0.757771361526E+03   -0.69261E-02   -0.44912E-03 33520   0.290E-01    0.193E+00
DAV: 137    -0.757772228193E+03   -0.86667E-03   -0.14974E-03 27616   0.124E-01    0.193E+00
DAV: 138    -0.757772234886E+03   -0.66927E-05   -0.68038E-05 25640   0.194E-02
   1 F= -.75777223E+03 E0= -.75777223E+03  d E =-.757772E+03  mag=    64.9957
       N       E                     dE             d eps       ncg     rms          rms(c)
DAV:   1    -0.757773156894E+03   -0.92870E-03   -0.98214E-04 30112   0.981E-02    0.193E+00
DAV:   2    -0.757778348268E+03   -0.51914E-02   -0.49804E-02 30960   0.817E-01    0.114E+00
DAV:   3    -0.757784713352E+03   -0.63651E-02   -0.15910E-02 26080   0.326E-01    0.515E-01
DAV:   4    -0.757787389945E+03   -0.26766E-02   -0.18815E-03 34232   0.141E-01    0.305E-01
DAV:   5    -0.757790929453E+03   -0.35395E-02   -0.16862E-03 30392   0.143E-01    0.217E-01
DAV:   6    -0.757792525769E+03   -0.15963E-02   -0.77196E-04 29488   0.702E-02    0.199E-01
DAV:   7    -0.757794209967E+03   -0.16842E-02   -0.28240E-04 36664   0.645E-02    0.190E-01
DAV:   8    -0.757801653666E+03   -0.74437E-02   -0.69446E-03 31840   0.363E-01    0.181E-01
DAV:   9    -0.757808668738E+03   -0.70151E-02   -0.12232E-02 31840   0.364E-01    0.167E-01
DAV:  10    -0.757815127422E+03   -0.64587E-02   -0.93307E-03 31328   0.309E-01    0.158E-01
DAV:  11    -0.757820398937E+03   -0.52715E-02   -0.66071E-03 30592   0.276E-01    0.137E-01
DAV:  12    -0.757825068824E+03   -0.46699E-02   -0.73443E-03 31752   0.298E-01    0.132E-01
DAV:  13    -0.757829310702E+03   -0.42419E-02   -0.73492E-03 30640   0.251E-01    0.112E-01
DAV:  14    -0.757832236179E+03   -0.29255E-02   -0.79987E-03 33056   0.350E-01    0.109E-01
DAV:  15    -0.757835664342E+03   -0.34282E-02   -0.10512E-02 30744   0.277E-01    0.911E-02
DAV:  16    -0.757838340197E+03   -0.26759E-02   -0.45826E-03 30416   0.192E-01    0.724E-02
DAV:  17    -0.757839399930E+03   -0.10597E-02   -0.37158E-03 32984   0.232E-01    0.705E-02
DAV:  18    -0.757840967402E+03   -0.15675E-02   -0.40003E-03 28888   0.145E-01    0.527E-02
DAV:  19    -0.757841924608E+03   -0.95721E-03   -0.10990E-03 26872   0.687E-02    0.424E-02
DAV:  20    -0.757842140898E+03   -0.21629E-03   -0.20218E-04 25872   0.348E-02    0.352E-02
DAV:  21    -0.757842215605E+03   -0.74707E-04   -0.85768E-05 23360   0.322E-02    0.309E-02
DAV:  22    -0.757842321956E+03   -0.10635E-03   -0.34531E-04 30136   0.823E-02    0.314E-02
DAV:  23    -0.757842462031E+03   -0.14008E-03   -0.42511E-04 30352   0.604E-02    0.414E-02
DAV:  24    -0.757842571904E+03   -0.10987E-03   -0.16835E-04 26600   0.350E-02    0.324E-02
DAV:  25    -0.757842628640E+03   -0.56736E-04   -0.46041E-05 22528   0.184E-02    0.291E-02
DAV:  26    -0.757842685338E+03   -0.56698E-04   -0.45041E-05 21608   0.251E-02    0.281E-02
DAV:  27    -0.757842746006E+03   -0.60668E-04   -0.11832E-04 28144   0.367E-02    0.274E-02
DAV:  28    -0.757842808817E+03   -0.62811E-04   -0.19208E-04 28552   0.562E-02    0.354E-02
DAV:  29    -0.757842908431E+03   -0.99613E-04   -0.21589E-04 29032   0.466E-02    0.302E-02
DAV:  30    -0.757842959328E+03   -0.50897E-04   -0.11572E-04 25352   0.313E-02    0.313E-02
DAV:  31    -0.757843011918E+03   -0.52590E-04   -0.49208E-05 23192   0.225E-02    0.263E-02
DAV:  32    -0.757843049594E+03   -0.37676E-04   -0.77474E-05 25504   0.319E-02    0.218E-02
DAV:  33    -0.757843078507E+03   -0.28913E-04   -0.82878E-05 26424   0.246E-02    0.184E-02
DAV:  34    -0.757843096356E+03   -0.17849E-04   -0.62847E-05 24904   0.321E-02    0.113E-02
DAV:  35    -0.757843117713E+03   -0.21357E-04   -0.64101E-05 23304   0.207E-02    0.712E-03
DAV:  36    -0.757843125854E+03   -0.81418E-05   -0.18596E-05 17344   0.137E-02
   2 F= -.75784313E+03 E0= -.75784313E+03  d E =-.708910E-01  mag=    65.0000
       N       E                     dE             d eps       ncg     rms          rms(c)
DAV:   1    -0.757849946561E+03   -0.68288E-02   -0.12446E-01 29752   0.106E+00    0.255E-01
DAV:   2    -0.757851381523E+03   -0.14350E-02   -0.15366E-02 29152   0.221E-01    0.134E-01
DAV:   3    -0.757851377610E+03    0.39133E-05   -0.60516E-04 30560   0.579E-02    0.823E-02
DAV:   4    -0.757851348589E+03    0.29021E-04   -0.12208E-04 31280   0.286E-02    0.419E-02
DAV:   5    -0.757851337598E+03    0.10991E-04   -0.23369E-05 22384   0.184E-02    0.155E-02
DAV:   6    -0.757851337238E+03    0.36007E-06   -0.23485E-05 21664   0.113E-02
   3 F= -.75785134E+03 E0= -.75785134E+03  d E =-.821138E-02  mag=    65.0000
       N       E                     dE             d eps       ncg     rms          rms(c)
DAV:   1    -0.757835325619E+03    0.16012E-01   -0.30862E+00 29544   0.551E+00    0.937E-01
DAV:   2    -0.757872732275E+03   -0.37407E-01   -0.37703E-01 28856   0.105E+00    0.480E-01
DAV:   3    -0.757874095772E+03   -0.13635E-02   -0.12474E-02 30168   0.244E-01    0.235E-01
DAV:   4    -0.757873798104E+03    0.29767E-03   -0.15767E-03 32560   0.896E-02    0.145E-01
DAV:   5    -0.757873698642E+03    0.99462E-04   -0.39365E-04 32552   0.665E-02    0.570E-02
DAV:   6    -0.757873698168E+03    0.47425E-06   -0.20026E-04 30384   0.351E-02    0.323E-02
DAV:   7    -0.757873703755E+03   -0.55878E-05   -0.56829E-05 27520   0.195E-02
   4 F= -.75787370E+03 E0= -.75787370E+03  d E =-.223665E-01  mag=    65.0000
       N       E                     dE             d eps       ncg     rms          rms(c)
DAV:   1    -0.757858940526E+03    0.14758E-01   -0.31846E+00 28672   0.496E+00    0.810E-01
DAV:   2    -0.757888993211E+03   -0.30053E-01   -0.29851E-01 28504   0.926E-01    0.422E-01
DAV:   3    -0.757890009237E+03   -0.10160E-02   -0.88227E-03 29632   0.204E-01    0.208E-01
DAV:   4    -0.757889782598E+03    0.22664E-03   -0.87300E-04 32272   0.643E-02    0.128E-01
DAV:   5    -0.757889662120E+03    0.12048E-03   -0.36306E-04 32568   0.606E-02    0.506E-02
DAV:   6    -0.757889675032E+03   -0.12912E-04   -0.15344E-04 30456   0.263E-02    0.263E-02
DAV:   7    -0.757889681508E+03   -0.64758E-05   -0.32729E-05 23256   0.130E-02
   5 F= -.75788968E+03 E0= -.75788968E+03  d E =-.159778E-01  mag=    65.0000
       N       E                     dE             d eps       ncg     rms          rms(c)
DAV:   1    -0.757775342409E+03    0.11433E+00   -0.12366E+01 28728   0.973E+00    0.171E+00
DAV:   2    -0.757894613842E+03   -0.11927E+00   -0.11842E+00 28408   0.184E+00    0.860E-01
DAV:   3    -0.757898010892E+03   -0.33971E-02   -0.35474E-02 29368   0.407E-01    0.451E-01
DAV:   4    -0.757897061577E+03    0.94932E-03   -0.35778E-03 32872   0.135E-01    0.254E-01
DAV:   5    -0.757896437254E+03    0.62432E-03   -0.12743E-03 32552   0.125E-01    0.977E-02
DAV:   6    -0.757896479399E+03   -0.42145E-04   -0.83581E-04 30696   0.614E-02    0.552E-02
DAV:   7    -0.757896492534E+03   -0.13135E-04   -0.11581E-04 29104   0.246E-02    0.324E-02
DAV:   8    -0.757896501087E+03   -0.85526E-05   -0.18266E-05 18784   0.116E-02
   6 F= -.75789650E+03 E0= -.75789650E+03  d E =-.681958E-02  mag=    65.0000
       N       E                     dE             d eps       ncg     rms          rms(c)
DAV:   1    -0.757852839417E+03    0.43653E-01   -0.51726E+00 28992   0.632E+00    0.128E+00
DAV:   2    -0.757905193970E+03   -0.52355E-01   -0.52375E-01 28696   0.124E+00    0.617E-01
DAV:   3    -0.757906092296E+03   -0.89833E-03   -0.15798E-02 29648   0.275E-01    0.330E-01
DAV:   4    -0.757905514298E+03    0.57800E-03   -0.24151E-03 32552   0.120E-01    0.186E-01
DAV:   5    -0.757905371507E+03    0.14279E-03   -0.59520E-04 29896   0.701E-02    0.674E-02
DAV:   6    -0.757905396856E+03   -0.25350E-04   -0.30692E-04 30208   0.380E-02    0.434E-02
DAV:   7    -0.757905408732E+03   -0.11876E-04   -0.37957E-05 24104   0.164E-02    0.261E-02
DAV:   8    -0.757905417452E+03   -0.87192E-05   -0.11036E-05 15928   0.913E-03
   7 F= -.75790542E+03 E0= -.75790542E+03  d E =-.891636E-02  mag=    65.0000
       N       E                     dE             d eps       ncg     rms          rms(c)
DAV:   1    -0.757899259340E+03    0.61494E-02   -0.91587E-01 29632   0.293E+00    0.544E-01
DAV:   2    -0.757910410136E+03   -0.11151E-01   -0.11194E-01 28744   0.570E-01    0.292E-01
DAV:   3    -0.757910764515E+03   -0.35438E-03   -0.36529E-03 29888   0.135E-01    0.161E-01
DAV:   4    -0.757910658486E+03    0.10603E-03   -0.47117E-04 32912   0.527E-02    0.887E-02
DAV:   5    -0.757910611086E+03    0.47400E-04   -0.11859E-04 30784   0.418E-02    0.333E-02
DAV:   6    -0.757910613362E+03   -0.22767E-05   -0.86476E-05 28632   0.233E-02
   8 F= -.75791061E+03 E0= -.75791061E+03  d E =-.519591E-02  mag=    65.0000
       N       E                     dE             d eps       ncg     rms          rms(c)
DAV:   1    -0.757904505644E+03    0.61054E-02   -0.50708E-01 30984   0.255E+00    0.439E-01
DAV:   2    -0.757912664900E+03   -0.81593E-02   -0.80090E-02 28704   0.489E-01    0.220E-01
DAV:   3    -0.757913012631E+03   -0.34773E-03   -0.25586E-03 29896   0.110E-01    0.107E-01
DAV:   4    -0.757912964090E+03    0.48540E-04   -0.21328E-04 32424   0.356E-02    0.649E-02
DAV:   5    -0.757912941520E+03    0.22571E-04   -0.85288E-05 30528   0.325E-02    0.251E-02
DAV:   6    -0.757912947257E+03   -0.57376E-05   -0.46680E-05 26792   0.166E-02
   9 F= -.75791295E+03 E0= -.75791295E+03  d E =-.233390E-02  mag=    65.0000
       N       E                     dE             d eps       ncg     rms          rms(c)
DAV:   1    -0.757884418046E+03    0.28523E-01   -0.19299E+00 30672   0.486E+00    0.750E-01
DAV:   2    -0.757914930683E+03   -0.30513E-01   -0.29622E-01 27928   0.936E-01    0.384E-01
DAV:   3    -0.757916241708E+03   -0.13110E-02   -0.83568E-03 29760   0.191E-01    0.164E-01
DAV:   4    -0.757916148388E+03    0.93320E-04   -0.65709E-04 33768   0.539E-02    0.109E-01
DAV:   5    -0.757916092505E+03    0.55883E-04   -0.16553E-04 33168   0.491E-02    0.505E-02
DAV:   6    -0.757916108685E+03   -0.16180E-04   -0.95707E-05 30904   0.239E-02    0.190E-02
DAV:   7    -0.757916116469E+03   -0.77840E-05   -0.15376E-05 17640   0.101E-02
  10 F= -.75791612E+03 E0= -.75791612E+03  d E =-.316921E-02  mag=    65.0000
       N       E                     dE             d eps       ncg     rms          rms(c)
DAV:   1    -0.757715297190E+03    0.20081E+00   -0.17538E+01 28808   0.118E+01    0.229E+00
DAV:   2    -0.757866551785E+03   -0.15125E+00   -0.15332E+00 29016   0.236E+00    0.108E+00
DAV:   3    -0.757867872334E+03   -0.13205E-02   -0.49138E-02 30416   0.530E-01    0.646E-01
DAV:   4    -0.757865977684E+03    0.18947E-02   -0.61223E-03 32680   0.199E-01    0.343E-01
DAV:   5    -0.757864993700E+03    0.98398E-03   -0.22212E-03 31232   0.165E-01    0.120E-01
DAV:   6    -0.757865070103E+03   -0.76403E-04   -0.15433E-03 30248   0.861E-02    0.804E-02
DAV:   7    -0.757865087271E+03   -0.17168E-04   -0.21290E-04 29016   0.343E-02    0.478E-02
DAV:   8    -0.757865097068E+03   -0.97965E-05   -0.41910E-05 26704   0.163E-02
  11 F= -.75786510E+03 E0= -.75786510E+03  d E =0.510194E-01  mag=    65.0000
       N       E                     dE             d eps       ncg     rms          rms(c)
DAV:   1    -0.757911335439E+03   -0.46248E-01   -0.31681E+00 26768   0.334E+00    0.138E+00
DAV:   2    -0.757924254076E+03   -0.12919E-01   -0.16552E-01 30056   0.753E-01    0.596E-01
DAV:   3    -0.757921846448E+03    0.24076E-02   -0.79153E-03 30040   0.218E-01    0.480E-01
DAV:   4    -0.757921267593E+03    0.57885E-03   -0.15610E-03 32000   0.105E-01    0.197E-01
DAV:   5    -0.757920908284E+03    0.35931E-03   -0.54416E-04 30512   0.921E-02    0.716E-02
DAV:   6    -0.757920926084E+03   -0.17800E-04   -0.58871E-04 30024   0.529E-02    0.503E-02
DAV:   7    -0.757920931953E+03   -0.58690E-05   -0.97457E-05 29088   0.197E-02
  12 F= -.75792093E+03 E0= -.75792093E+03  d E =-.558349E-01  mag=    65.0000
       N       E                     dE             d eps       ncg     rms          rms(c)
DAV:   1    -0.757922233802E+03   -0.13077E-02   -0.41034E-02 28040   0.476E-01    0.141E-01
DAV:   2    -0.757922472126E+03   -0.23832E-03   -0.25905E-03 29984   0.964E-02    0.543E-02
DAV:   3    -0.757922472172E+03   -0.46100E-07   -0.12593E-04 30440   0.282E-02    0.445E-02
DAV:   4    -0.757922472768E+03   -0.59564E-06   -0.14964E-05 20096   0.104E-02
  13 F= -.75792247E+03 E0= -.75792247E+03  d E =-.154082E-02  mag=    65.0000
       N       E                     dE             d eps       ncg     rms          rms(c)
DAV:   1    -0.757923212969E+03   -0.74080E-03   -0.22742E-01 28192   0.120E+00    0.317E-01
DAV:   2    -0.757924646370E+03   -0.14334E-02   -0.15488E-02 29728   0.231E-01    0.113E-01
DAV:   3    -0.757924636567E+03    0.98035E-05   -0.71777E-04 30960   0.645E-02    0.821E-02
DAV:   4    -0.757924625499E+03    0.11068E-04   -0.86832E-05 30424   0.206E-02    0.441E-02
DAV:   5    -0.757924624456E+03    0.10427E-05   -0.38309E-05 25808   0.168E-02
  14 F= -.75792462E+03 E0= -.75792462E+03  d E =-.215169E-02  mag=    65.0000
       N       E                     dE             d eps       ncg     rms          rms(c)
DAV:   1    -0.757924854813E+03   -0.22931E-03   -0.18009E-02 30432   0.409E-01    0.812E-02
DAV:   2    -0.757925036279E+03   -0.18147E-03   -0.18019E-03 29048   0.777E-02    0.359E-02
DAV:   3    -0.757925046755E+03   -0.10476E-04   -0.72874E-05 29264   0.196E-02    0.211E-02
DAV:   4    -0.757925049043E+03   -0.22878E-05   -0.65069E-06 17136   0.688E-03
  15 F= -.75792505E+03 E0= -.75792505E+03  d E =-.424587E-03  mag=    65.0000
       N       E                     dE             d eps       ncg     rms          rms(c)
DAV:   1    -0.757921424262E+03    0.36225E-02   -0.48306E-01 29712   0.210E+00    0.356E-01
DAV:   2    -0.757926079953E+03   -0.46557E-02   -0.46915E-02 28904   0.395E-01    0.167E-01
DAV:   3    -0.757926244652E+03   -0.16470E-03   -0.17244E-03 30984   0.915E-02    0.890E-02
DAV:   4    -0.757926211063E+03    0.33589E-04   -0.13612E-04 30728   0.262E-02    0.548E-02
DAV:   5    -0.757926195425E+03    0.15638E-04   -0.87964E-05 29096   0.279E-02    0.239E-02
DAV:   6    -0.757926201679E+03   -0.62545E-05   -0.31191E-05 24672   0.143E-02
  16 F= -.75792620E+03 E0= -.75792620E+03  d E =-.115264E-02  mag=    65.0000
       N       E                     dE             d eps       ncg     rms          rms(c)
DAV:   1    -0.757925362800E+03    0.83262E-03   -0.10307E-01 30216   0.102E+00    0.173E-01
DAV:   2    -0.757926567643E+03   -0.12048E-02   -0.11839E-02 28824   0.197E-01    0.808E-02
DAV:   3    -0.757926614321E+03   -0.46678E-04   -0.37466E-04 30360   0.434E-02    0.410E-02
DAV:   4    -0.757926611216E+03    0.31051E-05   -0.30026E-05 22864   0.123E-02
  17 F= -.75792661E+03 E0= -.75792661E+03  d E =-.409537E-03  mag=    65.0000
       N       E                     dE             d eps       ncg     rms          rms(c)
DAV:   1    -0.757925095197E+03    0.15191E-02   -0.16572E-01 30064   0.128E+00    0.193E-01
DAV:   2    -0.757926950111E+03   -0.18549E-02   -0.18087E-02 28672   0.245E-01    0.996E-02
DAV:   3    -0.757927016550E+03   -0.66439E-04   -0.52862E-04 30232   0.504E-02    0.515E-02
DAV:   4    -0.757927010964E+03    0.55857E-05   -0.37831E-05 24048   0.135E-02
  18 F= -.75792701E+03 E0= -.75792701E+03  d E =-.399748E-03  mag=    65.0000
       N       E                     dE             d eps       ncg     rms          rms(c)
DAV:   1    -0.757921887394E+03    0.51292E-02   -0.56848E-01 29496   0.225E+00    0.307E-01
DAV:   2    -0.757927573309E+03   -0.56859E-02   -0.55427E-02 27960   0.433E-01    0.162E-01
DAV:   3    -0.757927762072E+03   -0.18876E-03   -0.15012E-03 29896   0.822E-02    0.747E-02
DAV:   4    -0.757927735764E+03    0.26308E-04   -0.11740E-04 30400   0.243E-02    0.498E-02
DAV:   5    -0.757927725477E+03    0.10287E-04   -0.45964E-05 26520   0.253E-02    0.225E-02
DAV:   6    -0.757927733844E+03   -0.83672E-05   -0.24818E-05 19720   0.121E-02
  19 F= -.75792773E+03 E0= -.75792773E+03  d E =-.722880E-03  mag=    65.0000
       N       E                     dE             d eps       ncg     rms          rms(c)
DAV:   1    -0.757815141794E+03    0.11258E+00   -0.10744E+01 29512   0.979E+00    0.136E+00
DAV:   2    -0.757924028654E+03   -0.10889E+00   -0.10611E+00 27688   0.189E+00    0.702E-01
DAV:   3    -0.757927762831E+03   -0.37342E-02   -0.28989E-02 29720   0.362E-01    0.308E-01
DAV:   4    -0.757927232361E+03    0.53047E-03   -0.23149E-03 34024   0.104E-01    0.203E-01
DAV:   5    -0.757926922495E+03    0.30987E-03   -0.71798E-04 33448   0.978E-02    0.915E-02
DAV:   6    -0.757926962649E+03   -0.40154E-04   -0.38174E-04 31128   0.448E-02    0.370E-02
DAV:   7    -0.757926981996E+03   -0.19348E-04   -0.62303E-05 27784   0.191E-02    0.258E-02
DAV:   8    -0.757926994802E+03   -0.12806E-04   -0.66459E-06 15256   0.893E-03    0.192E-02
DAV:   9    -0.757927011434E+03   -0.16631E-04   -0.61714E-06 15376   0.105E-02    0.160E-02
DAV:  10    -0.757927025680E+03   -0.14247E-04   -0.78971E-06 16168   0.806E-03    0.144E-02
DAV:  11    -0.757927039555E+03   -0.13875E-04   -0.33953E-06 14688   0.759E-03    0.135E-02
DAV:  12    -0.757927074570E+03   -0.35015E-04   -0.29145E-05 20032   0.245E-02    0.125E-02
DAV:  13    -0.757927112540E+03   -0.37970E-04   -0.95436E-05 26816   0.354E-02    0.108E-02
DAV:  14    -0.757927145258E+03   -0.32718E-04   -0.84826E-05 26256   0.297E-02    0.888E-03
DAV:  15    -0.757927169797E+03   -0.24539E-04   -0.48236E-05 21816   0.245E-02    0.790E-03
DAV:  16    -0.757927186651E+03   -0.16854E-04   -0.33540E-05 19736   0.157E-02    0.679E-03
DAV:  17    -0.757927196815E+03   -0.10164E-04   -0.11708E-05 15776   0.122E-02    0.588E-03
DAV:  18    -0.757927203820E+03   -0.70052E-05   -0.22004E-05 17800   0.187E-02
  20 F= -.75792720E+03 E0= -.75792720E+03  d E =0.530024E-03  mag=    65.0000
       N       E                     dE             d eps       ncg     rms          rms(c)
DAV:   1    -0.757894494218E+03    0.32703E-01   -0.30034E+00 29512   0.517E+00    0.869E-01
DAV:   2    -0.757924312891E+03   -0.29819E-01   -0.29444E-01 28736   0.101E+00    0.412E-01
DAV:   3    -0.757925129892E+03   -0.81700E-03   -0.88792E-03 30224   0.213E-01    0.218E-01
DAV:   4    -0.757924914063E+03    0.21583E-03   -0.84861E-04 33168   0.671E-02    0.127E-01
DAV:   5    -0.757924792086E+03    0.12198E-03   -0.28461E-04 32696   0.556E-02    0.481E-02
DAV:   6    -0.757924797785E+03   -0.56992E-05   -0.15332E-04 30000   0.290E-02    0.275E-02
DAV:   7    -0.757924800823E+03   -0.30378E-05   -0.32249E-05 22528   0.127E-02
  21 F= -.75792480E+03 E0= -.75792480E+03  d E =0.240300E-02  mag=    65.0000
       N       E                     dE             d eps       ncg     rms          rms(c)
DAV:   1    -0.757859390515E+03    0.65407E-01   -0.66447E+00 29624   0.774E+00    0.112E+00
DAV:   2    -0.757927479135E+03   -0.68089E-01   -0.66500E-01 28136   0.150E+00    0.571E-01
DAV:   3    -0.757929780840E+03   -0.23017E-02   -0.18603E-02 29880   0.293E-01    0.260E-01
DAV:   4    -0.757929407102E+03    0.37374E-03   -0.15331E-03 33840   0.866E-02    0.167E-01
DAV:   5    -0.757929179272E+03    0.22783E-03   -0.50144E-04 33336   0.793E-02    0.672E-02
DAV:   6    -0.757929192747E+03   -0.13475E-04   -0.26402E-04 30760   0.366E-02    0.294E-02
DAV:   7    -0.757929196289E+03   -0.35416E-05   -0.47001E-05 27032   0.151E-02
  22 F= -.75792920E+03 E0= -.75792920E+03  d E =-.439547E-02  mag=    65.0000
       N       E                     dE             d eps       ncg     rms          rms(c)
DAV:   1    -0.757927152695E+03    0.20401E-02   -0.23472E-01 28144   0.131E+00    0.252E-01
DAV:   2    -0.757928944129E+03   -0.17914E-02   -0.18122E-02 28976   0.258E-01    0.109E-01
DAV:   3    -0.757928955724E+03   -0.11595E-04   -0.57911E-04 30504   0.577E-02    0.623E-02
DAV:   4    -0.757928934951E+03    0.20773E-04   -0.75142E-05 30184   0.214E-02    0.357E-02
DAV:   5    -0.757928925951E+03    0.89998E-05   -0.20183E-05 20640   0.155E-02
  23 F= -.75792893E+03 E0= -.75792893E+03  d E =0.270337E-03  mag=    65.0000
       N       E                     dE             d eps       ncg     rms          rms(c)
DAV:   1    -0.757928856011E+03    0.78940E-04   -0.44495E-02 28392   0.569E-01    0.147E-01
DAV:   2    -0.757929222648E+03   -0.36664E-03   -0.38789E-03 29408   0.116E-01    0.588E-02
DAV:   3    -0.757929214759E+03    0.78892E-05   -0.14936E-04 30352   0.297E-02    0.382E-02
DAV:   4    -0.757929208952E+03    0.58067E-05   -0.19758E-05 21424   0.117E-02
  24 F= -.75792921E+03 E0= -.75792921E+03  d E =-.283001E-03  mag=    65.0000
