       N       E                     dE             d eps       ncg     rms          ort
DAV:   1     0.281824710088E+04    0.28182E+04   -0.29318E+05  2880   0.140E+03
DAV:   2    -0.963267636682E+03   -0.37815E+04   -0.36539E+04  2880   0.312E+02
DAV:   3    -0.122090298995E+04   -0.25764E+03   -0.25522E+03  2880   0.850E+01
DAV:   4    -0.122394052186E+04   -0.30375E+01   -0.30270E+01  2880   0.979E+00
DAV:   5    -0.122399108879E+04   -0.50567E-01   -0.50455E-01  2880   0.116E+00
SDA:   6    -0.858769506030E+03    0.36522E+03   -0.50455E-01  2880   0.691E+03 0.000E+00
CGA:   7    -0.967635662674E+03   -0.10887E+03   -0.11211E+03  2880   0.101E+03 0.305E+02
CGA:   8    -0.982944078414E+03   -0.15308E+02   -0.16500E+02  2880   0.637E+02 0.546E+02
CGA:   9    -0.989518196177E+03   -0.65741E+01   -0.77962E+01  2880   0.290E+02-0.655E+01
CGA:  10    -0.990151662356E+03   -0.63347E+00   -0.29637E+01  2880   0.281E+02 0.644E+01
CGA:  11    -0.993867981587E+03   -0.37163E+01   -0.40423E+01  2880   0.168E+02-0.123E+02
CGA:  12    -0.995448189802E+03   -0.15802E+01   -0.27333E+01  2880   0.992E+01-0.640E+01
CGA:  13    -0.996251979501E+03   -0.80379E+00   -0.59418E+00  2880   0.419E+01-0.446E+01
CGA:  14    -0.996689389317E+03   -0.43741E+00   -0.43634E+00  2880   0.165E+01 0.150E+00
CGA:  15    -0.996905880505E+03   -0.21649E+00   -0.23192E+00  2880   0.173E+01 0.373E-01
CGA:  16    -0.997153851637E+03   -0.24797E+00   -0.16941E+00  2880   0.718E+00 0.592E+00
CGA:  17    -0.997238172000E+03   -0.84320E-01   -0.81672E-01  2880   0.606E+00-0.429E-03
CGA:  18    -0.997305659872E+03   -0.67488E-01   -0.52488E-01  2880   0.680E+00 0.479E-01
CGA:  19    -0.997347907985E+03   -0.42248E-01   -0.41468E-01  2880   0.551E+00-0.685E-01
CGA:  20    -0.997365138825E+03   -0.17231E-01   -0.14476E-01  2880   0.429E+00 0.759E-01
CGA:  21    -0.997382910106E+03   -0.17771E-01   -0.15806E-01  2880   0.459E+00 0.721E-01
CGA:  22    -0.997400804616E+03   -0.17895E-01   -0.17931E-01  2880   0.479E+00 0.142E-01
CGA:  23    -0.997410956967E+03   -0.10152E-01   -0.11581E-01  2880   0.324E+00-0.376E-01
CGA:  24    -0.997416106115E+03   -0.51491E-02   -0.58512E-02  2880   0.246E+00-0.270E-01
CGA:  25    -0.997420861254E+03   -0.47551E-02   -0.59933E-02  2880   0.318E+00-0.408E-01
CGA:  26    -0.997427982610E+03   -0.71214E-02   -0.87532E-02  2880   0.462E+00-0.371E-01
CGA:  27    -0.997436591802E+03   -0.86092E-02   -0.11139E-01  2880   0.331E+00-0.940E-01
CGA:  28    -0.997439502912E+03   -0.29111E-02   -0.67758E-02  2880   0.182E+00-0.130E+00
CGA:  29    -0.997441399936E+03   -0.18970E-02   -0.26887E-02  2880   0.151E+00-0.269E-01
CGA:  30    -0.997445772852E+03   -0.43729E-02   -0.51013E-02  2880   0.177E+00-0.107E-01
CGA:  31    -0.997452029626E+03   -0.62568E-02   -0.59723E-02  2880   0.135E+00 0.183E-01
CGA:  32    -0.997455636693E+03   -0.36071E-02   -0.34543E-02  2880   0.624E-01 0.231E-01
CGA:  33    -0.997457339075E+03   -0.17024E-02   -0.18099E-02  2880   0.435E-01 0.592E-02
CGA:  34    -0.997458931968E+03   -0.15929E-02   -0.16604E-02  2880   0.682E-01 0.211E-02
CGA:  35    -0.997461785458E+03   -0.28535E-02   -0.28276E-02  2880   0.122E+00 0.632E-03
CGA:  36    -0.997465423394E+03   -0.36379E-02   -0.32749E-02  2880   0.118E+00 0.500E-02
CGA:  37    -0.997468249372E+03   -0.28260E-02   -0.25954E-02  2880   0.755E-01-0.309E-02
CGA:  38    -0.997470010414E+03   -0.17610E-02   -0.16493E-02  2880   0.621E-01-0.534E-02
SDA:  39    -0.997471666561E+03   -0.16561E-02   -0.15629E-02  2880   0.742E-01-0.204E-02
CGA:  40    -0.997476598754E+03   -0.49322E-02   -0.49816E-02  2880   0.220E-01 0.571E-02
CGA:  41    -0.997479492068E+03   -0.28933E-02   -0.30946E-02  2880   0.143E-01-0.368E-02
CGA:  42    -0.997480893886E+03   -0.14018E-02   -0.13365E-02  2880   0.127E-01 0.207E-02
CGA:  43    -0.997483439050E+03   -0.25452E-02   -0.33425E-02  2880   0.174E-01-0.551E-02
CGA:  44    -0.997483985772E+03   -0.54672E-03   -0.55941E-03  2880   0.101E-01 0.788E-03
CGA:  45    -0.997484586491E+03   -0.60072E-03   -0.61503E-03  2880   0.702E-02 0.972E-03
CGA:  46    -0.997485337658E+03   -0.75117E-03   -0.79145E-03  2880   0.702E-02-0.217E-02
CGA:  47    -0.997485750783E+03   -0.41312E-03   -0.39243E-03  2880   0.758E-02-0.397E-02
CGA:  48    -0.997486277867E+03   -0.52708E-03   -0.54846E-03  2880   0.158E-02 0.170E-02
CGA:  49    -0.997486471536E+03   -0.19367E-03   -0.20129E-03  2880   0.112E-02-0.402E-03
CGA:  50    -0.997486503157E+03   -0.31621E-04   -0.47607E-04  2880   0.971E-03 0.552E-03
CGA:  51    -0.997486610491E+03   -0.10733E-03   -0.11248E-03  2880   0.763E-03 0.730E-03
CGA:  52    -0.997486777128E+03   -0.16664E-03    0.10947E-03  2880   0.891E-03-0.263E-03
CGA:  53    -0.997486884818E+03   -0.10769E-03   -0.89666E-04  2880   0.113E-02 0.326E-03
CGA:  54    -0.997486958313E+03   -0.73495E-04   -0.96757E-04  2880   0.954E-03 0.113E-02
CGA:  55    -0.997487142966E+03   -0.18465E-03    0.35226E-03  2880   0.794E-03-0.135E-03
CGA:  56    -0.997487149690E+03   -0.67241E-05   -0.26813E-04  2880   0.440E-03 0.442E-03
CGA:  57    -0.997487140638E+03    0.90518E-05   -0.10223E-04  2880   0.267E-03 0.319E-03
CGA:  58    -0.997487143277E+03   -0.26384E-05   -0.11397E-04  2880   0.224E-03 0.232E-03
CGA:  59    -0.997487181718E+03   -0.38441E-04    0.10583E-03  2880   0.212E-03 0.223E-03
CGA:  60    -0.997487237819E+03   -0.56101E-04   -0.36885E-04  2880   0.213E-03 0.216E-03
CGA:  61    -0.997487296770E+03   -0.58951E-04    0.13841E-04  2880   0.225E-03 0.165E-03
CGA:  62    -0.997487293807E+03    0.29636E-05   -0.69357E-05  2880   0.181E-03 0.188E-03
CGA:  63    -0.997487349405E+03   -0.55598E-04   -0.36031E-04  2880   0.167E-03 0.179E-03
CGA:  64    -0.997487399614E+03   -0.50209E-04    0.10088E-04  2880   0.174E-03 0.133E-03
CGA:  65    -0.997487395774E+03    0.38400E-05   -0.48566E-05  2880   0.142E-03 0.148E-03
CGA:  66    -0.997487415243E+03   -0.19469E-04   -0.15858E-04  2880   0.132E-03 0.136E-03
CGA:  67    -0.997487451663E+03   -0.36420E-04    0.93237E-05  2880   0.129E-03 0.116E-03
CGA:  68    -0.997487449699E+03    0.19642E-05   -0.41606E-05  2880   0.113E-03 0.116E-03
CGA:  69    -0.997487496612E+03   -0.46913E-04   -0.29961E-04  2880   0.856E-04 0.102E-03
CGA:  70    -0.997487523605E+03   -0.26993E-04    0.55305E-05  2880   0.823E-04 0.732E-04
CGA:  71    -0.997487521031E+03    0.25743E-05   -0.22195E-05  2880   0.715E-04 0.745E-04
   1 F= -.99748752E+03 E0= -.99746846E+03  d E =-.997488E+03  mag=     2.0000
       N       E                     dE             d eps       ncg     rms          ort
SDA:   1    -0.997488398514E+03   -0.87491E-03    0.00000E+00  2880   0.189E-02 0.000E+00
CGA:   2    -0.997488535942E+03   -0.13743E-03   -0.14436E-03  2880   0.105E-02 0.567E-03
CGA:   3    -0.997488758889E+03   -0.22295E-03   -0.31353E-03  2880   0.275E-02-0.644E-03
CGA:   4    -0.997488843537E+03   -0.84647E-04   -0.10982E-03  2880   0.346E-03 0.477E-03
CGA:   5    -0.997488870052E+03   -0.26515E-04   -0.27545E-04  2880   0.108E-03 0.423E-04
CGA:   6    -0.997488595463E+03    0.27459E-03   -0.14894E-03  2880   0.773E-02-0.704E-03
CGA:   7    -0.997488828597E+03   -0.23313E-03   -0.28495E-03  2880   0.454E-03 0.764E-03
CGA:   8    -0.997488875620E+03   -0.47023E-04   -0.45463E-04  2880   0.229E-03-0.269E-04
CGA:   9    -0.997488909112E+03   -0.33492E-04   -0.34023E-04  2880   0.101E-02-0.356E-03
CGA:  10    -0.997488913924E+03   -0.48127E-05   -0.32579E-04  2880   0.880E-04 0.228E-03
   2 F= -.99748891E+03 E0= -.99746927E+03  d E =-.139289E-02  mag=     2.0000
       N       E                     dE             d eps       ncg     rms          ort
SDA:   1    -0.997475370026E+03    0.13539E-01    0.00000E+00  2880   0.884E-01 0.000E+00
CGA:   2    -0.997482741680E+03   -0.73717E-02   -0.72966E-02  2880   0.627E-01-0.539E-02
CGA:   3    -0.997487230884E+03   -0.44892E-02   -0.46585E-02  2880   0.325E-01 0.385E-02
CGA:   4    -0.997492578457E+03   -0.53476E-02   -0.53897E-02  2880   0.108E-01-0.224E-02
CGA:   5    -0.997493115043E+03   -0.53659E-03   -0.61773E-03  2880   0.392E-02 0.131E-02
CGA:   6    -0.997493531561E+03   -0.41652E-03   -0.43323E-03  2880   0.223E-02 0.446E-03
CGA:   7    -0.997493869991E+03   -0.33843E-03   -0.54994E-03  2880   0.833E-02-0.241E-02
CGA:   8    -0.997493981276E+03   -0.11129E-03   -0.28397E-03  2880   0.862E-03 0.180E-02
CGA:   9    -0.997493987037E+03   -0.57609E-05   -0.40156E-04  2880   0.332E-03 0.371E-03
CGA:  10    -0.997494028563E+03   -0.41525E-04   -0.39342E-04  2880   0.338E-03-0.491E-04
CGA:  11    -0.997494060793E+03   -0.32230E-04   -0.28612E-04  2880   0.447E-03-0.139E-03
CGA:  12    -0.997494070133E+03   -0.93404E-05   -0.92975E-05  2880   0.296E-03-0.571E-06
   3 F= -.99749407E+03 E0= -.99747434E+03  d E =-.515621E-02  mag=     2.0000
       N       E                     dE             d eps       ncg     rms          ort
SDA:   1    -0.997457629962E+03    0.36431E-01    0.00000E+00  2880   0.123E+00 0.000E+00
CGA:   2    -0.997471051817E+03   -0.13422E-01   -0.13386E-01  2880   0.172E+00-0.657E-02
CGA:   3    -0.997487215336E+03   -0.16164E-01   -0.16215E-01  2880   0.560E-01 0.484E-02
CGA:   4    -0.997492692679E+03   -0.54773E-02   -0.54119E-02  2880   0.211E-01-0.276E-02
CGA:   5    -0.997493867998E+03   -0.11753E-02   -0.12744E-02  2880   0.876E-02 0.167E-02
CGA:   6    -0.997495170501E+03   -0.13025E-02   -0.12903E-02  2880   0.493E-02 0.466E-03
CGA:   7    -0.997495630770E+03   -0.46027E-03   -0.43576E-03  2880   0.288E-02-0.922E-03
CGA:   8    -0.997495762305E+03   -0.13154E-03   -0.14993E-03  2880   0.102E-02 0.395E-03
CGA:   9    -0.997495863725E+03   -0.10142E-03   -0.99173E-04  2880   0.908E-03-0.108E-03
CGA:  10    -0.997495947044E+03   -0.83319E-04   -0.82406E-04  2880   0.783E-03-0.162E-03
CGA:  11    -0.997495957837E+03   -0.10793E-04   -0.27078E-04  2880   0.396E-03 0.251E-03
CGA:  12    -0.997495973067E+03   -0.15229E-04   -0.22301E-04  2880   0.144E-03 0.117E-03
CGA:  13    -0.997496028075E+03   -0.55009E-04    0.19895E-04  2880   0.280E-03-0.100E-03
CGA:  14    -0.997496022979E+03    0.50961E-05   -0.71487E-05  2880   0.106E-03 0.163E-03
   4 F= -.99749602E+03 E0= -.99747618E+03  d E =-.195285E-02  mag=     2.0000
       N       E                     dE             d eps       ncg     rms          ort
SDA:   1    -0.997490171267E+03    0.58568E-02    0.00000E+00  2880   0.284E-01 0.000E+00
CGA:   2    -0.997492369855E+03   -0.21986E-02   -0.21080E-02  2880   0.206E-01-0.503E-02
CGA:   3    -0.997494252005E+03   -0.18821E-02   -0.18488E-02  2880   0.109E-01 0.201E-02
CGA:   4    -0.997495204985E+03   -0.95298E-03   -0.95717E-03  2880   0.415E-02 0.310E-03
CGA:   5    -0.997495484262E+03   -0.27928E-03   -0.28956E-03  2880   0.125E-02 0.374E-03
CGA:   6    -0.997495692781E+03   -0.20852E-03   -0.25761E-03  2880   0.272E-02-0.503E-03
CGA:   7    -0.997495796345E+03   -0.10356E-03   -0.94694E-04  2880   0.137E-02-0.239E-03
CGA:   8    -0.997495817276E+03   -0.20931E-04   -0.39005E-04  2880   0.491E-03 0.305E-03
CGA:   9    -0.997495814531E+03    0.27450E-05   -0.13831E-04  2880   0.194E-03 0.248E-03
   5 F= -.99749581E+03 E0= -.99747596E+03  d E =0.208448E-03  mag=     2.0000
       N       E                     dE             d eps       ncg     rms          ort
SDA:   1    -0.996917212238E+03    0.57861E+00    0.00000E+00  2880   0.178E+01 0.000E+00
CGA:   2    -0.997108761396E+03   -0.19155E+00   -0.19161E+00  2880   0.239E+01-0.121E-01
CGA:   3    -0.997414394958E+03   -0.30563E+00   -0.30747E+00  2880   0.489E+00-0.298E-01
CGA:   4    -0.997443474341E+03   -0.29079E-01   -0.29957E-01  2880   0.227E+00-0.748E-02
CGA:   5    -0.997474804314E+03   -0.31330E-01   -0.30807E-01  2880   0.943E-01 0.103E-01
CGA:   6    -0.997482380795E+03   -0.75765E-02   -0.74937E-02  2880   0.432E-01-0.951E-02
CGA:   7    -0.997484814452E+03   -0.24337E-02   -0.25628E-02  2880   0.101E-01 0.586E-02
CGA:   8    -0.997486763832E+03   -0.19494E-02   -0.19121E-02  2880   0.104E-01 0.466E-03
CGA:   9    -0.997487681904E+03   -0.91807E-03   -0.88387E-03  2880   0.718E-02-0.347E-02
CGA:  10    -0.997487877522E+03   -0.19562E-03   -0.25309E-03  2880   0.255E-02 0.149E-02
CGA:  11    -0.997487922004E+03   -0.44482E-04   -0.10209E-03  2880   0.101E-02 0.103E-02
CGA:  12    -0.997488016894E+03   -0.94889E-04   -0.10145E-03  2880   0.147E-02 0.429E-03
CGA:  13    -0.997488250059E+03   -0.23316E-03   -0.27280E-03  2880   0.178E-02-0.895E-03
CGA:  14    -0.997488282088E+03   -0.32030E-04   -0.67102E-04  2880   0.472E-03 0.691E-03
CGA:  15    -0.997488313520E+03   -0.31432E-04   -0.36456E-04  2880   0.232E-03 0.165E-03
CGA:  16    -0.997488381335E+03   -0.67815E-04    0.45870E-04  2880   0.245E-03-0.341E-05
CGA:  17    -0.997488406008E+03   -0.24673E-04   -0.28012E-04  2880   0.222E-03-0.104E-03
CGA:  18    -0.997488405488E+03    0.52019E-06   -0.31298E-05  2880   0.177E-03 0.593E-04
   6 F= -.99748841E+03 E0= -.99746853E+03  d E =0.740904E-02  mag=     2.0000
       N       E                     dE             d eps       ncg     rms          ort
SDA:   1    -0.997425315060E+03    0.63091E-01    0.00000E+00  2880   0.210E+00 0.000E+00
CGA:   2    -0.997444232156E+03   -0.18917E-01   -0.18837E-01  2880   0.255E+00 0.116E-01
CGA:   3    -0.997479391603E+03   -0.35159E-01   -0.36128E-01  2880   0.808E-01-0.189E-01
CGA:   4    -0.997484234668E+03   -0.48431E-02   -0.49688E-02  2880   0.262E-01 0.740E-02
CGA:   5    -0.997487891901E+03   -0.36572E-02   -0.36338E-02  2880   0.193E-01 0.609E-03
CGA:   6    -0.997489475792E+03   -0.15839E-02   -0.15903E-02  2880   0.452E-02 0.139E-02
CGA:   7    -0.997489614645E+03   -0.13885E-03   -0.11905E-02  2880   0.283E-01-0.658E-02
CGA:   8    -0.997490350501E+03   -0.73586E-03   -0.98457E-03  2880   0.251E-02 0.432E-02
CGA:   9    -0.997490444434E+03   -0.93933E-04   -0.13044E-03  2880   0.774E-03 0.833E-03
CGA:  10    -0.997490533444E+03   -0.89010E-04   -0.88658E-04  2880   0.950E-03-0.225E-03
CGA:  11    -0.997490559725E+03   -0.26281E-04   -0.33828E-04  2880   0.937E-03 0.202E-03
CGA:  12    -0.997490590342E+03   -0.30617E-04   -0.44976E-04  2880   0.382E-03 0.309E-03
CGA:  13    -0.997490634147E+03   -0.43806E-04   -0.57931E-04  2880   0.737E-03-0.464E-03
CGA:  14    -0.997490688638E+03   -0.54490E-04   -0.53138E-04  2880   0.202E-03-0.108E-03
CGA:  15    -0.997490684415E+03    0.42225E-05   -0.34739E-05  2880   0.108E-03 0.120E-03
   7 F= -.99749068E+03 E0= -.99747083E+03  d E =-.227893E-02  mag=     2.0000
       N       E                     dE             d eps       ncg     rms          ort
SDA:   1    -0.997474707933E+03    0.15981E-01    0.00000E+00  2880   0.417E-01 0.000E+00
CGA:   2    -0.997483979583E+03   -0.92716E-02   -0.10582E-01  2880   0.109E+00-0.726E-02
CGA:   3    -0.997488111557E+03   -0.41320E-02   -0.43879E-02  2880   0.237E-01 0.772E-02
CGA:   4    -0.997489251004E+03   -0.11394E-02   -0.11896E-02  2880   0.101E-01 0.193E-02
CGA:   5    -0.997490199728E+03   -0.94872E-03   -0.97561E-03  2880   0.113E-01-0.452E-02
CGA:   6    -0.997490687312E+03   -0.48758E-03   -0.48382E-03  2880   0.112E-01-0.634E-03
CGA:   7    -0.997490947123E+03   -0.25981E-03   -0.36686E-03  2880   0.314E-02 0.230E-02
CGA:   8    -0.997491002480E+03   -0.55358E-04   -0.11122E-03  2880   0.108E-02 0.110E-02
CGA:   9    -0.997491054215E+03   -0.51734E-04   -0.61497E-04  2880   0.665E-03 0.268E-03
CGA:  10    -0.997491122424E+03   -0.68209E-04   -0.10759E-03  2880   0.203E-02-0.742E-03
CGA:  11    -0.997491180699E+03   -0.58274E-04   -0.83366E-04  2880   0.406E-03 0.651E-03
CGA:  12    -0.997491226199E+03   -0.45501E-04   -0.61584E-04  2880   0.453E-03-0.431E-03
CGA:  13    -0.997491262137E+03   -0.35937E-04   -0.35934E-04  2880   0.612E-04 0.932E-05
CGA:  14    -0.997491259684E+03    0.24530E-05   -0.93856E-06  2880   0.489E-04 0.530E-04
   8 F= -.99749126E+03 E0= -.99747141E+03  d E =-.575269E-03  mag=     2.0000
       N       E                     dE             d eps       ncg     rms          ort
SDA:   1    -0.997468067654E+03    0.23194E-01    0.00000E+00  2880   0.619E-01 0.000E+00
CGA:   2    -0.997478205634E+03   -0.10138E-01   -0.11509E-01  2880   0.172E+00-0.120E-01
CGA:   3    -0.997486732574E+03   -0.85269E-02   -0.86783E-02  2880   0.424E-01 0.973E-02
CGA:   4    -0.997488277686E+03   -0.15451E-02   -0.16771E-02  2880   0.136E-01 0.539E-02
CGA:   5    -0.997489455153E+03   -0.11775E-02   -0.11792E-02  2880   0.116E-01-0.198E-02
CGA:   6    -0.997490243747E+03   -0.78859E-03   -0.81426E-03  2880   0.135E-01-0.413E-02
CGA:   7    -0.997490567329E+03   -0.32358E-03   -0.36851E-03  2880   0.804E-02 0.132E-02
CGA:   8    -0.997490702254E+03   -0.13492E-03   -0.23675E-03  2880   0.222E-02 0.214E-02
CGA:   9    -0.997490745882E+03   -0.43628E-04   -0.79334E-04  2880   0.102E-02 0.808E-03
CGA:  10    -0.997490824868E+03   -0.78986E-04   -0.78572E-04  2880   0.107E-02-0.335E-04
CGA:  11    -0.997490894562E+03   -0.69694E-04   -0.99623E-04  2880   0.226E-02-0.110E-02
CGA:  12    -0.997490969744E+03   -0.75183E-04   -0.97397E-04  2880   0.452E-03 0.794E-03
CGA:  13    -0.997491017340E+03   -0.47595E-04   -0.49776E-04  2880   0.135E-03-0.184E-03
CGA:  14    -0.997491035304E+03   -0.17964E-04    0.46431E-05  2880   0.107E-03 0.502E-04
CGA:  15    -0.997491040965E+03   -0.56612E-05   -0.72773E-05  2880   0.367E-04 0.805E-04
   9 F= -.99749104E+03 E0= -.99747117E+03  d E =0.218718E-03  mag=     2.0000
       N       E                     dE             d eps       ncg     rms          ort
SDA:   1    -0.996055753057E+03    0.14353E+01    0.00000E+00  2880   0.404E+01 0.000E+00
CGA:   2    -0.996607805907E+03   -0.55205E+00   -0.50961E+00  2880   0.455E+01 0.697E+00
CGA:   3    -0.997199662327E+03   -0.59186E+00   -0.64851E+00  2880   0.347E+01-0.911E+00
CGA:   4    -0.997357268254E+03   -0.15761E+00   -0.15811E+00  2880   0.557E+00-0.448E-01
CGA:   5    -0.997401901295E+03   -0.44633E-01   -0.44735E-01  2880   0.383E+00-0.149E-01
CGA:   6    -0.997441136143E+03   -0.39235E-01   -0.38773E-01  2880   0.221E+00 0.156E-01
CGA:   7    -0.997453530798E+03   -0.12395E-01   -0.12417E-01  2880   0.611E-01-0.872E-02
CGA:   8    -0.997458981423E+03   -0.54506E-02   -0.54660E-02  2880   0.288E-01-0.872E-03
CGA:   9    -0.997461210141E+03   -0.22287E-02   -0.22077E-02  2880   0.168E-01 0.552E-02
CGA:  10    -0.997463418977E+03   -0.22088E-02   -0.24687E-02  2880   0.209E-01-0.542E-02
CGA:  11    -0.997464038443E+03   -0.61947E-03   -0.65726E-03  2880   0.750E-02 0.127E-02
CGA:  12    -0.997464222134E+03   -0.18369E-03   -0.25990E-03  2880   0.350E-02 0.181E-02
CGA:  13    -0.997464431057E+03   -0.20892E-03   -0.23093E-03  2880   0.306E-02 0.112E-02
CGA:  14    -0.997464712531E+03   -0.28147E-03   -0.27988E-03  2880   0.281E-02-0.690E-03
CGA:  15    -0.997464861884E+03   -0.14935E-03   -0.14913E-03  2880   0.351E-02-0.820E-04
CGA:  16    -0.997465000996E+03   -0.13911E-03   -0.15407E-03  2880   0.192E-02 0.561E-03
CGA:  17    -0.997465105126E+03   -0.10413E-03   -0.10269E-03  2880   0.654E-03-0.766E-04
CGA:  18    -0.997465204329E+03   -0.99203E-04    0.14888E-03  2880   0.727E-03-0.188E-03
CGA:  19    -0.997465247587E+03   -0.43257E-04   -0.64596E-04  2880   0.117E-02-0.383E-03
CGA:  20    -0.997465253514E+03   -0.59272E-05   -0.32290E-04  2880   0.390E-03 0.594E-03
CGA:  21    -0.997465265627E+03   -0.12114E-04   -0.17610E-04  2880   0.155E-03 0.225E-03
CGA:  22    -0.997465283993E+03   -0.18365E-04   -0.16285E-04  2880   0.629E-04 0.571E-04
CGA:  23    -0.997465281983E+03    0.20092E-05   -0.17621E-05  2880   0.528E-04 0.759E-04
  10 F= -.99746528E+03 E0= -.99744530E+03  d E =0.257590E-01  mag=     2.0000
       N       E                     dE             d eps       ncg     rms          ort
SDA:   1    -0.996955375928E+03    0.50991E+00    0.00000E+00  2880   0.132E+01 0.000E+00
CGA:   2    -0.997206009634E+03   -0.25063E+00   -0.27100E+00  2880   0.413E+01-0.188E+00
CGA:   3    -0.997405716220E+03   -0.19971E+00   -0.20114E+00  2880   0.509E+00-0.151E-01
CGA:   4    -0.997439716781E+03   -0.34001E-01   -0.34146E-01  2880   0.318E+00 0.506E-02
CGA:   5    -0.997460913615E+03   -0.21197E-01   -0.21257E-01  2880   0.146E+00 0.162E-01
CGA:   6    -0.997474210834E+03   -0.13297E-01   -0.13416E-01  2880   0.131E+00-0.347E-02
CGA:   7    -0.997482034405E+03   -0.78236E-02   -0.76937E-02  2880   0.304E-01-0.123E-01
CGA:   8    -0.997483537830E+03   -0.15034E-02   -0.15389E-02  2880   0.156E-01 0.169E-02
CGA:   9    -0.997484686799E+03   -0.11490E-02   -0.11520E-02  2880   0.947E-02 0.360E-02
CGA:  10    -0.997485794589E+03   -0.11078E-02   -0.11589E-02  2880   0.117E-01-0.182E-02
CGA:  11    -0.997486325766E+03   -0.53118E-03   -0.52189E-03  2880   0.415E-02-0.632E-03
CGA:  12    -0.997486451970E+03   -0.12620E-03   -0.14140E-03  2880   0.194E-02 0.431E-03
CGA:  13    -0.997486591360E+03   -0.13939E-03   -0.14024E-03  2880   0.192E-02 0.211E-03
CGA:  14    -0.997486742412E+03   -0.15105E-03   -0.15208E-03  2880   0.190E-02-0.471E-03
CGA:  15    -0.997486828758E+03   -0.86345E-04   -0.88121E-04  2880   0.192E-02 0.223E-03
CGA:  16    -0.997486898907E+03   -0.70149E-04   -0.83650E-04  2880   0.531E-03 0.447E-03
CGA:  17    -0.997486935344E+03   -0.36437E-04   -0.34782E-04  2880   0.258E-03-0.118E-03
CGA:  18    -0.997486970222E+03   -0.34877E-04    0.21920E-04  2880   0.276E-03 0.190E-04
CGA:  19    -0.997486988132E+03   -0.17910E-04   -0.18437E-04  2880   0.225E-03 0.115E-03
CGA:  20    -0.997486989328E+03   -0.11959E-05   -0.88949E-05  2880   0.104E-03 0.199E-03
  11 F= -.99748699E+03 E0= -.99746708E+03  d E =-.217073E-01  mag=     2.0000
       N       E                     dE             d eps       ncg     rms          ort
SDA:   1    -0.997415350508E+03    0.71638E-01    0.00000E+00  2880   0.232E+00 0.000E+00
CGA:   2    -0.997435789718E+03   -0.20439E-01   -0.20153E-01  2880   0.287E+00 0.150E-01
CGA:   3    -0.997479174629E+03   -0.43385E-01   -0.44567E-01  2880   0.753E-01-0.153E-01
CGA:   4    -0.997483360738E+03   -0.41861E-02   -0.42665E-02  2880   0.248E-01 0.753E-02
CGA:   5    -0.997486996318E+03   -0.36356E-02   -0.38888E-02  2880   0.203E-01-0.360E-02
CGA:   6    -0.997488351509E+03   -0.13552E-02   -0.13463E-02  2880   0.583E-02 0.229E-02
CGA:   7    -0.997488819303E+03   -0.46779E-03   -0.46736E-03  2880   0.171E-02-0.252E-03
CGA:   8    -0.997489095292E+03   -0.27599E-03   -0.36757E-03  2880   0.271E-02-0.608E-03
CGA:   9    -0.997489211040E+03   -0.11575E-03   -0.11339E-03  2880   0.909E-03-0.147E-03
CGA:  10    -0.997489226763E+03   -0.15723E-04   -0.30502E-04  2880   0.416E-03 0.328E-03
CGA:  11    -0.997489233207E+03   -0.64437E-05   -0.19187E-04  2880   0.275E-03 0.286E-03
CGA:  12    -0.997489279055E+03   -0.45848E-04    0.10897E-03  2880   0.160E-03 0.188E-03
CGA:  13    -0.997489288703E+03   -0.96474E-05   -0.10730E-04  2880   0.106E-03 0.120E-03
CGA:  14    -0.997489308252E+03   -0.19549E-04    0.18375E-04  2880   0.727E-04 0.820E-04
CGA:  15    -0.997489309807E+03   -0.15553E-05   -0.33895E-05  2880   0.577E-04 0.630E-04
CGA:  16    -0.997489319163E+03   -0.93560E-05    0.23544E-04  2880   0.429E-04 0.491E-04
  12 F= -.99748932E+03 E0= -.99746941E+03  d E =-.232984E-02  mag=     2.0000
       N       E                     dE             d eps       ncg     rms          ort
SDA:   1    -0.997484365517E+03    0.49443E-02    0.00000E+00  2880   0.145E-01 0.000E+00
CGA:   2    -0.997486278207E+03   -0.19127E-02   -0.26937E-02  2880   0.508E-01-0.690E-02
CGA:   3    -0.997487561293E+03   -0.12831E-02   -0.13286E-02  2880   0.373E-01 0.154E-02
CGA:   4    -0.997488386690E+03   -0.82540E-03   -0.99105E-03  2880   0.629E-02 0.516E-02
CGA:   5    -0.997488516454E+03   -0.12976E-03   -0.19284E-03  2880   0.266E-02 0.139E-02
CGA:   6    -0.997488676433E+03   -0.15998E-03   -0.16950E-03  2880   0.328E-02 0.450E-03
CGA:   7    -0.997488952795E+03   -0.27636E-03   -0.27645E-03  2880   0.331E-02-0.934E-03
CGA:   8    -0.997489044233E+03   -0.91438E-04   -0.78658E-04  2880   0.203E-02-0.336E-03
CGA:   9    -0.997489092877E+03   -0.48645E-04   -0.52576E-04  2880   0.113E-02 0.891E-04
CGA:  10    -0.997489119465E+03   -0.26588E-04   -0.33713E-04  2880   0.607E-03 0.170E-03
CGA:  11    -0.997489140005E+03   -0.20540E-04   -0.22337E-04  2880   0.337E-03 0.497E-04
CGA:  12    -0.997489163338E+03   -0.23333E-04   -0.23279E-04  2880   0.584E-03-0.141E-03
CGA:  13    -0.997489177731E+03   -0.14394E-04   -0.12388E-04  2880   0.813E-03-0.727E-04
CGA:  14    -0.997489196655E+03   -0.18923E-04   -0.20224E-04  2880   0.464E-03 0.372E-04
CGA:  15    -0.997489204215E+03   -0.75606E-05   -0.10291E-04  2880   0.178E-03 0.663E-04
  13 F= -.99748920E+03 E0= -.99746931E+03  d E =0.114948E-03  mag=     2.0000
       N       E                     dE             d eps       ncg     rms          ort
SDA:   1    -0.997408896611E+03    0.80300E-01    0.00000E+00  2880   0.228E+00 0.000E+00
CGA:   2    -0.997438820437E+03   -0.29924E-01   -0.32021E-01  2880   0.424E+00-0.271E-01
CGA:   3    -0.997477069192E+03   -0.38249E-01   -0.37669E-01  2880   0.725E-01 0.142E-01
CGA:   4    -0.997481124139E+03   -0.40549E-02   -0.40915E-02  2880   0.283E-01 0.250E-02
CGA:   5    -0.997485109607E+03   -0.39855E-02   -0.38772E-02  2880   0.151E-01 0.151E-02
CGA:   6    -0.997486551614E+03   -0.14420E-02   -0.14985E-02  2880   0.801E-02-0.207E-02
CGA:   7    -0.997486979180E+03   -0.42757E-03   -0.42555E-03  2880   0.213E-02-0.356E-03
CGA:   8    -0.997487090693E+03   -0.11151E-03   -0.12018E-03  2880   0.131E-02 0.103E-02
CGA:   9    -0.997487250742E+03   -0.16005E-03   -0.15490E-03  2880   0.587E-03 0.406E-03
CGA:  10    -0.997487375954E+03   -0.12521E-03    0.12993E-03  2880   0.302E-03 0.286E-03
CGA:  11    -0.997487415306E+03   -0.39352E-04   -0.38233E-04  2880   0.164E-03 0.645E-04
CGA:  12    -0.997487431441E+03   -0.16135E-04   -0.15335E-04  2880   0.101E-03 0.943E-04
CGA:  13    -0.997487449536E+03   -0.18095E-04    0.11535E-04  2880   0.567E-04 0.344E-04
CGA:  14    -0.997487448484E+03    0.10524E-05   -0.18677E-05  2880   0.455E-04 0.656E-04
  14 F= -.99748745E+03 E0= -.99746758E+03  d E =0.175573E-02  mag=     2.0000
       N       E                     dE             d eps       ncg     rms          ort
SDA:   1    -0.997401197554E+03    0.86252E-01    0.00000E+00  2880   0.269E+00 0.000E+00
CGA:   2    -0.997425550523E+03   -0.24353E-01   -0.24113E-01  2880   0.331E+00 0.109E-01
CGA:   3    -0.997472973371E+03   -0.47423E-01   -0.48733E-01  2880   0.113E+00-0.176E-01
CGA:   4    -0.997478006753E+03   -0.50334E-02   -0.52628E-02  2880   0.260E-01 0.112E-01
CGA:   5    -0.997482023030E+03   -0.40163E-02   -0.38108E-02  2880   0.218E-01 0.316E-02
CGA:   6    -0.997484388528E+03   -0.23655E-02   -0.26674E-02  2880   0.171E-01-0.820E-02
CGA:   7    -0.997484647575E+03   -0.25905E-03   -0.34702E-03  2880   0.626E-02 0.221E-02
CGA:   8    -0.997484726089E+03   -0.78514E-04   -0.17901E-03  2880   0.279E-02 0.218E-02
CGA:   9    -0.997484815739E+03   -0.89650E-04   -0.13721E-03  2880   0.260E-02 0.146E-02
CGA:  10    -0.997481210474E+03    0.36053E-02   -0.20302E-02  2880   0.135E+00-0.128E-01
CGA:  11    -0.997485191126E+03   -0.39807E-02   -0.43118E-02  2880   0.391E-02 0.170E-01
CGA:  12    -0.997485267002E+03   -0.75876E-04   -0.14367E-03  2880   0.614E-03 0.881E-03
CGA:  13    -0.997485341493E+03   -0.74491E-04   -0.68021E-04  2880   0.101E-02-0.271E-03
CGA:  14    -0.997485384865E+03   -0.43372E-04   -0.83042E-04  2880   0.261E-02-0.118E-02
CGA:  15    -0.997485438233E+03   -0.53368E-04   -0.10665E-03  2880   0.441E-03 0.709E-03
CGA:  16    -0.997485452150E+03   -0.13917E-04   -0.26457E-04  2880   0.166E-03 0.196E-03
CGA:  17    -0.997485461216E+03   -0.90660E-05   -0.13444E-04  2880   0.944E-04 0.848E-04
  15 F= -.99748546E+03 E0= -.99746565E+03  d E =0.198727E-02  mag=     2.0000
       N       E                     dE             d eps       ncg     rms          ort
SDA:   1    -0.997452626834E+03    0.32825E-01    0.00000E+00  2880   0.137E+00 0.000E+00
CGA:   2    -0.997462787205E+03   -0.10160E-01   -0.10138E-01  2880   0.115E+00-0.255E-02
CGA:   3    -0.997478989353E+03   -0.16202E-01   -0.16014E-01  2880   0.584E-01 0.455E-02
CGA:   4    -0.997484424968E+03   -0.54356E-02   -0.53448E-02  2880   0.265E-01-0.753E-02
CGA:   5    -0.997485543141E+03   -0.11182E-02   -0.12665E-02  2880   0.781E-02 0.334E-02
CGA:   6    -0.997486266515E+03   -0.72337E-03   -0.74771E-03  2880   0.398E-02 0.170E-02
CGA:   7    -0.997486783673E+03   -0.51716E-03   -0.55249E-03  2880   0.816E-02-0.243E-02
CGA:   8    -0.997486947111E+03   -0.16344E-03   -0.26200E-03  2880   0.823E-03 0.162E-02
CGA:   9    -0.997487000195E+03   -0.53084E-04   -0.57707E-04  2880   0.618E-03 0.128E-03
CGA:  10    -0.997487166381E+03   -0.16619E-03    0.14500E-03  2880   0.706E-03 0.166E-05
CGA:  11    -0.997487250722E+03   -0.84342E-04   -0.10608E-03  2880   0.134E-02-0.393E-03
CGA:  12    -0.997487253273E+03   -0.25508E-05   -0.38799E-04  2880   0.308E-03 0.530E-03
CGA:  13    -0.997487248403E+03    0.48706E-05   -0.11031E-04  2880   0.175E-03 0.233E-03
CGA:  14    -0.997487272503E+03   -0.24101E-04   -0.43994E-04  2880   0.438E-03-0.123E-03
CGA:  15    -0.997487264284E+03    0.82198E-05   -0.92832E-05  2880   0.132E-03 0.227E-03
  16 F= -.99748726E+03 E0= -.99746747E+03  d E =-.180307E-02  mag=     2.0000
       N       E                     dE             d eps       ncg     rms          ort
SDA:   1    -0.997477379349E+03    0.98932E-02    0.00000E+00  2880   0.308E-01 0.000E+00
CGA:   2    -0.997481345277E+03   -0.39659E-02   -0.41550E-02  2880   0.617E-01-0.458E-02
CGA:   3    -0.997484842516E+03   -0.34972E-02   -0.36384E-02  2880   0.177E-01 0.574E-02
CGA:   4    -0.997485823858E+03   -0.98134E-03   -0.10478E-02  2880   0.908E-02 0.186E-02
CGA:   5    -0.997486721643E+03   -0.89778E-03   -0.89372E-03  2880   0.616E-02-0.369E-02
CGA:   6    -0.997487024665E+03   -0.30302E-03   -0.30503E-03  2880   0.371E-02 0.298E-03
CGA:   7    -0.997487135295E+03   -0.11063E-03   -0.16376E-03  2880   0.111E-02 0.113E-02
CGA:   8    -0.997487199913E+03   -0.64618E-04   -0.74548E-04  2880   0.427E-03 0.277E-03
CGA:   9    -0.997487251683E+03   -0.51770E-04   -0.78158E-04  2880   0.118E-02-0.432E-03
CGA:  10    -0.997487260929E+03   -0.92460E-05   -0.36091E-04  2880   0.276E-03 0.462E-03
CGA:  11    -0.997487268219E+03   -0.72892E-05   -0.13888E-04  2880   0.114E-03 0.132E-03
CGA:  12    -0.997487302930E+03   -0.34712E-04    0.28758E-04  2880   0.108E-03-0.689E-04
CGA:  13    -0.997487304193E+03   -0.12631E-05   -0.41178E-05  2880   0.437E-04 0.633E-04
CGA:  14    -0.997487279356E+03    0.24838E-04   -0.14358E-04  2880   0.686E-03-0.109E-03
CGA:  15    -0.997487310040E+03   -0.30685E-04   -0.42200E-04  2880   0.446E-04 0.128E-03
CGA:  16    -0.997487338203E+03   -0.28162E-04    0.44387E-05  2880   0.134E-03-0.732E-04
CGA:  17    -0.997487330475E+03    0.77282E-05   -0.23842E-05  2880   0.511E-04 0.803E-04
  17 F= -.99748733E+03 E0= -.99746750E+03  d E =-.661911E-04  mag=     2.0000
       N       E                     dE             d eps       ncg     rms          ort
SDA:   1    -0.997473695449E+03    0.13643E-01    0.00000E+00  2880   0.510E-01 0.000E+00
CGA:   2    -0.997477664676E+03   -0.39692E-02   -0.37963E-02  2880   0.509E-01-0.392E-02
CGA:   3    -0.997484543691E+03   -0.68790E-02   -0.68259E-02  2880   0.169E-01 0.315E-02
CGA:   4    -0.997486020532E+03   -0.14768E-02   -0.14136E-02  2880   0.823E-02-0.148E-02
CGA:   5    -0.997486504649E+03   -0.48412E-03   -0.51243E-03  2880   0.272E-02 0.434E-03
CGA:   6    -0.997486741921E+03   -0.23727E-03   -0.26103E-03  2880   0.134E-02 0.738E-03
CGA:   7    -0.997486945161E+03   -0.20324E-03   -0.19561E-03  2880   0.260E-02-0.109E-02
CGA:   8    -0.997486977985E+03   -0.32825E-04   -0.83921E-04  2880   0.268E-03 0.590E-03
CGA:   9    -0.997486983699E+03   -0.57132E-05   -0.13492E-04  2880   0.137E-03 0.102E-03
CGA:  10    -0.997486955720E+03    0.27979E-04   -0.58046E-04  2880   0.186E-02-0.447E-03
CGA:  11    -0.997487022372E+03   -0.66652E-04   -0.97637E-04  2880   0.196E-03 0.435E-03
CGA:  12    -0.997487042946E+03   -0.20574E-04   -0.39553E-04  2880   0.840E-03-0.430E-03
CGA:  13    -0.997487041896E+03    0.10499E-05   -0.27011E-04  2880   0.176E-03 0.313E-03
  18 F= -.99748704E+03 E0= -.99746721E+03  d E =0.288579E-03  mag=     2.0000
       N       E                     dE             d eps       ncg     rms          ort
SDA:   1    -0.997452702470E+03    0.34340E-01    0.00000E+00  2880   0.864E-01 0.000E+00
CGA:   2    -0.997473321883E+03   -0.20619E-01   -0.20785E-01  2880   0.122E+00-0.144E-02
CGA:   3    -0.997481936610E+03   -0.86147E-02   -0.88678E-02  2880   0.374E-01 0.352E-02
CGA:   4    -0.997484997111E+03   -0.30605E-02   -0.30286E-02  2880   0.899E-02-0.107E-02
CGA:   5    -0.997485722581E+03   -0.72547E-03   -0.75562E-03  2880   0.711E-02 0.106E-02
CGA:   6    -0.997486732079E+03   -0.10095E-02   -0.10385E-02  2880   0.288E-02-0.177E-02
CGA:   7    -0.997486751900E+03   -0.19821E-04   -0.83083E-04  2880   0.102E-02 0.825E-03
CGA:   8    -0.997486774486E+03   -0.22587E-04   -0.56219E-04  2880   0.610E-03 0.492E-03
CGA:   9    -0.997486868077E+03   -0.93591E-04   -0.92099E-04  2880   0.726E-03-0.259E-03
CGA:  10    -0.997486895643E+03   -0.27566E-04   -0.23982E-04  2880   0.766E-03-0.725E-04
CGA:  11    -0.997486911780E+03   -0.16136E-04   -0.24469E-04  2880   0.357E-03 0.119E-03
CGA:  12    -0.997486921538E+03   -0.97584E-05   -0.14481E-04  2880   0.152E-03 0.679E-04
CGA:  13    -0.997486936829E+03   -0.15291E-04   -0.23326E-04  2880   0.493E-03-0.265E-03
CGA:  14    -0.997486957071E+03   -0.20242E-04   -0.26643E-04  2880   0.807E-04 0.140E-03
CGA:  15    -0.997486962065E+03   -0.49938E-05   -0.61264E-05  2880   0.248E-04 0.295E-04
CGA:  16    -0.997486932316E+03    0.29750E-04   -0.16744E-04  2880   0.735E-03-0.102E-03
CGA:  17    -0.997486962180E+03   -0.29864E-04   -0.38716E-04  2880   0.873E-04 0.692E-04
CGA:  18    -0.997486974257E+03   -0.12077E-04   -0.10537E-04  2880   0.396E-04-0.278E-04
CGA:  19    -0.997486980260E+03   -0.60035E-05   -0.60418E-05  2880   0.159E-04-0.650E-06
  19 F= -.99748698E+03 E0= -.99746717E+03  d E =0.616353E-04  mag=     2.0000
       N       E                     dE             d eps       ncg     rms          ort
SDA:   1    -0.997014530194E+03    0.47244E+00    0.00000E+00  2880   0.152E+01 0.000E+00
CGA:   2    -0.997137869090E+03   -0.12334E+00   -0.11950E+00  2880   0.177E+01 0.340E-01
CGA:   3    -0.997425135784E+03   -0.28727E+00   -0.28727E+00  2880   0.291E+00-0.647E-02
CGA:   4    -0.997448270212E+03   -0.23134E-01   -0.24108E-01  2880   0.213E+00-0.160E-01
CGA:   5    -0.997472482014E+03   -0.24212E-01   -0.24067E-01  2880   0.508E-01 0.270E-02
CGA:   6    -0.997476224456E+03   -0.37424E-02   -0.36571E-02  2880   0.227E-01-0.226E-02
CGA:   7    -0.997478055808E+03   -0.18314E-02   -0.19634E-02  2880   0.129E-01 0.243E-02
CGA:   8    -0.997479800368E+03   -0.17446E-02   -0.16853E-02  2880   0.914E-02-0.231E-02
CGA:   9    -0.997480173890E+03   -0.37352E-03   -0.42987E-03  2880   0.235E-02 0.639E-03
CGA:  10    -0.997480303481E+03   -0.12959E-03   -0.17311E-03  2880   0.131E-02 0.637E-03
CGA:  11    -0.997480483054E+03   -0.17957E-03   -0.17427E-03  2880   0.206E-02-0.181E-03
CGA:  12    -0.997480626551E+03   -0.14350E-03   -0.14868E-03  2880   0.129E-02 0.103E-03
CGA:  13    -0.997480670175E+03   -0.43624E-04   -0.52593E-04  2880   0.381E-03 0.882E-04
CGA:  14    -0.997480709217E+03   -0.39042E-04   -0.85413E-04  2880   0.233E-02-0.558E-03
CGA:  15    -0.997480793181E+03   -0.83964E-04   -0.10368E-03  2880   0.184E-03 0.220E-03
CGA:  16    -0.997480794032E+03   -0.85089E-06   -0.89235E-05  2880   0.776E-04 0.982E-04
  20 F= -.99748079E+03 E0= -.99746097E+03  d E =0.618623E-02  mag=     2.0000
       N       E                     dE             d eps       ncg     rms          ort
SDA:   1    -0.997187906049E+03    0.29289E+00    0.00000E+00  2880   0.151E+01 0.000E+00
CGA:   2    -0.997266564831E+03   -0.78659E-01   -0.89384E-01  2880   0.960E+00-0.159E+00
CGA:   3    -0.997442807817E+03   -0.17624E+00   -0.17580E+00  2880   0.374E+00 0.538E-02
CGA:   4    -0.997463660054E+03   -0.20852E-01   -0.20692E-01  2880   0.110E+00-0.127E-01
CGA:   5    -0.997475120541E+03   -0.11460E-01   -0.11515E-01  2880   0.583E-01 0.584E-02
CGA:   6    -0.997482854644E+03   -0.77341E-02   -0.77776E-02  2880   0.294E-01-0.576E-02
CGA:   7    -0.997483941205E+03   -0.10866E-02   -0.13378E-02  2880   0.686E-02 0.389E-02
CGA:   8    -0.997484685829E+03   -0.74462E-03   -0.75944E-03  2880   0.443E-02 0.936E-03
CGA:   9    -0.997485409000E+03   -0.72317E-03   -0.98978E-03  2880   0.171E-01-0.328E-02
CGA:  10    -0.997485750762E+03   -0.34176E-03   -0.52376E-03  2880   0.838E-03 0.227E-02
CGA:  11    -0.997485769009E+03   -0.18247E-04   -0.41831E-04  2880   0.546E-03 0.336E-03
CGA:  12    -0.997485888478E+03   -0.11947E-03   -0.16013E-03  2880   0.202E-02-0.412E-03
CGA:  13    -0.997485986131E+03   -0.97653E-04   -0.10399E-03  2880   0.206E-03 0.965E-04
CGA:  14    -0.997485992544E+03   -0.64132E-05   -0.12418E-04  2880   0.112E-03 0.110E-03
CGA:  15    -0.997486018553E+03   -0.26009E-04    0.96150E-04  2880   0.860E-04 0.734E-04
CGA:  16    -0.997486030831E+03   -0.12277E-04   -0.11315E-04  2880   0.959E-04 0.433E-04
CGA:  17    -0.997486009776E+03    0.21054E-04   -0.32919E-04  2880   0.202E-02-0.233E-03
CGA:  18    -0.997486066975E+03   -0.57199E-04   -0.74193E-04  2880   0.794E-04 0.202E-03
CGA:  19    -0.997486071439E+03   -0.44635E-05   -0.16144E-04  2880   0.641E-03-0.175E-03
CGA:  20    -0.997486076444E+03   -0.50048E-05   -0.21127E-04  2880   0.722E-04 0.184E-03
  21 F= -.99748608E+03 E0= -.99746618E+03  d E =-.528241E-02  mag=     2.0000
       N       E                     dE             d eps       ncg     rms          ort
SDA:   1    -0.996872996111E+03    0.61308E+00    0.00000E+00  2880   0.187E+01 0.000E+00
CGA:   2    -0.997055836475E+03   -0.18284E+00   -0.18023E+00  2880   0.279E+01-0.468E-01
CGA:   3    -0.997377597654E+03   -0.32176E+00   -0.32159E+00  2880   0.650E+00 0.998E-03
CGA:   4    -0.997430021266E+03   -0.52424E-01   -0.52350E-01  2880   0.331E+00 0.920E-02
CGA:   5    -0.997450766957E+03   -0.20746E-01   -0.20812E-01  2880   0.137E+00 0.318E-04
CGA:   6    -0.997469460620E+03   -0.18694E-01   -0.18877E-01  2880   0.117E+00-0.759E-02
CGA:   7    -0.997474228225E+03   -0.47676E-02   -0.49042E-02  2880   0.157E-01 0.101E-01
CGA:   8    -0.997475180949E+03   -0.95272E-03   -0.10906E-02  2880   0.138E-01 0.346E-02
CGA:   9    -0.997476984669E+03   -0.18037E-02   -0.18046E-02  2880   0.109E-01-0.309E-03
CGA:  10    -0.997477908882E+03   -0.92421E-03   -0.89011E-03  2880   0.573E-02-0.177E-02
CGA:  11    -0.997478123429E+03   -0.21455E-03   -0.24006E-03  2880   0.232E-02 0.578E-03
CGA:  12    -0.997478283040E+03   -0.15961E-03   -0.17057E-03  2880   0.213E-02 0.328E-03
CGA:  13    -0.997478567711E+03   -0.28467E-03   -0.30344E-03  2880   0.291E-02-0.731E-03
CGA:  14    -0.997478636480E+03   -0.68769E-04   -0.75953E-04  2880   0.170E-02 0.117E-03
CGA:  15    -0.997478679408E+03   -0.42928E-04   -0.61324E-04  2880   0.867E-03 0.285E-03
CGA:  16    -0.997478724143E+03   -0.44735E-04   -0.49655E-04  2880   0.641E-03 0.110E-03
CGA:  17    -0.997478773403E+03   -0.49260E-04   -0.45614E-04  2880   0.563E-03-0.127E-03
CGA:  18    -0.997478784463E+03   -0.11061E-04   -0.17216E-04  2880   0.480E-03 0.117E-03
CGA:  19    -0.997478788373E+03   -0.39091E-05   -0.17410E-04  2880   0.255E-03 0.232E-03
CGA:  20    -0.997478791967E+03   -0.35944E-05   -0.11491E-04  2880   0.145E-03 0.144E-03
  22 F= -.99747879E+03 E0= -.99745908E+03  d E =0.728448E-02  mag=     2.0000
       N       E                     dE             d eps       ncg     rms          ort
SDA:   1    -0.997261821672E+03    0.21697E+00    0.00000E+00  2880   0.753E+00 0.000E+00
CGA:   2    -0.997328707622E+03   -0.66886E-01   -0.66698E-01  2880   0.872E+00 0.568E-02
CGA:   3    -0.997446049689E+03   -0.11734E+00   -0.11697E+00  2880   0.266E+00 0.857E-02
CGA:   4    -0.997468160508E+03   -0.22111E-01   -0.22126E-01  2880   0.104E+00-0.604E-02
CGA:   5    -0.997475097014E+03   -0.69365E-02   -0.70521E-02  2880   0.412E-01 0.920E-02
CGA:   6    -0.997482816839E+03   -0.77198E-02   -0.82794E-02  2880   0.161E-01-0.564E-02
CGA:   7    -0.997483495386E+03   -0.67855E-03   -0.76189E-03  2880   0.579E-02 0.248E-02
CGA:   8    -0.997484210667E+03   -0.71528E-03   -0.71743E-03  2880   0.400E-02-0.114E-03
CGA:   9    -0.997484753518E+03   -0.54285E-03   -0.63705E-03  2880   0.421E-02-0.128E-02
CGA:  10    -0.997484818357E+03   -0.64839E-04   -0.10184E-03  2880   0.167E-02 0.650E-03
CGA:  11    -0.997484857050E+03   -0.38693E-04   -0.66001E-04  2880   0.846E-03 0.489E-03
CGA:  12    -0.997484925617E+03   -0.68567E-04   -0.70533E-04  2880   0.904E-03 0.850E-04
CGA:  13    -0.997485010009E+03   -0.84392E-04   -0.84159E-04  2880   0.130E-02-0.250E-03
CGA:  14    -0.997485036888E+03   -0.26879E-04   -0.32005E-04  2880   0.971E-03 0.984E-04
CGA:  15    -0.997485057954E+03   -0.21066E-04   -0.29462E-04  2880   0.386E-03 0.151E-03
CGA:  16    -0.997485083069E+03   -0.25115E-04   -0.20734E-04  2880   0.245E-03-0.133E-03
CGA:  17    -0.997485132567E+03   -0.49498E-04    0.65159E-05  2880   0.469E-03-0.147E-03
CGA:  18    -0.997485132997E+03   -0.42968E-06   -0.13815E-04  2880   0.176E-03 0.273E-03
  23 F= -.99748513E+03 E0= -.99746531E+03  d E =-.634103E-02  mag=     2.0000
       N       E                     dE             d eps       ncg     rms          ort
SDA:   1    -0.997305993570E+03    0.17914E+00    0.00000E+00  2880   0.603E+00 0.000E+00
CGA:   2    -0.997359045860E+03   -0.53052E-01   -0.52949E-01  2880   0.720E+00-0.800E-02
CGA:   3    -0.997453651134E+03   -0.94605E-01   -0.94134E-01  2880   0.198E+00 0.851E-02
CGA:   4    -0.997469117077E+03   -0.15466E-01   -0.15466E-01  2880   0.759E-01-0.316E-02
CGA:   5    -0.997476315680E+03   -0.71986E-02   -0.71683E-02  2880   0.364E-01 0.185E-02
CGA:   6    -0.997481501379E+03   -0.51857E-02   -0.56535E-02  2880   0.258E-01-0.649E-02
CGA:   7    -0.997482082294E+03   -0.58092E-03   -0.76676E-03  2880   0.530E-02 0.419E-02
CGA:   8    -0.997482271404E+03   -0.18911E-03   -0.26065E-03  2880   0.381E-02 0.192E-02
CGA:   9    -0.997482806393E+03   -0.53499E-03   -0.54787E-03  2880   0.406E-02-0.479E-03
CGA:  10    -0.997483092074E+03   -0.28568E-03   -0.34500E-03  2880   0.661E-02-0.332E-02
CGA:  11    -0.997483214802E+03   -0.12273E-03   -0.21821E-03  2880   0.132E-02 0.204E-02
CGA:  12    -0.997483261030E+03   -0.46228E-04   -0.71423E-04  2880   0.694E-03 0.692E-03
CGA:  13    -0.997483390873E+03   -0.12984E-03    0.11415E-03  2880   0.593E-03 0.322E-04
CGA:  14    -0.997483407359E+03   -0.16486E-04   -0.28494E-04  2880   0.272E-03 0.399E-03
CGA:  15    -0.997483401397E+03    0.59620E-05   -0.51760E-05  2880   0.170E-03 0.201E-03
  24 F= -.99748340E+03 E0= -.99746346E+03  d E =0.173160E-02  mag=     2.0000
       N       E                     dE             d eps       ncg     rms          ort
SDA:   1    -0.997452503594E+03    0.30904E-01    0.00000E+00  2880   0.138E+00 0.000E+00
CGA:   2    -0.997460951600E+03   -0.84480E-02   -0.84883E-02  2880   0.932E-01 0.683E-02
CGA:   3    -0.997477165279E+03   -0.16214E-01   -0.17285E-01  2880   0.713E-01-0.996E-02
CGA:   4    -0.997481233290E+03   -0.40680E-02   -0.41444E-02  2880   0.198E-01 0.833E-02
CGA:   5    -0.997482948597E+03   -0.17153E-02   -0.17202E-02  2880   0.765E-02-0.112E-02
CGA:   6    -0.997484085206E+03   -0.11366E-02   -0.16379E-02  2880   0.127E-01-0.330E-02
CGA:   7    -0.997484229092E+03   -0.14389E-03   -0.20857E-03  2880   0.525E-02 0.122E-02
CGA:   8    -0.997484319049E+03   -0.89957E-04   -0.15181E-03  2880   0.217E-02 0.117E-02
CGA:   9    -0.997484408404E+03   -0.89355E-04   -0.10767E-03  2880   0.176E-02 0.510E-03
CGA:  10    -0.997484551820E+03   -0.14342E-03   -0.13916E-03  2880   0.200E-02-0.389E-03
CGA:  11    -0.997484630268E+03   -0.78447E-04   -0.73796E-04  2880   0.210E-02-0.176E-03
CGA:  12    -0.997484677101E+03   -0.46833E-04   -0.57095E-04  2880   0.108E-02 0.235E-03
CGA:  13    -0.997484697994E+03   -0.20892E-04   -0.30589E-04  2880   0.472E-03 0.212E-03
CGA:  14    -0.997484720761E+03   -0.22767E-04   -0.22164E-04  2880   0.372E-03-0.214E-04
CGA:  15    -0.997484346885E+03    0.37388E-03   -0.10794E-03  2880   0.848E-02-0.205E-02
CGA:  16    -0.997484697416E+03   -0.35053E-03   -0.40169E-03  2880   0.130E-02 0.158E-02
CGA:  17    -0.997484834742E+03   -0.13733E-03   -0.15181E-03  2880   0.590E-03-0.690E-03
CGA:  18    -0.997484831760E+03    0.29819E-05   -0.15088E-04  2880   0.222E-03 0.341E-03
  25 F= -.99748483E+03 E0= -.99746499E+03  d E =-.143036E-02  mag=     2.0000
       N       E                     dE             d eps       ncg     rms          ort
SDA:   1    -0.997474030265E+03    0.10804E-01    0.00000E+00  2880   0.344E-01 0.000E+00
CGA:   2    -0.997479091093E+03   -0.50608E-02   -0.49840E-02  2880   0.331E-01 0.102E-02
CGA:   3    -0.997482888043E+03   -0.37969E-02   -0.38381E-02  2880   0.263E-01-0.125E-02
CGA:   4    -0.997484742469E+03   -0.18544E-02   -0.18502E-02  2880   0.357E-02-0.850E-03
CGA:   5    -0.997484838962E+03   -0.96493E-04   -0.15121E-03  2880   0.152E-02 0.156E-02
CGA:   6    -0.997485008464E+03   -0.16950E-03   -0.16889E-03  2880   0.128E-02 0.839E-03
CGA:   7    -0.997485209106E+03   -0.20064E-03    0.22551E-02  2880   0.136E-02-0.455E-03
CGA:   8    -0.997485287446E+03   -0.78339E-04   -0.75536E-04  2880   0.778E-03 0.298E-03
CGA:   9    -0.997485286995E+03    0.45133E-06   -0.24332E-04  2880   0.234E-03 0.476E-03
  26 F= -.99748529E+03 E0= -.99746544E+03  d E =-.455235E-03  mag=     2.0000
       N       E                     dE             d eps       ncg     rms          ort
SDA:   1    -0.997421846954E+03    0.63440E-01    0.00000E+00  2880   0.311E+00 0.000E+00
CGA:   2    -0.997437857045E+03   -0.16010E-01   -0.16086E-01  2880   0.156E+00 0.137E-01
CGA:   3    -0.997473054679E+03   -0.35198E-01   -0.36553E-01  2880   0.811E-01-0.875E-02
CGA:   4    -0.997477690272E+03   -0.46356E-02   -0.47166E-02  2880   0.299E-01 0.499E-02
CGA:   5    -0.997480525461E+03   -0.28352E-02   -0.28263E-02  2880   0.152E-01 0.978E-03
CGA:   6    -0.997482648838E+03   -0.21234E-02   -0.29218E-02  2880   0.251E-01-0.752E-02
CGA:   7    -0.997482830377E+03   -0.18154E-03   -0.29616E-03  2880   0.114E-01 0.199E-02
CGA:   8    -0.997482910597E+03   -0.80220E-04   -0.22930E-03  2880   0.369E-02 0.259E-02
CGA:   9    -0.997482929718E+03   -0.19121E-04   -0.10286E-03  2880   0.288E-02 0.153E-02
CGA:  10    -0.997483036266E+03   -0.10655E-03   -0.15625E-03  2880   0.395E-02 0.135E-02
CGA:  11    -0.997483348530E+03   -0.31226E-03   -0.30864E-03  2880   0.349E-02-0.179E-03
CGA:  12    -0.997483530180E+03   -0.18165E-03   -0.13017E-03  2880   0.169E-02-0.157E-02
CGA:  13    -0.997483566157E+03   -0.35977E-04   -0.23735E-04  2880   0.102E-02-0.284E-03
CGA:  14    -0.997483576885E+03   -0.10729E-04   -0.18164E-04  2880   0.707E-03 0.156E-03
CGA:  15    -0.997483585289E+03   -0.84034E-05   -0.20478E-04  2880   0.683E-03 0.297E-03
CGA:  16    -0.997483618787E+03   -0.33498E-04   -0.39821E-04  2880   0.895E-03 0.277E-03
CGA:  17    -0.997483704002E+03   -0.85215E-04   -0.89093E-04  2880   0.115E-02-0.498E-03
CGA:  18    -0.997483770125E+03   -0.66123E-04   -0.65110E-04  2880   0.160E-03-0.158E-03
CGA:  19    -0.997483771259E+03   -0.11340E-05   -0.41699E-05  2880   0.751E-04 0.923E-04
  27 F= -.99748377E+03 E0= -.99746394E+03  d E =0.151574E-02  mag=     2.0000
       N       E                     dE             d eps       ncg     rms          ort
SDA:   1    -0.997354222806E+03    0.12955E+00    0.00000E+00  2880   0.711E+00 0.000E+00
CGA:   2    -0.997392034031E+03   -0.37811E-01   -0.37919E-01  2880   0.367E+00-0.186E-01
CGA:   3    -0.997447264349E+03   -0.55230E-01   -0.53947E-01  2880   0.235E+00 0.129E-01
CGA:   4    -0.997471123822E+03   -0.23859E-01   -0.23806E-01  2880   0.570E-01-0.130E-03
CGA:   5    -0.997475026996E+03   -0.39032E-02   -0.38850E-02  2880   0.261E-01 0.792E-02
CGA:   6    -0.997479313133E+03   -0.42861E-02   -0.53786E-02  2880   0.396E-01-0.940E-02
CGA:   7    -0.997480468191E+03   -0.11551E-02   -0.12301E-02  2880   0.159E-01 0.325E-02
CGA:   8    -0.997480980249E+03   -0.51206E-03   -0.61727E-03  2880   0.505E-02 0.343E-02
CGA:   9    -0.997481246677E+03   -0.26643E-03   -0.28177E-03  2880   0.296E-02 0.779E-03
CGA:  10    -0.997481608876E+03   -0.36220E-03   -0.45747E-03  2880   0.852E-02-0.144E-02
CGA:  11    -0.997481704351E+03   -0.95475E-04   -0.96803E-04  2880   0.698E-02 0.249E-04
CGA:  12    -0.997481815563E+03   -0.11121E-03   -0.14053E-03  2880   0.234E-02 0.566E-03
CGA:  13    -0.997481855583E+03   -0.40019E-04   -0.52948E-04  2880   0.113E-02 0.272E-03
CGA:  14    -0.997481909921E+03   -0.54339E-04   -0.49653E-04  2880   0.132E-02-0.199E-03
CGA:  15    -0.997481949681E+03   -0.39759E-04   -0.10474E-03  2880   0.522E-02-0.192E-02
CGA:  16    -0.997482165805E+03   -0.21612E-03   -0.23809E-03  2880   0.482E-03 0.121E-02
CGA:  17    -0.997482177157E+03   -0.11353E-04   -0.19586E-04  2880   0.164E-03 0.274E-03
CGA:  18    -0.997482189367E+03   -0.12209E-04   -0.11378E-04  2880   0.106E-03 0.107E-03
CGA:  19    -0.997482226883E+03   -0.37516E-04   -0.46997E-06  2880   0.425E-03-0.216E-04
CGA:  20    -0.997482245832E+03   -0.18949E-04   -0.17869E-04  2880   0.601E-04-0.193E-04
CGA:  21    -0.997482245253E+03    0.57914E-06   -0.16891E-05  2880   0.342E-04 0.279E-04
  28 F= -.99748225E+03 E0= -.99746232E+03  d E =0.152601E-02  mag=     2.0000
       N       E                     dE             d eps       ncg     rms          ort
SDA:   1    -0.997350104268E+03    0.13214E+00    0.00000E+00  2880   0.451E+00 0.000E+00
CGA:   2    -0.997386923538E+03   -0.36819E-01   -0.36651E-01  2880   0.462E+00 0.933E-02
CGA:   3    -0.997458907845E+03   -0.71984E-01   -0.72608E-01  2880   0.219E+00-0.133E-01
CGA:   4    -0.997470928482E+03   -0.12021E-01   -0.12356E-01  2880   0.643E-01 0.857E-02
CGA:   5    -0.997476991625E+03   -0.60631E-02   -0.60624E-02  2880   0.286E-01-0.433E-03
CGA:   6    -0.997480901043E+03   -0.39094E-02   -0.39873E-02  2880   0.228E-01-0.220E-02
CGA:   7    -0.997481807717E+03   -0.90667E-03   -0.10329E-02  2880   0.349E-02 0.266E-02
CGA:   8    -0.997482105544E+03   -0.29783E-03   -0.29784E-03  2880   0.363E-02 0.427E-04
CGA:   9    -0.997482583481E+03   -0.47794E-03   -0.73385E-03  2880   0.585E-02-0.255E-02
CGA:  10    -0.997482726527E+03   -0.14305E-03   -0.24614E-03  2880   0.111E-02 0.170E-02
CGA:  11    -0.997482783433E+03   -0.56906E-04   -0.75559E-04  2880   0.447E-03 0.391E-03
CGA:  12    -0.997482863515E+03   -0.80082E-04   -0.88480E-04  2880   0.922E-03-0.175E-03
CGA:  13    -0.997482862567E+03    0.94862E-06   -0.12333E-04  2880   0.668E-03 0.167E-03
CGA:  14    -0.997482859909E+03    0.26583E-05   -0.15994E-04  2880   0.284E-03 0.243E-03
CGA:  15    -0.997482864873E+03   -0.49649E-05   -0.10776E-04  2880   0.204E-03 0.892E-04
CGA:  16    -0.997481551582E+03    0.13133E-02   -0.72971E-03  2880   0.211E-01-0.294E-02
CGA:  17    -0.997482837423E+03   -0.12858E-02   -0.13531E-02  2880   0.217E-02 0.744E-03
CGA:  18    -0.997482861636E+03   -0.24213E-04   -0.99620E-04  2880   0.514E-03 0.653E-03
CGA:  19    -0.997482896247E+03   -0.34611E-04   -0.47765E-04  2880   0.267E-03 0.166E-03
CGA:  20    -0.997482941817E+03   -0.45570E-04   -0.37024E-04  2880   0.290E-03-0.191E-03
CGA:  21    -0.997482931146E+03    0.10671E-04   -0.73828E-05  2880   0.940E-04 0.149E-03
CGA:  22    -0.997482928556E+03    0.25900E-05   -0.34788E-05  2880   0.470E-04 0.584E-04
CGA:  23    -0.997482943007E+03   -0.14451E-04    0.24149E-04  2880   0.244E-04 0.186E-04
CGA:  24    -0.997482955119E+03   -0.12112E-04    0.75558E-05  2880   0.163E-04 0.169E-04
CGA:  25    -0.997482963975E+03   -0.88566E-05    0.11127E-05  2880   0.246E-04 0.394E-05
  29 F= -.99748296E+03 E0= -.99746320E+03  d E =-.718723E-03  mag=     2.0000
       N       E                     dE             d eps       ncg     rms          ort
SDA:   1    -0.997173549807E+03    0.30941E+00    0.00000E+00  2880   0.988E+00 0.000E+00
CGA:   2    -0.997278991841E+03   -0.10544E+00   -0.10490E+00  2880   0.116E+01-0.193E-01
CGA:   3    -0.997422276868E+03   -0.14329E+00   -0.14325E+00  2880   0.431E+00 0.207E-02
CGA:   4    -0.997449293257E+03   -0.27016E-01   -0.27917E-01  2880   0.153E+00-0.249E-01
CGA:   5    -0.997462429760E+03   -0.13137E-01   -0.13296E-01  2880   0.844E-01 0.498E-02
CGA:   6    -0.997473710453E+03   -0.11281E-01   -0.11282E-01  2880   0.290E-01-0.116E-02
CGA:   7    -0.997475292603E+03   -0.15822E-02   -0.16934E-02  2880   0.773E-02 0.356E-02
CGA:   8    -0.997476588648E+03   -0.12960E-02   -0.13915E-02  2880   0.121E-01-0.252E-02
CGA:   9    -0.997477312435E+03   -0.72379E-03   -0.74043E-03  2880   0.673E-02 0.507E-03
CGA:  10    -0.997477535053E+03   -0.22262E-03   -0.29620E-03  2880   0.138E-02 0.124E-02
CGA:  11    -0.997477607058E+03   -0.72004E-04   -0.92880E-04  2880   0.120E-02 0.368E-03
CGA:  12    -0.997477798383E+03   -0.19132E-03   -0.18897E-03  2880   0.177E-02 0.247E-03
CGA:  13    -0.997477944034E+03   -0.14565E-03   -0.14223E-03  2880   0.508E-03-0.808E-04
CGA:  14    -0.997477998613E+03   -0.54578E-04   -0.55076E-04  2880   0.824E-03-0.425E-03
CGA:  15    -0.997478026356E+03   -0.27744E-04   -0.42040E-04  2880   0.182E-03 0.231E-03
CGA:  16    -0.997478045046E+03   -0.18690E-04   -0.20061E-04  2880   0.150E-03 0.591E-04
CGA:  17    -0.997478078157E+03   -0.33111E-04   -0.35458E-04  2880   0.914E-04-0.331E-04
CGA:  18    -0.997478096087E+03   -0.17930E-04    0.31493E-04  2880   0.158E-03-0.793E-04
CGA:  19    -0.997478095152E+03    0.93542E-06   -0.49019E-05  2880   0.480E-04 0.721E-04
  30 F= -.99747810E+03 E0= -.99745825E+03  d E =0.486882E-02  mag=     2.0000
       N       E                     dE             d eps       ncg     rms          ort
SDA:   1    -0.997379372925E+03    0.98723E-01    0.00000E+00  2880   0.527E+00 0.000E+00
CGA:   2    -0.997413682334E+03   -0.34309E-01   -0.35646E-01  2880   0.274E+00-0.561E-02
CGA:   3    -0.997457790339E+03   -0.44108E-01   -0.43747E-01  2880   0.209E+00 0.560E-02
CGA:   4    -0.997474668674E+03   -0.16878E-01   -0.17150E-01  2880   0.676E-01-0.423E-02
CGA:   5    -0.997478457013E+03   -0.37883E-02   -0.40181E-02  2880   0.216E-01 0.653E-02
CGA:   6    -0.997481938869E+03   -0.34819E-02   -0.36494E-02  2880   0.316E-01-0.313E-02
CGA:   7    -0.997483716134E+03   -0.17773E-02   -0.17513E-02  2880   0.839E-02-0.106E-02
CGA:   8    -0.997484044911E+03   -0.32878E-03   -0.40392E-03  2880   0.256E-02 0.155E-02
CGA:   9    -0.997484184217E+03   -0.13931E-03   -0.16282E-03  2880   0.159E-02 0.545E-03
CGA:  10    -0.997484502787E+03   -0.31857E-03   -0.35261E-03  2880   0.322E-02-0.397E-03
CGA:  11    -0.997484576707E+03   -0.73920E-04   -0.74921E-04  2880   0.105E-02 0.406E-05
CGA:  12    -0.997484605462E+03   -0.28755E-04   -0.30438E-04  2880   0.493E-03 0.167E-04
CGA:  13    -0.997484655740E+03   -0.50278E-04   -0.55199E-04  2880   0.176E-02-0.313E-03
CGA:  14    -0.997484738575E+03   -0.82834E-04   -0.81148E-04  2880   0.281E-03-0.349E-04
CGA:  15    -0.997484738521E+03    0.53435E-07   -0.10236E-04  2880   0.147E-03 0.185E-03
CGA:  16    -0.997484757635E+03   -0.19114E-04   -0.18300E-04  2880   0.215E-03 0.235E-04
CGA:  17    -0.997484472885E+03    0.28475E-03   -0.15605E-03  2880   0.593E-02-0.905E-03
CGA:  18    -0.997484616785E+03   -0.14390E-03   -0.21351E-03  2880   0.614E-03 0.538E-03
CGA:  19    -0.997484761571E+03   -0.14479E-03   -0.15664E-03  2880   0.190E-02-0.163E-03
CGA:  20    -0.997484812737E+03   -0.51165E-04   -0.55411E-04  2880   0.576E-03 0.333E-04
CGA:  21    -0.997484813519E+03   -0.78209E-06   -0.13529E-04  2880   0.138E-03 0.980E-04
  31 F= -.99748481E+03 E0= -.99746495E+03  d E =-.671837E-02  mag=     2.0000
       N       E                     dE             d eps       ncg     rms          ort
SDA:   1    -0.997454384595E+03    0.30428E-01    0.00000E+00  2880   0.800E-01 0.000E+00
CGA:   2    -0.997468444572E+03   -0.14060E-01   -0.14124E-01  2880   0.139E+00-0.366E-03
CGA:   3    -0.997479661826E+03   -0.11217E-01   -0.11254E-01  2880   0.341E-01-0.679E-02
CGA:   4    -0.997481756869E+03   -0.20950E-02   -0.23248E-02  2880   0.966E-02 0.339E-02
CGA:   5    -0.997483181674E+03   -0.14248E-02   -0.14170E-02  2880   0.125E-01-0.134E-02
CGA:   6    -0.997483822643E+03   -0.64097E-03   -0.68840E-03  2880   0.321E-02 0.632E-03
CGA:   7    -0.997484044695E+03   -0.22205E-03   -0.22465E-03  2880   0.143E-02 0.804E-05
CGA:   8    -0.997484210823E+03   -0.16613E-03   -0.14464E-03  2880   0.181E-02-0.702E-03
CGA:   9    -0.997484229672E+03   -0.18848E-04   -0.40316E-04  2880   0.138E-02 0.247E-03
CGA:  10    -0.997484245304E+03   -0.15633E-04   -0.54202E-04  2880   0.544E-03 0.423E-03
CGA:  11    -0.997484282962E+03   -0.37658E-04   -0.38146E-04  2880   0.229E-03 0.633E-05
CGA:  12    -0.997482359739E+03    0.19232E-02   -0.10764E-02  2880   0.523E-01-0.325E-02
CGA:  13    -0.997483887670E+03   -0.15279E-02   -0.17838E-02  2880   0.368E-02 0.565E-02
CGA:  14    -0.997484165823E+03   -0.27815E-03   -0.29385E-03  2880   0.110E-02 0.152E-04
CGA:  15    -0.997484325196E+03   -0.15937E-03   -0.76818E-04  2880   0.890E-03-0.657E-03
CGA:  16    -0.997484310803E+03    0.14393E-04   -0.28387E-04  2880   0.177E-03 0.266E-03
CGA:  17    -0.997484307580E+03    0.32230E-05   -0.98518E-05  2880   0.117E-03 0.923E-04
CGA:  18    -0.997484378158E+03   -0.70578E-04    0.14907E-04  2880   0.782E-03-0.137E-03
CGA:  19    -0.997484358315E+03    0.19843E-04   -0.18693E-04  2880   0.955E-04 0.250E-03
CGA:  20    -0.997484349857E+03    0.84588E-05   -0.19395E-05  2880   0.390E-04 0.667E-04
  32 F= -.99748435E+03 E0= -.99746452E+03  d E =0.463662E-03  mag=     2.0000
       N       E                     dE             d eps       ncg     rms          ort
SDA:   1    -0.997052874951E+03    0.43148E+00    0.00000E+00  2880   0.103E+01 0.000E+00
CGA:   2    -0.997321378379E+03   -0.26850E+00   -0.26494E+00  2880   0.166E+01 0.311E-01
CGA:   3    -0.997412056904E+03   -0.90679E-01   -0.10678E+00  2880   0.515E+00-0.227E+00
CGA:   4    -0.997440880997E+03   -0.28824E-01   -0.27469E-01  2880   0.119E+00 0.424E-01
CGA:   5    -0.997460335176E+03   -0.19454E-01   -0.19453E-01  2880   0.143E+00-0.606E-03
CGA:   6    -0.997469190519E+03   -0.88553E-02   -0.87718E-02  2880   0.268E-01-0.893E-02
CGA:   7    -0.997470453613E+03   -0.12631E-02   -0.14686E-02  2880   0.127E-01 0.272E-02
CGA:   8    -0.997472569833E+03   -0.21162E-02   -0.21112E-02  2880   0.796E-02 0.574E-03
CGA:   9    -0.997473342971E+03   -0.77314E-03   -0.59612E-03  2880   0.672E-02-0.269E-02
CGA:  10    -0.997473672745E+03   -0.32977E-03   -0.36814E-03  2880   0.277E-02 0.668E-03
CGA:  11    -0.997473694016E+03   -0.21271E-04   -0.11530E-03  2880   0.121E-02 0.943E-03
CGA:  12    -0.997473781919E+03   -0.87904E-04   -0.11735E-03  2880   0.117E-02 0.500E-03
CGA:  13    -0.997473995441E+03   -0.21352E-03   -0.21639E-03  2880   0.320E-02-0.114E-02
CGA:  14    -0.997474035049E+03   -0.39608E-04   -0.10609E-03  2880   0.451E-03 0.734E-03
CGA:  15    -0.997474071512E+03   -0.36463E-04   -0.37663E-04  2880   0.341E-03 0.236E-04
CGA:  16    -0.997474195296E+03   -0.12378E-03    0.51103E-04  2880   0.728E-03-0.301E-03
CGA:  17    -0.997474177668E+03    0.17628E-04   -0.18453E-04  2880   0.229E-03 0.376E-03
CGA:  18    -0.997474170023E+03    0.76451E-05   -0.61126E-05  2880   0.113E-03 0.154E-03
  33 F= -.99747417E+03 E0= -.99745448E+03  d E =0.101798E-01  mag=     2.0000
       N       E                     dE             d eps       ncg     rms          ort
SDA:   1    -0.997188920205E+03    0.28526E+00    0.00000E+00  2880   0.735E+00 0.000E+00
CGA:   2    -0.997354209911E+03   -0.16529E+00   -0.16332E+00  2880   0.141E+01 0.172E-01
CGA:   3    -0.997444208456E+03   -0.89999E-01   -0.85653E-01  2880   0.139E+00 0.648E-01
CGA:   4    -0.997460570957E+03   -0.16363E-01   -0.16356E-01  2880   0.163E+00 0.856E-03
CGA:   5    -0.997478372166E+03   -0.17801E-01   -0.17797E-01  2880   0.211E-01-0.216E-02
CGA:   6    -0.997479713901E+03   -0.13417E-02   -0.14726E-02  2880   0.124E-01 0.329E-02
CGA:   7    -0.997481669132E+03   -0.19552E-02   -0.20272E-02  2880   0.117E-01-0.224E-02
CGA:   8    -0.997482208861E+03   -0.53973E-03   -0.58481E-03  2880   0.366E-02 0.937E-03
CGA:   9    -0.997482497453E+03   -0.28859E-03   -0.29244E-03  2880   0.192E-02 0.583E-04
CGA:  10    -0.997482737571E+03   -0.24012E-03   -0.31225E-03  2880   0.599E-02-0.135E-02
CGA:  11    -0.997482856128E+03   -0.11856E-03   -0.21259E-03  2880   0.923E-03 0.130E-02
CGA:  12    -0.997482912001E+03   -0.55872E-04   -0.65509E-04  2880   0.382E-03 0.206E-03
CGA:  13    -0.997480898209E+03    0.20138E-02   -0.11015E-02  2880   0.531E-01-0.410E-02
CGA:  14    -0.997482605445E+03   -0.17072E-02   -0.19839E-02  2880   0.510E-02 0.501E-02
CGA:  15    -0.997483040059E+03   -0.43461E-03   -0.41830E-03  2880   0.559E-03-0.467E-03
CGA:  16    -0.997483120212E+03   -0.80153E-04   -0.46434E-04  2880   0.917E-03-0.417E-03
CGA:  17    -0.997483105491E+03    0.14721E-04   -0.25227E-04  2880   0.129E-03 0.279E-03
CGA:  18    -0.997483098127E+03    0.73645E-05   -0.40589E-05  2880   0.643E-04 0.814E-04
CGA:  19    -0.997483121702E+03   -0.23576E-04    0.29628E-04  2880   0.643E-04 0.117E-04
CGA:  20    -0.997483116804E+03    0.48985E-05   -0.22223E-05  2880   0.353E-04 0.557E-04
  34 F= -.99748312E+03 E0= -.99746329E+03  d E =-.894678E-02  mag=     2.0000
       N       E                     dE             d eps       ncg     rms          ort
SDA:   1    -0.997313921457E+03    0.16920E+00    0.00000E+00  2880   0.614E+00 0.000E+00
CGA:   2    -0.997357559362E+03   -0.43638E-01   -0.43790E-01  2880   0.582E+00 0.139E-01
CGA:   3    -0.997460130228E+03   -0.10257E+00   -0.10278E+00  2880   0.141E+00-0.782E-02
CGA:   4    -0.997468707629E+03   -0.85774E-02   -0.85513E-02  2880   0.603E-01 0.420E-02
CGA:   5    -0.997479537670E+03   -0.10830E-01   -0.10927E-01  2880   0.245E-01-0.270E-02
CGA:   6    -0.997480774998E+03   -0.12373E-02   -0.13629E-02  2880   0.576E-02 0.301E-02
CGA:   7    -0.997481552247E+03   -0.77725E-03   -0.77995E-03  2880   0.540E-02 0.170E-03
CGA:   8    -0.997482269853E+03   -0.71761E-03   -0.71302E-03  2880   0.215E-02-0.666E-03
CGA:   9    -0.997482333992E+03   -0.64139E-04   -0.89524E-04  2880   0.798E-03 0.324E-03
CGA:  10    -0.997482409301E+03   -0.75309E-04   -0.84714E-04  2880   0.859E-03 0.245E-03
CGA:  11    -0.997482535774E+03   -0.12647E-03   -0.12090E-03  2880   0.761E-03-0.271E-03
CGA:  12    -0.997482564489E+03   -0.28715E-04   -0.32014E-04  2880   0.366E-03 0.487E-04
CGA:  13    -0.997482572931E+03   -0.84418E-05   -0.15999E-04  2880   0.176E-03 0.915E-04
CGA:  14    -0.997482589726E+03   -0.16795E-04   -0.18033E-04  2880   0.200E-03 0.322E-04
CGA:  15    -0.997482616455E+03   -0.26729E-04   -0.25767E-04  2880   0.227E-03-0.105E-03
CGA:  16    -0.997482617585E+03   -0.11297E-05   -0.91412E-05  2880   0.685E-04 0.103E-03
  35 F= -.99748262E+03 E0= -.99746282E+03  d E =0.499219E-03  mag=     2.0000
       N       E                     dE             d eps       ncg     rms          ort
SDA:   1    -0.997433926874E+03    0.48690E-01    0.00000E+00  2880   0.269E+00 0.000E+00
CGA:   2    -0.997448649472E+03   -0.14723E-01   -0.14595E-01  2880   0.142E+00-0.185E-01
CGA:   3    -0.997474122814E+03   -0.25473E-01   -0.24973E-01  2880   0.874E-01 0.607E-02
CGA:   4    -0.997479457263E+03   -0.53344E-02   -0.53470E-02  2880   0.184E-01-0.473E-02
CGA:   5    -0.997481948154E+03   -0.24909E-02   -0.24411E-02  2880   0.124E-01 0.159E-02
CGA:   6    -0.997483311268E+03   -0.13631E-02   -0.13333E-02  2880   0.876E-02-0.282E-02
CGA:   7    -0.997483530946E+03   -0.21968E-03   -0.33246E-03  2880   0.176E-02 0.186E-02
CGA:   8    -0.997483581750E+03   -0.50805E-04   -0.88888E-04  2880   0.873E-03 0.595E-03
CGA:   9    -0.997483645493E+03   -0.63742E-04   -0.31388E-03  2880   0.744E-02-0.152E-02
CGA:  10    -0.997483895395E+03   -0.24990E-03   -0.31101E-03  2880   0.549E-03 0.802E-03
CGA:  11    -0.997483916625E+03   -0.21230E-04   -0.29523E-04  2880   0.131E-03 0.145E-03
CGA:  12    -0.997483924672E+03   -0.80466E-05   -0.10908E-04  2880   0.117E-03 0.723E-04
CGA:  13    -0.997483670117E+03    0.25455E-03   -0.13925E-03  2880   0.733E-02-0.579E-03
CGA:  14    -0.997483983071E+03   -0.31295E-03   -0.31683E-03  2880   0.514E-03 0.274E-03
CGA:  15    -0.997483976137E+03    0.69338E-05   -0.19031E-04  2880   0.787E-04 0.180E-03
  36 F= -.99748398E+03 E0= -.99746416E+03  d E =-.135855E-02  mag=     2.0000
       N       E                     dE             d eps       ncg     rms          ort
SDA:   1    -0.997440746708E+03    0.43236E-01    0.00000E+00  2880   0.392E+00 0.000E+00
CGA:   2    -0.997462114304E+03   -0.21368E-01   -0.18038E-01  2880   0.606E-01 0.693E-01
CGA:   3    -0.997469247835E+03   -0.71335E-02   -0.69048E-02  2880   0.770E-01-0.129E-02
CGA:   4    -0.997478240206E+03   -0.89924E-02   -0.89565E-02  2880   0.700E-01-0.122E-02
CGA:   5    -0.997481690743E+03   -0.34505E-02   -0.35429E-02  2880   0.127E-01 0.453E-02
CGA:   6    -0.997482288130E+03   -0.59739E-03   -0.63948E-03  2880   0.598E-02 0.128E-02
CGA:   7    -0.997483070442E+03   -0.78231E-03   -0.78197E-03  2880   0.817E-02 0.242E-04
CGA:   8    -0.997483579350E+03   -0.50891E-03   -0.47675E-03  2880   0.241E-02-0.426E-03
CGA:   9    -0.997483740409E+03   -0.16106E-03   -0.13650E-03  2880   0.972E-03-0.358E-03
CGA:  10    -0.997483814100E+03   -0.73691E-04   -0.73340E-04  2880   0.109E-02-0.106E-04
CGA:  11    -0.997483866679E+03   -0.52579E-04   -0.71811E-04  2880   0.525E-03 0.289E-03
CGA:  12    -0.997483901510E+03   -0.34831E-04   -0.40179E-04  2880   0.243E-03 0.736E-04
CGA:  13    -0.997483929934E+03   -0.28425E-04   -0.51305E-04  2880   0.933E-03-0.395E-03
CGA:  14    -0.997483942162E+03   -0.12227E-04   -0.37171E-04  2880   0.176E-03 0.276E-03
CGA:  15    -0.997483953670E+03   -0.11508E-04   -0.13413E-04  2880   0.514E-04 0.290E-04
CGA:  16    -0.997483972827E+03   -0.19157E-04    0.11646E-04  2880   0.121E-03-0.362E-04
CGA:  17    -0.997483969453E+03    0.33743E-05   -0.29161E-05  2880   0.397E-04 0.639E-04
  37 F= -.99748397E+03 E0= -.99746414E+03  d E =0.668454E-05  mag=     2.0000
