       N       E                     dE             d eps       ncg     rms          ort
DAV:   1     0.283830099333E+04    0.28383E+04   -0.29407E+05  2880   0.141E+03
DAV:   2    -0.969162785535E+03   -0.38075E+04   -0.36739E+04  2880   0.314E+02
DAV:   3    -0.122964186500E+04   -0.26048E+03   -0.25838E+03  2880   0.853E+01
DAV:   4    -0.123273876639E+04   -0.30969E+01   -0.30858E+01  2880   0.988E+00
DAV:   5    -0.123279099172E+04   -0.52225E-01   -0.52106E-01  2880   0.118E+00
SDA:   6    -0.877370529647E+03    0.35542E+03   -0.52106E-01  2880   0.612E+03 0.000E+00
CGA:   7    -0.986806356747E+03   -0.10944E+03   -0.10976E+03  2880   0.461E+02 0.917E+01
CGA:   8    -0.997171298919E+03   -0.10365E+02   -0.10283E+02  2880   0.244E+02 0.332E+01
CGA:   9    -0.100178336178E+04   -0.46121E+01   -0.45784E+01  2880   0.108E+02-0.126E+01
CGA:  10    -0.100407959332E+04   -0.22962E+01   -0.22443E+01  2880   0.102E+02 0.146E+01
CGA:  11    -0.100394379795E+04    0.13580E+00   -0.88973E+00  2880   0.197E+02-0.991E+01
CGA:  12    -0.100491437840E+04   -0.97058E+00   -0.20575E+01  2880   0.263E+01-0.133E+01
CGA:  13    -0.100518139660E+04   -0.26702E+00   -0.12428E+00  2880   0.312E+01 0.361E+01
CGA:  14    -0.100555681349E+04   -0.37542E+00   -0.13547E+00  2880   0.140E+01 0.338E+01
CGA:  15    -0.100564098046E+04   -0.84167E-01   -0.76245E-01  2880   0.740E+00 0.257E-01
CGA:  16    -0.100591343190E+04   -0.27245E+00   -0.27607E+00  2880   0.519E+00-0.177E-01
CGA:  17    -0.100595190395E+04   -0.38472E-01   -0.42423E-01  2880   0.439E+00-0.320E-01
CGA:  18    -0.100598576240E+04   -0.33858E-01   -0.32733E-01  2880   0.153E+00 0.329E-02
CGA:  19    -0.100600175641E+04   -0.15994E-01   -0.16083E-01  2880   0.230E+00-0.995E-03
CGA:  20    -0.100602870701E+04   -0.26951E-01   -0.27323E-01  2880   0.573E-01 0.450E-02
CGA:  21    -0.100603152634E+04   -0.28193E-02   -0.30324E-02  2880   0.227E-01 0.597E-03
CGA:  22    -0.100603541198E+04   -0.38856E-02   -0.38622E-02  2880   0.215E-01 0.254E-02
CGA:  23    -0.100603684356E+04   -0.14316E-02   -0.15713E-02  2880   0.874E-02 0.556E-03
CGA:  24    -0.100603795329E+04   -0.11097E-02   -0.11361E-02  2880   0.338E-02 0.946E-03
CGA:  25    -0.100603819932E+04   -0.24603E-03   -0.25933E-03  2880   0.232E-02 0.206E-03
CGA:  26    -0.100603896105E+04   -0.76173E-03   -0.74017E-03  2880   0.249E-02 0.163E-03
CGA:  27    -0.100603910063E+04   -0.13959E-03   -0.14260E-03  2880   0.666E-03 0.801E-04
CGA:  28    -0.100603925528E+04   -0.15465E-03   -0.15491E-03  2880   0.108E-02 0.469E-05
CGA:  29    -0.100603934177E+04   -0.86492E-04   -0.90232E-04  2880   0.667E-03 0.456E-04
CGA:  30    -0.100603939900E+04   -0.57228E-04   -0.64725E-04  2880   0.222E-03 0.148E-03
CGA:  31    -0.100603940553E+04   -0.65260E-05   -0.13924E-04  2880   0.873E-04 0.784E-04
   1 F= -.10060394E+04 E0= -.10060237E+04  d E =-.100604E+04  mag=     1.0000
       N       E                     dE             d eps       ncg     rms          ort
SDA:   1    -0.100603530261E+04    0.40964E-02    0.00000E+00  2880   0.268E-01 0.000E+00
CGA:   2    -0.100603672077E+04   -0.14182E-02   -0.14783E-02  2880   0.779E-02-0.101E-03
CGA:   3    -0.100603885814E+04   -0.21374E-02   -0.21481E-02  2880   0.144E-02-0.783E-04
CGA:   4    -0.100603921939E+04   -0.36125E-03   -0.37882E-03  2880   0.945E-03-0.143E-03
CGA:   5    -0.100603930943E+04   -0.90046E-04   -0.80242E-04  2880   0.419E-03-0.185E-03
CGA:   6    -0.100603933998E+04   -0.30543E-04   -0.28905E-04  2880   0.155E-03-0.288E-04
CGA:   7    -0.100603936136E+04   -0.21378E-04   -0.21324E-04  2880   0.327E-04 0.112E-04
CGA:   8    -0.100603936639E+04   -0.50314E-05   -0.50302E-05  2880   0.734E-04-0.120E-04
   2 F= -.10060394E+04 E0= -.10060237E+04  d E =0.391395E-04  mag=     0.9999
       N       E                     dE             d eps       ncg     rms          ort
SDA:   1    -0.100603744313E+04    0.19182E-02    0.00000E+00  2880   0.370E-01 0.000E+00
CGA:   2    -0.100603898435E+04   -0.15412E-02   -0.15714E-02  2880   0.127E-02-0.103E-02
CGA:   3    -0.100603918727E+04   -0.20292E-03   -0.20072E-03  2880   0.193E-02 0.748E-04
CGA:   4    -0.100603936191E+04   -0.17464E-03   -0.17915E-03  2880   0.318E-03 0.862E-04
CGA:   5    -0.100603940606E+04   -0.44152E-04   -0.44132E-04  2880   0.298E-03-0.238E-04
CGA:   6    -0.100603942656E+04   -0.20494E-04   -0.23056E-04  2880   0.633E-04 0.503E-04
CGA:   7    -0.100603942945E+04   -0.28900E-05   -0.49386E-05  2880   0.162E-04 0.317E-04
   3 F= -.10060394E+04 E0= -.10060237E+04  d E =-.239190E-04  mag=     0.9999
       N       E                     dE             d eps       ncg     rms          ort
SDA:   1    -0.100603732641E+04    0.21001E-02    0.00000E+00  2880   0.516E-02 0.000E+00
CGA:   2    -0.100603862633E+04   -0.12999E-02   -0.12656E-02  2880   0.599E-02 0.275E-03
CGA:   3    -0.100603908079E+04   -0.45446E-03   -0.44841E-03  2880   0.166E-02-0.181E-03
CGA:   4    -0.100603926447E+04   -0.18368E-03   -0.18116E-03  2880   0.813E-03-0.169E-03
CGA:   5    -0.100603935242E+04   -0.87954E-04   -0.87517E-04  2880   0.516E-03-0.641E-04
CGA:   6    -0.100603939001E+04   -0.37587E-04   -0.35524E-04  2880   0.702E-04-0.449E-04
CGA:   7    -0.100603940258E+04   -0.12574E-04   -0.15141E-04  2880   0.150E-03-0.232E-04
CGA:   8    -0.100603941303E+04   -0.10446E-04   -0.84645E-05  2880   0.270E-04-0.445E-04
CGA:   9    -0.100603941519E+04   -0.21560E-05   -0.21675E-05  2880   0.165E-04 0.798E-06
   4 F= -.10060394E+04 E0= -.10060237E+04  d E =0.142597E-04  mag=     0.9999
       N       E                     dE             d eps       ncg     rms          ort
SDA:   1    -0.100603936318E+04    0.49846E-04    0.00000E+00  2880   0.666E-03 0.000E+00
CGA:   2    -0.100603939478E+04   -0.31601E-04   -0.37056E-04  2880   0.131E-03 0.780E-04
CGA:   3    -0.100603940482E+04   -0.10036E-04   -0.11300E-04  2880   0.627E-04 0.288E-04
CGA:   4    -0.100603942071E+04   -0.15890E-04   -0.14993E-04  2880   0.717E-04 0.115E-04
CGA:   5    -0.100603942434E+04   -0.36260E-05   -0.46706E-05  2880   0.876E-05 0.153E-04
   5 F= -.10060394E+04 E0= -.10060238E+04  d E =0.510886E-05  mag=     0.9999
       N       E                     dE             d eps       ncg     rms          ort
SDA:   1    -0.100603749424E+04    0.19265E-02    0.00000E+00  2880   0.844E-02 0.000E+00
CGA:   2    -0.100603807094E+04   -0.57670E-03   -0.58985E-03  2880   0.501E-02 0.214E-03
CGA:   3    -0.100603909824E+04   -0.10273E-02   -0.10297E-02  2880   0.253E-02-0.373E-04
CGA:   4    -0.100603931871E+04   -0.22047E-03   -0.21559E-03  2880   0.891E-03-0.169E-03
CGA:   5    -0.100603937781E+04   -0.59105E-04   -0.59152E-04  2880   0.303E-03 0.162E-05
CGA:   6    -0.100603942600E+04   -0.48191E-04   -0.45891E-04  2880   0.422E-04 0.620E-04
CGA:   7    -0.100603943384E+04   -0.78422E-05   -0.84086E-05  2880   0.115E-03-0.119E-04
   6 F= -.10060394E+04 E0= -.10060238E+04  d E =-.950686E-05  mag=     0.9999
       N       E                     dE             d eps       ncg     rms          ort
SDA:   1    -0.100603733728E+04    0.20887E-02    0.00000E+00  2880   0.484E-01 0.000E+00
CGA:   2    -0.100603924730E+04   -0.19100E-02   -0.19825E-02  2880   0.728E-03-0.186E-02
CGA:   3    -0.100603931088E+04   -0.63579E-04   -0.62197E-04  2880   0.661E-03-0.642E-04
CGA:   4    -0.100603941341E+04   -0.10253E-03   -0.10600E-03  2880   0.307E-03-0.557E-04
CGA:   5    -0.100603943574E+04   -0.22325E-04   -0.22869E-04  2880   0.544E-04 0.150E-04
CGA:   6    -0.100603943799E+04   -0.22568E-05   -0.34799E-05  2880   0.208E-04 0.235E-04
   7 F= -.10060394E+04 E0= -.10060238E+04  d E =-.136552E-04  mag=     0.9999
       N       E                     dE             d eps       ncg     rms          ort
SDA:   1    -0.100603916014E+04    0.27560E-03    0.00000E+00  2880   0.611E-02 0.000E+00
CGA:   2    -0.100603939475E+04   -0.23461E-03   -0.24805E-03  2880   0.211E-03 0.180E-03
CGA:   3    -0.100603941154E+04   -0.16797E-04   -0.18113E-04  2880   0.982E-04 0.567E-04
CGA:   4    -0.100603942955E+04   -0.18001E-04   -0.18035E-04  2880   0.127E-03-0.125E-05
CGA:   5    -0.100603944028E+04   -0.10732E-04   -0.10853E-04  2880   0.233E-04 0.560E-05
CGA:   6    -0.100603944272E+04   -0.24406E-05   -0.23705E-05  2880   0.212E-04-0.818E-05
CGA:   7    -0.100603938972E+04    0.53004E-04   -0.28723E-04  2880   0.828E-03-0.108E-03
CGA:   8    -0.100603942365E+04   -0.33940E-04   -0.42139E-04  2880   0.111E-03 0.498E-04
CGA:   9    -0.100603943156E+04   -0.79035E-05   -0.96677E-05  2880   0.336E-04 0.169E-04
   8 F= -.10060394E+04 E0= -.10060238E+04  d E =-.722127E-05  mag=     0.9999
       N       E                     dE             d eps       ncg     rms          ort
SDA:   1    -0.100603735346E+04    0.20702E-02    0.00000E+00  2880   0.487E-01 0.000E+00
CGA:   2    -0.100603939567E+04   -0.20422E-02   -0.20464E-02  2880   0.383E-03-0.692E-03
CGA:   3    -0.100603941864E+04   -0.22973E-04   -0.26262E-04  2880   0.108E-03 0.298E-04
CGA:   4    -0.100603942775E+04   -0.91028E-05   -0.99811E-05  2880   0.607E-04 0.941E-05
CGA:   5    -0.100603944103E+04   -0.13281E-04   -0.16675E-04  2880   0.570E-04-0.400E-04
CGA:   6    -0.100603944231E+04   -0.12800E-05   -0.27064E-05  2880   0.141E-04 0.112E-04
   9 F= -.10060394E+04 E0= -.10060238E+04  d E =-.179709E-04  mag=     0.9999
       N       E                     dE             d eps       ncg     rms          ort
SDA:   1    -0.100603936365E+04    0.77374E-04    0.00000E+00  2880   0.222E-02 0.000E+00
CGA:   2    -0.100603944267E+04   -0.79014E-04   -0.87674E-04  2880   0.320E-04 0.671E-04
CGA:   3    -0.100603944312E+04   -0.45363E-06   -0.18075E-05  2880   0.131E-04 0.134E-04
CGA:   4    -0.100603944373E+04   -0.61121E-06   -0.12905E-05  2880   0.768E-05 0.845E-05
CGA:   5    -0.100603941480E+04    0.28928E-04   -0.15614E-04  2880   0.685E-03-0.450E-04
CGA:   6    -0.100603943977E+04   -0.24965E-04   -0.30680E-04  2880   0.550E-04 0.246E-04
CGA:   7    -0.100603944184E+04   -0.20647E-05   -0.36434E-05  2880   0.667E-05 0.826E-05
  10 F= -.10060394E+04 E0= -.10060238E+04  d E =-.174978E-04  mag=     0.9999
       N       E                     dE             d eps       ncg     rms          ort
SDA:   1    -0.100603888596E+04    0.55381E-03    0.00000E+00  2880   0.128E-01 0.000E+00
CGA:   2    -0.100603942930E+04   -0.54335E-03   -0.55786E-03  2880   0.257E-03-0.591E-03
CGA:   3    -0.100603944013E+04   -0.10821E-04   -0.14582E-04  2880   0.336E-04 0.215E-04
CGA:   4    -0.100603944147E+04   -0.13493E-05   -0.24340E-05  2880   0.129E-04 0.671E-05
  11 F= -.10060394E+04 E0= -.10060238E+04  d E =-.171375E-04  mag=     0.9999
       N       E                     dE             d eps       ncg     rms          ort
SDA:   1    -0.100603811332E+04    0.13268E-02    0.00000E+00  2880   0.716E-02 0.000E+00
CGA:   2    -0.100603858369E+04   -0.47037E-03   -0.46776E-03  2880   0.333E-02-0.168E-03
CGA:   3    -0.100603921957E+04   -0.63588E-03   -0.63707E-03  2880   0.172E-02 0.850E-04
CGA:   4    -0.100603940469E+04   -0.18512E-03   -0.17991E-03  2880   0.526E-03-0.666E-04
CGA:   5    -0.100603944058E+04   -0.35883E-04   -0.35529E-04  2880   0.251E-03-0.756E-05
CGA:   6    -0.100603946988E+04   -0.29303E-04   -0.32792E-04  2880   0.261E-04 0.542E-04
CGA:   7    -0.100603947428E+04   -0.44045E-05   -0.47837E-05  2880   0.313E-04 0.878E-05
  12 F= -.10060395E+04 E0= -.10060238E+04  d E =-.328103E-04  mag=     0.9999
       N       E                     dE             d eps       ncg     rms          ort
SDA:   1    -0.100603933682E+04    0.13306E-03    0.00000E+00  2880   0.269E-02 0.000E+00
CGA:   2    -0.100603944739E+04   -0.11058E-03   -0.10767E-03  2880   0.100E-03-0.272E-04
CGA:   3    -0.100603946287E+04   -0.15474E-04   -0.13943E-04  2880   0.804E-04-0.413E-04
CGA:   4    -0.100603947216E+04   -0.92894E-05   -0.94314E-05  2880   0.676E-04-0.656E-05
  13 F= -.10060395E+04 E0= -.10060238E+04  d E =-.306830E-04  mag=     0.9999
       N       E                     dE             d eps       ncg     rms          ort
SDA:   1    -0.100603944735E+04    0.15522E-04    0.00000E+00  2880   0.242E-03 0.000E+00
CGA:   2    -0.100603947018E+04   -0.22838E-04   -0.20597E-04  2880   0.342E-04-0.290E-04
CGA:   3    -0.100603947450E+04   -0.43201E-05   -0.37372E-05  2880   0.545E-04-0.139E-04
CGA:   4    -0.100603947680E+04   -0.22954E-05   -0.28105E-05  2880   0.208E-04 0.655E-05
  14 F= -.10060395E+04 E0= -.10060238E+04  d E =-.353247E-04  mag=     0.9999
       N       E                     dE             d eps       ncg     rms          ort
SDA:   1    -0.100603944844E+04    0.26066E-04    0.00000E+00  2880   0.527E-03 0.000E+00
CGA:   2    -0.100603947472E+04   -0.26283E-04   -0.24259E-04  2880   0.220E-04-0.250E-04
CGA:   3    -0.100603947490E+04   -0.17646E-06   -0.99564E-06  2880   0.427E-05 0.801E-05
CGA:   4    -0.100603947479E+04    0.10973E-06   -0.22107E-06  2880   0.226E-05 0.311E-05
  15 F= -.10060395E+04 E0= -.10060238E+04  d E =-.333136E-04  mag=     0.9999
       N       E                     dE             d eps       ncg     rms          ort
SDA:   1    -0.100603945898E+04    0.15920E-04    0.00000E+00  2880   0.403E-03 0.000E+00
CGA:   2    -0.100603947646E+04   -0.17480E-04   -0.16151E-04  2880   0.377E-05-0.204E-04
CGA:   3    -0.100603947694E+04   -0.47909E-06   -0.50685E-06  2880   0.127E-04-0.364E-05
CGA:   4    -0.100603947721E+04   -0.26801E-06   -0.43750E-06  2880   0.637E-06 0.162E-05
  16 F= -.10060395E+04 E0= -.10060238E+04  d E =-.357304E-04  mag=     0.9999
       N       E                     dE             d eps       ncg     rms          ort
SDA:   1    -0.100603947562E+04    0.13198E-05    0.00000E+00  2880   0.939E-05 0.000E+00
CGA:   2    -0.100603947599E+04   -0.37536E-06   -0.42362E-06  2880   0.823E-06 0.554E-06
CGA:   3    -0.100603947672E+04   -0.72712E-06    0.21323E-07  2880   0.576E-06-0.333E-06
CGA:   4    -0.100603947701E+04   -0.28672E-06    0.83659E-08  2880   0.431E-06 0.182E-07
  17 F= -.10060395E+04 E0= -.10060238E+04  d E =-.355318E-04  mag=     0.9999
       N       E                     dE             d eps       ncg     rms          ort
SDA:   1    -0.100603946803E+04    0.86915E-05    0.00000E+00  2880   0.848E-04 0.000E+00
CGA:   2    -0.100603947539E+04   -0.73606E-05   -0.56073E-05  2880   0.277E-04-0.368E-04
CGA:   3    -0.100603947672E+04   -0.13355E-05   -0.12062E-05  2880   0.377E-05-0.374E-05
CGA:   4    -0.100603947662E+04    0.10415E-06   -0.81121E-07  2880   0.180E-05 0.215E-05
  18 F= -.10060395E+04 E0= -.10060238E+04  d E =-.351455E-04  mag=     0.9999
       N       E                     dE             d eps       ncg     rms          ort
SDA:   1    -0.100603915406E+04    0.32266E-03    0.00000E+00  2880   0.174E-02 0.000E+00
CGA:   2    -0.100603928241E+04   -0.12835E-03   -0.12769E-03  2880   0.103E-02-0.318E-04
CGA:   3    -0.100603940567E+04   -0.12326E-03   -0.12207E-03  2880   0.568E-03 0.581E-04
CGA:   4    -0.100603946824E+04   -0.62570E-04   -0.62323E-04  2880   0.663E-04 0.137E-03
CGA:   5    -0.100603948174E+04   -0.13499E-04   -0.14744E-04  2880   0.165E-03-0.166E-04
CGA:   6    -0.100603949091E+04   -0.91759E-05   -0.88156E-05  2880   0.857E-04-0.106E-04
  19 F= -.10060395E+04 E0= -.10060238E+04  d E =-.142934E-04  mag=     0.9999
       N       E                     dE             d eps       ncg     rms          ort
SDA:   1    -0.100603815588E+04    0.13259E-02    0.00000E+00  2880   0.399E-02 0.000E+00
CGA:   2    -0.100603869968E+04   -0.54380E-03   -0.52525E-03  2880   0.386E-02 0.593E-03
CGA:   3    -0.100603918525E+04   -0.48557E-03   -0.48412E-03  2880   0.145E-02 0.207E-03
CGA:   4    -0.100603933647E+04   -0.15122E-03   -0.15141E-03  2880   0.406E-03 0.490E-04
CGA:   5    -0.100603940102E+04   -0.64555E-04   -0.71662E-04  2880   0.678E-03-0.107E-03
CGA:   6    -0.100603943396E+04   -0.32944E-04   -0.32371E-04  2880   0.100E-03-0.157E-04
CGA:   7    -0.100603943644E+04   -0.24766E-05   -0.38163E-05  2880   0.397E-04 0.200E-04
  20 F= -.10060394E+04 E0= -.10060238E+04  d E =0.401795E-04  mag=     0.9999
       N       E                     dE             d eps       ncg     rms          ort
SDA:   1    -0.100603883586E+04    0.59810E-03    0.00000E+00  2880   0.155E-01 0.000E+00
CGA:   2    -0.100603943271E+04   -0.59685E-03   -0.61773E-03  2880   0.933E-04 0.315E-03
CGA:   3    -0.100603943529E+04   -0.25828E-05   -0.47636E-05  2880   0.468E-04 0.470E-04
CGA:   4    -0.100603943856E+04   -0.32692E-05   -0.37045E-05  2880   0.284E-04 0.300E-04
  21 F= -.10060394E+04 E0= -.10060238E+04  d E =-.212125E-05  mag=     0.9999
       N       E                     dE             d eps       ncg     rms          ort
SDA:   1    -0.100603943383E+04    0.14583E-05    0.00000E+00  2880   0.246E-03 0.000E+00
CGA:   2    -0.100603944432E+04   -0.10484E-04   -0.10177E-04  2880   0.157E-04-0.857E-05
CGA:   3    -0.100603944688E+04   -0.25597E-05   -0.21680E-05  2880   0.692E-05 0.717E-05
CGA:   4    -0.100603944714E+04   -0.26212E-06   -0.52483E-06  2880   0.329E-05 0.666E-05
  22 F= -.10060394E+04 E0= -.10060238E+04  d E =-.106994E-04  mag=     0.9999
       N       E                     dE             d eps       ncg     rms          ort
SDA:   1    -0.100603944873E+04   -0.18514E-05    0.00000E+00  2880   0.738E-04 0.000E+00
CGA:   2    -0.100603945387E+04   -0.51423E-05   -0.44051E-05  2880   0.168E-04-0.252E-04
CGA:   3    -0.100603945406E+04   -0.19042E-06   -0.48895E-06  2880   0.555E-05 0.674E-05
CGA:   4    -0.100603945401E+04    0.51521E-07   -0.19946E-06  2880   0.232E-05 0.412E-05
  23 F= -.10060395E+04 E0= -.10060238E+04  d E =-.687047E-05  mag=     0.9999
       N       E                     dE             d eps       ncg     rms          ort
SDA:   1    -0.100603945343E+04    0.63665E-06    0.00000E+00  2880   0.175E-03 0.000E+00
CGA:   2    -0.100603945839E+04   -0.49603E-05   -0.63967E-05  2880   0.137E-04 0.288E-04
CGA:   3    -0.100603945893E+04   -0.54896E-06   -0.80093E-06  2880   0.116E-04 0.786E-05
CGA:   4    -0.100603946092E+04   -0.19818E-05    0.78263E-05  2880   0.880E-05 0.541E-05
  24 F= -.10060395E+04 E0= -.10060238E+04  d E =-.137765E-04  mag=     0.9999
       N       E                     dE             d eps       ncg     rms          ort
SDA:   1    -0.100603944374E+04    0.15192E-04    0.00000E+00  2880   0.358E-03 0.000E+00
CGA:   2    -0.100603946107E+04   -0.17326E-04   -0.16597E-04  2880   0.506E-04-0.242E-04
CGA:   3    -0.100603947118E+04   -0.10107E-04   -0.95383E-05  2880   0.506E-04 0.461E-05
CGA:   4    -0.100603947648E+04   -0.53053E-05   -0.53407E-05  2880   0.246E-04-0.432E-05
  25 F= -.10060395E+04 E0= -.10060238E+04  d E =-.293410E-04  mag=     0.9999
       N       E                     dE             d eps       ncg     rms          ort
SDA:   1    -0.100603777037E+04    0.17008E-02    0.00000E+00  2880   0.425E-01 0.000E+00
CGA:   2    -0.100603939783E+04   -0.16275E-02   -0.16718E-02  2880   0.568E-03-0.106E-02
CGA:   3    -0.100603945180E+04   -0.53969E-04   -0.55433E-04  2880   0.328E-03-0.152E-03
CGA:   4    -0.100603947431E+04   -0.22511E-04   -0.22586E-04  2880   0.196E-03-0.243E-04
CGA:   5    -0.100603949470E+04   -0.20383E-04   -0.19988E-04  2880   0.202E-04 0.200E-04
CGA:   6    -0.100603946413E+04    0.30563E-04   -0.16540E-04  2880   0.110E-02-0.868E-04
CGA:   7    -0.100603950233E+04   -0.38197E-04   -0.42933E-04  2880   0.116E-04 0.412E-04
CGA:   8    -0.100603950221E+04    0.12254E-06   -0.50500E-06  2880   0.411E-05 0.522E-05
  26 F= -.10060395E+04 E0= -.10060238E+04  d E =-.550683E-04  mag=     0.9999
       N       E                     dE             d eps       ncg     rms          ort
SDA:   1    -0.100603923328E+04    0.26905E-03    0.00000E+00  2880   0.253E-02 0.000E+00
CGA:   2    -0.100603934651E+04   -0.11323E-03   -0.11966E-03  2880   0.519E-03 0.678E-04
CGA:   3    -0.100603944532E+04   -0.98808E-04   -0.96987E-04  2880   0.446E-03 0.480E-04
CGA:   4    -0.100603951221E+04   -0.66890E-04   -0.65942E-04  2880   0.311E-03-0.876E-04
CGA:   5    -0.100603952404E+04   -0.11832E-04   -0.13257E-04  2880   0.559E-04 0.141E-04
CGA:   6    -0.100603952522E+04   -0.11771E-05   -0.30619E-05  2880   0.357E-04 0.209E-04
  27 F= -.10060395E+04 E0= -.10060239E+04  d E =-.780815E-04  mag=     0.9999
       N       E                     dE             d eps       ncg     rms          ort
SDA:   1    -0.100603924890E+04    0.27514E-03    0.00000E+00  2880   0.585E-02 0.000E+00
CGA:   2    -0.100603947854E+04   -0.22964E-03   -0.25194E-03  2880   0.208E-03 0.825E-04
CGA:   3    -0.100603949698E+04   -0.18441E-04   -0.19695E-04  2880   0.746E-04 0.354E-04
CGA:   4    -0.100603952258E+04   -0.25591E-04   -0.31929E-04  2880   0.211E-03-0.266E-04
CGA:   5    -0.100603952648E+04   -0.39028E-05   -0.46345E-05  2880   0.668E-04 0.626E-05
  28 F= -.10060395E+04 E0= -.10060239E+04  d E =-.793381E-04  mag=     0.9999
       N       E                     dE             d eps       ncg     rms          ort
SDA:   1    -0.100603917372E+04    0.34886E-03    0.00000E+00  2880   0.324E-02 0.000E+00
CGA:   2    -0.100603935401E+04   -0.18029E-03   -0.18882E-03  2880   0.712E-03 0.112E-03
CGA:   3    -0.100603940682E+04   -0.52816E-04   -0.54797E-04  2880   0.283E-03 0.360E-04
CGA:   4    -0.100603949084E+04   -0.84020E-04   -0.13215E-03  2880   0.262E-03-0.150E-03
CGA:   5    -0.100603950056E+04   -0.97131E-05   -0.13751E-04  2880   0.799E-04 0.450E-04
  29 F= -.10060395E+04 E0= -.10060238E+04  d E =-.534172E-04  mag=     0.9999
       N       E                     dE             d eps       ncg     rms          ort
SDA:   1    -0.100603787312E+04    0.16177E-02    0.00000E+00  2880   0.209E-01 0.000E+00
CGA:   2    -0.100603875517E+04   -0.88205E-03   -0.90851E-03  2880   0.172E-02 0.350E-03
CGA:   3    -0.100603904127E+04   -0.28610E-03   -0.28243E-03  2880   0.165E-02 0.109E-03
CGA:   4    -0.100603928588E+04   -0.24461E-03   -0.24615E-03  2880   0.147E-02-0.153E-03
CGA:   5    -0.100603937045E+04   -0.84573E-04   -0.84387E-04  2880   0.129E-03-0.343E-05
CGA:   6    -0.100603938104E+04   -0.10593E-04   -0.12144E-04  2880   0.110E-03 0.470E-04
CGA:   7    -0.100603939364E+04   -0.12595E-04   -0.13768E-04  2880   0.189E-04 0.344E-04
CGA:   8    -0.100603939744E+04   -0.38040E-05   -0.36866E-05  2880   0.155E-04 0.465E-05
  30 F= -.10060394E+04 E0= -.10060237E+04  d E =0.496965E-04  mag=     0.9999
       N       E                     dE             d eps       ncg     rms          ort
SDA:   1    -0.100603880605E+04    0.58759E-03    0.00000E+00  2880   0.350E-02 0.000E+00
CGA:   2    -0.100603906765E+04   -0.26161E-03   -0.25745E-03  2880   0.184E-02-0.839E-04
CGA:   3    -0.100603928441E+04   -0.21676E-03   -0.21685E-03  2880   0.140E-02-0.764E-04
CGA:   4    -0.100603946129E+04   -0.17688E-03   -0.17572E-03  2880   0.110E-03 0.996E-04
CGA:   5    -0.100603947621E+04   -0.14919E-04   -0.14847E-04  2880   0.110E-03 0.116E-04
CGA:   6    -0.100603949216E+04   -0.15952E-04   -0.25371E-04  2880   0.226E-03-0.108E-03
CGA:   7    -0.100603950004E+04   -0.78799E-05   -0.96050E-05  2880   0.238E-04 0.203E-04
  31 F= -.10060395E+04 E0= -.10060238E+04  d E =-.528976E-04  mag=     0.9999
       N       E                     dE             d eps       ncg     rms          ort
SDA:   1    -0.100603929503E+04    0.19713E-03    0.00000E+00  2880   0.498E-02 0.000E+00
CGA:   2    -0.100603949094E+04   -0.19592E-03   -0.20664E-03  2880   0.834E-04 0.944E-04
CGA:   3    -0.100603950263E+04   -0.11685E-04   -0.13305E-04  2880   0.858E-04-0.406E-04
CGA:   4    -0.100603950745E+04   -0.48161E-05   -0.47897E-05  2880   0.681E-04-0.301E-05
  32 F= -.10060395E+04 E0= -.10060238E+04  d E =-.603058E-04  mag=     0.9999
       N       E                     dE             d eps       ncg     rms          ort
SDA:   1    -0.100603933052E+04    0.17211E-03    0.00000E+00  2880   0.311E-02 0.000E+00
CGA:   2    -0.100603948680E+04   -0.15628E-03   -0.14805E-03  2880   0.229E-03-0.159E-03
CGA:   3    -0.100603950491E+04   -0.18112E-04   -0.16668E-04  2880   0.357E-04-0.440E-04
CGA:   4    -0.100603950733E+04   -0.24174E-05   -0.23483E-05  2880   0.197E-04-0.272E-05
  33 F= -.10060395E+04 E0= -.10060238E+04  d E =-.601864E-04  mag=     0.9999
       N       E                     dE             d eps       ncg     rms          ort
SDA:   1    -0.100603908069E+04    0.42422E-03    0.00000E+00  2880   0.102E-01 0.000E+00
CGA:   2    -0.100603949124E+04   -0.41055E-03   -0.42673E-03  2880   0.406E-03-0.301E-03
CGA:   3    -0.100603951146E+04   -0.20219E-04   -0.22960E-04  2880   0.310E-04 0.543E-04
CGA:   4    -0.100603951198E+04   -0.51886E-06   -0.15296E-05  2880   0.115E-04 0.162E-04
  34 F= -.10060395E+04 E0= -.10060238E+04  d E =-.648405E-04  mag=     0.9999
       N       E                     dE             d eps       ncg     rms          ort
SDA:   1    -0.100603947922E+04    0.32237E-04    0.00000E+00  2880   0.850E-03 0.000E+00
CGA:   2    -0.100603951198E+04   -0.32758E-04   -0.32587E-04  2880   0.130E-04-0.515E-05
CGA:   3    -0.100603951464E+04   -0.26612E-05    0.34203E-04  2880   0.392E-05 0.501E-07
CGA:   4    -0.100603951529E+04   -0.64488E-06   -0.15311E-05  2880   0.162E-04-0.314E-05
  35 F= -.10060395E+04 E0= -.10060238E+04  d E =-.681482E-04  mag=     0.9999
       N       E                     dE             d eps       ncg     rms          ort
SDA:   1    -0.100603947570E+04    0.38944E-04    0.00000E+00  2880   0.868E-03 0.000E+00
CGA:   2    -0.100603951485E+04   -0.39151E-04   -0.36387E-04  2880   0.725E-05-0.539E-04
CGA:   3    -0.100603951511E+04   -0.26316E-06   -0.29257E-06  2880   0.756E-06 0.409E-06
CGA:   4    -0.100603951523E+04   -0.11655E-06   -0.10807E-06  2880   0.593E-06 0.272E-06
  36 F= -.10060395E+04 E0= -.10060238E+04  d E =-.680895E-04  mag=     0.9999
       N       E                     dE             d eps       ncg     rms          ort
SDA:   1    -0.100603950199E+04    0.13120E-04    0.00000E+00  2880   0.317E-03 0.000E+00
CGA:   2    -0.100603951553E+04   -0.13539E-04   -0.12688E-04  2880   0.235E-05-0.175E-04
CGA:   3    -0.100603951563E+04   -0.92812E-07   -0.10578E-06  2880   0.435E-06 0.226E-06
CGA:   4    -0.100603951562E+04    0.66211E-08   -0.17747E-07  2880   0.327E-06 0.389E-06
  37 F= -.10060395E+04 E0= -.10060238E+04  d E =-.684784E-04  mag=     0.9999
       N       E                     dE             d eps       ncg     rms          ort
SDA:   1    -0.100603951229E+04    0.33372E-05    0.00000E+00  2880   0.117E-03 0.000E+00
CGA:   2    -0.100603951587E+04   -0.35792E-05   -0.41178E-05  2880   0.103E-05 0.813E-05
CGA:   3    -0.100603951584E+04    0.29700E-07   -0.21531E-07  2880   0.467E-06 0.684E-06
CGA:   4    -0.100603951582E+04    0.14392E-07   -0.10542E-07  2880   0.309E-06 0.366E-06
  38 F= -.10060395E+04 E0= -.10060238E+04  d E =-.686829E-04  mag=     0.9999
       N       E                     dE             d eps       ncg     rms          ort
SDA:   1    -0.100603951525E+04    0.58872E-06    0.00000E+00  2880   0.170E-04 0.000E+00
CGA:   2    -0.100603951589E+04   -0.63748E-06   -0.63834E-06  2880   0.115E-06-0.108E-06
CGA:   3    -0.100603951592E+04   -0.29599E-07   -0.23050E-07  2880   0.509E-07 0.530E-07
CGA:   4    -0.100603951592E+04   -0.73996E-08   -0.70716E-08  2880   0.404E-07 0.305E-07
  39 F= -.10060395E+04 E0= -.10060238E+04  d E =-.687830E-04  mag=     0.9999
       N       E                     dE             d eps       ncg     rms          ort
SDA:   1    -0.100603951472E+04    0.11928E-05    0.00000E+00  2880   0.232E-04 0.000E+00
CGA:   2    -0.100603951591E+04   -0.11908E-05   -0.10206E-05  2880   0.789E-06-0.405E-05
CGA:   3    -0.100603951595E+04   -0.31527E-07   -0.31859E-07  2880   0.433E-07 0.619E-08
CGA:   4    -0.100603951595E+04   -0.12151E-08   -0.22882E-08  2880   0.304E-07 0.354E-07
  40 F= -.10060395E+04 E0= -.10060238E+04  d E =-.688064E-04  mag=     0.9999
       N       E                     dE             d eps       ncg     rms          ort
SDA:   1    -0.100603620035E+04    0.33156E-02    0.00000E+00  2880   0.185E-01 0.000E+00
CGA:   2    -0.100603728192E+04   -0.10816E-02   -0.10766E-02  2880   0.744E-02-0.154E-03
CGA:   3    -0.100603859937E+04   -0.13174E-02   -0.13292E-02  2880   0.559E-02-0.139E-03
CGA:   4    -0.100603924997E+04   -0.65061E-03   -0.64173E-03  2880   0.507E-03 0.290E-03
CGA:   5    -0.100603935973E+04   -0.10976E-03   -0.12203E-03  2880   0.966E-03-0.887E-04
CGA:   6    -0.100603941114E+04   -0.51412E-04   -0.48140E-04  2880   0.147E-03-0.977E-04
CGA:   7    -0.100603942546E+04   -0.14321E-04   -0.23109E-04  2880   0.344E-03-0.109E-03
CGA:   8    -0.100603943904E+04   -0.13572E-04   -0.15764E-04  2880   0.519E-04 0.401E-04
CGA:   9    -0.100603944115E+04   -0.21182E-05   -0.31532E-05  2880   0.189E-04 0.255E-04
  41 F= -.10060394E+04 E0= -.10060238E+04  d E =0.598626E-05  mag=     0.9999
