       N       E                     dE             d eps       ncg     rms          ort
DAV:   1     0.842991214767E+04    0.84299E+04   -0.24346E+05  8424   0.239E+03
DAV:   2     0.995936385747E+03   -0.74340E+04   -0.69932E+04  8424   0.659E+02
DAV:   3    -0.651991676048E+03   -0.16479E+04   -0.14372E+04  8424   0.287E+02
DAV:   4    -0.821758718109E+03   -0.16977E+03   -0.16658E+03  8424   0.891E+01
DAV:   5    -0.824627023678E+03   -0.28683E+01   -0.28531E+01  8424   0.129E+01
SDA:   6    -0.289095423037E+03    0.53553E+03   -0.28531E+01  8424   0.346E+04 0.000E+00
CGA:   7    -0.614247138147E+03   -0.32515E+03   -0.38387E+03  8424   0.237E+03 0.588E+02
CGA:   8    -0.646504075572E+03   -0.32257E+02   -0.32509E+02  8424   0.685E+02-0.477E+01
CGA:   9    -0.655991592729E+03   -0.94875E+01   -0.98847E+01  8424   0.280E+02 0.252E+01
CGA:  10    -0.660640107634E+03   -0.46485E+01   -0.48394E+01  8424   0.219E+02 0.321E+01
CGA:  11    -0.663678105115E+03   -0.30380E+01   -0.30814E+01  8424   0.681E+01-0.939E+00
CGA:  12    -0.664579132812E+03   -0.90103E+00   -0.91629E+00  8424   0.180E+01 0.327E-01
CGA:  13    -0.664925032562E+03   -0.34590E+00   -0.34573E+00  8424   0.643E+00 0.191E-02
CGA:  14    -0.665035792822E+03   -0.11076E+00   -0.11072E+00  8424   0.304E+00-0.687E-02
CGA:  15    -0.665090150394E+03   -0.54358E-01   -0.54378E-01  8424   0.146E+00 0.393E-02
CGA:  16    -0.665116193926E+03   -0.26044E-01   -0.26097E-01  8424   0.737E-01 0.685E-02
CGA:  17    -0.665133019179E+03   -0.16825E-01   -0.16573E-01  8424   0.272E-01 0.755E-02
CGA:  18    -0.665139832256E+03   -0.68131E-02   -0.66703E-02  8424   0.123E-01 0.383E-02
CGA:  19    -0.665142828067E+03   -0.29958E-02   -0.29574E-02  8424   0.611E-02 0.154E-02
CGA:  20    -0.665144340319E+03   -0.15123E-02   -0.15111E-02  8424   0.446E-02 0.293E-04
CGA:  21    -0.665145354500E+03   -0.10142E-02   -0.10312E-02  8424   0.318E-02-0.449E-03
CGA:  22    -0.665146227186E+03   -0.87269E-03   -0.96151E-03  8424   0.372E-02-0.667E-03
CGA:  23    -0.665147019169E+03   -0.79198E-03   -0.97584E-03  8424   0.455E-02-0.149E-02
CGA:  24    -0.665147646548E+03   -0.62738E-03   -0.78183E-03  8424   0.514E-02-0.208E-02
CGA:  25    -0.665148236220E+03   -0.58967E-03   -0.84501E-03  8424   0.597E-02-0.300E-02
CGA:  26    -0.665149264563E+03   -0.10283E-02   -0.10134E-02  8424   0.453E-02-0.335E-03
CGA:  27    -0.665150514267E+03   -0.12497E-02   -0.13515E-02  8424   0.510E-02-0.993E-03
CGA:  28    -0.665151318572E+03   -0.80430E-03   -0.78713E-03  8424   0.273E-02-0.913E-03
CGA:  29    -0.665149112013E+03    0.22066E-02   -0.14244E-02  8424   0.223E-01-0.479E-02
CGA:  30    -0.665153233299E+03   -0.41213E-02   -0.40711E-02  8424   0.561E-02-0.276E-03
CGA:  31    -0.665154414628E+03   -0.11813E-02   -0.11346E-02  8424   0.201E-02-0.277E-03
CGA:  32    -0.665155214077E+03   -0.79945E-03   -0.84347E-03  8424   0.480E-02-0.670E-03
CGA:  33    -0.665155825467E+03   -0.61139E-03   -0.46559E-03  8424   0.230E-02-0.687E-03
CGA:  34    -0.665156414580E+03   -0.58911E-03   -0.51765E-03  8424   0.344E-02-0.713E-03
CGA:  35    -0.665156808899E+03   -0.39432E-03   -0.27266E-03  8424   0.159E-02-0.535E-03
CGA:  36    -0.665157154650E+03   -0.34575E-03   -0.26384E-03  8424   0.263E-02-0.557E-03
CGA:  37    -0.665157675448E+03   -0.52080E-03   -0.35088E-03  8424   0.367E-02-0.133E-02
CGA:  38    -0.665158375549E+03   -0.70010E-03   -0.63766E-03  8424   0.991E-03-0.390E-03
CGA:  39    -0.665156456988E+03    0.19186E-02   -0.12111E-02  8424   0.314E-01-0.303E-02
CGA:  40    -0.665159493846E+03   -0.30369E-02   -0.30731E-02  8424   0.370E-02-0.428E-03
CGA:  41    -0.665160080983E+03   -0.58714E-03   -0.58085E-03  8424   0.126E-02-0.262E-04
CGA:  42    -0.665160386243E+03   -0.30526E-03   -0.29456E-03  8424   0.381E-03-0.950E-04
CGA:  43    -0.665160651289E+03   -0.26505E-03    0.76709E-03  8424   0.394E-03-0.252E-04
CGA:  44    -0.665161179043E+03   -0.52775E-03    0.60426E-04  8424   0.628E-03 0.136E-03
CGA:  45    -0.665162280939E+03   -0.11019E-02    0.16817E-03  8424   0.992E-03 0.170E-03
CGA:  46    -0.665164233715E+03   -0.19528E-02    0.17924E-03  8424   0.966E-03 0.466E-03
CGA:  47    -0.665166351500E+03   -0.21178E-02    0.21637E-03  8424   0.125E-02 0.415E-03
CGA:  48    -0.665169304204E+03   -0.29527E-02    0.22895E-03  8424   0.239E-02 0.263E-03
CGA:  49    -0.665175664192E+03   -0.63600E-02    0.23406E-03  8424   0.160E-02 0.832E-03
CGA:  50    -0.665180494471E+03   -0.48303E-02    0.16873E-03  8424   0.158E-02 0.190E-03
CGA:  51    -0.665185567398E+03   -0.50729E-02    0.97908E-04  8424   0.110E-02-0.568E-04
CGA:  52    -0.665189093442E+03   -0.35260E-02    0.49217E-04  8424   0.255E-02-0.700E-03
CGA:  53    -0.665189308170E+03   -0.21473E-03   -0.22237E-03  8424   0.301E-03 0.218E-04
CGA:  54    -0.665189385659E+03   -0.77489E-04   -0.78996E-04  8424   0.926E-04 0.199E-04
CGA:  55    -0.665188408644E+03    0.97701E-03   -0.52720E-03  8424   0.740E-02-0.670E-03
CGA:  56    -0.665189440371E+03   -0.10317E-02   -0.10213E-02  8424   0.993E-03-0.108E-04
CGA:  57    -0.665189718791E+03   -0.27842E-03   -0.22844E-03  8424   0.900E-03-0.144E-03
CGA:  58    -0.665189880625E+03   -0.16183E-03   -0.10920E-03  8424   0.105E-03-0.125E-03
CGA:  59    -0.665189916709E+03   -0.36084E-04   -0.28371E-04  8424   0.952E-04-0.338E-04
CGA:  60    -0.665189951646E+03   -0.34936E-04   -0.32905E-04  8424   0.437E-03-0.949E-04
CGA:  61    -0.665190015666E+03   -0.64020E-04   -0.42918E-04  8424   0.745E-04-0.500E-04
CGA:  62    -0.665190130539E+03   -0.11487E-03    0.23567E-04  8424   0.310E-03-0.932E-04
CGA:  63    -0.665190156325E+03   -0.25786E-04   -0.29206E-04  8424   0.475E-04 0.745E-05
CGA:  64    -0.665190169979E+03   -0.13655E-04   -0.11178E-04  8424   0.195E-04-0.975E-05
CGA:  65    -0.665190237349E+03   -0.67370E-04    0.10221E-05  8424   0.279E-04 0.278E-05
CGA:  66    -0.665190400419E+03   -0.16307E-03    0.17262E-05  8424   0.858E-04 0.562E-06
CGA:  67    -0.665190958201E+03   -0.55778E-03    0.36368E-05  8424   0.292E-03-0.157E-04
CGA:  68    -0.665193080260E+03   -0.21221E-02    0.67680E-05  8424   0.378E-03 0.992E-04
CGA:  69    -0.665195912482E+03   -0.28322E-02    0.24560E-04  8424   0.236E-02-0.519E-03
CGA:  70    -0.665196100085E+03   -0.18760E-03   -0.20194E-03  8424   0.182E-03 0.314E-04
CGA:  71    -0.665196117821E+03   -0.17736E-04   -0.28093E-04  8424   0.292E-04 0.341E-04
CGA:  72    -0.665196123645E+03   -0.58234E-05   -0.77822E-05  8424   0.247E-04 0.900E-05
CGA:  73    -0.665196135612E+03   -0.11968E-04   -0.11058E-04  8424   0.557E-04-0.107E-04
CGA:  74    -0.665196149414E+03   -0.13802E-04   -0.13256E-04  8424   0.116E-03-0.928E-04
CGA:  75    -0.665195372417E+03    0.77700E-03   -0.23314E-03  8424   0.628E-02-0.640E-03
CGA:  76    -0.665196179719E+03   -0.80730E-03   -0.83117E-03  8424   0.145E-02 0.551E-04
CGA:  77    -0.665196316933E+03   -0.13721E-03   -0.18191E-03  8424   0.322E-03 0.122E-03
CGA:  78    -0.665196326707E+03   -0.97742E-05   -0.47754E-04  8424   0.542E-04 0.115E-03
   1 F= -.66519633E+03 E0= -.66519406E+03  d E =-.453055E-02  mag=     0.9795
