       N       E                     dE             d eps       ncg     rms          rms(c)
DAV:   1     0.308037357445E+04    0.30804E+04   -0.25846E+05 73100   0.132E+03
DAV:   2    -0.603983797084E+03   -0.36844E+04   -0.35550E+04 87698   0.300E+02
DAV:   3    -0.871656971664E+03   -0.26767E+03   -0.26549E+03 88520   0.852E+01
DAV:   4    -0.875152465482E+03   -0.34955E+01   -0.34820E+01 87760   0.104E+01
DAV:   5    -0.875217028920E+03   -0.64563E-01   -0.64403E-01 89944   0.129E+00    0.988E+01
DAV:   6    -0.782370578087E+03    0.92846E+02   -0.39723E+02 82208   0.318E+01    0.509E+01
DAV:   7    -0.790932657422E+03   -0.85621E+01   -0.24580E+01 83256   0.844E+00    0.175E+01
DAV:   8    -0.794654943543E+03   -0.37223E+01   -0.13168E+01 98528   0.486E+00    0.105E+01
DAV:   9    -0.796476577661E+03   -0.18216E+01   -0.59027E+00 95376   0.359E+00    0.817E+00
DAV:  10    -0.796836229406E+03   -0.35965E+00   -0.21641E+00 96288   0.276E+00    0.544E+00
DAV:  11    -0.797338197063E+03   -0.50197E+00   -0.11762E+00 88064   0.197E+00    0.312E+00
DAV:  12    -0.797623997920E+03   -0.28580E+00   -0.41103E-01 86616   0.130E+00    0.221E+00
DAV:  13    -0.797686880727E+03   -0.62883E-01   -0.69141E-01 97808   0.112E+00    0.318E+00
DAV:  14    -0.797716755802E+03   -0.29875E-01   -0.21314E-01 84184   0.601E-01    0.270E+00
DAV:  15    -0.797701119362E+03    0.15636E-01   -0.93813E-02 99880   0.601E-01    0.101E+00
DAV:  16    -0.797717945168E+03   -0.16826E-01   -0.84502E-02 82384   0.417E-01    0.127E+00
DAV:  17    -0.797713708673E+03    0.42365E-02   -0.18981E-02 85400   0.258E-01    0.538E-01
DAV:  18    -0.797713812172E+03   -0.10350E-03   -0.79005E-03 89576   0.144E-01    0.263E-01
DAV:  19    -0.797714409583E+03   -0.59741E-03   -0.37293E-03 91480   0.885E-02    0.385E-01
DAV:  20    -0.797714182364E+03    0.22722E-03   -0.26269E-03 89704   0.659E-02    0.153E-01
DAV:  21    -0.797714288331E+03   -0.10597E-03   -0.43369E-04 78296   0.445E-02    0.452E-02
DAV:  22    -0.797714341413E+03   -0.53082E-04   -0.12824E-04 85280   0.176E-02    0.603E-02
DAV:  23    -0.797714348743E+03   -0.73299E-05   -0.77038E-05 72400   0.158E-02
   1 F= -.79771435E+03 E0= -.79769663E+03  d E =-.797714E+03  mag=     0.5224
       N       E                     dE             d eps       ncg     rms          rms(c)
DAV:   1    -0.797714308456E+03    0.32957E-04   -0.12503E-02 75288   0.214E-01    0.146E-01
DAV:   2    -0.797714710934E+03   -0.40248E-03   -0.31205E-03106168   0.113E-01    0.497E-01
DAV:   3    -0.797714127560E+03    0.58337E-03   -0.15941E-03 94368   0.837E-02    0.820E-02
DAV:   4    -0.797714261717E+03   -0.13416E-03   -0.34605E-04 77632   0.332E-02    0.394E-02
DAV:   5    -0.797714283498E+03   -0.21782E-04   -0.93718E-05 80032   0.181E-02    0.565E-02
DAV:   6    -0.797714276617E+03    0.68814E-05   -0.27497E-05 56000   0.110E-02
   2 F= -.79771428E+03 E0= -.79769666E+03  d E =0.721261E-04  mag=     0.5211
       N       E                     dE             d eps       ncg     rms          rms(c)
DAV:   1    -0.797714365689E+03   -0.82191E-04   -0.49773E-03 74920   0.134E-01    0.107E-01
DAV:   2    -0.797714534482E+03   -0.16879E-03   -0.10974E-03109800   0.807E-02    0.353E-01
DAV:   3    -0.797714283942E+03    0.25054E-03   -0.56752E-04100840   0.587E-02    0.639E-02
DAV:   4    -0.797714343358E+03   -0.59416E-04   -0.14845E-04 75904   0.230E-02    0.288E-02
DAV:   5    -0.797714347878E+03   -0.45200E-05   -0.55944E-05 71632   0.123E-02
   3 F= -.79771435E+03 E0= -.79769674E+03  d E =0.865362E-06  mag=     0.5245
       N       E                     dE             d eps       ncg     rms          rms(c)
DAV:   1    -0.797714350318E+03   -0.69604E-05   -0.21091E-04 73360   0.275E-02    0.182E-02
DAV:   2    -0.797714353194E+03   -0.28756E-05   -0.36937E-05 59376   0.127E-02    0.414E-02
DAV:   3    -0.797714349191E+03    0.40029E-05   -0.11673E-05 43728   0.844E-03    0.115E-02
DAV:   4    -0.797714349624E+03   -0.43372E-06   -0.60950E-06 41624   0.426E-03
   4 F= -.79771435E+03 E0= -.79769675E+03  d E =-.881464E-06  mag=     0.5244
       N       E                     dE             d eps       ncg     rms          rms(c)
DAV:   1    -0.797714350659E+03   -0.14679E-05   -0.34745E-05 64024   0.112E-02    0.163E-02
DAV:   2    -0.797714353906E+03   -0.32470E-05   -0.23379E-05 51760   0.126E-02    0.515E-02
DAV:   3    -0.797714349166E+03    0.47399E-05   -0.74885E-06 45776   0.848E-03    0.122E-02
DAV:   4    -0.797714349656E+03   -0.49020E-06   -0.30810E-06 39723   0.324E-03
   5 F= -.79771435E+03 E0= -.79769675E+03  d E =-.912973E-06  mag=     0.5247
       N       E                     dE             d eps       ncg     rms          rms(c)
DAV:   1    -0.797714349508E+03   -0.34226E-06   -0.10340E-02 73808   0.193E-01    0.917E-02
DAV:   2    -0.797714539179E+03   -0.18967E-03   -0.78830E-04105824   0.689E-02    0.342E-01
DAV:   3    -0.797714309291E+03    0.22989E-03   -0.37834E-04101544   0.503E-02    0.246E-02
DAV:   4    -0.797714359741E+03   -0.50449E-04   -0.89756E-05 77192   0.162E-02    0.704E-02
DAV:   5    -0.797714349479E+03    0.10261E-04   -0.27115E-05 51822   0.120E-02    0.238E-02
DAV:   6    -0.797714351739E+03   -0.22602E-05   -0.86061E-06 46022   0.526E-03
   6 F= -.79771435E+03 E0= -.79769674E+03  d E =-.208350E-05  mag=     0.5270
       N       E                     dE             d eps       ncg     rms          rms(c)
DAV:   1    -0.797714362758E+03   -0.13279E-04   -0.30256E-03 73808   0.104E-01    0.515E-02
DAV:   2    -0.797714433969E+03   -0.71210E-04   -0.27919E-04104288   0.405E-02    0.202E-01
DAV:   3    -0.797714348836E+03    0.85133E-04   -0.12128E-04 88240   0.297E-02    0.234E-02
DAV:   4    -0.797714366586E+03   -0.17750E-04   -0.43044E-05 73480   0.113E-02    0.456E-02
DAV:   5    -0.797714363222E+03    0.33641E-05   -0.10970E-05 47810   0.717E-03
   7 F= -.79771436E+03 E0= -.79769676E+03  d E =-.135660E-04  mag=     0.5254
       N       E                     dE             d eps       ncg     rms          rms(c)
DAV:   1    -0.797714366764E+03   -0.17834E-06   -0.82177E-03 73808   0.170E-01    0.656E-02
DAV:   2    -0.797714438258E+03   -0.71493E-04   -0.10221E-03 97968   0.517E-02    0.200E-01
DAV:   3    -0.797714338794E+03    0.99464E-04   -0.48964E-04 90104   0.354E-02    0.216E-02
DAV:   4    -0.797714371711E+03   -0.32917E-04   -0.72542E-05 71518   0.135E-02    0.367E-02
DAV:   5    -0.797714370756E+03    0.95552E-06   -0.31372E-05 49850   0.924E-03
   8 F= -.79771437E+03 E0= -.79769676E+03  d E =-.753354E-05  mag=     0.5255
       N       E                     dE             d eps       ncg     rms          rms(c)
DAV:   1    -0.797714374982E+03   -0.32709E-05   -0.94276E-04 73808   0.576E-02    0.324E-02
DAV:   2    -0.797714393375E+03   -0.18393E-04   -0.26870E-04 87832   0.257E-02    0.108E-01
DAV:   3    -0.797714367314E+03    0.26061E-04   -0.13241E-04 65979   0.185E-02    0.111E-02
DAV:   4    -0.797714374547E+03   -0.72332E-05   -0.15750E-05 52521   0.649E-03
   9 F= -.79771437E+03 E0= -.79769676E+03  d E =-.113253E-04  mag=     0.5253
       N       E                     dE             d eps       ncg     rms          rms(c)
DAV:   1    -0.797714378283E+03   -0.10969E-04   -0.61057E-03 73788   0.146E-01    0.513E-02
DAV:   2    -0.797714432079E+03   -0.53796E-04   -0.59575E-04 96176   0.416E-02    0.167E-01
DAV:   3    -0.797714360660E+03    0.71419E-04   -0.25867E-04 83731   0.287E-02    0.241E-02
DAV:   4    -0.797714382667E+03   -0.22007E-04   -0.49395E-05 66956   0.118E-02    0.232E-02
DAV:   5    -0.797714384642E+03   -0.19758E-05   -0.13072E-05 48124   0.721E-03
  10 F= -.79771438E+03 E0= -.79769676E+03  d E =-.100952E-04  mag=     0.5239
