       N       E                     dE             d eps       ncg     rms          ort
DAV:   1     0.281869509199E+04    0.28187E+04   -0.29315E+05  2880   0.140E+03
DAV:   2    -0.965133557010E+03   -0.37838E+04   -0.36573E+04  2880   0.313E+02
DAV:   3    -0.122101829127E+04   -0.25588E+03   -0.25341E+03  2880   0.848E+01
DAV:   4    -0.122401707102E+04   -0.29988E+01   -0.29884E+01  2880   0.975E+00
DAV:   5    -0.122406627043E+04   -0.49199E-01   -0.49095E-01  2880   0.115E+00
SDA:   6    -0.869574239190E+03    0.35449E+03   -0.49095E-01  2880   0.599E+03 0.000E+00
CGA:   7    -0.973779196501E+03   -0.10420E+03   -0.10451E+03  2880   0.963E+02 0.335E+01
CGA:   8    -0.985913451962E+03   -0.12134E+02   -0.13618E+02  2880   0.313E+02 0.794E-01
CGA:   9    -0.992282742391E+03   -0.63693E+01   -0.64866E+01  2880   0.430E+02-0.456E+01
CGA:  10    -0.991993198126E+03    0.28954E+00   -0.23647E+01  2880   0.467E+02-0.270E+02
CGA:  11    -0.995117002619E+03   -0.31238E+01   -0.51364E+01  2880   0.650E+01-0.210E+01
CGA:  12    -0.996358937446E+03   -0.12419E+01   -0.82623E+00  2880   0.338E+01 0.338E+01
CGA:  13    -0.996617145177E+03   -0.25821E+00   -0.14688E+00  2880   0.155E+01 0.225E+01
CGA:  14    -0.996819926348E+03   -0.20278E+00   -0.16655E+00  2880   0.225E+01 0.724E-01
CGA:  15    -0.997317211368E+03   -0.49729E+00   -0.49671E+00  2880   0.371E+01-0.909E-03
CGA:  16    -0.997474707995E+03   -0.15750E+00   -0.25703E+00  2880   0.111E+01-0.915E+00
CGA:  17    -0.997582579496E+03   -0.10787E+00   -0.10788E+00  2880   0.314E+00 0.116E-01
CGA:  18    -0.997649518781E+03   -0.66939E-01   -0.66009E-01  2880   0.193E+00 0.195E-01
CGA:  19    -0.997671927351E+03   -0.22409E-01   -0.22402E-01  2880   0.105E+00 0.546E-02
CGA:  20    -0.997681342899E+03   -0.94155E-02   -0.93211E-02  2880   0.249E-01 0.719E-02
CGA:  21    -0.997687410532E+03   -0.60676E-02   -0.65056E-02  2880   0.590E-01-0.554E-02
CGA:  22    -0.997691507019E+03   -0.40965E-02   -0.43002E-02  2880   0.297E-01 0.382E-02
CGA:  23    -0.997693450300E+03   -0.19433E-02   -0.22164E-02  2880   0.207E-01 0.450E-02
CGA:  24    -0.997695836121E+03   -0.23858E-02   -0.22881E-02  2880   0.104E-01-0.145E-03
CGA:  25    -0.997697092027E+03   -0.12559E-02   -0.10465E-02  2880   0.134E-01-0.420E-02
CGA:  26    -0.997698169537E+03   -0.10775E-02   -0.99907E-03  2880   0.154E-01-0.283E-02
CGA:  27    -0.997698525044E+03   -0.35551E-03   -0.44107E-03  2880   0.501E-02 0.147E-02
CGA:  28    -0.997698604666E+03   -0.79622E-04   -0.18319E-03  2880   0.252E-02 0.119E-02
CGA:  29    -0.997698706602E+03   -0.10194E-03   -0.16087E-03  2880   0.276E-02 0.729E-03
CGA:  30    -0.997698967001E+03   -0.26040E-03   -0.25583E-03  2880   0.279E-02-0.644E-04
CGA:  31    -0.997699168200E+03   -0.20120E-03   -0.15924E-03  2880   0.287E-02-0.594E-03
CGA:  32    -0.997699274294E+03   -0.10609E-03   -0.11350E-03  2880   0.342E-02 0.879E-04
CGA:  33    -0.997699329519E+03   -0.55225E-04   -0.13317E-03  2880   0.217E-02 0.959E-03
CGA:  34    -0.997699328971E+03    0.54751E-06   -0.78784E-04  2880   0.101E-02 0.925E-03
CGA:  35    -0.997699326860E+03    0.21114E-05   -0.43067E-04  2880   0.752E-03 0.548E-03
CGA:  36    -0.997699530500E+03   -0.20364E-03    0.19345E-03  2880   0.378E-03 0.389E-03
CGA:  37    -0.997699541853E+03   -0.11353E-04   -0.23121E-04  2880   0.233E-03 0.236E-03
CGA:  38    -0.997699615301E+03   -0.73448E-04    0.28175E-04  2880   0.137E-03 0.155E-03
CGA:  39    -0.997699630170E+03   -0.14870E-04   -0.14878E-04  2880   0.975E-04 0.868E-04
CGA:  40    -0.997699678742E+03   -0.48571E-04    0.41121E-05  2880   0.817E-04 0.473E-04
CGA:  41    -0.997699708578E+03   -0.29836E-04   -0.47195E-04  2880   0.182E-03-0.613E-04
CGA:  42    -0.997699755680E+03   -0.47102E-04    0.20057E-03  2880   0.375E-03-0.172E-03
CGA:  43    -0.997699751219E+03    0.44615E-05   -0.10281E-04  2880   0.696E-04 0.157E-03
   1 F= -.99769975E+03 E0= -.99768535E+03  d E =-.997700E+03  mag=     2.0000
       N       E                     dE             d eps       ncg     rms          ort
SDA:   1    -0.997704308450E+03   -0.45528E-02    0.00000E+00  2880   0.247E-01 0.000E+00
CGA:   2    -0.997705945338E+03   -0.16369E-02   -0.15305E-02  2880   0.816E-02-0.316E-02
CGA:   3    -0.997707627502E+03   -0.16822E-02   -0.16459E-02  2880   0.390E-02 0.296E-03
CGA:   4    -0.997707844374E+03   -0.21687E-03   -0.23482E-03  2880   0.877E-03 0.350E-03
CGA:   5    -0.997708070108E+03   -0.22573E-03    0.13176E-02  2880   0.352E-03 0.406E-03
CGA:   6    -0.997708092550E+03   -0.22442E-04   -0.35094E-04  2880   0.155E-03 0.279E-03
CGA:   7    -0.997708095966E+03   -0.34157E-05   -0.74037E-04  2880   0.219E-02-0.193E-03
CGA:   8    -0.997708180450E+03   -0.84484E-04   -0.90071E-04  2880   0.642E-04 0.683E-04
CGA:   9    -0.997708178817E+03    0.16330E-05   -0.22741E-05  2880   0.317E-04 0.431E-04
   2 F= -.99770818E+03 E0= -.99769377E+03  d E =-.842760E-02  mag=     2.0000
       N       E                     dE             d eps       ncg     rms          ort
SDA:   1    -0.997659751705E+03    0.48429E-01    0.00000E+00  2880   0.267E+00 0.000E+00
CGA:   2    -0.997687010472E+03   -0.27259E-01   -0.27372E-01  2880   0.259E+00 0.328E-03
CGA:   3    -0.997730451843E+03   -0.43441E-01   -0.43457E-01  2880   0.437E-01-0.508E-03
CGA:   4    -0.997734442718E+03   -0.39909E-02   -0.39868E-02  2880   0.356E-01 0.109E-02
CGA:   5    -0.997739223411E+03   -0.47807E-02   -0.48044E-02  2880   0.701E-02-0.252E-02
CGA:   6    -0.997739700545E+03   -0.47713E-03   -0.54521E-03  2880   0.284E-02 0.180E-02
CGA:   7    -0.997740342981E+03   -0.64244E-03   -0.83022E-03  2880   0.464E-02-0.166E-02
CGA:   8    -0.997740492731E+03   -0.14975E-03   -0.23414E-03  2880   0.927E-03 0.118E-02
CGA:   9    -0.997740610845E+03   -0.11811E-03   -0.11602E-03  2880   0.399E-03-0.994E-04
CGA:  10    -0.997740748703E+03   -0.13786E-03    0.36056E-04  2880   0.536E-03 0.118E-04
CGA:  11    -0.997740787775E+03   -0.39072E-04   -0.47260E-04  2880   0.202E-03 0.231E-03
CGA:  12    -0.997740776538E+03    0.11237E-04   -0.72622E-05  2880   0.946E-04 0.196E-03
CGA:  13    -0.997740772597E+03    0.39411E-05   -0.26976E-05  2880   0.653E-04 0.772E-04
   3 F= -.99774077E+03 E0= -.99772643E+03  d E =-.325938E-01  mag=     2.0000
       N       E                     dE             d eps       ncg     rms          ort
SDA:   1    -0.997582213488E+03    0.15856E+00    0.00000E+00  2880   0.596E+00 0.000E+00
CGA:   2    -0.997643019180E+03   -0.60806E-01   -0.61050E-01  2880   0.533E+00 0.163E-01
CGA:   3    -0.997736565222E+03   -0.93546E-01   -0.93695E-01  2880   0.761E-01-0.143E-02
CGA:   4    -0.997748175421E+03   -0.11610E-01   -0.11702E-01  2880   0.797E-01-0.223E-02
CGA:   5    -0.997754674006E+03   -0.64986E-02   -0.64767E-02  2880   0.150E-01-0.103E-02
CGA:   6    -0.997755793539E+03   -0.11195E-02   -0.11899E-02  2880   0.668E-02 0.245E-02
CGA:   7    -0.997757003345E+03   -0.12098E-02   -0.13279E-02  2880   0.688E-02-0.194E-02
CGA:   8    -0.997757389407E+03   -0.38606E-03   -0.40488E-03  2880   0.247E-02 0.641E-03
CGA:   9    -0.997757577752E+03   -0.18834E-03   -0.20148E-03  2880   0.121E-02 0.346E-03
CGA:  10    -0.997757705147E+03   -0.12740E-03   -0.28973E-03  2880   0.410E-02-0.162E-02
CGA:  11    -0.997757862513E+03   -0.15737E-03   -0.22044E-03  2880   0.732E-03 0.110E-02
CGA:  12    -0.997757921511E+03   -0.58997E-04   -0.65191E-04  2880   0.151E-03 0.160E-03
CGA:  13    -0.997757966715E+03   -0.45205E-04    0.80651E-04  2880   0.202E-03-0.133E-04
CGA:  14    -0.997757995474E+03   -0.28759E-04   -0.27606E-04  2880   0.255E-03 0.283E-04
CGA:  15    -0.997758002078E+03   -0.66047E-05   -0.13486E-04  2880   0.898E-04 0.106E-03
   4 F= -.99775800E+03 E0= -.99774373E+03  d E =-.172295E-01  mag=     2.0000
       N       E                     dE             d eps       ncg     rms          ort
SDA:   1    -0.997741154488E+03    0.16841E-01    0.00000E+00  2880   0.565E-01 0.000E+00
CGA:   2    -0.997751967378E+03   -0.10813E-01   -0.11158E-01  2880   0.108E+00-0.378E-02
CGA:   3    -0.997760161697E+03   -0.81943E-02   -0.81856E-02  2880   0.129E-01 0.617E-03
CGA:   4    -0.997760826199E+03   -0.66450E-03   -0.80697E-03  2880   0.624E-02 0.315E-02
CGA:   5    -0.997761949177E+03   -0.11230E-02   -0.11121E-02  2880   0.331E-02 0.302E-03
CGA:   6    -0.997762326947E+03   -0.37777E-03   -0.37596E-03  2880   0.500E-02-0.286E-02
CGA:   7    -0.997762401915E+03   -0.74968E-04   -0.17053E-03  2880   0.651E-03 0.136E-02
CGA:   8    -0.997762400620E+03    0.12949E-05   -0.27909E-04  2880   0.379E-03 0.411E-03
CGA:   9    -0.997762491549E+03   -0.90929E-04    0.10522E-03  2880   0.213E-03 0.177E-03
CGA:  10    -0.997762512749E+03   -0.21200E-04   -0.24422E-04  2880   0.704E-04 0.137E-03
CGA:  11    -0.997762530581E+03   -0.17831E-04    0.13520E-04  2880   0.586E-04 0.455E-04
CGA:  12    -0.997762530162E+03    0.41877E-06   -0.22797E-05  2880   0.426E-04 0.439E-04
   5 F= -.99776253E+03 E0= -.99774825E+03  d E =-.452808E-02  mag=     2.0000
       N       E                     dE             d eps       ncg     rms          ort
SDA:   1    -0.996806499116E+03    0.95603E+00    0.00000E+00  2880   0.332E+01 0.000E+00
CGA:   2    -0.997177744195E+03   -0.37125E+00   -0.43009E+00  2880   0.313E+01 0.178E+00
CGA:   3    -0.997652330962E+03   -0.47459E+00   -0.45902E+00  2880   0.936E+00-0.982E-01
CGA:   4    -0.997711679172E+03   -0.59348E-01   -0.46053E-01  2880   0.195E+00 0.238E+00
CGA:   5    -0.997740577858E+03   -0.28899E-01   -0.29105E-01  2880   0.355E+00-0.194E-02
CGA:   6    -0.997765450188E+03   -0.24872E-01   -0.25304E-01  2880   0.145E+00-0.118E-01
CGA:   7    -0.997771163023E+03   -0.57128E-02   -0.54401E-02  2880   0.420E-01 0.151E-01
CGA:   8    -0.997773299822E+03   -0.21368E-02   -0.23797E-02  2880   0.340E-01 0.515E-02
CGA:   9    -0.997776305987E+03   -0.30062E-02   -0.31056E-02  2880   0.401E-01 0.212E-02
CGA:  10    -0.997778792962E+03   -0.24870E-02   -0.22437E-02  2880   0.105E-01-0.382E-02
CGA:  11    -0.997779414270E+03   -0.62131E-03   -0.46408E-03  2880   0.540E-02-0.239E-02
CGA:  12    -0.997779922223E+03   -0.50795E-03   -0.51061E-03  2880   0.871E-02 0.177E-03
CGA:  13    -0.997780286670E+03   -0.36445E-03   -0.47732E-03  2880   0.168E-02 0.153E-02
CGA:  14    -0.997780409042E+03   -0.12237E-03   -0.12467E-03  2880   0.136E-02 0.274E-04
CGA:  15    -0.997780485692E+03   -0.76650E-04   -0.44394E-03  2880   0.720E-02-0.190E-02
CGA:  16    -0.997780645915E+03   -0.16022E-03   -0.29555E-03  2880   0.735E-03 0.161E-02
CGA:  17    -0.997780657914E+03   -0.11998E-04   -0.43410E-04  2880   0.445E-03 0.373E-03
CGA:  18    -0.997780806173E+03   -0.14826E-03    0.97055E-04  2880   0.383E-03 0.857E-04
CGA:  19    -0.997780819759E+03   -0.13586E-04   -0.29072E-04  2880   0.983E-04 0.238E-03
CGA:  20    -0.997780815260E+03    0.44999E-05   -0.29155E-05  2880   0.679E-04 0.774E-04
   6 F= -.99778082E+03 E0= -.99776633E+03  d E =-.182851E-01  mag=     2.0000
       N       E                     dE             d eps       ncg     rms          ort
SDA:   1    -0.997717165565E+03    0.63654E-01    0.00000E+00  2880   0.160E+00 0.000E+00
CGA:   2    -0.997760139846E+03   -0.42974E-01   -0.43244E-01  2880   0.266E+00-0.193E-02
CGA:   3    -0.997776765786E+03   -0.16626E-01   -0.16663E-01  2880   0.292E-01-0.409E-03
CGA:   4    -0.997779914469E+03   -0.31487E-02   -0.31950E-02  2880   0.202E-01 0.389E-02
CGA:   5    -0.997782556834E+03   -0.26424E-02   -0.26281E-02  2880   0.737E-02-0.261E-02
CGA:   6    -0.997783044468E+03   -0.48763E-03   -0.52764E-03  2880   0.152E-02 0.113E-02
CGA:   7    -0.997783391330E+03   -0.34686E-03   -0.36148E-03  2880   0.130E-02-0.168E-03
CGA:   8    -0.997783529718E+03   -0.13839E-03   -0.13620E-03  2880   0.998E-03-0.389E-03
CGA:   9    -0.997783532911E+03   -0.31928E-05   -0.26316E-04  2880   0.428E-03 0.271E-03
CGA:  10    -0.997783528160E+03    0.47506E-05   -0.15956E-04  2880   0.211E-03 0.233E-03
CGA:  11    -0.997783583740E+03   -0.55579E-04   -0.82374E-04  2880   0.299E-03-0.972E-04
CGA:  12    -0.997783583137E+03    0.60298E-06   -0.47771E-05  2880   0.150E-03 0.545E-04
   7 F= -.99778358E+03 E0= -.99776901E+03  d E =-.276788E-02  mag=     2.0000
       N       E                     dE             d eps       ncg     rms          ort
SDA:   1    -0.997216370881E+03    0.56721E+00    0.00000E+00  2880   0.143E+02 0.000E+00
CGA:   2    -0.997653641997E+03   -0.43727E+00   -0.79483E+00  2880   0.139E+01-0.222E+01
CGA:   3    -0.997741671609E+03   -0.88030E-01   -0.60650E-01  2880   0.224E+00 0.426E+00
CGA:   4    -0.997752813461E+03   -0.11142E-01   -0.93716E-02  2880   0.720E-01 0.627E-01
CGA:   5    -0.997760263398E+03   -0.74499E-02   -0.73802E-02  2880   0.152E+00-0.113E-02
CGA:   6    -0.997769118355E+03   -0.88550E-02   -0.87197E-02  2880   0.166E+00-0.635E-02
CGA:   7    -0.997774374150E+03   -0.52558E-02   -0.52933E-02  2880   0.793E-01-0.523E-02
CGA:   8    -0.997776876862E+03   -0.25027E-02   -0.26620E-02  2880   0.534E-01 0.422E-02
CGA:   9    -0.997778695784E+03   -0.18189E-02   -0.19932E-02  2880   0.338E-01 0.626E-02
CGA:  10    -0.997779795019E+03   -0.10992E-02   -0.11794E-02  2880   0.170E-01 0.197E-02
CGA:  11    -0.997780656277E+03   -0.86126E-03   -0.81092E-03  2880   0.169E-01-0.193E-02
CGA:  12    -0.997781752021E+03   -0.10957E-02   -0.10063E-02  2880   0.238E-01-0.432E-02
CGA:  13    -0.997782401396E+03   -0.64937E-03   -0.60094E-03  2880   0.154E-01-0.951E-03
CGA:  14    -0.997782646941E+03   -0.24555E-03   -0.33400E-03  2880   0.600E-02 0.214E-02
CGA:  15    -0.997782675854E+03   -0.28913E-04   -0.12897E-03  2880   0.281E-02 0.182E-02
CGA:  16    -0.997782674380E+03    0.14743E-05   -0.74277E-04  2880   0.219E-02 0.134E-02
CGA:  17    -0.997782707189E+03   -0.32809E-04   -0.92022E-04  2880   0.287E-02 0.126E-02
CGA:  18    -0.997783154428E+03   -0.44724E-03    0.17220E-02  2880   0.154E-02 0.400E-03
CGA:  19    -0.997783473904E+03   -0.31948E-03   -0.26673E-03  2880   0.516E-03 0.674E-03
CGA:  20    -0.997783488490E+03   -0.14586E-04   -0.31154E-04  2880   0.263E-03 0.469E-03
CGA:  21    -0.997783528879E+03   -0.40389E-04    0.60162E-03  2880   0.201E-03 0.212E-03
CGA:  22    -0.997783644852E+03   -0.11597E-03   -0.17417E-04  2880   0.131E-03 0.418E-04
CGA:  23    -0.997783659450E+03   -0.14598E-04   -0.30432E-04  2880   0.112E-02-0.290E-03
CGA:  24    -0.997783674527E+03   -0.15077E-04   -0.36667E-04  2880   0.481E-04 0.217E-03
CGA:  25    -0.997783672661E+03    0.18659E-05   -0.11947E-05  2880   0.133E-04 0.269E-04
   8 F= -.99778367E+03 E0= -.99776908E+03  d E =-.895240E-04  mag=     2.0000
       N       E                     dE             d eps       ncg     rms          ort
SDA:   1    -0.997710686782E+03    0.72988E-01    0.00000E+00  2880   0.582E+00 0.000E+00
CGA:   2    -0.997738472461E+03   -0.27786E-01   -0.30406E-01  2880   0.150E+00-0.374E-01
CGA:   3    -0.997770438151E+03   -0.31966E-01   -0.31261E-01  2880   0.119E+00 0.686E-02
CGA:   4    -0.997779839615E+03   -0.94015E-02   -0.91994E-02  2880   0.267E-01-0.120E-01
CGA:   5    -0.997782273545E+03   -0.24339E-02   -0.25128E-02  2880   0.701E-02 0.449E-02
CGA:   6    -0.997783735287E+03   -0.14617E-02   -0.19999E-02  2880   0.208E-01-0.445E-02
CGA:   7    -0.997784261132E+03   -0.52585E-03   -0.74451E-03  2880   0.108E-02 0.346E-02
CGA:   8    -0.997784253468E+03    0.76644E-05   -0.43722E-04  2880   0.554E-03 0.579E-03
CGA:   9    -0.997784360653E+03   -0.10719E-03   -0.29121E-03  2880   0.307E-02-0.451E-03
CGA:  10    -0.997784444070E+03   -0.83417E-04   -0.12022E-03  2880   0.319E-03 0.439E-03
CGA:  11    -0.997784480286E+03   -0.36215E-04   -0.38727E-04  2880   0.333E-03 0.885E-04
CGA:  12    -0.997784536950E+03   -0.56665E-04   -0.56662E-04  2880   0.321E-03-0.279E-03
CGA:  13    -0.997784534164E+03    0.27860E-05   -0.10082E-04  2880   0.744E-04 0.127E-03
   9 F= -.99778453E+03 E0= -.99776988E+03  d E =-.861504E-03  mag=     2.0000
       N       E                     dE             d eps       ncg     rms          ort
SDA:   1    -0.991922661034E+03    0.58619E+01    0.00000E+00  2880   0.447E+02 0.000E+00
CGA:   2    -0.994019015355E+03   -0.20964E+01   -0.30675E+01  2880   0.133E+02-0.346E+00
CGA:   3    -0.996540595865E+03   -0.25216E+01   -0.24666E+01  2880   0.781E+01-0.271E+00
CGA:   4    -0.997332620810E+03   -0.79202E+00   -0.76159E+00  2880   0.201E+01-0.307E+00
CGA:   5    -0.997567142182E+03   -0.23452E+00   -0.23327E+00  2880   0.140E+01-0.283E+00
CGA:   6    -0.997693876071E+03   -0.12673E+00   -0.12810E+00  2880   0.364E+00 0.177E-01
CGA:   7    -0.997718597615E+03   -0.24722E-01   -0.23792E-01  2880   0.963E-01 0.266E-01
CGA:   8    -0.997735907607E+03   -0.17310E-01   -0.17259E-01  2880   0.733E-01 0.275E-03
CGA:   9    -0.997745060682E+03   -0.91531E-02   -0.91546E-02  2880   0.376E-01 0.129E-02
CGA:  10    -0.997748669956E+03   -0.36093E-02   -0.35510E-02  2880   0.115E-01-0.209E-02
CGA:  11    -0.997749788554E+03   -0.11186E-02   -0.11359E-02  2880   0.946E-02 0.127E-02
CGA:  12    -0.997751488053E+03   -0.16995E-02   -0.17134E-02  2880   0.639E-02-0.373E-03
CGA:  13    -0.997751898866E+03   -0.41081E-03   -0.45698E-03  2880   0.154E-02 0.100E-02
CGA:  14    -0.997752231582E+03   -0.33272E-03   -0.70838E-03  2880   0.487E-02-0.133E-02
CGA:  15    -0.997752463118E+03   -0.23154E-03   -0.31545E-03  2880   0.761E-03 0.126E-02
CGA:  16    -0.997752561931E+03   -0.98813E-04   -0.95282E-04  2880   0.263E-03-0.117E-03
CGA:  17    -0.997752582409E+03   -0.20478E-04   -0.23341E-04  2880   0.168E-03 0.122E-03
CGA:  18    -0.997752616587E+03   -0.34178E-04   -0.34155E-04  2880   0.114E-03 0.264E-05
CGA:  19    -0.997752651593E+03   -0.35006E-04    0.38755E-04  2880   0.962E-04 0.418E-04
CGA:  20    -0.997752656119E+03   -0.45266E-05   -0.88406E-05  2880   0.333E-04 0.714E-04
  10 F= -.99775266E+03 E0= -.99773765E+03  d E =0.318780E-01  mag=     2.0000
       N       E                     dE             d eps       ncg     rms          ort
SDA:   1    -0.996681059531E+03    0.10716E+01    0.00000E+00  2880   0.548E+01 0.000E+00
CGA:   2    -0.997019174307E+03   -0.33811E+00   -0.44402E+00  2880   0.327E+01 0.120E+00
CGA:   3    -0.997488692413E+03   -0.46952E+00   -0.48926E+00  2880   0.327E+01-0.459E+00
CGA:   4    -0.997686709927E+03   -0.19802E+00   -0.20796E+00  2880   0.529E+00-0.948E-01
CGA:   5    -0.997730220385E+03   -0.43510E-01   -0.44134E-01  2880   0.252E+00-0.648E-02
CGA:   6    -0.997759630751E+03   -0.29410E-01   -0.29412E-01  2880   0.145E+00 0.704E-02
CGA:   7    -0.997770859507E+03   -0.11229E-01   -0.11203E-01  2880   0.422E-01-0.773E-02
CGA:   8    -0.997774813794E+03   -0.39543E-02   -0.39511E-02  2880   0.182E-01-0.116E-02
CGA:   9    -0.997776518072E+03   -0.17043E-02   -0.17562E-02  2880   0.791E-02 0.405E-02
CGA:  10    -0.997777877796E+03   -0.13597E-02   -0.15182E-02  2880   0.150E-01-0.360E-02
CGA:  11    -0.997778313044E+03   -0.43525E-03   -0.44298E-03  2880   0.915E-02 0.121E-03
CGA:  12    -0.997778489760E+03   -0.17672E-03   -0.28939E-03  2880   0.297E-02 0.159E-02
CGA:  13    -0.997778547500E+03   -0.57740E-04   -0.12958E-03  2880   0.209E-02 0.107E-02
CGA:  14    -0.997778682177E+03   -0.13468E-03   -0.15926E-03  2880   0.186E-02 0.526E-03
CGA:  15    -0.997778909338E+03   -0.22716E-03   -0.21727E-03  2880   0.303E-02-0.129E-02
CGA:  16    -0.997779065065E+03   -0.15573E-03   -0.17484E-03  2880   0.625E-03 0.433E-03
CGA:  17    -0.997779146774E+03   -0.81709E-04   -0.98304E-04  2880   0.668E-03-0.428E-03
CGA:  18    -0.997779164020E+03   -0.17246E-04   -0.31499E-04  2880   0.197E-03 0.268E-03
CGA:  19    -0.997779181221E+03   -0.17202E-04   -0.19201E-04  2880   0.103E-03 0.704E-04
CGA:  20    -0.997779212702E+03   -0.31480E-04    0.40634E-04  2880   0.157E-03 0.308E-04
CGA:  21    -0.997779195880E+03    0.16821E-04   -0.96237E-04  2880   0.679E-03-0.301E-03
CGA:  22    -0.997779204976E+03   -0.90961E-05   -0.28697E-04  2880   0.211E-03 0.271E-03
CGA:  23    -0.997779217404E+03   -0.12427E-04   -0.18200E-04  2880   0.145E-03 0.115E-03
CGA:  24    -0.997779265798E+03   -0.48394E-04    0.14887E-04  2880   0.216E-03-0.210E-04
CGA:  25    -0.997779286193E+03   -0.20395E-04   -0.20331E-04  2880   0.802E-04 0.736E-04
CGA:  26    -0.997779282109E+03    0.40838E-05   -0.20563E-05  2880   0.292E-04 0.683E-04
  11 F= -.99777928E+03 E0= -.99776444E+03  d E =-.266260E-01  mag=     2.0000
       N       E                     dE             d eps       ncg     rms          ort
SDA:   1    -0.997646814537E+03    0.13247E+00    0.00000E+00  2880   0.448E+00 0.000E+00
CGA:   2    -0.997694066030E+03   -0.47251E-01   -0.47266E-01  2880   0.493E+00 0.531E-03
CGA:   3    -0.997764886324E+03   -0.70820E-01   -0.70468E-01  2880   0.118E+00 0.516E-02
CGA:   4    -0.997772297804E+03   -0.74115E-02   -0.74817E-02  2880   0.439E-01 0.728E-02
CGA:   5    -0.997781308990E+03   -0.90112E-02   -0.91980E-02  2880   0.102E-01-0.193E-02
CGA:   6    -0.997782351030E+03   -0.10420E-02   -0.10438E-02  2880   0.920E-02-0.144E-02
CGA:   7    -0.997782832339E+03   -0.48131E-03   -0.53550E-03  2880   0.255E-02 0.142E-02
CGA:   8    -0.997783016856E+03   -0.18452E-03   -0.20617E-03  2880   0.177E-02 0.674E-03
CGA:   9    -0.997783279902E+03   -0.26305E-03   -0.29541E-03  2880   0.143E-02-0.109E-02
CGA:  10    -0.997783357318E+03   -0.77415E-04   -0.91060E-04  2880   0.338E-03 0.341E-03
CGA:  11    -0.997783393996E+03   -0.36678E-04   -0.37171E-04  2880   0.150E-03 0.391E-04
CGA:  12    -0.997783415078E+03   -0.21082E-04   -0.19571E-04  2880   0.123E-03 0.939E-04
CGA:  13    -0.997783444667E+03   -0.29589E-04    0.34280E-04  2880   0.610E-04 0.313E-04
CGA:  14    -0.997783463022E+03   -0.18355E-04   -0.19063E-04  2880   0.171E-03-0.498E-05
CGA:  15    -0.997783484540E+03   -0.21518E-04   -0.21631E-04  2880   0.904E-04-0.414E-05
CGA:  16    -0.997783490753E+03   -0.62133E-05   -0.61146E-05  2880   0.238E-04-0.237E-05
  12 F= -.99778349E+03 E0= -.99776870E+03  d E =-.420864E-02  mag=     2.0000
       N       E                     dE             d eps       ncg     rms          ort
SDA:   1    -0.997766018716E+03    0.17466E-01    0.00000E+00  2880   0.532E-01 0.000E+00
CGA:   2    -0.997772767556E+03   -0.67488E-02   -0.68045E-02  2880   0.731E-01-0.318E-02
CGA:   3    -0.997781808038E+03   -0.90405E-02   -0.89891E-02  2880   0.104E-01 0.230E-02
CGA:   4    -0.997782569585E+03   -0.76155E-03   -0.77144E-03  2880   0.523E-02 0.243E-03
CGA:   5    -0.997783358034E+03   -0.78845E-03   -0.77656E-03  2880   0.113E-02 0.286E-03
CGA:   6    -0.997783504466E+03   -0.14643E-03   -0.33399E-03  2880   0.253E-02-0.107E-02
CGA:   7    -0.997783596756E+03   -0.92291E-04   -0.13292E-03  2880   0.474E-03 0.661E-03
CGA:   8    -0.997783622564E+03   -0.25808E-04   -0.35394E-04  2880   0.108E-03 0.183E-03
CGA:   9    -0.997783114813E+03    0.50775E-03   -0.27585E-03  2880   0.918E-02-0.102E-02
CGA:  10    -0.997783502062E+03   -0.38725E-03   -0.46343E-03  2880   0.106E-02 0.102E-02
CGA:  11    -0.997783612947E+03   -0.11088E-03   -0.11087E-03  2880   0.209E-03-0.143E-04
CGA:  12    -0.997783731130E+03   -0.11818E-03    0.36765E-04  2880   0.872E-03-0.257E-03
CGA:  13    -0.997783704146E+03    0.26984E-04   -0.25964E-04  2880   0.143E-03 0.342E-03
CGA:  14    -0.997783690092E+03    0.14055E-04   -0.34550E-05  2880   0.476E-04 0.108E-03
CGA:  15    -0.997783685334E+03    0.47580E-05   -0.82109E-06  2880   0.277E-04 0.361E-04
  13 F= -.99778369E+03 E0= -.99776887E+03  d E =-.194581E-03  mag=     2.0000
       N       E                     dE             d eps       ncg     rms          ort
SDA:   1    -0.997208594249E+03    0.57510E+00    0.00000E+00  2880   0.167E+01 0.000E+00
CGA:   2    -0.997454414878E+03   -0.24582E+00   -0.24926E+00  2880   0.174E+01 0.212E+00
CGA:   3    -0.997707933577E+03   -0.25352E+00   -0.23312E+00  2880   0.460E+00-0.809E-01
CGA:   4    -0.997747217695E+03   -0.39284E-01   -0.42171E-01  2880   0.213E+00-0.151E-01
CGA:   5    -0.997767002828E+03   -0.19785E-01   -0.19288E-01  2880   0.695E-01 0.594E-02
CGA:   6    -0.997774548279E+03   -0.75455E-02   -0.75488E-02  2880   0.313E-01-0.810E-03
CGA:   7    -0.997777986500E+03   -0.34382E-02   -0.34452E-02  2880   0.102E-01-0.127E-04
CGA:   8    -0.997779166473E+03   -0.11800E-02   -0.11800E-02  2880   0.538E-02 0.302E-06
CGA:   9    -0.997779747442E+03   -0.58097E-03   -0.59084E-03  2880   0.228E-02 0.298E-03
CGA:  10    -0.997780085195E+03   -0.33775E-03   -0.33656E-03  2880   0.342E-02-0.830E-03
CGA:  11    -0.997780225135E+03   -0.13994E-03   -0.16721E-03  2880   0.922E-03 0.431E-03
CGA:  12    -0.997780243206E+03   -0.18071E-04   -0.38678E-04  2880   0.281E-03 0.216E-03
CGA:  13    -0.997780293378E+03   -0.50172E-04   -0.50061E-04  2880   0.772E-03 0.983E-05
CGA:  14    -0.997780377219E+03   -0.83841E-04   -0.72577E-04  2880   0.433E-03-0.263E-03
CGA:  15    -0.997780382355E+03   -0.51361E-05   -0.96420E-05  2880   0.259E-03 0.454E-04
  14 F= -.99778038E+03 E0= -.99776547E+03  d E =0.330298E-02  mag=     2.0000
       N       E                     dE             d eps       ncg     rms          ort
SDA:   1    -0.996773039148E+03    0.10073E+01    0.00000E+00  2880   0.369E+01 0.000E+00
CGA:   2    -0.997091008980E+03   -0.31797E+00   -0.35586E+00  2880   0.294E+01 0.376E+00
CGA:   3    -0.997615592756E+03   -0.52458E+00   -0.56246E+00  2880   0.209E+01-0.591E+00
CGA:   4    -0.997715107686E+03   -0.99515E-01   -0.10981E+00  2880   0.219E+00-0.776E-01
CGA:   5    -0.997753372985E+03   -0.38265E-01   -0.38346E-01  2880   0.173E+00 0.322E-03
CGA:   6    -0.997766166241E+03   -0.12793E-01   -0.12765E-01  2880   0.357E-01-0.112E-01
CGA:   7    -0.997769660319E+03   -0.34941E-02   -0.35542E-02  2880   0.169E-01 0.422E-02
CGA:   8    -0.997772114201E+03   -0.24539E-02   -0.24632E-02  2880   0.147E-01-0.112E-02
CGA:   9    -0.997773285979E+03   -0.11718E-02   -0.11742E-02  2880   0.187E-02 0.233E-03
CGA:  10    -0.997773697865E+03   -0.41189E-03   -0.39229E-03  2880   0.162E-02 0.227E-03
CGA:  11    -0.997773972160E+03   -0.27429E-03   -0.31581E-03  2880   0.287E-02-0.829E-03
CGA:  12    -0.997774048502E+03   -0.76342E-04   -0.11342E-03  2880   0.270E-03 0.467E-03
CGA:  13    -0.997774046564E+03    0.19380E-05   -0.13464E-04  2880   0.204E-03 0.196E-03
CGA:  14    -0.997773898234E+03    0.14833E-03   -0.88337E-04  2880   0.654E-02-0.467E-03
CGA:  15    -0.997774151506E+03   -0.25327E-03   -0.27151E-03  2880   0.246E-03 0.271E-03
CGA:  16    -0.997774145057E+03    0.64485E-05   -0.13565E-04  2880   0.114E-03 0.131E-03
CGA:  17    -0.997774191696E+03   -0.46639E-04    0.32757E-03  2880   0.169E-03-0.141E-04
CGA:  18    -0.997774193340E+03   -0.16441E-05   -0.78105E-05  2880   0.428E-04 0.425E-04
  15 F= -.99777419E+03 E0= -.99775921E+03  d E =0.618901E-02  mag=     2.0000
       N       E                     dE             d eps       ncg     rms          ort
SDA:   1    -0.997690177884E+03    0.84014E-01    0.00000E+00  2880   0.335E+00 0.000E+00
CGA:   2    -0.997717750881E+03   -0.27573E-01   -0.24246E-01  2880   0.190E+00 0.399E-01
CGA:   3    -0.997764221745E+03   -0.46471E-01   -0.46476E-01  2880   0.996E-01-0.878E-04
CGA:   4    -0.997770520162E+03   -0.62984E-02   -0.66212E-02  2880   0.331E-01-0.565E-02
CGA:   5    -0.997774688392E+03   -0.41682E-02   -0.41804E-02  2880   0.124E-01 0.301E-03
CGA:   6    -0.997776500755E+03   -0.18124E-02   -0.18171E-02  2880   0.332E-02 0.125E-03
CGA:   7    -0.997776822664E+03   -0.32191E-03   -0.30663E-03  2880   0.264E-02-0.239E-03
CGA:   8    -0.997777183894E+03   -0.36123E-03   -0.35995E-03  2880   0.766E-03-0.730E-04
CGA:   9    -0.997777189997E+03   -0.61028E-05   -0.38513E-04  2880   0.303E-03 0.290E-03
CGA:  10    -0.997777229783E+03   -0.39786E-04   -0.44601E-04  2880   0.343E-03 0.917E-04
CGA:  11    -0.997776717059E+03    0.51272E-03   -0.23235E-03  2880   0.113E-01-0.206E-02
CGA:  12    -0.997777023538E+03   -0.30648E-03   -0.49265E-03  2880   0.145E-02 0.180E-02
CGA:  13    -0.997777114133E+03   -0.90595E-04   -0.13163E-03  2880   0.771E-03 0.457E-03
CGA:  14    -0.997777272185E+03   -0.15805E-03   -0.14875E-03  2880   0.139E-02-0.537E-03
CGA:  15    -0.997777288143E+03   -0.15958E-04   -0.57402E-04  2880   0.227E-03 0.377E-03
CGA:  16    -0.997777301030E+03   -0.12887E-04   -0.17972E-04  2880   0.919E-04 0.545E-04
CGA:  17    -0.997777358512E+03   -0.57482E-04    0.13246E-04  2880   0.294E-03-0.127E-03
CGA:  18    -0.997777350158E+03    0.83537E-05   -0.90612E-05  2880   0.860E-04 0.143E-03
  16 F= -.99777735E+03 E0= -.99776237E+03  d E =-.315682E-02  mag=     2.0000
       N       E                     dE             d eps       ncg     rms          ort
SDA:   1    -0.997487038167E+03    0.29032E+00    0.00000E+00  2880   0.697E+01 0.000E+00
CGA:   2    -0.997671007459E+03   -0.18397E+00   -0.43809E+00  2880   0.130E+01-0.176E+01
CGA:   3    -0.997740530447E+03   -0.69523E-01   -0.49427E-01  2880   0.255E+00 0.344E+00
CGA:   4    -0.997751671489E+03   -0.11141E-01   -0.88878E-02  2880   0.611E-01 0.892E-01
CGA:   5    -0.997756233097E+03   -0.45616E-02   -0.44375E-02  2880   0.815E-01 0.749E-03
CGA:   6    -0.997762293140E+03   -0.60600E-02   -0.58549E-02  2880   0.157E+00-0.486E-02
CGA:   7    -0.997768466038E+03   -0.61729E-02   -0.59645E-02  2880   0.117E+00-0.607E-02
CGA:   8    -0.997771548205E+03   -0.30822E-02   -0.30474E-02  2880   0.515E-01 0.774E-02
CGA:   9    -0.997772649618E+03   -0.11014E-02   -0.13444E-02  2880   0.236E-01 0.559E-02
CGA:  10    -0.997773170233E+03   -0.52061E-03   -0.74489E-03  2880   0.164E-01 0.302E-02
CGA:  11    -0.997773706725E+03   -0.53649E-03   -0.64208E-03  2880   0.145E-01 0.150E-02
CGA:  12    -0.997774370444E+03   -0.66372E-03   -0.63923E-03  2880   0.122E-01-0.118E-02
CGA:  13    -0.997774976556E+03   -0.60611E-03   -0.48720E-03  2880   0.119E-01-0.261E-02
CGA:  14    -0.997775478198E+03   -0.50164E-03   -0.41637E-03  2880   0.128E-01-0.177E-02
CGA:  15    -0.997775780107E+03   -0.30191E-03   -0.32395E-03  2880   0.703E-02 0.492E-03
CGA:  16    -0.997775859331E+03   -0.79224E-04   -0.14933E-03  2880   0.264E-02 0.131E-02
CGA:  17    -0.997775871385E+03   -0.12054E-04   -0.61797E-04  2880   0.153E-02 0.836E-03
CGA:  18    -0.997775893356E+03   -0.21971E-04   -0.54841E-04  2880   0.182E-02 0.620E-03
CGA:  19    -0.997775995978E+03   -0.10262E-03   -0.11679E-03  2880   0.339E-02 0.426E-03
CGA:  20    -0.997776189529E+03   -0.19355E-03   -0.17174E-03  2880   0.356E-02-0.601E-03
CGA:  21    -0.997776306184E+03   -0.11666E-03   -0.69959E-04  2880   0.221E-02-0.934E-03
CGA:  22    -0.997776375108E+03   -0.68924E-04   -0.39019E-04  2880   0.161E-02-0.636E-03
CGA:  23    -0.997776404116E+03   -0.29008E-04   -0.24467E-04  2880   0.140E-02-0.918E-04
CGA:  24    -0.997776413795E+03   -0.96782E-05   -0.24201E-04  2880   0.106E-02 0.294E-03
CGA:  25    -0.997776411974E+03    0.18207E-05   -0.20806E-04  2880   0.720E-03 0.456E-03
CGA:  26    -0.997776408113E+03    0.38610E-05   -0.16564E-04  2880   0.547E-03 0.433E-03
CGA:  27    -0.997776345177E+03    0.62936E-04   -0.57985E-04  2880   0.557E-02-0.820E-03
CGA:  28    -0.997776578040E+03   -0.23286E-03   -0.25719E-03  2880   0.133E-03 0.339E-03
CGA:  29    -0.997776589132E+03   -0.11092E-04   -0.11811E-04  2880   0.502E-04 0.295E-04
CGA:  30    -0.997776591588E+03   -0.24560E-05   -0.36521E-05  2880   0.206E-04 0.252E-04
CGA:  31    -0.997776596138E+03   -0.45505E-05    0.19447E-04  2880   0.149E-04 0.149E-04
  17 F= -.99777660E+03 E0= -.99776165E+03  d E =0.754020E-03  mag=     2.0000
       N       E                     dE             d eps       ncg     rms          ort
SDA:   1    -0.997701035029E+03    0.75557E-01    0.00000E+00  2880   0.250E+00 0.000E+00
CGA:   2    -0.997725030308E+03   -0.23995E-01   -0.24125E-01  2880   0.259E+00 0.310E-02
CGA:   3    -0.997767059500E+03   -0.42029E-01   -0.41999E-01  2880   0.489E-01 0.136E-02
CGA:   4    -0.997771042355E+03   -0.39829E-02   -0.39094E-02  2880   0.269E-01-0.419E-02
CGA:   5    -0.997774487533E+03   -0.34452E-02   -0.33748E-02  2880   0.347E-02 0.220E-02
CGA:   6    -0.997775037742E+03   -0.55021E-03   -0.64215E-03  2880   0.728E-02-0.145E-02
CGA:   7    -0.997775234758E+03   -0.19702E-03   -0.21893E-03  2880   0.368E-02 0.385E-03
CGA:   8    -0.997775318866E+03   -0.84108E-04   -0.12666E-03  2880   0.127E-02 0.646E-03
CGA:   9    -0.997775379854E+03   -0.60988E-04   -0.74521E-04  2880   0.857E-03 0.255E-03
CGA:  10    -0.997775457644E+03   -0.77791E-04   -0.66818E-04  2880   0.416E-03-0.306E-03
CGA:  11    -0.997774816693E+03    0.64095E-03   -0.35097E-03  2880   0.150E-01-0.150E-02
CGA:  12    -0.997775310952E+03   -0.49426E-03   -0.56755E-03  2880   0.933E-03 0.201E-02
CGA:  13    -0.997775379319E+03   -0.68366E-04   -0.84598E-04  2880   0.830E-03 0.178E-03
CGA:  14    -0.997775529301E+03   -0.14998E-03   -0.13860E-03  2880   0.693E-03-0.396E-03
CGA:  15    -0.997775542385E+03   -0.13085E-04   -0.20586E-04  2880   0.419E-03 0.677E-04
CGA:  16    -0.997775546488E+03   -0.41029E-05   -0.19601E-04  2880   0.155E-03 0.132E-03
  18 F= -.99777555E+03 E0= -.99776060E+03  d E =0.104965E-02  mag=     2.0000
       N       E                     dE             d eps       ncg     rms          ort
SDA:   1    -0.997148070072E+03    0.62747E+00    0.00000E+00  2880   0.579E+01 0.000E+00
CGA:   2    -0.997368729460E+03   -0.22066E+00   -0.35668E+00  2880   0.184E+01-0.994E+00
CGA:   3    -0.997591691495E+03   -0.22296E+00   -0.22304E+00  2880   0.160E+01-0.239E+00
CGA:   4    -0.997725524800E+03   -0.13383E+00   -0.14062E+00  2880   0.271E+00-0.231E-01
CGA:   5    -0.997746297987E+03   -0.20773E-01   -0.20132E-01  2880   0.746E-01 0.232E-01
CGA:   6    -0.997765355839E+03   -0.19058E-01   -0.19846E-01  2880   0.778E-01-0.778E-02
CGA:   7    -0.997768835281E+03   -0.34794E-02   -0.36362E-02  2880   0.921E-02 0.773E-02
CGA:   8    -0.997769648381E+03   -0.81310E-03   -0.93257E-03  2880   0.926E-02 0.249E-02
CGA:   9    -0.997771201049E+03   -0.15527E-02   -0.15419E-02  2880   0.479E-02-0.149E-02
CGA:  10    -0.997771458112E+03   -0.25706E-03   -0.23487E-03  2880   0.139E-02-0.295E-03
CGA:  11    -0.997771603551E+03   -0.14544E-03   -0.15238E-03  2880   0.135E-02 0.410E-03
CGA:  12    -0.997771811071E+03   -0.20752E-03   -0.20062E-03  2880   0.146E-02-0.370E-03
CGA:  13    -0.997771903579E+03   -0.92508E-04   -0.89402E-04  2880   0.414E-03-0.630E-04
CGA:  14    -0.997771908246E+03   -0.46671E-05   -0.15870E-04  2880   0.214E-03 0.124E-03
CGA:  15    -0.997771917351E+03   -0.91045E-05   -0.17088E-04  2880   0.206E-03 0.124E-03
CGA:  16    -0.997771833402E+03    0.83949E-04   -0.71761E-04  2880   0.536E-02-0.686E-03
CGA:  17    -0.997771972221E+03   -0.13882E-03   -0.18878E-03  2880   0.104E-03 0.662E-03
CGA:  18    -0.997771971363E+03    0.85839E-06   -0.32991E-05  2880   0.256E-04 0.414E-04
  19 F= -.99777197E+03 E0= -.99775707E+03  d E =0.357513E-02  mag=     2.0000
       N       E                     dE             d eps       ncg     rms          ort
SDA:   1    -0.991448141294E+03    0.63238E+01    0.00000E+00  2880   0.606E+02 0.000E+00
CGA:   2    -0.994117384345E+03   -0.26692E+01   -0.42337E+01  2880   0.981E+01 0.358E+01
CGA:   3    -0.994230273742E+03   -0.11289E+00   -0.24945E+01  2880   0.413E+02-0.884E+01
CGA:   4    -0.996834328256E+03   -0.26041E+01   -0.31260E+01  2880   0.315E+01-0.565E+01
CGA:   5    -0.991331699698E+03    0.55026E+01   -0.75926E+00  2880   0.190E+03-0.395E+02
CGA:   6    -0.997167957027E+03   -0.58363E+01   -0.13555E+02  2880   0.247E+01-0.746E+01
CGA:   7    -0.996739701520E+03    0.42826E+00   -0.38400E+00  2880   0.285E+02-0.207E+02
CGA:   8    -0.997436382685E+03   -0.69668E+00   -0.18902E+01  2880   0.165E+01-0.324E+01
CGA:   9    -0.997550760318E+03   -0.11438E+00   -0.50475E-01  2880   0.153E+01 0.194E+01
CGA:  10    -0.997623399868E+03   -0.72640E-01   -0.36049E-01  2880   0.977E+00 0.151E+01
CGA:  11    -0.997667833906E+03   -0.44434E-01   -0.28079E-01  2880   0.251E+00 0.534E+00
CGA:  12    -0.997680279497E+03   -0.12446E-01   -0.10912E-01  2880   0.723E-01 0.418E-01
CGA:  13    -0.997698086040E+03   -0.17807E-01   -0.17502E-01  2880   0.313E+00 0.322E-02
CGA:  14    -0.997720827844E+03   -0.22742E-01   -0.22603E-01  2880   0.185E+00-0.424E-02
CGA:  15    -0.997734138236E+03   -0.13310E-01   -0.13543E-01  2880   0.151E+00-0.927E-02
CGA:  16    -0.997741186755E+03   -0.70485E-02   -0.72827E-02  2880   0.287E-01 0.585E-02
CGA:  17    -0.997741984880E+03   -0.79813E-03   -0.11029E-02  2880   0.966E-02 0.472E-02
CGA:  18    -0.997742423233E+03   -0.43835E-03   -0.56569E-03  2880   0.796E-02 0.263E-02
CGA:  19    -0.997743288742E+03   -0.86551E-03   -0.86879E-03  2880   0.126E-01 0.207E-03
CGA:  20    -0.997744321365E+03   -0.10326E-02   -0.97211E-03  2880   0.118E-01-0.258E-02
CGA:  21    -0.997744749285E+03   -0.42792E-03   -0.37896E-03  2880   0.728E-02-0.946E-03
CGA:  22    -0.997745038359E+03   -0.28907E-03   -0.30109E-03  2880   0.582E-02 0.201E-03
CGA:  23    -0.997745296780E+03   -0.25842E-03   -0.28044E-03  2880   0.373E-02 0.479E-03
CGA:  24    -0.997745499004E+03   -0.20222E-03   -0.20447E-03  2880   0.330E-02 0.770E-04
CGA:  25    -0.997745760529E+03   -0.26153E-03   -0.25973E-03  2880   0.415E-02-0.162E-03
CGA:  26    -0.997745918427E+03   -0.15790E-03   -0.15634E-03  2880   0.154E-02-0.353E-04
CGA:  27    -0.997745977989E+03   -0.59562E-04   -0.56949E-04  2880   0.852E-03-0.543E-04
CGA:  28    -0.997746056411E+03   -0.78422E-04   -0.91783E-04  2880   0.211E-02-0.460E-03
CGA:  29    -0.997746162644E+03   -0.10623E-03   -0.11307E-03  2880   0.485E-03 0.236E-03
CGA:  30    -0.997746176099E+03   -0.13454E-04   -0.25827E-04  2880   0.290E-03 0.355E-03
CGA:  31    -0.997746225000E+03   -0.48901E-04   -0.70902E-04  2880   0.121E-02-0.134E-03
CGA:  32    -0.997746280853E+03   -0.55853E-04   -0.54710E-04  2880   0.102E-02-0.225E-03
CGA:  33    -0.997746291631E+03   -0.10778E-04   -0.22789E-04  2880   0.420E-03 0.200E-03
CGA:  34    -0.997746285561E+03    0.60705E-05   -0.10088E-04  2880   0.240E-03 0.249E-03
  20 F= -.99774629E+03 E0= -.99773165E+03  d E =0.256858E-01  mag=     2.0000
       N       E                     dE             d eps       ncg     rms          ort
SDA:   1    -0.995193685684E+03    0.25526E+01    0.00000E+00  2880   0.701E+01 0.000E+00
CGA:   2    -0.996469844039E+03   -0.12762E+01   -0.10718E+01  2880   0.473E+01 0.252E+01
CGA:   3    -0.996981632866E+03   -0.51179E+00   -0.90025E+00  2880   0.178E+02-0.583E+01
CGA:   4    -0.997475273329E+03   -0.49364E+00   -0.84544E+00  2880   0.160E+01-0.267E+01
CGA:   5    -0.997587932047E+03   -0.11266E+00   -0.10880E+00  2880   0.728E+00-0.355E+00
CGA:   6    -0.997704173491E+03   -0.11624E+00   -0.11789E+00  2880   0.543E+00-0.136E-01
CGA:   7    -0.997743434896E+03   -0.39261E-01   -0.39725E-01  2880   0.107E+00 0.647E-02
CGA:   8    -0.997757894124E+03   -0.14459E-01   -0.14206E-01  2880   0.591E-01 0.537E-02
CGA:   9    -0.997764510183E+03   -0.66161E-02   -0.66090E-02  2880   0.303E-01 0.843E-03
CGA:  10    -0.997767563035E+03   -0.30529E-02   -0.30907E-02  2880   0.154E-01-0.505E-02
CGA:  11    -0.997768438184E+03   -0.87515E-03   -0.93388E-03  2880   0.341E-02 0.308E-02
CGA:  12    -0.997769177262E+03   -0.73908E-03   -0.68807E-03  2880   0.409E-02 0.671E-03
CGA:  13    -0.997769718518E+03   -0.54126E-03   -0.57359E-03  2880   0.561E-02-0.156E-02
CGA:  14    -0.997769937119E+03   -0.21860E-03   -0.23561E-03  2880   0.291E-02 0.603E-03
CGA:  15    -0.997770007362E+03   -0.70243E-04   -0.10710E-03  2880   0.794E-03 0.657E-03
CGA:  16    -0.997770074759E+03   -0.67397E-04   -0.69932E-04  2880   0.109E-02 0.127E-03
CGA:  17    -0.997770200350E+03   -0.12559E-03   -0.18489E-03  2880   0.174E-02-0.109E-02
CGA:  18    -0.997770272435E+03   -0.72085E-04   -0.97024E-04  2880   0.340E-03 0.653E-03
CGA:  19    -0.997770291009E+03   -0.18574E-04   -0.24754E-04  2880   0.811E-04 0.159E-03
CGA:  20    -0.997770293416E+03   -0.24077E-05   -0.28971E-04  2880   0.497E-03-0.173E-03
CGA:  21    -0.997770310472E+03   -0.17055E-04   -0.25250E-04  2880   0.992E-04 0.177E-03
CGA:  22    -0.997770322702E+03   -0.12230E-04   -0.12126E-04  2880   0.381E-04-0.195E-04
CGA:  23    -0.997770342665E+03   -0.19963E-04    0.60198E-06  2880   0.413E-04 0.190E-05
CGA:  24    -0.997770352599E+03   -0.99349E-05    0.10147E-04  2880   0.345E-04 0.252E-04
  21 F= -.99777035E+03 E0= -.99775554E+03  d E =-.240670E-01  mag=     2.0000
       N       E                     dE             d eps       ncg     rms          ort
SDA:   1    -0.989038180506E+03    0.87322E+01    0.00000E+00  2880   0.290E+02 0.000E+00
CGA:   2    -0.992371400006E+03   -0.33332E+01   -0.30821E+01  2880   0.172E+02 0.974E+01
CGA:   3    -0.995747072528E+03   -0.33757E+01   -0.41363E+01  2880   0.321E+02-0.768E+01
CGA:   4    -0.996543496433E+03   -0.79642E+00   -0.80062E+00  2880   0.127E+02-0.347E+00
CGA:   5    -0.996952492570E+03   -0.40900E+00   -0.55602E+00  2880   0.328E+01-0.921E+00
CGA:   6    -0.997155100695E+03   -0.20261E+00   -0.16871E+00  2880   0.312E+01 0.170E+00
CGA:   7    -0.997427298904E+03   -0.27220E+00   -0.26715E+00  2880   0.387E+01-0.215E+00
CGA:   8    -0.997516405195E+03   -0.89106E-01   -0.91775E-01  2880   0.202E+01-0.110E+00
CGA:   9    -0.997574656831E+03   -0.58252E-01   -0.73422E-01  2880   0.106E+01-0.302E+00
CGA:  10    -0.997614558825E+03   -0.39902E-01   -0.45296E-01  2880   0.680E+00-0.347E-01
CGA:  11    -0.997648945826E+03   -0.34387E-01   -0.34282E-01  2880   0.374E+00 0.266E-01
CGA:  12    -0.997679586320E+03   -0.30640E-01   -0.30633E-01  2880   0.442E+00 0.131E-01
CGA:  13    -0.997704948860E+03   -0.25363E-01   -0.24778E-01  2880   0.394E+00-0.131E-02
CGA:  14    -0.997723345923E+03   -0.18397E-01   -0.17964E-01  2880   0.161E+00-0.245E-01
CGA:  15    -0.997729548445E+03   -0.62025E-02   -0.61303E-02  2880   0.779E-01-0.993E-02
CGA:  16    -0.997733461325E+03   -0.39129E-02   -0.39843E-02  2880   0.816E-01 0.569E-02
CGA:  17    -0.997739025281E+03   -0.55640E-02   -0.56570E-02  2880   0.789E-01 0.102E-01
CGA:  18    -0.997743713786E+03   -0.46885E-02   -0.47266E-02  2880   0.452E-01-0.131E-02
CGA:  19    -0.997746703858E+03   -0.29901E-02   -0.29312E-02  2880   0.285E-01-0.969E-02
CGA:  20    -0.997747831345E+03   -0.11275E-02   -0.11303E-02  2880   0.143E-01 0.320E-03
CGA:  21    -0.997748224166E+03   -0.39282E-03   -0.52132E-03  2880   0.773E-02 0.388E-02
CGA:  22    -0.997748566634E+03   -0.34247E-03   -0.42534E-03  2880   0.660E-02 0.322E-02
CGA:  23    -0.997749282553E+03   -0.71592E-03   -0.71145E-03  2880   0.866E-02 0.575E-03
CGA:  24    -0.997749954355E+03   -0.67180E-03   -0.69136E-03  2880   0.698E-02-0.418E-02
CGA:  25    -0.997750074649E+03   -0.12029E-03   -0.10350E-03  2880   0.457E-02-0.450E-03
CGA:  26    -0.997750149944E+03   -0.75295E-04   -0.10882E-03  2880   0.269E-02 0.834E-03
CGA:  27    -0.997750188549E+03   -0.38605E-04   -0.83178E-04  2880   0.205E-02 0.114E-02
CGA:  28    -0.997750246728E+03   -0.58178E-04   -0.91294E-04  2880   0.159E-02 0.104E-02
CGA:  29    -0.997750453689E+03   -0.20696E-03    0.75578E-03  2880   0.677E-03 0.361E-03
CGA:  30    -0.997750626299E+03   -0.17261E-03   -0.49115E-05  2880   0.102E-02-0.439E-03
CGA:  31    -0.997750664562E+03   -0.38263E-04   -0.56213E-04  2880   0.323E-03 0.315E-03
CGA:  32    -0.997750720241E+03   -0.55679E-04   -0.54198E-04  2880   0.198E-03 0.738E-04
CGA:  33    -0.997750743119E+03   -0.22878E-04   -0.21558E-04  2880   0.940E-04-0.647E-04
CGA:  34    -0.997750741181E+03    0.19380E-05   -0.18514E-05  2880   0.685E-04 0.475E-04
  22 F= -.99775074E+03 E0= -.99773584E+03  d E =0.196114E-01  mag=     2.0000
       N       E                     dE             d eps       ncg     rms          ort
SDA:   1    -0.994597257634E+03    0.31535E+01    0.00000E+00  2880   0.261E+02 0.000E+00
CGA:   2    -0.995707577227E+03   -0.11103E+01   -0.16600E+01  2880   0.622E+01 0.123E+01
CGA:   3    -0.996376983514E+03   -0.66941E+00   -0.14555E+01  2880   0.299E+02-0.616E+01
CGA:   4    -0.997306586667E+03   -0.92960E+00   -0.17349E+01  2880   0.207E+01-0.353E+01
CGA:   5    -0.997507950819E+03   -0.20136E+00   -0.17458E+00  2880   0.143E+01-0.132E+01
CGA:   6    -0.997577742624E+03   -0.69792E-01   -0.81512E-01  2880   0.477E+00-0.936E-01
CGA:   7    -0.997716984770E+03   -0.13924E+00   -0.15548E+00  2880   0.106E+01-0.864E-01
CGA:   8    -0.997761902003E+03   -0.44917E-01   -0.49571E-01  2880   0.632E-01-0.595E-01
CGA:   9    -0.997769371376E+03   -0.74694E-02   -0.74456E-02  2880   0.177E-01 0.244E-02
CGA:  10    -0.997773252036E+03   -0.38807E-02   -0.39731E-02  2880   0.133E-01-0.861E-03
CGA:  11    -0.997774126795E+03   -0.87476E-03   -0.89776E-03  2880   0.506E-02 0.658E-03
CGA:  12    -0.997775210383E+03   -0.10836E-02   -0.12862E-02  2880   0.873E-02-0.160E-02
CGA:  13    -0.997775584654E+03   -0.37427E-03   -0.40755E-03  2880   0.450E-02 0.656E-03
CGA:  14    -0.997775873661E+03   -0.28901E-03   -0.31893E-03  2880   0.168E-02 0.619E-03
CGA:  15    -0.997776016200E+03   -0.14254E-03   -0.12956E-03  2880   0.603E-03-0.271E-03
CGA:  16    -0.997776123263E+03   -0.10706E-03   -0.98398E-04  2880   0.687E-03 0.107E-03
CGA:  17    -0.997776168889E+03   -0.45626E-04   -0.57289E-04  2880   0.220E-03 0.255E-03
CGA:  18    -0.997776209483E+03   -0.40594E-04   -0.69486E-04  2880   0.621E-03-0.250E-03
CGA:  19    -0.997776242594E+03   -0.33111E-04   -0.39512E-04  2880   0.144E-03 0.115E-03
CGA:  20    -0.997776260324E+03   -0.17729E-04   -0.17130E-04  2880   0.519E-04-0.326E-04
CGA:  21    -0.997776258659E+03    0.16648E-05   -0.12025E-05  2880   0.402E-04 0.330E-04
  23 F= -.99777626E+03 E0= -.99776144E+03  d E =-.255175E-01  mag=     2.0000
       N       E                     dE             d eps       ncg     rms          ort
SDA:   1    -0.996730645511E+03    0.10456E+01    0.00000E+00  2880   0.303E+01 0.000E+00
CGA:   2    -0.997146749251E+03   -0.41610E+00   -0.41041E+00  2880   0.423E+01 0.151E+00
CGA:   3    -0.997645793070E+03   -0.49904E+00   -0.49852E+00  2880   0.520E+00 0.206E+00
CGA:   4    -0.997702869242E+03   -0.57076E-01   -0.56267E-01  2880   0.466E+00-0.317E-01
CGA:   5    -0.997745629134E+03   -0.42760E-01   -0.42688E-01  2880   0.213E+00-0.945E-02
CGA:   6    -0.997759426118E+03   -0.13797E-01   -0.14439E-01  2880   0.702E-01-0.848E-02
CGA:   7    -0.997764488711E+03   -0.50626E-02   -0.52348E-02  2880   0.217E-01 0.616E-02
CGA:   8    -0.997766750603E+03   -0.22619E-02   -0.22692E-02  2880   0.214E-01 0.655E-03
CGA:   9    -0.997769358080E+03   -0.26075E-02   -0.26223E-02  2880   0.446E-02-0.116E-02
CGA:  10    -0.997769692523E+03   -0.33444E-03   -0.34097E-03  2880   0.347E-02 0.276E-03
CGA:  11    -0.997770271871E+03   -0.57935E-03   -0.61373E-03  2880   0.316E-02-0.574E-03
CGA:  12    -0.997770445571E+03   -0.17370E-03   -0.18698E-03  2880   0.114E-02 0.350E-03
CGA:  13    -0.997770546416E+03   -0.10084E-03   -0.10404E-03  2880   0.537E-03 0.135E-03
CGA:  14    -0.997770614466E+03   -0.68049E-04   -0.71026E-04  2880   0.833E-03-0.232E-03
CGA:  15    -0.997770641163E+03   -0.26697E-04   -0.32145E-04  2880   0.866E-03 0.143E-03
CGA:  16    -0.997770674065E+03   -0.32902E-04   -0.46403E-04  2880   0.230E-03 0.234E-03
CGA:  17    -0.997770705590E+03   -0.31525E-04   -0.41206E-04  2880   0.410E-03-0.243E-03
CGA:  18    -0.997770730680E+03   -0.25090E-04   -0.25217E-04  2880   0.825E-04 0.365E-05
CGA:  19    -0.997770732355E+03   -0.16749E-05   -0.41098E-05  2880   0.350E-04 0.471E-04
CGA:  20    -0.997770693982E+03    0.38374E-04   -0.21170E-04  2880   0.133E-02-0.115E-03
CGA:  21    -0.997770749854E+03   -0.55872E-04   -0.61440E-04  2880   0.240E-04 0.427E-04
CGA:  22    -0.997770748105E+03    0.17493E-05   -0.73469E-06  2880   0.131E-04 0.173E-04
  24 F= -.99777075E+03 E0= -.99775593E+03  d E =0.551055E-02  mag=     2.0000
       N       E                     dE             d eps       ncg     rms          ort
SDA:   1    -0.997705060613E+03    0.65689E-01    0.00000E+00  2880   0.222E+00 0.000E+00
CGA:   2    -0.997729820710E+03   -0.24760E-01   -0.25778E-01  2880   0.248E+00-0.156E-02
CGA:   3    -0.997762138852E+03   -0.32318E-01   -0.32353E-01  2880   0.677E-01-0.515E-03
CGA:   4    -0.997765652171E+03   -0.35133E-02   -0.37747E-02  2880   0.194E-01 0.798E-02
CGA:   5    -0.997770183233E+03   -0.45311E-02   -0.45790E-02  2880   0.159E-01-0.808E-03
CGA:   6    -0.997771106541E+03   -0.92331E-03   -0.84325E-03  2880   0.414E-02-0.185E-02
CGA:   7    -0.997771472968E+03   -0.36643E-03   -0.40261E-03  2880   0.177E-02 0.903E-03
CGA:   8    -0.997771723370E+03   -0.25040E-03   -0.24414E-03  2880   0.177E-02-0.183E-03
CGA:   9    -0.997771913145E+03   -0.18978E-03   -0.16990E-03  2880   0.779E-03-0.514E-03
CGA:  10    -0.997771906588E+03    0.65565E-05   -0.20533E-04  2880   0.406E-03 0.256E-03
CGA:  11    -0.997771900594E+03    0.59942E-05   -0.20555E-04  2880   0.292E-03 0.264E-03
CGA:  12    -0.997771995773E+03   -0.95179E-04    0.88777E-04  2880   0.289E-03 0.270E-04
CGA:  13    -0.997771994902E+03    0.87164E-06   -0.14613E-04  2880   0.915E-04 0.177E-03
  25 F= -.99777199E+03 E0= -.99775709E+03  d E =-.124680E-02  mag=     2.0000
       N       E                     dE             d eps       ncg     rms          ort
SDA:   1    -0.997693449483E+03    0.78546E-01    0.00000E+00  2880   0.195E+00 0.000E+00
CGA:   2    -0.997749873277E+03   -0.56424E-01   -0.57353E-01  2880   0.302E+00-0.497E-02
CGA:   3    -0.997765820693E+03   -0.15947E-01   -0.15109E-01  2880   0.299E-01 0.329E-01
CGA:   4    -0.997769138894E+03   -0.33182E-02   -0.34250E-02  2880   0.347E-01 0.464E-02
CGA:   5    -0.997773078996E+03   -0.39401E-02   -0.38459E-02  2880   0.876E-02-0.339E-02
CGA:   6    -0.997773756216E+03   -0.67722E-03   -0.63230E-03  2880   0.473E-02-0.125E-02
CGA:   7    -0.997774097203E+03   -0.34099E-03   -0.37685E-03  2880   0.153E-02 0.117E-02
CGA:   8    -0.997774253970E+03   -0.15677E-03   -0.16337E-03  2880   0.113E-02 0.191E-03
CGA:   9    -0.997774409724E+03   -0.15575E-03   -0.15679E-03  2880   0.421E-03-0.371E-03
CGA:  10    -0.997774460188E+03   -0.50463E-04   -0.60850E-04  2880   0.326E-03-0.110E-03
CGA:  11    -0.997774455816E+03    0.43716E-05   -0.88294E-05  2880   0.189E-03 0.150E-03
CGA:  12    -0.997774455666E+03    0.15004E-06   -0.11358E-04  2880   0.121E-03 0.146E-03
  26 F= -.99777446E+03 E0= -.99775959E+03  d E =-.246076E-02  mag=     2.0000
       N       E                     dE             d eps       ncg     rms          ort
SDA:   1    -0.995967465731E+03    0.18070E+01    0.00000E+00  2880   0.615E+01 0.000E+00
CGA:   2    -0.996599415015E+03   -0.63195E+00   -0.65807E+00  2880   0.507E+01 0.114E+01
CGA:   3    -0.997425001284E+03   -0.82559E+00   -0.89043E+00  2880   0.473E+01-0.145E+01
CGA:   4    -0.997642798694E+03   -0.21780E+00   -0.23488E+00  2880   0.507E+00-0.105E+00
CGA:   5    -0.997706575726E+03   -0.63777E-01   -0.64671E-01  2880   0.635E+00-0.357E-01
CGA:   6    -0.997752456076E+03   -0.45880E-01   -0.45061E-01  2880   0.101E+00 0.370E-02
CGA:   7    -0.997762396812E+03   -0.99407E-02   -0.99878E-02  2880   0.628E-01-0.256E-02
CGA:   8    -0.997767458454E+03   -0.50616E-02   -0.51894E-02  2880   0.285E-01 0.423E-02
CGA:   9    -0.997770725318E+03   -0.32669E-02   -0.32804E-02  2880   0.179E-01 0.380E-02
CGA:  10    -0.997772739144E+03   -0.20138E-02   -0.19304E-02  2880   0.801E-02-0.524E-02
CGA:  11    -0.997773454765E+03   -0.71562E-03   -0.70511E-03  2880   0.389E-02 0.763E-03
CGA:  12    -0.997773652633E+03   -0.19787E-03   -0.26505E-03  2880   0.156E-02 0.136E-02
CGA:  13    -0.997774021683E+03   -0.36905E-03   -0.40117E-03  2880   0.239E-02-0.391E-03
CGA:  14    -0.997774149507E+03   -0.12782E-03   -0.12292E-03  2880   0.147E-02-0.113E-03
CGA:  15    -0.997774208676E+03   -0.59168E-04   -0.73515E-04  2880   0.763E-03 0.255E-03
CGA:  16    -0.997774254317E+03   -0.45642E-04   -0.51031E-04  2880   0.377E-03 0.108E-03
CGA:  17    -0.997772874537E+03    0.13798E-02   -0.75199E-03  2880   0.231E-01-0.289E-02
CGA:  18    -0.997773954832E+03   -0.10803E-02   -0.12563E-02  2880   0.286E-02 0.195E-02
CGA:  19    -0.997774206123E+03   -0.25129E-03   -0.27641E-03  2880   0.446E-03 0.326E-03
CGA:  20    -0.997770021813E+03    0.41843E-02   -0.23679E-02  2880   0.871E-01-0.472E-02
CGA:  21    -0.997773500873E+03   -0.34791E-02   -0.32571E-02  2880   0.773E-02 0.231E-01
CGA:  22    -0.997773756058E+03   -0.25518E-03   -0.41986E-03  2880   0.228E-02 0.132E-02
CGA:  23    -0.997774045947E+03   -0.28989E-03   -0.30265E-03  2880   0.227E-02 0.443E-04
CGA:  24    -0.997774317471E+03   -0.27152E-03   -0.17669E-03  2880   0.110E-02-0.481E-03
CGA:  25    -0.997774391327E+03   -0.73856E-04   -0.76646E-04  2880   0.719E-03 0.209E-04
CGA:  26    -0.997774388186E+03    0.31405E-05   -0.31281E-04  2880   0.147E-03 0.162E-03
  27 F= -.99777439E+03 E0= -.99775969E+03  d E =0.674794E-04  mag=     2.0000
       N       E                     dE             d eps       ncg     rms          ort
SDA:   1    -0.997387940411E+03    0.38645E+00    0.00000E+00  2880   0.102E+01 0.000E+00
CGA:   2    -0.997578783872E+03   -0.19084E+00   -0.19975E+00  2880   0.166E+01 0.404E-01
CGA:   3    -0.997729857575E+03   -0.15107E+00   -0.15389E+00  2880   0.296E+00-0.372E-02
CGA:   4    -0.997748650769E+03   -0.18793E-01   -0.16417E-01  2880   0.881E-01 0.628E-01
CGA:   5    -0.997762363468E+03   -0.13713E-01   -0.13441E-01  2880   0.123E+00 0.704E-03
CGA:   6    -0.997770373948E+03   -0.80105E-02   -0.78335E-02  2880   0.308E-01-0.882E-02
CGA:   7    -0.997772249909E+03   -0.18760E-02   -0.20245E-02  2880   0.177E-01 0.109E-02
CGA:   8    -0.997773305985E+03   -0.10561E-02   -0.12339E-02  2880   0.817E-02 0.163E-02
CGA:   9    -0.997774425524E+03   -0.11195E-02   -0.10382E-02  2880   0.946E-02-0.112E-02
CGA:  10    -0.997775034959E+03   -0.60943E-03   -0.54341E-03  2880   0.323E-02-0.546E-03
CGA:  11    -0.997775075091E+03   -0.40132E-04   -0.11805E-03  2880   0.122E-02 0.659E-03
CGA:  12    -0.997775076405E+03   -0.13140E-05   -0.68553E-04  2880   0.104E-02 0.510E-03
CGA:  13    -0.997775197225E+03   -0.12082E-03   -0.14231E-03  2880   0.139E-02 0.273E-03
CGA:  14    -0.997775423473E+03   -0.22625E-03   -0.15064E-03  2880   0.566E-03-0.889E-03
CGA:  15    -0.997775416813E+03    0.66604E-05   -0.26632E-04  2880   0.220E-03 0.275E-03
CGA:  16    -0.997775421048E+03   -0.42352E-05   -0.20476E-04  2880   0.162E-03 0.163E-03
CGA:  17    -0.997775509689E+03   -0.88641E-04    0.17103E-04  2880   0.361E-03-0.685E-04
CGA:  18    -0.997775525992E+03   -0.16303E-04   -0.18376E-04  2880   0.266E-03 0.302E-04
CGA:  19    -0.997775512837E+03    0.13156E-04   -0.61143E-05  2880   0.928E-04 0.146E-03
CGA:  20    -0.997775505938E+03    0.68984E-05   -0.16716E-05  2880   0.498E-04 0.664E-04
  28 F= -.99777551E+03 E0= -.99776066E+03  d E =-.111775E-02  mag=     2.0000
       N       E                     dE             d eps       ncg     rms          ort
SDA:   1    -0.995332728518E+03    0.24428E+01    0.00000E+00  2880   0.945E+01 0.000E+00
CGA:   2    -0.996210729973E+03   -0.87800E+00   -0.10173E+01  2880   0.615E+01 0.172E+01
CGA:   3    -0.997317213140E+03   -0.11065E+01   -0.11244E+01  2880   0.362E+01-0.646E+00
CGA:   4    -0.997627094245E+03   -0.30988E+00   -0.29622E+00  2880   0.594E+00 0.714E-02
CGA:   5    -0.997699101913E+03   -0.72008E-01   -0.71147E-01  2880   0.434E+00-0.249E-01
CGA:   6    -0.997745693395E+03   -0.46591E-01   -0.46627E-01  2880   0.113E+00-0.819E-02
CGA:   7    -0.997754452369E+03   -0.87590E-02   -0.91320E-02  2880   0.333E-01 0.987E-02
CGA:   8    -0.997760027350E+03   -0.55750E-02   -0.56533E-02  2880   0.367E-01-0.339E-02
CGA:   9    -0.997763031261E+03   -0.30039E-02   -0.30577E-02  2880   0.105E-01 0.222E-02
CGA:  10    -0.997763959222E+03   -0.92796E-03   -0.95242E-03  2880   0.371E-02 0.905E-03
CGA:  11    -0.997764468561E+03   -0.50934E-03   -0.10725E-02  2880   0.182E-01-0.402E-02
CGA:  12    -0.997765093718E+03   -0.62516E-03   -0.85687E-03  2880   0.199E-02 0.303E-02
CGA:  13    -0.997765230047E+03   -0.13633E-03   -0.16384E-03  2880   0.701E-03 0.496E-03
CGA:  14    -0.997765335187E+03   -0.10514E-03   -0.17240E-03  2880   0.300E-02-0.942E-03
CGA:  15    -0.997765423253E+03   -0.88066E-04   -0.14762E-03  2880   0.510E-03 0.796E-03
CGA:  16    -0.997765481889E+03   -0.58636E-04   -0.58664E-04  2880   0.274E-03 0.627E-06
CGA:  17    -0.997765581427E+03   -0.99538E-04    0.36025E-04  2880   0.445E-03-0.474E-04
CGA:  18    -0.997765543535E+03    0.37892E-04   -0.20486E-03  2880   0.264E-02-0.557E-03
CGA:  19    -0.997765595993E+03   -0.52458E-04   -0.10979E-03  2880   0.296E-03 0.603E-03
CGA:  20    -0.997765592110E+03    0.38829E-05   -0.14525E-04  2880   0.171E-03 0.186E-03
CGA:  21    -0.997765359459E+03    0.23265E-03   -0.12910E-03  2880   0.605E-02-0.522E-03
CGA:  22    -0.997765618921E+03   -0.25946E-03   -0.31355E-03  2880   0.625E-03 0.426E-03
CGA:  23    -0.997765655757E+03   -0.36836E-04   -0.50764E-04  2880   0.944E-04 0.824E-04
CGA:  24    -0.997765734356E+03   -0.78599E-04    0.19883E-04  2880   0.693E-03-0.214E-03
CGA:  25    -0.997765709858E+03    0.24498E-04   -0.23134E-04  2880   0.108E-03 0.254E-03
CGA:  26    -0.997765698107E+03    0.11751E-04   -0.32282E-05  2880   0.378E-04 0.769E-04
CGA:  27    -0.997765694922E+03    0.31845E-05   -0.12449E-05  2880   0.180E-04 0.253E-04
  29 F= -.99776569E+03 E0= -.99775079E+03  d E =0.981102E-02  mag=     2.0000
       N       E                     dE             d eps       ncg     rms          ort
SDA:   1    -0.997314313788E+03    0.45138E+00    0.00000E+00  2880   0.244E+01 0.000E+00
CGA:   2    -0.997442594686E+03   -0.12828E+00   -0.18633E+00  2880   0.172E+01-0.462E+00
CGA:   3    -0.997668812386E+03   -0.22622E+00   -0.22239E+00  2880   0.953E+00-0.351E-01
CGA:   4    -0.997729187396E+03   -0.60375E-01   -0.72497E-01  2880   0.213E+00-0.140E+00
CGA:   5    -0.997750293931E+03   -0.21107E-01   -0.20244E-01  2880   0.614E-01 0.981E-02
CGA:   6    -0.997759974179E+03   -0.96802E-02   -0.96747E-02  2880   0.410E-01-0.204E-02
CGA:   7    -0.997763638420E+03   -0.36642E-02   -0.37147E-02  2880   0.831E-02 0.893E-03
CGA:   8    -0.997764348343E+03   -0.70992E-03   -0.80381E-03  2880   0.550E-02 0.137E-02
CGA:   9    -0.997765510429E+03   -0.11621E-02   -0.12060E-02  2880   0.976E-02-0.210E-02
CGA:  10    -0.997765770820E+03   -0.26039E-03   -0.32985E-03  2880   0.338E-02 0.674E-03
CGA:  11    -0.997765794241E+03   -0.23422E-04   -0.11618E-03  2880   0.117E-02 0.786E-03
CGA:  12    -0.997765816485E+03   -0.22244E-04   -0.75331E-04  2880   0.126E-02 0.509E-03
CGA:  13    -0.997765975942E+03   -0.15946E-03   -0.16273E-03  2880   0.934E-03 0.480E-04
CGA:  14    -0.997766119689E+03   -0.14375E-03   -0.14190E-03  2880   0.291E-02-0.154E-02
CGA:  15    -0.997766136401E+03   -0.16712E-04   -0.10750E-03  2880   0.511E-03 0.885E-03
CGA:  16    -0.997766131104E+03    0.52972E-05   -0.27135E-04  2880   0.314E-03 0.322E-03
CGA:  17    -0.997766236697E+03   -0.10559E-03    0.93181E-04  2880   0.373E-03-0.806E-05
CGA:  18    -0.997766236190E+03    0.50658E-06   -0.15766E-04  2880   0.107E-03 0.174E-03
  30 F= -.99776624E+03 E0= -.99775149E+03  d E =-.541268E-03  mag=     2.0000
       N       E                     dE             d eps       ncg     rms          ort
SDA:   1    -0.996587094709E+03    0.11791E+01    0.00000E+00  2880   0.268E+02 0.000E+00
CGA:   2    -0.997245692615E+03   -0.65860E+00   -0.17965E+01  2880   0.366E+01-0.302E+01
CGA:   3    -0.997562944020E+03   -0.31725E+00   -0.19215E+00  2880   0.960E+00 0.157E+01
CGA:   4    -0.997607593273E+03   -0.44649E-01   -0.30018E-01  2880   0.408E+00 0.660E+00
CGA:   5    -0.997663913937E+03   -0.56321E-01   -0.56648E-01  2880   0.575E+00-0.111E-01
CGA:   6    -0.997736799721E+03   -0.72886E-01   -0.73177E-01  2880   0.338E+00-0.161E-01
CGA:   7    -0.997758998468E+03   -0.22199E-01   -0.22527E-01  2880   0.943E-01 0.183E-01
CGA:   8    -0.997766541165E+03   -0.75427E-02   -0.76915E-02  2880   0.245E-01-0.140E-02
CGA:   9    -0.997769265049E+03   -0.27239E-02   -0.27231E-02  2880   0.313E-01-0.326E-02
CGA:  10    -0.997772126281E+03   -0.28612E-02   -0.28789E-02  2880   0.807E-02 0.272E-02
CGA:  11    -0.997772548817E+03   -0.42254E-03   -0.45342E-03  2880   0.231E-02 0.717E-03
CGA:  12    -0.997772842330E+03   -0.29351E-03   -0.56795E-03  2880   0.106E-01-0.238E-02
CGA:  13    -0.997773197478E+03   -0.35515E-03   -0.46500E-03  2880   0.101E-02 0.157E-02
CGA:  14    -0.997773267369E+03   -0.69891E-04   -0.81459E-04  2880   0.469E-03 0.281E-03
CGA:  15    -0.997773344345E+03   -0.76976E-04   -0.85279E-04  2880   0.841E-03-0.251E-03
CGA:  16    -0.997773377363E+03   -0.33018E-04   -0.47174E-04  2880   0.237E-03 0.261E-03
CGA:  17    -0.997773415767E+03   -0.38404E-04   -0.65479E-04  2880   0.676E-03-0.263E-03
CGA:  18    -0.997773468226E+03   -0.52459E-04   -0.55777E-04  2880   0.125E-03 0.110E-03
CGA:  19    -0.997773481312E+03   -0.13086E-04   -0.13303E-04  2880   0.909E-04 0.103E-04
CGA:  20    -0.997773487013E+03   -0.57010E-05   -0.79551E-05  2880   0.845E-04 0.745E-04
CGA:  21    -0.997773506495E+03   -0.19482E-04    0.89124E-04  2880   0.574E-04 0.198E-04
CGA:  22    -0.997773519022E+03   -0.12527E-04   -0.27411E-04  2880   0.453E-03-0.534E-04
CGA:  23    -0.997773536497E+03   -0.17475E-04   -0.22199E-04  2880   0.591E-04 0.634E-04
CGA:  24    -0.997773543263E+03   -0.67659E-05   -0.65735E-05  2880   0.176E-04-0.834E-05
  31 F= -.99777354E+03 E0= -.99775873E+03  d E =-.730707E-02  mag=     2.0000
       N       E                     dE             d eps       ncg     rms          ort
SDA:   1    -0.997692785749E+03    0.80751E-01    0.00000E+00  2880   0.230E+00 0.000E+00
CGA:   2    -0.997722464105E+03   -0.29678E-01   -0.29437E-01  2880   0.321E+00 0.662E-02
CGA:   3    -0.997763044649E+03   -0.40581E-01   -0.40625E-01  2880   0.454E-01 0.597E-03
CGA:   4    -0.997767074373E+03   -0.40297E-02   -0.39791E-02  2880   0.296E-01-0.276E-02
CGA:   5    -0.997770648996E+03   -0.35746E-02   -0.35550E-02  2880   0.423E-02 0.144E-02
CGA:   6    -0.997771287855E+03   -0.63886E-03   -0.68300E-03  2880   0.574E-02-0.112E-02
CGA:   7    -0.997771486910E+03   -0.19905E-03   -0.24089E-03  2880   0.185E-02 0.725E-03
CGA:   8    -0.997771564646E+03   -0.77736E-04   -0.10464E-03  2880   0.101E-02 0.441E-03
CGA:   9    -0.997771686490E+03   -0.12184E-03   -0.11777E-03  2880   0.472E-03-0.266E-03
CGA:  10    -0.997770360286E+03    0.13262E-02   -0.72799E-03  2880   0.358E-01-0.262E-02
CGA:  11    -0.997771559112E+03   -0.11988E-02   -0.12777E-02  2880   0.119E-02 0.456E-02
CGA:  12    -0.997771591252E+03   -0.32139E-04   -0.69986E-04  2880   0.670E-03 0.272E-03
CGA:  13    -0.997771691814E+03   -0.10056E-03   -0.10342E-03  2880   0.490E-03 0.512E-04
CGA:  14    -0.997771769377E+03   -0.77563E-04   -0.60421E-04  2880   0.806E-03-0.261E-03
CGA:  15    -0.997771778069E+03   -0.86923E-05   -0.30454E-04  2880   0.101E-03 0.170E-03
  32 F= -.99777178E+03 E0= -.99775690E+03  d E =0.176519E-02  mag=     2.0000
       N       E                     dE             d eps       ncg     rms          ort
SDA:   1    -0.993067654757E+03    0.47041E+01    0.00000E+00  2880   0.536E+02 0.000E+00
CGA:   2    -0.995348429873E+03   -0.22808E+01   -0.42862E+01  2880   0.100E+02-0.669E+01
CGA:   3    -0.996764466797E+03   -0.14160E+01   -0.10277E+01  2880   0.215E+01 0.202E+01
CGA:   4    -0.997084031987E+03   -0.31957E+00   -0.29075E+00  2880   0.607E+01 0.455E-02
CGA:   5    -0.997247016620E+03   -0.16298E+00   -0.19687E+00  2880   0.811E+01-0.202E+01
CGA:   6    -0.997310648238E+03   -0.63632E-01   -0.13103E+00  2880   0.111E+02-0.248E+01
CGA:   7    -0.997402948072E+03   -0.92300E-01   -0.16153E+00  2880   0.533E+01-0.320E+01
CGA:   8    -0.997400437655E+03    0.25104E-02   -0.11384E+00  2880   0.252E+01-0.306E+01
CGA:   9    -0.997540668557E+03   -0.14023E+00   -0.11546E+00  2880   0.589E+00 0.401E+00
CGA:  10    -0.997618112458E+03   -0.77444E-01   -0.74632E-01  2880   0.628E+00-0.339E-01
CGA:  11    -0.997661480209E+03   -0.43368E-01   -0.45769E-01  2880   0.623E+00-0.219E-01
CGA:  12    -0.997706585159E+03   -0.45105E-01   -0.46456E-01  2880   0.394E+00-0.203E-01
CGA:  13    -0.997726418638E+03   -0.19833E-01   -0.18333E-01  2880   0.102E+00 0.412E-01
CGA:  14    -0.997730931047E+03   -0.45124E-02   -0.41939E-02  2880   0.378E-01 0.256E-01
CGA:  15    -0.997733062938E+03   -0.21319E-02   -0.21325E-02  2880   0.355E-01 0.503E-02
CGA:  16    -0.997736533988E+03   -0.34711E-02   -0.34467E-02  2880   0.779E-01-0.112E-02
CGA:  17    -0.997739803756E+03   -0.32698E-02   -0.31078E-02  2880   0.417E-01-0.285E-02
CGA:  18    -0.997740854184E+03   -0.10504E-02   -0.10670E-02  2880   0.128E-01-0.147E-02
CGA:  19    -0.997741220473E+03   -0.36629E-03   -0.42003E-03  2880   0.956E-02 0.663E-03
CGA:  20    -0.997741626627E+03   -0.40615E-03   -0.45282E-03  2880   0.831E-02 0.115E-02
CGA:  21    -0.997741964496E+03   -0.33787E-03   -0.35461E-03  2880   0.484E-02 0.269E-03
CGA:  22    -0.997742275466E+03   -0.31097E-03   -0.29726E-03  2880   0.740E-02-0.475E-03
CGA:  23    -0.997742705810E+03   -0.43034E-03   -0.41439E-03  2880   0.884E-02-0.534E-03
CGA:  24    -0.997742938533E+03   -0.23272E-03   -0.23871E-03  2880   0.290E-02 0.178E-03
CGA:  25    -0.997743000484E+03   -0.61951E-04   -0.73063E-04  2880   0.123E-02 0.224E-03
CGA:  26    -0.997743053918E+03   -0.53434E-04   -0.56610E-04  2880   0.160E-02 0.794E-04
CGA:  27    -0.997743171902E+03   -0.11798E-03   -0.11463E-03  2880   0.243E-02-0.234E-03
CGA:  28    -0.997743242504E+03   -0.70602E-04   -0.61419E-04  2880   0.139E-02-0.172E-03
CGA:  29    -0.997743267514E+03   -0.25009E-04   -0.30303E-04  2880   0.853E-03 0.945E-04
CGA:  30    -0.997743274248E+03   -0.67341E-05   -0.21365E-04  2880   0.758E-03 0.281E-03
CGA:  31    -0.997743278921E+03   -0.46732E-05   -0.24756E-04  2880   0.662E-03 0.415E-03
CGA:  32    -0.997743339270E+03   -0.60348E-04   -0.64609E-04  2880   0.681E-03-0.163E-03
CGA:  33    -0.997743415372E+03   -0.76102E-04    0.70098E-03  2880   0.239E-03 0.179E-03
CGA:  34    -0.997743422586E+03   -0.72143E-05   -0.10686E-04  2880   0.556E-04 0.939E-04
  33 F= -.99774342E+03 E0= -.99772845E+03  d E =0.283555E-01  mag=     2.0000
       N       E                     dE             d eps       ncg     rms          ort
SDA:   1    -0.996538433193E+03    0.12050E+01    0.00000E+00  2880   0.420E+01 0.000E+00
CGA:   2    -0.996950430844E+03   -0.41200E+00   -0.40221E+00  2880   0.352E+01 0.341E+00
CGA:   3    -0.997541491515E+03   -0.59106E+00   -0.62193E+00  2880   0.286E+01-0.351E+00
CGA:   4    -0.997674827526E+03   -0.13334E+00   -0.13938E+00  2880   0.360E+00 0.560E-03
CGA:   5    -0.997721449853E+03   -0.46622E-01   -0.46950E-01  2880   0.370E+00-0.750E-02
CGA:   6    -0.997750912062E+03   -0.29462E-01   -0.29428E-01  2880   0.984E-01 0.146E-01
CGA:   7    -0.997757202636E+03   -0.62906E-02   -0.63452E-02  2880   0.361E-01 0.341E-02
CGA:   8    -0.997762039216E+03   -0.48366E-02   -0.51829E-02  2880   0.311E-01-0.544E-02
CGA:   9    -0.997763845240E+03   -0.18060E-02   -0.18421E-02  2880   0.141E-01 0.451E-02
CGA:  10    -0.997765028130E+03   -0.11829E-02   -0.11913E-02  2880   0.529E-02 0.224E-02
CGA:  11    -0.997765452755E+03   -0.42462E-03   -0.97265E-03  2880   0.198E-01-0.685E-02
CGA:  12    -0.997766086788E+03   -0.63403E-03   -0.78004E-03  2880   0.235E-02 0.377E-02
CGA:  13    -0.997766203143E+03   -0.11636E-03   -0.14622E-03  2880   0.116E-02 0.109E-02
CGA:  14    -0.997766354335E+03   -0.15119E-03   -0.15229E-03  2880   0.991E-03-0.939E-04
CGA:  15    -0.997766444476E+03   -0.90141E-04   -0.23509E-03  2880   0.374E-02-0.807E-03
CGA:  16    -0.997766617321E+03   -0.17285E-03   -0.20515E-03  2880   0.672E-03 0.101E-02
CGA:  17    -0.997766710492E+03   -0.93171E-04   -0.11655E-03  2880   0.562E-03-0.466E-03
CGA:  18    -0.997766769013E+03   -0.58521E-04   -0.60255E-04  2880   0.229E-03-0.934E-04
CGA:  19    -0.997766771792E+03   -0.27794E-05   -0.75373E-05  2880   0.932E-04 0.944E-04
  34 F= -.99776677E+03 E0= -.99775194E+03  d E =-.233492E-01  mag=     2.0000
       N       E                     dE             d eps       ncg     rms          ort
SDA:   1    -0.996060247590E+03    0.17065E+01    0.00000E+00  2880   0.472E+01 0.000E+00
CGA:   2    -0.996916561033E+03   -0.85631E+00   -0.74465E+00  2880   0.333E+01 0.139E+01
CGA:   3    -0.997488330473E+03   -0.57177E+00   -0.61730E+00  2880   0.238E+01-0.581E+00
CGA:   4    -0.997679313825E+03   -0.19098E+00   -0.19379E+00  2880   0.592E+00-0.187E+00
CGA:   5    -0.997715301767E+03   -0.35988E-01   -0.36899E-01  2880   0.260E+00-0.154E-01
CGA:   6    -0.997752095324E+03   -0.36794E-01   -0.36806E-01  2880   0.135E+00-0.740E-03
CGA:   7    -0.997759833603E+03   -0.77383E-02   -0.79819E-02  2880   0.321E-01 0.128E-01
CGA:   8    -0.997763736462E+03   -0.39029E-02   -0.39111E-02  2880   0.378E-01-0.544E-03
CGA:   9    -0.997768020276E+03   -0.42838E-02   -0.43747E-02  2880   0.152E-01-0.368E-02
CGA:  10    -0.997768519563E+03   -0.49929E-03   -0.61872E-03  2880   0.504E-02 0.273E-02
CGA:  11    -0.997768826727E+03   -0.30716E-03   -0.36166E-03  2880   0.391E-02 0.186E-02
CGA:  12    -0.997769399794E+03   -0.57307E-03   -0.58951E-03  2880   0.489E-02-0.793E-03
CGA:  13    -0.997769777532E+03   -0.37774E-03   -0.40282E-03  2880   0.481E-02-0.195E-02
CGA:  14    -0.997769834432E+03   -0.56900E-04   -0.84229E-04  2880   0.275E-02 0.466E-03
CGA:  15    -0.997769860093E+03   -0.25660E-04   -0.79107E-04  2880   0.138E-02 0.891E-03
CGA:  16    -0.997769878522E+03   -0.18429E-04   -0.54244E-04  2880   0.960E-03 0.654E-03
CGA:  17    -0.997769934111E+03   -0.55589E-04   -0.65550E-04  2880   0.932E-03 0.278E-03
CGA:  18    -0.997770036877E+03   -0.10277E-03   -0.13278E-03  2880   0.239E-02-0.100E-02
CGA:  19    -0.997770152312E+03   -0.11543E-03   -0.12909E-03  2880   0.442E-03 0.494E-03
CGA:  20    -0.997770205012E+03   -0.52701E-04   -0.80118E-04  2880   0.461E-03-0.394E-03
CGA:  21    -0.997770219929E+03   -0.14916E-04   -0.22498E-04  2880   0.129E-03 0.215E-03
CGA:  22    -0.997770229191E+03   -0.92627E-05   -0.10666E-04  2880   0.356E-04 0.548E-04
  35 F= -.99777023E+03 E0= -.99775538E+03  d E =-.345740E-02  mag=     2.0000
       N       E                     dE             d eps       ncg     rms          ort
SDA:   1    -0.997472770730E+03    0.29745E+00    0.00000E+00  2880   0.240E+01 0.000E+00
CGA:   2    -0.997578956220E+03   -0.10619E+00   -0.11833E+00  2880   0.589E+00-0.654E-01
CGA:   3    -0.997698277315E+03   -0.11932E+00   -0.11927E+00  2880   0.765E+00-0.503E-02
CGA:   4    -0.997750588876E+03   -0.52312E-01   -0.53053E-01  2880   0.770E-01-0.759E-02
CGA:   5    -0.997762034941E+03   -0.11446E-01   -0.11163E-01  2880   0.547E-01 0.448E-02
CGA:   6    -0.997768211784E+03   -0.61768E-02   -0.62065E-02  2880   0.166E-01-0.211E-02
CGA:   7    -0.997769885090E+03   -0.16733E-02   -0.16579E-02  2880   0.453E-02 0.105E-02
CGA:   8    -0.997770618765E+03   -0.73368E-03   -0.70847E-03  2880   0.343E-02 0.434E-03
CGA:   9    -0.997771094993E+03   -0.47623E-03   -0.48285E-03  2880   0.163E-02-0.184E-03
CGA:  10    -0.997771265869E+03   -0.17088E-03   -0.18808E-03  2880   0.195E-02-0.626E-03
CGA:  11    -0.997771326772E+03   -0.60903E-04   -0.75348E-04  2880   0.821E-03 0.439E-03
CGA:  12    -0.997771362132E+03   -0.35359E-04   -0.45068E-04  2880   0.334E-03 0.199E-03
CGA:  13    -0.997770782273E+03    0.57986E-03   -0.31923E-03  2880   0.114E-01-0.162E-02
CGA:  14    -0.997771282305E+03   -0.50003E-03   -0.56387E-03  2880   0.111E-02 0.171E-02
CGA:  15    -0.997771397224E+03   -0.11492E-03   -0.11997E-03  2880   0.421E-03 0.764E-04
CGA:  16    -0.997771409120E+03   -0.11895E-04   -0.11648E-03  2880   0.374E-02-0.104E-02
CGA:  17    -0.997771492866E+03   -0.83747E-04   -0.16213E-03  2880   0.290E-03 0.731E-03
CGA:  18    -0.997771489113E+03    0.37527E-05   -0.13922E-04  2880   0.104E-03 0.153E-03
CGA:  19    -0.997771504649E+03   -0.15536E-04   -0.15453E-04  2880   0.522E-04-0.309E-04
CGA:  20    -0.997771502332E+03    0.23173E-05   -0.91952E-06  2880   0.327E-04 0.257E-04
  36 F= -.99777150E+03 E0= -.99775671E+03  d E =-.127314E-02  mag=     2.0000
       N       E                     dE             d eps       ncg     rms          ort
SDA:   1    -0.997526592943E+03    0.24491E+00    0.00000E+00  2880   0.592E+00 0.000E+00
CGA:   2    -0.997686732964E+03   -0.16014E+00   -0.15537E+00  2880   0.715E+00 0.358E-01
CGA:   3    -0.997745965204E+03   -0.59232E-01   -0.55100E-01  2880   0.857E-01 0.396E-01
CGA:   4    -0.997758616734E+03   -0.12652E-01   -0.12658E-01  2880   0.759E-01 0.583E-02
CGA:   5    -0.997766610691E+03   -0.79940E-02   -0.77037E-02  2880   0.249E-01-0.835E-02
CGA:   6    -0.997768218418E+03   -0.16077E-02   -0.17595E-02  2880   0.700E-02 0.261E-02
CGA:   7    -0.997768896075E+03   -0.67766E-03   -0.72412E-03  2880   0.364E-02 0.114E-02
CGA:   8    -0.997769620337E+03   -0.72426E-03   -0.92478E-03  2880   0.632E-02-0.238E-02
CGA:   9    -0.997769756485E+03   -0.13615E-03   -0.25998E-03  2880   0.798E-03 0.161E-02
CGA:  10    -0.997769773044E+03   -0.16559E-04   -0.50088E-04  2880   0.506E-03 0.414E-03
CGA:  11    -0.997769939099E+03   -0.16605E-03    0.11959E-03  2880   0.506E-03 0.423E-04
CGA:  12    -0.997769960977E+03   -0.21878E-04   -0.38232E-04  2880   0.139E-03 0.277E-03
CGA:  13    -0.997769954766E+03    0.62104E-05   -0.40492E-05  2880   0.946E-04 0.106E-03
  37 F= -.99776995E+03 E0= -.99775513E+03  d E =0.154757E-02  mag=     2.0000
