       N       E                     dE             d eps       ncg     rms          ort
DAV:   1     0.824830585294E+04    0.82483E+04   -0.24639E+05  8424   0.238E+03
DAV:   2     0.873052870497E+03   -0.73753E+04   -0.69075E+04  8424   0.658E+02
DAV:   3    -0.736693662674E+03   -0.16097E+04   -0.14200E+04  8424   0.284E+02
DAV:   4    -0.895066952904E+03   -0.15837E+03   -0.15564E+03  8424   0.862E+01
DAV:   5    -0.897727691887E+03   -0.26607E+01   -0.26467E+01  8424   0.125E+01
SDA:   6    -0.209780328186E+03    0.68795E+03   -0.26467E+01  8424   0.541E+04 0.000E+00
CGA:   7    -0.368401129604E+03   -0.15862E+03   -0.32868E+03  8424   0.132E+05-0.209E+04
CGA:   8    -0.495185815440E+03   -0.12678E+03   -0.35994E+03  8424   0.103E+04 0.114E+04
CGA:   9    -0.545550131323E+03   -0.50364E+02   -0.21646E+02  8424   0.169E+04-0.146E+04
CGA:  10    -0.562312166248E+03   -0.16762E+02   -0.12368E+03  8424   0.140E+04 0.127E+03
CGA:  11    -0.593735089789E+03   -0.31423E+02   -0.44594E+02  8424   0.179E+04-0.108E+04
CGA:  12    -0.637991292271E+03   -0.44256E+02   -0.30923E+02  8424   0.102E+04-0.134E+04
CGA:  13    -0.602029304709E+03    0.35962E+02   -0.51059E+02  8424   0.300E+04-0.869E+03
CGA:  14    -0.580558833321E+03    0.21470E+02   -0.13521E+03  8424   0.118E+04-0.741E+03
CGA:  15    -0.650725859191E+03   -0.70167E+02   -0.17839E+02  8424   0.165E+04 0.354E+04
CGA:  16    -0.639737951979E+03    0.10988E+02   -0.57284E+02  8424   0.202E+04-0.126E+04
CGA:  17    -0.599447518478E+03    0.40290E+02   -0.95150E+02  8424   0.768E+03-0.358E+03
CGA:  18    -0.663268853039E+03   -0.63821E+02   -0.84480E+01  8424   0.106E+04 0.266E+04
CGA:  19    -0.668622591472E+03   -0.53537E+01   -0.37911E+02  8424   0.456E+03-0.486E+03
CGA:  20    -0.674695374560E+03   -0.60728E+01   -0.75692E+01  8424   0.186E+03-0.149E+03
CGA:  21    -0.676765169546E+03   -0.20698E+01   -0.46649E+01  8424   0.188E+03-0.754E+02
CGA:  22    -0.681214521744E+03   -0.44494E+01   -0.44249E+01  8424   0.757E+02-0.853E+01
CGA:  23    -0.682372826935E+03   -0.11583E+01   -0.26483E+01  8424   0.144E+03-0.361E+02
CGA:  24    -0.687302633924E+03   -0.49298E+01   -0.48629E+01  8424   0.447E+02 0.213E+01
CGA:  25    -0.688413077201E+03   -0.11104E+01   -0.17747E+01  8424   0.298E+02-0.977E+01
CGA:  26    -0.689788182902E+03   -0.13751E+01   -0.14904E+01  8424   0.129E+02-0.416E+00
CGA:  27    -0.690471162971E+03   -0.68298E+00   -0.76456E+00  8424   0.544E+01-0.170E+00
CGA:  28    -0.691016329562E+03   -0.54517E+00   -0.54418E+00  8424   0.802E+01 0.678E-01
CGA:  29    -0.691686023462E+03   -0.66969E+00   -0.64848E+00  8424   0.506E+01-0.496E+00
CGA:  30    -0.692653668413E+03   -0.96764E+00    0.33774E+01  8424   0.883E+01 0.303E+01
CGA:  31    -0.693136182349E+03   -0.48251E+00   -0.43343E+00  8424   0.655E+01 0.655E+00
CGA:  32    -0.694188745524E+03   -0.10526E+01   -0.96583E+00  8424   0.154E+02 0.138E+01
CGA:  33    -0.695230469761E+03   -0.10417E+01   -0.12092E+01  8424   0.637E+01 0.530E+00
CGA:  34    -0.695481230473E+03   -0.25076E+00   -0.14318E+00  8424   0.428E+01 0.533E+01
CGA:  35    -0.695807646914E+03   -0.32642E+00   -0.25272E+00  8424   0.220E+01 0.197E+00
CGA:  36    -0.696022215914E+03   -0.21457E+00   -0.21479E+00  8424   0.306E+01 0.134E-01
CGA:  37    -0.696299977303E+03   -0.27776E+00   -0.27792E+00  8424   0.420E+01-0.493E-01
CGA:  38    -0.696430864385E+03   -0.13089E+00   -0.91759E-01  8424   0.223E+01 0.158E+01
CGA:  39    -0.696572641303E+03   -0.14178E+00   -0.11960E+00  8424   0.403E+01 0.364E+00
CGA:  40    -0.696708400913E+03   -0.13576E+00   -0.12321E+00  8424   0.488E+01 0.424E+00
CGA:  41    -0.696794989688E+03   -0.86589E-01   -0.12304E+00  8424   0.343E+01-0.120E+01
CGA:  42    -0.696851035276E+03   -0.56046E-01   -0.81637E-01  8424   0.423E+01-0.453E+00
CGA:  43    -0.696972107910E+03   -0.12107E+00   -0.10650E+00  8424   0.319E+01 0.646E+00
CGA:  44    -0.697062638092E+03   -0.90530E-01   -0.63652E-01  8424   0.250E+01 0.132E+01
CGA:  45    -0.697153304372E+03   -0.90666E-01   -0.77085E-01  8424   0.310E+01 0.479E+00
CGA:  46    -0.697225238249E+03   -0.71934E-01   -0.72992E-01  8424   0.363E+01 0.482E-02
CGA:  47    -0.697273275722E+03   -0.48037E-01   -0.61972E-01  8424   0.286E+01-0.535E+00
CGA:  48    -0.697302140855E+03   -0.28865E-01   -0.46328E-01  8424   0.215E+01-0.571E+00
CGA:  49    -0.697340215515E+03   -0.38075E-01   -0.52132E-01  8424   0.176E+01-0.118E+00
CGA:  50    -0.697422605489E+03   -0.82390E-01   -0.84763E-01  8424   0.114E+01 0.705E-01
CGA:  51    -0.697600544343E+03   -0.17794E+00    0.12518E+00  8424   0.161E+01 0.186E+01
CGA:  52    -0.697918251605E+03   -0.31771E+00   -0.13200E-01  8424   0.275E+01-0.684E+00
CGA:  53    -0.698076642019E+03   -0.15839E+00   -0.15897E+00  8424   0.153E+01 0.554E-01
CGA:  54    -0.698239072765E+03   -0.16243E+00   -0.16230E+00  8424   0.886E+00-0.715E-02
CGA:  55    -0.698338319624E+03   -0.99247E-01   -0.99321E-01  8424   0.430E+00 0.162E-02
CGA:  56    -0.698377798013E+03   -0.39478E-01   -0.39205E-01  8424   0.300E+00 0.908E-02
CGA:  57    -0.698411054357E+03   -0.33256E-01   -0.33246E-01  8424   0.348E+00 0.202E-01
CGA:  58    -0.698443306264E+03   -0.32252E-01   -0.32151E-01  8424   0.450E+00 0.264E-01
CGA:  59    -0.698479457962E+03   -0.36152E-01   -0.36941E-01  8424   0.589E+00 0.365E-01
CGA:  60    -0.698513482781E+03   -0.34025E-01   -0.36198E-01  8424   0.498E+00 0.355E-01
CGA:  61    -0.698543783406E+03   -0.30301E-01   -0.33024E-01  8424   0.501E+00 0.378E-01
CGA:  62    -0.698581602173E+03   -0.37819E-01   -0.39903E-01  8424   0.526E+00 0.579E-01
CGA:  63    -0.698618856054E+03   -0.37254E-01   -0.38590E-01  8424   0.439E+00 0.479E-01
CGA:  64    -0.698647756110E+03   -0.28900E-01   -0.30120E-01  8424   0.315E+00 0.294E-01
CGA:  65    -0.698665412584E+03   -0.17656E-01   -0.17843E-01  8424   0.226E+00 0.119E-01
CGA:  66    -0.698681898389E+03   -0.16486E-01   -0.16706E-01  8424   0.262E+00 0.602E-02
CGA:  67    -0.698698481882E+03   -0.16583E-01   -0.16815E-01  8424   0.212E+00 0.699E-02
CGA:  68    -0.698711914440E+03   -0.13433E-01   -0.13722E-01  8424   0.207E+00 0.973E-02
CGA:  69    -0.698727047856E+03   -0.15133E-01   -0.15390E-01  8424   0.210E+00 0.125E-01
CGA:  70    -0.698740062900E+03   -0.13015E-01   -0.13247E-01  8424   0.154E+00 0.846E-02
CGA:  71    -0.698749798004E+03   -0.97351E-02   -0.97581E-02  8424   0.144E+00 0.385E-02
CGA:  72    -0.698758030124E+03   -0.82321E-02   -0.82135E-02  8424   0.117E+00 0.147E-02
CGA:  73    -0.698764432694E+03   -0.64026E-02   -0.63979E-02  8424   0.114E+00-0.126E-02
CGA:  74    -0.698771514541E+03   -0.70818E-02   -0.70111E-02  8424   0.120E+00-0.431E-02
CGA:  75    -0.698777842767E+03   -0.63282E-02   -0.63110E-02  8424   0.103E+00-0.541E-02
CGA:  76    -0.698784769174E+03   -0.69264E-02   -0.69291E-02  8424   0.115E+00-0.342E-02
CGA:  77    -0.698792863270E+03   -0.80941E-02   -0.80436E-02  8424   0.921E-01-0.561E-02
CGA:  78    -0.698797929051E+03   -0.50658E-02   -0.49649E-02  8424   0.679E-01-0.252E-02
CGA:  79    -0.698802110822E+03   -0.41818E-02   -0.41302E-02  8424   0.667E-01-0.231E-02
CGA:  80    -0.698806100469E+03   -0.39896E-02   -0.39701E-02  8424   0.624E-01-0.218E-02
CGA:  81    -0.698810117551E+03   -0.40171E-02   -0.39966E-02  8424   0.607E-01-0.309E-02
SDA:  82    -0.698814479813E+03   -0.43623E-02   -0.43596E-02  8424   0.543E-01-0.633E-02
CGA:  83    -0.698820618367E+03   -0.61386E-02   -0.62470E-02  8424   0.395E-01-0.276E-02
CGA:  84    -0.698826510103E+03   -0.58917E-02   -0.61392E-02  8424   0.637E-01-0.293E-02
CGA:  85    -0.698836068296E+03   -0.95582E-02   -0.10202E-01  8424   0.364E-01-0.726E-02
CGA:  86    -0.698841210610E+03   -0.51423E-02   -0.51678E-02  8424   0.159E-01-0.429E-03
CGA:  87    -0.698843190127E+03   -0.19795E-02   -0.19945E-02  8424   0.125E-01-0.406E-03
CGA:  88    -0.698844117887E+03   -0.92776E-03   -0.91553E-03  8424   0.464E-02-0.719E-03
CGA:  89    -0.698844886140E+03   -0.76825E-03   -0.10910E-02  8424   0.603E-02-0.207E-02
CGA:  90    -0.698845287316E+03   -0.40118E-03   -0.43068E-03  8424   0.315E-02-0.100E-02
CGA:  91    -0.698845572023E+03   -0.28471E-03   -0.28366E-03  8424   0.227E-02 0.145E-03
CGA:  92    -0.698845937879E+03   -0.36586E-03   -0.35000E-03  8424   0.177E-02 0.334E-03
CGA:  93    -0.698846237971E+03   -0.30009E-03   -0.32942E-03  8424   0.160E-02-0.515E-03
CGA:  94    -0.698846356286E+03   -0.11832E-03   -0.23001E-03  8424   0.310E-02-0.117E-02
CGA:  95    -0.698846536656E+03   -0.18037E-03   -0.18682E-03  8424   0.130E-02 0.113E-03
CGA:  96    -0.698846670260E+03   -0.13360E-03   -0.13572E-03  8424   0.422E-03 0.275E-03
CGA:  97    -0.698846765323E+03   -0.95063E-04   -0.11025E-03  8424   0.643E-03-0.143E-03
CGA:  98    -0.698846798368E+03   -0.33046E-04   -0.25707E-04  8424   0.322E-03-0.141E-03
CGA:  99    -0.698846825733E+03   -0.27364E-04   -0.44476E-04  8424   0.821E-03-0.261E-03
CGA: 100    -0.698846869334E+03   -0.43601E-04   -0.45228E-04  8424   0.232E-03 0.282E-04
CGA: 101    -0.698846895296E+03   -0.25962E-04   -0.25996E-04  8424   0.137E-03 0.107E-04
CGA: 102    -0.698846913994E+03   -0.18698E-04   -0.17990E-04  8424   0.382E-04 0.502E-04
CGA: 103    -0.698846925678E+03   -0.11684E-04    0.22595E-02  8424   0.460E-04 0.104E-04
CGA: 104    -0.698846948895E+03   -0.23217E-04    0.42230E-05  8424   0.514E-04 0.245E-04
CGA: 105    -0.698846955865E+03   -0.69704E-05   -0.72523E-05  8424   0.499E-04-0.987E-05
CGA: 106    -0.698846965788E+03   -0.99224E-05    0.26437E-04  8424   0.583E-04 0.143E-04
CGA: 107    -0.698846985924E+03   -0.20137E-04    0.23012E-04  8424   0.246E-04 0.328E-04
CGA: 108    -0.698846997707E+03   -0.11783E-04    0.12467E-05  8424   0.174E-04 0.914E-05
CGA: 109    -0.698847010187E+03   -0.12479E-04    0.10311E-05  8424   0.187E-04 0.181E-04
CGA: 110    -0.698847011242E+03   -0.10554E-05   -0.14255E-05  8424   0.142E-04 0.991E-05
   1 F= -.69884701E+03 E0= -.69883868E+03  d E =-.698847E+03  mag=     1.9936
       N       E                     dE             d eps       ncg     rms          ort
SDA:   1    -0.698858536881E+03   -0.11527E-01    0.00000E+00  8424   0.159E-01 0.000E+00
CGA:   2    -0.698859315197E+03   -0.77832E-03   -0.77119E-03  8424   0.426E-02-0.244E-03
CGA:   3    -0.698860012338E+03   -0.69714E-03   -0.69836E-03  8424   0.158E-02-0.223E-04
CGA:   4    -0.698860299307E+03   -0.28697E-03   -0.29583E-03  8424   0.132E-02-0.116E-03
CGA:   5    -0.698860381273E+03   -0.81966E-04   -0.80178E-04  8424   0.458E-03-0.368E-04
CGA:   6    -0.698860438923E+03   -0.57650E-04   -0.60201E-04  8424   0.250E-03-0.114E-03
CGA:   7    -0.698860451642E+03   -0.12718E-04   -0.14150E-04  8424   0.676E-04 0.371E-04
CGA:   8    -0.698860458406E+03   -0.67642E-05   -0.69909E-05  8424   0.390E-04 0.103E-04
CGA:   9    -0.698860470401E+03   -0.11995E-04    0.12099E-04  8424   0.222E-04 0.125E-04
CGA:  10    -0.698860480985E+03   -0.10585E-04    0.25791E-05  8424   0.245E-04 0.233E-05
CGA:  11    -0.698860493929E+03   -0.12944E-04    0.13008E-05  8424   0.250E-04 0.109E-04
CGA:  12    -0.698860506976E+03   -0.13048E-04    0.31613E-05  8424   0.206E-04 0.868E-05
CGA:  13    -0.698860521609E+03   -0.14632E-04    0.11070E-05  8424   0.285E-04 0.145E-04
CGA:  14    -0.698860529556E+03   -0.79471E-05    0.61509E-05  8424   0.385E-04-0.826E-05
   2 F= -.69886053E+03 E0= -.69885221E+03  d E =-.135183E-01  mag=     1.9937
       N       E                     dE             d eps       ncg     rms          ort
SDA:   1    -0.697618661170E+03    0.12419E+01    0.00000E+00  8424   0.632E+01 0.000E+00
CGA:   2    -0.698466127632E+03   -0.84747E+00   -0.84020E+00  8424   0.362E+01 0.215E+00
CGA:   3    -0.698766516983E+03   -0.30039E+00   -0.29493E+00  8424   0.235E+01-0.221E-01
CGA:   4    -0.699062091003E+03   -0.29557E+00   -0.29538E+00  8424   0.717E+00 0.630E-02
CGA:   5    -0.699163282612E+03   -0.10119E+00   -0.10172E+00  8424   0.260E+00-0.143E-01
CGA:   6    -0.699192654515E+03   -0.29372E-01   -0.29358E-01  8424   0.843E-01 0.398E-02
CGA:   7    -0.699198968588E+03   -0.63141E-02   -0.63361E-02  8424   0.501E-01 0.103E-02
CGA:   8    -0.699204425526E+03   -0.54569E-02   -0.54570E-02  8424   0.883E-02-0.920E-04
CGA:   9    -0.699206016485E+03   -0.15910E-02   -0.16040E-02  8424   0.607E-02-0.185E-03
CGA:  10    -0.699206509513E+03   -0.49303E-03   -0.48670E-03  8424   0.351E-02-0.215E-03
CGA:  11    -0.699206813554E+03   -0.30404E-03   -0.30588E-03  8424   0.132E-02 0.810E-04
CGA:  12    -0.699207012604E+03   -0.19905E-03   -0.19382E-03  8424   0.362E-03 0.163E-03
CGA:  13    -0.699206726476E+03    0.28613E-03   -0.16970E-03  8424   0.481E-02-0.944E-03
CGA:  14    -0.699207022191E+03   -0.29572E-03   -0.33622E-03  8424   0.114E-02 0.285E-03
CGA:  15    -0.699207081747E+03   -0.59555E-04   -0.81550E-04  8424   0.518E-03 0.168E-03
CGA:  16    -0.699207146397E+03   -0.64650E-04   -0.69662E-04  8424   0.109E-03 0.661E-04
CGA:  17    -0.699206728394E+03    0.41800E-03   -0.11094E-03  8424   0.641E-02-0.738E-03
CGA:  18    -0.699207075725E+03   -0.34733E-03   -0.39934E-03  8424   0.144E-02 0.337E-03
CGA:  19    -0.699207131494E+03   -0.55769E-04   -0.83391E-04  8424   0.268E-03 0.164E-03
CGA:  20    -0.699207149030E+03   -0.17536E-04   -0.30579E-04  8424   0.127E-03 0.123E-03
CGA:  21    -0.699207175110E+03   -0.26080E-04   -0.24427E-04  8424   0.174E-03-0.234E-04
CGA:  22    -0.699207195047E+03   -0.19937E-04   -0.99742E-05  8424   0.455E-04-0.771E-04
CGA:  23    -0.699207157228E+03    0.37819E-04   -0.12581E-04  8424   0.106E-02-0.167E-03
CGA:  24    -0.699207195440E+03   -0.38212E-04   -0.50695E-04  8424   0.180E-03 0.810E-04
CGA:  25    -0.699207199504E+03   -0.40638E-05   -0.10510E-04  8424   0.311E-04 0.439E-04
   3 F= -.69920720E+03 E0= -.69919872E+03  d E =-.346670E+00  mag=     1.9934
       N       E                     dE             d eps       ncg     rms          ort
SDA:   1    -0.695238152862E+03    0.39690E+01    0.00000E+00  8424   0.273E+02 0.000E+00
CGA:   2    -0.697038465070E+03   -0.18003E+01   -0.26350E+01  8424   0.171E+02-0.261E+01
CGA:   3    -0.698235531528E+03   -0.11971E+01   -0.10842E+01  8424   0.589E+01-0.168E-01
CGA:   4    -0.699032918660E+03   -0.79739E+00   -0.78025E+00  8424   0.283E+01-0.220E-03
CGA:   5    -0.699316292111E+03   -0.28337E+00   -0.30424E+00  8424   0.233E+01-0.444E-01
CGA:   6    -0.699444843448E+03   -0.12855E+00   -0.11528E+00  8424   0.516E+00 0.189E+00
CGA:   7    -0.699498948068E+03   -0.54105E-01   -0.53839E-01  8424   0.298E+00 0.521E-02
CGA:   8    -0.699515503235E+03   -0.16555E-01   -0.17268E-01  8424   0.138E+00-0.799E-02
CGA:   9    -0.699530276326E+03   -0.14773E-01   -0.14642E-01  8424   0.365E-01-0.703E-03
CGA:  10    -0.699533022874E+03   -0.27465E-02   -0.27378E-02  8424   0.316E-01 0.109E-03
CGA:  11    -0.699535814273E+03   -0.27914E-02   -0.28109E-02  8424   0.116E-01-0.273E-03
CGA:  12    -0.699537162321E+03   -0.13480E-02   -0.13458E-02  8424   0.850E-02-0.183E-03
CGA:  13    -0.699537630956E+03   -0.46863E-03   -0.48213E-03  8424   0.382E-02 0.157E-03
CGA:  14    -0.699538106111E+03   -0.47516E-03   -0.48153E-03  8424   0.176E-02 0.358E-03
CGA:  15    -0.699538268259E+03   -0.16215E-03   -0.15385E-03  8424   0.187E-02-0.151E-03
CGA:  16    -0.699538478881E+03   -0.21062E-03   -0.20499E-03  8424   0.925E-03-0.327E-03
CGA:  17    -0.699538524429E+03   -0.45547E-04   -0.54383E-04  8424   0.470E-03 0.135E-03
CGA:  18    -0.699538541176E+03   -0.16748E-04   -0.27317E-04  8424   0.156E-03 0.127E-03
CGA:  19    -0.699538552037E+03   -0.10861E-04   -0.15680E-04  8424   0.134E-03 0.969E-04
CGA:  20    -0.699538564276E+03   -0.12239E-04   -0.10761E-04  8424   0.140E-03-0.321E-04
CGA:  21    -0.699538561649E+03    0.26268E-05   -0.36618E-04  8424   0.766E-03-0.179E-03
CGA:  22    -0.699538583734E+03   -0.22084E-04   -0.33719E-04  8424   0.109E-03 0.128E-03
CGA:  23    -0.699538583186E+03    0.54745E-06   -0.48666E-05  8424   0.354E-04 0.583E-04
   4 F= -.69953858E+03 E0= -.69952974E+03  d E =-.331384E+00  mag=     1.9935
       N       E                     dE             d eps       ncg     rms          ort
SDA:   1    -0.698529604684E+03    0.10090E+01    0.00000E+00  8424   0.325E+01 0.000E+00
CGA:   2    -0.699029712481E+03   -0.50011E+00   -0.49506E+00  8424   0.480E+01 0.119E+00
CGA:   3    -0.699409542922E+03   -0.37983E+00   -0.37189E+00  8424   0.114E+01 0.503E-02
CGA:   4    -0.699572171237E+03   -0.16263E+00   -0.16305E+00  8424   0.454E+00-0.131E-01
CGA:   5    -0.699610833379E+03   -0.38662E-01   -0.38571E-01  8424   0.229E+00-0.263E-05
CGA:   6    -0.699627791108E+03   -0.16958E-01   -0.17084E-01  8424   0.731E-01 0.234E-04
CGA:   7    -0.699636427724E+03   -0.86366E-02   -0.86367E-02  8424   0.186E-01 0.169E-02
CGA:   8    -0.699638155844E+03   -0.17281E-02   -0.17227E-02  8424   0.145E-01-0.271E-03
CGA:   9    -0.699639496397E+03   -0.13406E-02   -0.13339E-02  8424   0.463E-02-0.294E-03
CGA:  10    -0.699640091346E+03   -0.59495E-03   -0.59228E-03  8424   0.217E-02 0.168E-03
CGA:  11    -0.699640275304E+03   -0.18396E-03   -0.18771E-03  8424   0.147E-02 0.114E-03
CGA:  12    -0.699640455014E+03   -0.17971E-03   -0.17967E-03  8424   0.708E-03 0.313E-04
CGA:  13    -0.699640546639E+03   -0.91625E-04   -0.91158E-04  8424   0.409E-03 0.409E-04
CGA:  14    -0.699640590002E+03   -0.43363E-04   -0.42747E-04  8424   0.405E-03-0.381E-04
CGA:  15    -0.699640634767E+03   -0.44765E-04   -0.44872E-04  8424   0.110E-03-0.145E-04
CGA:  16    -0.699640640328E+03   -0.55612E-05   -0.77975E-05  8424   0.521E-04 0.541E-04
   5 F= -.69964064E+03 E0= -.69963166E+03  d E =-.102057E+00  mag=     1.9937
       N       E                     dE             d eps       ncg     rms          ort
SDA:   1    -0.697426211380E+03    0.22144E+01    0.00000E+00  8424   0.599E+01 0.000E+00
CGA:   2    -0.698973867567E+03   -0.15477E+01   -0.15450E+01  8424   0.353E+01 0.190E-01
CGA:   3    -0.699437606661E+03   -0.46374E+00   -0.46359E+00  8424   0.221E+01 0.429E-02
CGA:   4    -0.699585667409E+03   -0.14806E+00   -0.14530E+00  8424   0.751E+00 0.137E-01
CGA:   5    -0.699661858893E+03   -0.76191E-01   -0.76139E-01  8424   0.209E+00 0.149E-02
CGA:   6    -0.699692069249E+03   -0.30210E-01   -0.30244E-01  8424   0.519E-01-0.879E-03
CGA:   7    -0.699699031277E+03   -0.69620E-02   -0.69399E-02  8424   0.230E-01 0.102E-02
CGA:   8    -0.699701104993E+03   -0.20737E-02   -0.20696E-02  8424   0.174E-01-0.754E-04
CGA:   9    -0.699702672176E+03   -0.15672E-02   -0.15601E-02  8424   0.521E-02-0.304E-03
CGA:  10    -0.699703413101E+03   -0.74092E-03   -0.72937E-03  8424   0.204E-02 0.416E-03
CGA:  11    -0.699703858814E+03   -0.44571E-03   -0.44408E-03  8424   0.151E-02 0.176E-04
CGA:  12    -0.699703969513E+03   -0.11070E-03   -0.11311E-03  8424   0.982E-03 0.498E-04
CGA:  13    -0.699704094402E+03   -0.12489E-03   -0.12468E-03  8424   0.426E-03 0.422E-04
CGA:  14    -0.699704169292E+03   -0.74890E-04   -0.74501E-04  8424   0.185E-03 0.735E-05
CGA:  15    -0.699704190860E+03   -0.21569E-04   -0.21863E-04  8424   0.797E-04 0.630E-04
CGA:  16    -0.699704202209E+03   -0.11349E-04   -0.11531E-04  8424   0.824E-04 0.143E-04
CGA:  17    -0.699704215140E+03   -0.12930E-04   -0.13610E-04  8424   0.681E-04-0.337E-04
CGA:  18    -0.699704217519E+03   -0.23791E-05   -0.23472E-05  8424   0.275E-04-0.622E-06
   6 F= -.69970422E+03 E0= -.69969510E+03  d E =-.635772E-01  mag=     1.9932
       N       E                     dE             d eps       ncg     rms          ort
SDA:   1    -0.697404241662E+03    0.23000E+01    0.00000E+00  8424   0.693E+01 0.000E+00
CGA:   2    -0.698474513140E+03   -0.10703E+01   -0.10826E+01  8424   0.963E+01-0.202E+00
CGA:   3    -0.699161381836E+03   -0.68687E+00   -0.69063E+00  8424   0.302E+01-0.687E-01
CGA:   4    -0.699548693677E+03   -0.38731E+00   -0.38695E+00  8424   0.104E+01 0.117E-01
CGA:   5    -0.699670067398E+03   -0.12137E+00   -0.12137E+00  8424   0.231E+00 0.604E-02
CGA:   6    -0.699701935957E+03   -0.31869E-01   -0.31818E-01  8424   0.161E+00 0.146E-02
CGA:   7    -0.699711676034E+03   -0.97401E-02   -0.98021E-02  8424   0.435E-01 0.790E-05
CGA:   8    -0.699716761621E+03   -0.50856E-02   -0.50828E-02  8424   0.176E-01 0.632E-03
CGA:   9    -0.699719567063E+03   -0.28054E-02   -0.28290E-02  8424   0.589E-02-0.543E-03
CGA:  10    -0.699720414074E+03   -0.84701E-03   -0.83327E-03  8424   0.379E-02 0.458E-03
CGA:  11    -0.699720744269E+03   -0.33019E-03   -0.33381E-03  8424   0.264E-02 0.958E-04
CGA:  12    -0.699721072927E+03   -0.32866E-03   -0.32829E-03  8424   0.817E-03 0.635E-04
CGA:  13    -0.699721245051E+03   -0.17212E-03   -0.17182E-03  8424   0.577E-03 0.181E-05
CGA:  14    -0.699721307607E+03   -0.62556E-04   -0.62476E-04  8424   0.466E-03-0.738E-05
CGA:  15    -0.699721347176E+03   -0.39569E-04   -0.39880E-04  8424   0.210E-03 0.894E-05
CGA:  16    -0.699721369787E+03   -0.22611E-04   -0.23210E-04  8424   0.536E-04 0.600E-04
CGA:  17    -0.699721386581E+03   -0.16795E-04    0.12027E-03  8424   0.308E-04 0.310E-04
CGA:  18    -0.699721390178E+03   -0.35966E-05   -0.67050E-05  8424   0.208E-03-0.312E-04
   7 F= -.69972139E+03 E0= -.69971209E+03  d E =-.171727E-01  mag=     1.9925
       N       E                     dE             d eps       ncg     rms          ort
SDA:   1    -0.699169704867E+03    0.55168E+00    0.00000E+00  8424   0.169E+01 0.000E+00
CGA:   2    -0.699496680240E+03   -0.32698E+00   -0.32660E+00  8424   0.118E+01 0.514E-02
CGA:   3    -0.699607049308E+03   -0.11037E+00   -0.11122E+00  8424   0.923E+00 0.413E-02
CGA:   4    -0.699689770633E+03   -0.82721E-01   -0.83130E-01  8424   0.246E+00 0.145E-02
CGA:   5    -0.699717823000E+03   -0.28052E-01   -0.28054E-01  8424   0.594E-01 0.128E-02
CGA:   6    -0.699726821745E+03   -0.89987E-02   -0.90253E-02  8424   0.243E-01-0.836E-03
CGA:   7    -0.699728577776E+03   -0.17560E-02   -0.17580E-02  8424   0.119E-01-0.166E-03
CGA:   8    -0.699729685923E+03   -0.11081E-02   -0.11086E-02  8424   0.407E-02 0.365E-04
CGA:   9    -0.699730253572E+03   -0.56765E-03   -0.57611E-03  8424   0.176E-02-0.356E-03
CGA:  10    -0.699730427696E+03   -0.17412E-03   -0.17601E-03  8424   0.844E-03 0.220E-03
CGA:  11    -0.699730495549E+03   -0.67853E-04   -0.72999E-04  8424   0.453E-03 0.124E-03
CGA:  12    -0.699730563119E+03   -0.67570E-04   -0.66337E-04  8424   0.126E-03 0.103E-03
CGA:  13    -0.699730598933E+03   -0.35815E-04   -0.47865E-04  8424   0.407E-03-0.622E-04
CGA:  14    -0.699730603693E+03   -0.47600E-05   -0.60412E-05  8424   0.229E-03 0.129E-04
   8 F= -.69973060E+03 E0= -.69972131E+03  d E =-.921352E-02  mag=     1.9928
       N       E                     dE             d eps       ncg     rms          ort
SDA:   1    -0.699549239373E+03    0.18136E+00    0.00000E+00  8424   0.510E+00 0.000E+00
CGA:   2    -0.699673207522E+03   -0.12397E+00   -0.12425E+00  8424   0.351E+00-0.233E-02
CGA:   3    -0.699712233557E+03   -0.39026E-01   -0.38999E-01  8424   0.176E+00 0.941E-03
CGA:   4    -0.699725634464E+03   -0.13401E-01   -0.13417E-01  8424   0.806E-01 0.228E-03
CGA:   5    -0.699733129255E+03   -0.74948E-02   -0.74803E-02  8424   0.181E-01-0.487E-03
CGA:   6    -0.699735927497E+03   -0.27982E-02   -0.27931E-02  8424   0.612E-02 0.111E-03
CGA:   7    -0.699736474031E+03   -0.54653E-03   -0.53914E-03  8424   0.358E-02-0.211E-03
CGA:   8    -0.699736774656E+03   -0.30062E-03   -0.29213E-03  8424   0.132E-02-0.255E-03
CGA:   9    -0.699736923838E+03   -0.14918E-03   -0.14887E-03  8424   0.368E-03 0.656E-04
CGA:  10    -0.699736979465E+03   -0.55627E-04   -0.54428E-04  8424   0.304E-03 0.508E-04
CGA:  11    -0.699737001436E+03   -0.21971E-04   -0.24342E-04  8424   0.108E-03 0.491E-04
CGA:  12    -0.699737017857E+03   -0.16421E-04   -0.16009E-04  8424   0.454E-04 0.351E-04
CGA:  13    -0.699737029910E+03   -0.12053E-04   -0.11185E-04  8424   0.298E-04 0.125E-04
CGA:  14    -0.699737033188E+03   -0.32786E-05   -0.34688E-05  8424   0.268E-04 0.656E-05
   9 F= -.69973703E+03 E0= -.69972772E+03  d E =-.642949E-02  mag=     1.9926
       N       E                     dE             d eps       ncg     rms          ort
SDA:   1    -0.699481708159E+03    0.25532E+00    0.00000E+00  8424   0.698E+00 0.000E+00
CGA:   2    -0.699644892589E+03   -0.16318E+00   -0.16322E+00  8424   0.577E+00-0.407E-03
CGA:   3    -0.699689546191E+03   -0.44654E-01   -0.44183E-01  8424   0.350E+00 0.210E-02
CGA:   4    -0.699726773742E+03   -0.37228E-01   -0.37232E-01  8424   0.708E-01 0.804E-03
CGA:   5    -0.699735305557E+03   -0.85318E-02   -0.85321E-02  8424   0.255E-01-0.462E-03
CGA:   6    -0.699738502848E+03   -0.31973E-02   -0.31919E-02  8424   0.103E-01 0.759E-03
CGA:   7    -0.699739195092E+03   -0.69224E-03   -0.69300E-03  8424   0.416E-02 0.379E-04
CGA:   8    -0.699739770866E+03   -0.57577E-03   -0.58849E-03  8424   0.185E-02-0.542E-03
CGA:   9    -0.699739931455E+03   -0.16059E-03   -0.16189E-03  8424   0.804E-03 0.725E-04
CGA:  10    -0.699739995504E+03   -0.64049E-04   -0.67777E-04  8424   0.386E-03 0.101E-03
CGA:  11    -0.699740039601E+03   -0.44097E-04   -0.45285E-04  8424   0.123E-03 0.104E-03
CGA:  12    -0.699740069936E+03   -0.30334E-04   -0.28207E-04  8424   0.802E-04 0.325E-04
CGA:  13    -0.699740078157E+03   -0.82216E-05   -0.90372E-05  8424   0.445E-04 0.278E-04
  10 F= -.69974008E+03 E0= -.69973072E+03  d E =-.304497E-02  mag=     1.9924
       N       E                     dE             d eps       ncg     rms          ort
SDA:   1    -0.698848648778E+03    0.89142E+00    0.00000E+00  8424   0.242E+01 0.000E+00
CGA:   2    -0.699417985043E+03   -0.56934E+00   -0.56904E+00  8424   0.165E+01 0.225E-02
CGA:   3    -0.699572732023E+03   -0.15475E+00   -0.15354E+00  8424   0.143E+01-0.915E-02
CGA:   4    -0.699699005238E+03   -0.12627E+00   -0.12618E+00  8424   0.198E+00-0.613E-03
CGA:   5    -0.699728924480E+03   -0.29919E-01   -0.29854E-01  8424   0.649E-01 0.200E-02
CGA:   6    -0.699736837825E+03   -0.79133E-02   -0.79136E-02  8424   0.350E-01 0.740E-03
CGA:   7    -0.699739052528E+03   -0.22147E-02   -0.22171E-02  8424   0.116E-01 0.136E-03
CGA:   8    -0.699740713733E+03   -0.16612E-02   -0.16769E-02  8424   0.436E-02-0.631E-03
CGA:   9    -0.699741217731E+03   -0.50400E-03   -0.50344E-03  8424   0.223E-02 0.209E-03
CGA:  10    -0.699741393583E+03   -0.17585E-03   -0.17936E-03  8424   0.124E-02 0.799E-04
CGA:  11    -0.699741551423E+03   -0.15784E-03   -0.15723E-03  8424   0.458E-03 0.116E-03
CGA:  12    -0.699741632538E+03   -0.81114E-04   -0.79314E-04  8424   0.334E-03 0.436E-04
CGA:  13    -0.699741661927E+03   -0.29389E-04   -0.30117E-04  8424   0.205E-03 0.193E-04
CGA:  14    -0.699741688488E+03   -0.26561E-04   -0.26504E-04  8424   0.986E-04 0.132E-04
CGA:  15    -0.699741695028E+03   -0.65399E-05   -0.84499E-05  8424   0.354E-04 0.508E-04
  11 F= -.69974170E+03 E0= -.69973227E+03  d E =-.161687E-02  mag=     1.9921
       N       E                     dE             d eps       ncg     rms          ort
SDA:   1    -0.699567188980E+03    0.17450E+00    0.00000E+00  8424   0.556E+00 0.000E+00
CGA:   2    -0.699672176699E+03   -0.10499E+00   -0.10505E+00  8424   0.373E+00-0.109E-02
CGA:   3    -0.699703202398E+03   -0.31026E-01   -0.30875E-01  8424   0.280E+00-0.214E-03
CGA:   4    -0.699733102483E+03   -0.29900E-01   -0.29877E-01  8424   0.631E-01-0.118E-02
CGA:   5    -0.699741060067E+03   -0.79576E-02   -0.79540E-02  8424   0.224E-01 0.201E-03
CGA:   6    -0.699743294730E+03   -0.22347E-02   -0.22466E-02  8424   0.128E-01 0.701E-03
CGA:   7    -0.699744152596E+03   -0.85787E-03   -0.87937E-03  8424   0.302E-02 0.455E-03
CGA:   8    -0.699744640839E+03   -0.48824E-03   -0.49639E-03  8424   0.128E-02-0.184E-03
CGA:   9    -0.699744747895E+03   -0.10706E-03   -0.10901E-03  8424   0.714E-03 0.755E-04
CGA:  10    -0.699744815729E+03   -0.67834E-04   -0.68456E-04  8424   0.353E-03 0.247E-04
CGA:  11    -0.699744864682E+03   -0.48953E-04   -0.50023E-04  8424   0.196E-03-0.466E-04
CGA:  12    -0.699744883208E+03   -0.18526E-04   -0.18429E-04  8424   0.161E-03-0.150E-04
CGA:  13    -0.699744894423E+03   -0.11214E-04   -0.11706E-04  8424   0.422E-04 0.136E-04
CGA:  14    -0.699744904008E+03   -0.95859E-05   -0.99370E-05  8424   0.295E-04-0.343E-05
  12 F= -.69974490E+03 E0= -.69973548E+03  d E =-.320898E-02  mag=     1.9922
       N       E                     dE             d eps       ncg     rms          ort
SDA:   1    -0.699710527149E+03    0.34367E-01    0.00000E+00  8424   0.107E+00 0.000E+00
CGA:   2    -0.699730615482E+03   -0.20088E-01   -0.20041E-01  8424   0.118E+00 0.649E-03
CGA:   3    -0.699738561217E+03   -0.79457E-02   -0.79697E-02  8424   0.463E-01-0.670E-03
CGA:   4    -0.699744027905E+03   -0.54667E-02   -0.54673E-02  8424   0.151E-01-0.400E-03
CGA:   5    -0.699745768587E+03   -0.17407E-02   -0.17408E-02  8424   0.417E-02 0.270E-03
CGA:   6    -0.699746225493E+03   -0.45691E-03   -0.45649E-03  8424   0.354E-02-0.471E-04
CGA:   7    -0.699746485246E+03   -0.25975E-03   -0.25544E-03  8424   0.567E-03-0.106E-03
CGA:   8    -0.699746544517E+03   -0.59270E-04   -0.59819E-04  8424   0.193E-03 0.107E-03
CGA:   9    -0.699746576459E+03   -0.31942E-04   -0.31558E-04  8424   0.133E-03 0.158E-04
CGA:  10    -0.699746586222E+03   -0.97631E-05   -0.10093E-04  8424   0.604E-04 0.727E-05
CGA:  11    -0.699746596777E+03   -0.10555E-04   -0.10763E-04  8424   0.317E-04-0.374E-05
CGA:  12    -0.699746599212E+03   -0.24350E-05   -0.26380E-05  8424   0.161E-04 0.762E-05
  13 F= -.69974660E+03 E0= -.69973718E+03  d E =-.169520E-02  mag=     1.9923
       N       E                     dE             d eps       ncg     rms          ort
SDA:   1    -0.699710158646E+03    0.36438E-01    0.00000E+00  8424   0.111E+00 0.000E+00
CGA:   2    -0.699733573655E+03   -0.23415E-01   -0.23425E-01  8424   0.521E-01-0.117E-03
CGA:   3    -0.699742552284E+03   -0.89786E-02   -0.90147E-02  8424   0.459E-01-0.701E-03
CGA:   4    -0.699745224166E+03   -0.26719E-02   -0.26780E-02  8424   0.126E-01 0.280E-03
CGA:   5    -0.699746640803E+03   -0.14166E-02   -0.14192E-02  8424   0.344E-02 0.434E-03
CGA:   6    -0.699747128779E+03   -0.48798E-03   -0.48656E-03  8424   0.776E-03 0.733E-04
CGA:   7    -0.699747247513E+03   -0.11873E-03   -0.11715E-03  8424   0.263E-03 0.546E-04
CGA:   8    -0.699747286228E+03   -0.38715E-04   -0.40583E-04  8424   0.464E-03-0.792E-04
CGA:   9    -0.699747305387E+03   -0.19159E-04   -0.18432E-04  8424   0.154E-03-0.115E-04
CGA:  10    -0.699747308346E+03   -0.29587E-05   -0.55259E-05  8424   0.772E-04 0.316E-04
  14 F= -.69974731E+03 E0= -.69973787E+03  d E =-.709134E-03  mag=     1.9922
       N       E                     dE             d eps       ncg     rms          ort
SDA:   1    -0.699632035379E+03    0.11527E+00    0.00000E+00  8424   0.411E+00 0.000E+00
CGA:   2    -0.699670475992E+03   -0.38441E-01   -0.38402E-01  8424   0.465E+00-0.653E-03
CGA:   3    -0.699721727330E+03   -0.51251E-01   -0.51251E-01  8424   0.114E+00-0.191E-03
CGA:   4    -0.699742776614E+03   -0.21049E-01   -0.21063E-01  8424   0.249E-01-0.205E-03
CGA:   5    -0.699746041914E+03   -0.32653E-02   -0.32468E-02  8424   0.103E-01 0.109E-02
CGA:   6    -0.699747173609E+03   -0.11317E-02   -0.11308E-02  8424   0.572E-02-0.132E-03
CGA:   7    -0.699747529089E+03   -0.35548E-03   -0.35184E-03  8424   0.166E-02-0.614E-04
CGA:   8    -0.699747773799E+03   -0.24471E-03   -0.24797E-03  8424   0.580E-03-0.837E-04
CGA:   9    -0.699747864089E+03   -0.90290E-04   -0.97792E-04  8424   0.331E-03-0.117E-03
CGA:  10    -0.699747883698E+03   -0.19609E-04   -0.22404E-04  8424   0.953E-04 0.878E-04
CGA:  11    -0.699747890794E+03   -0.70957E-05   -0.91340E-05  8424   0.549E-04 0.519E-04
CGA:  12    -0.699747875743E+03    0.15051E-04   -0.28797E-04  8424   0.717E-03-0.107E-03
CGA:  13    -0.699747906345E+03   -0.30602E-04   -0.38048E-04  8424   0.589E-04 0.928E-04
CGA:  14    -0.699747908028E+03   -0.16829E-05   -0.30720E-05  8424   0.147E-04 0.165E-04
  15 F= -.69974791E+03 E0= -.69973848E+03  d E =-.599682E-03  mag=     1.9923
       N       E                     dE             d eps       ncg     rms          ort
SDA:   1    -0.699588881111E+03    0.15903E+00    0.00000E+00  8424   0.513E+00 0.000E+00
CGA:   2    -0.699684931283E+03   -0.96050E-01   -0.96027E-01  8424   0.263E+00 0.197E-03
CGA:   3    -0.699712879351E+03   -0.27948E-01   -0.27892E-01  8424   0.285E+00-0.622E-03
CGA:   4    -0.699738067938E+03   -0.25189E-01   -0.25174E-01  8424   0.495E-01-0.199E-03
CGA:   5    -0.699744915808E+03   -0.68479E-02   -0.68360E-02  8424   0.154E-01 0.801E-03
CGA:   6    -0.699746798704E+03   -0.18829E-02   -0.18832E-02  8424   0.826E-02 0.617E-04
CGA:   7    -0.699747326285E+03   -0.52758E-03   -0.52824E-03  8424   0.284E-02 0.218E-04
CGA:   8    -0.699747704025E+03   -0.37774E-03   -0.38072E-03  8424   0.104E-02-0.242E-03
CGA:   9    -0.699747835062E+03   -0.13104E-03   -0.13199E-03  8424   0.659E-03-0.547E-04
CGA:  10    -0.699747873935E+03   -0.38873E-04   -0.40613E-04  8424   0.250E-03 0.294E-04
CGA:  11    -0.699747893455E+03   -0.19520E-04   -0.22690E-04  8424   0.770E-04 0.963E-04
CGA:  12    -0.699747904029E+03   -0.10574E-04   -0.11132E-04  8424   0.708E-04 0.398E-04
CGA:  13    -0.699747909400E+03   -0.53704E-05   -0.48805E-05  8424   0.576E-04-0.102E-04
  16 F= -.69974791E+03 E0= -.69973840E+03  d E =-.137184E-05  mag=     1.9918
       N       E                     dE             d eps       ncg     rms          ort
SDA:   1    -0.699695171211E+03    0.52733E-01    0.00000E+00  8424   0.183E+00 0.000E+00
CGA:   2    -0.699722780410E+03   -0.27609E-01   -0.27616E-01  8424   0.178E+00-0.357E-03
CGA:   3    -0.699734842388E+03   -0.12062E-01   -0.12044E-01  8424   0.696E-01 0.574E-03
CGA:   4    -0.699744764884E+03   -0.99225E-02   -0.99023E-02  8424   0.254E-01 0.596E-03
CGA:   5    -0.699747908638E+03   -0.31438E-02   -0.31456E-02  8424   0.712E-02-0.294E-03
CGA:   6    -0.699748774470E+03   -0.86583E-03   -0.86460E-03  8424   0.415E-02 0.233E-03
CGA:   7    -0.699749025337E+03   -0.25087E-03   -0.25637E-03  8424   0.107E-02 0.909E-04
CGA:   8    -0.699749186321E+03   -0.16098E-03   -0.16631E-03  8424   0.535E-03-0.145E-03
CGA:   9    -0.699749222246E+03   -0.35925E-04   -0.37808E-04  8424   0.192E-03 0.532E-04
CGA:  10    -0.699749241338E+03   -0.19093E-04   -0.19579E-04  8424   0.123E-03 0.214E-04
CGA:  11    -0.699749261522E+03   -0.20183E-04   -0.21123E-04  8424   0.604E-04-0.235E-04
CGA:  12    -0.699749266596E+03   -0.50742E-05   -0.47991E-05  8424   0.618E-04-0.154E-04
  17 F= -.69974927E+03 E0= -.69973977E+03  d E =-.135720E-02  mag=     1.9920
       N       E                     dE             d eps       ncg     rms          ort
SDA:   1    -0.699743495731E+03    0.57658E-02    0.00000E+00  8424   0.203E-01 0.000E+00
CGA:   2    -0.699746254199E+03   -0.27585E-02   -0.27609E-02  8424   0.228E-01-0.112E-03
CGA:   3    -0.699747842745E+03   -0.15885E-02   -0.15948E-02  8424   0.736E-02 0.168E-03
CGA:   4    -0.699749070209E+03   -0.12275E-02   -0.12241E-02  8424   0.243E-02 0.616E-04
CGA:   5    -0.699749391592E+03   -0.32138E-03   -0.32338E-03  8424   0.680E-03-0.120E-03
CGA:   6    -0.699749484546E+03   -0.92954E-04   -0.93617E-04  8424   0.232E-03-0.238E-04
CGA:   7    -0.699749500739E+03   -0.16193E-04   -0.16523E-04  8424   0.120E-03 0.743E-05
CGA:   8    -0.699749511010E+03   -0.10271E-04   -0.10487E-04  8424   0.376E-04 0.698E-05
CGA:   9    -0.699749513105E+03   -0.20948E-05   -0.29176E-05  8424   0.123E-04 0.203E-04
  18 F= -.69974951E+03 E0= -.69974002E+03  d E =-.246509E-03  mag=     1.9920
       N       E                     dE             d eps       ncg     rms          ort
SDA:   1    -0.699738098494E+03    0.11413E-01    0.00000E+00  8424   0.365E-01 0.000E+00
CGA:   2    -0.699742971671E+03   -0.48732E-02   -0.48711E-02  8424   0.501E-01 0.789E-04
CGA:   3    -0.699746992823E+03   -0.40212E-02   -0.40136E-02  8424   0.139E-01-0.347E-03
CGA:   4    -0.699749000636E+03   -0.20078E-02   -0.20110E-02  8424   0.457E-02-0.102E-03
CGA:   5    -0.699749498856E+03   -0.49822E-03   -0.49925E-03  8424   0.125E-02 0.163E-03
CGA:   6    -0.699749610348E+03   -0.11149E-03   -0.11454E-03  8424   0.883E-03 0.111E-03
CGA:   7    -0.699749688548E+03   -0.78199E-04   -0.80030E-04  8424   0.140E-03 0.585E-04
CGA:   8    -0.699749708751E+03   -0.20204E-04   -0.19737E-04  8424   0.703E-04 0.241E-04
CGA:   9    -0.699749719589E+03   -0.10837E-04   -0.12648E-04  8424   0.168E-03-0.457E-04
CGA:  10    -0.699749724184E+03   -0.45955E-05   -0.58021E-05  8424   0.123E-04 0.148E-04
  19 F= -.69974972E+03 E0= -.69974022E+03  d E =-.211079E-03  mag=     1.9921
       N       E                     dE             d eps       ncg     rms          ort
SDA:   1    -0.699735177220E+03    0.14542E-01    0.00000E+00  8424   0.429E-01 0.000E+00
CGA:   2    -0.699743251029E+03   -0.80738E-02   -0.80838E-02  8424   0.504E-01-0.139E-03
CGA:   3    -0.699746455097E+03   -0.32041E-02   -0.31950E-02  8424   0.181E-01-0.350E-03
CGA:   4    -0.699749302306E+03   -0.28472E-02   -0.28450E-02  8424   0.342E-02 0.423E-04
CGA:   5    -0.699749754086E+03   -0.45178E-03   -0.44721E-03  8424   0.156E-02 0.257E-03
CGA:   6    -0.699749866777E+03   -0.11269E-03   -0.11918E-03  8424   0.690E-03 0.152E-03
CGA:   7    -0.699749935351E+03   -0.68573E-04   -0.69540E-04  8424   0.168E-03 0.489E-04
CGA:   8    -0.699749968213E+03   -0.32862E-04   -0.41293E-04  8424   0.232E-03-0.713E-04
CGA:   9    -0.699749975455E+03   -0.72421E-05   -0.64840E-05  8424   0.925E-04-0.113E-04
  20 F= -.69974998E+03 E0= -.69974047E+03  d E =-.251271E-03  mag=     1.9921
       N       E                     dE             d eps       ncg     rms          ort
SDA:   1    -0.697852166238E+03    0.18978E+01    0.00000E+00  8424   0.584E+01 0.000E+00
CGA:   2    -0.699013568450E+03   -0.11614E+01   -0.11592E+01  8424   0.259E+01 0.223E-01
CGA:   3    -0.699519810929E+03   -0.50624E+00   -0.51226E+00  8424   0.151E+01-0.720E-01
CGA:   4    -0.699650645491E+03   -0.13083E+00   -0.13301E+00  8424   0.714E+00 0.160E-01
CGA:   5    -0.699696109395E+03   -0.45464E-01   -0.46114E-01  8424   0.216E+00-0.318E-02
CGA:   6    -0.699724392767E+03   -0.28283E-01   -0.28221E-01  8424   0.421E-01 0.352E-02
CGA:   7    -0.699730208404E+03   -0.58156E-02   -0.58390E-02  8424   0.374E-01-0.118E-02
CGA:   8    -0.699732555606E+03   -0.23472E-02   -0.23321E-02  8424   0.106E-01-0.385E-03
CGA:   9    -0.699734064589E+03   -0.15090E-02   -0.15013E-02  8424   0.407E-02 0.254E-03
CGA:  10    -0.699734638380E+03   -0.57379E-03   -0.57132E-03  8424   0.177E-02 0.113E-03
CGA:  11    -0.699734860080E+03   -0.22170E-03   -0.22101E-03  8424   0.175E-02 0.130E-03
CGA:  12    -0.699735003422E+03   -0.14334E-03   -0.14723E-03  8424   0.573E-03 0.101E-03
CGA:  13    -0.699735102382E+03   -0.98959E-04   -0.10545E-03  8424   0.526E-03-0.110E-03
CGA:  14    -0.699735138018E+03   -0.35636E-04   -0.37740E-04  8424   0.243E-03 0.725E-04
CGA:  15    -0.699735153635E+03   -0.15617E-04   -0.19028E-04  8424   0.836E-04 0.713E-04
CGA:  16    -0.699735169094E+03   -0.15459E-04   -0.14576E-04  8424   0.543E-04 0.421E-04
CGA:  17    -0.699735121106E+03    0.47988E-04   -0.24471E-04  8424   0.196E-02-0.216E-03
CGA:  18    -0.699735193530E+03   -0.72424E-04   -0.77415E-04  8424   0.145E-03 0.412E-04
CGA:  19    -0.699735195634E+03   -0.21039E-05   -0.62900E-05  8424   0.204E-04 0.495E-04
  21 F= -.69973520E+03 E0= -.69972553E+03  d E =0.147798E-01  mag=     1.9918
       N       E                     dE             d eps       ncg     rms          ort
SDA:   1    -0.698407044093E+03    0.13281E+01    0.00000E+00  8424   0.428E+01 0.000E+00
CGA:   2    -0.699180590198E+03   -0.77355E+00   -0.77380E+00  8424   0.311E+01-0.288E-02
CGA:   3    -0.699399755022E+03   -0.21916E+00   -0.22485E+00  8424   0.205E+01-0.349E-01
CGA:   4    -0.699670447492E+03   -0.27069E+00   -0.27061E+00  8424   0.386E+00 0.352E-02
CGA:   5    -0.699724201823E+03   -0.53754E-01   -0.53875E-01  8424   0.181E+00-0.476E-02
CGA:   6    -0.699737263008E+03   -0.13061E-01   -0.13050E-01  8424   0.902E-01-0.627E-03
CGA:   7    -0.699745301829E+03   -0.80388E-02   -0.80295E-02  8424   0.188E-01-0.558E-03
CGA:   8    -0.699748078257E+03   -0.27764E-02   -0.27586E-02  8424   0.915E-02 0.562E-03
CGA:   9    -0.699748846208E+03   -0.76795E-03   -0.77399E-03  8424   0.621E-02 0.129E-03
CGA:  10    -0.699749493362E+03   -0.64715E-03   -0.64887E-03  8424   0.158E-02 0.122E-03
CGA:  11    -0.699749765553E+03   -0.27219E-03   -0.29125E-03  8424   0.198E-02-0.294E-03
CGA:  12    -0.699749887781E+03   -0.12223E-03   -0.12054E-03  8424   0.880E-03-0.403E-04
CGA:  13    -0.699749963498E+03   -0.75717E-04   -0.77059E-04  8424   0.304E-03 0.465E-04
CGA:  14    -0.699750019110E+03   -0.55612E-04   -0.57379E-04  8424   0.479E-03-0.279E-04
CGA:  15    -0.699750043661E+03   -0.24551E-04   -0.23838E-04  8424   0.113E-03-0.116E-04
CGA:  16    -0.699750059589E+03   -0.15927E-04   -0.19290E-04  8424   0.259E-03-0.571E-04
CGA:  17    -0.699750073957E+03   -0.14369E-04   -0.13074E-04  8424   0.572E-04-0.197E-04
CGA:  18    -0.699750077720E+03   -0.37625E-05   -0.40521E-05  8424   0.185E-04 0.746E-05
  22 F= -.69975008E+03 E0= -.69974056E+03  d E =-.148821E-01  mag=     1.9922
       N       E                     dE             d eps       ncg     rms          ort
SDA:   1    -0.699727569009E+03    0.22505E-01    0.00000E+00  8424   0.707E-01 0.000E+00
CGA:   2    -0.699741016552E+03   -0.13448E-01   -0.13479E-01  8424   0.476E-01-0.410E-03
CGA:   3    -0.699744884041E+03   -0.38675E-02   -0.38701E-02  8424   0.350E-01-0.763E-04
CGA:   4    -0.699748519453E+03   -0.36354E-02   -0.36379E-02  8424   0.812E-02 0.266E-03
CGA:   5    -0.699749592004E+03   -0.10726E-02   -0.10766E-02  8424   0.324E-02-0.221E-03
CGA:   6    -0.699749886006E+03   -0.29400E-03   -0.29857E-03  8424   0.141E-02 0.242E-03
CGA:   7    -0.699749984447E+03   -0.98441E-04   -0.10171E-03  8424   0.455E-03 0.697E-04
CGA:   8    -0.699750049532E+03   -0.65085E-04   -0.65162E-04  8424   0.150E-03-0.321E-05
CGA:   9    -0.699750063666E+03   -0.14134E-04   -0.14134E-04  8424   0.114E-03-0.220E-06
CGA:  10    -0.699750072985E+03   -0.93193E-05   -0.96975E-05  8424   0.352E-04 0.147E-04
CGA:  11    -0.699750078537E+03   -0.55513E-05   -0.10551E-04  8424   0.890E-04-0.321E-04
  23 F= -.69975008E+03 E0= -.69974055E+03  d E =-.816894E-06  mag=     1.9920
       N       E                     dE             d eps       ncg     rms          ort
SDA:   1    -0.699743900765E+03    0.61722E-02    0.00000E+00  8424   0.242E-01 0.000E+00
CGA:   2    -0.699746590706E+03   -0.26899E-02   -0.26906E-02  8424   0.249E-01 0.189E-03
CGA:   3    -0.699748567971E+03   -0.19773E-02   -0.19764E-02  8424   0.756E-02-0.607E-04
CGA:   4    -0.699749842321E+03   -0.12743E-02   -0.12740E-02  8424   0.300E-02 0.415E-06
CGA:   5    -0.699750183676E+03   -0.34136E-03   -0.34134E-03  8424   0.130E-02-0.101E-04
CGA:   6    -0.699750268444E+03   -0.84768E-04   -0.86478E-04  8424   0.547E-03 0.349E-04
CGA:   7    -0.699750332864E+03   -0.64420E-04   -0.64453E-04  8424   0.112E-03-0.169E-04
CGA:   8    -0.699750350165E+03   -0.17301E-04   -0.18842E-04  8424   0.107E-03-0.256E-04
CGA:   9    -0.699750356436E+03   -0.62717E-05   -0.54359E-05  8424   0.436E-04-0.169E-04
  24 F= -.69975036E+03 E0= -.69974083E+03  d E =-.277900E-03  mag=     1.9921
       N       E                     dE             d eps       ncg     rms          ort
SDA:   1    -0.699748824152E+03    0.15260E-02    0.00000E+00  8424   0.523E-02 0.000E+00
CGA:   2    -0.699749471262E+03   -0.64711E-03   -0.64760E-03  8424   0.644E-02-0.467E-04
CGA:   3    -0.699749975002E+03   -0.50374E-03   -0.50484E-03  8424   0.200E-02 0.325E-04
CGA:   4    -0.699750287579E+03   -0.31258E-03   -0.31674E-03  8424   0.777E-03-0.895E-04
CGA:   5    -0.699750364181E+03   -0.76602E-04   -0.77272E-04  8424   0.136E-03 0.724E-04
CGA:   6    -0.699750388377E+03   -0.24196E-04   -0.23527E-04  8424   0.395E-04 0.148E-04
CGA:   7    -0.699750393474E+03   -0.50975E-05   -0.50918E-05  8424   0.130E-04 0.554E-05
  25 F= -.69975039E+03 E0= -.69974087E+03  d E =-.370379E-04  mag=     1.9921
       N       E                     dE             d eps       ncg     rms          ort
SDA:   1    -0.699736008045E+03    0.14380E-01    0.00000E+00  8424   0.831E-01 0.000E+00
CGA:   2    -0.699740949181E+03   -0.49411E-02   -0.49489E-02  8424   0.416E-01 0.308E-03
CGA:   3    -0.699746399198E+03   -0.54500E-02   -0.54504E-02  8424   0.180E-01-0.137E-03
CGA:   4    -0.699748995425E+03   -0.25962E-02   -0.25981E-02  8424   0.753E-02-0.135E-03
CGA:   5    -0.699750016411E+03   -0.10210E-02   -0.10200E-02  8424   0.236E-02 0.125E-03
CGA:   6    -0.699750173490E+03   -0.15708E-03   -0.15902E-03  8424   0.120E-02 0.301E-04
CGA:   7    -0.699750318770E+03   -0.14528E-03   -0.14498E-03  8424   0.250E-03-0.421E-04
CGA:   8    -0.699750338779E+03   -0.20008E-04   -0.21659E-04  8424   0.922E-04 0.458E-04
CGA:   9    -0.699750353231E+03   -0.14452E-04   -0.14521E-04  8424   0.101E-03-0.776E-05
CGA:  10    -0.699750360336E+03   -0.71050E-05   -0.66855E-05  8424   0.256E-04-0.808E-05
  26 F= -.69975036E+03 E0= -.69974084E+03  d E =0.331387E-04  mag=     1.9921
       N       E                     dE             d eps       ncg     rms          ort
SDA:   1    -0.699746271069E+03    0.40822E-02    0.00000E+00  8424   0.165E-01 0.000E+00
CGA:   2    -0.699748484710E+03   -0.22136E-02   -0.22162E-02  8424   0.905E-02-0.318E-03
CGA:   3    -0.699749558228E+03   -0.10735E-02   -0.10748E-02  8424   0.608E-02 0.210E-03
CGA:   4    -0.699750000504E+03   -0.44228E-03   -0.44922E-03  8424   0.281E-02 0.128E-03
CGA:   5    -0.699750389805E+03   -0.38930E-03   -0.39161E-03  8424   0.607E-03-0.182E-03
CGA:   6    -0.699750451856E+03   -0.62051E-04   -0.62479E-04  8424   0.312E-03 0.298E-04
CGA:   7    -0.699750479247E+03   -0.27392E-04   -0.26337E-04  8424   0.148E-03-0.247E-04
CGA:   8    -0.699750491945E+03   -0.12698E-04   -0.12239E-04  8424   0.386E-04-0.146E-04
CGA:   9    -0.699750495661E+03   -0.37160E-05   -0.37833E-05  8424   0.187E-04 0.601E-05
  27 F= -.69975050E+03 E0= -.69974097E+03  d E =-.135326E-03  mag=     1.9921
