       N       E                     dE             d eps       ncg     rms          ort
DAV:   1     0.829944526919E+04    0.82994E+04   -0.24652E+05  8424   0.238E+03
DAV:   2     0.922255443605E+03   -0.73772E+04   -0.69243E+04  8424   0.659E+02
DAV:   3    -0.677438968941E+03   -0.15997E+04   -0.14083E+04  8424   0.283E+02
DAV:   4    -0.834099073986E+03   -0.15666E+03   -0.15393E+03  8424   0.858E+01
DAV:   5    -0.836642169314E+03   -0.25431E+01   -0.25311E+01  8424   0.123E+01
SDA:   6    -0.257517579931E+03    0.57912E+03   -0.25311E+01  8424   0.644E+04 0.000E+00
CGA:   7    -0.224826400927E+03    0.32691E+02   -0.41810E+03  8424   0.264E+05-0.356E+04
CGA:   8     0.110511836576E+04    0.13299E+04   -0.16270E+04  8424   0.123E+06-0.483E+05
CGA:   9     0.496658735073E+04    0.38615E+04   -0.94492E+04  8424   0.192E+05-0.987E+04
CGA:  10     0.903275471617E+03   -0.40633E+04   -0.69189E+03  8424   0.227E+05-0.103E+05
CGA:  11     0.810154184319E+03   -0.93121E+02   -0.95653E+03  8424   0.100E+06-0.924E+05
CGA:  12     0.440564137573E+04    0.35955E+04   -0.68518E+04  8424   0.175E+05-0.897E+04
CGA:  13    -0.160546368445E+03   -0.45662E+04   -0.50131E+03  8424   0.333E+05-0.109E+06
CGA:  14     0.414143105792E+03    0.57469E+03   -0.17260E+04  8424   0.415E+05-0.250E+05
CGA:  15     0.115765016018E+04    0.74351E+03   -0.21506E+04  8424   0.101E+06-0.772E+05
CGA:  16     0.419346532730E+04    0.30358E+04   -0.61064E+04  8424   0.166E+05-0.980E+04
CGA:  17    -0.538916130150E+03   -0.47324E+04   -0.39231E+03  8424   0.799E+04-0.475E+05
CGA:  18    -0.644913173751E+03   -0.10600E+03   -0.32126E+03  8424   0.151E+03-0.128E+03
CGA:  19    -0.657719300401E+03   -0.12806E+02   -0.11236E+02  8424   0.409E+02 0.176E+02
CGA:  20    -0.665006418400E+03   -0.72871E+01   -0.87500E+01  8424   0.629E+02-0.159E+02
CGA:  21    -0.668242548750E+03   -0.32361E+01   -0.26502E+01  8424   0.329E+02 0.470E+01
CGA:  22    -0.670561610598E+03   -0.23191E+01   -0.30821E+01  8424   0.385E+02 0.112E+01
CGA:  23    -0.672526824865E+03   -0.19652E+01   -0.21857E+01  8424   0.252E+02-0.180E+02
CGA:  24    -0.673349032360E+03   -0.82221E+00   -0.48726E+00  8424   0.147E+02 0.999E+01
CGA:  25    -0.672861093115E+03    0.48794E+00   -0.75879E+00  8424   0.394E+02-0.293E+02
CGA:  26    -0.673308948676E+03   -0.44786E+00   -0.18499E+01  8424   0.272E+02-0.207E+02
CGA:  27    -0.673953671245E+03   -0.64472E+00   -0.11550E+01  8424   0.214E+02-0.226E+02
CGA:  28    -0.674373863200E+03   -0.42019E+00   -0.82652E+00  8424   0.130E+02-0.138E+02
CGA:  29    -0.674633177149E+03   -0.25931E+00   -0.48775E+00  8424   0.710E+01-0.627E+01
CGA:  30    -0.674807890312E+03   -0.17471E+00   -0.60946E+00  8424   0.278E+02-0.583E+01
CGA:  31    -0.674966163036E+03   -0.15827E+00   -0.12449E+01  8424   0.129E+02-0.111E+02
CGA:  32    -0.675445278433E+03   -0.47912E+00   -0.34313E+00  8424   0.852E+00 0.193E+01
CGA:  33    -0.675483030359E+03   -0.37752E-01   -0.39161E-01  8424   0.698E+00-0.558E-01
CGA:  34    -0.675576228844E+03   -0.93198E-01   -0.83744E-01  8424   0.986E+00 0.195E+00
CGA:  35    -0.675656394733E+03   -0.80166E-01   -0.86776E-01  8424   0.389E+00 0.663E-01
CGA:  36    -0.675712630952E+03   -0.56236E-01   -0.53516E-01  8424   0.136E+00 0.592E-01
CGA:  37    -0.675744614866E+03   -0.31984E-01   -0.29919E-01  8424   0.103E+00 0.199E-01
CGA:  38    -0.675769901299E+03   -0.25286E-01   -0.23639E-01  8424   0.606E-01 0.156E-01
CGA:  39    -0.675779723412E+03   -0.98221E-02   -0.97118E-02  8424   0.341E-01 0.312E-02
CGA:  40    -0.675787780318E+03   -0.80569E-02   -0.71313E-02  8424   0.188E-01 0.919E-02
CGA:  41    -0.675794667070E+03   -0.68868E-02   -0.73615E-02  8424   0.465E-01-0.259E-02
CGA:  42    -0.675801423058E+03   -0.67560E-02   -0.72917E-02  8424   0.442E-01-0.798E-02
CGA:  43    -0.675804600549E+03   -0.31775E-02   -0.32434E-02  8424   0.272E-01 0.641E-03
CGA:  44    -0.675807288365E+03   -0.26878E-02   -0.27163E-02  8424   0.135E-01-0.858E-03
CGA:  45    -0.675810322861E+03   -0.30345E-02   -0.46669E-02  8424   0.604E-01-0.702E-02
CGA:  46    -0.675814562642E+03   -0.42398E-02   -0.43274E-02  8424   0.729E-02 0.136E-02
CGA:  47    -0.675815805694E+03   -0.12431E-02   -0.61813E-03  8424   0.462E-01-0.710E-02
CGA:  48    -0.675822068359E+03   -0.62627E-02   -0.64504E-02  8424   0.346E-02 0.181E-02
CGA:  49    -0.675823256013E+03   -0.11877E-02   -0.17275E-02  8424   0.850E-02-0.220E-02
CGA:  50    -0.675824654466E+03   -0.13985E-02   -0.14020E-02  8424   0.248E-02 0.432E-04
CGA:  51    -0.675825289235E+03   -0.63477E-03   -0.11305E-02  8424   0.180E-01-0.239E-02
CGA:  52    -0.675826506389E+03   -0.12172E-02   -0.13257E-02  8424   0.237E-02 0.733E-03
CGA:  53    -0.675827146108E+03   -0.63972E-03   -0.15647E-02  8424   0.105E-01-0.241E-02
CGA:  54    -0.675829317148E+03   -0.21710E-02   -0.21523E-02  8424   0.196E-02-0.319E-03
CGA:  55    -0.675823487163E+03    0.58300E-02   -0.31487E-02  8424   0.121E+00-0.653E-02
CGA:  56    -0.675833496588E+03   -0.10009E-01   -0.10165E-01  8424   0.167E-01 0.419E-02
CGA:  57    -0.675835890845E+03   -0.23943E-02   -0.21450E-02  8424   0.365E-02-0.754E-03
CGA:  58    -0.675837538068E+03   -0.16472E-02   -0.17177E-02  8424   0.633E-02-0.136E-02
CGA:  59    -0.675842019715E+03   -0.44816E-02    0.31811E-02  8424   0.128E-01 0.238E-02
CGA:  60    -0.675824703958E+03    0.17316E-01   -0.23254E-01  8424   0.924E+00-0.568E-01
CGA:  61    -0.675895517920E+03   -0.70814E-01   -0.10880E+00  8424   0.175E+00-0.257E+00
CGA:  62    -0.675914353709E+03   -0.18836E-01   -0.18491E-01  8424   0.166E-01 0.453E-02
CGA:  63    -0.675859029748E+03    0.55324E-01   -0.28957E-01  8424   0.118E+01-0.453E-01
CGA:  64    -0.676020162373E+03   -0.16113E+00   -0.15732E+00  8424   0.441E-01 0.236E-01
CGA:  65    -0.676043130551E+03   -0.22968E-01   -0.21591E-01  8424   0.298E-01-0.364E-02
CGA:  66    -0.676064128960E+03   -0.20998E-01   -0.20929E-01  8424   0.664E-01-0.911E-02
CGA:  67    -0.676081474133E+03   -0.17345E-01   -0.12561E-01  8424   0.393E-01-0.407E-02
CGA:  68    -0.676094972437E+03   -0.13498E-01   -0.11289E-01  8424   0.256E-01-0.657E-02
CGA:  69    -0.676101006068E+03   -0.60336E-02   -0.45547E-02  8424   0.901E-02-0.293E-02
CGA:  70    -0.676104142482E+03   -0.31364E-02   -0.26061E-02  8424   0.773E-02-0.142E-02
CGA:  71    -0.676106268295E+03   -0.21258E-02   -0.18117E-02  8424   0.564E-02-0.858E-03
CGA:  72    -0.676108148779E+03   -0.18805E-02   -0.17922E-02  8424   0.466E-02-0.371E-03
CGA:  73    -0.676109146293E+03   -0.99751E-03   -0.10299E-02  8424   0.294E-02 0.555E-04
CGA:  74    -0.676110105835E+03   -0.95954E-03   -0.10291E-02  8424   0.222E-02 0.211E-03
CGA:  75    -0.676110585740E+03   -0.47990E-03   -0.54329E-03  8424   0.125E-02 0.147E-03
CGA:  76    -0.676110985018E+03   -0.39928E-03   -0.45786E-03  8424   0.108E-02 0.224E-03
CGA:  77    -0.676111373089E+03   -0.38807E-03   -0.40662E-03  8424   0.119E-02 0.604E-04
CGA:  78    -0.676112146742E+03   -0.77365E-03   -0.79005E-03  8424   0.247E-02-0.306E-03
CGA:  79    -0.676112859956E+03   -0.71321E-03   -0.63073E-03  8424   0.342E-02-0.450E-03
CGA:  80    -0.676114354752E+03   -0.14948E-02   -0.14203E-02  8424   0.723E-02-0.183E-02
CGA:  81    -0.676116852372E+03   -0.24976E-02   -0.22455E-02  8424   0.469E-02-0.104E-02
CGA:  82    -0.676118758036E+03   -0.19057E-02   -0.18541E-02  8424   0.286E-02-0.587E-03
CGA:  83    -0.676119994388E+03   -0.12364E-02   -0.11375E-02  8424   0.267E-02-0.118E-02
CGA:  84    -0.676120818027E+03   -0.82364E-03   -0.77215E-03  8424   0.360E-02-0.123E-02
CGA:  85    -0.676121786124E+03   -0.96810E-03   -0.12366E-02  8424   0.601E-02-0.265E-02
CGA:  86    -0.676123152785E+03   -0.13667E-02   -0.14395E-02  8424   0.179E-02 0.263E-03
CGA:  87    -0.676123903797E+03   -0.75101E-03   -0.75497E-03  8424   0.157E-02 0.349E-04
CGA:  88    -0.676124276880E+03   -0.37308E-03   -0.45416E-03  8424   0.496E-03 0.370E-03
CGA:  89    -0.676124461705E+03   -0.18482E-03   -0.21349E-03  8424   0.384E-03 0.182E-03
CGA:  90    -0.676124674611E+03   -0.21291E-03   -0.22130E-03  8424   0.426E-03 0.107E-03
CGA:  91    -0.676124905712E+03   -0.23110E-03   -0.24151E-03  8424   0.635E-03 0.197E-03
CGA:  92    -0.676126265916E+03   -0.13602E-02   -0.16766E-02  8424   0.607E-02-0.365E-03
CGA:  93    -0.676127744816E+03   -0.14789E-02   -0.13967E-02  8424   0.145E-02-0.257E-03
CGA:  94    -0.676128395922E+03   -0.65111E-03   -0.60806E-03  8424   0.137E-02-0.420E-03
CGA:  95    -0.676106524498E+03    0.21871E-01   -0.12173E-01  8424   0.118E+00-0.845E-02
CGA:  96    -0.676124509220E+03   -0.17985E-01   -0.17854E-01  8424   0.149E-01 0.552E-02
CGA:  97    -0.676130150340E+03   -0.56411E-02   -0.57845E-02  8424   0.631E-02 0.959E-04
CGA:  98    -0.676132293395E+03   -0.21431E-02   -0.22996E-02  8424   0.213E-02 0.293E-03
CGA:  99    -0.676132637813E+03   -0.34442E-03   -0.55262E-03  8424   0.111E-02 0.367E-03
CGA: 100    -0.676132908305E+03   -0.27049E-03   -0.42928E-03  8424   0.378E-03 0.303E-03
CGA: 101    -0.676132965502E+03   -0.57197E-04   -0.13460E-03  8424   0.207E-03 0.142E-03
CGA: 102    -0.676132956915E+03    0.85873E-05   -0.65814E-04  8424   0.119E-03 0.132E-03
CGA: 103    -0.676133002762E+03   -0.45847E-04   -0.53985E-04  8424   0.128E-03 0.254E-04
CGA: 104    -0.676133050249E+03   -0.47487E-04   -0.72298E-04  8424   0.115E-03 0.846E-04
CGA: 105    -0.676133120291E+03   -0.70041E-04   -0.62665E-04  8424   0.242E-03-0.391E-04
CGA: 106    -0.676133191459E+03   -0.71169E-04   -0.72632E-04  8424   0.364E-03 0.118E-05
CGA: 107    -0.676133493439E+03   -0.30198E-03   -0.41015E-03  8424   0.261E-02-0.301E-03
CGA: 108    -0.676134071828E+03   -0.57839E-03   -0.47603E-03  8424   0.333E-03-0.192E-03
CGA: 109    -0.676134209685E+03   -0.13786E-03   -0.11092E-03  8424   0.189E-03-0.781E-04
CGA: 110    -0.676134522500E+03   -0.31281E-03    0.87751E-04  8424   0.665E-03-0.171E-03
CGA: 111    -0.676134595480E+03   -0.72980E-04   -0.95424E-04  8424   0.856E-04 0.426E-04
CGA: 112    -0.676134750050E+03   -0.15457E-03    0.10741E-03  8424   0.110E-03-0.277E-04
CGA: 113    -0.676135013660E+03   -0.26361E-03    0.14586E-04  8424   0.460E-03-0.916E-04
CGA: 114    -0.676135110037E+03   -0.96377E-04   -0.93100E-04  8424   0.133E-03-0.733E-05
CGA: 115    -0.676131035727E+03    0.40743E-02   -0.22211E-02  8424   0.194E-01-0.133E-02
CGA: 116    -0.676134464978E+03   -0.34293E-02   -0.36075E-02  8424   0.527E-02 0.434E-03
CGA: 117    -0.676136069082E+03   -0.16041E-02   -0.15438E-02  8424   0.268E-03-0.776E-04
CGA: 118    -0.676136132911E+03   -0.63829E-04   -0.54223E-04  8424   0.725E-04-0.108E-04
CGA: 119    -0.676136281411E+03   -0.14850E-03    0.10703E-02  8424   0.461E-03-0.114E-03
CGA: 120    -0.676136355075E+03   -0.73665E-04   -0.85875E-04  8424   0.101E-03 0.145E-04
CGA: 121    -0.676136439157E+03   -0.84081E-04   -0.53223E-04  8424   0.118E-03-0.648E-04
CGA: 122    -0.676136486738E+03   -0.47581E-04   -0.31280E-04  8424   0.706E-04-0.233E-04
CGA: 123    -0.676136675453E+03   -0.18872E-03    0.33324E-04  8424   0.580E-03-0.119E-03
CGA: 124    -0.676136732489E+03   -0.57036E-04   -0.89099E-04  8424   0.957E-04 0.422E-04
CGA: 125    -0.676136796276E+03   -0.63787E-04   -0.43575E-04  8424   0.568E-04-0.436E-04
CGA: 126    -0.676136987747E+03   -0.19147E-03    0.52419E-05  8424   0.141E-03-0.596E-06
CGA: 127    -0.676137655886E+03   -0.66814E-03    0.34593E-04  8424   0.552E-03-0.636E-04
CGA: 128    -0.676140028250E+03   -0.23724E-02    0.37653E-04  8424   0.191E-02-0.379E-03
CGA: 129    -0.676140522132E+03   -0.49388E-03   -0.51674E-03  8424   0.270E-03 0.364E-04
CGA: 130    -0.676140557285E+03   -0.35153E-04   -0.46547E-04  8424   0.243E-04 0.171E-04
CGA: 131    -0.676140645725E+03   -0.88440E-04    0.92716E-05  8424   0.195E-03-0.503E-04
CGA: 132    -0.676140681681E+03   -0.35956E-04   -0.35802E-04  8424   0.223E-04-0.522E-07
CGA: 133    -0.676140792349E+03   -0.11067E-03    0.39128E-05  8424   0.199E-03-0.400E-04
CGA: 134    -0.676140810335E+03   -0.17986E-04   -0.26659E-04  8424   0.159E-04 0.139E-04
CGA: 135    -0.676140896314E+03   -0.85978E-04    0.26130E-05  8424   0.650E-04-0.160E-04
CGA: 136    -0.676140948147E+03   -0.51833E-04   -0.34730E-04  8424   0.149E-03-0.827E-04
CGA: 137    -0.676141004285E+03   -0.56138E-04   -0.39885E-04  8424   0.201E-04-0.351E-04
CGA: 138    -0.676141110614E+03   -0.10633E-03    0.13954E-05  8424   0.302E-04-0.171E-05
CGA: 139    -0.676141307069E+03   -0.19645E-03    0.24378E-05  8424   0.974E-04-0.443E-05
CGA: 140    -0.676142176219E+03   -0.86915E-03    0.46173E-05  8424   0.690E-04 0.397E-04
CGA: 141    -0.676142877231E+03   -0.70101E-03    0.83999E-05  8424   0.320E-03-0.560E-04
CGA: 142    -0.676142911392E+03   -0.34161E-04   -0.46656E-04  8424   0.164E-04 0.230E-04
CGA: 143    -0.676142988072E+03   -0.76679E-04    0.26989E-05  8424   0.763E-04-0.260E-04
CGA: 144    -0.676143026397E+03   -0.38325E-04   -0.25793E-04  8424   0.331E-04-0.366E-04
CGA: 145    -0.676143148099E+03   -0.12170E-03    0.13150E-05  8424   0.455E-04-0.466E-05
CGA: 146    -0.676143326457E+03   -0.17836E-03    0.53191E-05  8424   0.123E-03-0.301E-04
CGA: 147    -0.676143403823E+03   -0.77366E-04   -0.39335E-04  8424   0.143E-03-0.111E-03
CGA: 148    -0.676143413543E+03   -0.97204E-05   -0.18150E-04  8424   0.698E-05 0.165E-04
   1 F= -.67614341E+03 E0= -.67614341E+03  d E =-.676143E+03  mag=     1.0000
       N       E                     dE             d eps       ncg     rms          ort
SDA:   1    -0.676143590548E+03   -0.18673E-03    0.00000E+00  8424   0.130E-02 0.000E+00
CGA:   2    -0.676143720979E+03   -0.13043E-03   -0.16283E-03  8424   0.255E-03 0.686E-04
CGA:   3    -0.676143806108E+03   -0.85129E-04   -0.75780E-04  8424   0.137E-03-0.300E-04
CGA:   4    -0.676143860830E+03   -0.54722E-04   -0.35994E-04  8424   0.110E-03-0.665E-04
CGA:   5    -0.676143902310E+03   -0.41480E-04   -0.15801E-04  8424   0.140E-03-0.901E-04
CGA:   6    -0.676143941685E+03   -0.39375E-04   -0.25267E-04  8424   0.759E-04-0.382E-04
CGA:   7    -0.676144027128E+03   -0.85444E-04    0.32333E-04  8424   0.148E-03-0.629E-04
CGA:   8    -0.676144069076E+03   -0.41948E-04   -0.28761E-04  8424   0.476E-04-0.390E-04
CGA:   9    -0.676144124386E+03   -0.55310E-04    0.17036E-04  8424   0.130E-03-0.510E-04
CGA:  10    -0.676144156153E+03   -0.31767E-04   -0.23629E-04  8424   0.237E-04-0.244E-04
CGA:  11    -0.676144214680E+03   -0.58527E-04    0.23416E-05  8424   0.343E-04-0.143E-04
CGA:  12    -0.676142884550E+03    0.13301E-02   -0.73273E-03  8424   0.965E-02-0.529E-03
CGA:  13    -0.676144510657E+03   -0.16261E-02   -0.15672E-02  8424   0.366E-03-0.669E-04
CGA:  14    -0.676144567098E+03   -0.56441E-04   -0.68289E-04  8424   0.730E-04 0.177E-04
CGA:  15    -0.676144626088E+03   -0.58990E-04   -0.29501E-04  8424   0.820E-04-0.651E-04
CGA:  16    -0.676144639874E+03   -0.13786E-04   -0.12902E-04  8424   0.166E-04-0.133E-05
CGA:  17    -0.676144731191E+03   -0.91317E-04    0.25070E-05  8424   0.112E-03-0.292E-04
CGA:  18    -0.676144748177E+03   -0.16986E-04   -0.17331E-04  8424   0.214E-04 0.629E-06
CGA:  19    -0.676144826796E+03   -0.78619E-04    0.56837E-05  8424   0.144E-03-0.424E-04
CGA:  20    -0.676144846716E+03   -0.19920E-04   -0.22137E-04  8424   0.264E-04 0.376E-05
CGA:  21    -0.676144913724E+03   -0.67007E-04    0.13776E-04  8424   0.190E-03-0.593E-04
CGA:  22    -0.676144942085E+03   -0.28361E-04   -0.29320E-04  8424   0.339E-04 0.185E-05
CGA:  23    -0.676145005917E+03   -0.63832E-04    0.34615E-04  8424   0.233E-03-0.771E-04
CGA:  24    -0.676145033936E+03   -0.28019E-04   -0.33944E-04  8424   0.377E-04 0.109E-04
CGA:  25    -0.676142494159E+03    0.25398E-02   -0.14066E-02  8424   0.150E-01-0.740E-03
CGA:  26    -0.676144947641E+03   -0.24535E-02   -0.25144E-02  8424   0.286E-02 0.176E-03
CGA:  27    -0.676145539184E+03   -0.59154E-03   -0.52340E-03  8424   0.939E-04-0.727E-04
CGA:  28    -0.676145577577E+03   -0.38392E-04   -0.27228E-04  8424   0.181E-04-0.138E-04
CGA:  29    -0.676145659724E+03   -0.82147E-04    0.56407E-05  8424   0.332E-03-0.460E-04
CGA:  30    -0.676145700559E+03   -0.40835E-04   -0.40406E-04  8424   0.173E-04 0.363E-06
CGA:  31    -0.676145786118E+03   -0.85559E-04    0.63058E-05  8424   0.127E-03-0.333E-04
CGA:  32    -0.676145810090E+03   -0.23972E-04   -0.25520E-04  8424   0.187E-04 0.178E-05
CGA:  33    -0.676145891721E+03   -0.81631E-04    0.78579E-05  8424   0.434E-03-0.709E-04
CGA:  34    -0.676145919601E+03   -0.27880E-04   -0.51959E-04  8424   0.263E-04 0.291E-04
CGA:  35    -0.676145901792E+03    0.17809E-04   -0.40112E-04  8424   0.571E-03-0.119E-03
CGA:  36    -0.676146089371E+03   -0.18758E-03   -0.15243E-03  8424   0.479E-04-0.509E-04
CGA:  37    -0.676146090160E+03   -0.78930E-06   -0.65552E-05  8424   0.953E-05 0.739E-05
   2 F= -.67614609E+03 E0= -.67614609E+03  d E =-.267662E-02  mag=     1.0000
       N       E                     dE             d eps       ncg     rms          ort
SDA:   1    -0.676140928475E+03    0.51609E-02    0.00000E+00  8424   0.196E-01 0.000E+00
CGA:   2    -0.676144736283E+03   -0.38078E-02   -0.38172E-02  8424   0.745E-02 0.863E-05
CGA:   3    -0.676146396777E+03   -0.16605E-02   -0.16217E-02  8424   0.268E-02-0.627E-04
CGA:   4    -0.676146863253E+03   -0.46648E-03   -0.45206E-03  8424   0.689E-03-0.225E-04
CGA:   5    -0.676146984516E+03   -0.12126E-03   -0.11606E-03  8424   0.133E-03-0.852E-05
CGA:   6    -0.676147028439E+03   -0.43924E-04   -0.31489E-04  8424   0.474E-04-0.240E-04
CGA:   7    -0.676147042476E+03   -0.14037E-04   -0.35132E-04  8424   0.576E-03-0.124E-03
CGA:   8    -0.676147138242E+03   -0.95766E-04   -0.81960E-04  8424   0.597E-04-0.230E-04
CGA:   9    -0.676147179714E+03   -0.41472E-04   -0.30173E-04  8424   0.127E-03-0.608E-04
CGA:  10    -0.676147214172E+03   -0.34458E-04   -0.23525E-04  8424   0.214E-04-0.211E-04
CGA:  11    -0.676147255691E+03   -0.41519E-04    0.84110E-05  8424   0.899E-04-0.305E-04
CGA:  12    -0.676147294318E+03   -0.38626E-04   -0.22118E-04  8424   0.329E-04-0.383E-04
CGA:  13    -0.676147341796E+03   -0.47478E-04    0.67871E-05  8424   0.820E-04-0.252E-04
CGA:  14    -0.676147388833E+03   -0.47037E-04   -0.21451E-04  8424   0.938E-04-0.649E-04
CGA:  15    -0.676147393285E+03   -0.44524E-05   -0.96377E-05  8424   0.385E-05 0.979E-05
   3 F= -.67614739E+03 E0= -.67614739E+03  d E =-.130312E-02  mag=     1.0000
       N       E                     dE             d eps       ncg     rms          ort
SDA:   1    -0.675361899510E+03    0.78549E+00    0.00000E+00  8424   0.242E+01 0.000E+00
CGA:   2    -0.675846214309E+03   -0.48431E+00   -0.48516E+00  8424   0.940E+00-0.126E-02
CGA:   3    -0.676045710836E+03   -0.19950E+00   -0.19921E+00  8424   0.325E+00 0.114E-04
CGA:   4    -0.676100732336E+03   -0.55021E-01   -0.55017E-01  8424   0.823E-01 0.934E-04
CGA:   5    -0.676114540537E+03   -0.13808E-01   -0.13901E-01  8424   0.152E-01 0.231E-03
CGA:   6    -0.676117574437E+03   -0.30339E-02   -0.30646E-02  8424   0.338E-02 0.899E-04
CGA:   7    -0.676118355933E+03   -0.78150E-03   -0.78165E-03  8424   0.105E-02-0.175E-06
CGA:   8    -0.676118646577E+03   -0.29064E-03   -0.27460E-03  8424   0.324E-03-0.673E-04
CGA:   9    -0.676118756751E+03   -0.11017E-03   -0.98635E-04  8424   0.153E-03-0.710E-04
CGA:  10    -0.676118809947E+03   -0.53197E-04   -0.49835E-04  8424   0.112E-03-0.525E-04
CGA:  11    -0.676118588807E+03    0.22114E-03   -0.10977E-03  8424   0.180E-02-0.331E-03
CGA:  12    -0.676118923088E+03   -0.33428E-03   -0.33887E-03  8424   0.230E-03 0.128E-04
CGA:  13    -0.676119040528E+03   -0.11744E-03   -0.11621E-03  8424   0.303E-03-0.139E-03
CGA:  14    -0.676119069782E+03   -0.29254E-04   -0.43825E-04  8424   0.451E-04 0.398E-04
CGA:  15    -0.676119095238E+03   -0.25457E-04   -0.30676E-04  8424   0.929E-04-0.480E-04
CGA:  16    -0.676119141194E+03   -0.45956E-04   -0.45049E-04  8424   0.897E-04-0.724E-04
CGA:  17    -0.676119164220E+03   -0.23026E-04   -0.21733E-04  8424   0.133E-04-0.517E-05
CGA:  18    -0.676119201309E+03   -0.37089E-04    0.14694E-05  8424   0.363E-04-0.738E-05
CGA:  19    -0.676119205556E+03   -0.42471E-05   -0.51136E-05  8424   0.652E-05 0.249E-05
   4 F= -.67611921E+03 E0= -.67611921E+03  d E =0.281877E-01  mag=     1.0000
       N       E                     dE             d eps       ncg     rms          ort
SDA:   1    -0.675148365297E+03    0.97084E+00    0.00000E+00  8424   0.329E+01 0.000E+00
CGA:   2    -0.675772995342E+03   -0.62463E+00   -0.62591E+00  8424   0.120E+01-0.670E-03
CGA:   3    -0.676032915104E+03   -0.25992E+00   -0.25984E+00  8424   0.441E+00 0.426E-03
CGA:   4    -0.676107848667E+03   -0.74934E-01   -0.74941E-01  8424   0.113E+00-0.144E-03
CGA:   5    -0.676127211640E+03   -0.19363E-01   -0.19351E-01  8424   0.209E-01-0.977E-04
CGA:   6    -0.676131475554E+03   -0.42639E-02   -0.42267E-02  8424   0.464E-02-0.179E-03
CGA:   7    -0.676132516128E+03   -0.10406E-02   -0.10378E-02  8424   0.137E-02-0.165E-04
CGA:   8    -0.676132852719E+03   -0.33659E-03   -0.33418E-03  8424   0.359E-03-0.163E-04
CGA:   9    -0.676132968289E+03   -0.11557E-03   -0.11068E-03  8424   0.149E-03-0.647E-04
CGA:  10    -0.676133018556E+03   -0.50267E-04   -0.55328E-04  8424   0.143E-03-0.739E-04
CGA:  11    -0.676133083534E+03   -0.64978E-04    0.85721E-04  8424   0.906E-04-0.583E-04
CGA:  12    -0.676133134159E+03   -0.50625E-04    0.47625E-04  8424   0.603E-04-0.230E-04
CGA:  13    -0.676133206087E+03   -0.71928E-04    0.82021E-05  8424   0.476E-04-0.950E-05
CGA:  14    -0.676133280074E+03   -0.73986E-04    0.56226E-05  8424   0.279E-04 0.168E-05
CGA:  15    -0.676133345719E+03   -0.65646E-04    0.28893E-05  8424   0.149E-04 0.860E-06
CGA:  16    -0.676133403668E+03   -0.57949E-04    0.77266E-06  8424   0.841E-05 0.109E-05
CGA:  17    -0.676133448567E+03   -0.44899E-04    0.32219E-06  8424   0.659E-05 0.268E-05
CGA:  18    -0.676133511188E+03   -0.62621E-04    0.20263E-06  8424   0.609E-05 0.430E-05
CGA:  19    -0.676133527365E+03   -0.16177E-04    0.48652E-06  8424   0.378E-05 0.160E-05
CGA:  20    -0.676133566231E+03   -0.38867E-04    0.97040E-07  8424   0.395E-05 0.254E-05
CGA:  21    -0.676133574204E+03   -0.79721E-05    0.47631E-06  8424   0.613E-05 0.103E-06
   5 F= -.67613357E+03 E0= -.67613357E+03  d E =-.143686E-01  mag=     1.0000
       N       E                     dE             d eps       ncg     rms          ort
SDA:   1    -0.676085988746E+03    0.47577E-01    0.00000E+00  8424   0.170E+00 0.000E+00
CGA:   2    -0.676119103835E+03   -0.33115E-01   -0.33133E-01  8424   0.656E-01 0.464E-04
CGA:   3    -0.676133238847E+03   -0.14135E-01   -0.14137E-01  8424   0.233E-01-0.135E-05
CGA:   4    -0.676137138808E+03   -0.39000E-02   -0.38907E-02  8424   0.577E-02-0.493E-04
CGA:   5    -0.676138153291E+03   -0.10145E-02   -0.10025E-02  8424   0.109E-02-0.657E-04
CGA:   6    -0.676138390436E+03   -0.23714E-03   -0.22903E-03  8424   0.267E-03-0.590E-04
CGA:   7    -0.676138460422E+03   -0.69987E-04   -0.66066E-04  8424   0.108E-03-0.482E-04
CGA:   8    -0.676138490357E+03   -0.29935E-04   -0.38804E-04  8424   0.154E-03-0.892E-04
CGA:   9    -0.676138524632E+03   -0.34275E-04   -0.29256E-04  8424   0.355E-04-0.327E-04
CGA:  10    -0.676138552396E+03   -0.27764E-04    0.98265E-05  8424   0.138E-04-0.861E-05
CGA:  11    -0.676138581574E+03   -0.29178E-04    0.55476E-06  8424   0.591E-05-0.456E-06
CGA:  12    -0.676138610238E+03   -0.28664E-04    0.14900E-06  8424   0.327E-05 0.220E-05
CGA:  13    -0.676138646047E+03   -0.35809E-04    0.69806E-07  8424   0.293E-05 0.290E-05
CGA:  14    -0.676138662790E+03   -0.16743E-04    0.65618E-07  8424   0.284E-05 0.103E-05
CGA:  15    -0.676138700043E+03   -0.37252E-04    0.47982E-07  8424   0.280E-05 0.295E-05
CGA:  16    -0.676138716014E+03   -0.15971E-04    0.62921E-07  8424   0.263E-05 0.105E-05
CGA:  17    -0.676138752050E+03   -0.36037E-04    0.44130E-07  8424   0.286E-05 0.273E-05
CGA:  18    -0.676138768216E+03   -0.16165E-04    0.65192E-07  8424   0.278E-05 0.938E-06
CGA:  19    -0.676138805053E+03   -0.36837E-04    0.44871E-07  8424   0.312E-05 0.244E-05
CGA:  20    -0.676138819992E+03   -0.14939E-04    0.86117E-07  8424   0.319E-05 0.700E-06
CGA:  21    -0.676138857233E+03   -0.37241E-04    0.49924E-07  8424   0.360E-05 0.200E-05
CGA:  22    -0.676138872491E+03   -0.15258E-04    0.11413E-06  8424   0.380E-05 0.367E-06
CGA:  23    -0.676138910795E+03   -0.38304E-04    0.56128E-07  8424   0.429E-05 0.131E-05
CGA:  24    -0.676138967908E+03   -0.57113E-04    0.70777E-07  8424   0.363E-05 0.539E-05
CGA:  25    -0.676138981652E+03   -0.13744E-04    0.13224E-06  8424   0.462E-05 0.167E-06
CGA:  26    -0.676139022228E+03   -0.40576E-04    0.70792E-07  8424   0.405E-05 0.110E-05
CGA:  27    -0.676139073288E+03   -0.51060E-04    0.59864E-07  8424   0.393E-05 0.459E-05
CGA:  28    -0.676139086887E+03   -0.13599E-04    0.15926E-06  8424   0.508E-05-0.410E-07
CGA:  29    -0.676139127330E+03   -0.40443E-04    0.77133E-07  8424   0.438E-05 0.514E-06
CGA:  30    -0.676139176703E+03   -0.49373E-04    0.57170E-07  8424   0.433E-05 0.430E-05
CGA:  31    -0.676139189941E+03   -0.13238E-04    0.20565E-06  8424   0.523E-05-0.174E-06
CGA:  32    -0.676139228244E+03   -0.38303E-04    0.81875E-07  8424   0.476E-05-0.155E-06
CGA:  33    -0.676139276216E+03   -0.47972E-04    0.53829E-07  8424   0.461E-05 0.398E-05
CGA:  34    -0.676139290415E+03   -0.14199E-04    0.21743E-06  8424   0.406E-05 0.301E-06
CGA:  35    -0.676139322953E+03   -0.32538E-04    0.71657E-07  8424   0.465E-05-0.251E-06
CGA:  36    -0.676139370664E+03   -0.47711E-04    0.48100E-07  8424   0.468E-05 0.332E-05
CGA:  37    -0.676139386305E+03   -0.15641E-04    0.19841E-06  8424   0.264E-05 0.883E-06
CGA:  38    -0.676139411617E+03   -0.25312E-04    0.47906E-07  8424   0.309E-05 0.637E-06
CGA:  39    -0.676139453251E+03   -0.41634E-04    0.42635E-07  8424   0.340E-05 0.285E-05
CGA:  40    -0.676139470196E+03   -0.16945E-04    0.89256E-07  8424   0.198E-05 0.967E-06
CGA:  41    -0.676139492998E+03   -0.22802E-04    0.34605E-07  8424   0.170E-05 0.162E-05
CGA:  42    -0.676139508681E+03   -0.15683E-04    0.22601E-07  8424   0.144E-05 0.127E-05
CGA:  43    -0.676139522699E+03   -0.14017E-04    0.18057E-07  8424   0.160E-05 0.113E-05
CGA:  44    -0.676139538605E+03   -0.15906E-04    0.19600E-07  8424   0.221E-05 0.789E-06
CGA:  45    -0.676139574147E+03   -0.35542E-04    0.36883E-07  8424   0.146E-05 0.310E-05
CGA:  46    -0.676139586653E+03   -0.12506E-04    0.20898E-07  8424   0.165E-05 0.103E-05
CGA:  47    -0.676139604584E+03   -0.17931E-04    0.18269E-07  8424   0.225E-05 0.673E-06
CGA:  48    -0.676139638546E+03   -0.33962E-04    0.35679E-07  8424   0.160E-05 0.302E-05
CGA:  49    -0.676139649383E+03   -0.10837E-04    0.29857E-07  8424   0.189E-05 0.781E-06
CGA:  50    -0.676139682236E+03   -0.32853E-04    0.29016E-07  8424   0.157E-05 0.267E-05
CGA:  51    -0.676139698405E+03   -0.16169E-04    0.18448E-07  8424   0.150E-05 0.920E-06
CGA:  52    -0.676139709791E+03   -0.11385E-04    0.24650E-07  8424   0.153E-05 0.930E-06
CGA:  53    -0.676139728015E+03   -0.18225E-04    0.15516E-07  8424   0.174E-05 0.810E-06
CGA:  54    -0.676139736021E+03   -0.80056E-05    0.50083E-07  8424   0.228E-05 0.458E-06
   6 F= -.67613974E+03 E0= -.67613974E+03  d E =-.616182E-02  mag=     1.0000
       N       E                     dE             d eps       ncg     rms          ort
SDA:   1    -0.676108742708E+03    0.30985E-01    0.00000E+00  8424   0.100E+00 0.000E+00
CGA:   2    -0.676128718660E+03   -0.19976E-01   -0.19986E-01  8424   0.403E-01 0.515E-04
CGA:   3    -0.676137308747E+03   -0.85901E-02   -0.85915E-02  8424   0.138E-01 0.874E-06
CGA:   4    -0.676139594219E+03   -0.22855E-02   -0.22813E-02  8424   0.338E-02-0.291E-04
CGA:   5    -0.676140190797E+03   -0.59658E-03   -0.58940E-03  8424   0.649E-03-0.515E-04
CGA:   6    -0.676140334743E+03   -0.14395E-03   -0.13910E-03  8424   0.168E-03-0.534E-04
CGA:   7    -0.676140378475E+03   -0.43731E-04   -0.42451E-04  8424   0.809E-04-0.442E-04
CGA:   8    -0.676140355388E+03    0.23086E-04   -0.44260E-04  8424   0.482E-03-0.153E-03
CGA:   9    -0.676140435242E+03   -0.79853E-04   -0.76050E-04  8424   0.588E-04-0.228E-04
CGA:  10    -0.676139914880E+03    0.52036E-03   -0.28112E-03  8424   0.302E-02-0.363E-03
CGA:  11    -0.676140447917E+03   -0.53304E-03   -0.53773E-03  8424   0.372E-03 0.111E-04
CGA:  12    -0.676140560422E+03   -0.11250E-03   -0.10776E-03  8424   0.413E-04-0.178E-04
CGA:  13    -0.676140581183E+03   -0.20761E-04   -0.26673E-04  8424   0.910E-04-0.438E-04
CGA:  14    -0.676140619120E+03   -0.37936E-04   -0.24606E-04  8424   0.605E-04-0.476E-04
CGA:  15    -0.676140621557E+03   -0.24372E-05   -0.64822E-05  8424   0.390E-05 0.943E-05
   7 F= -.67614062E+03 E0= -.67614062E+03  d E =-.885536E-03  mag=     1.0000
       N       E                     dE             d eps       ncg     rms          ort
SDA:   1    -0.676137883654E+03    0.27355E-02    0.00000E+00  8424   0.105E-01 0.000E+00
CGA:   2    -0.676140072294E+03   -0.21886E-02   -0.22137E-02  8424   0.447E-02 0.810E-04
CGA:   3    -0.676141042030E+03   -0.96974E-03   -0.94669E-03  8424   0.146E-02-0.804E-04
CGA:   4    -0.676141281421E+03   -0.23939E-03   -0.23540E-03  8424   0.350E-03-0.127E-04
CGA:   5    -0.676141343904E+03   -0.62483E-04   -0.59948E-04  8424   0.717E-04-0.864E-05
CGA:   6    -0.676141372948E+03   -0.29044E-04   -0.23471E-04  8424   0.720E-04-0.470E-04
CGA:   7    -0.676141383754E+03   -0.10806E-04   -0.10191E-04  8424   0.998E-05-0.202E-05
CGA:   8    -0.676141408617E+03   -0.24863E-04    0.10721E-05  8424   0.171E-04-0.788E-05
CGA:   9    -0.676141413908E+03   -0.52914E-05   -0.37764E-05  8424   0.882E-05-0.713E-05
   8 F= -.67614141E+03 E0= -.67614141E+03  d E =-.792351E-03  mag=     1.0000
       N       E                     dE             d eps       ncg     rms          ort
SDA:   1    -0.676137138176E+03    0.42704E-02    0.00000E+00  8424   0.179E-01 0.000E+00
CGA:   2    -0.676142085729E+03   -0.49476E-02   -0.49242E-02  8424   0.960E-02-0.159E-03
CGA:   3    -0.676143817895E+03   -0.17322E-02   -0.17390E-02  8424   0.212E-02 0.280E-04
CGA:   4    -0.676144171504E+03   -0.35361E-03   -0.34872E-03  8424   0.507E-03-0.209E-04
CGA:   5    -0.676144266125E+03   -0.94621E-04   -0.89546E-04  8424   0.115E-03-0.239E-04
CGA:   6    -0.676144297351E+03   -0.31227E-04   -0.27732E-04  8424   0.455E-04-0.272E-04
CGA:   7    -0.676144325348E+03   -0.27996E-04    0.87060E-04  8424   0.577E-04-0.311E-04
CGA:   8    -0.676144335431E+03   -0.10083E-04   -0.90104E-05  8424   0.106E-04-0.493E-05
CGA:   9    -0.676144357215E+03   -0.21784E-04    0.84135E-06  8424   0.676E-05-0.302E-05
CGA:  10    -0.676144381197E+03   -0.23982E-04    0.15095E-06  8424   0.524E-05-0.274E-06
CGA:  11    -0.676144419932E+03   -0.38734E-04    0.95347E-07  8424   0.387E-05 0.157E-05
CGA:  12    -0.676144458714E+03   -0.38783E-04    0.95442E-07  8424   0.337E-05 0.177E-05
CGA:  13    -0.676144509737E+03   -0.51022E-04    0.67210E-07  8424   0.252E-05 0.320E-05
CGA:  14    -0.676144523867E+03   -0.14131E-04    0.68173E-07  8424   0.175E-05 0.671E-06
CGA:  15    -0.676144549051E+03   -0.25184E-04    0.27625E-07  8424   0.223E-05 0.118E-05
CGA:  16    -0.676144560249E+03   -0.11198E-04    0.68809E-07  8424   0.408E-05-0.281E-06
CGA:  17    -0.676144600912E+03   -0.40663E-04    0.44124E-07  8424   0.378E-05 0.130E-05
CGA:  18    -0.676144653802E+03   -0.52890E-04    0.66540E-07  8424   0.742E-05 0.206E-05
CGA:  19    -0.676144650414E+03    0.33883E-05   -0.50689E-05  8424   0.140E-03-0.265E-04
CGA:  20    -0.676144687339E+03   -0.36926E-04   -0.22783E-04  8424   0.346E-04-0.653E-04
CGA:  21    -0.676144693450E+03   -0.61108E-05   -0.57101E-05  8424   0.895E-05-0.675E-05
   9 F= -.67614469E+03 E0= -.67614469E+03  d E =-.327954E-02  mag=     1.0000
       N       E                     dE             d eps       ncg     rms          ort
SDA:   1    -0.676140918072E+03    0.37693E-02    0.00000E+00  8424   0.218E-01 0.000E+00
CGA:   2    -0.676146198985E+03   -0.52809E-02   -0.52483E-02  8424   0.110E-01-0.265E-03
CGA:   3    -0.676148305552E+03   -0.21066E-02   -0.21228E-02  8424   0.274E-02 0.969E-04
CGA:   4    -0.676148768530E+03   -0.46298E-03   -0.45547E-03  8424   0.650E-03-0.407E-04
CGA:   5    -0.676148895180E+03   -0.12665E-03   -0.11840E-03  8424   0.156E-03-0.527E-04
CGA:   6    -0.676148932890E+03   -0.37710E-04   -0.34329E-04  8424   0.603E-04-0.358E-04
CGA:   7    -0.676148201802E+03    0.73109E-03   -0.39823E-03  8424   0.572E-02-0.466E-03
CGA:   8    -0.676148910292E+03   -0.70849E-03   -0.74285E-03  8424   0.480E-03 0.733E-04
CGA:   9    -0.676149062265E+03   -0.15197E-03   -0.13810E-03  8424   0.136E-03-0.474E-04
CGA:  10    -0.676149095520E+03   -0.33255E-04   -0.31259E-04  8424   0.394E-04-0.650E-05
CGA:  11    -0.676149136642E+03   -0.41122E-04    0.93626E-02  8424   0.935E-04-0.419E-04
CGA:  12    -0.676149144422E+03   -0.77801E-05   -0.12629E-04  8424   0.109E-04 0.118E-04
  10 F= -.67614914E+03 E0= -.67614914E+03  d E =-.445097E-02  mag=     1.0000
       N       E                     dE             d eps       ncg     rms          ort
SDA:   1    -0.676147359101E+03    0.17775E-02    0.00000E+00  8424   0.194E-01 0.000E+00
CGA:   2    -0.676151823963E+03   -0.44649E-02   -0.44546E-02  8424   0.921E-02-0.378E-04
CGA:   3    -0.676153745686E+03   -0.19217E-02   -0.19112E-02  8424   0.269E-02-0.369E-04
CGA:   4    -0.676154188487E+03   -0.44280E-03   -0.42690E-03  8424   0.623E-03-0.476E-04
CGA:   5    -0.676154306440E+03   -0.11795E-03   -0.10912E-03  8424   0.127E-03-0.295E-04
CGA:   6    -0.676154339454E+03   -0.33014E-04   -0.28694E-04  8424   0.441E-04-0.190E-04
CGA:   7    -0.676154334471E+03    0.49832E-05   -0.29288E-04  8424   0.395E-03-0.104E-03
CGA:   8    -0.676154390012E+03   -0.55540E-04   -0.54891E-04  8424   0.369E-04-0.203E-05
CGA:   9    -0.676154345461E+03    0.44550E-04   -0.42499E-04  8424   0.563E-03-0.124E-03
CGA:  10    -0.676154439424E+03   -0.93963E-04   -0.95518E-04  8424   0.728E-04 0.476E-05
CGA:  11    -0.676154471927E+03   -0.32503E-04   -0.28867E-04  8424   0.481E-04-0.460E-04
CGA:  12    -0.676154482403E+03   -0.10476E-04   -0.94441E-05  8424   0.899E-05-0.381E-05
CGA:  13    -0.676154513276E+03   -0.30873E-04    0.60720E-06  8424   0.257E-04-0.103E-04
CGA:  14    -0.676154514207E+03   -0.93101E-06   -0.27196E-05  8424   0.291E-05 0.513E-05
  11 F= -.67615451E+03 E0= -.67615451E+03  d E =-.536978E-02  mag=     1.0000
       N       E                     dE             d eps       ncg     rms          ort
SDA:   1    -0.676151363281E+03    0.31500E-02    0.00000E+00  8424   0.208E-01 0.000E+00
CGA:   2    -0.676156275735E+03   -0.49125E-02   -0.49459E-02  8424   0.979E-02 0.169E-03
CGA:   3    -0.676158268607E+03   -0.19929E-02   -0.19687E-02  8424   0.269E-02-0.108E-03
CGA:   4    -0.676158716998E+03   -0.44839E-03   -0.44308E-03  8424   0.615E-03-0.219E-04
CGA:   5    -0.676158834575E+03   -0.11758E-03   -0.10908E-03  8424   0.142E-03-0.380E-04
CGA:   6    -0.676158882611E+03   -0.48036E-04   -0.41818E-04  8424   0.117E-03-0.786E-04
CGA:   7    -0.676158895439E+03   -0.12828E-04   -0.14803E-04  8424   0.142E-04 0.754E-05
CGA:   8    -0.676158913309E+03   -0.17870E-04    0.48907E-05  8424   0.124E-04-0.648E-05
CGA:   9    -0.676158942414E+03   -0.29105E-04    0.26672E-06  8424   0.113E-04-0.237E-05
CGA:  10    -0.676158986687E+03   -0.44273E-04    0.31679E-06  8424   0.905E-05-0.514E-06
CGA:  11    -0.676159038949E+03   -0.52262E-04    0.22963E-06  8424   0.889E-05-0.504E-06
CGA:  12    -0.676159101492E+03   -0.62543E-04    0.17661E-06  8424   0.774E-05 0.232E-05
CGA:  13    -0.676159174154E+03   -0.72661E-04    0.20519E-06  8424   0.679E-05 0.250E-05
CGA:  14    -0.676159255073E+03   -0.80920E-04    0.15313E-06  8424   0.555E-05 0.411E-05
CGA:  15    -0.676159271367E+03   -0.16294E-04    0.35735E-06  8424   0.293E-05-0.663E-07
CGA:  16    -0.676159298632E+03   -0.27265E-04    0.46916E-07  8424   0.376E-05 0.242E-06
CGA:  17    -0.676159341885E+03   -0.43253E-04    0.58204E-07  8424   0.290E-05 0.190E-05
CGA:  18    -0.676159357802E+03   -0.15917E-04    0.86251E-07  8424   0.210E-05 0.438E-06
CGA:  19    -0.676159381587E+03   -0.23785E-04    0.37540E-07  8424   0.167E-05 0.132E-05
CGA:  20    -0.676159399070E+03   -0.17483E-04    0.24269E-07  8424   0.191E-05 0.571E-06
CGA:  21    -0.676159428157E+03   -0.29087E-04    0.33870E-07  8424   0.185E-05 0.156E-05
CGA:  22    -0.676159444340E+03   -0.16183E-04    0.32604E-07  8424   0.220E-05 0.357E-06
CGA:  23    -0.676159472626E+03   -0.28286E-04    0.36820E-07  8424   0.238E-05 0.120E-05
CGA:  24    -0.676159490469E+03   -0.17843E-04    0.49615E-07  8424   0.284E-05-0.543E-07
CGA:  25    -0.676159518184E+03   -0.27714E-04    0.42436E-07  8424   0.345E-05 0.383E-06
CGA:  26    -0.676159569657E+03   -0.51473E-04    0.44502E-07  8424   0.297E-05 0.337E-05
CGA:  27    -0.676159587298E+03   -0.17642E-04    0.80663E-07  8424   0.410E-05-0.545E-06
CGA:  28    -0.676159614911E+03   -0.27613E-04    0.62763E-07  8424   0.428E-05-0.686E-06
CGA:  29    -0.676159661299E+03   -0.46388E-04    0.40885E-07  8424   0.464E-05 0.263E-05
CGA:  30    -0.676159681545E+03   -0.20245E-04    0.18051E-06  8424   0.702E-05-0.179E-05
CGA:  31    -0.676159710294E+03   -0.28749E-04    0.10218E-06  8424   0.712E-05-0.345E-05
CGA:  32    -0.676159753668E+03   -0.43375E-04    0.45475E-07  8424   0.105E-04 0.102E-05
CGA:  33    -0.676159842532E+03   -0.88864E-04    0.25283E-06  8424   0.960E-05 0.133E-05
CGA:  34    -0.676159925709E+03   -0.83177E-04    0.21978E-06  8424   0.700E-05 0.142E-06
CGA:  35    -0.676160005647E+03   -0.79938E-04    0.95326E-07  8424   0.342E-05 0.457E-05
CGA:  36    -0.676160017792E+03   -0.12145E-04    0.17188E-06  8424   0.147E-05 0.283E-06
CGA:  37    -0.676160036344E+03   -0.18552E-04    0.20524E-07  8424   0.108E-05 0.643E-06
CGA:  38    -0.676160059671E+03   -0.23328E-04    0.15199E-07  8424   0.140E-05 0.121E-05
CGA:  39    -0.676160072468E+03   -0.12797E-04    0.23437E-07  8424   0.120E-05 0.386E-06
CGA:  40    -0.676160092112E+03   -0.19644E-04    0.17884E-07  8424   0.121E-05 0.103E-05
CGA:  41    -0.676160106162E+03   -0.14050E-04    0.15814E-07  8424   0.137E-05 0.286E-06
CGA:  42    -0.676160129029E+03   -0.22867E-04    0.18789E-07  8424   0.132E-05 0.115E-05
CGA:  43    -0.676160141393E+03   -0.12364E-04    0.21551E-07  8424   0.110E-05 0.295E-06
CGA:  44    -0.676160160461E+03   -0.19068E-04    0.14002E-07  8424   0.123E-05 0.104E-05
CGA:  45    -0.676160173859E+03   -0.13398E-04    0.16939E-07  8424   0.111E-05 0.299E-06
CGA:  46    -0.676160193592E+03   -0.19733E-04    0.14373E-07  8424   0.125E-05 0.102E-05
CGA:  47    -0.676160206091E+03   -0.12498E-04    0.18943E-07  8424   0.103E-05 0.305E-06
CGA:  48    -0.676160224448E+03   -0.18357E-04    0.13389E-07  8424   0.120E-05 0.953E-06
CGA:  49    -0.676160237550E+03   -0.13102E-04    0.16744E-07  8424   0.102E-05 0.310E-06
CGA:  50    -0.676160256073E+03   -0.18523E-04    0.13230E-07  8424   0.118E-05 0.930E-06
CGA:  51    -0.676160268388E+03   -0.12316E-04    0.17119E-07  8424   0.965E-06 0.330E-06
CGA:  52    -0.676160286196E+03   -0.17808E-04    0.12709E-07  8424   0.113E-05 0.905E-06
CGA:  53    -0.676160298915E+03   -0.12719E-04    0.15165E-07  8424   0.945E-06 0.335E-06
CGA:  54    -0.676160316908E+03   -0.17993E-04    0.12373E-07  8424   0.110E-05 0.901E-06
CGA:  55    -0.676160328902E+03   -0.11993E-04    0.15125E-07  8424   0.894E-06 0.352E-06
CGA:  56    -0.676160346371E+03   -0.17470E-04    0.11850E-07  8424   0.105E-05 0.889E-06
CGA:  57    -0.676160358664E+03   -0.12292E-04    0.13467E-07  8424   0.870E-06 0.357E-06
CGA:  58    -0.676160376279E+03   -0.17615E-04    0.11453E-07  8424   0.101E-05 0.890E-06
CGA:  59    -0.676160387907E+03   -0.11628E-04    0.13272E-07  8424   0.825E-06 0.372E-06
CGA:  60    -0.676160405100E+03   -0.17192E-04    0.10972E-07  8424   0.969E-06 0.882E-06
CGA:  61    -0.676160416958E+03   -0.11858E-04    0.11879E-07  8424   0.799E-06 0.378E-06
CGA:  62    -0.676160434243E+03   -0.17285E-04    0.10554E-07  8424   0.932E-06 0.882E-06
CGA:  63    -0.676160445487E+03   -0.11244E-04    0.11599E-07  8424   0.758E-06 0.392E-06
CGA:  64    -0.676160462425E+03   -0.16938E-04    0.10125E-07  8424   0.892E-06 0.876E-06
CGA:  65    -0.676160473842E+03   -0.11418E-04    0.10418E-07  8424   0.730E-06 0.399E-06
CGA:  66    -0.676160490835E+03   -0.16992E-04    0.96993E-08  8424   0.855E-06 0.876E-06
CGA:  67    -0.676160501675E+03   -0.10840E-04    0.10097E-07  8424   0.693E-06 0.411E-06
CGA:  68    -0.676160518382E+03   -0.16707E-04    0.93109E-08  8424   0.817E-06 0.871E-06
CGA:  69    -0.676160529343E+03   -0.10961E-04    0.90913E-08  8424   0.664E-06 0.419E-06
CGA:  70    -0.676160537234E+03   -0.78911E-05    0.84111E-08  8424   0.813E-06 0.392E-06
  12 F= -.67616054E+03 E0= -.67616054E+03  d E =-.602303E-02  mag=     1.0000
       N       E                     dE             d eps       ncg     rms          ort
SDA:   1    -0.676160125739E+03    0.40360E-03    0.00000E+00  8424   0.572E-02 0.000E+00
CGA:   2    -0.676161627811E+03   -0.15021E-02   -0.14906E-02  8424   0.300E-02-0.100E-03
CGA:   3    -0.676162163622E+03   -0.53581E-03   -0.54400E-03  8424   0.698E-03 0.438E-04
CGA:   4    -0.676162287312E+03   -0.12369E-03   -0.12017E-03  8424   0.172E-03-0.186E-04
CGA:   5    -0.676162325351E+03   -0.38039E-04   -0.33246E-04  8424   0.519E-04-0.316E-04
CGA:   6    -0.676162339537E+03   -0.14185E-04   -0.13342E-04  8424   0.450E-04-0.303E-04
CGA:   7    -0.676162351282E+03   -0.11745E-04   -0.87689E-05  8424   0.217E-04-0.203E-04
CGA:   8    -0.676162361807E+03   -0.10526E-04    0.62494E-05  8424   0.103E-04-0.681E-05
CGA:   9    -0.676162381138E+03   -0.19331E-04    0.38594E-06  8424   0.430E-05-0.113E-05
CGA:  10    -0.676162398237E+03   -0.17099E-04    0.11293E-06  8424   0.241E-05-0.249E-06
CGA:  11    -0.676162416286E+03   -0.18049E-04    0.34796E-07  8424   0.164E-05 0.641E-06
CGA:  12    -0.676162437763E+03   -0.21477E-04    0.23929E-07  8424   0.121E-05 0.117E-05
CGA:  13    -0.676162446637E+03   -0.88735E-05    0.20392E-07  8424   0.902E-06 0.347E-06
  13 F= -.67616245E+03 E0= -.67616245E+03  d E =-.190940E-02  mag=     1.0000
       N       E                     dE             d eps       ncg     rms          ort
SDA:   1    -0.676160444291E+03    0.19935E-02    0.00000E+00  8424   0.897E-02 0.000E+00
CGA:   2    -0.676162744370E+03   -0.23001E-02   -0.22930E-02  8424   0.462E-02-0.913E-04
CGA:   3    -0.676163615035E+03   -0.87067E-03   -0.87702E-03  8424   0.114E-02 0.450E-04
CGA:   4    -0.676163799028E+03   -0.18399E-03   -0.18417E-03  8424   0.260E-03 0.874E-06
CGA:   5    -0.676163850481E+03   -0.51453E-04   -0.48574E-04  8424   0.623E-04-0.224E-04
CGA:   6    -0.676163868591E+03   -0.18111E-04   -0.19124E-04  8424   0.575E-04-0.378E-04
CGA:   7    -0.676163881176E+03   -0.12584E-04   -0.10260E-04  8424   0.178E-04-0.176E-04
CGA:   8    -0.676163892012E+03   -0.10836E-04    0.42075E-05  8424   0.832E-05-0.536E-05
CGA:   9    -0.676163908926E+03   -0.16914E-04    0.23298E-06  8424   0.327E-05-0.437E-06
CGA:  10    -0.676163924332E+03   -0.15405E-04    0.65365E-07  8424   0.139E-05 0.848E-06
CGA:  11    -0.676163940013E+03   -0.15682E-04    0.19382E-07  8424   0.116E-05 0.984E-06
CGA:  12    -0.676163948657E+03   -0.86438E-05    0.15517E-07  8424   0.933E-06 0.523E-06
  14 F= -.67616395E+03 E0= -.67616395E+03  d E =-.150202E-02  mag=     1.0000
       N       E                     dE             d eps       ncg     rms          ort
SDA:   1    -0.676161285536E+03    0.26545E-02    0.00000E+00  8424   0.128E-01 0.000E+00
CGA:   2    -0.676164488120E+03   -0.32026E-02   -0.31979E-02  8424   0.650E-02-0.862E-04
CGA:   3    -0.676165775486E+03   -0.12874E-02   -0.12910E-02  8424   0.159E-02 0.345E-04
CGA:   4    -0.676166023865E+03   -0.24838E-03   -0.24905E-03  8424   0.360E-03 0.446E-05
CGA:   5    -0.676166094669E+03   -0.70804E-04   -0.68177E-04  8424   0.864E-04-0.264E-04
CGA:   6    -0.676166118532E+03   -0.23863E-04   -0.29667E-04  8424   0.113E-03-0.672E-04
CGA:   7    -0.676166135813E+03   -0.17281E-04   -0.16049E-04  8424   0.145E-04-0.848E-05
CGA:   8    -0.676166146142E+03   -0.10329E-04    0.50313E-05  8424   0.657E-05-0.302E-05
CGA:   9    -0.676166160857E+03   -0.14714E-04    0.18079E-06  8424   0.281E-05-0.855E-07
CGA:  10    -0.676166176761E+03   -0.15905E-04    0.42221E-07  8424   0.153E-05 0.154E-05
CGA:  11    -0.676166185838E+03   -0.90769E-05    0.22415E-07  8424   0.111E-05 0.765E-06
  15 F= -.67616619E+03 E0= -.67616619E+03  d E =-.223718E-02  mag=     1.0000
       N       E                     dE             d eps       ncg     rms          ort
SDA:   1    -0.676151312100E+03    0.14865E-01    0.00000E+00  8424   0.494E-01 0.000E+00
CGA:   2    -0.676163865056E+03   -0.12553E-01   -0.12551E-01  8424   0.252E-01-0.920E-04
CGA:   3    -0.676168889049E+03   -0.50240E-02   -0.50241E-02  8424   0.607E-02-0.264E-05
CGA:   4    -0.676169824268E+03   -0.93522E-03   -0.93724E-03  8424   0.136E-02 0.155E-04
CGA:   5    -0.676170070554E+03   -0.24629E-03   -0.24386E-03  8424   0.291E-03-0.271E-04
CGA:   6    -0.676170146075E+03   -0.75520E-04   -0.75517E-04  8424   0.126E-03-0.741E-04
CGA:   7    -0.676170172251E+03   -0.26176E-04   -0.28166E-04  8424   0.809E-04-0.572E-04
CGA:   8    -0.676170197860E+03   -0.25609E-04    0.67772E-04  8424   0.318E-04-0.109E-04
CGA:   9    -0.676170222560E+03   -0.24700E-04    0.53823E-05  8424   0.145E-04-0.685E-06
CGA:  10    -0.676170244371E+03   -0.21811E-04    0.10098E-05  8424   0.650E-05 0.756E-06
CGA:  11    -0.676170264763E+03   -0.20392E-04    0.19847E-06  8424   0.330E-05 0.143E-05
CGA:  12    -0.676170285575E+03   -0.20812E-04    0.61803E-07  8424   0.249E-05 0.165E-05
CGA:  13    -0.676170295679E+03   -0.10105E-04    0.50059E-07  8424   0.154E-05 0.101E-05
CGA:  14    -0.676170312337E+03   -0.16657E-04    0.21470E-07  8424   0.140E-05 0.168E-05
CGA:  15    -0.676170323016E+03   -0.10679E-04    0.14090E-07  8424   0.113E-05 0.105E-05
CGA:  16    -0.676170333116E+03   -0.10100E-04    0.95705E-08  8424   0.110E-05 0.107E-05
CGA:  17    -0.676170343491E+03   -0.10375E-04    0.87248E-08  8424   0.108E-05 0.107E-05
CGA:  18    -0.676170353539E+03   -0.10048E-04    0.87978E-08  8424   0.107E-05 0.105E-05
CGA:  19    -0.676170363872E+03   -0.10333E-04    0.84047E-08  8424   0.107E-05 0.104E-05
CGA:  20    -0.676170373826E+03   -0.99543E-05    0.86557E-08  8424   0.107E-05 0.103E-05
  16 F= -.67617037E+03 E0= -.67617037E+03  d E =-.418799E-02  mag=     1.0000
       N       E                     dE             d eps       ncg     rms          ort
SDA:   1    -0.676168053791E+03    0.23101E-02    0.00000E+00  8424   0.767E-02 0.000E+00
CGA:   2    -0.676169809054E+03   -0.17553E-02   -0.17560E-02  8424   0.344E-02 0.194E-04
CGA:   3    -0.676170548908E+03   -0.73985E-03   -0.73176E-03  8424   0.111E-02-0.154E-03
CGA:   4    -0.676170729438E+03   -0.18053E-03   -0.17662E-03  8424   0.264E-03-0.411E-04
CGA:   5    -0.676170775043E+03   -0.45604E-04   -0.44230E-04  8424   0.554E-04-0.165E-04
CGA:   6    -0.676170750357E+03    0.24685E-04   -0.37590E-04  8424   0.444E-03-0.132E-03
CGA:   7    -0.676170814419E+03   -0.64062E-04   -0.63123E-04  8424   0.523E-04-0.705E-05
CGA:   8    -0.676170336346E+03    0.47807E-03   -0.25876E-03  8424   0.338E-02-0.387E-03
CGA:   9    -0.676170814865E+03   -0.47852E-03   -0.49950E-03  8424   0.370E-03 0.602E-04
CGA:  10    -0.676170909986E+03   -0.95121E-04   -0.92266E-04  8424   0.269E-04-0.125E-04
CGA:  11    -0.676170921808E+03   -0.11822E-04   -0.14100E-04  8424   0.630E-04-0.293E-04
CGA:  12    -0.676170952269E+03   -0.30461E-04   -0.20777E-04  8424   0.105E-03-0.702E-04
CGA:  13    -0.676170956993E+03   -0.47240E-05   -0.11121E-04  8424   0.552E-05 0.181E-04
  17 F= -.67617096E+03 E0= -.67617096E+03  d E =-.583167E-03  mag=     1.0000
       N       E                     dE             d eps       ncg     rms          ort
SDA:   1    -0.676168279617E+03    0.26727E-02    0.00000E+00  8424   0.445E-02 0.000E+00
CGA:   2    -0.676169247199E+03   -0.96758E-03   -0.99865E-03  8424   0.229E-02 0.143E-03
CGA:   3    -0.676169741122E+03   -0.49392E-03   -0.47553E-03  8424   0.643E-03-0.799E-04
CGA:   4    -0.676169842400E+03   -0.10128E-03   -0.97949E-04  8424   0.144E-03-0.128E-04
CGA:   5    -0.676169868640E+03   -0.26241E-04   -0.24420E-04  8424   0.338E-04-0.782E-05
CGA:   6    -0.676169130582E+03    0.73806E-03   -0.40418E-03  8424   0.546E-02-0.379E-03
CGA:   7    -0.676169789345E+03   -0.65876E-03   -0.70143E-03  8424   0.671E-03 0.715E-04
CGA:   8    -0.676169983438E+03   -0.19409E-03   -0.17186E-03  8424   0.134E-03-0.508E-04
CGA:   9    -0.676170009927E+03   -0.26490E-04   -0.27519E-04  8424   0.242E-04 0.228E-05
CGA:  10    -0.676170021128E+03   -0.11201E-04   -0.21072E-04  8424   0.143E-03-0.474E-04
CGA:  11    -0.676170050361E+03   -0.29232E-04   -0.27064E-04  8424   0.191E-04-0.467E-05
CGA:  12    -0.676170079332E+03   -0.28971E-04    0.25025E-04  8424   0.854E-04-0.337E-04
CGA:  13    -0.676170085302E+03   -0.59699E-05   -0.11781E-04  8424   0.839E-05 0.117E-04
  18 F= -.67617009E+03 E0= -.67617009E+03  d E =0.871691E-03  mag=     1.0000
       N       E                     dE             d eps       ncg     rms          ort
SDA:   1    -0.676168457726E+03    0.16216E-02    0.00000E+00  8424   0.499E-02 0.000E+00
CGA:   2    -0.676169513393E+03   -0.10557E-02   -0.10388E-02  8424   0.213E-02-0.428E-04
CGA:   3    -0.676169955174E+03   -0.44178E-03   -0.44593E-03  8424   0.740E-03 0.103E-04
CGA:   4    -0.676170082146E+03   -0.12697E-03   -0.11751E-03  8424   0.181E-03-0.231E-04
CGA:   5    -0.676170125459E+03   -0.43312E-04   -0.33948E-04  8424   0.456E-04-0.263E-04
CGA:   6    -0.676170137766E+03   -0.12307E-04   -0.90506E-05  8424   0.184E-04-0.109E-04
CGA:   7    -0.676170157317E+03   -0.19552E-04    0.10439E-04  8424   0.543E-04-0.223E-04
CGA:   8    -0.676170166881E+03   -0.95641E-05   -0.80887E-05  8424   0.683E-05-0.402E-05
  19 F= -.67617017E+03 E0= -.67617017E+03  d E =-.815794E-04  mag=     1.0000
       N       E                     dE             d eps       ncg     rms          ort
SDA:   1    -0.676169876098E+03    0.28122E-03    0.00000E+00  8424   0.103E-02 0.000E+00
CGA:   2    -0.676170100873E+03   -0.22477E-03   -0.21362E-03  8424   0.542E-03-0.384E-04
CGA:   3    -0.676170208986E+03   -0.10811E-03   -0.10380E-03  8424   0.208E-03-0.153E-04
CGA:   4    -0.676170241531E+03   -0.32545E-04   -0.29658E-04  8424   0.440E-04-0.899E-05
CGA:   5    -0.676170256262E+03   -0.14732E-04   -0.10962E-04  8424   0.231E-04-0.195E-04
CGA:   6    -0.676170269857E+03   -0.13595E-04    0.14787E-04  8424   0.493E-04-0.218E-04
CGA:   7    -0.676170284212E+03   -0.14354E-04   -0.93692E-05  8424   0.216E-04-0.196E-04
CGA:   8    -0.676170299066E+03   -0.14855E-04    0.86613E-05  8424   0.208E-04-0.125E-04
CGA:   9    -0.676170304322E+03   -0.52554E-05   -0.11593E-04  8424   0.154E-03-0.507E-04
CGA:  10    -0.676170320755E+03   -0.16433E-04   -0.19202E-04  8424   0.465E-05 0.879E-05
CGA:  11    -0.676170335961E+03   -0.15206E-04    0.38963E-06  8424   0.869E-05-0.463E-05
CGA:  12    -0.676170338545E+03   -0.25840E-05   -0.19228E-05  8424   0.391E-05-0.330E-05
  20 F= -.67617034E+03 E0= -.67617034E+03  d E =-.171664E-03  mag=     1.0000
       N       E                     dE             d eps       ncg     rms          ort
SDA:   1    -0.676169970501E+03    0.36546E-03    0.00000E+00  8424   0.466E-02 0.000E+00
CGA:   2    -0.676171008407E+03   -0.10379E-02   -0.10193E-02  8424   0.235E-02-0.969E-04
CGA:   3    -0.676171495394E+03   -0.48699E-03   -0.48581E-03  8424   0.699E-03-0.687E-05
CGA:   4    -0.676171614909E+03   -0.11951E-03   -0.11417E-03  8424   0.156E-03-0.235E-04
CGA:   5    -0.676171645885E+03   -0.30977E-04   -0.26921E-04  8424   0.392E-04-0.201E-04
CGA:   6    -0.676171658459E+03   -0.12574E-04   -0.12002E-04  8424   0.483E-04-0.287E-04
CGA:   7    -0.676171671348E+03   -0.12889E-04   -0.89267E-05  8424   0.203E-04-0.214E-04
CGA:   8    -0.676171683016E+03   -0.11668E-04    0.47312E-05  8424   0.132E-04-0.846E-05
CGA:   9    -0.676171706126E+03   -0.23110E-04    0.44215E-06  8424   0.613E-05-0.232E-05
CGA:  10    -0.676171724159E+03   -0.18033E-04    0.23207E-06  8424   0.339E-05-0.909E-06
CGA:  11    -0.676171747429E+03   -0.23270E-04    0.51401E-07  8424   0.259E-05-0.364E-07
CGA:  12    -0.676171771386E+03   -0.23957E-04    0.38654E-07  8424   0.223E-05 0.570E-06
CGA:  13    -0.676171805605E+03   -0.34219E-04    0.29829E-07  8424   0.159E-05 0.134E-05
