       N       E                     dE             d eps       ncg     rms          ort
DAV:   1     0.828949039654E+04    0.82895E+04   -0.24642E+05  8424   0.239E+03
DAV:   2     0.920078529621E+03   -0.73694E+04   -0.69178E+04  8424   0.659E+02
DAV:   3    -0.677339352273E+03   -0.15974E+04   -0.14055E+04  8424   0.283E+02
DAV:   4    -0.833690432439E+03   -0.15635E+03   -0.15361E+03  8424   0.857E+01
DAV:   5    -0.836228015214E+03   -0.25376E+01   -0.25256E+01  8424   0.122E+01
SDA:   6    -0.247793521002E+03    0.58843E+03   -0.25256E+01  8424   0.548E+04 0.000E+00
CGA:   7    -0.367058404956E+03   -0.11926E+03   -0.39938E+03  8424   0.134E+05-0.145E+04
CGA:   8    -0.494416930037E+03   -0.12736E+03   -0.49216E+03  8424   0.166E+04-0.285E+04
CGA:   9    -0.555353927849E+03   -0.60937E+02   -0.45161E+02  8424   0.630E+03 0.587E+02
CGA:  10    -0.586471480876E+03   -0.31118E+02   -0.46836E+02  8424   0.145E+04-0.193E+03
CGA:  11    -0.617869382611E+03   -0.31398E+02   -0.23585E+02  8424   0.887E+03-0.994E+02
CGA:  12    -0.619687605561E+03   -0.18182E+01   -0.32211E+02  8424   0.931E+03-0.493E+03
CGA:  13    -0.623618954220E+03   -0.39313E+01   -0.37280E+02  8424   0.874E+03-0.543E+03
CGA:  14    -0.612127409689E+03    0.11492E+02   -0.39584E+02  8424   0.135E+04-0.937E+03
CGA:  15    -0.635038974401E+03   -0.22912E+02   -0.43631E+02  8424   0.636E+03-0.794E+03
CGA:  16    -0.628716851921E+03    0.63221E+01   -0.26706E+02  8424   0.793E+03-0.605E+03
CGA:  17    -0.653199167676E+03   -0.24482E+02   -0.18758E+02  8424   0.295E+03-0.685E+03
CGA:  18    -0.646865876617E+03    0.63333E+01   -0.11235E+02  8424   0.646E+03-0.336E+03
CGA:  19    -0.643499586982E+03    0.33663E+01   -0.22833E+02  8424   0.528E+03-0.421E+03
CGA:  20    -0.640999465348E+03    0.25001E+01   -0.18953E+02  8424   0.900E+03-0.787E+03
CGA:  21    -0.646672193936E+03   -0.56727E+01   -0.27973E+02  8424   0.515E+03-0.571E+03
CGA:  22    -0.646668701358E+03    0.34926E-02   -0.17246E+02  8424   0.835E+03-0.776E+03
CGA:  23    -0.645230564176E+03    0.14381E+01   -0.29238E+02  8424   0.561E+03-0.510E+03
CGA:  24    -0.651275532611E+03   -0.60450E+01   -0.17785E+02  8424   0.627E+03-0.707E+03
CGA:  25    -0.653638064345E+03   -0.23625E+01   -0.18706E+02  8424   0.531E+03-0.565E+03
CGA:  26    -0.655537957464E+03   -0.18999E+01   -0.15993E+02  8424   0.384E+03-0.377E+03
CGA:  27    -0.663995528893E+03   -0.84576E+01   -0.86883E+01  8424   0.129E+03-0.312E+03
CGA:  28    -0.663620558635E+03    0.37497E+00   -0.38781E+01  8424   0.133E+03-0.861E+02
CGA:  29    -0.665616277203E+03   -0.19957E+01   -0.27610E+01  8424   0.472E+02-0.739E+02
CGA:  30    -0.666052899324E+03   -0.43662E+00   -0.13164E+01  8424   0.349E+02-0.200E+02
CGA:  31    -0.667974607450E+03   -0.19217E+01   -0.19106E+01  8424   0.166E+02 0.541E+00
CGA:  32    -0.668875976305E+03   -0.90137E+00   -0.94236E+00  8424   0.594E+01 0.109E+01
CGA:  33    -0.669656219175E+03   -0.78024E+00   -0.72063E+00  8424   0.558E+01 0.138E+01
CGA:  34    -0.670192413557E+03   -0.53619E+00   -0.44840E+00  8424   0.474E+01-0.103E+01
CGA:  35    -0.670561731299E+03   -0.36932E+00   -0.36292E+00  8424   0.755E+01 0.231E+00
CGA:  36    -0.670943915161E+03   -0.38218E+00   -0.43659E+00  8424   0.134E+01 0.251E+00
CGA:  37    -0.671057853583E+03   -0.11394E+00   -0.11383E+00  8424   0.929E+00 0.474E-01
CGA:  38    -0.671199842581E+03   -0.14199E+00   -0.13574E+00  8424   0.517E+00 0.848E-01
CGA:  39    -0.671303068227E+03   -0.10323E+00   -0.98422E-01  8424   0.292E+00 0.484E-01
CGA:  40    -0.671357229673E+03   -0.54161E-01   -0.54984E-01  8424   0.192E+00-0.118E-01
CGA:  41    -0.671398594144E+03   -0.41364E-01   -0.42886E-01  8424   0.138E+00-0.106E-01
CGA:  42    -0.671431318006E+03   -0.32724E-01   -0.40936E-01  8424   0.122E+00-0.396E-01
CGA:  43    -0.671443605559E+03   -0.12288E-01   -0.37506E-01  8424   0.196E+00-0.908E-01
CGA:  44    -0.671469742593E+03   -0.26137E-01   -0.26086E-01  8424   0.479E-01 0.745E-02
CGA:  45    -0.671489279846E+03   -0.19537E-01   -0.15745E-01  8424   0.334E-01 0.200E-01
CGA:  46    -0.671508104372E+03   -0.18825E-01   -0.15136E-01  8424   0.239E-01 0.167E-01
CGA:  47    -0.671512560228E+03   -0.44559E-02   -0.44524E-02  8424   0.166E-01-0.186E-04
CGA:  48    -0.671519109497E+03   -0.65493E-02   -0.76423E-02  8424   0.328E-01-0.644E-02
CGA:  49    -0.671520657220E+03   -0.15477E-02   -0.15934E-02  8424   0.299E-01 0.221E-02
CGA:  50    -0.671522838866E+03   -0.21816E-02   -0.25615E-02  8424   0.101E-01 0.164E-02
CGA:  51    -0.671523912442E+03   -0.10736E-02   -0.11844E-02  8424   0.856E-02 0.202E-02
CGA:  52    -0.671525298754E+03   -0.13863E-02   -0.14251E-02  8424   0.531E-02 0.270E-02
CGA:  53    -0.671526158538E+03   -0.85978E-03   -0.89988E-03  8424   0.385E-02 0.172E-02
CGA:  54    -0.671526990239E+03   -0.83170E-03   -0.81756E-03  8424   0.362E-02 0.155E-02
CGA:  55    -0.671528142343E+03   -0.11521E-02   -0.10851E-02  8424   0.623E-02 0.107E-02
CGA:  56    -0.671530874288E+03   -0.27319E-02   -0.28083E-02  8424   0.138E-01-0.361E-03
CGA:  57    -0.671533347911E+03   -0.24736E-02   -0.25736E-02  8424   0.221E-01-0.312E-02
CGA:  58    -0.671536262333E+03   -0.29144E-02   -0.29404E-02  8424   0.297E-01-0.570E-02
CGA:  59    -0.671539356041E+03   -0.30937E-02   -0.28904E-02  8424   0.262E-01-0.790E-02
CGA:  60    -0.671542268566E+03   -0.29125E-02   -0.27676E-02  8424   0.273E-01-0.859E-02
CGA:  61    -0.671544988099E+03   -0.27195E-02   -0.24996E-02  8424   0.249E-01-0.949E-02
CGA:  62    -0.671547365170E+03   -0.23771E-02   -0.21119E-02  8424   0.223E-01-0.919E-02
CGA:  63    -0.671549599264E+03   -0.22341E-02   -0.21749E-02  8424   0.243E-01-0.105E-01
CGA:  64    -0.671551308424E+03   -0.17092E-02   -0.12366E-02  8424   0.195E-01-0.663E-02
CGA:  65    -0.671552784026E+03   -0.14756E-02   -0.12163E-02  8424   0.144E-01-0.401E-02
CGA:  66    -0.671553971116E+03   -0.11871E-02   -0.11251E-02  8424   0.126E-01-0.198E-02
CGA:  67    -0.671554961568E+03   -0.99045E-03   -0.99656E-03  8424   0.757E-02-0.513E-03
CGA:  68    -0.671555530612E+03   -0.56904E-03   -0.60236E-03  8424   0.476E-02 0.381E-03
CGA:  69    -0.671556005723E+03   -0.47511E-03   -0.51076E-03  8424   0.476E-02 0.786E-03
CGA:  70    -0.671556560450E+03   -0.55473E-03   -0.59486E-03  8424   0.394E-02 0.108E-02
CGA:  71    -0.671556965872E+03   -0.40542E-03   -0.45116E-03  8424   0.267E-02 0.913E-03
CGA:  72    -0.671557279201E+03   -0.31333E-03   -0.34427E-03  8424   0.277E-02 0.893E-03
CGA:  73    -0.671557669786E+03   -0.39058E-03   -0.41950E-03  8424   0.271E-02 0.121E-02
CGA:  74    -0.671558029234E+03   -0.35945E-03   -0.39870E-03  8424   0.191E-02 0.115E-02
CGA:  75    -0.671558328400E+03   -0.29917E-03   -0.31424E-03  8424   0.189E-02 0.794E-03
CGA:  76    -0.671558747755E+03   -0.41935E-03   -0.40882E-03  8424   0.221E-02 0.514E-03
SDA:  77    -0.671559216586E+03   -0.46883E-03   -0.48269E-03  8424   0.250E-02-0.400E-03
CGA:  78    -0.671558901807E+03    0.31478E-03   -0.48503E-03  8424   0.229E-01-0.389E-02
CGA:  79    -0.671561801000E+03   -0.28992E-02   -0.29503E-02  8424   0.216E-02 0.328E-03
CGA:  80    -0.671562369208E+03   -0.56821E-03   -0.57502E-03  8424   0.159E-02-0.337E-03
CGA:  81    -0.671563082746E+03   -0.71354E-03    0.16972E-02  8424   0.968E-03 0.731E-03
CGA:  82    -0.671563791521E+03   -0.70877E-03    0.51239E-02  8424   0.106E-02 0.657E-03
CGA:  83    -0.671564072982E+03   -0.28146E-03   -0.28283E-03  8424   0.122E-02-0.583E-04
CGA:  84    -0.671564640137E+03   -0.56716E-03    0.19469E-01  8424   0.999E-03 0.768E-03
CGA:  85    -0.671564924822E+03   -0.28468E-03   -0.50699E-03  8424   0.380E-02-0.845E-03
CGA:  86    -0.671565424468E+03   -0.49965E-03   -0.52882E-03  8424   0.561E-03 0.251E-03
CGA:  87    -0.671565740430E+03   -0.31596E-03   -0.42994E-03  8424   0.393E-02-0.247E-03
CGA:  88    -0.671565195541E+03    0.54489E-03   -0.18547E-02  8424   0.489E-01-0.443E-02
CGA:  89    -0.671572188791E+03   -0.69932E-02   -0.68368E-02  8424   0.385E-02-0.554E-03
CGA:  90    -0.671572797464E+03   -0.60867E-03   -0.61015E-03  8424   0.742E-03 0.910E-05
CGA:  91    -0.671572953741E+03   -0.15628E-03   -0.16509E-03  8424   0.221E-03 0.132E-03
CGA:  92    -0.671573336440E+03   -0.38270E-03   -0.68124E-07  8424   0.338E-02-0.122E-03
CGA:  93    -0.671573836731E+03   -0.50029E-03   -0.49666E-03  8424   0.685E-03-0.632E-04
CGA:  94    -0.671574081499E+03   -0.24477E-03   -0.21396E-03  8424   0.521E-03-0.170E-03
CGA:  95    -0.671574481734E+03   -0.40023E-03    0.24968E-02  8424   0.751E-03-0.924E-04
CGA:  96    -0.671575292938E+03   -0.81120E-03    0.45431E-03  8424   0.111E-02 0.143E-03
CGA:  97    -0.671560223658E+03    0.15069E-01   -0.76761E-02  8424   0.134E+00-0.759E-02
CGA:  98    -0.671578329836E+03   -0.18106E-01   -0.16312E-01  8424   0.140E-01 0.125E-01
CGA:  99    -0.671581755444E+03   -0.34256E-02   -0.35344E-02  8424   0.341E-02-0.570E-03
CGA: 100    -0.671582324390E+03   -0.56895E-03   -0.64456E-03  8424   0.631E-03 0.113E-03
CGA: 101    -0.671582382288E+03   -0.57898E-04   -0.11431E-03  8424   0.269E-03 0.941E-04
CGA: 102    -0.671582422460E+03   -0.40172E-04   -0.92827E-04  8424   0.201E-03 0.111E-03
CGA: 103    -0.671582477679E+03   -0.55219E-04   -0.73372E-04  8424   0.150E-03 0.358E-04
CGA: 104    -0.671582552040E+03   -0.74360E-04   -0.71454E-04  8424   0.165E-03-0.112E-04
CGA: 105    -0.671582629119E+03   -0.77079E-04   -0.63983E-04  8424   0.200E-03-0.505E-04
CGA: 106    -0.671582949959E+03   -0.32084E-03    0.69414E-04  8424   0.107E-02-0.239E-03
CGA: 107    -0.671583263972E+03   -0.31401E-03   -0.20452E-03  8424   0.532E-03-0.238E-03
CGA: 108    -0.671563437320E+03    0.19827E-01   -0.90896E-02  8424   0.168E+00-0.666E-02
CGA: 109    -0.671581601357E+03   -0.18164E-01   -0.22980E-01  8424   0.248E-01-0.283E-01
CGA: 110    -0.671585100967E+03   -0.34996E-02   -0.37526E-02  8424   0.264E-02 0.319E-03
CGA: 111    -0.671585913031E+03   -0.81206E-03   -0.94548E-03  8424   0.142E-02 0.837E-04
CGA: 112    -0.671586102955E+03   -0.18992E-03   -0.38415E-03  8424   0.829E-03 0.235E-03
CGA: 113    -0.671586159064E+03   -0.56109E-04   -0.24182E-03  8424   0.205E-03 0.227E-03
CGA: 114    -0.671586222489E+03   -0.63424E-04   -0.87604E-04  8424   0.888E-04 0.372E-04
CGA: 115    -0.671586234864E+03   -0.12375E-04   -0.35271E-04  8424   0.516E-04 0.359E-04
CGA: 116    -0.671586303503E+03   -0.68639E-04   -0.80058E-04  8424   0.531E-03-0.664E-04
CGA: 117    -0.671586455257E+03   -0.15175E-03   -0.81934E-04  8424   0.112E-03-0.960E-04
CGA: 118    -0.671586764358E+03   -0.30910E-03    0.47049E-04  8424   0.952E-03-0.158E-03
CGA: 119    -0.671586873342E+03   -0.10898E-03   -0.11909E-03  8424   0.803E-04-0.841E-05
CGA: 120    -0.671586946016E+03   -0.72674E-04   -0.61355E-04  8424   0.513E-03-0.132E-03
CGA: 121    -0.671587127400E+03   -0.18138E-03   -0.98179E-04  8424   0.170E-03-0.129E-03
CGA: 122    -0.671587250192E+03   -0.12279E-03   -0.55021E-04  8424   0.485E-03-0.175E-03
CGA: 123    -0.671587300141E+03   -0.49948E-04   -0.57029E-04  8424   0.477E-04 0.849E-05
CGA: 124    -0.671587380144E+03   -0.80004E-04    0.24453E-03  8424   0.306E-03-0.720E-04
CGA: 125    -0.671587556699E+03   -0.17655E-03   -0.85682E-04  8424   0.260E-03-0.188E-03
CGA: 126    -0.671587587544E+03   -0.30845E-04   -0.31610E-04  8424   0.294E-04 0.143E-05
CGA: 127    -0.671587673263E+03   -0.85718E-04    0.10130E-04  8424   0.175E-03-0.246E-04
CGA: 128    -0.671587837581E+03   -0.16432E-03   -0.91698E-04  8424   0.117E-02-0.387E-03
CGA: 129    -0.671587914232E+03   -0.76651E-04   -0.13542E-03  8424   0.788E-04 0.997E-04
CGA: 130    -0.671587921141E+03   -0.69098E-05   -0.12581E-04  8424   0.179E-04 0.107E-04
   1 F= -.67158792E+03 E0= -.67158215E+03  d E =-.671588E+03  mag=    15.0006
       N       E                     dE             d eps       ncg     rms          ort
SDA:   1    -0.671595286388E+03   -0.73722E-02    0.00000E+00  8424   0.645E-02 0.000E+00
CGA:   2    -0.671596162788E+03   -0.87640E-03   -0.87171E-03  8424   0.225E-02-0.609E-05
CGA:   3    -0.671596687980E+03   -0.52519E-03   -0.52096E-03  8424   0.638E-03-0.109E-04
CGA:   4    -0.671596849896E+03   -0.16192E-03   -0.14137E-03  8424   0.216E-03-0.545E-04
CGA:   5    -0.671596932985E+03   -0.83089E-04   -0.50919E-04  8424   0.192E-03-0.998E-04
CGA:   6    -0.671597082062E+03   -0.14908E-03    0.10410E-03  8424   0.888E-03-0.281E-03
CGA:   7    -0.671597222435E+03   -0.14037E-03   -0.12459E-03  8424   0.180E-03-0.377E-04
CGA:   8    -0.671597315599E+03   -0.93164E-04   -0.86256E-04  8424   0.373E-03-0.162E-03
CGA:   9    -0.671597414695E+03   -0.99096E-04   -0.69320E-04  8424   0.107E-03-0.840E-04
CGA:  10    -0.671597537967E+03   -0.12327E-03    0.51600E-04  8424   0.367E-03-0.117E-03
CGA:  11    -0.671597606472E+03   -0.68505E-04   -0.51298E-04  8424   0.774E-04-0.452E-04
CGA:  12    -0.671597687587E+03   -0.81115E-04    0.94024E-04  8424   0.301E-03-0.904E-04
CGA:  13    -0.671597754712E+03   -0.67125E-04   -0.43221E-04  8424   0.790E-04-0.666E-04
CGA:  14    -0.671597871181E+03   -0.11647E-03    0.15872E-04  8424   0.212E-03-0.642E-04
CGA:  15    -0.671597922550E+03   -0.51369E-04   -0.32554E-04  8424   0.755E-04-0.569E-04
CGA:  16    -0.671598028126E+03   -0.10558E-03    0.12596E-04  8424   0.166E-03-0.520E-04
CGA:  17    -0.671598088869E+03   -0.60743E-04   -0.35634E-04  8424   0.157E-03-0.988E-04
CGA:  18    -0.671598126031E+03   -0.37163E-04   -0.21643E-04  8424   0.431E-04-0.492E-04
CGA:  19    -0.671598245766E+03   -0.11973E-03    0.18225E-05  8424   0.385E-04 0.501E-05
CGA:  20    -0.671598433071E+03   -0.18731E-03    0.24108E-05  8424   0.921E-04 0.208E-05
CGA:  21    -0.671598994205E+03   -0.56113E-03    0.38705E-05  8424   0.258E-04 0.718E-04
CGA:  22    -0.671599080609E+03   -0.86404E-04    0.20350E-05  8424   0.461E-04-0.858E-05
CGA:  23    -0.671599323997E+03   -0.24339E-03    0.85217E-06  8424   0.885E-04 0.162E-04
CGA:  24    -0.671599894871E+03   -0.57087E-03    0.59889E-05  8424   0.616E-04 0.377E-04
CGA:  25    -0.671600372953E+03   -0.47808E-03    0.37591E-05  8424   0.271E-04 0.510E-04
CGA:  26    -0.671600463774E+03   -0.90821E-04    0.21394E-05  8424   0.484E-04-0.932E-05
CGA:  27    -0.671600680608E+03   -0.21683E-03    0.10415E-05  8424   0.121E-03-0.166E-04
CGA:  28    -0.671601327194E+03   -0.64659E-03    0.21310E-05  8424   0.172E-03 0.404E-04
CGA:  29    -0.671602341704E+03   -0.10145E-02    0.12703E-04  8424   0.559E-03-0.686E-04
CGA:  30    -0.671605506314E+03   -0.31646E-02    0.77127E-05  8424   0.183E-02-0.582E-03
CGA:  31    -0.671605918282E+03   -0.41197E-03   -0.39437E-03  8424   0.600E-03-0.788E-04
CGA:  32    -0.671606044654E+03   -0.12637E-03   -0.99975E-04  8424   0.804E-04-0.104E-03
CGA:  33    -0.671606100452E+03   -0.55797E-04    0.23958E-02  8424   0.258E-03-0.929E-04
CGA:  34    -0.671606148263E+03   -0.47812E-04   -0.34434E-04  8424   0.327E-04-0.466E-04
CGA:  35    -0.671606197523E+03   -0.49260E-04    0.42287E-05  8424   0.974E-04-0.300E-04
CGA:  36    -0.671606231495E+03   -0.33971E-04   -0.18116E-04  8424   0.767E-04-0.733E-04
CGA:  37    -0.671606254171E+03   -0.22676E-04   -0.12436E-04  8424   0.395E-04-0.447E-04
CGA:  38    -0.671604540883E+03    0.17133E-02   -0.95118E-03  8424   0.222E-01-0.872E-03
CGA:  39    -0.671606607078E+03   -0.20662E-02   -0.21301E-02  8424   0.182E-04-0.426E-03
CGA:  40    -0.671606663442E+03   -0.56363E-04    0.42995E-05  8424   0.373E-03-0.619E-04
CGA:  41    -0.671606708841E+03   -0.45399E-04   -0.38376E-04  8424   0.108E-04-0.151E-04
CGA:  42    -0.671606788395E+03   -0.79554E-04    0.65689E-06  8424   0.111E-03-0.190E-04
CGA:  43    -0.671606814341E+03   -0.25946E-04   -0.14839E-04  8424   0.157E-04-0.222E-04
CGA:  44    -0.671606892746E+03   -0.78405E-04    0.93865E-06  8424   0.144E-03-0.236E-04
CGA:  45    -0.671606918870E+03   -0.26124E-04   -0.16177E-04  8424   0.109E-04-0.204E-04
CGA:  46    -0.671607000250E+03   -0.81379E-04    0.42989E-06  8424   0.679E-04-0.107E-04
CGA:  47    -0.671607019432E+03   -0.19183E-04   -0.95574E-05  8424   0.178E-04-0.218E-04
CGA:  48    -0.671607104425E+03   -0.84992E-04    0.64961E-06  8424   0.624E-04-0.108E-04
CGA:  49    -0.671607130099E+03   -0.25675E-04   -0.10920E-04  8424   0.410E-04-0.381E-04
CGA:  50    -0.671607158492E+03   -0.28392E-04   -0.10578E-04  8424   0.122E-03-0.622E-04
CGA:  51    -0.671607180630E+03   -0.22138E-04   -0.13621E-04  8424   0.906E-05-0.207E-04
CGA:  52    -0.671607249040E+03   -0.68410E-04    0.24255E-06  8424   0.382E-04-0.442E-05
CGA:  53    -0.671607604902E+03   -0.35586E-03    0.29633E-06  8424   0.622E-04 0.182E-04
CGA:  54    -0.671608157068E+03   -0.55217E-03    0.47922E-05  8424   0.101E-02-0.190E-03
CGA:  55    -0.671608266816E+03   -0.10975E-03   -0.96193E-04  8424   0.490E-05-0.346E-04
CGA:  56    -0.671608321211E+03   -0.54396E-04    0.10749E-06  8424   0.246E-04-0.208E-05
CGA:  57    -0.671608652227E+03   -0.33102E-03    0.15095E-06  8424   0.112E-03 0.518E-05
CGA:  58    -0.671610233206E+03   -0.15810E-02    0.30102E-05  8424   0.387E-03-0.320E-04
CGA:  59    -0.671616022025E+03   -0.57888E-02    0.33030E-05  8424   0.480E-03-0.415E-04
CGA:  60    -0.671623192944E+03   -0.71709E-02    0.64960E-05  8424   0.547E-02-0.172E-02
CGA:  61    -0.671623695148E+03   -0.50220E-03   -0.50612E-03  8424   0.595E-04 0.372E-04
CGA:  62    -0.671623686092E+03    0.90560E-05   -0.46922E-05  8424   0.253E-04 0.351E-04
   2 F= -.67162369E+03 E0= -.67161779E+03  d E =-.357650E-01  mag=    15.0007
       N       E                     dE             d eps       ncg     rms          ort
SDA:   1    -0.666726201798E+03    0.48975E+01    0.00000E+00  8424   0.149E+02 0.000E+00
CGA:   2    -0.670596958326E+03   -0.38708E+01   -0.38846E+01  8424   0.563E+01-0.957E-02
CGA:   3    -0.671661667518E+03   -0.10647E+01   -0.10666E+01  8424   0.180E+01 0.122E-01
CGA:   4    -0.671968738311E+03   -0.30707E+00   -0.27129E+00  8424   0.353E+00 0.242E+00
CGA:   5    -0.672043031702E+03   -0.74293E-01   -0.73442E-01  8424   0.895E-01 0.376E-02
CGA:   6    -0.672061251623E+03   -0.18220E-01   -0.18175E-01  8424   0.268E-01-0.468E-03
CGA:   7    -0.672066781489E+03   -0.55299E-02   -0.54901E-02  8424   0.107E-01-0.131E-03
CGA:   8    -0.672068828693E+03   -0.20472E-02   -0.21621E-02  8424   0.385E-02 0.641E-03
CGA:   9    -0.672069580261E+03   -0.75157E-03   -0.84043E-03  8424   0.129E-02 0.576E-03
CGA:  10    -0.672069816107E+03   -0.23585E-03   -0.30449E-03  8424   0.509E-03 0.467E-03
CGA:  11    -0.672069885108E+03   -0.69001E-04   -0.12150E-03  8424   0.223E-03 0.308E-03
CGA:  12    -0.672069907816E+03   -0.22708E-04   -0.40805E-04  8424   0.116E-03 0.117E-03
CGA:  13    -0.672069896649E+03    0.11166E-04   -0.11255E-04  8424   0.897E-04 0.965E-04
CGA:  14    -0.672069884759E+03    0.11890E-04   -0.76924E-05  8424   0.797E-04 0.846E-04
CGA:  15    -0.672069872930E+03    0.11829E-04   -0.58830E-05  8424   0.730E-04 0.764E-04
CGA:  16    -0.672069861559E+03    0.11371E-04   -0.47652E-05  8424   0.680E-04 0.705E-04
CGA:  17    -0.672069850753E+03    0.10806E-04   -0.39897E-05  8424   0.641E-04 0.660E-04
CGA:  18    -0.672069840532E+03    0.10221E-04   -0.34171E-05  8424   0.609E-04 0.625E-04
CGA:  19    -0.672069830883E+03    0.96491E-05   -0.29757E-05  8424   0.583E-04 0.596E-04
   3 F= -.67206983E+03 E0= -.67206334E+03  d E =-.446145E+00  mag=    15.0193
       N       E                     dE             d eps       ncg     rms          ort
SDA:   1    -0.656726090739E+03    0.15344E+02    0.00000E+00  8424   0.440E+02 0.000E+00
CGA:   2    -0.668178147549E+03   -0.11452E+02   -0.11444E+02  8424   0.158E+02 0.220E+00
CGA:   3    -0.671293513551E+03   -0.31154E+01   -0.31146E+01  8424   0.513E+01 0.141E-02
CGA:   4    -0.672166369178E+03   -0.87286E+00   -0.78304E+00  8424   0.129E+01 0.191E+00
CGA:   5    -0.672377298246E+03   -0.21093E+00   -0.21261E+00  8424   0.311E+00 0.630E-02
CGA:   6    -0.672433160279E+03   -0.55862E-01   -0.55271E-01  8424   0.113E+00-0.528E-02
CGA:   7    -0.672450527973E+03   -0.17368E-01   -0.17687E-01  8424   0.477E-01 0.794E-03
CGA:   8    -0.672459480314E+03   -0.89523E-02   -0.88755E-02  8424   0.222E-01-0.109E-02
CGA:   9    -0.672463384012E+03   -0.39037E-02   -0.39819E-02  8424   0.862E-02 0.183E-02
CGA:  10    -0.672465139787E+03   -0.17558E-02   -0.17804E-02  8424   0.408E-02 0.855E-03
CGA:  11    -0.672465762980E+03   -0.62319E-03   -0.69863E-03  8424   0.170E-02 0.116E-02
CGA:  12    -0.672466157909E+03   -0.39493E-03   -0.41267E-03  8424   0.599E-03 0.645E-03
CGA:  13    -0.672466259563E+03   -0.10165E-03   -0.12917E-03  8424   0.305E-03 0.475E-03
CGA:  14    -0.672466272736E+03   -0.13173E-04   -0.36314E-04  8424   0.218E-03 0.250E-03
CGA:  15    -0.672466268519E+03    0.42173E-05   -0.19682E-04  8424   0.193E-03 0.205E-03
CGA:  16    -0.672466260996E+03    0.75228E-05   -0.15206E-04  8424   0.179E-03 0.186E-03
CGA:  17    -0.672466252221E+03    0.87750E-05   -0.12762E-04  8424   0.169E-03 0.174E-03
CGA:  18    -0.672466242917E+03    0.93046E-05   -0.11129E-04  8424   0.162E-03 0.166E-03
   4 F= -.67246624E+03 E0= -.67245834E+03  d E =-.396412E+00  mag=    15.0821
       N       E                     dE             d eps       ncg     rms          ort
SDA:   1    -0.669784856279E+03    0.26814E+01    0.00000E+00  8424   0.741E+01 0.000E+00
CGA:   2    -0.671821333289E+03   -0.20365E+01   -0.20198E+01  8424   0.270E+01 0.130E+00
CGA:   3    -0.672362363343E+03   -0.54103E+00   -0.55378E+00  8424   0.117E+01-0.387E+00
CGA:   4    -0.672503992961E+03   -0.14163E+00   -0.14363E+00  8424   0.270E+00 0.230E-01
CGA:   5    -0.672541631407E+03   -0.37638E-01   -0.37559E-01  8424   0.671E-01-0.370E-03
CGA:   6    -0.672551790648E+03   -0.10159E-01   -0.10208E-01  8424   0.229E-01 0.119E-02
CGA:   7    -0.672555644450E+03   -0.38538E-02   -0.38433E-02  8424   0.101E-01-0.712E-03
CGA:   8    -0.672556923722E+03   -0.12793E-02   -0.13347E-02  8424   0.336E-02 0.129E-02
CGA:   9    -0.672557670605E+03   -0.74688E-03   -0.73100E-03  8424   0.131E-02 0.845E-03
CGA:  10    -0.672557883227E+03   -0.21262E-03   -0.23594E-03  8424   0.595E-03 0.750E-03
CGA:  11    -0.672557924933E+03   -0.41706E-04   -0.68045E-04  8424   0.378E-03 0.444E-03
CGA:  12    -0.672557944058E+03   -0.19125E-04   -0.40493E-04  8424   0.308E-03 0.336E-03
CGA:  13    -0.672557947612E+03   -0.35537E-05   -0.26782E-04  8424   0.273E-03 0.288E-03
CGA:  14    -0.672557948012E+03   -0.40026E-06   -0.22005E-04  8424   0.249E-03 0.260E-03
CGA:  15    -0.672557945191E+03    0.28213E-05   -0.18104E-04  8424   0.233E-03 0.241E-03
CGA:  16    -0.672557940857E+03    0.43342E-05   -0.15605E-04  8424   0.220E-03 0.226E-03
CGA:  17    -0.672557935521E+03    0.53354E-05   -0.13691E-04  8424   0.210E-03 0.215E-03
CGA:  18    -0.672557929569E+03    0.59521E-05   -0.12197E-04  8424   0.202E-03 0.206E-03
CGA:  19    -0.672557923239E+03    0.63297E-05   -0.10990E-04  8424   0.195E-03 0.198E-03
   5 F= -.67255792E+03 E0= -.67254966E+03  d E =-.916803E-01  mag=    15.1005
       N       E                     dE             d eps       ncg     rms          ort
SDA:   1    -0.667179101937E+03    0.53788E+01    0.00000E+00  8424   0.142E+02 0.000E+00
CGA:   2    -0.671100017365E+03   -0.39209E+01   -0.39236E+01  8424   0.634E+01-0.257E-01
CGA:   3    -0.672278250604E+03   -0.11782E+01   -0.11762E+01  8424   0.158E+01 0.278E-01
CGA:   4    -0.672539703743E+03   -0.26145E+00   -0.26180E+00  8424   0.515E+00-0.548E-02
CGA:   5    -0.672602172824E+03   -0.62469E-01   -0.63428E-01  8424   0.140E+00 0.213E-01
CGA:   6    -0.672623494076E+03   -0.21321E-01   -0.21348E-01  8424   0.442E-01-0.467E-02
CGA:   7    -0.672631632048E+03   -0.81380E-02   -0.80865E-02  8424   0.125E-01 0.974E-03
CGA:   8    -0.672634253817E+03   -0.26218E-02   -0.25965E-02  8424   0.698E-02 0.441E-03
CGA:   9    -0.672635249065E+03   -0.99525E-03   -0.10072E-02  8424   0.267E-02 0.133E-02
CGA:  10    -0.672635823642E+03   -0.57458E-03   -0.55054E-03  8424   0.111E-02 0.930E-03
CGA:  11    -0.672636009289E+03   -0.18565E-03   -0.20002E-03  8424   0.671E-03 0.932E-03
CGA:  12    -0.672636062519E+03   -0.53230E-04   -0.72380E-04  8424   0.443E-03 0.474E-03
CGA:  13    -0.672636103274E+03   -0.40755E-04   -0.51792E-04  8424   0.363E-03 0.377E-03
CGA:  14    -0.672636115981E+03   -0.12707E-04   -0.31916E-04  8424   0.324E-03 0.337E-03
CGA:  15    -0.672636126887E+03   -0.10906E-04   -0.28108E-04  8424   0.300E-03 0.312E-03
CGA:  16    -0.672636132327E+03   -0.54397E-05   -0.23335E-04  8424   0.283E-03 0.292E-03
CGA:  17    -0.672636135330E+03   -0.30037E-05   -0.20552E-04  8424   0.270E-03 0.277E-03
CGA:  18    -0.672636136463E+03   -0.11321E-05   -0.18321E-04  8424   0.259E-03 0.264E-03
CGA:  19    -0.672636136270E+03    0.19239E-06   -0.16551E-04  8424   0.250E-03 0.255E-03
CGA:  20    -0.672636135102E+03    0.11680E-05   -0.15095E-04  8424   0.243E-03 0.246E-03
CGA:  21    -0.672636133206E+03    0.18962E-05   -0.13870E-04  8424   0.236E-03 0.239E-03
CGA:  22    -0.672636130760E+03    0.24463E-05   -0.12820E-04  8424   0.230E-03 0.233E-03
CGA:  23    -0.672636127897E+03    0.28627E-05   -0.11906E-04  8424   0.225E-03 0.228E-03
CGA:  24    -0.672636124717E+03    0.31797E-05   -0.11101E-04  8424   0.221E-03 0.223E-03
CGA:  25    -0.672636121301E+03    0.34167E-05   -0.10387E-04  8424   0.217E-03 0.219E-03
   6 F= -.67263612E+03 E0= -.67262856E+03  d E =-.781981E-01  mag=    15.0909
       N       E                     dE             d eps       ncg     rms          ort
SDA:   1    -0.670632975695E+03    0.20031E+01    0.00000E+00  8424   0.567E+01 0.000E+00
CGA:   2    -0.671893445849E+03   -0.12605E+01   -0.14000E+01  8424   0.550E+01-0.117E+01
CGA:   3    -0.672407209305E+03   -0.51376E+00   -0.51064E+00  8424   0.141E+01 0.284E+00
CGA:   4    -0.672625940923E+03   -0.21873E+00   -0.21857E+00  8424   0.357E+00 0.873E-03
CGA:   5    -0.672678882692E+03   -0.52942E-01   -0.53419E-01  8424   0.111E+00-0.110E-01
CGA:   6    -0.672695505943E+03   -0.16623E-01   -0.16560E-01  8424   0.234E-01 0.155E-02
CGA:   7    -0.672700023951E+03   -0.45180E-02   -0.43849E-02  8424   0.881E-02 0.194E-02
CGA:   8    -0.672701500976E+03   -0.14770E-02   -0.14524E-02  8424   0.318E-02 0.767E-03
CGA:   9    -0.672702172959E+03   -0.67198E-03   -0.62684E-03  8424   0.120E-02 0.758E-03
CGA:  10    -0.672702415988E+03   -0.24303E-03   -0.22563E-03  8424   0.619E-03 0.628E-03
CGA:  11    -0.672702490543E+03   -0.74555E-04   -0.75876E-04  8424   0.343E-03 0.366E-03
CGA:  12    -0.672702509937E+03   -0.19394E-04   -0.30540E-04  8424   0.278E-03 0.301E-03
CGA:  13    -0.672702519258E+03   -0.93215E-05   -0.21567E-04  8424   0.250E-03 0.263E-03
CGA:  14    -0.672702523722E+03   -0.44633E-05   -0.17192E-04  8424   0.231E-03 0.240E-03
CGA:  15    -0.672702525453E+03   -0.17310E-05   -0.14452E-04  8424   0.218E-03 0.224E-03
CGA:  16    -0.672702525460E+03   -0.75670E-08   -0.12519E-04  8424   0.207E-03 0.212E-03
CGA:  17    -0.672702524313E+03    0.11473E-05   -0.11056E-04  8424   0.199E-03 0.203E-03
   7 F= -.67270252E+03 E0= -.67269726E+03  d E =-.664030E-01  mag=    15.0306
       N       E                     dE             d eps       ncg     rms          ort
SDA:   1    -0.671075427296E+03    0.16271E+01    0.00000E+00  8424   0.447E+01 0.000E+00
CGA:   2    -0.672201291146E+03   -0.11259E+01   -0.11996E+01  8424   0.321E+01-0.628E+00
CGA:   3    -0.672560513753E+03   -0.35922E+00   -0.35274E+00  8424   0.728E+00 0.302E+00
CGA:   4    -0.672699994516E+03   -0.13948E+00   -0.13971E+00  8424   0.165E+00-0.587E-02
CGA:   5    -0.672731629684E+03   -0.31635E-01   -0.31988E-01  8424   0.343E-01-0.474E-02
CGA:   6    -0.672737943697E+03   -0.63140E-02   -0.61774E-02  8424   0.850E-02 0.217E-02
CGA:   7    -0.672739655307E+03   -0.17116E-02   -0.16226E-02  8424   0.256E-02 0.166E-02
CGA:   8    -0.672740313855E+03   -0.65855E-03   -0.60553E-03  8424   0.102E-02 0.764E-03
CGA:   9    -0.672740553018E+03   -0.23916E-03   -0.21891E-03  8424   0.482E-03 0.594E-03
CGA:  10    -0.672740619498E+03   -0.66480E-04   -0.65672E-04  8424   0.273E-03 0.329E-03
CGA:  11    -0.672740638242E+03   -0.18744E-04   -0.27207E-04  8424   0.227E-03 0.246E-03
CGA:  12    -0.672740644799E+03   -0.65566E-05   -0.17943E-04  8424   0.204E-03 0.214E-03
CGA:  13    -0.672740646987E+03   -0.21878E-05   -0.14021E-04  8424   0.188E-03 0.195E-03
CGA:  14    -0.672740646791E+03    0.19573E-06   -0.11568E-04  8424   0.176E-03 0.181E-03
   8 F= -.67274065E+03 E0= -.67273693E+03  d E =-.381225E-01  mag=    15.0009
       N       E                     dE             d eps       ncg     rms          ort
SDA:   1    -0.671955721962E+03    0.78493E+00    0.00000E+00  8424   0.215E+01 0.000E+00
CGA:   2    -0.672524829403E+03   -0.56911E+00   -0.56776E+00  8424   0.962E+00 0.765E-02
CGA:   3    -0.672702699684E+03   -0.17787E+00   -0.17794E+00  8424   0.269E+00-0.192E-02
CGA:   4    -0.672748765911E+03   -0.46066E-01   -0.46195E-01  8424   0.628E-01-0.335E-02
CGA:   5    -0.672759749227E+03   -0.10983E-01   -0.11079E-01  8424   0.130E-01-0.209E-02
CGA:   6    -0.672762193318E+03   -0.24441E-02   -0.23965E-02  8424   0.294E-02 0.834E-03
CGA:   7    -0.672762809308E+03   -0.61599E-03   -0.57748E-03  8424   0.904E-03 0.817E-03
CGA:   8    -0.672763009204E+03   -0.19990E-03   -0.18776E-03  8424   0.403E-03 0.526E-03
CGA:   9    -0.672763061681E+03   -0.52478E-04   -0.54182E-04  8424   0.241E-03 0.277E-03
CGA:  10    -0.672763079872E+03   -0.18191E-04   -0.25564E-04  8424   0.199E-03 0.215E-03
CGA:  11    -0.672763086558E+03   -0.66854E-05   -0.16795E-04  8424   0.177E-03 0.186E-03
CGA:  12    -0.672763089170E+03   -0.26127E-05   -0.13067E-04  8424   0.162E-03 0.168E-03
CGA:  13    -0.672763089456E+03   -0.28587E-06   -0.10670E-04  8424   0.150E-03 0.155E-03
   9 F= -.67276309E+03 E0= -.67275954E+03  d E =-.224427E-01  mag=    15.0000
       N       E                     dE             d eps       ncg     rms          ort
SDA:   1    -0.671919874141E+03    0.84322E+00    0.00000E+00  8424   0.233E+01 0.000E+00
CGA:   2    -0.672498525442E+03   -0.57865E+00   -0.57662E+00  8424   0.131E+01 0.172E-01
CGA:   3    -0.672728188070E+03   -0.22966E+00   -0.23042E+00  8424   0.325E+00-0.138E-01
CGA:   4    -0.672781480540E+03   -0.53292E-01   -0.53224E-01  8424   0.654E-01 0.205E-02
CGA:   5    -0.672794058360E+03   -0.12578E-01   -0.12636E-01  8424   0.141E-01-0.104E-02
CGA:   6    -0.672796780856E+03   -0.27225E-02   -0.27052E-02  8424   0.365E-02 0.303E-03
CGA:   7    -0.672797526883E+03   -0.74603E-03   -0.71778E-03  8424   0.105E-02 0.554E-03
CGA:   8    -0.672797763145E+03   -0.23626E-03   -0.21729E-03  8424   0.433E-03 0.532E-03
CGA:   9    -0.672797838659E+03   -0.75514E-04   -0.70650E-04  8424   0.249E-03 0.279E-03
CGA:  10    -0.672797868434E+03   -0.29775E-04   -0.32973E-04  8424   0.204E-03 0.221E-03
CGA:  11    -0.672797884183E+03   -0.15749E-04   -0.22542E-04  8424   0.181E-03 0.191E-03
CGA:  12    -0.672797894879E+03   -0.10696E-04   -0.18239E-04  8424   0.166E-03 0.173E-03
CGA:  13    -0.672797901825E+03   -0.69456E-05   -0.15078E-04  8424   0.154E-03 0.159E-03
CGA:  14    -0.672797906440E+03   -0.46154E-05   -0.12915E-04  8424   0.145E-03 0.149E-03
CGA:  15    -0.672797909399E+03   -0.29583E-05   -0.11269E-04  8424   0.138E-03 0.141E-03
