       N       E                     dE             d eps       ncg     rms          ort
DAV:   1     0.829100001266E+04    0.82910E+04   -0.24649E+05  8424   0.238E+03
DAV:   2     0.919613794921E+03   -0.73714E+04   -0.69200E+04  8424   0.659E+02
DAV:   3    -0.679067865752E+03   -0.15987E+04   -0.14053E+04  8424   0.283E+02
DAV:   4    -0.835640391290E+03   -0.15657E+03   -0.15382E+03  8424   0.859E+01
DAV:   5    -0.838195995165E+03   -0.25556E+01   -0.25427E+01  8424   0.123E+01
SDA:   6    -0.192843945230E+03    0.64535E+03   -0.25427E+01  8424   0.113E+05 0.000E+00
CGA:   7     0.558606523270E+02    0.24870E+03   -0.54336E+03  8424   0.285E+05-0.623E+04
CGA:   8     0.369512219142E+04    0.36393E+04   -0.17702E+04  8424   0.278E+06-0.931E+05
CGA:   9     0.712103928222E+04    0.34259E+04   -0.23644E+05  8424   0.967E+05-0.625E+05
CGA:  10     0.480304798711E+04   -0.23180E+04   -0.55867E+04  8424   0.235E+05-0.155E+05
CGA:  11     0.148372499260E+04   -0.33193E+04   -0.82850E+03  8424   0.157E+06-0.253E+06
CGA:  12     0.471732365737E+04    0.32336E+04   -0.11331E+05  8424   0.184E+05-0.102E+05
CGA:  13    -0.286703772403E+03   -0.50040E+04   -0.59842E+03  8424   0.188E+05-0.704E+05
CGA:  14     0.761238980437E+02    0.36283E+03   -0.10432E+04  8424   0.217E+05-0.102E+05
CGA:  15    -0.115399122121E+02   -0.87664E+02   -0.88367E+03  8424   0.278E+05-0.273E+05
CGA:  16     0.217347007220E+03    0.22889E+03   -0.12442E+04  8424   0.411E+05-0.300E+05
CGA:  17     0.120602875591E+04    0.98868E+03   -0.20077E+04  8424   0.128E+06-0.824E+05
CGA:  18     0.440462316564E+04    0.31986E+04   -0.76073E+04  8424   0.226E+05-0.143E+05
CGA:  19     0.551809296591E+02   -0.43494E+04   -0.60733E+03  8424   0.139E+05-0.317E+05
CGA:  20    -0.506467341547E+03   -0.56165E+03   -0.36162E+03  8424   0.472E+04-0.104E+05
CGA:  21    -0.593976883663E+03   -0.87510E+02   -0.12423E+03  8424   0.107E+04-0.140E+04
CGA:  22    -0.624472184085E+03   -0.30495E+02   -0.15324E+02  8424   0.103E+04 0.170E+04
CGA:  23    -0.593145912680E+03    0.31326E+02   -0.39104E+02  8424   0.521E+03-0.128E+03
CGA:  24    -0.628283554388E+03   -0.35138E+02   -0.42616E+01  8424   0.113E+04 0.194E+04
CGA:  25    -0.605331290454E+03    0.22952E+02   -0.41332E+02  8424   0.130E+04-0.661E+03
CGA:  26    -0.625107710573E+03   -0.19776E+02   -0.32958E+02  8424   0.202E+04-0.226E+04
CGA:  27    -0.604203668688E+03    0.20904E+02   -0.73177E+02  8424   0.165E+04-0.101E+04
CGA:  28    -0.627715631050E+03   -0.23512E+02   -0.45612E+02  8424   0.149E+04-0.173E+04
CGA:  29    -0.617559036884E+03    0.10157E+02   -0.49093E+02  8424   0.206E+04-0.158E+04
CGA:  30    -0.623817817511E+03   -0.62588E+01   -0.71412E+02  8424   0.154E+04-0.141E+04
CGA:  31    -0.648455162754E+03   -0.24637E+02   -0.48247E+02  8424   0.104E+04-0.166E+04
CGA:  32    -0.656365819785E+03   -0.79107E+01   -0.35396E+02  8424   0.136E+03-0.117E+03
CGA:  33    -0.659199214090E+03   -0.28334E+01   -0.17723E+01  8424   0.754E+02 0.907E+02
CGA:  34    -0.660990560759E+03   -0.17913E+01   -0.94494E+00  8424   0.385E+02 0.601E+02
CGA:  35    -0.662245669677E+03   -0.12551E+01   -0.10604E+01  8424   0.308E+02 0.392E+01
CGA:  36    -0.663326395541E+03   -0.10807E+01   -0.63165E+00  8424   0.274E+02 0.166E+02
CGA:  37    -0.664131533028E+03   -0.80514E+00   -0.11249E+01  8424   0.306E+02-0.234E+01
CGA:  38    -0.660496490942E+03    0.36350E+01   -0.63500E+01  8424   0.595E+03-0.749E+02
CGA:  39    -0.669899480914E+03   -0.94030E+01   -0.24173E+02  8424   0.209E+02-0.363E+02
CGA:  40    -0.671120017281E+03   -0.12205E+01   -0.63500E+00  8424   0.799E+01 0.153E+02
CGA:  41    -0.671510801338E+03   -0.39078E+00   -0.32745E+00  8424   0.516E+01 0.402E+00
CGA:  42    -0.671997414615E+03   -0.48661E+00   -0.49600E+00  8424   0.814E+01-0.549E+00
CGA:  43    -0.672271273873E+03   -0.27386E+00   -0.29933E+00  8424   0.739E+01-0.366E-01
CGA:  44    -0.672706231409E+03   -0.43496E+00   -0.45750E+00  8424   0.507E+01 0.122E+01
CGA:  45    -0.673179985167E+03   -0.47375E+00   -0.52161E+00  8424   0.517E+01-0.194E+01
CGA:  46    -0.673361591191E+03   -0.18161E+00   -0.18494E+00  8424   0.341E+01 0.414E-01
CGA:  47    -0.673489472115E+03   -0.12788E+00   -0.15805E+00  8424   0.118E+01 0.348E-01
CGA:  48    -0.673610468258E+03   -0.12100E+00   -0.12466E+00  8424   0.630E+00-0.125E+00
CGA:  49    -0.673668860353E+03   -0.58392E-01   -0.56930E-01  8424   0.184E+00 0.313E-01
CGA:  50    -0.673709469831E+03   -0.40609E-01   -0.38003E-01  8424   0.113E+00 0.226E-01
CGA:  51    -0.673732300659E+03   -0.22831E-01   -0.29495E-01  8424   0.179E+00-0.460E-01
CGA:  52    -0.673746308201E+03   -0.14008E-01   -0.15368E-01  8424   0.214E+00-0.263E-01
CGA:  53    -0.673775242272E+03   -0.28934E-01   -0.30820E-01  8424   0.695E-01-0.290E-01
CGA:  54    -0.673785386350E+03   -0.10144E-01   -0.15807E-01  8424   0.224E+00-0.351E-01
CGA:  55    -0.673800871385E+03   -0.15485E-01   -0.16248E-01  8424   0.400E-01-0.439E-02
CGA:  56    -0.673811843774E+03   -0.10972E-01   -0.10621E-01  8424   0.346E-01 0.195E-02
CGA:  57    -0.673822018823E+03   -0.10175E-01   -0.10506E-01  8424   0.193E-01-0.137E-02
CGA:  58    -0.673824331813E+03   -0.23130E-02   -0.23044E-02  8424   0.938E-02 0.143E-02
CGA:  59    -0.673826898503E+03   -0.25667E-02   -0.41952E-03  8424   0.513E-01-0.767E-02
CGA:  60    -0.673834699868E+03   -0.78014E-02   -0.77896E-02  8424   0.657E-02-0.315E-03
CGA:  61    -0.673837104654E+03   -0.24048E-02   -0.24787E-02  8424   0.653E-02-0.439E-03
CGA:  62    -0.673837442563E+03   -0.33791E-03   -0.12504E-02  8424   0.338E-01-0.682E-02
CGA:  63    -0.673845557987E+03   -0.81154E-02   -0.81402E-02  8424   0.128E-01 0.441E-03
CGA:  64    -0.673849573636E+03   -0.40156E-02   -0.39598E-02  8424   0.809E-02-0.695E-03
CGA:  65    -0.673851169428E+03   -0.15958E-02   -0.16459E-02  8424   0.377E-02 0.320E-03
CGA:  66    -0.673852423849E+03   -0.12544E-02   -0.12767E-02  8424   0.336E-02 0.371E-03
CGA:  67    -0.673854353686E+03   -0.19298E-02   -0.18611E-02  8424   0.384E-02 0.507E-03
CGA:  68    -0.673857273483E+03   -0.29198E-02   -0.27342E-02  8424   0.124E-01 0.717E-03
CGA:  69    -0.673864230885E+03   -0.69574E-02   -0.67839E-02  8424   0.106E-01 0.134E-02
CGA:  70    -0.673868740798E+03   -0.45099E-02   -0.45203E-02  8424   0.838E-02-0.141E-03
CGA:  71    -0.673871378192E+03   -0.26374E-02   -0.25944E-02  8424   0.634E-02-0.905E-03
CGA:  72    -0.673873113697E+03   -0.17355E-02   -0.16792E-02  8424   0.403E-02-0.104E-02
CGA:  73    -0.673874248000E+03   -0.11343E-02   -0.11443E-02  8424   0.236E-02-0.734E-04
CGA:  74    -0.673874798522E+03   -0.55052E-03   -0.60014E-03  8424   0.153E-02 0.311E-03
CGA:  75    -0.673875153815E+03   -0.35529E-03   -0.43259E-03  8424   0.113E-02 0.535E-03
CGA:  76    -0.673875386278E+03   -0.23246E-03   -0.36334E-03  8424   0.915E-03 0.919E-03
CGA:  77    -0.673875499534E+03   -0.11326E-03   -0.18185E-03  8424   0.567E-03 0.408E-03
CGA:  78    -0.673875610478E+03   -0.11094E-03   -0.18722E-03  8424   0.451E-03 0.578E-03
CGA:  79    -0.673875688921E+03   -0.78443E-04   -0.10980E-03  8424   0.379E-03 0.286E-03
CGA:  80    -0.673875709534E+03   -0.20613E-04   -0.68296E-04  8424   0.325E-03 0.285E-03
CGA:  81    -0.673875761698E+03   -0.52164E-04   -0.78696E-04  8424   0.311E-03 0.273E-03
CGA:  82    -0.673875781803E+03   -0.20104E-04   -0.58091E-04  8424   0.284E-03 0.257E-03
CGA:  83    -0.673875826746E+03   -0.44944E-04   -0.67074E-04  8424   0.274E-03 0.244E-03
CGA:  84    -0.673875846231E+03   -0.19485E-04   -0.50904E-04  8424   0.254E-03 0.230E-03
CGA:  85    -0.673875887274E+03   -0.41042E-04   -0.59044E-04  8424   0.247E-03 0.217E-03
CGA:  86    -0.673875906175E+03   -0.18902E-04   -0.45256E-04  8424   0.230E-03 0.205E-03
CGA:  87    -0.673875944422E+03   -0.38247E-04   -0.52856E-04  8424   0.228E-03 0.193E-03
CGA:  88    -0.673875962925E+03   -0.18504E-04   -0.40790E-04  8424   0.212E-03 0.182E-03
CGA:  89    -0.673875998706E+03   -0.35781E-04   -0.47771E-04  8424   0.213E-03 0.172E-03
CGA:  90    -0.673876017098E+03   -0.18392E-04   -0.37281E-04  8424   0.197E-03 0.162E-03
CGA:  91    -0.673876050623E+03   -0.33525E-04   -0.43489E-04  8424   0.201E-03 0.153E-03
CGA:  92    -0.673876069105E+03   -0.18483E-04   -0.34480E-04  8424   0.185E-03 0.144E-03
CGA:  93    -0.673876100826E+03   -0.31721E-04   -0.39961E-04  8424   0.191E-03 0.136E-03
CGA:  94    -0.673876119369E+03   -0.18542E-04   -0.32123E-04  8424   0.174E-03 0.128E-03
CGA:  95    -0.673876149947E+03   -0.30578E-04   -0.37187E-04  8424   0.182E-03 0.121E-03
CGA:  96    -0.673876168334E+03   -0.18387E-04   -0.30028E-04  8424   0.163E-03 0.115E-03
CGA:  97    -0.673876198463E+03   -0.30129E-04   -0.35114E-04  8424   0.174E-03 0.109E-03
CGA:  98    -0.673876216449E+03   -0.17986E-04   -0.28123E-04  8424   0.153E-03 0.104E-03
CGA:  99    -0.673876246742E+03   -0.30293E-04   -0.33657E-04  8424   0.169E-03 0.975E-04
CGA: 100    -0.673876264163E+03   -0.17421E-04   -0.26413E-04  8424   0.144E-03 0.934E-04
CGA: 101    -0.673876295142E+03   -0.30979E-04   -0.32733E-04  8424   0.166E-03 0.873E-04
CGA: 102    -0.673876311953E+03   -0.16811E-04   -0.24931E-04  8424   0.135E-03 0.842E-04
CGA: 103    -0.673876344087E+03   -0.32134E-04   -0.32296E-04  8424   0.165E-03 0.781E-04
CGA: 104    -0.673876360365E+03   -0.16277E-04   -0.23722E-04  8424   0.126E-03 0.758E-04
CGA: 105    -0.673876410725E+03   -0.50361E-04   -0.46994E-04  8424   0.164E-03 0.172E-03
CGA: 106    -0.673876440551E+03   -0.29825E-04   -0.31122E-04  8424   0.174E-03 0.264E-04
CGA: 107    -0.673876523867E+03   -0.83316E-04   -0.65678E-04  8424   0.147E-03 0.192E-03
CGA: 108    -0.673876541422E+03   -0.17555E-04   -0.21848E-04  8424   0.110E-03 0.468E-04
CGA: 109    -0.673876630605E+03   -0.89183E-04   -0.62218E-04  8424   0.153E-03 0.134E-03
CGA: 110    -0.673876657922E+03   -0.27317E-04   -0.27326E-04  8424   0.149E-03-0.376E-06
CGA: 111    -0.673876832264E+03   -0.17434E-03   -0.10665E-03  8424   0.125E-03 0.134E-03
CGA: 112    -0.673876861675E+03   -0.29411E-04   -0.28329E-04  8424   0.192E-03-0.283E-04
CGA: 113    -0.673876949258E+03   -0.87583E-04    0.16345E-03  8424   0.230E-03 0.135E-03
CGA: 114    -0.673876971238E+03   -0.21980E-04   -0.25784E-04  8424   0.660E-04 0.250E-04
CGA: 115    -0.673877102318E+03   -0.13108E-03   -0.12382E-04  8424   0.803E-03 0.199E-05
CGA: 116    -0.673877925336E+03   -0.82302E-03    0.28514E-02  8424   0.179E-02-0.640E-06
CGA: 117    -0.673880347149E+03   -0.24218E-02    0.91868E-03  8424   0.215E-02-0.103E-02
CGA: 118    -0.673880516392E+03   -0.16924E-03   -0.27239E-03  8424   0.320E-03 0.303E-03
CGA: 119    -0.673880661544E+03   -0.14515E-03   -0.14135E-03  8424   0.371E-03-0.644E-04
CGA: 120    -0.673880975576E+03   -0.31403E-03    0.34675E-03  8424   0.716E-03-0.488E-04
CGA: 121    -0.673881678304E+03   -0.70273E-03    0.51694E-03  8424   0.110E-02 0.509E-04
CGA: 122    -0.673883051733E+03   -0.13734E-02    0.85348E-03  8424   0.802E-03-0.607E-05
CGA: 123    -0.673883994342E+03   -0.94261E-03    0.54570E-03  8424   0.161E-02-0.864E-03
CGA: 124    -0.673884166446E+03   -0.17210E-03   -0.23050E-03  8424   0.218E-03 0.192E-03
CGA: 125    -0.673884281439E+03   -0.11499E-03   -0.12897E-03  8424   0.380E-03-0.144E-03
CGA: 126    -0.673884442220E+03   -0.16078E-03   -0.14384E-03  8424   0.658E-03-0.299E-03
CGA: 127    -0.673884493081E+03   -0.50861E-04   -0.75185E-04  8424   0.716E-04 0.771E-04
CGA: 128    -0.673884571728E+03   -0.78648E-04    0.93113E-04  8424   0.136E-03-0.149E-05
CGA: 129    -0.673884877164E+03   -0.30544E-03    0.15906E-04  8424   0.282E-03 0.315E-04
CGA: 130    -0.673885648935E+03   -0.77177E-03    0.43561E-04  8424   0.360E-03 0.157E-03
CGA: 131    -0.673885681834E+03   -0.32899E-04   -0.53870E-04  8424   0.642E-04 0.782E-04
CGA: 132    -0.673885782660E+03   -0.10083E-03    0.26245E-04  8424   0.916E-04-0.562E-06
CGA: 133    -0.673886065163E+03   -0.28250E-03    0.64204E-05  8424   0.171E-03 0.151E-04
CGA: 134    -0.673886720832E+03   -0.65567E-03    0.12978E-04  8424   0.268E-03 0.127E-03
CGA: 135    -0.673886784973E+03   -0.64141E-04   -0.62782E-04  8424   0.101E-03-0.841E-05
CGA: 136    -0.673886975197E+03   -0.19022E-03    0.13157E-04  8424   0.765E-04 0.734E-05
CGA: 137    -0.673887230039E+03   -0.25484E-03    0.55270E-05  8424   0.112E-03 0.380E-04
CGA: 138    -0.673887657793E+03   -0.42775E-03    0.14914E-04  8424   0.582E-04 0.101E-03
CGA: 139    -0.673887796633E+03   -0.13884E-03    0.57037E-05  8424   0.738E-04 0.122E-04
CGA: 140    -0.673888021237E+03   -0.22460E-03    0.80715E-05  8424   0.611E-04 0.563E-04
CGA: 141    -0.673888136825E+03   -0.11559E-03    0.86519E-05  8424   0.908E-04 0.264E-05
CGA: 142    -0.673888398185E+03   -0.26136E-03    0.75075E-05  8424   0.115E-03 0.326E-04
CGA: 143    -0.673888895982E+03   -0.49780E-03    0.10167E-04  8424   0.881E-04 0.119E-03
CGA: 144    -0.673889011553E+03   -0.11557E-03    0.26322E-04  8424   0.124E-03-0.134E-04
CGA: 145    -0.673889258212E+03   -0.24666E-03    0.10594E-04  8424   0.161E-03-0.187E-05
CGA: 146    -0.673889749985E+03   -0.49177E-03    0.10647E-04  8424   0.162E-03 0.824E-04
CGA: 147    -0.673887521789E+03    0.22282E-02   -0.12080E-02  8424   0.167E-01-0.121E-02
CGA: 148    -0.673890169342E+03   -0.26476E-02   -0.25013E-02  8424   0.172E-02-0.130E-03
CGA: 149    -0.673890674167E+03   -0.50483E-03   -0.40387E-03  8424   0.546E-03-0.227E-03
CGA: 150    -0.673890782507E+03   -0.10834E-03   -0.10984E-03  8424   0.852E-04 0.333E-05
CGA: 151    -0.673891001609E+03   -0.21910E-03    0.28474E-04  8424   0.197E-03-0.389E-04
CGA: 152    -0.673891635773E+03   -0.63416E-03    0.96797E-05  8424   0.418E-03-0.368E-04
CGA: 153    -0.673893238749E+03   -0.16030E-02    0.41609E-04  8424   0.116E-02-0.137E-03
CGA: 154    -0.673898810593E+03   -0.55718E-02    0.56573E-04  8424   0.269E-02 0.223E-03
CGA: 155    -0.673914456177E+03   -0.15646E-01    0.37507E-03  8424   0.474E-02-0.176E-02
CGA: 156    -0.673915607172E+03   -0.11510E-02   -0.12030E-02  8424   0.741E-03 0.126E-03
CGA: 157    -0.673915845078E+03   -0.23791E-03   -0.21984E-03  8424   0.355E-03-0.535E-04
CGA: 158    -0.673916006484E+03   -0.16141E-03   -0.11489E-03  8424   0.317E-03-0.178E-03
CGA: 159    -0.673916046784E+03   -0.40300E-04   -0.51063E-04  8424   0.719E-04 0.251E-04
CGA: 160    -0.673916158603E+03   -0.11182E-03    0.88884E-04  8424   0.120E-03-0.450E-04
CGA: 161    -0.673916227025E+03   -0.68422E-04   -0.71537E-04  8424   0.503E-03-0.173E-03
CGA: 162    -0.673916312743E+03   -0.85718E-04   -0.78483E-04  8424   0.544E-04-0.187E-04
CGA: 163    -0.673916338518E+03   -0.25775E-04   -0.34297E-04  8424   0.353E-03-0.859E-04
CGA: 164    -0.673916469786E+03   -0.13127E-03   -0.75360E-04  8424   0.159E-03-0.162E-03
CGA: 165    -0.673916395087E+03    0.74699E-04   -0.93408E-04  8424   0.229E-02-0.311E-03
CGA: 166    -0.673916735481E+03   -0.34039E-03   -0.30448E-03  8424   0.127E-03-0.999E-04
CGA: 167    -0.673916770906E+03   -0.35425E-04   -0.28746E-04  8424   0.333E-04-0.216E-04
CGA: 168    -0.673916902471E+03   -0.13156E-03    0.21273E-05  8424   0.473E-04 0.464E-05
CGA: 169    -0.673917124960E+03   -0.22249E-03    0.49914E-05  8424   0.886E-04 0.123E-04
CGA: 170    -0.673917677622E+03   -0.55266E-03    0.81573E-05  8424   0.476E-04 0.687E-04
CGA: 171    -0.673917752605E+03   -0.74983E-04    0.26584E-04  8424   0.272E-03-0.720E-04
CGA: 172    -0.673917804627E+03   -0.52022E-04   -0.39341E-04  8424   0.332E-04-0.331E-04
CGA: 173    -0.673917859106E+03   -0.54479E-04    0.91551E-05  8424   0.100E-03-0.173E-04
CGA: 174    -0.673917729184E+03    0.12992E-03   -0.92585E-04  8424   0.381E-02-0.542E-03
CGA: 175    -0.673918064511E+03   -0.33533E-03   -0.41244E-03  8424   0.798E-04 0.207E-03
CGA: 176    -0.673918078571E+03   -0.14060E-04   -0.15307E-04  8424   0.192E-04 0.365E-05
CGA: 177    -0.673918180255E+03   -0.10168E-03    0.12193E-05  8424   0.630E-04-0.374E-06
CGA: 178    -0.673918584285E+03   -0.40403E-03    0.27386E-05  8424   0.115E-03 0.441E-04
CGA: 179    -0.673918603114E+03   -0.18829E-04   -0.20605E-04  8424   0.254E-04 0.552E-05
CGA: 180    -0.673918697181E+03   -0.94067E-04    0.23915E-05  8424   0.698E-04-0.115E-04
CGA: 181    -0.673919002369E+03   -0.30519E-03    0.12603E-05  8424   0.191E-03-0.331E-05
CGA: 182    -0.673919917560E+03   -0.91519E-03    0.10282E-04  8424   0.545E-03 0.669E-05
CGA: 183    -0.673922917356E+03   -0.29998E-02    0.29850E-04  8424   0.550E-03 0.137E-03
CGA: 184    -0.673926176222E+03   -0.32589E-02    0.42113E-04  8424   0.136E-02-0.339E-03
CGA: 185    -0.673926321052E+03   -0.14483E-03   -0.16986E-03  8424   0.106E-03 0.781E-04
CGA: 186    -0.673926354311E+03   -0.33259E-04   -0.32761E-04  8424   0.267E-04-0.303E-05
CGA: 187    -0.673926358384E+03   -0.40731E-05   -0.58088E-05  8424   0.137E-04 0.745E-05
   1 F= -.67392636E+03 E0= -.67392636E+03  d E =-.673926E+03  mag=     5.0000
       N       E                     dE             d eps       ncg     rms          ort
SDA:   1    -0.673932665433E+03   -0.63111E-02    0.00000E+00  8424   0.545E-02 0.000E+00
CGA:   2    -0.673934346029E+03   -0.16806E-02   -0.16774E-02  8424   0.201E-02-0.274E-04
CGA:   3    -0.673934762956E+03   -0.41693E-03   -0.39720E-03  8424   0.618E-03-0.889E-04
CGA:   4    -0.673934856568E+03   -0.93612E-04   -0.98280E-04  8424   0.132E-03 0.189E-04
CGA:   5    -0.673934867683E+03   -0.11115E-04   -0.18603E-04  8424   0.283E-04 0.287E-04
CGA:   6    -0.673934868640E+03   -0.95697E-06   -0.46725E-05  8424   0.118E-04 0.149E-04
   2 F= -.67393487E+03 E0= -.67393487E+03  d E =-.851026E-02  mag=     5.0000
       N       E                     dE             d eps       ncg     rms          ort
SDA:   1    -0.672958890522E+03    0.97598E+00    0.00000E+00  8424   0.292E+01 0.000E+00
CGA:   2    -0.673835824351E+03   -0.87693E+00   -0.87688E+00  8424   0.108E+01-0.117E-02
CGA:   3    -0.674041890203E+03   -0.20607E+00   -0.20607E+00  8424   0.309E+00-0.342E-02
CGA:   4    -0.674096358247E+03   -0.54468E-01   -0.54627E-01  8424   0.671E-01 0.705E-03
CGA:   5    -0.674107581404E+03   -0.11223E-01   -0.11372E-01  8424   0.147E-01 0.845E-03
CGA:   6    -0.674110405157E+03   -0.28238E-02   -0.28906E-02  8424   0.374E-02 0.472E-03
CGA:   7    -0.674111275024E+03   -0.86987E-03   -0.90412E-03  8424   0.146E-02 0.367E-03
CGA:   8    -0.674111616178E+03   -0.34115E-03   -0.36671E-03  8424   0.536E-03 0.271E-03
CGA:   9    -0.674111678257E+03   -0.62078E-04   -0.10784E-03  8424   0.231E-03 0.309E-03
CGA:  10    -0.674111678957E+03   -0.70045E-06   -0.30514E-04  8424   0.138E-03 0.167E-03
CGA:  11    -0.674111669883E+03    0.90740E-05   -0.14815E-04  8424   0.111E-03 0.123E-03
CGA:  12    -0.674111659379E+03    0.10505E-04   -0.10169E-04  8424   0.963E-04 0.103E-03
CGA:  13    -0.674111648952E+03    0.10426E-04   -0.78404E-05  8424   0.864E-04 0.911E-04
CGA:  14    -0.674111638931E+03    0.10021E-04   -0.63681E-05  8424   0.792E-04 0.827E-04
CGA:  15    -0.674111629415E+03    0.95159E-05   -0.53426E-05  8424   0.737E-04 0.764E-04
   3 F= -.67411163E+03 E0= -.67411163E+03  d E =-.176761E+00  mag=     5.0000
       N       E                     dE             d eps       ncg     rms          ort
SDA:   1    -0.648493213861E+03    0.25618E+02    0.00000E+00  8424   0.665E+02 0.000E+00
CGA:   2    -0.668160436297E+03   -0.19667E+02   -0.19673E+02  8424   0.253E+02 0.810E-02
CGA:   3    -0.672615259503E+03   -0.44548E+01   -0.44867E+01  8424   0.786E+01 0.723E-01
CGA:   4    -0.674096258531E+03   -0.14810E+01   -0.14816E+01  8424   0.161E+01 0.200E-02
CGA:   5    -0.674379262508E+03   -0.28300E+00   -0.28319E+00  8424   0.442E+00 0.331E-02
CGA:   6    -0.674461113933E+03   -0.81851E-01   -0.82219E-01  8424   0.118E+00 0.652E-02
CGA:   7    -0.674494427675E+03   -0.33314E-01   -0.33189E-01  8424   0.519E-01 0.266E-02
CGA:   8    -0.674508140414E+03   -0.13713E-01   -0.13680E-01  8424   0.205E-01 0.148E-02
CGA:   9    -0.674513470058E+03   -0.53296E-02   -0.52833E-02  8424   0.738E-02 0.332E-02
CGA:  10    -0.674515545927E+03   -0.20759E-02   -0.20668E-02  8424   0.279E-02 0.253E-02
CGA:  11    -0.674516228628E+03   -0.68270E-03   -0.74397E-03  8424   0.113E-02 0.157E-02
CGA:  12    -0.674516405789E+03   -0.17716E-03   -0.21298E-03  8424   0.669E-03 0.754E-03
CGA:  13    -0.674516482017E+03   -0.76228E-04   -0.11410E-03  8424   0.557E-03 0.604E-03
CGA:  14    -0.674516524478E+03   -0.42461E-04   -0.84149E-04  8424   0.498E-03 0.526E-03
CGA:  15    -0.674516555038E+03   -0.30560E-04   -0.70796E-04  8424   0.457E-03 0.477E-03
CGA:  16    -0.674516578026E+03   -0.22988E-04   -0.61602E-04  8424   0.426E-03 0.441E-03
CGA:  17    -0.674516596053E+03   -0.18027E-04   -0.54834E-04  8424   0.401E-03 0.413E-03
CGA:  18    -0.674516610568E+03   -0.14515E-04   -0.49511E-04  8424   0.379E-03 0.390E-03
CGA:  19    -0.674516622478E+03   -0.11910E-04   -0.45155E-04  8424   0.361E-03 0.370E-03
CGA:  20    -0.674516632384E+03   -0.99066E-05   -0.41491E-04  8424   0.345E-03 0.353E-03
CGA:  21    -0.674516640706E+03   -0.83216E-05   -0.38344E-04  8424   0.331E-03 0.338E-03
CGA:  22    -0.674516647746E+03   -0.70402E-05   -0.35600E-04  8424   0.318E-03 0.325E-03
CGA:  23    -0.674516653734E+03   -0.59880E-05   -0.33180E-04  8424   0.307E-03 0.313E-03
CGA:  24    -0.674516658846E+03   -0.51122E-05   -0.31027E-04  8424   0.297E-03 0.302E-03
CGA:  25    -0.674516663227E+03   -0.43805E-05   -0.29111E-04  8424   0.288E-03 0.292E-03
CGA:  26    -0.674516666990E+03   -0.37637E-05   -0.27394E-04  8424   0.280E-03 0.284E-03
CGA:  27    -0.674516670210E+03   -0.32200E-05   -0.25828E-04  8424   0.273E-03 0.276E-03
CGA:  28    -0.674516672952E+03   -0.27417E-05   -0.24395E-04  8424   0.266E-03 0.269E-03
CGA:  29    -0.674516675271E+03   -0.23192E-05   -0.23078E-04  8424   0.259E-03 0.262E-03
CGA:  30    -0.674516677216E+03   -0.19449E-05   -0.21864E-04  8424   0.253E-03 0.256E-03
CGA:  31    -0.674516678829E+03   -0.16129E-05   -0.20741E-04  8424   0.248E-03 0.251E-03
CGA:  32    -0.674516680147E+03   -0.13176E-05   -0.19699E-04  8424   0.243E-03 0.245E-03
CGA:  33    -0.674516681201E+03   -0.10539E-05   -0.18730E-04  8424   0.238E-03 0.240E-03
CGA:  34    -0.674516682019E+03   -0.81829E-06   -0.17825E-04  8424   0.234E-03 0.236E-03
CGA:  35    -0.674516682626E+03   -0.60718E-06   -0.16980E-04  8424   0.230E-03 0.232E-03
CGA:  36    -0.674516683044E+03   -0.41795E-06   -0.16188E-04  8424   0.226E-03 0.228E-03
CGA:  37    -0.674516683292E+03   -0.24844E-06   -0.15445E-04  8424   0.222E-03 0.224E-03
CGA:  38    -0.674516683389E+03   -0.96861E-07   -0.14747E-04  8424   0.219E-03 0.220E-03
CGA:  39    -0.674516683351E+03    0.38730E-07   -0.14089E-04  8424   0.215E-03 0.217E-03
CGA:  40    -0.674516683191E+03    0.16008E-06   -0.13469E-04  8424   0.212E-03 0.214E-03
CGA:  41    -0.674516682923E+03    0.26799E-06   -0.12884E-04  8424   0.209E-03 0.211E-03
CGA:  42    -0.674516682559E+03    0.36367E-06   -0.12331E-04  8424   0.206E-03 0.208E-03
CGA:  43    -0.674516682112E+03    0.44684E-06   -0.11807E-04  8424   0.204E-03 0.205E-03
CGA:  44    -0.674516681590E+03    0.52208E-06   -0.11307E-04  8424   0.202E-03 0.202E-03
CGA:  45    -0.674516680995E+03    0.59523E-06   -0.10817E-04  8424   0.201E-03 0.199E-03
CGA:  46    -0.674516680309E+03    0.68539E-06   -0.10310E-04  8424   0.203E-03 0.193E-03
   4 F= -.67451668E+03 E0= -.67451668E+03  d E =-.405051E+00  mag=     5.0000
       N       E                     dE             d eps       ncg     rms          ort
SDA:   1    -0.673230905939E+03    0.12858E+01    0.00000E+00  8424   0.443E+01 0.000E+00
CGA:   2    -0.674078370761E+03   -0.84746E+00   -0.84584E+00  8424   0.161E+01 0.176E-01
CGA:   3    -0.674431572081E+03   -0.35320E+00   -0.35331E+00  8424   0.575E+00-0.156E-02
CGA:   4    -0.674530565431E+03   -0.98993E-01   -0.98974E-01  8424   0.148E+00 0.188E-03
CGA:   5    -0.674555310450E+03   -0.24745E-01   -0.24733E-01  8424   0.284E-01 0.209E-03
CGA:   6    -0.674561142635E+03   -0.58322E-02   -0.58771E-02  8424   0.673E-02-0.517E-03
CGA:   7    -0.674562585857E+03   -0.14432E-02   -0.13895E-02  8424   0.191E-02 0.609E-03
CGA:   8    -0.674563028680E+03   -0.44282E-03   -0.40382E-03  8424   0.566E-03 0.577E-03
CGA:   9    -0.674563161112E+03   -0.13243E-03   -0.12017E-03  8424   0.285E-03 0.372E-03
CGA:  10    -0.674563203845E+03   -0.42734E-04   -0.40546E-04  8424   0.191E-03 0.213E-03
CGA:  11    -0.674563224338E+03   -0.20492E-04   -0.22792E-04  8424   0.168E-03 0.177E-03
CGA:  12    -0.674563237970E+03   -0.13632E-04   -0.17760E-04  8424   0.154E-03 0.160E-03
CGA:  13    -0.674563248222E+03   -0.10252E-04   -0.15100E-04  8424   0.145E-03 0.149E-03
CGA:  14    -0.674563256272E+03   -0.80496E-05   -0.13274E-04  8424   0.137E-03 0.141E-03
CGA:  15    -0.674563262755E+03   -0.64829E-05   -0.11901E-04  8424   0.131E-03 0.134E-03
CGA:  16    -0.674563268064E+03   -0.53097E-05   -0.10816E-04  8424   0.127E-03 0.129E-03
   5 F= -.67456327E+03 E0= -.67456327E+03  d E =-.465878E-01  mag=     5.0000
       N       E                     dE             d eps       ncg     rms          ort
SDA:   1    -0.674475734454E+03    0.87528E-01    0.00000E+00  8424   0.257E+00 0.000E+00
CGA:   2    -0.674545289028E+03   -0.69555E-01   -0.69327E-01  8424   0.117E+00 0.151E-02
CGA:   3    -0.674567529537E+03   -0.22241E-01   -0.22260E-01  8424   0.296E-01-0.336E-03
CGA:   4    -0.674572577281E+03   -0.50477E-02   -0.50482E-02  8424   0.720E-02-0.168E-04
CGA:   5    -0.674573803249E+03   -0.12260E-02   -0.12256E-02  8424   0.162E-02 0.887E-05
CGA:   6    -0.674574150051E+03   -0.34680E-03   -0.34097E-03  8424   0.463E-03 0.761E-04
CGA:   7    -0.674574233847E+03   -0.83797E-04   -0.78619E-04  8424   0.198E-03 0.219E-03
CGA:   8    -0.674574264121E+03   -0.30274E-04   -0.34515E-04  8424   0.135E-03 0.194E-03
CGA:   9    -0.674574277998E+03   -0.13877E-04   -0.16114E-04  8424   0.105E-03 0.113E-03
CGA:  10    -0.674574284911E+03   -0.69136E-05   -0.10570E-04  8424   0.961E-04 0.995E-04
   6 F= -.67457428E+03 E0= -.67457428E+03  d E =-.110168E-01  mag=     5.0000
       N       E                     dE             d eps       ncg     rms          ort
SDA:   1    -0.671939959174E+03    0.26343E+01    0.00000E+00  8424   0.654E+01 0.000E+00
CGA:   2    -0.673961815566E+03   -0.20219E+01   -0.20225E+01  8424   0.276E+01-0.324E-02
CGA:   3    -0.674452439966E+03   -0.49062E+00   -0.49055E+00  8424   0.654E+00 0.146E-02
CGA:   4    -0.674566806349E+03   -0.11437E+00   -0.11441E+00  8424   0.161E+00-0.166E-02
CGA:   5    -0.674594234214E+03   -0.27428E-01   -0.27461E-01  8424   0.359E-01-0.133E-02
CGA:   6    -0.674601720950E+03   -0.74867E-02   -0.75181E-02  8424   0.903E-02-0.501E-03
CGA:   7    -0.674603959518E+03   -0.22386E-02   -0.22619E-02  8424   0.362E-02-0.227E-03
CGA:   8    -0.674604956715E+03   -0.99720E-03   -0.10209E-02  8424   0.161E-02-0.179E-03
CGA:   9    -0.674605484567E+03   -0.52785E-03   -0.57153E-03  8424   0.105E-02-0.210E-03
CGA:  10    -0.674605783450E+03   -0.29888E-03   -0.52104E-03  8424   0.143E-02-0.563E-03
CGA:  11    -0.674606071360E+03   -0.28791E-03   -0.28727E-03  8424   0.317E-03 0.766E-04
CGA:  12    -0.674606224926E+03   -0.15357E-03   -0.21344E-03  8424   0.466E-03-0.136E-03
CGA:  13    -0.674606209605E+03    0.15321E-04   -0.22639E-03  8424   0.115E-02-0.392E-03
CGA:  14    -0.674606586889E+03   -0.37728E-03   -0.39276E-03  8424   0.688E-03-0.166E-03
CGA:  15    -0.674606739954E+03   -0.15306E-03   -0.15299E-03  8424   0.180E-03 0.847E-05
CGA:  16    -0.674606803683E+03   -0.63730E-04   -0.62196E-04  8424   0.112E-03 0.164E-04
CGA:  17    -0.674606866893E+03   -0.63209E-04    0.26350E-02  8424   0.766E-04 0.649E-04
CGA:  18    -0.674606900333E+03   -0.33440E-04   -0.32087E-04  8424   0.741E-04 0.782E-05
CGA:  19    -0.674606950641E+03   -0.50308E-04    0.66174E-04  8424   0.597E-04 0.603E-04
CGA:  20    -0.674606918548E+03    0.32092E-04   -0.29010E-04  8424   0.714E-03-0.979E-04
CGA:  21    -0.674607112339E+03   -0.19379E-03   -0.19723E-03  8424   0.597E-04 0.162E-04
CGA:  22    -0.674607172933E+03   -0.60594E-04    0.28927E-03  8424   0.104E-03-0.772E-05
CGA:  23    -0.674607260597E+03   -0.87664E-04    0.10652E-02  8424   0.134E-03 0.464E-04
CGA:  24    -0.674606828670E+03    0.43193E-03   -0.27317E-03  8424   0.851E-02-0.459E-03
CGA:  25    -0.674608478466E+03   -0.16498E-02   -0.15123E-02  8424   0.500E-03-0.250E-03
CGA:  26    -0.674608572138E+03   -0.93673E-04   -0.10537E-03  8424   0.685E-04 0.190E-04
CGA:  27    -0.674608626073E+03   -0.53935E-04   -0.44024E-04  8424   0.175E-03-0.563E-04
CGA:  28    -0.674608656755E+03   -0.30682E-04   -0.31994E-04  8424   0.335E-04 0.226E-05
CGA:  29    -0.674608734610E+03   -0.77855E-04    0.25027E-04  8424   0.744E-04-0.899E-05
CGA:  30    -0.674608865565E+03   -0.13095E-03    0.35214E-04  8424   0.262E-03-0.292E-04
CGA:  31    -0.674609641901E+03   -0.77634E-03    0.27220E-04  8424   0.539E-03 0.568E-04
CGA:  32    -0.674611630210E+03   -0.19883E-02    0.24974E-03  8424   0.246E-02-0.447E-03
CGA:  33    -0.674611893010E+03   -0.26280E-03   -0.33371E-03  8424   0.115E-03 0.127E-03
CGA:  34    -0.674611963697E+03   -0.70688E-04   -0.62105E-04  8424   0.213E-03-0.391E-04
CGA:  35    -0.674612011701E+03   -0.48003E-04   -0.12932E-03  8424   0.756E-03-0.395E-03
CGA:  36    -0.674612218573E+03   -0.20687E-03   -0.21823E-03  8424   0.305E-03 0.264E-04
CGA:  37    -0.674612371158E+03   -0.15259E-03   -0.11744E-03  8424   0.175E-03-0.105E-03
CGA:  38    -0.674612408065E+03   -0.36907E-04   -0.33438E-04  8424   0.731E-04-0.874E-05
CGA:  39    -0.674612454467E+03   -0.46401E-04   -0.43889E-04  8424   0.175E-03-0.699E-04
CGA:  40    -0.674612503194E+03   -0.48727E-04   -0.36912E-04  8424   0.419E-04-0.259E-04
CGA:  41    -0.674612561574E+03   -0.58380E-04    0.42518E-04  8424   0.971E-04-0.331E-04
CGA:  42    -0.674612575056E+03   -0.13482E-04   -0.16024E-04  8424   0.162E-04 0.534E-05
CGA:  43    -0.674612620853E+03   -0.45798E-04    0.45915E-05  8424   0.353E-04-0.112E-04
CGA:  44    -0.674612635619E+03   -0.14766E-04   -0.11681E-04  8424   0.278E-04-0.107E-04
CGA:  45    -0.674612714241E+03   -0.78622E-04    0.24848E-05  8424   0.990E-04-0.258E-04
CGA:  46    -0.674612723237E+03   -0.89962E-05   -0.15275E-04  8424   0.175E-04 0.140E-04
   7 F= -.67461272E+03 E0= -.67461272E+03  d E =-.384383E-01  mag=     5.0000
       N       E                     dE             d eps       ncg     rms          ort
SDA:   1    -0.674372316952E+03    0.24040E+00    0.00000E+00  8424   0.644E+00 0.000E+00
CGA:   2    -0.674541565213E+03   -0.16925E+00   -0.16932E+00  8424   0.311E+00-0.129E-03
CGA:   3    -0.674599880701E+03   -0.58315E-01   -0.58194E-01  8424   0.742E-01-0.171E-03
CGA:   4    -0.674612139986E+03   -0.12259E-01   -0.12243E-01  8424   0.180E-01-0.454E-04
CGA:   5    -0.674615257172E+03   -0.31172E-02   -0.31166E-02  8424   0.380E-02-0.663E-05
CGA:   6    -0.674616082714E+03   -0.82554E-03   -0.80550E-03  8424   0.945E-03-0.679E-04
CGA:   7    -0.674616338730E+03   -0.25602E-03   -0.23505E-03  8424   0.371E-03-0.866E-04
CGA:   8    -0.674616484466E+03   -0.14574E-03   -0.12919E-03  8424   0.328E-03-0.164E-03
CGA:   9    -0.674616492034E+03   -0.75685E-05   -0.14261E-03  8424   0.128E-02-0.451E-03
CGA:  10    -0.674616734950E+03   -0.24292E-03   -0.23843E-03  8424   0.242E-03-0.148E-04
CGA:  11    -0.674616829989E+03   -0.95039E-04   -0.90820E-04  8424   0.102E-03-0.426E-04
CGA:  12    -0.674616291097E+03    0.53889E-03   -0.17538E-03  8424   0.355E-02-0.444E-03
CGA:  13    -0.674616915119E+03   -0.62402E-03   -0.63152E-03  8424   0.469E-03 0.202E-04
CGA:  14    -0.674617075019E+03   -0.15990E-03   -0.13845E-03  8424   0.284E-03-0.890E-04
CGA:  15    -0.674617146771E+03   -0.71751E-04   -0.65805E-04  8424   0.810E-04-0.251E-04
CGA:  16    -0.674615404443E+03    0.17423E-02   -0.95001E-03  8424   0.822E-02-0.706E-03
CGA:  17    -0.674617057433E+03   -0.16530E-02   -0.17576E-02  8424   0.144E-02 0.155E-03
CGA:  18    -0.674617411144E+03   -0.35371E-03   -0.28052E-03  8424   0.252E-03-0.106E-03
CGA:  19    -0.674617487339E+03   -0.76195E-04   -0.80341E-04  8424   0.115E-03 0.810E-05
CGA:  20    -0.674617562701E+03   -0.75362E-04   -0.57563E-04  8424   0.153E-03-0.512E-04
CGA:  21    -0.674617606918E+03   -0.44217E-04   -0.20433E-04  8424   0.527E-04-0.415E-04
CGA:  22    -0.674617668185E+03   -0.61266E-04    0.15377E-02  8424   0.299E-03-0.686E-04
CGA:  23    -0.674617731321E+03   -0.63136E-04   -0.50735E-04  8424   0.438E-04-0.203E-04
CGA:  24    -0.674617760250E+03   -0.28929E-04   -0.22018E-04  8424   0.116E-03-0.315E-04
CGA:  25    -0.674617798435E+03   -0.38185E-04   -0.20580E-04  8424   0.299E-04-0.310E-04
CGA:  26    -0.674617697634E+03    0.10080E-03   -0.42389E-04  8424   0.155E-02-0.118E-03
CGA:  27    -0.674617949552E+03   -0.25192E-03   -0.20386E-03  8424   0.916E-04-0.793E-04
CGA:  28    -0.674617973631E+03   -0.24079E-04   -0.22489E-04  8424   0.161E-04-0.332E-05
CGA:  29    -0.674618035484E+03   -0.61853E-04    0.31909E-05  8424   0.915E-04-0.195E-04
CGA:  30    -0.674618040642E+03   -0.51577E-05   -0.11428E-04  8424   0.105E-04 0.105E-04
   8 F= -.67461804E+03 E0= -.67461804E+03  d E =-.531740E-02  mag=     5.0000
       N       E                     dE             d eps       ncg     rms          ort
SDA:   1    -0.674560597090E+03    0.57438E-01    0.00000E+00  8424   0.150E+00 0.000E+00
CGA:   2    -0.674603190642E+03   -0.42594E-01   -0.42563E-01  8424   0.722E-01-0.113E-03
CGA:   3    -0.674616275499E+03   -0.13085E-01   -0.13055E-01  8424   0.165E-01-0.565E-04
CGA:   4    -0.674619015282E+03   -0.27398E-02   -0.27567E-02  8424   0.408E-02 0.340E-04
CGA:   5    -0.674619709171E+03   -0.69389E-03   -0.70232E-03  8424   0.849E-03 0.178E-04
CGA:   6    -0.674619908624E+03   -0.19945E-03   -0.18729E-03  8424   0.231E-03-0.321E-04
CGA:   7    -0.674619994322E+03   -0.85698E-04   -0.67469E-04  8424   0.147E-03-0.657E-04
CGA:   8    -0.674620021388E+03   -0.27065E-04   -0.83387E-04  8424   0.843E-03-0.251E-03
CGA:   9    -0.674620156623E+03   -0.13524E-03   -0.13386E-03  8424   0.121E-03-0.348E-05
CGA:  10    -0.674620214317E+03   -0.57694E-04   -0.51915E-04  8424   0.809E-04-0.456E-04
CGA:  11    -0.674618416938E+03    0.17974E-02   -0.98667E-03  8424   0.105E-01-0.656E-03
CGA:  12    -0.674620220318E+03   -0.18034E-02   -0.17692E-02  8424   0.120E-02-0.345E-04
CGA:  13    -0.674620533116E+03   -0.31280E-03   -0.33576E-03  8424   0.506E-03 0.345E-04
CGA:  14    -0.674620689108E+03   -0.15599E-03   -0.13260E-03  8424   0.114E-03-0.348E-04
CGA:  15    -0.674620716162E+03   -0.27054E-04   -0.28569E-04  8424   0.331E-04 0.235E-05
CGA:  16    -0.674620774995E+03   -0.58833E-04    0.26297E-02  8424   0.224E-03-0.465E-04
CGA:  17    -0.674620785948E+03   -0.10953E-04   -0.27806E-04  8424   0.247E-04 0.230E-04
CGA:  18    -0.674620809032E+03   -0.23084E-04   -0.18645E-04  8424   0.786E-04-0.311E-04
CGA:  19    -0.674620852893E+03   -0.43861E-04   -0.26433E-04  8424   0.413E-04-0.360E-04
CGA:  20    -0.674620865188E+03   -0.12295E-04   -0.88575E-05  8424   0.378E-04-0.871E-05
CGA:  21    -0.674620971133E+03   -0.10595E-03    0.90366E-05  8424   0.174E-03-0.366E-04
CGA:  22    -0.674620981625E+03   -0.10492E-04   -0.24322E-04  8424   0.183E-04 0.218E-04
CGA:  23    -0.674621012531E+03   -0.30906E-04    0.10392E-02  8424   0.106E-03-0.362E-04
CGA:  24    -0.674621046340E+03   -0.33809E-04   -0.26610E-04  8424   0.178E-04-0.146E-04
CGA:  25    -0.674621090727E+03   -0.44387E-04    0.54672E-05  8424   0.115E-03-0.241E-04
CGA:  26    -0.674621103020E+03   -0.12293E-04   -0.15265E-04  8424   0.943E-05 0.518E-05
CGA:  27    -0.674621149760E+03   -0.46740E-04    0.13999E-05  8424   0.184E-04-0.338E-05
CGA:  28    -0.674621259912E+03   -0.11015E-03    0.71033E-06  8424   0.595E-04-0.203E-05
CGA:  29    -0.674621696455E+03   -0.43654E-03    0.36794E-05  8424   0.925E-04 0.306E-04
CGA:  30    -0.674621764180E+03   -0.67725E-04   -0.48490E-04  8424   0.227E-03-0.115E-03
CGA:  31    -0.674621774827E+03   -0.10647E-04   -0.32019E-04  8424   0.159E-04 0.394E-04
CGA:  32    -0.674621779109E+03   -0.42812E-05   -0.16578E-04  8424   0.189E-03-0.529E-04
CGA:  33    -0.674621860365E+03   -0.81257E-04   -0.56115E-04  8424   0.404E-04-0.680E-04
CGA:  34    -0.674621874591E+03   -0.14226E-04   -0.12146E-04  8424   0.327E-04-0.116E-04
CGA:  35    -0.674621968522E+03   -0.93931E-04    0.34592E-05  8424   0.668E-04-0.194E-04
CGA:  36    -0.674621979331E+03   -0.10808E-04   -0.12406E-04  8424   0.799E-05 0.259E-05
CGA:  37    -0.674622019431E+03   -0.40100E-04    0.87947E-06  8424   0.183E-04-0.273E-05
CGA:  38    -0.674622142146E+03   -0.12272E-03    0.51034E-06  8424   0.447E-04-0.981E-05
CGA:  39    -0.674622165450E+03   -0.23303E-04   -0.21361E-04  8424   0.430E-04-0.192E-04
CGA:  40    -0.674622259710E+03   -0.94261E-04    0.34969E-05  8424   0.498E-04-0.927E-05
CGA:  41    -0.674622357753E+03   -0.98043E-04    0.11310E-04  8424   0.133E-03-0.341E-04
CGA:  42    -0.674622264789E+03    0.92965E-04   -0.20472E-04  8424   0.692E-03 0.825E-04
CGA:  43    -0.674622238250E+03    0.26539E-04   -0.15365E-03  8424   0.475E-03 0.212E-03
CGA:  44    -0.674621832075E+03    0.40618E-03   -0.71142E-04  8424   0.201E-02 0.645E-03
CGA:  45    -0.674621797682E+03    0.34393E-04   -0.44199E-03  8424   0.148E-02 0.747E-03
CGA:  46    -0.674621292019E+03    0.50566E-03   -0.30334E-03  8424   0.293E-02 0.203E-02
CGA:  47    -0.674622196473E+03   -0.90445E-03   -0.10712E-02  8424   0.694E-03 0.380E-04
CGA:  48    -0.674622356154E+03   -0.15968E-03   -0.22957E-03  8424   0.144E-03 0.131E-03
CGA:  49    -0.674622494477E+03   -0.13832E-03   -0.15700E-03  8424   0.326E-04-0.573E-04
CGA:  50    -0.674622552353E+03   -0.57876E-04    0.27331E-05  8424   0.279E-04 0.188E-04
CGA:  51    -0.674622617750E+03   -0.65397E-04    0.56538E-05  8424   0.240E-04 0.318E-04
CGA:  52    -0.674622650482E+03   -0.32732E-04    0.19394E-04  8424   0.394E-04 0.133E-04
CGA:  53    -0.674622711548E+03   -0.61066E-04    0.20170E-04  8424   0.260E-03-0.663E-04
CGA:  54    -0.674622721254E+03   -0.97065E-05   -0.27461E-04  8424   0.132E-04 0.434E-04
   9 F= -.67462272E+03 E0= -.67462272E+03  d E =-.468061E-02  mag=     5.0000
       N       E                     dE             d eps       ncg     rms          ort
SDA:   1    -0.674432489433E+03    0.19022E+00    0.00000E+00  8424   0.481E+00 0.000E+00
CGA:   2    -0.674571946900E+03   -0.13946E+00   -0.13942E+00  8424   0.245E+00-0.252E-03
CGA:   3    -0.674615329639E+03   -0.43383E-01   -0.43396E-01  8424   0.518E-01 0.413E-04
CGA:   4    -0.674623914086E+03   -0.85844E-02   -0.86031E-02  8424   0.126E-01 0.584E-04
CGA:   5    -0.674626104800E+03   -0.21907E-02   -0.21892E-02  8424   0.269E-02-0.836E-05
CGA:   6    -0.674626703595E+03   -0.59879E-03   -0.58241E-03  8424   0.682E-03-0.781E-04
CGA:   7    -0.674626896136E+03   -0.19254E-03   -0.17712E-03  8424   0.315E-03-0.103E-03
CGA:   8    -0.674627008387E+03   -0.11225E-03   -0.12108E-03  8424   0.425E-03-0.206E-03
CGA:   9    -0.674627098511E+03   -0.90124E-04   -0.80409E-04  8424   0.987E-04-0.437E-04
CGA:  10    -0.674625866818E+03    0.12317E-02   -0.66668E-03  8424   0.763E-02-0.672E-03
CGA:  11    -0.674627187968E+03   -0.13212E-02   -0.13107E-02  8424   0.877E-03-0.195E-04
CGA:  12    -0.674627469240E+03   -0.28127E-03   -0.27566E-03  8424   0.104E-03-0.146E-04
CGA:  13    -0.674627505049E+03   -0.35809E-04   -0.32262E-04  8424   0.453E-04-0.968E-05
CGA:  14    -0.674627527047E+03   -0.21998E-04   -0.14801E-04  8424   0.491E-04-0.237E-04
CGA:  15    -0.674627537399E+03   -0.10352E-04   -0.84869E-05  8424   0.152E-04-0.391E-05
CGA:  16    -0.674627575411E+03   -0.38012E-04    0.37811E-05  8424   0.275E-04-0.530E-05
CGA:  17    -0.674627639905E+03   -0.64494E-04    0.30022E-05  8424   0.526E-04-0.180E-06
CGA:  18    -0.674627850709E+03   -0.21080E-03    0.73761E-05  8424   0.715E-04 0.119E-04
CGA:  19    -0.674628112319E+03   -0.26161E-03    0.19896E-04  8424   0.125E-03 0.258E-05
CGA:  20    -0.674628718531E+03   -0.60621E-03    0.14810E-04  8424   0.343E-03-0.591E-04
CGA:  21    -0.674630443395E+03   -0.17249E-02    0.85769E-05  8424   0.610E-03-0.125E-03
CGA:  22    -0.674634348674E+03   -0.39053E-02    0.17281E-04  8424   0.181E-02-0.660E-03
CGA:  23    -0.674634766451E+03   -0.41778E-03   -0.32009E-03  8424   0.390E-03-0.220E-03
CGA:  24    -0.674634834873E+03   -0.68422E-04   -0.93875E-04  8424   0.614E-04 0.770E-04
CGA:  25    -0.674634846507E+03   -0.11634E-04   -0.18609E-04  8424   0.339E-04 0.207E-04
CGA:  26    -0.674634860029E+03   -0.13522E-04   -0.15618E-04  8424   0.184E-04 0.894E-05
CGA:  27    -0.674634859456E+03    0.57286E-06   -0.53474E-05  8424   0.157E-04 0.177E-04
  10 F= -.67463486E+03 E0= -.67463486E+03  d E =-.121382E-01  mag=     5.0000
       N       E                     dE             d eps       ncg     rms          ort
SDA:   1    -0.674324137588E+03    0.31072E+00    0.00000E+00  8424   0.786E+00 0.000E+00
CGA:   2    -0.674545789789E+03   -0.22165E+00   -0.22163E+00  8424   0.413E+00-0.151E-03
CGA:   3    -0.674620401462E+03   -0.74612E-01   -0.74654E-01  8424   0.863E-01 0.775E-04
CGA:   4    -0.674634495708E+03   -0.14094E-01   -0.14096E-01  8424   0.208E-01-0.162E-04
CGA:   5    -0.674638141326E+03   -0.36456E-02   -0.36244E-02  8424   0.450E-02-0.725E-04
CGA:   6    -0.674639126660E+03   -0.98533E-03   -0.96215E-03  8424   0.111E-02-0.900E-04
CGA:   7    -0.674639400706E+03   -0.27405E-03   -0.26096E-03  8424   0.409E-03-0.593E-04
CGA:   8    -0.674639539076E+03   -0.13837E-03   -0.12821E-03  8424   0.240E-03-0.855E-04
CGA:   9    -0.674639611703E+03   -0.72627E-04   -0.12493E-03  8424   0.658E-03-0.245E-03
CGA:  10    -0.674639736578E+03   -0.12488E-03   -0.12095E-03  8424   0.108E-03-0.147E-04
CGA:  11    -0.674639784167E+03   -0.47589E-04   -0.66292E-04  8424   0.226E-03-0.101E-03
CGA:  12    -0.674639827481E+03   -0.43314E-04   -0.44004E-04  8424   0.318E-04 0.260E-05
CGA:  13    -0.674639861372E+03   -0.33892E-04    0.34996E-04  8424   0.223E-04-0.667E-05
CGA:  14    -0.674639888978E+03   -0.27606E-04    0.49354E-05  8424   0.223E-04 0.726E-05
CGA:  15    -0.674639954329E+03   -0.65351E-04    0.42492E-05  8424   0.186E-04 0.992E-05
CGA:  16    -0.674640003104E+03   -0.48774E-04    0.55475E-05  8424   0.138E-04 0.119E-04
CGA:  17    -0.674640022285E+03   -0.19181E-04    0.51850E-05  8424   0.230E-04-0.275E-05
CGA:  18    -0.674640026871E+03   -0.45867E-05   -0.51550E-05  8424   0.166E-04 0.316E-05
CGA:  19    -0.674640038659E+03   -0.11787E-04   -0.11312E-04  8424   0.655E-04 0.174E-05
CGA:  20    -0.674640145318E+03   -0.10666E-03    0.23322E-04  8424   0.853E-04 0.158E-04
CGA:  21    -0.674640335112E+03   -0.18979E-03    0.22299E-04  8424   0.216E-03 0.650E-05
CGA:  22    -0.674640812076E+03   -0.47696E-03    0.38291E-04  8424   0.334E-03-0.116E-04
CGA:  23    -0.674641762758E+03   -0.95068E-03    0.28595E-04  8424   0.874E-03-0.140E-03
CGA:  24    -0.674645826445E+03   -0.40637E-02    0.13733E-04  8424   0.151E-02-0.126E-02
CGA:  25    -0.674646202534E+03   -0.37609E-03   -0.35118E-03  8424   0.374E-03-0.121E-03
CGA:  26    -0.674646259883E+03   -0.57350E-04   -0.69291E-04  8424   0.936E-04 0.523E-04
CGA:  27    -0.674646285573E+03   -0.25689E-04   -0.30415E-04  8424   0.575E-04 0.355E-04
CGA:  28    -0.674646321680E+03   -0.36107E-04   -0.36010E-04  8424   0.107E-03 0.162E-05
CGA:  29    -0.674646347695E+03   -0.26015E-04   -0.29862E-04  8424   0.664E-04 0.252E-04
CGA:  30    -0.674646359503E+03   -0.11809E-04   -0.14766E-04  8424   0.367E-04 0.121E-04
CGA:  31    -0.674645991655E+03    0.36785E-03   -0.19806E-03  8424   0.183E-02-0.234E-03
CGA:  32    -0.674646475553E+03   -0.48390E-03   -0.47570E-03  8424   0.228E-03-0.195E-04
CGA:  33    -0.674646559598E+03   -0.84045E-04   -0.83029E-04  8424   0.102E-03-0.330E-05
CGA:  34    -0.674646706148E+03   -0.14655E-03    0.49543E-03  8424   0.269E-03-0.819E-04
CGA:  35    -0.674646720764E+03   -0.14615E-04   -0.38970E-04  8424   0.378E-04 0.455E-04
CGA:  36    -0.674646739270E+03   -0.18507E-04   -0.43501E-04  8424   0.250E-03-0.757E-04
CGA:  37    -0.674646848586E+03   -0.10932E-03   -0.74710E-04  8424   0.118E-03-0.936E-04
CGA:  38    -0.674646860755E+03   -0.12169E-04   -0.14861E-04  8424   0.285E-04 0.590E-05
CGA:  39    -0.674646870091E+03   -0.93364E-05   -0.76837E-05  8424   0.211E-04-0.455E-05
  11 F= -.67464687E+03 E0= -.67464687E+03  d E =-.120106E-01  mag=     5.0000
       N       E                     dE             d eps       ncg     rms          ort
SDA:   1    -0.674023100525E+03    0.62376E+00    0.00000E+00  8424   0.154E+01 0.000E+00
CGA:   2    -0.674467590972E+03   -0.44449E+00   -0.44446E+00  8424   0.809E+00 0.111E-03
CGA:   3    -0.674611444489E+03   -0.14385E+00   -0.14399E+00  8424   0.170E+00 0.196E-03
CGA:   4    -0.674638898814E+03   -0.27454E-01   -0.27410E-01  8424   0.414E-01-0.142E-03
CGA:   5    -0.674646168030E+03   -0.72692E-02   -0.72059E-02  8424   0.882E-02-0.177E-03
CGA:   6    -0.674648052812E+03   -0.18848E-02   -0.18547E-02  8424   0.212E-02-0.951E-04
CGA:   7    -0.674648551566E+03   -0.49875E-03   -0.48434E-03  8424   0.729E-03-0.508E-04
CGA:   8    -0.674648776978E+03   -0.22541E-03   -0.20945E-03  8424   0.337E-03-0.768E-04
CGA:   9    -0.674648922391E+03   -0.14541E-03   -0.14133E-03  8424   0.393E-03-0.167E-03
CGA:  10    -0.674648848734E+03    0.73657E-04   -0.18621E-03  8424   0.162E-02-0.587E-03
CGA:  11    -0.674649171695E+03   -0.32296E-03   -0.33350E-03  8424   0.379E-03 0.337E-04
CGA:  12    -0.674649324594E+03   -0.15290E-03   -0.15133E-03  8424   0.147E-03-0.148E-04
CGA:  13    -0.674649381880E+03   -0.57286E-04   -0.57306E-04  8424   0.807E-04-0.100E-07
CGA:  14    -0.674649407544E+03   -0.25665E-04   -0.59317E-04  8424   0.496E-03-0.137E-03
CGA:  15    -0.674649438439E+03   -0.30895E-04   -0.56854E-04  8424   0.447E-04 0.676E-04
CGA:  16    -0.674649445573E+03   -0.71342E-05   -0.10958E-04  8424   0.262E-04 0.143E-04
CGA:  17    -0.674649440121E+03    0.54523E-05   -0.31987E-04  8424   0.379E-03-0.827E-04
CGA:  18    -0.674649474143E+03   -0.34022E-04   -0.49591E-04  8424   0.580E-04 0.434E-04
CGA:  19    -0.674649505610E+03   -0.31467E-04   -0.33273E-04  8424   0.579E-04-0.438E-04
CGA:  20    -0.674649525653E+03   -0.20043E-04   -0.18672E-04  8424   0.215E-04-0.908E-05
CGA:  21    -0.674649525523E+03    0.13046E-06   -0.24643E-05  8424   0.946E-05 0.776E-05
  12 F= -.67464953E+03 E0= -.67464953E+03  d E =-.265543E-02  mag=     5.0000
       N       E                     dE             d eps       ncg     rms          ort
SDA:   1    -0.674502443211E+03    0.14708E+00    0.00000E+00  8424   0.410E+00 0.000E+00
CGA:   2    -0.674602102293E+03   -0.99659E-01   -0.99695E-01  8424   0.191E+00 0.148E-03
CGA:   3    -0.674639123866E+03   -0.37022E-01   -0.37000E-01  8424   0.496E-01-0.118E-03
CGA:   4    -0.674647298989E+03   -0.81751E-02   -0.81737E-02  8424   0.124E-01-0.152E-04
CGA:   5    -0.674649453669E+03   -0.21547E-02   -0.21526E-02  8424   0.245E-02-0.105E-04
CGA:   6    -0.674649978076E+03   -0.52441E-03   -0.51565E-03  8424   0.593E-03-0.447E-04
CGA:   7    -0.674650118229E+03   -0.14015E-03   -0.13730E-03  8424   0.197E-03-0.177E-04
CGA:   8    -0.674650186532E+03   -0.68302E-04   -0.65183E-04  8424   0.125E-03-0.624E-04
CGA:   9    -0.674650178888E+03    0.76432E-05   -0.67196E-04  8424   0.561E-03-0.187E-03
CGA:  10    -0.674650286981E+03   -0.10809E-03   -0.10254E-03  8424   0.899E-04-0.248E-04
CGA:  11    -0.674650310030E+03   -0.23049E-04   -0.63503E-04  8424   0.307E-03-0.118E-03
CGA:  12    -0.674650384967E+03   -0.74937E-04   -0.65249E-04  8424   0.597E-04-0.482E-04
CGA:  13    -0.674650390370E+03   -0.54025E-05   -0.35047E-04  8424   0.345E-03-0.102E-03
CGA:  14    -0.674650462213E+03   -0.71843E-04   -0.55504E-04  8424   0.623E-04-0.637E-04
CGA:  15    -0.674650482761E+03   -0.20548E-04   -0.20310E-04  8424   0.754E-04-0.422E-04
CGA:  16    -0.674650516000E+03   -0.33239E-04   -0.25197E-04  8424   0.232E-03-0.113E-03
CGA:  17    -0.674650533721E+03   -0.17721E-04   -0.23733E-04  8424   0.602E-05 0.202E-04
CGA:  18    -0.674650557139E+03   -0.23418E-04    0.34814E-06  8424   0.181E-04-0.198E-05
CGA:  19    -0.674650664735E+03   -0.10760E-03    0.22385E-06  8424   0.529E-04-0.152E-05
CGA:  20    -0.674651023795E+03   -0.35906E-03    0.10912E-05  8424   0.176E-03-0.198E-04
CGA:  21    -0.674652275289E+03   -0.12515E-02    0.15607E-05  8424   0.575E-03-0.766E-05
CGA:  22    -0.674656747499E+03   -0.44722E-02    0.11193E-04  8424   0.417E-03-0.677E-03
CGA:  23    -0.674656842542E+03   -0.95043E-04   -0.79547E-04  8424   0.166E-03-0.793E-04
CGA:  24    -0.674656876540E+03   -0.33998E-04   -0.34991E-04  8424   0.549E-04 0.837E-05
CGA:  25    -0.674656897800E+03   -0.21260E-04   -0.60110E-04  8424   0.293E-03-0.586E-04
CGA:  26    -0.674656952137E+03   -0.54337E-04   -0.56895E-04  8424   0.375E-04 0.118E-04
CGA:  27    -0.674656951820E+03    0.31685E-06   -0.47947E-05  8424   0.146E-04 0.188E-04
  13 F= -.67465695E+03 E0= -.67465695E+03  d E =-.742630E-02  mag=     5.0000
       N       E                     dE             d eps       ncg     rms          ort
SDA:   1    -0.674563363861E+03    0.93588E-01    0.00000E+00  8424   0.222E+00 0.000E+00
CGA:   2    -0.674634342777E+03   -0.70979E-01   -0.70963E-01  8424   0.107E+00-0.336E-03
CGA:   3    -0.674652285936E+03   -0.17943E-01   -0.17976E-01  8424   0.211E-01 0.134E-03
CGA:   4    -0.674655825500E+03   -0.35396E-02   -0.35622E-02  8424   0.543E-02 0.117E-03
CGA:   5    -0.674656737583E+03   -0.91208E-03   -0.93096E-03  8424   0.113E-02 0.106E-03
CGA:   6    -0.674656947138E+03   -0.20955E-03   -0.22287E-03  8424   0.250E-03 0.924E-04
CGA:   7    -0.674656992523E+03   -0.45385E-04   -0.53115E-04  8424   0.831E-04 0.577E-04
CGA:   8    -0.674656998465E+03   -0.59417E-05   -0.15291E-04  8424   0.392E-04 0.536E-04
  14 F= -.67465700E+03 E0= -.67465700E+03  d E =-.466447E-04  mag=     5.0000
       N       E                     dE             d eps       ncg     rms          ort
SDA:   1    -0.674605698839E+03    0.51294E-01    0.00000E+00  8424   0.149E+00 0.000E+00
CGA:   2    -0.674638790690E+03   -0.33092E-01   -0.33083E-01  8424   0.623E-01-0.132E-03
CGA:   3    -0.674651550206E+03   -0.12760E-01   -0.12772E-01  8424   0.185E-01 0.112E-03
CGA:   4    -0.674654599237E+03   -0.30490E-02   -0.30688E-02  8424   0.455E-02 0.148E-03
CGA:   5    -0.674655360425E+03   -0.76119E-03   -0.77458E-03  8424   0.853E-03 0.110E-03
CGA:   6    -0.674655523264E+03   -0.16284E-03   -0.16941E-03  8424   0.198E-03 0.733E-04
CGA:   7    -0.674655553666E+03   -0.30402E-04   -0.37103E-04  8424   0.588E-04 0.632E-04
CGA:   8    -0.674655555657E+03   -0.19909E-05   -0.91823E-05  8424   0.299E-04 0.463E-04
  15 F= -.67465556E+03 E0= -.67465556E+03  d E =0.144281E-02  mag=     5.0000
       N       E                     dE             d eps       ncg     rms          ort
SDA:   1    -0.674640005820E+03    0.15548E-01    0.00000E+00  8424   0.401E-01 0.000E+00
CGA:   2    -0.674649963327E+03   -0.99575E-02   -0.99570E-02  8424   0.182E-01-0.689E-04
CGA:   3    -0.674653612871E+03   -0.36495E-02   -0.36549E-02  8424   0.457E-02 0.956E-04
CGA:   4    -0.674654341805E+03   -0.72893E-03   -0.73870E-03  8424   0.110E-02 0.104E-03
CGA:   5    -0.674654523847E+03   -0.18204E-03   -0.18714E-03  8424   0.208E-03 0.615E-04
CGA:   6    -0.674654562160E+03   -0.38313E-04   -0.40594E-04  8424   0.519E-04 0.379E-04
CGA:   7    -0.674654565359E+03   -0.31992E-05   -0.72683E-05  8424   0.215E-04 0.329E-04
  16 F= -.67465457E+03 E0= -.67465457E+03  d E =0.990298E-03  mag=     5.0000
       N       E                     dE             d eps       ncg     rms          ort
SDA:   1    -0.674559143896E+03    0.95418E-01    0.00000E+00  8424   0.258E+00 0.000E+00
CGA:   2    -0.674621228914E+03   -0.62085E-01   -0.62087E-01  8424   0.120E+00-0.187E-03
CGA:   3    -0.674645977767E+03   -0.24749E-01   -0.24753E-01  8424   0.305E-01 0.167E-03
CGA:   4    -0.674650818852E+03   -0.48411E-02   -0.48533E-02  8424   0.715E-02 0.172E-03
CGA:   5    -0.674652077720E+03   -0.12589E-02   -0.12597E-02  8424   0.144E-02 0.161E-04
CGA:   6    -0.674652398518E+03   -0.32080E-03   -0.32085E-03  8424   0.417E-03-0.725E-04
CGA:   7    -0.674652479549E+03   -0.81032E-04   -0.81304E-04  8424   0.108E-03 0.168E-04
CGA:   8    -0.674652504616E+03   -0.25067E-04   -0.25004E-04  8424   0.336E-04 0.220E-04
CGA:   9    -0.674652517107E+03   -0.12491E-04   -0.12511E-04  8424   0.205E-04-0.291E-06
CGA:  10    -0.674652524596E+03   -0.74886E-05   -0.81560E-05  8424   0.179E-04-0.394E-05
CGA:  11    -0.674652532412E+03   -0.78159E-05    0.11136E-04  8424   0.984E-05 0.427E-05
  17 F= -.67465253E+03 E0= -.67465253E+03  d E =0.203295E-02  mag=     5.0000
       N       E                     dE             d eps       ncg     rms          ort
SDA:   1    -0.673902189436E+03    0.75034E+00    0.00000E+00  8424   0.231E+01 0.000E+00
CGA:   2    -0.674370603427E+03   -0.46841E+00   -0.46849E+00  8424   0.925E+00 0.101E-02
CGA:   3    -0.674581808035E+03   -0.21120E+00   -0.21120E+00  8424   0.313E+00 0.183E-04
CGA:   4    -0.674631900199E+03   -0.50092E-01   -0.50142E-01  8424   0.686E-01 0.610E-03
CGA:   5    -0.674643552072E+03   -0.11652E-01   -0.11661E-01  8424   0.129E-01 0.136E-03
CGA:   6    -0.674646316317E+03   -0.27642E-02   -0.27607E-02  8424   0.361E-02-0.319E-03
CGA:   7    -0.674647096529E+03   -0.78021E-03   -0.78013E-03  8424   0.961E-03-0.232E-04
CGA:   8    -0.674647338808E+03   -0.24228E-03   -0.24193E-03  8424   0.288E-03 0.119E-04
CGA:   9    -0.674647431005E+03   -0.92197E-04   -0.10487E-03  8424   0.198E-03-0.949E-04
CGA:  10    -0.674647468428E+03   -0.37423E-04   -0.58552E-04  8424   0.181E-03-0.102E-03
CGA:  11    -0.674647517206E+03   -0.48778E-04   -0.71864E-04  8424   0.277E-03-0.151E-03
CGA:  12    -0.674647554930E+03   -0.37724E-04   -0.39823E-04  8424   0.125E-04 0.195E-04
CGA:  13    -0.674647569432E+03   -0.14502E-04    0.13614E-05  8424   0.850E-05 0.641E-05
CGA:  14    -0.674647584120E+03   -0.14688E-04    0.41553E-06  8424   0.644E-05 0.580E-05
CGA:  15    -0.674647596333E+03   -0.12213E-04    0.27714E-06  8424   0.566E-05 0.559E-05
CGA:  16    -0.674647609460E+03   -0.13126E-04    0.18690E-06  8424   0.524E-05 0.525E-05
CGA:  17    -0.674647621533E+03   -0.12074E-04    0.17465E-06  8424   0.495E-05 0.499E-05
CGA:  18    -0.674647634060E+03   -0.12527E-04    0.14629E-06  8424   0.473E-05 0.477E-05
CGA:  19    -0.674647645971E+03   -0.11911E-04    0.14073E-06  8424   0.455E-05 0.459E-05
CGA:  20    -0.674647658232E+03   -0.12260E-04    0.12485E-06  8424   0.441E-05 0.444E-05
CGA:  21    -0.674647669932E+03   -0.11700E-04    0.12337E-06  8424   0.430E-05 0.431E-05
CGA:  22    -0.674647682144E+03   -0.12212E-04    0.11053E-06  8424   0.421E-05 0.420E-05
CGA:  23    -0.674647693483E+03   -0.11339E-04    0.11555E-06  8424   0.415E-05 0.408E-05
CGA:  24    -0.674647705959E+03   -0.12476E-04    0.99824E-07  8424   0.414E-05 0.395E-05
CGA:  25    -0.674647716560E+03   -0.10601E-04    0.12111E-06  8424   0.423E-05 0.377E-05
CGA:  26    -0.674647729814E+03   -0.13254E-04    0.96700E-07  8424   0.451E-05 0.347E-05
CGA:  27    -0.674647739012E+03   -0.91973E-05    0.17581E-06  8424   0.518E-05 0.291E-05
  18 F= -.67464774E+03 E0= -.67464774E+03  d E =0.479340E-02  mag=     5.0000
       N       E                     dE             d eps       ncg     rms          ort
SDA:   1    -0.674491636616E+03    0.15609E+00    0.00000E+00  8424   0.478E+00 0.000E+00
CGA:   2    -0.674596421124E+03   -0.10478E+00   -0.10479E+00  8424   0.210E+00 0.152E-03
CGA:   3    -0.674639959606E+03   -0.43538E-01   -0.43525E-01  8424   0.622E-01-0.401E-03
CGA:   4    -0.674650125079E+03   -0.10165E-01   -0.10164E-01  8424   0.150E-01-0.228E-04
CGA:   5    -0.674652666223E+03   -0.25411E-02   -0.25481E-02  8424   0.291E-02 0.996E-04
CGA:   6    -0.674653265860E+03   -0.59964E-03   -0.60099E-03  8424   0.689E-03 0.445E-04
CGA:   7    -0.674653430366E+03   -0.16451E-03   -0.16454E-03  8424   0.228E-03-0.257E-04
CGA:   8    -0.674653495200E+03   -0.64834E-04   -0.70552E-04  8424   0.123E-03-0.656E-04
CGA:   9    -0.674653520634E+03   -0.25434E-04   -0.34476E-04  8424   0.981E-04-0.584E-04
CGA:  10    -0.674653217750E+03    0.30288E-03   -0.16320E-03  8424   0.173E-02-0.284E-03
CGA:  11    -0.674653520511E+03   -0.30276E-03   -0.30639E-03  8424   0.222E-03 0.131E-04
CGA:  12    -0.674653604674E+03   -0.84163E-04   -0.82577E-04  8424   0.848E-04-0.245E-04
CGA:  13    -0.674653631725E+03   -0.27051E-04   -0.27396E-04  8424   0.360E-04 0.494E-05
CGA:  14    -0.674653647410E+03   -0.15685E-04   -0.26411E-04  8424   0.109E-03-0.405E-04
CGA:  15    -0.674653659387E+03   -0.11977E-04   -0.15825E-04  8424   0.133E-04 0.130E-04
CGA:  16    -0.674653674657E+03   -0.15270E-04    0.15471E-04  8424   0.120E-04-0.596E-05
CGA:  17    -0.674653690300E+03   -0.15643E-04    0.80515E-06  8424   0.167E-04-0.187E-05
CGA:  18    -0.674653720152E+03   -0.29852E-04    0.20524E-05  8424   0.146E-04 0.992E-06
CGA:  19    -0.674653758198E+03   -0.38046E-04    0.17615E-05  8424   0.155E-04 0.170E-05
CGA:  20    -0.674653804317E+03   -0.46119E-04    0.17257E-05  8424   0.189E-04 0.237E-05
CGA:  21    -0.674653880340E+03   -0.76023E-04    0.14988E-05  8424   0.141E-04 0.977E-05
CGA:  22    -0.674653691241E+03    0.18910E-03   -0.10219E-03  8424   0.102E-02-0.984E-04
CGA:  23    -0.674653914934E+03   -0.22369E-03   -0.21111E-03  8424   0.155E-03-0.220E-04
CGA:  24    -0.674653964395E+03   -0.49461E-04   -0.40851E-04  8424   0.248E-04-0.180E-04
CGA:  25    -0.674653967887E+03   -0.34923E-05   -0.49835E-05  8424   0.646E-05 0.298E-05
  19 F= -.67465397E+03 E0= -.67465397E+03  d E =-.622888E-02  mag=     5.0000
       N       E                     dE             d eps       ncg     rms          ort
SDA:   1    -0.674602524969E+03    0.51439E-01    0.00000E+00  8424   0.152E+00 0.000E+00
CGA:   2    -0.674637725030E+03   -0.35200E-01   -0.35191E-01  8424   0.702E-01-0.291E-04
CGA:   3    -0.674652280094E+03   -0.14555E-01   -0.14557E-01  8424   0.197E-01-0.129E-04
CGA:   4    -0.674655484204E+03   -0.32041E-02   -0.31749E-02  8424   0.450E-02-0.633E-04
CGA:   5    -0.674656257988E+03   -0.77378E-03   -0.76470E-03  8424   0.883E-03-0.207E-04
CGA:   6    -0.674656435982E+03   -0.17799E-03   -0.18335E-03  8424   0.223E-03 0.132E-04
CGA:   7    -0.674656494547E+03   -0.58566E-04   -0.53783E-04  8424   0.749E-04-0.138E-04
CGA:   8    -0.674656521082E+03   -0.26534E-04   -0.22257E-04  8424   0.365E-04-0.170E-04
CGA:   9    -0.674656536100E+03   -0.15018E-04   -0.12489E-04  8424   0.415E-04-0.224E-04
CGA:  10    -0.674656546739E+03   -0.10640E-04   -0.86638E-05  8424   0.106E-04-0.581E-05
CGA:  11    -0.674656499354E+03    0.47386E-04   -0.17846E-04  8424   0.375E-03-0.462E-04
CGA:  12    -0.674656575395E+03   -0.76041E-04   -0.69145E-04  8424   0.439E-04-0.165E-04
CGA:  13    -0.674656596189E+03   -0.20794E-04   -0.18292E-04  8424   0.263E-04-0.170E-04
CGA:  14    -0.674656601101E+03   -0.49118E-05   -0.35101E-05  8424   0.102E-04-0.392E-05
  20 F= -.67465660E+03 E0= -.67465660E+03  d E =-.263321E-02  mag=     5.0000
       N       E                     dE             d eps       ncg     rms          ort
SDA:   1    -0.674600897087E+03    0.55699E-01    0.00000E+00  8424   0.164E+00 0.000E+00
CGA:   2    -0.674637678036E+03   -0.36781E-01   -0.36788E-01  8424   0.779E-01 0.133E-04
CGA:   3    -0.674653869050E+03   -0.16191E-01   -0.16195E-01  8424   0.222E-01-0.887E-05
CGA:   4    -0.674657464268E+03   -0.35952E-02   -0.35879E-02  8424   0.503E-02-0.231E-04
CGA:   5    -0.674658323565E+03   -0.85930E-03   -0.85364E-03  8424   0.985E-03-0.177E-04
CGA:   6    -0.674658534473E+03   -0.21091E-03   -0.20816E-03  8424   0.238E-03-0.102E-04
CGA:   7    -0.674658593103E+03   -0.58630E-04   -0.55558E-04  8424   0.773E-04-0.129E-04
CGA:   8    -0.674658618060E+03   -0.24957E-04   -0.22037E-04  8424   0.367E-04-0.180E-04
CGA:   9    -0.674658628124E+03   -0.10064E-04   -0.18007E-04  8424   0.107E-03-0.432E-04
CGA:  10    -0.674658648478E+03   -0.20354E-04   -0.19242E-04  8424   0.160E-04-0.393E-05
CGA:  11    -0.674658651879E+03   -0.34008E-05   -0.12230E-04  8424   0.728E-04-0.260E-04
CGA:  12    -0.674658668287E+03   -0.16408E-04   -0.14925E-04  8424   0.101E-04-0.567E-05
CGA:  13    -0.674658677996E+03   -0.97091E-05    0.14221E-04  8424   0.828E-05-0.548E-05
  21 F= -.67465868E+03 E0= -.67465868E+03  d E =-.207690E-02  mag=     5.0000
       N       E                     dE             d eps       ncg     rms          ort
SDA:   1    -0.674645540777E+03    0.13128E-01    0.00000E+00  8424   0.378E-01 0.000E+00
CGA:   2    -0.674654210869E+03   -0.86701E-02   -0.86836E-02  8424   0.171E-01 0.535E-04
CGA:   3    -0.674657694243E+03   -0.34834E-02   -0.34697E-02  8424   0.501E-02-0.583E-04
