       N       E                     dE             d eps       ncg     rms          ort
DAV:   1     0.829656886901E+04    0.82966E+04   -0.24651E+05  8424   0.238E+03
DAV:   2     0.921294910641E+03   -0.73753E+04   -0.69221E+04  8424   0.659E+02
DAV:   3    -0.677965820438E+03   -0.15993E+04   -0.14072E+04  8424   0.283E+02
DAV:   4    -0.834563036253E+03   -0.15660E+03   -0.15387E+03  8424   0.859E+01
DAV:   5    -0.837099643700E+03   -0.25366E+01   -0.25246E+01  8424   0.122E+01
SDA:   6    -0.245042456200E+03    0.59206E+03   -0.25246E+01  8424   0.702E+04 0.000E+00
CGA:   7    -0.179488422825E+03    0.65554E+02   -0.41148E+03  8424   0.295E+05-0.468E+04
CGA:   8     0.149885132481E+04    0.16783E+04   -0.18719E+04  8424   0.172E+06-0.626E+05
CGA:   9     0.517168937728E+04    0.36728E+04   -0.13812E+05  8424   0.221E+05-0.121E+05
CGA:  10     0.923723021288E+03   -0.42480E+04   -0.88828E+03  8424   0.559E+05-0.869E+05
CGA:  11     0.401616124169E+04    0.30924E+04   -0.34415E+04  8424   0.194E+05-0.856E+04
CGA:  12     0.122296301289E+04   -0.27932E+04   -0.57543E+03  8424   0.116E+06-0.171E+06
CGA:  13     0.454472113148E+04    0.33218E+04   -0.77797E+04  8424   0.381E+05-0.166E+05
CGA:  14     0.442602058116E+04   -0.11870E+03   -0.15722E+04  8424   0.179E+05-0.133E+05
CGA:  15    -0.598107711618E+03   -0.50241E+04   -0.30811E+03  8424   0.137E+04-0.989E+04
CGA:  16    -0.631089501752E+03   -0.32982E+02   -0.57341E+02  8424   0.115E+03 0.664E+02
CGA:  17    -0.652598776981E+03   -0.21509E+02   -0.20943E+02  8424   0.654E+02 0.118E+02
CGA:  18    -0.664774861500E+03   -0.12176E+02   -0.12929E+02  8424   0.592E+02-0.113E+02
CGA:  19    -0.670119168349E+03   -0.53443E+01   -0.57641E+01  8424   0.203E+02 0.497E+01
CGA:  20    -0.671894832276E+03   -0.17757E+01   -0.15409E+01  8424   0.283E+02-0.184E+02
CGA:  21    -0.672306189778E+03   -0.41136E+00   -0.17621E+01  8424   0.150E+02-0.593E+01
CGA:  22    -0.673436554070E+03   -0.11304E+01   -0.90167E+00  8424   0.137E+02-0.750E+01
CGA:  23    -0.674306085723E+03   -0.86953E+00   -0.48617E+00  8424   0.326E+01 0.492E+01
CGA:  24    -0.674401163158E+03   -0.95077E-01   -0.18692E+00  8424   0.631E+01-0.201E+01
CGA:  25    -0.674514196013E+03   -0.11303E+00   -0.31393E+00  8424   0.567E+01-0.264E+01
CGA:  26    -0.675012254866E+03   -0.49806E+00   -0.47958E+00  8424   0.102E+01 0.456E+00
CGA:  27    -0.675166182230E+03   -0.15393E+00   -0.15138E+00  8424   0.101E+01 0.100E+00
CGA:  28    -0.675322349151E+03   -0.15617E+00   -0.15408E+00  8424   0.809E+00 0.864E-01
CGA:  29    -0.675476232377E+03   -0.15388E+00   -0.14773E+00  8424   0.160E+00 0.929E-01
CGA:  30    -0.675506305452E+03   -0.30073E-01   -0.29345E-01  8424   0.532E-01 0.120E-01
CGA:  31    -0.675521999231E+03   -0.15694E-01   -0.14580E-01  8424   0.254E-01 0.805E-02
CGA:  32    -0.675527717579E+03   -0.57183E-02   -0.55315E-02  8424   0.194E-01 0.333E-02
CGA:  33    -0.675531420886E+03   -0.37033E-02   -0.37678E-02  8424   0.232E-01-0.229E-02
CGA:  34    -0.675536246109E+03   -0.48252E-02   -0.59461E-02  8424   0.194E-01-0.756E-02
CGA:  35    -0.675538782013E+03   -0.25359E-02   -0.28362E-02  8424   0.131E-01-0.436E-02
CGA:  36    -0.675540903890E+03   -0.21219E-02   -0.25405E-02  8424   0.279E-01-0.400E-02
CGA:  37    -0.675547235448E+03   -0.63316E-02    0.27302E-01  8424   0.223E-01 0.117E-01
CGA:  38    -0.675553968013E+03   -0.67326E-02   -0.12807E-01  8424   0.260E+00-0.209E-01
CGA:  39    -0.675570072128E+03   -0.16104E-01   -0.15923E-01  8424   0.166E-01 0.180E-01
CGA:  40    -0.675574355850E+03   -0.42837E-02   -0.42595E-02  8424   0.284E-01 0.528E-03
CGA:  41    -0.675583935575E+03   -0.95797E-02   -0.10199E-01  8424   0.825E-01-0.335E-02
CGA:  42    -0.675592968028E+03   -0.90325E-02   -0.28652E-01  8424   0.377E+00-0.103E+00
CGA:  43    -0.675633082722E+03   -0.40115E-01   -0.44107E-01  8424   0.129E+00-0.140E-01
CGA:  44    -0.675665355301E+03   -0.32273E-01   -0.33096E-01  8424   0.768E-01-0.931E-02
CGA:  45    -0.675689855550E+03   -0.24500E-01   -0.30173E-01  8424   0.121E+00-0.235E-01
CGA:  46    -0.675687189263E+03    0.26663E-02   -0.49953E-01  8424   0.535E+00-0.141E+00
CGA:  47    -0.675760087076E+03   -0.72898E-01   -0.73820E-01  8424   0.106E+00-0.150E-01
CGA:  48    -0.675794515644E+03   -0.34429E-01   -0.35564E-01  8424   0.462E-01-0.865E-02
CGA:  49    -0.675808812728E+03   -0.14297E-01   -0.17020E-01  8424   0.382E-01-0.148E-01
CGA:  50    -0.675816556155E+03   -0.77434E-02   -0.13233E-01  8424   0.753E-01-0.196E-01
CGA:  51    -0.675828346938E+03   -0.11791E-01   -0.11466E-01  8424   0.149E-01-0.430E-02
CGA:  52    -0.675833707885E+03   -0.53609E-02   -0.61750E-02  8424   0.115E-01-0.408E-02
CGA:  53    -0.675835496144E+03   -0.17883E-02   -0.44684E-02  8424   0.213E-01-0.927E-02
CGA:  54    -0.675838577543E+03   -0.30814E-02   -0.31555E-02  8424   0.468E-02 0.677E-03
CGA:  55    -0.675840365479E+03   -0.17879E-02   -0.37298E-02  8424   0.796E-02-0.376E-02
CGA:  56    -0.675842200195E+03   -0.18347E-02   -0.18106E-02  8424   0.252E-02-0.434E-03
CGA:  57    -0.675841316889E+03    0.88331E-03   -0.21018E-02  8424   0.248E-01-0.497E-02
CGA:  58    -0.675844299999E+03   -0.29831E-02   -0.31395E-02  8424   0.200E-02 0.958E-03
CGA:  59    -0.675845200887E+03   -0.90089E-03   -0.10682E-02  8424   0.196E-02-0.791E-03
CGA:  60    -0.675836524386E+03    0.86765E-02   -0.46611E-02  8424   0.559E-01-0.669E-02
CGA:  61    -0.675846541872E+03   -0.10017E-01   -0.10163E-01  8424   0.110E-01 0.367E-03
CGA:  62    -0.675850198418E+03   -0.36565E-02   -0.35881E-02  8424   0.275E-02-0.310E-03
CGA:  63    -0.675850906623E+03   -0.70821E-03   -0.70827E-03  8424   0.588E-03-0.254E-05
CGA:  64    -0.675851227872E+03   -0.32125E-03   -0.46344E-03  8424   0.423E-02-0.545E-03
CGA:  65    -0.675851727376E+03   -0.49950E-03   -0.57769E-03  8424   0.481E-03 0.206E-03
CGA:  66    -0.675852041783E+03   -0.31441E-03   -0.53483E-03  8424   0.292E-02-0.413E-03
CGA:  67    -0.675852758175E+03   -0.71639E-03   -0.70624E-03  8424   0.544E-03-0.360E-04
CGA:  68    -0.675853054998E+03   -0.29682E-03   -0.44444E-03  8424   0.382E-02-0.500E-03
CGA:  69    -0.675853610250E+03   -0.55525E-03   -0.59304E-03  8424   0.470E-03 0.972E-04
CGA:  70    -0.675852934810E+03    0.67544E-03   -0.93859E-03  8424   0.120E-01-0.115E-02
CGA:  71    -0.675855136590E+03   -0.22018E-02   -0.22989E-02  8424   0.196E-02 0.290E-03
CGA:  72    -0.675855691433E+03   -0.55484E-03   -0.46790E-03  8424   0.575E-03-0.257E-03
CGA:  73    -0.675854255771E+03    0.14357E-02   -0.89178E-03  8424   0.248E-01-0.110E-02
CGA:  74    -0.675858818516E+03   -0.45627E-02   -0.42169E-02  8424   0.450E-02-0.969E-03
CGA:  75    -0.675860037299E+03   -0.12188E-02   -0.11955E-02  8424   0.696E-03-0.380E-04
CGA:  76    -0.675860630415E+03   -0.59312E-03   -0.55562E-03  8424   0.178E-02-0.278E-03
CGA:  77    -0.675861323146E+03   -0.69273E-03   -0.16189E-02  8424   0.166E-01-0.174E-02
CGA:  78    -0.675865173325E+03   -0.38502E-02   -0.37092E-02  8424   0.576E-02-0.302E-03
CGA:  79    -0.675866824077E+03   -0.16508E-02   -0.16305E-02  8424   0.136E-02-0.335E-04
CGA:  80    -0.675867628534E+03   -0.80446E-03   -0.63292E-03  8424   0.152E-02-0.407E-03
CGA:  81    -0.675868394036E+03   -0.76550E-03   -0.63733E-03  8424   0.319E-02-0.496E-03
CGA:  82    -0.675873167483E+03   -0.47734E-02    0.31517E-02  8424   0.473E-02 0.593E-03
CGA:  83    -0.675730541326E+03    0.14263E+00   -0.72279E-01  8424   0.128E+01-0.423E-01
CGA:  84    -0.675924104617E+03   -0.19356E+00   -0.19154E+00  8424   0.678E-01 0.501E-01
CGA:  85    -0.675942823588E+03   -0.18719E-01   -0.23326E-01  8424   0.296E-01-0.754E-03
CGA:  86    -0.675913834403E+03    0.28989E-01   -0.74440E-02  8424   0.929E-01 0.107E-01
CGA:  87    -0.675160305819E+03    0.75353E+00   -0.12273E-01  8424   0.216E+01 0.386E+00
CGA:  88    -0.673911921635E+03    0.12484E+01   -0.97740E+00  8424   0.456E+01 0.905E+00
CGA:  89    -0.670968955379E+03    0.29430E+01   -0.24543E+01  8424   0.761E+01 0.424E+01
CGA:  90    -0.672099420930E+03   -0.11305E+01   -0.39420E+01  8424   0.650E+01 0.286E+01
CGA:  91    -0.668989875313E+03    0.31095E+01   -0.31106E+01  8424   0.883E+01 0.609E+01
CGA:  92    -0.672071526011E+03   -0.30817E+01   -0.45098E+01  8424   0.811E+01 0.295E+01
CGA:  93    -0.672934795867E+03   -0.86327E+00   -0.39973E+01  8424   0.548E+01 0.148E+01
CGA:  94    -0.673848855163E+03   -0.91406E+00   -0.11474E+01  8424   0.304E+01 0.310E+01
CGA:  95    -0.675145546275E+03   -0.12967E+01   -0.15490E+01  8424   0.266E+01 0.193E+00
CGA:  96    -0.675745137149E+03   -0.59959E+00   -0.72776E+00  8424   0.579E+00-0.307E+00
CGA:  97    -0.675882976937E+03   -0.13784E+00   -0.13056E+00  8424   0.158E+00 0.516E-02
CGA:  98    -0.675926954524E+03   -0.43978E-01   -0.46862E-01  8424   0.735E-01-0.585E-02
CGA:  99    -0.675947105106E+03   -0.20151E-01   -0.19863E-01  8424   0.306E-01-0.251E-02
CGA: 100    -0.675959959636E+03   -0.12855E-01   -0.12132E-01  8424   0.159E-01-0.156E-02
CGA: 101    -0.675964690341E+03   -0.47307E-02   -0.40492E-02  8424   0.573E-02-0.628E-03
CGA: 102    -0.675967845067E+03   -0.31547E-02   -0.27343E-02  8424   0.446E-02-0.142E-02
CGA: 103    -0.675969592830E+03   -0.17478E-02   -0.11503E-02  8424   0.284E-02-0.139E-02
CGA: 104    -0.675971094136E+03   -0.15013E-02   -0.97523E-03  8424   0.350E-02-0.165E-02
CGA: 105    -0.675972073379E+03   -0.97924E-03   -0.72380E-03  8424   0.152E-02-0.554E-03
CGA: 106    -0.675971232391E+03    0.84099E-03   -0.18940E-02  8424   0.186E-01-0.657E-02
CGA: 107    -0.675974674622E+03   -0.34422E-02   -0.31370E-02  8424   0.387E-02-0.750E-03
CGA: 108    -0.675976164522E+03   -0.14899E-02   -0.13141E-02  8424   0.130E-02-0.517E-03
CGA: 109    -0.675976642742E+03   -0.47822E-03   -0.12271E-02  8424   0.115E-01-0.208E-02
CGA: 110    -0.675978273128E+03   -0.16304E-02   -0.15379E-02  8424   0.113E-02-0.171E-03
CGA: 111    -0.675979074170E+03   -0.80104E-03   -0.86579E-03  8424   0.270E-02-0.106E-02
CGA: 112    -0.675979822858E+03   -0.74869E-03   -0.56954E-03  8424   0.929E-03-0.359E-03
CGA: 113    -0.675980236300E+03   -0.41344E-03   -0.24833E-03  8424   0.680E-03-0.431E-03
CGA: 114    -0.675981624446E+03   -0.13881E-02    0.66720E-04  8424   0.785E-03-0.856E-04
CGA: 115    -0.675983669787E+03   -0.20453E-02    0.18945E-03  8424   0.252E-02-0.384E-03
CGA: 116    -0.675990212918E+03   -0.65431E-02    0.15555E-03  8424   0.628E-02-0.176E-02
CGA: 117    -0.675991812355E+03   -0.15994E-02   -0.16155E-02  8424   0.119E-02 0.400E-04
CGA: 118    -0.675992129115E+03   -0.31676E-03   -0.22731E-03  8424   0.240E-03-0.195E-03
CGA: 119    -0.675991880899E+03    0.24822E-03   -0.26711E-03  8424   0.577E-02-0.733E-03
CGA: 120    -0.675992814010E+03   -0.93311E-03   -0.81875E-03  8424   0.538E-03-0.247E-03
CGA: 121    -0.675992985678E+03   -0.17167E-03   -0.14154E-03  8424   0.153E-03-0.836E-04
CGA: 122    -0.675993294906E+03   -0.30923E-03    0.42805E-04  8424   0.337E-03-0.760E-04
CGA: 123    -0.675993973743E+03   -0.67884E-03    0.23515E-04  8424   0.883E-03-0.182E-03
CGA: 124    -0.675994281364E+03   -0.30762E-03   -0.23746E-03  8424   0.491E-03-0.201E-03
CGA: 125    -0.675994417486E+03   -0.13612E-03   -0.99559E-04  8424   0.184E-03-0.108E-03
CGA: 126    -0.675994710210E+03   -0.29272E-03    0.56078E-04  8424   0.205E-03-0.624E-04
CGA: 127    -0.675995250760E+03   -0.54055E-03    0.16480E-04  8424   0.148E-03 0.748E-04
CGA: 128    -0.675995719730E+03   -0.46897E-03    0.59609E-04  8424   0.418E-03-0.687E-04
CGA: 129    -0.675997032821E+03   -0.13131E-02    0.16279E-04  8424   0.164E-02-0.367E-03
CGA: 130    -0.675997559744E+03   -0.52692E-03   -0.50175E-03  8424   0.132E-03-0.922E-04
CGA: 131    -0.675997268802E+03    0.29094E-03   -0.20480E-03  8424   0.377E-02-0.466E-03
CGA: 132    -0.675997888253E+03   -0.61945E-03   -0.60967E-03  8424   0.271E-03-0.256E-04
CGA: 133    -0.675998038505E+03   -0.15025E-03   -0.13794E-03  8424   0.286E-03-0.140E-03
CGA: 134    -0.675998112644E+03   -0.74139E-04   -0.62890E-04  8424   0.606E-04-0.301E-04
CGA: 135    -0.675998240005E+03   -0.12736E-03    0.15169E-04  8424   0.159E-03-0.217E-04
CGA: 136    -0.675998662952E+03   -0.42295E-03    0.11459E-04  8424   0.215E-03 0.566E-04
CGA: 137    -0.675999292353E+03   -0.62940E-03    0.97073E-04  8424   0.879E-03-0.104E-03
CGA: 138    -0.676001586877E+03   -0.22945E-02    0.38450E-04  8424   0.549E-02-0.955E-03
CGA: 139    -0.676002588679E+03   -0.10018E-02   -0.97620E-03  8424   0.618E-03-0.614E-04
CGA: 140    -0.676002717158E+03   -0.12848E-03   -0.12742E-03  8424   0.318E-04-0.361E-05
CGA: 141    -0.676002421077E+03    0.29608E-03   -0.15991E-03  8424   0.212E-02-0.145E-03
CGA: 142    -0.676002858836E+03   -0.43776E-03   -0.44777E-03  8424   0.339E-03 0.147E-04
CGA: 143    -0.676002965061E+03   -0.10623E-03   -0.80820E-04  8424   0.684E-04-0.362E-04
CGA: 144    -0.676002995208E+03   -0.30147E-04   -0.26137E-04  8424   0.503E-04-0.863E-05
CGA: 145    -0.676003132217E+03   -0.13701E-03    0.25864E-04  8424   0.180E-03-0.168E-04
CGA: 146    -0.676003465244E+03   -0.33303E-03    0.93875E-04  8424   0.529E-03-0.843E-04
CGA: 147    -0.676004997873E+03   -0.15326E-02    0.60135E-04  8424   0.109E-02-0.194E-03
CGA: 148    -0.676010306506E+03   -0.53086E-02    0.91689E-04  8424   0.283E-02-0.318E-03
CGA: 149    -0.676031095525E+03   -0.20789E-01    0.18327E-03  8424   0.142E-01-0.517E-02
CGA: 150    -0.676033543055E+03   -0.24475E-02   -0.24633E-02  8424   0.265E-02-0.114E-03
CGA: 151    -0.676034077445E+03   -0.53439E-03   -0.78938E-03  8424   0.691E-03 0.465E-03
CGA: 152    -0.676034114108E+03   -0.36663E-04   -0.23250E-03  8424   0.354E-03 0.363E-03
CGA: 153    -0.676034078208E+03    0.35899E-04   -0.74634E-04  8424   0.206E-03 0.188E-03
CGA: 154    -0.676034013940E+03    0.64268E-04   -0.34650E-04  8424   0.158E-03 0.163E-03
CGA: 155    -0.676033950766E+03    0.63175E-04   -0.23856E-04  8424   0.142E-03 0.143E-03
CGA: 156    -0.676033887254E+03    0.63511E-04   -0.18775E-04  8424   0.143E-03 0.130E-03
CGA: 157    -0.676033818285E+03    0.68970E-04   -0.17809E-04  8424   0.163E-03 0.126E-03
CGA: 158    -0.676033742783E+03    0.75501E-04   -0.20833E-04  8424   0.197E-03 0.131E-03
CGA: 159    -0.676033659618E+03    0.83165E-04   -0.26996E-04  8424   0.230E-03 0.140E-03
CGA: 160    -0.676033582218E+03    0.77400E-04   -0.33872E-04  8424   0.244E-03 0.146E-03
CGA: 161    -0.676033518054E+03    0.64165E-04   -0.36710E-04  8424   0.209E-03 0.129E-03
CGA: 162    -0.676033461694E+03    0.56360E-04   -0.28591E-04  8424   0.173E-03 0.118E-03
CGA: 163    -0.676033422181E+03    0.39513E-04   -0.20654E-04  8424   0.128E-03 0.897E-04
CGA: 164    -0.676033382959E+03    0.39222E-04   -0.11826E-04  8424   0.107E-03 0.791E-04
CGA: 165    -0.676033351428E+03    0.31531E-04   -0.84104E-05  8424   0.832E-04 0.718E-04
CGA: 166    -0.676033324436E+03    0.26992E-04   -0.51141E-05  8424   0.730E-04 0.688E-04
CGA: 167    -0.676033300641E+03    0.23795E-04   -0.38642E-05  8424   0.656E-04 0.671E-04
CGA: 168    -0.676033278951E+03    0.21691E-04   -0.30408E-05  8424   0.676E-04 0.641E-04
CGA: 169    -0.676033258233E+03    0.20717E-04   -0.30692E-05  8424   0.607E-04 0.600E-04
CGA: 170    -0.676033239368E+03    0.18865E-04   -0.24087E-05  8424   0.606E-04 0.588E-04
CGA: 171    -0.676033221450E+03    0.17918E-04   -0.22947E-05  8424   0.582E-04 0.576E-04
CGA: 172    -0.676033204704E+03    0.16746E-04   -0.20398E-05  8424   0.591E-04 0.566E-04
CGA: 173    -0.676033188624E+03    0.16080E-04   -0.20016E-05  8424   0.569E-04 0.558E-04
CGA: 174    -0.676033173598E+03    0.15026E-04   -0.17872E-05  8424   0.579E-04 0.551E-04
CGA: 175    -0.676033159192E+03    0.14407E-04   -0.17600E-05  8424   0.556E-04 0.546E-04
CGA: 176    -0.676033145739E+03    0.13453E-04   -0.15654E-05  8424   0.570E-04 0.540E-04
CGA: 177    -0.676033132837E+03    0.12902E-04   -0.15654E-05  8424   0.542E-04 0.536E-04
CGA: 178    -0.676033120826E+03    0.12010E-04   -0.13657E-05  8424   0.563E-04 0.531E-04
CGA: 179    -0.676033109166E+03    0.11660E-04   -0.13962E-05  8424   0.541E-04 0.524E-04
CGA: 180    -0.676033098286E+03    0.10880E-04   -0.12402E-05  8424   0.526E-04 0.526E-04
CGA: 181    -0.676033088102E+03    0.10184E-04   -0.11302E-05  8424   0.540E-04 0.524E-04
CGA: 182    -0.676033078256E+03    0.98460E-05   -0.11251E-05  8424   0.520E-04 0.519E-04
   1 F= -.67603308E+03 E0= -.67603308E+03  d E =-.676033E+03  mag=     1.0000
       N       E                     dE             d eps       ncg     rms          ort
SDA:   1    -0.676034502726E+03   -0.14146E-02    0.00000E+00  8424   0.222E-02 0.000E+00
CGA:   2    -0.676035048073E+03   -0.54535E-03   -0.52632E-03  8424   0.591E-03 0.627E-03
CGA:   3    -0.676035121762E+03   -0.73689E-04   -0.10249E-03  8424   0.222E-03 0.395E-03
CGA:   4    -0.676035115937E+03    0.58243E-05   -0.17355E-04  8424   0.158E-03 0.184E-03
   2 F= -.67603512E+03 E0= -.67603512E+03  d E =-.203768E-02  mag=     1.0000
       N       E                     dE             d eps       ncg     rms          ort
SDA:   1    -0.676035172426E+03   -0.50665E-04    0.00000E+00  8424   0.170E-01 0.000E+00
CGA:   2    -0.676040464916E+03   -0.52925E-02   -0.51521E-02  8424   0.529E-02 0.125E-02
CGA:   3    -0.676041601693E+03   -0.11368E-02   -0.11362E-02  8424   0.158E-02 0.162E-03
CGA:   4    -0.676041779007E+03   -0.17731E-03   -0.20952E-03  8424   0.315E-03 0.469E-03
CGA:   5    -0.676041775005E+03    0.40025E-05   -0.28840E-04  8424   0.158E-03 0.267E-03
   3 F= -.67604178E+03 E0= -.67604178E+03  d E =-.665907E-02  mag=     1.0000
       N       E                     dE             d eps       ncg     rms          ort
SDA:   1    -0.665583319410E+03    0.10458E+02    0.00000E+00  8424   0.264E+02 0.000E+00
CGA:   2    -0.673865573864E+03   -0.82823E+01   -0.82938E+01  8424   0.961E+01-0.466E-01
CGA:   3    -0.675579971642E+03   -0.17144E+01   -0.17152E+01  8424   0.268E+01 0.527E-01
CGA:   4    -0.676085709556E+03   -0.50574E+00   -0.50575E+00  8424   0.580E+00-0.101E-01
CGA:   5    -0.676186119048E+03   -0.10041E+00   -0.10042E+00  8424   0.161E+00 0.131E-02
CGA:   6    -0.676217245646E+03   -0.31127E-01   -0.31087E-01  8424   0.417E-01 0.563E-02
CGA:   7    -0.676229471293E+03   -0.12226E-01   -0.12027E-01  8424   0.176E-01 0.217E-02
CGA:   8    -0.676233754756E+03   -0.42835E-02   -0.41794E-02  8424   0.646E-02 0.306E-02
CGA:   9    -0.676235092823E+03   -0.13381E-02   -0.13776E-02  8424   0.279E-02 0.354E-02
CGA:  10    -0.676235422023E+03   -0.32920E-03   -0.41193E-03  8424   0.154E-02 0.186E-02
CGA:  11    -0.676235481391E+03   -0.59367E-04   -0.16979E-03  8424   0.126E-02 0.139E-02
CGA:  12    -0.676235491361E+03   -0.99703E-05   -0.11833E-03  8424   0.110E-02 0.118E-02
CGA:  13    -0.676235479128E+03    0.12233E-04   -0.91320E-04  8424   0.999E-03 0.105E-02
CGA:  14    -0.676235455463E+03    0.23665E-04   -0.74436E-04  8424   0.924E-03 0.961E-03
CGA:  15    -0.676235425509E+03    0.29954E-04   -0.62763E-04  8424   0.867E-03 0.895E-03
CGA:  16    -0.676235392055E+03    0.33454E-04   -0.54160E-04  8424   0.821E-03 0.844E-03
CGA:  17    -0.676235356738E+03    0.35317E-04   -0.47533E-04  8424   0.784E-03 0.802E-03
CGA:  18    -0.676235320574E+03    0.36164E-04   -0.42259E-04  8424   0.753E-03 0.768E-03
CGA:  19    -0.676235284214E+03    0.36360E-04   -0.37952E-04  8424   0.727E-03 0.740E-03
CGA:  20    -0.676235248088E+03    0.36126E-04   -0.34364E-04  8424   0.704E-03 0.715E-03
CGA:  21    -0.676235212480E+03    0.35607E-04   -0.31326E-04  8424   0.685E-03 0.694E-03
CGA:  22    -0.676235177583E+03    0.34897E-04   -0.28717E-04  8424   0.667E-03 0.676E-03
CGA:  23    -0.676235143522E+03    0.34061E-04   -0.26450E-04  8424   0.652E-03 0.660E-03
CGA:  24    -0.676235110381E+03    0.33142E-04   -0.24463E-04  8424   0.639E-03 0.645E-03
CGA:  25    -0.676235078210E+03    0.32171E-04   -0.22708E-04  8424   0.627E-03 0.632E-03
CGA:  26    -0.676235047038E+03    0.31172E-04   -0.21146E-04  8424   0.616E-03 0.621E-03
CGA:  27    -0.676235016878E+03    0.30161E-04   -0.19743E-04  8424   0.606E-03 0.611E-03
CGA:  28    -0.676234987729E+03    0.29149E-04   -0.18478E-04  8424   0.597E-03 0.601E-03
CGA:  29    -0.676234959583E+03    0.28146E-04   -0.17330E-04  8424   0.589E-03 0.593E-03
CGA:  30    -0.676234932426E+03    0.27157E-04   -0.16284E-04  8424   0.582E-03 0.585E-03
CGA:  31    -0.676234906239E+03    0.26186E-04   -0.15327E-04  8424   0.575E-03 0.578E-03
CGA:  32    -0.676234881002E+03    0.25237E-04   -0.14449E-04  8424   0.569E-03 0.571E-03
CGA:  33    -0.676234856689E+03    0.24313E-04   -0.13641E-04  8424   0.563E-03 0.565E-03
CGA:  34    -0.676234833275E+03    0.23414E-04   -0.12894E-04  8424   0.557E-03 0.560E-03
CGA:  35    -0.676234810733E+03    0.22542E-04   -0.12202E-04  8424   0.553E-03 0.555E-03
CGA:  36    -0.676234789037E+03    0.21697E-04   -0.11560E-04  8424   0.548E-03 0.550E-03
CGA:  37    -0.676234768157E+03    0.20879E-04   -0.10962E-04  8424   0.544E-03 0.546E-03
CGA:  38    -0.676234748068E+03    0.20089E-04   -0.10405E-04  8424   0.540E-03 0.542E-03
CGA:  39    -0.676234728741E+03    0.19327E-04   -0.98833E-05  8424   0.536E-03 0.538E-03
CGA:  40    -0.676234710150E+03    0.18591E-04   -0.93953E-05  8424   0.533E-03 0.534E-03
CGA:  41    -0.676234692269E+03    0.17882E-04   -0.89375E-05  8424   0.530E-03 0.531E-03
CGA:  42    -0.676234675070E+03    0.17198E-04   -0.85074E-05  8424   0.527E-03 0.528E-03
CGA:  43    -0.676234658530E+03    0.16540E-04   -0.81028E-05  8424   0.524E-03 0.525E-03
CGA:  44    -0.676234642623E+03    0.15907E-04   -0.77215E-05  8424   0.521E-03 0.522E-03
CGA:  45    -0.676234627326E+03    0.15297E-04   -0.73618E-05  8424   0.519E-03 0.520E-03
CGA:  46    -0.676234612616E+03    0.14710E-04   -0.70218E-05  8424   0.516E-03 0.517E-03
CGA:  47    -0.676234598470E+03    0.14146E-04   -0.67002E-05  8424   0.514E-03 0.515E-03
CGA:  48    -0.676234584867E+03    0.13603E-04   -0.63956E-05  8424   0.512E-03 0.513E-03
CGA:  49    -0.676234571787E+03    0.13080E-04   -0.61070E-05  8424   0.510E-03 0.511E-03
CGA:  50    -0.676234559209E+03    0.12578E-04   -0.58332E-05  8424   0.508E-03 0.509E-03
CGA:  51    -0.676234547115E+03    0.12094E-04   -0.55732E-05  8424   0.507E-03 0.507E-03
CGA:  52    -0.676234535485E+03    0.11629E-04   -0.53262E-05  8424   0.505E-03 0.506E-03
CGA:  53    -0.676234524303E+03    0.11182E-04   -0.50915E-05  8424   0.504E-03 0.504E-03
CGA:  54    -0.676234513551E+03    0.10752E-04   -0.48682E-05  8424   0.502E-03 0.503E-03
CGA:  55    -0.676234503213E+03    0.10338E-04   -0.46556E-05  8424   0.501E-03 0.501E-03
CGA:  56    -0.676234493272E+03    0.99405E-05   -0.44533E-05  8424   0.499E-03 0.500E-03
   4 F= -.67623449E+03 E0= -.67623449E+03  d E =-.192718E+00  mag=     1.0000
       N       E                     dE             d eps       ncg     rms          ort
SDA:   1    -0.675809844709E+03    0.42466E+00    0.00000E+00  8424   0.116E+01 0.000E+00
CGA:   2    -0.676109820300E+03   -0.29998E+00   -0.34855E-01  8424   0.443E+00 0.162E+00
CGA:   3    -0.676219081209E+03   -0.10926E+00   -0.10753E+00  8424   0.132E+00 0.115E-01
CGA:   4    -0.676241089496E+03   -0.22008E-01   -0.21485E-01  8424   0.307E-01 0.595E-02
CGA:   5    -0.676246489478E+03   -0.54000E-02   -0.49986E-02  8424   0.607E-02 0.500E-02
CGA:   6    -0.676247469472E+03   -0.97999E-03   -0.83844E-03  8424   0.227E-02 0.359E-02
CGA:   7    -0.676247633723E+03   -0.16425E-03   -0.17318E-03  8424   0.149E-02 0.179E-02
CGA:   8    -0.676247688684E+03   -0.54961E-04   -0.86461E-04  8424   0.123E-02 0.135E-02
CGA:   9    -0.676247712618E+03   -0.23934E-04   -0.59934E-04  8424   0.108E-02 0.115E-02
CGA:  10    -0.676247721910E+03   -0.92920E-05   -0.45946E-04  8424   0.975E-03 0.102E-02
CGA:  11    -0.676247723101E+03   -0.11915E-05   -0.37185E-04  8424   0.900E-03 0.934E-03
CGA:  12    -0.676247719431E+03    0.36705E-05   -0.31152E-04  8424   0.842E-03 0.868E-03
CGA:  13    -0.676247712708E+03    0.67227E-05   -0.26734E-04  8424   0.796E-03 0.816E-03
CGA:  14    -0.676247704025E+03    0.86828E-05   -0.23352E-04  8424   0.758E-03 0.775E-03
CGA:  15    -0.676247694078E+03    0.99472E-05   -0.20673E-04  8424   0.727E-03 0.740E-03
CGA:  16    -0.676247683330E+03    0.10748E-04   -0.18498E-04  8424   0.701E-03 0.712E-03
CGA:  17    -0.676247672112E+03    0.11218E-04   -0.16714E-04  8424   0.678E-03 0.687E-03
CGA:  18    -0.676247660642E+03    0.11470E-04   -0.15209E-04  8424   0.658E-03 0.666E-03
CGA:  19    -0.676247649076E+03    0.11567E-04   -0.13917E-04  8424   0.641E-03 0.648E-03
CGA:  20    -0.676247637524E+03    0.11552E-04   -0.12794E-04  8424   0.626E-03 0.632E-03
CGA:  21    -0.676247626069E+03    0.11455E-04   -0.11811E-04  8424   0.612E-03 0.617E-03
CGA:  22    -0.676247614771E+03    0.11298E-04   -0.10941E-04  8424   0.599E-03 0.604E-03
CGA:  23    -0.676247603675E+03    0.11096E-04   -0.10166E-04  8424   0.588E-03 0.593E-03
CGA:  24    -0.676247592812E+03    0.10863E-04   -0.94720E-05  8424   0.578E-03 0.582E-03
CGA:  25    -0.676247582206E+03    0.10606E-04   -0.88465E-05  8424   0.569E-03 0.572E-03
CGA:  26    -0.676247571873E+03    0.10333E-04   -0.82800E-05  8424   0.560E-03 0.563E-03
CGA:  27    -0.676247561823E+03    0.10050E-04   -0.77646E-05  8424   0.552E-03 0.555E-03
CGA:  28    -0.676247552062E+03    0.97607E-05   -0.72940E-05  8424   0.545E-03 0.548E-03
   5 F= -.67624755E+03 E0= -.67624755E+03  d E =-.130588E-01  mag=     1.0000
       N       E                     dE             d eps       ncg     rms          ort
SDA:   1    -0.676181876363E+03    0.65685E-01    0.00000E+00  8424   0.159E+00 0.000E+00
CGA:   2    -0.676233845854E+03   -0.51969E-01   -0.87740E-02  8424   0.443E-01 0.358E-01
CGA:   3    -0.676245865252E+03   -0.12019E-01   -0.11043E-01  8424   0.129E-01 0.761E-02
CGA:   4    -0.676248355008E+03   -0.24898E-02   -0.22400E-02  8424   0.280E-02 0.378E-02
CGA:   5    -0.676248701787E+03   -0.34678E-03   -0.33184E-03  8424   0.126E-02 0.227E-02
CGA:   6    -0.676248736916E+03   -0.35130E-04   -0.68728E-04  8424   0.962E-03 0.109E-02
CGA:   7    -0.676248744876E+03   -0.79595E-05   -0.42921E-04  8424   0.827E-03 0.893E-03
CGA:   8    -0.676248742935E+03    0.19405E-05   -0.31957E-04  8424   0.743E-03 0.785E-03
CGA:   9    -0.676248736142E+03    0.67938E-05   -0.25524E-04  8424   0.683E-03 0.713E-03
CGA:  10    -0.676248726721E+03    0.94207E-05   -0.21225E-04  8424   0.639E-03 0.661E-03
CGA:  11    -0.676248715837E+03    0.10884E-04   -0.18131E-04  8424   0.604E-03 0.621E-03
CGA:  12    -0.676248704157E+03    0.11679E-04   -0.15792E-04  8424   0.575E-03 0.590E-03
CGA:  13    -0.676248692090E+03    0.12068E-04   -0.13956E-04  8424   0.552E-03 0.564E-03
CGA:  14    -0.676248679891E+03    0.12198E-04   -0.12476E-04  8424   0.532E-03 0.542E-03
CGA:  15    -0.676248667731E+03    0.12160E-04   -0.11255E-04  8424   0.515E-03 0.524E-03
CGA:  16    -0.676248655719E+03    0.12012E-04   -0.10229E-04  8424   0.501E-03 0.508E-03
CGA:  17    -0.676248643933E+03    0.11787E-04   -0.93590E-05  8424   0.489E-03 0.495E-03
CGA:  18    -0.676248632423E+03    0.11509E-04   -0.86224E-05  8424   0.478E-03 0.483E-03
CGA:  19    -0.676248621221E+03    0.11203E-04   -0.79775E-05  8424   0.469E-03 0.473E-03
CGA:  20    -0.676248610342E+03    0.10878E-04   -0.74065E-05  8424   0.460E-03 0.464E-03
CGA:  21    -0.676248599799E+03    0.10544E-04   -0.68971E-05  8424   0.453E-03 0.456E-03
CGA:  22    -0.676248589594E+03    0.10204E-04   -0.64396E-05  8424   0.446E-03 0.449E-03
CGA:  23    -0.676248579730E+03    0.98642E-05   -0.60265E-05  8424   0.439E-03 0.442E-03
   6 F= -.67624858E+03 E0= -.67624858E+03  d E =-.102767E-02  mag=     1.0000
       N       E                     dE             d eps       ncg     rms          ort
SDA:   1    -0.675773237527E+03    0.47535E+00    0.00000E+00  8424   0.108E+01 0.000E+00
CGA:   2    -0.676153772090E+03   -0.38053E+00   -0.53018E-01  8424   0.278E+00 0.193E+00
CGA:   3    -0.676225526461E+03   -0.71754E-01   -0.70519E-01  8424   0.960E-01 0.931E-02
CGA:   4    -0.676242326490E+03   -0.16800E-01   -0.16604E-01  8424   0.199E-01 0.253E-02
CGA:   5    -0.676245475787E+03   -0.31493E-02   -0.29831E-02  8424   0.411E-02 0.320E-02
CGA:   6    -0.676246051799E+03   -0.57601E-03   -0.53494E-03  8424   0.177E-02 0.265E-02
CGA:   7    -0.676246179935E+03   -0.12814E-03   -0.14746E-03  8424   0.116E-02 0.137E-02
CGA:   8    -0.676246219966E+03   -0.40031E-04   -0.74587E-04  8424   0.972E-03 0.106E-02
CGA:   9    -0.676246235671E+03   -0.15705E-04   -0.52811E-04  8424   0.857E-03 0.908E-03
CGA:  10    -0.676246239610E+03   -0.39390E-05   -0.40909E-04  8424   0.778E-03 0.813E-03
CGA:  11    -0.676246236977E+03    0.26328E-05   -0.33278E-04  8424   0.720E-03 0.746E-03
CGA:  12    -0.676246230417E+03    0.65603E-05   -0.27950E-04  8424   0.675E-03 0.695E-03
CGA:  13    -0.676246221431E+03    0.89858E-05   -0.24017E-04  8424   0.639E-03 0.654E-03
CGA:  14    -0.676246210936E+03    0.10495E-04   -0.20993E-04  8424   0.609E-03 0.622E-03
CGA:  15    -0.676246199517E+03    0.11419E-04   -0.18596E-04  8424   0.584E-03 0.595E-03
CGA:  16    -0.676246187564E+03    0.11952E-04   -0.16652E-04  8424   0.564E-03 0.573E-03
CGA:  17    -0.676246175345E+03    0.12219E-04   -0.15048E-04  8424   0.546E-03 0.554E-03
CGA:  18    -0.676246163042E+03    0.12303E-04   -0.13698E-04  8424   0.531E-03 0.537E-03
CGA:  19    -0.676246150783E+03    0.12259E-04   -0.12545E-04  8424   0.517E-03 0.523E-03
CGA:  20    -0.676246138656E+03    0.12127E-04   -0.11547E-04  8424   0.506E-03 0.511E-03
CGA:  21    -0.676246126726E+03    0.11930E-04   -0.10674E-04  8424   0.495E-03 0.499E-03
CGA:  22    -0.676246115038E+03    0.11689E-04   -0.99037E-05  8424   0.486E-03 0.490E-03
CGA:  23    -0.676246103622E+03    0.11416E-04   -0.92187E-05  8424   0.477E-03 0.481E-03
CGA:  24    -0.676246092500E+03    0.11122E-04   -0.86052E-05  8424   0.470E-03 0.473E-03
CGA:  25    -0.676246081687E+03    0.10814E-04   -0.80527E-05  8424   0.463E-03 0.466E-03
CGA:  26    -0.676246071189E+03    0.10497E-04   -0.75522E-05  8424   0.456E-03 0.459E-03
CGA:  27    -0.676246061012E+03    0.10177E-04   -0.70969E-05  8424   0.451E-03 0.453E-03
CGA:  28    -0.676246051156E+03    0.98561E-05   -0.66807E-05  8424   0.445E-03 0.448E-03
   7 F= -.67624605E+03 E0= -.67624605E+03  d E =0.252857E-02  mag=     1.0000
       N       E                     dE             d eps       ncg     rms          ort
SDA:   1    -0.675661769097E+03    0.58429E+00    0.00000E+00  8424   0.137E+01 0.000E+00
CGA:   2    -0.676108572672E+03   -0.44680E+00   -0.31134E-01  8424   0.556E+00 0.589E-01
CGA:   3    -0.676210583999E+03   -0.10201E+00   -0.10135E+00  8424   0.125E+00 0.754E-02
CGA:   4    -0.676232167346E+03   -0.21583E-01   -0.21343E-01  8424   0.317E-01 0.312E-02
CGA:   5    -0.676237600766E+03   -0.54334E-02   -0.52159E-02  8424   0.627E-02 0.336E-02
CGA:   6    -0.676238652891E+03   -0.10521E-02   -0.94384E-03  8424   0.197E-02 0.294E-02
CGA:   7    -0.676238877679E+03   -0.22479E-03   -0.25141E-03  8424   0.115E-02 0.188E-02
CGA:   8    -0.676238924710E+03   -0.47032E-04   -0.79096E-04  8424   0.928E-03 0.102E-02
CGA:   9    -0.676238940522E+03   -0.15811E-04   -0.52431E-04  8424   0.822E-03 0.866E-03
CGA:  10    -0.676238944485E+03   -0.39630E-05   -0.40748E-04  8424   0.752E-03 0.781E-03
CGA:  11    -0.676238942185E+03    0.22998E-05   -0.33581E-04  8424   0.701E-03 0.722E-03
CGA:  12    -0.676238936162E+03    0.60230E-05   -0.28589E-04  8424   0.662E-03 0.678E-03
CGA:  13    -0.676238927807E+03    0.83547E-05   -0.24867E-04  8424   0.630E-03 0.643E-03
CGA:  14    -0.676238917964E+03    0.98426E-05   -0.21966E-04  8424   0.603E-03 0.614E-03
CGA:  15    -0.676238907178E+03    0.10786E-04   -0.19636E-04  8424   0.581E-03 0.590E-03
CGA:  16    -0.676238895815E+03    0.11363E-04   -0.17718E-04  8424   0.562E-03 0.570E-03
CGA:  17    -0.676238884129E+03    0.11686E-04   -0.16111E-04  8424   0.546E-03 0.552E-03
CGA:  18    -0.676238872300E+03    0.11829E-04   -0.14743E-04  8424   0.531E-03 0.537E-03
CGA:  19    -0.676238860458E+03    0.11843E-04   -0.13563E-04  8424   0.519E-03 0.524E-03
CGA:  20    -0.676238848694E+03    0.11764E-04   -0.12534E-04  8424   0.508E-03 0.512E-03
CGA:  21    -0.676238837078E+03    0.11616E-04   -0.11629E-04  8424   0.498E-03 0.502E-03
CGA:  22    -0.676238825659E+03    0.11419E-04   -0.10826E-04  8424   0.489E-03 0.493E-03
CGA:  23    -0.676238814472E+03    0.11187E-04   -0.10109E-04  8424   0.481E-03 0.484E-03
CGA:  24    -0.676238803543E+03    0.10929E-04   -0.94629E-05  8424   0.474E-03 0.477E-03
CGA:  25    -0.676238792889E+03    0.10654E-04   -0.88787E-05  8424   0.467E-03 0.470E-03
CGA:  26    -0.676238782521E+03    0.10367E-04   -0.83475E-05  8424   0.461E-03 0.464E-03
CGA:  27    -0.676238772448E+03    0.10074E-04   -0.78624E-05  8424   0.456E-03 0.458E-03
CGA:  28    -0.676238762672E+03    0.97760E-05   -0.74175E-05  8424   0.451E-03 0.453E-03
   8 F= -.67623876E+03 E0= -.67623876E+03  d E =0.728848E-02  mag=     1.0000
       N       E                     dE             d eps       ncg     rms          ort
SDA:   1    -0.675922786238E+03    0.31599E+00    0.00000E+00  8424   0.753E+00 0.000E+00
CGA:   2    -0.676155506493E+03   -0.23272E+00   -0.81188E-02  8424   0.409E+00-0.427E-01
CGA:   3    -0.676217568671E+03   -0.62062E-01   -0.61763E-01  8424   0.752E-01 0.434E-02
CGA:   4    -0.676230183596E+03   -0.12615E-01   -0.12405E-01  8424   0.191E-01 0.308E-02
CGA:   5    -0.676233474467E+03   -0.32909E-02   -0.31196E-02  8424   0.396E-02 0.294E-02
CGA:   6    -0.676234068055E+03   -0.59359E-03   -0.55218E-03  8424   0.149E-02 0.219E-02
CGA:   7    -0.676234169175E+03   -0.10112E-03   -0.12381E-03  8424   0.956E-03 0.115E-02
CGA:   8    -0.676234194671E+03   -0.25496E-04   -0.59542E-04  8424   0.790E-03 0.862E-03
CGA:   9    -0.676234201151E+03   -0.64802E-05   -0.41405E-04  8424   0.697E-03 0.737E-03
CGA:  10    -0.676234199235E+03    0.19158E-05   -0.32085E-04  8424   0.635E-03 0.662E-03
CGA:  11    -0.676234192916E+03    0.63191E-05   -0.26284E-04  8424   0.590E-03 0.610E-03
CGA:  12    -0.676234184100E+03    0.88165E-05   -0.22281E-04  8424   0.556E-03 0.571E-03
CGA:  13    -0.676234173825E+03    0.10275E-04   -0.19332E-04  8424   0.529E-03 0.541E-03
CGA:  14    -0.676234162708E+03    0.11117E-04   -0.17059E-04  8424   0.508E-03 0.517E-03
CGA:  15    -0.676234151135E+03    0.11573E-04   -0.15247E-04  8424   0.489E-03 0.497E-03
CGA:  16    -0.676234139359E+03    0.11776E-04   -0.13766E-04  8424   0.474E-03 0.480E-03
CGA:  17    -0.676234127548E+03    0.11811E-04   -0.12530E-04  8424   0.461E-03 0.466E-03
CGA:  18    -0.676234115819E+03    0.11730E-04   -0.11482E-04  8424   0.449E-03 0.454E-03
CGA:  19    -0.676234104250E+03    0.11569E-04   -0.10579E-04  8424   0.439E-03 0.443E-03
CGA:  20    -0.676234092896E+03    0.11353E-04   -0.97934E-05  8424   0.431E-03 0.434E-03
CGA:  21    -0.676234081796E+03    0.11100E-04   -0.91022E-05  8424   0.423E-03 0.426E-03
CGA:  22    -0.676234070975E+03    0.10821E-04   -0.84887E-05  8424   0.416E-03 0.419E-03
CGA:  23    -0.676234060448E+03    0.10527E-04   -0.79401E-05  8424   0.410E-03 0.412E-03
CGA:  24    -0.676234050227E+03    0.10222E-04   -0.74461E-05  8424   0.404E-03 0.406E-03
CGA:  25    -0.676234040315E+03    0.99117E-05   -0.69986E-05  8424   0.399E-03 0.401E-03
   9 F= -.67623404E+03 E0= -.67623404E+03  d E =0.472236E-02  mag=     1.0000
       N       E                     dE             d eps       ncg     rms          ort
SDA:   1    -0.676058453801E+03    0.17560E+00    0.00000E+00  8424   0.460E+00 0.000E+00
CGA:   2    -0.676181708995E+03   -0.12326E+00   -0.12176E+00  8424   0.224E+00 0.712E-02
CGA:   3    -0.676224859942E+03   -0.43151E-01   -0.42710E-01  8424   0.536E-01 0.359E-02
CGA:   4    -0.676233664088E+03   -0.88041E-02   -0.85126E-02  8424   0.119E-01 0.344E-02
CGA:   5    -0.676235661047E+03   -0.19970E-02   -0.18044E-02  8424   0.243E-02 0.290E-02
CGA:   6    -0.676235993120E+03   -0.33207E-03   -0.29775E-03  8424   0.114E-02 0.178E-02
CGA:   7    -0.676236055897E+03   -0.62777E-04   -0.75629E-04  8424   0.794E-03 0.932E-03
CGA:   8    -0.676236075852E+03   -0.19955E-04   -0.40583E-04  8424   0.662E-03 0.722E-03
CGA:   9    -0.676236082738E+03   -0.68858E-05   -0.28633E-04  8424   0.585E-03 0.621E-03
CGA:  10    -0.676236083480E+03   -0.74218E-06   -0.22196E-04  8424   0.532E-03 0.556E-03
CGA:  11    -0.676236080868E+03    0.26118E-05   -0.18107E-04  8424   0.493E-03 0.511E-03
CGA:  12    -0.676236076289E+03    0.45792E-05   -0.15259E-04  8424   0.463E-03 0.477E-03
CGA:  13    -0.676236070518E+03    0.57714E-05   -0.13155E-04  8424   0.439E-03 0.450E-03
CGA:  14    -0.676236064021E+03    0.64961E-05   -0.11533E-04  8424   0.419E-03 0.428E-03
CGA:  15    -0.676236057098E+03    0.69239E-05   -0.10242E-04  8424   0.403E-03 0.410E-03
  10 F= -.67623606E+03 E0= -.67623606E+03  d E =-.201678E-02  mag=     1.0000
       N       E                     dE             d eps       ncg     rms          ort
SDA:   1    -0.675927065005E+03    0.30900E+00    0.00000E+00  8424   0.729E+00 0.000E+00
CGA:   2    -0.676153653665E+03   -0.22659E+00   -0.70142E-03  8424   0.502E+00-0.167E+00
CGA:   3    -0.676207096527E+03   -0.53443E-01   -0.53375E-01  8424   0.109E+00 0.267E-02
CGA:   4    -0.676224774407E+03   -0.17678E-01   -0.17581E-01  8424   0.327E-01 0.207E-02
CGA:   5    -0.676230485849E+03   -0.57114E-02   -0.56224E-02  8424   0.860E-02 0.170E-02
CGA:   6    -0.676231957178E+03   -0.14713E-02   -0.14131E-02  8424   0.270E-02 0.158E-02
CGA:   7    -0.676232352085E+03   -0.39491E-03   -0.39276E-03  8424   0.107E-02 0.126E-02
CGA:   8    -0.676232451811E+03   -0.99726E-04   -0.13326E-03  8424   0.562E-03 0.920E-03
CGA:   9    -0.676232466713E+03   -0.14902E-04   -0.38641E-04  8424   0.402E-03 0.468E-03
CGA:  10    -0.676232463868E+03    0.28445E-05   -0.20835E-04  8424   0.335E-03 0.363E-03
CGA:  11    -0.676232456314E+03    0.75545E-05   -0.14466E-04  8424   0.296E-03 0.312E-03
CGA:  12    -0.676232447059E+03    0.92549E-05   -0.11106E-04  8424   0.270E-03 0.280E-03
  11 F= -.67623245E+03 E0= -.67623245E+03  d E =0.361004E-02  mag=     1.0000
       N       E                     dE             d eps       ncg     rms          ort
SDA:   1    -0.675962219695E+03    0.27024E+00    0.00000E+00  8424   0.591E+00 0.000E+00
CGA:   2    -0.676179234687E+03   -0.21701E+00   -0.21733E+00  8424   0.199E+00-0.120E-02
CGA:   3    -0.676211633227E+03   -0.32399E-01   -0.32255E-01  8424   0.430E-01 0.307E-02
CGA:   4    -0.676219507510E+03   -0.78743E-02   -0.78002E-02  8424   0.112E-01 0.122E-02
CGA:   5    -0.676221356923E+03   -0.18494E-02   -0.18104E-02  8424   0.217E-02 0.107E-02
CGA:   6    -0.676221688170E+03   -0.33125E-03   -0.32028E-03  8424   0.653E-03 0.967E-03
CGA:   7    -0.676221743674E+03   -0.55504E-04   -0.79507E-04  8424   0.371E-03 0.604E-03
CGA:   8    -0.676221749584E+03   -0.59099E-05   -0.24285E-04  8424   0.295E-03 0.325E-03
CGA:   9    -0.676221746989E+03    0.25952E-05   -0.15547E-04  8424   0.258E-03 0.273E-03
CGA:  10    -0.676221741550E+03    0.54391E-05   -0.11685E-04  8424   0.233E-03 0.243E-03
  12 F= -.67622174E+03 E0= -.67622174E+03  d E =0.107055E-01  mag=     1.0000
       N       E                     dE             d eps       ncg     rms          ort
SDA:   1    -0.676076129114E+03    0.14562E+00    0.00000E+00  8424   0.341E+00 0.000E+00
CGA:   2    -0.676167924619E+03   -0.91796E-01   -0.91682E-01  8424   0.157E+00 0.673E-03
CGA:   3    -0.676197060663E+03   -0.29136E-01   -0.29005E-01  8424   0.387E-01 0.190E-02
CGA:   4    -0.676203554468E+03   -0.64938E-02   -0.64389E-02  8424   0.926E-02 0.123E-02
CGA:   5    -0.676205103731E+03   -0.15493E-02   -0.15100E-02  8424   0.176E-02 0.110E-02
CGA:   6    -0.676205368729E+03   -0.26500E-03   -0.25871E-03  8424   0.553E-03 0.844E-03
CGA:   7    -0.676205409540E+03   -0.40811E-04   -0.64932E-04  8424   0.309E-03 0.536E-03
CGA:   8    -0.676205409690E+03   -0.15052E-06   -0.17880E-04  8424   0.250E-03 0.276E-03
CGA:   9    -0.676205404837E+03    0.48538E-05   -0.11832E-04  8424   0.219E-03 0.233E-03
  13 F= -.67620540E+03 E0= -.67620540E+03  d E =0.163367E-01  mag=     1.0000
       N       E                     dE             d eps       ncg     rms          ort
SDA:   1    -0.676074204226E+03    0.13121E+00    0.00000E+00  8424   0.311E+00 0.000E+00
CGA:   2    -0.676164741423E+03   -0.90537E-01   -0.90283E-01  8424   0.153E+00 0.140E-02
CGA:   3    -0.676191731119E+03   -0.26990E-01   -0.26911E-01  8424   0.316E-01 0.144E-02
CGA:   4    -0.676196915061E+03   -0.51839E-02   -0.51433E-02  8424   0.780E-02 0.106E-02
CGA:   5    -0.676198228565E+03   -0.13135E-02   -0.12774E-02  8424   0.150E-02 0.108E-02
CGA:   6    -0.676198441429E+03   -0.21286E-03   -0.21406E-03  8424   0.509E-03 0.790E-03
CGA:   7    -0.676198465073E+03   -0.23644E-04   -0.41423E-04  8424   0.323E-03 0.391E-03
CGA:   8    -0.676198465215E+03   -0.14182E-06   -0.19096E-04  8424   0.264E-03 0.290E-03
CGA:   9    -0.676198460345E+03    0.48703E-05   -0.12947E-04  8424   0.232E-03 0.246E-03
  14 F= -.67619846E+03 E0= -.67619846E+03  d E =0.694449E-02  mag=     1.0000
       N       E                     dE             d eps       ncg     rms          ort
SDA:   1    -0.675945705421E+03    0.25276E+00    0.00000E+00  8424   0.559E+00 0.000E+00
CGA:   2    -0.676138441351E+03   -0.19274E+00   -0.19245E+00  8424   0.226E+00 0.123E-02
CGA:   3    -0.676175749066E+03   -0.37308E-01   -0.37270E-01  8424   0.462E-01 0.921E-03
CGA:   4    -0.676183781355E+03   -0.80323E-02   -0.79824E-02  8424   0.121E-01 0.111E-02
CGA:   5    -0.676185827129E+03   -0.20458E-02   -0.20099E-02  8424   0.232E-02 0.110E-02
CGA:   6    -0.676186212977E+03   -0.38585E-03   -0.37195E-03  8424   0.646E-03 0.888E-03
CGA:   7    -0.676186272519E+03   -0.59542E-04   -0.82240E-04  8424   0.367E-03 0.568E-03
CGA:   8    -0.676186279122E+03   -0.66024E-05   -0.25689E-04  8424   0.287E-03 0.318E-03
CGA:   9    -0.676186276768E+03    0.23536E-05   -0.16317E-04  8424   0.251E-03 0.266E-03
CGA:  10    -0.676186271439E+03    0.53290E-05   -0.12312E-04  8424   0.228E-03 0.237E-03
  15 F= -.67618627E+03 E0= -.67618627E+03  d E =0.121889E-01  mag=     1.0000
       N       E                     dE             d eps       ncg     rms          ort
SDA:   1    -0.676087935258E+03    0.98342E-01    0.00000E+00  8424   0.278E+00 0.000E+00
CGA:   2    -0.676144344312E+03   -0.56409E-01   -0.56257E-01  8424   0.112E+00 0.171E-02
CGA:   3    -0.676168379382E+03   -0.24035E-01   -0.23915E-01  8424   0.371E-01 0.128E-02
CGA:   4    -0.676174520670E+03   -0.61413E-02   -0.60997E-02  8424   0.871E-02 0.110E-02
CGA:   5    -0.676175965788E+03   -0.14451E-02   -0.14147E-02  8424   0.158E-02 0.979E-03
CGA:   6    -0.676176208810E+03   -0.24302E-03   -0.23781E-03  8424   0.478E-03 0.704E-03
