       N       E                     dE             d eps       ncg     rms          ort
DAV:   1     0.284226019266E+04    0.28423E+04   -0.29309E+05  2880   0.140E+03
DAV:   2    -0.970220168586E+03   -0.38125E+04   -0.36754E+04  2880   0.313E+02
DAV:   3    -0.122974769100E+04   -0.25953E+03   -0.25790E+03  2880   0.852E+01
DAV:   4    -0.123277961820E+04   -0.30319E+01   -0.30216E+01  2880   0.980E+00
DAV:   5    -0.123282917163E+04   -0.49553E-01   -0.49444E-01  2880   0.115E+00
SDA:   6    -0.871380185555E+03    0.36145E+03   -0.49444E-01  2880   0.621E+03 0.000E+00
CGA:   7    -0.984693578057E+03   -0.11331E+03   -0.11312E+03  2880   0.443E+02-0.267E+01
CGA:   8    -0.997887611121E+03   -0.13194E+02   -0.13167E+02  2880   0.106E+02 0.228E+00
CGA:   9    -0.100174670177E+04   -0.38591E+01   -0.38605E+01  2880   0.403E+01-0.133E-01
CGA:  10    -0.100302439849E+04   -0.12777E+01   -0.12816E+01  2880   0.874E+00-0.330E-01
CGA:  11    -0.100336009952E+04   -0.33570E+00   -0.33583E+00  2880   0.190E+00-0.546E-03
CGA:  12    -0.100342586337E+04   -0.65764E-01   -0.65754E-01  2880   0.433E-01 0.495E-04
CGA:  13    -0.100344223454E+04   -0.16371E-01   -0.16493E-01  2880   0.995E-02-0.838E-03
CGA:  14    -0.100344595341E+04   -0.37189E-02   -0.36421E-02  2880   0.218E-02 0.569E-03
CGA:  15    -0.100344690590E+04   -0.95249E-03   -0.92211E-03  2880   0.537E-03 0.195E-03
CGA:  16    -0.100344718202E+04   -0.27612E-03   -0.38000E-03  2880   0.417E-03-0.263E-03
CGA:  17    -0.100344724451E+04   -0.62489E-04   -0.62496E-04  2880   0.176E-03-0.853E-06
CGA:  18    -0.100344727519E+04   -0.30675E-04   -0.34392E-04  2880   0.708E-04 0.471E-04
CGA:  19    -0.100344728937E+04   -0.14177E-04   -0.16991E-04  2880   0.379E-04 0.346E-04
CGA:  20    -0.100344730008E+04   -0.10710E-04   -0.11719E-04  2880   0.174E-04 0.172E-04
CGA:  21    -0.100344730807E+04   -0.79944E-05   -0.81915E-05  2880   0.922E-05-0.326E-05
   1 F= -.10034473E+04 E0= -.10034473E+04  d E =-.100345E+04  mag=    -0.0000
       N       E                     dE             d eps       ncg     rms          ort
SDA:   1    -0.100347294711E+04   -0.25647E-01    0.00000E+00  2880   0.416E-02 0.000E+00
CGA:   2    -0.100347452110E+04   -0.15740E-02   -0.15695E-02  2880   0.831E-03 0.410E-04
CGA:   3    -0.100347473897E+04   -0.21786E-03   -0.21772E-03  2880   0.135E-03-0.977E-05
CGA:   4    -0.100347477558E+04   -0.36612E-04   -0.36617E-04  2880   0.241E-04-0.723E-05
CGA:   5    -0.100347478281E+04   -0.72290E-05   -0.72065E-05  2880   0.547E-05 0.524E-06
   2 F= -.10034748E+04 E0= -.10034748E+04  d E =-.274747E-01  mag=    -0.0000
       N       E                     dE             d eps       ncg     rms          ort
SDA:   1    -0.100269590038E+04    0.77888E+00    0.00000E+00  2880   0.306E+01 0.000E+00
CGA:   2    -0.100385141516E+04   -0.11555E+01   -0.11545E+01  2880   0.613E+00 0.708E-02
CGA:   3    -0.100400771389E+04   -0.15630E+00   -0.15628E+00  2880   0.104E+00-0.402E-03
CGA:   4    -0.100403523934E+04   -0.27525E-01   -0.27523E-01  2880   0.186E-01-0.195E-03
CGA:   5    -0.100404168774E+04   -0.64484E-02   -0.64432E-02  2880   0.531E-02 0.691E-04
CGA:   6    -0.100404384174E+04   -0.21540E-02   -0.21447E-02  2880   0.166E-02 0.755E-04
CGA:   7    -0.100404450078E+04   -0.65904E-03   -0.66374E-03  2880   0.409E-03-0.446E-04
CGA:   8    -0.100404463807E+04   -0.13729E-03   -0.13747E-03  2880   0.657E-04-0.330E-05
CGA:   9    -0.100404466239E+04   -0.24318E-04   -0.24526E-04  2880   0.127E-04-0.257E-05
CGA:  10    -0.100404466688E+04   -0.44868E-05   -0.44550E-05  2880   0.245E-05 0.491E-06
   3 F= -.10040447E+04 E0= -.10040447E+04  d E =-.569884E+00  mag=    -0.0000
       N       E                     dE             d eps       ncg     rms          ort
SDA:   1    -0.100228309056E+04    0.17616E+01    0.00000E+00  2880   0.507E+01 0.000E+00
CGA:   2    -0.100417053003E+04   -0.18874E+01   -0.18869E+01  2880   0.103E+01 0.249E-02
CGA:   3    -0.100441845641E+04   -0.24793E+00   -0.24815E+00  2880   0.174E+00 0.116E-03
CGA:   4    -0.100446558190E+04   -0.47125E-01   -0.47116E-01  2880   0.280E-01-0.889E-04
CGA:   5    -0.100447517828E+04   -0.95964E-02   -0.95941E-02  2880   0.753E-02 0.704E-04
CGA:   6    -0.100447821372E+04   -0.30354E-02   -0.30319E-02  2880   0.247E-02 0.381E-04
CGA:   7    -0.100447916910E+04   -0.95538E-03   -0.95553E-03  2880   0.608E-03-0.201E-05
CGA:   8    -0.100447938735E+04   -0.21826E-03   -0.21886E-03  2880   0.113E-03-0.166E-04
CGA:   9    -0.100447942719E+04   -0.39841E-04   -0.39967E-04  2880   0.204E-04-0.324E-05
CGA:  10    -0.100447943485E+04   -0.76565E-05   -0.76799E-05  2880   0.463E-05-0.390E-06
   4 F= -.10044794E+04 E0= -.10044794E+04  d E =-.434768E+00  mag=     0.0000
       N       E                     dE             d eps       ncg     rms          ort
SDA:   1    -0.100344622355E+04    0.10332E+01    0.00000E+00  2880   0.281E+01 0.000E+00
CGA:   2    -0.100445882843E+04   -0.10126E+01   -0.10127E+01  2880   0.599E+00-0.417E-02
CGA:   3    -0.100460582120E+04   -0.14699E+00   -0.14712E+00  2880   0.932E-01-0.312E-03
CGA:   4    -0.100463068872E+04   -0.24868E-01   -0.24881E-01  2880   0.128E-01 0.224E-03
CGA:   5    -0.100463477687E+04   -0.40882E-02   -0.40889E-02  2880   0.283E-02 0.708E-04
CGA:   6    -0.100463588648E+04   -0.11096E-02   -0.11152E-02  2880   0.978E-03-0.888E-04
CGA:   7    -0.100463622995E+04   -0.34348E-03   -0.34181E-03  2880   0.238E-03 0.593E-04
CGA:   8    -0.100463632931E+04   -0.99353E-04   -0.99316E-04  2880   0.476E-04 0.690E-06
CGA:   9    -0.100463634932E+04   -0.20009E-04   -0.21162E-04  2880   0.140E-04-0.108E-04
CGA:  10    -0.100463635194E+04   -0.26276E-05   -0.28165E-05  2880   0.279E-05 0.231E-05
   5 F= -.10046364E+04 E0= -.10046364E+04  d E =-.156917E+00  mag=     0.0000
       N       E                     dE             d eps       ncg     rms          ort
SDA:   1    -0.100330818290E+04    0.13282E+01    0.00000E+00  2880   0.333E+01 0.000E+00
CGA:   2    -0.100450684191E+04   -0.11987E+01   -0.11988E+01  2880   0.680E+00-0.355E-02
CGA:   3    -0.100468255403E+04   -0.17571E+00   -0.17576E+00  2880   0.996E-01-0.391E-03
CGA:   4    -0.100470855925E+04   -0.26005E-01   -0.26016E-01  2880   0.142E-01 0.155E-03
CGA:   5    -0.100471298393E+04   -0.44247E-02   -0.44260E-02  2880   0.290E-02 0.927E-04
CGA:   6    -0.100471415996E+04   -0.11760E-02   -0.11828E-02  2880   0.973E-03-0.845E-04
CGA:   7    -0.100471451059E+04   -0.35063E-03   -0.34887E-03  2880   0.253E-03 0.439E-04
CGA:   8    -0.100471461386E+04   -0.10327E-03   -0.10329E-03  2880   0.473E-04-0.250E-06
CGA:   9    -0.100471463382E+04   -0.19960E-04   -0.20941E-04  2880   0.123E-04-0.899E-05
CGA:  10    -0.100471463702E+04   -0.31954E-05   -0.32062E-05  2880   0.201E-05 0.639E-06
   6 F= -.10047146E+04 E0= -.10047146E+04  d E =-.782851E-01  mag=     0.0000
       N       E                     dE             d eps       ncg     rms          ort
SDA:   1    -0.100246696258E+04    0.22477E+01    0.00000E+00  2880   0.542E+01 0.000E+00
CGA:   2    -0.100435206583E+04   -0.18851E+01   -0.18852E+01  2880   0.111E+01-0.378E-02
CGA:   3    -0.100464439104E+04   -0.29233E+00   -0.29237E+00  2880   0.176E+00-0.551E-03
CGA:   4    -0.100469168957E+04   -0.47299E-01   -0.47307E-01  2880   0.249E-01 0.156E-03
CGA:   5    -0.100469974492E+04   -0.80553E-02   -0.80559E-02  2880   0.550E-02 0.111E-03
CGA:   6    -0.100470204511E+04   -0.23002E-02   -0.23069E-02  2880   0.185E-02-0.751E-04
CGA:   7    -0.100470274657E+04   -0.70146E-03   -0.70045E-03  2880   0.520E-03 0.197E-04
CGA:   8    -0.100470294291E+04   -0.19634E-03   -0.19675E-03  2880   0.939E-04-0.103E-04
CGA:   9    -0.100470297593E+04   -0.33015E-04   -0.33018E-04  2880   0.159E-04-0.107E-06
CGA:  10    -0.100470298313E+04   -0.72018E-05   -0.86495E-05  2880   0.830E-05-0.703E-05
   7 F= -.10047030E+04 E0= -.10047030E+04  d E =0.116539E-01  mag=     0.0000
       N       E                     dE             d eps       ncg     rms          ort
SDA:   1    -0.100443258860E+04    0.27039E+00    0.00000E+00  2880   0.755E+00 0.000E+00
CGA:   2    -0.100469575796E+04   -0.26317E+00   -0.26317E+00  2880   0.178E+00-0.233E-03
CGA:   3    -0.100474077144E+04   -0.45013E-01   -0.45033E-01  2880   0.280E-01 0.238E-03
CGA:   4    -0.100474902672E+04   -0.82553E-02   -0.82561E-02  2880   0.435E-02 0.157E-04
CGA:   5    -0.100475050577E+04   -0.14790E-02   -0.14792E-02  2880   0.116E-02-0.488E-04
CGA:   6    -0.100475093461E+04   -0.42884E-03   -0.42798E-03  2880   0.341E-03 0.236E-04
CGA:   7    -0.100475106966E+04   -0.13505E-03   -0.13507E-03  2880   0.940E-04-0.299E-06
CGA:   8    -0.100475110375E+04   -0.34089E-04   -0.34070E-04  2880   0.171E-04 0.882E-06
CGA:   9    -0.100475111106E+04   -0.73118E-05   -0.78140E-05  2880   0.611E-05-0.447E-05
   8 F= -.10047511E+04 E0= -.10047511E+04  d E =-.481279E-01  mag=    -0.0000
       N       E                     dE             d eps       ncg     rms          ort
SDA:   1    -0.100470515847E+04    0.45945E-01    0.00000E+00  2880   0.123E+00 0.000E+00
CGA:   2    -0.100474967127E+04   -0.44513E-01   -0.44515E-01  2880   0.265E-01-0.954E-04
CGA:   3    -0.100475604884E+04   -0.63776E-02   -0.63828E-02  2880   0.403E-02 0.627E-04
CGA:   4    -0.100475713667E+04   -0.10878E-02   -0.10870E-02  2880   0.548E-03-0.122E-04
CGA:   5    -0.100475731211E+04   -0.17544E-03   -0.17530E-03  2880   0.117E-03-0.119E-04
CGA:   6    -0.100475735119E+04   -0.39074E-04   -0.38983E-04  2880   0.312E-04 0.105E-04
CGA:   7    -0.100475736689E+04   -0.15705E-04   -0.16682E-04  2880   0.165E-04-0.620E-05
CGA:   8    -0.100475737095E+04   -0.40529E-05   -0.40694E-05  2880   0.322E-05 0.522E-06
   9 F= -.10047574E+04 E0= -.10047574E+04  d E =-.625988E-02  mag=    -0.0000
       N       E                     dE             d eps       ncg     rms          ort
SDA:   1    -0.100431987018E+04    0.43750E+00    0.00000E+00  2880   0.104E+01 0.000E+00
CGA:   2    -0.100470646701E+04   -0.38660E+00   -0.38660E+00  2880   0.212E+00-0.215E-03
CGA:   3    -0.100475792413E+04   -0.51457E-01   -0.51454E-01  2880   0.313E-01 0.896E-05
CGA:   4    -0.100476603767E+04   -0.81135E-02   -0.81147E-02  2880   0.436E-02 0.130E-04
CGA:   5    -0.100476737752E+04   -0.13398E-02   -0.13395E-02  2880   0.802E-03-0.135E-04
CGA:   6    -0.100476768359E+04   -0.30607E-03   -0.30531E-03  2880   0.245E-03 0.138E-04
CGA:   7    -0.100476778906E+04   -0.10547E-03   -0.10669E-03  2880   0.863E-04-0.125E-04
CGA:   8    -0.100476781856E+04   -0.29503E-04   -0.29489E-04  2880   0.147E-04 0.568E-06
CGA:   9    -0.100476782407E+04   -0.55116E-05   -0.55284E-05  2880   0.278E-05-0.450E-06
  10 F= -.10047678E+04 E0= -.10047678E+04  d E =-.104531E-01  mag=    -0.0000
       N       E                     dE             d eps       ncg     rms          ort
SDA:   1    -0.100363288378E+04    0.11349E+01    0.00000E+00  2880   0.267E+01 0.000E+00
CGA:   2    -0.100461682500E+04   -0.98394E+00   -0.98395E+00  2880   0.539E+00-0.343E-03
CGA:   3    -0.100475102681E+04   -0.13420E+00   -0.13419E+00  2880   0.777E-01-0.129E-03
CGA:   4    -0.100477107136E+04   -0.20045E-01   -0.20052E-01  2880   0.114E-01 0.105E-03
CGA:   5    -0.100477457031E+04   -0.34989E-02   -0.34985E-02  2880   0.211E-02-0.184E-04
CGA:   6    -0.100477539460E+04   -0.82430E-03   -0.82406E-03  2880   0.676E-03 0.395E-05
CGA:   7    -0.100477566828E+04   -0.27368E-03   -0.27390E-03  2880   0.212E-03-0.298E-05
CGA:   8    -0.100477574943E+04   -0.81141E-04   -0.81488E-04  2880   0.401E-04-0.673E-05
CGA:   9    -0.100477576297E+04   -0.13544E-04   -0.13532E-04  2880   0.613E-05 0.115E-05
CGA:  10    -0.100477576558E+04   -0.26112E-05   -0.26934E-05  2880   0.160E-05-0.931E-06
  11 F= -.10047758E+04 E0= -.10047758E+04  d E =-.794151E-02  mag=    -0.0000
       N       E                     dE             d eps       ncg     rms          ort
SDA:   1    -0.999712601635E+03    0.50632E+01    0.00000E+00  2880   0.118E+02 0.000E+00
CGA:   2    -0.100406866132E+04   -0.43561E+01   -0.43560E+01  2880   0.233E+01-0.395E-03
CGA:   3    -0.100465301186E+04   -0.58435E+00   -0.58457E+00  2880   0.334E+00-0.304E-03
CGA:   4    -0.100473942570E+04   -0.86414E-01   -0.86408E-01  2880   0.513E-01-0.773E-05
CGA:   5    -0.100475513919E+04   -0.15713E-01   -0.15715E-01  2880   0.966E-02 0.589E-04
CGA:   6    -0.100475903021E+04   -0.38910E-02   -0.38913E-02  2880   0.319E-02-0.443E-05
CGA:   7    -0.100476033262E+04   -0.13024E-02   -0.13048E-02  2880   0.972E-03-0.350E-04
CGA:   8    -0.100476069048E+04   -0.35786E-03   -0.35806E-03  2880   0.169E-03-0.698E-05
CGA:   9    -0.100476075455E+04   -0.64068E-04   -0.64398E-04  2880   0.294E-04-0.843E-05
CGA:  10    -0.100476076545E+04   -0.10896E-04   -0.11019E-04  2880   0.623E-05-0.259E-05
CGA:  11    -0.100476076789E+04   -0.24421E-05   -0.24661E-05  2880   0.148E-05-0.286E-06
  12 F= -.10047608E+04 E0= -.10047608E+04  d E =0.149977E-01  mag=    -0.0000
       N       E                     dE             d eps       ncg     rms          ort
SDA:   1    -0.100324664934E+04    0.15141E+01    0.00000E+00  2880   0.360E+01 0.000E+00
CGA:   2    -0.100456687178E+04   -0.13202E+01   -0.13202E+01  2880   0.731E+00 0.624E-03
CGA:   3    -0.100474875139E+04   -0.18188E+00   -0.18184E+00  2880   0.108E+00-0.169E-03
CGA:   4    -0.100477668702E+04   -0.27936E-01   -0.27933E-01  2880   0.158E-01-0.221E-04
CGA:   5    -0.100478157504E+04   -0.48880E-02   -0.48881E-02  2880   0.299E-02 0.246E-05
CGA:   6    -0.100478276034E+04   -0.11853E-02   -0.11848E-02  2880   0.971E-03 0.920E-05
CGA:   7    -0.100478315668E+04   -0.39635E-03   -0.39730E-03  2880   0.305E-03-0.162E-04
CGA:   8    -0.100478327010E+04   -0.11342E-03   -0.11360E-03  2880   0.537E-04-0.646E-05
CGA:   9    -0.100478328976E+04   -0.19661E-04   -0.19686E-04  2880   0.902E-05-0.123E-05
CGA:  10    -0.100478329346E+04   -0.36948E-05   -0.38390E-05  2880   0.254E-05-0.177E-05
  13 F= -.10047833E+04 E0= -.10047833E+04  d E =-.225256E-01  mag=     0.0000
       N       E                     dE             d eps       ncg     rms          ort
SDA:   1    -0.100393136256E+04    0.85193E+00    0.00000E+00  2880   0.195E+01 0.000E+00
CGA:   2    -0.100465790996E+04   -0.72655E+00   -0.72654E+00  2880   0.410E+00 0.789E-04
CGA:   3    -0.100475759152E+04   -0.99682E-01   -0.99661E-01  2880   0.599E-01-0.142E-04
CGA:   4    -0.100477352677E+04   -0.15935E-01   -0.15945E-01  2880   0.910E-02 0.103E-03
CGA:   5    -0.100477637673E+04   -0.28500E-02   -0.28503E-02  2880   0.186E-02 0.106E-04
CGA:   6    -0.100477711362E+04   -0.73690E-03   -0.73855E-03  2880   0.638E-03-0.316E-04
CGA:   7    -0.100477734778E+04   -0.23416E-03   -0.23357E-03  2880   0.173E-03 0.232E-04
CGA:   8    -0.100477741649E+04   -0.68707E-04   -0.68648E-04  2880   0.328E-04 0.172E-05
CGA:   9    -0.100477743011E+04   -0.13620E-04   -0.14048E-04  2880   0.855E-05-0.575E-05
CGA:  10    -0.100477743176E+04   -0.16542E-05   -0.18048E-05  2880   0.154E-05 0.154E-05
  14 F= -.10047774E+04 E0= -.10047774E+04  d E =0.586170E-02  mag=    -0.0000
       N       E                     dE             d eps       ncg     rms          ort
SDA:   1    -0.100429841699E+04    0.47901E+00    0.00000E+00  2880   0.113E+01 0.000E+00
CGA:   2    -0.100471991305E+04   -0.42150E+00   -0.42151E+00  2880   0.231E+00-0.356E-03
CGA:   3    -0.100477679780E+04   -0.56885E-01   -0.56885E-01  2880   0.329E-01-0.799E-04
CGA:   4    -0.100478545997E+04   -0.86622E-02   -0.86609E-02  2880   0.502E-02-0.108E-04
CGA:   5    -0.100478701060E+04   -0.15506E-02   -0.15506E-02  2880   0.960E-03-0.800E-06
CGA:   6    -0.100478738390E+04   -0.37330E-03   -0.37269E-03  2880   0.305E-03 0.113E-04
CGA:   7    -0.100478751211E+04   -0.12821E-03   -0.12926E-03  2880   0.101E-03-0.129E-04
CGA:   8    -0.100478754795E+04   -0.35847E-04   -0.35893E-04  2880   0.176E-04-0.160E-05
CGA:   9    -0.100478755388E+04   -0.59239E-05   -0.59240E-05  2880   0.287E-05 0.911E-06
  15 F= -.10047876E+04 E0= -.10047876E+04  d E =-.101221E-01  mag=    -0.0000
       N       E                     dE             d eps       ncg     rms          ort
SDA:   1    -0.100476571462E+04    0.21833E-01    0.00000E+00  2880   0.519E-01 0.000E+00
CGA:   2    -0.100478516652E+04   -0.19452E-01   -0.19452E-01  2880   0.103E-01 0.184E-04
CGA:   3    -0.100478776789E+04   -0.26014E-02   -0.26002E-02  2880   0.145E-02-0.111E-04
CGA:   4    -0.100478815098E+04   -0.38309E-03   -0.38148E-03  2880   0.228E-03-0.190E-04
CGA:   5    -0.100478821830E+04   -0.67316E-04   -0.67409E-04  2880   0.408E-04 0.213E-05
CGA:   6    -0.100478823362E+04   -0.15324E-04   -0.15246E-04  2880   0.121E-04 0.275E-05
CGA:   7    -0.100478824000E+04   -0.63787E-05   -0.76853E-05  2880   0.977E-05-0.515E-05
  16 F= -.10047882E+04 E0= -.10047882E+04  d E =-.686124E-03  mag=    -0.0000
       N       E                     dE             d eps       ncg     rms          ort
SDA:   1    -0.100338697580E+04    0.14013E+01    0.00000E+00  2880   0.324E+01 0.000E+00
CGA:   2    -0.100460288665E+04   -0.12159E+01   -0.12159E+01  2880   0.633E+00-0.554E-03
CGA:   3    -0.100476178433E+04   -0.15890E+00   -0.15889E+00  2880   0.893E-01-0.103E-03
CGA:   4    -0.100478478663E+04   -0.23002E-01   -0.22999E-01  2880   0.134E-01-0.355E-04
CGA:   5    -0.100478884261E+04   -0.40560E-02   -0.40566E-02  2880   0.241E-02 0.197E-04
CGA:   6    -0.100478979669E+04   -0.95409E-03   -0.95400E-03  2880   0.781E-03 0.171E-05
CGA:   7    -0.100479012242E+04   -0.32572E-03   -0.32669E-03  2880   0.247E-03-0.126E-04
CGA:   8    -0.100479021287E+04   -0.90454E-04   -0.90498E-04  2880   0.434E-04-0.157E-05
CGA:   9    -0.100479022935E+04   -0.16482E-04   -0.16579E-04  2880   0.742E-05-0.261E-05
CGA:  10    -0.100479023207E+04   -0.27215E-05   -0.27537E-05  2880   0.153E-05-0.703E-06
  17 F= -.10047902E+04 E0= -.10047902E+04  d E =-.199207E-02  mag=    -0.0000
       N       E                     dE             d eps       ncg     rms          ort
SDA:   1    -0.100389467624E+04    0.89555E+00    0.00000E+00  2880   0.203E+01 0.000E+00
CGA:   2    -0.100463898081E+04   -0.74430E+00   -0.74432E+00  2880   0.419E+00-0.799E-03
CGA:   3    -0.100474463964E+04   -0.10566E+00   -0.10566E+00  2880   0.627E-01-0.824E-04
CGA:   4    -0.100476129301E+04   -0.16653E-01   -0.16667E-01  2880   0.935E-02 0.164E-03
CGA:   5    -0.100476425368E+04   -0.29607E-02   -0.29608E-02  2880   0.192E-02 0.646E-05
CGA:   6    -0.100476502434E+04   -0.77066E-03   -0.77278E-03  2880   0.653E-03-0.361E-04
CGA:   7    -0.100476526076E+04   -0.23643E-03   -0.23575E-03  2880   0.173E-03 0.312E-04
CGA:   8    -0.100476533185E+04   -0.71091E-04   -0.71182E-04  2880   0.347E-04-0.194E-05
CGA:   9    -0.100476534570E+04   -0.13843E-04   -0.14109E-04  2880   0.773E-05-0.430E-05
CGA:  10    -0.100476534761E+04   -0.19166E-05   -0.19812E-05  2880   0.121E-05 0.107E-05
  18 F= -.10047653E+04 E0= -.10047653E+04  d E =0.248845E-01  mag=     0.0000
       N       E                     dE             d eps       ncg     rms          ort
SDA:   1    -0.100384509131E+04    0.92025E+00    0.00000E+00  2880   0.221E+01 0.000E+00
CGA:   2    -0.100465548402E+04   -0.81039E+00   -0.81040E+00  2880   0.451E+00-0.480E-04
CGA:   3    -0.100476957785E+04   -0.11409E+00   -0.11407E+00  2880   0.667E-01-0.146E-03
CGA:   4    -0.100478723678E+04   -0.17659E-01   -0.17652E-01  2880   0.100E-01-0.944E-04
CGA:   5    -0.100479037038E+04   -0.31336E-02   -0.31334E-02  2880   0.200E-02-0.565E-05
CGA:   6    -0.100479115259E+04   -0.78221E-03   -0.78090E-03  2880   0.639E-03 0.244E-04
CGA:   7    -0.100479142192E+04   -0.26933E-03   -0.27190E-03  2880   0.216E-03-0.321E-04
CGA:   8    -0.100479149620E+04   -0.74282E-04   -0.74311E-04  2880   0.367E-04-0.157E-05
CGA:   9    -0.100479150924E+04   -0.13039E-04   -0.13028E-04  2880   0.628E-05 0.920E-06
CGA:  10    -0.100479151215E+04   -0.29095E-05   -0.32655E-05  2880   0.264E-05-0.220E-05
  19 F= -.10047915E+04 E0= -.10047915E+04  d E =-.261645E-01  mag=     0.0000
