       N       E                     dE             d eps       ncg     rms          ort
DAV:   1     0.102985993851E+05    0.10299E+05   -0.42467E+05 10640   0.155E+03
DAV:   2    -0.111891276465E+03   -0.10410E+05   -0.98244E+04 10640   0.474E+02
DAV:   3    -0.152199876370E+04   -0.14101E+04   -0.13144E+04 10640   0.182E+02
DAV:   4    -0.160433000611E+04   -0.82331E+02   -0.80120E+02 10640   0.462E+01
DAV:   5    -0.160666034399E+04   -0.23303E+01   -0.23233E+01 10640   0.834E+00
SDA:   6    -0.727728862700E+03    0.87893E+03   -0.23233E+01 10640   0.292E+04 0.000E+00
CGA:   7    -0.113180428061E+04   -0.40408E+03   -0.40122E+03 10640   0.110E+04-0.185E+02
CGA:   8    -0.115754269859E+04   -0.25738E+02   -0.61654E+02 10640   0.117E+04-0.597E+03
CGA:   9    -0.116099655215E+04   -0.34539E+01   -0.56899E+02 10640   0.186E+04-0.110E+04
CGA:  10    -0.113923986024E+04    0.21757E+02   -0.99064E+02 10640   0.270E+04-0.172E+04
CGA:  11    -0.112375636377E+04    0.15483E+02   -0.13643E+03 10640   0.335E+04-0.265E+04
CGA:  12    -0.109165970634E+04    0.32097E+02   -0.17550E+03 10640   0.468E+04-0.372E+04
CGA:  13    -0.108180730864E+04    0.98524E+01   -0.23950E+03 10640   0.472E+04-0.424E+04
CGA:  14    -0.108482680791E+04   -0.30195E+01   -0.23620E+03 10640   0.519E+04-0.499E+04
CGA:  15    -0.110182851901E+04   -0.17002E+02   -0.25395E+03 10640   0.461E+04-0.466E+04
CGA:  16    -0.114615840118E+04   -0.44330E+02   -0.21101E+03 10640   0.394E+04-0.452E+04
CGA:  17    -0.120436793120E+04   -0.58210E+02   -0.16115E+03 10640   0.203E+04-0.284E+04
CGA:  18    -0.124638106950E+04   -0.42013E+02   -0.71410E+02 10640   0.453E+03-0.878E+03
CGA:  19    -0.125809834699E+04   -0.11717E+02   -0.80971E+01 10640   0.694E+02 0.106E+03
CGA:  20    -0.126047226076E+04   -0.23739E+01   -0.24221E+01 10640   0.423E+02-0.384E+01
CGA:  21    -0.126769244264E+04   -0.72202E+01   -0.70168E+01 10640   0.179E+03 0.373E+01
CGA:  22    -0.127461387456E+04   -0.69214E+01   -0.67433E+01 10640   0.690E+02-0.460E+02
CGA:  23    -0.127573382313E+04   -0.11199E+01   -0.13821E+01 10640   0.344E+02-0.974E+01
CGA:  24    -0.127627427691E+04   -0.54045E+00   -0.68038E+00 10640   0.175E+02-0.644E+01
CGA:  25    -0.127684813218E+04   -0.57386E+00   -0.73488E+00 10640   0.252E+02-0.220E+01
CGA:  26    -0.127795006474E+04   -0.11019E+01   -0.11891E+01 10640   0.229E+02-0.135E+01
CGA:  27    -0.127900801154E+04   -0.10579E+01   -0.99498E+00 10640   0.806E+01 0.112E+00
CGA:  28    -0.127956056505E+04   -0.55255E+00   -0.58823E+00 10640   0.635E+01-0.193E+00
CGA:  29    -0.128039281644E+04   -0.83225E+00   -0.82675E+00 10640   0.566E+01-0.171E+00
CGA:  30    -0.128093248530E+04   -0.53967E+00   -0.53880E+00 10640   0.315E+01-0.399E+00
CGA:  31    -0.128134128251E+04   -0.40880E+00   -0.41655E+00 10640   0.379E+01-0.298E+00
CGA:  32    -0.128193363852E+04   -0.59236E+00   -0.62313E+00 10640   0.203E+01-0.544E+00
CGA:  33    -0.128219580795E+04   -0.26217E+00   -0.27298E+00 10640   0.138E+01-0.274E+00
CGA:  34    -0.128249110887E+04   -0.29530E+00   -0.33561E+00 10640   0.119E+01-0.235E+00
CGA:  35    -0.128268638208E+04   -0.19527E+00   -0.22182E+00 10640   0.664E+00-0.254E+00
CGA:  36    -0.128281356573E+04   -0.12718E+00   -0.14454E+00 10640   0.427E+00-0.111E+00
CGA:  37    -0.128290039982E+04   -0.86834E-01   -0.87273E-01 10640   0.195E+00-0.376E-02
CGA:  38    -0.128294511782E+04   -0.44718E-01   -0.41224E-01 10640   0.841E-01 0.464E-01
CGA:  39    -0.128297035452E+04   -0.25237E-01   -0.21709E-01 10640   0.470E-01 0.527E-01
CGA:  40    -0.128298042699E+04   -0.10072E-01   -0.89613E-02 10640   0.275E-01 0.244E-01
CGA:  41    -0.128298440937E+04   -0.39824E-02   -0.40124E-02 10640   0.199E-01 0.200E-01
CGA:  42    -0.128298734873E+04   -0.29394E-02   -0.29330E-02 10640   0.159E-01 0.168E-01
CGA:  43    -0.128298902015E+04   -0.16714E-02   -0.19873E-02 10640   0.135E-01 0.143E-01
CGA:  44    -0.128299029544E+04   -0.12753E-02   -0.16087E-02 10640   0.117E-01 0.125E-01
CGA:  45    -0.128299119572E+04   -0.90028E-03   -0.12880E-02 10640   0.105E-01 0.110E-01
CGA:  46    -0.128299187923E+04   -0.68351E-03   -0.10783E-02 10640   0.942E-02 0.989E-02
CGA:  47    -0.128299240402E+04   -0.52479E-03   -0.91706E-03 10640   0.858E-02 0.896E-02
CGA:  48    -0.128299281543E+04   -0.41140E-03   -0.79287E-03 10640   0.788E-02 0.820E-02
CGA:  49    -0.128299314298E+04   -0.32756E-03   -0.69420E-03 10640   0.729E-02 0.756E-02
CGA:  50    -0.128299340749E+04   -0.26451E-03   -0.61431E-03 10640   0.678E-02 0.702E-02
CGA:  51    -0.128299362382E+04   -0.21633E-03   -0.54851E-03 10640   0.634E-02 0.654E-02
CGA:  52    -0.128299380280E+04   -0.17898E-03   -0.49354E-03 10640   0.595E-02 0.613E-02
CGA:  53    -0.128299395247E+04   -0.14967E-03   -0.44704E-03 10640   0.562E-02 0.578E-02
CGA:  54    -0.128299407892E+04   -0.12645E-03   -0.40730E-03 10640   0.532E-02 0.546E-02
CGA:  55    -0.128299418678E+04   -0.10786E-03   -0.37301E-03 10640   0.505E-02 0.517E-02
CGA:  56    -0.128299427962E+04   -0.92844E-04   -0.34316E-03 10640   0.481E-02 0.492E-02
CGA:  57    -0.128299436024E+04   -0.80623E-04   -0.31700E-03 10640   0.459E-02 0.469E-02
CGA:  58    -0.128299443086E+04   -0.70614E-04   -0.29391E-03 10640   0.439E-02 0.449E-02
CGA:  59    -0.128299449321E+04   -0.62350E-04   -0.27341E-03 10640   0.421E-02 0.430E-02
CGA:  60    -0.128299454869E+04   -0.55482E-04   -0.25509E-03 10640   0.405E-02 0.413E-02
CGA:  61    -0.128299459841E+04   -0.49726E-04   -0.23865E-03 10640   0.390E-02 0.397E-02
CGA:  62    -0.128299464332E+04   -0.44908E-04   -0.22383E-03 10640   0.376E-02 0.383E-02
CGA:  63    -0.128299468416E+04   -0.40839E-04   -0.21041E-03 10640   0.364E-02 0.370E-02
CGA:  64    -0.128299472153E+04   -0.37369E-04   -0.19821E-03 10640   0.352E-02 0.358E-02
CGA:  65    -0.128299475594E+04   -0.34410E-04   -0.18708E-03 10640   0.341E-02 0.346E-02
CGA:  66    -0.128299478784E+04   -0.31896E-04   -0.17690E-03 10640   0.331E-02 0.336E-02
CGA:  67    -0.128299481757E+04   -0.29735E-04   -0.16756E-03 10640   0.322E-02 0.326E-02
CGA:  68    -0.128299484544E+04   -0.27867E-04   -0.15895E-03 10640   0.313E-02 0.317E-02
CGA:  69    -0.128299487169E+04   -0.26251E-04   -0.15102E-03 10640   0.305E-02 0.309E-02
CGA:  70    -0.128299489653E+04   -0.24845E-04   -0.14367E-03 10640   0.297E-02 0.301E-02
CGA:  71    -0.128299492015E+04   -0.23619E-04   -0.13686E-03 10640   0.290E-02 0.293E-02
CGA:  72    -0.128299494270E+04   -0.22546E-04   -0.13053E-03 10640   0.283E-02 0.286E-02
CGA:  73    -0.128299496430E+04   -0.21603E-04   -0.12464E-03 10640   0.277E-02 0.280E-02
CGA:  74    -0.128299498508E+04   -0.20779E-04   -0.11915E-03 10640   0.271E-02 0.274E-02
CGA:  75    -0.128299500513E+04   -0.20052E-04   -0.11401E-03 10640   0.265E-02 0.268E-02
CGA:  76    -0.128299502454E+04   -0.19409E-04   -0.10921E-03 10640   0.260E-02 0.262E-02
CGA:  77    -0.128299504338E+04   -0.18837E-04   -0.10470E-03 10640   0.255E-02 0.257E-02
CGA:  78    -0.128299506171E+04   -0.18328E-04   -0.10048E-03 10640   0.250E-02 0.252E-02
CGA:  79    -0.128299507958E+04   -0.17872E-04   -0.96501E-04 10640   0.245E-02 0.247E-02
CGA:  80    -0.128299509704E+04   -0.17461E-04   -0.92759E-04 10640   0.241E-02 0.243E-02
CGA:  81    -0.128299511413E+04   -0.17093E-04   -0.89231E-04 10640   0.237E-02 0.239E-02
CGA:  82    -0.128299513089E+04   -0.16758E-04   -0.85902E-04 10640   0.233E-02 0.235E-02
CGA:  83    -0.128299514734E+04   -0.16453E-04   -0.82755E-04 10640   0.229E-02 0.231E-02
CGA:  84    -0.128299516351E+04   -0.16173E-04   -0.79777E-04 10640   0.225E-02 0.227E-02
CGA:  85    -0.128299517943E+04   -0.15914E-04   -0.76957E-04 10640   0.222E-02 0.223E-02
CGA:  86    -0.128299519510E+04   -0.15674E-04   -0.74283E-04 10640   0.219E-02 0.220E-02
CGA:  87    -0.128299521055E+04   -0.15452E-04   -0.71746E-04 10640   0.215E-02 0.217E-02
CGA:  88    -0.128299522580E+04   -0.15246E-04   -0.69335E-04 10640   0.212E-02 0.214E-02
CGA:  89    -0.128299524085E+04   -0.15049E-04   -0.67042E-04 10640   0.210E-02 0.211E-02
CGA:  90    -0.128299525571E+04   -0.14863E-04   -0.64860E-04 10640   0.207E-02 0.208E-02
CGA:  91    -0.128299527040E+04   -0.14689E-04   -0.62781E-04 10640   0.204E-02 0.205E-02
CGA:  92    -0.128299528492E+04   -0.14519E-04   -0.60799E-04 10640   0.202E-02 0.203E-02
CGA:  93    -0.128299529928E+04   -0.14358E-04   -0.58907E-04 10640   0.199E-02 0.200E-02
CGA:  94    -0.128299531348E+04   -0.14200E-04   -0.57100E-04 10640   0.197E-02 0.198E-02
CGA:  95    -0.128299532752E+04   -0.14042E-04   -0.55370E-04 10640   0.194E-02 0.196E-02
CGA:  96    -0.128299534142E+04   -0.13899E-04   -0.53721E-04 10640   0.192E-02 0.193E-02
CGA:  97    -0.128299535518E+04   -0.13758E-04   -0.52142E-04 10640   0.190E-02 0.191E-02
CGA:  98    -0.128299536880E+04   -0.13620E-04   -0.50629E-04 10640   0.188E-02 0.189E-02
CGA:  99    -0.128299538228E+04   -0.13483E-04   -0.49179E-04 10640   0.186E-02 0.187E-02
CGA: 100    -0.128299539563E+04   -0.13349E-04   -0.47788E-04 10640   0.184E-02 0.185E-02
CGA: 101    -0.128299540884E+04   -0.13215E-04   -0.46453E-04 10640   0.183E-02 0.183E-02
CGA: 102    -0.128299542193E+04   -0.13084E-04   -0.45172E-04 10640   0.181E-02 0.182E-02
CGA: 103    -0.128299543488E+04   -0.12953E-04   -0.43940E-04 10640   0.179E-02 0.180E-02
CGA: 104    -0.128299544770E+04   -0.12823E-04   -0.42756E-04 10640   0.177E-02 0.178E-02
CGA: 105    -0.128299546040E+04   -0.12693E-04   -0.41616E-04 10640   0.176E-02 0.177E-02
CGA: 106    -0.128299547296E+04   -0.12565E-04   -0.40520E-04 10640   0.174E-02 0.175E-02
CGA: 107    -0.128299548540E+04   -0.12436E-04   -0.39464E-04 10640   0.173E-02 0.174E-02
CGA: 108    -0.128299549771E+04   -0.12308E-04   -0.38447E-04 10640   0.171E-02 0.172E-02
CGA: 109    -0.128299550989E+04   -0.12182E-04   -0.37466E-04 10640   0.170E-02 0.171E-02
CGA: 110    -0.128299552195E+04   -0.12057E-04   -0.36521E-04 10640   0.169E-02 0.169E-02
CGA: 111    -0.128299553388E+04   -0.11931E-04   -0.35609E-04 10640   0.167E-02 0.168E-02
CGA: 112    -0.128299554568E+04   -0.11806E-04   -0.34728E-04 10640   0.166E-02 0.167E-02
CGA: 113    -0.128299555736E+04   -0.11681E-04   -0.33878E-04 10640   0.165E-02 0.165E-02
CGA: 114    -0.128299556892E+04   -0.11557E-04   -0.33057E-04 10640   0.164E-02 0.164E-02
CGA: 115    -0.128299558035E+04   -0.11432E-04   -0.32263E-04 10640   0.162E-02 0.163E-02
CGA: 116    -0.128299559166E+04   -0.11309E-04   -0.31495E-04 10640   0.161E-02 0.162E-02
CGA: 117    -0.128299560285E+04   -0.11186E-04   -0.30753E-04 10640   0.160E-02 0.161E-02
CGA: 118    -0.128299561391E+04   -0.11063E-04   -0.30034E-04 10640   0.159E-02 0.160E-02
CGA: 119    -0.128299562485E+04   -0.10941E-04   -0.29339E-04 10640   0.158E-02 0.159E-02
CGA: 120    -0.128299563567E+04   -0.10819E-04   -0.28666E-04 10640   0.157E-02 0.158E-02
CGA: 121    -0.128299564637E+04   -0.10699E-04   -0.28014E-04 10640   0.156E-02 0.157E-02
CGA: 122    -0.128299565695E+04   -0.10578E-04   -0.27382E-04 10640   0.155E-02 0.156E-02
CGA: 123    -0.128299566741E+04   -0.10459E-04   -0.26769E-04 10640   0.154E-02 0.155E-02
CGA: 124    -0.128299567774E+04   -0.10339E-04   -0.26175E-04 10640   0.153E-02 0.154E-02
CGA: 125    -0.128299568797E+04   -0.10221E-04   -0.25599E-04 10640   0.152E-02 0.153E-02
CGA: 126    -0.128299569807E+04   -0.10102E-04   -0.25040E-04 10640   0.152E-02 0.152E-02
CGA: 127    -0.128299570805E+04   -0.99855E-05   -0.24498E-04 10640   0.151E-02 0.151E-02
CGA: 128    -0.128299571792E+04   -0.98696E-05   -0.23971E-04 10640   0.150E-02 0.150E-02
CGA: 129    -0.128299572768E+04   -0.97535E-05   -0.23459E-04 10640   0.149E-02 0.150E-02
CGA: 130    -0.128299573732E+04   -0.96392E-05   -0.22963E-04 10640   0.148E-02 0.149E-02
CGA: 131    -0.128299574684E+04   -0.95253E-05   -0.22480E-04 10640   0.148E-02 0.148E-02
CGA: 132    -0.128299575625E+04   -0.94111E-05   -0.22011E-04 10640   0.147E-02 0.147E-02
CGA: 133    -0.128299576555E+04   -0.93000E-05   -0.21555E-04 10640   0.146E-02 0.147E-02
CGA: 134    -0.128299577474E+04   -0.91881E-05   -0.21111E-04 10640   0.145E-02 0.146E-02
CGA: 135    -0.128299578382E+04   -0.90780E-05   -0.20680E-04 10640   0.145E-02 0.145E-02
CGA: 136    -0.128299579279E+04   -0.89688E-05   -0.20261E-04 10640   0.144E-02 0.144E-02
CGA: 137    -0.128299580165E+04   -0.88587E-05   -0.19852E-04 10640   0.143E-02 0.144E-02
CGA: 138    -0.128299581040E+04   -0.87525E-05   -0.19455E-04 10640   0.143E-02 0.143E-02
CGA: 139    -0.128299581904E+04   -0.86460E-05   -0.19068E-04 10640   0.142E-02 0.143E-02
CGA: 140    -0.128299582758E+04   -0.85399E-05   -0.18691E-04 10640   0.142E-02 0.142E-02
CGA: 141    -0.128299583602E+04   -0.84351E-05   -0.18324E-04 10640   0.141E-02 0.141E-02
CGA: 142    -0.128299584435E+04   -0.83320E-05   -0.17967E-04 10640   0.140E-02 0.141E-02
CGA: 143    -0.128299585258E+04   -0.82298E-05   -0.17619E-04 10640   0.140E-02 0.140E-02
CGA: 144    -0.128299586071E+04   -0.81271E-05   -0.17279E-04 10640   0.139E-02 0.140E-02
CGA: 145    -0.128299586874E+04   -0.80273E-05   -0.16948E-04 10640   0.139E-02 0.139E-02
CGA: 146    -0.128299587666E+04   -0.79282E-05   -0.16626E-04 10640   0.138E-02 0.138E-02
CGA: 147    -0.128299588449E+04   -0.78292E-05   -0.16311E-04 10640   0.138E-02 0.138E-02
CGA: 148    -0.128299589223E+04   -0.77321E-05   -0.16005E-04 10640   0.137E-02 0.137E-02
CGA: 149    -0.128299589986E+04   -0.76366E-05   -0.15706E-04 10640   0.137E-02 0.137E-02
CGA: 150    -0.128299590740E+04   -0.75411E-05   -0.15414E-04 10640   0.136E-02 0.136E-02
CGA: 151    -0.128299591485E+04   -0.74465E-05   -0.15129E-04 10640   0.136E-02 0.136E-02
CGA: 152    -0.128299592220E+04   -0.73540E-05   -0.14851E-04 10640   0.135E-02 0.135E-02
CGA: 153    -0.128299592947E+04   -0.72616E-05   -0.14579E-04 10640   0.135E-02 0.135E-02
CGA: 154    -0.128299593664E+04   -0.71705E-05   -0.14314E-04 10640   0.134E-02 0.135E-02
CGA: 155    -0.128299594372E+04   -0.70804E-05   -0.14055E-04 10640   0.134E-02 0.134E-02
CGA: 156    -0.128299595071E+04   -0.69919E-05   -0.13803E-04 10640   0.133E-02 0.134E-02
CGA: 157    -0.128299595761E+04   -0.69044E-05   -0.13556E-04 10640   0.133E-02 0.133E-02
CGA: 158    -0.128299596443E+04   -0.68168E-05   -0.13314E-04 10640   0.133E-02 0.133E-02
CGA: 159    -0.128299597116E+04   -0.67311E-05   -0.13079E-04 10640   0.132E-02 0.132E-02
CGA: 160    -0.128299597781E+04   -0.66463E-05   -0.12848E-04 10640   0.132E-02 0.132E-02
CGA: 161    -0.128299598437E+04   -0.65623E-05   -0.12623E-04 10640   0.131E-02 0.132E-02
CGA: 162    -0.128299599085E+04   -0.64778E-05   -0.12402E-04 10640   0.131E-02 0.131E-02
CGA: 163    -0.128299599724E+04   -0.63940E-05   -0.12186E-04 10640   0.131E-02 0.131E-02
CGA: 164    -0.128299600355E+04   -0.63113E-05   -0.11974E-04 10640   0.130E-02 0.130E-02
CGA: 165    -0.128299600978E+04   -0.62291E-05   -0.11767E-04 10640   0.130E-02 0.130E-02
CGA: 166    -0.128299601593E+04   -0.61479E-05   -0.11565E-04 10640   0.130E-02 0.130E-02
CGA: 167    -0.128299602200E+04   -0.60727E-05   -0.11368E-04 10640   0.129E-02 0.129E-02
CGA: 168    -0.128299602800E+04   -0.59962E-05   -0.11176E-04 10640   0.129E-02 0.129E-02
CGA: 169    -0.128299603392E+04   -0.59218E-05   -0.10988E-04 10640   0.129E-02 0.129E-02
CGA: 170    -0.128299603977E+04   -0.58490E-05   -0.10804E-04 10640   0.128E-02 0.128E-02
CGA: 171    -0.128299604554E+04   -0.57745E-05   -0.10623E-04 10640   0.128E-02 0.128E-02
CGA: 172    -0.128299605125E+04   -0.57028E-05   -0.10447E-04 10640   0.128E-02 0.128E-02
CGA: 173    -0.128299605688E+04   -0.56319E-05   -0.10274E-04 10640   0.127E-02 0.127E-02
CGA: 174    -0.128299606244E+04   -0.55609E-05   -0.10105E-04 10640   0.127E-02 0.127E-02
   1 F= -.12829961E+04 E0= -.12829961E+04  d E =-.128300E+04  mag=    47.0000
       N       E                     dE             d eps       ncg     rms          ort
SDA:   1    -0.128299673220E+04   -0.67533E-03    0.00000E+00 10640   0.319E-02 0.000E+00
CGA:   2    -0.128299692284E+04   -0.19064E-03   -0.11845E-03 10640   0.242E-02 0.278E-02
CGA:   3    -0.128299704500E+04   -0.12216E-03   -0.78010E-04 10640   0.204E-02 0.223E-02
CGA:   4    -0.128299713849E+04   -0.93485E-04   -0.61429E-04 10640   0.181E-02 0.193E-02
CGA:   5    -0.128299721609E+04   -0.77600E-04   -0.52314E-04 10640   0.165E-02 0.173E-02
CGA:   6    -0.128299728355E+04   -0.67460E-04   -0.46513E-04 10640   0.153E-02 0.159E-02
CGA:   7    -0.128299734392E+04   -0.60366E-04   -0.42455E-04 10640   0.143E-02 0.148E-02
CGA:   8    -0.128299739901E+04   -0.55093E-04   -0.39434E-04 10640   0.135E-02 0.139E-02
CGA:   9    -0.128299745000E+04   -0.50989E-04   -0.37077E-04 10640   0.129E-02 0.132E-02
CGA:  10    -0.128299749769E+04   -0.47692E-04   -0.35176E-04 10640   0.123E-02 0.126E-02
CGA:  11    -0.128299754267E+04   -0.44977E-04   -0.33603E-04 10640   0.118E-02 0.120E-02
CGA:  12    -0.128299758537E+04   -0.42701E-04   -0.32279E-04 10640   0.114E-02 0.116E-02
CGA:  13    -0.128299762614E+04   -0.40770E-04   -0.31149E-04 10640   0.110E-02 0.112E-02
CGA:  14    -0.128299766526E+04   -0.39121E-04   -0.30179E-04 10640   0.106E-02 0.108E-02
CGA:  15    -0.128299770296E+04   -0.37703E-04   -0.29338E-04 10640   0.103E-02 0.104E-02
CGA:  16    -0.128299773944E+04   -0.36481E-04   -0.28608E-04 10640   0.100E-02 0.101E-02
CGA:  17    -0.128299777487E+04   -0.35428E-04   -0.27975E-04 10640   0.973E-03 0.986E-03
CGA:  18    -0.128299780940E+04   -0.34529E-04   -0.27430E-04 10640   0.949E-03 0.960E-03
CGA:  19    -0.128299784316E+04   -0.33760E-04   -0.26959E-04 10640   0.926E-03 0.937E-03
CGA:  20    -0.128299787628E+04   -0.33118E-04   -0.26562E-04 10640   0.905E-03 0.915E-03
CGA:  21    -0.128299790887E+04   -0.32589E-04   -0.26229E-04 10640   0.885E-03 0.895E-03
CGA:  22    -0.128299794103E+04   -0.32160E-04   -0.25954E-04 10640   0.867E-03 0.876E-03
CGA:  23    -0.128299797286E+04   -0.31828E-04   -0.25738E-04 10640   0.850E-03 0.858E-03
CGA:  24    -0.128299800444E+04   -0.31586E-04   -0.25573E-04 10640   0.834E-03 0.842E-03
CGA:  25    -0.128299803587E+04   -0.31432E-04   -0.25462E-04 10640   0.819E-03 0.827E-03
CGA:  26    -0.128299806723E+04   -0.31359E-04   -0.25399E-04 10640   0.805E-03 0.812E-03
CGA:  27    -0.128299809860E+04   -0.31364E-04   -0.25382E-04 10640   0.792E-03 0.799E-03
CGA:  28    -0.128299813004E+04   -0.31445E-04   -0.25411E-04 10640   0.780E-03 0.786E-03
CGA:  29    -0.128299816164E+04   -0.31595E-04   -0.25483E-04 10640   0.768E-03 0.774E-03
CGA:  30    -0.128299819346E+04   -0.31822E-04   -0.25600E-04 10640   0.757E-03 0.762E-03
CGA:  31    -0.128299822557E+04   -0.32115E-04   -0.25760E-04 10640   0.746E-03 0.751E-03
CGA:  32    -0.128299825806E+04   -0.32484E-04   -0.25965E-04 10640   0.736E-03 0.741E-03
CGA:  33    -0.128299829097E+04   -0.32913E-04   -0.26208E-04 10640   0.726E-03 0.731E-03
CGA:  34    -0.128299832439E+04   -0.33416E-04   -0.26496E-04 10640   0.716E-03 0.721E-03
CGA:  35    -0.128299835837E+04   -0.33985E-04   -0.26825E-04 10640   0.707E-03 0.712E-03
CGA:  36    -0.128299839300E+04   -0.34627E-04   -0.27199E-04 10640   0.698E-03 0.703E-03
CGA:  37    -0.128299842833E+04   -0.35337E-04   -0.27615E-04 10640   0.690E-03 0.694E-03
CGA:  38    -0.128299846445E+04   -0.36117E-04   -0.28075E-04 10640   0.681E-03 0.686E-03
CGA:  39    -0.128299850142E+04   -0.36972E-04   -0.28581E-04 10640   0.673E-03 0.677E-03
CGA:  40    -0.128299853933E+04   -0.37903E-04   -0.29133E-04 10640   0.665E-03 0.669E-03
CGA:  41    -0.128299857824E+04   -0.38911E-04   -0.29734E-04 10640   0.657E-03 0.661E-03
CGA:  42    -0.128299861824E+04   -0.40001E-04   -0.30383E-04 10640   0.649E-03 0.653E-03
CGA:  43    -0.128299865941E+04   -0.41173E-04   -0.31084E-04 10640   0.641E-03 0.645E-03
CGA:  44    -0.128299870184E+04   -0.42429E-04   -0.31836E-04 10640   0.633E-03 0.637E-03
CGA:  45    -0.128299874563E+04   -0.43783E-04   -0.32647E-04 10640   0.625E-03 0.629E-03
CGA:  46    -0.128299879086E+04   -0.45229E-04   -0.33514E-04 10640   0.617E-03 0.621E-03
CGA:  47    -0.128299883763E+04   -0.46779E-04   -0.34444E-04 10640   0.609E-03 0.613E-03
CGA:  48    -0.128299888607E+04   -0.48435E-04   -0.35437E-04 10640   0.601E-03 0.605E-03
CGA:  49    -0.128299893627E+04   -0.50202E-04   -0.36497E-04 10640   0.593E-03 0.597E-03
CGA:  50    -0.128299898837E+04   -0.52097E-04   -0.37632E-04 10640   0.585E-03 0.589E-03
CGA:  51    -0.128299904249E+04   -0.54122E-04   -0.38844E-04 10640   0.576E-03 0.580E-03
CGA:  52    -0.128299909877E+04   -0.56284E-04   -0.40137E-04 10640   0.567E-03 0.572E-03
CGA:  53    -0.128299915738E+04   -0.58605E-04   -0.41522E-04 10640   0.559E-03 0.563E-03
CGA:  54    -0.128299921847E+04   -0.61087E-04   -0.43001E-04 10640   0.549E-03 0.554E-03
CGA:  55    -0.128299928222E+04   -0.63748E-04   -0.44583E-04 10640   0.540E-03 0.545E-03
CGA:  56    -0.128299934882E+04   -0.66603E-04   -0.46276E-04 10640   0.530E-03 0.535E-03
CGA:  57    -0.128299941849E+04   -0.69674E-04   -0.48093E-04 10640   0.521E-03 0.525E-03
CGA:  58    -0.128299949148E+04   -0.72982E-04   -0.50043E-04 10640   0.510E-03 0.515E-03
CGA:  59    -0.128299956803E+04   -0.76551E-04   -0.52140E-04 10640   0.500E-03 0.505E-03
CGA:  60    -0.128299964844E+04   -0.80417E-04   -0.54403E-04 10640   0.489E-03 0.494E-03
CGA:  61    -0.128299973304E+04   -0.84597E-04   -0.56841E-04 10640   0.477E-03 0.483E-03
CGA:  62    -0.128299982217E+04   -0.89127E-04   -0.59471E-04 10640   0.466E-03 0.471E-03
CGA:  63    -0.128299991622E+04   -0.94050E-04   -0.62319E-04 10640   0.453E-03 0.459E-03
CGA:  64    -0.128300001562E+04   -0.99403E-04   -0.65400E-04 10640   0.440E-03 0.447E-03
CGA:  65    -0.128300012085E+04   -0.10523E-03   -0.68740E-04 10640   0.427E-03 0.434E-03
CGA:  66    -0.128300023244E+04   -0.11159E-03   -0.72363E-04 10640   0.413E-03 0.420E-03
CGA:  67    -0.128300035095E+04   -0.11852E-03   -0.76294E-04 10640   0.398E-03 0.405E-03
CGA:  68    -0.128300047703E+04   -0.12607E-03   -0.80560E-04 10640   0.383E-03 0.390E-03
CGA:  69    -0.128300061134E+04   -0.13431E-03   -0.85181E-04 10640   0.366E-03 0.374E-03
CGA:  70    -0.128300075458E+04   -0.14324E-03   -0.90169E-04 10640   0.349E-03 0.358E-03
CGA:  71    -0.128300090746E+04   -0.15288E-03   -0.95524E-04 10640   0.331E-03 0.340E-03
CGA:  72    -0.128300107061E+04   -0.16315E-03   -0.10120E-03 10640   0.312E-03 0.321E-03
CGA:  73    -0.128300124458E+04   -0.17397E-03   -0.10715E-03 10640   0.292E-03 0.302E-03
CGA:  74    -0.128300142948E+04   -0.18490E-03   -0.11314E-03 10640   0.271E-03 0.281E-03
CGA:  75    -0.128300162496E+04   -0.19548E-03   -0.11891E-03 10640   0.248E-03 0.259E-03
CGA:  76    -0.128300182948E+04   -0.20452E-03   -0.12384E-03 10640   0.225E-03 0.236E-03
CGA:  77    -0.128300204122E+04   -0.21175E-03   -0.12774E-03 10640   0.201E-03 0.213E-03
CGA:  78    -0.128300225143E+04   -0.21021E-03   -0.12697E-03 10640   0.178E-03 0.189E-03
CGA:  79    -0.128300247901E+04   -0.22757E-03   -0.13613E-03 10640   0.155E-03 0.164E-03
CGA:  80    -0.128300258440E+04   -0.10539E-03   -0.73772E-04 10640   0.167E-03 0.136E-03
CGA:  81    -0.128300247932E+04    0.10508E-03   -0.82807E-04 10640   0.534E-02-0.296E-03
CGA:  82    -0.128300289180E+04   -0.41248E-03   -0.58485E-03 10640   0.544E-03 0.373E-03
CGA:  83    -0.128300295275E+04   -0.60953E-04   -0.10601E-03 10640   0.295E-03 0.171E-04
CGA:  84    -0.128300307697E+04   -0.12421E-03   -0.12571E-03 10640   0.337E-03 0.952E-05
CGA:  85    -0.128300310501E+04   -0.28041E-04   -0.66993E-04 10640   0.190E-03 0.154E-03
CGA:  86    -0.128300318371E+04   -0.78700E-04   -0.92258E-04 10640   0.223E-03 0.138E-03
CGA:  87    -0.128300320220E+04   -0.18494E-04   -0.16852E-03 10640   0.237E-02-0.448E-03
CGA:  88    -0.128300333183E+04   -0.12963E-03   -0.25618E-03 10640   0.175E-03 0.409E-03
CGA:  89    -0.128300333944E+04   -0.76088E-05   -0.27808E-04 10640   0.797E-04 0.706E-04
CGA:  90    -0.128300338158E+04   -0.42135E-04   -0.41754E-04 10640   0.167E-03-0.123E-04
CGA:  91    -0.128300341583E+04   -0.34249E-04   -0.37418E-04 10640   0.378E-03 0.189E-04
CGA:  92    -0.128300349531E+04   -0.79487E-04   -0.10281E-03 10640   0.483E-03 0.141E-03
CGA:  93    -0.128300358470E+04   -0.89390E-04   -0.12674E-03 10640   0.270E-03 0.175E-03
CGA:  94    -0.128300364360E+04   -0.58895E-04   -0.72613E-04 10640   0.176E-03 0.663E-04
CGA:  95    -0.128300368817E+04   -0.44566E-04   -0.48997E-04 10640   0.142E-03 0.226E-04
CGA:  96    -0.128300372268E+04   -0.34513E-04   -0.37164E-04 10640   0.132E-03 0.130E-04
CGA:  97    -0.128300374227E+04   -0.19585E-04   -0.26571E-04 10640   0.101E-03 0.347E-04
CGA:  98    -0.128300374886E+04   -0.65976E-05   -0.17964E-04 10640   0.666E-04 0.521E-04
CGA:  99    -0.128300376374E+04   -0.14878E-04   -0.17256E-04 10640   0.311E-04 0.301E-04
CGA: 100    -0.128300377224E+04   -0.85041E-05   -0.10381E-04 10640   0.131E-04 0.183E-04
   2 F= -.12830038E+04 E0= -.12830038E+04  d E =-.770981E-02  mag=    47.0000
       N       E                     dE             d eps       ncg     rms          ort
SDA:   1    -0.128300260158E+04    0.11622E-02    0.00000E+00 10640   0.767E-02 0.000E+00
CGA:   2    -0.128300414215E+04   -0.15406E-02   -0.15285E-02 10640   0.293E-02-0.102E-03
CGA:   3    -0.128300480255E+04   -0.66040E-03   -0.67152E-03 10640   0.758E-03 0.141E-03
CGA:   4    -0.128300498690E+04   -0.18435E-03   -0.16125E-03 10640   0.288E-03-0.222E-03
CGA:   5    -0.128300499372E+04   -0.68154E-05   -0.20529E-04 10640   0.799E-04 0.684E-04
   3 F= -.12830050E+04 E0= -.12830050E+04  d E =-.122147E-02  mag=    47.0000
       N       E                     dE             d eps       ncg     rms          ort
SDA:   1    -0.127737931770E+04    0.56257E+01    0.00000E+00 10640   0.172E+02 0.000E+00
CGA:   2    -0.128098204417E+04   -0.36027E+01   -0.36036E+01 10640   0.669E+01 0.375E-02
CGA:   3    -0.128261652788E+04   -0.16345E+01   -0.16347E+01 10640   0.153E+01 0.704E-02
CGA:   4    -0.128286656206E+04   -0.25003E+00   -0.24975E+00 10640   0.272E+00-0.384E-02
CGA:   5    -0.128292099403E+04   -0.54432E-01   -0.54584E-01 10640   0.640E-01 0.261E-02
CGA:   6    -0.128293530635E+04   -0.14312E-01   -0.14164E-01 10640   0.252E-01-0.318E-02
CGA:   7    -0.128293942808E+04   -0.41217E-02   -0.41869E-02 10640   0.630E-02 0.800E-03
CGA:   8    -0.128294137738E+04   -0.19493E-02   -0.20032E-02 10640   0.364E-02-0.112E-02
CGA:   9    -0.128294228220E+04   -0.90481E-03   -0.93909E-03 10640   0.245E-02-0.668E-03
CGA:  10    -0.128294281531E+04   -0.53312E-03   -0.53537E-03 10640   0.186E-02-0.690E-03
CGA:  11    -0.128294319137E+04   -0.37606E-03   -0.40263E-03 10640   0.131E-02-0.727E-03
CGA:  12    -0.128294333282E+04   -0.14145E-03   -0.45335E-03 10640   0.335E-02-0.105E-02
CGA:  13    -0.128294373167E+04   -0.39885E-03   -0.42073E-03 10640   0.803E-03 0.150E-03
CGA:  14    -0.128294393401E+04   -0.20234E-03   -0.20664E-03 10640   0.262E-03 0.156E-03
CGA:  15    -0.128294399457E+04   -0.60564E-04   -0.67926E-04 10640   0.160E-03 0.132E-03
CGA:  16    -0.128294401640E+04   -0.21828E-04   -0.27854E-04 10640   0.995E-04 0.628E-04
CGA:  17    -0.128294403553E+04   -0.19131E-04   -0.26223E-04 10640   0.663E-04 0.932E-04
CGA:  18    -0.128294404463E+04   -0.90972E-05   -0.12291E-04 10640   0.509E-04 0.419E-04
   4 F= -.12829440E+04 E0= -.12829440E+04  d E =0.609491E-01  mag=    47.0000
       N       E                     dE             d eps       ncg     rms          ort
SDA:   1    -0.128039495228E+04    0.25491E+01    0.00000E+00 10640   0.823E+01 0.000E+00
CGA:   2    -0.128206620172E+04   -0.16712E+01   -0.16712E+01 10640   0.323E+01 0.310E-02
CGA:   3    -0.128283636530E+04   -0.77016E+00   -0.77022E+00 10640   0.900E+00-0.100E-02
CGA:   4    -0.128297052951E+04   -0.13416E+00   -0.13459E+00 10640   0.148E+00 0.897E-02
CGA:   5    -0.128300032916E+04   -0.29800E-01   -0.29718E-01 10640   0.400E-01-0.177E-02
CGA:   6    -0.128300746911E+04   -0.71399E-02   -0.72368E-02 10640   0.114E-01 0.173E-02
CGA:   7    -0.128301012151E+04   -0.26524E-02   -0.26490E-02 10640   0.338E-02-0.212E-03
CGA:   8    -0.128301084977E+04   -0.72825E-03   -0.72951E-03 10640   0.149E-02 0.740E-04
CGA:   9    -0.128301115586E+04   -0.30609E-03   -0.31405E-03 10640   0.529E-03 0.261E-03
CGA:  10    -0.128301129935E+04   -0.14349E-03   -0.14420E-03 10640   0.194E-03 0.196E-03
CGA:  11    -0.128301134167E+04   -0.42316E-04   -0.49493E-04 10640   0.978E-04 0.146E-03
CGA:  12    -0.128301136004E+04   -0.18375E-04   -0.20044E-04 10640   0.611E-04 0.590E-04
CGA:  13    -0.128301136498E+04   -0.49423E-05   -0.89245E-05 10640   0.479E-04 0.464E-04
   5 F= -.12830114E+04 E0= -.12830114E+04  d E =-.673204E-01  mag=    47.0000
       N       E                     dE             d eps       ncg     rms          ort
SDA:   1    -0.128299037744E+04    0.20983E-01    0.00000E+00 10640   0.537E-01 0.000E+00
CGA:   2    -0.128300454501E+04   -0.14168E-01   -0.14152E-01 10640   0.243E-01 0.401E-03
CGA:   3    -0.128300974066E+04   -0.51956E-02   -0.51901E-02 10640   0.486E-02-0.426E-03
CGA:   4    -0.128301051156E+04   -0.77090E-03   -0.77164E-03 10640   0.104E-02 0.144E-04
CGA:   5    -0.128301072095E+04   -0.20939E-03   -0.20804E-03 10640   0.297E-03-0.617E-04
CGA:   6    -0.128301077854E+04   -0.57586E-04   -0.57146E-04 10640   0.124E-03-0.273E-04
CGA:   7    -0.128301079256E+04   -0.14020E-04   -0.16535E-04 10640   0.330E-04 0.344E-04
CGA:   8    -0.128301080189E+04   -0.93299E-05   -0.92965E-05 10640   0.271E-04 0.794E-05
   6 F= -.12830108E+04 E0= -.12830108E+04  d E =0.563096E-03  mag=    47.0000
       N       E                     dE             d eps       ncg     rms          ort
SDA:   1    -0.128268012513E+04    0.33067E+00    0.00000E+00 10640   0.813E+00 0.000E+00
CGA:   2    -0.128291134327E+04   -0.23122E+00   -0.23118E+00 10640   0.400E+00 0.739E-03
CGA:   3    -0.128298452488E+04   -0.73182E-01   -0.73168E-01 10640   0.896E-01-0.246E-03
CGA:   4    -0.128299806082E+04   -0.13536E-01   -0.13559E-01 10640   0.175E-01 0.455E-03
CGA:   5    -0.128300153663E+04   -0.34758E-02   -0.34794E-02 10640   0.374E-02 0.196E-03
CGA:   6    -0.128300241642E+04   -0.87980E-03   -0.88716E-03 10640   0.153E-02-0.403E-03
CGA:   7    -0.128300262364E+04   -0.20721E-03   -0.21874E-03 10640   0.382E-03 0.203E-03
CGA:   8    -0.128300273924E+04   -0.11561E-03   -0.11785E-03 10640   0.212E-03-0.389E-04
CGA:   9    -0.128300279747E+04   -0.58228E-04   -0.59436E-04 10640   0.134E-03-0.128E-04
CGA:  10    -0.128300282153E+04   -0.24057E-04   -0.24809E-04 10640   0.674E-04 0.289E-04
CGA:  11    -0.128300284124E+04   -0.19709E-04   -0.44954E-04 10640   0.194E-03-0.774E-04
CGA:  12    -0.128300286455E+04   -0.23313E-04   -0.27125E-04 10640   0.469E-04 0.392E-04
CGA:  13    -0.128300287899E+04   -0.14440E-04   -0.14507E-04 10640   0.256E-04-0.278E-05
CGA:  14    -0.128300288758E+04   -0.85891E-05   -0.84272E-05 10640   0.314E-04 0.125E-05
CGA:  15    -0.128300290673E+04   -0.19150E-04    0.18428E-04 10640   0.201E-04 0.177E-04
CGA:  16    -0.128300291381E+04   -0.70836E-05   -0.68038E-05 10640   0.111E-04 0.277E-05
CGA:  17    -0.128300292005E+04   -0.62379E-05    0.11124E-03 10640   0.817E-05 0.537E-05
   7 F= -.12830029E+04 E0= -.12830029E+04  d E =0.788184E-02  mag=    47.0000
       N       E                     dE             d eps       ncg     rms          ort
SDA:   1    -0.128280618844E+04    0.19673E+00    0.00000E+00 10640   0.541E+00 0.000E+00
CGA:   2    -0.128293349884E+04   -0.12731E+00   -0.12730E+00 10640   0.244E+00-0.157E-02
CGA:   3    -0.128298911866E+04   -0.55620E-01   -0.55629E-01 10640   0.473E-01 0.511E-03
CGA:   4    -0.128299685360E+04   -0.77349E-02   -0.77034E-02 10640   0.902E-02-0.383E-03
CGA:   5    -0.128299849441E+04   -0.16408E-02   -0.16724E-02 10640   0.206E-02 0.610E-03
CGA:   6    -0.128299905039E+04   -0.55598E-03   -0.56580E-03 10640   0.121E-02-0.468E-03
CGA:   7    -0.128299918467E+04   -0.13428E-03   -0.13868E-03 10640   0.312E-03 0.511E-04
CGA:   8    -0.128299925335E+04   -0.68681E-04   -0.68619E-04 10640   0.169E-03-0.276E-05
CGA:   9    -0.128299933173E+04   -0.78377E-04    0.30846E-02 10640   0.145E-03-0.444E-04
CGA:  10    -0.128299935820E+04   -0.26476E-04   -0.38777E-04 10640   0.166E-03-0.951E-04
CGA:  11    -0.128299939275E+04   -0.34544E-04   -0.34545E-04 10640   0.586E-04 0.174E-06
CGA:  12    -0.128299940765E+04   -0.14905E-04   -0.19088E-04 10640   0.112E-03-0.472E-04
CGA:  13    -0.128299941731E+04   -0.96599E-05   -0.11024E-04 10640   0.132E-04 0.984E-05
CGA:  14    -0.128299942501E+04   -0.76978E-05    0.11438E-04 10640   0.864E-05 0.549E-05
   8 F= -.12829994E+04 E0= -.12829994E+04  d E =0.349504E-02  mag=    47.0000
       N       E                     dE             d eps       ncg     rms          ort
SDA:   1    -0.128119294350E+04    0.18065E+01    0.00000E+00 10640   0.556E+01 0.000E+00
CGA:   2    -0.128233072272E+04   -0.11378E+01   -0.11379E+01 10640   0.220E+01 0.507E-02
CGA:   3    -0.128285315865E+04   -0.52244E+00   -0.52243E+00 10640   0.622E+00 0.274E-03
CGA:   4    -0.128294588270E+04   -0.92724E-01   -0.92986E-01 10640   0.102E+00 0.446E-02
CGA:   5    -0.128296567382E+04   -0.19791E-01   -0.19802E-01 10640   0.267E-01 0.375E-03
CGA:   6    -0.128297083635E+04   -0.51625E-02   -0.51715E-02 10640   0.827E-02 0.292E-03
CGA:   7    -0.128297256868E+04   -0.17323E-02   -0.17356E-02 10640   0.225E-02 0.191E-03
CGA:   8    -0.128297314810E+04   -0.57942E-03   -0.58502E-03 10640   0.124E-02-0.183E-03
CGA:   9    -0.128297331940E+04   -0.17130E-03   -0.18872E-03 10640   0.415E-03 0.292E-03
CGA:  10    -0.128297341251E+04   -0.93117E-04   -0.99189E-04 10640   0.197E-03 0.203E-03
CGA:  11    -0.128297345876E+04   -0.46251E-04   -0.51305E-04 10640   0.119E-03 0.108E-03
CGA:  12    -0.128297346588E+04   -0.71138E-05   -0.14168E-04 10640   0.677E-04 0.702E-04
CGA:  13    -0.128297347983E+04   -0.13956E-04   -0.14191E-04 10640   0.526E-04 0.513E-04
CGA:  14    -0.128297348045E+04   -0.61830E-06   -0.55792E-05 10640   0.449E-04 0.459E-04
   9 F= -.12829735E+04 E0= -.12829735E+04  d E =0.259446E-01  mag=    47.0000
       N       E                     dE             d eps       ncg     rms          ort
SDA:   1    -0.128175404348E+04    0.12194E+01    0.00000E+00 10640   0.412E+01 0.000E+00
CGA:   2    -0.128254259800E+04   -0.78855E+00   -0.78857E+00 10640   0.150E+01 0.235E-02
CGA:   3    -0.128291270989E+04   -0.37011E+00   -0.37017E+00 10640   0.492E+00-0.273E-02
CGA:   4    -0.128298426935E+04   -0.71559E-01   -0.71681E-01 10640   0.739E-01 0.297E-02
CGA:   5    -0.128299868136E+04   -0.14412E-01   -0.14399E-01 10640   0.207E-01-0.129E-02
CGA:   6    -0.128300257521E+04   -0.38938E-02   -0.38986E-02 10640   0.579E-02 0.438E-03
CGA:   7    -0.128300394602E+04   -0.13708E-02   -0.13845E-02 10640   0.180E-02-0.424E-03
CGA:   8    -0.128300428050E+04   -0.33448E-03   -0.33461E-03 10640   0.706E-03 0.375E-04
CGA:   9    -0.128300445320E+04   -0.17270E-03   -0.33128E-03 10640   0.158E-02-0.618E-03
CGA:  10    -0.128300460214E+04   -0.14894E-03   -0.16814E-03 10640   0.239E-03 0.178E-03
CGA:  11    -0.128300467694E+04   -0.74799E-04   -0.89201E-04 10640   0.161E-03-0.115E-03
CGA:  12    -0.128300472744E+04   -0.50504E-04    0.23083E-04 10640   0.110E-03 0.208E-04
CGA:  13    -0.128300451402E+04    0.21342E-03   -0.12841E-03 10640   0.179E-02-0.419E-03
CGA:  14    -0.128300486111E+04   -0.34709E-03   -0.33589E-03 10640   0.502E-03-0.157E-03
CGA:  15    -0.128300489449E+04   -0.33376E-04   -0.46557E-04 10640   0.523E-04 0.871E-04
CGA:  16    -0.128300489497E+04   -0.47602E-06   -0.50533E-05 10640   0.265E-04 0.278E-04
CGA:  17    -0.128300490722E+04   -0.12250E-04   -0.16429E-04 10640   0.640E-04-0.110E-04
CGA:  18    -0.128300490697E+04    0.24285E-06   -0.27289E-05 10640   0.387E-04 0.161E-04
  10 F= -.12830049E+04 E0= -.12830049E+04  d E =-.314265E-01  mag=    47.0000
       N       E                     dE             d eps       ncg     rms          ort
SDA:   1    -0.128298330508E+04    0.21602E-01    0.00000E+00 10640   0.781E-01 0.000E+00
CGA:   2    -0.128299843662E+04   -0.15132E-01   -0.15187E-01 10640   0.281E-01 0.126E-02
CGA:   3    -0.128300579445E+04   -0.73578E-02   -0.73735E-02 10640   0.822E-02-0.756E-03
CGA:   4    -0.128300699087E+04   -0.11964E-02   -0.12064E-02 10640   0.125E-02 0.119E-03
CGA:   5    -0.128300732129E+04   -0.33042E-03   -0.34709E-03 10640   0.689E-03-0.414E-03
CGA:   6    -0.128300737357E+04   -0.52278E-04   -0.59184E-04 10640   0.215E-03 0.650E-04
CGA:   7    -0.128300739156E+04   -0.17987E-04   -0.26420E-04 10640   0.798E-04 0.714E-04
CGA:   8    -0.128300740275E+04   -0.11195E-04   -0.13250E-04 10640   0.234E-04 0.206E-04
CGA:   9    -0.128300740696E+04   -0.42102E-05   -0.46572E-05 10640   0.129E-04 0.726E-05
  11 F= -.12830074E+04 E0= -.12830074E+04  d E =-.249999E-02  mag=    47.0000
       N       E                     dE             d eps       ncg     rms          ort
SDA:   1    -0.128292241645E+04    0.84986E-01    0.00000E+00 10640   0.261E+00 0.000E+00
CGA:   2    -0.128297904909E+04   -0.56633E-01   -0.56613E-01 10640   0.106E+00 0.258E-02
CGA:   3    -0.128300459119E+04   -0.25542E-01   -0.25594E-01 10640   0.249E-01-0.185E-02
CGA:   4    -0.128300851104E+04   -0.39199E-02   -0.39289E-02 10640   0.432E-02 0.185E-03
CGA:   5    -0.128300959387E+04   -0.10828E-02   -0.11372E-02 10640   0.166E-02-0.103E-02
CGA:   6    -0.128300974016E+04   -0.14630E-03   -0.17029E-03 10640   0.469E-03 0.314E-03
CGA:   7    -0.128300981421E+04   -0.74045E-04   -0.80897E-04 10640   0.148E-03 0.110E-03
CGA:   8    -0.128300985629E+04   -0.42081E-04   -0.61235E-04 10640   0.272E-03-0.146E-03
CGA:   9    -0.128300985818E+04   -0.18885E-05   -0.19556E-04 10640   0.731E-04 0.127E-03
  12 F= -.12830099E+04 E0= -.12830099E+04  d E =-.245121E-02  mag=    47.0000
       N       E                     dE             d eps       ncg     rms          ort
SDA:   1    -0.128298699095E+04    0.22865E-01    0.00000E+00 10640   0.669E-01 0.000E+00
CGA:   2    -0.128300384466E+04   -0.16854E-01   -0.16779E-01 10640   0.306E-01 0.140E-02
CGA:   3    -0.128301069946E+04   -0.68548E-02   -0.68848E-02 10640   0.741E-02-0.147E-02
CGA:   4    -0.128301157167E+04   -0.87221E-03   -0.92169E-03 10640   0.124E-02 0.712E-03
CGA:   5    -0.128301190463E+04   -0.33296E-03   -0.35547E-03 10640   0.561E-03-0.351E-03
CGA:   6    -0.128301198781E+04   -0.83181E-04   -0.83782E-04 10640   0.205E-03-0.784E-04
CGA:   7    -0.128301200481E+04   -0.17001E-04   -0.22155E-04 10640   0.760E-04 0.685E-04
CGA:   8    -0.128301201405E+04   -0.92308E-05   -0.11949E-04 10640   0.268E-04 0.342E-04
CGA:   9    -0.128301202356E+04   -0.95119E-05   -0.10057E-04 10640   0.228E-04-0.835E-05
  13 F= -.12830120E+04 E0= -.12830120E+04  d E =-.216538E-02  mag=    47.0000
       N       E                     dE             d eps       ncg     rms          ort
SDA:   1    -0.128247076438E+04    0.54125E+00    0.00000E+00 10640   0.149E+01 0.000E+00
CGA:   2    -0.128284166307E+04   -0.37090E+00   -0.37099E+00 10640   0.689E+00-0.174E-02
CGA:   3    -0.128299484285E+04   -0.15318E+00   -0.15318E+00 10640   0.128E+00-0.139E-03
CGA:   4    -0.128301531185E+04   -0.20469E-01   -0.20477E-01 10640   0.266E-01 0.243E-03
CGA:   5    -0.128302029048E+04   -0.49786E-02   -0.49807E-02 10640   0.689E-02 0.261E-03
CGA:   6    -0.128302162183E+04   -0.13314E-02   -0.13315E-02 10640   0.226E-02 0.550E-04
CGA:   7    -0.128302215744E+04   -0.53561E-03   -0.55060E-03 10640   0.825E-03-0.318E-03
CGA:   8    -0.128302229602E+04   -0.13858E-03   -0.13868E-03 10640   0.308E-03 0.543E-04
CGA:   9    -0.128302239646E+04   -0.10044E-03   -0.13655E-03 10640   0.401E-03-0.165E-03
CGA:  10    -0.128302243425E+04   -0.37786E-04   -0.46099E-04 10640   0.861E-04 0.895E-04
CGA:  11    -0.128302246307E+04   -0.28822E-04   -0.39511E-04 10640   0.114E-03-0.624E-04
CGA:  12    -0.128302249005E+04   -0.26974E-04   -0.27091E-04 10640   0.257E-04-0.473E-05
CGA:  13    -0.128302250288E+04   -0.12837E-04   -0.14209E-04 10640   0.761E-04-0.400E-05
CGA:  14    -0.128302233228E+04    0.17061E-03   -0.93753E-04 10640   0.202E-02-0.221E-03
CGA:  15    -0.128302255943E+04   -0.22715E-03   -0.23230E-03 10640   0.286E-03 0.226E-04
CGA:  16    -0.128302261216E+04   -0.52738E-04   -0.59460E-04 10640   0.366E-04 0.334E-04
CGA:  17    -0.128302263145E+04   -0.19288E-04   -0.23839E-04 10640   0.840E-04-0.245E-04
CGA:  18    -0.128302262208E+04    0.93720E-05   -0.53796E-05 10640   0.255E-04 0.433E-04
  14 F= -.12830226E+04 E0= -.12830226E+04  d E =-.105985E-01  mag=    47.0000
       N       E                     dE             d eps       ncg     rms          ort
SDA:   1    -0.128253519460E+04    0.48744E+00    0.00000E+00 10640   0.146E+01 0.000E+00
CGA:   2    -0.128286183639E+04   -0.32664E+00   -0.32663E+00 10640   0.625E+00 0.133E-05
CGA:   3    -0.128300928044E+04   -0.14744E+00   -0.14742E+00 10640   0.140E+00-0.334E-03
CGA:   4    -0.128303122874E+04   -0.21948E-01   -0.21795E-01 10640   0.265E-01-0.777E-03
CGA:   5    -0.128303616952E+04   -0.49408E-02   -0.49659E-02 10640   0.681E-02 0.194E-03
CGA:   6    -0.128303753908E+04   -0.13696E-02   -0.13684E-02 10640   0.226E-02-0.178E-05
CGA:   7    -0.128303802218E+04   -0.48310E-03   -0.47509E-03 10640   0.658E-03-0.627E-04
CGA:   8    -0.128303816585E+04   -0.14367E-03   -0.14398E-03 10640   0.301E-03 0.399E-05
CGA:   9    -0.128303827348E+04   -0.10763E-03   -0.12258E-03 10640   0.507E-03-0.180E-03
CGA:  10    -0.128303831319E+04   -0.39714E-04   -0.52885E-04 10640   0.835E-04 0.604E-04
CGA:  11    -0.128303834438E+04   -0.31192E-04   -0.31532E-04 10640   0.588E-04-0.155E-04
CGA:  12    -0.128303838088E+04   -0.36494E-04    0.36941E-04 10640   0.855E-04-0.722E-05
CGA:  13    -0.128303832840E+04    0.52477E-04   -0.71214E-04 10640   0.932E-03-0.197E-03
CGA:  14    -0.128303847457E+04   -0.14617E-03   -0.13392E-03 10640   0.254E-03-0.582E-04
CGA:  15    -0.128303850316E+04   -0.28588E-04   -0.37320E-04 10640   0.428E-04 0.484E-04
CGA:  16    -0.128303851356E+04   -0.10397E-04   -0.11912E-04 10640   0.364E-04 0.159E-04
CGA:  17    -0.128303852852E+04   -0.14960E-04   -0.14511E-04 10640   0.273E-04-0.137E-04
CGA:  18    -0.128303852773E+04    0.78354E-06   -0.13205E-05 10640   0.159E-04 0.857E-05
  15 F= -.12830385E+04 E0= -.12830385E+04  d E =-.159057E-01  mag=    47.0000
       N       E                     dE             d eps       ncg     rms          ort
SDA:   1    -0.128279038614E+04    0.24814E+00    0.00000E+00 10640   0.731E+00 0.000E+00
CGA:   2    -0.128295457719E+04   -0.16419E+00   -0.16408E+00 10640   0.315E+00-0.145E-02
CGA:   3    -0.128302767184E+04   -0.73095E-01   -0.73137E-01 10640   0.696E-01 0.628E-03
CGA:   4    -0.128303879250E+04   -0.11121E-01   -0.11069E-01 10640   0.125E-01-0.376E-03
CGA:   5    -0.128304129191E+04   -0.24994E-02   -0.24866E-02 10640   0.345E-02-0.139E-03
CGA:   6    -0.128304191915E+04   -0.62724E-03   -0.63230E-03 10640   0.111E-02 0.575E-04
CGA:   7    -0.128304216031E+04   -0.24115E-03   -0.23874E-03 10640   0.329E-03-0.370E-04
CGA:   8    -0.128304223352E+04   -0.73219E-04   -0.73684E-04 10640   0.148E-03 0.118E-04
CGA:   9    -0.128304225126E+04   -0.17739E-04   -0.99602E-04 10640   0.833E-03-0.217E-03
CGA:  10    -0.128304231497E+04   -0.63706E-04   -0.82191E-04 10640   0.103E-03 0.987E-04
CGA:  11    -0.128304233714E+04   -0.22172E-04   -0.23671E-04 10640   0.363E-04 0.203E-04
CGA:  12    -0.128304228446E+04    0.52676E-04   -0.39257E-04 10640   0.100E-02-0.146E-03
CGA:  13    -0.128304236255E+04   -0.78083E-04   -0.94424E-04 10640   0.726E-04 0.794E-04
CGA:  14    -0.128304238719E+04   -0.24646E-04   -0.24777E-04 10640   0.485E-04-0.671E-05
CGA:  15    -0.128304239994E+04   -0.12744E-04   -0.14040E-04 10640   0.128E-03-0.608E-04
CGA:  16    -0.128304240682E+04   -0.68829E-05   -0.12058E-04 10640   0.188E-04 0.256E-04
  16 F= -.12830424E+04 E0= -.12830424E+04  d E =-.387909E-02  mag=    47.0000
       N       E                     dE             d eps       ncg     rms          ort
SDA:   1    -0.128257298950E+04    0.46941E+00    0.00000E+00 10640   0.128E+01 0.000E+00
CGA:   2    -0.128289313604E+04   -0.32015E+00   -0.32013E+00 10640   0.607E+00-0.159E-03
CGA:   3    -0.128302315334E+04   -0.13002E+00   -0.12987E+00 10640   0.122E+00-0.221E-02
CGA:   4    -0.128304205884E+04   -0.18905E-01   -0.18914E-01 10640   0.242E-01 0.189E-03
CGA:   5    -0.128304692842E+04   -0.48696E-02   -0.48072E-02 10640   0.713E-02-0.830E-03
CGA:   6    -0.128304808239E+04   -0.11540E-02   -0.11869E-02 10640   0.190E-02 0.355E-03
CGA:   7    -0.128304856547E+04   -0.48309E-03   -0.48066E-03 10640   0.611E-03-0.105E-03
CGA:   8    -0.128304872347E+04   -0.15800E-03   -0.15865E-03 10640   0.394E-03-0.511E-04
CGA:   9    -0.128304883018E+04   -0.10671E-03   -0.11285E-03 10640   0.387E-03-0.122E-03
CGA:  10    -0.128304890774E+04   -0.77559E-04   -0.97144E-04 10640   0.420E-03-0.199E-03
CGA:  11    -0.128304896848E+04   -0.60742E-04   -0.63046E-04 10640   0.165E-03 0.199E-04
CGA:  12    -0.128304901276E+04   -0.44275E-04   -0.44358E-04 10640   0.657E-04 0.102E-04
CGA:  13    -0.128304905827E+04   -0.45516E-04    0.38926E-04 10640   0.373E-04 0.328E-04
CGA:  14    -0.128304907920E+04   -0.20923E-04   -0.19366E-04 10640   0.394E-04 0.184E-04
CGA:  15    -0.128304912032E+04   -0.41121E-04    0.25725E-04 10640   0.355E-04 0.290E-04
CGA:  16    -0.128304913350E+04   -0.13179E-04   -0.17893E-04 10640   0.126E-03-0.201E-04
CGA:  17    -0.128304914596E+04   -0.12461E-04   -0.13253E-04 10640   0.176E-04 0.483E-05
CGA:  18    -0.128304915928E+04   -0.13323E-04    0.71661E-05 10640   0.149E-04 0.114E-04
CGA:  19    -0.128304916640E+04   -0.71234E-05   -0.79815E-05 10640   0.668E-04-0.336E-05
CGA:  20    -0.128304920294E+04   -0.36540E-04    0.30342E-04 10640   0.101E-03 0.324E-04
CGA:  21    -0.128304922102E+04   -0.18074E-04   -0.86870E-04 10640   0.122E-02-0.238E-03
CGA:  22    -0.128304933110E+04   -0.11008E-03   -0.11856E-03 10640   0.218E-04 0.456E-04
CGA:  23    -0.128304933262E+04   -0.15213E-05   -0.26563E-05 10640   0.605E-05 0.668E-05
  17 F= -.12830493E+04 E0= -.12830493E+04  d E =-.692580E-02  mag=    47.0000
       N       E                     dE             d eps       ncg     rms          ort
SDA:   1    -0.128229417523E+04    0.75516E+00    0.00000E+00 10640   0.199E+01 0.000E+00
CGA:   2    -0.128281268181E+04   -0.51851E+00   -0.51831E+00 10640   0.980E+00-0.459E-02
CGA:   3    -0.128300680654E+04   -0.19412E+00   -0.19420E+00 10640   0.208E+00 0.185E-02
CGA:   4    -0.128303792150E+04   -0.31115E-01   -0.31279E-01 10640   0.408E-01 0.125E-02
CGA:   5    -0.128304592856E+04   -0.80071E-02   -0.80066E-02 10640   0.104E-01 0.286E-04
CGA:   6    -0.128304788419E+04   -0.19556E-02   -0.19791E-02 10640   0.300E-02 0.266E-03
CGA:   7    -0.128304868173E+04   -0.79754E-03   -0.78753E-03 10640   0.131E-02-0.453E-03
CGA:   8    -0.128304887580E+04   -0.19407E-03   -0.20158E-03 10640   0.500E-03 0.805E-04
CGA:   9    -0.128304904387E+04   -0.16807E-03   -0.16935E-03 10640   0.278E-03-0.272E-04
CGA:  10    -0.128304914122E+04   -0.97344E-04   -0.10282E-03 10640   0.263E-03-0.474E-04
CGA:  11    -0.128304918523E+04   -0.44012E-04   -0.45882E-04 10640   0.132E-03 0.262E-04
CGA:  12    -0.128304924745E+04   -0.62216E-04   -0.77787E-04 10640   0.252E-03-0.613E-04
CGA:  13    -0.128304932816E+04   -0.80712E-04    0.56725E-03 10640   0.336E-03-0.666E-04
CGA:  14    -0.128304940981E+04   -0.81655E-04   -0.88433E-04 10640   0.389E-03-0.108E-03
CGA:  15    -0.128304943652E+04   -0.26702E-04   -0.36412E-04 10640   0.250E-03 0.573E-04
CGA:  16    -0.128304948572E+04   -0.49201E-04   -0.52400E-04 10640   0.152E-03 0.274E-04
CGA:  17    -0.128304949285E+04   -0.71289E-05   -0.88988E-04 10640   0.576E-03-0.335E-03
CGA:  18    -0.128304952463E+04   -0.31785E-04   -0.66925E-04 10640   0.135E-03 0.200E-03
CGA:  19    -0.128304955492E+04   -0.30291E-04   -0.33512E-04 10640   0.518E-04 0.325E-04
CGA:  20    -0.128304960272E+04   -0.47795E-04    0.27099E-04 10640   0.560E-04-0.311E-04
CGA:  21    -0.128304959649E+04    0.62254E-05   -0.27601E-05 10640   0.284E-04 0.392E-04
  18 F= -.12830496E+04 E0= -.12830496E+04  d E =-.263870E-03  mag=    47.0000
       N       E                     dE             d eps       ncg     rms          ort
SDA:   1    -0.128255139763E+04    0.49821E+00    0.00000E+00 10640   0.151E+01 0.000E+00
CGA:   2    -0.128286864431E+04   -0.31725E+00   -0.31739E+00 10640   0.619E+00 0.348E-02
CGA:   3    -0.128301686513E+04   -0.14822E+00   -0.14816E+00 10640   0.162E+00-0.405E-02
CGA:   4    -0.128304139452E+04   -0.24529E-01   -0.24488E-01 10640   0.267E-01-0.329E-03
CGA:   5    -0.128304660993E+04   -0.52154E-02   -0.52201E-02 10640   0.728E-02 0.111E-03
CGA:   6    -0.128304793935E+04   -0.13294E-02   -0.13437E-02 10640   0.217E-02 0.239E-03
CGA:   7    -0.128304839778E+04   -0.45843E-03   -0.46143E-03 10640   0.579E-03 0.835E-04
CGA:   8    -0.128304854329E+04   -0.14551E-03   -0.14550E-03 10640   0.281E-03 0.471E-05
CGA:   9    -0.128304858651E+04   -0.43220E-04   -0.48763E-04 10640   0.994E-04 0.809E-04
CGA:  10    -0.128304861694E+04   -0.30430E-04   -0.88364E-04 10640   0.335E-03-0.128E-03
CGA:  11    -0.128304865877E+04   -0.41829E-04   -0.50312E-04 10640   0.530E-04 0.772E-04
CGA:  12    -0.128304867643E+04   -0.17661E-04   -0.17900E-04 10640   0.372E-04-0.120E-04
CGA:  13    -0.128304867551E+04    0.91954E-06   -0.24210E-05 10640   0.262E-04 0.194E-04
  19 F= -.12830487E+04 E0= -.12830487E+04  d E =0.920980E-03  mag=    47.0000
       N       E                     dE             d eps       ncg     rms          ort
SDA:   1    -0.128282703936E+04    0.22164E+00    0.00000E+00 10640   0.627E+00 0.000E+00
CGA:   2    -0.128297604989E+04   -0.14901E+00   -0.14901E+00 10640   0.288E+00-0.683E-03
CGA:   3    -0.128303920155E+04   -0.63152E-01   -0.63190E-01 10640   0.580E-01 0.188E-02
CGA:   4    -0.128304856882E+04   -0.93673E-02   -0.93677E-02 10640   0.108E-01 0.356E-04
CGA:   5    -0.128305061977E+04   -0.20509E-02   -0.20742E-02 10640   0.264E-02 0.539E-03
CGA:   6    -0.128305125803E+04   -0.63827E-03   -0.63717E-03 10640   0.129E-02-0.391E-03
CGA:   7    -0.128305141224E+04   -0.15421E-03   -0.16394E-03 10640   0.299E-03 0.119E-03
CGA:   8    -0.128305147935E+04   -0.67108E-04   -0.67851E-04 10640   0.138E-03 0.363E-04
CGA:   9    -0.128305145237E+04    0.26978E-04   -0.10008E-03 10640   0.124E-02-0.304E-03
CGA:  10    -0.128305152620E+04   -0.73829E-04   -0.10976E-03 10640   0.141E-03 0.228E-03
CGA:  11    -0.128305154021E+04   -0.14011E-04   -0.21134E-04 10640   0.649E-04 0.629E-04
CGA:  12    -0.128305156319E+04   -0.22977E-04   -0.23726E-04 10640   0.504E-04-0.420E-04
CGA:  13    -0.128305156460E+04   -0.14104E-05   -0.46543E-05 10640   0.170E-04 0.227E-04
  20 F= -.12830516E+04 E0= -.12830516E+04  d E =-.288909E-02  mag=    47.0000
       N       E                     dE             d eps       ncg     rms          ort
SDA:   1    -0.128298917531E+04    0.62388E-01    0.00000E+00 10640   0.188E+00 0.000E+00
CGA:   2    -0.128302893465E+04   -0.39759E-01   -0.39754E-01 10640   0.760E-01-0.422E-03
CGA:   3    -0.128304712780E+04   -0.18193E-01   -0.18175E-01 10640   0.183E-01 0.959E-03
CGA:   4    -0.128304988123E+04   -0.27534E-02   -0.27925E-02 10640   0.319E-02 0.553E-03
CGA:   5    -0.128305057331E+04   -0.69209E-03   -0.68955E-03 10640   0.109E-02-0.267E-03
CGA:   6    -0.128305073123E+04   -0.15792E-03   -0.16197E-03 10640   0.282E-03 0.733E-04
CGA:   7    -0.128305080358E+04   -0.72350E-04   -0.72786E-04 10640   0.791E-04-0.165E-04
CGA:   8    -0.128305082284E+04   -0.19264E-04   -0.19023E-04 10640   0.321E-04 0.627E-05
CGA:   9    -0.128305082782E+04   -0.49707E-05   -0.58159E-05 10640   0.142E-04 0.166E-04
  21 F= -.12830508E+04 E0= -.12830508E+04  d E =0.736781E-03  mag=    47.0000
       N       E                     dE             d eps       ncg     rms          ort
SDA:   1    -0.128276062680E+04    0.29020E+00    0.00000E+00 10640   0.781E+00 0.000E+00
CGA:   2    -0.128294917555E+04   -0.18855E+00   -0.18852E+00 10640   0.355E+00 0.119E-02
CGA:   3    -0.128302887951E+04   -0.79704E-01   -0.79717E-01 10640   0.724E-01-0.134E-02
CGA:   4    -0.128304016784E+04   -0.11288E-01   -0.11259E-01 10640   0.151E-01-0.447E-03
CGA:   5    -0.128304299635E+04   -0.28285E-02   -0.28228E-02 10640   0.404E-02-0.227E-03
CGA:   6    -0.128304377905E+04   -0.78270E-03   -0.78007E-03 10640   0.132E-02-0.181E-03
CGA:   7    -0.128304400396E+04   -0.22491E-03   -0.22926E-03 10640   0.287E-03 0.155E-03
CGA:   8    -0.128304410385E+04   -0.99891E-04   -0.11211E-03 10640   0.226E-03-0.862E-04
CGA:   9    -0.128304413296E+04   -0.29112E-04   -0.29768E-04 10640   0.109E-03 0.244E-04
CGA:  10    -0.128304358505E+04    0.54791E-03   -0.29504E-03 10640   0.311E-02-0.604E-03
CGA:  11    -0.128304417981E+04   -0.59476E-03   -0.61311E-03 10640   0.226E-03 0.951E-04
CGA:  12    -0.128304422597E+04   -0.46157E-04   -0.52341E-04 10640   0.863E-04 0.398E-04
CGA:  13    -0.128304424113E+04   -0.15164E-04   -0.20202E-04 10640   0.360E-04 0.291E-04
CGA:  14    -0.128304425741E+04   -0.16277E-04   -0.43502E-04 10640   0.142E-03-0.506E-04
CGA:  15    -0.128304425606E+04    0.13528E-05   -0.13667E-04 10640   0.323E-04 0.513E-04
  22 F= -.12830443E+04 E0= -.12830443E+04  d E =0.657176E-02  mag=    47.0000
       N       E                     dE             d eps       ncg     rms          ort
SDA:   1    -0.128292935111E+04    0.11491E+00    0.00000E+00 10640   0.345E+00 0.000E+00
CGA:   2    -0.128300247694E+04   -0.73126E-01   -0.72908E-01 10640   0.141E+00-0.136E-02
CGA:   3    -0.128303519762E+04   -0.32721E-01   -0.32911E-01 10640   0.359E-01 0.150E-02
CGA:   4    -0.128304062769E+04   -0.54301E-02   -0.55195E-02 10640   0.612E-02 0.474E-03
CGA:   5    -0.128304182250E+04   -0.11948E-02   -0.12000E-02 10640   0.172E-02 0.406E-04
CGA:   6    -0.128304211989E+04   -0.29739E-03   -0.31063E-03 10640   0.488E-03 0.880E-04
CGA:   7    -0.128304226323E+04   -0.14334E-03   -0.13768E-03 10640   0.216E-03-0.994E-04
CGA:   8    -0.128304228569E+04   -0.22465E-04   -0.27406E-04 10640   0.727E-04 0.305E-04
CGA:   9    -0.128304230442E+04   -0.18722E-04   -0.19428E-04 10640   0.317E-04 0.884E-05
CGA:  10    -0.128304230783E+04   -0.34186E-05   -0.56060E-05 10640   0.173E-04 0.143E-04
  23 F= -.12830423E+04 E0= -.12830423E+04  d E =0.194822E-02  mag=    47.0000
       N       E                     dE             d eps       ncg     rms          ort
SDA:   1    -0.128298172806E+04    0.60576E-01    0.00000E+00 10640   0.185E+00 0.000E+00
CGA:   2    -0.128302166067E+04   -0.39933E-01   -0.39982E-01 10640   0.780E-01 0.710E-03
CGA:   3    -0.128304013338E+04   -0.18473E-01   -0.18418E-01 10640   0.197E-01-0.105E-02
CGA:   4    -0.128304316649E+04   -0.30331E-02   -0.29884E-02 10640   0.356E-02-0.334E-03
CGA:   5    -0.128304380468E+04   -0.63819E-03   -0.64507E-03 10640   0.912E-03 0.765E-04
CGA:   6    -0.128304397715E+04   -0.17247E-03   -0.17437E-03 10640   0.268E-03 0.229E-04
CGA:   7    -0.128304402632E+04   -0.49171E-04   -0.52224E-04 10640   0.613E-04 0.385E-04
CGA:   8    -0.128304404633E+04   -0.20008E-04   -0.20044E-04 10640   0.327E-04-0.176E-05
CGA:   9    -0.128304404681E+04   -0.48158E-06   -0.34393E-05 10640   0.157E-04 0.187E-04
  24 F= -.12830440E+04 E0= -.12830440E+04  d E =-.173898E-02  mag=    47.0000
       N       E                     dE             d eps       ncg     rms          ort
SDA:   1    -0.128291005811E+04    0.13399E+00    0.00000E+00 10640   0.348E+00 0.000E+00
CGA:   2    -0.128300073092E+04   -0.90673E-01   -0.90674E-01 10640   0.165E+00 0.238E-03
CGA:   3    -0.128303595119E+04   -0.35220E-01   -0.35166E-01 10640   0.292E-01-0.101E-02
CGA:   4    -0.128304072360E+04   -0.47724E-02   -0.47915E-02 10640   0.565E-02 0.208E-03
CGA:   5    -0.128304195353E+04   -0.12299E-02   -0.12239E-02 10640   0.136E-02-0.140E-03
CGA:   6    -0.128304215702E+04   -0.20349E-03   -0.22570E-03 10640   0.355E-03 0.261E-03
CGA:   7    -0.128304228124E+04   -0.12422E-03   -0.13295E-03 10640   0.254E-03-0.139E-03
CGA:   8    -0.128304228331E+04   -0.20663E-05   -0.14460E-04 10640   0.152E-03 0.771E-04
CGA:   9    -0.128304228615E+04   -0.28406E-05   -0.17008E-04 10640   0.685E-04 0.885E-04
CGA:  10    -0.128304232094E+04   -0.34785E-04    0.12479E-03 10640   0.324E-04 0.153E-04
CGA:  11    -0.128304231913E+04    0.18084E-05   -0.28476E-05 10640   0.171E-04 0.280E-04
  25 F= -.12830423E+04 E0= -.12830423E+04  d E =0.172768E-02  mag=    47.0000
       N       E                     dE             d eps       ncg     rms          ort
SDA:   1    -0.128061462596E+04    0.24277E+01    0.00000E+00 10640   0.734E+01 0.000E+00
CGA:   2    -0.128215999445E+04   -0.15454E+01   -0.15453E+01 10640   0.297E+01-0.628E-02
CGA:   3    -0.128287079131E+04   -0.71080E+00   -0.71050E+00 10640   0.708E+00 0.140E-01
CGA:   4    -0.128298265977E+04   -0.11187E+00   -0.11201E+00 10640   0.123E+00 0.236E-02
CGA:   5    -0.128300666604E+04   -0.24006E-01   -0.24042E-01 10640   0.332E-01 0.164E-02
CGA:   6    -0.128301331181E+04   -0.66458E-02   -0.66142E-02 10640   0.121E-01-0.149E-02
CGA:   7    -0.128301555836E+04   -0.22466E-02   -0.22464E-02 10640   0.298E-02 0.978E-05
CGA:   8    -0.128301640218E+04   -0.84381E-03   -0.88813E-03 10640   0.181E-02-0.535E-03
CGA:   9    -0.128301674593E+04   -0.34375E-03   -0.34510E-03 10640   0.935E-03-0.987E-04
CGA:  10    -0.128301695866E+04   -0.21273E-03   -0.21271E-03 10640   0.382E-03 0.134E-05
CGA:  11    -0.128301708866E+04   -0.12999E-03   -0.18638E-03 10640   0.570E-03-0.213E-03
CGA:  12    -0.128301716752E+04   -0.78866E-04   -0.82654E-04 10640   0.177E-03 0.434E-04
CGA:  13    -0.128301722509E+04   -0.57568E-04   -0.62675E-04 10640   0.158E-03-0.515E-04
CGA:  14    -0.128301728124E+04   -0.56145E-04    0.19413E-03 10640   0.115E-03 0.297E-04
CGA:  15    -0.128301734811E+04   -0.66869E-04   -0.80958E-04 10640   0.251E-03-0.418E-04
CGA:  16    -0.128301738994E+04   -0.41838E-04   -0.46609E-04 10640   0.391E-03-0.130E-03
CGA:  17    -0.128301746511E+04   -0.75166E-04   -0.74723E-04 10640   0.174E-03-0.635E-05
CGA:  18    -0.128301749145E+04   -0.26338E-04   -0.27852E-04 10640   0.303E-04 0.173E-04
CGA:  19    -0.128301750681E+04   -0.15361E-04   -0.13821E-04 10640   0.361E-04 0.891E-05
CGA:  20    -0.128301751569E+04   -0.88814E-05   -0.94318E-05 10640   0.195E-04 0.102E-04
CGA:  21    -0.128301752657E+04   -0.10875E-04   -0.10131E-04 10640   0.216E-04 0.446E-05
CGA:  22    -0.128301753807E+04   -0.11502E-04   -0.13924E-04 10640   0.538E-04-0.101E-04
CGA:  23    -0.128301753933E+04   -0.12613E-05   -0.32952E-05 10640   0.522E-04 0.115E-04
  26 F= -.12830175E+04 E0= -.12830175E+04  d E =0.247798E-01  mag=    47.0000
       N       E                     dE             d eps       ncg     rms          ort
SDA:   1    -0.128097735519E+04    0.20402E+01    0.00000E+00 10640   0.689E+01 0.000E+00
CGA:   2    -0.128229031069E+04   -0.13130E+01   -0.13136E+01 10640   0.245E+01 0.108E-01
CGA:   3    -0.128291678703E+04   -0.62648E+00   -0.62648E+00 10640   0.707E+00-0.105E-01
CGA:   4    -0.128302571563E+04   -0.10893E+00   -0.10887E+00 10640   0.105E+00 0.434E-03
CGA:   5    -0.128304785408E+04   -0.22138E-01   -0.22050E-01 10640   0.290E-01-0.221E-02
CGA:   6    -0.128305307476E+04   -0.52207E-02   -0.53077E-02 10640   0.837E-02 0.151E-02
CGA:   7    -0.128305503890E+04   -0.19641E-02   -0.19515E-02 10640   0.258E-02-0.540E-03
CGA:   8    -0.128305544977E+04   -0.41088E-03   -0.44030E-03 10640   0.777E-03 0.488E-03
CGA:   9    -0.128305577720E+04   -0.32743E-03   -0.36884E-03 10640   0.698E-03-0.260E-03
CGA:  10    -0.128305591238E+04   -0.13518E-03   -0.14710E-03 10640   0.481E-03-0.175E-03
CGA:  11    -0.128305599674E+04   -0.84359E-04   -0.15741E-03 10640   0.726E-03-0.397E-03
CGA:  12    -0.128305607754E+04   -0.80795E-04   -0.99116E-04 10640   0.217E-03 0.148E-03
CGA:  13    -0.128305613405E+04   -0.56510E-04   -0.57940E-04 10640   0.892E-04 0.430E-04
CGA:  14    -0.128305616837E+04   -0.34322E-04   -0.32449E-04 10640   0.656E-04 0.368E-04
CGA:  15    -0.128305618169E+04   -0.13322E-04   -0.16152E-04 10640   0.260E-04 0.347E-04
CGA:  16    -0.128305619571E+04   -0.14014E-04    0.46622E-04 10640   0.232E-04 0.841E-05
CGA:  17    -0.128305619683E+04   -0.11225E-05   -0.38552E-05 10640   0.123E-04 0.216E-04
  27 F= -.12830562E+04 E0= -.12830562E+04  d E =-.386575E-01  mag=    47.0000
       N       E                     dE             d eps       ncg     rms          ort
SDA:   1    -0.128298145160E+04    0.74744E-01    0.00000E+00 10640   0.272E+00 0.000E+00
CGA:   2    -0.128303370774E+04   -0.52256E-01   -0.52136E-01 10640   0.973E-01-0.253E-02
CGA:   3    -0.128305739913E+04   -0.23691E-01   -0.23661E-01 10640   0.265E-01 0.283E-02
CGA:   4    -0.128306166762E+04   -0.42685E-02   -0.42981E-02 10640   0.392E-02 0.389E-03
CGA:   5    -0.128306235860E+04   -0.69098E-03   -0.72028E-03 10640   0.877E-03 0.578E-03
CGA:   6    -0.128306263109E+04   -0.27250E-03   -0.28198E-03 10640   0.514E-03-0.185E-03
CGA:   7    -0.128306266519E+04   -0.34101E-04   -0.46966E-04 10640   0.155E-03 0.111E-03
CGA:   8    -0.128306268191E+04   -0.16714E-04   -0.21836E-04 10640   0.654E-04 0.467E-04
CGA:   9    -0.128306265887E+04    0.23038E-04   -0.51210E-04 10640   0.480E-03-0.194E-03
CGA:  10    -0.128306268853E+04   -0.29666E-04   -0.51920E-04 10640   0.976E-04 0.170E-03
CGA:  11    -0.128306269554E+04   -0.70033E-05   -0.13885E-04 10640   0.255E-04 0.538E-04
  28 F= -.12830627E+04 E0= -.12830627E+04  d E =-.649871E-02  mag=    47.0000
       N       E                     dE             d eps       ncg     rms          ort
SDA:   1    -0.128300537059E+04    0.57318E-01    0.00000E+00 10640   0.200E+00 0.000E+00
CGA:   2    -0.128304430643E+04   -0.38936E-01   -0.38824E-01 10640   0.777E-01-0.315E-02
CGA:   3    -0.128306147368E+04   -0.17167E-01   -0.17174E-01 10640   0.232E-01 0.265E-02
CGA:   4    -0.128306524108E+04   -0.37674E-02   -0.37711E-02 10640   0.354E-02 0.647E-04
CGA:   5    -0.128306579794E+04   -0.55686E-03   -0.59083E-03 10640   0.758E-03 0.600E-03
CGA:   6    -0.128306599845E+04   -0.20051E-03   -0.20023E-03 10640   0.239E-03 0.517E-04
CGA:   7    -0.128306606056E+04   -0.62106E-04   -0.62136E-04 10640   0.804E-04-0.122E-05
CGA:   8    -0.128306607581E+04   -0.15251E-04   -0.15478E-04 10640   0.338E-04 0.810E-05
CGA:   9    -0.128306608578E+04   -0.99659E-05   -0.99890E-05 10640   0.188E-04-0.455E-06
  29 F= -.12830661E+04 E0= -.12830661E+04  d E =-.339024E-02  mag=    47.0000
       N       E                     dE             d eps       ncg     rms          ort
SDA:   1    -0.128304131910E+04    0.24757E-01    0.00000E+00 10640   0.823E-01 0.000E+00
CGA:   2    -0.128306076024E+04   -0.19441E-01   -0.19468E-01 10640   0.370E-01-0.116E-02
CGA:   3    -0.128306850598E+04   -0.77457E-02   -0.77468E-02 10640   0.836E-02 0.418E-03
CGA:   4    -0.128306990613E+04   -0.14001E-02   -0.13883E-02 10640   0.178E-02-0.228E-03
CGA:   5    -0.128307014483E+04   -0.23870E-03   -0.25829E-03 10640   0.357E-03 0.313E-03
CGA:   6    -0.128307021725E+04   -0.72420E-04   -0.74889E-04 10640   0.103E-03 0.806E-04
CGA:   7    -0.128307023474E+04   -0.17491E-04   -0.71743E-04 10640   0.338E-03-0.150E-03
CGA:   8    -0.128307025736E+04   -0.22622E-04   -0.34363E-04 10640   0.643E-04 0.949E-04
CGA:   9    -0.128307026736E+04   -0.99982E-05   -0.11841E-04 10640   0.246E-04 0.243E-04
CGA:  10    -0.128307025944E+04    0.79196E-05   -0.20177E-04 10640   0.212E-03-0.739E-04
CGA:  11    -0.128307026696E+04   -0.75195E-05   -0.17803E-04 10640   0.400E-04 0.685E-04
  30 F= -.12830703E+04 E0= -.12830703E+04  d E =-.418118E-02  mag=    47.0000
       N       E                     dE             d eps       ncg     rms          ort
SDA:   1    -0.128299855728E+04    0.71702E-01    0.00000E+00 10640   0.211E+00 0.000E+00
CGA:   2    -0.128304968904E+04   -0.51132E-01   -0.51172E-01 10640   0.110E+00-0.175E-02
CGA:   3    -0.128306975105E+04   -0.20062E-01   -0.20085E-01 10640   0.285E-01 0.710E-03
CGA:   4    -0.128307401848E+04   -0.42674E-02   -0.43307E-02 10640   0.435E-02 0.948E-03
CGA:   5    -0.128307498549E+04   -0.96701E-03   -0.96696E-03 10640   0.109E-02-0.471E-04
CGA:   6    -0.128307517384E+04   -0.18835E-03   -0.19369E-03 10640   0.275E-03 0.145E-03
CGA:   7    -0.128307520844E+04   -0.34600E-04   -0.17510E-03 10640   0.933E-03-0.403E-03
CGA:   8    -0.128307529066E+04   -0.82221E-04   -0.10446E-03 10640   0.163E-03 0.187E-03
CGA:   9    -0.128307531980E+04   -0.29133E-04   -0.31432E-04 10640   0.325E-04 0.353E-04
CGA:  10    -0.128307533113E+04   -0.11336E-04   -0.12862E-04 10640   0.548E-04-0.149E-04
CGA:  11    -0.128307532903E+04    0.21027E-05   -0.12116E-05 10640   0.449E-04 0.177E-04
  31 F= -.12830753E+04 E0= -.12830753E+04  d E =-.506207E-02  mag=    47.0000
       N       E                     dE             d eps       ncg     rms          ort
SDA:   1    -0.127196149677E+04    0.11114E+02    0.00000E+00 10640   0.375E+02 0.000E+00
CGA:   2    -0.127870345549E+04   -0.67420E+01   -0.67364E+01 10640   0.131E+02 0.857E-02
CGA:   3    -0.128186191690E+04   -0.31585E+01   -0.31545E+01 10640   0.472E+01 0.574E-01
CGA:   4    -0.128257998176E+04   -0.71806E+00   -0.71568E+00 10640   0.661E+00 0.957E-02
CGA:   5    -0.128270835532E+04   -0.12837E+00   -0.12829E+00 10640   0.188E+00-0.700E-02
CGA:   6    -0.128274430274E+04   -0.35947E-01   -0.35970E-01 10640   0.528E-01 0.235E-02
CGA:   7    -0.128275582184E+04   -0.11519E-01   -0.11522E-01 10640   0.148E-01-0.224E-03
CGA:   8    -0.128275874644E+04   -0.29246E-02   -0.29321E-02 10640   0.548E-02 0.119E-02
CGA:   9    -0.128276041469E+04   -0.16683E-02   -0.16846E-02 10640   0.319E-02-0.202E-03
CGA:  10    -0.128276120971E+04   -0.79501E-03   -0.79899E-03 10640   0.185E-02-0.731E-04
CGA:  11    -0.128276167956E+04   -0.46986E-03   -0.84481E-03 10640   0.421E-02-0.148E-02
CGA:  12    -0.128276208879E+04   -0.40923E-03   -0.45236E-03 10640   0.760E-03 0.382E-03
CGA:  13    -0.128276228587E+04   -0.19707E-03   -0.19349E-03 10640   0.335E-03 0.245E-03
CGA:  14    -0.128276244915E+04   -0.16328E-03   -0.17680E-03 10640   0.101E-02-0.777E-04
CGA:  15    -0.128276256150E+04   -0.11235E-03   -0.11632E-03 10640   0.948E-03 0.421E-04
CGA:  16    -0.128276264134E+04   -0.79839E-04   -0.92765E-04 10640   0.542E-03 0.950E-04
CGA:  17    -0.128276276443E+04   -0.12309E-03   -0.12331E-03 10640   0.104E-02 0.121E-04
CGA:  18    -0.128276298966E+04   -0.22522E-03   -0.22130E-03 10640   0.103E-02-0.427E-03
CGA:  19    -0.128276311301E+04   -0.12336E-03   -0.92981E-04 10640   0.124E-02-0.496E-03
CGA:  20    -0.128276323700E+04   -0.12399E-03   -0.10421E-03 10640   0.161E-02-0.419E-03
CGA:  21    -0.128276334483E+04   -0.10783E-03   -0.10233E-03 10640   0.111E-02-0.818E-04
CGA:  22    -0.128276342907E+04   -0.84237E-04   -0.94654E-04 10640   0.653E-03 0.736E-04
CGA:  23    -0.128276350782E+04   -0.78756E-04   -0.77597E-04 10640   0.461E-03-0.215E-04
CGA:  24    -0.128276359657E+04   -0.88748E-04   -0.96411E-04 10640   0.674E-03-0.374E-03
CGA:  25    -0.128276367759E+04   -0.81020E-04   -0.84261E-04 10640   0.165E-03 0.480E-04
CGA:  26    -0.128276372986E+04   -0.52265E-04   -0.12706E-03 10640   0.648E-03-0.142E-03
CGA:  27    -0.128276380139E+04   -0.71535E-04   -0.79107E-04 10640   0.995E-04 0.799E-04
CGA:  28    -0.128276383752E+04   -0.36128E-04   -0.39149E-04 10640   0.122E-03-0.221E-04
CGA:  29    -0.128276386136E+04   -0.23844E-04   -0.26220E-04 10640   0.970E-04-0.434E-04
CGA:  30    -0.128276381154E+04    0.49829E-04   -0.35184E-04 10640   0.108E-02-0.123E-03
CGA:  31    -0.128276399223E+04   -0.18070E-03   -0.16456E-03 10640   0.132E-03-0.601E-04
CGA:  32    -0.128276402140E+04   -0.29165E-04   -0.27631E-04 10640   0.618E-04-0.850E-05
CGA:  33    -0.128276404335E+04   -0.21955E-04   -0.20076E-04 10640   0.102E-03-0.476E-04
CGA:  34    -0.128276404350E+04   -0.14691E-06   -0.85228E-05 10640   0.138E-04 0.281E-04
  32 F= -.12827640E+04 E0= -.12827640E+04  d E =0.311286E+00  mag=    47.0000
       N       E                     dE             d eps       ncg     rms          ort
SDA:   1    -0.127038605313E+04    0.12378E+02    0.00000E+00 10640   0.426E+02 0.000E+00
CGA:   2    -0.127840711552E+04   -0.80211E+01   -0.80223E+01 10640   0.149E+02 0.348E-01
CGA:   3    -0.128213652499E+04   -0.37294E+01   -0.37346E+01 10640   0.471E+01 0.215E-01
CGA:   4    -0.128284785669E+04   -0.71133E+00   -0.71216E+00 10640   0.705E+00 0.316E-01
CGA:   5    -0.128298610496E+04   -0.13825E+00   -0.13853E+00 10640   0.209E+00 0.212E-02
CGA:   6    -0.128302549679E+04   -0.39392E-01   -0.39588E-01 10640   0.623E-01 0.164E-02
CGA:   7    -0.128303901335E+04   -0.13517E-01   -0.13427E-01 10640   0.168E-01-0.775E-03
CGA:   8    -0.128304301774E+04   -0.40044E-02   -0.39636E-02 10640   0.774E-02-0.537E-03
CGA:   9    -0.128304479487E+04   -0.17771E-02   -0.17617E-02 10640   0.382E-02-0.196E-03
CGA:  10    -0.128304552821E+04   -0.73334E-03   -0.78858E-03 10640   0.126E-02 0.593E-03
CGA:  11    -0.128304590228E+04   -0.37407E-03   -0.38757E-03 10640   0.471E-03 0.389E-03
CGA:  12    -0.128304612617E+04   -0.22389E-03   -0.21540E-03 10640   0.324E-03 0.165E-03
CGA:  13    -0.128304633513E+04   -0.20895E-03   -0.20336E-03 10640   0.468E-03 0.299E-04
CGA:  14    -0.128304641117E+04   -0.76044E-04   -0.98660E-04 10640   0.303E-03 0.188E-03
CGA:  15    -0.128304649230E+04   -0.81134E-04   -0.97454E-04 10640   0.278E-03 0.215E-03
CGA:  16    -0.128304656965E+04   -0.77347E-04   -0.76089E-04 10640   0.385E-03-0.478E-04
CGA:  17    -0.128304663563E+04   -0.65983E-04   -0.73503E-04 10640   0.169E-03 0.109E-03
CGA:  18    -0.128304665966E+04   -0.24025E-04   -0.30814E-04 10640   0.993E-04 0.440E-04
CGA:  19    -0.128304668294E+04   -0.23278E-04   -0.14028E-03 10640   0.931E-03-0.146E-03
CGA:  20    -0.128304678459E+04   -0.10165E-03   -0.12857E-03 10640   0.172E-03 0.142E-03
CGA:  21    -0.128304682718E+04   -0.42592E-04   -0.44706E-04 10640   0.597E-04 0.224E-04
CGA:  22    -0.128304685035E+04   -0.23168E-04   -0.23594E-04 10640   0.973E-04-0.125E-04
CGA:  23    -0.128304686730E+04   -0.16950E-04   -0.18623E-04 10640   0.794E-04 0.215E-04
CGA:  24    -0.128304687453E+04   -0.72319E-05   -0.13419E-04 10640   0.443E-04 0.349E-04
CGA:  25    -0.128304688401E+04   -0.94753E-05   -0.12557E-04 10640   0.388E-04 0.281E-04
CGA:  26    -0.128304648986E+04    0.39415E-03   -0.21330E-03 10640   0.414E-02-0.291E-03
CGA:  27    -0.128304690430E+04   -0.41444E-03   -0.48996E-03 10640   0.648E-04 0.209E-03
CGA:  28    -0.128304690764E+04   -0.33439E-05   -0.10919E-04 10640   0.271E-04 0.209E-04
  33 F= -.12830469E+04 E0= -.12830469E+04  d E =-.282864E+00  mag=    47.0000
       N       E                     dE             d eps       ncg     rms          ort
SDA:   1    -0.128289319038E+04    0.15371E+00    0.00000E+00 10640   0.546E+00 0.000E+00
CGA:   2    -0.128299793903E+04   -0.10475E+00   -0.10513E+00 10640   0.198E+00 0.144E-02
CGA:   3    -0.128304833852E+04   -0.50399E-01   -0.50137E-01 10640   0.567E-01-0.130E-02
CGA:   4    -0.128305719869E+04   -0.88602E-02   -0.88156E-02 10640   0.814E-02-0.129E-03
CGA:   5    -0.128305914260E+04   -0.19439E-02   -0.18423E-02 10640   0.228E-02-0.450E-03
CGA:   6    -0.128305950163E+04   -0.35903E-03   -0.39945E-03 10640   0.617E-03 0.162E-03
CGA:   7    -0.128305965458E+04   -0.15294E-03   -0.14380E-03 10640   0.217E-03-0.429E-04
CGA:   8    -0.128305966675E+04   -0.12173E-04   -0.30136E-04 10640   0.685E-04 0.672E-04
CGA:   9    -0.128305967788E+04   -0.11133E-04   -0.17044E-04 10640   0.371E-04 0.276E-04
CGA:  10    -0.128305972121E+04   -0.43327E-04    0.17500E-03 10640   0.834E-04-0.265E-04
CGA:  11    -0.128305971933E+04    0.18800E-05   -0.71773E-05 10640   0.190E-04 0.297E-04
  34 F= -.12830597E+04 E0= -.12830597E+04  d E =-.128117E-01  mag=    47.0000
       N       E                     dE             d eps       ncg     rms          ort
SDA:   1    -0.128256430816E+04    0.49541E+00    0.00000E+00 10640   0.156E+01 0.000E+00
CGA:   2    -0.128287485672E+04   -0.31055E+00   -0.31095E+00 10640   0.590E+00 0.297E-02
CGA:   3    -0.128302177596E+04   -0.14692E+00   -0.14672E+00 10640   0.159E+00-0.222E-02
CGA:   4    -0.128304624117E+04   -0.24465E-01   -0.24563E-01 10640   0.248E-01 0.604E-03
CGA:   5    -0.128305173756E+04   -0.54964E-02   -0.53567E-02 10640   0.722E-02-0.111E-02
CGA:   6    -0.128305287840E+04   -0.11408E-02   -0.12089E-02 10640   0.206E-02 0.441E-03
CGA:   7    -0.128305336643E+04   -0.48803E-03   -0.47724E-03 10640   0.640E-03-0.984E-04
CGA:   8    -0.128305345669E+04   -0.90260E-04   -0.11099E-03 10640   0.214E-03 0.149E-03
CGA:   9    -0.128305350722E+04   -0.50528E-04   -0.57833E-04 10640   0.961E-04 0.769E-04
CGA:  10    -0.128305356262E+04   -0.55406E-04   -0.75207E-04 10640   0.250E-03-0.748E-04
CGA:  11    -0.128305356471E+04   -0.20909E-05   -0.24172E-04 10640   0.663E-04 0.981E-04
CGA:  12    -0.128305356660E+04   -0.18902E-05   -0.10378E-04 10640   0.351E-04 0.426E-04
CGA:  13    -0.128305359079E+04   -0.24186E-04    0.37177E-04 10640   0.544E-04-0.131E-05
CGA:  14    -0.128305358578E+04    0.50104E-05   -0.41242E-05 10640   0.359E-04 0.409E-04
  35 F= -.12830536E+04 E0= -.12830536E+04  d E =0.613355E-02  mag=    47.0000
       N       E                     dE             d eps       ncg     rms          ort
SDA:   1    -0.128299838464E+04    0.55206E-01    0.00000E+00 10640   0.136E+00 0.000E+00
CGA:   2    -0.128302889726E+04   -0.30513E-01   -0.30521E-01 10640   0.585E-01 0.194E-03
CGA:   3    -0.128304177908E+04   -0.12882E-01   -0.12932E-01 10640   0.137E-01 0.941E-03
CGA:   4    -0.128304414647E+04   -0.23674E-02   -0.23160E-02 10640   0.276E-02-0.477E-03
CGA:   5    -0.128304458647E+04   -0.44000E-03   -0.46155E-03 10640   0.573E-03 0.232E-03
CGA:   6    -0.128304476411E+04   -0.17764E-03   -0.18626E-03 10640   0.453E-03-0.230E-03
CGA:   7    -0.128304476355E+04    0.55611E-06   -0.22033E-04 10640   0.230E-03 0.124E-03
CGA:   8    -0.128304475695E+04    0.66014E-05   -0.18285E-04 10640   0.901E-04 0.129E-03
CGA:   9    -0.128304476616E+04   -0.92058E-05   -0.13478E-04 10640   0.296E-04 0.445E-04
  36 F= -.12830448E+04 E0= -.12830448E+04  d E =0.881962E-02  mag=    47.0000
       N       E                     dE             d eps       ncg     rms          ort
SDA:   1    -0.127129946295E+04    0.11745E+02    0.00000E+00 10640   0.380E+02 0.000E+00
CGA:   2    -0.127852088789E+04   -0.72214E+01   -0.72204E+01 10640   0.136E+02 0.139E-02
CGA:   3    -0.128190593006E+04   -0.33850E+01   -0.33840E+01 10640   0.413E+01 0.359E-01
CGA:   4    -0.128253228605E+04   -0.62636E+00   -0.62731E+00 10640   0.619E+00 0.250E-01
CGA:   5    -0.128265449433E+04   -0.12221E+00   -0.12224E+00 10640   0.185E+00 0.588E-03
CGA:   6    -0.128268842900E+04   -0.33935E-01   -0.34042E-01 10640   0.549E-01 0.296E-02
CGA:   7    -0.128270053390E+04   -0.12105E-01   -0.12095E-01 10640   0.151E-01-0.145E-02
CGA:   8    -0.128270398909E+04   -0.34552E-02   -0.34589E-02 10640   0.676E-02-0.294E-03
CGA:   9    -0.128270553346E+04   -0.15444E-02   -0.15441E-02 10640   0.331E-02 0.417E-04
CGA:  10    -0.128270619611E+04   -0.66266E-03   -0.67815E-03 10640   0.110E-02 0.744E-03
CGA:  11    -0.128270657932E+04   -0.38320E-03   -0.36355E-03 10640   0.453E-03 0.424E-03
CGA:  12    -0.128270676712E+04   -0.18781E-03   -0.17369E-03 10640   0.291E-03 0.275E-03
CGA:  13    -0.128270686921E+04   -0.10208E-03   -0.20903E-03 10640   0.174E-02-0.218E-03
CGA:  14    -0.128270701528E+04   -0.14607E-03   -0.17432E-03 10640   0.208E-03 0.189E-03
CGA:  15    -0.128270704367E+04   -0.28390E-04   -0.38281E-04 10640   0.143E-03 0.124E-03
CGA:  16    -0.128270697737E+04    0.66299E-04   -0.15296E-03 10640   0.335E-02-0.266E-03
CGA:  17    -0.128270723723E+04   -0.25986E-03   -0.31026E-03 10640   0.113E-03 0.279E-03
CGA:  18    -0.128270724297E+04   -0.57442E-05   -0.15140E-04 10640   0.785E-04 0.631E-04
CGA:  19    -0.128270729871E+04   -0.55745E-04    0.30883E-04 10640   0.822E-04 0.491E-04
CGA:  20    -0.128270730608E+04   -0.73701E-05   -0.12513E-04 10640   0.633E-04 0.453E-04
CGA:  21    -0.128270734665E+04   -0.40562E-04    0.35385E-04 10640   0.718E-04 0.425E-04
CGA:  22    -0.128270735954E+04   -0.12890E-04   -0.14541E-04 10640   0.736E-04 0.287E-04
CGA:  23    -0.128270741458E+04   -0.55047E-04    0.32830E-03 10640   0.577E-04 0.943E-04
CGA:  24    -0.128270745640E+04   -0.41817E-04    0.18155E-04 10640   0.803E-04 0.154E-04
CGA:  25    -0.128270751751E+04   -0.61115E-04    0.77616E-04 10640   0.498E-04 0.906E-04
CGA:  26    -0.128270751745E+04    0.60798E-07   -0.50222E-05 10640   0.321E-04 0.325E-04
CGA:  27    -0.128270753730E+04   -0.19850E-04    0.16748E-04 10640   0.302E-04 0.310E-04
CGA:  28    -0.128270755904E+04   -0.21740E-04    0.84329E-05 10640   0.284E-04 0.290E-04
CGA:  29    -0.128270757600E+04   -0.16955E-04    0.17958E-04 10640   0.270E-04 0.270E-04
CGA:  30    -0.128270759796E+04   -0.21961E-04    0.53167E-05 10640   0.262E-04 0.247E-04
CGA:  31    -0.128270763733E+04   -0.39366E-04   -0.10703E-05 10640   0.391E-03-0.340E-05
CGA:  32    -0.128270797703E+04   -0.33971E-03    0.79905E-03 10640   0.161E-03-0.204E-04
CGA:  33    -0.128270805181E+04   -0.74780E-04   -0.27075E-04 10640   0.138E-03-0.175E-03
CGA:  34    -0.128270805056E+04    0.12508E-05   -0.10461E-04 10640   0.120E-04 0.327E-04
  37 F= -.12827081E+04 E0= -.12827080E+04  d E =0.336716E+00  mag=    47.0000
       N       E                     dE             d eps       ncg     rms          ort
SDA:   1    -0.126704191901E+04    0.15666E+02    0.00000E+00 10640   0.536E+02 0.000E+00
CGA:   2    -0.127703068425E+04   -0.99888E+01   -0.99148E+01 10640   0.190E+02 0.488E+00
CGA:   3    -0.128178242355E+04   -0.47517E+01   -0.47694E+01 10640   0.603E+01-0.205E-02
CGA:   4    -0.128271387238E+04   -0.93145E+00   -0.91969E+00 10640   0.812E+00 0.837E-01
CGA:   5    -0.128288886967E+04   -0.17500E+00   -0.17452E+00 10640   0.227E+00-0.591E-02
CGA:   6    -0.128293306186E+04   -0.44192E-01   -0.44415E-01 10640   0.673E-01 0.324E-02
CGA:   7    -0.128294756478E+04   -0.14503E-01   -0.14315E-01 10640   0.191E-01-0.132E-02
CGA:   8    -0.128295150416E+04   -0.39394E-02   -0.40741E-02 10640   0.717E-02 0.108E-02
CGA:   9    -0.128295377293E+04   -0.22688E-02   -0.22436E-02 10640   0.415E-02-0.517E-03
CGA:  10    -0.128295474351E+04   -0.97058E-03   -0.95435E-03 10640   0.210E-02-0.159E-03
CGA:  11    -0.128295546241E+04   -0.71890E-03   -0.75127E-03 10640   0.209E-02-0.911E-03
CGA:  12    -0.128295567278E+04   -0.21037E-03   -0.20268E-03 10640   0.949E-03-0.430E-04
CGA:  13    -0.128295585223E+04   -0.17945E-03   -0.19728E-03 10640   0.732E-03 0.150E-03
CGA:  14    -0.128295601110E+04   -0.15886E-03   -0.16455E-03 10640   0.421E-03 0.426E-04
CGA:  15    -0.128295611619E+04   -0.10509E-03   -0.11555E-03 10640   0.327E-03 0.176E-03
CGA:  16    -0.128295618970E+04   -0.73510E-04   -0.91537E-04 10640   0.210E-03 0.151E-03
CGA:  17    -0.128295627025E+04   -0.80547E-04   -0.83472E-04 10640   0.120E-03 0.761E-04
CGA:  18    -0.128295627246E+04   -0.22184E-05   -0.21611E-04 10640   0.801E-04 0.110E-03
CGA:  19    -0.128295627303E+04   -0.56198E-06   -0.10401E-04 10640   0.494E-04 0.582E-04
  38 F= -.12829563E+04 E0= -.12829563E+04  d E =-.248222E+00  mag=    47.0000
       N       E                     dE             d eps       ncg     rms          ort
SDA:   1    -0.128210356204E+04    0.85271E+00    0.00000E+00 10640   0.295E+01 0.000E+00
CGA:   2    -0.128267029959E+04   -0.56674E+00   -0.56621E+00 10640   0.106E+01-0.387E-02
[...]
CGA:   6    -0.128294959064E+04   -0.93911E-02   -0.91702E-02 10640   0.164E-01-0.123E-02
CGA:   7    -0.128295247038E+04   -0.28797E-02   -0.29566E-02 10640   0.383E-02 0.456E-03
CGA:   8    -0.128295357450E+04   -0.11041E-02   -0.10754E-02 10640   0.187E-02-0.338E-03
CGA:   9    -0.128295410087E+04   -0.52637E-03   -0.50299E-03 10640   0.141E-02-0.400E-03
CGA:  10    -0.128295438965E+04   -0.28878E-03   -0.25389E-03 10640   0.681E-03-0.285E-03
CGA:  11    -0.128295458013E+04   -0.19048E-03   -0.25802E-03 10640   0.105E-02-0.516E-03
CGA:  12    -0.128295473823E+04   -0.15810E-03   -0.15232E-03 10640   0.310E-03-0.257E-04
CGA:  13    -0.128295481655E+04   -0.78323E-04   -0.75460E-04 10640   0.141E-03-0.313E-04
CGA:  14    -0.128295478648E+04    0.30070E-04   -0.12069E-03 10640   0.135E-02-0.244E-03
CGA:  15    -0.128295491653E+04   -0.13005E-03   -0.14940E-03 10640   0.147E-03 0.809E-04
CGA:  16    -0.128295496742E+04   -0.50891E-04   -0.48859E-04 10640   0.132E-03-0.503E-04
CGA:  17    -0.128295498295E+04   -0.15528E-04   -0.15267E-04 10640   0.545E-04-0.136E-05
CGA:  18    -0.128295499244E+04   -0.94852E-05   -0.10356E-04 10640   0.426E-04 0.568E-05
CGA:  19    -0.128295500880E+04   -0.16365E-04   -0.20466E-04 10640   0.936E-04-0.413E-04
CGA:  20    -0.128295502305E+04   -0.14249E-04   -0.16424E-04 10640   0.258E-04 0.133E-04
CGA:  21    -0.128295503202E+04   -0.89683E-05   -0.82576E-05 10640   0.271E-04-0.138E-04
  44 F= -.12829550E+04 E0= -.12829550E+04  d E =-.139788E+00  mag=    47.0000
       N       E                     dE             d eps       ncg     rms          ort
SDA:   1    -0.128280027602E+04    0.15475E+00    0.00000E+00 10640   0.519E+00 0.000E+00
CGA:   2    -0.128290112802E+04   -0.10085E+00   -0.10079E+00 10640   0.191E+00-0.357E-03
CGA:   3    -0.128294863180E+04   -0.47504E-01   -0.47516E-01 10640   0.555E-01 0.111E-03
CGA:   4    -0.128295746468E+04   -0.88329E-02   -0.86561E-02 10640   0.882E-02-0.115E-02
CGA:   5    -0.128295901754E+04   -0.15529E-02   -0.15907E-02 10640   0.232E-02 0.334E-03
CGA:   6    -0.128295956091E+04   -0.54337E-03   -0.52287E-03 10640   0.984E-03-0.261E-03
CGA:   7    -0.128295968365E+04   -0.12274E-03   -0.13822E-03 10640   0.205E-03 0.118E-03
CGA:   8    -0.128295973579E+04   -0.52149E-04   -0.53129E-04 10640   0.885E-04 0.185E-04
CGA:   9    -0.128295979952E+04   -0.63721E-04    0.78814E-04 10640   0.809E-04-0.620E-05
CGA:  10    -0.128295980994E+04   -0.10422E-04   -0.12278E-04 10640   0.371E-04 0.156E-04
CGA:  11    -0.128295981631E+04   -0.63723E-05   -0.79786E-05 10640   0.256E-04 0.167E-04
CGA:  12    -0.128295984664E+04   -0.30330E-04    0.10010E-04 10640   0.291E-04-0.425E-05
CGA:  13    -0.128295986268E+04   -0.16036E-04    0.15221E-04 10640   0.329E-04-0.201E-05
CGA:  14    -0.128295986594E+04   -0.32660E-05   -0.47173E-05 10640   0.288E-04 0.120E-04
CGA:  15    -0.128295987764E+04   -0.11693E-04   -0.11782E-04 10640   0.291E-04-0.338E-05
CGA:  16    -0.128295990073E+04   -0.23090E-04    0.50150E-05 10640   0.316E-04-0.636E-05
CGA:  17    -0.128295990032E+04    0.40606E-06   -0.21445E-05 10640   0.247E-04 0.137E-04
  45 F= -.12829599E+04 E0= -.12829599E+04  d E =-.486830E-02  mag=    47.0000
       N       E                     dE             d eps       ncg     rms          ort
SDA:   1    -0.128278678074E+04    0.17312E+00    0.00000E+00 10640   0.530E+00 0.000E+00
CGA:   2    -0.128289661706E+04   -0.10984E+00   -0.10983E+00 10640   0.209E+00 0.267E-04
CGA:   3    -0.128294785507E+04   -0.51238E-01   -0.51238E-01 10640   0.510E-01-0.180E-03
CGA:   4    -0.128295621129E+04   -0.83562E-02   -0.82429E-02 10640   0.880E-02-0.136E-02
CGA:   5    -0.128295778255E+04   -0.15713E-02   -0.15980E-02 10640   0.200E-02 0.493E-03
CGA:   6    -0.128295828532E+04   -0.50277E-03   -0.50251E-03 10640   0.100E-02-0.281E-03
CGA:   7    -0.128295836806E+04   -0.82745E-04   -0.10704E-03 10640   0.241E-03 0.214E-03
CGA:   8    -0.128295839574E+04   -0.27683E-04   -0.37310E-04 10640   0.113E-03 0.914E-04
CGA:   9    -0.128295843724E+04   -0.41493E-04   -0.50514E-04 10640   0.182E-03-0.945E-04
CGA:  10    -0.128295844995E+04   -0.12715E-04   -0.19992E-04 10640   0.411E-04 0.597E-04
CGA:  11    -0.128295845735E+04   -0.73998E-05   -0.84347E-05 10640   0.149E-04 0.144E-04
  46 F= -.12829585E+04 E0= -.12829585E+04  d E =0.144297E-02  mag=    47.0000
       N       E                     dE             d eps       ncg     rms          ort
SDA:   1    -0.128279838636E+04    0.16006E+00    0.00000E+00 10640   0.459E+00 0.000E+00
CGA:   2    -0.128289712755E+04   -0.98741E-01   -0.98739E-01 10640   0.209E+00 0.328E-04
CGA:   3    -0.128294270201E+04   -0.45574E-01   -0.45575E-01 10640   0.599E-01 0.114E-03
CGA:   4    -0.128295171987E+04   -0.90179E-02   -0.89242E-02 10640   0.962E-02-0.111E-02
CGA:   5    -0.128295343547E+04   -0.17156E-02   -0.17315E-02 10640   0.230E-02 0.381E-03
CGA:   6    -0.128295395665E+04   -0.52117E-03   -0.52042E-03 10640   0.811E-03-0.120E-03
CGA:   7    -0.128295406220E+04   -0.10556E-03   -0.11799E-03 10640   0.195E-03 0.177E-03
CGA:   8    -0.128295410626E+04   -0.44053E-04   -0.45710E-04 10640   0.737E-04 0.595E-04
CGA:   9    -0.128295413508E+04   -0.28821E-04   -0.28610E-04 10640   0.783E-04 0.268E-05
CGA:  10    -0.128295413533E+04   -0.24893E-06   -0.69490E-05 10640   0.457E-04 0.487E-04
  47 F= -.12829541E+04 E0= -.12829541E+04  d E =0.432203E-02  mag=    47.0000
       N       E                     dE             d eps       ncg     rms          ort
SDA:   1    -0.128262884101E+04    0.32529E+00    0.00000E+00 10640   0.844E+00 0.000E+00
CGA:   2    -0.128284774465E+04   -0.21890E+00   -0.21885E+00 10640   0.406E+00 0.125E-02
CGA:   3    -0.128293282987E+04   -0.85085E-01   -0.85081E-01 10640   0.808E-01-0.139E-02
CGA:   4    -0.128294522122E+04   -0.12391E-01   -0.12389E-01 10640   0.169E-01 0.203E-04
CGA:   5    -0.128294845932E+04   -0.32381E-02   -0.32302E-02 10640   0.451E-02-0.436E-03
CGA:   6    -0.128294925057E+04   -0.79124E-03   -0.79521E-03 10640   0.127E-02 0.152E-03
CGA:   7    -0.128294955563E+04   -0.30507E-03   -0.30586E-03 10640   0.400E-03-0.290E-04
CGA:   8    -0.128294962696E+04   -0.71323E-04   -0.73065E-04 10640   0.157E-03 0.817E-04
CGA:   9    -0.128294969336E+04   -0.66400E-04   -0.72232E-04 10640   0.148E-03-0.334E-04
CGA:  10    -0.128294971470E+04   -0.21348E-04   -0.22175E-04 10640   0.850E-04 0.320E-04
CGA:  11    -0.128294974555E+04   -0.30846E-04   -0.31490E-04 10640   0.680E-04-0.767E-05
CGA:  12    -0.128294976447E+04   -0.18923E-04   -0.21952E-04 10640   0.125E-03-0.231E-04
CGA:  13    -0.128294977028E+04   -0.58058E-05   -0.95280E-05 10640   0.976E-04 0.327E-04
CGA:  14    -0.128294977769E+04   -0.74068E-05   -0.13035E-04 10640   0.656E-04 0.485E-04
CGA:  15    -0.128294979421E+04   -0.16527E-04   -0.17766E-04 10640   0.628E-04 0.360E-04
CGA:  16    -0.128294980767E+04   -0.13456E-04   -0.20085E-04 10640   0.194E-03-0.617E-04
CGA:  17    -0.128294981638E+04   -0.87146E-05   -0.14901E-04 10640   0.171E-04 0.441E-04
  48 F= -.12829498E+04 E0= -.12829498E+04  d E =0.431894E-02  mag=    47.0000
       N       E                     dE             d eps       ncg     rms          ort
SDA:   1    -0.128112240539E+04    0.18274E+01    0.00000E+00 10640   0.535E+01 0.000E+00
CGA:   2    -0.128229214634E+04   -0.11697E+01   -0.11697E+01 10640   0.229E+01 0.202E-02
CGA:   3    -0.128284170741E+04   -0.54956E+00   -0.54961E+00 10640   0.513E+00-0.239E-02
CGA:   4    -0.128292164094E+04   -0.79934E-01   -0.79894E-01 10640   0.869E-01-0.461E-03
CGA:   5    -0.128293956881E+04   -0.17928E-01   -0.17930E-01 10640   0.223E-01-0.673E-03
CGA:   6    -0.128294411730E+04   -0.45485E-02   -0.45480E-02 10640   0.703E-02 0.302E-03
CGA:   7    -0.128294558036E+04   -0.14631E-02   -0.14631E-02 10640   0.203E-02-0.919E-05
CGA:   8    -0.128294608854E+04   -0.50818E-03   -0.51384E-03 10640   0.112E-02-0.112E-03
CGA:   9    -0.128294633867E+04   -0.25013E-03   -0.25005E-03 10640   0.593E-03 0.292E-05
CGA:  10    -0.128294652389E+04   -0.18523E-03   -0.24997E-03 10640   0.947E-03-0.306E-03
CGA:  11    -0.128294662825E+04   -0.10436E-03   -0.11089E-03 10640   0.213E-03 0.659E-04
CGA:  12    -0.128294670155E+04   -0.73293E-04   -0.72694E-04 10640   0.140E-03 0.517E-05
CGA:  13    -0.128294676547E+04   -0.63921E-04    0.87952E-03 10640   0.102E-03 0.862E-04
CGA:  14    -0.128294677972E+04   -0.14251E-04   -0.17104E-04 10640   0.601E-04 0.562E-04
CGA:  15    -0.128294681242E+04   -0.32701E-04    0.25356E-04 10640   0.555E-04 0.411E-04
CGA:  16    -0.128294681865E+04   -0.62265E-05   -0.86175E-05 10640   0.475E-04 0.389E-04
CGA:  17    -0.128294684368E+04   -0.25030E-04    0.21757E-04 10640   0.473E-04 0.379E-04
CGA:  18    -0.128294685457E+04   -0.10899E-04   -0.10568E-04 10640   0.502E-04 0.325E-04
CGA:  19    -0.128294687900E+04   -0.24427E-04    0.39387E-04 10640   0.552E-04 0.247E-04
CGA:  20    -0.128294691441E+04   -0.35412E-04    0.16674E-02 10640   0.424E-04 0.774E-04
CGA:  21    -0.128294691849E+04   -0.40790E-05   -0.61198E-05 10640   0.353E-04 0.292E-04
CGA:  22    -0.128294693628E+04   -0.17791E-04    0.18754E-04 10640   0.350E-04 0.296E-04
CGA:  23    -0.128294694852E+04   -0.12241E-04   -0.10273E-04 10640   0.450E-04 0.235E-04
CGA:  24    -0.128294680196E+04    0.14656E-03   -0.79438E-04 10640   0.295E-02-0.185E-03
CGA:  25    -0.128294704454E+04   -0.24258E-03   -0.26877E-03 10640   0.263E-04 0.972E-04
CGA:  26    -0.128294704236E+04    0.21847E-05   -0.30874E-05 10640   0.221E-04 0.200E-04
CGA:  27    -0.128294706217E+04   -0.19813E-04    0.17071E-04 10640   0.256E-04 0.186E-04
CGA:  28    -0.128294706431E+04   -0.21435E-05   -0.47032E-05 10640   0.244E-04 0.142E-04
CGA:  29    -0.128294708358E+04   -0.19269E-04    0.38362E-04 10640   0.582E-04 0.424E-05
CGA:  30    -0.128294727625E+04   -0.19266E-03   -0.24489E-04 10640   0.324E-03-0.348E-06
CGA:  31    -0.128294733176E+04   -0.55517E-04   -0.47760E-04 10640   0.921E-05-0.276E-04
CGA:  32    -0.128294734424E+04   -0.12473E-04    0.13688E-04 10640   0.155E-03-0.254E-04
CGA:  33    -0.128294734075E+04    0.34849E-05   -0.11844E-04 10640   0.682E-05 0.287E-04
  49 F= -.12829473E+04 E0= -.12829473E+04  d E =0.247563E-02  mag=    47.0000
       N       E                     dE             d eps       ncg     rms          ort
SDA:   1    -0.128132182457E+04    0.16255E+01    0.00000E+00 10640   0.458E+01 0.000E+00
CGA:   2    -0.128241707834E+04   -0.10953E+01   -0.10951E+01 10640   0.207E+01-0.795E-03
CGA:   3    -0.128289035651E+04   -0.47328E+00   -0.47336E+00 10640   0.392E+00 0.442E-04
CGA:   4    -0.128295461935E+04   -0.64263E-01   -0.64048E-01 10640   0.746E-01-0.778E-03
CGA:   5    -0.128296928666E+04   -0.14667E-01   -0.14759E-01 10640   0.196E-01 0.340E-03
CGA:   6    -0.128297326700E+04   -0.39803E-02   -0.38282E-02 10640   0.746E-02-0.496E-03
CGA:   7    -0.128297458322E+04   -0.13162E-02   -0.13361E-02 10640   0.183E-02 0.777E-04
CGA:   8    -0.128297515452E+04   -0.57130E-03   -0.53370E-03 10640   0.915E-03-0.206E-03
CGA:   9    -0.128297543201E+04   -0.27749E-03   -0.24962E-03 10640   0.714E-03-0.181E-03
CGA:  10    -0.128297563830E+04   -0.20629E-03   -0.15531E-03 10640   0.570E-03-0.280E-03
CGA:  11    -0.128297579083E+04   -0.15253E-03   -0.12452E-03 10640   0.534E-03-0.330E-03
CGA:  12    -0.128297588158E+04   -0.90755E-04   -0.87018E-04 10640   0.260E-03-0.125E-04
CGA:  13    -0.128297594063E+04   -0.59049E-04   -0.61703E-04 10640   0.820E-04 0.147E-04
CGA:  14    -0.128297564485E+04    0.29578E-03   -0.17703E-03 10640   0.243E-02-0.292E-03
CGA:  15    -0.128297594115E+04   -0.29630E-03   -0.34599E-03 10640   0.361E-03 0.148E-03
CGA:  16    -0.128297607730E+04   -0.13615E-03   -0.12197E-03 10640   0.251E-03-0.872E-04
CGA:  17    -0.128297609905E+04   -0.21755E-04   -0.34171E-04 10640   0.118E-03 0.428E-04
CGA:  18    -0.128297613453E+04   -0.35481E-04   -0.34629E-04 10640   0.470E-04-0.416E-05
CGA:  19    -0.128297613919E+04   -0.46588E-05   -0.28908E-04 10640   0.567E-03-0.127E-03
CGA:  20    -0.128297615712E+04   -0.17926E-04   -0.52404E-04 10640   0.446E-04 0.969E-04
CGA:  21    -0.128297616031E+04   -0.31880E-05   -0.71359E-05 10640   0.209E-04 0.131E-04
CGA:  22    -0.128297615663E+04    0.36738E-05   -0.21066E-04 10640   0.212E-03-0.697E-04
CGA:  23    -0.128297615970E+04   -0.30689E-05   -0.24334E-04 10640   0.535E-04 0.657E-04
CGA:  24    -0.128297617547E+04   -0.15773E-04   -0.15961E-04 10640   0.136E-04 0.921E-06
CGA:  25    -0.128297620370E+04   -0.28228E-04    0.19775E-05 10640   0.882E-04-0.287E-04
CGA:  26    -0.128297619565E+04    0.80483E-05   -0.54233E-05 10640   0.190E-04 0.384E-04
  50 F= -.12829762E+04 E0= -.12829762E+04  d E =-.288549E-01  mag=    47.0000
       N       E                     dE             d eps       ncg     rms          ort
SDA:   1    -0.128209177192E+04    0.88443E+00    0.00000E+00 10640   0.265E+01 0.000E+00
CGA:   2    -0.128269165895E+04   -0.59989E+00   -0.59942E+00 10640   0.115E+01-0.279E-02
CGA:   3    -0.128295819144E+04   -0.26653E+00   -0.26686E+00 10640   0.241E+00 0.208E-02
CGA:   4    -0.128299700721E+04   -0.38816E-01   -0.39004E-01 10640   0.433E-01 0.939E-03
CGA:   5    -0.128300561395E+04   -0.86067E-02   -0.86611E-02 10640   0.111E-01 0.376E-03
CGA:   6    -0.128300767208E+04   -0.20581E-02   -0.21092E-02 10640   0.391E-02 0.336E-03
CGA:   7    -0.128300858648E+04   -0.91439E-03   -0.86629E-03 10640   0.133E-02-0.384E-03
CGA:   8    -0.128300884389E+04   -0.25741E-03   -0.25989E-03 10640   0.509E-03 0.226E-04
CGA:   9    -0.128300902306E+04   -0.17917E-03   -0.18323E-03 10640   0.477E-03-0.148E-03
CGA:  10    -0.128300905435E+04   -0.31295E-04   -0.46881E-04 10640   0.198E-03 0.824E-04
CGA:  11    -0.128300907922E+04   -0.24872E-04   -0.35809E-04 10640   0.123E-03 0.663E-04
CGA:  12    -0.128300912273E+04   -0.43503E-04   -0.41109E-04 10640   0.107E-03-0.403E-04
CGA:  13    -0.128300914528E+04   -0.22556E-04   -0.22791E-04 10640   0.128E-03-0.236E-04
CGA:  14    -0.128300917480E+04   -0.29521E-04   -0.29246E-04 10640   0.149E-03-0.192E-04
CGA:  15    -0.128300908509E+04    0.89712E-04   -0.10510E-03 10640   0.137E-02-0.382E-03
CGA:  16    -0.128300921879E+04   -0.13370E-03   -0.16589E-03 10640   0.326E-03 0.155E-03
CGA:  17    -0.128300931142E+04   -0.92628E-04   -0.93213E-04 10640   0.546E-04 0.901E-05
CGA:  18    -0.128300929704E+04    0.14380E-04   -0.50585E-04 10640   0.717E-03-0.112E-03
CGA:  19    -0.128300934827E+04   -0.51232E-04   -0.69409E-04 10640   0.404E-04 0.747E-04
CGA:  20    -0.128300935591E+04   -0.76403E-05   -0.80969E-05 10640   0.193E-04 0.303E-05
CGA:  21    -0.128300934369E+04    0.12229E-04   -0.17617E-04 10640   0.200E-03-0.571E-04
CGA:  22    -0.128300936239E+04   -0.18709E-04   -0.24095E-04 10640   0.388E-04 0.236E-04
CGA:  23    -0.128300937467E+04   -0.12280E-04   -0.26050E-04 10640   0.867E-04-0.534E-04
CGA:  24    -0.128300937622E+04   -0.15427E-05   -0.93868E-05 10640   0.217E-04 0.318E-04
  51 F= -.12830094E+04 E0= -.12830094E+04  d E =-.331806E-01  mag=    47.0000
       N       E                     dE             d eps       ncg     rms          ort
SDA:   1    -0.128219780984E+04    0.81156E+00    0.00000E+00 10640   0.238E+01 0.000E+00
CGA:   2    -0.128275885281E+04   -0.56104E+00   -0.56105E+00 10640   0.105E+01 0.557E-03
CGA:   3    -0.128300010328E+04   -0.24125E+00   -0.24098E+00 10640   0.220E+00-0.319E-02
CGA:   4    -0.128303458989E+04   -0.34487E-01   -0.34610E-01 10640   0.432E-01 0.910E-03
CGA:   5    -0.128304291807E+04   -0.83282E-02   -0.82472E-02 10640   0.120E-01-0.638E-03
CGA:   6    -0.128304504259E+04   -0.21245E-02   -0.21582E-02 10640   0.367E-02 0.286E-03
CGA:   7    -0.128304595561E+04   -0.91302E-03   -0.89113E-03 10640   0.116E-02-0.340E-03
CGA:   8    -0.128304623285E+04   -0.27724E-03   -0.27278E-03 10640   0.644E-03-0.112E-03
CGA:   9    -0.128304641530E+04   -0.18245E-03   -0.22500E-03 10640   0.125E-02-0.468E-03
CGA:  10    -0.128304652649E+04   -0.11120E-03   -0.12762E-03 10640   0.170E-03 0.859E-04
CGA:  11    -0.128304658111E+04   -0.54612E-04   -0.10603E-03 10640   0.364E-03-0.175E-03
CGA:  12    -0.128304667959E+04   -0.98481E-04   -0.96070E-04 10640   0.759E-04-0.574E-04
CGA:  13    -0.128304672027E+04   -0.40681E-04    0.20456E-03 10640   0.853E-04-0.178E-04
CGA:  14    -0.128304676782E+04   -0.47555E-04    0.49876E-04 10640   0.607E-04 0.850E-05
CGA:  15    -0.128304683386E+04   -0.66037E-04    0.16101E-04 10640   0.486E-04 0.238E-04
CGA:  16    -0.128304688425E+04   -0.50390E-04    0.45538E-04 10640   0.456E-04 0.297E-05
CGA:  17    -0.128304693969E+04   -0.55440E-04    0.82637E-05 10640   0.291E-04 0.233E-04
CGA:  18    -0.128304694912E+04   -0.94268E-05   -0.97586E-05 10640   0.319E-04-0.104E-04
  52 F= -.12830469E+04 E0= -.12830469E+04  d E =-.375729E-01  mag=    47.0000
       N       E                     dE             d eps       ncg     rms          ort
SDA:   1    -0.127404300074E+04    0.90039E+01    0.00000E+00 10640   0.241E+02 0.000E+00
CGA:   2    -0.128005583670E+04   -0.60128E+01   -0.60129E+01 10640   0.113E+02 0.152E-03
CGA:   3    -0.128252168109E+04   -0.24658E+01   -0.24656E+01 10640   0.205E+01-0.326E-02
CGA:   4    -0.128285632108E+04   -0.33464E+00   -0.33489E+00 10640   0.392E+00-0.108E-03
CGA:   5    -0.128293697353E+04   -0.80652E-01   -0.80751E-01 10640   0.966E-01 0.172E-02
CGA:   6    -0.128295641501E+04   -0.19441E-01   -0.19393E-01 10640   0.352E-01-0.582E-03
CGA:   7    -0.128296322632E+04   -0.68113E-02   -0.67378E-02 10640   0.106E-01-0.856E-03
CGA:   8    -0.128296586186E+04   -0.26355E-02   -0.26244E-02 10640   0.529E-02-0.707E-03
CGA:   9    -0.128296716058E+04   -0.12987E-02   -0.12959E-02 10640   0.313E-02-0.400E-03
CGA:  10    -0.128296786490E+04   -0.70432E-03   -0.70107E-03 10640   0.142E-02-0.120E-03
CGA:  11    -0.128296832013E+04   -0.45523E-03   -0.49111E-03 10640   0.125E-02-0.394E-03
CGA:  12    -0.128296853380E+04   -0.21367E-03   -0.20820E-03 10640   0.773E-03-0.131E-03
CGA:  13    -0.128296872820E+04   -0.19439E-03   -0.52567E-03 10640   0.233E-02-0.688E-03
CGA:  14    -0.128296905088E+04   -0.32269E-03   -0.36883E-03 10640   0.682E-03 0.343E-03
CGA:  15    -0.128296921352E+04   -0.16264E-03   -0.16459E-03 10640   0.241E-03 0.254E-04
CGA:  16    -0.128296927002E+04   -0.56498E-04   -0.60360E-04 10640   0.128E-03 0.917E-04
CGA:  17    -0.128296929504E+04   -0.25027E-04   -0.34004E-04 10640   0.669E-04 0.993E-04
CGA:  18    -0.128296934031E+04   -0.45265E-04   -0.47512E-04 10640   0.193E-03-0.605E-05
CGA:  19    -0.128296934242E+04   -0.21067E-05   -0.20110E-04 10640   0.102E-03 0.969E-04
CGA:  20    -0.128296934780E+04   -0.53870E-05   -0.13397E-04 10640   0.441E-04 0.506E-04
CGA:  21    -0.128296935862E+04   -0.10814E-04   -0.13290E-04 10640   0.351E-04 0.306E-04
CGA:  22    -0.128296924038E+04    0.11824E-03   -0.64906E-04 10640   0.202E-02-0.126E-03
CGA:  23    -0.128296939659E+04   -0.15622E-03   -0.21617E-03 10640   0.857E-04 0.159E-03
CGA:  24    -0.128296942103E+04   -0.24441E-04   -0.18147E-04 10640   0.379E-04-0.214E-04
CGA:  25    -0.128296943909E+04   -0.18061E-04   -0.19934E-04 10640   0.110E-03-0.839E-05
CGA:  26    -0.128296944148E+04   -0.23800E-05   -0.15135E-04 10640   0.591E-04 0.408E-04
CGA:  27    -0.128296944965E+04   -0.81768E-05   -0.15126E-04 10640   0.412E-04 0.243E-04
CGA:  28    -0.128296947618E+04   -0.26532E-04   -0.26699E-04 10640   0.122E-03-0.369E-04
CGA:  29    -0.128296948150E+04   -0.53153E-05   -0.14654E-04 10640   0.194E-04 0.282E-04
  53 F= -.12829695E+04 E0= -.12829695E+04  d E =0.774676E-01  mag=    47.0000
       N       E                     dE             d eps       ncg     rms          ort
SDA:   1    -0.127704438476E+04    0.59251E+01    0.00000E+00 10640   0.197E+02 0.000E+00
CGA:   2    -0.128080559797E+04   -0.37612E+01   -0.37656E+01 10640   0.692E+01 0.135E-01
