       N       E                     dE             d eps       ncg     rms          ort
DAV:   1     0.102858432483E+05    0.10286E+05   -0.42481E+05 10640   0.155E+03
DAV:   2    -0.113552393828E+03   -0.10399E+05   -0.98162E+04 10640   0.474E+02
DAV:   3    -0.152262563036E+04   -0.14091E+04   -0.13139E+04 10640   0.182E+02
DAV:   4    -0.160486791245E+04   -0.82242E+02   -0.80014E+02 10640   0.462E+01
DAV:   5    -0.160726190454E+04   -0.23940E+01   -0.23863E+01 10640   0.842E+00
SDA:   6    -0.727771565903E+03    0.87949E+03   -0.23863E+01 10640   0.293E+04 0.000E+00
CGA:   7    -0.112512342495E+04   -0.39735E+03   -0.39617E+03 10640   0.135E+04-0.257E+02
CGA:   8    -0.114139303664E+04   -0.16270E+02   -0.77557E+02 10640   0.155E+04-0.923E+03
CGA:   9    -0.114360681902E+04   -0.22138E+01   -0.76165E+02 10640   0.248E+04-0.167E+04
CGA:  10    -0.111411347905E+04    0.29493E+02   -0.13847E+03 10640   0.325E+04-0.218E+04
CGA:  11    -0.110449695303E+04    0.96165E+01   -0.16766E+03 10640   0.423E+04-0.361E+04
CGA:  12    -0.105269003277E+04    0.51807E+02   -0.24100E+03 10640   0.534E+04-0.416E+04
CGA:  13    -0.104176904394E+04    0.10921E+02   -0.28916E+03 10640   0.578E+04-0.533E+04
CGA:  14    -0.102734507533E+04    0.14424E+02   -0.31823E+03 10640   0.614E+04-0.570E+04
CGA:  15    -0.104431538939E+04   -0.16970E+02   -0.32810E+03 10640   0.601E+04-0.607E+04
CGA:  16    -0.105942341241E+04   -0.15108E+02   -0.32069E+03 10640   0.560E+04-0.567E+04
CGA:  17    -0.110630356703E+04   -0.46880E+02   -0.28335E+03 10640   0.502E+04-0.563E+04
CGA:  18    -0.114252241890E+04   -0.36219E+02   -0.24809E+03 10640   0.366E+04-0.411E+04
CGA:  19    -0.121077844514E+04   -0.68256E+02   -0.15883E+03 10640   0.200E+04-0.293E+04
CGA:  20    -0.124917246563E+04   -0.38394E+02   -0.77381E+02 10640   0.621E+03-0.107E+04
CGA:  21    -0.126377760488E+04   -0.14605E+02   -0.19577E+02 10640   0.711E+02-0.146E+03
CGA:  22    -0.126689870054E+04   -0.31211E+01   -0.29607E+01 10640   0.304E+02 0.155E+01
CGA:  23    -0.127181638181E+04   -0.49177E+01   -0.47919E+01 10640   0.676E+02 0.223E+01
CGA:  24    -0.127781225859E+04   -0.59959E+01   -0.56780E+01 10640   0.113E+02 0.166E+01
CGA:  25    -0.127848953244E+04   -0.67727E+00   -0.74820E+00 10640   0.761E+01-0.672E+00
CGA:  26    -0.127956359503E+04   -0.10741E+01   -0.10589E+01 10640   0.858E+01 0.113E+00
CGA:  27    -0.128029615851E+04   -0.73256E+00   -0.76927E+00 10640   0.291E+01-0.132E+00
CGA:  28    -0.128072739239E+04   -0.43123E+00   -0.43651E+00 10640   0.416E+01-0.270E+00
CGA:  29    -0.128133169001E+04   -0.60430E+00   -0.77260E+00 10640   0.428E+01-0.216E+01
CGA:  30    -0.128161060556E+04   -0.27892E+00   -0.30280E+00 10640   0.167E+01-0.192E+00
CGA:  31    -0.128208909384E+04   -0.47849E+00   -0.49529E+00 10640   0.170E+01-0.603E-01
CGA:  32    -0.128235280652E+04   -0.26371E+00   -0.26662E+00 10640   0.109E+01-0.143E+00
CGA:  33    -0.128259325643E+04   -0.24045E+00   -0.29552E+00 10640   0.122E+01-0.326E+00
CGA:  34    -0.128275150658E+04   -0.15825E+00   -0.17850E+00 10640   0.940E+00-0.319E+00
CGA:  35    -0.128286913035E+04   -0.11762E+00   -0.32400E+00 10640   0.162E+01-0.599E+00
CGA:  36    -0.128304436837E+04   -0.17524E+00   -0.17811E+00 10640   0.354E+00 0.115E-01
CGA:  37    -0.128312477572E+04   -0.80407E-01   -0.77255E-01 10640   0.154E+00 0.523E-01
CGA:  38    -0.128317011721E+04   -0.45341E-01   -0.41390E-01 10640   0.699E-01 0.528E-01
CGA:  39    -0.128318832677E+04   -0.18210E-01   -0.17565E-01 10640   0.265E-01 0.259E-01
CGA:  40    -0.128319411271E+04   -0.57859E-02   -0.58385E-02 10640   0.149E-01 0.166E-01
CGA:  41    -0.128319666476E+04   -0.25520E-02   -0.25172E-02 10640   0.955E-02 0.669E-02
CGA:  42    -0.128319921505E+04   -0.25503E-02   -0.24330E-02 10640   0.756E-02 0.978E-02
CGA:  43    -0.128320110770E+04   -0.18926E-02   -0.16537E-02 10640   0.578E-02 0.438E-02
CGA:  44    -0.128320209063E+04   -0.98293E-03   -0.97574E-03 10640   0.477E-02 0.421E-02
CGA:  45    -0.128320339118E+04   -0.13005E-02   -0.10808E-02 10640   0.445E-02 0.370E-02
CGA:  46    -0.128320426660E+04   -0.87542E-03   -0.82695E-03 10640   0.409E-02 0.306E-02
CGA:  47    -0.128320519147E+04   -0.92487E-03   -0.83963E-03 10640   0.420E-02 0.246E-02
CGA:  48    -0.128320594190E+04   -0.75042E-03   -0.74281E-03 10640   0.408E-02 0.180E-02
CGA:  49    -0.128320780240E+04   -0.18605E-02   -0.14670E-02 10640   0.295E-02 0.500E-02
CGA:  50    -0.128320858911E+04   -0.78671E-03   -0.72726E-03 10640   0.409E-02 0.855E-03
CGA:  51    -0.128321160767E+04   -0.30186E-02   -0.21606E-02 10640   0.222E-02 0.372E-02
CGA:  52    -0.128321193370E+04   -0.32602E-03   -0.35051E-03 10640   0.162E-02 0.716E-03
CGA:  53    -0.128321562944E+04   -0.36957E-02   -0.13770E-02 10640   0.750E-02 0.879E-03
CGA:  54    -0.128321683369E+04   -0.12043E-02   -0.98487E-03 10640   0.108E-02-0.105E-02
CGA:  55    -0.128321653073E+04    0.30296E-03   -0.12152E-02 10640   0.274E-01-0.157E-02
CGA:  56    -0.128321897734E+04   -0.24466E-02   -0.24788E-02 10640   0.764E-03-0.342E-04
CGA:  57    -0.128321926029E+04   -0.28295E-03   -0.28361E-03 10640   0.206E-02-0.312E-03
CGA:  58    -0.128321974781E+04   -0.48751E-03   -0.49636E-03 10640   0.427E-02-0.263E-03
CGA:  59    -0.128322059690E+04   -0.84910E-03   -0.82547E-03 10640   0.507E-02-0.218E-03
CGA:  60    -0.128322248505E+04   -0.18881E-02   -0.20048E-02 10640   0.702E-02-0.245E-02
CGA:  61    -0.128322350547E+04   -0.10204E-02   -0.64996E-03 10640   0.414E-02-0.219E-02
CGA:  62    -0.128322406373E+04   -0.55826E-03   -0.42892E-03 10640   0.182E-02-0.707E-03
CGA:  63    -0.128322417548E+04   -0.11175E-03   -0.14835E-03 10640   0.581E-03 0.133E-03
CGA:  64    -0.128322416611E+04    0.93777E-05   -0.46270E-04 10640   0.278E-03 0.213E-03
CGA:  65    -0.128322413627E+04    0.29837E-04   -0.24603E-04 10640   0.205E-03 0.212E-03
CGA:  66    -0.128322412321E+04    0.13059E-04   -0.20471E-04 10640   0.143E-03 0.161E-03
CGA:  67    -0.128322410430E+04    0.18910E-04   -0.10894E-04 10640   0.127E-03 0.134E-03
CGA:  68    -0.128322408620E+04    0.18102E-04   -0.86106E-05 10640   0.118E-03 0.122E-03
CGA:  69    -0.128322406926E+04    0.16936E-04   -0.73695E-05 10640   0.111E-03 0.114E-03
CGA:  70    -0.128322405343E+04    0.15827E-04   -0.65250E-05 10640   0.106E-03 0.108E-03
CGA:  71    -0.128322403862E+04    0.14817E-04   -0.58870E-05 10640   0.102E-03 0.104E-03
CGA:  72    -0.128322402471E+04    0.13903E-04   -0.53732E-05 10640   0.988E-04 0.100E-03
CGA:  73    -0.128322401164E+04    0.13070E-04   -0.49430E-05 10640   0.960E-04 0.972E-04
CGA:  74    -0.128322399933E+04    0.12311E-04   -0.45715E-05 10640   0.936E-04 0.946E-04
CGA:  75    -0.128322398772E+04    0.11611E-04   -0.42453E-05 10640   0.914E-04 0.923E-04
CGA:  76    -0.128322397676E+04    0.10965E-04   -0.39551E-05 10640   0.894E-04 0.902E-04
CGA:  77    -0.128322396639E+04    0.10364E-04   -0.36948E-05 10640   0.877E-04 0.884E-04
CGA:  78    -0.128322395659E+04    0.98048E-05   -0.34587E-05 10640   0.861E-04 0.867E-04
   1 F= -.12832240E+04 E0= -.12832239E+04  d E =-.128322E+04  mag=    47.0000
       N       E                     dE             d eps       ncg     rms          ort
SDA:   1    -0.128322436077E+04   -0.39438E-03    0.00000E+00 10640   0.106E-02 0.000E+00
CGA:   2    -0.128322451776E+04   -0.15699E-03   -0.16577E-03 10640   0.369E-03 0.424E-03
CGA:   3    -0.128322460572E+04   -0.87963E-04   -0.88939E-04 10640   0.149E-03 0.226E-03
CGA:   4    -0.128322465174E+04   -0.46025E-04   -0.41725E-04 10640   0.848E-04 0.411E-04
CGA:   5    -0.128322465060E+04    0.11461E-05   -0.84874E-05 10640   0.633E-04 0.933E-04
   2 F= -.12832247E+04 E0= -.12832246E+04  d E =-.694009E-03  mag=    47.0000
       N       E                     dE             d eps       ncg     rms          ort
SDA:   1    -0.128294975076E+04    0.27490E+00    0.00000E+00 10640   0.817E+00 0.000E+00
CGA:   2    -0.128315627544E+04   -0.20652E+00   -0.20541E+00 10640   0.342E+00 0.139E-01
CGA:   3    -0.128323480063E+04   -0.78525E-01   -0.79454E-01 10640   0.860E-01-0.171E-01
CGA:   4    -0.128324796648E+04   -0.13166E-01   -0.13157E-01 10640   0.159E-01-0.451E-03
CGA:   5    -0.128325152792E+04   -0.35614E-02   -0.40542E-02 10640   0.890E-02-0.610E-02
CGA:   6    -0.128325237564E+04   -0.84772E-03   -0.83956E-03 10640   0.311E-02-0.289E-03
CGA:   7    -0.128325274875E+04   -0.37311E-03   -0.40551E-03 10640   0.104E-02 0.741E-03
CGA:   8    -0.128325294117E+04   -0.19242E-03   -0.19473E-03 10640   0.439E-03 0.911E-04
CGA:   9    -0.128325306013E+04   -0.11896E-03   -0.13585E-03 10640   0.434E-03-0.155E-03
CGA:  10    -0.128325311741E+04   -0.57283E-04   -0.68108E-04 10640   0.402E-03-0.175E-03
CGA:  11    -0.128325334361E+04   -0.22620E-03    0.14122E-04 10640   0.270E-03-0.209E-04
CGA:  12    -0.128325361328E+04   -0.26967E-03    0.12576E-04 10640   0.204E-03-0.176E-04
CGA:  13    -0.128325376470E+04   -0.15141E-03    0.15156E-04 10640   0.128E-03 0.251E-04
CGA:  14    -0.128325379828E+04   -0.33582E-04   -0.33521E-04 10640   0.137E-03 0.750E-06
CGA:  15    -0.128325318494E+04    0.61334E-03   -0.33071E-03 10640   0.343E-02-0.768E-03
CGA:  16    -0.128325361559E+04   -0.43064E-03   -0.45827E-03 10640   0.109E-02 0.149E-03
CGA:  17    -0.128325401538E+04   -0.39979E-03   -0.42324E-03 10640   0.742E-03-0.558E-03
CGA:  18    -0.128325402594E+04   -0.10563E-04   -0.69164E-04 10640   0.184E-03 0.247E-03
CGA:  19    -0.128325400402E+04    0.21923E-04   -0.17492E-04 10640   0.102E-03 0.159E-03
CGA:  20    -0.128325399322E+04    0.10798E-04   -0.68856E-05 10640   0.573E-04 0.738E-04
CGA:  21    -0.128325398357E+04    0.96440E-05   -0.27619E-05 10640   0.434E-04 0.502E-04
   3 F= -.12832540E+04 E0= -.12832540E+04  d E =-.293330E-01  mag=    47.0000
       N       E                     dE             d eps       ncg     rms          ort
SDA:   1    -0.128081949895E+04    0.24345E+01    0.00000E+00 10640   0.647E+01 0.000E+00
CGA:   2    -0.128257625716E+04   -0.17568E+01   -0.17567E+01 10640   0.273E+01 0.258E-01
CGA:   3    -0.128315728909E+04   -0.58103E+00   -0.57989E+00 10640   0.620E+00-0.307E-01
CGA:   4    -0.128326182695E+04   -0.10454E+00   -0.10434E+00 10640   0.118E+00-0.567E-03
CGA:   5    -0.128328616224E+04   -0.24335E-01   -0.23782E-01 10640   0.315E-01-0.931E-02
CGA:   6    -0.128329194861E+04   -0.57864E-02   -0.57647E-02 10640   0.112E-01-0.261E-03
CGA:   7    -0.128329430758E+04   -0.23590E-02   -0.23171E-02 10640   0.404E-02-0.861E-03
CGA:   8    -0.128329535622E+04   -0.10486E-02   -0.10934E-02 10640   0.381E-02-0.116E-02
CGA:   9    -0.128329608912E+04   -0.73290E-03   -0.81294E-03 10640   0.346E-02-0.187E-02
CGA:  10    -0.128329710365E+04   -0.10145E-02    0.20583E-02 10640   0.164E-02-0.883E-03
CGA:  11    -0.128329800214E+04   -0.89849E-03    0.37272E-03 10640   0.757E-03 0.542E-04
CGA:  12    -0.128329433529E+04    0.36668E-02   -0.19770E-02 10640   0.269E-01-0.355E-02
CGA:  13    -0.128329818320E+04   -0.38479E-02   -0.36897E-02 10640   0.610E-02-0.808E-03
CGA:  14    -0.128329930345E+04   -0.11203E-02   -0.12299E-02 10640   0.116E-02 0.460E-03
CGA:  15    -0.128329933040E+04   -0.26949E-04   -0.16218E-03 10640   0.360E-03 0.436E-03
CGA:  16    -0.128329933024E+04    0.16392E-06   -0.70945E-04 10640   0.175E-03 0.251E-03
CGA:  17    -0.128329934495E+04   -0.14709E-04   -0.28962E-04 10640   0.105E-03 0.578E-04
CGA:  18    -0.128329931931E+04    0.25642E-04   -0.10976E-04 10640   0.736E-04 0.114E-03
CGA:  19    -0.128329930264E+04    0.16668E-04   -0.36863E-05 10640   0.548E-04 0.609E-04
CGA:  20    -0.128329928909E+04    0.13545E-04   -0.25862E-05 10640   0.480E-04 0.503E-04
CGA:  21    -0.128329927736E+04    0.11737E-04   -0.21655E-05 10640   0.438E-04 0.454E-04
CGA:  22    -0.128329926692E+04    0.10440E-04   -0.18659E-05 10640   0.407E-04 0.419E-04
CGA:  23    -0.128329925750E+04    0.94128E-05   -0.16124E-05 10640   0.381E-04 0.391E-04
   4 F= -.12832993E+04 E0= -.12832993E+04  d E =-.452739E-01  mag=    47.0000
       N       E                     dE             d eps       ncg     rms          ort
SDA:   1    -0.128291522477E+04    0.38404E+00    0.00000E+00 10640   0.105E+01 0.000E+00
CGA:   2    -0.128318638151E+04   -0.27116E+00   -0.27134E+00 10640   0.468E+00 0.578E-02
CGA:   3    -0.128328445825E+04   -0.98077E-01   -0.97591E-01 10640   0.114E+00-0.697E-02
CGA:   4    -0.128330206377E+04   -0.17606E-01   -0.17657E-01 10640   0.240E-01 0.602E-03
CGA:   5    -0.128330670049E+04   -0.46367E-02   -0.44828E-02 10640   0.636E-02-0.160E-02
CGA:   6    -0.128330797506E+04   -0.12746E-02   -0.12251E-02 10640   0.238E-02-0.701E-03
CGA:   7    -0.128330839292E+04   -0.41786E-03   -0.41729E-03 10640   0.599E-03-0.322E-05
CGA:   8    -0.128330856888E+04   -0.17596E-03   -0.17973E-03 10640   0.443E-03-0.120E-03
CGA:   9    -0.128330855581E+04    0.13072E-04   -0.21736E-03 10640   0.250E-02-0.671E-03
CGA:  10    -0.128330882899E+04   -0.27319E-03   -0.26980E-03 10640   0.334E-03-0.114E-04
CGA:  11    -0.128330876137E+04    0.67626E-04   -0.26298E-03 10640   0.206E-02-0.644E-03
CGA:  12    -0.128330902034E+04   -0.25897E-03   -0.27431E-03 10640   0.463E-03 0.923E-04
CGA:  13    -0.128330909023E+04   -0.69887E-04   -0.79058E-04 10640   0.556E-04 0.696E-04
CGA:  14    -0.128330908965E+04    0.57613E-06   -0.66355E-05 10640   0.272E-04 0.389E-04
CGA:  15    -0.128330910182E+04   -0.12167E-04   -0.11480E-04 10640   0.339E-04 0.482E-05
CGA:  16    -0.128330913823E+04   -0.36417E-04    0.97681E-05 10640   0.425E-04 0.569E-05
CGA:  17    -0.128330918263E+04   -0.44391E-04    0.12742E-04 10640   0.265E-04 0.303E-04
CGA:  18    -0.128330918580E+04   -0.31754E-05   -0.47994E-05 10640   0.148E-04 0.153E-04
   5 F= -.12833092E+04 E0= -.12833092E+04  d E =-.992830E-02  mag=    47.0000
       N       E                     dE             d eps       ncg     rms          ort
SDA:   1    -0.128185915674E+04    0.14500E+01    0.00000E+00 10640   0.377E+01 0.000E+00
CGA:   2    -0.128287988162E+04   -0.10207E+01   -0.10207E+01 10640   0.173E+01 0.417E-02
CGA:   3    -0.128323241726E+04   -0.35254E+00   -0.35214E+00 10640   0.355E+00-0.952E-02
CGA:   4    -0.128329170589E+04   -0.59289E-01   -0.59137E-01 10640   0.752E-01-0.100E-02
CGA:   5    -0.128330561233E+04   -0.13906E-01   -0.13866E-01 10640   0.187E-01-0.436E-03
CGA:   6    -0.128330946982E+04   -0.38575E-02   -0.37692E-02 10640   0.744E-02-0.135E-02
CGA:   7    -0.128331080876E+04   -0.13389E-02   -0.13358E-02 10640   0.195E-02-0.315E-04
CGA:   8    -0.128331144193E+04   -0.63317E-03   -0.70833E-03 10640   0.194E-02-0.715E-03
CGA:   9    -0.128331178345E+04   -0.34152E-03   -0.37619E-03 10640   0.185E-02-0.849E-03
CGA:  10    -0.128331166684E+04    0.11661E-03   -0.59839E-03 10640   0.554E-02-0.233E-02
CGA:  11    -0.128331242046E+04   -0.75362E-03   -0.76589E-03 10640   0.151E-02 0.925E-04
CGA:  12    -0.128331276698E+04   -0.34652E-03   -0.34877E-03 10640   0.542E-03 0.475E-04
CGA:  13    -0.128331291919E+04   -0.15222E-03   -0.15241E-03 10640   0.215E-03 0.194E-03
CGA:  14    -0.128331302453E+04   -0.10534E-03   -0.11079E-03 10640   0.284E-03-0.517E-04
CGA:  15    -0.128331302977E+04   -0.52435E-05   -0.22142E-04 10640   0.169E-03 0.958E-04
CGA:  16    -0.128331302672E+04    0.30580E-05   -0.17483E-04 10640   0.868E-04 0.107E-03
CGA:  17    -0.128331304164E+04   -0.14923E-04   -0.17490E-04 10640   0.382E-04 0.435E-04
CGA:  18    -0.128331304806E+04   -0.64221E-05   -0.78669E-05 10640   0.318E-04 0.281E-04
   6 F= -.12833130E+04 E0= -.12833130E+04  d E =-.386226E-02  mag=    47.0000
       N       E                     dE             d eps       ncg     rms          ort
SDA:   1    -0.128294513098E+04    0.36791E+00    0.00000E+00 10640   0.110E+01 0.000E+00
CGA:   2    -0.128318209249E+04   -0.23696E+00   -0.23685E+00 10640   0.465E+00-0.302E-02
CGA:   3    -0.128328988680E+04   -0.10779E+00   -0.10787E+00 10640   0.110E+00 0.459E-02
CGA:   4    -0.128330634596E+04   -0.16459E-01   -0.16697E-01 10640   0.193E-01 0.252E-02
CGA:   5    -0.128330989953E+04   -0.35536E-02   -0.36064E-02 10640   0.511E-02 0.892E-03
CGA:   6    -0.128331078076E+04   -0.88124E-03   -0.92979E-03 10640   0.136E-02 0.733E-03
CGA:   7    -0.128331120020E+04   -0.41944E-03   -0.42369E-03 10640   0.525E-03-0.120E-03
CGA:   8    -0.128331126504E+04   -0.64841E-04   -0.78030E-04 10640   0.213E-03 0.174E-03
CGA:   9    -0.128331128829E+04   -0.23244E-04   -0.38633E-04 10640   0.114E-03 0.156E-03
CGA:  10    -0.128331129867E+04   -0.10386E-04   -0.16815E-04 10640   0.732E-04 0.779E-04
CGA:  11    -0.128331129535E+04    0.33254E-05   -0.61403E-05 10640   0.627E-04 0.665E-04
   7 F= -.12833113E+04 E0= -.12833113E+04  d E =0.175271E-02  mag=    47.0000
       N       E                     dE             d eps       ncg     rms          ort
SDA:   1    -0.128322714360E+04    0.84155E-01    0.00000E+00 10640   0.262E+00 0.000E+00
CGA:   2    -0.128328406973E+04   -0.56926E-01   -0.56936E-01 10640   0.111E+00-0.207E-02
CGA:   3    -0.128330859240E+04   -0.24523E-01   -0.24498E-01 10640   0.275E-01 0.236E-02
CGA:   4    -0.128331308292E+04   -0.44905E-02   -0.44712E-02 10640   0.545E-02-0.330E-03
CGA:   5    -0.128331385107E+04   -0.76815E-03   -0.81859E-03 10640   0.112E-02 0.866E-03
CGA:   6    -0.128331406284E+04   -0.21177E-03   -0.22319E-03 10640   0.327E-03 0.325E-03
CGA:   7    -0.128331414043E+04   -0.77589E-04   -0.79955E-04 10640   0.134E-03 0.142E-03
CGA:   8    -0.128331414668E+04   -0.62566E-05   -0.19315E-04 10640   0.762E-04 0.125E-03
   8 F= -.12833141E+04 E0= -.12833141E+04  d E =-.285134E-02  mag=    47.0000
       N       E                     dE             d eps       ncg     rms          ort
SDA:   1    -0.128321698975E+04    0.97151E-01    0.00000E+00 10640   0.239E+00 0.000E+00
CGA:   2    -0.128328808877E+04   -0.71099E-01   -0.71235E-01 10640   0.111E+00-0.129E-02
CGA:   3    -0.128330902410E+04   -0.20935E-01   -0.20954E-01 10640   0.181E-01 0.175E-02
CGA:   4    -0.128331238663E+04   -0.33625E-02   -0.33445E-02 10640   0.501E-02-0.103E-02
CGA:   5    -0.128331304492E+04   -0.65829E-03   -0.69863E-03 10640   0.104E-02 0.796E-03
CGA:   6    -0.128331325558E+04   -0.21066E-03   -0.21464E-03 10640   0.342E-03 0.211E-03
CGA:   7    -0.128331337754E+04   -0.12197E-03   -0.13607E-03 10640   0.336E-03-0.104E-03
CGA:   8    -0.128331337437E+04    0.31704E-05   -0.16156E-04 10640   0.238E-03 0.145E-03
CGA:   9    -0.128331337053E+04    0.38387E-05   -0.22254E-04 10640   0.139E-03 0.200E-03
CGA:  10    -0.128331342582E+04   -0.55291E-04   -0.53755E-04 10640   0.122E-03 0.763E-05
CGA:  11    -0.128331342970E+04   -0.38773E-05   -0.12518E-04 10640   0.699E-04 0.852E-04
   9 F= -.12833134E+04 E0= -.12833134E+04  d E =0.716984E-03  mag=    47.0000
       N       E                     dE             d eps       ncg     rms          ort
SDA:   1    -0.128250892010E+04    0.80451E+00    0.00000E+00 10640   0.211E+01 0.000E+00
CGA:   2    -0.128304767200E+04   -0.53875E+00   -0.53875E+00 10640   0.102E+01 0.448E-03
CGA:   3    -0.128326131552E+04   -0.21364E+00   -0.21363E+00 10640   0.200E+00 0.605E-03
CGA:   4    -0.128329183686E+04   -0.30521E-01   -0.30478E-01 10640   0.420E-01-0.790E-03
CGA:   5    -0.128329961471E+04   -0.77778E-02   -0.77837E-02 10640   0.109E-01 0.919E-03
CGA:   6    -0.128330189752E+04   -0.22828E-02   -0.22893E-02 10640   0.377E-02-0.481E-03
CGA:   7    -0.128330255930E+04   -0.66179E-03   -0.66512E-03 10640   0.102E-02 0.399E-03
CGA:   8    -0.128330285138E+04   -0.29208E-03   -0.28475E-03 10640   0.550E-03 0.124E-03
CGA:   9    -0.128330306827E+04   -0.21689E-03   -0.20470E-03 10640   0.422E-03 0.880E-04
CGA:  10    -0.128330320579E+04   -0.13752E-03   -0.12679E-03 10640   0.283E-03 0.187E-03
CGA:  11    -0.128330337361E+04   -0.16782E-03   -0.14688E-03 10640   0.258E-03 0.131E-03
CGA:  12    -0.128330352149E+04   -0.14788E-03   -0.12205E-03 10640   0.246E-03 0.227E-03
CGA:  13    -0.128330359665E+04   -0.75155E-04   -0.69006E-04 10640   0.152E-03 0.976E-04
CGA:  14    -0.128330367768E+04   -0.81039E-04   -0.72636E-04 10640   0.198E-03 0.677E-04
CGA:  15    -0.128330378659E+04   -0.10891E-03   -0.94695E-04 10640   0.183E-03 0.132E-03
CGA:  16    -0.128330383302E+04   -0.46428E-04   -0.45874E-04 10640   0.175E-03 0.311E-04
CGA:  17    -0.128330389695E+04   -0.63928E-04   -0.61528E-04 10640   0.127E-03 0.348E-04
CGA:  18    -0.128330407305E+04   -0.17610E-03   -0.53690E-07 10640   0.193E-02-0.833E-04
CGA:  19    -0.128330421797E+04   -0.14492E-03   -0.20665E-03 10640   0.222E-03 0.200E-03
CGA:  20    -0.128330425963E+04   -0.41664E-04   -0.53503E-04 10640   0.153E-03 0.598E-04
CGA:  21    -0.128330433114E+04   -0.71507E-04   -0.69849E-04 10640   0.130E-03-0.357E-04
CGA:  22    -0.128330433316E+04   -0.20223E-05   -0.12698E-04 10640   0.947E-04 0.382E-04
CGA:  23    -0.128330434202E+04   -0.88622E-05   -0.22242E-04 10640   0.122E-03 0.633E-04
CGA:  24    -0.128330438750E+04   -0.45481E-04   -0.50083E-04 10640   0.667E-03-0.152E-03
CGA:  25    -0.128330441634E+04   -0.28836E-04   -0.55841E-04 10640   0.382E-04 0.931E-04
CGA:  26    -0.128330441382E+04    0.25221E-05   -0.43400E-05 10640   0.323E-04 0.257E-04
CGA:  27    -0.128330443813E+04   -0.24314E-04    0.87240E-04 10640   0.511E-04 0.200E-04
CGA:  28    -0.128330443954E+04   -0.14124E-05   -0.61188E-05 10640   0.294E-04 0.202E-04
CGA:  29    -0.128330446244E+04   -0.22894E-04   -0.19066E-04 10640   0.909E-04 0.305E-04
CGA:  30    -0.128330448856E+04   -0.26122E-04   -0.18336E-04 10640   0.118E-03-0.532E-04
CGA:  31    -0.128330449141E+04   -0.28464E-05   -0.10267E-04 10640   0.248E-04 0.296E-04
  10 F= -.12833045E+04 E0= -.12833045E+04  d E =0.893829E-02  mag=    47.0000
       N       E                     dE             d eps       ncg     rms          ort
SDA:   1    -0.128216287631E+04    0.11416E+01    0.00000E+00 10640   0.325E+01 0.000E+00
CGA:   2    -0.128290529093E+04   -0.74241E+00   -0.74233E+00 10640   0.145E+01-0.531E-03
CGA:   3    -0.128323724708E+04   -0.33196E+00   -0.33199E+00 10640   0.310E+00-0.207E-03
CGA:   4    -0.128328374583E+04   -0.46499E-01   -0.46832E-01 10640   0.597E-01 0.267E-02
CGA:   5    -0.128329506729E+04   -0.11321E-01   -0.11339E-01 10640   0.170E-01 0.191E-03
CGA:   6    -0.128329817365E+04   -0.31064E-02   -0.31531E-02 10640   0.498E-02 0.438E-03
CGA:   7    -0.128329944898E+04   -0.12753E-02   -0.12578E-02 10640   0.182E-02-0.385E-03
CGA:   8    -0.128329984079E+04   -0.39182E-03   -0.39481E-03 10640   0.104E-02 0.576E-04
CGA:   9    -0.128330014406E+04   -0.30327E-03   -0.30334E-03 10640   0.755E-03 0.190E-04
CGA:  10    -0.128330035143E+04   -0.20737E-03   -0.20984E-03 10640   0.473E-03 0.182E-03
CGA:  11    -0.128330062299E+04   -0.27156E-03   -0.25933E-03 10640   0.559E-03 0.750E-04
CGA:  12    -0.128330087736E+04   -0.25437E-03   -0.24165E-03 10640   0.729E-03 0.152E-03
CGA:  13    -0.128330134630E+04   -0.46893E-03   -0.48160E-03 10640   0.161E-02-0.853E-04
CGA:  14    -0.128330170087E+04   -0.35457E-03   -0.36092E-03 10640   0.122E-02 0.722E-04
CGA:  15    -0.128330215110E+04   -0.45023E-03   -0.45043E-03 10640   0.104E-02-0.240E-04
CGA:  16    -0.128330234519E+04   -0.19409E-03   -0.18215E-03 10640   0.602E-03-0.928E-04
CGA:  17    -0.128330245045E+04   -0.10526E-03   -0.11399E-03 10640   0.280E-03 0.870E-04
CGA:  18    -0.128330249606E+04   -0.45611E-04   -0.54693E-04 10640   0.196E-03 0.697E-04
CGA:  19    -0.128330256214E+04   -0.66087E-04   -0.66369E-04 10640   0.151E-03 0.125E-04
CGA:  20    -0.128330258671E+04   -0.24563E-04   -0.29835E-04 10640   0.109E-03 0.500E-04
CGA:  21    -0.128330260175E+04   -0.15038E-04   -0.23621E-04 10640   0.783E-04 0.699E-04
CGA:  22    -0.128330263161E+04   -0.29861E-04   -0.36006E-04 10640   0.214E-03-0.335E-04
CGA:  23    -0.128330264531E+04   -0.13701E-04   -0.17208E-04 10640   0.157E-03 0.239E-04
CGA:  24    -0.128330265453E+04   -0.92242E-05   -0.16048E-04 10640   0.627E-04 0.365E-04
CGA:  25    -0.128330266257E+04   -0.80393E-05   -0.11268E-04 10640   0.688E-04 0.258E-04
CGA:  26    -0.128330268135E+04   -0.18784E-04   -0.19787E-04 10640   0.591E-04 0.163E-04
CGA:  27    -0.128330269362E+04   -0.12271E-04   -0.12386E-04 10640   0.434E-04 0.109E-05
CGA:  28    -0.128330270138E+04   -0.77571E-05   -0.83307E-05 10640   0.523E-04 0.813E-05
CGA:  29    -0.128330270952E+04   -0.81413E-05   -0.10194E-04 10640   0.434E-04 0.225E-04
  11 F= -.12833027E+04 E0= -.12833027E+04  d E =0.178188E-02  mag=    47.0000
       N       E                     dE             d eps       ncg     rms          ort
SDA:   1    -0.128286952550E+04    0.43318E+00    0.00000E+00 10640   0.120E+01 0.000E+00
CGA:   2    -0.128316137791E+04   -0.29185E+00   -0.29185E+00 10640   0.550E+00 0.563E-03
CGA:   3    -0.128328358437E+04   -0.12221E+00   -0.12215E+00 10640   0.105E+00-0.263E-02
CGA:   4    -0.128330114418E+04   -0.17560E-01   -0.17472E-01 10640   0.200E-01-0.117E-02
CGA:   5    -0.128330519771E+04   -0.40535E-02   -0.40552E-02 10640   0.460E-02 0.607E-04
CGA:   6    -0.128330634194E+04   -0.11442E-02   -0.11589E-02 10640   0.274E-02-0.965E-03
CGA:   7    -0.128330660984E+04   -0.26790E-03   -0.29161E-03 10640   0.712E-03 0.237E-03
CGA:   8    -0.128330674383E+04   -0.13399E-03   -0.13989E-03 10640   0.430E-03 0.116E-03
CGA:   9    -0.128330678664E+04   -0.42806E-04   -0.24401E-03 10640   0.245E-02-0.776E-03
CGA:  10    -0.128330698870E+04   -0.20207E-03   -0.24609E-03 10640   0.348E-03 0.318E-03
CGA:  11    -0.128330710047E+04   -0.11177E-03   -0.11798E-03 10640   0.178E-03-0.954E-04
CGA:  12    -0.128330719618E+04   -0.95708E-04    0.27921E-04 10640   0.205E-03-0.115E-04
CGA:  13    -0.128330725612E+04   -0.59943E-04   -0.12032E-03 10640   0.628E-03-0.154E-03
CGA:  14    -0.128330737424E+04   -0.11811E-03   -0.11782E-03 10640   0.196E-03-0.352E-05
CGA:  15    -0.128330739716E+04   -0.22920E-04   -0.26605E-04 10640   0.477E-04 0.315E-04
CGA:  16    -0.128330743038E+04   -0.33225E-04   -0.34368E-04 10640   0.140E-03-0.339E-05
CGA:  17    -0.128330744283E+04   -0.12448E-04   -0.17348E-04 10640   0.861E-04 0.367E-04
CGA:  18    -0.128330744882E+04   -0.59903E-05   -0.13657E-04 10640   0.883E-04 0.569E-04
CGA:  19    -0.128330747206E+04   -0.23240E-04   -0.23367E-04 10640   0.111E-03-0.114E-04
CGA:  20    -0.128330750204E+04   -0.29980E-04   -0.31930E-04 10640   0.620E-04-0.258E-04
CGA:  21    -0.128330750066E+04    0.13762E-05   -0.48117E-05 10640   0.486E-04 0.394E-04
  12 F= -.12833075E+04 E0= -.12833075E+04  d E =-.479114E-02  mag=    47.0000
       N       E                     dE             d eps       ncg     rms          ort
SDA:   1    -0.128314502294E+04    0.16248E+00    0.00000E+00 10640   0.448E+00 0.000E+00
CGA:   2    -0.128325363123E+04   -0.10861E+00   -0.10862E+00 10640   0.199E+00 0.293E-02
CGA:   3    -0.128329881834E+04   -0.45187E-01   -0.45105E-01 10640   0.402E-01-0.396E-02
CGA:   4    -0.128330515710E+04   -0.63388E-02   -0.63889E-02 10640   0.729E-02 0.623E-03
CGA:   5    -0.128330699075E+04   -0.18337E-02   -0.18443E-02 10640   0.238E-02-0.125E-02
CGA:   6    -0.128330730577E+04   -0.31501E-03   -0.33492E-03 10640   0.638E-03 0.282E-03
CGA:   7    -0.128330748849E+04   -0.18273E-03   -0.18630E-03 10640   0.337E-03-0.151E-03
CGA:   8    -0.128330755170E+04   -0.63212E-04   -0.63198E-04 10640   0.195E-03 0.209E-05
CGA:   9    -0.128330761660E+04   -0.64897E-04   -0.87206E-04 10640   0.306E-03-0.109E-03
CGA:  10    -0.128330769833E+04   -0.81729E-04   -0.94039E-04 10640   0.422E-03-0.212E-03
CGA:  11    -0.128330772888E+04   -0.30552E-04   -0.39561E-04 10640   0.436E-04 0.579E-04
CGA:  12    -0.128330773496E+04   -0.60756E-05   -0.79644E-05 10640   0.326E-04 0.226E-04
  13 F= -.12833077E+04 E0= -.12833077E+04  d E =-.234295E-03  mag=    47.0000
       N       E                     dE             d eps       ncg     rms          ort
SDA:   1    -0.128319257992E+04    0.11515E+00    0.00000E+00 10640   0.319E+00 0.000E+00
CGA:   2    -0.128326373158E+04   -0.71152E-01   -0.71137E-01 10640   0.149E+00-0.752E-03
CGA:   3    -0.128329549878E+04   -0.31767E-01   -0.31776E-01 10640   0.396E-01 0.414E-03
CGA:   4    -0.128330120952E+04   -0.57107E-02   -0.57682E-02 10640   0.640E-02 0.662E-03
CGA:   5    -0.128330251822E+04   -0.13087E-02   -0.13083E-02 10640   0.175E-02-0.562E-05
CGA:   6    -0.128330284576E+04   -0.32754E-03   -0.33122E-03 10640   0.531E-03 0.889E-04
CGA:   7    -0.128330300260E+04   -0.15683E-03   -0.16719E-03 10640   0.371E-03-0.147E-03
CGA:   8    -0.128330302145E+04   -0.18854E-04   -0.31171E-04 10640   0.167E-03 0.106E-03
CGA:   9    -0.128330303512E+04   -0.13671E-04   -0.24342E-04 10640   0.109E-03 0.938E-04
CGA:  10    -0.128330305510E+04   -0.19982E-04   -0.58789E-04 10640   0.716E-03-0.123E-03
CGA:  11    -0.128330308408E+04   -0.28977E-04   -0.54097E-04 10640   0.620E-04 0.157E-03
CGA:  12    -0.128330308242E+04    0.16597E-05   -0.50357E-05 10640   0.374E-04 0.412E-04
CGA:  13    -0.128330310531E+04   -0.22893E-04   -0.17457E-04 10640   0.391E-04 0.219E-04
CGA:  14    -0.128330310662E+04   -0.13078E-05   -0.44700E-05 10640   0.279E-04 0.266E-04
  14 F= -.12833031E+04 E0= -.12833031E+04  d E =0.462834E-02  mag=    47.0000
       N       E                     dE             d eps       ncg     rms          ort
SDA:   1    -0.128278704347E+04    0.51606E+00    0.00000E+00 10640   0.134E+01 0.000E+00
CGA:   2    -0.128312459665E+04   -0.33755E+00   -0.33757E+00 10640   0.661E+00-0.318E-03
CGA:   3    -0.128325828147E+04   -0.13368E+00   -0.13367E+00 10640   0.154E+00-0.340E-03
CGA:   4    -0.128328087635E+04   -0.22595E-01   -0.22594E-01 10640   0.284E-01 0.198E-03
CGA:   5    -0.128328631855E+04   -0.54422E-02   -0.54649E-02 10640   0.677E-02 0.684E-03
CGA:   6    -0.128328784946E+04   -0.15309E-02   -0.15290E-02 10640   0.242E-02-0.419E-03
CGA:   7    -0.128328826223E+04   -0.41277E-03   -0.42214E-03 10640   0.691E-03 0.244E-03
CGA:   8    -0.128328847685E+04   -0.21462E-03   -0.21860E-03 10640   0.470E-03-0.611E-04
CGA:   9    -0.128328854843E+04   -0.71576E-04   -0.78736E-04 10640   0.235E-03 0.168E-03
CGA:  10    -0.128328861716E+04   -0.68733E-04   -0.69435E-04 10640   0.151E-03 0.116E-03
CGA:  11    -0.128328870336E+04   -0.86195E-04   -0.86571E-04 10640   0.288E-03-0.342E-05
CGA:  12    -0.128328872640E+04   -0.23043E-04   -0.35891E-04 10640   0.238E-03 0.122E-03
CGA:  13    -0.128328874622E+04   -0.19820E-04   -0.38596E-04 10640   0.201E-03 0.165E-03
CGA:  14    -0.128328881063E+04   -0.64407E-04   -0.87586E-04 10640   0.535E-03-0.108E-03
CGA:  15    -0.128328883625E+04   -0.25620E-04   -0.42808E-04 10640   0.582E-04 0.115E-03
CGA:  16    -0.128328883719E+04   -0.94340E-06   -0.63409E-05 10640   0.474E-04 0.402E-04
CGA:  17    -0.128328882692E+04    0.10269E-04   -0.14261E-04 10640   0.115E-02-0.641E-04
CGA:  18    -0.128328889758E+04   -0.70663E-04   -0.10171E-03 10640   0.516E-04 0.105E-03
CGA:  19    -0.128328890047E+04   -0.28911E-05   -0.89216E-05 10640   0.395E-04 0.271E-04
CGA:  20    -0.128328890990E+04   -0.94251E-05   -0.26491E-04 10640   0.480E-03-0.566E-04
CGA:  21    -0.128328892957E+04   -0.19676E-04   -0.40006E-04 10640   0.267E-04 0.689E-04
CGA:  22    -0.128328892770E+04    0.18765E-05   -0.29795E-05 10640   0.221E-04 0.178E-04
CGA:  23    -0.128328894688E+04   -0.19183E-04   -0.28819E-04 10640   0.333E-03-0.105E-04
CGA:  24    -0.128328895105E+04   -0.41736E-05   -0.20474E-04 10640   0.514E-03 0.512E-04
CGA:  25    -0.128328896647E+04   -0.15415E-04   -0.58847E-04 10640   0.144E-03 0.136E-03
CGA:  26    -0.128328897021E+04   -0.37429E-05   -0.21912E-04 10640   0.127E-03 0.695E-04
CGA:  27    -0.128328899576E+04   -0.25549E-04   -0.35296E-04 10640   0.597E-04 0.531E-04
CGA:  28    -0.128328901400E+04   -0.18237E-04   -0.13005E-04 10640   0.311E-04-0.267E-04
CGA:  29    -0.128328901386E+04    0.13903E-06   -0.23370E-05 10640   0.223E-04 0.116E-04
  15 F= -.12832890E+04 E0= -.12832890E+04  d E =0.140928E-01  mag=    47.0000
       N       E                     dE             d eps       ncg     rms          ort
SDA:   1    -0.128277955540E+04    0.50946E+00    0.00000E+00 10640   0.146E+01 0.000E+00
CGA:   2    -0.128310242497E+04   -0.32287E+00   -0.32257E+00 10640   0.633E+00-0.256E-02
CGA:   3    -0.128324871958E+04   -0.14629E+00   -0.14648E+00 10640   0.140E+00 0.208E-02
CGA:   4    -0.128327110359E+04   -0.22384E-01   -0.22384E-01 10640   0.237E-01 0.654E-04
CGA:   5    -0.128327581421E+04   -0.47106E-02   -0.47799E-02 10640   0.586E-02 0.695E-03
CGA:   6    -0.128327711542E+04   -0.13012E-02   -0.12775E-02 10640   0.231E-02-0.269E-03
CGA:   7    -0.128327753187E+04   -0.41644E-03   -0.41201E-03 10640   0.659E-03-0.380E-04
CGA:   8    -0.128327768484E+04   -0.15297E-03   -0.15396E-03 10640   0.273E-03 0.200E-04
CGA:   9    -0.128327775767E+04   -0.72829E-04   -0.17068E-03 10640   0.109E-02-0.305E-03
CGA:  10    -0.128327780711E+04   -0.49447E-04   -0.10052E-03 10640   0.164E-03 0.247E-03
CGA:  11    -0.128327782558E+04   -0.18462E-04   -0.28368E-04 10640   0.832E-04 0.661E-04
CGA:  12    -0.128327784030E+04   -0.14727E-04   -0.60603E-04 10640   0.535E-03-0.195E-03
CGA:  13    -0.128327786294E+04   -0.22641E-04   -0.51597E-04 10640   0.108E-03 0.147E-03
CGA:  14    -0.128327788106E+04   -0.18119E-04   -0.22526E-04 10640   0.532E-04 0.360E-04
CGA:  15    -0.128327792279E+04   -0.41731E-04    0.18738E-03 10640   0.951E-04-0.474E-04
CGA:  16    -0.128327791945E+04    0.33402E-05   -0.66865E-05 10640   0.323E-04 0.480E-04
  16 F= -.12832779E+04 E0= -.12832779E+04  d E =0.110944E-01  mag=    47.0000
       N       E                     dE             d eps       ncg     rms          ort
SDA:   1    -0.128314731751E+04    0.13061E+00    0.00000E+00 10640   0.426E+00 0.000E+00
CGA:   2    -0.128323342471E+04   -0.86107E-01   -0.86188E-01 10640   0.164E+00 0.150E-02
CGA:   3    -0.128327484248E+04   -0.41418E-01   -0.41405E-01 10640   0.427E-01-0.188E-02
CGA:   4    -0.128328132639E+04   -0.64839E-02   -0.65216E-02 10640   0.652E-02 0.380E-03
CGA:   5    -0.128328280004E+04   -0.14736E-02   -0.14604E-02 10640   0.193E-02-0.425E-03
CGA:   6    -0.128328304422E+04   -0.24419E-03   -0.27719E-03 10640   0.506E-03 0.341E-03
CGA:   7    -0.128328317050E+04   -0.12627E-03   -0.12664E-03 10640   0.152E-03 0.109E-04
CGA:   8    -0.128328320319E+04   -0.32692E-04   -0.33464E-04 10640   0.577E-04 0.259E-04
CGA:   9    -0.128328320418E+04   -0.98581E-06   -0.69971E-05 10640   0.303E-04 0.431E-04
  17 F= -.12832832E+04 E0= -.12832832E+04  d E =-.528472E-02  mag=    47.0000
       N       E                     dE             d eps       ncg     rms          ort
SDA:   1    -0.128323208789E+04    0.51115E-01    0.00000E+00 10640   0.133E+00 0.000E+00
CGA:   2    -0.128326488256E+04   -0.32795E-01   -0.32796E-01 10640   0.628E-01-0.107E-03
CGA:   3    -0.128327849173E+04   -0.13609E-01   -0.13602E-01 10640   0.132E-01-0.376E-03
CGA:   4    -0.128328049375E+04   -0.20020E-02   -0.19857E-02 10640   0.271E-02-0.183E-03
CGA:   5    -0.128328094531E+04   -0.45157E-03   -0.46289E-03 10640   0.613E-03 0.195E-03
CGA:   6    -0.128328111500E+04   -0.16969E-03   -0.17593E-03 10640   0.341E-03-0.161E-03
CGA:   7    -0.128328114703E+04   -0.32026E-04   -0.36189E-04 10640   0.102E-03 0.479E-04
CGA:   8    -0.128328116307E+04   -0.16043E-04   -0.17824E-04 10640   0.471E-04 0.240E-04
CGA:   9    -0.128328117836E+04   -0.15289E-04   -0.22971E-04 10640   0.118E-03-0.447E-04
CGA:  10    -0.128328118615E+04   -0.77881E-05   -0.12101E-04 10640   0.264E-04 0.334E-04
CGA:  11    -0.128328119548E+04   -0.93298E-05   -0.10007E-04 10640   0.243E-04-0.972E-05
  18 F= -.12832812E+04 E0= -.12832812E+04  d E =0.200870E-02  mag=    47.0000
       N       E                     dE             d eps       ncg     rms          ort
SDA:   1    -0.128062117994E+04    0.26600E+01    0.00000E+00 10640   0.780E+01 0.000E+00
CGA:   2    -0.128229961868E+04   -0.16784E+01   -0.16784E+01 10640   0.328E+01-0.200E-03
CGA:   3    -0.128308499907E+04   -0.78538E+00   -0.78536E+00 10640   0.806E+00 0.555E-04
CGA:   4    -0.128320557119E+04   -0.12057E+00   -0.12053E+00 10640   0.141E+00-0.127E-03
CGA:   5    -0.128323208406E+04   -0.26513E-01   -0.26579E-01 10640   0.377E-01 0.195E-02
CGA:   6    -0.128323993516E+04   -0.78511E-02   -0.78306E-02 10640   0.127E-01-0.113E-02
CGA:   7    -0.128324247961E+04   -0.25445E-02   -0.25450E-02 10640   0.327E-02 0.471E-04
CGA:   8    -0.128324334499E+04   -0.86537E-03   -0.88557E-03 10640   0.198E-02-0.408E-03
CGA:   9    -0.128324371705E+04   -0.37206E-03   -0.37214E-03 10640   0.900E-03 0.115E-04
CGA:  10    -0.128324402203E+04   -0.30499E-03   -0.33887E-03 10640   0.711E-03-0.224E-03
CGA:  11    -0.128324418249E+04   -0.16045E-03   -0.22889E-03 10640   0.105E-02-0.348E-03
CGA:  12    -0.128324430073E+04   -0.11825E-03   -0.11190E-03 10640   0.668E-03-0.201E-03
CGA:  13    -0.128324449904E+04   -0.19831E-03   -0.21421E-03 10640   0.804E-03-0.108E-03
CGA:  14    -0.128324465737E+04   -0.15833E-03   -0.15499E-03 10640   0.821E-03-0.201E-03
CGA:  15    -0.128324487587E+04   -0.21850E-03   -0.26926E-03 10640   0.742E-03-0.281E-03
CGA:  16    -0.128324491011E+04   -0.34240E-04   -0.57574E-04 10640   0.423E-03 0.166E-03
CGA:  17    -0.128324495445E+04   -0.44345E-04   -0.66894E-04 10640   0.246E-03 0.187E-03
CGA:  18    -0.128324502355E+04   -0.69102E-04   -0.70344E-04 10640   0.122E-03 0.266E-04
CGA:  19    -0.128324505308E+04   -0.29526E-04   -0.29175E-04 10640   0.106E-03-0.145E-04
CGA:  20    -0.128324504956E+04    0.35201E-05   -0.68891E-05 10640   0.841E-04 0.627E-04
  19 F= -.12832450E+04 E0= -.12832450E+04  d E =0.361459E-01  mag=    47.0000
       N       E                     dE             d eps       ncg     rms          ort
SDA:   1    -0.128218487233E+04    0.10602E+01    0.00000E+00 10640   0.348E+01 0.000E+00
CGA:   2    -0.128286024339E+04   -0.67537E+00   -0.67530E+00 10640   0.131E+01-0.688E-03
CGA:   3    -0.128318063439E+04   -0.32039E+00   -0.32035E+00 10640   0.408E+00 0.801E-03
CGA:   4    -0.128324014598E+04   -0.59512E-01   -0.59665E-01 10640   0.607E-01 0.270E-02
CGA:   5    -0.128325217661E+04   -0.12031E-01   -0.12014E-01 10640   0.172E-01-0.688E-03
CGA:   6    -0.128325533737E+04   -0.31608E-02   -0.31868E-02 10640   0.473E-02 0.868E-03
CGA:   7    -0.128325651785E+04   -0.11805E-02   -0.11875E-02 10640   0.151E-02-0.309E-03
CGA:   8    -0.128325677595E+04   -0.25810E-03   -0.26415E-03 10640   0.539E-03 0.200E-03
CGA:   9    -0.128325697640E+04   -0.20044E-03   -0.22331E-03 10640   0.481E-03-0.152E-03
CGA:  10    -0.128325702404E+04   -0.47639E-04   -0.54443E-04 10640   0.246E-03 0.103E-03
CGA:  11    -0.128325706153E+04   -0.37494E-04   -0.44912E-04 10640   0.124E-03 0.106E-03
CGA:  12    -0.128325709594E+04   -0.34405E-04   -0.34919E-04 10640   0.786E-04 0.254E-04
CGA:  13    -0.128325712043E+04   -0.24495E-04   -0.23504E-04 10640   0.688E-04 0.300E-04
CGA:  14    -0.128325713944E+04   -0.19007E-04   -0.19526E-04 10640   0.600E-04 0.423E-04
CGA:  15    -0.128325714000E+04   -0.56456E-06   -0.45252E-04 10640   0.487E-03-0.833E-04
CGA:  16    -0.128325717369E+04   -0.33690E-04   -0.44031E-04 10640   0.426E-04 0.686E-04
CGA:  17    -0.128325718274E+04   -0.90488E-05   -0.95142E-05 10640   0.325E-04 0.115E-04
CGA:  18    -0.128325719293E+04   -0.10189E-04   -0.18118E-04 10640   0.120E-03-0.388E-04
CGA:  19    -0.128325720032E+04   -0.73948E-05   -0.12425E-04 10640   0.300E-04 0.359E-04
  20 F= -.12832572E+04 E0= -.12832572E+04  d E =-.121508E-01  mag=    47.0000
       N       E                     dE             d eps       ncg     rms          ort
SDA:   1    -0.128281828270E+04    0.43891E+00    0.00000E+00 10640   0.126E+01 0.000E+00
CGA:   2    -0.128311468250E+04   -0.29640E+00   -0.29640E+00 10640   0.572E+00 0.203E-02
CGA:   3    -0.128324380437E+04   -0.12912E+00   -0.12912E+00 10640   0.124E+00-0.517E-03
CGA:   4    -0.128326266365E+04   -0.18859E-01   -0.18939E-01 10640   0.229E-01 0.111E-02
CGA:   5    -0.128326740972E+04   -0.47461E-02   -0.47187E-02 10640   0.663E-02-0.985E-03
CGA:   6    -0.128326851370E+04   -0.11040E-02   -0.11173E-02 10640   0.187E-02 0.257E-03
CGA:   7    -0.128326897776E+04   -0.46406E-03   -0.46653E-03 10640   0.615E-03-0.179E-03
CGA:   8    -0.128326911598E+04   -0.13821E-03   -0.13976E-03 10640   0.339E-03-0.644E-04
CGA:   9    -0.128326919919E+04   -0.83216E-04   -0.10478E-03 10640   0.430E-03-0.184E-03
CGA:  10    -0.128326924386E+04   -0.44670E-04   -0.48435E-04 10640   0.769E-04 0.318E-04
CGA:  11    -0.128326919085E+04    0.53016E-04   -0.77343E-04 10640   0.639E-03-0.184E-03
CGA:  12    -0.128326928108E+04   -0.90232E-04   -0.10091E-03 10640   0.130E-03 0.101E-03
CGA:  13    -0.128326932139E+04   -0.40305E-04   -0.46962E-04 10640   0.187E-03-0.125E-03
CGA:  14    -0.128326932635E+04   -0.49648E-05   -0.15171E-04 10640   0.311E-04 0.570E-04
  21 F= -.12832693E+04 E0= -.12832693E+04  d E =-.121260E-01  mag=    47.0000
       N       E                     dE             d eps       ncg     rms          ort
SDA:   1    -0.128299085268E+04    0.27847E+00    0.00000E+00 10640   0.777E+00 0.000E+00
CGA:   2    -0.128316575119E+04   -0.17490E+00   -0.17492E+00 10640   0.336E+00 0.130E-02
CGA:   3    -0.128324440700E+04   -0.78656E-01   -0.78641E-01 10640   0.746E-01-0.160E-02
CGA:   4    -0.128325577630E+04   -0.11369E-01   -0.11421E-01 10640   0.133E-01 0.630E-03
CGA:   5    -0.128325852632E+04   -0.27500E-02   -0.27367E-02 10640   0.382E-02-0.371E-03
CGA:   6    -0.128325921707E+04   -0.69075E-03   -0.69127E-03 10640   0.123E-02 0.151E-04
CGA:   7    -0.128325950927E+04   -0.29221E-03   -0.29295E-03 10640   0.446E-03-0.180E-03
CGA:   8    -0.128325957456E+04   -0.65289E-04   -0.68564E-04 10640   0.153E-03 0.613E-04
CGA:   9    -0.128325963436E+04   -0.59792E-04   -0.65598E-04 10640   0.126E-03-0.399E-04
CGA:  10    -0.128325965740E+04   -0.23049E-04   -0.54490E-04 10640   0.224E-03-0.915E-04
CGA:  11    -0.128325970406E+04   -0.46657E-04   -0.10214E-03 10640   0.763E-03-0.276E-03
CGA:  12    -0.128325974088E+04   -0.36816E-04   -0.67755E-04 10640   0.692E-04 0.176E-03
CGA:  13    -0.128325974341E+04   -0.25323E-05   -0.77698E-05 10640   0.240E-04 0.316E-04
CGA:  14    -0.128325975289E+04   -0.94808E-05   -0.10272E-04 10640   0.426E-04-0.176E-04
CGA:  15    -0.128325976513E+04   -0.12236E-04   -0.14266E-04 10640   0.506E-04-0.243E-04
CGA:  16    -0.128325976841E+04   -0.32788E-05   -0.53249E-05 10640   0.980E-05 0.137E-04
  22 F= -.12832598E+04 E0= -.12832598E+04  d E =0.955795E-02  mag=    47.0000
       N       E                     dE             d eps       ncg     rms          ort
SDA:   1    -0.128212702698E+04    0.11327E+01    0.00000E+00 10640   0.312E+01 0.000E+00
CGA:   2    -0.128285057676E+04   -0.72355E+00   -0.72355E+00 10640   0.141E+01 0.188E-03
CGA:   3    -0.128316384348E+04   -0.31327E+00   -0.31325E+00 10640   0.350E+00-0.127E-02
CGA:   4    -0.128321540145E+04   -0.51558E-01   -0.51758E-01 10640   0.618E-01 0.256E-02
CGA:   5    -0.128322757542E+04   -0.12174E-01   -0.12171E-01 10640   0.156E-01-0.134E-04
CGA:   6    -0.128323069175E+04   -0.31163E-02   -0.31229E-02 10640   0.485E-02 0.203E-03
CGA:   7    -0.128323184934E+04   -0.11576E-02   -0.11583E-02 10640   0.178E-02-0.425E-03
CGA:   8    -0.128323216338E+04   -0.31404E-03   -0.31817E-03 10640   0.700E-03 0.112E-03
CGA:   9    -0.128323238781E+04   -0.22442E-03   -0.22412E-03 10640   0.365E-03 0.462E-05
CGA:  10    -0.128323248848E+04   -0.10068E-03   -0.97898E-04 10640   0.190E-03 0.900E-04
CGA:  11    -0.128323258492E+04   -0.96435E-04   -0.11184E-03 10640   0.346E-03-0.669E-04
CGA:  12    -0.128323261388E+04   -0.28966E-04   -0.33211E-04 10640   0.261E-03 0.406E-04
CGA:  13    -0.128323265553E+04   -0.41643E-04   -0.48121E-04 10640   0.257E-03 0.805E-04
CGA:  14    -0.128323273172E+04   -0.76194E-04   -0.76750E-04 10640   0.180E-03 0.442E-04
CGA:  15    -0.128323280550E+04   -0.73781E-04   -0.79594E-04 10640   0.453E-03-0.469E-04
CGA:  16    -0.128323284423E+04   -0.38724E-04   -0.42679E-04 10640   0.358E-03 0.246E-04
CGA:  17    -0.128323286912E+04   -0.24896E-04   -0.34921E-04 10640   0.203E-03 0.637E-04
CGA:  18    -0.128323289405E+04   -0.24927E-04   -0.31090E-04 10640   0.186E-03 0.571E-04
CGA:  19    -0.128323292682E+04   -0.32767E-04   -0.33372E-04 10640   0.850E-04 0.428E-05
CGA:  20    -0.128323294438E+04   -0.17568E-04   -0.16425E-04 10640   0.886E-04-0.344E-04
CGA:  21    -0.128323294864E+04   -0.42529E-05   -0.53106E-05 10640   0.791E-04 0.800E-05
  23 F= -.12832329E+04 E0= -.12832329E+04  d E =0.268198E-01  mag=    47.0000
       N       E                     dE             d eps       ncg     rms          ort
SDA:   1    -0.126655409465E+04    0.16679E+02    0.00000E+00 10640   0.527E+02 0.000E+00
CGA:   2    -0.127691279292E+04   -0.10359E+02   -0.10358E+02 10640   0.197E+02 0.173E-01
CGA:   3    -0.128181586318E+04   -0.49031E+01   -0.49005E+01 10640   0.530E+01 0.358E-01
CGA:   4    -0.128265365130E+04   -0.83779E+00   -0.83800E+00 10640   0.798E+00 0.121E-01
CGA:   5    -0.128282050126E+04   -0.16685E+00   -0.16685E+00 10640   0.212E+00-0.235E-02
CGA:   6    -0.128286156320E+04   -0.41062E-01   -0.41085E-01 10640   0.751E-01 0.210E-02
CGA:   7    -0.128287617181E+04   -0.14609E-01   -0.14582E-01 10640   0.213E-01-0.174E-02
CGA:   8    -0.128288088232E+04   -0.47105E-02   -0.46934E-02 10640   0.795E-02 0.909E-03
CGA:   9    -0.128288346314E+04   -0.25808E-02   -0.27737E-02 10640   0.671E-02-0.149E-02
CGA:  10    -0.128288428366E+04   -0.82052E-03   -0.86878E-03 10640   0.246E-02 0.908E-03
CGA:  11    -0.128288504112E+04   -0.75746E-03   -0.75141E-03 10640   0.179E-02 0.104E-03
CGA:  12    -0.128288548945E+04   -0.44833E-03   -0.50159E-03 10640   0.256E-02-0.955E-03
CGA:  13    -0.128288565966E+04   -0.17021E-03   -0.24874E-03 10640   0.584E-03 0.667E-03
CGA:  14    -0.128288577972E+04   -0.12005E-03   -0.12972E-03 10640   0.447E-03 0.280E-03
CGA:  15    -0.128288596598E+04   -0.18626E-03   -0.22231E-03 10640   0.105E-02-0.285E-03
CGA:  16    -0.128288602899E+04   -0.63007E-04   -0.10507E-03 10640   0.312E-03 0.367E-03
CGA:  17    -0.128288609751E+04   -0.68519E-04   -0.73949E-04 10640   0.244E-03 0.159E-03
CGA:  18    -0.128288621456E+04   -0.11706E-03    0.16551E-03 10640   0.294E-03-0.107E-04
CGA:  19    -0.128288638140E+04   -0.16683E-03   -0.12024E-03 10640   0.212E-03 0.208E-03
CGA:  20    -0.128288637827E+04    0.31263E-05   -0.15369E-04 10640   0.104E-03 0.126E-03
CGA:  21    -0.128288639532E+04   -0.17050E-04   -0.19245E-04 10640   0.884E-04 0.844E-04
CGA:  22    -0.128288644229E+04   -0.46969E-04    0.35268E-04 10640   0.844E-04 0.746E-04
CGA:  23    -0.128288644792E+04   -0.56336E-05   -0.11259E-04 10640   0.758E-04 0.730E-04
CGA:  24    -0.128288648356E+04   -0.35634E-04    0.56475E-04 10640   0.724E-04 0.710E-04
CGA:  25    -0.128288649980E+04   -0.16247E-04   -0.15622E-04 10640   0.699E-04 0.663E-04
CGA:  26    -0.128288653789E+04   -0.38088E-04    0.22788E-04 10640   0.679E-04 0.614E-04
CGA:  27    -0.128288654370E+04   -0.58119E-05   -0.96853E-05 10640   0.625E-04 0.601E-04
CGA:  28    -0.128288657460E+04   -0.30898E-04    0.29838E-04 10640   0.600E-04 0.584E-04
CGA:  29    -0.128288658723E+04   -0.12628E-04   -0.12432E-04 10640   0.579E-04 0.550E-04
CGA:  30    -0.128288661958E+04   -0.32356E-04    0.15904E-04 10640   0.562E-04 0.514E-04
CGA:  31    -0.128288662480E+04   -0.52193E-05   -0.81638E-05 10640   0.521E-04 0.502E-04
CGA:  32    -0.128288665137E+04   -0.26566E-04    0.19512E-04 10640   0.501E-04 0.488E-04
CGA:  33    -0.128288666218E+04   -0.10806E-04   -0.10450E-04 10640   0.485E-04 0.460E-04
CGA:  34    -0.128288669021E+04   -0.28030E-04    0.11186E-04 10640   0.471E-04 0.432E-04
CGA:  35    -0.128288669449E+04   -0.42842E-05   -0.67441E-05 10640   0.438E-04 0.423E-04
CGA:  36    -0.128288671723E+04   -0.22740E-04    0.14053E-04 10640   0.421E-04 0.412E-04
CGA:  37    -0.128288672730E+04   -0.10074E-04   -0.92481E-05 10640   0.410E-04 0.389E-04
CGA:  38    -0.128288675215E+04   -0.24845E-04    0.78623E-05 10640   0.399E-04 0.363E-04
CGA:  39    -0.128288675526E+04   -0.31146E-05   -0.54085E-05 10640   0.369E-04 0.359E-04
CGA:  40    -0.128288677447E+04   -0.19211E-04    0.11135E-04 10640   0.355E-04 0.351E-04
CGA:  41    -0.128288678530E+04   -0.10826E-04   -0.89675E-05 10640   0.349E-04 0.329E-04
CGA:  42    -0.128288680812E+04   -0.22818E-04    0.54058E-05 10640   0.341E-04 0.302E-04
CGA:  43    -0.128288680972E+04   -0.16062E-05   -0.40598E-05 10640   0.311E-04 0.306E-04
CGA:  44    -0.128288682524E+04   -0.15511E-04    0.10874E-04 10640   0.299E-04 0.300E-04
CGA:  45    -0.128288684273E+04   -0.17496E-04   -0.11867E-04 10640   0.299E-04 0.276E-04
CGA:  46    -0.128288686600E+04   -0.23267E-04    0.34222E-05 10640   0.301E-04 0.234E-04
CGA:  47    -0.128288686536E+04    0.64278E-06   -0.25334E-05 10640   0.257E-04 0.262E-04
CGA:  48    -0.128288692569E+04   -0.60338E-04   -0.21264E-03 10640   0.247E-04 0.219E-04
CGA:  49    -0.128288696647E+04   -0.40775E-04    0.35262E-05 10640   0.638E-04 0.305E-05
CGA:  50    -0.128288712051E+04   -0.15404E-03   -0.11910E-03 10640   0.643E-04 0.205E-04
CGA:  51    -0.128288721133E+04   -0.90817E-04    0.72872E-04 10640   0.585E-03-0.148E-03
CGA:  52    -0.128288720467E+04    0.66581E-05   -0.41554E-04 10640   0.339E-04 0.137E-03
  24 F= -.12828872E+04 E0= -.12828872E+04  d E =0.345744E+00  mag=    47.0000
       N       E                     dE             d eps       ncg     rms          ort
SDA:   1    -0.127666970972E+04    0.62175E+01    0.00000E+00 10640   0.216E+02 0.000E+00
CGA:   2    -0.128079308241E+04   -0.41234E+01   -0.41195E+01 10640   0.787E+01 0.305E-01
CGA:   3    -0.128275136685E+04   -0.19583E+01   -0.19599E+01 10640   0.240E+01 0.183E-02
CGA:   4    -0.128311645290E+04   -0.36509E+00   -0.36557E+00 10640   0.352E+00 0.720E-02
CGA:   5    -0.128318605701E+04   -0.69604E-01   -0.69758E-01 10640   0.995E-01 0.164E-02
CGA:   6    -0.128320534125E+04   -0.19284E-01   -0.19273E-01 10640   0.313E-01-0.998E-04
CGA:   7    -0.128321160727E+04   -0.62660E-02   -0.63029E-02 10640   0.813E-02 0.332E-03
CGA:   8    -0.128321378281E+04   -0.21755E-02   -0.21148E-02 10640   0.424E-02-0.729E-03
CGA:   9    -0.128321453740E+04   -0.75459E-03   -0.79171E-03 10640   0.164E-02 0.294E-03
CGA:  10    -0.128321510127E+04   -0.56387E-03   -0.56212E-03 10640   0.965E-03-0.187E-03
CGA:  11    -0.128321526403E+04   -0.16276E-03   -0.18084E-03 10640   0.407E-03 0.155E-03
CGA:  12    -0.128321544586E+04   -0.18184E-03   -0.22538E-03 10640   0.736E-03-0.283E-03
CGA:  13    -0.128321551504E+04   -0.69170E-04   -0.10161E-03 10640   0.168E-03 0.169E-03
CGA:  14    -0.128321557865E+04   -0.63617E-04   -0.62808E-04 10640   0.163E-03-0.480E-04
CGA:  15    -0.128321559672E+04   -0.18067E-04   -0.24373E-04 10640   0.157E-03 0.563E-04
CGA:  16    -0.128321563721E+04   -0.40487E-04   -0.47243E-04 10640   0.930E-04 0.738E-04
CGA:  17    -0.128321564119E+04   -0.39803E-05   -0.11038E-03 10640   0.111E-02-0.217E-03
CGA:  18    -0.128321568974E+04   -0.48557E-04   -0.10809E-03 10640   0.182E-03 0.255E-03
CGA:  19    -0.128321571336E+04   -0.23620E-04   -0.34719E-04 10640   0.763E-04 0.659E-04
CGA:  20    -0.128321573882E+04   -0.25457E-04   -0.43930E-04 10640   0.392E-03-0.170E-03
CGA:  21    -0.128321574050E+04   -0.16770E-05   -0.32199E-04 10640   0.745E-04 0.129E-03
  25 F= -.12832157E+04 E0= -.12832157E+04  d E =-.328536E+00  mag=    47.0000
       N       E                     dE             d eps       ncg     rms          ort
SDA:   1    -0.128243527228E+04    0.78047E+00    0.00000E+00 10640   0.258E+01 0.000E+00
CGA:   2    -0.128294518865E+04   -0.50992E+00   -0.50989E+00 10640   0.970E+00 0.929E-03
CGA:   3    -0.128318708621E+04   -0.24190E+00   -0.24188E+00 10640   0.266E+00-0.102E-02
CGA:   4    -0.128322789371E+04   -0.40808E-01   -0.40924E-01 10640   0.406E-01 0.991E-03
CGA:   5    -0.128323606227E+04   -0.81686E-02   -0.81844E-02 10640   0.112E-01 0.218E-03
CGA:   6    -0.128323822057E+04   -0.21583E-02   -0.21577E-02 10640   0.376E-02 0.543E-05
CGA:   7    -0.128323895334E+04   -0.73277E-03   -0.73585E-03 10640   0.968E-03 0.445E-04
CGA:   8    -0.128323925426E+04   -0.30092E-03   -0.31673E-03 10640   0.811E-03-0.301E-03
CGA:   9    -0.128323932133E+04   -0.67070E-04   -0.81485E-04 10640   0.319E-03 0.114E-03
CGA:  10    -0.128323937442E+04   -0.53095E-04   -0.60729E-04 10640   0.184E-03 0.759E-04
CGA:  11    -0.128323943647E+04   -0.62046E-04   -0.63994E-04 10640   0.230E-03-0.102E-03
CGA:  12    -0.128323945239E+04   -0.15921E-04   -0.25454E-04 10640   0.560E-04 0.629E-04
CGA:  13    -0.128323947490E+04   -0.22512E-04   -0.24575E-04 10640   0.680E-04-0.233E-04
CGA:  14    -0.128323950171E+04   -0.26806E-04    0.17428E-04 10640   0.111E-03-0.113E-04
CGA:  15    -0.128323953109E+04   -0.29377E-04   -0.30030E-04 10640   0.103E-03-0.117E-04
CGA:  16    -0.128323953310E+04   -0.20179E-05   -0.96394E-05 10640   0.696E-04 0.476E-04
CGA:  17    -0.128323953982E+04   -0.67163E-05   -0.13065E-04 10640   0.446E-04 0.495E-04
CGA:  18    -0.128323956967E+04   -0.29850E-04    0.16188E-04 10640   0.425E-04-0.163E-06
CGA:  19    -0.128323956952E+04    0.15243E-06   -0.40458E-05 10640   0.200E-04 0.273E-04
  26 F= -.12832396E+04 E0= -.12832396E+04  d E =-.238290E-01  mag=    47.0000
       N       E                     dE             d eps       ncg     rms          ort
SDA:   1    -0.128312296493E+04    0.11660E+00    0.00000E+00 10640   0.389E+00 0.000E+00
CGA:   2    -0.128320108844E+04   -0.78124E-01   -0.78107E-01 10640   0.148E+00-0.419E-03
CGA:   3    -0.128323793647E+04   -0.36848E-01   -0.36846E-01 10640   0.378E-01 0.304E-04
CGA:   4    -0.128324408700E+04   -0.61505E-02   -0.60773E-02 10640   0.635E-02-0.105E-02
CGA:   5    -0.128324521399E+04   -0.11270E-02   -0.11430E-02 10640   0.147E-02 0.385E-03
CGA:   6    -0.128324562053E+04   -0.40654E-03   -0.43867E-03 10640   0.121E-02-0.565E-03
CGA:   7    -0.128324568297E+04   -0.62434E-04   -0.79306E-04 10640   0.429E-03 0.140E-03
CGA:   8    -0.128324570544E+04   -0.22475E-04   -0.40104E-04 10640   0.175E-03 0.128E-03
CGA:   9    -0.128324573938E+04   -0.33943E-04   -0.34614E-04 10640   0.106E-03 0.108E-04
CGA:  10    -0.128324579206E+04   -0.52680E-04    0.11472E-03 10640   0.129E-03-0.697E-04
CGA:  11    -0.128324579622E+04   -0.41513E-05   -0.11094E-04 10640   0.351E-04 0.553E-04
  27 F= -.12832458E+04 E0= -.12832458E+04  d E =-.622670E-02  mag=    47.0000
       N       E                     dE             d eps       ncg     rms          ort
SDA:   1    -0.128260801347E+04    0.63778E+00    0.00000E+00 10640   0.197E+01 0.000E+00
CGA:   2    -0.128301222254E+04   -0.40421E+00   -0.40420E+00 10640   0.790E+00 0.320E-02
CGA:   3    -0.128319927483E+04   -0.18705E+00   -0.18716E+00 10640   0.228E+00-0.348E-02
CGA:   4    -0.128323267682E+04   -0.33402E-01   -0.33406E-01 10640   0.373E-01 0.249E-03
CGA:   5    -0.128323995511E+04   -0.72783E-02   -0.72730E-02 10640   0.102E-01-0.818E-03
CGA:   6    -0.128324187445E+04   -0.19193E-02   -0.19189E-02 10640   0.297E-02-0.442E-04
CGA:   7    -0.128324257671E+04   -0.70226E-03   -0.71482E-03 10640   0.999E-03-0.303E-03
CGA:   8    -0.128324274330E+04   -0.16659E-03   -0.16758E-03 10640   0.368E-03 0.643E-04
CGA:   9    -0.128324281564E+04   -0.72337E-04   -0.22287E-03 10640   0.109E-02-0.409E-03
CGA:  10    -0.128324294159E+04   -0.12595E-03   -0.13560E-03 10640   0.211E-03 0.103E-03
CGA:  11    -0.128324296130E+04   -0.19712E-04   -0.11477E-03 10640   0.699E-03-0.338E-03
CGA:  12    -0.128324303445E+04   -0.73147E-04   -0.84993E-04 10640   0.129E-03 0.111E-03
CGA:  13    -0.128324306896E+04   -0.34519E-04   -0.34731E-04 10640   0.311E-04-0.267E-04
CGA:  14    -0.128324308248E+04   -0.13515E-04    0.12693E-04 10640   0.177E-04 0.139E-04
CGA:  15    -0.128324310005E+04   -0.17565E-04    0.54547E-05 10640   0.129E-04 0.144E-04
CGA:  16    -0.128324311074E+04   -0.10695E-04    0.17115E-05 10640   0.931E-05 0.857E-05
CGA:  17    -0.128324311546E+04   -0.47234E-05    0.79984E-05 10640   0.919E-05 0.720E-05
  28 F= -.12832431E+04 E0= -.12832431E+04  d E =0.268075E-02  mag=    47.0000
       N       E                     dE             d eps       ncg     rms          ort
SDA:   1    -0.128316600061E+04    0.77110E-01    0.00000E+00 10640   0.225E+00 0.000E+00
CGA:   2    -0.128321373181E+04   -0.47731E-01   -0.47731E-01 10640   0.920E-01 0.787E-05
CGA:   3    -0.128323549125E+04   -0.21759E-01   -0.21755E-01 10640   0.228E-01 0.290E-03
CGA:   4    -0.128323915954E+04   -0.36683E-02   -0.36359E-02 10640   0.429E-02-0.480E-03
CGA:   5    -0.128323990160E+04   -0.74206E-03   -0.75034E-03 10640   0.103E-02 0.199E-03
CGA:   6    -0.128324016084E+04   -0.25924E-03   -0.26611E-03 10640   0.574E-03-0.243E-03
CGA:   7    -0.128324021244E+04   -0.51601E-04   -0.59089E-04 10640   0.150E-03 0.879E-04
CGA:   8    -0.128324023166E+04   -0.19215E-04   -0.23058E-04 10640   0.699E-04 0.464E-04
CGA:   9    -0.128324025510E+04   -0.23445E-04   -0.29838E-04 10640   0.116E-03-0.562E-04
CGA:  10    -0.128324026510E+04   -0.99976E-05   -0.13435E-04 10640   0.268E-04 0.339E-04
  29 F= -.12832403E+04 E0= -.12832403E+04  d E =0.285036E-02  mag=    47.0000
       N       E                     dE             d eps       ncg     rms          ort
SDA:   1    -0.128303428139E+04    0.20597E+00    0.00000E+00 10640   0.578E+00 0.000E+00
CGA:   2    -0.128316599152E+04   -0.13171E+00   -0.13170E+00 10640   0.256E+00 0.130E-02
CGA:   3    -0.128322302814E+04   -0.57037E-01   -0.57040E-01 10640   0.631E-01-0.531E-03
CGA:   4    -0.128323240708E+04   -0.93789E-02   -0.93897E-02 10640   0.118E-01 0.221E-03
CGA:   5    -0.128323476638E+04   -0.23593E-02   -0.23531E-02 10640   0.317E-02-0.400E-03
CGA:   6    -0.128323529904E+04   -0.53267E-03   -0.53942E-03 10640   0.820E-03 0.190E-03
CGA:   7    -0.128323551551E+04   -0.21646E-03   -0.21797E-03 10640   0.271E-03-0.369E-04
CGA:   8    -0.128323554949E+04   -0.33978E-04   -0.39770E-04 10640   0.996E-04 0.980E-04
CGA:   9    -0.128323558216E+04   -0.32673E-04   -0.31893E-04 10640   0.546E-04 0.305E-04
CGA:  10    -0.128323560559E+04   -0.23427E-04   -0.24086E-04 10640   0.778E-04-0.529E-05
CGA:  11    -0.128323560558E+04    0.36307E-08   -0.55802E-05 10640   0.511E-04 0.404E-04
  30 F= -.12832356E+04 E0= -.12832356E+04  d E =0.465952E-02  mag=    47.0000
       N       E                     dE             d eps       ncg     rms          ort
SDA:   1    -0.128294601394E+04    0.28959E+00    0.00000E+00 10640   0.781E+00 0.000E+00
CGA:   2    -0.128313106043E+04   -0.18505E+00   -0.18503E+00 10640   0.366E+00 0.520E-03
CGA:   3    -0.128320681967E+04   -0.75759E-01   -0.75757E-01 10640   0.921E-01 0.168E-02
CGA:   4    -0.128322084385E+04   -0.14024E-01   -0.13935E-01 10640   0.177E-01-0.152E-02
CGA:   5    -0.128322417645E+04   -0.33326E-02   -0.33344E-02 10640   0.396E-02 0.172E-03
CGA:   6    -0.128322504012E+04   -0.86366E-03   -0.86744E-03 10640   0.136E-02-0.261E-03
CGA:   7    -0.128322523831E+04   -0.19819E-03   -0.20757E-03 10640   0.327E-03 0.238E-03
CGA:   8    -0.128322532328E+04   -0.84969E-04   -0.83867E-04 10640   0.121E-03 0.635E-04
CGA:   9    -0.128322537357E+04   -0.50294E-04   -0.50239E-04 10640   0.899E-04 0.343E-06
CGA:  10    -0.128322538113E+04   -0.75628E-05   -0.11338E-04 10640   0.464E-04 0.451E-04
CGA:  11    -0.128322539339E+04   -0.12259E-04   -0.11647E-04 10640   0.169E-04 0.134E-04
CGA:  12    -0.128322539642E+04   -0.30264E-05   -0.36150E-05 10640   0.113E-04 0.143E-04
  31 F= -.12832254E+04 E0= -.12832254E+04  d E =0.102092E-01  mag=    47.0000
       N       E                     dE             d eps       ncg     rms          ort
SDA:   1    -0.127743215860E+04    0.57932E+01    0.00000E+00 10640   0.180E+02 0.000E+00
CGA:   2    -0.128101018189E+04   -0.35780E+01   -0.35780E+01 10640   0.696E+01 0.341E-02
CGA:   3    -0.128268723126E+04   -0.16770E+01   -0.16764E+01 10640   0.203E+01 0.804E-02
CGA:   4    -0.128299095786E+04   -0.30373E+00   -0.30401E+00 10640   0.323E+00 0.131E-01
CGA:   5    -0.128305422797E+04   -0.63270E-01   -0.63266E-01 10640   0.920E-01-0.726E-03
CGA:   6    -0.128307082952E+04   -0.16602E-01   -0.16651E-01 10640   0.254E-01 0.280E-02
CGA:   7    -0.128307687731E+04   -0.60478E-02   -0.60951E-02 10640   0.799E-02-0.136E-02
CGA:   8    -0.128307842699E+04   -0.15497E-02   -0.15484E-02 10640   0.311E-02 0.347E-03
CGA:   9    -0.128307924917E+04   -0.82218E-03   -0.81872E-03 10640   0.143E-02 0.721E-04
CGA:  10    -0.128307953051E+04   -0.28134E-03   -0.28522E-03 10640   0.528E-03 0.443E-03
CGA:  11    -0.128307970028E+04   -0.16977E-03   -0.16204E-03 10640   0.233E-03 0.248E-03
CGA:  12    -0.128307977700E+04   -0.76719E-04   -0.74437E-04 10640   0.152E-03 0.175E-03
CGA:  13    -0.128307980109E+04   -0.24082E-04   -0.26787E-04 10640   0.106E-03 0.911E-04
CGA:  14    -0.128307983587E+04   -0.34780E-04   -0.30403E-04 10640   0.138E-03 0.530E-04
CGA:  15    -0.128307986492E+04   -0.29058E-04   -0.35295E-04 10640   0.708E-04 0.166E-03
CGA:  16    -0.128307987333E+04   -0.84052E-05   -0.11264E-04 10640   0.635E-04 0.606E-04
CGA:  17    -0.128307988874E+04   -0.15410E-04   -0.14251E-04 10640   0.609E-04 0.563E-04
CGA:  18    -0.128307989501E+04   -0.62746E-05   -0.91762E-05 10640   0.559E-04 0.535E-04
CGA:  19    -0.128307991175E+04   -0.16736E-04   -0.14159E-04 10640   0.546E-04 0.503E-04
CGA:  20    -0.128307991607E+04   -0.43240E-05   -0.75307E-05 10640   0.496E-04 0.479E-04
CGA:  21    -0.128307993313E+04   -0.17059E-04   -0.13677E-04 10640   0.483E-04 0.454E-04
CGA:  22    -0.128307993644E+04   -0.33112E-05   -0.64310E-05 10640   0.442E-04 0.432E-04
CGA:  23    -0.128307995320E+04   -0.16758E-04   -0.12976E-04 10640   0.428E-04 0.409E-04
CGA:  24    -0.128307995598E+04   -0.27785E-05   -0.56565E-05 10640   0.395E-04 0.389E-04
CGA:  25    -0.128307997263E+04   -0.16650E-04   -0.12472E-04 10640   0.382E-04 0.367E-04
CGA:  26    -0.128307997479E+04   -0.21589E-05   -0.49227E-05 10640   0.353E-04 0.348E-04
CGA:  27    -0.128307999130E+04   -0.16516E-04   -0.12016E-04 10640   0.342E-04 0.328E-04
CGA:  28    -0.128307999292E+04   -0.16156E-05   -0.42811E-05 10640   0.315E-04 0.311E-04
CGA:  29    -0.128308000931E+04   -0.16393E-04   -0.11615E-04 10640   0.305E-04 0.292E-04
CGA:  30    -0.128308001044E+04   -0.11245E-05   -0.37071E-05 10640   0.280E-04 0.276E-04
CGA:  31    -0.128308002659E+04   -0.16155E-04   -0.11191E-04 10640   0.271E-04 0.260E-04
CGA:  32    -0.128308002733E+04   -0.73874E-06   -0.32167E-05 10640   0.248E-04 0.245E-04
CGA:  33    -0.128308004334E+04   -0.16004E-04   -0.10845E-04 10640   0.241E-04 0.229E-04
CGA:  34    -0.128308004368E+04   -0.34858E-06   -0.27532E-05 10640   0.218E-04 0.216E-04
CGA:  35    -0.128308005899E+04   -0.15311E-04   -0.10234E-04 10640   0.210E-04 0.202E-04
CGA:  36    -0.128308005920E+04   -0.20918E-06   -0.24252E-05 10640   0.191E-04 0.189E-04
CGA:  37    -0.128308007552E+04   -0.16319E-04   -0.10571E-04 10640   0.190E-04 0.174E-04
CGA:  38    -0.128308007501E+04    0.50814E-06   -0.18697E-05 10640   0.164E-04 0.164E-04
  32 F= -.12830801E+04 E0= -.12830801E+04  d E =0.145321E+00  mag=    47.0000
       N       E                     dE             d eps       ncg     rms          ort
SDA:   1    -0.127221257084E+04    0.10868E+02    0.00000E+00 10640   0.368E+02 0.000E+00
CGA:   2    -0.127908710795E+04   -0.68745E+01   -0.68708E+01 10640   0.129E+02 0.764E-02
CGA:   3    -0.128235341415E+04   -0.32663E+01   -0.32658E+01 10640   0.395E+01 0.240E-01
CGA:   4    -0.128296395498E+04   -0.61054E+00   -0.61027E+00 10640   0.571E+00 0.588E-02
CGA:   5    -0.128307819888E+04   -0.11424E+00   -0.11427E+00 10640   0.166E+00 0.107E-02
CGA:   6    -0.128311019065E+04   -0.31992E-01   -0.31877E-01 10640   0.545E-01-0.254E-02
CGA:   7    -0.128312058717E+04   -0.10397E-01   -0.10431E-01 10640   0.129E-01 0.957E-03
CGA:   8    -0.128312390449E+04   -0.33173E-02   -0.33266E-02 10640   0.567E-02-0.414E-03
CGA:   9    -0.128312531737E+04   -0.14129E-02   -0.14203E-02 10640   0.320E-02-0.277E-03
CGA:  10    -0.128312610202E+04   -0.78465E-03   -0.79822E-03 10640   0.186E-02-0.478E-03
CGA:  11    -0.128312656292E+04   -0.46090E-03   -0.53092E-03 10640   0.160E-02-0.696E-03
CGA:  12    -0.128312681471E+04   -0.25179E-03   -0.26104E-03 10640   0.102E-02-0.455E-03
CGA:  13    -0.128312706054E+04   -0.24583E-03   -0.29679E-03 10640   0.879E-03-0.309E-03
CGA:  14    -0.128312725325E+04   -0.19270E-03   -0.22007E-03 10640   0.110E-02-0.253E-03
CGA:  15    -0.128312744866E+04   -0.19541E-03   -0.19514E-03 10640   0.465E-03-0.431E-04
CGA:  16    -0.128312761661E+04   -0.16796E-03   -0.16664E-03 10640   0.256E-03 0.777E-05
CGA:  17    -0.128312766408E+04   -0.47463E-04   -0.51415E-04 10640   0.111E-03 0.613E-04
CGA:  18    -0.128312768988E+04   -0.25803E-04   -0.28808E-04 10640   0.580E-04 0.616E-04
CGA:  19    -0.128312769240E+04   -0.25201E-05   -0.71875E-05 10640   0.318E-04 0.355E-04
  33 F= -.12831277E+04 E0= -.12831277E+04  d E =-.476174E-01  mag=    47.0000
       N       E                     dE             d eps       ncg     rms          ort
SDA:   1    -0.128172871437E+04    0.13990E+01    0.00000E+00 10640   0.495E+01 0.000E+00
CGA:   2    -0.128265268346E+04   -0.92397E+00   -0.92395E+00 10640   0.175E+01 0.259E-02
CGA:   3    -0.128309152376E+04   -0.43884E+00   -0.43884E+00 10640   0.573E+00-0.174E-02
CGA:   4    -0.128317672687E+04   -0.85203E-01   -0.85406E-01 10640   0.816E-01 0.320E-02
CGA:   5    -0.128319275914E+04   -0.16032E-01   -0.16017E-01 10640   0.240E-01-0.327E-03
CGA:   6    -0.128319709083E+04   -0.43317E-02   -0.43849E-02 10640   0.651E-02 0.109E-02
CGA:   7    -0.128319865104E+04   -0.15602E-02   -0.15596E-02 10640   0.189E-02-0.234E-03
CGA:   8    -0.128319903563E+04   -0.38460E-03   -0.38613E-03 10640   0.751E-03 0.797E-04
CGA:   9    -0.128319922203E+04   -0.18640E-03   -0.18611E-03 10640   0.334E-03 0.383E-04
CGA:  10    -0.128319929173E+04   -0.69703E-04   -0.72068E-04 10640   0.117E-03 0.928E-04
CGA:  11    -0.128319931619E+04   -0.24462E-04   -0.27729E-04 10640   0.495E-04 0.752E-04
CGA:  12    -0.128319933130E+04   -0.15113E-04   -0.13813E-04 10640   0.285E-04 0.251E-04
CGA:  13    -0.128319933335E+04   -0.20422E-05   -0.39514E-05 10640   0.215E-04 0.210E-04
  34 F= -.12831993E+04 E0= -.12831993E+04  d E =-.716409E-01  mag=    47.0000
       N       E                     dE             d eps       ncg     rms          ort
SDA:   1    -0.128312657488E+04    0.72756E-01    0.00000E+00 10640   0.229E+00 0.000E+00
CGA:   2    -0.128317127347E+04   -0.44699E-01   -0.44716E-01 10640   0.849E-01 0.710E-03
CGA:   3    -0.128319273983E+04   -0.21466E-01   -0.21500E-01 10640   0.248E-01-0.116E-02
CGA:   4    -0.128319642829E+04   -0.36885E-02   -0.37043E-02 10640   0.362E-02 0.234E-03
CGA:   5    -0.128319721810E+04   -0.78981E-03   -0.78908E-03 10640   0.114E-02-0.183E-03
CGA:   6    -0.128319734851E+04   -0.13042E-03   -0.15109E-03 10640   0.285E-03 0.261E-03
CGA:   7    -0.128319741792E+04   -0.69405E-04   -0.70088E-04 10640   0.982E-04 0.434E-04
CGA:   8    -0.128319744789E+04   -0.29975E-04   -0.42990E-04 10640   0.224E-03-0.789E-04
CGA:   9    -0.128319745022E+04   -0.23218E-05   -0.15798E-04 10640   0.480E-04 0.887E-04
  35 F= -.12831975E+04 E0= -.12831974E+04  d E =0.188313E-02  mag=    47.0000
       N       E                     dE             d eps       ncg     rms          ort
SDA:   1    -0.128271234736E+04    0.48510E+00    0.00000E+00 10640   0.136E+01 0.000E+00
CGA:   2    -0.128300547520E+04   -0.29313E+00   -0.29311E+00 10640   0.558E+00 0.304E-02
CGA:   3    -0.128313728253E+04   -0.13181E+00   -0.13188E+00 10640   0.136E+00-0.273E-02
CGA:   4    -0.128315852646E+04   -0.21244E-01   -0.21301E-01 10640   0.233E-01 0.122E-02
CGA:   5    -0.128316343521E+04   -0.49088E-02   -0.49103E-02 10640   0.640E-02-0.782E-03
CGA:   6    -0.128316440964E+04   -0.97442E-03   -0.10083E-02 10640   0.174E-02 0.778E-03
CGA:   7    -0.128316488547E+04   -0.47583E-03   -0.48312E-03 10640   0.620E-03-0.169E-03
CGA:   8    -0.128316498124E+04   -0.95773E-04   -0.10001E-03 10640   0.217E-03 0.150E-03
CGA:   9    -0.128316502961E+04   -0.48365E-04   -0.50083E-04 10640   0.873E-04 0.861E-04
CGA:  10    -0.128316507063E+04   -0.41021E-04   -0.42882E-04 10640   0.911E-04-0.127E-04
CGA:  11    -0.128316507062E+04    0.68139E-08   -0.61639E-05 10640   0.627E-04 0.464E-04
  36 F= -.12831651E+04 E0= -.12831651E+04  d E =0.323796E-01  mag=    47.0000
       N       E                     dE             d eps       ncg     rms          ort
SDA:   1    -0.128260427692E+04    0.56079E+00    0.00000E+00 10640   0.135E+01 0.000E+00
CGA:   2    -0.128295868023E+04   -0.35440E+00   -0.35443E+00 10640   0.612E+00-0.357E-03
CGA:   3    -0.128308777980E+04   -0.12910E+00   -0.12909E+00 10640   0.120E+00 0.151E-02
CGA:   4    -0.128310781735E+04   -0.20038E-01   -0.20113E-01 10640   0.235E-01 0.216E-02
CGA:   5    -0.128311264942E+04   -0.48321E-02   -0.48324E-02 10640   0.582E-02-0.493E-03
CGA:   6    -0.128311381004E+04   -0.11606E-02   -0.11606E-02 10640   0.210E-02 0.219E-04
CGA:   7    -0.128311422118E+04   -0.41114E-03   -0.41100E-03 10640   0.606E-03-0.174E-04
CGA:   8    -0.128311437800E+04   -0.15682E-03   -0.15899E-03 10640   0.328E-03-0.337E-04
CGA:   9    -0.128311441379E+04   -0.35793E-04   -0.43917E-04 10640   0.120E-03 0.130E-03
CGA:  10    -0.128311444155E+04   -0.27762E-04   -0.29330E-04 10640   0.719E-04 0.608E-04
CGA:  11    -0.128311442438E+04    0.17179E-04   -0.45412E-04 10640   0.916E-03-0.145E-03
CGA:  12    -0.128311447610E+04   -0.51723E-04   -0.72603E-04 10640   0.437E-04 0.149E-03
CGA:  13    -0.128311447474E+04    0.13541E-05   -0.30604E-05 10640   0.219E-04 0.286E-04
  37 F= -.12831145E+04 E0= -.12831145E+04  d E =0.505959E-01  mag=    47.0000
       N       E                     dE             d eps       ncg     rms          ort
SDA:   1    -0.127153140819E+04    0.11583E+02    0.00000E+00 10640   0.378E+02 0.000E+00
CGA:   2    -0.127864609412E+04   -0.71147E+01   -0.71133E+01 10640   0.135E+02-0.139E-01
CGA:   3    -0.128202663127E+04   -0.33805E+01   -0.33777E+01 10640   0.412E+01 0.383E-01
CGA:   4    -0.128265983771E+04   -0.63321E+00   -0.63283E+00 10640   0.616E+00 0.655E-02
CGA:   5    -0.128278158668E+04   -0.12175E+00   -0.12174E+00 10640   0.180E+00-0.174E-02
CGA:   6    -0.128281579133E+04   -0.34205E-01   -0.34174E-01 10640   0.558E-01-0.263E-02
CGA:   7    -0.128282683429E+04   -0.11043E-01   -0.11043E-01 10640   0.136E-01 0.581E-03
CGA:   8    -0.128283019664E+04   -0.33623E-02   -0.33748E-02 10640   0.596E-02-0.262E-03
CGA:   9    -0.128283164162E+04   -0.14450E-02   -0.14527E-02 10640   0.317E-02-0.160E-03
CGA:  10    -0.128283247512E+04   -0.83350E-03   -0.88506E-03 10640   0.211E-02-0.625E-03
CGA:  11    -0.128283287758E+04   -0.40246E-03   -0.67030E-03 10640   0.325E-02-0.144E-02
CGA:  12    -0.128283320032E+04   -0.32274E-03   -0.35369E-03 10640   0.609E-03 0.293E-03
CGA:  13    -0.128283338949E+04   -0.18917E-03   -0.18038E-03 10640   0.263E-03 0.150E-03
CGA:  14    -0.128283340982E+04   -0.20329E-04   -0.22125E-03 10640   0.268E-02-0.439E-03
CGA:  15    -0.128283362340E+04   -0.21357E-03   -0.24994E-03 10640   0.204E-03 0.261E-03
CGA:  16    -0.128283367554E+04   -0.52145E-04   -0.52121E-04 10640   0.166E-03 0.603E-04
CGA:  17    -0.128283268960E+04    0.98594E-03   -0.53131E-03 10640   0.885E-02-0.104E-02
CGA:  18    -0.128283356826E+04   -0.87866E-03   -0.98793E-03 10640   0.140E-02 0.422E-03
CGA:  19    -0.128283397058E+04   -0.40232E-03   -0.42086E-03 10640   0.228E-03 0.153E-03
CGA:  20    -0.128283407186E+04   -0.10128E-03   -0.85709E-04 10640   0.603E-03-0.251E-03
CGA:  21    -0.128283407866E+04   -0.68024E-05   -0.51460E-04 10640   0.599E-04 0.145E-03
  38 F= -.12828341E+04 E0= -.12828341E+04  d E =0.280396E+00  mag=    47.0000
       N       E                     dE             d eps       ncg     rms          ort
SDA:   1    -0.127761413234E+04    0.52199E+01    0.00000E+00 10640   0.184E+02 0.000E+00
CGA:   2    -0.128107307214E+04   -0.34589E+01   -0.34566E+01 10640   0.655E+01 0.150E-01
CGA:   3    -0.128270637872E+04   -0.16333E+01   -0.16350E+01 10640   0.211E+01 0.172E-02
CGA:   4    -0.128302142696E+04   -0.31505E+00   -0.31512E+00 10640   0.307E+00 0.123E-01
CGA:   5    -0.128308149885E+04   -0.60072E-01   -0.60171E-01 10640   0.881E-01 0.731E-03
CGA:   6    -0.128309813535E+04   -0.16636E-01   -0.16848E-01 10640   0.254E-01 0.162E-02
CGA:   7    -0.128310378625E+04   -0.56509E-02   -0.56019E-02 10640   0.703E-02-0.415E-03
CGA:   8    -0.128310531806E+04   -0.15318E-02   -0.15297E-02 10640   0.299E-02-0.828E-05
CGA:   9    -0.128310603131E+04   -0.71324E-03   -0.71331E-03 10640   0.136E-02 0.579E-05
CGA:  10    -0.128310629650E+04   -0.26520E-03   -0.29020E-03 10640   0.457E-03 0.250E-03
CGA:  11    -0.128310639139E+04   -0.94891E-04   -0.11492E-03 10640   0.162E-03 0.209E-03
CGA:  12    -0.128310644243E+04   -0.51040E-04   -0.57280E-04 10640   0.856E-04 0.103E-03
CGA:  13    -0.128310645766E+04   -0.15231E-04   -0.19067E-04 10640   0.575E-04 0.494E-04
CGA:  14    -0.128310646890E+04   -0.11235E-04   -0.13308E-04 10640   0.590E-04 0.317E-04
CGA:  15    -0.128310646819E+04    0.70837E-06   -0.61730E-05 10640   0.383E-04 0.365E-04
  39 F= -.12831065E+04 E0= -.12831065E+04  d E =-.272390E+00  mag=    47.0000
       N       E                     dE             d eps       ncg     rms          ort
SDA:   1    -0.128251631990E+04    0.59015E+00    0.00000E+00 10640   0.198E+01 0.000E+00
CGA:   2    -0.128288806050E+04   -0.37174E+00   -0.37170E+00 10640   0.707E+00 0.321E-03
CGA:   3    -0.128306439345E+04   -0.17633E+00   -0.17631E+00 10640   0.233E+00-0.157E-02
CGA:   4    -0.128309832559E+04   -0.33932E-01   -0.34135E-01 10640   0.335E-01 0.203E-02
CGA:   5    -0.128310487144E+04   -0.65459E-02   -0.65489E-02 10640   0.966E-02 0.613E-04
CGA:   6    -0.128310652644E+04   -0.16550E-02   -0.17275E-02 10640   0.248E-02 0.875E-03
CGA:   7    -0.128310720961E+04   -0.68317E-03   -0.68205E-03 10640   0.846E-03-0.183E-03
CGA:   8    -0.128310735634E+04   -0.14673E-03   -0.15309E-03 10640   0.325E-03 0.102E-03
CGA:   9    -0.128310744331E+04   -0.86973E-04   -0.87739E-04 10640   0.149E-03 0.533E-04
CGA:  10    -0.128310746758E+04   -0.24273E-04   -0.31073E-04 10640   0.717E-04 0.905E-04
CGA:  11    -0.128310747156E+04   -0.39788E-05   -0.99266E-05 10640   0.443E-04 0.530E-04
  40 F= -.12831075E+04 E0= -.12831075E+04  d E =-.100337E-02  mag=    47.0000
       N       E                     dE             d eps       ncg     rms          ort
SDA:   1    -0.128307870216E+04    0.28765E-01    0.00000E+00 10640   0.910E-01 0.000E+00
CGA:   2    -0.128309597925E+04   -0.17277E-01   -0.17289E-01 10640   0.325E-01 0.257E-03
CGA:   3    -0.128310434433E+04   -0.83651E-02   -0.83717E-02 10640   0.103E-01-0.406E-03
CGA:   4    -0.128310600558E+04   -0.16613E-02   -0.16120E-02 10640   0.175E-02-0.597E-03
CGA:   5    -0.128310626672E+04   -0.26114E-03   -0.27163E-03 10640   0.402E-03 0.148E-03
CGA:   6    -0.128310638668E+04   -0.11995E-03   -0.13453E-03 10640   0.372E-03-0.191E-03
CGA:   7    -0.128310639693E+04   -0.10259E-04   -0.18215E-04 10640   0.184E-03 0.556E-04
CGA:   8    -0.128310640269E+04   -0.57561E-05   -0.15916E-04 10640   0.719E-04 0.659E-04
CGA:   9    -0.128310641128E+04   -0.85865E-05   -0.11117E-04 10640   0.449E-04 0.234E-04
CGA:  10    -0.128310629700E+04    0.11428E-03   -0.49449E-04 10640   0.107E-02-0.266E-03
CGA:  11    -0.128310640360E+04   -0.10659E-03   -0.12749E-03 10640   0.225E-03 0.166E-03
CGA:  12    -0.128310647398E+04   -0.70384E-04   -0.74695E-04 10640   0.631E-04-0.923E-04
CGA:  13    -0.128310645231E+04    0.21668E-04   -0.35627E-04 10640   0.308E-03-0.803E-04
CGA:  14    -0.128310647669E+04   -0.24382E-04   -0.37628E-04 10640   0.574E-04 0.850E-04
CGA:  15    -0.128310648690E+04   -0.10211E-04   -0.11946E-04 10640   0.149E-04 0.161E-04
CGA:  16    -0.128310650318E+04   -0.16273E-04    0.41289E-05 10640   0.126E-04-0.251E-05
CGA:  17    -0.128310650336E+04   -0.17904E-06   -0.10413E-05 10640   0.779E-05 0.518E-05
  41 F= -.12831065E+04 E0= -.12831065E+04  d E =0.968204E-03  mag=    47.0000
       N       E                     dE             d eps       ncg     rms          ort
SDA:   1    -0.128270613513E+04    0.40037E+00    0.00000E+00 10640   0.113E+01 0.000E+00
CGA:   2    -0.128294390454E+04   -0.23777E+00   -0.23785E+00 10640   0.448E+00 0.241E-02
CGA:   3    -0.128305370328E+04   -0.10980E+00   -0.10980E+00 10640   0.111E+00-0.296E-02
CGA:   4    -0.128307143254E+04   -0.17729E-01   -0.17608E-01 10640   0.203E-01-0.140E-02
CGA:   5    -0.128307517798E+04   -0.37454E-02   -0.37582E-02 10640   0.512E-02 0.258E-03
CGA:   6    -0.128307627299E+04   -0.10950E-02   -0.10818E-02 10640   0.211E-02-0.448E-03
CGA:   7    -0.128307657887E+04   -0.30589E-03   -0.32086E-03 10640   0.446E-03 0.217E-03
CGA:   8    -0.128307671963E+04   -0.14075E-03   -0.14327E-03 10640   0.229E-03-0.431E-04
CGA:   9    -0.128307682860E+04   -0.10897E-03    0.20819E-03 10640   0.111E-03 0.367E-04
CGA:  10    -0.128307621923E+04    0.60937E-03   -0.32810E-03 10640   0.476E-02-0.623E-03
CGA:  11    -0.128307695206E+04   -0.73283E-03   -0.65363E-03 10640   0.104E-02-0.270E-03
CGA:  12    -0.128307705957E+04   -0.10751E-03   -0.14589E-03 10640   0.121E-03 0.145E-03
CGA:  13    -0.128307706735E+04   -0.77848E-05   -0.23660E-04 10640   0.743E-04 0.689E-04
CGA:  14    -0.128307689362E+04    0.17373E-03   -0.98955E-04 10640   0.347E-02-0.289E-03
CGA:  15    -0.128307709811E+04   -0.20449E-03   -0.29959E-03 10640   0.830E-04 0.292E-03
CGA:  16    -0.128307709423E+04    0.38807E-05   -0.88655E-05 10640   0.327E-04 0.397E-04
  42 F= -.12830771E+04 E0= -.12830771E+04  d E =0.294091E-01  mag=    47.0000
       N       E                     dE             d eps       ncg     rms          ort
SDA:   1    -0.128274031264E+04    0.33679E+00    0.00000E+00 10640   0.909E+00 0.000E+00
CGA:   2    -0.128293682975E+04   -0.19652E+00   -0.19665E+00 10640   0.379E+00 0.133E-02
CGA:   3    -0.128302640502E+04   -0.89575E-01   -0.89608E-01 10640   0.915E-01-0.639E-04
CGA:   4    -0.128304063024E+04   -0.14225E-01   -0.14401E-01 10640   0.157E-01 0.940E-03
CGA:   5    -0.128304391892E+04   -0.32887E-02   -0.32246E-02 10640   0.428E-02-0.390E-03
CGA:   6    -0.128304478357E+04   -0.86465E-03   -0.83328E-03 10640   0.164E-02-0.196E-03
CGA:   7    -0.128304505261E+04   -0.26904E-03   -0.28300E-03 10640   0.374E-03 0.858E-04
CGA:   8    -0.128304517877E+04   -0.12615E-03   -0.12464E-03 10640   0.249E-03-0.650E-04
CGA:   9    -0.128304520160E+04   -0.22831E-04   -0.34728E-04 10640   0.112E-03 0.701E-04
CGA:  10    -0.128304524657E+04   -0.44970E-04   -0.44678E-04 10640   0.105E-03-0.163E-04
CGA:  11    -0.128304531302E+04   -0.66448E-04    0.11540E-03 10640   0.163E-03-0.409E-04
CGA:  12    -0.128304532839E+04   -0.15376E-04   -0.15899E-04 10640   0.117E-03 0.203E-05
CGA:  13    -0.128304532847E+04   -0.78388E-07   -0.11702E-04 10640   0.802E-04 0.519E-04
CGA:  14    -0.128304533589E+04   -0.74248E-05   -0.16059E-04 10640   0.611E-04 0.498E-04
CGA:  15    -0.128304538450E+04   -0.48610E-04    0.28700E-04 10640   0.111E-03-0.228E-04
CGA:  16    -0.128304539067E+04   -0.61654E-05   -0.10226E-04 10640   0.756E-04 0.262E-04
  43 F= -.12830454E+04 E0= -.12830454E+04  d E =0.317036E-01  mag=    47.0000
       N       E                     dE             d eps       ncg     rms          ort
SDA:   1    -0.128281800112E+04    0.22738E+00    0.00000E+00 10640   0.631E+00 0.000E+00
CGA:   2    -0.128295976688E+04   -0.14177E+00   -0.14176E+00 10640   0.284E+00 0.324E-04
CGA:   3    -0.128302132610E+04   -0.61559E-01   -0.61642E-01 10640   0.732E-01 0.148E-02
CGA:   4    -0.128303273537E+04   -0.11409E-01   -0.11335E-01 10640   0.128E-01-0.541E-03
CGA:   5    -0.128303514914E+04   -0.24138E-02   -0.24271E-02 10640   0.311E-02 0.185E-03
CGA:   6    -0.128303582723E+04   -0.67809E-03   -0.66744E-03 10640   0.117E-02-0.194E-03
CGA:   7    -0.128303602248E+04   -0.19525E-03   -0.19947E-03 10640   0.300E-03 0.537E-04
CGA:   8    -0.128303609423E+04   -0.71758E-04   -0.72440E-04 10640   0.114E-03 0.248E-04
CGA:   9    -0.128303612815E+04   -0.33916E-04   -0.33592E-04 10640   0.549E-04 0.227E-04
CGA:  10    -0.128303590487E+04    0.22328E-03   -0.12148E-03 10640   0.174E-02-0.237E-03
CGA:  11    -0.128303609235E+04   -0.18748E-03   -0.22015E-03 10640   0.328E-03 0.996E-04
CGA:  12    -0.128303616933E+04   -0.76975E-04   -0.80452E-04 10640   0.839E-04 0.160E-04
CGA:  13    -0.128303617995E+04   -0.10629E-04   -0.18591E-04 10640   0.420E-04 0.344E-04
CGA:  14    -0.128303620033E+04   -0.20376E-04   -0.20144E-04 10640   0.313E-04-0.256E-05
CGA:  15    -0.128303620259E+04   -0.22624E-05   -0.47809E-05 10640   0.151E-04 0.953E-05
  44 F= -.12830362E+04 E0= -.12830362E+04  d E =0.918808E-02  mag=    47.0000
       N       E                     dE             d eps       ncg     rms          ort
SDA:   1    -0.128269675176E+04    0.33945E+00    0.00000E+00 10640   0.106E+01 0.000E+00
CGA:   2    -0.128292161874E+04   -0.22487E+00   -0.22462E+00 10640   0.429E+00-0.107E-02
CGA:   3    -0.128302387951E+04   -0.10226E+00   -0.10270E+00 10640   0.101E+00 0.271E-02
CGA:   4    -0.128303976940E+04   -0.15890E-01   -0.16101E-01 10640   0.166E-01 0.985E-03
CGA:   5    -0.128304321042E+04   -0.34410E-02   -0.34610E-02 10640   0.424E-02 0.125E-03
CGA:   6    -0.128304397962E+04   -0.76920E-03   -0.80453E-03 10640   0.143E-02 0.207E-03
CGA:   7    -0.128304431136E+04   -0.33174E-03   -0.31622E-03 10640   0.494E-03-0.107E-03
CGA:   8    -0.128304437883E+04   -0.67468E-04   -0.82581E-04 10640   0.149E-03 0.913E-04
CGA:   9    -0.128304440070E+04   -0.21875E-04   -0.33082E-04 10640   0.587E-04 0.738E-04
CGA:  10    -0.128304440022E+04    0.48685E-06   -0.10943E-04 10640   0.344E-04 0.553E-04
  45 F= -.12830444E+04 E0= -.12830444E+04  d E =-.819762E-02  mag=    47.0000
       N       E                     dE             d eps       ncg     rms          ort
SDA:   1    -0.128299061251E+04    0.53788E-01    0.00000E+00 10640   0.173E+00 0.000E+00
CGA:   2    -0.128302564699E+04   -0.35034E-01   -0.35065E-01 10640   0.668E-01 0.333E-03
CGA:   3    -0.128304237659E+04   -0.16730E-01   -0.16700E-01 10640   0.174E-01-0.577E-03
CGA:   4    -0.128304525785E+04   -0.28813E-02   -0.27940E-02 10640   0.297E-02-0.622E-03
CGA:   5    -0.128304577137E+04   -0.51351E-03   -0.53083E-03 10640   0.681E-03 0.160E-03
CGA:   6    -0.128304596123E+04   -0.18987E-03   -0.18384E-03 10640   0.431E-03-0.184E-03
CGA:   7    -0.128304597505E+04   -0.13816E-04   -0.32115E-04 10640   0.136E-03 0.992E-04
CGA:   8    -0.128304597625E+04   -0.12038E-05   -0.13362E-04 10640   0.549E-04 0.614E-04
CGA:   9    -0.128304598512E+04   -0.88619E-05   -0.10819E-04 10640   0.314E-04 0.148E-04
CGA:  10    -0.128304601128E+04   -0.26169E-04    0.20576E-04 10640   0.579E-04-0.310E-04
CGA:  11    -0.128304600974E+04    0.15437E-05   -0.40310E-05 10640   0.178E-04 0.291E-04
  46 F= -.12830460E+04 E0= -.12830460E+04  d E =-.160952E-02  mag=    47.0000
       N       E                     dE             d eps       ncg     rms          ort
SDA:   1    -0.128299824841E+04    0.47763E-01    0.00000E+00 10640   0.125E+00 0.000E+00
CGA:   2    -0.128302882539E+04   -0.30577E-01   -0.30577E-01 10640   0.555E-01 0.653E-03
CGA:   3    -0.128304123048E+04   -0.12405E-01   -0.12388E-01 10640   0.111E-01-0.723E-03
CGA:   4    -0.128304317136E+04   -0.19409E-02   -0.19075E-02 10640   0.231E-02-0.476E-03
CGA:   5    -0.128304358977E+04   -0.41841E-03   -0.42140E-03 10640   0.457E-03 0.608E-04
CGA:   6    -0.128304371683E+04   -0.12706E-03   -0.13344E-03 10640   0.310E-03-0.139E-03
CGA:   7    -0.128304372773E+04   -0.10893E-04   -0.21277E-04 10640   0.113E-03 0.732E-04
CGA:   8    -0.128304373383E+04   -0.61049E-05   -0.12377E-04 10640   0.479E-04 0.432E-04
CGA:   9    -0.128304374754E+04   -0.13708E-04   -0.24997E-04 10640   0.132E-03-0.747E-04
CGA:  10    -0.128304378066E+04   -0.33122E-04   -0.43024E-04 10640   0.143E-03-0.107E-03
CGA:  11    -0.128304378369E+04   -0.30290E-05   -0.11393E-04 10640   0.247E-04 0.529E-04
  47 F= -.12830438E+04 E0= -.12830438E+04  d E =0.222605E-02  mag=    47.0000
       N       E                     dE             d eps       ncg     rms          ort
SDA:   1    -0.128294527564E+04    0.98505E-01    0.00000E+00 10640   0.291E+00 0.000E+00
CGA:   2    -0.128300687944E+04   -0.61604E-01   -0.61617E-01 10640   0.120E+00 0.123E-02
CGA:   3    -0.128303624140E+04   -0.29362E-01   -0.29385E-01 10640   0.298E-01-0.110E-02
CGA:   4    -0.128304076586E+04   -0.45245E-02   -0.45250E-02 10640   0.489E-02 0.199E-04
CGA:   5    -0.128304180951E+04   -0.10436E-02   -0.10411E-02 10640   0.158E-02-0.368E-03
CGA:   6    -0.128304207281E+04   -0.26331E-03   -0.26269E-03 10640   0.481E-03-0.131E-04
CGA:   7    -0.128304217195E+04   -0.99137E-04   -0.99063E-04 10640   0.122E-03-0.712E-05
CGA:   8    -0.128304220630E+04   -0.34346E-04   -0.36041E-04 10640   0.785E-04-0.206E-04
CGA:   9    -0.128304223714E+04   -0.30839E-04    0.10607E-03 10640   0.393E-04-0.139E-05
CGA:  10    -0.128304225721E+04   -0.20070E-04    0.24453E-04 10640   0.143E-04 0.653E-05
CGA:  11    -0.128304227455E+04   -0.17343E-04    0.13702E-05 10640   0.716E-05 0.729E-05
CGA:  12    -0.128304227634E+04   -0.17883E-05   -0.17239E-05 10640   0.518E-05 0.322E-05
  48 F= -.12830423E+04 E0= -.12830423E+04  d E =0.150735E-02  mag=    47.0000
       N       E                     dE             d eps       ncg     rms          ort
SDA:   1    -0.128292188428E+04    0.12039E+00    0.00000E+00 10640   0.422E+00 0.000E+00
CGA:   2    -0.128300161716E+04   -0.79733E-01   -0.79725E-01 10640   0.147E+00-0.984E-04
CGA:   3    -0.128303953859E+04   -0.37921E-01   -0.37912E-01 10640   0.433E-01 0.156E-03
CGA:   4    -0.128304603010E+04   -0.64915E-02   -0.65664E-02 10640   0.611E-02 0.108E-02
CGA:   5    -0.128304736070E+04   -0.13306E-02   -0.13296E-02 10640   0.184E-02-0.160E-03
CGA:   6    -0.128304761506E+04   -0.25435E-03   -0.27696E-03 10640   0.475E-03 0.357E-03
CGA:   7    -0.128304776300E+04   -0.14794E-03   -0.15444E-03 10640   0.218E-03-0.113E-03
CGA:   8    -0.128304780483E+04   -0.41838E-04   -0.43150E-04 10640   0.102E-03-0.310E-04
CGA:   9    -0.128304780851E+04   -0.36759E-05   -0.91274E-05 10640   0.491E-04 0.473E-04
  49 F= -.12830478E+04 E0= -.12830478E+04  d E =-.553217E-02  mag=    47.0000
       N       E                     dE             d eps       ncg     rms          ort
SDA:   1    -0.128303309718E+04    0.14708E-01    0.00000E+00 10640   0.593E-01 0.000E+00
CGA:   2    -0.128304497475E+04   -0.11878E-01   -0.11879E-01 10640   0.224E-01 0.230E-03
CGA:   3    -0.128305050428E+04   -0.55295E-02   -0.55179E-02 10640   0.583E-02 0.293E-03
CGA:   4    -0.128305135521E+04   -0.85093E-03   -0.87410E-03 10640   0.903E-03 0.380E-03
CGA:   5    -0.128305159506E+04   -0.23985E-03   -0.25873E-03 10640   0.528E-03-0.300E-03
CGA:   6    -0.128305162814E+04   -0.33079E-04   -0.40192E-04 10640   0.178E-03 0.750E-04
CGA:   7    -0.128305164320E+04   -0.15064E-04   -0.20987E-04 10640   0.708E-04 0.584E-04
CGA:   8    -0.128305165738E+04   -0.14181E-04   -0.14134E-04 10640   0.207E-04-0.896E-06
CGA:   9    -0.128305166160E+04   -0.42216E-05   -0.42263E-05 10640   0.151E-04-0.482E-06
  50 F= -.12830517E+04 E0= -.12830517E+04  d E =-.385309E-02  mag=    47.0000
       N       E                     dE             d eps       ncg     rms          ort
SDA:   1    -0.128304058296E+04    0.11074E-01    0.00000E+00 10640   0.429E-01 0.000E+00
CGA:   2    -0.128304997204E+04   -0.93891E-02   -0.93944E-02 10640   0.181E-01-0.175E-03
CGA:   3    -0.128305398962E+04   -0.40176E-02   -0.39999E-02 10640   0.416E-02 0.586E-03
CGA:   4    -0.128305473188E+04   -0.74227E-03   -0.73545E-03 10640   0.100E-02-0.312E-03
CGA:   5    -0.128305486708E+04   -0.13520E-03   -0.14015E-03 10640   0.197E-03 0.122E-03
CGA:   6    -0.128305492037E+04   -0.53295E-04   -0.80716E-04 10640   0.263E-03-0.156E-03
CGA:   7    -0.128305494175E+04   -0.21374E-04   -0.27823E-04 10640   0.329E-04 0.695E-04
CGA:   8    -0.128305494569E+04   -0.39466E-05   -0.49208E-05 10640   0.958E-05 0.128E-04
  51 F= -.12830549E+04 E0= -.12830549E+04  d E =-.328409E-02  mag=    47.0000
       N       E                     dE             d eps       ncg     rms          ort
SDA:   1    -0.128298409224E+04    0.70850E-01    0.00000E+00 10640   0.222E+00 0.000E+00
CGA:   2    -0.128303430661E+04   -0.50214E-01   -0.50241E-01 10640   0.988E-01-0.673E-03
CGA:   3    -0.128305650140E+04   -0.22195E-01   -0.22202E-01 10640   0.221E-01-0.227E-03
CGA:   4    -0.128305989871E+04   -0.33973E-02   -0.34163E-02 10640   0.368E-02 0.507E-03
CGA:   5    -0.128306068439E+04   -0.78568E-03   -0.78503E-03 10640   0.909E-03 0.393E-04
CGA:   6    -0.128306080978E+04   -0.12538E-03   -0.13664E-03 10640   0.233E-03 0.260E-03
CGA:   7    -0.128306089267E+04   -0.82896E-04   -0.91935E-04 10640   0.147E-03-0.777E-04
CGA:   8    -0.128306090881E+04   -0.16141E-04   -0.16449E-04 10640   0.771E-04 0.110E-04
CGA:   9    -0.128306091474E+04   -0.59242E-05   -0.90282E-05 10640   0.351E-04 0.363E-04
  52 F= -.12830609E+04 E0= -.12830609E+04  d E =-.596904E-02  mag=    47.0000
       N       E                     dE             d eps       ncg     rms          ort
SDA:   1    -0.128255782620E+04    0.50308E+00    0.00000E+00 10640   0.160E+01 0.000E+00
CGA:   2    -0.128287137997E+04   -0.31355E+00   -0.31354E+00 10640   0.588E+00 0.177E-02
CGA:   3    -0.128302294823E+04   -0.15157E+00   -0.15153E+00 10640   0.155E+00 0.942E-04
CGA:   4    -0.128304685394E+04   -0.23906E-01   -0.23985E-01 10640   0.226E-01 0.231E-02
CGA:   5    -0.128305189435E+04   -0.50404E-02   -0.50784E-02 10640   0.654E-02-0.111E-02
CGA:   6    -0.128305302079E+04   -0.11264E-02   -0.11309E-02 10640   0.185E-02 0.615E-03
CGA:   7    -0.128305347996E+04   -0.45917E-03   -0.47383E-03 10640   0.790E-03-0.324E-03
CGA:   8    -0.128305356900E+04   -0.89036E-04   -0.95972E-04 10640   0.254E-03 0.159E-03
CGA:   9    -0.128305361894E+04   -0.49941E-04   -0.51752E-04 10640   0.121E-03 0.928E-04
CGA:  10    -0.128305366146E+04   -0.42523E-04   -0.58127E-04 10640   0.257E-03-0.942E-04
CGA:  11    -0.128305367417E+04   -0.12714E-04   -0.21913E-04 10640   0.534E-04 0.834E-04
CGA:  12    -0.128305367994E+04   -0.57649E-05   -0.80012E-05 10640   0.317E-04 0.288E-04
  53 F= -.12830537E+04 E0= -.12830537E+04  d E =0.723480E-02  mag=    47.0000
       N       E                     dE             d eps       ncg     rms          ort
SDA:   1    -0.128253446289E+04    0.51921E+00    0.00000E+00 10640   0.162E+01 0.000E+00
CGA:   2    -0.128285601136E+04   -0.32155E+00   -0.32155E+00 10640   0.621E+00 0.339E-03
CGA:   3    -0.128301049703E+04   -0.15449E+00   -0.15429E+00 10640   0.169E+00 0.285E-02
CGA:   4    -0.128303629776E+04   -0.25801E-01   -0.25822E-01 10640   0.264E-01 0.628E-03
CGA:   5    -0.128304140739E+04   -0.51096E-02   -0.51090E-02 10640   0.743E-02 0.189E-03
CGA:   6    -0.128304291649E+04   -0.15091E-02   -0.15154E-02 10640   0.269E-02-0.445E-03
CGA:   7    -0.128304337419E+04   -0.45769E-03   -0.45889E-03 10640   0.579E-03 0.151E-03
CGA:   8    -0.128304354491E+04   -0.17072E-03   -0.18014E-03 10640   0.321E-03-0.886E-04
CGA:   9    -0.128304357645E+04   -0.31548E-04   -0.38045E-04 10640   0.132E-03 0.119E-03
CGA:  10    -0.128304360116E+04   -0.24703E-04   -0.27363E-04 10640   0.647E-04 0.653E-04
CGA:  11    -0.128304362983E+04   -0.28676E-04   -0.33683E-04 10640   0.108E-03-0.316E-04
CGA:  12    -0.128304362816E+04    0.16717E-05   -0.26455E-05 10640   0.991E-04 0.288E-04
  54 F= -.12830436E+04 E0= -.12830436E+04  d E =0.100518E-01  mag=    47.0000
       N       E                     dE             d eps       ncg     rms          ort
SDA:   1    -0.128252570465E+04    0.51793E+00    0.00000E+00 10640   0.138E+01 0.000E+00
CGA:   2    -0.128283927350E+04   -0.31357E+00   -0.31359E+00 10640   0.619E+00-0.275E-03
CGA:   3    -0.128297226008E+04   -0.13299E+00   -0.13291E+00 10640   0.168E+00 0.268E-02
CGA:   4    -0.128299753648E+04   -0.25276E-01   -0.25216E-01 10640   0.301E-01-0.151E-02
CGA:   5    -0.128300308679E+04   -0.55503E-02   -0.55495E-02 10640   0.674E-02 0.801E-03
CGA:   6    -0.128300465444E+04   -0.15676E-02   -0.15981E-02 10640   0.259E-02-0.659E-03
CGA:   7    -0.128300503342E+04   -0.37899E-03   -0.38641E-03 10640   0.609E-03 0.338E-03
CGA:   8    -0.128300519406E+04   -0.16063E-03   -0.15869E-03 10640   0.235E-03 0.441E-04
CGA:   9    -0.128300527686E+04   -0.82801E-04   -0.12529E-03 10640   0.336E-03-0.138E-03
CGA:  10    -0.128300530311E+04   -0.26257E-04   -0.38144E-04 10640   0.795E-04 0.132E-03
CGA:  11    -0.128300532139E+04   -0.18276E-04   -0.18909E-04 10640   0.336E-04 0.220E-04
CGA:  12    -0.128300534118E+04   -0.19790E-04    0.25874E-04 10640   0.226E-04 0.106E-04
CGA:  13    -0.128300534252E+04   -0.13431E-05   -0.32420E-05 10640   0.189E-04 0.213E-04
  55 F= -.12830053E+04 E0= -.12830053E+04  d E =0.382856E-01  mag=    47.0000
       N       E                     dE             d eps       ncg     rms          ort
SDA:   1    -0.127449738894E+04    0.85080E+01    0.00000E+00 10640   0.267E+02 0.000E+00
CGA:   2    -0.127978730861E+04   -0.52899E+01   -0.52901E+01 10640   0.103E+02 0.696E-02
CGA:   3    -0.128228802158E+04   -0.25007E+01   -0.24981E+01 10640   0.300E+01 0.244E-01
CGA:   4    -0.128273182625E+04   -0.44380E+00   -0.44360E+00 10640   0.472E+00 0.179E-01
CGA:   5    -0.128282426325E+04   -0.92437E-01   -0.92459E-01 10640   0.133E+00-0.328E-02
CGA:   6    -0.128284921336E+04   -0.24950E-01   -0.24947E-01 10640   0.388E-01 0.273E-02
CGA:   7    -0.128285791817E+04   -0.87048E-02   -0.87454E-02 10640   0.113E-01-0.120E-02
CGA:   8    -0.128286036611E+04   -0.24479E-02   -0.24586E-02 10640   0.533E-02-0.296E-03
CGA:   9    -0.128286161555E+04   -0.12494E-02   -0.12588E-02 10640   0.260E-02-0.174E-03
CGA:  10    -0.128286227835E+04   -0.66280E-03   -0.65725E-03 10640   0.120E-02 0.841E-04
CGA:  11    -0.128286268468E+04   -0.40633E-03   -0.50856E-03 10640   0.173E-02-0.482E-03
CGA:  12    -0.128286285082E+04   -0.16614E-03   -0.16380E-03 10640   0.828E-03-0.493E-04
CGA:  13    -0.128286302877E+04   -0.17796E-03   -0.17787E-03 10640   0.992E-03 0.252E-05
CGA:  14    -0.128286326236E+04   -0.23358E-03   -0.24595E-03 10640   0.731E-03-0.309E-03
CGA:  15    -0.128286313351E+04    0.12884E-03   -0.43093E-03 10640   0.419E-02-0.889E-03
CGA:  16    -0.128286363950E+04   -0.50599E-03   -0.54195E-03 10640   0.847E-03 0.336E-03
CGA:  17    -0.128286388104E+04   -0.24154E-03   -0.23936E-03 10640   0.275E-03 0.829E-04
CGA:  18    -0.128286394868E+04   -0.67635E-04   -0.12308E-03 10640   0.858E-03-0.324E-03
CGA:  19    -0.128286400875E+04   -0.60072E-04   -0.84045E-04 10640   0.862E-04 0.165E-03
CGA:  20    -0.128286401512E+04   -0.63670E-05   -0.12001E-04 10640   0.509E-04 0.466E-04
CGA:  21    -0.128286405003E+04   -0.34915E-04    0.12279E-04 10640   0.348E-04 0.209E-04
CGA:  22    -0.128286407530E+04   -0.25271E-04    0.50699E-04 10640   0.185E-04 0.265E-04
CGA:  23    -0.128286408393E+04   -0.86231E-05   -0.69891E-05 10640   0.226E-04 0.110E-04
  56 F= -.12828641E+04 E0= -.12828641E+04  d E =0.141259E+00  mag=    47.0000
       N       E                     dE             d eps       ncg     rms          ort
SDA:   1    -0.127946175016E+04    0.34023E+01    0.00000E+00 10640   0.118E+02 0.000E+00
CGA:   2    -0.128169866050E+04   -0.22369E+01   -0.22371E+01 10640   0.418E+01 0.638E-02
CGA:   3    -0.128275717163E+04   -0.10585E+01   -0.10584E+01 10640   0.128E+01 0.183E-03
CGA:   4    -0.128294883900E+04   -0.19167E+00   -0.19181E+00 10640   0.192E+00 0.450E-02
CGA:   5    -0.128298638756E+04   -0.37549E-01   -0.37537E-01 10640   0.554E-01-0.170E-03
CGA:   6    -0.128299718442E+04   -0.10797E-01   -0.10786E-01 10640   0.174E-01-0.248E-03
CGA:   7    -0.128300072014E+04   -0.35357E-02   -0.35347E-02 10640   0.441E-02-0.161E-04
CGA:   8    -0.128300188686E+04   -0.11667E-02   -0.12036E-02 10640   0.285E-02-0.813E-03
CGA:   9    -0.128300234044E+04   -0.45358E-03   -0.45313E-03 10640   0.109E-02-0.742E-05
CGA:  10    -0.128300269211E+04   -0.35167E-03   -0.47647E-03 10640   0.119E-02-0.591E-03
CGA:  11    -0.128300288616E+04   -0.19405E-03   -0.20026E-03 10640   0.253E-03 0.895E-04
CGA:  12    -0.128300286541E+04    0.20744E-04   -0.16359E-03 10640   0.219E-02-0.502E-03
CGA:  13    -0.128300302278E+04   -0.15737E-03   -0.20318E-03 10640   0.195E-03 0.292E-03
CGA:  14    -0.128300306223E+04   -0.39443E-04   -0.41515E-04 10640   0.844E-04 0.356E-04
CGA:  15    -0.128300301552E+04    0.46709E-04   -0.66702E-04 10640   0.130E-02-0.267E-03
CGA:  16    -0.128300309898E+04   -0.83464E-04   -0.12029E-03 10640   0.140E-03 0.218E-03
CGA:  17    -0.128300312467E+04   -0.25685E-04   -0.28698E-04 10640   0.737E-04 0.375E-04
CGA:  18    -0.128300312736E+04   -0.26943E-05   -0.45997E-04 10640   0.484E-03-0.180E-03
CGA:  19    -0.128300314582E+04   -0.18461E-04   -0.42886E-04 10640   0.885E-04 0.141E-03
CGA:  20    -0.128300315075E+04   -0.49236E-05   -0.12461E-04 10640   0.506E-04 0.517E-04
CGA:  21    -0.128300317805E+04   -0.27298E-04    0.70402E-04 10640   0.535E-04-0.584E-05
CGA:  22    -0.128300317712E+04    0.92390E-06   -0.41643E-05 10640   0.295E-04 0.319E-04
