       N       E                     dE             d eps       ncg     rms          ort
DAV:   1     0.102824180782E+05    0.10282E+05   -0.42474E+05 10640   0.155E+03
DAV:   2    -0.118377772163E+03   -0.10401E+05   -0.98174E+04 10640   0.474E+02
DAV:   3    -0.152278188281E+04   -0.14044E+04   -0.13096E+04 10640   0.182E+02
DAV:   4    -0.160447950030E+04   -0.81698E+02   -0.79483E+02 10640   0.461E+01
DAV:   5    -0.160683085172E+04   -0.23514E+01   -0.23437E+01 10640   0.836E+00
SDA:   6    -0.726788750747E+03    0.88004E+03   -0.23437E+01 10640   0.294E+04 0.000E+00
CGA:   7    -0.112286281987E+04   -0.39607E+03   -0.39572E+03 10640   0.132E+04-0.249E+02
CGA:   8    -0.114474411201E+04   -0.21881E+02   -0.75602E+02 10640   0.147E+04-0.876E+03
CGA:   9    -0.115031316458E+04   -0.55691E+01   -0.71236E+02 10640   0.225E+04-0.153E+04
CGA:  10    -0.113409522238E+04    0.16218E+02   -0.11953E+03 10640   0.269E+04-0.188E+04
CGA:  11    -0.113488582875E+04   -0.79061E+00   -0.13234E+03 10640   0.336E+04-0.295E+04
CGA:  12    -0.110866049850E+04    0.26225E+02   -0.17968E+03 10640   0.402E+04-0.324E+04
CGA:  13    -0.110637229946E+04    0.22882E+01   -0.20603E+03 10640   0.451E+04-0.416E+04
CGA:  14    -0.108613894650E+04    0.20233E+02   -0.24234E+03 10640   0.488E+04-0.432E+04
CGA:  15    -0.110386053830E+04   -0.17722E+02   -0.24860E+03 10640   0.486E+04-0.494E+04
CGA:  16    -0.111251487455E+04   -0.86543E+01   -0.25129E+03 10640   0.438E+04-0.437E+04
CGA:  17    -0.116097722183E+04   -0.48462E+02   -0.20861E+03 10640   0.345E+04-0.411E+04
CGA:  18    -0.120051306644E+04   -0.39536E+02   -0.15595E+03 10640   0.208E+04-0.260E+04
CGA:  19    -0.124575963868E+04   -0.45247E+02   -0.79350E+02 10640   0.620E+03-0.112E+04
CGA:  20    -0.126095898178E+04   -0.15199E+02   -0.19733E+02 10640   0.704E+02-0.133E+03
CGA:  21    -0.126451979936E+04   -0.35608E+01   -0.36199E+01 10640   0.468E+02 0.225E+00
CGA:  22    -0.127053706696E+04   -0.60173E+01   -0.60251E+01 10640   0.844E+02-0.979E+00
CGA:  23    -0.127717601406E+04   -0.66389E+01   -0.64552E+01 10640   0.138E+02 0.102E+01
CGA:  24    -0.127799077835E+04   -0.81476E+00   -0.88173E+00 10640   0.831E+01-0.654E+00
CGA:  25    -0.127936784677E+04   -0.13771E+01   -0.13198E+01 10640   0.776E+01 0.666E+00
CGA:  26    -0.128004386168E+04   -0.67601E+00   -0.71523E+00 10640   0.379E+01-0.239E+00
CGA:  27    -0.128065380276E+04   -0.60994E+00   -0.61219E+00 10640   0.441E+01-0.235E+00
CGA:  28    -0.128125332070E+04   -0.59952E+00   -0.61073E+00 10640   0.232E+01-0.621E+00
CGA:  29    -0.128167147419E+04   -0.41815E+00   -0.45745E+00 10640   0.351E+01-0.405E+00
CGA:  30    -0.128217653795E+04   -0.50506E+00   -0.53800E+00 10640   0.178E+01-0.717E+00
CGA:  31    -0.128245130171E+04   -0.27476E+00   -0.28071E+00 10640   0.135E+01-0.181E+00
CGA:  32    -0.128274745931E+04   -0.29616E+00   -0.33896E+00 10640   0.118E+01-0.304E+00
CGA:  33    -0.128290235651E+04   -0.15490E+00   -0.15516E+00 10640   0.362E+00-0.766E-01
CGA:  34    -0.128302081461E+04   -0.11846E+00   -0.10959E+00 10640   0.248E+00 0.498E-01
CGA:  35    -0.128308312613E+04   -0.62312E-01   -0.57738E-01 10640   0.102E+00 0.841E-01
CGA:  36    -0.128311083666E+04   -0.27711E-01   -0.25175E-01 10640   0.554E-01 0.817E-01
CGA:  37    -0.128312254169E+04   -0.11705E-01   -0.10459E-01 10640   0.375E-01 0.367E-01
CGA:  38    -0.128312820330E+04   -0.56616E-02   -0.57603E-02 10640   0.288E-01 0.300E-01
CGA:  39    -0.128313226690E+04   -0.40636E-02   -0.42741E-02 10640   0.236E-01 0.252E-01
CGA:  40    -0.128313496540E+04   -0.26985E-02   -0.31726E-02 10640   0.201E-01 0.215E-01
CGA:  41    -0.128313697472E+04   -0.20093E-02   -0.25444E-02 10640   0.175E-01 0.186E-01
CGA:  42    -0.128313846211E+04   -0.14874E-02   -0.20684E-02 10640   0.155E-01 0.164E-01
CGA:  43    -0.128313960993E+04   -0.11478E-02   -0.17306E-02 10640   0.138E-01 0.146E-01
CGA:  44    -0.128314050691E+04   -0.89698E-03   -0.14688E-02 10640   0.125E-01 0.131E-01
CGA:  45    -0.128314122245E+04   -0.71554E-03   -0.12655E-02 10640   0.113E-01 0.119E-01
CGA:  46    -0.128314180153E+04   -0.57907E-03   -0.11028E-02 10640   0.104E-01 0.108E-01
CGA:  47    -0.128314227679E+04   -0.47527E-03   -0.97049E-03 10640   0.958E-02 0.996E-02
CGA:  48    -0.128314267171E+04   -0.39492E-03   -0.86130E-03 10640   0.887E-02 0.921E-02
CGA:  49    -0.128314300360E+04   -0.33189E-03   -0.76996E-03 10640   0.825E-02 0.855E-02
CGA:  50    -0.128314328541E+04   -0.28181E-03   -0.69269E-03 10640   0.771E-02 0.797E-02
CGA:  51    -0.128314352695E+04   -0.24155E-03   -0.62666E-03 10640   0.723E-02 0.746E-02
CGA:  52    -0.128314373580E+04   -0.20884E-03   -0.56972E-03 10640   0.680E-02 0.701E-02
CGA:  53    -0.128314391782E+04   -0.18202E-03   -0.52024E-03 10640   0.641E-02 0.660E-02
CGA:  54    -0.128314407764E+04   -0.15983E-03   -0.47696E-03 10640   0.607E-02 0.624E-02
CGA:  55    -0.128314421897E+04   -0.14132E-03   -0.43884E-03 10640   0.576E-02 0.591E-02
CGA:  56    -0.128314434475E+04   -0.12578E-03   -0.40511E-03 10640   0.547E-02 0.561E-02
CGA:  57    -0.128314445738E+04   -0.11263E-03   -0.37509E-03 10640   0.522E-02 0.534E-02
CGA:  58    -0.128314455883E+04   -0.10145E-03   -0.34827E-03 10640   0.498E-02 0.510E-02
CGA:  59    -0.128314465072E+04   -0.91888E-04   -0.32420E-03 10640   0.477E-02 0.487E-02
CGA:  60    -0.128314473439E+04   -0.83666E-04   -0.30252E-03 10640   0.457E-02 0.466E-02
CGA:  61    -0.128314481095E+04   -0.76566E-04   -0.28293E-03 10640   0.439E-02 0.448E-02
CGA:  62    -0.128314488136E+04   -0.70411E-04   -0.26517E-03 10640   0.422E-02 0.430E-02
CGA:  63    -0.128314494641E+04   -0.65050E-04   -0.24903E-03 10640   0.406E-02 0.414E-02
CGA:  64    -0.128314500678E+04   -0.60365E-04   -0.23430E-03 10640   0.392E-02 0.399E-02
CGA:  65    -0.128314506304E+04   -0.56259E-04   -0.22084E-03 10640   0.379E-02 0.385E-02
CGA:  66    -0.128314511569E+04   -0.52647E-04   -0.20851E-03 10640   0.366E-02 0.372E-02
CGA:  67    -0.128314516515E+04   -0.49463E-04   -0.19718E-03 10640   0.355E-02 0.360E-02
CGA:  68    -0.128314521179E+04   -0.46644E-04   -0.18675E-03 10640   0.344E-02 0.349E-02
CGA:  69    -0.128314525594E+04   -0.44146E-04   -0.17713E-03 10640   0.334E-02 0.339E-02
CGA:  70    -0.128314529786E+04   -0.41921E-04   -0.16824E-03 10640   0.324E-02 0.329E-02
CGA:  71    -0.128314533779E+04   -0.39931E-04   -0.16000E-03 10640   0.315E-02 0.320E-02
CGA:  72    -0.128314537594E+04   -0.38147E-04   -0.15236E-03 10640   0.307E-02 0.311E-02
CGA:  73    -0.128314541251E+04   -0.36568E-04   -0.14527E-03 10640   0.299E-02 0.303E-02
CGA:  74    -0.128314544766E+04   -0.35151E-04   -0.13866E-03 10640   0.292E-02 0.295E-02
CGA:  75    -0.128314548153E+04   -0.33871E-04   -0.13250E-03 10640   0.285E-02 0.288E-02
CGA:  76    -0.128314551424E+04   -0.32716E-04   -0.12675E-03 10640   0.278E-02 0.281E-02
CGA:  77    -0.128314554591E+04   -0.31667E-04   -0.12137E-03 10640   0.272E-02 0.275E-02
CGA:  78    -0.128314557662E+04   -0.30714E-04   -0.11633E-03 10640   0.266E-02 0.269E-02
CGA:  79    -0.128314560647E+04   -0.29845E-04   -0.11161E-03 10640   0.260E-02 0.263E-02
CGA:  80    -0.128314563552E+04   -0.29050E-04   -0.10717E-03 10640   0.255E-02 0.258E-02
CGA:  81    -0.128314566384E+04   -0.28322E-04   -0.10299E-03 10640   0.250E-02 0.252E-02
CGA:  82    -0.128314569149E+04   -0.27650E-04   -0.99059E-04 10640   0.245E-02 0.247E-02
CGA:  83    -0.128314571852E+04   -0.27030E-04   -0.95352E-04 10640   0.240E-02 0.243E-02
CGA:  84    -0.128314574498E+04   -0.26456E-04   -0.91852E-04 10640   0.236E-02 0.238E-02
CGA:  85    -0.128314577090E+04   -0.25922E-04   -0.88545E-04 10640   0.232E-02 0.234E-02
CGA:  86    -0.128314579632E+04   -0.25422E-04   -0.85416E-04 10640   0.228E-02 0.230E-02
CGA:  87    -0.128314582127E+04   -0.24955E-04   -0.82453E-04 10640   0.224E-02 0.226E-02
CGA:  88    -0.128314584579E+04   -0.24513E-04   -0.79643E-04 10640   0.220E-02 0.222E-02
CGA:  89    -0.128314586989E+04   -0.24099E-04   -0.76977E-04 10640   0.217E-02 0.219E-02
CGA:  90    -0.128314589359E+04   -0.23705E-04   -0.74444E-04 10640   0.214E-02 0.215E-02
CGA:  91    -0.128314591692E+04   -0.23333E-04   -0.72037E-04 10640   0.210E-02 0.212E-02
CGA:  92    -0.128314593990E+04   -0.22977E-04   -0.69745E-04 10640   0.207E-02 0.209E-02
CGA:  93    -0.128314596253E+04   -0.22634E-04   -0.67561E-04 10640   0.204E-02 0.206E-02
CGA:  94    -0.128314598483E+04   -0.22299E-04   -0.65477E-04 10640   0.201E-02 0.203E-02
CGA:  95    -0.128314600682E+04   -0.21991E-04   -0.63495E-04 10640   0.199E-02 0.200E-02
CGA:  96    -0.128314602852E+04   -0.21693E-04   -0.61602E-04 10640   0.196E-02 0.197E-02
CGA:  97    -0.128314604992E+04   -0.21401E-04   -0.59792E-04 10640   0.193E-02 0.195E-02
CGA:  98    -0.128314607104E+04   -0.21122E-04   -0.58062E-04 10640   0.191E-02 0.192E-02
CGA:  99    -0.128314609189E+04   -0.20849E-04   -0.56407E-04 10640   0.188E-02 0.190E-02
CGA: 100    -0.128314611247E+04   -0.20584E-04   -0.54822E-04 10640   0.186E-02 0.187E-02
CGA: 101    -0.128314613280E+04   -0.20327E-04   -0.53304E-04 10640   0.184E-02 0.185E-02
CGA: 102    -0.128314615287E+04   -0.20074E-04   -0.51848E-04 10640   0.182E-02 0.183E-02
CGA: 103    -0.128314617270E+04   -0.19830E-04   -0.50452E-04 10640   0.180E-02 0.181E-02
CGA: 104    -0.128314619229E+04   -0.19590E-04   -0.49112E-04 10640   0.178E-02 0.179E-02
CGA: 105    -0.128314621165E+04   -0.19356E-04   -0.47825E-04 10640   0.176E-02 0.177E-02
CGA: 106    -0.128314623078E+04   -0.19127E-04   -0.46589E-04 10640   0.174E-02 0.175E-02
CGA: 107    -0.128314624968E+04   -0.18902E-04   -0.45400E-04 10640   0.172E-02 0.173E-02
CGA: 108    -0.128314626836E+04   -0.18680E-04   -0.44257E-04 10640   0.170E-02 0.171E-02
CGA: 109    -0.128314628682E+04   -0.18465E-04   -0.43157E-04 10640   0.169E-02 0.169E-02
CGA: 110    -0.128314630507E+04   -0.18254E-04   -0.42098E-04 10640   0.167E-02 0.168E-02
CGA: 111    -0.128314632312E+04   -0.18045E-04   -0.41079E-04 10640   0.165E-02 0.166E-02
CGA: 112    -0.128314634096E+04   -0.17842E-04   -0.40097E-04 10640   0.164E-02 0.165E-02
CGA: 113    -0.128314635860E+04   -0.17640E-04   -0.39149E-04 10640   0.162E-02 0.163E-02
CGA: 114    -0.128314637604E+04   -0.17443E-04   -0.38236E-04 10640   0.161E-02 0.161E-02
CGA: 115    -0.128314639329E+04   -0.17249E-04   -0.37354E-04 10640   0.159E-02 0.160E-02
CGA: 116    -0.128314641035E+04   -0.17057E-04   -0.36503E-04 10640   0.158E-02 0.159E-02
CGA: 117    -0.128314642722E+04   -0.16870E-04   -0.35682E-04 10640   0.157E-02 0.157E-02
CGA: 118    -0.128314644391E+04   -0.16684E-04   -0.34888E-04 10640   0.155E-02 0.156E-02
CGA: 119    -0.128314646041E+04   -0.16502E-04   -0.34121E-04 10640   0.154E-02 0.155E-02
CGA: 120    -0.128314647673E+04   -0.16323E-04   -0.33380E-04 10640   0.153E-02 0.153E-02
CGA: 121    -0.128314649288E+04   -0.16146E-04   -0.32663E-04 10640   0.151E-02 0.152E-02
CGA: 122    -0.128314650885E+04   -0.15972E-04   -0.31970E-04 10640   0.150E-02 0.151E-02
CGA: 123    -0.128314652465E+04   -0.15801E-04   -0.31299E-04 10640   0.149E-02 0.150E-02
CGA: 124    -0.128314654028E+04   -0.15633E-04   -0.30649E-04 10640   0.148E-02 0.149E-02
CGA: 125    -0.128314655575E+04   -0.15466E-04   -0.30020E-04 10640   0.147E-02 0.147E-02
CGA: 126    -0.128314657105E+04   -0.15303E-04   -0.29411E-04 10640   0.146E-02 0.146E-02
CGA: 127    -0.128314658619E+04   -0.15142E-04   -0.28821E-04 10640   0.145E-02 0.145E-02
CGA: 128    -0.128314660117E+04   -0.14983E-04   -0.28249E-04 10640   0.144E-02 0.144E-02
CGA: 129    -0.128314661600E+04   -0.14828E-04   -0.27695E-04 10640   0.143E-02 0.143E-02
CGA: 130    -0.128314663068E+04   -0.14674E-04   -0.27157E-04 10640   0.142E-02 0.142E-02
CGA: 131    -0.128314664520E+04   -0.14523E-04   -0.26636E-04 10640   0.141E-02 0.141E-02
CGA: 132    -0.128314665957E+04   -0.14373E-04   -0.26129E-04 10640   0.140E-02 0.140E-02
CGA: 133    -0.128314667380E+04   -0.14227E-04   -0.25639E-04 10640   0.139E-02 0.139E-02
CGA: 134    -0.128314668788E+04   -0.14082E-04   -0.25162E-04 10640   0.138E-02 0.139E-02
CGA: 135    -0.128314670182E+04   -0.13941E-04   -0.24699E-04 10640   0.137E-02 0.138E-02
CGA: 136    -0.128314671562E+04   -0.13800E-04   -0.24250E-04 10640   0.136E-02 0.137E-02
CGA: 137    -0.128314672928E+04   -0.13663E-04   -0.23814E-04 10640   0.135E-02 0.136E-02
CGA: 138    -0.128314674281E+04   -0.13527E-04   -0.23389E-04 10640   0.135E-02 0.135E-02
CGA: 139    -0.128314675621E+04   -0.13394E-04   -0.22977E-04 10640   0.134E-02 0.134E-02
CGA: 140    -0.128314676947E+04   -0.13263E-04   -0.22576E-04 10640   0.133E-02 0.133E-02
CGA: 141    -0.128314678260E+04   -0.13133E-04   -0.22187E-04 10640   0.132E-02 0.133E-02
CGA: 142    -0.128314679561E+04   -0.13005E-04   -0.21808E-04 10640   0.132E-02 0.132E-02
CGA: 143    -0.128314680849E+04   -0.12880E-04   -0.21439E-04 10640   0.131E-02 0.131E-02
CGA: 144    -0.128314682124E+04   -0.12757E-04   -0.21080E-04 10640   0.130E-02 0.130E-02
CGA: 145    -0.128314683388E+04   -0.12634E-04   -0.20731E-04 10640   0.129E-02 0.130E-02
CGA: 146    -0.128314684639E+04   -0.12515E-04   -0.20392E-04 10640   0.129E-02 0.129E-02
CGA: 147    -0.128314685879E+04   -0.12397E-04   -0.20061E-04 10640   0.128E-02 0.128E-02
CGA: 148    -0.128314687107E+04   -0.12281E-04   -0.19739E-04 10640   0.127E-02 0.128E-02
CGA: 149    -0.128314688324E+04   -0.12167E-04   -0.19425E-04 10640   0.127E-02 0.127E-02
CGA: 150    -0.128314689529E+04   -0.12054E-04   -0.19120E-04 10640   0.126E-02 0.126E-02
CGA: 151    -0.128314690723E+04   -0.11944E-04   -0.18823E-04 10640   0.125E-02 0.126E-02
CGA: 152    -0.128314691907E+04   -0.11835E-04   -0.18533E-04 10640   0.125E-02 0.125E-02
CGA: 153    -0.128314693080E+04   -0.11728E-04   -0.18250E-04 10640   0.124E-02 0.125E-02
CGA: 154    -0.128314694242E+04   -0.11623E-04   -0.17975E-04 10640   0.124E-02 0.124E-02
CGA: 155    -0.128314695394E+04   -0.11519E-04   -0.17706E-04 10640   0.123E-02 0.123E-02
CGA: 156    -0.128314696536E+04   -0.11417E-04   -0.17445E-04 10640   0.122E-02 0.123E-02
CGA: 157    -0.128314697667E+04   -0.11318E-04   -0.17189E-04 10640   0.122E-02 0.122E-02
CGA: 158    -0.128314698789E+04   -0.11218E-04   -0.16940E-04 10640   0.121E-02 0.122E-02
CGA: 159    -0.128314699901E+04   -0.11121E-04   -0.16697E-04 10640   0.121E-02 0.121E-02
CGA: 160    -0.128314701004E+04   -0.11026E-04   -0.16461E-04 10640   0.120E-02 0.121E-02
CGA: 161    -0.128314702097E+04   -0.10932E-04   -0.16229E-04 10640   0.120E-02 0.120E-02
CGA: 162    -0.128314703181E+04   -0.10839E-04   -0.16003E-04 10640   0.119E-02 0.119E-02
CGA: 163    -0.128314704256E+04   -0.10749E-04   -0.15784E-04 10640   0.119E-02 0.119E-02
CGA: 164    -0.128314705322E+04   -0.10659E-04   -0.15569E-04 10640   0.118E-02 0.118E-02
CGA: 165    -0.128314706379E+04   -0.10571E-04   -0.15359E-04 10640   0.118E-02 0.118E-02
CGA: 166    -0.128314707427E+04   -0.10485E-04   -0.15154E-04 10640   0.117E-02 0.117E-02
CGA: 167    -0.128314708467E+04   -0.10399E-04   -0.14954E-04 10640   0.117E-02 0.117E-02
CGA: 168    -0.128314709499E+04   -0.10317E-04   -0.14759E-04 10640   0.116E-02 0.116E-02
CGA: 169    -0.128314710522E+04   -0.10234E-04   -0.14568E-04 10640   0.116E-02 0.116E-02
CGA: 170    -0.128314711538E+04   -0.10154E-04   -0.14382E-04 10640   0.115E-02 0.116E-02
CGA: 171    -0.128314712545E+04   -0.10075E-04   -0.14200E-04 10640   0.115E-02 0.115E-02
CGA: 172    -0.128314713545E+04   -0.99957E-05   -0.14022E-04 10640   0.114E-02 0.115E-02
CGA: 173    -0.128314714537E+04   -0.99194E-05   -0.13848E-04 10640   0.114E-02 0.114E-02
CGA: 174    -0.128314715521E+04   -0.98431E-05   -0.13678E-04 10640   0.114E-02 0.114E-02
CGA: 175    -0.128314716498E+04   -0.97695E-05   -0.13513E-04 10640   0.113E-02 0.113E-02
CGA: 176    -0.128314717468E+04   -0.96964E-05   -0.13351E-04 10640   0.113E-02 0.113E-02
CGA: 177    -0.128314718430E+04   -0.96251E-05   -0.13192E-04 10640   0.112E-02 0.112E-02
CGA: 178    -0.128314719386E+04   -0.95543E-05   -0.13037E-04 10640   0.112E-02 0.112E-02
CGA: 179    -0.128314720334E+04   -0.94847E-05   -0.12885E-04 10640   0.111E-02 0.112E-02
CGA: 180    -0.128314721276E+04   -0.94170E-05   -0.12737E-04 10640   0.111E-02 0.111E-02
CGA: 181    -0.128314722211E+04   -0.93496E-05   -0.12592E-04 10640   0.111E-02 0.111E-02
CGA: 182    -0.128314723139E+04   -0.92846E-05   -0.12451E-04 10640   0.110E-02 0.110E-02
CGA: 183    -0.128314724061E+04   -0.92192E-05   -0.12312E-04 10640   0.110E-02 0.110E-02
CGA: 184    -0.128314724977E+04   -0.91559E-05   -0.12177E-04 10640   0.110E-02 0.110E-02
CGA: 185    -0.128314725886E+04   -0.90937E-05   -0.12044E-04 10640   0.109E-02 0.109E-02
CGA: 186    -0.128314726789E+04   -0.90329E-05   -0.11914E-04 10640   0.109E-02 0.109E-02
CGA: 187    -0.128314727686E+04   -0.89714E-05   -0.11787E-04 10640   0.108E-02 0.109E-02
CGA: 188    -0.128314728578E+04   -0.89140E-05   -0.11663E-04 10640   0.108E-02 0.108E-02
CGA: 189    -0.128314729463E+04   -0.88550E-05   -0.11541E-04 10640   0.108E-02 0.108E-02
CGA: 190    -0.128314730343E+04   -0.87974E-05   -0.11423E-04 10640   0.107E-02 0.108E-02
CGA: 191    -0.128314731217E+04   -0.87417E-05   -0.11306E-04 10640   0.107E-02 0.107E-02
CGA: 192    -0.128314732086E+04   -0.86868E-05   -0.11193E-04 10640   0.107E-02 0.107E-02
CGA: 193    -0.128314732949E+04   -0.86336E-05   -0.11081E-04 10640   0.106E-02 0.106E-02
CGA: 194    -0.128314733807E+04   -0.85796E-05   -0.10972E-04 10640   0.106E-02 0.106E-02
CGA: 195    -0.128314734660E+04   -0.85282E-05   -0.10866E-04 10640   0.106E-02 0.106E-02
CGA: 196    -0.128314735508E+04   -0.84771E-05   -0.10761E-04 10640   0.105E-02 0.106E-02
CGA: 197    -0.128314736350E+04   -0.84267E-05   -0.10659E-04 10640   0.105E-02 0.105E-02
CGA: 198    -0.128314737188E+04   -0.83786E-05   -0.10559E-04 10640   0.105E-02 0.105E-02
CGA: 199    -0.128314738021E+04   -0.83293E-05   -0.10461E-04 10640   0.104E-02 0.105E-02
CGA: 200    -0.128314738850E+04   -0.82827E-05   -0.10366E-04 10640   0.104E-02 0.104E-02
   1 F= -.12831474E+04 E0= -.12831474E+04  d E =-.128315E+04  mag=    47.0000
       N       E                     dE             d eps       ncg     rms          ort
SDA:   1    -0.128315247981E+04   -0.50996E-02    0.00000E+00 10640   0.848E-02 0.000E+00
CGA:   2    -0.128315353429E+04   -0.10545E-02   -0.98027E-03 10640   0.413E-02 0.556E-02
CGA:   3    -0.128315443978E+04   -0.90549E-03   -0.83352E-03 10640   0.216E-02 0.274E-02
CGA:   4    -0.128315502186E+04   -0.58208E-03   -0.36813E-03 10640   0.130E-02 0.163E-02
CGA:   5    -0.128315533174E+04   -0.30988E-03   -0.19501E-03 10640   0.962E-03 0.110E-02
CGA:   6    -0.128315552996E+04   -0.19822E-03   -0.12727E-03 10640   0.798E-03 0.869E-03
CGA:   7    -0.128315570020E+04   -0.17024E-03   -0.10931E-03 10640   0.696E-03 0.741E-03
CGA:   8    -0.128315584984E+04   -0.14964E-03   -0.96700E-04 10640   0.630E-03 0.659E-03
CGA:   9    -0.128315600012E+04   -0.15028E-03   -0.96042E-04 10640   0.583E-03 0.604E-03
CGA:  10    -0.128315615258E+04   -0.15246E-03   -0.96712E-04 10640   0.547E-03 0.563E-03
CGA:  11    -0.128315632077E+04   -0.16819E-03   -0.10469E-03 10640   0.516E-03 0.530E-03
CGA:  12    -0.128315650330E+04   -0.18253E-03   -0.11229E-03 10640   0.487E-03 0.501E-03
CGA:  13    -0.128315672309E+04   -0.21980E-03   -0.13183E-03 10640   0.457E-03 0.472E-03
CGA:  14    -0.128315695464E+04   -0.23155E-03   -0.13870E-03 10640   0.428E-03 0.441E-03
CGA:  15    -0.128315746229E+04   -0.50764E-03   -0.27031E-02 10640   0.417E-03 0.388E-03
CGA:  16    -0.128315756090E+04   -0.98617E-04   -0.90983E-04 10640   0.457E-03 0.284E-03
CGA:  17    -0.128315706269E+04    0.49822E-03   -0.30707E-03 10640   0.183E-01-0.109E-02
CGA:  18    -0.128315840048E+04   -0.13378E-02   -0.15674E-02 10640   0.367E-03 0.106E-02
CGA:  19    -0.128315845807E+04   -0.57591E-04   -0.76551E-04 10640   0.391E-03 0.133E-03
CGA:  20    -0.128315899715E+04   -0.53908E-03   -0.34114E-04 10640   0.121E-01-0.419E-03
CGA:  21    -0.128316017878E+04   -0.11816E-02   -0.13715E-02 10640   0.926E-03 0.480E-03
CGA:  22    -0.128316035182E+04   -0.17305E-03   -0.14894E-03 10640   0.136E-03-0.568E-04
CGA:  23    -0.128316040032E+04   -0.48500E-04   -0.54303E-04 10640   0.164E-03 0.423E-04
CGA:  24    -0.128316053916E+04   -0.13883E-03   -0.14406E-03 10640   0.100E-02-0.503E-04
CGA:  25    -0.128316072192E+04   -0.18277E-03   -0.17491E-03 10640   0.194E-02-0.826E-04
CGA:  26    -0.128316092494E+04   -0.20302E-03   -0.20161E-03 10640   0.988E-03-0.910E-04
CGA:  27    -0.128316109407E+04   -0.16913E-03   -0.15990E-03 10640   0.865E-03-0.708E-04
CGA:  28    -0.128316120551E+04   -0.11144E-03   -0.87621E-04 10640   0.212E-03-0.800E-04
CGA:  29    -0.128316122833E+04   -0.22815E-04   -0.21202E-04 10640   0.133E-03-0.655E-05
CGA:  30    -0.128316123387E+04   -0.55499E-05   -0.16897E-04 10640   0.912E-04 0.325E-04
   2 F= -.12831612E+04 E0= -.12831612E+04  d E =-.138454E-01  mag=    47.0000
       N       E                     dE             d eps       ncg     rms          ort
SDA:   1    -0.128298628819E+04    0.17494E+00    0.00000E+00 10640   0.738E+00 0.000E+00
CGA:   2    -0.128313583455E+04   -0.14955E+00   -0.14933E+00 10640   0.287E+00-0.861E-03
CGA:   3    -0.128320665615E+04   -0.70822E-01   -0.70753E-01 10640   0.768E-01-0.532E-03
CGA:   4    -0.128321868941E+04   -0.12033E-01   -0.11781E-01 10640   0.127E-01-0.992E-03
CGA:   5    -0.128322097411E+04   -0.22847E-02   -0.23465E-02 10640   0.354E-02 0.308E-03
CGA:   6    -0.128322175904E+04   -0.78494E-03   -0.73304E-03 10640   0.137E-02-0.279E-03
CGA:   7    -0.128322195265E+04   -0.19360E-03   -0.21618E-03 10640   0.289E-03 0.111E-03
CGA:   8    -0.128322206385E+04   -0.11120E-03   -0.10954E-03 10640   0.229E-03-0.100E-03
CGA:   9    -0.128321969020E+04    0.23736E-02   -0.12903E-02 10640   0.139E-01-0.138E-02
CGA:  10    -0.128322145172E+04   -0.17615E-02   -0.19116E-02 10640   0.281E-02 0.364E-03
CGA:  11    -0.128322205706E+04   -0.60534E-03   -0.60901E-03 10640   0.109E-02 0.106E-04
CGA:  12    -0.128322237527E+04   -0.31821E-03   -0.31286E-03 10640   0.476E-03-0.145E-04
CGA:  13    -0.128322240183E+04   -0.26566E-04   -0.74308E-04 10640   0.162E-03 0.108E-03
CGA:  14    -0.128322244886E+04   -0.47022E-04   -0.55470E-04 10640   0.636E-04 0.279E-04
CGA:  15    -0.128322245701E+04   -0.81588E-05   -0.12543E-04 10640   0.251E-04 0.111E-04
   3 F= -.12832225E+04 E0= -.12832225E+04  d E =-.612231E-01  mag=    47.0000
       N       E                     dE             d eps       ncg     rms          ort
SDA:   1    -0.126744136256E+04    0.15781E+02    0.00000E+00 10640   0.487E+02 0.000E+00
CGA:   2    -0.127760010047E+04   -0.10159E+02   -0.10191E+02 10640   0.196E+02 0.360E-01
CGA:   3    -0.128237662994E+04   -0.47765E+01   -0.47793E+01 10640   0.473E+01 0.180E-01
CGA:   4    -0.128312608801E+04   -0.74946E+00   -0.75120E+00 10640   0.730E+00-0.191E-02
CGA:   5    -0.128328456752E+04   -0.15848E+00   -0.15854E+00 10640   0.172E+00 0.543E-03
CGA:   6    -0.128332451421E+04   -0.39947E-01   -0.39741E-01 10640   0.531E-01-0.975E-03
CGA:   7    -0.128333541031E+04   -0.10896E-01   -0.10691E-01 10640   0.176E-01-0.703E-03
CGA:   8    -0.128333986693E+04   -0.44566E-02   -0.42361E-02 10640   0.867E-02-0.113E-02
CGA:   9    -0.128334242679E+04   -0.25599E-02   -0.23731E-02 10640   0.545E-02-0.135E-02
CGA:  10    -0.128334374676E+04   -0.13200E-02   -0.11704E-02 10640   0.310E-02-0.881E-03
CGA:  11    -0.128334474709E+04   -0.10003E-02   -0.89087E-03 10640   0.318E-02-0.151E-02
CGA:  12    -0.128334531469E+04   -0.56759E-03   -0.41014E-03 10640   0.194E-02-0.986E-03
CGA:  13    -0.128334579138E+04   -0.47669E-03   -0.85619E-03 10640   0.421E-02-0.162E-02
CGA:  14    -0.128334654965E+04   -0.75827E-03   -0.75207E-03 10640   0.140E-02-0.229E-04
CGA:  15    -0.128334671393E+04   -0.16428E-03   -0.23291E-03 10640   0.354E-03 0.292E-03
CGA:  16    -0.128334675195E+04   -0.38018E-04   -0.82258E-04 10640   0.235E-03 0.221E-03
CGA:  17    -0.128334678309E+04   -0.31135E-04   -0.44087E-04 10640   0.157E-03 0.668E-04
CGA:  18    -0.128334677784E+04    0.52427E-05   -0.29090E-04 10640   0.980E-04 0.150E-03
CGA:  19    -0.128334677030E+04    0.75394E-05   -0.10223E-04 10640   0.659E-04 0.692E-04
   4 F= -.12833468E+04 E0= -.12833468E+04  d E =-.124313E+00  mag=    47.0000
       N       E                     dE             d eps       ncg     rms          ort
SDA:   1    -0.128258606705E+04    0.76071E+00    0.00000E+00 10640   0.259E+01 0.000E+00
CGA:   2    -0.128309108186E+04   -0.50501E+00   -0.50516E+00 10640   0.951E+00 0.142E-02
CGA:   3    -0.128333163919E+04   -0.24056E+00   -0.24066E+00 10640   0.263E+00 0.705E-03
CGA:   4    -0.128337160224E+04   -0.39963E-01   -0.40289E-01 10640   0.395E-01 0.208E-02
CGA:   5    -0.128337983474E+04   -0.82325E-02   -0.82204E-02 10640   0.109E-01-0.933E-04
CGA:   6    -0.128338184469E+04   -0.20099E-02   -0.20605E-02 10640   0.342E-02 0.431E-03
CGA:   7    -0.128338257119E+04   -0.72651E-03   -0.72060E-03 10640   0.978E-03-0.528E-04
CGA:   8    -0.128338276195E+04   -0.19076E-03   -0.20005E-03 10640   0.350E-03 0.101E-03
CGA:   9    -0.128338282157E+04   -0.59615E-04   -0.73695E-04 10640   0.127E-03 0.135E-03
CGA:  10    -0.128338284057E+04   -0.19005E-04   -0.30319E-04 10640   0.619E-04 0.958E-04
CGA:  11    -0.128338284257E+04   -0.20012E-05   -0.85558E-05 10640   0.404E-04 0.448E-04
   5 F= -.12833828E+04 E0= -.12833828E+04  d E =-.360723E-01  mag=    47.0000
       N       E                     dE             d eps       ncg     rms          ort
SDA:   1    -0.128250639853E+04    0.87644E+00    0.00000E+00 10640   0.236E+01 0.000E+00
CGA:   2    -0.128310379292E+04   -0.59739E+00   -0.59740E+00 10640   0.111E+01 0.156E-03
CGA:   3    -0.128335019425E+04   -0.24640E+00   -0.24635E+00 10640   0.191E+00-0.151E-02
CGA:   4    -0.128338118457E+04   -0.30990E-01   -0.31041E-01 10640   0.391E-01 0.527E-03
CGA:   5    -0.128338885658E+04   -0.76720E-02   -0.76673E-02 10640   0.104E-01-0.476E-04
CGA:   6    -0.128339077339E+04   -0.19168E-02   -0.19361E-02 10640   0.331E-02 0.283E-03
CGA:   7    -0.128339152923E+04   -0.75584E-03   -0.74750E-03 10640   0.104E-02-0.238E-03
CGA:   8    -0.128339173992E+04   -0.21068E-03   -0.21176E-03 10640   0.418E-03 0.339E-04
CGA:   9    -0.128339186041E+04   -0.12049E-03   -0.12183E-03 10640   0.258E-03-0.421E-04
CGA:  10    -0.128339191003E+04   -0.49621E-04   -0.50010E-04 10640   0.101E-03 0.108E-04
CGA:  11    -0.128339194611E+04   -0.36083E-04   -0.41042E-04 10640   0.835E-04-0.353E-04
CGA:  12    -0.128339195588E+04   -0.97678E-05   -0.10189E-04 10640   0.478E-04 0.601E-05
CGA:  13    -0.128339197207E+04   -0.16187E-04   -0.16177E-04 10640   0.373E-04-0.801E-07
CGA:  14    -0.128339197962E+04   -0.75561E-05   -0.80068E-05 10640   0.337E-04 0.104E-04
   6 F= -.12833920E+04 E0= -.12833920E+04  d E =-.913705E-02  mag=    47.0000
       N       E                     dE             d eps       ncg     rms          ort
SDA:   1    -0.123959902523E+04    0.43793E+02    0.00000E+00 10640   0.117E+03 0.000E+00
CGA:   2    -0.126914062180E+04   -0.29542E+02   -0.29542E+02 10640   0.546E+02 0.528E-01
CGA:   3    -0.128127125007E+04   -0.12131E+02   -0.12129E+02 10640   0.927E+01-0.330E-01
CGA:   4    -0.128279994670E+04   -0.15287E+01   -0.15331E+01 10640   0.189E+01-0.519E-02
CGA:   5    -0.128317456722E+04   -0.37462E+00   -0.37467E+00 10640   0.476E+00 0.108E-01
CGA:   6    -0.128327514739E+04   -0.10058E+00   -0.10032E+00 10640   0.169E+00-0.868E-02
CGA:   7    -0.128330787677E+04   -0.32729E-01   -0.32573E-01 10640   0.479E-01-0.284E-02
CGA:   8    -0.128332067445E+04   -0.12798E-01   -0.13028E-01 10640   0.267E-01-0.626E-02
CGA:   9    -0.128332612854E+04   -0.54541E-02   -0.54352E-02 10640   0.135E-01-0.236E-02
CGA:  10    -0.128332957963E+04   -0.34511E-02   -0.37735E-02 10640   0.967E-02-0.494E-02
CGA:  11    -0.128333086600E+04   -0.12864E-02   -0.11963E-02 10640   0.349E-02-0.178E-02
CGA:  12    -0.128333158455E+04   -0.71856E-03   -0.13574E-02 10640   0.510E-02-0.273E-02
CGA:  13    -0.128333249279E+04   -0.90824E-03   -0.90453E-03 10640   0.155E-02-0.385E-04
CGA:  14    -0.128333272068E+04   -0.22789E-03   -0.24913E-03 10640   0.437E-03 0.243E-03
CGA:  15    -0.128333292698E+04   -0.20630E-03   -0.19097E-03 10640   0.401E-03 0.115E-03
CGA:  16    -0.128333304489E+04   -0.11791E-03   -0.11801E-03 10640   0.290E-03 0.523E-05
CGA:  17    -0.128333312004E+04   -0.75149E-04   -0.74870E-04 10640   0.149E-03 0.866E-04
CGA:  18    -0.128333239570E+04    0.72434E-03   -0.39214E-03 10640   0.809E-02-0.756E-03
CGA:  19    -0.128333329070E+04   -0.89500E-03   -0.94511E-03 10640   0.577E-03 0.207E-03
CGA:  20    -0.128333348867E+04   -0.19797E-03   -0.19404E-03 10640   0.352E-03-0.341E-04
CGA:  21    -0.128333363317E+04   -0.14450E-03   -0.11771E-03 10640   0.809E-03-0.332E-03
CGA:  22    -0.128333367018E+04   -0.37013E-04   -0.79207E-04 10640   0.969E-04 0.129E-03
CGA:  23    -0.128333369233E+04   -0.22151E-04   -0.24687E-04 10640   0.658E-04 0.130E-04
CGA:  24    -0.128333172027E+04    0.19721E-02   -0.10823E-02 10640   0.143E-01-0.982E-03
CGA:  25    -0.128333314101E+04   -0.14207E-02   -0.16646E-02 10640   0.222E-02 0.585E-03
CGA:  26    -0.128333378281E+04   -0.64180E-03   -0.63425E-03 10640   0.491E-03-0.156E-04
CGA:  27    -0.128333387818E+04   -0.95366E-04   -0.76025E-04 10640   0.811E-04-0.360E-04
CGA:  28    -0.128333387483E+04    0.33487E-05   -0.14466E-04 10640   0.317E-04 0.381E-04
   7 F= -.12833339E+04 E0= -.12833339E+04  d E =0.581048E-01  mag=    47.0000
       N       E                     dE             d eps       ncg     rms          ort
SDA:   1    -0.125736113635E+04    0.25973E+02    0.00000E+00 10640   0.724E+02 0.000E+00
CGA:   2    -0.127438161888E+04   -0.17020E+02   -0.17054E+02 10640   0.328E+02 0.164E+00
CGA:   3    -0.128184458008E+04   -0.74630E+01   -0.74566E+01 10640   0.666E+01 0.156E+00
CGA:   4    -0.128288578360E+04   -0.10412E+01   -0.10389E+01 10640   0.125E+01 0.263E-01
CGA:   5    -0.128312970406E+04   -0.24392E+00   -0.24400E+00 10640   0.352E+00 0.462E-02
CGA:   6    -0.128319578747E+04   -0.66083E-01   -0.65423E-01 10640   0.113E+00 0.195E-03
CGA:   7    -0.128321991737E+04   -0.24130E-01   -0.23690E-01 10640   0.316E-01-0.170E-02
CGA:   8    -0.128322742752E+04   -0.75101E-02   -0.72985E-02 10640   0.145E-01-0.649E-03
CGA:   9    -0.128323147303E+04   -0.40455E-02   -0.37218E-02 10640   0.840E-02-0.142E-02
CGA:  10    -0.128323358321E+04   -0.21102E-02   -0.19187E-02 10640   0.392E-02-0.820E-03
CGA:  11    -0.128323481106E+04   -0.12279E-02   -0.10554E-02 10640   0.276E-02-0.101E-02
CGA:  12    -0.128323544283E+04   -0.63177E-03   -0.48596E-03 10640   0.159E-02-0.652E-03
CGA:  13    -0.128323600089E+04   -0.55806E-03   -0.57030E-03 10640   0.216E-02-0.652E-03
CGA:  14    -0.128323649341E+04   -0.49252E-03   -0.39688E-03 10640   0.225E-02-0.697E-03
CGA:  15    -0.128323717987E+04   -0.68646E-03   -0.69556E-03 10640   0.194E-02-0.704E-03
CGA:  16    -0.128323756110E+04   -0.38123E-03   -0.36206E-03 10640   0.126E-02-0.127E-03
CGA:  17    -0.128323783105E+04   -0.26995E-03   -0.28166E-03 10640   0.506E-03 0.514E-04
CGA:  18    -0.128323787757E+04   -0.46522E-04   -0.10246E-03 10640   0.233E-03 0.240E-03
CGA:  19    -0.128323788561E+04   -0.80346E-05   -0.58052E-04 10640   0.129E-03 0.203E-03
CGA:  20    -0.128323788652E+04   -0.91564E-06   -0.21387E-04 10640   0.907E-04 0.865E-04
   8 F= -.12832379E+04 E0= -.12832379E+04  d E =0.959883E-01  mag=    47.0000
       N       E                     dE             d eps       ncg     rms          ort
SDA:   1    -0.128053393395E+04    0.27040E+01    0.00000E+00 10640   0.834E+01 0.000E+00
CGA:   2    -0.128230494770E+04   -0.17710E+01   -0.17712E+01 10640   0.353E+01 0.516E-02
CGA:   3    -0.128314080763E+04   -0.83586E+00   -0.83595E+00 10640   0.921E+00-0.196E-02
CGA:   4    -0.128327424236E+04   -0.13343E+00   -0.13371E+00 10640   0.155E+00 0.358E-02
CGA:   5    -0.128330375988E+04   -0.29518E-01   -0.29476E-01 10640   0.436E-01 0.151E-04
CGA:   6    -0.128331217038E+04   -0.84105E-02   -0.84074E-02 10640   0.128E-01-0.181E-04
CGA:   7    -0.128331487904E+04   -0.27087E-02   -0.27173E-02 10640   0.345E-02 0.887E-04
CGA:   8    -0.128331570771E+04   -0.82867E-03   -0.81603E-03 10640   0.171E-02-0.130E-03
CGA:   9    -0.128331605971E+04   -0.35200E-03   -0.35873E-03 10640   0.734E-03 0.661E-04
CGA:  10    -0.128331626856E+04   -0.20885E-03   -0.21087E-03 10640   0.331E-03 0.483E-04
CGA:  11    -0.128331639172E+04   -0.12316E-03   -0.12568E-03 10640   0.341E-03-0.637E-04
CGA:  12    -0.128331642232E+04   -0.30608E-04   -0.40752E-04 10640   0.137E-03 0.594E-04
CGA:  13    -0.128331644647E+04   -0.24150E-04   -0.30889E-04 10640   0.125E-03 0.564E-04
CGA:  14    -0.128331648855E+04   -0.42078E-04   -0.42741E-04 10640   0.941E-04 0.990E-05
CGA:  15    -0.128331651748E+04   -0.28924E-04   -0.29369E-04 10640   0.904E-04 0.360E-04
CGA:  16    -0.128331653374E+04   -0.16266E-04   -0.23431E-04 10640   0.573E-04 0.624E-04
CGA:  17    -0.128331655483E+04   -0.21084E-04   -0.25317E-04 10640   0.158E-03-0.290E-04
CGA:  18    -0.128331656375E+04   -0.89251E-05   -0.13745E-04 10640   0.144E-04 0.228E-04
   9 F= -.12833166E+04 E0= -.12833166E+04  d E =-.786772E-01  mag=    47.0000
       N       E                     dE             d eps       ncg     rms          ort
SDA:   1    -0.128176344843E+04    0.15531E+01    0.00000E+00 10640   0.430E+01 0.000E+00
CGA:   2    -0.128278743277E+04   -0.10240E+01   -0.10241E+01 10640   0.200E+01 0.275E-02
CGA:   3    -0.128323580288E+04   -0.44837E+00   -0.44825E+00 10640   0.425E+00-0.288E-02
CGA:   4    -0.128329800622E+04   -0.62203E-01   -0.62376E-01 10640   0.821E-01 0.192E-02
CGA:   5    -0.128331369413E+04   -0.15688E-01   -0.15623E-01 10640   0.227E-01-0.672E-03
CGA:   6    -0.128331793684E+04   -0.42427E-02   -0.42589E-02 10640   0.647E-02 0.215E-03
CGA:   7    -0.128331940158E+04   -0.14647E-02   -0.14580E-02 10640   0.189E-02-0.147E-03
CGA:   8    -0.128331983013E+04   -0.42854E-03   -0.42515E-03 10640   0.966E-03-0.950E-04
CGA:   9    -0.128332004561E+04   -0.21549E-03   -0.21418E-03 10640   0.457E-03-0.430E-04
CGA:  10    -0.128332017693E+04   -0.13132E-03   -0.13405E-03 10640   0.276E-03-0.597E-04
CGA:  11    -0.128332024756E+04   -0.70620E-04   -0.91110E-04 10640   0.487E-03-0.177E-03
CGA:  12    -0.128332028322E+04   -0.35663E-04   -0.46807E-04 10640   0.757E-04 0.654E-04
CGA:  13    -0.128332030608E+04   -0.22863E-04   -0.22768E-04 10640   0.614E-04 0.230E-04
CGA:  14    -0.128332032962E+04   -0.23544E-04   -0.28576E-04 10640   0.199E-03-0.527E-04
CGA:  15    -0.128332034182E+04   -0.12191E-04   -0.18517E-04 10640   0.332E-04 0.370E-04
CGA:  16    -0.128332035145E+04   -0.96325E-05   -0.97381E-05 10640   0.374E-04 0.105E-04
CGA:  17    -0.128332035311E+04   -0.16588E-05   -0.29483E-04 10640   0.333E-03-0.817E-04
CGA:  18    -0.128332037848E+04   -0.25377E-04   -0.34372E-04 10640   0.628E-04 0.535E-04
CGA:  19    -0.128332039693E+04   -0.18446E-04   -0.18574E-04 10640   0.280E-04 0.120E-04
CGA:  20    -0.128332039735E+04   -0.42330E-06   -0.16113E-04 10640   0.287E-03-0.718E-04
CGA:  21    -0.128332041332E+04   -0.15970E-04   -0.24468E-04 10640   0.234E-04 0.453E-04
CGA:  22    -0.128332041593E+04   -0.26037E-05   -0.38960E-05 10640   0.185E-04 0.106E-04
CGA:  23    -0.128332041714E+04   -0.12157E-05   -0.19553E-04 10640   0.875E-04-0.397E-04
CGA:  24    -0.128332043509E+04   -0.17949E-04   -0.19163E-04 10640   0.377E-04 0.189E-04
CGA:  25    -0.128332044782E+04   -0.12729E-04   -0.12647E-04 10640   0.288E-04-0.184E-04
CGA:  26    -0.128332044856E+04   -0.73627E-06   -0.15266E-05 10640   0.151E-04 0.448E-05
  10 F= -.12833204E+04 E0= -.12833204E+04  d E =-.388481E-02  mag=    47.0000
       N       E                     dE             d eps       ncg     rms          ort
SDA:   1    -0.127625544622E+04    0.70650E+01    0.00000E+00 10640   0.186E+02 0.000E+00
CGA:   2    -0.128103867611E+04   -0.47832E+01   -0.47832E+01 10640   0.879E+01 0.660E-03
CGA:   3    -0.128297907076E+04   -0.19404E+01   -0.19403E+01 10640   0.143E+01-0.627E-02
CGA:   4    -0.128321530980E+04   -0.23624E+00   -0.23638E+00 10640   0.299E+00 0.190E-02
CGA:   5    -0.128327357865E+04   -0.58269E-01   -0.58178E-01 10640   0.830E-01-0.137E-02
CGA:   6    -0.128328850102E+04   -0.14922E-01   -0.14970E-01 10640   0.279E-01 0.801E-03
CGA:   7    -0.128329444382E+04   -0.59428E-02   -0.58821E-02 10640   0.785E-02-0.149E-02
CGA:   8    -0.128329627264E+04   -0.18288E-02   -0.18286E-02 10640   0.358E-02-0.331E-03
CGA:   9    -0.128329717948E+04   -0.90684E-03   -0.92187E-03 10640   0.253E-02-0.668E-03
CGA:  10    -0.128329768040E+04   -0.50092E-03   -0.49764E-03 10640   0.115E-02-0.575E-03
CGA:  11    -0.128329792332E+04   -0.24292E-03   -0.35517E-03 10640   0.146E-02-0.741E-03
CGA:  12    -0.128329807596E+04   -0.15264E-03   -0.16378E-03 10640   0.294E-03 0.808E-04
CGA:  13    -0.128329818177E+04   -0.10582E-03   -0.10923E-03 10640   0.152E-03-0.330E-04
CGA:  14    -0.128329821958E+04   -0.37801E-04   -0.37022E-04 10640   0.863E-04 0.380E-04
CGA:  15    -0.128329779069E+04    0.42889E-03   -0.23211E-03 10640   0.358E-02-0.451E-03
CGA:  16    -0.128329820672E+04   -0.41603E-03   -0.47435E-03 10640   0.652E-03 0.185E-03
CGA:  17    -0.128329833477E+04   -0.12805E-03   -0.13772E-03 10640   0.122E-03 0.398E-04
CGA:  18    -0.128329838755E+04   -0.52775E-04   -0.67264E-04 10640   0.693E-03-0.168E-03
CGA:  19    -0.128329841237E+04   -0.24825E-04   -0.63570E-04 10640   0.503E-04 0.114E-03
CGA:  20    -0.128329841161E+04    0.76262E-06   -0.64416E-05 10640   0.245E-04 0.232E-04
CGA:  21    -0.128329842228E+04   -0.10674E-04   -0.10288E-04 10640   0.289E-04-0.330E-05
CGA:  22    -0.128329840502E+04    0.17262E-04   -0.18610E-04 10640   0.374E-03-0.104E-03
CGA:  23    -0.128329842983E+04   -0.24812E-04   -0.48289E-04 10640   0.787E-04 0.823E-04
CGA:  24    -0.128329844687E+04   -0.17043E-04   -0.21175E-04 10640   0.232E-04 0.226E-04
CGA:  25    -0.128329761305E+04    0.83383E-03   -0.45894E-03 10640   0.655E-02-0.420E-03
CGA:  26    -0.128329827083E+04   -0.65778E-03   -0.79501E-03 10640   0.486E-03 0.274E-03
CGA:  27    -0.128329845761E+04   -0.18678E-03   -0.18447E-03 10640   0.873E-04-0.700E-05
CGA:  28    -0.128329849343E+04   -0.35822E-04   -0.16651E-04 10640   0.337E-04-0.397E-04
CGA:  29    -0.128329849336E+04    0.72512E-07   -0.35275E-05 10640   0.955E-05 0.794E-05
  11 F= -.12832985E+04 E0= -.12832985E+04  d E =0.219552E-01  mag=    47.0000
       N       E                     dE             d eps       ncg     rms          ort
SDA:   1    -0.125206667254E+04    0.31232E+02    0.00000E+00 10640   0.837E+02 0.000E+00
CGA:   2    -0.127301013327E+04   -0.20943E+02   -0.20981E+02 10640   0.393E+02 0.103E+00
CGA:   3    -0.128168455870E+04   -0.86744E+01   -0.86614E+01 10640   0.717E+01 0.205E+00
CGA:   4    -0.128282142633E+04   -0.11369E+01   -0.11406E+01 10640   0.147E+01-0.750E-02
CGA:   5    -0.128309946500E+04   -0.27804E+00   -0.27783E+00 10640   0.408E+00 0.910E-02
CGA:   6    -0.128317600689E+04   -0.76542E-01   -0.75659E-01 10640   0.134E+00-0.734E-04
CGA:   7    -0.128320440064E+04   -0.28394E-01   -0.27837E-01 10640   0.384E-01-0.255E-02
CGA:   8    -0.128321322424E+04   -0.88236E-02   -0.85464E-02 10640   0.175E-01-0.812E-03
CGA:   9    -0.128321807765E+04   -0.48534E-02   -0.44600E-02 10640   0.968E-02-0.184E-02
CGA:  10    -0.128322045502E+04   -0.23774E-02   -0.21510E-02 10640   0.429E-02-0.996E-03
CGA:  11    -0.128322172911E+04   -0.12741E-02   -0.10615E-02 10640   0.271E-02-0.117E-02
CGA:  12    -0.128322233744E+04   -0.60832E-03   -0.43806E-03 10640   0.134E-02-0.746E-03
CGA:  13    -0.128322276885E+04   -0.43141E-03   -0.44515E-03 10640   0.195E-02-0.722E-03
CGA:  14    -0.128322307691E+04   -0.30806E-03   -0.27358E-03 10640   0.686E-03-0.111E-03
CGA:  15    -0.128322324952E+04   -0.17261E-03   -0.17877E-03 10640   0.242E-03 0.416E-04
CGA:  16    -0.128322329584E+04   -0.46320E-04   -0.63113E-04 10640   0.157E-03 0.983E-04
CGA:  17    -0.128322341067E+04   -0.11483E-03   -0.14243E-03 10640   0.594E-03-0.118E-03
CGA:  18    -0.128322344405E+04   -0.33383E-04   -0.68412E-04 10640   0.116E-03 0.117E-03
CGA:  19    -0.128322350125E+04   -0.57193E-04   -0.57662E-04 10640   0.152E-03-0.456E-04
CGA:  20    -0.128322359977E+04   -0.98529E-04    0.59632E-04 10640   0.467E-03-0.102E-03
CGA:  21    -0.128322362427E+04   -0.24498E-04   -0.58800E-04 10640   0.117E-03 0.124E-03
CGA:  22    -0.128322366504E+04   -0.40765E-04   -0.40878E-04 10640   0.497E-04 0.679E-06
CGA:  23    -0.128322373024E+04   -0.65202E-04    0.13900E-04 10640   0.157E-03-0.225E-04
CGA:  24    -0.128322381705E+04   -0.86814E-04    0.52844E-04 10640   0.442E-03-0.434E-04
CGA:  25    -0.128322385710E+04   -0.40047E-04   -0.38011E-04 10640   0.245E-03-0.189E-04
CGA:  26    -0.128322387824E+04   -0.21137E-04   -0.30861E-04 10640   0.252E-03 0.355E-04
CGA:  27    -0.128322397865E+04   -0.10042E-03   -0.98079E-04 10640   0.351E-03-0.132E-03
CGA:  28    -0.128322409362E+04   -0.11497E-03   -0.83722E-04 10640   0.363E-03-0.257E-03
CGA:  29    -0.128322409376E+04   -0.14233E-06   -0.29331E-04 10640   0.405E-04 0.108E-03
  12 F= -.12832241E+04 E0= -.12832241E+04  d E =0.743996E-01  mag=    47.0000
       N       E                     dE             d eps       ncg     rms          ort
SDA:   1    -0.127662251235E+04    0.66016E+01    0.00000E+00 10640   0.188E+02 0.000E+00
CGA:   2    -0.128093944816E+04   -0.43169E+01   -0.43177E+01 10640   0.855E+01 0.655E-02
CGA:   3    -0.128289324830E+04   -0.19538E+01   -0.19539E+01 10640   0.190E+01-0.451E-02
CGA:   4    -0.128317180136E+04   -0.27855E+00   -0.27858E+00 10640   0.358E+00 0.588E-02
CGA:   5    -0.128323864449E+04   -0.66843E-01   -0.66722E-01 10640   0.101E+00-0.279E-03
CGA:   6    -0.128325767036E+04   -0.19026E-01   -0.19066E-01 10640   0.290E-01 0.352E-03
CGA:   7    -0.128326409038E+04   -0.64200E-02   -0.63888E-02 10640   0.807E-02-0.373E-03
CGA:   8    -0.128326592214E+04   -0.18318E-02   -0.18077E-02 10640   0.394E-02-0.361E-03
CGA:   9    -0.128326676660E+04   -0.84447E-03   -0.83643E-03 10640   0.175E-02-0.115E-03
CGA:  10    -0.128326724759E+04   -0.48099E-03   -0.48071E-03 10640   0.884E-03-0.162E-03
CGA:  11    -0.128326747667E+04   -0.22907E-03   -0.22932E-03 10640   0.722E-03-0.273E-03
CGA:  12    -0.128326755964E+04   -0.82971E-04   -0.83038E-04 10640   0.214E-03 0.147E-05
CGA:  13    -0.128326761925E+04   -0.59611E-04   -0.59639E-04 10640   0.206E-03 0.181E-04
CGA:  14    -0.128326766711E+04   -0.47859E-04   -0.46493E-04 10640   0.145E-03-0.197E-04
CGA:  15    -0.128326768990E+04   -0.22798E-04   -0.26965E-04 10640   0.987E-04 0.591E-04
CGA:  16    -0.128326770569E+04   -0.15787E-04   -0.22702E-04 10640   0.643E-04 0.632E-04
CGA:  17    -0.128326772288E+04   -0.17184E-04   -0.17192E-04 10640   0.965E-04-0.106E-04
CGA:  18    -0.128326772800E+04   -0.51249E-05   -0.10844E-04 10640   0.493E-04 0.431E-04
  13 F= -.12832677E+04 E0= -.12832677E+04  d E =-.436342E-01  mag=    47.0000
       N       E                     dE             d eps       ncg     rms          ort
SDA:   1    -0.128135072647E+04    0.19170E+01    0.00000E+00 10640   0.503E+01 0.000E+00
CGA:   2    -0.128265296740E+04   -0.13022E+01   -0.13022E+01 10640   0.238E+01-0.442E-03
CGA:   3    -0.128318030121E+04   -0.52733E+00   -0.52733E+00 10640   0.370E+00-0.134E-02
CGA:   4    -0.128324358743E+04   -0.63286E-01   -0.63224E-01 10640   0.757E-01-0.806E-03
CGA:   5    -0.128325870928E+04   -0.15122E-01   -0.15142E-01 10640   0.189E-01 0.475E-03
CGA:   6    -0.128326249918E+04   -0.37899E-02   -0.37842E-02 10640   0.741E-02-0.112E-03
CGA:   7    -0.128326383611E+04   -0.13369E-02   -0.13215E-02 10640   0.206E-02-0.239E-03
CGA:   8    -0.128326430277E+04   -0.46666E-03   -0.46684E-03 10640   0.758E-03 0.432E-04
CGA:   9    -0.128326453872E+04   -0.23595E-03   -0.36839E-03 10640   0.159E-02-0.555E-03
CGA:  10    -0.128326465849E+04   -0.11978E-03   -0.15458E-03 10640   0.224E-03 0.232E-03
CGA:  11    -0.128326471477E+04   -0.56274E-04   -0.56622E-04 10640   0.845E-04 0.163E-04
CGA:  12    -0.128326476863E+04   -0.53863E-04    0.46961E-04 10640   0.107E-03-0.320E-04
CGA:  13    -0.128326478611E+04   -0.17474E-04   -0.19306E-04 10640   0.101E-03-0.374E-04
CGA:  14    -0.128326478566E+04    0.44695E-06   -0.50659E-05 10640   0.754E-04 0.331E-04
CGA:  15    -0.128326479121E+04   -0.55509E-05   -0.11045E-04 10640   0.572E-04 0.438E-04
CGA:  16    -0.128326483303E+04   -0.41821E-04    0.10954E-04 10640   0.488E-04-0.155E-05
CGA:  17    -0.128326483458E+04   -0.15519E-05   -0.51116E-05 10640   0.219E-04 0.293E-04
  14 F= -.12832648E+04 E0= -.12832648E+04  d E =0.289342E-02  mag=    47.0000
       N       E                     dE             d eps       ncg     rms          ort
SDA:   1    -0.124125162185E+04    0.42013E+02    0.00000E+00 10640   0.111E+03 0.000E+00
CGA:   2    -0.126983322920E+04   -0.28582E+02   -0.28581E+02 10640   0.524E+02-0.113E-01
CGA:   3    -0.128132033333E+04   -0.11487E+02   -0.11487E+02 10640   0.857E+01-0.166E-01
CGA:   4    -0.128273478465E+04   -0.14145E+01   -0.14160E+01 10640   0.183E+01-0.623E-02
CGA:   5    -0.128308316091E+04   -0.34838E+00   -0.34847E+00 10640   0.502E+00 0.117E-01
CGA:   6    -0.128317871094E+04   -0.95550E-01   -0.95347E-01 10640   0.183E+00-0.836E-02
CGA:   7    -0.128321428161E+04   -0.35571E-01   -0.35486E-01 10640   0.523E-01-0.622E-02
CGA:   8    -0.128322597952E+04   -0.11698E-01   -0.11763E-01 10640   0.254E-01-0.281E-02
CGA:   9    -0.128323224310E+04   -0.62636E-02   -0.66874E-02 10640   0.183E-01-0.628E-02
CGA:  10    -0.128323532628E+04   -0.30832E-02   -0.31213E-02 10640   0.694E-02-0.325E-02
CGA:  11    -0.128323687685E+04   -0.15506E-02   -0.20915E-02 10640   0.611E-02-0.358E-02
CGA:  12    -0.128323771259E+04   -0.83574E-03   -0.80264E-03 10640   0.179E-02-0.346E-03
CGA:  13    -0.128323813138E+04   -0.41879E-03   -0.42032E-03 10640   0.548E-03-0.485E-04
CGA:  14    -0.128323831993E+04   -0.18856E-03   -0.19652E-03 10640   0.477E-03-0.533E-04
CGA:  15    -0.128323852638E+04   -0.20645E-03    0.92569E-03 10640   0.228E-03-0.724E-04
CGA:  16    -0.128323862887E+04   -0.10249E-03    0.13272E-03 10640   0.888E-04 0.515E-04
CGA:  17    -0.128323866955E+04   -0.40679E-04   -0.51663E-04 10640   0.254E-03-0.450E-04
CGA:  18    -0.128323880613E+04   -0.13658E-03    0.24937E-03 10640   0.319E-03-0.196E-03
CGA:  19    -0.128323880540E+04    0.72940E-06   -0.21181E-04 10640   0.610E-04 0.127E-03
  15 F= -.12832388E+04 E0= -.12832388E+04  d E =0.260292E-01  mag=    47.0000
       N       E                     dE             d eps       ncg     rms          ort
SDA:   1    -0.125055217009E+04    0.32687E+02    0.00000E+00 10640   0.858E+02 0.000E+00
CGA:   2    -0.127282798887E+04   -0.22276E+02   -0.22276E+02 10640   0.408E+02-0.486E-02
CGA:   3    -0.128176144803E+04   -0.89335E+01   -0.89335E+01 10640   0.647E+01-0.131E-01
CGA:   4    -0.128285064001E+04   -0.10892E+01   -0.10897E+01 10640   0.136E+01 0.588E-02
CGA:   5    -0.128311669585E+04   -0.26606E+00   -0.26603E+00 10640   0.380E+00-0.633E-04
CGA:   6    -0.128318518296E+04   -0.68487E-01   -0.68459E-01 10640   0.139E+00-0.346E-03
CGA:   7    -0.128321290372E+04   -0.27721E-01   -0.27599E-01 10640   0.382E-01-0.624E-02
CGA:   8    -0.128322211881E+04   -0.92151E-02   -0.93189E-02 10640   0.185E-01-0.264E-02
CGA:   9    -0.128322633713E+04   -0.42183E-02   -0.43070E-02 10640   0.118E-01-0.275E-02
CGA:  10    -0.128322876905E+04   -0.24319E-02   -0.25286E-02 10640   0.578E-02-0.303E-02
CGA:  11    -0.128322986031E+04   -0.10913E-02   -0.12564E-02 10640   0.405E-02-0.233E-02
CGA:  12    -0.128323038027E+04   -0.51996E-03   -0.49649E-03 10640   0.173E-02-0.115E-02
CGA:  13    -0.128322984347E+04    0.53680E-03   -0.10595E-02 10640   0.944E-02-0.254E-02
CGA:  14    -0.128323086654E+04   -0.10231E-02   -0.11304E-02 10640   0.209E-02 0.821E-03
CGA:  15    -0.128323138085E+04   -0.51431E-03   -0.51581E-03 10640   0.415E-03 0.685E-04
CGA:  16    -0.128323149811E+04   -0.11726E-03   -0.11685E-03 10640   0.299E-03 0.168E-04
CGA:  17    -0.128323148931E+04    0.88014E-05   -0.25114E-04 10640   0.145E-03 0.202E-03
  16 F= -.12832315E+04 E0= -.12832315E+04  d E =0.731609E-02  mag=    47.0000
       N       E                     dE             d eps       ncg     rms          ort
SDA:   1    -0.127855089838E+04    0.46806E+01    0.00000E+00 10640   0.128E+02 0.000E+00
CGA:   2    -0.128168040179E+04   -0.31295E+01   -0.31296E+01 10640   0.593E+01-0.552E-02
CGA:   3    -0.128303440403E+04   -0.13540E+01   -0.13540E+01 10640   0.104E+01 0.253E-02
CGA:   4    -0.128320463658E+04   -0.17023E+00   -0.16995E+00 10640   0.208E+00-0.482E-02
CGA:   5    -0.128324404075E+04   -0.39404E-01   -0.39528E-01 10640   0.560E-01 0.352E-02
CGA:   6    -0.128325507334E+04   -0.11033E-01   -0.10963E-01 10640   0.217E-01-0.198E-02
CGA:   7    -0.128325892981E+04   -0.38565E-02   -0.38471E-02 10640   0.549E-02-0.203E-03
CGA:   8    -0.128326023326E+04   -0.13034E-02   -0.13082E-02 10640   0.253E-02-0.270E-03
CGA:   9    -0.128326089051E+04   -0.65725E-03   -0.88414E-03 10640   0.409E-02-0.157E-02
CGA:  10    -0.128326124450E+04   -0.35399E-03   -0.40516E-03 10640   0.546E-03 0.403E-03
CGA:  11    -0.128326142172E+04   -0.17722E-03   -0.18418E-03 10640   0.290E-03-0.844E-04
CGA:  12    -0.128326160043E+04   -0.17871E-03    0.47066E-04 10640   0.264E-03-0.721E-04
CGA:  13    -0.128326170643E+04   -0.10600E-03    0.13344E-03 10640   0.130E-03 0.149E-04
CGA:  14    -0.128326173501E+04   -0.28584E-04   -0.28654E-04 10640   0.119E-03 0.336E-05
CGA:  15    -0.128326185520E+04   -0.12019E-03    0.11865E-04 10640   0.650E-04 0.130E-04
CGA:  16    -0.128326195331E+04   -0.98106E-04    0.41311E-05 10640   0.776E-04 0.180E-04
CGA:  17    -0.128326202195E+04   -0.68643E-04    0.21753E-04 10640   0.384E-04 0.361E-04
CGA:  18    -0.128326203911E+04   -0.17165E-04   -0.16902E-04 10640   0.717E-04 0.289E-05
CGA:  19    -0.128326212336E+04   -0.84247E-04    0.65516E-05 10640   0.745E-04 0.163E-04
CGA:  20    -0.128326224037E+04   -0.11701E-03    0.59920E-05 10640   0.976E-04-0.213E-04
CGA:  21    -0.128326230487E+04   -0.64501E-04    0.80781E-05 10640   0.120E-03-0.356E-04
CGA:  22    -0.128326231821E+04   -0.13342E-04   -0.10510E-04 10640   0.778E-04-0.352E-04
CGA:  23    -0.128326196226E+04    0.35596E-03   -0.54391E-04 10640   0.297E-02-0.555E-03
CGA:  24    -0.128326238079E+04   -0.41853E-03   -0.39265E-03 10640   0.230E-03-0.186E-03
CGA:  25    -0.128326241261E+04   -0.31819E-04   -0.33772E-04 10640   0.896E-04 0.198E-04
CGA:  26    -0.128326241536E+04   -0.27492E-05   -0.11072E-04 10640   0.379E-04 0.599E-04
  17 F= -.12832624E+04 E0= -.12832624E+04  d E =-.309260E-01  mag=    47.0000
       N       E                     dE             d eps       ncg     rms          ort
SDA:   1    -0.126787962606E+04    0.15383E+02    0.00000E+00 10640   0.404E+02 0.000E+00
CGA:   2    -0.127836753962E+04   -0.10488E+02   -0.10488E+02 10640   0.191E+02-0.141E-01
CGA:   3    -0.128258454726E+04   -0.42170E+01   -0.42172E+01 10640   0.301E+01 0.440E-03
CGA:   4    -0.128309466336E+04   -0.51012E+00   -0.50990E+00 10640   0.628E+00-0.657E-02
CGA:   5    -0.128321707122E+04   -0.12241E+00   -0.12263E+00 10640   0.161E+00 0.672E-02
CGA:   6    -0.128324946259E+04   -0.32391E-01   -0.32246E-01 10640   0.644E-01-0.413E-02
CGA:   7    -0.128326062788E+04   -0.11165E-01   -0.11107E-01 10640   0.174E-01-0.101E-02
CGA:   8    -0.128326469870E+04   -0.40708E-02   -0.40790E-02 10640   0.797E-02-0.810E-03
CGA:   9    -0.128326680065E+04   -0.21020E-02   -0.22980E-02 10640   0.746E-02-0.268E-02
CGA:  10    -0.128326770098E+04   -0.90033E-03   -0.86595E-03 10640   0.225E-02-0.575E-03
CGA:  11    -0.128326823826E+04   -0.53728E-03   -0.54896E-03 10640   0.140E-02-0.342E-03
CGA:  12    -0.128326848780E+04   -0.24954E-03   -0.35738E-03 10640   0.281E-02-0.157E-02
CGA:  13    -0.128326868575E+04   -0.19794E-03   -0.26370E-03 10640   0.382E-03 0.476E-03
CGA:  14    -0.128326874430E+04   -0.58555E-04   -0.70261E-04 10640   0.202E-03 0.164E-03
CGA:  15    -0.128326881296E+04   -0.68661E-04   -0.10673E-03 10640   0.538E-03-0.264E-03
CGA:  16    -0.128326884857E+04   -0.35612E-04   -0.52204E-04 10640   0.104E-03 0.124E-03
CGA:  17    -0.128326887073E+04   -0.22153E-04   -0.23478E-04 10640   0.543E-04 0.319E-04
CGA:  18    -0.128326890875E+04   -0.38028E-04    0.39875E-04 10640   0.566E-04-0.235E-04
CGA:  19    -0.128326893039E+04   -0.21640E-04    0.70308E-05 10640   0.667E-04-0.560E-06
CGA:  20    -0.128326893648E+04   -0.60866E-05   -0.85564E-05 10640   0.536E-04 0.261E-04
CGA:  21    -0.128326895104E+04   -0.14563E-04   -0.15052E-04 10640   0.458E-04 0.287E-04
CGA:  22    -0.128326899661E+04   -0.45565E-04    0.38649E-05 10640   0.465E-04-0.162E-04
CGA:  23    -0.128326897355E+04    0.23058E-04   -0.31194E-04 10640   0.221E-03-0.666E-04
CGA:  24    -0.128326901177E+04   -0.38225E-04   -0.39350E-04 10640   0.115E-03 0.144E-04
CGA:  25    -0.128326903078E+04   -0.19001E-04   -0.20896E-04 10640   0.873E-05 0.226E-04
CGA:  26    -0.128326903262E+04   -0.18418E-05   -0.20727E-05 10640   0.664E-05 0.442E-05
  18 F= -.12832690E+04 E0= -.12832690E+04  d E =-.661726E-02  mag=    47.0000
       N       E                     dE             d eps       ncg     rms          ort
SDA:   1    -0.127184987151E+04    0.11419E+02    0.00000E+00 10640   0.306E+02 0.000E+00
CGA:   2    -0.127953472186E+04   -0.76849E+01   -0.76848E+01 10640   0.145E+02 0.333E-03
CGA:   3    -0.128273801631E+04   -0.32033E+01   -0.32033E+01 10640   0.262E+01-0.710E-02
CGA:   4    -0.128314295976E+04   -0.40494E+00   -0.40521E+00 10640   0.569E+00 0.459E-02
CGA:   5    -0.128324538837E+04   -0.10243E+00   -0.10234E+00 10640   0.166E+00-0.559E-03
CGA:   6    -0.128327497684E+04   -0.29588E-01   -0.29623E-01 10640   0.486E-01 0.660E-03
CGA:   7    -0.128328590979E+04   -0.10933E-01   -0.10914E-01 10640   0.136E-01-0.154E-02
CGA:   8    -0.128328893159E+04   -0.30218E-02   -0.30176E-02 10640   0.686E-02-0.663E-03
CGA:   9    -0.128329040712E+04   -0.14755E-02   -0.14704E-02 10640   0.331E-02-0.518E-03
CGA:  10    -0.128329122747E+04   -0.82035E-03   -0.84287E-03 10640   0.180E-02-0.542E-03
CGA:  11    -0.128329160237E+04   -0.37490E-03   -0.38822E-03 10640   0.128E-02-0.622E-03
CGA:  12    -0.128329176326E+04   -0.16088E-03   -0.15473E-03 10640   0.350E-03-0.114E-03
CGA:  13    -0.128329188103E+04   -0.11777E-03   -0.18377E-03 10640   0.527E-03-0.195E-03
CGA:  14    -0.128329196144E+04   -0.80410E-04   -0.86008E-04 10640   0.180E-03 0.636E-04
CGA:  15    -0.128329200257E+04   -0.41126E-04   -0.42203E-04 10640   0.740E-04 0.279E-04
CGA:  16    -0.128329203732E+04   -0.34753E-04   -0.34343E-04 10640   0.119E-03 0.224E-05
CGA:  17    -0.128329204326E+04   -0.59423E-05   -0.15230E-04 10640   0.644E-04 0.715E-04
  19 F= -.12832920E+04 E0= -.12832920E+04  d E =-.230106E-01  mag=    47.0000
       N       E                     dE             d eps       ncg     rms          ort
SDA:   1    -0.128121400832E+04    0.20780E+01    0.00000E+00 10640   0.596E+01 0.000E+00
CGA:   2    -0.128258149524E+04   -0.13675E+01   -0.13675E+01 10640   0.271E+01-0.183E-02
CGA:   3    -0.128319767331E+04   -0.61618E+00   -0.61621E+00 10640   0.625E+00 0.118E-02
CGA:   4    -0.128328810289E+04   -0.90430E-01   -0.90182E-01 10640   0.122E+00-0.173E-02
CGA:   5    -0.128330953455E+04   -0.21432E-01   -0.21476E-01 10640   0.340E-01 0.825E-03
CGA:   6    -0.128331611178E+04   -0.65772E-02   -0.65537E-02 10640   0.991E-02-0.535E-03
CGA:   7    -0.128331826946E+04   -0.21577E-02   -0.21545E-02 10640   0.298E-02-0.321E-03
CGA:   8    -0.128331885123E+04   -0.58177E-03   -0.57922E-03 10640   0.129E-02-0.828E-04
CGA:   9    -0.128331920066E+04   -0.34943E-03   -0.38565E-03 10640   0.116E-02-0.455E-03
CGA:  10    -0.128331937644E+04   -0.17578E-03   -0.17741E-03 10640   0.640E-03-0.367E-03
CGA:  11    -0.128331949456E+04   -0.11812E-03   -0.15448E-03 10640   0.477E-03-0.301E-03
CGA:  12    -0.128331962932E+04   -0.13476E-03    0.25664E-03 10640   0.310E-03-0.129E-03
CGA:  13    -0.128331969882E+04   -0.69505E-04   -0.79006E-04 10640   0.238E-03-0.856E-04
CGA:  14    -0.128331892036E+04    0.77846E-03   -0.41959E-03 10640   0.677E-02-0.797E-03
CGA:  15    -0.128331959542E+04   -0.67506E-03   -0.72453E-03 10640   0.108E-02 0.155E-03
CGA:  16    -0.128331987863E+04   -0.28320E-03   -0.28920E-03 10640   0.217E-03 0.366E-04
CGA:  17    -0.128331993580E+04   -0.57171E-04   -0.56559E-04 10640   0.125E-03-0.330E-05
CGA:  18    -0.128331993695E+04   -0.11488E-05   -0.16165E-04 10640   0.382E-04 0.537E-04
  20 F= -.12833199E+04 E0= -.12833199E+04  d E =-.278937E-01  mag=    47.0000
       N       E                     dE             d eps       ncg     rms          ort
SDA:   1    -0.127983482824E+04    0.34851E+01    0.00000E+00 10640   0.912E+01 0.000E+00
CGA:   2    -0.128222573840E+04   -0.23909E+01   -0.23906E+01 10640   0.437E+01-0.287E-02
CGA:   3    -0.128316574690E+04   -0.94001E+00   -0.94021E+00 10640   0.756E+00-0.410E-03
CGA:   4    -0.128328494320E+04   -0.11920E+00   -0.11897E+00 10640   0.173E+00-0.861E-04
CGA:   5    -0.128331511804E+04   -0.30175E-01   -0.30278E-01 10640   0.494E-01 0.429E-03
CGA:   6    -0.128332408991E+04   -0.89719E-02   -0.89094E-02 10640   0.145E-01-0.249E-03
CGA:   7    -0.128332737819E+04   -0.32883E-02   -0.32387E-02 10640   0.400E-02-0.422E-03
CGA:   8    -0.128332826550E+04   -0.88730E-03   -0.87330E-03 10640   0.200E-02-0.119E-03
CGA:   9    -0.128332875681E+04   -0.49131E-03   -0.46463E-03 10640   0.116E-02-0.295E-03
CGA:  10    -0.128332903865E+04   -0.28185E-03   -0.26684E-03 10640   0.652E-03-0.272E-03
CGA:  11    -0.128332917465E+04   -0.13599E-03   -0.12221E-03 10640   0.349E-03-0.178E-03
CGA:  12    -0.128332923767E+04   -0.63021E-04   -0.11507E-03 10640   0.984E-03-0.383E-03
CGA:  13    -0.128332931991E+04   -0.82241E-04   -0.97036E-04 10640   0.138E-03 0.672E-04
CGA:  14    -0.128332935828E+04   -0.38371E-04   -0.39498E-04 10640   0.535E-04 0.246E-04
CGA:  15    -0.128332871546E+04    0.64282E-03   -0.34799E-03 10640   0.691E-02-0.449E-03
CGA:  16    -0.128332927817E+04   -0.56271E-03   -0.64755E-03 10640   0.379E-03 0.228E-03
CGA:  17    -0.128332936794E+04   -0.89770E-04   -0.10294E-03 10640   0.215E-03 0.472E-04
CGA:  18    -0.128332946039E+04   -0.92452E-04   -0.62469E-04 10640   0.153E-03-0.110E-03
CGA:  19    -0.128332945730E+04    0.30861E-05   -0.14395E-04 10640   0.275E-04 0.419E-04
  21 F= -.12833295E+04 E0= -.12833295E+04  d E =-.952036E-02  mag=    47.0000
       N       E                     dE             d eps       ncg     rms          ort
SDA:   1    -0.128191028701E+04    0.14192E+01    0.00000E+00 10640   0.468E+01 0.000E+00
CGA:   2    -0.128281605348E+04   -0.90577E+00   -0.90577E+00 10640   0.173E+01 0.653E-02
CGA:   3    -0.128325206374E+04   -0.43601E+00   -0.43609E+00 10640   0.510E+00-0.236E-02
CGA:   4    -0.128332684283E+04   -0.74779E-01   -0.75217E-01 10640   0.797E-01 0.455E-02
CGA:   5    -0.128334200165E+04   -0.15159E-01   -0.15066E-01 10640   0.247E-01-0.356E-03
CGA:   6    -0.128334625420E+04   -0.42526E-02   -0.43501E-02 10640   0.737E-02 0.393E-03
CGA:   7    -0.128334778058E+04   -0.15264E-02   -0.15504E-02 10640   0.189E-02 0.126E-03
CGA:   8    -0.128334825377E+04   -0.47319E-03   -0.45396E-03 10640   0.927E-03-0.114E-03
CGA:   9    -0.128334837421E+04   -0.12044E-03   -0.15603E-03 10640   0.317E-03 0.167E-03
CGA:  10    -0.128334843813E+04   -0.63916E-04   -0.82707E-04 10640   0.123E-03 0.116E-03
CGA:  11    -0.128334848109E+04   -0.42960E-04   -0.46234E-04 10640   0.983E-04 0.326E-04
CGA:  12    -0.128334847663E+04    0.44584E-05   -0.14151E-04 10640   0.490E-04 0.725E-04
  22 F= -.12833485E+04 E0= -.12833485E+04  d E =-.190193E-01  mag=    47.0000
       N       E                     dE             d eps       ncg     rms          ort
SDA:   1    -0.128301684848E+04    0.33163E+00    0.00000E+00 10640   0.112E+01 0.000E+00
CGA:   2    -0.128323489610E+04   -0.21805E+00   -0.21800E+00 10640   0.420E+00 0.494E-04
CGA:   3    -0.128333901642E+04   -0.10412E+00   -0.10416E+00 10640   0.130E+00 0.227E-03
CGA:   4    -0.128335816335E+04   -0.19147E-01   -0.18970E-01 10640   0.213E-01-0.764E-03
CGA:   5    -0.128336186466E+04   -0.37013E-02   -0.37276E-02 10640   0.617E-02 0.187E-03
CGA:   6    -0.128336310129E+04   -0.12366E-02   -0.12131E-02 10640   0.190E-02-0.185E-03
CGA:   7    -0.128336349714E+04   -0.39584E-03   -0.39138E-03 10640   0.526E-03-0.437E-04
CGA:   8    -0.128336360373E+04   -0.10660E-03   -0.10519E-03 10640   0.221E-03-0.130E-04
CGA:   9    -0.128336367417E+04   -0.70435E-04   -0.86232E-04 10640   0.415E-03-0.161E-03
CGA:  10    -0.128336372362E+04   -0.49449E-04   -0.46614E-04 10640   0.728E-04-0.135E-04
CGA:  11    -0.128336371346E+04    0.10154E-04   -0.51193E-04 10640   0.502E-03-0.142E-03
CGA:  12    -0.128336379108E+04   -0.77618E-04   -0.68445E-04 10640   0.132E-03-0.493E-04
CGA:  13    -0.128336381009E+04   -0.19011E-04   -0.19256E-04 10640   0.107E-04 0.180E-05
CGA:  14    -0.128336382075E+04   -0.10659E-04    0.25755E-05 10640   0.516E-05 0.211E-05
CGA:  15    -0.128336383922E+04   -0.18465E-04    0.23552E-06 10640   0.595E-05 0.318E-05
CGA:  16    -0.128336384041E+04   -0.11944E-05   -0.34508E-05 10640   0.534E-04-0.811E-05
CGA:  17    -0.128336385927E+04   -0.18857E-04   -0.13565E-04 10640   0.163E-03-0.857E-04
CGA:  18    -0.128336386478E+04   -0.55131E-05   -0.12171E-04 10640   0.684E-05 0.284E-04
  23 F= -.12833639E+04 E0= -.12833639E+04  d E =-.153882E-01  mag=    47.0000
       N       E                     dE             d eps       ncg     rms          ort
SDA:   1    -0.128194145933E+04    0.14224E+01    0.00000E+00 10640   0.381E+01 0.000E+00
CGA:   2    -0.128291286708E+04   -0.97141E+00   -0.97139E+00 10640   0.179E+01-0.854E-03
CGA:   3    -0.128331223271E+04   -0.39937E+00   -0.39932E+00 10640   0.292E+00-0.156E-02
CGA:   4    -0.128336093859E+04   -0.48706E-01   -0.48730E-01 10640   0.613E-01 0.263E-03
CGA:   5    -0.128337257128E+04   -0.11633E-01   -0.11645E-01 10640   0.174E-01 0.145E-03
CGA:   6    -0.128337567288E+04   -0.31016E-02   -0.30999E-02 10640   0.610E-02 0.130E-04
CGA:   7    -0.128337689344E+04   -0.12206E-02   -0.12137E-02 10640   0.152E-02-0.944E-04
CGA:   8    -0.128337732220E+04   -0.42876E-03   -0.43649E-03 10640   0.979E-03-0.287E-03
CGA:   9    -0.128337745136E+04   -0.12916E-03   -0.13511E-03 10640   0.368E-03 0.633E-04
CGA:  10    -0.128337758006E+04   -0.12869E-03   -0.14815E-03 10640   0.285E-03-0.167E-03
CGA:  11    -0.128337760685E+04   -0.26794E-04   -0.77437E-04 10640   0.384E-03-0.221E-03
CGA:  12    -0.128337766191E+04   -0.55059E-04   -0.62219E-04 10640   0.126E-03 0.620E-04
CGA:  13    -0.128337767686E+04   -0.14946E-04   -0.92238E-04 10640   0.565E-03-0.217E-03
CGA:  14    -0.128337770608E+04   -0.29226E-04   -0.57457E-04 10640   0.111E-03 0.151E-03
CGA:  15    -0.128337772643E+04   -0.20345E-04   -0.23809E-04 10640   0.404E-04 0.308E-04
CGA:  16    -0.128337775883E+04   -0.32401E-04    0.50593E-04 10640   0.677E-04-0.415E-04
CGA:  17    -0.128337775501E+04    0.38154E-05   -0.38980E-05 10640   0.213E-04 0.355E-04
  24 F= -.12833778E+04 E0= -.12833778E+04  d E =-.138902E-01  mag=    47.0000
       N       E                     dE             d eps       ncg     rms          ort
SDA:   1    -0.127575305218E+04    0.76247E+01    0.00000E+00 10640   0.200E+02 0.000E+00
CGA:   2    -0.128096554721E+04   -0.52125E+01   -0.52125E+01 10640   0.947E+01-0.809E-02
CGA:   3    -0.128305584642E+04   -0.20903E+01   -0.20904E+01 10640   0.146E+01-0.174E-02
CGA:   4    -0.128330838874E+04   -0.25254E+00   -0.25230E+00 10640   0.299E+00-0.360E-02
CGA:   5    -0.128336820704E+04   -0.59818E-01   -0.59955E-01 10640   0.713E-01 0.302E-02
CGA:   6    -0.128338374964E+04   -0.15543E-01   -0.15464E-01 10640   0.299E-01-0.242E-02
CGA:   7    -0.128338844726E+04   -0.46976E-02   -0.46878E-02 10640   0.813E-02-0.785E-04
CGA:   8    -0.128339050674E+04   -0.20595E-02   -0.20678E-02 10640   0.351E-02-0.585E-03
CGA:   9    -0.128339151298E+04   -0.10062E-02   -0.12737E-02 10640   0.468E-02-0.178E-02
CGA:  10    -0.128339195657E+04   -0.44359E-03   -0.50179E-03 10640   0.734E-03 0.430E-03
CGA:  11    -0.128339219772E+04   -0.24115E-03   -0.25676E-03 10640   0.425E-03-0.199E-03
CGA:  12    -0.128339239938E+04   -0.20166E-03    0.11876E-03 10640   0.352E-03-0.119E-03
CGA:  13    -0.128339245347E+04   -0.54090E-04   -0.12147E-03 10640   0.596E-03-0.289E-03
CGA:  14    -0.128339260158E+04   -0.14811E-03   -0.22701E-03 10640   0.142E-02-0.637E-03
CGA:  15    -0.128339265735E+04   -0.55767E-04   -0.11778E-03 10640   0.137E-03 0.349E-03
CGA:  16    -0.128339265664E+04    0.70312E-06   -0.12838E-04 10640   0.538E-04 0.755E-04
CGA:  17    -0.128339268834E+04   -0.31699E-04    0.33545E-04 10640   0.230E-04 0.157E-04
CGA:  18    -0.128339269187E+04   -0.35236E-05   -0.50007E-05 10640   0.185E-04 0.190E-04
  25 F= -.12833927E+04 E0= -.12833927E+04  d E =-.149369E-01  mag=    47.0000
       N       E                     dE             d eps       ncg     rms          ort
SDA:   1    -0.126504176964E+04    0.18351E+02    0.00000E+00 10640   0.472E+02 0.000E+00
CGA:   2    -0.127776040118E+04   -0.12719E+02   -0.12719E+02 10640   0.225E+02-0.220E-01
CGA:   3    -0.128260726660E+04   -0.48469E+01   -0.48471E+01 10640   0.337E+01-0.473E-02
CGA:   4    -0.128319641598E+04   -0.58915E+00   -0.58888E+00 10640   0.703E+00-0.576E-02
CGA:   5    -0.128333874953E+04   -0.14233E+00   -0.14255E+00 10640   0.158E+00 0.674E-02
CGA:   6    -0.128337665231E+04   -0.37903E-01   -0.37909E-01 10640   0.567E-01-0.636E-02
CGA:   7    -0.128338632247E+04   -0.96702E-02   -0.97140E-02 10640   0.170E-01 0.964E-03
CGA:   8    -0.128339103083E+04   -0.47084E-02   -0.48469E-02 10640   0.100E-01-0.296E-02
CGA:   9    -0.128339305349E+04   -0.20227E-02   -0.20362E-02 10640   0.583E-02-0.138E-02
CGA:  10    -0.128339422280E+04   -0.11693E-02   -0.11618E-02 10640   0.291E-02-0.138E-02
CGA:  11    -0.128339479420E+04   -0.57140E-03   -0.71485E-03 10640   0.260E-02-0.169E-02
CGA:  12    -0.128339506266E+04   -0.26846E-03   -0.29741E-03 10640   0.579E-03 0.236E-03
CGA:  13    -0.128339525321E+04   -0.19055E-03   -0.19306E-03 10640   0.226E-03-0.353E-04
CGA:  14    -0.128339537193E+04   -0.11872E-03    0.14418E-03 10640   0.170E-03 0.302E-04
CGA:  15    -0.128339543137E+04   -0.59440E-04   -0.60872E-04 10640   0.948E-04-0.186E-04
CGA:  16    -0.128339550242E+04   -0.71045E-04    0.13804E-04 10640   0.568E-04 0.213E-04
CGA:  17    -0.128339554475E+04   -0.42335E-04    0.32443E-04 10640   0.396E-04 0.225E-04
CGA:  18    -0.128339548202E+04    0.62735E-04   -0.40338E-04 10640   0.106E-02-0.122E-03
CGA:  19    -0.128339577564E+04   -0.29363E-03   -0.18517E-03 10640   0.577E-03-0.408E-03
CGA:  20    -0.128339580974E+04   -0.34095E-04   -0.57149E-04 10640   0.114E-03 0.873E-04
CGA:  21    -0.128339579424E+04    0.15504E-04   -0.70207E-05 10640   0.326E-04 0.627E-04
CGA:  22    -0.128339578741E+04    0.68257E-05   -0.15740E-05 10640   0.193E-04 0.241E-04
  26 F= -.12833958E+04 E0= -.12833958E+04  d E =-.309554E-02  mag=    47.0000
       N       E                     dE             d eps       ncg     rms          ort
SDA:   1    -0.125275065178E+04    0.30645E+02    0.00000E+00 10640   0.796E+02 0.000E+00
CGA:   2    -0.127380536001E+04   -0.21055E+02   -0.21056E+02 10640   0.378E+02-0.101E-01
CGA:   3    -0.128203069726E+04   -0.82253E+01   -0.82280E+01 10640   0.581E+01 0.103E-01
CGA:   4    -0.128303365224E+04   -0.10030E+01   -0.10034E+01 10640   0.121E+01-0.106E-01
CGA:   5    -0.128327626764E+04   -0.24262E+00   -0.24330E+00 10640   0.285E+00 0.857E-02
CGA:   6    -0.128334069585E+04   -0.64428E-01   -0.63755E-01 10640   0.106E+00-0.684E-02
CGA:   7    -0.128335912961E+04   -0.18434E-01   -0.18397E-01 10640   0.316E-01 0.319E-03
CGA:   8    -0.128336714723E+04   -0.80176E-02   -0.78451E-02 10640   0.160E-01-0.227E-02
CGA:   9    -0.128337099625E+04   -0.38490E-02   -0.36815E-02 10640   0.103E-01-0.235E-02
CGA:  10    -0.128337300417E+04   -0.20079E-02   -0.18837E-02 10640   0.354E-02-0.122E-02
CGA:  11    -0.128337406422E+04   -0.10600E-02   -0.12238E-02 10640   0.310E-02-0.197E-02
CGA:  12    -0.128337443659E+04   -0.37237E-03   -0.39934E-03 10640   0.751E-03 0.154E-03
CGA:  13    -0.128337465979E+04   -0.22320E-03   -0.21980E-03 10640   0.354E-03-0.132E-03
CGA:  14    -0.128337473046E+04   -0.70669E-04   -0.15950E-03 10640   0.148E-02-0.363E-03
CGA:  15    -0.128337487207E+04   -0.14161E-03   -0.14949E-03 10640   0.147E-03 0.397E-04
CGA:  16    -0.128337387930E+04    0.99277E-03   -0.53464E-03 10640   0.666E-02-0.778E-03
CGA:  17    -0.128337472668E+04   -0.84738E-03   -0.93286E-03 10640   0.154E-02 0.245E-03
CGA:  18    -0.128337506431E+04   -0.33764E-03   -0.34376E-03 10640   0.338E-03 0.211E-04
CGA:  19    -0.128337515639E+04   -0.92075E-04   -0.64142E-04 10640   0.115E-03-0.834E-04
CGA:  20    -0.128337517098E+04   -0.14590E-04   -0.17439E-04 10640   0.294E-04 0.957E-05
CGA:  21    -0.128337516804E+04    0.29415E-05   -0.39170E-05 10640   0.158E-04 0.188E-04
CGA:  22    -0.128337518746E+04   -0.19422E-04    0.11749E-04 10640   0.231E-04 0.349E-05
CGA:  23    -0.128337519441E+04   -0.69507E-05   -0.79883E-05 10640   0.224E-04 0.542E-05
CGA:  24    -0.128337521465E+04   -0.20242E-04   -0.18836E-04 10640   0.673E-04 0.563E-05
CGA:  25    -0.128337531282E+04   -0.98166E-04    0.82750E-04 10640   0.124E-03-0.402E-04
CGA:  26    -0.128337530947E+04    0.33501E-05   -0.97332E-05 10640   0.164E-04 0.337E-04
  27 F= -.12833753E+04 E0= -.12833753E+04  d E =0.204779E-01  mag=    47.0000
       N       E                     dE             d eps       ncg     rms          ort
SDA:   1    -0.124158106909E+04    0.41794E+02    0.00000E+00 10640   0.109E+03 0.000E+00
CGA:   2    -0.127029404172E+04   -0.28713E+02   -0.28715E+02 10640   0.513E+02 0.148E-01
CGA:   3    -0.128148789756E+04   -0.11194E+02   -0.11206E+02 10640   0.781E+01 0.400E-01
CGA:   4    -0.128284822998E+04   -0.13603E+01   -0.13606E+01 10640   0.162E+01-0.890E-02
CGA:   5    -0.128317811473E+04   -0.32988E+00   -0.33079E+00 10640   0.381E+00 0.871E-02
CGA:   6    -0.128326428726E+04   -0.86173E-01   -0.85150E-01 10640   0.150E+00-0.722E-02
CGA:   7    -0.128328936815E+04   -0.25081E-01   -0.24809E-01 10640   0.471E-01-0.660E-03
CGA:   8    -0.128330074991E+04   -0.11382E-01   -0.11084E-01 10640   0.210E-01-0.207E-02
CGA:   9    -0.128330672509E+04   -0.59752E-02   -0.56690E-02 10640   0.150E-01-0.369E-02
CGA:  10    -0.128330932156E+04   -0.25965E-02   -0.23900E-02 10640   0.482E-02-0.117E-02
CGA:  11    -0.128331093762E+04   -0.16161E-02   -0.16585E-02 10640   0.277E-02-0.207E-02
CGA:  12    -0.128331148063E+04   -0.54302E-03   -0.63690E-03 10640   0.495E-02-0.193E-02
CGA:  13    -0.128331188604E+04   -0.40541E-03   -0.51587E-03 10640   0.869E-03 0.464E-03
CGA:  14    -0.128331208378E+04   -0.19774E-03   -0.22428E-03 10640   0.411E-03 0.247E-03
CGA:  15    -0.128331226761E+04   -0.18383E-03   -0.20335E-03 10640   0.122E-02-0.411E-03
CGA:  16    -0.128331231112E+04   -0.43510E-04   -0.10816E-03 10640   0.162E-03 0.262E-03
CGA:  17    -0.128331231016E+04    0.95907E-06   -0.20879E-04 10640   0.102E-03 0.987E-04
CGA:  18    -0.128331238430E+04   -0.74131E-04    0.10890E-03 10640   0.146E-03 0.376E-05
CGA:  19    -0.128331241744E+04   -0.33143E-04   -0.35621E-04 10640   0.636E-04 0.300E-04
CGA:  20    -0.128331242114E+04   -0.37062E-05   -0.12252E-04 10640   0.499E-04 0.557E-04
CGA:  21    -0.128331247291E+04   -0.51768E-04    0.10853E-04 10640   0.482E-04 0.167E-04
CGA:  22    -0.128331249234E+04   -0.19425E-04   -0.19472E-04 10640   0.470E-04 0.168E-04
CGA:  23    -0.128331253334E+04   -0.40998E-04    0.15762E-03 10640   0.489E-04 0.377E-04
CGA:  24    -0.128331258392E+04   -0.50581E-04    0.10732E-04 10640   0.751E-04-0.725E-05
CGA:  25    -0.128331260535E+04   -0.21430E-04   -0.33725E-04 10640   0.159E-03-0.557E-04
CGA:  26    -0.128331261334E+04   -0.79960E-05   -0.18064E-04 10640   0.565E-04 0.501E-04
CGA:  27    -0.128331262784E+04   -0.14502E-04   -0.16471E-04 10640   0.283E-04 0.233E-04
CGA:  28    -0.128331265876E+04   -0.30920E-04    0.21286E-04 10640   0.804E-04-0.292E-04
CGA:  29    -0.128331265944E+04   -0.67518E-06   -0.62120E-05 10640   0.160E-04 0.248E-04
  28 F= -.12833127E+04 E0= -.12833127E+04  d E =0.626500E-01  mag=    47.0000
       N       E                     dE             d eps       ncg     rms          ort
SDA:   1    -0.123272816702E+04    0.50584E+02    0.00000E+00 10640   0.131E+03 0.000E+00
CGA:   2    -0.126746852919E+04   -0.34740E+02   -0.34740E+02 10640   0.620E+02-0.410E-01
CGA:   3    -0.128098356460E+04   -0.13515E+02   -0.13519E+02 10640   0.950E+01 0.882E-02
CGA:   4    -0.128263632366E+04   -0.16528E+01   -0.16528E+01 10640   0.196E+01-0.118E-01
CGA:   5    -0.128303959002E+04   -0.40327E+00   -0.40394E+00 10640   0.439E+00 0.127E-01
CGA:   6    -0.128314841440E+04   -0.10882E+00   -0.10854E+00 10640   0.145E+00-0.131E-01
CGA:   7    -0.128317580605E+04   -0.27392E-01   -0.27416E-01 10640   0.480E-01 0.997E-03
CGA:   8    -0.128318888027E+04   -0.13074E-01   -0.13136E-01 10640   0.282E-01-0.717E-02
CGA:   9    -0.128319480446E+04   -0.59242E-02   -0.58693E-02 10640   0.137E-01-0.281E-02
CGA:  10    -0.128319804377E+04   -0.32393E-02   -0.32362E-02 10640   0.887E-02-0.379E-02
CGA:  11    -0.128319949758E+04   -0.14538E-02   -0.12963E-02 10640   0.364E-02-0.259E-02
CGA:  12    -0.128320021608E+04   -0.71850E-03   -0.75390E-03 10640   0.218E-02-0.108E-02
CGA:  13    -0.128320053652E+04   -0.32044E-03   -0.69295E-03 10640   0.527E-02-0.196E-02
CGA:  14    -0.128320104277E+04   -0.50624E-03   -0.57196E-03 10640   0.814E-03 0.429E-03
CGA:  15    -0.128320130493E+04   -0.26216E-03   -0.26058E-03 10640   0.372E-03 0.475E-04
CGA:  16    -0.128320137320E+04   -0.68276E-04   -0.70026E-04 10640   0.212E-03 0.209E-04
CGA:  17    -0.128320138188E+04   -0.86730E-05   -0.28894E-04 10640   0.126E-03 0.154E-03
CGA:  18    -0.128320139101E+04   -0.91311E-05   -0.16122E-04 10640   0.607E-04 0.558E-04
CGA:  19    -0.128320140935E+04   -0.18343E-04   -0.19519E-04 10640   0.557E-04 0.478E-04
CGA:  20    -0.128320142587E+04   -0.16524E-04   -0.17620E-04 10640   0.125E-03-0.156E-04
CGA:  21    -0.128320144267E+04   -0.16800E-04   -0.19177E-04 10640   0.140E-03 0.639E-04
CGA:  22    -0.128320145819E+04   -0.15518E-04   -0.16196E-04 10640   0.221E-04 0.551E-05
CGA:  23    -0.128320148087E+04   -0.22680E-04    0.26321E-05 10640   0.224E-04 0.193E-04
CGA:  24    -0.128320148334E+04   -0.24712E-05   -0.36243E-05 10640   0.179E-04 0.145E-04
  29 F= -.12832015E+04 E0= -.12832015E+04  d E =0.111176E+00  mag=    47.0000
       N       E                     dE             d eps       ncg     rms          ort
SDA:   1    -0.122559956880E+04    0.57602E+02    0.00000E+00 10640   0.150E+03 0.000E+00
CGA:   2    -0.126510399338E+04   -0.39504E+02   -0.39505E+02 10640   0.707E+02-0.497E-01
CGA:   3    -0.128050716682E+04   -0.15403E+02   -0.15405E+02 10640   0.110E+02 0.630E-02
CGA:   4    -0.128239488033E+04   -0.18877E+01   -0.18882E+01 10640   0.231E+01-0.760E-02
CGA:   5    -0.128285723640E+04   -0.46236E+00   -0.46261E+00 10640   0.584E+00 0.116E-01
CGA:   6    -0.128297848366E+04   -0.12125E+00   -0.12094E+00 10640   0.241E+00-0.116E-01
CGA:   7    -0.128301998069E+04   -0.41497E-01   -0.41222E-01 10640   0.714E-01-0.484E-02
CGA:   8    -0.128303660018E+04   -0.16619E-01   -0.16661E-01 10640   0.345E-01-0.404E-02
CGA:   9    -0.128304507868E+04   -0.84785E-02   -0.87743E-02 10640   0.243E-01-0.717E-02
CGA:  10    -0.128304941838E+04   -0.43397E-02   -0.43113E-02 10640   0.876E-02-0.402E-02
CGA:  11    -0.128305150088E+04   -0.20825E-02   -0.27349E-02 10640   0.767E-02-0.453E-02
CGA:  12    -0.128305247414E+04   -0.97326E-03   -0.95702E-03 10640   0.211E-02-0.120E-03
CGA:  13    -0.128305298713E+04   -0.51299E-03   -0.51315E-03 10640   0.633E-03-0.983E-05
CGA:  14    -0.128305323783E+04   -0.25070E-03   -0.27783E-03 10640   0.745E-03-0.130E-03
CGA:  15    -0.128305283143E+04    0.40639E-03   -0.42191E-03 10640   0.732E-02-0.176E-02
CGA:  16    -0.128305352246E+04   -0.69103E-03   -0.75083E-03 10640   0.735E-03 0.408E-03
CGA:  17    -0.128305364024E+04   -0.11778E-03   -0.13985E-03 10640   0.370E-03 0.282E-03
CGA:  18    -0.128305380654E+04   -0.16630E-03   -0.17618E-03 10640   0.421E-03-0.110E-03
CGA:  19    -0.128305387578E+04   -0.69237E-04   -0.62374E-04 10640   0.300E-03-0.142E-03
CGA:  20    -0.128305389581E+04   -0.20035E-04   -0.24325E-04 10640   0.185E-03 0.318E-04
CGA:  21    -0.128305391718E+04   -0.21365E-04   -0.27039E-04 10640   0.136E-03 0.480E-04
CGA:  22    -0.128305396685E+04   -0.49669E-04   -0.56799E-04 10640   0.229E-03-0.831E-04
CGA:  23    -0.128305401293E+04   -0.46083E-04   -0.45839E-04 10640   0.117E-03-0.457E-05
CGA:  24    -0.128305401509E+04   -0.21566E-05   -0.11608E-04 10640   0.453E-04 0.653E-04
  30 F= -.12830540E+04 E0= -.12830540E+04  d E =0.147468E+00  mag=    47.0000
       N       E                     dE             d eps       ncg     rms          ort
SDA:   1    -0.122057235850E+04    0.62482E+02    0.00000E+00 10640   0.163E+03 0.000E+00
CGA:   2    -0.126335238206E+04   -0.42780E+02   -0.42781E+02 10640   0.766E+02-0.589E-01
CGA:   3    -0.128012110247E+04   -0.16769E+02   -0.16770E+02 10640   0.119E+02 0.144E-01
CGA:   4    -0.128217884892E+04   -0.20577E+01   -0.20580E+01 10640   0.245E+01-0.147E-01
CGA:   5    -0.128268213829E+04   -0.50329E+00   -0.50364E+00 10640   0.567E+00 0.176E-01
CGA:   6    -0.128281853734E+04   -0.13640E+00   -0.13658E+00 10640   0.201E+00-0.183E-01
CGA:   7    -0.128285521547E+04   -0.36678E-01   -0.36651E-01 10640   0.643E-01 0.216E-03
CGA:   8    -0.128287233555E+04   -0.17120E-01   -0.17510E-01 10640   0.363E-01-0.870E-02
CGA:   9    -0.128288031243E+04   -0.79769E-02   -0.81552E-02 10640   0.221E-01-0.583E-02
CGA:  10    -0.128288439036E+04   -0.40779E-02   -0.40098E-02 10640   0.105E-01-0.436E-02
CGA:  11    -0.128288650571E+04   -0.21154E-02   -0.23289E-02 10640   0.726E-02-0.458E-02
CGA:  12    -0.128288735156E+04   -0.84585E-03   -0.78472E-03 10640   0.296E-02-0.150E-02
CGA:  13    -0.128288812074E+04   -0.76918E-03   -0.11063E-02 10640   0.285E-02-0.140E-02
CGA:  14    -0.128288810366E+04    0.17076E-04   -0.84298E-03 10640   0.106E-01-0.268E-02
CGA:  15    -0.128288910309E+04   -0.99943E-03   -0.11289E-02 10640   0.148E-02 0.904E-03
CGA:  16    -0.128288945137E+04   -0.34828E-03   -0.36011E-03 10640   0.564E-03 0.445E-03
CGA:  17    -0.128288957004E+04   -0.11867E-03   -0.12398E-03 10640   0.222E-03 0.662E-04
CGA:  18    -0.128288956309E+04    0.69486E-05   -0.22320E-04 10640   0.146E-03 0.188E-03
CGA:  19    -0.128288955478E+04    0.83070E-05   -0.10234E-04 10640   0.950E-04 0.110E-03
  31 F= -.12828896E+04 E0= -.12828896E+04  d E =0.164460E+00  mag=    47.0000
       N       E                     dE             d eps       ncg     rms          ort
SDA:   1    -0.121736871292E+04    0.65521E+02    0.00000E+00 10640   0.170E+03 0.000E+00
CGA:   2    -0.126237604746E+04   -0.45007E+02   -0.45012E+02 10640   0.802E+02-0.978E-01
CGA:   3    -0.127985794129E+04   -0.17482E+02   -0.17483E+02 10640   0.123E+02 0.200E-01
CGA:   4    -0.128199486181E+04   -0.21369E+01   -0.21370E+01 10640   0.255E+01-0.874E-02
CGA:   5    -0.128251843774E+04   -0.52358E+00   -0.52375E+00 10640   0.596E+00 0.136E-01
[...]
  53 F= -.12830082E+04 E0= -.12830082E+04  d E =-.141054E-01  mag=    47.0000
       N       E                     dE             d eps       ncg     rms          ort
SDA:   1    -0.125291598850E+04    0.30092E+02    0.00000E+00 10640   0.958E+02 0.000E+00
CGA:   2    -0.127175654326E+04   -0.18841E+02   -0.18843E+02 10640   0.367E+02 0.162E+00
CGA:   3    -0.128083426029E+04   -0.90777E+01   -0.90728E+01 10640   0.102E+02 0.915E-01
CGA:   4    -0.128237005823E+04   -0.15358E+01   -0.15324E+01 10640   0.169E+01 0.293E-01
CGA:   5    -0.128268203374E+04   -0.31198E+00   -0.31188E+00 10640   0.536E+00-0.616E-02
CGA:   6    -0.128277370963E+04   -0.91676E-01   -0.91632E-01 10640   0.166E+00 0.133E-02
CGA:   7    -0.128280851612E+04   -0.34806E-01   -0.34792E-01 10640   0.465E-01-0.158E-02
CGA:   8    -0.128281857877E+04   -0.10063E-01   -0.10067E-01 10640   0.209E-01-0.187E-02
CGA:   9    -0.128282308932E+04   -0.45105E-02   -0.45116E-02 10640   0.964E-02-0.652E-04
CGA:  10    -0.128282591490E+04   -0.28256E-02   -0.30378E-02 10640   0.816E-02-0.212E-02
CGA:  11    -0.128282742629E+04   -0.15114E-02   -0.15870E-02 10640   0.588E-02-0.271E-02
CGA:  12    -0.128282837433E+04   -0.94804E-03   -0.97190E-03 10640   0.287E-02-0.977E-03
CGA:  13    -0.128282907345E+04   -0.69912E-03   -0.12765E-02 10640   0.720E-02-0.187E-02
CGA:  14    -0.128282974054E+04   -0.66709E-03   -0.78454E-03 10640   0.148E-02 0.935E-03
CGA:  15    -0.128283016648E+04   -0.42593E-03   -0.41931E-03 10640   0.914E-03 0.384E-03
CGA:  16    -0.128283043868E+04   -0.27220E-03   -0.27199E-03 10640   0.819E-03 0.905E-04
CGA:  17    -0.128283053336E+04   -0.94678E-04   -0.13568E-03 10640   0.514E-03 0.488E-03
CGA:  18    -0.128283059948E+04   -0.66125E-04   -0.80490E-04 10640   0.238E-03 0.196E-03
CGA:  19    -0.128283070407E+04   -0.10459E-03   -0.95584E-04 10640   0.201E-03 0.137E-03
CGA:  20    -0.128283078050E+04   -0.76427E-04   -0.76883E-04 10640   0.368E-03-0.382E-05
CGA:  21    -0.128283089600E+04   -0.11550E-03   -0.10308E-03 10640   0.260E-03 0.252E-03
CGA:  22    -0.128283093513E+04   -0.39131E-04   -0.43955E-04 10640   0.113E-03 0.687E-04
CGA:  23    -0.128283097670E+04   -0.41573E-04   -0.38371E-04 10640   0.117E-03 0.959E-04
CGA:  24    -0.128283102309E+04   -0.46387E-04   -0.72244E-04 10640   0.617E-03-0.682E-04
CGA:  25    -0.128283107617E+04   -0.53078E-04   -0.68670E-04 10640   0.814E-04 0.109E-03
CGA:  26    -0.128283109484E+04   -0.18675E-04   -0.20081E-04 10640   0.104E-03 0.350E-04
CGA:  27    -0.128283118998E+04   -0.95134E-04   -0.70220E-04 10640   0.180E-03 0.109E-03
CGA:  28    -0.128283121312E+04   -0.23147E-04   -0.26032E-04 10640   0.652E-04 0.254E-04
CGA:  29    -0.128283113707E+04    0.76054E-04   -0.50666E-04 10640   0.219E-02-0.148E-03
CGA:  30    -0.128283133388E+04   -0.19681E-03   -0.24221E-03 10640   0.256E-03 0.137E-03
CGA:  31    -0.128283137968E+04   -0.45798E-04   -0.48950E-04 10640   0.805E-04 0.121E-04
CGA:  32    -0.128283139009E+04   -0.10418E-04   -0.16475E-04 10640   0.293E-04 0.258E-04
CGA:  33    -0.128283139277E+04   -0.26739E-05   -0.78111E-05 10640   0.361E-04 0.235E-04
CGA:  34    -0.128283140595E+04   -0.13177E-04   -0.27653E-04 10640   0.365E-03-0.406E-04
CGA:  35    -0.128283142716E+04   -0.21219E-04   -0.34918E-04 10640   0.357E-04 0.425E-04
CGA:  36    -0.128283143329E+04   -0.61246E-05   -0.77859E-05 10640   0.296E-04 0.782E-05
CGA:  37    -0.128283144591E+04   -0.12617E-04   -0.13176E-04 10640   0.624E-04 0.164E-04
CGA:  38    -0.128283144796E+04   -0.20503E-05   -0.69530E-05 10640   0.196E-04 0.173E-04
  54 F= -.12828314E+04 E0= -.12828314E+04  d E =0.176769E+00  mag=    47.0000
       N       E                     dE             d eps       ncg     rms          ort
SDA:   1    -0.126051051718E+04    0.22321E+02    0.00000E+00 10640   0.727E+02 0.000E+00
CGA:   2    -0.127476464688E+04   -0.14254E+02   -0.14255E+02 10640   0.276E+02 0.180E+00
CGA:   3    -0.128145512290E+04   -0.66905E+01   -0.67173E+01 10640   0.840E+01 0.243E-01
CGA:   4    -0.128267550529E+04   -0.12204E+01   -0.11938E+01 10640   0.136E+01 0.196E+00
CGA:   5    -0.128292826589E+04   -0.25276E+00   -0.25410E+00 10640   0.421E+00 0.119E-02
CGA:   6    -0.128300396330E+04   -0.75697E-01   -0.76188E-01 10640   0.124E+00 0.397E-02
CGA:   7    -0.128303023306E+04   -0.26270E-01   -0.26177E-01 10640   0.385E-01-0.552E-03
CGA:   8    -0.128303802930E+04   -0.77962E-02   -0.77154E-02 10640   0.157E-01-0.568E-03
CGA:   9    -0.128304176943E+04   -0.37401E-02   -0.37277E-02 10640   0.724E-02-0.120E-03
CGA:  10    -0.128304320358E+04   -0.14342E-02   -0.15430E-02 10640   0.288E-02 0.103E-02
CGA:  11    -0.128304386850E+04   -0.66491E-03   -0.72920E-03 10640   0.118E-02 0.685E-03
CGA:  12    -0.128304410949E+04   -0.24099E-03   -0.29711E-03 10640   0.546E-03 0.518E-03
CGA:  13    -0.128304437707E+04   -0.26758E-03   -0.26228E-03 10640   0.420E-03 0.185E-03
CGA:  14    -0.128304446568E+04   -0.88611E-04   -0.11897E-03 10640   0.288E-03 0.316E-03
CGA:  15    -0.128304454337E+04   -0.77693E-04   -0.80785E-04 10640   0.179E-03 0.142E-03
CGA:  16    -0.128304459651E+04   -0.53141E-04   -0.63560E-04 10640   0.151E-03 0.162E-03
CGA:  17    -0.128304467419E+04   -0.77674E-04   -0.13773E-03 10640   0.144E-02-0.996E-04
CGA:  18    -0.128304477984E+04   -0.10565E-03   -0.13836E-03 10640   0.129E-03 0.145E-03
CGA:  19    -0.128304479510E+04   -0.15260E-04   -0.26281E-04 10640   0.112E-03 0.829E-04
CGA:  20    -0.128304483514E+04   -0.40037E-04   -0.40977E-04 10640   0.320E-03-0.166E-04
CGA:  21    -0.128304500405E+04   -0.16891E-03   -0.13807E-03 10640   0.406E-03 0.156E-03
CGA:  22    -0.128304509326E+04   -0.89217E-04   -0.98939E-04 10640   0.207E-03 0.599E-04
CGA:  23    -0.128304525759E+04   -0.16433E-03    0.39133E-03 10640   0.391E-04 0.121E-03
CGA:  24    -0.128304526672E+04   -0.91292E-05   -0.91137E-05 10640   0.436E-04-0.266E-06
  55 F= -.12830453E+04 E0= -.12830453E+04  d E =-.213819E+00  mag=    47.0000
       N       E                     dE             d eps       ncg     rms          ort
SDA:   1    -0.128000538097E+04    0.30399E+01    0.00000E+00 10640   0.796E+01 0.000E+00
CGA:   2    -0.128207962165E+04   -0.20742E+01   -0.20741E+01 10640   0.378E+01-0.301E-02
CGA:   3    -0.128288624932E+04   -0.80663E+00   -0.80673E+00 10640   0.705E+00-0.742E-03
CGA:   4    -0.128299313280E+04   -0.10688E+00   -0.10708E+00 10640   0.165E+00 0.385E-02
CGA:   5    -0.128302217616E+04   -0.29043E-01   -0.28893E-01 10640   0.473E-01-0.149E-02
CGA:   6    -0.128303027287E+04   -0.80967E-02   -0.81881E-02 10640   0.128E-01 0.870E-03
CGA:   7    -0.128303341258E+04   -0.31397E-02   -0.31114E-02 10640   0.390E-02-0.623E-03
CGA:   8    -0.128303415708E+04   -0.74450E-03   -0.75450E-03 10640   0.178E-02 0.132E-03
CGA:   9    -0.128303463479E+04   -0.47771E-03   -0.47182E-03 10640   0.114E-02-0.265E-03
CGA:  10    -0.128303479702E+04   -0.16224E-03   -0.17416E-03 10640   0.392E-03 0.124E-03
CGA:  11    -0.128303493314E+04   -0.13612E-03   -0.13769E-03 10640   0.184E-03-0.354E-04
CGA:  12    -0.128303498861E+04   -0.55467E-04   -0.75963E-04 10640   0.407E-03-0.114E-03
CGA:  13    -0.128303502149E+04   -0.32888E-04   -0.42583E-04 10640   0.790E-04 0.549E-04
CGA:  14    -0.128303505674E+04   -0.35248E-04   -0.40532E-04 10640   0.129E-03-0.300E-04
CGA:  15    -0.128303507278E+04   -0.16037E-04   -0.14215E-04 10640   0.113E-03-0.172E-04
CGA:  16    -0.128303510448E+04   -0.31697E-04   -0.33110E-04 10640   0.227E-03-0.242E-04
CGA:  17    -0.128303515290E+04   -0.48425E-04   -0.45867E-04 10640   0.205E-03-0.107E-03
CGA:  18    -0.128303514594E+04    0.69638E-05   -0.58472E-04 10640   0.823E-03-0.257E-03
CGA:  19    -0.128303523602E+04   -0.90082E-04   -0.10146E-03 10640   0.146E-03 0.704E-04
CGA:  20    -0.128303529679E+04   -0.60771E-04   -0.63714E-04 10640   0.142E-03-0.250E-04
CGA:  21    -0.128303531251E+04   -0.15722E-04   -0.15974E-04 10640   0.464E-04 0.197E-05
CGA:  22    -0.128303533974E+04   -0.27231E-04    0.27214E-03 10640   0.583E-04 0.705E-06
CGA:  23    -0.128303533045E+04    0.92933E-05   -0.34479E-04 10640   0.341E-03-0.146E-03
CGA:  24    -0.128303535207E+04   -0.21621E-04   -0.33839E-04 10640   0.641E-04 0.624E-04
CGA:  25    -0.128303536951E+04   -0.17440E-04   -0.17920E-04 10640   0.350E-04 0.944E-05
CGA:  26    -0.128303537809E+04   -0.85729E-05   -0.74019E-05 10640   0.194E-04-0.115E-04
  56 F= -.12830354E+04 E0= -.12830353E+04  d E =0.988864E-02  mag=    47.0000
       N       E                     dE             d eps       ncg     rms          ort
SDA:   1    -0.124254273445E+04    0.40493E+02    0.00000E+00 10640   0.135E+03 0.000E+00
CGA:   2    -0.126773406810E+04   -0.25191E+02   -0.25066E+02 10640   0.490E+02 0.674E+00
CGA:   3    -0.127981704026E+04   -0.12083E+02   -0.12097E+02 10640   0.155E+02 0.283E+00
CGA:   4    -0.128214951313E+04   -0.23325E+01   -0.23037E+01 10640   0.239E+01 0.140E+00
CGA:   5    -0.128259312718E+04   -0.44361E+00   -0.44429E+00 10640   0.755E+00-0.904E-02
CGA:   6    -0.128272565658E+04   -0.13253E+00   -0.13216E+00 10640   0.229E+00 0.802E-03
CGA:   7    -0.128277258658E+04   -0.46930E-01   -0.46866E-01 10640   0.663E-01-0.989E-03
CGA:   8    -0.128278626721E+04   -0.13681E-01   -0.13650E-01 10640   0.266E-01-0.617E-03
CGA:   9    -0.128279251527E+04   -0.62481E-02   -0.62481E-02 10640   0.126E-01 0.697E-04
CGA:  10    -0.128279609821E+04   -0.35829E-02   -0.36658E-02 10640   0.901E-02-0.186E-02
CGA:  11    -0.128279811147E+04   -0.20133E-02   -0.20889E-02 10640   0.732E-02-0.318E-02
CGA:  12    -0.128279914373E+04   -0.10323E-02   -0.98915E-03 10640   0.292E-02-0.104E-02
CGA:  13    -0.128280001826E+04   -0.87453E-03   -0.11734E-02 10640   0.472E-02-0.136E-02
CGA:  14    -0.128280039692E+04   -0.37866E-03   -0.37235E-03 10640   0.273E-02-0.551E-04
CGA:  15    -0.128280090892E+04   -0.51200E-03   -0.52335E-03 10640   0.287E-02 0.191E-03
CGA:  16    -0.128280162906E+04   -0.72014E-03   -0.71462E-03 10640   0.180E-02-0.329E-03
CGA:  17    -0.128280193227E+04   -0.30321E-03   -0.30798E-03 10640   0.135E-02 0.827E-04
CGA:  18    -0.128280208518E+04   -0.15291E-03   -0.20352E-03 10640   0.759E-03 0.488E-03
CGA:  19    -0.128280216963E+04   -0.84453E-04   -0.13062E-03 10640   0.365E-03 0.401E-03
CGA:  20    -0.128280226467E+04   -0.95038E-04   -0.94758E-04 10640   0.348E-03 0.114E-04
CGA:  21    -0.128280227227E+04   -0.76024E-05   -0.36684E-04 10640   0.148E-03 0.216E-03
CGA:  22    -0.128280226866E+04    0.36093E-05   -0.11123E-04 10640   0.803E-04 0.950E-04
  57 F= -.12828023E+04 E0= -.12828023E+04  d E =0.233109E+00  mag=    47.0000
       N       E                     dE             d eps       ncg     rms          ort
SDA:   1    -0.125109047551E+04    0.31712E+02    0.00000E+00 10640   0.107E+03 0.000E+00
CGA:   2    -0.127129025493E+04   -0.20200E+02   -0.20198E+02 10640   0.384E+02 0.527E-01
CGA:   3    -0.128078549424E+04   -0.94952E+01   -0.94848E+01 10640   0.119E+02 0.180E+00
CGA:   4    -0.128256615021E+04   -0.17807E+01   -0.17731E+01 10640   0.194E+01 0.531E-01
CGA:   5    -0.128291745981E+04   -0.35131E+00   -0.35191E+00 10640   0.598E+00 0.107E-01
CGA:   6    -0.128302479444E+04   -0.10733E+00   -0.10753E+00 10640   0.176E+00 0.821E-02
CGA:   7    -0.128306271407E+04   -0.37920E-01   -0.37924E-01 10640   0.523E-01-0.107E-02
CGA:   8    -0.128307349339E+04   -0.10779E-01   -0.10777E-01 10640   0.226E-01-0.762E-03
CGA:   9    -0.128307858303E+04   -0.50896E-02   -0.50899E-02 10640   0.986E-02 0.244E-04
CGA:  10    -0.128308056809E+04   -0.19851E-02   -0.20016E-02 10640   0.337E-02 0.217E-02
CGA:  11    -0.128308143951E+04   -0.87142E-03   -0.86963E-03 10640   0.129E-02 0.135E-02
CGA:  12    -0.128308172231E+04   -0.28280E-03   -0.31554E-03 10640   0.609E-03 0.924E-03
CGA:  13    -0.128308202506E+04   -0.30275E-03   -0.27594E-03 10640   0.742E-03 0.109E-03
CGA:  14    -0.128308209410E+04   -0.69037E-04   -0.11388E-03 10640   0.321E-03 0.496E-03
CGA:  15    -0.128308210628E+04   -0.12183E-04   -0.37459E-04 10640   0.216E-03 0.254E-03
CGA:  16    -0.128308211662E+04   -0.10338E-04   -0.27073E-04 10640   0.180E-03 0.195E-03
CGA:  17    -0.128308212671E+04   -0.10090E-04   -0.23275E-04 10640   0.162E-03 0.170E-03
CGA:  18    -0.128308213793E+04   -0.11226E-04   -0.21809E-04 10640   0.149E-03 0.155E-03
CGA:  19    -0.128308214953E+04   -0.11599E-04   -0.20518E-04 10640   0.139E-03 0.144E-03
CGA:  20    -0.128308216116E+04   -0.11624E-04   -0.19327E-04 10640   0.130E-03 0.134E-03
CGA:  21    -0.128308217250E+04   -0.11347E-04   -0.18149E-04 10640   0.122E-03 0.126E-03
CGA:  22    -0.128308218351E+04   -0.11006E-04   -0.17063E-04 10640   0.115E-03 0.118E-03
CGA:  23    -0.128308219417E+04   -0.10661E-04   -0.16070E-04 10640   0.108E-03 0.111E-03
CGA:  24    -0.128308220454E+04   -0.10374E-04   -0.15188E-04 10640   0.102E-03 0.105E-03
CGA:  25    -0.128308221469E+04   -0.10149E-04   -0.14409E-04 10640   0.967E-04 0.994E-04
CGA:  26    -0.128308222468E+04   -0.99911E-05   -0.13725E-04 10640   0.916E-04 0.941E-04
CGA:  27    -0.128308223457E+04   -0.98880E-05   -0.13124E-04 10640   0.868E-04 0.891E-04
CGA:  28    -0.128308224441E+04   -0.98407E-05   -0.12601E-04 10640   0.824E-04 0.845E-04
CGA:  29    -0.128308225426E+04   -0.98483E-05   -0.12148E-04 10640   0.782E-04 0.802E-04
CGA:  30    -0.128308226417E+04   -0.99067E-05   -0.11760E-04 10640   0.743E-04 0.762E-04
CGA:  31    -0.128308227418E+04   -0.10014E-04   -0.11430E-04 10640   0.705E-04 0.723E-04
CGA:  32    -0.128308228436E+04   -0.10175E-04   -0.11156E-04 10640   0.669E-04 0.687E-04
CGA:  33    -0.128308229475E+04   -0.10394E-04   -0.10938E-04 10640   0.635E-04 0.651E-04
CGA:  34    -0.128308230544E+04   -0.10683E-04   -0.10779E-04 10640   0.602E-04 0.618E-04
CGA:  35    -0.128308231649E+04   -0.11057E-04   -0.10684E-04 10640   0.569E-04 0.585E-04
CGA:  36    -0.128308232803E+04   -0.11538E-04   -0.10662E-04 10640   0.537E-04 0.552E-04
CGA:  37    -0.128308234019E+04   -0.12162E-04   -0.10729E-04 10640   0.505E-04 0.520E-04
CGA:  38    -0.128308235318E+04   -0.12993E-04   -0.10916E-04 10640   0.473E-04 0.489E-04
CGA:  39    -0.128308236731E+04   -0.14125E-04   -0.11270E-04 10640   0.441E-04 0.456E-04
CGA:  40    -0.128308238306E+04   -0.15754E-04   -0.11892E-04 10640   0.407E-04 0.423E-04
CGA:  41    -0.128308240134E+04   -0.18274E-04   -0.12985E-04 10640   0.371E-04 0.388E-04
CGA:  42    -0.128308242409E+04   -0.22756E-04   -0.15111E-04 10640   0.330E-04 0.350E-04
CGA:  43    -0.128308245754E+04   -0.33449E-04   -0.20569E-04 10640   0.276E-04 0.302E-04
CGA:  44    -0.128308252836E+04   -0.70817E-04   -0.16778E-03 10640   0.183E-04 0.223E-04
CGA:  45    -0.128308254721E+04   -0.18852E-04    0.13518E-04 10640   0.173E-04 0.171E-04
CGA:  46    -0.128308256544E+04   -0.18231E-04    0.11532E-04 10640   0.244E-04 0.127E-04
CGA:  47    -0.128308257319E+04   -0.77457E-05   -0.71794E-05 10640   0.504E-04-0.517E-05
CGA:  48    -0.128308261952E+04   -0.46328E-04    0.17342E-04 10640   0.750E-04 0.313E-04
CGA:  49    -0.128308263300E+04   -0.13482E-04   -0.11194E-04 10640   0.150E-04-0.921E-05
CGA:  50    -0.128308264856E+04   -0.15564E-04    0.48283E-05 10640   0.959E-05 0.108E-04
CGA:  51    -0.128308266351E+04   -0.14950E-04    0.18330E-05 10640   0.106E-04 0.669E-05
CGA:  52    -0.128308266606E+04   -0.25441E-05   -0.30289E-05 10640   0.115E-04 0.471E-05
  58 F= -.12830827E+04 E0= -.12830826E+04  d E =-.280397E+00  mag=    47.0000
       N       E                     dE             d eps       ncg     rms          ort
SDA:   1    -0.128090399461E+04    0.21787E+01    0.00000E+00 10640   0.575E+01 0.000E+00
CGA:   2    -0.128228288597E+04   -0.13789E+01   -0.13782E+01 10640   0.262E+01-0.460E-02
CGA:   3    -0.128287994221E+04   -0.59706E+00   -0.59781E+00 10640   0.482E+00 0.392E-02
CGA:   4    -0.128295885324E+04   -0.78911E-01   -0.79010E-01 10640   0.897E-01 0.614E-03
CGA:   5    -0.128297695453E+04   -0.18101E-01   -0.18300E-01 10640   0.222E-01 0.131E-02
CGA:   6    -0.128298155741E+04   -0.46029E-02   -0.45146E-02 10640   0.969E-02-0.585E-03
CGA:   7    -0.128298302705E+04   -0.14696E-02   -0.15062E-02 10640   0.240E-02 0.221E-03
CGA:   8    -0.128298369770E+04   -0.67064E-03   -0.65610E-03 10640   0.114E-02-0.220E-03
CGA:   9    -0.128298390550E+04   -0.20780E-03   -0.22155E-03 10640   0.502E-03 0.120E-03
CGA:  10    -0.128298399789E+04   -0.92391E-04   -0.10930E-03 10640   0.171E-03 0.133E-03
CGA:  11    -0.128298402790E+04   -0.30013E-04   -0.42187E-04 10640   0.728E-04 0.991E-04
CGA:  12    -0.128298406489E+04   -0.36990E-04   -0.43775E-04 10640   0.204E-03-0.235E-04
CGA:  13    -0.128298407156E+04   -0.66627E-05   -0.16816E-04 10640   0.128E-03 0.494E-04
CGA:  14    -0.128298407226E+04   -0.70730E-06   -0.15465E-04 10640   0.776E-04 0.672E-04
CGA:  15    -0.128298408420E+04   -0.11940E-04   -0.14813E-04 10640   0.361E-04 0.252E-04
CGA:  16    -0.128298408890E+04   -0.46988E-05   -0.79481E-05 10640   0.192E-04 0.244E-04
  59 F= -.12829841E+04 E0= -.12829841E+04  d E =0.985772E-01  mag=    47.0000
       N       E                     dE             d eps       ncg     rms          ort
SDA:   1    -0.123327548618E+04    0.49709E+02    0.00000E+00 10640   0.174E+03 0.000E+00
CGA:   2    -0.126419860309E+04   -0.30923E+02   -0.30293E+02 10640   0.566E+02 0.362E+01
CGA:   3    -0.127886759863E+04   -0.14669E+02   -0.14694E+02 10640   0.194E+02 0.326E+00
CGA:   4    -0.128185673559E+04   -0.29891E+01   -0.29522E+01 10640   0.287E+01 0.194E+00
CGA:   5    -0.128239976412E+04   -0.54303E+00   -0.54466E+00 10640   0.908E+00-0.104E-01
CGA:   6    -0.128255953640E+04   -0.15977E+00   -0.15908E+00 10640   0.283E+00 0.293E-02
CGA:   7    -0.128261690712E+04   -0.57371E-01   -0.57308E-01 10640   0.795E-01-0.738E-03
CGA:   8    -0.128263342051E+04   -0.16513E-01   -0.16535E-01 10640   0.318E-01 0.563E-03
CGA:   9    -0.128264092172E+04   -0.75012E-02   -0.75120E-02 10640   0.149E-01 0.494E-03
CGA:  10    -0.128264516026E+04   -0.42385E-02   -0.42771E-02 10640   0.925E-02-0.159E-02
CGA:  11    -0.128264738402E+04   -0.22238E-02   -0.22581E-02 10640   0.710E-02-0.274E-02
CGA:  12    -0.128264844744E+04   -0.10634E-02   -0.10102E-02 10640   0.270E-02-0.879E-03
CGA:  13    -0.128264926783E+04   -0.82040E-03   -0.10202E-02 10640   0.384E-02-0.116E-02
CGA:  14    -0.128264956689E+04   -0.29906E-03   -0.31038E-03 10640   0.198E-02 0.930E-04
CGA:  15    -0.128264991406E+04   -0.34717E-03   -0.36710E-03 10640   0.200E-02 0.248E-03
CGA:  16    -0.128265048298E+04   -0.56891E-03   -0.56773E-03 10640   0.146E-02-0.263E-03
CGA:  17    -0.128265073912E+04   -0.25614E-03   -0.25884E-03 10640   0.122E-02 0.440E-04
CGA:  18    -0.128265088610E+04   -0.14698E-03   -0.19082E-03 10640   0.769E-03 0.424E-03
CGA:  19    -0.128265099252E+04   -0.10642E-03   -0.14675E-03 10640   0.389E-03 0.373E-03
CGA:  20    -0.128265107337E+04   -0.80853E-04   -0.95042E-04 10640   0.285E-03 0.177E-03
CGA:  21    -0.128265112138E+04   -0.48002E-04   -0.64838E-04 10640   0.199E-03 0.200E-03
CGA:  22    -0.128265113785E+04   -0.16472E-04   -0.26355E-04 10640   0.990E-04 0.955E-04
CGA:  23    -0.128265115908E+04   -0.21232E-04   -0.26019E-04 10640   0.836E-04 0.901E-04
CGA:  24    -0.128265116803E+04   -0.89470E-05   -0.12659E-04 10640   0.596E-04 0.484E-04
  60 F= -.12826512E+04 E0= -.12826512E+04  d E =0.332921E+00  mag=    47.0000
       N       E                     dE             d eps       ncg     rms          ort
SDA:   1    -0.126065005635E+04    0.22001E+02    0.00000E+00 10640   0.757E+02 0.000E+00
CGA:   2    -0.127493753673E+04   -0.14287E+02   -0.14289E+02 10640   0.267E+02 0.442E-01
CGA:   3    -0.128166080418E+04   -0.67233E+01   -0.67185E+01 10640   0.802E+01 0.747E-01
CGA:   4    -0.128287751777E+04   -0.12167E+01   -0.12162E+01 10640   0.126E+01 0.415E-01
CGA:   5    -0.128311568168E+04   -0.23816E+00   -0.23841E+00 10640   0.397E+00 0.602E-02
