       N       E                     dE             d eps       ncg     rms          ort
DAV:   1     0.102806663411E+05    0.10281E+05   -0.42475E+05 10640   0.155E+03
DAV:   2    -0.116789911671E+03   -0.10397E+05   -0.98162E+04 10640   0.474E+02
DAV:   3    -0.152250130659E+04   -0.14057E+04   -0.13108E+04 10640   0.182E+02
DAV:   4    -0.160460020732E+04   -0.82099E+02   -0.79848E+02 10640   0.462E+01
DAV:   5    -0.160694451580E+04   -0.23443E+01   -0.23367E+01 10640   0.836E+00
SDA:   6    -0.728621512824E+03    0.87832E+03   -0.23367E+01 10640   0.291E+04 0.000E+00
CGA:   7    -0.113378650536E+04   -0.40516E+03   -0.40217E+03 10640   0.109E+04-0.156E+02
CGA:   8    -0.115866803090E+04   -0.24882E+02   -0.59715E+02 10640   0.113E+04-0.612E+03
CGA:   9    -0.116934341579E+04   -0.10675E+02   -0.53998E+02 10640   0.145E+04-0.906E+03
CGA:  10    -0.116413744286E+04    0.52060E+01   -0.75079E+02 10640   0.184E+04-0.122E+04
CGA:  11    -0.116700651164E+04   -0.28691E+01   -0.88433E+02 10640   0.210E+04-0.173E+04
CGA:  12    -0.116229328006E+04    0.47132E+01   -0.10314E+03 10640   0.249E+04-0.206E+04
CGA:  13    -0.117428753109E+04   -0.11994E+02   -0.11536E+03 10640   0.227E+04-0.219E+04
CGA:  14    -0.119723487104E+04   -0.22947E+02   -0.98037E+02 10640   0.180E+04-0.199E+04
CGA:  15    -0.122634174716E+04   -0.29107E+02   -0.69091E+02 10640   0.831E+03-0.113E+04
CGA:  16    -0.124513799448E+04   -0.18796E+02   -0.26947E+02 10640   0.194E+03-0.311E+03
CGA:  17    -0.125383559323E+04   -0.86976E+01   -0.72435E+01 10640   0.544E+02 0.208E+02
CGA:  18    -0.126161518966E+04   -0.77796E+01   -0.78400E+01 10640   0.144E+03 0.405E+01
CGA:  19    -0.127334846994E+04   -0.11733E+02   -0.94584E+01 10640   0.304E+02 0.356E+01
CGA:  20    -0.127481838117E+04   -0.14699E+01   -0.14563E+01 10640   0.204E+02-0.118E-02
CGA:  21    -0.127682855544E+04   -0.20102E+01   -0.21327E+01 10640   0.239E+02 0.124E+01
CGA:  22    -0.127855233170E+04   -0.17238E+01   -0.16721E+01 10640   0.667E+01 0.390E+00
CGA:  23    -0.127917467697E+04   -0.62235E+00   -0.66407E+00 10640   0.652E+01 0.131E+00
CGA:  24    -0.127991327790E+04   -0.73860E+00   -0.73415E+00 10640   0.601E+01-0.519E+00
CGA:  25    -0.128066358843E+04   -0.75031E+00   -0.74952E+00 10640   0.329E+01-0.377E+00
CGA:  26    -0.128105090782E+04   -0.38732E+00   -0.38877E+00 10640   0.315E+01-0.473E+00
CGA:  27    -0.128162109348E+04   -0.57019E+00   -0.74972E+00 10640   0.384E+01-0.118E+01
CGA:  28    -0.128191725401E+04   -0.29616E+00   -0.29362E+00 10640   0.181E+01-0.484E+00
CGA:  29    -0.128233197337E+04   -0.41472E+00   -0.49151E+00 10640   0.245E+01-0.398E+00
CGA:  30    -0.128264758340E+04   -0.31561E+00   -0.32493E+00 10640   0.928E+00-0.353E+00
CGA:  31    -0.128284717084E+04   -0.19959E+00   -0.20716E+00 10640   0.808E+00-0.657E-01
CGA:  32    -0.128303033649E+04   -0.18317E+00   -0.17821E+00 10640   0.336E+00 0.511E-01
CGA:  33    -0.128310800506E+04   -0.77669E-01   -0.72473E-01 10640   0.202E+00 0.100E+00
CGA:  34    -0.128316061010E+04   -0.52605E-01   -0.48912E-01 10640   0.110E+00 0.114E+00
CGA:  35    -0.128318667339E+04   -0.26063E-01   -0.23236E-01 10640   0.589E-01 0.515E-01
CGA:  36    -0.128320244405E+04   -0.15771E-01   -0.14896E-01 10640   0.403E-01 0.618E-01
CGA:  37    -0.128320844866E+04   -0.60046E-02   -0.61768E-02 10640   0.275E-01 0.298E-01
CGA:  38    -0.128321190734E+04   -0.34587E-02   -0.38884E-02 10640   0.233E-01 0.250E-01
CGA:  39    -0.128321436523E+04   -0.24579E-02   -0.30413E-02 10640   0.202E-01 0.215E-01
CGA:  40    -0.128321618100E+04   -0.18158E-02   -0.24628E-02 10640   0.177E-01 0.188E-01
CGA:  41    -0.128321753610E+04   -0.13551E-02   -0.20286E-02 10640   0.158E-01 0.167E-01
CGA:  42    -0.128321856439E+04   -0.10283E-02   -0.17004E-02 10640   0.142E-01 0.149E-01
CGA:  43    -0.128321935385E+04   -0.78945E-03   -0.14452E-02 10640   0.129E-01 0.135E-01
CGA:  44    -0.128321996643E+04   -0.61259E-03   -0.12432E-02 10640   0.117E-01 0.123E-01
CGA:  45    -0.128322044582E+04   -0.47939E-03   -0.10806E-02 10640   0.108E-01 0.112E-01
CGA:  46    -0.128322082352E+04   -0.37770E-03   -0.94761E-03 10640   0.997E-02 0.104E-01
CGA:  47    -0.128322112260E+04   -0.29908E-03   -0.83746E-03 10640   0.925E-02 0.960E-02
CGA:  48    -0.128322136023E+04   -0.23763E-03   -0.74515E-03 10640   0.863E-02 0.893E-02
CGA:  49    -0.128322154936E+04   -0.18912E-03   -0.66699E-03 10640   0.808E-02 0.835E-02
CGA:  50    -0.128322169986E+04   -0.15051E-03   -0.60022E-03 10640   0.760E-02 0.784E-02
CGA:  51    -0.128322181940E+04   -0.11953E-03   -0.54271E-03 10640   0.717E-02 0.738E-02
CGA:  52    -0.128322191392E+04   -0.94529E-04   -0.49283E-03 10640   0.678E-02 0.697E-02
CGA:  53    -0.128322198815E+04   -0.74228E-04   -0.44929E-03 10640   0.643E-02 0.660E-02
CGA:  54    -0.128322204582E+04   -0.57669E-04   -0.41105E-03 10640   0.612E-02 0.627E-02
CGA:  55    -0.128322208993E+04   -0.44110E-04   -0.37729E-03 10640   0.584E-02 0.598E-02
CGA:  56    -0.128322212291E+04   -0.32976E-04   -0.34735E-03 10640   0.558E-02 0.571E-02
CGA:  57    -0.128322214672E+04   -0.23808E-04   -0.32068E-03 10640   0.534E-02 0.546E-02
CGA:  58    -0.128322216297E+04   -0.16252E-04   -0.29682E-03 10640   0.513E-02 0.524E-02
CGA:  59    -0.128322217299E+04   -0.10021E-04   -0.27540E-03 10640   0.493E-02 0.503E-02
CGA:  60    -0.128322217787E+04   -0.48794E-05   -0.25610E-03 10640   0.475E-02 0.484E-02
CGA:  61    -0.128322217851E+04   -0.64118E-06   -0.23865E-03 10640   0.459E-02 0.467E-02
CGA:  62    -0.128322217566E+04    0.28452E-05   -0.22283E-03 10640   0.443E-02 0.451E-02
CGA:  63    -0.128322216996E+04    0.57037E-05   -0.20844E-03 10640   0.429E-02 0.436E-02
CGA:  64    -0.128322216192E+04    0.80379E-05   -0.19532E-03 10640   0.416E-02 0.422E-02
CGA:  65    -0.128322215199E+04    0.99309E-05   -0.18333E-03 10640   0.403E-02 0.409E-02
CGA:  66    -0.128322214054E+04    0.11453E-04   -0.17234E-03 10640   0.392E-02 0.398E-02
CGA:  67    -0.128322212787E+04    0.12664E-04   -0.16225E-03 10640   0.381E-02 0.387E-02
CGA:  68    -0.128322211426E+04    0.13611E-04   -0.15296E-03 10640   0.371E-02 0.376E-02
CGA:  69    -0.128322209993E+04    0.14336E-04   -0.14440E-03 10640   0.362E-02 0.367E-02
CGA:  70    -0.128322208505E+04    0.14874E-04   -0.13648E-03 10640   0.354E-02 0.358E-02
CGA:  71    -0.128322206980E+04    0.15254E-04   -0.12915E-03 10640   0.345E-02 0.349E-02
CGA:  72    -0.128322205430E+04    0.15503E-04   -0.12235E-03 10640   0.338E-02 0.341E-02
CGA:  73    -0.128322203866E+04    0.15639E-04   -0.11603E-03 10640   0.330E-02 0.334E-02
CGA:  74    -0.128322202297E+04    0.15683E-04   -0.11015E-03 10640   0.324E-02 0.327E-02
CGA:  75    -0.128322200732E+04    0.15649E-04   -0.10466E-03 10640   0.317E-02 0.320E-02
CGA:  76    -0.128322199177E+04    0.15550E-04   -0.99543E-04 10640   0.311E-02 0.314E-02
CGA:  77    -0.128322197638E+04    0.15396E-04   -0.94757E-04 10640   0.305E-02 0.308E-02
CGA:  78    -0.128322196118E+04    0.15200E-04   -0.90275E-04 10640   0.300E-02 0.303E-02
CGA:  79    -0.128322194621E+04    0.14966E-04   -0.86074E-04 10640   0.295E-02 0.297E-02
CGA:  80    -0.128322193151E+04    0.14704E-04   -0.82129E-04 10640   0.290E-02 0.292E-02
CGA:  81    -0.128322191709E+04    0.14418E-04   -0.78422E-04 10640   0.285E-02 0.288E-02
CGA:  82    -0.128322190298E+04    0.14115E-04   -0.74934E-04 10640   0.281E-02 0.283E-02
CGA:  83    -0.128322188918E+04    0.13796E-04   -0.71647E-04 10640   0.277E-02 0.279E-02
CGA:  84    -0.128322187571E+04    0.13470E-04   -0.68547E-04 10640   0.273E-02 0.275E-02
CGA:  85    -0.128322186258E+04    0.13134E-04   -0.65621E-04 10640   0.269E-02 0.271E-02
CGA:  86    -0.128322184978E+04    0.12796E-04   -0.62855E-04 10640   0.266E-02 0.267E-02
CGA:  87    -0.128322183733E+04    0.12455E-04   -0.60239E-04 10640   0.262E-02 0.264E-02
CGA:  88    -0.128322182521E+04    0.12113E-04   -0.57762E-04 10640   0.259E-02 0.261E-02
CGA:  89    -0.128322181344E+04    0.11775E-04   -0.55414E-04 10640   0.256E-02 0.257E-02
CGA:  90    -0.128322180200E+04    0.11437E-04   -0.53186E-04 10640   0.253E-02 0.254E-02
CGA:  91    -0.128322179090E+04    0.11104E-04   -0.51072E-04 10640   0.250E-02 0.251E-02
CGA:  92    -0.128322178012E+04    0.10776E-04   -0.49063E-04 10640   0.247E-02 0.249E-02
CGA:  93    -0.128322176967E+04    0.10453E-04   -0.47154E-04 10640   0.245E-02 0.246E-02
CGA:  94    -0.128322175953E+04    0.10138E-04   -0.45336E-04 10640   0.242E-02 0.243E-02
CGA:  95    -0.128322174970E+04    0.98280E-05   -0.43606E-04 10640   0.240E-02 0.241E-02
CGA:  96    -0.128322174018E+04    0.95247E-05   -0.41957E-04 10640   0.238E-02 0.239E-02
CGA:  97    -0.128322173095E+04    0.92297E-05   -0.40385E-04 10640   0.235E-02 0.236E-02
CGA:  98    -0.128322172200E+04    0.89422E-05   -0.38885E-04 10640   0.233E-02 0.234E-02
CGA:  99    -0.128322171334E+04    0.86611E-05   -0.37453E-04 10640   0.231E-02 0.232E-02
CGA: 100    -0.128322170496E+04    0.83882E-05   -0.36085E-04 10640   0.229E-02 0.230E-02
CGA: 101    -0.128322169683E+04    0.81231E-05   -0.34777E-04 10640   0.227E-02 0.228E-02
CGA: 102    -0.128322168897E+04    0.78658E-05   -0.33527E-04 10640   0.226E-02 0.226E-02
CGA: 103    -0.128322168135E+04    0.76159E-05   -0.32331E-04 10640   0.224E-02 0.225E-02
CGA: 104    -0.128322167398E+04    0.73734E-05   -0.31186E-04 10640   0.222E-02 0.223E-02
CGA: 105    -0.128322166684E+04    0.71374E-05   -0.30089E-04 10640   0.221E-02 0.221E-02
CGA: 106    -0.128322165993E+04    0.69103E-05   -0.29038E-04 10640   0.219E-02 0.220E-02
CGA: 107    -0.128322165324E+04    0.66892E-05   -0.28030E-04 10640   0.218E-02 0.218E-02
CGA: 108    -0.128322164676E+04    0.64756E-05   -0.27064E-04 10640   0.216E-02 0.217E-02
CGA: 109    -0.128322164050E+04    0.62684E-05   -0.26137E-04 10640   0.215E-02 0.215E-02
CGA: 110    -0.128322163443E+04    0.60690E-05   -0.25247E-04 10640   0.214E-02 0.214E-02
CGA: 111    -0.128322162855E+04    0.58743E-05   -0.24393E-04 10640   0.212E-02 0.213E-02
CGA: 112    -0.128322162287E+04    0.56868E-05   -0.23572E-04 10640   0.211E-02 0.212E-02
CGA: 113    -0.128322161736E+04    0.55052E-05   -0.22783E-04 10640   0.210E-02 0.210E-02
CGA: 114    -0.128322161203E+04    0.53301E-05   -0.22025E-04 10640   0.209E-02 0.209E-02
CGA: 115    -0.128322160687E+04    0.51610E-05   -0.21295E-04 10640   0.208E-02 0.208E-02
CGA: 116    -0.128322160187E+04    0.49966E-05   -0.20594E-04 10640   0.207E-02 0.207E-02
CGA: 117    -0.128322159704E+04    0.48370E-05   -0.19919E-04 10640   0.205E-02 0.206E-02
CGA: 118    -0.128322159235E+04    0.46846E-05   -0.19269E-04 10640   0.205E-02 0.205E-02
CGA: 119    -0.128322158781E+04    0.45368E-05   -0.18643E-04 10640   0.204E-02 0.204E-02
CGA: 120    -0.128322158342E+04    0.43925E-05   -0.18041E-04 10640   0.203E-02 0.203E-02
CGA: 121    -0.128322157917E+04    0.42553E-05   -0.17460E-04 10640   0.202E-02 0.202E-02
CGA: 122    -0.128322157505E+04    0.41198E-05   -0.16901E-04 10640   0.201E-02 0.201E-02
CGA: 123    -0.128322157106E+04    0.39909E-05   -0.16361E-04 10640   0.200E-02 0.200E-02
CGA: 124    -0.128322156719E+04    0.38660E-05   -0.15841E-04 10640   0.199E-02 0.200E-02
CGA: 125    -0.128322156345E+04    0.37443E-05   -0.15340E-04 10640   0.198E-02 0.199E-02
CGA: 126    -0.128322155982E+04    0.36277E-05   -0.14856E-04 10640   0.198E-02 0.198E-02
CGA: 127    -0.128322155630E+04    0.35147E-05   -0.14389E-04 10640   0.197E-02 0.197E-02
CGA: 128    -0.128322155290E+04    0.34056E-05   -0.13939E-04 10640   0.196E-02 0.197E-02
CGA: 129    -0.128322154960E+04    0.32993E-05   -0.13504E-04 10640   0.196E-02 0.196E-02
CGA: 130    -0.128322154640E+04    0.31967E-05   -0.13084E-04 10640   0.195E-02 0.195E-02
CGA: 131    -0.128322154330E+04    0.30986E-05   -0.12678E-04 10640   0.194E-02 0.195E-02
CGA: 132    -0.128322154030E+04    0.30028E-05   -0.12287E-04 10640   0.194E-02 0.194E-02
CGA: 133    -0.128322153739E+04    0.29104E-05   -0.11908E-04 10640   0.193E-02 0.193E-02
CGA: 134    -0.128322153457E+04    0.28203E-05   -0.11543E-04 10640   0.193E-02 0.193E-02
CGA: 135    -0.128322153184E+04    0.27344E-05   -0.11189E-04 10640   0.192E-02 0.192E-02
CGA: 136    -0.128322152919E+04    0.26499E-05   -0.10848E-04 10640   0.191E-02 0.192E-02
CGA: 137    -0.128322152662E+04    0.25699E-05   -0.10517E-04 10640   0.191E-02 0.191E-02
CGA: 138    -0.128322152412E+04    0.24910E-05   -0.10198E-04 10640   0.190E-02 0.191E-02
   1 F= -.12832215E+04 E0= -.12832215E+04  d E =-.128322E+04  mag=    47.0000
       N       E                     dE             d eps       ncg     rms          ort
SDA:   1    -0.128322110714E+04    0.41947E-03    0.00000E+00 10640   0.328E-02 0.000E+00
CGA:   2    -0.128322118243E+04   -0.75287E-04   -0.56805E-04 10640   0.282E-02 0.308E-02
CGA:   3    -0.128322123848E+04   -0.56052E-04   -0.44729E-04 10640   0.252E-02 0.270E-02
CGA:   4    -0.128322128277E+04   -0.44286E-04   -0.37227E-04 10640   0.231E-02 0.244E-02
CGA:   5    -0.128322131922E+04   -0.36450E-04   -0.32140E-04 10640   0.215E-02 0.224E-02
CGA:   6    -0.128322135012E+04   -0.30902E-04   -0.28470E-04 10640   0.202E-02 0.210E-02
CGA:   7    -0.128322137691E+04   -0.26789E-04   -0.25695E-04 10640   0.192E-02 0.198E-02
CGA:   8    -0.128322140054E+04   -0.23635E-04   -0.23522E-04 10640   0.184E-02 0.189E-02
CGA:   9    -0.128322142168E+04   -0.21140E-04   -0.21768E-04 10640   0.177E-02 0.181E-02
CGA:  10    -0.128322144080E+04   -0.19122E-04   -0.20318E-04 10640   0.171E-02 0.175E-02
CGA:  11    -0.128322145826E+04   -0.17459E-04   -0.19097E-04 10640   0.166E-02 0.169E-02
CGA:  12    -0.128322147432E+04   -0.16062E-04   -0.18050E-04 10640   0.162E-02 0.164E-02
CGA:  13    -0.128322148920E+04   -0.14872E-04   -0.17138E-04 10640   0.158E-02 0.160E-02
CGA:  14    -0.128322150304E+04   -0.13848E-04   -0.16335E-04 10640   0.154E-02 0.156E-02
CGA:  15    -0.128322151600E+04   -0.12955E-04   -0.15620E-04 10640   0.151E-02 0.153E-02
CGA:  16    -0.128322152817E+04   -0.12168E-04   -0.14976E-04 10640   0.148E-02 0.150E-02
CGA:  17    -0.128322153964E+04   -0.11470E-04   -0.14391E-04 10640   0.146E-02 0.147E-02
CGA:  18    -0.128322155048E+04   -0.10846E-04   -0.13858E-04 10640   0.143E-02 0.145E-02
CGA:  19    -0.128322156077E+04   -0.10282E-04   -0.13366E-04 10640   0.141E-02 0.142E-02
CGA:  20    -0.128322157054E+04   -0.97717E-05   -0.12910E-04 10640   0.139E-02 0.140E-02
CGA:  21    -0.128322157984E+04   -0.93049E-05   -0.12486E-04 10640   0.137E-02 0.138E-02
CGA:  22    -0.128322158872E+04   -0.88784E-05   -0.12090E-04 10640   0.136E-02 0.137E-02
CGA:  23    -0.128322159720E+04   -0.84848E-05   -0.11718E-04 10640   0.134E-02 0.135E-02
CGA:  24    -0.128322160533E+04   -0.81215E-05   -0.11367E-04 10640   0.133E-02 0.133E-02
CGA:  25    -0.128322161311E+04   -0.77844E-05   -0.11035E-04 10640   0.131E-02 0.132E-02
CGA:  26    -0.128322162058E+04   -0.74701E-05   -0.10720E-04 10640   0.130E-02 0.130E-02
CGA:  27    -0.128322162776E+04   -0.71761E-05   -0.10420E-04 10640   0.128E-02 0.129E-02
CGA:  28    -0.128322163466E+04   -0.69006E-05   -0.10135E-04 10640   0.127E-02 0.128E-02
   2 F= -.12832216E+04 E0= -.12832216E+04  d E =-.110533E-03  mag=    47.0000
       N       E                     dE             d eps       ncg     rms          ort
SDA:   1    -0.128320596018E+04    0.15668E-01    0.00000E+00 10640   0.785E-01 0.000E+00
CGA:   2    -0.128321445046E+04   -0.84903E-02   -0.83154E-02 10640   0.377E-01 0.525E-01
CGA:   3    -0.128322164959E+04   -0.71991E-02   -0.57292E-02 10640   0.173E-01 0.234E-01
CGA:   4    -0.128322746928E+04   -0.58197E-02   -0.35487E-02 10640   0.593E-02 0.961E-02
CGA:   5    -0.128323033918E+04   -0.28699E-02   -0.55149E-03 10640   0.137E-02 0.164E-02
CGA:   6    -0.128323068453E+04   -0.34534E-03   -0.30496E-03 10640   0.736E-03 0.647E-03
CGA:   7    -0.128323083424E+04   -0.14972E-03   -0.13894E-03 10640   0.551E-03 0.858E-03
CGA:   8    -0.128323090172E+04   -0.67477E-04   -0.65946E-04 10640   0.435E-03 0.442E-03
CGA:   9    -0.128323098331E+04   -0.81591E-04   -0.66332E-04 10640   0.410E-03 0.420E-03
CGA:  10    -0.128323105671E+04   -0.73401E-04   -0.61051E-04 10640   0.390E-03 0.399E-03
CGA:  11    -0.128323113895E+04   -0.82235E-04   -0.64680E-04 10640   0.372E-03 0.381E-03
CGA:  12    -0.128323121837E+04   -0.79426E-04   -0.62565E-04 10640   0.355E-03 0.363E-03
CGA:  13    -0.128323130523E+04   -0.86854E-04   -0.65704E-04 10640   0.338E-03 0.346E-03
CGA:  14    -0.128323139079E+04   -0.85565E-04   -0.64513E-04 10640   0.322E-03 0.329E-03
CGA:  15    -0.128323148415E+04   -0.93353E-04   -0.67957E-04 10640   0.305E-03 0.313E-03
CGA:  16    -0.128323157664E+04   -0.92493E-04   -0.67085E-04 10640   0.289E-03 0.296E-03
CGA:  17    -0.128323167776E+04   -0.10112E-03   -0.71100E-04 10640   0.274E-03 0.279E-03
CGA:  18    -0.128323177922E+04   -0.10146E-03   -0.71209E-04 10640   0.264E-03 0.260E-03
CGA:  19    -0.128323187400E+04   -0.94775E-04   -0.68830E-04 10640   0.273E-03 0.232E-03
CGA:  20    -0.128323197134E+04   -0.97339E-04   -0.77136E-04 10640   0.396E-03 0.158E-03
CGA:  21    -0.128323201537E+04   -0.44028E-04   -0.49403E-04 10640   0.254E-03 0.145E-03
CGA:  22    -0.128323217485E+04   -0.15949E-03   -0.11090E-03 10640   0.421E-03 0.301E-03
CGA:  23    -0.128323223912E+04   -0.64266E-04   -0.64536E-04 10640   0.318E-03 0.184E-04
CGA:  24    -0.128323238302E+04   -0.14390E-03   -0.10128E-03 10640   0.298E-03 0.306E-03
CGA:  25    -0.128323244236E+04   -0.59341E-04   -0.59263E-04 10640   0.352E-03 0.299E-05
CGA:  26    -0.128323287218E+04   -0.42983E-03   -0.27355E-03 10640   0.402E-03 0.252E-03
CGA:  27    -0.128323287889E+04   -0.67061E-05   -0.31132E-04 10640   0.134E-03 0.192E-03
CGA:  28    -0.128323288025E+04   -0.13580E-05   -0.15647E-04 10640   0.115E-03 0.119E-03
CGA:  29    -0.128323293612E+04   -0.55869E-04    0.42548E-04 10640   0.106E-03 0.887E-04
CGA:  30    -0.128323294889E+04   -0.12771E-04   -0.16321E-04 10640   0.962E-04 0.897E-04
CGA:  31    -0.128323298968E+04   -0.40798E-04    0.82217E-04 10640   0.920E-04 0.888E-04
CGA:  32    -0.128323302135E+04   -0.31665E-04   -0.24950E-04 10640   0.919E-04 0.827E-04
CGA:  33    -0.128323306312E+04   -0.41772E-04    0.53698E-04 10640   0.883E-04 0.754E-04
CGA:  34    -0.128323308056E+04   -0.17441E-04   -0.17336E-04 10640   0.855E-04 0.719E-04
CGA:  35    -0.128323311593E+04   -0.35367E-04    0.13599E-03 10640   0.832E-04 0.681E-04
CGA:  36    -0.128323313812E+04   -0.22192E-04   -0.19684E-04 10640   0.912E-04 0.597E-04
CGA:  37    -0.128323317411E+04   -0.35989E-04   -0.56424E-04 10640   0.726E-03-0.490E-04
CGA:  38    -0.128323323484E+04   -0.60731E-04   -0.67086E-04 10640   0.640E-04 0.525E-04
CGA:  39    -0.128323324077E+04   -0.59256E-05   -0.98791E-05 10640   0.699E-04 0.582E-04
CGA:  40    -0.128323323775E+04    0.30167E-05   -0.16794E-04 10640   0.201E-02-0.939E-04
CGA:  41    -0.128323339293E+04   -0.15518E-03   -0.18074E-03 10640   0.532E-04 0.973E-04
CGA:  42    -0.128323338821E+04    0.47194E-05   -0.58286E-05 10640   0.438E-04 0.404E-04
   3 F= -.12832334E+04 E0= -.12832334E+04  d E =-.117535E-01  mag=    47.0000
       N       E                     dE             d eps       ncg     rms          ort
SDA:   1    -0.128276921137E+04    0.46418E+00    0.00000E+00 10640   0.171E+01 0.000E+00
CGA:   2    -0.128306119693E+04   -0.29199E+00   -0.29222E+00 10640   0.635E+00 0.815E-02
CGA:   3    -0.128319971144E+04   -0.13851E+00   -0.13795E+00 10640   0.278E+00-0.180E-02
CGA:   4    -0.128324260547E+04   -0.42894E-01   -0.42320E-01 10640   0.363E-01 0.121E-03
CGA:   5    -0.128324959363E+04   -0.69882E-02   -0.66620E-02 10640   0.107E-01-0.873E-03
CGA:   6    -0.128325145273E+04   -0.18591E-02   -0.18962E-02 10640   0.305E-02 0.128E-03
CGA:   7    -0.128325216715E+04   -0.71442E-03   -0.66235E-03 10640   0.103E-02-0.161E-03
CGA:   8    -0.128325227114E+04   -0.10399E-03   -0.15763E-03 10640   0.273E-03 0.150E-03
CGA:   9    -0.128325237212E+04   -0.10098E-03   -0.97900E-04 10640   0.176E-03-0.162E-04
CGA:  10    -0.128325244976E+04   -0.77637E-04   -0.99730E-04 10640   0.694E-03-0.203E-03
CGA:  11    -0.128325254168E+04   -0.91923E-04   -0.84012E-04 10640   0.148E-03-0.192E-04
CGA:  12    -0.128325258361E+04   -0.41924E-04   -0.38725E-04 10640   0.715E-04-0.150E-04
CGA:  13    -0.128325258904E+04   -0.54321E-05   -0.49995E-04 10640   0.869E-03-0.145E-03
CGA:  14    -0.128325262658E+04   -0.37547E-04   -0.75632E-04 10640   0.705E-04 0.989E-04
CGA:  15    -0.128325263251E+04   -0.59294E-05   -0.13034E-04 10640   0.399E-04 0.237E-04
CGA:  16    -0.128325264429E+04   -0.11773E-04   -0.11606E-04 10640   0.273E-04-0.745E-06
CGA:  17    -0.128325264087E+04    0.34164E-05   -0.23810E-05 10640   0.176E-04 0.165E-04
   4 F= -.12832526E+04 E0= -.12832526E+04  d E =-.192527E-01  mag=    47.0000
       N       E                     dE             d eps       ncg     rms          ort
SDA:   1    -0.128265458597E+04    0.59806E+00    0.00000E+00 10640   0.191E+01 0.000E+00
CGA:   2    -0.128304058218E+04   -0.38600E+00   -0.38605E+00 10640   0.767E+00 0.655E-03
CGA:   3    -0.128322127397E+04   -0.18069E+00   -0.18066E+00 10640   0.246E+00-0.561E-04
CGA:   4    -0.128325555348E+04   -0.34280E-01   -0.34222E-01 10640   0.424E-01-0.511E-03
CGA:   5    -0.128326264429E+04   -0.70908E-02   -0.72235E-02 10640   0.110E-01 0.754E-03
CGA:   6    -0.128326499422E+04   -0.23499E-02   -0.22920E-02 10640   0.356E-02-0.359E-03
CGA:   7    -0.128326558850E+04   -0.59428E-03   -0.64802E-03 10640   0.958E-03 0.323E-03
CGA:   8    -0.128326589966E+04   -0.31115E-03   -0.29139E-03 10640   0.778E-03-0.282E-03
CGA:   9    -0.128326596717E+04   -0.67514E-04   -0.82846E-04 10640   0.326E-03 0.793E-04
CGA:  10    -0.128326600871E+04   -0.41538E-04   -0.58324E-04 10640   0.191E-03 0.969E-04
CGA:  11    -0.128326606143E+04   -0.52720E-04   -0.51080E-04 10640   0.138E-03-0.134E-04
CGA:  12    -0.128326607518E+04   -0.13755E-04   -0.21150E-04 10640   0.893E-04 0.470E-04
CGA:  13    -0.128326608174E+04   -0.65570E-05   -0.16176E-04 10640   0.620E-04 0.538E-04
CGA:  14    -0.128326596196E+04    0.11978E-03   -0.74786E-04 10640   0.224E-02-0.215E-03
CGA:  15    -0.128326610277E+04   -0.14081E-03   -0.19023E-03 10640   0.129E-03 0.197E-03
CGA:  16    -0.128326611242E+04   -0.96475E-05   -0.20648E-04 10640   0.592E-04 0.581E-04
CGA:  17    -0.128326612170E+04   -0.92814E-05   -0.12721E-04 10640   0.176E-04 0.193E-04
   5 F= -.12832661E+04 E0= -.12832661E+04  d E =-.134808E-01  mag=    47.0000
       N       E                     dE             d eps       ncg     rms          ort
SDA:   1    -0.128225713920E+04    0.10090E+01    0.00000E+00 10640   0.333E+01 0.000E+00
CGA:   2    -0.128289036117E+04   -0.63322E+00   -0.63393E+00 10640   0.119E+01 0.722E-02
CGA:   3    -0.128319565367E+04   -0.30529E+00   -0.30509E+00 10640   0.364E+00-0.534E-02
CGA:   4    -0.128324881947E+04   -0.53166E-01   -0.53345E-01 10640   0.572E-01 0.197E-02
CGA:   5    -0.128325952795E+04   -0.10708E-01   -0.10585E-01 10640   0.188E-01-0.113E-02
CGA:   6    -0.128326262307E+04   -0.30951E-02   -0.31272E-02 10640   0.551E-02 0.304E-03
CGA:   7    -0.128326385482E+04   -0.12317E-02   -0.12243E-02 10640   0.155E-02-0.116E-03
CGA:   8    -0.128326413459E+04   -0.27977E-03   -0.29041E-03 10640   0.586E-03 0.125E-03
CGA:   9    -0.128326432378E+04   -0.18919E-03   -0.19177E-03 10640   0.464E-03-0.862E-04
CGA:  10    -0.128326441296E+04   -0.89175E-04   -0.89496E-04 10640   0.248E-03 0.600E-05
CGA:  11    -0.128326456107E+04   -0.14812E-03    0.40167E-03 10640   0.139E-03 0.207E-04
CGA:  12    -0.128326461922E+04   -0.58149E-04   -0.65907E-04 10640   0.267E-03-0.481E-04
CGA:  13    -0.128326465179E+04   -0.32569E-04   -0.77288E-04 10640   0.653E-03-0.281E-03
CGA:  14    -0.128326472598E+04   -0.74194E-04   -0.92606E-04 10640   0.234E-03 0.127E-03
CGA:  15    -0.128326477962E+04   -0.53641E-04   -0.57615E-04 10640   0.586E-04 0.529E-04
CGA:  16    -0.128326478324E+04   -0.36190E-05   -0.97649E-05 10640   0.354E-04 0.434E-04
   6 F= -.12832648E+04 E0= -.12832648E+04  d E =0.133846E-02  mag=    47.0000
       N       E                     dE             d eps       ncg     rms          ort
SDA:   1    -0.128002641015E+04    0.32384E+01    0.00000E+00 10640   0.102E+02 0.000E+00
CGA:   2    -0.128206860755E+04   -0.20422E+01   -0.20416E+01 10640   0.389E+01-0.744E-02
CGA:   3    -0.128304122041E+04   -0.97261E+00   -0.97274E+00 10640   0.103E+01 0.107E-01
CGA:   4    -0.128319763010E+04   -0.15641E+00   -0.15689E+00 10640   0.163E+00 0.507E-02
CGA:   5    -0.128322874017E+04   -0.31110E-01   -0.31261E-01 10640   0.491E-01 0.250E-02
CGA:   6    -0.128323752476E+04   -0.87846E-02   -0.87966E-02 10640   0.169E-01 0.194E-03
CGA:   7    -0.128324071400E+04   -0.31892E-02   -0.32143E-02 10640   0.424E-02 0.452E-03
CGA:   8    -0.128324179441E+04   -0.10804E-02   -0.10828E-02 10640   0.252E-02-0.576E-03
CGA:   9    -0.128324209437E+04   -0.29996E-03   -0.33685E-03 10640   0.810E-03 0.412E-03
CGA:  10    -0.128324221594E+04   -0.12157E-03   -0.15322E-03 10640   0.381E-03 0.409E-03
CGA:  11    -0.128324226813E+04   -0.52191E-04   -0.61498E-04 10640   0.227E-03 0.125E-03
CGA:  12    -0.128324227168E+04   -0.35522E-05   -0.31794E-04 10640   0.135E-03 0.223E-03
CGA:  13    -0.128324226968E+04    0.20036E-05   -0.11984E-04 10640   0.957E-04 0.102E-03
CGA:  14    -0.128324227116E+04   -0.14857E-05   -0.10868E-04 10640   0.830E-04 0.887E-04
   7 F= -.12832423E+04 E0= -.12832423E+04  d E =0.225121E-01  mag=    47.0000
       N       E                     dE             d eps       ncg     rms          ort
SDA:   1    -0.128227106280E+04    0.97121E+00    0.00000E+00 10640   0.319E+01 0.000E+00
CGA:   2    -0.128290185539E+04   -0.63079E+00   -0.63090E+00 10640   0.122E+01 0.111E-01
CGA:   3    -0.128320767573E+04   -0.30582E+00   -0.30621E+00 10640   0.352E+00-0.982E-02
CGA:   4    -0.128325849796E+04   -0.50822E-01   -0.50860E-01 10640   0.575E-01 0.102E-02
CGA:   5    -0.128326925471E+04   -0.10757E-01   -0.10702E-01 10640   0.202E-01-0.257E-02
CGA:   6    -0.128327242603E+04   -0.31713E-02   -0.31746E-02 10640   0.536E-02 0.106E-03
CGA:   7    -0.128327357824E+04   -0.11522E-02   -0.11510E-02 10640   0.127E-02 0.127E-03
CGA:   8    -0.128327384968E+04   -0.27144E-03   -0.27087E-03 10640   0.457E-03 0.116E-03
CGA:   9    -0.128327397946E+04   -0.12978E-03   -0.13103E-03 10640   0.285E-03-0.209E-04
CGA:  10    -0.128327375925E+04    0.22021E-03   -0.21858E-03 10640   0.342E-02-0.737E-03
CGA:  11    -0.128327414363E+04   -0.38439E-03   -0.36116E-03 10640   0.457E-03-0.180E-03
CGA:  12    -0.128327421251E+04   -0.68875E-04   -0.75406E-04 10640   0.967E-04 0.117E-03
CGA:  13    -0.128327425477E+04   -0.42258E-04   -0.48947E-04 10640   0.160E-03-0.381E-04
CGA:  14    -0.128327426352E+04   -0.87484E-05   -0.94833E-05 10640   0.802E-04 0.543E-05
   8 F= -.12832743E+04 E0= -.12832742E+04  d E =-.319924E-01  mag=    47.0000
       N       E                     dE             d eps       ncg     rms          ort
SDA:   1    -0.128253483543E+04    0.73942E+00    0.00000E+00 10640   0.208E+01 0.000E+00
CGA:   2    -0.128300510174E+04   -0.47027E+00   -0.47024E+00 10640   0.922E+00 0.651E-02
CGA:   3    -0.128322203225E+04   -0.21693E+00   -0.21702E+00 10640   0.204E+00-0.729E-02
CGA:   4    -0.128325244297E+04   -0.30411E-01   -0.30455E-01 10640   0.370E-01 0.804E-03
CGA:   5    -0.128325978566E+04   -0.73427E-02   -0.73032E-02 10640   0.127E-01-0.171E-02
CGA:   6    -0.128326166780E+04   -0.18821E-02   -0.18993E-02 10640   0.353E-02 0.299E-03
CGA:   7    -0.128326244240E+04   -0.77460E-03   -0.77459E-03 10640   0.947E-03-0.125E-04
CGA:   8    -0.128326264378E+04   -0.20138E-03   -0.20142E-03 10640   0.407E-03 0.214E-04
CGA:   9    -0.128326275404E+04   -0.11026E-03   -0.11503E-03 10640   0.287E-03-0.768E-04
CGA:  10    -0.128326257837E+04    0.17567E-03   -0.18274E-03 10640   0.259E-02-0.633E-03
CGA:  11    -0.128326289299E+04   -0.31462E-03   -0.29591E-03 10640   0.421E-03-0.144E-03
CGA:  12    -0.128326295345E+04   -0.60464E-04   -0.68262E-04 10640   0.953E-04 0.115E-03
CGA:  13    -0.128326298870E+04   -0.35248E-04   -0.35474E-04 10640   0.111E-03-0.398E-05
CGA:  14    -0.128326300779E+04   -0.19083E-04   -0.19013E-04 10640   0.361E-04-0.104E-05
CGA:  15    -0.128326301493E+04   -0.71485E-05   -0.73686E-05 10640   0.334E-04 0.724E-05
CGA:  16    -0.128326298969E+04    0.25241E-04   -0.31889E-04 10640   0.317E-03-0.102E-03
CGA:  17    -0.128326301950E+04   -0.29804E-04   -0.37011E-04 10640   0.729E-04 0.499E-04
CGA:  18    -0.128326303386E+04   -0.14360E-04   -0.16168E-04 10640   0.225E-04 0.283E-04
CGA:  19    -0.128326303912E+04   -0.52641E-05   -0.54681E-05 10640   0.136E-04 0.264E-05
   9 F= -.12832630E+04 E0= -.12832630E+04  d E =0.112244E-01  mag=    47.0000
       N       E                     dE             d eps       ncg     rms          ort
SDA:   1    -0.127410318896E+04    0.91598E+01    0.00000E+00 10640   0.249E+02 0.000E+00
CGA:   2    -0.128014847813E+04   -0.60453E+01   -0.60452E+01 10640   0.115E+02-0.141E-01
CGA:   3    -0.128275317153E+04   -0.26047E+01   -0.26050E+01 10640   0.205E+01 0.100E-01
CGA:   4    -0.128308963436E+04   -0.33646E+00   -0.33681E+00 10640   0.382E+00 0.412E-02
CGA:   5    -0.128316951705E+04   -0.79883E-01   -0.79918E-01 10640   0.902E-01 0.110E-02
CGA:   6    -0.128318912159E+04   -0.19605E-01   -0.19610E-01 10640   0.309E-01 0.329E-03
CGA:   7    -0.128319524418E+04   -0.61226E-02   -0.60558E-02 10640   0.997E-02-0.147E-02
CGA:   8    -0.128319738275E+04   -0.21386E-02   -0.21392E-02 10640   0.368E-02 0.638E-04
CGA:   9    -0.128319848412E+04   -0.11014E-02   -0.11225E-02 10640   0.215E-02-0.318E-03
CGA:  10    -0.128319878844E+04   -0.30432E-03   -0.32910E-03 10640   0.777E-03 0.341E-03
CGA:  11    -0.128319901306E+04   -0.22462E-03   -0.22400E-03 10640   0.327E-03 0.511E-04
CGA:  12    -0.128319909890E+04   -0.85837E-04   -0.86105E-04 10640   0.287E-03-0.277E-04
CGA:  13    -0.128319913107E+04   -0.32171E-04   -0.40584E-04 10640   0.124E-03 0.101E-03
CGA:  14    -0.128319913871E+04   -0.76421E-05   -0.18709E-04 10640   0.901E-04 0.905E-04
CGA:  15    -0.128319915666E+04   -0.17944E-04   -0.18729E-04 10640   0.644E-04 0.402E-04
CGA:  16    -0.128319916468E+04   -0.80207E-05   -0.13480E-04 10640   0.392E-04 0.667E-04
  10 F= -.12831992E+04 E0= -.12831991E+04  d E =0.638744E-01  mag=    47.0000
       N       E                     dE             d eps       ncg     rms          ort
SDA:   1    -0.126773114956E+04    0.15468E+02    0.00000E+00 10640   0.460E+02 0.000E+00
CGA:   2    -0.127753564292E+04   -0.98045E+01   -0.98047E+01 10640   0.192E+02 0.576E-01
CGA:   3    -0.128218559295E+04   -0.46500E+01   -0.46495E+01 10640   0.460E+01-0.113E-01
CGA:   4    -0.128288031831E+04   -0.69473E+00   -0.69420E+00 10640   0.803E+00 0.998E-02
CGA:   5    -0.128303118324E+04   -0.15086E+00   -0.15067E+00 10640   0.263E+00-0.853E-02
CGA:   6    -0.128307418884E+04   -0.43006E-01   -0.43018E-01 10640   0.798E-01 0.113E-02
CGA:   7    -0.128309097851E+04   -0.16790E-01   -0.16789E-01 10640   0.208E-01-0.365E-03
CGA:   8    -0.128309570318E+04   -0.47247E-02   -0.47423E-02 10640   0.959E-02-0.958E-03
CGA:   9    -0.128309772250E+04   -0.20193E-02   -0.20215E-02 10640   0.450E-02-0.229E-03
CGA:  10    -0.128309898679E+04   -0.12643E-02   -0.15588E-02 10640   0.534E-02-0.207E-02
CGA:  11    -0.128309962339E+04   -0.63660E-03   -0.66749E-03 10640   0.361E-02-0.274E-02
CGA:  12    -0.128310006975E+04   -0.44636E-03   -0.49897E-03 10640   0.130E-02 0.647E-03
CGA:  13    -0.128310044882E+04   -0.37907E-03   -0.38218E-03 10640   0.497E-03-0.936E-04
CGA:  14    -0.128310053136E+04   -0.82544E-04   -0.32456E-03 10640   0.202E-02-0.499E-03
CGA:  15    -0.128310074589E+04   -0.21453E-03   -0.22592E-03 10640   0.419E-03 0.908E-04
CGA:  16    -0.128310087314E+04   -0.12725E-03   -0.12643E-03 10640   0.178E-03 0.153E-04
CGA:  17    -0.128310099784E+04   -0.12470E-03    0.52644E-04 10640   0.147E-03 0.440E-05
CGA:  18    -0.128310104437E+04   -0.46527E-04   -0.44054E-04 10640   0.991E-04 0.451E-04
CGA:  19    -0.128310111153E+04   -0.67165E-04   -0.57502E-04 10640   0.196E-03 0.456E-04
CGA:  20    -0.128310129198E+04   -0.18045E-03    0.14043E-03 10640   0.103E-03 0.963E-04
CGA:  21    -0.128310135236E+04   -0.60376E-04   -0.55321E-04 10640   0.120E-03 0.432E-04
CGA:  22    -0.128310143437E+04   -0.82008E-04   -0.91010E-04 10640   0.255E-03-0.408E-04
CGA:  23    -0.128310147255E+04   -0.38186E-04   -0.62455E-04 10640   0.338E-03-0.268E-03
CGA:  24    -0.128310150347E+04   -0.30920E-04   -0.42558E-04 10640   0.113E-03 0.784E-04
CGA:  25    -0.128310151278E+04   -0.93036E-05   -0.19090E-04 10640   0.535E-04 0.752E-04
CGA:  26    -0.128310152383E+04   -0.11052E-04   -0.11504E-04 10640   0.401E-04 0.984E-05
CGA:  27    -0.128310152236E+04    0.14651E-05   -0.43244E-05 10640   0.217E-04 0.345E-04
  11 F= -.12831015E+04 E0= -.12831015E+04  d E =0.976423E-01  mag=    47.0000
       N       E                     dE             d eps       ncg     rms          ort
SDA:   1    -0.127714929956E+04    0.59522E+01    0.00000E+00 10640   0.186E+02 0.000E+00
CGA:   2    -0.128099234426E+04   -0.38430E+01   -0.38425E+01 10640   0.737E+01-0.136E-01
CGA:   3    -0.128282236521E+04   -0.18300E+01   -0.18298E+01 10640   0.173E+01 0.199E-01
CGA:   4    -0.128309602660E+04   -0.27366E+00   -0.27439E+00 10640   0.269E+00 0.878E-02
CGA:   5    -0.128315360972E+04   -0.57583E-01   -0.57633E-01 10640   0.653E-01 0.230E-02
CGA:   6    -0.128316804828E+04   -0.14439E-01   -0.14450E-01 10640   0.220E-01 0.779E-03
CGA:   7    -0.128317220469E+04   -0.41564E-02   -0.41338E-02 10640   0.725E-02-0.445E-03
CGA:   8    -0.128317377308E+04   -0.15684E-02   -0.15655E-02 10640   0.303E-02-0.264E-03
CGA:   9    -0.128317431991E+04   -0.54683E-03   -0.56712E-03 10640   0.120E-02 0.565E-03
CGA:  10    -0.128317456940E+04   -0.24949E-03   -0.26673E-03 10640   0.494E-03 0.414E-03
CGA:  11    -0.128317463318E+04   -0.63780E-04   -0.95355E-04 10640   0.232E-03 0.380E-03
CGA:  12    -0.128317466491E+04   -0.31724E-04   -0.39537E-04 10640   0.148E-03 0.149E-03
CGA:  13    -0.128317468883E+04   -0.23928E-04   -0.27521E-04 10640   0.125E-03 0.104E-03
CGA:  14    -0.128317469011E+04   -0.12796E-05   -0.12693E-04 10640   0.978E-04 0.975E-04
CGA:  15    -0.128317469710E+04   -0.69850E-05   -0.13622E-04 10640   0.866E-04 0.906E-04
  12 F= -.12831747E+04 E0= -.12831746E+04  d E =-.731747E-01  mag=    47.0000
       N       E                     dE             d eps       ncg     rms          ort
SDA:   1    -0.127881067260E+04    0.43640E+01    0.00000E+00 10640   0.116E+02 0.000E+00
CGA:   2    -0.128169178227E+04   -0.28811E+01   -0.28816E+01 10640   0.541E+01-0.118E-01
CGA:   3    -0.128290962426E+04   -0.12178E+01   -0.12176E+01 10640   0.918E+00 0.110E-01
CGA:   4    -0.128306268980E+04   -0.15307E+00   -0.15309E+00 10640   0.179E+00 0.622E-03
CGA:   5    -0.128309869221E+04   -0.36002E-01   -0.36009E-01 10640   0.453E-01 0.181E-02
CGA:   6    -0.128310785467E+04   -0.91625E-02   -0.91571E-02 10640   0.190E-01-0.106E-02
CGA:   7    -0.128311095324E+04   -0.30986E-02   -0.30999E-02 10640   0.496E-02 0.620E-04
CGA:   8    -0.128311216942E+04   -0.12162E-02   -0.12319E-02 10640   0.247E-02-0.347E-03
CGA:   9    -0.128311262516E+04   -0.45574E-03   -0.45654E-03 10640   0.113E-02 0.132E-03
CGA:  10    -0.128311292570E+04   -0.30053E-03   -0.29886E-03 10640   0.428E-03 0.361E-04
CGA:  11    -0.128311301049E+04   -0.84795E-04   -0.86583E-04 10640   0.146E-03 0.163E-03
CGA:  12    -0.128311307445E+04   -0.63963E-04   -0.61159E-04 10640   0.997E-04 0.283E-04
CGA:  13    -0.128311308481E+04   -0.10352E-04   -0.16486E-04 10640   0.739E-04 0.839E-04
CGA:  14    -0.128311309325E+04   -0.84477E-05   -0.11257E-04 10640   0.424E-04 0.506E-04
  13 F= -.12831131E+04 E0= -.12831131E+04  d E =0.616038E-01  mag=    47.0000
       N       E                     dE             d eps       ncg     rms          ort
SDA:   1    -0.125892893322E+04    0.24184E+02    0.00000E+00 10640   0.687E+02 0.000E+00
CGA:   2    -0.127468224752E+04   -0.15753E+02   -0.15752E+02 10640   0.306E+02 0.746E-01
CGA:   3    -0.128181719033E+04   -0.71349E+01   -0.71344E+01 10640   0.623E+01-0.152E-01
CGA:   4    -0.128279925480E+04   -0.98206E+00   -0.98200E+00 10640   0.114E+01 0.571E-02
CGA:   5    -0.128302414997E+04   -0.22490E+00   -0.22486E+00 10640   0.343E+00-0.373E-02
CGA:   6    -0.128308272340E+04   -0.58573E-01   -0.58492E-01 10640   0.123E+00-0.272E-02
CGA:   7    -0.128310573121E+04   -0.23008E-01   -0.23010E-01 10640   0.315E-01 0.384E-03
CGA:   8    -0.128311359050E+04   -0.78593E-02   -0.80603E-02 10640   0.168E-01-0.377E-02
CGA:   9    -0.128311650341E+04   -0.29129E-02   -0.29164E-02 10640   0.656E-02 0.469E-03
CGA:  10    -0.128311841175E+04   -0.19083E-02   -0.30242E-02 10640   0.977E-02-0.457E-02
CGA:  11    -0.128311961364E+04   -0.12019E-02   -0.12325E-02 10640   0.215E-02 0.352E-03
CGA:  12    -0.128312010574E+04   -0.49210E-03   -0.49894E-03 10640   0.963E-03-0.591E-03
CGA:  13    -0.128312030591E+04   -0.20017E-03   -0.23471E-03 10640   0.966E-03-0.281E-03
CGA:  14    -0.128312014259E+04    0.16332E-03   -0.40523E-03 10640   0.586E-02-0.152E-02
CGA:  15    -0.128312069475E+04   -0.55216E-03   -0.58240E-03 10640   0.745E-03 0.234E-03
CGA:  16    -0.128312090569E+04   -0.21094E-03   -0.21150E-03 10640   0.219E-03-0.132E-04
CGA:  17    -0.128312095137E+04   -0.45680E-04   -0.46710E-04 10640   0.128E-03 0.634E-04
CGA:  18    -0.128312098577E+04   -0.34392E-04   -0.35268E-04 10640   0.511E-04 0.465E-04
CGA:  19    -0.128312099794E+04   -0.12173E-04   -0.13563E-04 10640   0.446E-04 0.377E-04
CGA:  20    -0.128312100242E+04   -0.44804E-05   -0.66334E-05 10640   0.305E-04 0.266E-04
CGA:  21    -0.128312102491E+04   -0.22494E-04   -0.20824E-04 10640   0.133E-03 0.335E-05
CGA:  22    -0.128312103486E+04   -0.99422E-05   -0.20760E-04 10640   0.547E-04 0.991E-04
  14 F= -.12831210E+04 E0= -.12831210E+04  d E =-.794160E-02  mag=    47.0000
       N       E                     dE             d eps       ncg     rms          ort
SDA:   1    -0.126577426432E+04    0.17347E+02    0.00000E+00 10640   0.511E+02 0.000E+00
CGA:   2    -0.127704283467E+04   -0.11269E+02   -0.11268E+02 10640   0.218E+02-0.173E-01
CGA:   3    -0.128224582403E+04   -0.52030E+01   -0.52028E+01 10640   0.464E+01 0.290E-01
CGA:   4    -0.128298484296E+04   -0.73902E+00   -0.74032E+00 10640   0.792E+00 0.143E-01
CGA:   5    -0.128314665890E+04   -0.16182E+00   -0.16201E+00 10640   0.222E+00 0.751E-02
CGA:   6    -0.128318660046E+04   -0.39942E-01   -0.39898E-01 10640   0.899E-01-0.884E-03
CGA:   7    -0.128320268427E+04   -0.16084E-01   -0.16016E-01 10640   0.223E-01-0.128E-02
CGA:   8    -0.128320851491E+04   -0.58306E-02   -0.59321E-02 10640   0.102E-01-0.221E-02
CGA:   9    -0.128321046076E+04   -0.19458E-02   -0.19539E-02 10640   0.486E-02 0.556E-03
CGA:  10    -0.128321151086E+04   -0.10501E-02   -0.10573E-02 10640   0.183E-02 0.366E-03
CGA:  11    -0.128321192970E+04   -0.41884E-03   -0.42336E-03 10640   0.624E-03 0.456E-03
CGA:  12    -0.128321215146E+04   -0.22176E-03   -0.21690E-03 10640   0.380E-03 0.918E-04
CGA:  13    -0.128321228643E+04   -0.13497E-03   -0.13423E-03 10640   0.369E-03 0.705E-05
CGA:  14    -0.128321233417E+04   -0.47736E-04   -0.59042E-04 10640   0.185E-03 0.152E-03
CGA:  15    -0.128321235068E+04   -0.16509E-04   -0.33788E-04 10640   0.153E-03 0.175E-03
CGA:  16    -0.128321237751E+04   -0.26831E-04   -0.28864E-04 10640   0.118E-03 0.602E-04
CGA:  17    -0.128321240001E+04   -0.22500E-04   -0.27891E-04 10640   0.583E-04 0.104E-03
CGA:  18    -0.128321240749E+04   -0.74801E-05   -0.98350E-05 10640   0.496E-04 0.473E-04
CGA:  19    -0.128321243581E+04   -0.28321E-04   -0.21389E-04 10640   0.760E-04 0.318E-04
CGA:  20    -0.128321243692E+04   -0.11101E-05   -0.64381E-05 10640   0.367E-04 0.376E-04
  15 F= -.12832124E+04 E0= -.12832124E+04  d E =-.914021E-01  mag=    47.0000
       N       E                     dE             d eps       ncg     rms          ort
SDA:   1    -0.126970107408E+04    0.13511E+02    0.00000E+00 10640   0.350E+02 0.000E+00
CGA:   2    -0.127898666766E+04   -0.92856E+01   -0.92874E+01 10640   0.167E+02-0.347E-01
CGA:   3    -0.128257604283E+04   -0.35894E+01   -0.35894E+01 10640   0.273E+01 0.103E-01
CGA:   4    -0.128302105889E+04   -0.44502E+00   -0.44500E+00 10640   0.635E+00-0.211E-02
CGA:   5    -0.128313132432E+04   -0.11027E+00   -0.11050E+00 10640   0.186E+00 0.680E-02
CGA:   6    -0.128316404857E+04   -0.32724E-01   -0.32670E-01 10640   0.603E-01-0.143E-02
CGA:   7    -0.128317701467E+04   -0.12966E-01   -0.12994E-01 10640   0.190E-01-0.361E-02
CGA:   8    -0.128318064660E+04   -0.36319E-02   -0.36269E-02 10640   0.896E-02-0.724E-03
CGA:   9    -0.128318276565E+04   -0.21191E-02   -0.21667E-02 10640   0.477E-02-0.113E-02
CGA:  10    -0.128318386714E+04   -0.11015E-02   -0.11972E-02 10640   0.350E-02-0.125E-02
CGA:  11    -0.128318433104E+04   -0.46389E-03   -0.45157E-03 10640   0.111E-02-0.306E-03
CGA:  12    -0.128318451092E+04   -0.17989E-03   -0.56680E-03 10640   0.259E-02-0.111E-02
CGA:  13    -0.128318487789E+04   -0.36697E-03   -0.37050E-03 10640   0.745E-03 0.395E-04
CGA:  14    -0.128318501625E+04   -0.13836E-03   -0.14073E-03 10640   0.192E-03 0.598E-04
CGA:  15    -0.128318505744E+04   -0.41187E-04   -0.42782E-04 10640   0.125E-03 0.872E-04
CGA:  16    -0.128318513471E+04   -0.77277E-04   -0.84362E-04 10640   0.223E-03-0.306E-04
CGA:  17    -0.128318517759E+04   -0.42873E-04   -0.53590E-04 10640   0.282E-03-0.132E-03
CGA:  18    -0.128318521231E+04   -0.34728E-04   -0.42793E-04 10640   0.109E-03 0.912E-04
CGA:  19    -0.128318525771E+04   -0.45392E-04   -0.46911E-04 10640   0.723E-04-0.168E-04
CGA:  20    -0.128318530743E+04   -0.49724E-04    0.10578E-04 10640   0.584E-04 0.169E-04
CGA:  21    -0.128318535619E+04   -0.48757E-04    0.20992E-04 10640   0.236E-04 0.179E-04
CGA:  22    -0.128318537808E+04   -0.21892E-04    0.77579E-05 10640   0.201E-04 0.130E-04
CGA:  23    -0.128318539606E+04   -0.17982E-04    0.27832E-05 10640   0.161E-04 0.718E-05
CGA:  24    -0.128318536353E+04    0.32530E-04   -0.19306E-04 10640   0.429E-03-0.513E-04
CGA:  25    -0.128318544780E+04   -0.84268E-04   -0.62067E-04 10640   0.144E-03-0.755E-04
CGA:  26    -0.128318549264E+04   -0.44841E-04   -0.41018E-04 10640   0.678E-04-0.488E-04
CGA:  27    -0.128318549292E+04   -0.27824E-06   -0.42924E-05 10640   0.214E-04 0.124E-04
  16 F= -.12831855E+04 E0= -.12831855E+04  d E =0.269440E-01  mag=    47.0000
       N       E                     dE             d eps       ncg     rms          ort
SDA:   1    -0.125054859335E+04    0.32637E+02    0.00000E+00 10640   0.951E+02 0.000E+00
CGA:   2    -0.127153517132E+04   -0.20987E+02   -0.20980E+02 10640   0.413E+02 0.198E+00
CGA:   3    -0.128130460562E+04   -0.97694E+01   -0.97860E+01 10640   0.910E+01-0.850E-02
CGA:   4    -0.128272191104E+04   -0.14173E+01   -0.14075E+01 10640   0.150E+01 0.711E-01
CGA:   5    -0.128303885393E+04   -0.31694E+00   -0.31689E+00 10640   0.394E+00-0.522E-02
CGA:   6    -0.128311764182E+04   -0.78788E-01   -0.78896E-01 10640   0.131E+00 0.316E-02
CGA:   7    -0.128314431673E+04   -0.26675E-01   -0.26263E-01 10640   0.400E-01-0.300E-02
CGA:   8    -0.128315274152E+04   -0.84248E-02   -0.83647E-02 10640   0.184E-01-0.410E-03
CGA:   9    -0.128315700049E+04   -0.42590E-02   -0.41748E-02 10640   0.102E-01-0.832E-03
CGA:  10    -0.128315972239E+04   -0.27219E-02   -0.25735E-02 10640   0.715E-02-0.231E-02
CGA:  11    -0.128316103568E+04   -0.13133E-02   -0.11838E-02 10640   0.290E-02-0.116E-02
CGA:  12    -0.128316185911E+04   -0.82343E-03   -0.86783E-03 10640   0.280E-02-0.115E-02
CGA:  13    -0.128316234386E+04   -0.48475E-03   -0.42458E-03 10640   0.211E-02-0.870E-03
CGA:  14    -0.128316286561E+04   -0.52175E-03   -0.54221E-03 10640   0.144E-02-0.373E-03
CGA:  15    -0.128316335682E+04   -0.49122E-03   -0.57893E-03 10640   0.258E-02-0.529E-03
CGA:  16    -0.128316356296E+04   -0.20613E-03   -0.20559E-03 10640   0.952E-03 0.327E-06
CGA:  17    -0.128316366447E+04   -0.10151E-03   -0.13514E-03 10640   0.797E-03 0.192E-03
CGA:  18    -0.128316378296E+04   -0.11850E-03   -0.15147E-03 10640   0.321E-03 0.216E-03
CGA:  19    -0.128316382317E+04   -0.40201E-04   -0.52986E-04 10640   0.173E-03 0.739E-04
CGA:  20    -0.128316382619E+04   -0.30239E-05   -0.24124E-04 10640   0.118E-03 0.117E-03
CGA:  21    -0.128316382287E+04    0.33220E-05   -0.10598E-04 10640   0.600E-04 0.716E-04
  17 F= -.12831638E+04 E0= -.12831638E+04  d E =0.216701E-01  mag=    47.0000
       N       E                     dE             d eps       ncg     rms          ort
SDA:   1    -0.127387793373E+04    0.92859E+01    0.00000E+00 10640   0.269E+02 0.000E+00
CGA:   2    -0.127999255641E+04   -0.61146E+01   -0.61139E+01 10640   0.119E+02-0.178E-01
CGA:   3    -0.128277348866E+04   -0.27809E+01   -0.27816E+01 10640   0.241E+01 0.167E-01
CGA:   4    -0.128315868489E+04   -0.38520E+00   -0.38570E+00 10640   0.415E+00 0.493E-02
CGA:   5    -0.128324439709E+04   -0.85712E-01   -0.85882E-01 10640   0.112E+00 0.328E-02
CGA:   6    -0.128326517180E+04   -0.20775E-01   -0.20745E-01 10640   0.455E-01-0.272E-03
CGA:   7    -0.128327325450E+04   -0.80827E-02   -0.79968E-02 10640   0.121E-01-0.114E-02
CGA:   8    -0.128327612696E+04   -0.28725E-02   -0.28702E-02 10640   0.507E-02-0.473E-03
CGA:   9    -0.128327737348E+04   -0.12465E-02   -0.12510E-02 10640   0.333E-02-0.466E-03
CGA:  10    -0.128327788322E+04   -0.50974E-03   -0.53011E-03 10640   0.102E-02 0.288E-03
CGA:  11    -0.128327817554E+04   -0.29232E-03   -0.28920E-03 10640   0.354E-03 0.183E-03
CGA:  12    -0.128327786914E+04    0.30641E-03   -0.40421E-03 10640   0.560E-02-0.983E-03
CGA:  13    -0.128327832995E+04   -0.46082E-03   -0.56975E-03 10640   0.584E-03 0.644E-03
CGA:  14    -0.128327845964E+04   -0.12968E-03   -0.13864E-03 10640   0.259E-03 0.151E-03
CGA:  15    -0.128327854183E+04   -0.82197E-04   -0.13183E-03 10640   0.932E-03-0.365E-03
CGA:  16    -0.128327858514E+04   -0.43305E-04   -0.83393E-04 10640   0.120E-03 0.219E-03
CGA:  17    -0.128327859305E+04   -0.79137E-05   -0.17259E-04 10640   0.755E-04 0.625E-04
CGA:  18    -0.128327864638E+04   -0.53333E-04    0.27018E-04 10640   0.807E-04 0.214E-05
CGA:  19    -0.128327866367E+04   -0.17289E-04   -0.18526E-04 10640   0.322E-04 0.343E-04
CGA:  20    -0.128327866441E+04   -0.73567E-06   -0.55177E-05 10640   0.285E-04 0.348E-04
  18 F= -.12832787E+04 E0= -.12832786E+04  d E =-.114842E+00  mag=    47.0000
       N       E                     dE             d eps       ncg     rms          ort
SDA:   1    -0.126914050330E+04    0.14138E+02    0.00000E+00 10640   0.374E+02 0.000E+00
CGA:   2    -0.127864370203E+04   -0.95032E+01   -0.95033E+01 10640   0.176E+02-0.235E-01
CGA:   3    -0.128254369026E+04   -0.39000E+01   -0.39005E+01 10640   0.293E+01 0.125E-01
CGA:   4    -0.128303258892E+04   -0.48890E+00   -0.48888E+00 10640   0.585E+00-0.125E-02
CGA:   5    -0.128315019571E+04   -0.11761E+00   -0.11785E+00 10640   0.144E+00 0.545E-02
CGA:   6    -0.128318006238E+04   -0.29867E-01   -0.29762E-01 10640   0.573E-01-0.253E-02
CGA:   7    -0.128319023067E+04   -0.10168E-01   -0.10048E-01 10640   0.177E-01-0.196E-02
CGA:   8    -0.128319397105E+04   -0.37404E-02   -0.37306E-02 10640   0.812E-02-0.475E-03
CGA:   9    -0.128319606165E+04   -0.20906E-02   -0.21485E-02 10640   0.611E-02-0.164E-02
CGA:  10    -0.128319706246E+04   -0.10008E-02   -0.98966E-03 10640   0.212E-02-0.302E-03
CGA:  11    -0.128319771516E+04   -0.65270E-03   -0.70389E-03 10640   0.114E-02-0.453E-03
CGA:  12    -0.128319207352E+04    0.56416E-02   -0.30484E-02 10640   0.532E-01-0.529E-02
CGA:  13    -0.128319717782E+04   -0.51043E-02   -0.55840E-02 10640   0.486E-02 0.244E-02
CGA:  14    -0.128319833654E+04   -0.11587E-02   -0.12370E-02 10640   0.199E-02 0.434E-03
CGA:  15    -0.128319886617E+04   -0.52963E-03   -0.44744E-03 10640   0.107E-02-0.392E-03
CGA:  16    -0.128319895305E+04   -0.86881E-04   -0.14201E-03 10640   0.305E-03 0.232E-03
CGA:  17    -0.128319895178E+04    0.12731E-05   -0.43111E-04 10640   0.159E-03 0.160E-03
CGA:  18    -0.128319901913E+04   -0.67355E-04   -0.97443E-04 10640   0.746E-03-0.129E-03
CGA:  19    -0.128319902665E+04   -0.75223E-05   -0.58072E-04 10640   0.683E-04 0.165E-03
  19 F= -.12831990E+04 E0= -.12831990E+04  d E =0.796378E-01  mag=    47.0000
       N       E                     dE             d eps       ncg     rms          ort
SDA:   1    -0.125107693385E+04    0.32122E+02    0.00000E+00 10640   0.906E+02 0.000E+00
CGA:   2    -0.127195936980E+04   -0.20882E+02   -0.20887E+02 10640   0.408E+02 0.747E-01
CGA:   3    -0.128140774197E+04   -0.94484E+01   -0.94600E+01 10640   0.821E+01-0.590E-02
CGA:   4    -0.128270327771E+04   -0.12955E+01   -0.12909E+01 10640   0.144E+01 0.413E-01
CGA:   5    -0.128300503913E+04   -0.30176E+00   -0.30167E+00 10640   0.373E+00-0.596E-02
CGA:   6    -0.128308023181E+04   -0.75193E-01   -0.75212E-01 10640   0.122E+00 0.312E-02
CGA:   7    -0.128310657922E+04   -0.26347E-01   -0.25765E-01 10640   0.370E-01-0.529E-02
CGA:   8    -0.128311481379E+04   -0.82346E-02   -0.82201E-02 10640   0.154E-01-0.325E-04
CGA:   9    -0.128311959636E+04   -0.47826E-02   -0.47631E-02 10640   0.121E-01-0.317E-02
CGA:  10    -0.128312178735E+04   -0.21910E-02   -0.20085E-02 10640   0.549E-02-0.169E-02
CGA:  11    -0.128312323270E+04   -0.14453E-02   -0.14346E-02 10640   0.409E-02-0.186E-02
CGA:  12    -0.128312402404E+04   -0.79134E-03   -0.68057E-03 10640   0.362E-02-0.193E-02
CGA:  13    -0.128312458851E+04   -0.56447E-03   -0.55057E-03 10640   0.187E-02-0.757E-03
CGA:  14    -0.128312520802E+04   -0.61951E-03   -0.71706E-03 10640   0.222E-02-0.548E-03
CGA:  15    -0.128312561528E+04   -0.40726E-03   -0.37087E-03 10640   0.160E-02-0.466E-03
CGA:  16    -0.128312586629E+04   -0.25101E-03   -0.26261E-03 10640   0.800E-03 0.113E-03
CGA:  17    -0.128312596189E+04   -0.95598E-04   -0.13241E-03 10640   0.292E-03 0.245E-03
CGA:  18    -0.128312598673E+04   -0.24839E-04   -0.52434E-04 10640   0.169E-03 0.172E-03
CGA:  19    -0.128312599081E+04   -0.40857E-05   -0.20656E-04 10640   0.925E-04 0.989E-04
  20 F= -.12831260E+04 E0= -.12831260E+04  d E =0.730358E-01  mag=    47.0000
       N       E                     dE             d eps       ncg     rms          ort
SDA:   1    -0.127240052066E+04    0.10725E+02    0.00000E+00 10640   0.297E+02 0.000E+00
CGA:   2    -0.127952509593E+04   -0.71246E+01   -0.71241E+01 10640   0.137E+02-0.148E-01
CGA:   3    -0.128263419327E+04   -0.31091E+01   -0.31098E+01 10640   0.247E+01 0.982E-02
CGA:   4    -0.128303886284E+04   -0.40467E+00   -0.40481E+00 10640   0.445E+00 0.824E-03
CGA:   5    -0.128313332722E+04   -0.94464E-01   -0.94586E-01 10640   0.107E+00 0.243E-02
CGA:   6    -0.128315597516E+04   -0.22648E-01   -0.22578E-01 10640   0.434E-01-0.132E-02
CGA:   7    -0.128316302403E+04   -0.70489E-02   -0.69674E-02 10640   0.130E-01-0.790E-03
CGA:   8    -0.128316614322E+04   -0.31192E-02   -0.31107E-02 10640   0.508E-02-0.834E-03
CGA:   9    -0.128316762244E+04   -0.14792E-02   -0.15339E-02 10640   0.333E-02-0.782E-03
CGA:  10    -0.128316814569E+04   -0.52324E-03   -0.51716E-03 10640   0.143E-02-0.790E-04
CGA:  11    -0.128316853494E+04   -0.38926E-03   -0.39833E-03 10640   0.598E-03-0.277E-03
CGA:  12    -0.128316756516E+04    0.96978E-03   -0.54791E-03 10640   0.117E-01-0.172E-02
CGA:  13    -0.128316861951E+04   -0.10544E-02   -0.11725E-02 10640   0.139E-02 0.650E-03
CGA:  14    -0.128316889411E+04   -0.27460E-03   -0.29807E-03 10640   0.445E-03 0.277E-03
CGA:  15    -0.128316906446E+04   -0.17034E-03   -0.20254E-03 10640   0.845E-03-0.337E-03
CGA:  16    -0.128316909071E+04   -0.26256E-04   -0.72888E-04 10640   0.129E-03 0.233E-03
CGA:  17    -0.128316908953E+04    0.11801E-05   -0.14427E-04 10640   0.726E-04 0.818E-04
CGA:  18    -0.128316913269E+04   -0.43159E-04    0.94621E-04 10640   0.612E-04 0.207E-04
CGA:  19    -0.128316913926E+04   -0.65657E-05   -0.11615E-04 10640   0.252E-04 0.414E-04
  21 F= -.12831691E+04 E0= -.12831691E+04  d E =-.431484E-01  mag=    47.0000
       N       E                     dE             d eps       ncg     rms          ort
SDA:   1    -0.125943107023E+04    0.23738E+02    0.00000E+00 10640   0.619E+02 0.000E+00
CGA:   2    -0.127557633488E+04   -0.16145E+02   -0.16145E+02 10640   0.294E+02-0.260E-01
CGA:   3    -0.128201626070E+04   -0.64399E+01   -0.64408E+01 10640   0.454E+01 0.982E-02
CGA:   4    -0.128279895559E+04   -0.78269E+00   -0.78248E+00 10640   0.920E+00-0.769E-02
CGA:   5    -0.128298819684E+04   -0.18924E+00   -0.18955E+00 10640   0.207E+00 0.813E-02
CGA:   6    -0.128303836388E+04   -0.50167E-01   -0.50102E-01 10640   0.722E-01-0.815E-02
CGA:   7    -0.128305102158E+04   -0.12658E-01   -0.12697E-01 10640   0.224E-01 0.103E-02
CGA:   8    -0.128305714201E+04   -0.61204E-02   -0.62253E-02 10640   0.130E-01-0.351E-02
CGA:   9    -0.128305988186E+04   -0.27398E-02   -0.27482E-02 10640   0.741E-02-0.159E-02
CGA:  10    -0.128306135708E+04   -0.14752E-02   -0.14433E-02 10640   0.375E-02-0.131E-02
CGA:  11    -0.128306217197E+04   -0.81489E-03   -0.89237E-03 10640   0.291E-02-0.176E-02
CGA:  12    -0.128306249100E+04   -0.31902E-03   -0.29123E-03 10640   0.122E-02-0.470E-03
CGA:  13    -0.128306284986E+04   -0.35887E-03   -0.44994E-03 10640   0.126E-02-0.466E-03
CGA:  14    -0.128306304990E+04   -0.20003E-03   -0.20466E-03 10640   0.178E-02-0.562E-03
CGA:  15    -0.128306330766E+04   -0.25776E-03   -0.26061E-03 10640   0.104E-02-0.309E-03
CGA:  16    -0.128306340505E+04   -0.97388E-04   -0.11687E-03 10640   0.614E-03 0.163E-03
CGA:  17    -0.128306353076E+04   -0.12572E-03   -0.13438E-03 10640   0.329E-03 0.144E-03
CGA:  18    -0.128306360242E+04   -0.71655E-04   -0.71300E-04 10640   0.179E-03-0.495E-05
CGA:  19    -0.128306360559E+04   -0.31737E-05   -0.18355E-04 10640   0.124E-03 0.110E-03
CGA:  20    -0.128306360613E+04   -0.53331E-06   -0.11553E-04 10640   0.621E-04 0.775E-04
  22 F= -.12830636E+04 E0= -.12830636E+04  d E =0.105533E+00  mag=    47.0000
       N       E                     dE             d eps       ncg     rms          ort
SDA:   1    -0.123999390762E+04    0.43070E+02    0.00000E+00 10640   0.117E+03 0.000E+00
CGA:   2    -0.126852970670E+04   -0.28536E+02   -0.28533E+02 10640   0.544E+02 0.902E-01
CGA:   3    -0.128083926600E+04   -0.12310E+02   -0.12310E+02 10640   0.971E+01-0.232E-01
CGA:   4    -0.128242637803E+04   -0.15871E+01   -0.15884E+01 10640   0.182E+01 0.107E-01
CGA:   5    -0.128280433679E+04   -0.37796E+00   -0.37789E+00 10640   0.482E+00-0.265E-02
CGA:   6    -0.128289683754E+04   -0.92501E-01   -0.92437E-01 10640   0.192E+00-0.200E-02
CGA:   7    -0.128293081761E+04   -0.33980E-01   -0.33754E-01 10640   0.556E-01-0.515E-02
CGA:   8    -0.128294366574E+04   -0.12848E-01   -0.12923E-01 10640   0.250E-01-0.348E-02
CGA:   9    -0.128294957113E+04   -0.59054E-02   -0.59950E-02 10640   0.145E-01-0.238E-02
CGA:  10    -0.128295301118E+04   -0.34401E-02   -0.37799E-02 10640   0.110E-01-0.505E-02
CGA:  11    -0.128295453085E+04   -0.15197E-02   -0.14777E-02 10640   0.416E-02-0.225E-02
CGA:  12    -0.128295545905E+04   -0.92820E-03   -0.11758E-02 10640   0.414E-02-0.187E-02
CGA:  13    -0.128295600593E+04   -0.54688E-03   -0.61411E-03 10640   0.364E-02-0.168E-02
CGA:  14    -0.128295661702E+04   -0.61109E-03   -0.63077E-03 10640   0.206E-02-0.330E-03
CGA:  15    -0.128295727779E+04   -0.66077E-03   -0.73262E-03 10640   0.245E-02-0.460E-03
CGA:  16    -0.128295756161E+04   -0.28382E-03   -0.29988E-03 10640   0.917E-03 0.190E-03
CGA:  17    -0.128295766819E+04   -0.10658E-03   -0.14181E-03 10640   0.613E-03 0.371E-03
CGA:  18    -0.128295776512E+04   -0.96932E-04   -0.12698E-03 10640   0.252E-03 0.348E-03
CGA:  19    -0.128295782080E+04   -0.55679E-04   -0.55924E-04 10640   0.185E-03 0.333E-04
CGA:  20    -0.128295781733E+04    0.34711E-05   -0.18860E-04 10640   0.113E-03 0.160E-03
  23 F= -.12829578E+04 E0= -.12829578E+04  d E =0.105789E+00  mag=    47.0000
       N       E                     dE             d eps       ncg     rms          ort
SDA:   1    -0.128097636388E+04    0.19815E+01    0.00000E+00 10640   0.709E+01 0.000E+00
CGA:   2    -0.128235025546E+04   -0.13739E+01   -0.13737E+01 10640   0.256E+01-0.857E-02
CGA:   3    -0.128300220625E+04   -0.65195E+00   -0.65147E+00 10640   0.690E+00 0.938E-02
CGA:   4    -0.128311204044E+04   -0.10983E+00   -0.11001E+00 10640   0.100E+00 0.311E-02
CGA:   5    -0.128313350466E+04   -0.21464E-01   -0.21463E-01 10640   0.239E-01 0.115E-02
CGA:   6    -0.128313887988E+04   -0.53752E-02   -0.53710E-02 10640   0.829E-02 0.424E-03
CGA:   7    -0.128314034054E+04   -0.14607E-02   -0.14565E-02 10640   0.301E-02-0.932E-04
CGA:   8    -0.128314095877E+04   -0.61822E-03   -0.61770E-03 10640   0.112E-02-0.160E-03
CGA:   9    -0.128314123529E+04   -0.27652E-03   -0.27304E-03 10640   0.432E-03 0.757E-04
CGA:  10    -0.128314130440E+04   -0.69112E-04   -0.77526E-04 10640   0.169E-03 0.188E-03
CGA:  11    -0.128314133152E+04   -0.27121E-04   -0.35795E-04 10640   0.799E-04 0.138E-03
CGA:  12    -0.128314135457E+04   -0.23048E-04   -0.20809E-04 10640   0.590E-04 0.423E-04
CGA:  13    -0.128314136082E+04   -0.62511E-05   -0.83016E-05 10640   0.431E-04 0.296E-04
  24 F= -.12831414E+04 E0= -.12831414E+04  d E =-.183543E+00  mag=    47.0000
       N       E                     dE             d eps       ncg     rms          ort
SDA:   1    -0.128229931016E+04    0.84204E+00    0.00000E+00 10640   0.291E+01 0.000E+00
CGA:   2    -0.128290497144E+04   -0.60566E+00   -0.60567E+00 10640   0.113E+01-0.489E-02
CGA:   3    -0.128317795835E+04   -0.27299E+00   -0.27283E+00 10640   0.281E+00 0.382E-02
CGA:   4    -0.128322424100E+04   -0.46283E-01   -0.46333E-01 10640   0.502E-01 0.122E-02
CGA:   5    -0.128323401920E+04   -0.97782E-02   -0.97857E-02 10640   0.133E-01 0.672E-03
CGA:   6    -0.128323644633E+04   -0.24271E-02   -0.24261E-02 10640   0.530E-02-0.247E-04
CGA:   7    -0.128323744292E+04   -0.99659E-03   -0.99771E-03 10640   0.137E-02 0.785E-04
CGA:   8    -0.128323782438E+04   -0.38147E-03   -0.39445E-03 10640   0.718E-03-0.160E-03
CGA:   9    -0.128323798061E+04   -0.15623E-03   -0.15670E-03 10640   0.442E-03-0.111E-04
CGA:  10    -0.128323805594E+04   -0.75324E-04   -0.78272E-04 10640   0.161E-03 0.101E-03
CGA:  11    -0.128323809850E+04   -0.42563E-04   -0.42072E-04 10640   0.789E-04 0.846E-04
CGA:  12    -0.128323812576E+04   -0.27257E-04   -0.50053E-04 10640   0.413E-03-0.535E-04
CGA:  13    -0.128323816314E+04   -0.37388E-04   -0.41228E-04 10640   0.466E-04 0.303E-04
CGA:  14    -0.128323818313E+04   -0.19982E-04   -0.21895E-04 10640   0.102E-03-0.894E-05
CGA:  15    -0.128323819248E+04   -0.93565E-05   -0.57368E-04 10640   0.560E-03-0.105E-03
CGA:  16    -0.128323828010E+04   -0.87619E-04   -0.90491E-04 10640   0.135E-03 0.312E-04
CGA:  17    -0.128323830725E+04   -0.27150E-04   -0.63335E-04 10640   0.336E-03-0.188E-03
CGA:  18    -0.128323832871E+04   -0.21455E-04   -0.34189E-04 10640   0.550E-04 0.804E-04
CGA:  19    -0.128323834182E+04   -0.13112E-04   -0.13556E-04 10640   0.272E-04 0.808E-05
CGA:  20    -0.128323836057E+04   -0.18753E-04    0.19585E-04 10640   0.338E-04-0.188E-04
CGA:  21    -0.128323836060E+04   -0.30555E-07   -0.28565E-05 10640   0.123E-04 0.170E-04
  25 F= -.12832384E+04 E0= -.12832384E+04  d E =-.969998E-01  mag=    47.0000
       N       E                     dE             d eps       ncg     rms          ort
SDA:   1    -0.127951448400E+04    0.37239E+01    0.00000E+00 10640   0.974E+01 0.000E+00
CGA:   2    -0.128208881356E+04   -0.25743E+01   -0.25744E+01 10640   0.462E+01-0.510E-02
CGA:   3    -0.128309968694E+04   -0.10109E+01   -0.10109E+01 10640   0.690E+00-0.408E-03
CGA:   4    -0.128322060750E+04   -0.12092E+00   -0.12097E+00 10640   0.139E+00 0.650E-03
CGA:   5    -0.128324981279E+04   -0.29205E-01   -0.29210E-01 10640   0.299E-01 0.138E-03
CGA:   6    -0.128325741903E+04   -0.76062E-02   -0.76179E-02 10640   0.788E-02-0.675E-03
CGA:   7    -0.128325933960E+04   -0.19206E-02   -0.19265E-02 10640   0.266E-02-0.506E-03
CGA:   8    -0.128326004167E+04   -0.70208E-03   -0.71136E-03 10640   0.137E-02-0.195E-03
CGA:   9    -0.128326040673E+04   -0.36506E-03   -0.40680E-03 10640   0.124E-02-0.530E-03
CGA:  10    -0.128326056201E+04   -0.15528E-03   -0.14889E-03 10640   0.364E-03-0.126E-03
CGA:  11    -0.128326065458E+04   -0.92566E-04   -0.12043E-03 10640   0.549E-03-0.222E-03
CGA:  12    -0.128326073314E+04   -0.78565E-04   -0.76014E-04 10640   0.108E-03-0.218E-04
CGA:  13    -0.128326076188E+04   -0.28740E-04   -0.28206E-04 10640   0.417E-04 0.182E-04
CGA:  14    -0.128326078707E+04   -0.25194E-04    0.11187E-03 10640   0.219E-04 0.297E-04
CGA:  15    -0.128326079654E+04   -0.94689E-05   -0.87353E-05 10640   0.333E-04 0.473E-05
CGA:  16    -0.128326082040E+04   -0.23858E-04    0.30491E-04 10640   0.197E-04 0.173E-04
CGA:  17    -0.128326082728E+04   -0.68828E-05   -0.92317E-05 10640   0.732E-04-0.109E-04
  26 F= -.12832608E+04 E0= -.12832608E+04  d E =-.224667E-01  mag=    47.0000
       N       E                     dE             d eps       ncg     rms          ort
SDA:   1    -0.121746963231E+04    0.65791E+02    0.00000E+00 10640   0.175E+03 0.000E+00
CGA:   2    -0.126193055912E+04   -0.44461E+02   -0.44461E+02 10640   0.820E+02 0.278E-01
CGA:   3    -0.128009853666E+04   -0.18168E+02   -0.18171E+02 10640   0.134E+02 0.868E-02
CGA:   4    -0.128235929439E+04   -0.22608E+01   -0.22626E+01 10640   0.265E+01 0.732E-02
CGA:   5    -0.128291283522E+04   -0.55354E+00   -0.55376E+00 10640   0.631E+00 0.659E-02
CGA:   6    -0.128305458856E+04   -0.14175E+00   -0.14150E+00 10640   0.235E+00-0.957E-02
CGA:   7    -0.128309711552E+04   -0.42527E-01   -0.42168E-01 10640   0.798E-01-0.596E-02
CGA:   8    -0.128311512126E+04   -0.18006E-01   -0.17946E-01 10640   0.379E-01-0.462E-02
CGA:   9    -0.128312404666E+04   -0.89254E-02   -0.89677E-02 10640   0.239E-01-0.470E-02
CGA:  10    -0.128312886112E+04   -0.48145E-02   -0.47376E-02 10640   0.106E-01-0.464E-02
CGA:  11    -0.128313119337E+04   -0.23322E-02   -0.25608E-02 10640   0.625E-02-0.391E-02
CGA:  12    -0.128313212299E+04   -0.92962E-03   -0.89276E-03 10640   0.354E-02-0.200E-02
CGA:  13    -0.128313281155E+04   -0.68856E-03   -0.85426E-03 10640   0.319E-02-0.149E-02
CGA:  14    -0.128313320750E+04   -0.39595E-03   -0.37541E-03 10640   0.175E-02-0.438E-03
CGA:  15    -0.128313376350E+04   -0.55600E-03   -0.67952E-03 10640   0.152E-02-0.613E-03
CGA:  16    -0.128313392597E+04   -0.16247E-03   -0.16872E-03 10640   0.736E-03 0.739E-04
CGA:  17    -0.128313402169E+04   -0.95723E-04   -0.12423E-03 10640   0.334E-03 0.309E-03
CGA:  18    -0.128313405183E+04   -0.30140E-04   -0.55663E-04 10640   0.130E-03 0.195E-03
CGA:  19    -0.128313406922E+04   -0.17391E-04   -0.23001E-04 10640   0.727E-04 0.862E-04
CGA:  20    -0.128313406466E+04    0.45626E-05   -0.57602E-05 10640   0.602E-04 0.647E-04
  27 F= -.12831341E+04 E0= -.12831341E+04  d E =0.126763E+00  mag=    47.0000
       N       E                     dE             d eps       ncg     rms          ort
SDA:   1    -0.127961683919E+04    0.35172E+01    0.00000E+00 10640   0.121E+02 0.000E+00
CGA:   2    -0.128193066586E+04   -0.23138E+01   -0.23135E+01 10640   0.430E+01-0.632E-02
CGA:   3    -0.128303578337E+04   -0.11051E+01   -0.11046E+01 10640   0.124E+01 0.123E-01
CGA:   4    -0.128322719868E+04   -0.19142E+00   -0.19181E+00 10640   0.180E+00 0.563E-02
CGA:   5    -0.128326286735E+04   -0.35669E-01   -0.35698E-01 10640   0.543E-01 0.142E-02
CGA:   6    -0.128327248087E+04   -0.96135E-02   -0.96471E-02 10640   0.194E-01 0.823E-03
CGA:   7    -0.128327622797E+04   -0.37471E-02   -0.37461E-02 10640   0.475E-02-0.180E-04
CGA:   8    -0.128327739130E+04   -0.11633E-02   -0.11708E-02 10640   0.209E-02-0.232E-03
CGA:   9    -0.128327782285E+04   -0.43155E-03   -0.43155E-03 10640   0.104E-02 0.851E-04
CGA:  10    -0.128327801158E+04   -0.18873E-03   -0.19812E-03 10640   0.332E-03 0.276E-03
CGA:  11    -0.128327807623E+04   -0.64652E-04   -0.73783E-04 10640   0.159E-03 0.231E-03
CGA:  12    -0.128327811527E+04   -0.39046E-04   -0.37388E-04 10640   0.117E-03 0.763E-04
CGA:  13    -0.128327814614E+04   -0.30870E-04   -0.33221E-04 10640   0.690E-04 0.106E-03
CGA:  14    -0.128327815920E+04   -0.13057E-04   -0.13765E-04 10640   0.552E-04 0.517E-04
CGA:  15    -0.128327817106E+04   -0.11857E-04   -0.11804E-04 10640   0.541E-04 0.427E-04
CGA:  16    -0.128327817977E+04   -0.87120E-05   -0.98076E-05 10640   0.522E-04 0.349E-04
  28 F= -.12832782E+04 E0= -.12832782E+04  d E =-.144115E+00  mag=    47.0000
       N       E                     dE             d eps       ncg     rms          ort
SDA:   1    -0.128322104897E+04    0.57122E-01    0.00000E+00 10640   0.242E+00 0.000E+00
CGA:   2    -0.128327023091E+04   -0.49182E-01   -0.49183E-01 10640   0.944E-01 0.303E-03
CGA:   3    -0.128329175052E+04   -0.21520E-01   -0.21509E-01 10640   0.325E-01 0.541E-03
CGA:   4    -0.128329641702E+04   -0.46665E-02   -0.46577E-02 10640   0.616E-02-0.110E-03
CGA:   5    -0.128329754166E+04   -0.11246E-02   -0.11227E-02 10640   0.144E-02-0.759E-04
CGA:   6    -0.128329781145E+04   -0.26980E-03   -0.27082E-03 10640   0.434E-03 0.698E-04
CGA:   7    -0.128329792651E+04   -0.11506E-03   -0.11651E-03 10640   0.213E-03-0.278E-04
CGA:   8    -0.128329794942E+04   -0.22910E-04   -0.27284E-04 10640   0.762E-04 0.625E-04
CGA:   9    -0.128329797550E+04   -0.26087E-04   -0.24868E-04 10640   0.688E-04 0.248E-04
CGA:  10    -0.128329799035E+04   -0.14844E-04   -0.50543E-04 10640   0.507E-03-0.103E-03
CGA:  11    -0.128329802155E+04   -0.31200E-04   -0.44084E-04 10640   0.734E-04 0.954E-04
CGA:  12    -0.128329803077E+04   -0.92222E-05   -0.12139E-04 10640   0.457E-04 0.377E-04
CGA:  13    -0.128329805064E+04   -0.19873E-04    0.22921E-03 10640   0.556E-04-0.503E-05
CGA:  14    -0.128329807063E+04   -0.19987E-04   -0.18543E-04 10640   0.323E-04 0.873E-05
CGA:  15    -0.128329807294E+04   -0.23090E-05   -0.47275E-05 10640   0.244E-04 0.255E-04
  29 F= -.12832981E+04 E0= -.12832981E+04  d E =-.198932E-01  mag=    47.0000
       N       E                     dE             d eps       ncg     rms          ort
SDA:   1    -0.127332073550E+04    0.99773E+01    0.00000E+00 10640   0.281E+02 0.000E+00
CGA:   2    -0.127987735616E+04   -0.65566E+01   -0.65564E+01 10640   0.125E+02 0.582E-02
CGA:   3    -0.128280944543E+04   -0.29321E+01   -0.29318E+01 10640   0.238E+01 0.100E-01
CGA:   4    -0.128319605029E+04   -0.38660E+00   -0.38649E+00 10640   0.458E+00-0.537E-02
CGA:   5    -0.128328470221E+04   -0.88652E-01   -0.88726E-01 10640   0.117E+00 0.444E-02
CGA:   6    -0.128330907607E+04   -0.24374E-01   -0.24347E-01 10640   0.455E-01-0.353E-02
CGA:   7    -0.128331701572E+04   -0.79396E-02   -0.79251E-02 10640   0.127E-01-0.353E-03
CGA:   8    -0.128331970460E+04   -0.26889E-02   -0.26891E-02 10640   0.577E-02-0.234E-03
CGA:   9    -0.128332124733E+04   -0.15427E-02   -0.17655E-02 10640   0.590E-02-0.222E-02
CGA:  10    -0.128332183080E+04   -0.58348E-03   -0.57911E-03 10640   0.209E-02-0.678E-04
CGA:  11    -0.128332222222E+04   -0.39141E-03   -0.39243E-03 10640   0.152E-02 0.418E-04
CGA:  12    -0.128332257601E+04   -0.35379E-03   -0.40379E-03 10640   0.140E-02-0.105E-02
CGA:  13    -0.128332272853E+04   -0.15253E-03   -0.17773E-03 10640   0.428E-03 0.288E-03
CGA:  14    -0.128332285962E+04   -0.13108E-03   -0.13086E-03 10640   0.189E-03 0.468E-05
CGA:  15    -0.128332294374E+04   -0.84120E-04    0.63045E-03 10640   0.147E-03 0.116E-03
CGA:  16    -0.128332296714E+04   -0.23409E-04   -0.26176E-04 10640   0.838E-04 0.796E-04
CGA:  17    -0.128332301875E+04   -0.51608E-04    0.19330E-04 10640   0.764E-04 0.524E-04
CGA:  18    -0.128332302146E+04   -0.27109E-05   -0.83746E-05 10640   0.580E-04 0.557E-04
CGA:  19    -0.128332305001E+04   -0.28547E-04    0.30849E-04 10640   0.541E-04 0.540E-04
CGA:  20    -0.128332311837E+04   -0.68359E-04   -0.45447E-04 10640   0.125E-03 0.354E-04
CGA:  21    -0.128332309917E+04    0.19197E-04   -0.59481E-04 10640   0.165E-02-0.331E-03
CGA:  22    -0.128332319808E+04   -0.98904E-04   -0.13136E-03 10640   0.521E-04 0.196E-03
CGA:  23    -0.128332319734E+04    0.73593E-06   -0.46036E-05 10640   0.355E-04 0.329E-04
CGA:  24    -0.128332321620E+04   -0.18863E-04    0.29368E-04 10640   0.346E-04 0.330E-04
CGA:  25    -0.128332323345E+04   -0.17251E-04    0.58874E-04 10640   0.356E-04 0.297E-04
CGA:  26    -0.128332325141E+04   -0.17956E-04    0.50497E-04 10640   0.413E-04 0.236E-04
CGA:  27    -0.128332326368E+04   -0.12265E-04   -0.12146E-04 10640   0.912E-04 0.190E-05
CGA:  28    -0.128332331728E+04   -0.53603E-04    0.59335E-04 10640   0.680E-04 0.869E-04
CGA:  29    -0.128332333043E+04   -0.13156E-04   -0.11866E-04 10640   0.657E-04-0.208E-04
CGA:  30    -0.128332335400E+04   -0.23562E-04    0.48933E-04 10640   0.596E-04 0.432E-04
CGA:  31    -0.128332336231E+04   -0.83138E-05   -0.81593E-05 10640   0.319E-04-0.150E-05
CGA:  32    -0.128332338125E+04   -0.18941E-04    0.10559E-04 10640   0.284E-04 0.297E-04
CGA:  33    -0.128332338897E+04   -0.77222E-05   -0.78877E-05 10640   0.628E-04-0.338E-05
CGA:  34    -0.128332341760E+04   -0.28630E-04    0.52962E-04 10640   0.692E-04 0.504E-04
CGA:  35    -0.128332342994E+04   -0.12338E-04   -0.10469E-04 10640   0.411E-04-0.234E-04
CGA:  36    -0.128332344740E+04   -0.17462E-04    0.74651E-05 10640   0.236E-04 0.241E-04
CGA:  37    -0.128332344826E+04   -0.85586E-06   -0.23778E-05 10640   0.132E-04 0.121E-04
  30 F= -.12833234E+04 E0= -.12833234E+04  d E =-.253753E-01  mag=    47.0000
       N       E                     dE             d eps       ncg     rms          ort
SDA:   1    -0.126272746990E+04    0.20596E+02    0.00000E+00 10640   0.576E+02 0.000E+00
CGA:   2    -0.127606691765E+04   -0.13339E+02   -0.13341E+02 10640   0.268E+02-0.327E-01
CGA:   3    -0.128205433369E+04   -0.59874E+01   -0.59869E+01 10640   0.577E+01 0.867E-01
CGA:   4    -0.128291692213E+04   -0.86259E+00   -0.85724E+00 10640   0.108E+01 0.168E-01
CGA:   5    -0.128311987300E+04   -0.20295E+00   -0.20306E+00 10640   0.316E+00 0.134E-02
CGA:   6    -0.128317671587E+04   -0.56843E-01   -0.56768E-01 10640   0.100E+00-0.152E-02
CGA:   7    -0.128319717621E+04   -0.20460E-01   -0.20438E-01 10640   0.308E-01-0.229E-02
CGA:   8    -0.128320377438E+04   -0.65982E-02   -0.66127E-02 10640   0.143E-01-0.240E-02
CGA:   9    -0.128320688978E+04   -0.31154E-02   -0.31273E-02 10640   0.650E-02-0.481E-03
CGA:  10    -0.128320875767E+04   -0.18679E-02   -0.20900E-02 10640   0.579E-02-0.188E-02
CGA:  11    -0.128320963693E+04   -0.87926E-03   -0.86317E-03 10640   0.292E-02-0.141E-02
CGA:  12    -0.128321025719E+04   -0.62025E-03   -0.71813E-03 10640   0.206E-02-0.928E-03
CGA:  13    -0.128321062208E+04   -0.36490E-03   -0.52831E-03 10640   0.333E-02-0.109E-02
CGA:  14    -0.128321092877E+04   -0.30668E-03   -0.36606E-03 10640   0.766E-03 0.495E-03
CGA:  15    -0.128321109546E+04   -0.16669E-03   -0.17677E-03 10640   0.440E-03 0.384E-03
CGA:  16    -0.128321120302E+04   -0.10756E-03   -0.10819E-03 10640   0.561E-03-0.313E-04
CGA:  17    -0.128321126859E+04   -0.65566E-04   -0.86800E-04 10640   0.319E-03 0.352E-03
CGA:  18    -0.128321127432E+04   -0.57298E-05   -0.26466E-04 10640   0.115E-03 0.148E-03
CGA:  19    -0.128321127146E+04    0.28585E-05   -0.13116E-04 10640   0.109E-03 0.115E-03
CGA:  20    -0.128321130067E+04   -0.29208E-04   -0.26668E-04 10640   0.110E-03 0.718E-04
CGA:  21    -0.128321129988E+04    0.78733E-06   -0.95953E-05 10640   0.799E-04 0.836E-04
CGA:  22    -0.128321130528E+04   -0.53998E-05   -0.10800E-04 10640   0.746E-04 0.768E-04
CGA:  23    -0.128321131266E+04   -0.73813E-05   -0.11161E-04 10640   0.698E-04 0.720E-04
  31 F= -.12832113E+04 E0= -.12832113E+04  d E =0.112136E+00  mag=    47.0000
       N       E                     dE             d eps       ncg     rms          ort
SDA:   1    -0.128041217486E+04    0.27991E+01    0.00000E+00 10640   0.959E+01 0.000E+00
CGA:   2    -0.128226174248E+04   -0.18496E+01   -0.18495E+01 10640   0.348E+01-0.813E-02
CGA:   3    -0.128314445375E+04   -0.88271E+00   -0.88200E+00 10640   0.102E+01 0.105E-01
CGA:   4    -0.128329469987E+04   -0.15025E+00   -0.15035E+00 10640   0.171E+00 0.120E-02
CGA:   5    -0.128332485628E+04   -0.30156E-01   -0.30186E-01 10640   0.513E-01 0.180E-02
CGA:   6    -0.128333417163E+04   -0.93153E-02   -0.93266E-02 10640   0.149E-01 0.767E-03
CGA:   7    -0.128333743144E+04   -0.32598E-02   -0.32619E-02 10640   0.407E-02-0.876E-04
CGA:   8    -0.128333822631E+04   -0.79487E-03   -0.79472E-03 10640   0.159E-02 0.244E-03
CGA:   9    -0.128333868002E+04   -0.45371E-03   -0.47394E-03 10640   0.107E-02-0.234E-03
CGA:  10    -0.128333881086E+04   -0.13084E-03   -0.14119E-03 10640   0.366E-03 0.231E-03
CGA:  11    -0.128333885738E+04   -0.46517E-04   -0.60305E-04 10640   0.182E-03 0.222E-03
CGA:  12    -0.128333890222E+04   -0.44837E-04   -0.43950E-04 10640   0.172E-03 0.190E-04
CGA:  13    -0.128333891921E+04   -0.16992E-04   -0.23951E-04 10640   0.571E-04 0.978E-04
CGA:  14    -0.128333892155E+04   -0.23425E-05   -0.59105E-05 10640   0.382E-04 0.397E-04
  32 F= -.12833389E+04 E0= -.12833389E+04  d E =-.127609E+00  mag=    47.0000
       N       E                     dE             d eps       ncg     rms          ort
SDA:   1    -0.128305076440E+04    0.28815E+00    0.00000E+00 10640   0.932E+00 0.000E+00
CGA:   2    -0.128323777592E+04   -0.18701E+00   -0.18702E+00 10640   0.352E+00-0.158E-03
CGA:   3    -0.128332725916E+04   -0.89483E-01   -0.89412E-01 10640   0.889E-01 0.941E-03
CGA:   4    -0.128334093954E+04   -0.13680E-01   -0.13650E-01 10640   0.163E-01-0.721E-03
CGA:   5    -0.128334376726E+04   -0.28277E-02   -0.28343E-02 10640   0.464E-02 0.407E-03
CGA:   6    -0.128334460882E+04   -0.84157E-03   -0.84403E-03 10640   0.143E-02 0.175E-03
CGA:   7    -0.128334493170E+04   -0.32287E-03   -0.32288E-03 10640   0.415E-03 0.748E-06
CGA:   8    -0.128334499151E+04   -0.59811E-04   -0.64563E-04 10640   0.140E-03 0.130E-03
CGA:   9    -0.128334505460E+04   -0.63091E-04   -0.65890E-04 10640   0.122E-03-0.168E-04
CGA:  10    -0.128334507384E+04   -0.19244E-04   -0.19839E-04 10640   0.801E-04 0.398E-04
CGA:  11    -0.128334508213E+04   -0.82827E-05   -0.12741E-04 10640   0.413E-04 0.571E-04
CGA:  12    -0.128334509447E+04   -0.12342E-04   -0.10976E-04 10640   0.200E-04 0.190E-04
CGA:  13    -0.128334511142E+04   -0.16953E-04   -0.23252E-04 10640   0.997E-04-0.107E-04
CGA:  14    -0.128334511939E+04   -0.79644E-05   -0.10679E-04 10640   0.271E-04 0.227E-04
CGA:  15    -0.128334510381E+04    0.15578E-04   -0.32870E-04 10640   0.264E-03-0.633E-04
CGA:  16    -0.128334515503E+04   -0.51218E-04   -0.48606E-04 10640   0.104E-03-0.336E-04
CGA:  17    -0.128334516254E+04   -0.75123E-05   -0.11947E-04 10640   0.233E-04 0.356E-04
  33 F= -.12833452E+04 E0= -.12833452E+04  d E =-.624099E-02  mag=    47.0000
       N       E                     dE             d eps       ncg     rms          ort
SDA:   1    -0.128295713263E+04    0.38802E+00    0.00000E+00 10640   0.115E+01 0.000E+00
CGA:   2    -0.128320697446E+04   -0.24984E+00   -0.24988E+00 10640   0.474E+00 0.151E-02
CGA:   3    -0.128332403506E+04   -0.11706E+00   -0.11706E+00 10640   0.104E+00-0.900E-03
CGA:   4    -0.128334007800E+04   -0.16043E-01   -0.16025E-01 10640   0.208E-01-0.195E-03
CGA:   5    -0.128334376936E+04   -0.36914E-02   -0.36820E-02 10640   0.630E-02-0.135E-03
CGA:   6    -0.128334485619E+04   -0.10868E-02   -0.10925E-02 10640   0.184E-02 0.102E-03
CGA:   7    -0.128334527204E+04   -0.41585E-03   -0.41584E-03 10640   0.467E-03-0.176E-06
CGA:   8    -0.128334537141E+04   -0.99372E-04   -0.10029E-03 10640   0.193E-03 0.559E-04
CGA:   9    -0.128334543091E+04   -0.59500E-04   -0.10067E-03 10640   0.572E-03-0.174E-03
CGA:  10    -0.128334547126E+04   -0.40348E-04   -0.52546E-04 10640   0.795E-04 0.823E-04
CGA:  11    -0.128334549180E+04   -0.20546E-04   -0.20618E-04 10640   0.415E-04 0.905E-05
CGA:  12    -0.128334551911E+04   -0.27305E-04    0.20683E-04 10640   0.614E-04-0.122E-04
CGA:  13    -0.128334554667E+04   -0.27568E-04    0.14207E-04 10640   0.645E-04 0.421E-05
CGA:  14    -0.128334555679E+04   -0.10111E-04   -0.10497E-04 10640   0.578E-04 0.465E-05
CGA:  15    -0.128334558673E+04   -0.29948E-04    0.14451E-03 10640   0.541E-04 0.209E-04
CGA:  16    -0.128334563929E+04   -0.52561E-04    0.15413E-04 10640   0.828E-04-0.218E-04
CGA:  17    -0.128334568809E+04   -0.48796E-04    0.49818E-05 10640   0.117E-03-0.245E-04
CGA:  18    -0.128334570443E+04   -0.16340E-04   -0.11746E-04 10640   0.936E-04-0.536E-04
CGA:  19    -0.128334561242E+04    0.92013E-04   -0.36412E-04 10640   0.845E-03-0.267E-03
CGA:  20    -0.128334580801E+04   -0.19559E-03   -0.16582E-03 10640   0.650E-03-0.547E-03
CGA:  21    -0.128334581981E+04   -0.11800E-04   -0.47429E-04 10640   0.841E-04 0.206E-03
CGA:  22    -0.128334581417E+04    0.56376E-05   -0.55171E-05 10640   0.371E-04 0.592E-04
  34 F= -.12833458E+04 E0= -.12833458E+04  d E =-.651633E-03  mag=    47.0000
       N       E                     dE             d eps       ncg     rms          ort
SDA:   1    -0.127739086070E+04    0.59550E+01    0.00000E+00 10640   0.185E+02 0.000E+00
CGA:   2    -0.128109248638E+04   -0.37016E+01   -0.37014E+01 10640   0.734E+01 0.823E-02
CGA:   3    -0.128286837160E+04   -0.17759E+01   -0.17753E+01 10640   0.215E+01 0.133E-01
CGA:   4    -0.128317863961E+04   -0.31027E+00   -0.30936E+00 10640   0.351E+00 0.822E-02
CGA:   5    -0.128324389732E+04   -0.65258E-01   -0.65210E-01 10640   0.103E+00-0.162E-02
CGA:   6    -0.128326293017E+04   -0.19033E-01   -0.18989E-01 10640   0.326E-01-0.127E-02
CGA:   7    -0.128326936882E+04   -0.64386E-02   -0.64404E-02 10640   0.908E-02 0.165E-03
CGA:   8    -0.128327147601E+04   -0.21072E-02   -0.21249E-02 10640   0.432E-02-0.990E-03
CGA:   9    -0.128327229814E+04   -0.82213E-03   -0.82238E-03 10640   0.173E-02 0.107E-03
CGA:  10    -0.128327285469E+04   -0.55654E-03   -0.71022E-03 10640   0.225E-02-0.833E-03
CGA:  11    -0.128327311077E+04   -0.25609E-03   -0.24126E-03 10640   0.139E-02-0.811E-03
CGA:  12    -0.128327333579E+04   -0.22502E-03   -0.31947E-03 10640   0.122E-02-0.698E-03
CGA:  13    -0.128327359214E+04   -0.25635E-03   -0.25733E-03 10640   0.567E-03 0.484E-04
CGA:  14    -0.128327367736E+04   -0.85217E-04   -0.97224E-04 10640   0.232E-03 0.185E-03
CGA:  15    -0.128327374921E+04   -0.71856E-04   -0.71239E-04 10640   0.152E-03 0.120E-03
CGA:  16    -0.128327378463E+04   -0.35418E-04   -0.35678E-04 10640   0.175E-03-0.303E-04
CGA:  17    -0.128327380471E+04   -0.20078E-04   -0.24728E-04 10640   0.116E-03 0.904E-04
CGA:  18    -0.128327381151E+04   -0.68041E-05   -0.11932E-04 10640   0.374E-04 0.421E-04
  35 F= -.12832738E+04 E0= -.12832738E+04  d E =0.720027E-01  mag=    47.0000
       N       E                     dE             d eps       ncg     rms          ort
SDA:   1    -0.127957951842E+04    0.36943E+01    0.00000E+00 10640   0.124E+02 0.000E+00
CGA:   2    -0.128195778595E+04   -0.23783E+01   -0.23780E+01 10640   0.449E+01-0.690E-02
CGA:   3    -0.128309188352E+04   -0.11341E+01   -0.11335E+01 10640   0.133E+01 0.116E-01
CGA:   4    -0.128328869010E+04   -0.19681E+00   -0.19704E+00 10640   0.218E+00 0.401E-02
CGA:   5    -0.128332771653E+04   -0.39026E-01   -0.39068E-01 10640   0.660E-01 0.157E-02
CGA:   6    -0.128333967977E+04   -0.11963E-01   -0.11993E-01 10640   0.187E-01 0.108E-02
[...]
SDA:   1    -0.126260213987E+04    0.20750E+02    0.00000E+00 10640   0.569E+02 0.000E+00
CGA:   2    -0.127619840188E+04   -0.13596E+02   -0.13605E+02 10640   0.262E+02 0.174E-01
CGA:   3    -0.128215911046E+04   -0.59607E+01   -0.59623E+01 10640   0.509E+01 0.366E-02
CGA:   4    -0.128294846418E+04   -0.78935E+00   -0.78927E+00 10640   0.101E+01 0.989E-02
CGA:   5    -0.128313788597E+04   -0.18942E+00   -0.18947E+00 10640   0.299E+00-0.554E-03
CGA:   6    -0.128319129923E+04   -0.53413E-01   -0.53173E-01 10640   0.926E-01-0.124E-03
CGA:   7    -0.128321129231E+04   -0.19993E-01   -0.19807E-01 10640   0.246E-01-0.129E-02
CGA:   8    -0.128321728011E+04   -0.59878E-02   -0.58405E-02 10640   0.125E-01-0.139E-02
CGA:   9    -0.128321981655E+04   -0.25364E-02   -0.25091E-02 10640   0.557E-02-0.188E-03
CGA:  10    -0.128322159581E+04   -0.17793E-02   -0.17626E-02 10640   0.378E-02-0.141E-02
CGA:  11    -0.128322226966E+04   -0.67385E-03   -0.59718E-03 10640   0.176E-02-0.631E-03
CGA:  12    -0.128322271248E+04   -0.44282E-03   -0.42476E-03 10640   0.101E-02-0.491E-03
CGA:  13    -0.128322296116E+04   -0.24868E-03   -0.32405E-03 10640   0.205E-02-0.622E-03
CGA:  14    -0.128322314018E+04   -0.17901E-03   -0.21997E-03 10640   0.421E-03 0.192E-03
CGA:  15    -0.128322326237E+04   -0.12220E-03   -0.12712E-03 10640   0.199E-03 0.113E-03
CGA:  16    -0.128322334336E+04   -0.80992E-04   -0.81302E-04 10640   0.450E-03-0.708E-04
CGA:  17    -0.128322335774E+04   -0.14380E-04   -0.32769E-04 10640   0.442E-03 0.886E-04
CGA:  18    -0.128322336154E+04   -0.37977E-05   -0.41113E-04 10640   0.174E-03 0.163E-03
CGA:  19    -0.128322336290E+04   -0.13607E-05   -0.22152E-04 10640   0.151E-03 0.102E-03
CGA:  20    -0.128322199006E+04    0.13728E-02   -0.74293E-03 10640   0.175E-01-0.105E-02
CGA:  21    -0.128322341242E+04   -0.14224E-02   -0.15887E-02 10640   0.478E-03 0.641E-03
CGA:  22    -0.128322348092E+04   -0.68496E-04   -0.10503E-03 10640   0.249E-03 0.128E-03
CGA:  23    -0.128322359558E+04   -0.11466E-03   -0.91356E-04 10640   0.167E-03-0.118E-03
CGA:  24    -0.128322359216E+04    0.34250E-05   -0.75265E-05 10640   0.860E-04 0.283E-04
  43 F= -.12832236E+04 E0= -.12832236E+04  d E =0.128960E+00  mag=    47.0000
       N       E                     dE             d eps       ncg     rms          ort
SDA:   1    -0.127245299486E+04    0.10771E+02    0.00000E+00 10640   0.347E+02 0.000E+00
CGA:   2    -0.127930895813E+04   -0.68560E+01   -0.68575E+01 10640   0.130E+02 0.390E-01
CGA:   3    -0.128260045501E+04   -0.32915E+01   -0.32964E+01 10640   0.341E+01 0.126E-01
CGA:   4    -0.128313102118E+04   -0.53057E+00   -0.53185E+00 10640   0.514E+00 0.115E-01
CGA:   5    -0.128323727181E+04   -0.10625E+00   -0.10634E+00 10640   0.145E+00 0.429E-03
CGA:   6    -0.128326437662E+04   -0.27105E-01   -0.27232E-01 10640   0.534E-01 0.745E-03
CGA:   7    -0.128327432578E+04   -0.99492E-02   -0.98390E-02 10640   0.135E-01-0.444E-03
CGA:   8    -0.128327760397E+04   -0.32782E-02   -0.32509E-02 10640   0.520E-02-0.196E-03
CGA:   9    -0.128327892554E+04   -0.13216E-02   -0.13195E-02 10640   0.284E-02-0.113E-04
CGA:  10    -0.128327945969E+04   -0.53414E-03   -0.56749E-03 10640   0.113E-02 0.212E-03
CGA:  11    -0.128327977828E+04   -0.31860E-03   -0.32787E-03 10640   0.430E-03 0.113E-03
CGA:  12    -0.128327990011E+04   -0.12182E-03   -0.12839E-03 10640   0.270E-03 0.851E-04
CGA:  13    -0.128327999886E+04   -0.98753E-04   -0.99045E-04 10640   0.255E-03 0.764E-05
CGA:  14    -0.128328003392E+04   -0.35061E-04   -0.50415E-04 10640   0.134E-03 0.101E-03
CGA:  15    -0.128328005848E+04   -0.24557E-04   -0.38684E-04 10640   0.107E-03 0.109E-03
CGA:  16    -0.128328008450E+04   -0.26022E-04   -0.26207E-04 10640   0.136E-03 0.221E-05
CGA:  17    -0.128328010031E+04   -0.15807E-04   -0.26069E-04 10640   0.567E-04 0.743E-04
CGA:  18    -0.128328010242E+04   -0.21145E-05   -0.72758E-05 10640   0.339E-04 0.272E-04
CGA:  19    -0.128328011010E+04   -0.76764E-05   -0.10972E-04 10640   0.398E-04 0.363E-04
CGA:  20    -0.128328012260E+04   -0.12500E-04   -0.12599E-04 10640   0.963E-04-0.810E-05
CGA:  21    -0.128328013038E+04   -0.77787E-05   -0.14668E-04 10640   0.105E-03 0.601E-04
  44 F= -.12832801E+04 E0= -.12832801E+04  d E =-.565382E-01  mag=    47.0000
       N       E                     dE             d eps       ncg     rms          ort
SDA:   1    -0.128209348154E+04    0.11866E+01    0.00000E+00 10640   0.414E+01 0.000E+00
CGA:   2    -0.128287515785E+04   -0.78168E+00   -0.78212E+00 10640   0.147E+01 0.628E-02
CGA:   3    -0.128325251108E+04   -0.37735E+00   -0.37725E+00 10640   0.434E+00-0.488E-02
CGA:   4    -0.128331876775E+04   -0.66257E-01   -0.66341E-01 10640   0.624E-01 0.104E-02
CGA:   5    -0.128333185080E+04   -0.13083E-01   -0.12985E-01 10640   0.183E-01-0.142E-02
CGA:   6    -0.128333506992E+04   -0.32191E-02   -0.32607E-02 10640   0.577E-02 0.493E-03
CGA:   7    -0.128333620453E+04   -0.11346E-02   -0.11361E-02 10640   0.155E-02 0.258E-04
CGA:   8    -0.128333657001E+04   -0.36548E-03   -0.36255E-03 10640   0.733E-03-0.924E-04
CGA:   9    -0.128333667041E+04   -0.10039E-03   -0.11533E-03 10640   0.236E-03 0.159E-03
CGA:  10    -0.128333670344E+04   -0.33030E-04   -0.20442E-03 10640   0.970E-03-0.378E-03
CGA:  11    -0.128333685487E+04   -0.15144E-03   -0.16188E-03 10640   0.121E-03 0.929E-04
CGA:  12    -0.128333689330E+04   -0.38430E-04   -0.49582E-04 10640   0.257E-03-0.112E-03
CGA:  13    -0.128333690001E+04   -0.67025E-05   -0.20665E-04 10640   0.346E-04 0.707E-04
  45 F= -.12833369E+04 E0= -.12833369E+04  d E =-.567696E-01  mag=    47.0000
       N       E                     dE             d eps       ncg     rms          ort
SDA:   1    -0.128312869728E+04    0.20820E+00    0.00000E+00 10640   0.565E+00 0.000E+00
CGA:   2    -0.128326818074E+04   -0.13948E+00   -0.13950E+00 10640   0.263E+00 0.125E-02
CGA:   3    -0.128332782733E+04   -0.59647E-01   -0.59608E-01 10640   0.465E-01-0.123E-02
CGA:   4    -0.128333526104E+04   -0.74337E-02   -0.74789E-02 10640   0.871E-02 0.484E-03
CGA:   5    -0.128333726507E+04   -0.20040E-02   -0.19832E-02 10640   0.257E-02-0.742E-03
CGA:   6    -0.128333761537E+04   -0.35030E-03   -0.38181E-03 10640   0.686E-03 0.356E-03
CGA:   7    -0.128333780081E+04   -0.18544E-03   -0.18456E-03 10640   0.250E-03-0.776E-04
CGA:   8    -0.128333785139E+04   -0.50585E-04   -0.50691E-04 10640   0.112E-03 0.577E-05
CGA:   9    -0.128333786931E+04   -0.17912E-04   -0.20140E-04 10640   0.460E-04 0.317E-04
CGA:  10    -0.128333790112E+04   -0.31816E-04    0.64141E-04 10640   0.205E-04 0.101E-04
CGA:  11    -0.128333790280E+04   -0.16722E-05   -0.21749E-04 10640   0.124E-03-0.322E-04
CGA:  12    -0.128333792329E+04   -0.20494E-04   -0.19556E-04 10640   0.482E-04-0.785E-05
CGA:  13    -0.128333792838E+04   -0.50889E-05   -0.66921E-05 10640   0.105E-04 0.134E-04
  46 F= -.12833379E+04 E0= -.12833379E+04  d E =-.102837E-02  mag=    47.0000
       N       E                     dE             d eps       ncg     rms          ort
SDA:   1    -0.124722182161E+04    0.36116E+02    0.00000E+00 10640   0.967E+02 0.000E+00
CGA:   2    -0.127151229982E+04   -0.24290E+02   -0.24291E+02 10640   0.449E+02 0.296E-01
CGA:   3    -0.128164779437E+04   -0.10135E+02   -0.10137E+02 10640   0.723E+01 0.405E-02
CGA:   4    -0.128288271969E+04   -0.12349E+01   -0.12353E+01 10640   0.141E+01-0.453E-03
CGA:   5    -0.128317976134E+04   -0.29704E+00   -0.29718E+00 10640   0.322E+00 0.386E-02
CGA:   6    -0.128325793795E+04   -0.78177E-01   -0.78146E-01 10640   0.106E+00-0.762E-02
CGA:   7    -0.128327800098E+04   -0.20063E-01   -0.19949E-01 10640   0.387E-01-0.194E-02
CGA:   8    -0.128328697333E+04   -0.89723E-02   -0.89455E-02 10640   0.191E-01-0.355E-02
CGA:   9    -0.128329183861E+04   -0.48653E-02   -0.50440E-02 10640   0.124E-01-0.375E-02
CGA:  10    -0.128329409340E+04   -0.22548E-02   -0.22021E-02 10640   0.610E-02-0.219E-02
CGA:  11    -0.128329546392E+04   -0.13705E-02   -0.16673E-02 10640   0.580E-02-0.336E-02
CGA:  12    -0.128329608488E+04   -0.62096E-03   -0.68289E-03 10640   0.141E-02 0.487E-03
CGA:  13    -0.128329657852E+04   -0.49364E-03   -0.49993E-03 10640   0.803E-03-0.759E-04
CGA:  14    -0.128329684205E+04   -0.26353E-03   -0.52989E-03 10640   0.293E-02-0.594E-03
CGA:  15    -0.128329718655E+04   -0.34450E-03   -0.36189E-03 10640   0.563E-03 0.128E-03
CGA:  16    -0.128329739814E+04   -0.21159E-03   -0.36880E-03 10640   0.122E-02-0.430E-03
CGA:  17    -0.128329757692E+04   -0.17878E-03   -0.19722E-03 10640   0.313E-03 0.158E-03
CGA:  18    -0.128329756553E+04    0.11392E-04   -0.25958E-03 10640   0.231E-02-0.591E-03
CGA:  19    -0.128329779377E+04   -0.22824E-03   -0.28327E-03 10640   0.459E-03 0.323E-03
CGA:  20    -0.128329794213E+04   -0.14835E-03   -0.14815E-03 10640   0.152E-03-0.415E-04
CGA:  21    -0.128329805130E+04   -0.10917E-03    0.52803E-04 10640   0.178E-03 0.608E-04
CGA:  22    -0.128329821215E+04   -0.16086E-03   -0.24154E-03 10640   0.115E-02-0.126E-03
CGA:  23    -0.128329846189E+04   -0.24974E-03   -0.20929E-03 10640   0.567E-03-0.288E-03
CGA:  24    -0.128329850573E+04   -0.43838E-04   -0.63681E-04 10640   0.110E-03 0.121E-03
CGA:  25    -0.128329850574E+04   -0.87894E-08   -0.11395E-04 10640   0.445E-04 0.515E-04
CGA:  26    -0.128329851659E+04   -0.10854E-04   -0.13250E-04 10640   0.882E-04 0.254E-04
CGA:  27    -0.128329856796E+04   -0.51371E-04    0.82324E-02 10640   0.219E-03-0.676E-04
CGA:  28    -0.128329856885E+04   -0.89148E-06   -0.16762E-04 10640   0.411E-04 0.745E-04
  47 F= -.12832986E+04 E0= -.12832986E+04  d E =0.393595E-01  mag=    47.0000
       N       E                     dE             d eps       ncg     rms          ort
SDA:   1    -0.124267237718E+04    0.40626E+02    0.00000E+00 10640   0.112E+03 0.000E+00
CGA:   2    -0.126945752069E+04   -0.26785E+02   -0.26792E+02 10640   0.512E+02 0.794E-01
CGA:   3    -0.128115656796E+04   -0.11699E+02   -0.11700E+02 10640   0.937E+01 0.194E-01
CGA:   4    -0.128267499933E+04   -0.15184E+01   -0.15210E+01 10640   0.179E+01-0.269E-02
CGA:   5    -0.128303350024E+04   -0.35850E+00   -0.35875E+00 10640   0.484E+00 0.724E-02
CGA:   6    -0.128312626014E+04   -0.92760E-01   -0.92453E-01 10640   0.182E+00-0.414E-02
CGA:   7    -0.128316094801E+04   -0.34688E-01   -0.34349E-01 10640   0.510E-01-0.511E-02
CGA:   8    -0.128317306155E+04   -0.12114E-01   -0.12090E-01 10640   0.244E-01-0.306E-02
CGA:   9    -0.128317887132E+04   -0.58098E-02   -0.58155E-02 10640   0.144E-01-0.280E-02
CGA:  10    -0.128318222528E+04   -0.33540E-02   -0.33939E-02 10640   0.743E-02-0.283E-02
CGA:  11    -0.128318386431E+04   -0.16390E-02   -0.17188E-02 10640   0.499E-02-0.222E-02
CGA:  12    -0.128318476816E+04   -0.90384E-03   -0.92238E-03 10640   0.390E-02-0.192E-02
CGA:  13    -0.128318545902E+04   -0.69086E-03   -0.95371E-03 10640   0.478E-02-0.185E-02
CGA:  14    -0.128318614533E+04   -0.68631E-03   -0.70574E-03 10640   0.335E-02-0.104E-02
CGA:  15    -0.128318725680E+04   -0.11115E-02   -0.13334E-02 10640   0.308E-02-0.925E-03
CGA:  16    -0.128318770946E+04   -0.45266E-03   -0.45795E-03 10640   0.164E-02 0.716E-04
CGA:  17    -0.128318806805E+04   -0.35859E-03   -0.37906E-03 10640   0.507E-03 0.447E-03
CGA:  18    -0.128318818110E+04   -0.11305E-03   -0.13031E-03 10640   0.287E-03 0.256E-03
CGA:  19    -0.128318819322E+04   -0.12121E-04   -0.35507E-04 10640   0.158E-03 0.165E-03
CGA:  20    -0.128318819680E+04   -0.35848E-05   -0.20426E-04 10640   0.119E-03 0.130E-03
CGA:  21    -0.128318819564E+04    0.11673E-05   -0.13642E-04 10640   0.101E-03 0.107E-03
CGA:  22    -0.128318819251E+04    0.31291E-05   -0.10262E-04 10640   0.889E-04 0.933E-04
  48 F= -.12831882E+04 E0= -.12831882E+04  d E =0.110376E+00  mag=    47.0000
       N       E                     dE             d eps       ncg     rms          ort
SDA:   1    -0.127443981789E+04    0.87484E+01    0.00000E+00 10640   0.270E+02 0.000E+00
CGA:   2    -0.128007589019E+04   -0.56361E+01   -0.56367E+01 10640   0.110E+02 0.195E-01
CGA:   3    -0.128272314944E+04   -0.26473E+01   -0.26471E+01 10640   0.283E+01 0.336E-02
CGA:   4    -0.128314168688E+04   -0.41854E+00   -0.41852E+00 10640   0.494E+00 0.573E-03
CGA:   5    -0.128323374109E+04   -0.92054E-01   -0.91970E-01 10640   0.146E+00-0.165E-02
CGA:   6    -0.128326060088E+04   -0.26860E-01   -0.26843E-01 10640   0.419E-01-0.234E-03
CGA:   7    -0.128326995900E+04   -0.93581E-02   -0.93606E-02 10640   0.120E-01-0.143E-02
CGA:   8    -0.128327239408E+04   -0.24351E-02   -0.24379E-02 10640   0.515E-02 0.265E-03
CGA:   9    -0.128327390088E+04   -0.15068E-02   -0.16666E-02 10640   0.498E-02-0.167E-02
CGA:  10    -0.128327459927E+04   -0.69839E-03   -0.68497E-03 10640   0.212E-02-0.579E-03
CGA:  11    -0.128327506682E+04   -0.46756E-03   -0.98890E-03 10640   0.334E-02-0.172E-02
CGA:  12    -0.128327580638E+04   -0.73956E-03   -0.73115E-03 10640   0.123E-02-0.391E-03
CGA:  13    -0.128327589767E+04   -0.91292E-04   -0.13232E-03 10640   0.380E-03 0.352E-03
CGA:  14    -0.128327596459E+04   -0.66920E-04   -0.79560E-04 10640   0.326E-03 0.178E-03
CGA:  15    -0.128327610450E+04   -0.13991E-03   -0.25999E-03 10640   0.121E-02-0.385E-03
CGA:  16    -0.128327623765E+04   -0.13315E-03   -0.16163E-03 10640   0.252E-03 0.255E-03
CGA:  17    -0.128327632289E+04   -0.85244E-04   -0.92648E-04 10640   0.231E-03-0.118E-03
CGA:  18    -0.128327635657E+04   -0.33680E-04   -0.33347E-04 10640   0.276E-03 0.117E-04
CGA:  19    -0.128327647941E+04   -0.12284E-03   -0.12191E-03 10640   0.260E-03 0.179E-05
CGA:  20    -0.128327478565E+04    0.16938E-02   -0.91475E-03 10640   0.193E-01-0.154E-02
CGA:  21    -0.128327647610E+04   -0.16905E-02   -0.19223E-02 10640   0.129E-02 0.971E-03
CGA:  22    -0.128327672563E+04   -0.24952E-03   -0.28083E-03 10640   0.342E-03 0.133E-03
CGA:  23    -0.128327683132E+04   -0.10570E-03   -0.86817E-04 10640   0.161E-03-0.926E-04
CGA:  24    -0.128327682106E+04    0.10263E-04   -0.10479E-04 10640   0.818E-04 0.626E-04
CGA:  25    -0.128327680929E+04    0.11766E-04   -0.80779E-05 10640   0.440E-04 0.596E-04
CGA:  26    -0.128327682246E+04   -0.13163E-04   -0.13592E-04 10640   0.326E-04 0.537E-05
CGA:  27    -0.128327681738E+04    0.50774E-05   -0.27549E-05 10640   0.168E-04 0.253E-04
  49 F= -.12832768E+04 E0= -.12832768E+04  d E =-.886249E-01  mag=    47.0000
       N       E                     dE             d eps       ncg     rms          ort
SDA:   1    -0.128283400244E+04    0.44282E+00    0.00000E+00 10640   0.132E+01 0.000E+00
CGA:   2    -0.128312746444E+04   -0.29346E+00   -0.29328E+00 10640   0.576E+00-0.121E-02
CGA:   3    -0.128326269823E+04   -0.13523E+00   -0.13547E+00 10640   0.132E+00 0.184E-02
CGA:   4    -0.128328236310E+04   -0.19665E-01   -0.19799E-01 10640   0.231E-01 0.796E-03
CGA:   5    -0.128328672851E+04   -0.43654E-02   -0.43880E-02 10640   0.687E-02 0.176E-03
CGA:   6    -0.128328802777E+04   -0.12993E-02   -0.12818E-02 10640   0.217E-02-0.120E-03
CGA:   7    -0.128328843381E+04   -0.40604E-03   -0.42027E-03 10640   0.505E-03 0.120E-03
CGA:   8    -0.128328859659E+04   -0.16278E-03   -0.16182E-03 10640   0.363E-03-0.118E-03
CGA:   9    -0.128328860900E+04   -0.12403E-04   -0.32512E-04 10640   0.148E-03 0.104E-03
CGA:  10    -0.128328861171E+04   -0.27154E-05   -0.19665E-04 10640   0.783E-04 0.856E-04
CGA:  11    -0.128328863470E+04   -0.22989E-04   -0.23031E-04 10640   0.111E-03-0.170E-04
CGA:  12    -0.128328863011E+04    0.45963E-05   -0.65098E-05 10640   0.593E-04 0.512E-04
  50 F= -.12832886E+04 E0= -.12832886E+04  d E =-.118127E-01  mag=    47.0000
       N       E                     dE             d eps       ncg     rms          ort
SDA:   1    -0.127651443359E+04    0.67742E+01    0.00000E+00 10640   0.182E+02 0.000E+00
CGA:   2    -0.128104015509E+04   -0.45257E+01   -0.45257E+01 10640   0.853E+01-0.566E-02
CGA:   3    -0.128295285934E+04   -0.19127E+01   -0.19131E+01 10640   0.151E+01 0.650E-02
CGA:   4    -0.128319349622E+04   -0.24064E+00   -0.24063E+00 10640   0.317E+00-0.569E-03
CGA:   5    -0.128325196921E+04   -0.58473E-01   -0.58568E-01 10640   0.907E-01 0.163E-02
CGA:   6    -0.128326876576E+04   -0.16797E-01   -0.16704E-01 10640   0.294E-01-0.118E-02
CGA:   7    -0.128327488083E+04   -0.61151E-02   -0.60971E-02 10640   0.750E-02-0.388E-03
CGA:   8    -0.128327678611E+04   -0.19053E-02   -0.19096E-02 10640   0.407E-02-0.619E-03
CGA:   9    -0.128327754463E+04   -0.75852E-03   -0.75902E-03 10640   0.180E-02 0.175E-04
CGA:  10    -0.128327809556E+04   -0.55094E-03   -0.57749E-03 10640   0.105E-02-0.376E-03
CGA:  11    -0.128327828230E+04   -0.18674E-03   -0.18513E-03 10640   0.493E-03-0.544E-04
CGA:  12    -0.128327841658E+04   -0.13427E-03   -0.14048E-03 10640   0.378E-03-0.126E-03
CGA:  13    -0.128327848448E+04   -0.67904E-04   -0.68168E-04 10640   0.239E-03 0.226E-04
CGA:  14    -0.128327855635E+04   -0.71869E-04   -0.70101E-04 10640   0.132E-03 0.735E-04
CGA:  15    -0.128327860211E+04   -0.45757E-04   -0.45098E-04 10640   0.926E-04 0.930E-04
CGA:  16    -0.128327862167E+04   -0.19560E-04   -0.20546E-04 10640   0.662E-04 0.302E-04
CGA:  17    -0.128327863483E+04   -0.13169E-04   -0.16306E-04 10640   0.373E-04 0.464E-04
CGA:  18    -0.128327863779E+04   -0.29535E-05   -0.58273E-05 10640   0.290E-04 0.308E-04
  51 F= -.12832786E+04 E0= -.12832786E+04  d E =0.999232E-02  mag=    47.0000
       N       E                     dE             d eps       ncg     rms          ort
SDA:   1    -0.123255503628E+04    0.50724E+02    0.00000E+00 10640   0.137E+03 0.000E+00
CGA:   2    -0.126633037485E+04   -0.33775E+02   -0.33775E+02 10640   0.640E+02 0.817E-01
CGA:   3    -0.128059057236E+04   -0.14260E+02   -0.14261E+02 10640   0.117E+02-0.144E-01
CGA:   4    -0.128243086094E+04   -0.18403E+01   -0.18397E+01 10640   0.241E+01 0.200E-01
CGA:   5    -0.128288532828E+04   -0.45447E+00   -0.45450E+00 10640   0.716E+00-0.219E-02
CGA:   6    -0.128301354756E+04   -0.12822E+00   -0.12797E+00 10640   0.225E+00-0.103E-02
CGA:   7    -0.128306360893E+04   -0.50061E-01   -0.49965E-01 10640   0.630E-01-0.819E-02
CGA:   8    -0.128307837162E+04   -0.14763E-01   -0.14799E-01 10640   0.326E-01-0.317E-02
CGA:   9    -0.128308581826E+04   -0.74466E-02   -0.74851E-02 10640   0.196E-01-0.471E-02
CGA:  10    -0.128309014323E+04   -0.43250E-02   -0.44684E-02 10640   0.982E-02-0.430E-02
CGA:  11    -0.128309217800E+04   -0.20348E-02   -0.25787E-02 10640   0.110E-01-0.537E-02
CGA:  12    -0.128309325007E+04   -0.10721E-02   -0.11505E-02 10640   0.196E-02 0.632E-03
CGA:  13    -0.128309403001E+04   -0.77994E-03   -0.80237E-03 10640   0.111E-02-0.149E-03
CGA:  14    -0.128309376651E+04    0.26351E-03   -0.88263E-03 10640   0.107E-01-0.185E-02
CGA:  15    -0.128309485994E+04   -0.10934E-02   -0.11617E-02 10640   0.103E-02 0.473E-03
CGA:  16    -0.128309522509E+04   -0.36515E-03   -0.38660E-03 10640   0.121E-02-0.223E-03
CGA:  17    -0.128309540642E+04   -0.18133E-03   -0.17424E-03 10640   0.511E-03-0.823E-04
CGA:  18    -0.128309555270E+04   -0.14628E-03   -0.26019E-03 10640   0.176E-02-0.408E-03
CGA:  19    -0.128309584376E+04   -0.29106E-03   -0.27150E-03 10640   0.428E-03-0.154E-03
CGA:  20    -0.128309590172E+04   -0.57964E-04   -0.69040E-04 10640   0.182E-03 0.116E-03
CGA:  21    -0.128309598117E+04   -0.79453E-04   -0.79487E-04 10640   0.270E-03-0.114E-05
CGA:  22    -0.128309521656E+04    0.76461E-03   -0.42466E-03 10640   0.672E-02-0.887E-03
CGA:  23    -0.128309598369E+04   -0.76713E-03   -0.86328E-03 10640   0.179E-02 0.341E-03
CGA:  24    -0.128309662212E+04   -0.63843E-03   -0.63785E-03 10640   0.948E-03-0.253E-05
CGA:  25    -0.128309679021E+04   -0.16809E-03   -0.14952E-03 10640   0.113E-03-0.579E-04
CGA:  26    -0.128309682678E+04   -0.36572E-04   -0.34455E-04 10640   0.970E-04-0.162E-04
CGA:  27    -0.128309683470E+04   -0.79120E-05   -0.15396E-04 10640   0.346E-04 0.284E-04
