       N       E                     dE             d eps       ncg     rms          ort
DAV:   1     0.102993580802E+05    0.10299E+05   -0.42468E+05 10640   0.155E+03
DAV:   2    -0.111082039399E+03   -0.10410E+05   -0.98246E+04 10640   0.474E+02
DAV:   3    -0.152172039159E+04   -0.14106E+04   -0.13150E+04 10640   0.182E+02
DAV:   4    -0.160415163500E+04   -0.82431E+02   -0.80191E+02 10640   0.463E+01
DAV:   5    -0.160652670927E+04   -0.23751E+01   -0.23674E+01 10640   0.840E+00
SDA:   6    -0.728246381332E+03    0.87828E+03   -0.23674E+01 10640   0.291E+04 0.000E+00
CGA:   7    -0.113441328012E+04   -0.40617E+03   -0.40273E+03 10640   0.997E+03-0.186E+02
CGA:   8    -0.116084879055E+04   -0.26436E+02   -0.57164E+02 10640   0.109E+04-0.519E+03
CGA:   9    -0.116744213541E+04   -0.65933E+01   -0.52019E+02 10640   0.165E+04-0.976E+03
CGA:  10    -0.115489587505E+04    0.12546E+02   -0.84267E+02 10640   0.230E+04-0.150E+04
CGA:  11    -0.114620029936E+04    0.86956E+01   -0.11172E+03 10640   0.281E+04-0.222E+04
CGA:  12    -0.113049864074E+04    0.15702E+02   -0.13890E+03 10640   0.365E+04-0.299E+04
CGA:  13    -0.113531700190E+04   -0.48184E+01   -0.17339E+03 10640   0.349E+04-0.328E+04
CGA:  14    -0.115863036567E+04   -0.23313E+02   -0.15702E+03 10640   0.330E+04-0.350E+04
CGA:  15    -0.119450190785E+04   -0.35872E+02   -0.13753E+03 10640   0.211E+04-0.255E+04
CGA:  16    -0.123202635150E+04   -0.37524E+02   -0.77907E+02 10640   0.771E+03-0.120E+04
CGA:  17    -0.124875403164E+04   -0.16728E+02   -0.25129E+02 10640   0.170E+03-0.265E+03
CGA:  18    -0.125607979145E+04   -0.73258E+01   -0.57817E+01 10640   0.415E+02 0.231E+02
CGA:  19    -0.126499199380E+04   -0.89122E+01   -0.85213E+01 10640   0.134E+03 0.566E+01
CGA:  20    -0.127545683823E+04   -0.10465E+02   -0.92059E+01 10640   0.110E+02 0.370E+01
CGA:  21    -0.127659843988E+04   -0.11416E+01   -0.11809E+01 10640   0.186E+02 0.174E+00
CGA:  22    -0.127850092819E+04   -0.19025E+01   -0.19495E+01 10640   0.121E+02-0.158E-01
CGA:  23    -0.127927876025E+04   -0.77783E+00   -0.86222E+00 10640   0.427E+01-0.859E+00
CGA:  24    -0.127998087395E+04   -0.70211E+00   -0.69697E+00 10640   0.538E+01-0.891E-01
CGA:  25    -0.128066522116E+04   -0.68435E+00   -0.68579E+00 10640   0.270E+01-0.629E+00
CGA:  26    -0.128120285466E+04   -0.53763E+00   -0.58004E+00 10640   0.400E+01-0.433E+00
CGA:  27    -0.128173927872E+04   -0.53642E+00   -0.56132E+00 10640   0.173E+01-0.774E+00
CGA:  28    -0.128206309134E+04   -0.32381E+00   -0.39237E+00 10640   0.251E+01-0.469E+00
CGA:  29    -0.128239997326E+04   -0.33688E+00   -0.34602E+00 10640   0.994E+00-0.318E+00
CGA:  30    -0.128258152138E+04   -0.18155E+00   -0.19098E+00 10640   0.790E+00-0.131E+00
CGA:  31    -0.128276983377E+04   -0.18831E+00   -0.18960E+00 10640   0.474E+00-0.145E-01
CGA:  32    -0.128285540892E+04   -0.85575E-01   -0.84310E-01 10640   0.205E+00 0.434E-01
CGA:  33    -0.128290550413E+04   -0.50095E-01   -0.45815E-01 10640   0.123E+00 0.883E-01
CGA:  34    -0.128293577068E+04   -0.30267E-01   -0.29525E-01 10640   0.689E-01 0.839E-01
CGA:  35    -0.128294928904E+04   -0.13518E-01   -0.12710E-01 10640   0.409E-01 0.318E-01
CGA:  36    -0.128295827928E+04   -0.89902E-02   -0.92406E-02 10640   0.282E-01 0.432E-01
CGA:  37    -0.128296148428E+04   -0.32050E-02   -0.37670E-02 10640   0.200E-01 0.212E-01
CGA:  38    -0.128296355612E+04   -0.20718E-02   -0.25977E-02 10640   0.171E-01 0.182E-01
CGA:  39    -0.128296501919E+04   -0.14631E-02   -0.20592E-02 10640   0.151E-01 0.160E-01
CGA:  40    -0.128296612716E+04   -0.11080E-02   -0.17110E-02 10640   0.135E-01 0.142E-01
CGA:  41    -0.128296697162E+04   -0.84446E-03   -0.14419E-02 10640   0.122E-01 0.128E-01
CGA:  42    -0.128296762520E+04   -0.65357E-03   -0.12335E-02 10640   0.111E-01 0.116E-01
CGA:  43    -0.128296813763E+04   -0.51244E-03   -0.10686E-02 10640   0.102E-01 0.106E-01
CGA:  44    -0.128296854422E+04   -0.40659E-03   -0.93570E-03 10640   0.941E-02 0.977E-02
CGA:  45    -0.128296887039E+04   -0.32617E-03   -0.82704E-03 10640   0.873E-02 0.905E-02
CGA:  46    -0.128296913469E+04   -0.26430E-03   -0.73692E-03 10640   0.815E-02 0.842E-02
CGA:  47    -0.128296935085E+04   -0.21615E-03   -0.66128E-03 10640   0.763E-02 0.788E-02
CGA:  48    -0.128296952910E+04   -0.17825E-03   -0.59705E-03 10640   0.718E-02 0.739E-02
CGA:  49    -0.128296967726E+04   -0.14816E-03   -0.54203E-03 10640   0.677E-02 0.697E-02
CGA:  50    -0.128296980132E+04   -0.12406E-03   -0.49446E-03 10640   0.641E-02 0.659E-02
CGA:  51    -0.128296990590E+04   -0.10458E-03   -0.45302E-03 10640   0.609E-02 0.625E-02
CGA:  52    -0.128296999462E+04   -0.88720E-04   -0.41667E-03 10640   0.580E-02 0.594E-02
CGA:  53    -0.128297007033E+04   -0.75713E-04   -0.38458E-03 10640   0.554E-02 0.566E-02
CGA:  54    -0.128297013532E+04   -0.64983E-04   -0.35610E-03 10640   0.530E-02 0.541E-02
CGA:  55    -0.128297019140E+04   -0.56079E-04   -0.33069E-03 10640   0.508E-02 0.518E-02
CGA:  56    -0.128297024005E+04   -0.48657E-04   -0.30792E-03 10640   0.488E-02 0.497E-02
CGA:  57    -0.128297028249E+04   -0.42441E-04   -0.28743E-03 10640   0.469E-02 0.478E-02
CGA:  58    -0.128297031971E+04   -0.37217E-04   -0.26892E-03 10640   0.452E-02 0.461E-02
CGA:  59    -0.128297035252E+04   -0.32810E-04   -0.25214E-03 10640   0.437E-02 0.444E-02
CGA:  60    -0.128297038160E+04   -0.29081E-04   -0.23688E-03 10640   0.422E-02 0.429E-02
CGA:  61    -0.128297040752E+04   -0.25919E-04   -0.22296E-03 10640   0.409E-02 0.415E-02
CGA:  62    -0.128297043075E+04   -0.23230E-04   -0.21022E-03 10640   0.397E-02 0.403E-02
CGA:  63    -0.128297045169E+04   -0.20940E-04   -0.19854E-03 10640   0.385E-02 0.391E-02
CGA:  64    -0.128297047068E+04   -0.18986E-04   -0.18780E-03 10640   0.374E-02 0.380E-02
CGA:  65    -0.128297048799E+04   -0.17317E-04   -0.17790E-03 10640   0.364E-02 0.369E-02
CGA:  66    -0.128297050388E+04   -0.15890E-04   -0.16875E-03 10640   0.355E-02 0.359E-02
CGA:  67    -0.128297051854E+04   -0.14656E-04   -0.16028E-03 10640   0.346E-02 0.350E-02
CGA:  68    -0.128297053215E+04   -0.13613E-04   -0.15243E-03 10640   0.338E-02 0.342E-02
CGA:  69    -0.128297054487E+04   -0.12715E-04   -0.14513E-03 10640   0.330E-02 0.334E-02
CGA:  70    -0.128297055680E+04   -0.11928E-04   -0.13832E-03 10640   0.323E-02 0.326E-02
CGA:  71    -0.128297056807E+04   -0.11278E-04   -0.13199E-03 10640   0.316E-02 0.319E-02
CGA:  72    -0.128297057881E+04   -0.10739E-04   -0.12608E-03 10640   0.309E-02 0.313E-02
CGA:  73    -0.128297058909E+04   -0.10278E-04   -0.12055E-03 10640   0.303E-02 0.306E-02
CGA:  74    -0.128297059897E+04   -0.98833E-05   -0.11537E-03 10640   0.297E-02 0.300E-02
CGA:  75    -0.128297060852E+04   -0.95443E-05   -0.11050E-03 10640   0.292E-02 0.295E-02
CGA:  76    -0.128297061777E+04   -0.92533E-05   -0.10593E-03 10640   0.287E-02 0.289E-02
CGA:  77    -0.128297062677E+04   -0.90026E-05   -0.10162E-03 10640   0.282E-02 0.284E-02
CGA:  78    -0.128297063556E+04   -0.87881E-05   -0.97569E-04 10640   0.277E-02 0.279E-02
CGA:  79    -0.128297064417E+04   -0.86042E-05   -0.93743E-04 10640   0.273E-02 0.275E-02
CGA:  80    -0.128297065261E+04   -0.84452E-05   -0.90128E-04 10640   0.268E-02 0.270E-02
CGA:  81    -0.128297066092E+04   -0.83084E-05   -0.86710E-04 10640   0.264E-02 0.266E-02
CGA:  82    -0.128297066911E+04   -0.81893E-05   -0.83473E-04 10640   0.260E-02 0.262E-02
CGA:  83    -0.128297067719E+04   -0.80853E-05   -0.80406E-04 10640   0.257E-02 0.259E-02
CGA:  84    -0.128297068519E+04   -0.79941E-05   -0.77496E-04 10640   0.253E-02 0.255E-02
CGA:  85    -0.128297069310E+04   -0.79142E-05   -0.74733E-04 10640   0.250E-02 0.251E-02
CGA:  86    -0.128297070094E+04   -0.78414E-05   -0.72106E-04 10640   0.247E-02 0.248E-02
CGA:  87    -0.128297070872E+04   -0.77762E-05   -0.69606E-04 10640   0.244E-02 0.245E-02
CGA:  88    -0.128297071644E+04   -0.77159E-05   -0.67226E-04 10640   0.241E-02 0.242E-02
CGA:  89    -0.128297072410E+04   -0.76592E-05   -0.64958E-04 10640   0.238E-02 0.239E-02
CGA:  90    -0.128297073170E+04   -0.76063E-05   -0.62795E-04 10640   0.235E-02 0.236E-02
CGA:  91    -0.128297073926E+04   -0.75564E-05   -0.60729E-04 10640   0.232E-02 0.234E-02
CGA:  92    -0.128297074676E+04   -0.75067E-05   -0.58755E-04 10640   0.230E-02 0.231E-02
CGA:  93    -0.128297075422E+04   -0.74577E-05   -0.56868E-04 10640   0.227E-02 0.229E-02
CGA:  94    -0.128297076163E+04   -0.74086E-05   -0.55063E-04 10640   0.225E-02 0.226E-02
CGA:  95    -0.128297076899E+04   -0.73600E-05   -0.53335E-04 10640   0.223E-02 0.224E-02
CGA:  96    -0.128297077630E+04   -0.73105E-05   -0.51679E-04 10640   0.221E-02 0.222E-02
CGA:  97    -0.128297078356E+04   -0.72617E-05   -0.50091E-04 10640   0.219E-02 0.220E-02
CGA:  98    -0.128297079077E+04   -0.72112E-05   -0.48569E-04 10640   0.217E-02 0.218E-02
CGA:  99    -0.128297079793E+04   -0.71599E-05   -0.47107E-04 10640   0.215E-02 0.216E-02
CGA: 100    -0.128297080504E+04   -0.71071E-05   -0.45704E-04 10640   0.213E-02 0.214E-02
CGA: 101    -0.128297081209E+04   -0.70534E-05   -0.44355E-04 10640   0.211E-02 0.212E-02
CGA: 102    -0.128297081909E+04   -0.69972E-05   -0.43058E-04 10640   0.209E-02 0.210E-02
CGA: 103    -0.128297082603E+04   -0.69406E-05   -0.41811E-04 10640   0.208E-02 0.208E-02
CGA: 104    -0.128297083291E+04   -0.68827E-05   -0.40610E-04 10640   0.206E-02 0.207E-02
CGA: 105    -0.128297083974E+04   -0.68227E-05   -0.39454E-04 10640   0.204E-02 0.205E-02
CGA: 106    -0.128297084650E+04   -0.67618E-05   -0.38340E-04 10640   0.203E-02 0.204E-02
CGA: 107    -0.128297085320E+04   -0.66994E-05   -0.37267E-04 10640   0.201E-02 0.202E-02
CGA: 108    -0.128297085984E+04   -0.66364E-05   -0.36233E-04 10640   0.200E-02 0.201E-02
CGA: 109    -0.128297086641E+04   -0.65717E-05   -0.35234E-04 10640   0.199E-02 0.199E-02
CGA: 110    -0.128297087291E+04   -0.65061E-05   -0.34271E-04 10640   0.197E-02 0.198E-02
CGA: 111    -0.128297087935E+04   -0.64391E-05   -0.33341E-04 10640   0.196E-02 0.197E-02
CGA: 112    -0.128297088572E+04   -0.63715E-05   -0.32443E-04 10640   0.195E-02 0.195E-02
CGA: 113    -0.128297089203E+04   -0.63038E-05   -0.31575E-04 10640   0.194E-02 0.194E-02
CGA: 114    -0.128297089826E+04   -0.62336E-05   -0.30737E-04 10640   0.192E-02 0.193E-02
CGA: 115    -0.128297090443E+04   -0.61642E-05   -0.29926E-04 10640   0.191E-02 0.192E-02
CGA: 116    -0.128297091052E+04   -0.60935E-05   -0.29142E-04 10640   0.190E-02 0.191E-02
CGA: 117    -0.128297091654E+04   -0.60222E-05   -0.28383E-04 10640   0.189E-02 0.190E-02
CGA: 118    -0.128297092249E+04   -0.59503E-05   -0.27649E-04 10640   0.188E-02 0.189E-02
CGA: 119    -0.128297092837E+04   -0.58783E-05   -0.26939E-04 10640   0.187E-02 0.188E-02
CGA: 120    -0.128297093418E+04   -0.58067E-05   -0.26251E-04 10640   0.186E-02 0.187E-02
CGA: 121    -0.128297093991E+04   -0.57331E-05   -0.25584E-04 10640   0.185E-02 0.186E-02
CGA: 122    -0.128297094557E+04   -0.56607E-05   -0.24938E-04 10640   0.184E-02 0.185E-02
CGA: 123    -0.128297095116E+04   -0.55876E-05   -0.24312E-04 10640   0.183E-02 0.184E-02
CGA: 124    -0.128297095667E+04   -0.55151E-05   -0.23705E-04 10640   0.183E-02 0.183E-02
CGA: 125    -0.128297096211E+04   -0.54414E-05   -0.23116E-04 10640   0.182E-02 0.182E-02
CGA: 126    -0.128297096748E+04   -0.53688E-05   -0.22545E-04 10640   0.181E-02 0.181E-02
CGA: 127    -0.128297097278E+04   -0.52954E-05   -0.21992E-04 10640   0.180E-02 0.180E-02
CGA: 128    -0.128297097800E+04   -0.52225E-05   -0.21454E-04 10640   0.179E-02 0.180E-02
CGA: 129    -0.128297098315E+04   -0.51511E-05   -0.20932E-04 10640   0.179E-02 0.179E-02
CGA: 130    -0.128297098823E+04   -0.50778E-05   -0.20426E-04 10640   0.178E-02 0.178E-02
CGA: 131    -0.128297099324E+04   -0.50057E-05   -0.19934E-04 10640   0.177E-02 0.177E-02
CGA: 132    -0.128297099817E+04   -0.49343E-05   -0.19456E-04 10640   0.176E-02 0.177E-02
CGA: 133    -0.128297100303E+04   -0.48623E-05   -0.18992E-04 10640   0.176E-02 0.176E-02
CGA: 134    -0.128297100782E+04   -0.47917E-05   -0.18540E-04 10640   0.175E-02 0.175E-02
CGA: 135    -0.128297101255E+04   -0.47215E-05   -0.18102E-04 10640   0.174E-02 0.175E-02
CGA: 136    -0.128297101720E+04   -0.46510E-05   -0.17676E-04 10640   0.174E-02 0.174E-02
CGA: 137    -0.128297102178E+04   -0.45819E-05   -0.17261E-04 10640   0.173E-02 0.173E-02
CGA: 138    -0.128297102629E+04   -0.45120E-05   -0.16858E-04 10640   0.173E-02 0.173E-02
CGA: 139    -0.128297103073E+04   -0.44435E-05   -0.16466E-04 10640   0.172E-02 0.172E-02
CGA: 140    -0.128297103511E+04   -0.43764E-05   -0.16085E-04 10640   0.171E-02 0.172E-02
CGA: 141    -0.128297103942E+04   -0.43081E-05   -0.15714E-04 10640   0.171E-02 0.171E-02
CGA: 142    -0.128297104366E+04   -0.42417E-05   -0.15352E-04 10640   0.170E-02 0.171E-02
CGA: 143    -0.128297104784E+04   -0.41761E-05   -0.15001E-04 10640   0.170E-02 0.170E-02
CGA: 144    -0.128297105195E+04   -0.41097E-05   -0.14658E-04 10640   0.169E-02 0.170E-02
CGA: 145    -0.128297105599E+04   -0.40447E-05   -0.14325E-04 10640   0.169E-02 0.169E-02
CGA: 146    -0.128297105997E+04   -0.39810E-05   -0.14001E-04 10640   0.168E-02 0.169E-02
CGA: 147    -0.128297106389E+04   -0.39174E-05   -0.13684E-04 10640   0.168E-02 0.168E-02
CGA: 148    -0.128297106774E+04   -0.38554E-05   -0.13377E-04 10640   0.167E-02 0.168E-02
CGA: 149    -0.128297107154E+04   -0.37916E-05   -0.13076E-04 10640   0.167E-02 0.167E-02
CGA: 150    -0.128297107527E+04   -0.37314E-05   -0.12784E-04 10640   0.166E-02 0.167E-02
CGA: 151    -0.128297107894E+04   -0.36701E-05   -0.12499E-04 10640   0.166E-02 0.166E-02
CGA: 152    -0.128297108255E+04   -0.36107E-05   -0.12222E-04 10640   0.166E-02 0.166E-02
CGA: 153    -0.128297108610E+04   -0.35516E-05   -0.11951E-04 10640   0.165E-02 0.165E-02
CGA: 154    -0.128297108959E+04   -0.34922E-05   -0.11687E-04 10640   0.165E-02 0.165E-02
CGA: 155    -0.128297109303E+04   -0.34342E-05   -0.11430E-04 10640   0.164E-02 0.165E-02
CGA: 156    -0.128297109640E+04   -0.33781E-05   -0.11179E-04 10640   0.164E-02 0.164E-02
CGA: 157    -0.128297109973E+04   -0.33212E-05   -0.10934E-04 10640   0.164E-02 0.164E-02
CGA: 158    -0.128297110299E+04   -0.32660E-05   -0.10695E-04 10640   0.163E-02 0.163E-02
CGA: 159    -0.128297110620E+04   -0.32111E-05   -0.10462E-04 10640   0.163E-02 0.163E-02
CGA: 160    -0.128297110936E+04   -0.31576E-05   -0.10235E-04 10640   0.163E-02 0.163E-02
CGA: 161    -0.128297111246E+04   -0.31036E-05   -0.10013E-04 10640   0.162E-02 0.162E-02
   1 F= -.12829711E+04 E0= -.12829711E+04  d E =-.128297E+04  mag=    47.0000
       N       E                     dE             d eps       ncg     rms          ort
SDA:   1    -0.128297248594E+04   -0.13766E-02    0.00000E+00 10640   0.515E-02 0.000E+00
CGA:   2    -0.128297289083E+04   -0.40489E-03   -0.24688E-03 10640   0.343E-02 0.417E-02
CGA:   3    -0.128297307267E+04   -0.18184E-03   -0.11443E-03 10640   0.285E-02 0.314E-02
CGA:   4    -0.128297319995E+04   -0.12728E-03   -0.83472E-04 10640   0.252E-02 0.269E-02
CGA:   5    -0.128297329996E+04   -0.10001E-03   -0.68084E-04 10640   0.229E-02 0.241E-02
CGA:   6    -0.128297338327E+04   -0.83308E-04   -0.58647E-04 10640   0.212E-02 0.221E-02
CGA:   7    -0.128297345518E+04   -0.71911E-04   -0.52173E-04 10640   0.199E-02 0.205E-02
CGA:   8    -0.128297351873E+04   -0.63553E-04   -0.47389E-04 10640   0.188E-02 0.193E-02
CGA:   9    -0.128297357585E+04   -0.57118E-04   -0.43671E-04 10640   0.179E-02 0.183E-02
CGA:  10    -0.128297362783E+04   -0.51980E-04   -0.40672E-04 10640   0.171E-02 0.175E-02
CGA:  11    -0.128297367560E+04   -0.47767E-04   -0.38184E-04 10640   0.165E-02 0.168E-02
CGA:  12    -0.128297371983E+04   -0.44236E-04   -0.36073E-04 10640   0.159E-02 0.161E-02
CGA:  13    -0.128297376107E+04   -0.41232E-04   -0.34253E-04 10640   0.153E-02 0.156E-02
CGA:  14    -0.128297379971E+04   -0.38643E-04   -0.32663E-04 10640   0.148E-02 0.151E-02
CGA:  15    -0.128297383609E+04   -0.36384E-04   -0.31255E-04 10640   0.144E-02 0.146E-02
CGA:  16    -0.128297387050E+04   -0.34407E-04   -0.30003E-04 10640   0.140E-02 0.142E-02
CGA:  17    -0.128297390316E+04   -0.32658E-04   -0.28879E-04 10640   0.136E-02 0.138E-02
CGA:  18    -0.128297393426E+04   -0.31104E-04   -0.27864E-04 10640   0.133E-02 0.135E-02
CGA:  19    -0.128297396398E+04   -0.29718E-04   -0.26944E-04 10640   0.130E-02 0.131E-02
CGA:  20    -0.128297399246E+04   -0.28480E-04   -0.26107E-04 10640   0.127E-02 0.128E-02
CGA:  21    -0.128297401983E+04   -0.27367E-04   -0.25343E-04 10640   0.124E-02 0.126E-02
CGA:  22    -0.128297404620E+04   -0.26370E-04   -0.24645E-04 10640   0.122E-02 0.123E-02
CGA:  23    -0.128297407167E+04   -0.25472E-04   -0.24004E-04 10640   0.120E-02 0.121E-02
CGA:  24    -0.128297409633E+04   -0.24662E-04   -0.23416E-04 10640   0.117E-02 0.118E-02
CGA:  25    -0.128297412026E+04   -0.23933E-04   -0.22876E-04 10640   0.115E-02 0.116E-02
CGA:  26    -0.128297414354E+04   -0.23276E-04   -0.22380E-04 10640   0.113E-02 0.114E-02
CGA:  27    -0.128297416622E+04   -0.22685E-04   -0.21922E-04 10640   0.111E-02 0.112E-02
CGA:  28    -0.128297418837E+04   -0.22150E-04   -0.21501E-04 10640   0.110E-02 0.111E-02
CGA:  29    -0.128297421005E+04   -0.21671E-04   -0.21114E-04 10640   0.108E-02 0.109E-02
CGA:  30    -0.128297423129E+04   -0.21242E-04   -0.20758E-04 10640   0.106E-02 0.107E-02
CGA:  31    -0.128297425214E+04   -0.20857E-04   -0.20430E-04 10640   0.105E-02 0.106E-02
CGA:  32    -0.128297427266E+04   -0.20514E-04   -0.20129E-04 10640   0.104E-02 0.104E-02
CGA:  33    -0.128297429287E+04   -0.20209E-04   -0.19854E-04 10640   0.102E-02 0.103E-02
CGA:  34    -0.128297431280E+04   -0.19937E-04   -0.19601E-04 10640   0.101E-02 0.102E-02
CGA:  35    -0.128297433250E+04   -0.19700E-04   -0.19370E-04 10640   0.997E-03 0.100E-02
CGA:  36    -0.128297435200E+04   -0.19494E-04   -0.19160E-04 10640   0.986E-03 0.991E-03
CGA:  37    -0.128297437131E+04   -0.19311E-04   -0.18968E-04 10640   0.975E-03 0.980E-03
CGA:  38    -0.128297439047E+04   -0.19159E-04   -0.18796E-04 10640   0.964E-03 0.969E-03
CGA:  39    -0.128297440950E+04   -0.19030E-04   -0.18640E-04 10640   0.954E-03 0.959E-03
CGA:  40    -0.128297442842E+04   -0.18924E-04   -0.18500E-04 10640   0.944E-03 0.949E-03
CGA:  41    -0.128297444726E+04   -0.18840E-04   -0.18376E-04 10640   0.935E-03 0.939E-03
CGA:  42    -0.128297446604E+04   -0.18774E-04   -0.18267E-04 10640   0.926E-03 0.930E-03
CGA:  43    -0.128297448477E+04   -0.18733E-04   -0.18173E-04 10640   0.917E-03 0.921E-03
CGA:  44    -0.128297450348E+04   -0.18706E-04   -0.18091E-04 10640   0.909E-03 0.913E-03
CGA:  45    -0.128297452217E+04   -0.18698E-04   -0.18023E-04 10640   0.901E-03 0.905E-03
CGA:  46    -0.128297454088E+04   -0.18707E-04   -0.17967E-04 10640   0.893E-03 0.897E-03
CGA:  47    -0.128297455961E+04   -0.18730E-04   -0.17922E-04 10640   0.885E-03 0.889E-03
CGA:  48    -0.128297457838E+04   -0.18772E-04   -0.17891E-04 10640   0.878E-03 0.882E-03
CGA:  49    -0.128297459721E+04   -0.18825E-04   -0.17869E-04 10640   0.871E-03 0.874E-03
CGA:  50    -0.128297461610E+04   -0.18896E-04   -0.17860E-04 10640   0.864E-03 0.867E-03
CGA:  51    -0.128297463508E+04   -0.18979E-04   -0.17861E-04 10640   0.857E-03 0.861E-03
CGA:  52    -0.128297465416E+04   -0.19075E-04   -0.17871E-04 10640   0.851E-03 0.854E-03
CGA:  53    -0.128297467334E+04   -0.19184E-04   -0.17892E-04 10640   0.844E-03 0.847E-03
CGA:  54    -0.128297469265E+04   -0.19309E-04   -0.17924E-04 10640   0.838E-03 0.841E-03
CGA:  55    -0.128297471210E+04   -0.19445E-04   -0.17966E-04 10640   0.832E-03 0.835E-03
CGA:  56    -0.128297473169E+04   -0.19592E-04   -0.18016E-04 10640   0.826E-03 0.829E-03
CGA:  57    -0.128297475144E+04   -0.19755E-04   -0.18077E-04 10640   0.820E-03 0.823E-03
CGA:  58    -0.128297477137E+04   -0.19928E-04   -0.18147E-04 10640   0.814E-03 0.817E-03
CGA:  59    -0.128297479149E+04   -0.20116E-04   -0.18227E-04 10640   0.808E-03 0.811E-03
CGA:  60    -0.128297481180E+04   -0.20314E-04   -0.18317E-04 10640   0.803E-03 0.806E-03
CGA:  61    -0.128297483233E+04   -0.20525E-04   -0.18415E-04 10640   0.797E-03 0.800E-03
CGA:  62    -0.128297485308E+04   -0.20750E-04   -0.18524E-04 10640   0.792E-03 0.795E-03
CGA:  63    -0.128297487407E+04   -0.20988E-04   -0.18643E-04 10640   0.786E-03 0.789E-03
CGA:  64    -0.128297489530E+04   -0.21239E-04   -0.18771E-04 10640   0.781E-03 0.784E-03
CGA:  65    -0.128297491681E+04   -0.21502E-04   -0.18908E-04 10640   0.776E-03 0.778E-03
CGA:  66    -0.128297493859E+04   -0.21779E-04   -0.19056E-04 10640   0.770E-03 0.773E-03
CGA:  67    -0.128297496066E+04   -0.22071E-04   -0.19215E-04 10640   0.765E-03 0.768E-03
CGA:  68    -0.128297498303E+04   -0.22377E-04   -0.19383E-04 10640   0.760E-03 0.763E-03
CGA:  69    -0.128297500573E+04   -0.22695E-04   -0.19561E-04 10640   0.755E-03 0.757E-03
CGA:  70    -0.128297502876E+04   -0.23030E-04   -0.19750E-04 10640   0.749E-03 0.752E-03
CGA:  71    -0.128297505214E+04   -0.23378E-04   -0.19950E-04 10640   0.744E-03 0.747E-03
CGA:  72    -0.128297507588E+04   -0.23745E-04   -0.20161E-04 10640   0.739E-03 0.742E-03
CGA:  73    -0.128297510001E+04   -0.24126E-04   -0.20384E-04 10640   0.734E-03 0.737E-03
CGA:  74    -0.128297512453E+04   -0.24526E-04   -0.20619E-04 10640   0.729E-03 0.731E-03
CGA:  75    -0.128297514947E+04   -0.24942E-04   -0.20865E-04 10640   0.723E-03 0.726E-03
CGA:  76    -0.128297517485E+04   -0.25378E-04   -0.21125E-04 10640   0.718E-03 0.721E-03
CGA:  77    -0.128297520068E+04   -0.25829E-04   -0.21396E-04 10640   0.713E-03 0.716E-03
CGA:  78    -0.128297522698E+04   -0.26304E-04   -0.21682E-04 10640   0.708E-03 0.710E-03
CGA:  79    -0.128297525378E+04   -0.26797E-04   -0.21980E-04 10640   0.702E-03 0.705E-03
CGA:  80    -0.128297528109E+04   -0.27313E-04   -0.22295E-04 10640   0.697E-03 0.700E-03
CGA:  81    -0.128297530895E+04   -0.27852E-04   -0.22624E-04 10640   0.692E-03 0.694E-03
CGA:  82    -0.128297533736E+04   -0.28412E-04   -0.22967E-04 10640   0.686E-03 0.689E-03
CGA:  83    -0.128297536636E+04   -0.29002E-04   -0.23330E-04 10640   0.681E-03 0.684E-03
CGA:  84    -0.128297539598E+04   -0.29616E-04   -0.23707E-04 10640   0.675E-03 0.678E-03
CGA:  85    -0.128297542623E+04   -0.30257E-04   -0.24103E-04 10640   0.670E-03 0.672E-03
CGA:  86    -0.128297545716E+04   -0.30929E-04   -0.24518E-04 10640   0.664E-03 0.667E-03
CGA:  87    -0.128297548879E+04   -0.31631E-04   -0.24953E-04 10640   0.658E-03 0.661E-03
CGA:  88    -0.128297552116E+04   -0.32368E-04   -0.25410E-04 10640   0.652E-03 0.655E-03
CGA:  89    -0.128297555430E+04   -0.33137E-04   -0.25886E-04 10640   0.646E-03 0.649E-03
CGA:  90    -0.128297558825E+04   -0.33947E-04   -0.26388E-04 10640   0.640E-03 0.643E-03
CGA:  91    -0.128297562304E+04   -0.34791E-04   -0.26912E-04 10640   0.634E-03 0.637E-03
CGA:  92    -0.128297565872E+04   -0.35683E-04   -0.27465E-04 10640   0.628E-03 0.631E-03
CGA:  93    -0.128297569534E+04   -0.36617E-04   -0.28044E-04 10640   0.622E-03 0.625E-03
CGA:  94    -0.128297573294E+04   -0.37599E-04   -0.28652E-04 10640   0.616E-03 0.619E-03
CGA:  95    -0.128297577157E+04   -0.38633E-04   -0.29291E-04 10640   0.609E-03 0.612E-03
CGA:  96    -0.128297581129E+04   -0.39723E-04   -0.29965E-04 10640   0.602E-03 0.606E-03
CGA:  97    -0.128297585216E+04   -0.40873E-04   -0.30674E-04 10640   0.596E-03 0.599E-03
CGA:  98    -0.128297589425E+04   -0.42084E-04   -0.31420E-04 10640   0.589E-03 0.592E-03
CGA:  99    -0.128297593761E+04   -0.43366E-04   -0.32207E-04 10640   0.582E-03 0.585E-03
CGA: 100    -0.128297598234E+04   -0.44722E-04   -0.33038E-04 10640   0.574E-03 0.578E-03
CGA: 101    -0.128297602850E+04   -0.46160E-04   -0.33918E-04 10640   0.567E-03 0.571E-03
CGA: 102    -0.128297607618E+04   -0.47687E-04   -0.34849E-04 10640   0.559E-03 0.563E-03
CGA: 103    -0.128297612549E+04   -0.49309E-04   -0.35835E-04 10640   0.552E-03 0.556E-03
CGA: 104    -0.128297617652E+04   -0.51030E-04   -0.36878E-04 10640   0.544E-03 0.548E-03
CGA: 105    -0.128297622939E+04   -0.52867E-04   -0.37987E-04 10640   0.536E-03 0.540E-03
CGA: 106    -0.128297628422E+04   -0.54825E-04   -0.39167E-04 10640   0.527E-03 0.531E-03
CGA: 107    -0.128297634114E+04   -0.56927E-04   -0.40427E-04 10640   0.519E-03 0.523E-03
CGA: 108    -0.128297640032E+04   -0.59175E-04   -0.41769E-04 10640   0.510E-03 0.514E-03
CGA: 109    -0.128297646191E+04   -0.61588E-04   -0.43204E-04 10640   0.500E-03 0.505E-03
CGA: 110    -0.128297652610E+04   -0.64192E-04   -0.44745E-04 10640   0.491E-03 0.496E-03
CGA: 111    -0.128297659309E+04   -0.66993E-04   -0.46396E-04 10640   0.481E-03 0.486E-03
CGA: 112    -0.128297666312E+04   -0.70026E-04   -0.48176E-04 10640   0.471E-03 0.476E-03
CGA: 113    -0.128297673643E+04   -0.73315E-04   -0.50095E-04 10640   0.461E-03 0.466E-03
CGA: 114    -0.128297681332E+04   -0.76887E-04   -0.52169E-04 10640   0.450E-03 0.455E-03
CGA: 115    -0.128297689410E+04   -0.80779E-04   -0.54416E-04 10640   0.438E-03 0.444E-03
CGA: 116    -0.128297697914E+04   -0.85041E-04   -0.56865E-04 10640   0.427E-03 0.432E-03
CGA: 117    -0.128297706886E+04   -0.89718E-04   -0.59536E-04 10640   0.414E-03 0.420E-03
CGA: 118    -0.128297716372E+04   -0.94867E-04   -0.62459E-04 10640   0.401E-03 0.408E-03
CGA: 119    -0.128297726428E+04   -0.10056E-03   -0.65673E-04 10640   0.388E-03 0.395E-03
CGA: 120    -0.128297737118E+04   -0.10689E-03   -0.69226E-04 10640   0.374E-03 0.381E-03
CGA: 121    -0.128297748514E+04   -0.11396E-03   -0.73166E-04 10640   0.359E-03 0.367E-03
CGA: 122    -0.128297760702E+04   -0.12188E-03   -0.77556E-04 10640   0.344E-03 0.351E-03
CGA: 123    -0.128297773783E+04   -0.13080E-03   -0.82469E-04 10640   0.328E-03 0.336E-03
CGA: 124    -0.128297787872E+04   -0.14090E-03   -0.87992E-04 10640   0.310E-03 0.319E-03
CGA: 125    -0.128297803109E+04   -0.15237E-03   -0.94236E-04 10640   0.292E-03 0.301E-03
CGA: 126    -0.128297819648E+04   -0.16539E-03   -0.10129E-03 10640   0.273E-03 0.282E-03
CGA: 127    -0.128297837683E+04   -0.18035E-03   -0.10934E-03 10640   0.252E-03 0.262E-03
CGA: 128    -0.128297857396E+04   -0.19713E-03   -0.11835E-03 10640   0.230E-03 0.241E-03
CGA: 129    -0.128297878946E+04   -0.21550E-03   -0.12818E-03 10640   0.207E-03 0.218E-03
CGA: 130    -0.128297902815E+04   -0.23869E-03   -0.14053E-03 10640   0.182E-03 0.194E-03
CGA: 131    -0.128297925663E+04   -0.22849E-03   -0.13560E-03 10640   0.161E-03 0.169E-03
CGA: 132    -0.128297966074E+04   -0.40410E-03   -0.36470E-03 10640   0.611E-03 0.979E-04
CGA: 133    -0.128297967623E+04   -0.15490E-04   -0.61490E-04 10640   0.124E-03 0.142E-03
CGA: 134    -0.128297971026E+04   -0.34038E-04   -0.42455E-04 10640   0.253E-03 0.619E-04
CGA: 135    -0.128297999656E+04   -0.28629E-03   -0.69218E-04 10640   0.925E-02-0.431E-03
CGA: 136    -0.128298062447E+04   -0.62791E-03   -0.10825E-02 10640   0.186E-02 0.672E-03
CGA: 137    -0.128298050258E+04    0.12189E-03   -0.33986E-03 10640   0.176E-02 0.762E-04
CGA: 138    -0.128297773673E+04    0.27659E-02   -0.16372E-03 10640   0.156E-01 0.198E-02
CGA: 139    -0.128297224605E+04    0.54907E-02   -0.30711E-02 10640   0.357E-01 0.748E-02
CGA: 140    -0.128285510348E+04    0.11714E+00   -0.40413E-02 10640   0.512E+00 0.923E-01
CGA: 141    -0.128268131991E+04    0.17378E+00   -0.99319E-01 10640   0.119E+01 0.266E+00
CGA: 142    -0.128247158126E+04    0.20974E+00   -0.27424E+00 10640   0.184E+01 0.498E+00
CGA: 143    -0.128118641673E+04    0.12852E+01   -0.39034E+00 10640   0.537E+01 0.214E+01
CGA: 144    -0.128172084033E+04   -0.53442E+00   -0.15021E+01 10640   0.394E+01 0.176E+01
CGA: 145    -0.128175133507E+04   -0.30495E-01   -0.11924E+01 10640   0.312E+01 0.171E+01
CGA: 146    -0.128112338086E+04    0.62795E+00   -0.74675E+00 10640   0.497E+01 0.274E+01
CGA: 147    -0.128204652018E+04   -0.92314E+00   -0.14869E+01 10640   0.195E+01 0.139E+01
CGA: 148    -0.128256364614E+04   -0.51713E+00   -0.70955E+00 10640   0.809E+00 0.304E+00
CGA: 149    -0.128272234100E+04   -0.15869E+00   -0.21289E+00 10640   0.355E+00 0.136E+00
CGA: 150    -0.128284501434E+04   -0.12267E+00   -0.12603E+00 10640   0.233E+00 0.675E-02
CGA: 151    -0.128290525267E+04   -0.60238E-01   -0.60580E-01 10640   0.845E-01 0.548E-02
CGA: 152    -0.128292441193E+04   -0.19159E-01   -0.20404E-01 10640   0.432E-01 0.169E-02
CGA: 153    -0.128293985546E+04   -0.15444E-01   -0.15786E-01 10640   0.462E-01-0.240E-03
CGA: 154    -0.128295136444E+04   -0.11509E-01   -0.11317E-01 10640   0.203E-01 0.687E-03
CGA: 155    -0.128295839066E+04   -0.70262E-02   -0.69955E-02 10640   0.215E-01 0.587E-03
CGA: 156    -0.128296676266E+04   -0.83720E-02   -0.81747E-02 10640   0.124E-01-0.143E-02
CGA: 157    -0.128296901860E+04   -0.22559E-02   -0.22284E-02 10640   0.688E-02 0.140E-02
CGA: 158    -0.128297165564E+04   -0.26370E-02   -0.25701E-02 10640   0.905E-02 0.357E-04
CGA: 159    -0.128297295393E+04   -0.12983E-02   -0.11587E-02 10640   0.512E-02 0.101E-02
CGA: 160    -0.128297368726E+04   -0.73333E-03   -0.70995E-03 10640   0.439E-02 0.480E-03
CGA: 161    -0.128297441227E+04   -0.72500E-03   -0.73028E-03 10640   0.543E-02 0.620E-03
CGA: 162    -0.128297506447E+04   -0.65220E-03   -0.65389E-03 10640   0.415E-02 0.813E-03
CGA: 163    -0.128297554126E+04   -0.47679E-03   -0.45941E-03 10640   0.339E-02 0.433E-03
CGA: 164    -0.128297597281E+04   -0.43155E-03   -0.39541E-03 10640   0.374E-02 0.262E-03
CGA: 165    -0.128297635483E+04   -0.38202E-03   -0.35591E-03 10640   0.368E-02 0.384E-03
CGA: 166    -0.128297663759E+04   -0.28276E-03   -0.29336E-03 10640   0.309E-02 0.485E-03
CGA: 167    -0.128297683265E+04   -0.19506E-03   -0.23467E-03 10640   0.271E-02 0.482E-03
CGA: 168    -0.128297699557E+04   -0.16292E-03   -0.21099E-03 10640   0.269E-02 0.470E-03
CGA: 169    -0.128297716781E+04   -0.17224E-03   -0.21035E-03 10640   0.273E-02 0.437E-03
CGA: 170    -0.128297735075E+04   -0.18294E-03   -0.19643E-03 10640   0.251E-02 0.321E-03
CGA: 171    -0.128297752165E+04   -0.17090E-03   -0.15949E-03 10640   0.216E-02 0.147E-03
CGA: 172    -0.128297767127E+04   -0.14962E-03   -0.12561E-03 10640   0.199E-02 0.229E-04
CGA: 173    -0.128297780553E+04   -0.13426E-03   -0.10968E-03 10640   0.206E-02-0.847E-05
CGA: 174    -0.128297792844E+04   -0.12291E-03   -0.10623E-03 10640   0.217E-02 0.360E-04
CGA: 175    -0.128297803659E+04   -0.10814E-03   -0.10450E-03 10640   0.211E-02 0.114E-03
CGA: 176    -0.128297812618E+04   -0.89589E-04   -0.97825E-04 10640   0.194E-02 0.170E-03
SDA: 177    -0.128297820312E+04   -0.76949E-04   -0.90399E-04 10640   0.183E-02 0.185E-03
CGA: 178    -0.128297939197E+04   -0.11888E-02   -0.13681E-02 10640   0.642E-02-0.371E-03
CGA: 179    -0.128298014591E+04   -0.75393E-03   -0.73669E-03 10640   0.248E-02-0.879E-04
CGA: 180    -0.128298039033E+04   -0.24442E-03   -0.23828E-03 10640   0.877E-03-0.277E-04
CGA: 181    -0.128298056374E+04   -0.17341E-03   -0.17154E-03 10640   0.922E-03-0.120E-03
CGA: 182    -0.128298067778E+04   -0.11404E-03   -0.10645E-03 10640   0.478E-03-0.891E-04
CGA: 183    -0.128298072708E+04   -0.49296E-04   -0.49552E-04 10640   0.307E-03 0.576E-05
CGA: 184    -0.128298076701E+04   -0.39930E-04   -0.42889E-04 10640   0.253E-03 0.469E-04
CGA: 185    -0.128298080403E+04   -0.37025E-04   -0.38820E-04 10640   0.140E-03 0.283E-04
CGA: 186    -0.128298083276E+04   -0.28726E-04   -0.28072E-04 10640   0.116E-03-0.378E-04
CGA: 187    -0.128298084932E+04   -0.16564E-04   -0.22588E-04 10640   0.176E-03-0.856E-04
CGA: 188    -0.128298087223E+04   -0.22909E-04   -0.24956E-04 10640   0.307E-04 0.363E-04
CGA: 189    -0.128298088101E+04   -0.87843E-05   -0.84936E-05 10640   0.147E-04 0.891E-05
CGA: 190    -0.128298087992E+04    0.10897E-05   -0.12241E-04 10640   0.665E-04-0.296E-04
CGA: 191    -0.128298089110E+04   -0.11172E-04   -0.11307E-04 10640   0.100E-04 0.293E-05
CGA: 192    -0.128298089101E+04    0.84292E-07   -0.88542E-06 10640   0.497E-05 0.726E-05
   2 F= -.12829809E+04 E0= -.12829809E+04  d E =-.977855E-02  mag=    47.0000
       N       E                     dE             d eps       ncg     rms          ort
SDA:   1    -0.128296517574E+04    0.15715E-01    0.00000E+00 10640   0.833E-01 0.000E+00
CGA:   2    -0.128298135610E+04   -0.16180E-01   -0.16162E-01 10640   0.311E-01-0.139E-02
CGA:   3    -0.128298873061E+04   -0.73745E-02   -0.73310E-02 10640   0.788E-02 0.129E-02
CGA:   4    -0.128298995100E+04   -0.12204E-02   -0.12504E-02 10640   0.111E-02 0.541E-03
CGA:   5    -0.128299014325E+04   -0.19226E-03   -0.20189E-03 10640   0.273E-03 0.271E-03
CGA:   6    -0.128299020960E+04   -0.66350E-04   -0.66751E-04 10640   0.901E-04 0.597E-04
CGA:   7    -0.128299023071E+04   -0.21110E-04   -0.21323E-04 10640   0.236E-04 0.243E-04
CGA:   8    -0.128299024372E+04   -0.13011E-04    0.41805E-04 10640   0.864E-05 0.934E-05
CGA:   9    -0.128299024355E+04    0.17246E-06   -0.96741E-06 10640   0.577E-05 0.933E-05
   3 F= -.12829902E+04 E0= -.12829902E+04  d E =-.935254E-02  mag=    47.0000
       N       E                     dE             d eps       ncg     rms          ort
SDA:   1    -0.127147494322E+04    0.11515E+02    0.00000E+00 10640   0.369E+02 0.000E+00
CGA:   2    -0.127865466051E+04   -0.71797E+01   -0.71798E+01 10640   0.137E+02-0.120E-01
CGA:   3    -0.128206300102E+04   -0.34083E+01   -0.34046E+01 10640   0.387E+01 0.495E-01
CGA:   4    -0.128265689850E+04   -0.59390E+00   -0.59461E+00 10640   0.594E+00 0.210E-01
CGA:   5    -0.128277317352E+04   -0.11628E+00   -0.11623E+00 10640   0.173E+00 0.912E-02
CGA:   6    -0.128280603618E+04   -0.32863E-01   -0.32864E-01 10640   0.549E-01 0.611E-03
CGA:   7    -0.128281754425E+04   -0.11508E-01   -0.11518E-01 10640   0.143E-01-0.401E-03
CGA:   8    -0.128282119496E+04   -0.36507E-02   -0.37677E-02 10640   0.766E-02-0.153E-02
CGA:   9    -0.128282244904E+04   -0.12541E-02   -0.12632E-02 10640   0.282E-02 0.957E-03
CGA:  10    -0.128282301961E+04   -0.57058E-03   -0.58287E-03 10640   0.962E-03 0.122E-02
CGA:  11    -0.128282322116E+04   -0.20155E-03   -0.22359E-03 10640   0.569E-03 0.709E-03
CGA:  12    -0.128282331310E+04   -0.91934E-04   -0.97700E-04 10640   0.377E-03 0.284E-03
CGA:  13    -0.128282340794E+04   -0.94846E-04   -0.10015E-03 10640   0.242E-03 0.389E-03
CGA:  14    -0.128282343616E+04   -0.28221E-04   -0.36100E-04 10640   0.189E-03 0.191E-03
CGA:  15    -0.128282344905E+04   -0.12890E-04   -0.23733E-04 10640   0.168E-03 0.173E-03
CGA:  16    -0.128282346407E+04   -0.15014E-04   -0.22867E-04 10640   0.154E-03 0.160E-03
CGA:  17    -0.128282347495E+04   -0.10879E-04   -0.19293E-04 10640   0.142E-03 0.148E-03
CGA:  18    -0.128282348489E+04   -0.99388E-05   -0.17630E-04 10640   0.133E-03 0.137E-03
CGA:  19    -0.128282349321E+04   -0.83222E-05   -0.15798E-04 10640   0.125E-03 0.129E-03
CGA:  20    -0.128282350056E+04   -0.73490E-05   -0.14430E-04 10640   0.118E-03 0.121E-03
CGA:  21    -0.128282350705E+04   -0.64893E-05   -0.13227E-04 10640   0.112E-03 0.115E-03
CGA:  22    -0.128282351287E+04   -0.58240E-05   -0.12212E-04 10640   0.106E-03 0.109E-03
CGA:  23    -0.128282351815E+04   -0.52805E-05   -0.11333E-04 10640   0.101E-03 0.104E-03
CGA:  24    -0.128282352299E+04   -0.48389E-05   -0.10566E-04 10640   0.967E-04 0.989E-04
   4 F= -.12828235E+04 E0= -.12828235E+04  d E =0.166721E+00  mag=    47.0000
       N       E                     dE             d eps       ncg     rms          ort
SDA:   1    -0.127797710615E+04    0.48464E+01    0.00000E+00 10640   0.164E+02 0.000E+00
CGA:   2    -0.128115809305E+04   -0.31810E+01   -0.31802E+01 10640   0.598E+01 0.257E-01
CGA:   3    -0.128267944173E+04   -0.15213E+01   -0.15223E+01 10640   0.164E+01-0.138E-01
CGA:   4    -0.128293785107E+04   -0.25841E+00   -0.25837E+00 10640   0.237E+00-0.819E-02
CGA:   5    -0.128298925798E+04   -0.51407E-01   -0.51627E-01 10640   0.611E-01-0.390E-02
CGA:   6    -0.128300210750E+04   -0.12850E-01   -0.12945E-01 10640   0.215E-01-0.187E-02
CGA:   7    -0.128300552206E+04   -0.34146E-02   -0.34196E-02 10640   0.544E-02 0.115E-02
CGA:   8    -0.128300681392E+04   -0.12919E-02   -0.12714E-02 10640   0.186E-02 0.386E-03
CGA:   9    -0.128300409735E+04    0.27166E-02   -0.15415E-02 10640   0.225E-01-0.519E-02
CGA:  10    -0.128300713764E+04   -0.30403E-02   -0.31762E-02 10640   0.434E-02 0.889E-03
CGA:  11    -0.128300824491E+04   -0.11073E-02   -0.10438E-02 10640   0.187E-02-0.884E-03
CGA:  12    -0.128300850526E+04   -0.26035E-03   -0.26813E-03 10640   0.518E-03 0.685E-04
CGA:  13    -0.128300862084E+04   -0.11558E-03   -0.11929E-03 10640   0.189E-03 0.523E-04
CGA:  14    -0.128300682900E+04    0.17918E-02   -0.96975E-03 10640   0.128E-01-0.136E-02
CGA:  15    -0.128300810766E+04   -0.12787E-02   -0.15034E-02 10640   0.192E-02 0.758E-03
CGA:  16    -0.128300874521E+04   -0.63755E-03   -0.59381E-03 10640   0.415E-03-0.202E-03
CGA:  17    -0.128300883084E+04   -0.85632E-04   -0.75187E-04 10640   0.232E-03-0.348E-04
CGA:  18    -0.128300887544E+04   -0.44595E-04   -0.49843E-04 10640   0.721E-04 0.216E-04
CGA:  19    -0.128300888881E+04   -0.13371E-04   -0.17587E-04 10640   0.329E-04 0.172E-04
CGA:  20    -0.128300889333E+04   -0.45209E-05   -0.71439E-05 10640   0.830E-05 0.932E-05
   5 F= -.12830089E+04 E0= -.12830089E+04  d E =-.185370E+00  mag=    47.0000
       N       E                     dE             d eps       ncg     rms          ort
SDA:   1    -0.128297365848E+04    0.35230E-01    0.00000E+00 10640   0.973E-01 0.000E+00
CGA:   2    -0.128299490901E+04   -0.21251E-01   -0.21295E-01 10640   0.425E-01 0.229E-03
CGA:   3    -0.128300481307E+04   -0.99041E-02   -0.98315E-02 10640   0.108E-01-0.356E-03
CGA:   4    -0.128300651977E+04   -0.17067E-02   -0.16321E-02 10640   0.195E-02-0.270E-03
CGA:   5    -0.128300686172E+04   -0.34195E-03   -0.34547E-03 10640   0.521E-03 0.176E-04
CGA:   6    -0.128300699233E+04   -0.13061E-03   -0.11698E-03 10640   0.207E-03-0.774E-04
CGA:   7    -0.128300701204E+04   -0.19711E-04   -0.27064E-04 10640   0.441E-04 0.315E-04
CGA:   8    -0.128300701864E+04   -0.65976E-05   -0.90068E-05 10640   0.161E-04 0.121E-04
CGA:   9    -0.128300702442E+04   -0.57814E-05   -0.12147E-04 10640   0.916E-04-0.282E-04
   6 F= -.12830070E+04 E0= -.12830070E+04  d E =0.186891E-02  mag=    47.0000
       N       E                     dE             d eps       ncg     rms          ort
SDA:   1    -0.128154025757E+04    0.14668E+01    0.00000E+00 10640   0.379E+01 0.000E+00
CGA:   2    -0.128252938742E+04   -0.98913E+00   -0.98923E+00 10640   0.179E+01 0.517E-03
CGA:   3    -0.128291210148E+04   -0.38271E+00   -0.38253E+00 10640   0.312E+00-0.105E-02
CGA:   4    -0.128296438688E+04   -0.52285E-01   -0.52076E-01 10640   0.643E-01-0.980E-03
CGA:   5    -0.128297667068E+04   -0.12284E-01   -0.12372E-01 10640   0.167E-01 0.645E-03
CGA:   6    -0.128298014666E+04   -0.34760E-02   -0.33749E-02 10640   0.639E-02-0.731E-03
CGA:   7    -0.128298121427E+04   -0.10676E-02   -0.11021E-02 10640   0.149E-02 0.242E-03
CGA:   8    -0.128298164790E+04   -0.43363E-03   -0.43119E-03 10640   0.695E-03-0.561E-04
CGA:   9    -0.128298187878E+04   -0.23088E-03   -0.23829E-03 10640   0.667E-03-0.199E-03
CGA:  10    -0.128298198518E+04   -0.10640E-03   -0.94805E-04 10640   0.294E-03-0.944E-04
CGA:  11    -0.128298207230E+04   -0.87111E-04   -0.11027E-03 10640   0.329E-03-0.191E-03
CGA:  12    -0.128298211815E+04   -0.45857E-04   -0.55417E-04 10640   0.780E-04 0.629E-04
CGA:  13    -0.128298213554E+04   -0.17386E-04   -0.20110E-04 10640   0.452E-04 0.280E-04
CGA:  14    -0.128298216261E+04   -0.27073E-04   -0.26330E-04 10640   0.515E-04 0.586E-05
CGA:  15    -0.128298216542E+04   -0.28040E-05   -0.82665E-05 10640   0.303E-04 0.314E-04
CGA:  16    -0.128298217669E+04   -0.11271E-04   -0.10908E-04 10640   0.181E-04 0.660E-05
CGA:  17    -0.128298219035E+04   -0.13668E-04    0.67509E-03 10640   0.182E-04 0.713E-05
CGA:  18    -0.128298219421E+04   -0.38586E-05   -0.55853E-05 10640   0.145E-04 0.193E-04
   7 F= -.12829822E+04 E0= -.12829822E+04  d E =0.248302E-01  mag=    47.0000
       N       E                     dE             d eps       ncg     rms          ort
SDA:   1    -0.127733443367E+04    0.56478E+01    0.00000E+00 10640   0.145E+02 0.000E+00
CGA:   2    -0.128119461802E+04   -0.38602E+01   -0.38601E+01 10640   0.690E+01-0.514E-02
CGA:   3    -0.128265820836E+04   -0.14636E+01   -0.14635E+01 10640   0.117E+01 0.136E-03
CGA:   4    -0.128284981005E+04   -0.19160E+00   -0.19204E+00 10640   0.251E+00 0.362E-02
CGA:   5    -0.128289774849E+04   -0.47938E-01   -0.47943E-01 10640   0.689E-01 0.250E-03
CGA:   6    -0.128291062599E+04   -0.12878E-01   -0.12872E-01 10640   0.226E-01 0.529E-04
CGA:   7    -0.128291565669E+04   -0.50307E-02   -0.49562E-02 10640   0.657E-02-0.124E-02
CGA:   8    -0.128291713266E+04   -0.14760E-02   -0.14767E-02 10640   0.299E-02 0.289E-04
CGA:   9    -0.128291795696E+04   -0.82430E-03   -0.82463E-03 10640   0.201E-02-0.399E-03
CGA:  10    -0.128291833895E+04   -0.38198E-03   -0.37786E-03 10640   0.762E-03-0.703E-04
CGA:  11    -0.128291859139E+04   -0.25244E-03   -0.33187E-03 10640   0.936E-03-0.441E-03
CGA:  12    -0.128291868364E+04   -0.92249E-04   -0.11614E-03 10640   0.242E-03 0.155E-03
CGA:  13    -0.128291875160E+04   -0.67961E-04   -0.68964E-04 10640   0.114E-03 0.354E-04
CGA:  14    -0.128291881463E+04   -0.63037E-04   -0.62776E-04 10640   0.240E-03-0.513E-07
CGA:  15    -0.128291885805E+04   -0.43414E-04   -0.47661E-04 10640   0.149E-03 0.491E-04
CGA:  16    -0.128291891624E+04   -0.58190E-04   -0.57774E-04 10640   0.235E-03 0.640E-05
CGA:  17    -0.128291897580E+04   -0.59562E-04   -0.59619E-04 10640   0.181E-03-0.507E-05
CGA:  18    -0.128291899730E+04   -0.21503E-04   -0.28151E-04 10640   0.144E-03 0.525E-04
CGA:  19    -0.128291903756E+04   -0.40255E-04   -0.42442E-04 10640   0.124E-03 0.463E-04
CGA:  20    -0.128291908353E+04   -0.45975E-04   -0.58591E-04 10640   0.269E-03-0.146E-03
CGA:  21    -0.128291910297E+04   -0.19436E-04   -0.28904E-04 10640   0.470E-04 0.575E-04
CGA:  22    -0.128291912160E+04   -0.18634E-04   -0.22580E-04 10640   0.768E-04-0.304E-04
CGA:  23    -0.128291914082E+04   -0.19216E-04   -0.16406E-04 10640   0.536E-04-0.476E-04
CGA:  24    -0.128291914120E+04   -0.38407E-06   -0.40995E-05 10640   0.876E-05 0.194E-04
   8 F= -.12829191E+04 E0= -.12829191E+04  d E =0.630530E-01  mag=    47.0000
       N       E                     dE             d eps       ncg     rms          ort
SDA:   1    -0.127384789168E+04    0.90712E+01    0.00000E+00 10640   0.293E+02 0.000E+00
CGA:   2    -0.127947528240E+04   -0.56274E+01   -0.56281E+01 10640   0.107E+02-0.843E-03
CGA:   3    -0.128213936939E+04   -0.26641E+01   -0.26640E+01 10640   0.324E+01 0.314E-01
CGA:   4    -0.128263096423E+04   -0.49159E+00   -0.49246E+00 10640   0.486E+00 0.509E-02
CGA:   5    -0.128272352634E+04   -0.92562E-01   -0.92840E-01 10640   0.143E+00 0.632E-02
CGA:   6    -0.128275100169E+04   -0.27475E-01   -0.27444E-01 10640   0.441E-01-0.556E-03
CGA:   7    -0.128276034348E+04   -0.93418E-02   -0.93312E-02 10640   0.116E-01-0.361E-03
CGA:   8    -0.128276322453E+04   -0.28810E-02   -0.29004E-02 10640   0.635E-02-0.123E-02
CGA:   9    -0.128276449056E+04   -0.12660E-02   -0.12630E-02 10640   0.295E-02-0.205E-03
CGA:  10    -0.128276516829E+04   -0.67772E-03   -0.67719E-03 10640   0.107E-02 0.366E-03
CGA:  11    -0.128276550834E+04   -0.34006E-03   -0.32925E-03 10640   0.502E-03 0.282E-03
CGA:  12    -0.128276573666E+04   -0.22831E-03   -0.21882E-03 10640   0.456E-03 0.882E-04
CGA:  13    -0.128276595334E+04   -0.21669E-03   -0.32158E-03 10640   0.140E-02-0.299E-03
CGA:  14    -0.128276609197E+04   -0.13863E-03   -0.16701E-03 10640   0.351E-03 0.204E-03
CGA:  15    -0.128276621097E+04   -0.11900E-03   -0.11591E-03 10640   0.202E-03 0.896E-04
CGA:  16    -0.128276629161E+04   -0.80641E-04   -0.10434E-03 10640   0.678E-03-0.154E-03
CGA:  17    -0.128276634780E+04   -0.56188E-04   -0.70865E-04 10640   0.953E-04 0.944E-04
CGA:  18    -0.128276608601E+04    0.26179E-03   -0.14552E-03 10640   0.290E-02-0.312E-03
CGA:  19    -0.128276648111E+04   -0.39510E-03   -0.39081E-03 10640   0.484E-03 0.190E-05
CGA:  20    -0.128276656785E+04   -0.86738E-04   -0.11107E-03 10640   0.657E-04 0.111E-03
CGA:  21    -0.128276511833E+04    0.14495E-02   -0.78764E-03 10640   0.122E-01-0.706E-03
CGA:  22    -0.128276635388E+04   -0.12356E-02   -0.14451E-02 10640   0.108E-02 0.510E-03
CGA:  23    -0.128276678107E+04   -0.42719E-03   -0.40510E-03 10640   0.407E-03-0.538E-04
CGA:  24    -0.128276682269E+04   -0.41612E-04   -0.46918E-04 10640   0.418E-04 0.963E-05
CGA:  25    -0.128276684040E+04   -0.17715E-04   -0.14835E-04 10640   0.606E-04-0.791E-05
CGA:  26    -0.128276685924E+04   -0.18839E-04   -0.14002E-04 10640   0.408E-04-0.119E-04
CGA:  27    -0.128276686324E+04   -0.39948E-05   -0.66841E-05 10640   0.404E-04 0.556E-05
CGA:  28    -0.128276689252E+04   -0.29285E-04   -0.46140E-04 10640   0.289E-03-0.493E-04
CGA:  29    -0.128276697098E+04   -0.78462E-04   -0.54361E-04 10640   0.858E-04-0.494E-04
CGA:  30    -0.128276696934E+04    0.16468E-05   -0.92250E-05 10640   0.170E-04 0.213E-04
   9 F= -.12827670E+04 E0= -.12827670E+04  d E =0.152172E+00  mag=    47.0000
       N       E                     dE             d eps       ncg     rms          ort
SDA:   1    -0.128072099530E+04    0.20460E+01    0.00000E+00 10640   0.733E+01 0.000E+00
CGA:   2    -0.128209970613E+04   -0.13787E+01   -0.13795E+01 10640   0.255E+01 0.145E-01
CGA:   3    -0.128275850673E+04   -0.65880E+00   -0.65848E+00 10640   0.743E+00-0.251E-02
CGA:   4    -0.128287550141E+04   -0.11699E+00   -0.11645E+00 10640   0.105E+00-0.945E-03
CGA:   5    -0.128289809627E+04   -0.22595E-01   -0.22325E-01 10640   0.288E-01-0.785E-03
CGA:   6    -0.128290390750E+04   -0.58112E-02   -0.56947E-02 10640   0.102E-01-0.338E-03
CGA:   7    -0.128290569157E+04   -0.17841E-02   -0.18056E-02 10640   0.259E-02 0.776E-04
CGA:   8    -0.128290626768E+04   -0.57611E-03   -0.59967E-03 10640   0.967E-03 0.927E-04
CGA:   9    -0.128290669164E+04   -0.42396E-03   -0.39351E-03 10640   0.117E-02-0.361E-03
CGA:  10    -0.128290691335E+04   -0.22171E-03   -0.14822E-03 10640   0.606E-03-0.270E-03
CGA:  11    -0.128290677496E+04    0.13839E-03   -0.41571E-03 10640   0.404E-02-0.128E-02
CGA:  12    -0.128290744471E+04   -0.66975E-03   -0.71715E-03 10640   0.699E-03 0.159E-03
CGA:  13    -0.128290753807E+04   -0.93358E-04   -0.13178E-03 10640   0.224E-03 0.137E-03
CGA:  14    -0.128290757003E+04   -0.31964E-04   -0.59030E-04 10640   0.120E-03 0.117E-03
CGA:  15    -0.128290762727E+04   -0.57236E-04   -0.66606E-04 10640   0.442E-03-0.807E-04
CGA:  16    -0.128290763867E+04   -0.11405E-04   -0.42762E-04 10640   0.431E-04 0.915E-04
CGA:  17    -0.128290763310E+04    0.55716E-05   -0.44627E-05 10640   0.257E-04 0.293E-04
  10 F= -.12829076E+04 E0= -.12829076E+04  d E =-.140664E+00  mag=    47.0000
       N       E                     dE             d eps       ncg     rms          ort
SDA:   1    -0.128218179122E+04    0.72585E+00    0.00000E+00 10640   0.251E+01 0.000E+00
CGA:   2    -0.128265224337E+04   -0.47045E+00   -0.47095E+00 10640   0.874E+00 0.408E-02
CGA:   3    -0.128287786475E+04   -0.22562E+00   -0.22525E+00 10640   0.264E+00-0.365E-02
CGA:   4    -0.128291852045E+04   -0.40656E-01   -0.40508E-01 10640   0.379E-01-0.333E-03
CGA:   5    -0.128292644535E+04   -0.79249E-02   -0.77810E-02 10640   0.116E-01-0.851E-03
CGA:   6    -0.128292852275E+04   -0.20774E-02   -0.20767E-02 10640   0.372E-02 0.132E-04
CGA:   7    -0.128292926284E+04   -0.74009E-03   -0.74134E-03 10640   0.912E-03 0.119E-04
CGA:   8    -0.128292943870E+04   -0.17585E-03   -0.19307E-03 10640   0.318E-03 0.127E-03
CGA:   9    -0.128292957252E+04   -0.13382E-03   -0.13627E-03 10640   0.334E-03-0.670E-04
CGA:  10    -0.128292966061E+04   -0.88089E-04   -0.84663E-04 10640   0.392E-03-0.168E-03
CGA:  11    -0.128292975012E+04   -0.89508E-04   -0.73673E-04 10640   0.274E-03-0.103E-03
CGA:  12    -0.128292980574E+04   -0.55628E-04   -0.52779E-04 10640   0.849E-04-0.391E-04
CGA:  13    -0.128292983550E+04   -0.29751E-04   -0.45129E-04 10640   0.280E-03-0.534E-04
CGA:  14    -0.128292986225E+04   -0.26755E-04   -0.31718E-04 10640   0.371E-04 0.221E-04
CGA:  15    -0.128292987690E+04   -0.14650E-04   -0.14866E-04 10640   0.356E-04-0.573E-05
CGA:  16    -0.128292989445E+04   -0.17550E-04   -0.26077E-04 10640   0.159E-03-0.169E-04
CGA:  17    -0.128292989730E+04   -0.28456E-05   -0.85866E-05 10640   0.116E-03 0.203E-04
CGA:  18    -0.128292990420E+04   -0.69051E-05   -0.13687E-04 10640   0.743E-04 0.267E-04
CGA:  19    -0.128292993181E+04   -0.27606E-04   -0.26958E-04 10640   0.148E-03-0.179E-04
CGA:  20    -0.128292995442E+04   -0.22618E-04   -0.14121E-04 10640   0.989E-04-0.442E-04
CGA:  21    -0.128292996037E+04   -0.59451E-05   -0.54253E-05 10640   0.672E-04-0.315E-05
  11 F= -.12829300E+04 E0= -.12829300E+04  d E =-.223273E-01  mag=    47.0000
       N       E                     dE             d eps       ncg     rms          ort
SDA:   1    -0.128291692592E+04    0.13028E-01    0.00000E+00 10640   0.484E-01 0.000E+00
CGA:   2    -0.128292738116E+04   -0.10455E-01   -0.10396E-01 10640   0.207E-01-0.678E-03
CGA:   3    -0.128293199426E+04   -0.46131E-02   -0.46315E-02 10640   0.497E-02 0.263E-03
CGA:   4    -0.128293278753E+04   -0.79327E-03   -0.79634E-03 10640   0.814E-03 0.261E-04
CGA:   5    -0.128293289276E+04   -0.10523E-03   -0.12991E-03 10640   0.164E-03 0.196E-03
CGA:   6    -0.128293293353E+04   -0.40772E-04   -0.42683E-04 10640   0.535E-04 0.278E-04
CGA:   7    -0.128293295263E+04   -0.19099E-04   -0.19886E-04 10640   0.375E-04-0.185E-04
CGA:   8    -0.128293295167E+04    0.95598E-06   -0.17512E-05 10640   0.217E-04 0.132E-04
  12 F= -.12829330E+04 E0= -.12829330E+04  d E =-.299130E-02  mag=    47.0000
       N       E                     dE             d eps       ncg     rms          ort
SDA:   1    -0.128263840299E+04    0.29455E+00    0.00000E+00 10640   0.840E+00 0.000E+00
CGA:   2    -0.128284397950E+04   -0.20558E+00   -0.20558E+00 10640   0.383E+00 0.629E-03
CGA:   3    -0.128292813033E+04   -0.84151E-01   -0.84075E-01 10640   0.804E-01-0.213E-02
CGA:   4    -0.128294054704E+04   -0.12417E-01   -0.12478E-01 10640   0.159E-01 0.674E-03
CGA:   5    -0.128294369080E+04   -0.31438E-02   -0.31151E-02 10640   0.451E-02-0.512E-03
CGA:   6    -0.128294444457E+04   -0.75377E-03   -0.76523E-03 10640   0.127E-02 0.166E-03
CGA:   7    -0.128294477366E+04   -0.32909E-03   -0.33028E-03 10640   0.442E-03-0.139E-03
CGA:   8    -0.128294487510E+04   -0.10145E-03   -0.10225E-03 10640   0.271E-03-0.477E-04
CGA:   9    -0.128294494231E+04   -0.67204E-04   -0.72030E-04 10640   0.239E-03-0.889E-04
CGA:  10    -0.128294497512E+04   -0.32813E-04   -0.32658E-04 10640   0.912E-04-0.336E-05
CGA:  11    -0.128294499856E+04   -0.23443E-04   -0.53936E-04 10640   0.244E-03-0.863E-04
CGA:  12    -0.128294503392E+04   -0.35358E-04   -0.36781E-04 10640   0.617E-04 0.131E-04
CGA:  13    -0.128294504774E+04   -0.13818E-04   -0.13898E-04 10640   0.212E-04 0.190E-05
CGA:  14    -0.128294505315E+04   -0.54048E-05   -0.54599E-05 10640   0.151E-04 0.105E-04
  13 F= -.12829451E+04 E0= -.12829451E+04  d E =-.121015E-01  mag=    47.0000
       N       E                     dE             d eps       ncg     rms          ort
SDA:   1    -0.128249551172E+04    0.44954E+00    0.00000E+00 10640   0.132E+01 0.000E+00
CGA:   2    -0.128280089099E+04   -0.30538E+00   -0.30531E+00 10640   0.580E+00-0.386E-02
CGA:   3    -0.128293287698E+04   -0.13199E+00   -0.13200E+00 10640   0.120E+00 0.567E-03
CGA:   4    -0.128295222015E+04   -0.19343E-01   -0.19462E-01 10640   0.211E-01 0.144E-02
CGA:   5    -0.128295660421E+04   -0.43841E-02   -0.44069E-02 10640   0.492E-02 0.648E-03
CGA:   6    -0.128295757452E+04   -0.97031E-03   -0.98657E-03 10640   0.166E-02 0.362E-03
CGA:   7    -0.128295802424E+04   -0.44972E-03   -0.45980E-03 10640   0.109E-02-0.500E-03
CGA:   8    -0.128295814333E+04   -0.11909E-03   -0.12225E-03 10640   0.389E-03 0.417E-04
CGA:   9    -0.128295820885E+04   -0.65524E-04   -0.71891E-04 10640   0.219E-03 0.112E-03
CGA:  10    -0.128295825637E+04   -0.47515E-04   -0.49734E-04 10640   0.113E-03 0.396E-04
CGA:  11    -0.128295826852E+04   -0.12148E-04   -0.18928E-04 10640   0.681E-04 0.770E-04
CGA:  12    -0.128295827767E+04   -0.91496E-05   -0.11191E-04 10640   0.376E-04 0.337E-04
CGA:  13    -0.128295830599E+04   -0.28323E-04   -0.33268E-04 10640   0.969E-04-0.139E-04
CGA:  14    -0.128295830757E+04   -0.15760E-05   -0.61578E-05 10640   0.111E-03 0.322E-04
CGA:  15    -0.128295831484E+04   -0.72700E-05   -0.17741E-04 10640   0.791E-04 0.910E-04
CGA:  16    -0.128295833149E+04   -0.16653E-04   -0.17039E-04 10640   0.295E-04 0.316E-04
CGA:  17    -0.128295833139E+04    0.10234E-06   -0.37686E-05 10640   0.161E-04 0.285E-04
  14 F= -.12829583E+04 E0= -.12829583E+04  d E =-.132782E-01  mag=    47.0000
       N       E                     dE             d eps       ncg     rms          ort
SDA:   1    -0.126581483128E+04    0.17144E+02    0.00000E+00 10640   0.565E+02 0.000E+00
CGA:   2    -0.127643106747E+04   -0.10616E+02   -0.10615E+02 10640   0.198E+02 0.574E-01
CGA:   3    -0.128139040030E+04   -0.49593E+01   -0.49569E+01 10640   0.587E+01 0.288E-01
CGA:   4    -0.128232583678E+04   -0.93544E+00   -0.93460E+00 10640   0.840E+00 0.329E-03
CGA:   5    -0.128250753364E+04   -0.18170E+00   -0.18173E+00 10640   0.220E+00-0.969E-02
CGA:   6    -0.128255140253E+04   -0.43869E-01   -0.43866E-01 10640   0.746E-01 0.103E-03
CGA:   7    -0.128256492979E+04   -0.13527E-01   -0.13516E-01 10640   0.220E-01-0.250E-03
CGA:   8    -0.128256961412E+04   -0.46843E-02   -0.46816E-02 10640   0.746E-02 0.951E-03
CGA:   9    -0.128257217542E+04   -0.25613E-02   -0.28056E-02 10640   0.570E-02-0.162E-02
CGA:  10    -0.128257331492E+04   -0.11395E-02   -0.12726E-02 10640   0.479E-02-0.198E-02
CGA:  11    -0.128257378504E+04   -0.47012E-03   -0.12890E-02 10640   0.763E-02-0.429E-02
CGA:  12    -0.128257464242E+04   -0.85738E-03   -0.92402E-03 10640   0.190E-02 0.625E-03
CGA:  13    -0.128257516845E+04   -0.52603E-03   -0.51775E-03 10640   0.691E-03 0.320E-03
CGA:  14    -0.128257551015E+04   -0.34170E-03   -0.37143E-03 10640   0.109E-02-0.128E-03
CGA:  15    -0.128257566848E+04   -0.15833E-03   -0.14687E-03 10640   0.450E-03-0.156E-03
CGA:  16    -0.128257493297E+04    0.73551E-03   -0.41275E-03 10640   0.722E-02-0.138E-02
CGA:  17    -0.128257585146E+04   -0.91848E-03   -0.95539E-03 10640   0.957E-03 0.276E-03
CGA:  18    -0.128257612769E+04   -0.27623E-03   -0.27638E-03 10640   0.475E-03-0.163E-04
CGA:  19    -0.128257624509E+04   -0.11740E-03   -0.11773E-03 10640   0.326E-03 0.190E-04
CGA:  20    -0.128257636388E+04   -0.11879E-03   -0.12372E-03 10640   0.202E-03-0.518E-04
CGA:  21    -0.128257646593E+04   -0.10205E-03    0.23836E-03 10640   0.212E-03-0.881E-04
CGA:  22    -0.128257649698E+04   -0.31050E-04   -0.30544E-04 10640   0.847E-04-0.286E-04
CGA:  23    -0.128257650626E+04   -0.92824E-05   -0.12038E-04 10640   0.651E-04 0.252E-04
CGA:  24    -0.128257627946E+04    0.22680E-03   -0.12590E-03 10640   0.204E-02-0.262E-03
CGA:  25    -0.128257655689E+04   -0.27743E-03   -0.30281E-03 10640   0.441E-03 0.803E-04
CGA:  26    -0.128257670628E+04   -0.14939E-03   -0.11415E-03 10640   0.225E-03-0.158E-03
CGA:  27    -0.128257672430E+04   -0.18020E-04   -0.22514E-04 10640   0.643E-04 0.152E-04
CGA:  28    -0.128257672429E+04    0.82000E-08   -0.84145E-05 10640   0.284E-04 0.261E-04
  15 F= -.12825767E+04 E0= -.12825767E+04  d E =0.381607E+00  mag=    47.0000
       N       E                     dE             d eps       ncg     rms          ort
SDA:   1    -0.127231999323E+04    0.10257E+02    0.00000E+00 10640   0.361E+02 0.000E+00
CGA:   2    -0.127910792186E+04   -0.67879E+01   -0.67965E+01 10640   0.124E+02 0.404E-01
CGA:   3    -0.128225473116E+04   -0.31468E+01   -0.31513E+01 10640   0.362E+01 0.161E-01
CGA:   4    -0.128282902201E+04   -0.57429E+00   -0.57812E+00 10640   0.514E+00 0.145E-01
CGA:   5    -0.128294081717E+04   -0.11180E+00   -0.11255E+00 10640   0.126E+00 0.446E-02
CGA:   6    -0.128296883989E+04   -0.28023E-01   -0.28237E-01 10640   0.396E-01 0.149E-02
CGA:   7    -0.128297648547E+04   -0.76456E-02   -0.75883E-02 10640   0.141E-01-0.225E-03
CGA:   8    -0.128297950437E+04   -0.30189E-02   -0.29517E-02 10640   0.556E-02-0.426E-03
CGA:   9    -0.128298066751E+04   -0.11631E-02   -0.12564E-02 10640   0.180E-02 0.797E-03
CGA:  10    -0.128298098321E+04   -0.31570E-03   -0.42325E-03 10640   0.684E-03 0.775E-03
CGA:  11    -0.128298103362E+04   -0.50407E-04   -0.15358E-03 10640   0.332E-03 0.570E-03
CGA:  12    -0.128298108014E+04   -0.46524E-04   -0.71467E-04 10640   0.206E-03 0.220E-03
CGA:  13    -0.128298107807E+04    0.20740E-05   -0.29056E-04 10640   0.166E-03 0.171E-03
CGA:  14    -0.128298107115E+04    0.69232E-05   -0.21164E-04 10640   0.143E-03 0.150E-03
CGA:  15    -0.128298106279E+04    0.83582E-05   -0.16775E-04 10640   0.127E-03 0.134E-03
CGA:  16    -0.128298105319E+04    0.96003E-05   -0.13440E-04 10640   0.116E-03 0.121E-03
CGA:  17    -0.128298104359E+04    0.95938E-05   -0.11361E-04 10640   0.107E-03 0.111E-03
  16 F= -.12829810E+04 E0= -.12829810E+04  d E =-.404319E+00  mag=    47.0000
       N       E                     dE             d eps       ncg     rms          ort
SDA:   1    -0.128265103529E+04    0.33002E+00    0.00000E+00 10640   0.113E+01 0.000E+00
CGA:   2    -0.128286852632E+04   -0.21749E+00   -0.21723E+00 10640   0.397E+00-0.320E-02
CGA:   3    -0.128296850651E+04   -0.99980E-01   -0.10001E+00 10640   0.108E+00 0.205E-02
CGA:   4    -0.128298554704E+04   -0.17041E-01   -0.17206E-01 10640   0.162E-01 0.159E-02
CGA:   5    -0.128298872848E+04   -0.31814E-02   -0.32625E-02 10640   0.362E-02 0.137E-02
CGA:   6    -0.128298959807E+04   -0.86959E-03   -0.87695E-03 10640   0.131E-02 0.235E-03
CGA:   7    -0.128298983426E+04   -0.23619E-03   -0.24759E-03 10640   0.443E-03 0.152E-03
CGA:   8    -0.128298997016E+04   -0.13590E-03   -0.13667E-03 10640   0.291E-03-0.282E-04
CGA:   9    -0.128298997973E+04   -0.95755E-05   -0.32040E-04 10640   0.156E-03 0.168E-03
CGA:  10    -0.128298997442E+04    0.53181E-05   -0.13277E-04 10640   0.937E-04 0.117E-03
  17 F= -.12829900E+04 E0= -.12829900E+04  d E =-.893082E-02  mag=    47.0000
       N       E                     dE             d eps       ncg     rms          ort
SDA:   1    -0.128283923754E+04    0.15074E+00    0.00000E+00 10640   0.509E+00 0.000E+00
CGA:   2    -0.128294339176E+04   -0.10415E+00   -0.10414E+00 10640   0.192E+00-0.443E-03
CGA:   3    -0.128299164442E+04   -0.48253E-01   -0.48294E-01 10640   0.478E-01-0.177E-02
CGA:   4    -0.128299932360E+04   -0.76792E-02   -0.76695E-02 10640   0.772E-02-0.145E-03
CGA:   5    -0.128300084091E+04   -0.15173E-02   -0.15288E-02 10640   0.164E-02 0.433E-03
CGA:   6    -0.128300130549E+04   -0.46458E-03   -0.47383E-03 10640   0.773E-03-0.187E-03
CGA:   7    -0.128300139656E+04   -0.91065E-04   -0.10061E-03 10640   0.226E-03 0.121E-03
CGA:   8    -0.128300146050E+04   -0.63942E-04   -0.63965E-04 10640   0.143E-03-0.120E-05
CGA:   9    -0.128300147763E+04   -0.17128E-04   -0.88376E-04 10640   0.677E-03-0.179E-03
CGA:  10    -0.128300150390E+04   -0.26271E-04   -0.60142E-04 10640   0.137E-03 0.221E-03
CGA:  11    -0.128300150916E+04   -0.52614E-05   -0.17563E-04 10640   0.744E-04 0.885E-04
CGA:  12    -0.128300154456E+04   -0.35401E-04    0.21478E-03 10640   0.572E-04 0.109E-04
CGA:  13    -0.128300154386E+04    0.69688E-06   -0.58220E-05 10640   0.296E-04 0.466E-04
  18 F= -.12830015E+04 E0= -.12830015E+04  d E =-.115694E-01  mag=    47.0000
       N       E                     dE             d eps       ncg     rms          ort
SDA:   1    -0.128289214607E+04    0.10940E+00    0.00000E+00 10640   0.386E+00 0.000E+00
CGA:   2    -0.128296841408E+04   -0.76268E-01   -0.76294E-01 10640   0.143E+00 0.176E-02
CGA:   3    -0.128300488121E+04   -0.36467E-01   -0.36588E-01 10640   0.422E-01-0.292E-02
CGA:   4    -0.128301155836E+04   -0.66771E-02   -0.65823E-02 10640   0.681E-02-0.171E-02
CGA:   5    -0.128301287216E+04   -0.13138E-02   -0.13110E-02 10640   0.195E-02-0.250E-03
CGA:   6    -0.128301325472E+04   -0.38256E-03   -0.38097E-03 10640   0.790E-03-0.182E-03
CGA:   7    -0.128301337250E+04   -0.11779E-03   -0.12037E-03 10640   0.166E-03 0.617E-04
CGA:   8    -0.128301339749E+04   -0.24990E-04   -0.28606E-04 10640   0.623E-04 0.744E-04
CGA:   9    -0.128301315455E+04    0.24295E-03   -0.13204E-03 10640   0.194E-02-0.319E-03
CGA:  10    -0.128301341504E+04   -0.26049E-03   -0.26359E-03 10640   0.482E-03 0.174E-04
CGA:  11    -0.128301354257E+04   -0.12753E-03   -0.11413E-03 10640   0.133E-03-0.103E-03
CGA:  12    -0.128301357817E+04   -0.35605E-04   -0.33900E-04 10640   0.135E-03-0.500E-04
CGA:  13    -0.128301357637E+04    0.18074E-05   -0.79316E-05 10640   0.565E-04 0.373E-04
  19 F= -.12830136E+04 E0= -.12830136E+04  d E =-.120325E-01  mag=    47.0000
       N       E                     dE             d eps       ncg     rms          ort
SDA:   1    -0.128286102330E+04    0.15255E+00    0.00000E+00 10640   0.488E+00 0.000E+00
CGA:   2    -0.128296915667E+04   -0.10813E+00   -0.10826E+00 10640   0.207E+00 0.125E-02
CGA:   3    -0.128301904787E+04   -0.49891E-01   -0.49675E-01 10640   0.488E-01-0.265E-02
CGA:   4    -0.128302677340E+04   -0.77255E-02   -0.76061E-02 10640   0.884E-02-0.723E-03
CGA:   5    -0.128302848006E+04   -0.17067E-02   -0.16915E-02 10640   0.239E-02-0.124E-03
CGA:   6    -0.128302893729E+04   -0.45723E-03   -0.45089E-03 10640   0.848E-03-0.527E-04
CGA:   7    -0.128302909268E+04   -0.15539E-03   -0.15883E-03 10640   0.202E-03 0.327E-04
CGA:   8    -0.128302916464E+04   -0.71963E-04   -0.80144E-04 10640   0.236E-03-0.937E-04
CGA:   9    -0.128302920058E+04   -0.35934E-04   -0.31963E-04 10640   0.185E-03-0.852E-04
CGA:  10    -0.128302928979E+04   -0.89214E-04    0.63769E-04 10640   0.118E-03-0.585E-04
CGA:  11    -0.128302935088E+04   -0.61091E-04    0.43092E-04 10640   0.849E-04-0.126E-04
CGA:  12    -0.128302924437E+04    0.10651E-03   -0.77708E-04 10640   0.148E-02-0.254E-03
CGA:  13    -0.128302942901E+04   -0.18464E-03   -0.17818E-03 10640   0.245E-03-0.269E-04
CGA:  14    -0.128302945185E+04   -0.22844E-04   -0.35866E-04 10640   0.451E-04 0.755E-04
CGA:  15    -0.128302945155E+04    0.30143E-06   -0.64113E-05 10640   0.245E-04 0.328E-04
  20 F= -.12830295E+04 E0= -.12830295E+04  d E =-.158752E-01  mag=    47.0000
       N       E                     dE             d eps       ncg     rms          ort
SDA:   1    -0.128171098947E+04    0.13185E+01    0.00000E+00 10640   0.356E+01 0.000E+00
CGA:   2    -0.128262158346E+04   -0.91059E+00   -0.91073E+00 10640   0.170E+01 0.399E-02
CGA:   3    -0.128298281846E+04   -0.36123E+00   -0.36079E+00 10640   0.348E+00-0.604E-02
CGA:   4    -0.128303634675E+04   -0.53528E-01   -0.53327E-01 10640   0.715E-01-0.120E-02
CGA:   5    -0.128304981495E+04   -0.13468E-01   -0.13398E-01 10640   0.189E-01-0.691E-03
CGA:   6    -0.128305330952E+04   -0.34946E-02   -0.35011E-02 10640   0.558E-02 0.959E-04
CGA:   7    -0.128305459013E+04   -0.12806E-02   -0.12722E-02 10640   0.165E-02-0.182E-03
CGA:   8    -0.128305494055E+04   -0.35042E-03   -0.35271E-03 10640   0.727E-03 0.492E-04
CGA:   9    -0.128305508445E+04   -0.14390E-03   -0.42368E-03 10640   0.310E-02-0.935E-03
CGA:  10    -0.128305535846E+04   -0.27401E-03   -0.31464E-03 10640   0.387E-03 0.235E-03
CGA:  11    -0.128305548239E+04   -0.12393E-03   -0.12693E-03 10640   0.150E-03-0.943E-04
CGA:  12    -0.128305556933E+04   -0.86939E-04    0.39232E-04 10640   0.108E-03 0.467E-05
CGA:  13    -0.128305559318E+04   -0.23844E-04   -0.24531E-04 10640   0.626E-04 0.125E-04
CGA:  14    -0.128305563890E+04   -0.45722E-04    0.46583E-04 10640   0.430E-04 0.244E-04
CGA:  15    -0.128305570035E+04   -0.61456E-04    0.91529E-05 10640   0.370E-04 0.273E-04
CGA:  16    -0.128305569786E+04    0.24911E-05   -0.28260E-05 10640   0.226E-04 0.272E-04
  21 F= -.12830557E+04 E0= -.12830557E+04  d E =-.262463E-01  mag=    47.0000
       N       E                     dE             d eps       ncg     rms          ort
SDA:   1    -0.128203816146E+04    0.10175E+01    0.00000E+00 10640   0.310E+01 0.000E+00
CGA:   2    -0.128270527041E+04   -0.66711E+00   -0.66702E+00 10640   0.129E+01-0.105E-02
CGA:   3    -0.128301073801E+04   -0.30547E+00   -0.30550E+00 10640   0.316E+00 0.122E-02
CGA:   4    -0.128305858303E+04   -0.47845E-01   -0.47917E-01 10640   0.562E-01 0.966E-03
CGA:   5    -0.128306898303E+04   -0.10400E-01   -0.10454E-01 10640   0.155E-01 0.889E-03
CGA:   6    -0.128307202459E+04   -0.30416E-02   -0.30395E-02 10640   0.483E-02-0.253E-04
CGA:   7    -0.128307308325E+04   -0.10587E-02   -0.10562E-02 10640   0.134E-02-0.943E-04
CGA:   8    -0.128307346316E+04   -0.37991E-03   -0.41494E-03 10640   0.133E-02-0.474E-03
CGA:   9    -0.128307360357E+04   -0.14041E-03   -0.13847E-03 10640   0.508E-03-0.213E-04
CGA:  10    -0.128307368709E+04   -0.83518E-04   -0.89661E-04 10640   0.302E-03 0.971E-04
CGA:  11    -0.128307374815E+04   -0.61060E-04   -0.61889E-04 10640   0.142E-03 0.124E-04
CGA:  12    -0.128307379740E+04   -0.49252E-04   -0.50303E-04 10640   0.107E-03-0.106E-04
CGA:  13    -0.128307381614E+04   -0.18741E-04   -0.66469E-04 10640   0.521E-03-0.113E-03
CGA:  14    -0.128307390999E+04   -0.93845E-04   -0.81707E-04 10640   0.213E-03-0.113E-03
CGA:  15    -0.128307393435E+04   -0.24366E-04   -0.28577E-04 10640   0.498E-04 0.495E-04
CGA:  16    -0.128307393872E+04   -0.43644E-05   -0.75846E-05 10640   0.273E-04 0.249E-04
CGA:  17    -0.128307394697E+04   -0.82539E-05   -0.31882E-04 10640   0.235E-03-0.449E-04
CGA:  18    -0.128307398228E+04   -0.35312E-04   -0.33159E-04 10640   0.411E-04-0.157E-04
CGA:  19    -0.128307398639E+04   -0.41091E-05   -0.60650E-05 10640   0.155E-04 0.180E-04
  22 F= -.12830740E+04 E0= -.12830740E+04  d E =-.182885E-01  mag=    47.0000
       N       E                     dE             d eps       ncg     rms          ort
SDA:   1    -0.127592051696E+04    0.71535E+01    0.00000E+00 10640   0.183E+02 0.000E+00
CGA:   2    -0.128085542145E+04   -0.49349E+01   -0.49350E+01 10640   0.876E+01-0.410E-02
CGA:   3    -0.128271372208E+04   -0.18583E+01   -0.18582E+01 10640   0.140E+01-0.304E-02
CGA:   4    -0.128295190588E+04   -0.23818E+00   -0.23829E+00 10640   0.285E+00 0.776E-03
CGA:   5    -0.128301044498E+04   -0.58539E-01   -0.58589E-01 10640   0.657E-01 0.126E-02
CGA:   6    -0.128302514123E+04   -0.14696E-01   -0.14661E-01 10640   0.238E-01-0.135E-02
CGA:   7    -0.128302970732E+04   -0.45661E-02   -0.45084E-02 10640   0.781E-02-0.105E-02
CGA:   8    -0.128303165262E+04   -0.19453E-02   -0.19633E-02 10640   0.408E-02-0.926E-03
CGA:   9    -0.128303266982E+04   -0.10172E-02   -0.10670E-02 10640   0.309E-02-0.961E-03
CGA:  10    -0.128303321019E+04   -0.54036E-03   -0.52679E-03 10640   0.138E-02-0.544E-03
CGA:  11    -0.128303343819E+04   -0.22801E-03   -0.58897E-03 10640   0.322E-02-0.132E-02
CGA:  12    -0.128303380796E+04   -0.36977E-03   -0.39409E-03 10640   0.688E-03 0.185E-03
CGA:  13    -0.128303402952E+04   -0.22157E-03   -0.23031E-03 10640   0.398E-03-0.138E-03
CGA:  14    -0.128303415174E+04   -0.12222E-03   -0.12410E-03 10640   0.374E-03-0.148E-04
CGA:  15    -0.128303424802E+04   -0.96273E-04   -0.17892E-03 10640   0.122E-02-0.355E-03
CGA:  16    -0.128303436807E+04   -0.12005E-03   -0.13404E-03 10640   0.176E-03 0.876E-04
CGA:  17    -0.128303443916E+04   -0.71087E-04   -0.97111E-04 10640   0.286E-03-0.105E-03
CGA:  18    -0.128303451038E+04   -0.71222E-04   -0.69155E-04 10640   0.156E-03-0.557E-04
CGA:  19    -0.128303454596E+04   -0.35575E-04   -0.44439E-04 10640   0.290E-03-0.115E-03
CGA:  20    -0.128303458303E+04   -0.37070E-04   -0.38606E-04 10640   0.740E-04 0.111E-04
CGA:  21    -0.128303418514E+04    0.39789E-03   -0.21438E-03 10640   0.287E-02-0.361E-03
CGA:  22    -0.128303459916E+04   -0.41402E-03   -0.44412E-03 10640   0.854E-03 0.944E-04
CGA:  23    -0.128303479199E+04   -0.19283E-03   -0.17313E-03 10640   0.378E-04-0.681E-04
CGA:  24    -0.128303479598E+04   -0.39962E-05   -0.61172E-05 10640   0.215E-04 0.736E-05
CGA:  25    -0.128303482927E+04   -0.33286E-04    0.13387E-04 10640   0.211E-04 0.114E-04
CGA:  26    -0.128303482635E+04    0.29235E-05   -0.25915E-04 10640   0.270E-03-0.374E-04
CGA:  27    -0.128303487313E+04   -0.46784E-04   -0.44781E-04 10640   0.433E-04-0.546E-05
CGA:  28    -0.128303489052E+04   -0.17392E-04   -0.14706E-04 10640   0.427E-04-0.208E-04
CGA:  29    -0.128303489698E+04   -0.64572E-05   -0.17142E-04 10640   0.220E-03-0.353E-04
CGA:  30    -0.128303493774E+04   -0.40758E-04   -0.33967E-04 10640   0.545E-04-0.199E-04
CGA:  31    -0.128303494587E+04   -0.81343E-05   -0.10233E-04 10640   0.759E-05 0.808E-05
  23 F= -.12830349E+04 E0= -.12830349E+04  d E =0.390405E-01  mag=    47.0000
       N       E                     dE             d eps       ncg     rms          ort
SDA:   1    -0.128145944107E+04    0.15755E+01    0.00000E+00 10640   0.416E+01 0.000E+00
CGA:   2    -0.128249524110E+04   -0.10358E+01   -0.10364E+01 10640   0.191E+01 0.302E-02
CGA:   3    -0.128289449668E+04   -0.39926E+00   -0.39987E+00 10640   0.444E+00-0.247E-02
CGA:   4    -0.128296326850E+04   -0.68772E-01   -0.68608E-01 10640   0.877E-01 0.276E-02
CGA:   5    -0.128298045868E+04   -0.17190E-01   -0.16967E-01 10640   0.217E-01-0.970E-03
CGA:   6    -0.128298485258E+04   -0.43939E-02   -0.43247E-02 10640   0.721E-02-0.318E-03
CGA:   7    -0.128298622715E+04   -0.13746E-02   -0.14230E-02 10640   0.194E-02 0.258E-03
CGA:   8    -0.128298676997E+04   -0.54282E-03   -0.52537E-03 10640   0.109E-02-0.137E-03
CGA:   9    -0.128298691645E+04   -0.14648E-03   -0.18589E-03 10640   0.379E-03 0.202E-03
CGA:  10    -0.128298709146E+04   -0.17501E-03   -0.17787E-03 10640   0.332E-03-0.116E-03
CGA:  11    -0.128298717972E+04   -0.88260E-04   -0.93933E-04 10640   0.376E-03-0.163E-03
CGA:  12    -0.128298718205E+04   -0.23268E-05   -0.18879E-04 10640   0.234E-03 0.598E-04
CGA:  13    -0.128298718524E+04   -0.31888E-05   -0.28087E-04 10640   0.148E-03 0.969E-04
CGA:  14    -0.128298720606E+04   -0.20817E-04   -0.33221E-04 10640   0.122E-03 0.652E-04
CGA:  15    -0.128298724816E+04   -0.42101E-04   -0.39941E-04 10640   0.147E-03-0.205E-04
CGA:  16    -0.128298725930E+04   -0.11141E-04   -0.16721E-04 10640   0.163E-03 0.274E-04
CGA:  17    -0.128298726801E+04   -0.87100E-05   -0.22037E-04 10640   0.108E-03 0.626E-04
CGA:  18    -0.128298728505E+04   -0.17042E-04   -0.22219E-04 10640   0.808E-04 0.306E-04
CGA:  19    -0.128298731249E+04   -0.27439E-04   -0.44087E-04 10640   0.263E-03-0.140E-03
CGA:  20    -0.128298732590E+04   -0.13410E-04   -0.30220E-04 10640   0.782E-04 0.867E-04
CGA:  21    -0.128298733730E+04   -0.11401E-04   -0.16997E-04 10640   0.368E-04 0.408E-04
CGA:  22    -0.128298736345E+04   -0.26145E-04    0.25492E-04 10640   0.641E-04-0.127E-04
CGA:  23    -0.128298737353E+04   -0.10080E-04   -0.10221E-04 10640   0.418E-04 0.273E-05
CGA:  24    -0.128298737222E+04    0.13021E-05   -0.29916E-05 10640   0.154E-04 0.193E-04
  24 F= -.12829874E+04 E0= -.12829874E+04  d E =0.475736E-01  mag=    47.0000
       N       E                     dE             d eps       ncg     rms          ort
SDA:   1    -0.128036111904E+04    0.26263E+01    0.00000E+00 10640   0.718E+01 0.000E+00
CGA:   2    -0.128210759414E+04   -0.17465E+01   -0.17465E+01 10640   0.319E+01 0.810E-03
CGA:   3    -0.128281715140E+04   -0.70956E+00   -0.70965E+00 10640   0.617E+00 0.138E-02
CGA:   4    -0.128292323892E+04   -0.10609E+00   -0.10604E+00 10640   0.115E+00-0.185E-03
CGA:   5    -0.128294746781E+04   -0.24229E-01   -0.24200E-01 10640   0.261E-01-0.532E-03
CGA:   6    -0.128295392698E+04   -0.64592E-02   -0.64457E-02 10640   0.907E-02-0.134E-02
CGA:   7    -0.128295543568E+04   -0.15087E-02   -0.15459E-02 10640   0.278E-02 0.490E-03
CGA:   8    -0.128295626742E+04   -0.83174E-03   -0.85072E-03 10640   0.184E-02-0.519E-03
CGA:   9    -0.128295661528E+04   -0.34786E-03   -0.34766E-03 10640   0.813E-03-0.700E-05
CGA:  10    -0.128295675527E+04   -0.13999E-03   -0.46566E-03 10640   0.255E-02-0.102E-02
CGA:  11    -0.128295705246E+04   -0.29719E-03   -0.33164E-03 10640   0.485E-03 0.250E-03
CGA:  12    -0.128295714187E+04   -0.89406E-04   -0.94825E-04 10640   0.117E-03 0.636E-04
CGA:  13    -0.128295719190E+04   -0.50030E-04   -0.46771E-04 10640   0.101E-03 0.348E-04
CGA:  14    -0.128295723179E+04   -0.39885E-04   -0.38940E-04 10640   0.966E-04 0.266E-04
CGA:  15    -0.128295728822E+04   -0.56432E-04   -0.73115E-04 10640   0.257E-03-0.529E-04
CGA:  16    -0.128295731197E+04   -0.23750E-04   -0.31372E-04 10640   0.793E-04 0.481E-04
CGA:  17    -0.128295733180E+04   -0.19829E-04   -0.21567E-04 10640   0.437E-04 0.381E-04
CGA:  18    -0.128295734684E+04   -0.15041E-04   -0.15356E-04 10640   0.533E-04 0.891E-05
CGA:  19    -0.128295736159E+04   -0.14751E-04   -0.15385E-04 10640   0.375E-04 0.202E-04
CGA:  20    -0.128295737118E+04   -0.95948E-05   -0.10321E-04 10640   0.407E-04 0.997E-05
CGA:  21    -0.128295738557E+04   -0.14392E-04   -0.14232E-04 10640   0.472E-04 0.131E-04
CGA:  22    -0.128295739036E+04   -0.47914E-05   -0.88796E-05 10640   0.383E-04 0.320E-04
  25 F= -.12829574E+04 E0= -.12829574E+04  d E =0.299819E-01  mag=    47.0000
       N       E                     dE             d eps       ncg     rms          ort
SDA:   1    -0.127899152664E+04    0.39659E+01    0.00000E+00 10640   0.108E+02 0.000E+00
CGA:   2    -0.128161962633E+04   -0.26281E+01   -0.26281E+01 10640   0.495E+01-0.207E-02
CGA:   3    -0.128272644972E+04   -0.11068E+01   -0.11069E+01 10640   0.964E+00-0.123E-02
CGA:   4    -0.128287821062E+04   -0.15176E+00   -0.15215E+00 10640   0.190E+00 0.584E-02
CGA:   5    -0.128291494602E+04   -0.36735E-01   -0.36756E-01 10640   0.530E-01 0.397E-03
CGA:   6    -0.128292480920E+04   -0.98632E-02   -0.99046E-02 10640   0.166E-01 0.813E-03
CGA:   7    -0.128292859840E+04   -0.37892E-02   -0.37744E-02 10640   0.498E-02-0.855E-03
CGA:   8    -0.128292966793E+04   -0.10695E-02   -0.10724E-02 10640   0.214E-02 0.224E-03
CGA:   9    -0.128293025306E+04   -0.58514E-03   -0.58612E-03 10640   0.121E-02-0.397E-04
CGA:  10    -0.128293045726E+04   -0.20419E-03   -0.22066E-03 10640   0.419E-03 0.304E-03
CGA:  11    -0.128293061363E+04   -0.15637E-03   -0.15121E-03 10640   0.193E-03 0.101E-03
CGA:  12    -0.128293065388E+04   -0.40245E-04   -0.46122E-04 10640   0.128E-03 0.124E-03
CGA:  13    -0.128293066167E+04   -0.77945E-05   -0.16752E-04 10640   0.809E-04 0.834E-04
CGA:  14    -0.128293068156E+04   -0.19888E-04   -0.19427E-04 10640   0.682E-04 0.602E-04
CGA:  15    -0.128293068202E+04   -0.45833E-06   -0.74611E-05 10640   0.571E-04 0.566E-04
CGA:  16    -0.128293069139E+04   -0.93739E-05   -0.11112E-04 10640   0.525E-04 0.539E-04
  26 F= -.12829307E+04 E0= -.12829307E+04  d E =0.266990E-01  mag=    47.0000
       N       E                     dE             d eps       ncg     rms          ort
SDA:   1    -0.128034518177E+04    0.25855E+01    0.00000E+00 10640   0.723E+01 0.000E+00
CGA:   2    -0.128205446060E+04   -0.17093E+01   -0.17094E+01 10640   0.330E+01-0.609E-02
CGA:   3    -0.128279559850E+04   -0.74114E+00   -0.74114E+00 10640   0.672E+00 0.178E-02
CGA:   4    -0.128290186993E+04   -0.10627E+00   -0.10610E+00 10640   0.130E+00-0.331E-02
CGA:   5    -0.128292589514E+04   -0.24025E-01   -0.24152E-01 10640   0.324E-01 0.424E-02
CGA:   6    -0.128293274064E+04   -0.68455E-02   -0.68280E-02 10640   0.118E-01-0.130E-02
CGA:   7    -0.128293489978E+04   -0.21591E-02   -0.21662E-02 10640   0.307E-02 0.298E-03
CGA:   8    -0.128293571709E+04   -0.81731E-03   -0.83071E-03 10640   0.168E-02-0.272E-03
CGA:   9    -0.128293613292E+04   -0.41583E-03   -0.44247E-03 10640   0.129E-02-0.370E-03
CGA:  10    -0.128293631836E+04   -0.18545E-03   -0.18851E-03 10640   0.456E-03 0.913E-04
CGA:  11    -0.128293645610E+04   -0.13774E-03   -0.13489E-03 10640   0.244E-03 0.492E-04
CGA:  12    -0.128293652313E+04   -0.67033E-04   -0.12208E-03 10640   0.983E-03-0.240E-03
CGA:  13    -0.128293659538E+04   -0.72242E-04   -0.92984E-04 10640   0.132E-03 0.151E-03
CGA:  14    -0.128293661773E+04   -0.22352E-04   -0.26151E-04 10640   0.979E-04 0.694E-04
CGA:  15    -0.128293608342E+04    0.53431E-03   -0.28803E-03 10640   0.805E-02-0.555E-03
CGA:  16    -0.128293672125E+04   -0.63784E-03   -0.73341E-03 10640   0.105E-03 0.343E-03
CGA:  17    -0.128293671635E+04    0.49082E-05   -0.11557E-04 10640   0.519E-04 0.573E-04
CGA:  18    -0.128293674942E+04   -0.33070E-04   -0.36297E-04 10640   0.119E-03-0.103E-04
CGA:  19    -0.128293674804E+04    0.13742E-05   -0.10093E-04 10640   0.608E-04 0.396E-04
  27 F= -.12829367E+04 E0= -.12829367E+04  d E =-.605665E-02  mag=    47.0000
       N       E                     dE             d eps       ncg     rms          ort
SDA:   1    -0.127894691242E+04    0.39898E+01    0.00000E+00 10640   0.109E+02 0.000E+00
CGA:   2    -0.128169401042E+04   -0.27471E+01   -0.27466E+01 10640   0.492E+01-0.195E-02
CGA:   3    -0.128277733620E+04   -0.10833E+01   -0.10834E+01 10640   0.932E+00 0.166E-03
CGA:   4    -0.128293352459E+04   -0.15619E+00   -0.15600E+00 10640   0.188E+00-0.864E-03
CGA:   5    -0.128296967622E+04   -0.36152E-01   -0.36238E-01 10640   0.462E-01 0.676E-03
CGA:   6    -0.128297897608E+04   -0.92999E-02   -0.92538E-02 10640   0.166E-01-0.291E-03
CGA:   7    -0.128298232896E+04   -0.33529E-02   -0.32883E-02 10640   0.485E-02-0.474E-03
CGA:   8    -0.128298364017E+04   -0.13112E-02   -0.12797E-02 10640   0.280E-02-0.600E-03
CGA:   9    -0.128298425897E+04   -0.61880E-03   -0.58802E-03 10640   0.153E-02-0.374E-03
CGA:  10    -0.128298469517E+04   -0.43620E-03   -0.45274E-03 10640   0.137E-02-0.675E-03
CGA:  11    -0.128298489519E+04   -0.20002E-03   -0.17018E-03 10640   0.607E-03-0.307E-03
CGA:  12    -0.128298393240E+04    0.96279E-03   -0.57530E-03 10640   0.770E-02-0.170E-02
CGA:  13    -0.128298526964E+04   -0.13372E-02   -0.13864E-02 10640   0.168E-02 0.284E-03
CGA:  14    -0.128298552724E+04   -0.25760E-03   -0.26231E-03 10640   0.351E-03 0.274E-04
CGA:  15    -0.128298562388E+04   -0.96638E-04   -0.10043E-03 10640   0.135E-03 0.657E-04
CGA:  16    -0.128298563510E+04   -0.11224E-04   -0.25198E-04 10640   0.566E-04 0.777E-04
CGA:  17    -0.128298565017E+04   -0.15067E-04   -0.16169E-04 10640   0.334E-04 0.259E-04
CGA:  18    -0.128298565011E+04    0.54028E-07   -0.65433E-05 10640   0.196E-04 0.344E-04
  28 F= -.12829857E+04 E0= -.12829856E+04  d E =-.489021E-01  mag=    47.0000
       N       E                     dE             d eps       ncg     rms          ort
SDA:   1    -0.127649754863E+04    0.64881E+01    0.00000E+00 10640   0.192E+02 0.000E+00
CGA:   2    -0.128078213753E+04   -0.42846E+01   -0.42845E+01 10640   0.822E+01 0.417E-02
CGA:   3    -0.128265541057E+04   -0.18733E+01   -0.18728E+01 10640   0.192E+01-0.206E-02
CGA:   4    -0.128295737975E+04   -0.30197E+00   -0.30236E+00 10640   0.365E+00-0.149E-02
CGA:   5    -0.128302604701E+04   -0.68667E-01   -0.68574E-01 10640   0.101E+00-0.115E-03
CGA:   6    -0.128304490171E+04   -0.18855E-01   -0.18895E-01 10640   0.317E-01 0.496E-03
CGA:   7    -0.128305207892E+04   -0.71772E-02   -0.71027E-02 10640   0.934E-02-0.127E-02
CGA:   8    -0.128305422433E+04   -0.21454E-02   -0.21320E-02 10640   0.457E-02-0.315E-03
CGA:   9    -0.128305550305E+04   -0.12787E-02   -0.13002E-02 10640   0.358E-02-0.115E-02
CGA:  10    -0.128305613780E+04   -0.63476E-03   -0.60941E-03 10640   0.149E-02-0.504E-03
CGA:  11    -0.128305656431E+04   -0.42651E-03   -0.54325E-03 10640   0.159E-02-0.777E-03
[...]
CGA:   6    -0.128280181359E+04   -0.65072E-01   -0.64987E-01 10640   0.113E+00-0.148E-02
CGA:   7    -0.128282280580E+04   -0.20992E-01   -0.20964E-01 10640   0.346E-01-0.589E-04
CGA:   8    -0.128283149172E+04   -0.86859E-02   -0.86868E-02 10640   0.168E-01-0.143E-02
CGA:   9    -0.128283548856E+04   -0.39968E-02   -0.39978E-02 10640   0.893E-02 0.432E-03
CGA:  10    -0.128283737896E+04   -0.18904E-02   -0.19414E-02 10640   0.379E-02 0.135E-02
CGA:  11    -0.128283885582E+04   -0.14769E-02   -0.15173E-02 10640   0.339E-02-0.410E-03
CGA:  12    -0.128283924963E+04   -0.39380E-03   -0.48492E-03 10640   0.164E-02 0.980E-03
CGA:  13    -0.128283975336E+04   -0.50374E-03   -0.50924E-03 10640   0.159E-02 0.686E-03
CGA:  14    -0.128284043828E+04   -0.68492E-03   -0.71110E-03 10640   0.261E-02-0.408E-03
CGA:  15    -0.128284064074E+04   -0.20246E-03   -0.28000E-03 10640   0.263E-02 0.696E-03
CGA:  16    -0.128284086354E+04   -0.22280E-03   -0.38924E-03 10640   0.175E-02 0.126E-02
CGA:  17    -0.128284122975E+04   -0.36620E-03   -0.43787E-03 10640   0.133E-02 0.991E-03
CGA:  18    -0.128284140684E+04   -0.17710E-03   -0.55908E-03 10640   0.792E-02-0.207E-02
CGA:  19    -0.128284182525E+04   -0.41840E-03   -0.63019E-03 10640   0.376E-03 0.135E-02
CGA:  20    -0.128284181622E+04    0.90315E-05   -0.28205E-04 10640   0.169E-03 0.216E-03
CGA:  21    -0.128284190188E+04   -0.85663E-04   -0.69578E-04 10640   0.187E-03 0.859E-04
CGA:  22    -0.128284201638E+04   -0.11450E-03    0.77620E-04 10640   0.220E-03 0.206E-05
CGA:  23    -0.128284213313E+04   -0.11675E-03    0.25614E-03 10640   0.164E-03 0.176E-03
CGA:  24    -0.128284213828E+04   -0.51479E-05   -0.16555E-04 10640   0.750E-04 0.835E-04
CGA:  25    -0.128284218187E+04   -0.43590E-04    0.33629E-04 10640   0.670E-04 0.679E-04
CGA:  26    -0.128284222470E+04   -0.42837E-04    0.20135E-04 10640   0.627E-04 0.636E-04
CGA:  27    -0.128284226378E+04   -0.39074E-04    0.20805E-04 10640   0.590E-04 0.596E-04
CGA:  28    -0.128284230208E+04   -0.38305E-04    0.16835E-04 10640   0.558E-04 0.558E-04
CGA:  29    -0.128284233719E+04   -0.35102E-04    0.17810E-04 10640   0.531E-04 0.521E-04
CGA:  30    -0.128284237147E+04   -0.34283E-04    0.15475E-04 10640   0.513E-04 0.483E-04
CGA:  31    -0.128284240236E+04   -0.30889E-04    0.19556E-04 10640   0.509E-04 0.439E-04
CGA:  32    -0.128284243395E+04   -0.31590E-04    0.17122E-04 10640   0.533E-04 0.380E-04
CGA:  33    -0.128284238888E+04    0.45069E-04   -0.31643E-04 10640   0.217E-02-0.107E-03
CGA:  34    -0.128284262546E+04   -0.23659E-03   -0.21348E-03 10640   0.405E-04-0.700E-04
CGA:  35    -0.128284262984E+04   -0.43756E-05   -0.83480E-05 10640   0.385E-04 0.206E-04
  44 F= -.12828426E+04 E0= -.12828426E+04  d E =0.253355E+00  mag=    47.0000
       N       E                     dE             d eps       ncg     rms          ort
SDA:   1    -0.127423285111E+04    0.86098E+01    0.00000E+00 10640   0.286E+02 0.000E+00
CGA:   2    -0.127978504412E+04   -0.55522E+01   -0.55464E+01 10640   0.111E+02 0.544E-01
CGA:   3    -0.128243542085E+04   -0.26504E+01   -0.26529E+01 10640   0.367E+01 0.557E-02
CGA:   4    -0.128296470977E+04   -0.52929E+00   -0.52629E+00 10640   0.545E+00 0.995E-02
CGA:   5    -0.128306651788E+04   -0.10181E+00   -0.10192E+00 10640   0.148E+00 0.256E-02
CGA:   6    -0.128309637847E+04   -0.29861E-01   -0.29627E-01 10640   0.445E-01-0.169E-02
CGA:   7    -0.128310556488E+04   -0.91864E-02   -0.92208E-02 10640   0.122E-01 0.329E-03
CGA:   8    -0.128310840254E+04   -0.28377E-02   -0.27634E-02 10640   0.585E-02-0.611E-03
CGA:   9    -0.128310993988E+04   -0.15373E-02   -0.14787E-02 10640   0.359E-02-0.823E-03
CGA:  10    -0.128311094082E+04   -0.10009E-02   -0.98205E-03 10640   0.309E-02-0.125E-02
CGA:  11    -0.128311156247E+04   -0.62165E-03   -0.56125E-03 10640   0.202E-02-0.112E-02
CGA:  12    -0.128311165842E+04   -0.95952E-04   -0.80596E-03 10640   0.777E-02-0.239E-02
CGA:  13    -0.128311241701E+04   -0.75859E-03   -0.86054E-03 10640   0.139E-02 0.462E-03
CGA:  14    -0.128311277324E+04   -0.35623E-03   -0.37477E-03 10640   0.471E-03 0.239E-03
CGA:  15    -0.128311296967E+04   -0.19644E-03   -0.19602E-03 10640   0.615E-03 0.159E-04
CGA:  16    -0.128311299906E+04   -0.29386E-04   -0.78315E-04 10640   0.207E-03 0.236E-03
CGA:  17    -0.128311299182E+04    0.72353E-05   -0.25923E-04 10640   0.115E-03 0.145E-03
CGA:  18    -0.128311302656E+04   -0.34743E-04   -0.34860E-04 10640   0.107E-03 0.179E-04
CGA:  19    -0.128311303010E+04   -0.35378E-05   -0.15185E-04 10640   0.383E-04 0.629E-04
  45 F= -.12831130E+04 E0= -.12831130E+04  d E =-.270400E+00  mag=    47.0000
       N       E                     dE             d eps       ncg     rms          ort
SDA:   1    -0.128293352423E+04    0.17950E+00    0.00000E+00 10640   0.581E+00 0.000E+00
CGA:   2    -0.128305592005E+04   -0.12240E+00   -0.12243E+00 10640   0.230E+00 0.462E-03
CGA:   3    -0.128311263100E+04   -0.56711E-01   -0.56713E-01 10640   0.514E-01-0.378E-04
CGA:   4    -0.128312087963E+04   -0.82486E-02   -0.82663E-02 10640   0.887E-02 0.150E-03
CGA:   5    -0.128312284011E+04   -0.19605E-02   -0.19306E-02 10640   0.244E-02-0.480E-03
CGA:   6    -0.128312330745E+04   -0.46734E-03   -0.46754E-03 10640   0.814E-03 0.576E-05
CGA:   7    -0.128312349421E+04   -0.18676E-03   -0.18118E-03 10640   0.327E-03-0.111E-03
CGA:   8    -0.128312355287E+04   -0.58661E-04   -0.59644E-04 10640   0.134E-03 0.172E-04
CGA:   9    -0.128312289788E+04    0.65500E-03   -0.35319E-03 10640   0.494E-02-0.610E-03
CGA:  10    -0.128312352344E+04   -0.62556E-03   -0.66013E-03 10640   0.108E-02 0.109E-03
CGA:  11    -0.128312372530E+04   -0.20186E-03   -0.20280E-03 10640   0.180E-03 0.477E-05
CGA:  12    -0.128312379656E+04   -0.71260E-04   -0.68473E-04 10640   0.156E-03-0.369E-04
CGA:  13    -0.128312379508E+04    0.14798E-05   -0.14327E-04 10640   0.616E-04 0.473E-04
  46 F= -.12831238E+04 E0= -.12831238E+04  d E =-.107650E-01  mag=    47.0000
       N       E                     dE             d eps       ncg     rms          ort
SDA:   1    -0.127895411366E+04    0.41697E+01    0.00000E+00 10640   0.129E+02 0.000E+00
CGA:   2    -0.128161328841E+04   -0.26592E+01   -0.26613E+01 10640   0.499E+01 0.513E-02
CGA:   3    -0.128286648566E+04   -0.12532E+01   -0.12552E+01 10640   0.115E+01 0.319E-02
CGA:   4    -0.128305169746E+04   -0.18521E+00   -0.18561E+00 10640   0.190E+00 0.176E-02
CGA:   5    -0.128309137699E+04   -0.39680E-01   -0.39560E-01 10640   0.470E-01-0.673E-03
CGA:   6    -0.128310181958E+04   -0.10443E-01   -0.10331E-01 10640   0.170E-01-0.691E-03
CGA:   7    -0.128310500473E+04   -0.31851E-02   -0.31233E-02 10640   0.504E-02-0.303E-03
CGA:   8    -0.128310624957E+04   -0.12448E-02   -0.12152E-02 10640   0.237E-02-0.248E-03
CGA:   9    -0.128310696382E+04   -0.71425E-03   -0.69545E-03 10640   0.186E-02-0.397E-03
CGA:  10    -0.128310738270E+04   -0.41888E-03   -0.38801E-03 10640   0.111E-02-0.300E-03
CGA:  11    -0.128310772984E+04   -0.34715E-03   -0.36414E-03 10640   0.111E-02-0.414E-03
CGA:  12    -0.128310797595E+04   -0.24611E-03   -0.29811E-03 10640   0.218E-02-0.687E-03
CGA:  13    -0.128310816400E+04   -0.18805E-03   -0.24886E-03 10640   0.519E-03 0.260E-03
CGA:  14    -0.128310833127E+04   -0.16727E-03   -0.17254E-03 10640   0.242E-03 0.116E-03
CGA:  15    -0.128310841317E+04   -0.81897E-04   -0.80597E-04 10640   0.356E-03-0.198E-04
CGA:  16    -0.128310844145E+04   -0.28281E-04   -0.51151E-04 10640   0.204E-03 0.126E-03
CGA:  17    -0.128310844578E+04   -0.43305E-05   -0.26567E-04 10640   0.885E-04 0.958E-04
CGA:  18    -0.128310845988E+04   -0.14102E-04   -0.22183E-04 10640   0.102E-03 0.549E-04
CGA:  19    -0.128310848767E+04   -0.27787E-04   -0.40983E-04 10640   0.556E-03-0.139E-03
CGA:  20    -0.128310850966E+04   -0.21989E-04   -0.46121E-04 10640   0.417E-04 0.106E-03
CGA:  21    -0.128310850900E+04    0.66007E-06   -0.44322E-05 10640   0.280E-04 0.239E-04
CGA:  22    -0.128310852803E+04   -0.19025E-04    0.24308E-04 10640   0.316E-04 0.208E-04
CGA:  23    -0.128310852683E+04    0.11943E-05   -0.31563E-05 10640   0.229E-04 0.227E-04
CGA:  24    -0.128310857164E+04   -0.44809E-04   -0.27266E-04 10640   0.226E-04 0.185E-04
CGA:  25    -0.128310857006E+04    0.15770E-05   -0.21985E-05 10640   0.164E-04 0.164E-04
CGA:  26    -0.128310859127E+04   -0.21210E-04   -0.13597E-04 10640   0.148E-04 0.145E-04
CGA:  27    -0.128310859589E+04   -0.46156E-05   -0.47906E-05 10640   0.184E-04 0.102E-04
CGA:  28    -0.128310859828E+04   -0.23933E-05   -0.13850E-04 10640   0.275E-03-0.279E-04
CGA:  29    -0.128310861314E+04   -0.14862E-04   -0.24034E-04 10640   0.142E-04 0.343E-04
CGA:  30    -0.128310861477E+04   -0.16251E-05   -0.26134E-05 10640   0.150E-04 0.536E-05
CGA:  31    -0.128310863701E+04   -0.22241E-04   -0.32579E-04 10640   0.291E-03-0.967E-05
CGA:  32    -0.128310866015E+04   -0.23145E-04   -0.33480E-04 10640   0.100E-04 0.372E-04
CGA:  33    -0.128310866115E+04   -0.99123E-06   -0.16560E-05 10640   0.497E-05 0.276E-05
  47 F= -.12831087E+04 E0= -.12831087E+04  d E =0.151339E-01  mag=    47.0000
       N       E                     dE             d eps       ncg     rms          ort
SDA:   1    -0.128239165556E+04    0.71700E+00    0.00000E+00 10640   0.193E+01 0.000E+00
CGA:   2    -0.128285419344E+04   -0.46254E+00   -0.46281E+00 10640   0.890E+00 0.177E-02
CGA:   3    -0.128305454774E+04   -0.20035E+00   -0.20007E+00 10640   0.183E+00-0.207E-02
CGA:   4    -0.128308256099E+04   -0.28013E-01   -0.27821E-01 10640   0.364E-01-0.926E-03
CGA:   5    -0.128308929549E+04   -0.67345E-02   -0.67542E-02 10640   0.937E-02 0.169E-03
CGA:   6    -0.128309126369E+04   -0.19682E-02   -0.19214E-02 10640   0.307E-02-0.323E-03
CGA:   7    -0.128309186680E+04   -0.60310E-03   -0.60722E-03 10640   0.803E-03 0.333E-04
CGA:   8    -0.128309210792E+04   -0.24113E-03   -0.23373E-03 10640   0.568E-03-0.165E-03
CGA:   9    -0.128309222942E+04   -0.12150E-03   -0.11173E-03 10640   0.348E-03-0.117E-03
CGA:  10    -0.128309195794E+04    0.27147E-03   -0.26553E-03 10640   0.379E-02-0.843E-03
CGA:  11    -0.128309237137E+04   -0.41342E-03   -0.44928E-03 10640   0.661E-03 0.159E-03
CGA:  12    -0.128309252061E+04   -0.14925E-03   -0.15068E-03 10640   0.155E-03 0.116E-04
CGA:  13    -0.128309256742E+04   -0.46805E-04   -0.48345E-04 10640   0.582E-04 0.478E-04
CGA:  14    -0.128309260232E+04   -0.34899E-04   -0.46321E-04 10640   0.156E-03-0.424E-04
CGA:  15    -0.128309260973E+04   -0.74140E-05   -0.16426E-04 10640   0.259E-04 0.369E-04
  48 F= -.12830926E+04 E0= -.12830926E+04  d E =0.160514E-01  mag=    47.0000
       N       E                     dE             d eps       ncg     rms          ort
SDA:   1    -0.125905808959E+04    0.24035E+02    0.00000E+00 10640   0.667E+02 0.000E+00
CGA:   2    -0.127484747114E+04   -0.15789E+02   -0.15801E+02 10640   0.301E+02 0.493E-01
CGA:   3    -0.128155737648E+04   -0.67099E+01   -0.67102E+01 10640   0.621E+01 0.282E-01
CGA:   4    -0.128254003416E+04   -0.98266E+00   -0.98305E+00 10640   0.118E+01 0.102E-01
CGA:   5    -0.128276930636E+04   -0.22927E+00   -0.22979E+00 10640   0.305E+00 0.907E-02
CGA:   6    -0.128282990932E+04   -0.60603E-01   -0.60147E-01 10640   0.108E+00-0.475E-02
CGA:   7    -0.128285072461E+04   -0.20815E-01   -0.20849E-01 10640   0.305E-01 0.789E-03
CGA:   8    -0.128285869030E+04   -0.79657E-02   -0.78644E-02 10640   0.169E-01-0.267E-02
CGA:   9    -0.128286195706E+04   -0.32668E-02   -0.32845E-02 10640   0.736E-02 0.304E-03
CGA:  10    -0.128286400352E+04   -0.20465E-02   -0.20443E-02 10640   0.323E-02-0.129E-03
CGA:  11    -0.128286498262E+04   -0.97910E-03   -0.99615E-03 10640   0.253E-02-0.652E-03
CGA:  12    -0.128286533059E+04   -0.34797E-03   -0.36260E-03 10640   0.948E-03 0.139E-03
CGA:  13    -0.128286561473E+04   -0.28415E-03   -0.28400E-03 10640   0.676E-03 0.219E-03
CGA:  14    -0.128286587406E+04   -0.25933E-03   -0.26534E-03 10640   0.116E-02-0.171E-03
CGA:  15    -0.128286599391E+04   -0.11985E-03   -0.14879E-03 10640   0.101E-02 0.244E-03
CGA:  16    -0.128286605784E+04   -0.63923E-04   -0.13591E-03 10640   0.580E-03 0.424E-03
CGA:  17    -0.128286612847E+04   -0.70629E-04   -0.11899E-03 10640   0.465E-03 0.377E-03
CGA:  18    -0.128286622762E+04   -0.99158E-04   -0.19657E-03 10640   0.231E-02-0.615E-03
CGA:  19    -0.128286634161E+04   -0.11399E-03   -0.19319E-03 10640   0.139E-03 0.433E-03
CGA:  20    -0.128286633309E+04    0.85216E-05   -0.10110E-04 10640   0.726E-04 0.925E-04
CGA:  21    -0.128286633883E+04   -0.57412E-05   -0.11544E-04 10640   0.615E-04 0.613E-04
CGA:  22    -0.128286637130E+04   -0.32462E-04    0.12125E-03 10640   0.550E-04 0.546E-04
CGA:  23    -0.128286637878E+04   -0.74791E-05   -0.10406E-04 10640   0.508E-04 0.492E-04
CGA:  24    -0.128286641122E+04   -0.32448E-04    0.20780E-04 10640   0.491E-04 0.447E-04
CGA:  25    -0.128286641349E+04   -0.22714E-05   -0.68170E-05 10640   0.444E-04 0.425E-04
CGA:  26    -0.128286644087E+04   -0.27371E-04    0.18914E-04 10640   0.433E-04 0.404E-04
CGA:  27    -0.128286644636E+04   -0.54930E-05   -0.77657E-05 10640   0.416E-04 0.371E-04
  49 F= -.12828664E+04 E0= -.12828664E+04  d E =0.226163E+00  mag=    47.0000
       N       E                     dE             d eps       ncg     rms          ort
SDA:   1    -0.127702004335E+04    0.58464E+01    0.00000E+00 10640   0.184E+02 0.000E+00
CGA:   2    -0.128078772887E+04   -0.37677E+01   -0.37656E+01 10640   0.778E+01-0.590E-02
CGA:   3    -0.128253912181E+04   -0.17514E+01   -0.17524E+01 10640   0.230E+01 0.432E-01
CGA:   4    -0.128288052045E+04   -0.34140E+00   -0.33968E+00 10640   0.355E+00-0.146E-03
CGA:   5    -0.128295051619E+04   -0.69996E-01   -0.69991E-01 10640   0.942E-01-0.489E-04
CGA:   6    -0.128296893629E+04   -0.18420E-01   -0.18347E-01 10640   0.309E-01-0.211E-02
CGA:   7    -0.128297484196E+04   -0.59057E-02   -0.59096E-02 10640   0.857E-02 0.181E-03
CGA:   8    -0.128297687911E+04   -0.20372E-02   -0.20429E-02 10640   0.383E-02-0.485E-03
CGA:   9    -0.128297790630E+04   -0.10272E-02   -0.10924E-02 10640   0.307E-02-0.847E-03
CGA:  10    -0.128297852739E+04   -0.62109E-03   -0.77917E-03 10640   0.318E-02-0.164E-02
CGA:  11    -0.128297891458E+04   -0.38719E-03   -0.39767E-03 10640   0.815E-03 0.102E-03
CGA:  12    -0.128297912941E+04   -0.21483E-03   -0.46108E-03 10640   0.165E-02-0.770E-03
CGA:  13    -0.128297934327E+04   -0.21386E-03   -0.23410E-03 10640   0.421E-03 0.198E-03
CGA:  14    -0.128297946966E+04   -0.12639E-03   -0.13601E-03 10640   0.309E-03-0.200E-03
CGA:  15    -0.128297931106E+04    0.15860E-03   -0.15106E-03 10640   0.278E-02-0.454E-03
CGA:  16    -0.128297967876E+04   -0.36770E-03   -0.34993E-03 10640   0.656E-03-0.109E-03
CGA:  17    -0.128297983837E+04   -0.15961E-03   -0.16016E-03 10640   0.521E-04 0.363E-04
CGA:  18    -0.128297987816E+04   -0.39786E-04    0.21155E-04 10640   0.400E-04 0.196E-04
CGA:  19    -0.128297989838E+04   -0.20228E-04   -0.18307E-04 10640   0.335E-04 0.292E-04
CGA:  20    -0.128297992197E+04   -0.23581E-04    0.15366E-04 10640   0.300E-04 0.155E-04
CGA:  21    -0.128297993455E+04   -0.12587E-04   -0.12341E-04 10640   0.253E-04 0.264E-04
CGA:  22    -0.128297994691E+04   -0.12357E-04   -0.15531E-04 10640   0.123E-03-0.943E-05
CGA:  23    -0.128297996477E+04   -0.17856E-04   -0.18055E-04 10640   0.164E-03 0.157E-05
CGA:  24    -0.128297999349E+04   -0.28726E-04   -0.29168E-04 10640   0.179E-03 0.804E-06
CGA:  25    -0.128298005530E+04   -0.61811E-04   -0.64728E-04 10640   0.215E-03-0.464E-04
CGA:  26    -0.128298007304E+04   -0.17736E-04   -0.17671E-04 10640   0.101E-03-0.441E-05
CGA:  27    -0.128298007988E+04   -0.68398E-05   -0.10543E-04 10640   0.515E-04 0.207E-04
  50 F= -.12829801E+04 E0= -.12829801E+04  d E =-.113634E+00  mag=    47.0000
       N       E                     dE             d eps       ncg     rms          ort
SDA:   1    -0.128280924597E+04    0.17083E+00    0.00000E+00 10640   0.565E+00 0.000E+00
CGA:   2    -0.128291932118E+04   -0.11008E+00   -0.11007E+00 10640   0.207E+00 0.132E-03
CGA:   3    -0.128297156592E+04   -0.52245E-01   -0.52247E-01 10640   0.575E-01 0.556E-03
CGA:   4    -0.128298015611E+04   -0.85902E-02   -0.87136E-02 10640   0.843E-02 0.124E-02
CGA:   5    -0.128298188962E+04   -0.17335E-02   -0.17438E-02 10640   0.219E-02 0.221E-03
CGA:   6    -0.128298231794E+04   -0.42832E-03   -0.43657E-03 10640   0.677E-03 0.157E-03
CGA:   7    -0.128298247556E+04   -0.15761E-03   -0.15676E-03 10640   0.231E-03-0.285E-04
CGA:   8    -0.128298252230E+04   -0.46743E-04   -0.46674E-04 10640   0.102E-03-0.174E-05
CGA:   9    -0.128298253365E+04   -0.11348E-04   -0.15171E-04 10640   0.346E-04 0.415E-04
CGA:  10    -0.128298253240E+04    0.12446E-05   -0.41184E-05 10640   0.225E-04 0.351E-04
  51 F= -.12829825E+04 E0= -.12829825E+04  d E =-.245252E-02  mag=    47.0000
       N       E                     dE             d eps       ncg     rms          ort
SDA:   1    -0.128282675902E+04    0.15577E+00    0.00000E+00 10640   0.445E+00 0.000E+00
CGA:   2    -0.128293581412E+04   -0.10906E+00   -0.10904E+00 10640   0.203E+00 0.829E-03
CGA:   3    -0.128298097977E+04   -0.45166E-01   -0.45165E-01 10640   0.376E-01-0.440E-03
CGA:   4    -0.128298701207E+04   -0.60323E-02   -0.60434E-02 10640   0.744E-02 0.195E-03
CGA:   5    -0.128298858387E+04   -0.15718E-02   -0.15674E-02 10640   0.207E-02-0.424E-03
CGA:   6    -0.128298893946E+04   -0.35559E-03   -0.35743E-03 10640   0.613E-03 0.538E-04
CGA:   7    -0.128298908891E+04   -0.14945E-03   -0.15195E-03 10640   0.238E-03-0.104E-03
CGA:   8    -0.128298912886E+04   -0.39944E-04   -0.40055E-04 10640   0.946E-04 0.715E-05
CGA:   9    -0.128298914688E+04   -0.18024E-04   -0.52387E-04 10640   0.286E-03-0.107E-03
CGA:  10    -0.128298919284E+04   -0.45959E-04   -0.42148E-04 10640   0.821E-04-0.433E-04
CGA:  11    -0.128298920315E+04   -0.10305E-04   -0.10623E-04 10640   0.950E-05 0.422E-05
CGA:  12    -0.128298921059E+04   -0.74453E-05    0.17322E-05 10640   0.644E-05 0.328E-05
  52 F= -.12829892E+04 E0= -.12829892E+04  d E =-.667819E-02  mag=    47.0000
       N       E                     dE             d eps       ncg     rms          ort
SDA:   1    -0.128075771154E+04    0.22315E+01    0.00000E+00 10640   0.605E+01 0.000E+00
CGA:   2    -0.128226301138E+04   -0.15053E+01   -0.15053E+01 10640   0.281E+01 0.211E-02
CGA:   3    -0.128287850168E+04   -0.61549E+00   -0.61550E+00 10640   0.513E+00 0.143E-03
CGA:   4    -0.128296114937E+04   -0.82648E-01   -0.82644E-01 10640   0.103E+00 0.113E-03
CGA:   5    -0.128298164118E+04   -0.20492E-01   -0.20479E-01 10640   0.258E-01-0.469E-03
CGA:   6    -0.128298687389E+04   -0.52327E-02   -0.52207E-02 10640   0.890E-02-0.613E-03
CGA:   7    -0.128298866132E+04   -0.17874E-02   -0.17796E-02 10640   0.272E-02-0.468E-03
CGA:   8    -0.128298928517E+04   -0.62385E-03   -0.62869E-03 10640   0.139E-02-0.202E-03
CGA:   9    -0.128298964805E+04   -0.36288E-03   -0.41601E-03 10640   0.140E-02-0.518E-03
CGA:  10    -0.128298986013E+04   -0.21208E-03   -0.25186E-03 10640   0.100E-02-0.648E-03
CGA:  11    -0.128298999399E+04   -0.13386E-03   -0.19313E-03 10640   0.760E-03-0.457E-03
CGA:  12    -0.128298695200E+04    0.30420E-02   -0.16474E-02 10640   0.279E-01-0.287E-02
CGA:  13    -0.128298954025E+04   -0.25882E-02   -0.28576E-02 10640   0.284E-02 0.121E-02
CGA:  14    -0.128299037883E+04   -0.83858E-03   -0.85346E-03 10640   0.706E-03 0.119E-03
CGA:  15    -0.128299056672E+04   -0.18789E-03   -0.17373E-03 10640   0.547E-03-0.814E-04
CGA:  16    -0.128299057450E+04   -0.77811E-05   -0.62595E-04 10640   0.201E-03 0.204E-03
CGA:  17    -0.128299056073E+04    0.13774E-04   -0.23836E-04 10640   0.896E-04 0.126E-03
CGA:  18    -0.128299058292E+04   -0.22198E-04   -0.24858E-04 10640   0.545E-04 0.284E-04
CGA:  19    -0.128299057341E+04    0.95137E-05   -0.56879E-05 10640   0.294E-04 0.530E-04
