       N       E                     dE             d eps       ncg     rms          ort
DAV:   1     0.828617695182E+04    0.82862E+04   -0.24695E+05  8424   0.239E+03
DAV:   2     0.917695181360E+03   -0.73685E+04   -0.69176E+04  8424   0.659E+02
DAV:   3    -0.678356477260E+03   -0.15961E+04   -0.14044E+04  8424   0.283E+02
DAV:   4    -0.834270594832E+03   -0.15591E+03   -0.15321E+03  8424   0.857E+01
DAV:   5    -0.836791661796E+03   -0.25211E+01   -0.25094E+01  8424   0.122E+01
SDA:   6    -0.260285908770E+03    0.57651E+03   -0.25094E+01  8424   0.616E+04 0.000E+00
CGA:   7    -0.250343525047E+03    0.99424E+01   -0.42332E+03  8424   0.274E+05-0.343E+04
CGA:   8     0.100146736986E+04    0.12518E+04   -0.17153E+04  8424   0.102E+06-0.400E+05
CGA:   9     0.488027921527E+04    0.38788E+04   -0.75125E+04  8424   0.187E+05-0.945E+04
CGA:  10     0.836593488775E+03   -0.40437E+04   -0.64299E+03  8424   0.217E+05-0.106E+05
CGA:  11     0.543091394386E+03   -0.29350E+03   -0.88508E+03  8424   0.477E+05-0.431E+05
CGA:  12     0.361079154005E+04    0.30677E+04   -0.28058E+04  8424   0.348E+06-0.179E+06
CGA:  13     0.554428907037E+04    0.19335E+04   -0.26089E+05  8424   0.537E+05-0.404E+05
CGA:  14     0.144975500943E+04   -0.40945E+04   -0.27357E+04  8424   0.123E+06-0.205E+06
CGA:  15     0.452822301012E+04    0.30785E+04   -0.77046E+04  8424   0.174E+05-0.104E+05
CGA:  16     0.423523009531E+03   -0.41047E+04   -0.50513E+03  8424   0.461E+05-0.117E+06
CGA:  17     0.171092692314E+04    0.12874E+04   -0.23491E+04  8424   0.207E+06-0.118E+06
CGA:  18     0.429183764556E+04    0.25809E+04   -0.13099E+05  8424   0.167E+05-0.114E+05
CGA:  19    -0.462253020160E+03   -0.47541E+04   -0.40781E+03  8424   0.122E+05 0.641E+05
CGA:  20    -0.631879573338E+03   -0.16963E+03   -0.38205E+03  8424   0.168E+03-0.138E+03
CGA:  21    -0.655349914836E+03   -0.23470E+02   -0.23071E+02  8424   0.435E+02 0.151E+02
CGA:  22    -0.665088010271E+03   -0.97381E+01   -0.88333E+01  8424   0.279E+02 0.936E+01
CGA:  23    -0.669180830960E+03   -0.40928E+01   -0.41896E+01  8424   0.335E+02 0.118E+02
CGA:  24    -0.672036562668E+03   -0.28557E+01   -0.35972E+01  8424   0.319E+02-0.166E+01
CGA:  25    -0.673692668709E+03   -0.16561E+01   -0.19912E+01  8424   0.724E+01-0.125E+01
CGA:  26    -0.674194266868E+03   -0.50160E+00   -0.51669E+00  8424   0.775E+01-0.414E+00
CGA:  27    -0.674956846292E+03   -0.76258E+00   -0.61170E+00  8424   0.331E+01 0.347E+00
CGA:  28    -0.675328436971E+03   -0.37159E+00   -0.38104E+00  8424   0.598E+01 0.515E+00
CGA:  29    -0.675617158874E+03   -0.28872E+00   -0.22361E+00  8424   0.225E+01 0.100E+01
CGA:  30    -0.675715950912E+03   -0.98792E-01   -0.11260E+00  8424   0.288E+01-0.203E+00
CGA:  31    -0.675812440314E+03   -0.96489E-01   -0.11663E+00  8424   0.306E+01-0.228E+00
CGA:  32    -0.675868685289E+03   -0.56245E-01   -0.86262E-01  8424   0.104E+01-0.915E+00
CGA:  33    -0.675897506235E+03   -0.28821E-01   -0.40491E-01  8424   0.981E+00-0.435E-01
CGA:  34    -0.675964690984E+03   -0.67185E-01   -0.69571E-01  8424   0.495E+00 0.277E-01
CGA:  35    -0.676015916555E+03   -0.51226E-01   -0.51100E-01  8424   0.324E+00 0.437E-01
CGA:  36    -0.676054597284E+03   -0.38681E-01   -0.38248E-01  8424   0.164E+00 0.215E-01
CGA:  37    -0.676085523339E+03   -0.30926E-01   -0.29376E-01  8424   0.638E-01 0.186E-01
CGA:  38    -0.676100967114E+03   -0.15444E-01   -0.14928E-01  8424   0.385E-01 0.464E-02
CGA:  39    -0.676113443289E+03   -0.12476E-01   -0.15320E-01  8424   0.474E-01-0.994E-02
CGA:  40    -0.676120265389E+03   -0.68221E-02   -0.84411E-02  8424   0.300E-01-0.136E-01
CGA:  41    -0.676125442854E+03   -0.51775E-02   -0.55295E-02  8424   0.305E-01-0.267E-02
CGA:  42    -0.676129827806E+03   -0.43850E-02   -0.44135E-02  8424   0.185E-01-0.907E-03
CGA:  43    -0.676132326484E+03   -0.24987E-02   -0.10022E-01  8424   0.903E-01-0.184E-01
CGA:  44    -0.676141344257E+03   -0.90178E-02   -0.92024E-02  8424   0.267E-01 0.335E-02
CGA:  45    -0.676146574895E+03   -0.52306E-02   -0.54038E-02  8424   0.222E-01-0.415E-02
CGA:  46    -0.676152143152E+03   -0.55683E-02   -0.71479E-02  8424   0.214E-01-0.705E-02
CGA:  47    -0.676154920750E+03   -0.27776E-02   -0.61458E-02  8424   0.978E-01-0.133E-01
CGA:  48    -0.676162112325E+03   -0.71916E-02   -0.74557E-02  8424   0.202E-01 0.570E-02
CGA:  49    -0.676168672632E+03   -0.65603E-02   -0.67576E-02  8424   0.206E-01-0.145E-02
CGA:  50    -0.676173456080E+03   -0.47834E-02   -0.99667E-02  8424   0.756E-01-0.151E-01
CGA:  51    -0.676181581195E+03   -0.81251E-02   -0.82177E-02  8424   0.331E-01 0.324E-02
CGA:  52    -0.676193231249E+03   -0.11650E-01   -0.14113E-01  8424   0.476E-01-0.115E-01
CGA:  53    -0.676200939009E+03   -0.77078E-02   -0.12249E-01  8424   0.913E-01-0.242E-01
CGA:  54    -0.676226166632E+03   -0.25228E-01   -0.25408E-01  8424   0.890E-01-0.368E-02
CGA:  55    -0.676240420052E+03   -0.14253E-01   -0.14145E-01  8424   0.371E-01-0.150E-02
CGA:  56    -0.676246306239E+03   -0.58862E-02   -0.27470E-01  8424   0.328E+00-0.404E-01
CGA:  57    -0.676292840354E+03   -0.46534E-01   -0.46539E-01  8424   0.370E-01 0.722E-03
CGA:  58    -0.676296805893E+03   -0.39655E-02   -0.77722E-02  8424   0.213E+00-0.437E-01
CGA:  59    -0.676366003982E+03   -0.69198E-01   -0.68865E-01  8424   0.765E-01-0.323E-02
CGA:  60    -0.676382435408E+03   -0.16431E-01   -0.15728E-01  8424   0.207E-01-0.277E-02
CGA:  61    -0.676392900369E+03   -0.10465E-01   -0.21039E-01  8424   0.111E+00-0.154E-01
CGA:  62    -0.676413261091E+03   -0.20361E-01   -0.20229E-01  8424   0.156E-01-0.746E-04
CGA:  63    -0.676418385481E+03   -0.51244E-02   -0.47166E-02  8424   0.123E-01-0.323E-02
CGA:  64    -0.676423073864E+03   -0.46884E-02   -0.66719E-02  8424   0.209E-01-0.770E-02
CGA:  65    -0.676428188766E+03   -0.51149E-02   -0.48241E-02  8424   0.102E-01-0.159E-02
CGA:  66    -0.676431012401E+03   -0.28236E-02   -0.27209E-02  8424   0.243E-02-0.723E-03
CGA:  67    -0.676427259576E+03    0.37528E-02   -0.36127E-02  8424   0.464E-01-0.623E-02
CGA:  68    -0.676436245172E+03   -0.89856E-02   -0.90081E-02  8424   0.343E-02 0.248E-03
CGA:  69    -0.676437467435E+03   -0.12223E-02   -0.10911E-02  8424   0.299E-02-0.876E-03
CGA:  70    -0.676438344212E+03   -0.87678E-03   -0.82448E-03  8424   0.153E-02-0.590E-03
CGA:  71    -0.676437027127E+03    0.13171E-02   -0.21292E-02  8424   0.215E-01-0.273E-02
CGA:  72    -0.676441726447E+03   -0.46993E-02   -0.45993E-02  8424   0.284E-02-0.354E-03
CGA:  73    -0.676442428805E+03   -0.70236E-03   -0.71277E-03  8424   0.668E-03 0.399E-04
CGA:  74    -0.676442917314E+03   -0.48851E-03   -0.62731E-03  8424   0.167E-02-0.325E-03
CGA:  75    -0.676443215926E+03   -0.29861E-03   -0.25720E-03  8424   0.162E-02-0.210E-03
CGA:  76    -0.676444033033E+03   -0.81711E-03   -0.96149E-03  8424   0.554E-02-0.845E-03
CGA:  77    -0.676445347551E+03   -0.13145E-02   -0.12670E-02  8424   0.152E-02-0.174E-03
CGA:  78    -0.676445803345E+03   -0.45579E-03   -0.46107E-03  8424   0.771E-03 0.271E-04
CGA:  79    -0.676446229912E+03   -0.42657E-03   -0.50052E-03  8424   0.125E-02-0.498E-03
CGA:  80    -0.676446398164E+03   -0.16825E-03   -0.22737E-03  8424   0.322E-03 0.189E-03
CGA:  81    -0.676446639360E+03   -0.24120E-03   -0.28404E-03  8424   0.963E-03-0.153E-03
CGA:  82    -0.676446839538E+03   -0.20018E-03   -0.15716E-03  8424   0.124E-02-0.245E-03
CGA:  83    -0.676447146849E+03   -0.30731E-03   -0.24511E-03  8424   0.152E-02-0.303E-03
CGA:  84    -0.676447127585E+03    0.19264E-04   -0.12516E-02  8424   0.146E-01-0.219E-02
CGA:  85    -0.676450659850E+03   -0.35323E-02   -0.34962E-02  8424   0.101E-02-0.144E-03
CGA:  86    -0.676450990571E+03   -0.33072E-03   -0.34956E-03  8424   0.461E-03 0.133E-03
CGA:  87    -0.676451237237E+03   -0.24667E-03   -0.24199E-03  8424   0.509E-03-0.230E-03
CGA:  88    -0.676451275827E+03   -0.38590E-04   -0.44987E-04  8424   0.259E-03 0.192E-04
CGA:  89    -0.676451297993E+03   -0.22165E-04   -0.38405E-04  8424   0.158E-03 0.487E-04
CGA:  90    -0.676451371383E+03   -0.73390E-04   -0.72459E-04  8424   0.345E-03-0.173E-04
CGA:  91    -0.676451505464E+03   -0.13408E-03   -0.15545E-03  8424   0.122E-02-0.394E-03
CGA:  92    -0.676451784835E+03   -0.27937E-03   -0.29004E-03  8424   0.290E-03 0.505E-04
CGA:  93    -0.676451913728E+03   -0.12889E-03   -0.16666E-03  8424   0.849E-03-0.341E-03
CGA:  94    -0.676452002727E+03   -0.88999E-04   -0.11780E-03  8424   0.959E-04 0.950E-04
CGA:  95    -0.676450763850E+03    0.12389E-02   -0.66815E-03  8424   0.599E-02-0.661E-03
CGA:  96    -0.676452459555E+03   -0.16957E-02   -0.16466E-02  8424   0.761E-03-0.987E-04
CGA:  97    -0.676452579231E+03   -0.11968E-03   -0.14684E-03  8424   0.136E-03 0.494E-04
CGA:  98    -0.676452675058E+03   -0.95827E-04   -0.72843E-04  8424   0.188E-03-0.102E-03
CGA:  99    -0.676452716381E+03   -0.41322E-04   -0.45619E-04  8424   0.565E-04 0.897E-05
CGA: 100    -0.676452857650E+03   -0.14127E-03    0.28974E-04  8424   0.230E-03-0.337E-04
CGA: 101    -0.676452879350E+03   -0.21700E-04   -0.37079E-04  8424   0.456E-04 0.289E-04
CGA: 102    -0.676452974883E+03   -0.95533E-04    0.44289E-04  8424   0.113E-03-0.137E-04
CGA: 103    -0.676453283919E+03   -0.30904E-03    0.13700E-04  8424   0.354E-03 0.141E-05
CGA: 104    -0.676454381616E+03   -0.10977E-02    0.93103E-04  8424   0.672E-03-0.750E-06
CGA: 105    -0.676457040510E+03   -0.26589E-02    0.11477E-03  8424   0.715E-03 0.183E-03
CGA: 106    -0.676459915348E+03   -0.28748E-02    0.22504E-03  8424   0.136E-02-0.876E-03
CGA: 107    -0.676460136601E+03   -0.22125E-03   -0.27174E-03  8424   0.213E-03 0.112E-03
CGA: 108    -0.676460234226E+03   -0.97625E-04   -0.78365E-04  8424   0.922E-04-0.627E-04
CGA: 109    -0.676460259264E+03   -0.25038E-04   -0.24640E-04  8424   0.365E-04-0.128E-05
CGA: 110    -0.676460328404E+03   -0.69140E-04    0.20084E-04  8424   0.593E-04-0.579E-05
CGA: 111    -0.676460477021E+03   -0.14862E-03    0.10953E-04  8424   0.556E-04 0.165E-04
CGA: 112    -0.676460680202E+03   -0.20318E-03    0.16757E-04  8424   0.913E-04-0.136E-04
CGA: 113    -0.676461097640E+03   -0.41744E-03    0.54863E-05  8424   0.159E-03 0.250E-04
CGA: 114    -0.676461918737E+03   -0.82110E-03    0.27549E-04  8424   0.154E-03-0.448E-04
CGA: 115    -0.676462888369E+03   -0.96963E-03    0.56328E-05  8424   0.141E-03 0.280E-04
CGA: 116    -0.676463892344E+03   -0.10040E-02    0.13209E-04  8424   0.146E-03-0.771E-04
CGA: 117    -0.676463621409E+03    0.27094E-03   -0.22539E-03  8424   0.267E-02-0.537E-03
CGA: 118    -0.676464192408E+03   -0.57100E-03   -0.61515E-03  8424   0.255E-03 0.110E-03
CGA: 119    -0.676464332734E+03   -0.14033E-03   -0.90183E-04  8424   0.156E-03-0.165E-03
CGA: 120    -0.676464347621E+03   -0.14887E-04   -0.24365E-04  8424   0.166E-04 0.203E-04
CGA: 121    -0.676464418395E+03   -0.70774E-04    0.26673E-05  8424   0.338E-04-0.110E-04
CGA: 122    -0.676464503339E+03   -0.84943E-04    0.94625E-05  8424   0.866E-04-0.367E-04
CGA: 123    -0.676464511914E+03   -0.85754E-05   -0.13911E-04  8424   0.102E-04 0.121E-04
   1 F= -.67646451E+03 E0= -.67646451E+03  d E =-.676465E+03  mag=     1.0000
       N       E                     dE             d eps       ncg     rms          ort
SDA:   1    -0.676464687903E+03   -0.18456E-03    0.00000E+00  8424   0.194E-03 0.000E+00
CGA:   2    -0.676464704991E+03   -0.17088E-04   -0.25231E-04  8424   0.329E-04 0.181E-04
CGA:   3    -0.676463238578E+03    0.14664E-02   -0.80854E-03  8424   0.102E-01-0.518E-03
CGA:   4    -0.676464626196E+03   -0.13876E-02   -0.14236E-02  8424   0.151E-02 0.209E-04
CGA:   5    -0.676464942843E+03   -0.31665E-03   -0.25756E-03  8424   0.362E-03-0.744E-04
CGA:   6    -0.676465068167E+03   -0.12532E-03   -0.97553E-04  8424   0.184E-03-0.427E-04
CGA:   7    -0.676465108644E+03   -0.40477E-04   -0.28914E-04  8424   0.420E-04-0.161E-04
CGA:   8    -0.676464736185E+03    0.37246E-03   -0.89227E-04  8424   0.322E-02-0.317E-03
CGA:   9    -0.676465196836E+03   -0.46065E-03   -0.52319E-03  8424   0.469E-03 0.828E-04
CGA:  10    -0.676465332821E+03   -0.13599E-03   -0.11341E-03  8424   0.939E-04-0.341E-04
CGA:  11    -0.676465356030E+03   -0.23208E-04   -0.23780E-04  8424   0.319E-04 0.950E-06
CGA:  12    -0.676465411127E+03   -0.55097E-04    0.70872E-03  8424   0.173E-03-0.551E-04
CGA:  13    -0.676465429215E+03   -0.18088E-04   -0.26085E-04  8424   0.223E-04 0.117E-04
CGA:  14    -0.676465479800E+03   -0.50585E-04    0.29892E-04  8424   0.130E-03-0.443E-04
CGA:  15    -0.676465501253E+03   -0.21453E-04   -0.23968E-04  8424   0.213E-04 0.403E-05
CGA:  16    -0.676465547683E+03   -0.46429E-04    0.22851E-04  8424   0.236E-03-0.639E-04
CGA:  17    -0.676465563151E+03   -0.15469E-04   -0.31179E-04  8424   0.235E-04 0.249E-04
CGA:  18    -0.676465573243E+03   -0.10092E-04   -0.24731E-04  8424   0.186E-03-0.697E-04
CGA:  19    -0.676465647656E+03   -0.74413E-04   -0.60814E-04  8424   0.139E-04-0.323E-04
CGA:  20    -0.676465681747E+03   -0.34091E-04    0.40301E-05  8424   0.445E-04-0.141E-04
CGA:  21    -0.676465713032E+03   -0.31285E-04   -0.15299E-04  8424   0.584E-04-0.414E-04
CGA:  22    -0.676465719518E+03   -0.64856E-05   -0.82677E-05  8424   0.269E-05 0.316E-05
   2 F= -.67646572E+03 E0= -.67646572E+03  d E =-.120760E-02  mag=     1.0000
       N       E                     dE             d eps       ncg     rms          ort
SDA:   1    -0.676464191766E+03    0.15213E-02    0.00000E+00  8424   0.535E-02 0.000E+00
CGA:   2    -0.676465233047E+03   -0.10413E-02   -0.10144E-02  8424   0.181E-02-0.558E-04
CGA:   3    -0.676465648763E+03   -0.41572E-03   -0.40890E-03  8424   0.682E-03-0.164E-04
CGA:   4    -0.676465767147E+03   -0.11838E-03   -0.11205E-03  8424   0.175E-03-0.136E-04
CGA:   5    -0.676465804778E+03   -0.37631E-04   -0.32087E-04  8424   0.401E-04-0.131E-04
CGA:   6    -0.676465826262E+03   -0.21484E-04   -0.14071E-04  8424   0.671E-04-0.350E-04
CGA:   7    -0.676465845897E+03   -0.19635E-04   -0.11487E-04  8424   0.181E-04-0.199E-04
CGA:   8    -0.676465875021E+03   -0.29125E-04    0.34186E-05  8424   0.585E-04-0.184E-04
CGA:   9    -0.676465894095E+03   -0.19074E-04   -0.10840E-04  8424   0.167E-04-0.220E-04
CGA:  10    -0.676465922117E+03   -0.28022E-04    0.18938E-05  8424   0.235E-04-0.925E-05
CGA:  11    -0.676465947718E+03   -0.25601E-04    0.85250E-03  8424   0.148E-03-0.517E-04
CGA:  12    -0.676465961863E+03   -0.14144E-04   -0.19010E-04  8424   0.632E-05 0.118E-04
CGA:  13    -0.676465989620E+03   -0.27757E-04    0.61224E-06  8424   0.273E-04-0.976E-05
CGA:  14    -0.676465997230E+03   -0.76099E-05   -0.56297E-05  8424   0.689E-05-0.630E-05
   3 F= -.67646600E+03 E0= -.67646600E+03  d E =-.277712E-03  mag=     1.0000
       N       E                     dE             d eps       ncg     rms          ort
SDA:   1    -0.676464088907E+03    0.19007E-02    0.00000E+00  8424   0.553E-02 0.000E+00
CGA:   2    -0.676465375588E+03   -0.12867E-02   -0.12138E-02  8424   0.278E-02-0.259E-03
CGA:   3    -0.676465846315E+03   -0.47073E-03   -0.48151E-03  8424   0.665E-03 0.348E-04
CGA:   4    -0.676465969370E+03   -0.12305E-03   -0.12325E-03  8424   0.174E-03 0.495E-06
CGA:   5    -0.676466005254E+03   -0.35884E-04   -0.29578E-04  8424   0.481E-04-0.217E-04
CGA:   6    -0.676466018581E+03   -0.13327E-04   -0.10775E-04  8424   0.203E-04-0.134E-04
CGA:   7    -0.676466051765E+03   -0.33184E-04    0.19902E-05  8424   0.318E-04-0.133E-04
CGA:   8    -0.676466062272E+03   -0.10507E-04   -0.70922E-05  8424   0.200E-04-0.160E-04
CGA:   9    -0.676465188277E+03    0.87400E-03   -0.48406E-03  8424   0.834E-02-0.398E-03
CGA:  10    -0.676466184932E+03   -0.99666E-03   -0.10387E-02  8424   0.735E-04 0.444E-04
CGA:  11    -0.676466216338E+03   -0.31406E-04   -0.15976E-04  8424   0.343E-04-0.292E-04
CGA:  12    -0.676466224000E+03   -0.76619E-05   -0.51599E-05  8424   0.121E-04-0.535E-05
   4 F= -.67646622E+03 E0= -.67646622E+03  d E =-.226770E-03  mag=     1.0000
       N       E                     dE             d eps       ncg     rms          ort
SDA:   1    -0.676465882704E+03    0.33363E-03    0.00000E+00  8424   0.116E-02 0.000E+00
CGA:   2    -0.676466129174E+03   -0.24647E-03   -0.23914E-03  8424   0.654E-03-0.152E-04
CGA:   3    -0.676466261325E+03   -0.13215E-03   -0.11754E-03  8424   0.201E-03-0.301E-04
CGA:   4    -0.676466304722E+03   -0.43397E-04   -0.34718E-04  8424   0.497E-04-0.187E-04
CGA:   5    -0.676466323024E+03   -0.18302E-04   -0.11181E-04  8424   0.290E-04-0.191E-04
CGA:   6    -0.676466350746E+03   -0.27722E-04    0.18869E-04  8424   0.171E-03-0.498E-04
CGA:   7    -0.676466375287E+03   -0.24541E-04   -0.22005E-04  8424   0.209E-04-0.538E-05
CGA:   8    -0.676466404346E+03   -0.29059E-04    0.24974E-04  8424   0.527E-04-0.239E-04
CGA:   9    -0.676466417366E+03   -0.13020E-04   -0.99150E-05  8424   0.116E-04-0.794E-05
CGA:  10    -0.676466443250E+03   -0.25884E-04    0.20419E-05  8424   0.328E-04-0.138E-04
CGA:  11    -0.676466454881E+03   -0.11631E-04   -0.76889E-05  8424   0.124E-04-0.121E-04
CGA:  12    -0.676466494837E+03   -0.39957E-04    0.57178E-06  8424   0.215E-04-0.782E-05
CGA:  13    -0.676466496573E+03   -0.17358E-05   -0.29703E-05  8424   0.390E-05 0.304E-05
   5 F= -.67646650E+03 E0= -.67646650E+03  d E =-.272573E-03  mag=     1.0000
       N       E                     dE             d eps       ncg     rms          ort
SDA:   1    -0.676465922255E+03    0.57258E-03    0.00000E+00  8424   0.148E-02 0.000E+00
CGA:   2    -0.676466302094E+03   -0.37984E-03   -0.38373E-03  8424   0.638E-03 0.146E-04
CGA:   3    -0.676466436674E+03   -0.13458E-03   -0.12317E-03  8424   0.236E-03-0.358E-04
CGA:   4    -0.676466486708E+03   -0.50034E-04   -0.38801E-04  8424   0.753E-04-0.351E-04
CGA:   5    -0.676466513879E+03   -0.27171E-04   -0.17155E-04  8424   0.607E-04-0.475E-04
CGA:   6    -0.676466528297E+03   -0.14418E-04   -0.94301E-05  8424   0.175E-04-0.160E-04
CGA:   7    -0.676466546758E+03   -0.18461E-04    0.50435E-05  8424   0.382E-04-0.147E-04
CGA:   8    -0.676466560801E+03   -0.14042E-04   -0.81899E-05  8424   0.242E-04-0.246E-04
CGA:   9    -0.676466569450E+03   -0.86491E-05   -0.50200E-05  8424   0.132E-04-0.156E-04
CGA:  10    -0.676466583392E+03   -0.13942E-04    0.12316E-04  8424   0.628E-04-0.267E-04
CGA:  11    -0.676466595093E+03   -0.11701E-04   -0.97763E-05  8424   0.268E-05-0.707E-05
CGA:  12    -0.676466616542E+03   -0.21449E-04    0.49970E-07  8424   0.542E-05-0.329E-06
CGA:  13    -0.676466667894E+03   -0.51352E-04    0.82219E-07  8424   0.530E-05 0.269E-05
CGA:  14    -0.676466737382E+03   -0.69489E-04    0.17240E-06  8424   0.480E-05 0.279E-05
CGA:  15    -0.676466759762E+03   -0.22379E-04    0.21604E-06  8424   0.201E-04-0.622E-05
CGA:  16    -0.676466761003E+03   -0.12416E-05   -0.20237E-05  8424   0.187E-05 0.248E-05
   6 F= -.67646676E+03 E0= -.67646676E+03  d E =-.264430E-03  mag=     1.0000
       N       E                     dE             d eps       ncg     rms          ort
SDA:   1    -0.676465978683E+03    0.78108E-03    0.00000E+00  8424   0.219E-02 0.000E+00
CGA:   2    -0.676466461950E+03   -0.48327E-03   -0.49643E-03  8424   0.907E-03 0.765E-04
CGA:   3    -0.676466681801E+03   -0.21985E-03   -0.20172E-03  8424   0.344E-03-0.103E-03
CGA:   4    -0.676466735953E+03   -0.54152E-04   -0.49765E-04  8424   0.875E-04-0.201E-04
CGA:   5    -0.676466755864E+03   -0.19912E-04   -0.16311E-04  8424   0.320E-04-0.208E-04
CGA:   6    -0.676466785110E+03   -0.29246E-04    0.67446E-05  8424   0.503E-04-0.265E-04
CGA:   7    -0.676466790444E+03   -0.53337E-05   -0.61736E-05  8424   0.693E-05 0.350E-05
   7 F= -.67646679E+03 E0= -.67646679E+03  d E =-.294402E-04  mag=     1.0000
       N       E                     dE             d eps       ncg     rms          ort
SDA:   1    -0.676461911617E+03    0.48735E-02    0.00000E+00  8424   0.114E-01 0.000E+00
CGA:   2    -0.676465267154E+03   -0.33555E-02   -0.33592E-02  8424   0.455E-02 0.656E-04
CGA:   3    -0.676466174473E+03   -0.90732E-03   -0.88200E-03  8424   0.124E-02-0.164E-03
CGA:   4    -0.676466385348E+03   -0.21087E-03   -0.20688E-03  8424   0.307E-03-0.243E-04
CGA:   5    -0.676466439870E+03   -0.54522E-04   -0.51470E-04  8424   0.657E-04-0.191E-04
CGA:   6    -0.676466455365E+03   -0.15496E-04   -0.30261E-04  8424   0.203E-03-0.881E-04
CGA:   7    -0.676466482424E+03   -0.27059E-04   -0.27060E-04  8424   0.213E-04-0.355E-07
CGA:   8    -0.676466503767E+03   -0.21343E-04    0.61936E-05  8424   0.157E-04-0.102E-04
CGA:   9    -0.676466525844E+03   -0.22077E-04    0.41246E-06  8424   0.981E-05-0.310E-05
CGA:  10    -0.676466551592E+03   -0.25748E-04    0.31037E-06  8424   0.586E-05 0.122E-05
CGA:  11    -0.676466581839E+03   -0.30248E-04    0.17342E-06  8424   0.440E-05 0.470E-06
CGA:  12    -0.676466616147E+03   -0.34307E-04    0.75012E-07  8424   0.373E-05 0.217E-05
CGA:  13    -0.676466659733E+03   -0.43587E-04    0.80461E-07  8424   0.323E-05 0.302E-05
CGA:  14    -0.676466674275E+03   -0.14542E-04    0.86797E-07  8424   0.202E-05 0.562E-06
CGA:  15    -0.676466693962E+03   -0.19687E-04    0.32165E-07  8424   0.176E-05 0.156E-05
CGA:  16    -0.676466708499E+03   -0.14537E-04    0.24023E-07  8424   0.152E-05 0.946E-06
CGA:  17    -0.676466718925E+03   -0.10426E-04    0.25357E-07  8424   0.201E-05 0.699E-06
CGA:  18    -0.676466749977E+03   -0.31053E-04    0.30598E-07  8424   0.144E-05 0.269E-05
CGA:  19    -0.676466764164E+03   -0.14187E-04    0.16162E-07  8424   0.139E-05 0.984E-06
CGA:  20    -0.676466774814E+03   -0.10650E-04    0.20659E-07  8424   0.178E-05 0.824E-06
CGA:  21    -0.676466791308E+03   -0.16494E-04    0.21351E-07  8424   0.328E-05 0.476E-07
CGA:  22    -0.676466827993E+03   -0.36685E-04    0.34148E-07  8424   0.304E-05 0.331E-05
CGA:  23    -0.676466833285E+03   -0.52922E-05    0.28830E-06  8424   0.789E-05-0.234E-05
   8 F= -.67646683E+03 E0= -.67646683E+03  d E =-.428419E-04  mag=     1.0000
       N       E                     dE             d eps       ncg     rms          ort
SDA:   1    -0.676457373829E+03    0.94542E-02    0.00000E+00  8424   0.263E-01 0.000E+00
CGA:   2    -0.676462982776E+03   -0.56089E-02   -0.55703E-02  8424   0.109E-01-0.358E-03
CGA:   3    -0.676465069535E+03   -0.20868E-02   -0.21123E-02  8424   0.315E-02 0.210E-03
CGA:   4    -0.676465665762E+03   -0.59623E-03   -0.59276E-03  8424   0.838E-03-0.282E-04
CGA:   5    -0.676465815935E+03   -0.15017E-03   -0.14361E-03  8424   0.185E-03-0.502E-04
CGA:   6    -0.676465850478E+03   -0.34543E-04   -0.33929E-04  8424   0.421E-04-0.603E-05
CGA:   7    -0.676465458715E+03    0.39176E-03   -0.21193E-03  8424   0.274E-02-0.294E-03
CGA:   8    -0.676465835378E+03   -0.37666E-03   -0.39496E-03  8424   0.317E-03 0.470E-04
CGA:   9    -0.676465934307E+03   -0.98929E-04   -0.85561E-04  8424   0.937E-04-0.539E-04
CGA:  10    -0.676465958446E+03   -0.24139E-04   -0.21527E-04  8424   0.305E-04-0.116E-04
CGA:  11    -0.676465992839E+03   -0.34393E-04    0.20868E-04  8424   0.697E-04-0.302E-04
CGA:  12    -0.676465995565E+03   -0.27255E-05   -0.77781E-05  8424   0.768E-05 0.134E-04
CGA:  13    -0.676466004473E+03   -0.89082E-05    0.68113E-04  8424   0.209E-04-0.102E-04
CGA:  14    -0.676465124087E+03    0.88039E-03   -0.48672E-03  8424   0.744E-02-0.366E-03
CGA:  15    -0.676465998504E+03   -0.87442E-03   -0.95543E-03  8424   0.404E-03 0.162E-03
CGA:  16    -0.676466113273E+03   -0.11477E-03   -0.91586E-04  8424   0.325E-04-0.387E-04
CGA:  17    -0.676466115884E+03   -0.26108E-05   -0.48243E-05  8424   0.392E-05 0.351E-05
   9 F= -.67646612E+03 E0= -.67646612E+03  d E =0.717402E-03  mag=     1.0000
       N       E                     dE             d eps       ncg     rms          ort
SDA:   1    -0.676459298411E+03    0.68149E-02    0.00000E+00  8424   0.137E-01 0.000E+00
CGA:   2    -0.676462923603E+03   -0.36252E-02   -0.36166E-02  8424   0.654E-02-0.177E-04
CGA:   3    -0.676464095186E+03   -0.11716E-02   -0.11860E-02  8424   0.179E-02 0.246E-04
CGA:   4    -0.676464385278E+03   -0.29009E-03   -0.29031E-03  8424   0.453E-03-0.242E-08
CGA:   5    -0.676464472406E+03   -0.87128E-04   -0.79561E-04  8424   0.890E-04-0.150E-04
CGA:   6    -0.676464498606E+03   -0.26200E-04   -0.20353E-04  8424   0.306E-04-0.140E-04
CGA:   7    -0.676464516451E+03   -0.17845E-04   -0.13142E-04  8424   0.924E-04-0.371E-04
CGA:   8    -0.676464533958E+03   -0.17507E-04   -0.13691E-04  8424   0.114E-04-0.796E-05
CGA:   9    -0.676464557211E+03   -0.23253E-04    0.37349E-05  8424   0.391E-04-0.149E-04
CGA:  10    -0.676464569446E+03   -0.12235E-04   -0.77569E-05  8424   0.916E-05-0.110E-04
CGA:  11    -0.676464593443E+03   -0.23997E-04    0.90794E-06  8424   0.202E-04-0.844E-05
CGA:  12    -0.676464604474E+03   -0.11031E-04   -0.66608E-05  8424   0.209E-04-0.172E-04
CGA:  13    -0.676464616883E+03   -0.12409E-04   -0.72526E-05  8424   0.282E-04-0.230E-04
CGA:  14    -0.676464626090E+03   -0.92070E-05   -0.62271E-05  8424   0.507E-05-0.878E-05
  10 F= -.67646463E+03 E0= -.67646463E+03  d E =0.148979E-02  mag=     1.0000
       N       E                     dE             d eps       ncg     rms          ort
SDA:   1    -0.676459374550E+03    0.52423E-02    0.00000E+00  8424   0.862E-02 0.000E+00
CGA:   2    -0.676461394553E+03   -0.20200E-02   -0.19788E-02  8424   0.406E-02-0.132E-03
CGA:   3    -0.676462206222E+03   -0.81167E-03   -0.80396E-03  8424   0.113E-02-0.245E-04
CGA:   4    -0.676462403245E+03   -0.19702E-03   -0.19102E-03  8424   0.271E-03-0.178E-04
CGA:   5    -0.676462446690E+03   -0.43445E-04   -0.43652E-04  8424   0.534E-04 0.581E-06
CGA:   6    -0.676462459558E+03   -0.12868E-04   -0.11996E-04  8424   0.163E-04-0.346E-05
CGA:   7    -0.676462485788E+03   -0.26230E-04    0.41659E-05  8424   0.351E-04-0.158E-04
CGA:   8    -0.676462492256E+03   -0.64681E-05   -0.55574E-05  8424   0.575E-05-0.298E-05
  11 F= -.67646249E+03 E0= -.67646249E+03  d E =0.213383E-02  mag=     1.0000
       N       E                     dE             d eps       ncg     rms          ort
SDA:   1    -0.676453907817E+03    0.85780E-02    0.00000E+00  8424   0.131E-01 0.000E+00
CGA:   2    -0.676457855490E+03   -0.39477E-02   -0.39439E-02  8424   0.542E-02-0.255E-04
CGA:   3    -0.676458913032E+03   -0.10575E-02   -0.10205E-02  8424   0.157E-02-0.146E-03
CGA:   4    -0.676459169527E+03   -0.25650E-03   -0.25260E-03  8424   0.370E-03-0.149E-04
CGA:   5    -0.676459223578E+03   -0.54051E-04   -0.57469E-04  8424   0.695E-04 0.131E-04
CGA:   6    -0.676459245492E+03   -0.21913E-04   -0.19625E-04  8424   0.324E-04-0.175E-04
CGA:   7    -0.676458701072E+03    0.54442E-03   -0.29788E-03  8424   0.377E-02-0.280E-03
CGA:   8    -0.676459257360E+03   -0.55629E-03   -0.53733E-03  8424   0.375E-03-0.324E-04
CGA:   9    -0.676459356500E+03   -0.99139E-04   -0.10260E-03  8424   0.110E-03 0.822E-05
CGA:  10    -0.676459396503E+03   -0.40004E-04   -0.33570E-04  8424   0.371E-04-0.171E-04
CGA:  11    -0.676459412306E+03   -0.15803E-04   -0.11712E-04  8424   0.249E-04-0.146E-04
CGA:  12    -0.676459457464E+03   -0.45157E-04    0.36529E-05  8424   0.630E-04-0.220E-04
CGA:  13    -0.676459461142E+03   -0.36780E-05   -0.79477E-05  8424   0.856E-05 0.831E-05
  12 F= -.67645946E+03 E0= -.67645946E+03  d E =0.303111E-02  mag=     1.0000
       N       E                     dE             d eps       ncg     rms          ort
SDA:   1    -0.676370104540E+03    0.89353E-01    0.00000E+00  8424   0.195E+00 0.000E+00
CGA:   2    -0.676421000667E+03   -0.50896E-01   -0.50967E-01  8424   0.923E-01 0.185E-03
CGA:   3    -0.676439069201E+03   -0.18069E-01   -0.17938E-01  8424   0.231E-01-0.327E-03
CGA:   4    -0.676442874404E+03   -0.38052E-02   -0.38209E-02  8424   0.556E-02 0.360E-04
CGA:   5    -0.676443797563E+03   -0.92316E-03   -0.93435E-03  8424   0.109E-02 0.280E-04
CGA:   6    -0.676444050344E+03   -0.25278E-03   -0.23967E-03  8424   0.320E-03-0.412E-04
CGA:   7    -0.676444117680E+03   -0.67336E-04   -0.66801E-04  8424   0.929E-04-0.179E-05
CGA:   8    -0.676444159055E+03   -0.41375E-04   -0.36319E-04  8424   0.829E-04-0.447E-04
CGA:   9    -0.676444181293E+03   -0.22238E-04   -0.17894E-04  8424   0.825E-04-0.513E-04
CGA:  10    -0.676444199187E+03   -0.17894E-04   -0.18194E-04  8424   0.231E-04 0.106E-05
CGA:  11    -0.676444210619E+03   -0.11432E-04   -0.12853E-04  8424   0.386E-04-0.215E-04
CGA:  12    -0.676444228120E+03   -0.17501E-04   -0.12883E-04  8424   0.432E-04-0.304E-04
CGA:  13    -0.676444235058E+03   -0.69382E-05   -0.64989E-05  8424   0.248E-05-0.134E-05
  13 F= -.67644424E+03 E0= -.67644424E+03  d E =0.152261E-01  mag=     1.0000
       N       E                     dE             d eps       ncg     rms          ort
SDA:   1    -0.675633644591E+03    0.81058E+00    0.00000E+00  8424   0.240E+01 0.000E+00
CGA:   2    -0.676135270778E+03   -0.50163E+00   -0.50199E+00  8424   0.991E+00-0.274E-03
CGA:   3    -0.676344245201E+03   -0.20897E+00   -0.20913E+00  8424   0.320E+00 0.778E-03
CGA:   4    -0.676397083764E+03   -0.52839E-01   -0.52877E-01  8424   0.797E-01 0.676E-04
CGA:   5    -0.676410825918E+03   -0.13742E-01   -0.13718E-01  8424   0.152E-01-0.111E-03
CGA:   6    -0.676413924484E+03   -0.30986E-02   -0.30933E-02  8424   0.350E-02-0.278E-04
CGA:   7    -0.676414719031E+03   -0.79455E-03   -0.79354E-03  8424   0.109E-02-0.653E-05
CGA:   8    -0.676415001789E+03   -0.28276E-03   -0.27904E-03  8424   0.339E-03-0.279E-04
CGA:   9    -0.676415124246E+03   -0.12246E-03   -0.12011E-03  8424   0.214E-03-0.108E-03
CGA:  10    -0.676414442058E+03    0.68219E-03   -0.23149E-03  8424   0.464E-02-0.758E-03
CGA:  11    -0.676415240571E+03   -0.79851E-03   -0.79735E-03  8424   0.539E-03-0.464E-05
CGA:  12    -0.676415436186E+03   -0.19561E-03   -0.19462E-03  8424   0.186E-03-0.145E-04
CGA:  13    -0.676415521472E+03   -0.85286E-04   -0.12009E-03  8424   0.390E-03-0.148E-03
CGA:  14    -0.676415590541E+03   -0.69069E-04   -0.69048E-04  8424   0.470E-04-0.157E-06
CGA:  15    -0.676415640129E+03   -0.49588E-04    0.42097E-04  8424   0.520E-04-0.242E-04
CGA:  16    -0.676415652276E+03   -0.12147E-04   -0.10304E-04  8424   0.140E-04-0.812E-05
CGA:  17    -0.676415690931E+03   -0.38655E-04    0.83789E-06  8424   0.154E-04-0.177E-05
CGA:  18    -0.676415757232E+03   -0.66300E-04    0.56504E-06  8424   0.804E-05 0.975E-05
CGA:  19    -0.676415781992E+03   -0.24760E-04    0.61479E-06  8424   0.804E-05 0.151E-05
CGA:  20    -0.676415841402E+03   -0.59411E-04    0.30484E-06  8424   0.956E-05 0.502E-05
CGA:  21    -0.676415860098E+03   -0.18695E-04    0.14619E-05  8424   0.118E-04-0.327E-06
CGA:  22    -0.676415927555E+03   -0.67457E-04    0.38330E-06  8424   0.144E-04 0.197E-05
CGA:  23    -0.676416030000E+03   -0.10244E-03    0.55362E-06  8424   0.134E-04 0.144E-04
CGA:  24    -0.676416047877E+03   -0.17877E-04    0.45299E-05  8424   0.222E-04-0.571E-05
CGA:  25    -0.676416123273E+03   -0.75396E-04    0.42923E-06  8424   0.246E-04-0.216E-05
CGA:  26    -0.676416236653E+03   -0.11338E-03    0.89180E-06  8424   0.576E-04-0.427E-05
CGA:  27    -0.676416511721E+03   -0.27507E-03    0.16520E-05  8424   0.793E-04 0.239E-04
CGA:  28    -0.676416890202E+03   -0.37848E-03    0.75971E-05  8424   0.169E-03-0.538E-04
CGA:  29    -0.676416957402E+03   -0.67200E-04   -0.54735E-04  8424   0.166E-03-0.136E-03
CGA:  30    -0.676416972265E+03   -0.14863E-04   -0.22191E-04  8424   0.744E-05 0.265E-04
CGA:  31    -0.676416989608E+03   -0.17343E-04    0.11162E-05  8424   0.203E-04-0.596E-05
CGA:  32    -0.676417025511E+03   -0.35903E-04    0.32888E-05  8424   0.410E-04-0.222E-04
CGA:  33    -0.676417032552E+03   -0.70408E-05   -0.71110E-05  8424   0.352E-05 0.297E-06
  14 F= -.67641703E+03 E0= -.67641703E+03  d E =0.272025E-01  mag=     1.0000
       N       E                     dE             d eps       ncg     rms          ort
SDA:   1    -0.675775640495E+03    0.64139E+00    0.00000E+00  8424   0.215E+01 0.000E+00
CGA:   2    -0.676194082777E+03   -0.41844E+00   -0.41880E+00  8424   0.823E+00 0.579E-03
CGA:   3    -0.676373150239E+03   -0.17907E+00   -0.17899E+00  8424   0.289E+00-0.553E-03
CGA:   4    -0.676420800651E+03   -0.47650E-01   -0.47639E-01  8424   0.717E-01-0.145E-03
CGA:   5    -0.676433179116E+03   -0.12378E-01   -0.12397E-01  8424   0.139E-01 0.838E-04
CGA:   6    -0.676436032704E+03   -0.28536E-02   -0.28423E-02  8424   0.314E-02-0.810E-04
CGA:   7    -0.676436721090E+03   -0.68839E-03   -0.69018E-03  8424   0.925E-03 0.145E-04
CGA:   8    -0.676436942081E+03   -0.22099E-03   -0.22249E-03  8424   0.246E-03 0.154E-04
CGA:   9    -0.676437008908E+03   -0.66827E-04   -0.66982E-04  8424   0.767E-04 0.238E-05
CGA:  10    -0.676437020950E+03   -0.12043E-04   -0.15487E-04  8424   0.260E-04 0.270E-04
CGA:  11    -0.676437024127E+03   -0.31772E-05   -0.58439E-05  8424   0.119E-04 0.172E-04
  15 F= -.67643702E+03 E0= -.67643702E+03  d E =-.199916E-01  mag=     1.0000
       N       E                     dE             d eps       ncg     rms          ort
SDA:   1    -0.676425692111E+03    0.11329E-01    0.00000E+00  8424   0.332E-01 0.000E+00
CGA:   2    -0.676433704914E+03   -0.80128E-02   -0.80208E-02  8424   0.146E-01 0.116E-03
CGA:   3    -0.676436624124E+03   -0.29192E-02   -0.28925E-02  8424   0.419E-02-0.249E-03
CGA:   4    -0.676437324990E+03   -0.70087E-03   -0.69817E-03  8424   0.106E-02-0.214E-04
CGA:   5    -0.676437493435E+03   -0.16844E-03   -0.17292E-03  8424   0.195E-03 0.343E-04
CGA:   6    -0.676437534048E+03   -0.40613E-04   -0.41028E-04  8424   0.464E-04 0.494E-05
CGA:   7    -0.676437543892E+03   -0.98438E-05   -0.10212E-04  8424   0.155E-04 0.536E-05
  16 F= -.67643754E+03 E0= -.67643754E+03  d E =-.519765E-03  mag=     1.0000
       N       E                     dE             d eps       ncg     rms          ort
SDA:   1    -0.676392464667E+03    0.45069E-01    0.00000E+00  8424   0.125E+00 0.000E+00
CGA:   2    -0.676422058354E+03   -0.29594E-01   -0.29608E-01  8424   0.523E-01 0.269E-03
CGA:   3    -0.676432349968E+03   -0.10292E-01   -0.10239E-01  8424   0.156E-01-0.578E-03
CGA:   4    -0.676434985413E+03   -0.26354E-02   -0.26280E-02  8424   0.405E-02-0.682E-04
CGA:   5    -0.676435654442E+03   -0.66903E-03   -0.67752E-03  8424   0.727E-03 0.773E-04
CGA:   6    -0.676435806648E+03   -0.15221E-03   -0.15238E-03  8424   0.175E-03 0.257E-05
CGA:   7    -0.676435845635E+03   -0.38987E-04   -0.39346E-04  8424   0.578E-04 0.807E-05
CGA:   8    -0.676435861885E+03   -0.16250E-04   -0.32137E-04  8424   0.120E-03-0.600E-04
CGA:   9    -0.676435876850E+03   -0.14966E-04   -0.17355E-04  8424   0.143E-04 0.177E-04
CGA:  10    -0.676435880305E+03   -0.34549E-05   -0.36166E-05  8424   0.425E-05 0.309E-05
  17 F= -.67643588E+03 E0= -.67643588E+03  d E =0.166359E-02  mag=     1.0000
       N       E                     dE             d eps       ncg     rms          ort
SDA:   1    -0.676429794137E+03    0.60827E-02    0.00000E+00  8424   0.966E-02 0.000E+00
CGA:   2    -0.676432486926E+03   -0.26928E-02   -0.26924E-02  8424   0.419E-02 0.728E-04
CGA:   3    -0.676433325479E+03   -0.83855E-03   -0.82232E-03  8424   0.123E-02-0.206E-03
CGA:   4    -0.676433516894E+03   -0.19141E-03   -0.19235E-03  8424   0.268E-03 0.868E-05
CGA:   5    -0.676433557720E+03   -0.40826E-04   -0.42516E-04  8424   0.514E-04 0.158E-04
CGA:   6    -0.676433573666E+03   -0.15946E-04   -0.18545E-04  8424   0.492E-04-0.318E-04
