       N       E                     dE             d eps       ncg     rms          ort
DAV:   1     0.827980283114E+04    0.82798E+04   -0.24678E+05  8424   0.239E+03
DAV:   2     0.916011768095E+03   -0.73638E+04   -0.69123E+04  8424   0.659E+02
DAV:   3    -0.678640510672E+03   -0.15947E+04   -0.14031E+04  8424   0.282E+02
DAV:   4    -0.834126846581E+03   -0.15549E+03   -0.15281E+03  8424   0.854E+01
DAV:   5    -0.836635055636E+03   -0.25082E+01   -0.24967E+01  8424   0.122E+01
SDA:   6    -0.277319582580E+03    0.55932E+03   -0.24967E+01  8424   0.389E+04 0.000E+00
CGA:   7    -0.577630178098E+03   -0.30031E+03   -0.37888E+03  8424   0.493E+04-0.225E+03
CGA:   8    -0.579267171885E+03   -0.16370E+01   -0.24710E+03  8424   0.686E+03-0.121E+04
CGA:   9    -0.597719716514E+03   -0.18453E+02   -0.35649E+02  8424   0.187E+04-0.108E+03
CGA:  10    -0.607126293871E+03   -0.94066E+01   -0.66459E+02  8424   0.942E+03-0.277E+03
CGA:  11    -0.643020591354E+03   -0.35894E+02   -0.15086E+02  8424   0.321E+03-0.143E+03
CGA:  12    -0.654192152922E+03   -0.11172E+02   -0.85850E+01  8424   0.868E+02 0.804E+02
CGA:  13    -0.657513081275E+03   -0.33209E+01   -0.20983E+01  8424   0.653E+02 0.598E+02
CGA:  14    -0.664212660181E+03   -0.66996E+01   -0.75094E+01  8424   0.108E+03 0.617E+01
CGA:  15    -0.667758961904E+03   -0.35463E+01   -0.43156E+01  8424   0.427E+02 0.605E+00
CGA:  16    -0.668802107992E+03   -0.10431E+01   -0.23481E+01  8424   0.545E+02-0.199E+02
CGA:  17    -0.668534228729E+03    0.26788E+00   -0.14265E+01  8424   0.105E+03-0.204E+02
CGA:  18    -0.669655829382E+03   -0.11216E+01   -0.24890E+01  8424   0.284E+02-0.420E+02
CGA:  19    -0.670258618503E+03   -0.60279E+00   -0.84632E+00  8424   0.173E+02-0.332E+01
CGA:  20    -0.672117864390E+03   -0.18592E+01   -0.18725E+01  8424   0.116E+02 0.115E+01
CGA:  21    -0.672963339033E+03   -0.84547E+00   -0.72347E+00  8424   0.354E+01 0.162E+01
CGA:  22    -0.673277017295E+03   -0.31368E+00   -0.34409E+00  8424   0.614E+01 0.584E-01
CGA:  23    -0.673616728440E+03   -0.33971E+00   -0.32930E+00  8424   0.238E+01 0.636E-01
CGA:  24    -0.673690559485E+03   -0.73831E-01   -0.10178E+00  8424   0.221E+01-0.566E+00
CGA:  25    -0.673849394740E+03   -0.15884E+00   -0.16004E+00  8424   0.166E+01 0.917E-01
CGA:  26    -0.673917253061E+03   -0.67858E-01   -0.89398E-01  8424   0.145E+01-0.242E+00
CGA:  27    -0.674035886193E+03   -0.11863E+00   -0.12252E+00  8424   0.975E+00 0.133E+00
CGA:  28    -0.674104438558E+03   -0.68552E-01   -0.68914E-01  8424   0.393E+00-0.166E-01
CGA:  29    -0.674188418245E+03   -0.83980E-01   -0.84931E-01  8424   0.191E+00-0.168E-01
CGA:  30    -0.674210805216E+03   -0.22387E-01   -0.22390E-01  8424   0.156E+00-0.774E-02
CGA:  31    -0.674230237773E+03   -0.19433E-01   -0.19693E-01  8424   0.668E-01-0.164E-01
CGA:  32    -0.674243781043E+03   -0.13543E-01   -0.16590E-01  8424   0.719E-01-0.209E-01
CGA:  33    -0.674249210879E+03   -0.54298E-02   -0.54331E-02  8424   0.312E-01-0.145E-02
CGA:  34    -0.674253511705E+03   -0.43008E-02   -0.42087E-02  8424   0.217E-01 0.445E-02
CGA:  35    -0.674258414505E+03   -0.49028E-02   -0.47702E-02  8424   0.103E-01 0.186E-02
CGA:  36    -0.674259985096E+03   -0.15706E-02   -0.15587E-02  8424   0.100E-01 0.844E-03
CGA:  37    -0.674261731601E+03   -0.17465E-02   -0.16813E-02  8424   0.422E-02 0.223E-02
CGA:  38    -0.674262704011E+03   -0.97241E-03   -0.89293E-03  8424   0.472E-02 0.170E-02
CGA:  39    -0.674263949680E+03   -0.12457E-02   -0.11942E-02  8424   0.381E-02 0.963E-03
CGA:  40    -0.674264860511E+03   -0.91083E-03   -0.91296E-03  8424   0.457E-02-0.105E-03
CGA:  41    -0.674265659945E+03   -0.79943E-03   -0.78435E-03  8424   0.443E-02 0.224E-03
CGA:  42    -0.674266329118E+03   -0.66917E-03   -0.66642E-03  8424   0.494E-02 0.345E-03
CGA:  43    -0.674267808106E+03   -0.14790E-02   -0.15890E-02  8424   0.712E-02-0.109E-02
SDA:  44    -0.674268594216E+03   -0.78611E-03   -0.12796E-02  8424   0.176E-01-0.597E-02
CGA:  45    -0.674271684634E+03   -0.30904E-02   -0.30659E-02  8424   0.127E-01 0.599E-03
CGA:  46    -0.674274187012E+03   -0.25024E-02   -0.60222E-02  8424   0.404E-01-0.137E-01
CGA:  47    -0.674277204258E+03   -0.30172E-02   -0.34141E-02  8424   0.470E-02 0.693E-04
CGA:  48    -0.674278108742E+03   -0.90448E-03   -0.90489E-03  8424   0.422E-02-0.274E-04
CGA:  49    -0.674278809812E+03   -0.70107E-03   -0.70303E-03  8424   0.252E-02-0.651E-03
CGA:  50    -0.674279537151E+03   -0.72734E-03    0.47206E-02  8424   0.142E-02 0.120E-02
CGA:  51    -0.674280292152E+03   -0.75500E-03    0.18106E-02  8424   0.143E-02 0.131E-02
CGA:  52    -0.674280602174E+03   -0.31002E-03   -0.49722E-03  8424   0.727E-02-0.103E-02
CGA:  53    -0.674281156653E+03   -0.55448E-03   -0.54090E-03  8424   0.941E-03-0.950E-04
CGA:  54    -0.674280706758E+03    0.44990E-03   -0.35113E-03  8424   0.276E-01-0.154E-02
CGA:  55    -0.674283097383E+03   -0.23906E-02   -0.20180E-02  8424   0.223E-02 0.273E-02
CGA:  56    -0.674283422752E+03   -0.32537E-03   -0.30332E-03  8424   0.124E-02-0.107E-03
CGA:  57    -0.674283918120E+03   -0.49537E-03   -0.54606E-03  8424   0.576E-02-0.296E-03
CGA:  58    -0.674274847277E+03    0.90708E-02   -0.52117E-02  8424   0.299E+00-0.119E-01
CGA:  59    -0.674301161111E+03   -0.26314E-01   -0.33504E-01  8424   0.553E-01-0.548E-01
CGA:  60    -0.674306572497E+03   -0.54114E-02   -0.52541E-02  8424   0.826E-02 0.112E-02
CGA:  61    -0.674307369077E+03   -0.79658E-03   -0.11177E-02  8424   0.365E-02-0.282E-03
CGA:  62    -0.674308013521E+03   -0.64444E-03   -0.72660E-03  8424   0.132E-02 0.294E-03
CGA:  63    -0.674308413619E+03   -0.40010E-03   -0.39365E-03  8424   0.244E-02-0.477E-04
CGA:  64    -0.674308884252E+03   -0.47063E-03   -0.50602E-03  8424   0.287E-02 0.930E-04
CGA:  65    -0.674310278416E+03   -0.13942E-02   -0.13927E-02  8424   0.637E-02-0.496E-07
CGA:  66    -0.674311864866E+03   -0.15864E-02   -0.13367E-02  8424   0.110E-01-0.756E-03
CGA:  67    -0.674315354143E+03   -0.34893E-02   -0.34871E-02  8424   0.123E-01-0.282E-02
CGA:  68    -0.674317879255E+03   -0.25251E-02   -0.17228E-02  8424   0.190E-01-0.230E-02
CGA:  69    -0.674323934910E+03   -0.60557E-02   -0.46369E-02  8424   0.328E-01-0.102E-01
CGA:  70    -0.674328953348E+03   -0.50184E-02   -0.49368E-02  8424   0.105E-01-0.140E-02
CGA:  71    -0.674332125864E+03   -0.31725E-02   -0.30393E-02  8424   0.173E-01-0.953E-03
CGA:  72    -0.674336692231E+03   -0.45664E-02   -0.41143E-02  8424   0.850E-02-0.250E-02
CGA:  73    -0.674338981781E+03   -0.22895E-02   -0.21499E-02  8424   0.761E-02-0.190E-02
CGA:  74    -0.674339978388E+03   -0.99661E-03   -0.79525E-03  8424   0.306E-02-0.293E-03
CGA:  75    -0.674340956368E+03   -0.97798E-03   -0.92714E-03  8424   0.348E-02-0.939E-03
CGA:  76    -0.674341547001E+03   -0.59063E-03   -0.37205E-03  8424   0.241E-02-0.100E-02
CGA:  77    -0.674341950790E+03   -0.40379E-03   -0.10033E-02  8424   0.105E-01-0.268E-02
CGA:  78    -0.674343080464E+03   -0.11297E-02   -0.12851E-02  8424   0.207E-02 0.594E-03
CGA:  79    -0.674343361917E+03   -0.28145E-03   -0.33420E-03  8424   0.109E-02 0.256E-03
CGA:  80    -0.674343653589E+03   -0.29167E-03   -0.31199E-03  8424   0.422E-03 0.217E-03
CGA:  81    -0.674343823297E+03   -0.16971E-03   -0.16931E-03  8424   0.837E-03-0.615E-04
CGA:  82    -0.674344069751E+03   -0.24645E-03   -0.30596E-03  8424   0.253E-02-0.715E-03
CGA:  83    -0.674344464926E+03   -0.39517E-03   -0.39596E-03  8424   0.120E-02-0.185E-05
CGA:  84    -0.674344798182E+03   -0.33326E-03   -0.28163E-03  8424   0.124E-02-0.510E-03
CGA:  85    -0.674345335537E+03   -0.53736E-03    0.88148E-03  8424   0.117E-02-0.416E-03
CGA:  86    -0.674345870952E+03   -0.53541E-03    0.32285E-02  8424   0.172E-02-0.603E-03
CGA:  87    -0.674346141754E+03   -0.27080E-03   -0.26204E-03  8424   0.103E-02-0.959E-04
CGA:  88    -0.674346413552E+03   -0.27180E-03   -0.27037E-03  8424   0.564E-03-0.334E-04
CGA:  89    -0.674346588724E+03   -0.17517E-03   -0.22574E-03  8424   0.219E-02-0.545E-03
CGA:  90    -0.674346829471E+03   -0.24075E-03   -0.20496E-03  8424   0.335E-03-0.153E-03
CGA:  91    -0.674347037746E+03   -0.20828E-03    0.72048E-03  8424   0.368E-03 0.353E-04
CGA:  92    -0.674347406866E+03   -0.36912E-03    0.14253E-03  8424   0.592E-03-0.369E-04
CGA:  93    -0.674348137830E+03   -0.73096E-03    0.70233E-04  8424   0.656E-03-0.173E-04
CGA:  94    -0.674349095792E+03   -0.95796E-03    0.71134E-04  8424   0.529E-03 0.500E-03
CGA:  95    -0.674349269940E+03   -0.17415E-03   -0.17350E-03  8424   0.637E-03 0.435E-04
CGA:  96    -0.674349488492E+03   -0.21855E-03   -0.22851E-03  8424   0.131E-02-0.581E-03
CGA:  97    -0.674349625920E+03   -0.13743E-03   -0.13068E-03  8424   0.267E-03-0.482E-04
CGA:  98    -0.674349894254E+03   -0.26833E-03    0.54301E-04  8424   0.195E-03 0.884E-04
CGA:  99    -0.674350177822E+03   -0.28357E-03    0.49626E-04  8424   0.528E-03-0.429E-04
CGA: 100    -0.674350926035E+03   -0.74821E-03    0.31523E-04  8424   0.911E-03-0.669E-04
CGA: 101    -0.674352008246E+03   -0.10822E-02    0.97790E-04  8424   0.493E-02-0.117E-02
CGA: 102    -0.674352522874E+03   -0.51463E-03   -0.50053E-03  8424   0.133E-02-0.198E-03
CGA: 103    -0.674352978404E+03   -0.45553E-03   -0.46143E-03  8424   0.720E-03-0.909E-04
CGA: 104    -0.674353056791E+03   -0.78386E-04   -0.74710E-04  8424   0.151E-03-0.252E-04
CGA: 105    -0.674353224178E+03   -0.16739E-03    0.21222E-04  8424   0.115E-03 0.468E-04
CGA: 106    -0.674353502246E+03   -0.27807E-03    0.97400E-05  8424   0.110E-03 0.129E-03
CGA: 107    -0.674353621293E+03   -0.11905E-03    0.18153E-04  8424   0.194E-03 0.923E-05
CGA: 108    -0.674353968716E+03   -0.34742E-03    0.16209E-04  8424   0.238E-03 0.712E-04
CGA: 109    -0.674354544172E+03   -0.57546E-03    0.22540E-04  8424   0.163E-03 0.248E-03
CGA: 110    -0.674354301164E+03    0.24301E-03   -0.14840E-03  8424   0.612E-02-0.629E-03
CGA: 111    -0.674354949766E+03   -0.64860E-03   -0.57035E-03  8424   0.216E-03-0.368E-03
CGA: 112    -0.674352701591E+03    0.22482E-02   -0.12301E-02  8424   0.236E-01-0.156E-02
CGA: 113    -0.674355407256E+03   -0.27057E-02   -0.25541E-02  8424   0.331E-02-0.947E-03
CGA: 114    -0.674355953775E+03   -0.54652E-03   -0.51390E-03  8424   0.285E-03-0.102E-03
CGA: 115    -0.674356022631E+03   -0.68856E-04   -0.40573E-04  8424   0.191E-03-0.750E-04
CGA: 116    -0.674356353364E+03   -0.33073E-03    0.26345E-04  8424   0.148E-03 0.208E-04
CGA: 117    -0.674356840573E+03   -0.48721E-03    0.21109E-04  8424   0.171E-03 0.844E-04
CGA: 118    -0.674356926269E+03   -0.85695E-04   -0.46150E-04  8424   0.639E-03-0.173E-03
CGA: 119    -0.674357003937E+03   -0.77668E-04   -0.56356E-04  8424   0.724E-04-0.543E-04
CGA: 120    -0.674357213856E+03   -0.20992E-03    0.65617E-05  8424   0.128E-03 0.336E-04
CGA: 121    -0.674357754348E+03   -0.54049E-03    0.21323E-04  8424   0.632E-03 0.516E-05
CGA: 122    -0.674360615831E+03   -0.28615E-02    0.42556E-04  8424   0.147E-02 0.391E-03
CGA: 123    -0.674360750150E+03   -0.13432E-03   -0.13507E-03  8424   0.236E-03-0.297E-04
CGA: 124    -0.674360967735E+03   -0.21759E-03    0.11922E-02  8424   0.324E-03-0.578E-04
CGA: 125    -0.674361098782E+03   -0.13105E-03   -0.92921E-04  8424   0.158E-02-0.539E-03
CGA: 126    -0.674361255551E+03   -0.15677E-03   -0.14111E-03  8424   0.244E-03-0.653E-05
CGA: 127    -0.674361513290E+03   -0.25774E-03    0.21966E-03  8424   0.242E-03-0.368E-04
CGA: 128    -0.674350117314E+03    0.11396E-01   -0.64067E-02  8424   0.150E+00-0.507E-02
CGA: 129    -0.674352441864E+03   -0.23245E-02   -0.22650E-01  8424   0.126E+00-0.121E+00
CGA: 130    -0.674361897203E+03   -0.94553E-02   -0.13017E-01  8424   0.194E-01-0.442E-01
CGA: 131    -0.674363486238E+03   -0.15890E-02   -0.16333E-02  8424   0.184E-02-0.274E-04
CGA: 132    -0.674363715840E+03   -0.22960E-03   -0.23477E-03  8424   0.665E-03 0.792E-04
CGA: 133    -0.674364001089E+03   -0.28525E-03   -0.23294E-03  8424   0.327E-03-0.162E-03
CGA: 134    -0.674364051174E+03   -0.50086E-04   -0.28690E-04  8424   0.886E-04-0.459E-04
CGA: 135    -0.674364302813E+03   -0.25164E-03    0.14120E-04  8424   0.577E-03-0.448E-04
CGA: 136    -0.674364390085E+03   -0.87272E-04   -0.53549E-04  8424   0.748E-04-0.827E-04
CGA: 137    -0.674364587506E+03   -0.19742E-03    0.11851E-04  8424   0.564E-03-0.614E-04
CGA: 138    -0.674364647319E+03   -0.59813E-04   -0.45345E-04  8424   0.466E-04-0.269E-04
CGA: 139    -0.674364822083E+03   -0.17476E-03    0.50797E-05  8424   0.214E-03-0.170E-04
CGA: 140    -0.674365775034E+03   -0.95295E-03    0.74163E-05  8424   0.747E-03-0.580E-04
CGA: 141    -0.674369356119E+03   -0.35811E-02    0.32084E-04  8424   0.328E-02-0.561E-03
CGA: 142    -0.674369930199E+03   -0.57408E-03   -0.56437E-03  8424   0.783E-03-0.231E-04
CGA: 143    -0.674370172786E+03   -0.24259E-03   -0.20125E-03  8424   0.244E-03-0.145E-03
CGA: 144    -0.674370236539E+03   -0.63752E-04   -0.25270E-04  8424   0.126E-03-0.968E-04
CGA: 145    -0.674370491114E+03   -0.25458E-03    0.85260E-05  8424   0.149E-03-0.240E-04
CGA: 146    -0.674370860332E+03   -0.36922E-03    0.15610E-04  8424   0.715E-03-0.120E-03
CGA: 147    -0.674370930949E+03   -0.70617E-04   -0.64762E-04  8424   0.921E-04-0.148E-04
CGA: 148    -0.674370468801E+03    0.46215E-03   -0.12840E-03  8424   0.809E-02-0.635E-03
CGA: 149    -0.674371212604E+03   -0.74380E-03   -0.73236E-03  8424   0.758E-03-0.632E-04
CGA: 150    -0.674371361605E+03   -0.14900E-03   -0.10709E-03  8424   0.232E-03-0.113E-03
CGA: 151    -0.674370265267E+03    0.10963E-02   -0.31715E-03  8424   0.122E-01-0.128E-02
CGA: 152    -0.674371537293E+03   -0.12720E-02   -0.12932E-02  8424   0.286E-02-0.157E-03
CGA: 153    -0.674371972153E+03   -0.43486E-03   -0.45568E-03  8424   0.701E-03 0.547E-04
CGA: 154    -0.674372097837E+03   -0.12568E-03   -0.11586E-03  8424   0.481E-04-0.284E-04
CGA: 155    -0.674372237004E+03   -0.13917E-03    0.55626E-05  8424   0.660E-04-0.648E-05
CGA: 156    -0.674372524667E+03   -0.28766E-03    0.34410E-05  8424   0.299E-03-0.444E-04
CGA: 157    -0.674372564630E+03   -0.39962E-04   -0.31117E-04  8424   0.862E-04-0.231E-04
CGA: 158    -0.674372699461E+03   -0.13483E-03    0.24014E-04  8424   0.246E-03-0.627E-04
CGA: 159    -0.674372754316E+03   -0.54855E-04   -0.31368E-04  8424   0.992E-04-0.682E-04
CGA: 160    -0.674372899205E+03   -0.14489E-03    0.13519E-04  8424   0.575E-03-0.123E-03
CGA: 161    -0.674372955586E+03   -0.56381E-04   -0.49702E-04  8424   0.595E-04-0.181E-04
CGA: 162    -0.674373029462E+03   -0.73876E-04    0.27376E-04  8424   0.324E-03-0.799E-04
CGA: 163    -0.674373087495E+03   -0.58033E-04   -0.37386E-04  8424   0.753E-04-0.647E-04
CGA: 164    -0.674373196829E+03   -0.10933E-03    0.11086E-04  8424   0.601E-03-0.122E-03
CGA: 165    -0.674373253097E+03   -0.56268E-04   -0.48599E-04  8424   0.410E-04-0.221E-04
CGA: 166    -0.674373333459E+03   -0.80362E-04    0.52988E-05  8424   0.192E-03-0.424E-04
CGA: 167    -0.674373381697E+03   -0.48238E-04   -0.27165E-04  8424   0.965E-04-0.804E-04
CGA: 168    -0.674373512171E+03   -0.13047E-03    0.56129E-05  8424   0.432E-03-0.850E-04
CGA: 169    -0.674373559478E+03   -0.47307E-04   -0.38073E-04  8424   0.452E-04-0.307E-04
CGA: 170    -0.674373636667E+03   -0.77188E-04    0.54950E-05  8424   0.238E-03-0.539E-04
CGA: 171    -0.674373680890E+03   -0.44224E-04   -0.26939E-04  8424   0.686E-04-0.660E-04
CGA: 172    -0.674373786861E+03   -0.10597E-03    0.46652E-05  8424   0.293E-03-0.631E-04
CGA: 173    -0.674373824722E+03   -0.37861E-04   -0.27199E-04  8424   0.429E-04-0.397E-04
CGA: 174    -0.674373907919E+03   -0.83197E-04    0.29584E-05  8424   0.165E-03-0.330E-04
CGA: 175    -0.674373946961E+03   -0.39042E-04   -0.21478E-04  8424   0.955E-04-0.801E-04
CGA: 176    -0.674374075086E+03   -0.12812E-03    0.29356E-05  8424   0.172E-03-0.319E-04
CGA: 177    -0.674374403374E+03   -0.32829E-03    0.60095E-05  8424   0.447E-04 0.351E-04
CGA: 178    -0.674374553681E+03   -0.15031E-03    0.29335E-05  8424   0.839E-04-0.510E-05
CGA: 179    -0.674374928249E+03   -0.37457E-03    0.19606E-05  8424   0.185E-03 0.294E-04
CGA: 180    -0.674375884121E+03   -0.95587E-03    0.91335E-05  8424   0.223E-03 0.651E-04
CGA: 181    -0.674377164282E+03   -0.12802E-02    0.97026E-05  8424   0.761E-04 0.153E-03
CGA: 182    -0.674375703246E+03    0.14610E-02   -0.79944E-03  8424   0.140E-01-0.884E-03
CGA: 183    -0.674377460742E+03   -0.17575E-02   -0.16801E-02  8424   0.192E-02-0.177E-03
CGA: 184    -0.674377686233E+03   -0.22549E-03   -0.18793E-03  8424   0.144E-03-0.754E-04
CGA: 185    -0.674377760221E+03   -0.73988E-04   -0.36667E-04  8424   0.198E-03-0.123E-03
CGA: 186    -0.674377795493E+03   -0.35272E-04   -0.23824E-04  8424   0.450E-04-0.271E-04
CGA: 187    -0.674377888532E+03   -0.93039E-04    0.82578E-05  8424   0.642E-03-0.988E-04
CGA: 188    -0.674377950093E+03   -0.61561E-04   -0.51159E-04  8424   0.415E-04-0.213E-04
CGA: 189    -0.674378056763E+03   -0.10667E-03    0.63472E-05  8424   0.293E-03-0.665E-04
CGA: 190    -0.674378099527E+03   -0.42763E-04   -0.32543E-04  8424   0.564E-04-0.263E-04
CGA: 191    -0.674378161032E+03   -0.61506E-04    0.56221E-04  8424   0.698E-03-0.137E-03
CGA: 192    -0.674378235281E+03   -0.74248E-04   -0.59635E-04  8424   0.632E-04-0.352E-04
CGA: 193    -0.674378323460E+03   -0.88180E-04    0.24949E-04  8424   0.481E-03-0.124E-03
CGA: 194    -0.674378377232E+03   -0.53772E-04   -0.47408E-04  8424   0.676E-04-0.178E-04
CGA: 195    -0.674378307943E+03    0.69289E-04   -0.52532E-04  8424   0.265E-02-0.343E-03
CGA: 196    -0.674378558945E+03   -0.25100E-03   -0.23269E-03  8424   0.240E-03-0.418E-04
CGA: 197    -0.674378633494E+03   -0.74549E-04   -0.41869E-04  8424   0.111E-03-0.121E-03
CGA: 198    -0.674378666034E+03   -0.32540E-04   -0.17465E-04  8424   0.801E-04-0.543E-04
CGA: 199    -0.674378790531E+03   -0.12450E-03    0.33415E-05  8424   0.353E-03-0.674E-04
CGA: 200    -0.674378845765E+03   -0.55234E-04   -0.38318E-04  8424   0.660E-04-0.543E-04
   1 F= -.67437885E+03 E0= -.67437351E+03  d E =-.674379E+03  mag=     7.0264
       N       E                     dE             d eps       ncg     rms          ort
SDA:   1    -0.674375977603E+03    0.28129E-02    0.00000E+00  8424   0.779E-01 0.000E+00
CGA:   2    -0.674381225003E+03   -0.52474E-02   -0.57113E-02  8424   0.273E-02-0.675E-02
CGA:   3    -0.674381619267E+03   -0.39426E-03   -0.37945E-03  8424   0.103E-02-0.631E-04
CGA:   4    -0.674381847739E+03   -0.22847E-03   -0.20516E-03  8424   0.558E-03-0.141E-03
CGA:   5    -0.674381951393E+03   -0.10365E-03   -0.77922E-04  8424   0.178E-03-0.125E-03
CGA:   6    -0.674380967114E+03    0.98428E-03   -0.19151E-03  8424   0.160E-01-0.115E-02
CGA:   7    -0.674382165408E+03   -0.11983E-02   -0.11860E-02  8424   0.103E-02 0.587E-04
CGA:   8    -0.674382439858E+03   -0.27445E-03   -0.25535E-03  8424   0.260E-03-0.131E-03
CGA:   9    -0.674382525368E+03   -0.85511E-04   -0.11428E-03  8424   0.743E-03-0.247E-03
CGA:  10    -0.674382645923E+03   -0.12055E-03   -0.94272E-04  8424   0.169E-03-0.100E-03
CGA:  11    -0.674382701926E+03   -0.56003E-04   -0.31379E-04  8424   0.294E-03-0.151E-03
CGA:  12    -0.674382739888E+03   -0.37962E-04   -0.26778E-04  8424   0.440E-04-0.415E-04
CGA:  13    -0.674382810094E+03   -0.70206E-04    0.41911E-05  8424   0.131E-03-0.338E-04
CGA:  14    -0.674382851878E+03   -0.41784E-04   -0.21274E-04  8424   0.170E-03-0.106E-03
CGA:  15    -0.674382877880E+03   -0.26003E-04   -0.15599E-04  8424   0.297E-04-0.410E-04
CGA:  16    -0.674382957253E+03   -0.79373E-04    0.88176E-06  8424   0.484E-04 0.177E-06
CGA:  17    -0.674383158221E+03   -0.20097E-03    0.15668E-05  8424   0.539E-04 0.164E-04
CGA:  18    -0.674383450083E+03   -0.29186E-03    0.23793E-05  8424   0.147E-03 0.448E-05
CGA:  19    -0.674384338986E+03   -0.88890E-03    0.36047E-05  8424   0.324E-04 0.142E-03
CGA:  20    -0.674384382250E+03   -0.43264E-04    0.54141E-05  8424   0.260E-03-0.565E-04
CGA:  21    -0.674384421639E+03   -0.39390E-04   -0.23512E-04  8424   0.381E-04-0.666E-04
CGA:  22    -0.674384495734E+03   -0.74094E-04    0.14857E-05  8424   0.887E-04-0.152E-04
CGA:  23    -0.674384738036E+03   -0.24230E-03    0.14183E-05  8424   0.233E-04 0.361E-04
CGA:  24    -0.674384849603E+03   -0.11157E-03    0.12269E-05  8424   0.402E-04 0.499E-05
CGA:  25    -0.674385125602E+03   -0.27600E-03    0.10073E-05  8424   0.801E-04 0.249E-04
CGA:  26    -0.674385194514E+03   -0.68912E-04    0.38152E-04  8424   0.437E-03-0.135E-03
CGA:  27    -0.674385227520E+03   -0.33006E-04   -0.33120E-04  8424   0.253E-04 0.196E-06
CGA:  28    -0.674385269881E+03   -0.42361E-04    0.22923E-05  8424   0.501E-04-0.129E-04
CGA:  29    -0.674385352482E+03   -0.82601E-04    0.46608E-05  8424   0.149E-03-0.592E-04
CGA:  30    -0.674385371113E+03   -0.18632E-04   -0.16120E-04  8424   0.293E-04-0.129E-04
CGA:  31    -0.674385417915E+03   -0.46802E-04    0.20753E-05  8424   0.104E-03-0.249E-04
CGA:  32    -0.674385334019E+03    0.83896E-04   -0.58438E-04  8424   0.358E-02-0.546E-03
CGA:  33    -0.674385573154E+03   -0.23914E-03   -0.25465E-03  8424   0.883E-04 0.715E-04
CGA:  34    -0.674385586793E+03   -0.13638E-04   -0.12422E-04  8424   0.150E-04-0.759E-05
CGA:  35    -0.674385654575E+03   -0.67782E-04    0.26861E-06  8424   0.168E-04 0.102E-04
CGA:  36    -0.674385714166E+03   -0.59591E-04    0.48486E-06  8424   0.689E-04-0.900E-05
CGA:  37    -0.674385737657E+03   -0.23491E-04   -0.15385E-04  8424   0.295E-03-0.118E-03
CGA:  38    -0.674385772329E+03   -0.34672E-04   -0.24615E-04  8424   0.227E-04-0.490E-04
CGA:  39    -0.674385833376E+03   -0.61047E-04    0.55153E-06  8424   0.415E-04-0.189E-05
CGA:  40    -0.674385996987E+03   -0.16361E-03    0.78705E-06  8424   0.113E-04 0.288E-04
CGA:  41    -0.674386043431E+03   -0.46445E-04    0.24504E-06  8424   0.136E-04 0.803E-05
CGA:  42    -0.674386104841E+03   -0.61409E-04    0.26595E-06  8424   0.320E-04 0.161E-05
CGA:  43    -0.674386295355E+03   -0.19051E-03    0.58426E-06  8424   0.299E-04 0.274E-04
CGA:  44    -0.674386314829E+03   -0.19474E-04    0.24466E-04  8424   0.386E-04-0.136E-04
CGA:  45    -0.674386432101E+03   -0.11727E-03    0.32452E-06  8424   0.556E-04 0.157E-04
CGA:  46    -0.674386704554E+03   -0.27245E-03    0.20673E-05  8424   0.381E-04 0.141E-04
CGA:  47    -0.674386906623E+03   -0.20207E-03    0.10070E-05  8424   0.196E-04 0.376E-04
CGA:  48    -0.674386948877E+03   -0.42254E-04    0.95219E-06  8424   0.418E-04-0.662E-05
CGA:  49    -0.674387089032E+03   -0.14016E-03    0.47663E-06  8424   0.749E-04 0.877E-05
CGA:  50    -0.674387445066E+03   -0.35603E-03    0.20828E-05  8424   0.138E-03 0.275E-04
CGA:  51    -0.674388201761E+03   -0.75670E-03    0.42589E-05  8424   0.158E-03 0.262E-04
CGA:  52    -0.674389053929E+03   -0.85217E-03    0.36726E-05  8424   0.134E-03 0.130E-03
CGA:  53    -0.674389067432E+03   -0.13503E-04   -0.13556E-04  8424   0.212E-04 0.400E-06
CGA:  54    -0.674389121218E+03   -0.53786E-04    0.78044E-06  8424   0.195E-04-0.118E-05
CGA:  55    -0.674389226040E+03   -0.10482E-03    0.26104E-06  8424   0.217E-04 0.148E-04
CGA:  56    -0.674389271777E+03   -0.45738E-04    0.10100E-05  8424   0.320E-04-0.374E-05
CGA:  57    -0.674389389198E+03   -0.11742E-03    0.49539E-06  8424   0.482E-04-0.363E-05
CGA:  58    -0.674389617224E+03   -0.22803E-03    0.64877E-06  8424   0.550E-04 0.361E-04
CGA:  59    -0.674389653026E+03   -0.35802E-04    0.35591E-04  8424   0.141E-03-0.495E-04
CGA:  60    -0.674389694911E+03   -0.41885E-04   -0.27693E-04  8424   0.333E-03-0.196E-03
CGA:  61    -0.674389720283E+03   -0.25372E-04   -0.25780E-04  8424   0.966E-05-0.192E-06
CGA:  62    -0.674389764084E+03   -0.43800E-04    0.15806E-06  8424   0.146E-04 0.597E-05
CGA:  63    -0.674389813826E+03   -0.49742E-04    0.33177E-06  8424   0.425E-04-0.628E-05
CGA:  64    -0.674389990276E+03   -0.17645E-03    0.23524E-06  8424   0.121E-03 0.166E-04
CGA:  65    -0.674390528880E+03   -0.53860E-03    0.41303E-05  8424   0.146E-03 0.242E-04
CGA:  66    -0.674391258712E+03   -0.72983E-03    0.31485E-05  8424   0.638E-04 0.997E-04
CGA:  67    -0.674389630686E+03    0.16280E-02   -0.90779E-03  8424   0.281E-01-0.124E-02
CGA:  68    -0.674391560510E+03   -0.19298E-02   -0.20241E-02  8424   0.519E-04-0.543E-03
CGA:  69    -0.674391578663E+03   -0.18153E-04   -0.77843E-05  8424   0.548E-04-0.349E-04
CGA:  70    -0.674391613598E+03   -0.34935E-04   -0.16365E-04  8424   0.471E-03-0.139E-03
CGA:  71    -0.674391650780E+03   -0.37181E-04   -0.34379E-04  8424   0.906E-05-0.266E-05
CGA:  72    -0.674391713572E+03   -0.62793E-04    0.24514E-06  8424   0.341E-04 0.167E-05
CGA:  73    -0.674392051792E+03   -0.33822E-03    0.89446E-06  8424   0.866E-05 0.353E-04
CGA:  74    -0.674392126042E+03   -0.74250E-04    0.18667E-06  8424   0.157E-04 0.471E-05
CGA:  75    -0.674392161597E+03   -0.35555E-04    0.18221E-05  8424   0.130E-03-0.235E-04
CGA:  76    -0.674392215385E+03   -0.53788E-04   -0.21628E-04  8424   0.183E-03-0.133E-03
CGA:  77    -0.674392229977E+03   -0.14592E-04   -0.13992E-04  8424   0.902E-05-0.301E-05
CGA:  78    -0.674392288496E+03   -0.58519E-04    0.22065E-06  8424   0.219E-04 0.342E-05
CGA:  79    -0.674392515624E+03   -0.22713E-03    0.65133E-06  8424   0.278E-04 0.194E-04
CGA:  80    -0.674392554743E+03   -0.39119E-04    0.62288E-05  8424   0.338E-03-0.742E-04
CGA:  81    -0.674392597930E+03   -0.43187E-04   -0.29360E-04  8424   0.222E-04-0.520E-04
CGA:  82    -0.674392641527E+03   -0.43597E-04    0.15916E-05  8424   0.128E-03-0.248E-04
CGA:  83    -0.674392674786E+03   -0.33260E-04   -0.15150E-04  8424   0.650E-04-0.736E-04
CGA:  84    -0.674392696119E+03   -0.21333E-04   -0.93703E-05  8424   0.786E-04-0.573E-04
CGA:  85    -0.674392718970E+03   -0.22851E-04   -0.10328E-04  8424   0.687E-04-0.594E-04
CGA:  86    -0.674392741004E+03   -0.22034E-04   -0.10101E-04  8424   0.901E-04-0.646E-04
CGA:  87    -0.674392762823E+03   -0.21820E-04   -0.10665E-04  8424   0.527E-04-0.547E-04
CGA:  88    -0.674392782508E+03   -0.19685E-04   -0.14297E-04  8424   0.418E-03-0.130E-03
CGA:  89    -0.674392821680E+03   -0.39171E-04   -0.31179E-04  8424   0.111E-04-0.341E-04
CGA:  90    -0.674392870890E+03   -0.49210E-04    0.21400E-06  8424   0.280E-04 0.215E-06
CGA:  91    -0.674393046543E+03   -0.17565E-03    0.45995E-06  8424   0.795E-05 0.256E-04
CGA:  92    -0.674393093811E+03   -0.47268E-04    0.13306E-06  8424   0.200E-04 0.296E-05
CGA:  93    -0.674393264683E+03   -0.17087E-03    0.43711E-06  8424   0.728E-05 0.231E-04
CGA:  94    -0.674393310925E+03   -0.46243E-04    0.11317E-06  8424   0.124E-04 0.500E-05
CGA:  95    -0.674393357246E+03   -0.46321E-04    0.35259E-06  8424   0.723E-04-0.126E-04
CGA:  96    -0.674393375755E+03   -0.18509E-04   -0.94154E-05  8424   0.629E-04-0.540E-04
CGA:  97    -0.674393398038E+03   -0.22283E-04   -0.14066E-04  8424   0.306E-03-0.123E-03
CGA:  98    -0.674393427747E+03   -0.29709E-04   -0.23270E-04  8424   0.113E-04-0.305E-04
CGA:  99    -0.674393472846E+03   -0.45099E-04    0.19965E-06  8424   0.231E-04 0.723E-06
CGA: 100    -0.674393611453E+03   -0.13861E-03    0.37156E-06  8424   0.659E-05 0.208E-04
CGA: 101    -0.674393655164E+03   -0.43710E-04    0.83196E-07  8424   0.680E-05 0.646E-05
CGA: 102    -0.674393699246E+03   -0.44082E-04    0.87930E-07  8424   0.889E-05 0.575E-05
CGA: 103    -0.674393739424E+03   -0.40178E-04    0.17164E-06  8424   0.291E-04-0.791E-06
CGA: 104    -0.674393925211E+03   -0.18579E-03    0.31565E-06  8424   0.415E-04 0.255E-04
CGA: 105    -0.674393957333E+03   -0.32122E-04    0.14445E-04  8424   0.321E-03-0.979E-04
CGA: 106    -0.674393983242E+03   -0.25908E-04   -0.23314E-04  8424   0.888E-05-0.130E-04
CGA: 107    -0.674394026299E+03   -0.43057E-04    0.13411E-06  8424   0.140E-04 0.310E-05
CGA: 108    -0.674394136998E+03   -0.11070E-03    0.25205E-06  8424   0.991E-05 0.154E-04
CGA: 109    -0.674394172643E+03   -0.35646E-04    0.22973E-06  8424   0.229E-04-0.987E-06
CGA: 110    -0.674394306060E+03   -0.13342E-03    0.24791E-06  8424   0.338E-04 0.146E-04
CGA: 111    -0.674394357298E+03   -0.51238E-04    0.24467E-05  8424   0.690E-04-0.343E-04
CGA: 112    -0.674394372390E+03   -0.15092E-04   -0.11585E-04  8424   0.393E-04-0.356E-04
CGA: 113    -0.674394421395E+03   -0.49005E-04    0.37279E-05  8424   0.155E-03-0.613E-04
CGA: 114    -0.674394433821E+03   -0.12426E-04   -0.12553E-04  8424   0.980E-05 0.974E-06
CGA: 115    -0.674394472691E+03   -0.38871E-04    0.18305E-06  8424   0.156E-04 0.910E-06
CGA: 116    -0.674394577813E+03   -0.10512E-03    0.19192E-06  8424   0.168E-04 0.154E-04
CGA: 117    -0.674394614661E+03   -0.36848E-04    0.63934E-06  8424   0.340E-04-0.105E-04
CGA: 118    -0.674394653706E+03   -0.39045E-04    0.33775E-05  8424   0.110E-03-0.455E-04
CGA: 119    -0.674394667989E+03   -0.14283E-04   -0.11121E-04  8424   0.176E-04-0.215E-04
CGA: 120    -0.674394717898E+03   -0.49909E-04    0.27916E-06  8424   0.231E-04-0.236E-05
CGA: 121    -0.674394811532E+03   -0.93633E-04    0.28681E-06  8424   0.102E-04 0.149E-04
CGA: 122    -0.674394841229E+03   -0.29698E-04    0.25508E-06  8424   0.293E-04-0.379E-05
CGA: 123    -0.674394974923E+03   -0.13369E-03    0.16343E-06  8424   0.734E-04 0.129E-04
CGA: 124    -0.674395380578E+03   -0.40566E-03    0.18956E-05  8424   0.140E-03 0.259E-05
CGA: 125    -0.674396198836E+03   -0.81826E-03    0.16904E-05  8424   0.116E-03 0.103E-03
CGA: 126    -0.674396206453E+03   -0.76165E-05   -0.90306E-05  8424   0.759E-05 0.831E-05
   2 F= -.67439621E+03 E0= -.67439090E+03  d E =-.173607E-01  mag=     7.0255
       N       E                     dE             d eps       ncg     rms          ort
SDA:   1    -0.672837756415E+03    0.15584E+01    0.00000E+00  8424   0.481E+01 0.000E+00
CGA:   2    -0.674020001445E+03   -0.11822E+01   -0.11800E+01  8424   0.190E+01 0.133E+00
CGA:   3    -0.674392229259E+03   -0.37223E+00   -0.35099E+00  8424   0.678E+00-0.110E+00
CGA:   4    -0.674503732690E+03   -0.11150E+00   -0.11175E+00  8424   0.138E+00 0.489E-02
CGA:   5    -0.674528773106E+03   -0.25040E-01   -0.24945E-01  8424   0.301E-01-0.193E-02
CGA:   6    -0.674533774143E+03   -0.50010E-02   -0.49440E-02  8424   0.133E-01-0.103E-02
CGA:   7    -0.674535576369E+03   -0.18022E-02   -0.17959E-02  8424   0.415E-02-0.959E-04
CGA:   8    -0.674536530418E+03   -0.95405E-03   -0.95640E-03  8424   0.170E-02-0.215E-03
CGA:   9    -0.674536906582E+03   -0.37616E-03   -0.37576E-03  8424   0.594E-03 0.330E-04
CGA:  10    -0.674537045587E+03   -0.13900E-03   -0.13887E-03  8424   0.429E-03 0.194E-04
CGA:  11    -0.674537152926E+03   -0.10734E-03   -0.13689E-03  8424   0.856E-03-0.345E-03
CGA:  12    -0.674537248884E+03   -0.95958E-04   -0.85245E-04  8424   0.183E-03-0.865E-04
CGA:  13    -0.674536351603E+03    0.89728E-03   -0.48354E-03  8424   0.995E-02-0.963E-03
CGA:  14    -0.674537261810E+03   -0.91021E-03   -0.92774E-03  8424   0.163E-02-0.116E-03
CGA:  15    -0.674537524938E+03   -0.26313E-03   -0.27760E-03  8424   0.150E-03 0.664E-04
CGA:  16    -0.674537308666E+03    0.21627E-03   -0.18053E-03  8424   0.243E-02-0.509E-03
CGA:  17    -0.674537590771E+03   -0.28211E-03   -0.32811E-03  8424   0.655E-03 0.159E-03
CGA:  18    -0.674537690048E+03   -0.99277E-04   -0.99758E-04  8424   0.176E-03 0.322E-06
CGA:  19    -0.674537158788E+03    0.53126E-03   -0.21848E-03  8424   0.576E-02-0.883E-03
CGA:  20    -0.674537731215E+03   -0.57243E-03   -0.62291E-03  8424   0.131E-02 0.156E-03
CGA:  21    -0.674537886608E+03   -0.15539E-03   -0.19784E-03  8424   0.304E-03 0.157E-03
CGA:  22    -0.674538011556E+03   -0.12495E-03   -0.11595E-03  8424   0.186E-03-0.146E-03
CGA:  23    -0.674538052318E+03   -0.40763E-04   -0.18502E-04  8424   0.182E-03-0.108E-03
CGA:  24    -0.674538063900E+03   -0.11582E-04   -0.18893E-04  8424   0.540E-04 0.248E-04
CGA:  25    -0.674537253140E+03    0.81076E-03   -0.43915E-03  8424   0.454E-02-0.470E-03
CGA:  26    -0.674538071840E+03   -0.81870E-03   -0.70029E-03  8424   0.219E-02-0.263E-03
CGA:  27    -0.674538463926E+03   -0.39209E-03   -0.33714E-03  8424   0.504E-03-0.115E-03
CGA:  28    -0.674538489391E+03   -0.25465E-04   -0.61438E-04  8424   0.619E-04 0.708E-04
CGA:  29    -0.674538497635E+03   -0.82439E-05   -0.10374E-04  8424   0.238E-04 0.443E-05
   3 F= -.67453850E+03 E0= -.67453324E+03  d E =-.142291E+00  mag=     7.0314
       N       E                     dE             d eps       ncg     rms          ort
SDA:   1    -0.669384172797E+03    0.51543E+01    0.00000E+00  8424   0.141E+02 0.000E+00
CGA:   2    -0.673315384985E+03   -0.39312E+01   -0.39570E+01  8424   0.519E+01-0.253E-01
CGA:   3    -0.674282825416E+03   -0.96744E+00   -0.80965E+00  8424   0.133E+01 0.916E+00
CGA:   4    -0.674558750125E+03   -0.27592E+00   -0.28249E+00  8424   0.668E+00-0.311E-01
CGA:   5    -0.674638564059E+03   -0.79814E-01   -0.84813E-01  8424   0.170E+00-0.408E-01
CGA:   6    -0.674665836677E+03   -0.27273E-01   -0.26561E-01  8424   0.424E-01-0.167E-02
CGA:   7    -0.674673355275E+03   -0.75186E-02   -0.73794E-02  8424   0.179E-01-0.507E-03
CGA:   8    -0.674675909898E+03   -0.25546E-02   -0.25985E-02  8424   0.886E-02 0.112E-03
CGA:   9    -0.674677861700E+03   -0.19518E-02   -0.19520E-02  8424   0.325E-02-0.874E-05
CGA:  10    -0.674678712712E+03   -0.85101E-03   -0.83968E-03  8424   0.180E-02-0.605E-04
CGA:  11    -0.674679016468E+03   -0.30376E-03   -0.30394E-03  8424   0.117E-02 0.391E-05
CGA:  12    -0.674679323942E+03   -0.30747E-03   -0.27231E-03  8424   0.601E-03-0.180E-03
CGA:  13    -0.674679535473E+03   -0.21153E-03   -0.27472E-03  8424   0.154E-02-0.509E-03
CGA:  14    -0.674679685250E+03   -0.14978E-03   -0.18930E-03  8424   0.449E-03 0.132E-03
CGA:  15    -0.674679750488E+03   -0.65238E-04   -0.83625E-04  8424   0.195E-03 0.770E-04
CGA:  16    -0.674679822779E+03   -0.72291E-04   -0.15842E-03  8424   0.120E-02-0.290E-03
CGA:  17    -0.674679943486E+03   -0.12071E-03   -0.14798E-03  8424   0.181E-03 0.103E-03
CGA:  18    -0.674679989591E+03   -0.46105E-04   -0.15708E-03  8424   0.934E-03-0.274E-03
CGA:  19    -0.674680128785E+03   -0.13919E-03   -0.12965E-03  8424   0.416E-03-0.377E-04
CGA:  20    -0.674680213721E+03   -0.84936E-04   -0.77777E-04  8424   0.114E-03-0.350E-04
CGA:  21    -0.674680223853E+03   -0.10132E-04   -0.18191E-04  8424   0.449E-04 0.369E-04
CGA:  22    -0.674680273332E+03   -0.49479E-04    0.11994E-03  8424   0.775E-04 0.278E-04
CGA:  23    -0.674680357877E+03   -0.84545E-04    0.34001E-04  8424   0.201E-03-0.481E-04
CGA:  24    -0.674680367436E+03   -0.95592E-05   -0.19879E-04  8424   0.459E-04 0.361E-04
CGA:  25    -0.674680377153E+03   -0.97162E-05   -0.11484E-04  8424   0.515E-04 0.113E-04
CGA:  26    -0.674680461654E+03   -0.84502E-04    0.13760E-04  8424   0.126E-03 0.468E-04
CGA:  27    -0.674680508462E+03   -0.46807E-04   -0.38516E-04  8424   0.470E-03-0.158E-03
CGA:  28    -0.674680544797E+03   -0.36335E-04   -0.39585E-04  8424   0.435E-04 0.116E-04
CGA:  29    -0.674680553675E+03   -0.88775E-05   -0.10456E-04  8424   0.385E-04 0.145E-04
   4 F= -.67468055E+03 E0= -.67467561E+03  d E =-.142056E+00  mag=     7.0429
       N       E                     dE             d eps       ncg     rms          ort
SDA:   1    -0.673685729060E+03    0.99482E+00    0.00000E+00  8424   0.272E+01 0.000E+00
CGA:   2    -0.674425562625E+03   -0.73983E+00   -0.73954E+00  8424   0.120E+01-0.400E-02
CGA:   3    -0.674642374585E+03   -0.21681E+00   -0.21325E+00  8424   0.315E+00 0.501E-02
CGA:   4    -0.674699088551E+03   -0.56714E-01   -0.57153E-01  8424   0.706E-01 0.275E-02
CGA:   5    -0.674710711211E+03   -0.11623E-01   -0.11566E-01  8424   0.173E-01-0.337E-03
CGA:   6    -0.674713722278E+03   -0.30111E-02   -0.29370E-02  8424   0.640E-02-0.612E-03
CGA:   7    -0.674714804383E+03   -0.10821E-02   -0.10466E-02  8424   0.256E-02-0.253E-03
CGA:   8    -0.674715320638E+03   -0.51625E-03   -0.51077E-03  8424   0.114E-02-0.685E-04
CGA:   9    -0.674715627230E+03   -0.30659E-03   -0.30272E-03  8424   0.821E-03-0.205E-03
CGA:  10    -0.674715765392E+03   -0.13816E-03   -0.13489E-03  8424   0.515E-03-0.393E-04
CGA:  11    -0.674715920330E+03   -0.15494E-03   -0.16767E-03  8424   0.715E-03-0.234E-03
CGA:  12    -0.674715606758E+03    0.31357E-03   -0.27277E-03  8424   0.549E-02-0.145E-02
CGA:  13    -0.674716135993E+03   -0.52923E-03   -0.55766E-03  8424   0.137E-02 0.170E-03
CGA:  14    -0.674716425159E+03   -0.28917E-03   -0.30413E-03  8424   0.381E-03 0.176E-03
CGA:  15    -0.674716564645E+03   -0.13949E-03   -0.21832E-03  8424   0.127E-02-0.372E-03
CGA:  16    -0.674716680241E+03   -0.11560E-03   -0.13988E-03  8424   0.154E-03 0.131E-03
CGA:  17    -0.674716718969E+03   -0.38728E-04   -0.38084E-04  8424   0.161E-03-0.929E-05
CGA:  18    -0.674716811100E+03   -0.92131E-04    0.55438E-03  8424   0.123E-03-0.599E-04
CGA:  19    -0.674716902958E+03   -0.91858E-04    0.10938E-04  8424   0.150E-03 0.178E-04
CGA:  20    -0.674717024881E+03   -0.12192E-03    0.11746E-03  8424   0.866E-04 0.645E-04
CGA:  21    -0.674717116188E+03   -0.91306E-04    0.70080E-04  8424   0.520E-04 0.545E-04
CGA:  22    -0.674717171707E+03   -0.55519E-04    0.92724E-05  8424   0.588E-04 0.119E-04
CGA:  23    -0.674717240971E+03   -0.69264E-04    0.16560E-04  8424   0.948E-04 0.367E-05
CGA:  24    -0.674717350759E+03   -0.10979E-03    0.17118E-04  8424   0.805E-04 0.244E-04
CGA:  25    -0.674717491714E+03   -0.14095E-03    0.10762E-04  8424   0.610E-04 0.653E-04
CGA:  26    -0.674717528288E+03   -0.36575E-04    0.37085E-03  8424   0.120E-03-0.564E-05
CGA:  27    -0.674717601046E+03   -0.72758E-04    0.11053E-03  8424   0.889E-04-0.241E-04
CGA:  28    -0.674717662799E+03   -0.61753E-04    0.21453E-04  8424   0.722E-04 0.990E-05
CGA:  29    -0.674717755076E+03   -0.92277E-04    0.12226E-04  8424   0.771E-04 0.357E-04
CGA:  30    -0.674717895806E+03   -0.14073E-03    0.15536E-04  8424   0.112E-03 0.130E-04
CGA:  31    -0.674718103571E+03   -0.20777E-03    0.11229E-04  8424   0.141E-03 0.750E-05
CGA:  32    -0.674718356283E+03   -0.25271E-03    0.11874E-04  8424   0.137E-03 0.839E-04
CGA:  33    -0.674718391280E+03   -0.34997E-04   -0.35169E-04  8424   0.108E-03 0.458E-05
CGA:  34    -0.674718424713E+03   -0.33432E-04   -0.38505E-04  8424   0.250E-03-0.962E-04
CGA:  35    -0.674718449191E+03   -0.24479E-04   -0.22426E-04  8424   0.306E-04-0.115E-04
CGA:  36    -0.674718478659E+03   -0.29468E-04    0.53000E-05  8424   0.138E-04 0.846E-05
CGA:  37    -0.674718510644E+03   -0.31985E-04    0.11443E-05  8424   0.107E-04 0.107E-04
CGA:  38    -0.674718526575E+03   -0.15931E-04    0.92530E-06  8424   0.176E-04 0.503E-05
CGA:  39    -0.674718573602E+03   -0.47027E-04    0.16777E-05  8424   0.121E-04 0.178E-04
CGA:  40    -0.674718598278E+03   -0.24677E-04    0.66173E-06  8424   0.230E-04 0.187E-05
CGA:  41    -0.674718659433E+03   -0.61155E-04    0.12329E-05  8424   0.188E-04 0.148E-04
CGA:  42    -0.674718662977E+03   -0.35436E-05   -0.39690E-05  8424   0.897E-05 0.585E-05
   5 F= -.67471866E+03 E0= -.67471397E+03  d E =-.381093E-01  mag=     7.0466
       N       E                     dE             d eps       ncg     rms          ort
SDA:   1    -0.672216713255E+03    0.25019E+01    0.00000E+00  8424   0.679E+01 0.000E+00
CGA:   2    -0.673945401639E+03   -0.17287E+01   -0.17233E+01  8424   0.356E+01-0.807E-01
CGA:   3    -0.674533674715E+03   -0.58827E+00   -0.61011E+00  8424   0.100E+01-0.397E-02
CGA:   4    -0.674692835714E+03   -0.15916E+00   -0.15030E+00  8424   0.228E+00 0.262E-01
CGA:   5    -0.674733179045E+03   -0.40343E-01   -0.40644E-01  8424   0.451E-01 0.892E-03
CGA:   6    -0.674742140493E+03   -0.89614E-02   -0.88760E-02  8424   0.152E-01-0.101E-02
CGA:   7    -0.674745072148E+03   -0.29317E-02   -0.29028E-02  8424   0.633E-02-0.647E-03
CGA:   8    -0.674746335870E+03   -0.12637E-02   -0.12444E-02  8424   0.327E-02-0.356E-03
CGA:   9    -0.674747171642E+03   -0.83577E-03   -0.84736E-03  8424   0.204E-02-0.567E-03
CGA:  10    -0.674747658591E+03   -0.48695E-03   -0.50514E-03  8424   0.187E-02-0.399E-03
CGA:  11    -0.674748071992E+03   -0.41340E-03   -0.43617E-03  8424   0.182E-02-0.724E-03
CGA:  12    -0.674748305410E+03   -0.23342E-03   -0.46675E-03  8424   0.312E-02-0.146E-02
CGA:  13    -0.674748700634E+03   -0.39522E-03   -0.39601E-03  8424   0.104E-02-0.713E-04
CGA:  14    -0.674748966357E+03   -0.26572E-03   -0.26573E-03  8424   0.326E-03-0.440E-05
CGA:  15    -0.674747920440E+03    0.10459E-02   -0.57238E-03  8424   0.859E-02-0.116E-02
CGA:  16    -0.674749046407E+03   -0.11260E-02   -0.11731E-02  8424   0.147E-02 0.291E-03
CGA:  17    -0.674749309650E+03   -0.26324E-03   -0.25553E-03  8424   0.558E-03-0.501E-04
CGA:  18    -0.674749535515E+03   -0.22586E-03   -0.21678E-03  8424   0.588E-03-0.225E-03
CGA:  19    -0.674749652023E+03   -0.11651E-03   -0.81807E-04  8424   0.261E-03-0.170E-03
CGA:  20    -0.674749731744E+03   -0.79721E-04   -0.89015E-04  8424   0.698E-03-0.193E-03
CGA:  21    -0.674749864754E+03   -0.13301E-03   -0.10341E-03  8424   0.210E-03-0.112E-03
CGA:  22    -0.674749928805E+03   -0.64050E-04   -0.52110E-04  8424   0.284E-03-0.962E-04
CGA:  23    -0.674749700789E+03    0.22802E-03   -0.15608E-03  8424   0.316E-02-0.643E-03
CGA:  24    -0.674750136723E+03   -0.43593E-03   -0.40054E-03  8424   0.719E-03-0.189E-04
CGA:  25    -0.674750346068E+03   -0.20934E-03   -0.18633E-03  8424   0.501E-03-0.143E-03
CGA:  26    -0.674750422917E+03   -0.76849E-04   -0.69518E-04  8424   0.932E-04-0.293E-04
CGA:  27    -0.674749340527E+03    0.10824E-02   -0.58496E-03  8424   0.624E-02-0.588E-03
CGA:  28    -0.674750643529E+03   -0.13030E-02   -0.11917E-02  8424   0.142E-02-0.251E-03
CGA:  29    -0.674750860816E+03   -0.21729E-03   -0.21344E-03  8424   0.354E-03 0.164E-04
CGA:  30    -0.674750922339E+03   -0.61522E-04   -0.60801E-04  8424   0.117E-03-0.332E-05
CGA:  31    -0.674750998736E+03   -0.76397E-04   -0.79131E-04  8424   0.333E-03-0.127E-03
CGA:  32    -0.674751082181E+03   -0.83445E-04   -0.64789E-04  8424   0.911E-04-0.414E-04
CGA:  33    -0.674751130852E+03   -0.48671E-04   -0.28925E-04  8424   0.207E-03-0.717E-04
CGA:  34    -0.674751162386E+03   -0.31533E-04   -0.23347E-04  8424   0.376E-04-0.215E-04
CGA:  35    -0.674751203561E+03   -0.41175E-04    0.46678E-03  8424   0.181E-03-0.415E-04
CGA:  36    -0.674751249320E+03   -0.45760E-04   -0.26960E-04  8424   0.734E-04-0.455E-04
CGA:  37    -0.674751227492E+03    0.21829E-04   -0.50281E-04  8424   0.136E-02-0.213E-03
CGA:  38    -0.674751384768E+03   -0.15728E-03   -0.15483E-03  8424   0.212E-03-0.766E-04
CGA:  39    -0.674751423731E+03   -0.38963E-04   -0.37206E-04  8424   0.166E-04-0.423E-05
CGA:  40    -0.674751484075E+03   -0.60344E-04    0.18817E-05  8424   0.731E-04-0.743E-05
CGA:  41    -0.674751761828E+03   -0.27775E-03    0.21065E-05  8424   0.311E-03-0.225E-04
CGA:  42    -0.674752961441E+03   -0.11996E-02    0.14534E-04  8424   0.131E-02-0.211E-03
CGA:  43    -0.674753159605E+03   -0.19816E-03   -0.18033E-03  8424   0.410E-03-0.867E-04
CGA:  44    -0.674753248303E+03   -0.88698E-04   -0.80042E-04  8424   0.314E-04-0.253E-04
CGA:  45    -0.674752300862E+03    0.94744E-03   -0.52376E-03  8424   0.725E-02-0.371E-03
CGA:  46    -0.674753213236E+03   -0.91237E-03   -0.80880E-03  8424   0.942E-03 0.102E-02
CGA:  47    -0.674753415709E+03   -0.20247E-03   -0.19314E-03  8424   0.218E-03-0.144E-04
CGA:  48    -0.674753469291E+03   -0.53582E-04   -0.48023E-04  8424   0.519E-04-0.900E-05
CGA:  49    -0.674753492574E+03   -0.23284E-04   -0.11949E-04  8424   0.438E-04-0.192E-04
CGA:  50    -0.674753529292E+03   -0.36718E-04   -0.16376E-04  8424   0.335E-03-0.100E-03
CGA:  51    -0.674753560936E+03   -0.31644E-04   -0.39453E-04  8424   0.590E-04 0.196E-04
CGA:  52    -0.674753582930E+03   -0.21995E-04   -0.15339E-04  8424   0.178E-04-0.132E-04
CGA:  53    -0.674753633961E+03   -0.51031E-04    0.32685E-05  8424   0.816E-04-0.204E-04
CGA:  54    -0.674753647271E+03   -0.13310E-04   -0.11536E-04  8424   0.165E-04-0.407E-05
CGA:  55    -0.674753658512E+03   -0.11241E-04   -0.63259E-05  8424   0.553E-04-0.166E-04
CGA:  56    -0.674753679540E+03   -0.21027E-04   -0.83883E-05  8424   0.226E-04-0.246E-04
CGA:  57    -0.674753712418E+03   -0.32878E-04    0.41632E-05  8424   0.156E-03-0.275E-04
CGA:  58    -0.674753732460E+03   -0.20042E-04   -0.16570E-04  8424   0.120E-04-0.105E-04
CGA:  59    -0.674753739346E+03   -0.68863E-05   -0.37796E-05  8424   0.273E-04-0.107E-04
   6 F= -.67475374E+03 E0= -.67475081E+03  d E =-.350764E-01  mag=     7.0324
       N       E                     dE             d eps       ncg     rms          ort
SDA:   1    -0.672941350399E+03    0.18124E+01    0.00000E+00  8424   0.508E+01 0.000E+00
CGA:   2    -0.674172987267E+03   -0.12316E+01   -0.11339E+01  8424   0.222E+01 0.354E+00
CGA:   3    -0.674647681161E+03   -0.47469E+00   -0.48849E+00  8424   0.649E+00-0.422E-01
CGA:   4    -0.674754196118E+03   -0.10651E+00   -0.10645E+00  8424   0.138E+00-0.165E-03
CGA:   5    -0.674779134453E+03   -0.24938E-01   -0.24989E-01  8424   0.323E-01 0.106E-03
CGA:   6    -0.674785293024E+03   -0.61586E-02   -0.61733E-02  8424   0.863E-02 0.493E-04
CGA:   7    -0.674787284915E+03   -0.19919E-02   -0.19815E-02  8424   0.324E-02-0.294E-04
CGA:   8    -0.674788259312E+03   -0.97440E-03   -0.92714E-03  8424   0.166E-02-0.234E-03
CGA:   9    -0.674788805101E+03   -0.54579E-03   -0.51045E-03  8424   0.107E-02-0.235E-03
CGA:  10    -0.674789213419E+03   -0.40832E-03   -0.39421E-03  8424   0.919E-03-0.320E-03
CGA:  11    -0.674789495046E+03   -0.28163E-03   -0.25606E-03  8424   0.777E-03-0.342E-03
CGA:  12    -0.674789642293E+03   -0.14725E-03   -0.33788E-03  8424   0.266E-02-0.862E-03
CGA:  13    -0.674790030413E+03   -0.38812E-03   -0.39767E-03  8424   0.536E-03 0.455E-04
CGA:  14    -0.674790245419E+03   -0.21501E-03   -0.20205E-03  8424   0.317E-03-0.139E-03
CGA:  15    -0.674790355049E+03   -0.10963E-03   -0.11261E-03  8424   0.336E-03-0.149E-03
CGA:  16    -0.674790248593E+03    0.10646E-03   -0.16173E-03  8424   0.248E-02-0.597E-03
CGA:  17    -0.674790568167E+03   -0.31957E-03   -0.32826E-03  8424   0.338E-03 0.533E-04
CGA:  18    -0.674790738093E+03   -0.16993E-03   -0.17585E-03  8424   0.283E-03-0.138E-03
CGA:  19    -0.674790806114E+03   -0.68020E-04   -0.11520E-03  8424   0.573E-03-0.216E-03
CGA:  20    -0.674790943403E+03   -0.13729E-03   -0.11135E-03  8424   0.170E-03-0.918E-04
CGA:  21    -0.674791004324E+03   -0.60921E-04   -0.58860E-04  8424   0.967E-04-0.393E-04
CGA:  22    -0.674791080799E+03   -0.76474E-04    0.15095E-03  8424   0.280E-03-0.103E-03
CGA:  23    -0.674791112589E+03   -0.31790E-04   -0.34725E-04  8424   0.233E-04 0.102E-04
CGA:  24    -0.674791165724E+03   -0.53135E-04    0.36549E-05  8424   0.194E-04 0.224E-05
CGA:  25    -0.674791250616E+03   -0.84892E-04    0.13521E-05  8424   0.287E-04-0.336E-05
CGA:  26    -0.674791405925E+03   -0.15531E-03    0.82964E-06  8424   0.470E-04 0.597E-05
CGA:  27    -0.674791713141E+03   -0.30722E-03    0.24796E-05  8424   0.559E-04 0.234E-04
CGA:  28    -0.674792128158E+03   -0.41502E-03    0.40634E-05  8424   0.706E-04 0.305E-04
CGA:  29    -0.674792152309E+03   -0.24152E-04   -0.17932E-04  8424   0.553E-04-0.326E-04
CGA:  30    -0.674792219570E+03   -0.67261E-04    0.40645E-05  8424   0.407E-04-0.109E-04
CGA:  31    -0.674792283571E+03   -0.64001E-04    0.57041E-05  8424   0.562E-04-0.232E-04
CGA:  32    -0.674792238555E+03    0.45017E-04   -0.50936E-04  8424   0.954E-03-0.204E-03
CGA:  33    -0.674792379237E+03   -0.14068E-03   -0.14774E-03  8424   0.199E-04 0.233E-04
CGA:  34    -0.674792406680E+03   -0.27443E-04    0.87758E-05  8424   0.336E-04-0.165E-04
CGA:  35    -0.674792440696E+03   -0.34016E-04    0.52804E-04  8424   0.752E-04-0.393E-04
CGA:  36    -0.674792457462E+03   -0.16766E-04   -0.14026E-04  8424   0.119E-04-0.104E-04
CGA:  37    -0.674792495982E+03   -0.38521E-04    0.65790E-06  8424   0.214E-04-0.479E-05
CGA:  38    -0.674792589248E+03   -0.93266E-04    0.37064E-06  8424   0.186E-04 0.116E-04
CGA:  39    -0.674792611602E+03   -0.22354E-04    0.10183E-04  8424   0.610E-04-0.236E-04
CGA:  40    -0.674792636432E+03   -0.24829E-04   -0.15854E-04  8424   0.653E-04-0.525E-04
CGA:  41    -0.674792647931E+03   -0.11500E-04   -0.93036E-05  8424   0.616E-05-0.771E-05
CGA:  42    -0.674792681485E+03   -0.33554E-04    0.16887E-06  8424   0.635E-05 0.244E-05
CGA:  43    -0.674792738686E+03   -0.57201E-04    0.26153E-06  8424   0.431E-05 0.708E-05
CGA:  44    -0.674792768525E+03   -0.29839E-04    0.11767E-06  8424   0.850E-05 0.156E-05
CGA:  45    -0.674792849335E+03   -0.80810E-04    0.31246E-06  8424   0.378E-05 0.103E-04
CGA:  46    -0.674792873984E+03   -0.24649E-04    0.11066E-06  8424   0.512E-05 0.254E-05
CGA:  47    -0.674792903038E+03   -0.29054E-04    0.17557E-06  8424   0.125E-04-0.692E-06
CGA:  48    -0.674792994140E+03   -0.91102E-04    0.23825E-06  8424   0.171E-04 0.101E-04
CGA:  49    -0.674792989142E+03    0.49980E-05   -0.12004E-04  8424   0.274E-03-0.577E-04
CGA:  50    -0.674793048278E+03   -0.59136E-04   -0.43122E-04  8424   0.214E-04-0.604E-04
CGA:  51    -0.674793065284E+03   -0.17006E-04    0.14190E-04  8424   0.464E-04-0.171E-04
CGA:  52    -0.674793086439E+03   -0.21154E-04   -0.14564E-04  8424   0.126E-03-0.690E-04
CGA:  53    -0.674793101450E+03   -0.15011E-04   -0.14888E-04  8424   0.337E-05-0.435E-06
CGA:  54    -0.674793124851E+03   -0.23401E-04    0.82833E-07  8424   0.379E-05 0.271E-05
CGA:  55    -0.674793151375E+03   -0.26524E-04    0.92830E-07  8424   0.568E-05 0.157E-05
CGA:  56    -0.674793209298E+03   -0.57922E-04    0.19039E-06  8424   0.388E-05 0.734E-05
CGA:  57    -0.674793231395E+03   -0.22098E-04    0.12033E-06  8424   0.444E-05 0.166E-05
CGA:  58    -0.674793281797E+03   -0.50402E-04    0.13501E-06  8424   0.399E-05 0.608E-05
CGA:  59    -0.674793304740E+03   -0.22942E-04    0.12272E-06  8424   0.399E-05 0.163E-05
CGA:  60    -0.674793350392E+03   -0.45652E-04    0.11651E-06  8424   0.396E-05 0.544E-05
CGA:  61    -0.674793371961E+03   -0.21569E-04    0.12964E-06  8424   0.360E-05 0.171E-05
CGA:  62    -0.674793414802E+03   -0.42841E-04    0.10423E-06  8424   0.383E-05 0.495E-05
CGA:  63    -0.674793437077E+03   -0.22275E-04    0.11596E-06  8424   0.329E-05 0.184E-05
CGA:  64    -0.674793478217E+03   -0.41139E-04    0.96684E-07  8424   0.364E-05 0.461E-05
CGA:  65    -0.674793498592E+03   -0.20375E-04    0.11498E-06  8424   0.308E-05 0.193E-05
CGA:  66    -0.674793521777E+03   -0.23185E-04    0.69518E-07  8424   0.320E-05 0.206E-05
CGA:  67    -0.674793540231E+03   -0.18454E-04    0.97838E-07  8424   0.450E-05 0.147E-05
CGA:  68    -0.674793592678E+03   -0.52447E-04    0.13852E-06  8424   0.306E-05 0.590E-05
CGA:  69    -0.674793614995E+03   -0.22318E-04    0.71688E-07  8424   0.288E-05 0.199E-05
CGA:  70    -0.674793634067E+03   -0.19072E-04    0.75355E-07  8424   0.317E-05 0.194E-05
CGA:  71    -0.674793657414E+03   -0.23346E-04    0.73665E-07  8424   0.487E-05 0.113E-05
CGA:  72    -0.674793709257E+03   -0.51844E-04    0.14271E-06  8424   0.317E-05 0.602E-05
CGA:  73    -0.674793727527E+03   -0.18270E-04    0.97382E-07  8424   0.357E-05 0.146E-05
CGA:  74    -0.674793771464E+03   -0.43937E-04    0.10371E-06  8424   0.346E-05 0.456E-05
CGA:  75    -0.674793791419E+03   -0.19954E-04    0.10592E-06  8424   0.314E-05 0.136E-05
CGA:  76    -0.674793830743E+03   -0.39325E-04    0.81482E-07  8424   0.350E-05 0.401E-05
CGA:  77    -0.674793848258E+03   -0.17515E-04    0.12641E-06  8424   0.313E-05 0.127E-05
CGA:  78    -0.674793886211E+03   -0.37953E-04    0.79888E-07  8424   0.358E-05 0.375E-05
CGA:  79    -0.674793905434E+03   -0.19222E-04    0.11903E-06  8424   0.309E-05 0.118E-05
CGA:  80    -0.674793943035E+03   -0.37601E-04    0.75180E-07  8424   0.356E-05 0.355E-05
CGA:  81    -0.674793959432E+03   -0.16398E-04    0.14206E-06  8424   0.311E-05 0.110E-05
CGA:  82    -0.674793996065E+03   -0.36632E-04    0.75494E-07  8424   0.362E-05 0.339E-05
CGA:  83    -0.674794014680E+03   -0.18615E-04    0.12642E-06  8424   0.306E-05 0.103E-05
CGA:  84    -0.674794051153E+03   -0.36473E-04    0.70710E-07  8424   0.356E-05 0.325E-05
CGA:  85    -0.674794066663E+03   -0.15509E-04    0.15233E-06  8424   0.309E-05 0.955E-06
CGA:  86    -0.674794102269E+03   -0.35606E-04    0.72089E-07  8424   0.362E-05 0.314E-05
CGA:  87    -0.674794120348E+03   -0.18080E-04    0.13088E-06  8424   0.304E-05 0.892E-06
CGA:  88    -0.674794155958E+03   -0.35610E-04    0.67196E-07  8424   0.356E-05 0.302E-05
CGA:  89    -0.674794170702E+03   -0.14744E-04    0.16167E-06  8424   0.309E-05 0.811E-06
CGA:  90    -0.674794205486E+03   -0.34784E-04    0.69245E-07  8424   0.363E-05 0.293E-05
CGA:  91    -0.674794223064E+03   -0.17578E-04    0.13636E-06  8424   0.305E-05 0.743E-06
CGA:  92    -0.674794257929E+03   -0.34865E-04    0.64271E-07  8424   0.358E-05 0.282E-05
CGA:  93    -0.674794271956E+03   -0.14027E-04    0.17416E-06  8424   0.313E-05 0.650E-06
CGA:  94    -0.674794306071E+03   -0.34115E-04    0.66980E-07  8424   0.368E-05 0.272E-05
CGA:  95    -0.674794323171E+03   -0.17100E-04    0.14551E-06  8424   0.308E-05 0.572E-06
CGA:  96    -0.674794357339E+03   -0.34168E-04    0.61754E-07  8424   0.364E-05 0.262E-05
CGA:  97    -0.674794370650E+03   -0.13312E-04    0.19300E-06  8424   0.322E-05 0.461E-06
CGA:  98    -0.674794404218E+03   -0.33568E-04    0.65359E-07  8424   0.379E-05 0.251E-05
CGA:  99    -0.674794420878E+03   -0.16660E-04    0.16018E-06  8424   0.315E-05 0.374E-06
CGA: 100    -0.674794454339E+03   -0.33461E-04    0.59539E-07  8424   0.374E-05 0.240E-05
CGA: 101    -0.674794466914E+03   -0.12575E-04    0.22099E-06  8424   0.337E-05 0.239E-06
CGA: 102    -0.674794500065E+03   -0.33151E-04    0.64493E-07  8424   0.397E-05 0.229E-05
CGA: 103    -0.674794516348E+03   -0.16284E-04    0.18234E-06  8424   0.324E-05 0.148E-06
CGA: 104    -0.674794549015E+03   -0.32667E-04    0.57466E-07  8424   0.387E-05 0.217E-05
CGA: 105    -0.674794560815E+03   -0.11800E-04    0.26027E-06  8424   0.359E-05-0.177E-07
CGA: 106    -0.674794593734E+03   -0.32920E-04    0.64572E-07  8424   0.423E-05 0.205E-05
CGA: 107    -0.674794609775E+03   -0.16041E-04    0.21386E-06  8424   0.332E-05-0.965E-07
CGA: 108    -0.674794641379E+03   -0.31603E-04    0.55101E-07  8424   0.398E-05 0.195E-05
CGA: 109    -0.674794652370E+03   -0.10991E-04    0.30632E-06  8424   0.389E-05-0.289E-06
CGA: 110    -0.674794685358E+03   -0.32988E-04    0.65714E-07  8424   0.455E-05 0.180E-05
CGA: 111    -0.674794740702E+03   -0.55345E-04    0.13502E-06  8424   0.312E-05 0.516E-05
CGA: 112    -0.674794750695E+03   -0.99929E-05    0.19683E-06  8424   0.707E-05-0.130E-05
   7 F= -.67479475E+03 E0= -.67479459E+03  d E =-.410113E-01  mag=     7.0013
       N       E                     dE             d eps       ncg     rms          ort
SDA:   1    -0.673375981449E+03    0.14188E+01    0.00000E+00  8424   0.394E+01 0.000E+00
CGA:   2    -0.674393770576E+03   -0.10178E+01   -0.10142E+01  8424   0.171E+01 0.659E-02
CGA:   3    -0.674719766377E+03   -0.32600E+00   -0.32723E+00  8424   0.462E+00-0.589E-02
CGA:   4    -0.674801317697E+03   -0.81551E-01   -0.81338E-01  8424   0.109E+00-0.164E-02
CGA:   5    -0.674819778450E+03   -0.18461E-01   -0.18447E-01  8424   0.238E-01-0.143E-03
CGA:   6    -0.674824455007E+03   -0.46766E-02   -0.47011E-02  8424   0.577E-02 0.152E-03
CGA:   7    -0.674825862936E+03   -0.14079E-02   -0.14168E-02  8424   0.213E-02 0.845E-04
CGA:   8    -0.674826474549E+03   -0.61161E-03   -0.60524E-03  8424   0.888E-03-0.103E-03
CGA:   9    -0.674826762387E+03   -0.28784E-03   -0.28816E-03  8424   0.488E-03-0.132E-03
CGA:  10    -0.674826902283E+03   -0.13990E-03   -0.13979E-03  8424   0.228E-03-0.480E-04
CGA:  11    -0.674826981773E+03   -0.79490E-04   -0.85052E-04  8424   0.180E-03-0.741E-04
CGA:  12    -0.674825968213E+03    0.10136E-02   -0.54570E-03  8424   0.544E-02-0.688E-03
CGA:  13    -0.674827061262E+03   -0.10930E-02   -0.10413E-02  8424   0.985E-03-0.129E-03
CGA:  14    -0.674827363823E+03   -0.30256E-03   -0.28467E-03  8424   0.369E-03-0.578E-04
CGA:  15    -0.674827498138E+03   -0.13431E-03   -0.11046E-03  8424   0.182E-03-0.891E-04
CGA:  16    -0.674827572629E+03   -0.74491E-04   -0.65743E-04  8424   0.221E-03-0.894E-04
CGA:  17    -0.674827447814E+03    0.12481E-03   -0.12700E-03  8424   0.225E-02-0.452E-03
CGA:  18    -0.674827761037E+03   -0.31322E-03   -0.32958E-03  8424   0.307E-03 0.486E-04
CGA:  19    -0.674827889917E+03   -0.12888E-03   -0.12144E-03  8424   0.135E-03-0.398E-04
CGA:  20    -0.674827930397E+03   -0.40480E-04   -0.38401E-04  8424   0.616E-04-0.878E-05
CGA:  21    -0.674827962272E+03   -0.31875E-04   -0.35275E-04  8424   0.141E-03-0.580E-04
CGA:  22    -0.674827992498E+03   -0.30226E-04   -0.27464E-04  8424   0.277E-04-0.763E-05
CGA:  23    -0.674828031215E+03   -0.38717E-04    0.18832E-04  8424   0.441E-04-0.160E-04
CGA:  24    -0.674828044975E+03   -0.13760E-04   -0.10565E-04  8424   0.225E-04-0.107E-04
CGA:  25    -0.674828088921E+03   -0.43946E-04    0.30529E-05  8424   0.364E-04-0.113E-04
CGA:  26    -0.674828103677E+03   -0.14756E-04   -0.11085E-04  8424   0.381E-04-0.168E-04
CGA:  27    -0.674828160372E+03   -0.56695E-04    0.31205E-05  8424   0.611E-04-0.265E-04
CGA:  28    -0.674828185802E+03   -0.25430E-04   -0.22926E-04  8424   0.339E-04-0.183E-04
CGA:  29    -0.674828225586E+03   -0.39783E-04    0.91074E-05  8424   0.149E-03-0.468E-04
CGA:  30    -0.674828243638E+03   -0.18053E-04   -0.19706E-04  8424   0.161E-04 0.468E-05
CGA:  31    -0.674828278858E+03   -0.35219E-04    0.34290E-05  8424   0.982E-05-0.330E-05
CGA:  32    -0.674828327581E+03   -0.48723E-04    0.35137E-06  8424   0.120E-04 0.575E-05
CGA:  33    -0.674828346082E+03   -0.18502E-04    0.50691E-05  8424   0.356E-04-0.720E-05
CGA:  34    -0.674828362247E+03   -0.16165E-04   -0.17947E-04  8424   0.361E-03-0.999E-04
CGA:  35    -0.674828392794E+03   -0.30547E-04   -0.38739E-04  8424   0.529E-05 0.224E-04
CGA:  36    -0.674828409835E+03   -0.17041E-04    0.58958E-06  8424   0.228E-04-0.156E-05
CGA:  37    -0.674828532578E+03   -0.12274E-03    0.52770E-06  8424   0.992E-04 0.515E-05
CGA:  38    -0.674829192606E+03   -0.66003E-03    0.59509E-05  8424   0.157E-03 0.179E-04
CGA:  39    -0.674830325720E+03   -0.11331E-02    0.78904E-05  8424   0.883E-04 0.637E-04
CGA:  40    -0.674830919270E+03   -0.59355E-03    0.70750E-05  8424   0.182E-03-0.498E-04
CGA:  41    -0.674831009032E+03   -0.89762E-04   -0.55750E-04  8424   0.280E-03-0.209E-03
CGA:  42    -0.674831006076E+03    0.29557E-05   -0.26197E-04  8424   0.242E-04 0.794E-04
   8 F= -.67483101E+03 E0= -.67483101E+03  d E =-.362554E-01  mag=     7.0000
       N       E                     dE             d eps       ncg     rms          ort
SDA:   1    -0.674120269578E+03    0.71074E+00    0.00000E+00  8424   0.194E+01 0.000E+00
CGA:   2    -0.674634952905E+03   -0.51468E+00   -0.51425E+00  8424   0.839E+00 0.249E-02
CGA:   3    -0.674796263653E+03   -0.16131E+00   -0.16149E+00  8424   0.224E+00-0.264E-02
CGA:   4    -0.674835395616E+03   -0.39132E-01   -0.38933E-01  8424   0.516E-01-0.102E-02
CGA:   5    -0.674844159223E+03   -0.87636E-02   -0.87294E-02  8424   0.114E-01-0.178E-03
CGA:   6    -0.674846445256E+03   -0.22860E-02   -0.22913E-02  8424   0.275E-02 0.262E-04
CGA:   7    -0.674847123292E+03   -0.67804E-03   -0.68055E-03  8424   0.984E-03 0.193E-04
CGA:   8    -0.674847410647E+03   -0.28735E-03   -0.28156E-03  8424   0.439E-03-0.710E-04
CGA:   9    -0.674847567694E+03   -0.15705E-03   -0.16198E-03  8424   0.338E-03-0.138E-03
CGA:  10    -0.674847658128E+03   -0.90434E-04   -0.98404E-04  8424   0.254E-03-0.131E-03
CGA:  11    -0.674847703050E+03   -0.44922E-04   -0.93382E-04  8424   0.465E-03-0.209E-03
CGA:  12    -0.674847820596E+03   -0.11755E-03   -0.11124E-03  8424   0.138E-03-0.454E-04
CGA:  13    -0.674847916468E+03   -0.95872E-04    0.70631E-03  8424   0.595E-04 0.609E-05
CGA:  14    -0.674847981884E+03   -0.65417E-04    0.27542E-04  8424   0.288E-04 0.881E-05
CGA:  15    -0.674848041999E+03   -0.60115E-04    0.42526E-05  8424   0.212E-04 0.293E-05
CGA:  16    -0.674848113732E+03   -0.71733E-04    0.13853E-05  8424   0.169E-04 0.876E-05
CGA:  17    -0.674848198476E+03   -0.84744E-04    0.11686E-05  8424   0.151E-04 0.147E-04
CGA:  18    -0.674848231623E+03   -0.33147E-04    0.14428E-05  8424   0.120E-04 0.555E-05
CGA:  19    -0.674848279407E+03   -0.47783E-04    0.10367E-05  8424   0.104E-04 0.106E-04
CGA:  20    -0.674848309396E+03   -0.29989E-04    0.66328E-06  8424   0.994E-05 0.430E-05
CGA:  21    -0.674848359950E+03   -0.50555E-04    0.68127E-06  8424   0.991E-05 0.104E-04
CGA:  22    -0.674848388247E+03   -0.28296E-04    0.64727E-06  8424   0.842E-05 0.457E-05
CGA:  23    -0.674848436956E+03   -0.48709E-04    0.52784E-06  8424   0.951E-05 0.942E-05
CGA:  24    -0.674848464872E+03   -0.27917E-04    0.59797E-06  8424   0.893E-05 0.418E-05
CGA:  25    -0.674848515129E+03   -0.50257E-04    0.55989E-06  8424   0.974E-05 0.901E-05
CGA:  26    -0.674848541866E+03   -0.26737E-04    0.67127E-06  8424   0.969E-05 0.354E-05
CGA:  27    -0.674848593227E+03   -0.51361E-04    0.58007E-06  8424   0.105E-04 0.815E-05
CGA:  28    -0.674848620642E+03   -0.27415E-04    0.77787E-06  8424   0.110E-04 0.249E-05
CGA:  29    -0.674848672342E+03   -0.51701E-04    0.61127E-06  8424   0.122E-04 0.678E-05
CGA:  30    -0.674848698415E+03   -0.26073E-04    0.12004E-05  8424   0.129E-04 0.932E-06
CGA:  31    -0.674848748923E+03   -0.50509E-04    0.66474E-06  8424   0.151E-04 0.444E-05
CGA:  32    -0.674848838182E+03   -0.89259E-04    0.77026E-06  8424   0.121E-04 0.183E-04
CGA:  33    -0.674848863252E+03   -0.25070E-04    0.12548E-05  8424   0.180E-04-0.134E-05
CGA:  34    -0.674848922125E+03   -0.58873E-04    0.75491E-06  8424   0.169E-04 0.330E-05
CGA:  35    -0.674849006067E+03   -0.83942E-04    0.80099E-06  8424   0.212E-04 0.145E-04
CGA:  36    -0.674849028389E+03   -0.22322E-04    0.94510E-05  8424   0.560E-04-0.192E-04
CGA:  37    -0.674849043743E+03   -0.15354E-04   -0.10460E-04  8424   0.242E-04-0.265E-04
CGA:  38    -0.674849080459E+03   -0.36716E-04    0.77721E-06  8424   0.501E-05 0.658E-05
CGA:  39    -0.674849109794E+03   -0.29335E-04    0.21548E-06  8424   0.663E-05 0.505E-05
CGA:  40    -0.674849134032E+03   -0.24238E-04    0.29657E-06  8424   0.139E-04 0.124E-06
CGA:  41    -0.674849206533E+03   -0.72501E-04    0.42309E-06  8424   0.127E-04 0.138E-04
CGA:  42    -0.674849222368E+03   -0.15835E-04    0.32007E-05  8424   0.410E-04-0.129E-04
CGA:  43    -0.674849236573E+03   -0.14204E-04   -0.15512E-04  8424   0.201E-03-0.802E-04
CGA:  44    -0.674849260464E+03   -0.23891E-04   -0.23459E-04  8424   0.461E-05-0.180E-05
CGA:  45    -0.674849282592E+03   -0.22128E-04    0.13565E-06  8424   0.453E-05 0.406E-05
CGA:  46    -0.674849305715E+03   -0.23124E-04    0.12651E-06  8424   0.485E-05 0.369E-05
CGA:  47    -0.674849325099E+03   -0.19384E-04    0.18142E-06  8424   0.606E-05 0.298E-05
CGA:  48    -0.674849350826E+03   -0.25727E-04    0.21056E-06  8424   0.109E-04 0.512E-06
CGA:  49    -0.674849411110E+03   -0.60284E-04    0.32878E-06  8424   0.917E-05 0.109E-04
CGA:  50    -0.674849425093E+03   -0.13982E-04    0.13719E-05  8424   0.166E-04-0.393E-05
CGA:  51    -0.674849483449E+03   -0.58357E-04    0.21378E-06  8424   0.272E-04 0.612E-05
CGA:  52    -0.674849615286E+03   -0.13184E-03    0.16086E-05  8424   0.336E-04 0.560E-05
CGA:  53    -0.674849778203E+03   -0.16292E-03    0.15058E-05  8424   0.305E-04 0.137E-04
CGA:  54    -0.674849946407E+03   -0.16820E-03    0.16394E-05  8424   0.224E-04 0.196E-04
CGA:  55    -0.674849981107E+03   -0.34700E-04    0.32695E-05  8424   0.587E-04-0.290E-04
CGA:  56    -0.674849984109E+03   -0.30023E-05   -0.60928E-05  8424   0.474E-05 0.125E-04
   9 F= -.67484998E+03 E0= -.67484998E+03  d E =-.189780E-01  mag=     7.0000
       N       E                     dE             d eps       ncg     rms          ort
SDA:   1    -0.673996352170E+03    0.85363E+00    0.00000E+00  8424   0.220E+01 0.000E+00
CGA:   2    -0.674615278026E+03   -0.61893E+00   -0.61897E+00  8424   0.109E+01 0.704E-03
CGA:   3    -0.674813349884E+03   -0.19807E+00   -0.19809E+00  8424   0.242E+00-0.470E-03
CGA:   4    -0.674854104078E+03   -0.40754E-01   -0.40683E-01  8424   0.595E-01-0.499E-03
CGA:   5    -0.674864360558E+03   -0.10256E-01   -0.10229E-01  8424   0.128E-01-0.205E-03
CGA:   6    -0.674867047557E+03   -0.26870E-02   -0.26807E-02  8424   0.312E-02-0.642E-04
CGA:   7    -0.674867788822E+03   -0.74127E-03   -0.73858E-03  8424   0.113E-02-0.394E-04
CGA:   8    -0.674868120059E+03   -0.33124E-03   -0.33034E-03  8424   0.538E-03-0.104E-03
CGA:   9    -0.674868304580E+03   -0.18452E-03   -0.22800E-03  8424   0.629E-03-0.267E-03
CGA:  10    -0.674868381390E+03   -0.76810E-04   -0.16279E-03  8424   0.770E-03-0.427E-03
CGA:  11    -0.674868599942E+03   -0.21855E-03   -0.21427E-03  8424   0.350E-03-0.985E-04
CGA:  12    -0.674868719246E+03   -0.11930E-03   -0.15118E-03  8424   0.347E-03-0.182E-03
CGA:  13    -0.674868833029E+03   -0.11378E-03   -0.11367E-03  8424   0.251E-03-0.181E-03
CGA:  14    -0.674868877782E+03   -0.44753E-04   -0.43532E-04  8424   0.265E-04-0.798E-05
CGA:  15    -0.674868930610E+03   -0.52828E-04    0.18677E-05  8424   0.238E-04 0.120E-04
CGA:  16    -0.674869014137E+03   -0.83527E-04    0.20064E-05  8424   0.163E-04 0.273E-04
CGA:  17    -0.674869050047E+03   -0.35909E-04    0.10770E-05  8424   0.163E-04 0.108E-04
CGA:  18    -0.674869094745E+03   -0.44698E-04    0.79544E-06  8424   0.189E-04 0.822E-05
CGA:  19    -0.674869124036E+03   -0.29291E-04    0.21436E-05  8424   0.244E-04 0.362E-05
CGA:  20    -0.674869212889E+03   -0.88854E-04    0.12345E-05  8424   0.201E-04 0.279E-04
CGA:  21    -0.674869259182E+03   -0.46293E-04    0.12361E-05  8424   0.259E-04 0.114E-06
CGA:  22    -0.674869344119E+03   -0.84936E-04    0.10256E-05  8424   0.245E-04 0.252E-04
CGA:  23    -0.674869366683E+03   -0.22564E-04    0.90784E-05  8424   0.314E-04-0.668E-05
CGA:  24    -0.674869447143E+03   -0.80460E-04    0.81791E-06  8424   0.351E-04 0.219E-04
CGA:  25    -0.674869497542E+03   -0.50400E-04    0.45522E-05  8424   0.429E-04-0.193E-04
CGA:  26    -0.674869511542E+03   -0.14000E-04   -0.15119E-04  8424   0.688E-04-0.351E-04
CGA:  27    -0.674869568369E+03   -0.56827E-04    0.39327E-04  8424   0.840E-04-0.575E-04
CGA:  28    -0.674869583782E+03   -0.15413E-04   -0.14928E-04  8424   0.114E-04-0.340E-05
CGA:  29    -0.674869622828E+03   -0.39046E-04    0.36599E-06  8424   0.974E-05 0.103E-04
CGA:  30    -0.674869659153E+03   -0.36325E-04    0.31199E-06  8424   0.966E-05 0.789E-05
CGA:  31    -0.674869689313E+03   -0.30160E-04    0.38427E-06  8424   0.955E-05 0.763E-05
CGA:  32    -0.674869725398E+03   -0.36085E-04    0.30077E-06  8424   0.943E-05 0.740E-05
CGA:  33    -0.674869755048E+03   -0.29649E-04    0.37220E-06  8424   0.930E-05 0.718E-05
CGA:  34    -0.674869790776E+03   -0.35728E-04    0.28756E-06  8424   0.920E-05 0.697E-05
CGA:  35    -0.674869819970E+03   -0.29194E-04    0.35855E-06  8424   0.913E-05 0.675E-05
CGA:  36    -0.674869855459E+03   -0.35489E-04    0.27827E-06  8424   0.918E-05 0.646E-05
CGA:  37    -0.674869883921E+03   -0.28462E-04    0.36837E-06  8424   0.943E-05 0.604E-05
CGA:  38    -0.674869919655E+03   -0.35734E-04    0.29632E-06  8424   0.101E-04 0.532E-05
CGA:  39    -0.674869946490E+03   -0.26835E-04    0.49890E-06  8424   0.118E-04 0.396E-05
CGA:  40    -0.674870015678E+03   -0.69187E-04    0.45530E-06  8424   0.966E-05 0.158E-04
CGA:  41    -0.674870051449E+03   -0.35771E-04    0.31196E-06  8424   0.109E-04 0.375E-05
CGA:  42    -0.674870117341E+03   -0.65893E-04    0.40173E-06  8424   0.929E-05 0.145E-04
CGA:  43    -0.674870143499E+03   -0.26158E-04    0.42199E-06  8424   0.980E-05 0.361E-05
CGA:  44    -0.674870206754E+03   -0.63255E-04    0.33555E-06  8424   0.894E-05 0.132E-04
CGA:  45    -0.674870240764E+03   -0.34010E-04    0.27958E-06  8424   0.888E-05 0.349E-05
CGA:  46    -0.674870300614E+03   -0.59850E-04    0.29051E-06  8424   0.852E-05 0.121E-04
CGA:  47    -0.674870326858E+03   -0.26244E-04    0.34505E-06  8424   0.810E-05 0.345E-05
CGA:  48    -0.674870384357E+03   -0.57499E-04    0.25552E-06  8424   0.803E-05 0.111E-04
CGA:  49    -0.674870416823E+03   -0.32466E-04    0.23357E-06  8424   0.741E-05 0.348E-05
CGA:  50    -0.674870473001E+03   -0.56178E-04    0.22596E-06  8424   0.753E-05 0.104E-04
CGA:  51    -0.674870498866E+03   -0.25864E-04    0.26605E-06  8424   0.682E-05 0.350E-05
CGA:  52    -0.674870553110E+03   -0.54245E-04    0.20685E-06  8424   0.705E-05 0.975E-05
CGA:  53    -0.674870584417E+03   -0.31306E-04    0.18366E-06  8424   0.634E-05 0.350E-05
CGA:  54    -0.674870638369E+03   -0.53953E-04    0.18628E-06  8424   0.663E-05 0.925E-05
CGA:  55    -0.674870663658E+03   -0.25289E-04    0.20655E-06  8424   0.595E-05 0.347E-05
CGA:  56    -0.674870693669E+03   -0.30011E-04    0.13388E-06  8424   0.556E-05 0.382E-05
CGA:  57    -0.674870719733E+03   -0.26064E-04    0.13572E-06  8424   0.528E-05 0.401E-05
CGA:  58    -0.674870748747E+03   -0.29014E-04    0.10764E-06  8424   0.508E-05 0.412E-05
CGA:  59    -0.674870775149E+03   -0.26402E-04    0.11038E-06  8424   0.494E-05 0.417E-05
CGA:  60    -0.674870803588E+03   -0.28439E-04    0.95426E-07  8424   0.483E-05 0.418E-05
CGA:  61    -0.674870830047E+03   -0.26460E-04    0.98731E-07  8424   0.475E-05 0.415E-05
CGA:  62    -0.674870858133E+03   -0.28086E-04    0.89016E-07  8424   0.468E-05 0.411E-05
CGA:  63    -0.674870884468E+03   -0.26335E-04    0.93059E-07  8424   0.464E-05 0.404E-05
CGA:  64    -0.674870912304E+03   -0.27836E-04    0.85715E-07  8424   0.461E-05 0.396E-05
CGA:  65    -0.674870938390E+03   -0.26086E-04    0.91111E-07  8424   0.461E-05 0.385E-05
CGA:  66    -0.674870966043E+03   -0.27652E-04    0.85152E-07  8424   0.463E-05 0.373E-05
CGA:  67    -0.674870991783E+03   -0.25740E-04    0.93161E-07  8424   0.469E-05 0.358E-05
CGA:  68    -0.674871019331E+03   -0.27548E-04    0.88536E-07  8424   0.479E-05 0.339E-05
CGA:  69    -0.674871044618E+03   -0.25286E-04    0.10228E-06  8424   0.498E-05 0.314E-05
CGA:  70    -0.674871072181E+03   -0.27563E-04    0.10072E-06  8424   0.531E-05 0.279E-05
CGA:  71    -0.674871096830E+03   -0.24649E-04    0.13112E-06  8424   0.589E-05 0.225E-05
CGA:  72    -0.674871152286E+03   -0.55457E-04    0.13898E-06  8424   0.510E-05 0.821E-05
CGA:  73    -0.674871179550E+03   -0.27263E-04    0.10725E-06  8424   0.562E-05 0.217E-05
CGA:  74    -0.674871233781E+03   -0.54231E-04    0.12932E-06  8424   0.492E-05 0.785E-05
CGA:  75    -0.674871257809E+03   -0.24028E-04    0.11460E-06  8424   0.531E-05 0.211E-05
CGA:  76    -0.674871310960E+03   -0.53151E-04    0.11814E-06  8424   0.476E-05 0.745E-05
CGA:  77    -0.674871337433E+03   -0.26473E-04    0.95948E-07  8424   0.499E-05 0.206E-05
CGA:  78    -0.674871388798E+03   -0.51365E-04    0.10817E-06  8424   0.462E-05 0.703E-05
CGA:  79    -0.674871412327E+03   -0.23529E-04    0.10267E-06  8424   0.468E-05 0.203E-05
CGA:  80    -0.674871462245E+03   -0.49918E-04    0.98611E-07  8424   0.447E-05 0.663E-05
CGA:  81    -0.674871487911E+03   -0.25666E-04    0.86780E-07  8424   0.438E-05 0.202E-05
CGA:  82    -0.674871536253E+03   -0.48342E-04    0.90672E-07  8424   0.431E-05 0.626E-05
CGA:  83    -0.674871559361E+03   -0.23107E-04    0.90313E-07  8424   0.411E-05 0.203E-05
CGA:  84    -0.674871606478E+03   -0.47118E-04    0.83809E-07  8424   0.414E-05 0.594E-05
CGA:  85    -0.674871631327E+03   -0.24849E-04    0.76462E-07  8424   0.388E-05 0.203E-05
CGA:  86    -0.674871677365E+03   -0.46038E-04    0.78221E-07  8424   0.397E-05 0.568E-05
CGA:  87    -0.674871700108E+03   -0.22742E-04    0.77397E-07  8424   0.368E-05 0.203E-05
CGA:  88    -0.674871724407E+03   -0.24299E-04    0.61096E-07  8424   0.348E-05 0.220E-05
CGA:  89    -0.674871747008E+03   -0.22601E-04    0.59009E-07  8424   0.334E-05 0.231E-05
CGA:  90    -0.674871771034E+03   -0.24026E-04    0.50345E-07  8424   0.322E-05 0.239E-05
CGA:  91    -0.674871793602E+03   -0.22568E-04    0.50148E-07  8424   0.314E-05 0.244E-05
CGA:  92    -0.674871817356E+03   -0.23754E-04    0.44875E-07  8424   0.308E-05 0.246E-05
CGA:  93    -0.674871839887E+03   -0.22532E-04    0.45649E-07  8424   0.304E-05 0.246E-05
CGA:  94    -0.674871863409E+03   -0.23521E-04    0.42361E-07  8424   0.301E-05 0.244E-05
CGA:  95    -0.674871885859E+03   -0.22450E-04    0.43858E-07  8424   0.301E-05 0.241E-05
CGA:  96    -0.674871909175E+03   -0.23317E-04    0.41921E-07  8424   0.302E-05 0.235E-05
CGA:  97    -0.674871931489E+03   -0.22313E-04    0.44455E-07  8424   0.307E-05 0.227E-05
CGA:  98    -0.674871954620E+03   -0.23131E-04    0.44057E-07  8424   0.316E-05 0.216E-05
CGA:  99    -0.674871976746E+03   -0.22127E-04    0.49055E-07  8424   0.332E-05 0.200E-05
CGA: 100    -0.674871999712E+03   -0.22966E-04    0.52222E-07  8424   0.360E-05 0.174E-05
CGA: 101    -0.674872021582E+03   -0.21870E-04    0.65662E-07  8424   0.413E-05 0.130E-05
CGA: 102    -0.674872069778E+03   -0.48196E-04    0.70264E-07  8424   0.357E-05 0.552E-05
CGA: 103    -0.674872092448E+03   -0.22669E-04    0.61753E-07  8424   0.410E-05 0.119E-05
CGA: 104    -0.674872140145E+03   -0.47698E-04    0.66882E-07  8424   0.358E-05 0.537E-05
CGA: 105    -0.674872161335E+03   -0.21190E-04    0.67142E-07  8424   0.406E-05 0.105E-05
CGA: 106    -0.674872207997E+03   -0.46662E-04    0.62990E-07  8424   0.365E-05 0.516E-05
CGA: 107    -0.674872230248E+03   -0.22251E-04    0.66352E-07  8424   0.401E-05 0.886E-06
CGA: 108    -0.674872275614E+03   -0.45365E-04    0.58377E-07  8424   0.375E-05 0.491E-05
CGA: 109    -0.674872296138E+03   -0.20524E-04    0.76610E-07  8424   0.394E-05 0.739E-06
