       N       E                     dE             d eps       ncg     rms          ort
DAV:   1     0.828639698539E+04    0.82864E+04   -0.24695E+05  8424   0.239E+03
DAV:   2     0.917632359617E+03   -0.73688E+04   -0.69181E+04  8424   0.659E+02
DAV:   3    -0.678413798980E+03   -0.15960E+04   -0.14044E+04  8424   0.283E+02
DAV:   4    -0.834277770014E+03   -0.15586E+03   -0.15316E+03  8424   0.856E+01
DAV:   5    -0.836801796805E+03   -0.25240E+01   -0.25123E+01  8424   0.122E+01
SDA:   6    -0.261089366029E+03    0.57571E+03   -0.25123E+01  8424   0.607E+04 0.000E+00
CGA:   7    -0.253552767964E+03    0.75366E+01   -0.42267E+03  8424   0.270E+05-0.331E+04
CGA:   8     0.972096939650E+03    0.12256E+04   -0.16854E+04  8424   0.949E+05-0.378E+05
CGA:   9     0.485017482901E+04    0.38781E+04   -0.69258E+04  8424   0.186E+05-0.927E+04
CGA:  10     0.884161370114E+03   -0.39660E+04   -0.62683E+03  8424   0.232E+05-0.118E+05
CGA:  11     0.611021454477E+03   -0.27314E+03   -0.98262E+03  8424   0.587E+05-0.493E+05
CGA:  12     0.422780471165E+04    0.36168E+04   -0.36378E+04  8424   0.183E+05-0.876E+04
CGA:  13     0.465584674315E+03   -0.37622E+04   -0.47541E+03  8424   0.322E+05-0.682E+05
CGA:  14     0.764986854426E+03    0.29940E+03   -0.15708E+04  8424   0.645E+05-0.550E+05
CGA:  15     0.239311272997E+04    0.16281E+04   -0.36724E+04  8424   0.210E+06-0.140E+06
CGA:  16     0.458613214801E+04    0.21930E+04   -0.13594E+05  8424   0.172E+05-0.126E+05
CGA:  17    -0.552633894495E+03   -0.51388E+04   -0.46666E+03  8424   0.746E+04 0.535E+05
CGA:  18    -0.646778012537E+03   -0.94144E+02   -0.30495E+03  8424   0.817E+02 0.731E+01
CGA:  19    -0.660405421015E+03   -0.13627E+02   -0.13873E+02  8424   0.524E+02-0.136E+01
CGA:  20    -0.666845357686E+03   -0.64399E+01   -0.63565E+01  8424   0.286E+02-0.361E+01
CGA:  21    -0.671768326790E+03   -0.49230E+01   -0.65962E+01  8424   0.329E+02-0.718E+01
CGA:  22    -0.673286219427E+03   -0.15179E+01   -0.13620E+01  8424   0.177E+02-0.217E+02
CGA:  23    -0.673956637386E+03   -0.67042E+00   -0.10906E+01  8424   0.132E+02-0.444E+01
CGA:  24    -0.674979502944E+03   -0.10229E+01   -0.10202E+01  8424   0.338E+01-0.114E+00
CGA:  25    -0.675535788251E+03   -0.55629E+00   -0.55218E+00  8424   0.197E+01 0.621E-01
CGA:  26    -0.675795208679E+03   -0.25942E+00   -0.26020E+00  8424   0.725E+00 0.287E+00
CGA:  27    -0.675922702297E+03   -0.12749E+00   -0.12559E+00  8424   0.485E+00 0.610E-01
CGA:  28    -0.676031293661E+03   -0.10859E+00   -0.10808E+00  8424   0.300E+00-0.151E-02
CGA:  29    -0.676087399816E+03   -0.56106E-01   -0.55484E-01  8424   0.969E-01 0.108E-01
CGA:  30    -0.676106155406E+03   -0.18756E-01   -0.18288E-01  8424   0.435E-01 0.800E-02
CGA:  31    -0.676114213226E+03   -0.80578E-02   -0.80324E-02  8424   0.218E-01 0.491E-03
CGA:  32    -0.676119622837E+03   -0.54096E-02   -0.59477E-02  8424   0.325E-01-0.439E-02
CGA:  33    -0.676124920441E+03   -0.52976E-02   -0.58568E-02  8424   0.240E-01-0.662E-02
CGA:  34    -0.676129923032E+03   -0.50026E-02   -0.51238E-02  8424   0.161E-01-0.124E-02
CGA:  35    -0.676135143991E+03   -0.52210E-02   -0.89514E-02  8424   0.442E-01-0.884E-02
CGA:  36    -0.676141676207E+03   -0.65322E-02   -0.64594E-02  8424   0.142E-01-0.242E-02
CGA:  37    -0.676144683086E+03   -0.30069E-02   -0.30932E-02  8424   0.181E-01-0.161E-02
CGA:  38    -0.676147986705E+03   -0.33036E-02   -0.56709E-02  8424   0.460E-01-0.141E-01
CGA:  39    -0.676151915942E+03   -0.39292E-02   -0.41705E-02  8424   0.120E-01 0.248E-02
CGA:  40    -0.676154370743E+03   -0.24548E-02   -0.24607E-02  8424   0.696E-02-0.628E-03
CGA:  41    -0.676156353216E+03   -0.19825E-02   -0.22619E-02  8424   0.998E-02-0.181E-02
CGA:  42    -0.676159910071E+03   -0.35569E-02    0.28259E-02  8424   0.109E-01 0.666E-02
CGA:  43    -0.676163123255E+03   -0.32132E-02   -0.39518E-02  8424   0.165E-01-0.436E-02
CGA:  44    -0.676163283633E+03   -0.16038E-03   -0.59644E-02  8424   0.564E-01-0.146E-01
CGA:  45    -0.676175936481E+03   -0.12653E-01   -0.12644E-01  8424   0.219E-01 0.264E-02
CGA:  46    -0.676179655132E+03   -0.37187E-02   -0.35861E-02  8424   0.150E-01-0.249E-02
CGA:  47    -0.676182491563E+03   -0.28364E-02   -0.28287E-02  8424   0.199E-01-0.166E-02
CGA:  48    -0.676191790676E+03   -0.92991E-02    0.94183E-02  8424   0.201E-01 0.168E-01
CGA:  49    -0.676196583218E+03   -0.47925E-02   -0.49595E-02  8424   0.421E-01-0.618E-02
CGA:  50    -0.676204342000E+03   -0.77588E-02   -0.93322E-02  8424   0.757E-01-0.153E-01
CGA:  51    -0.676213868984E+03   -0.95270E-02   -0.19558E-01  8424   0.370E+00-0.567E-01
CGA:  52    -0.676261830691E+03   -0.47962E-01   -0.49344E-01  8424   0.119E+00-0.154E-01
CGA:  53    -0.676288897374E+03   -0.27067E-01   -0.27080E-01  8424   0.346E-01-0.150E-02
CGA:  54    -0.676300072291E+03   -0.11175E-01   -0.22254E-01  8424   0.204E+00-0.255E-01
CGA:  55    -0.676327659161E+03   -0.27587E-01   -0.27424E-01  8424   0.305E-01-0.129E-02
CGA:  56    -0.676318979398E+03    0.86798E-02   -0.11412E-01  8424   0.299E+00-0.385E-01
CGA:  57    -0.676374177840E+03   -0.55198E-01   -0.55188E-01  8424   0.956E-01 0.412E-02
CGA:  58    -0.676396968163E+03   -0.22790E-01   -0.22275E-01  8424   0.119E-01-0.447E-02
CGA:  59    -0.676402568874E+03   -0.56007E-02   -0.87800E-02  8424   0.499E-01-0.882E-02
CGA:  60    -0.676411299415E+03   -0.87305E-02   -0.82546E-02  8424   0.828E-02-0.218E-02
CGA:  61    -0.676414344921E+03   -0.30455E-02   -0.29413E-02  8424   0.880E-02-0.187E-02
CGA:  62    -0.676362242764E+03    0.52102E-01   -0.31034E-01  8424   0.268E+00-0.284E-01
CGA:  63    -0.676412003099E+03   -0.49760E-01   -0.48779E-01  8424   0.593E-01 0.779E-02
CGA:  64    -0.676429223011E+03   -0.17220E-01   -0.17231E-01  8424   0.133E-01-0.570E-04
CGA:  65    -0.676431917872E+03   -0.26949E-02   -0.31550E-02  8424   0.302E-02 0.107E-02
CGA:  66    -0.676432828003E+03   -0.91013E-03   -0.12995E-02  8424   0.216E-02 0.134E-02
CGA:  67    -0.676433330257E+03   -0.50225E-03   -0.97805E-03  8424   0.944E-03 0.132E-02
CGA:  68    -0.676433493668E+03   -0.16341E-03   -0.29885E-03  8424   0.599E-03 0.402E-03
CGA:  69    -0.676433578031E+03   -0.84364E-04   -0.25627E-03  8424   0.386E-03 0.499E-03
CGA:  70    -0.676433572988E+03    0.50438E-05   -0.97994E-04  8424   0.279E-03 0.278E-03
CGA:  71    -0.676433596412E+03   -0.23424E-04   -0.89557E-04  8424   0.250E-03 0.230E-03
CGA:  72    -0.676433585205E+03    0.11207E-04   -0.59484E-04  8424   0.224E-03 0.199E-03
CGA:  73    -0.676433626681E+03   -0.41476E-04   -0.79203E-04  8424   0.235E-03 0.169E-03
CGA:  74    -0.676433619463E+03    0.72186E-05   -0.47372E-04  8424   0.194E-03 0.151E-03
CGA:  75    -0.676433679077E+03   -0.59614E-04   -0.78109E-04  8424   0.253E-03 0.127E-03
CGA:  76    -0.676433679063E+03    0.14137E-07   -0.43619E-04  8424   0.172E-03 0.119E-03
CGA:  77    -0.676433721155E+03   -0.42092E-04   -0.84525E-04  8424   0.262E-03 0.224E-03
CGA:  78    -0.676433816267E+03   -0.95112E-04   -0.83293E-04  8424   0.487E-03-0.613E-04
CGA:  79    -0.676434174064E+03   -0.35780E-03   -0.27817E-03  8424   0.899E-03 0.318E-03
CGA:  80    -0.676434241565E+03   -0.67501E-04   -0.10609E-03  8424   0.129E-03 0.981E-04
CGA:  81    -0.676434390803E+03   -0.14924E-03    0.66881E-03  8424   0.312E-03 0.105E-03
CGA:  82    -0.676434537188E+03   -0.14638E-03   -0.10322E-03  8424   0.952E-03-0.263E-03
CGA:  83    -0.676434606402E+03   -0.69215E-04   -0.10415E-03  8424   0.127E-03 0.938E-04
CGA:  84    -0.676434760209E+03   -0.15381E-03    0.18492E-03  8424   0.305E-03 0.107E-03
CGA:  85    -0.676434901804E+03   -0.14160E-03   -0.10386E-03  8424   0.114E-02-0.298E-03
CGA:  86    -0.676434978261E+03   -0.76457E-04   -0.11579E-03  8424   0.126E-03 0.111E-03
CGA:  87    -0.676435116343E+03   -0.13808E-03    0.25245E-03  8424   0.326E-03 0.959E-04
CGA:  88    -0.676435261739E+03   -0.14540E-03   -0.10620E-03  8424   0.118E-02-0.334E-03
CGA:  89    -0.676435335554E+03   -0.73814E-04   -0.11630E-03  8424   0.126E-03 0.126E-03
CGA:  90    -0.676435458705E+03   -0.12315E-03    0.60355E-03  8424   0.351E-03 0.852E-04
CGA:  91    -0.676435608984E+03   -0.15028E-03   -0.11117E-03  8424   0.126E-02-0.378E-03
CGA:  92    -0.676435682884E+03   -0.73901E-04   -0.12009E-03  8424   0.126E-03 0.146E-03
CGA:  93    -0.676435426732E+03    0.25615E-03   -0.16549E-03  8424   0.115E-01-0.299E-03
CGA:  94    -0.676436862985E+03   -0.14363E-02   -0.11859E-02  8424   0.197E-03-0.472E-03
CGA:  95    -0.676436986365E+03   -0.12338E-03   -0.11390E-03  8424   0.101E-02-0.103E-03
CGA:  96    -0.676437167235E+03   -0.18087E-03   -0.13792E-03  8424   0.214E-03-0.788E-04
CGA:  97    -0.676437259199E+03   -0.91964E-04   -0.25091E-03  8424   0.348E-02-0.266E-03
CGA:  98    -0.676437815022E+03   -0.55582E-03   -0.47245E-03  8424   0.427E-03-0.155E-03
CGA:  99    -0.676437917061E+03   -0.10204E-03   -0.91207E-04  8424   0.207E-03-0.252E-04
CGA: 100    -0.676438317946E+03   -0.40089E-03    0.10542E-03  8424   0.260E-03 0.131E-03
CGA: 101    -0.676438428202E+03   -0.11026E-03   -0.10099E-03  8424   0.316E-03-0.373E-04
CGA: 102    -0.676438905756E+03   -0.47755E-03    0.21581E-03  8424   0.919E-03 0.151E-04
CGA: 103    -0.676440653711E+03   -0.17480E-02    0.69825E-03  8424   0.112E-02 0.549E-03
CGA: 104    -0.676440943613E+03   -0.28990E-03   -0.25849E-03  8424   0.257E-03-0.791E-04
CGA: 105    -0.676441096024E+03   -0.15241E-03   -0.16615E-03  8424   0.106E-02-0.169E-03
CGA: 106    -0.676441329896E+03   -0.23387E-03   -0.17659E-03  8424   0.298E-03-0.130E-03
CGA: 107    -0.676441494762E+03   -0.16487E-03   -0.17135E-03  8424   0.591E-03-0.109E-03
CGA: 108    -0.676442162366E+03   -0.66760E-03    0.22825E-03  8424   0.114E-02 0.207E-04
CGA: 109    -0.676444010557E+03   -0.18482E-02    0.11251E-02  8424   0.446E-03 0.698E-03
CGA: 110    -0.676444248854E+03   -0.23830E-03   -0.17558E-03  8424   0.888E-03-0.310E-03
CGA: 111    -0.676444305875E+03   -0.57021E-04   -0.10955E-03  8424   0.111E-03 0.114E-03
CGA: 112    -0.676443786910E+03    0.51897E-03   -0.33456E-03  8424   0.755E-02-0.414E-03
CGA: 113    -0.676445376239E+03   -0.15893E-02   -0.13617E-02  8424   0.575E-03-0.483E-03
CGA: 114    -0.676445434830E+03   -0.58591E-04   -0.91060E-04  8424   0.122E-03 0.687E-04
CGA: 115    -0.676443576513E+03    0.18583E-02   -0.98246E-03  8424   0.166E-01-0.679E-03
CGA: 116    -0.676445867796E+03   -0.22913E-02   -0.29987E-02  8424   0.579E-02-0.234E-03
CGA: 117    -0.676446125164E+03   -0.25737E-03   -0.17489E-02  8424   0.511E-02-0.123E-02
CGA: 118    -0.676445454569E+03    0.67059E-03   -0.79342E-03  8424   0.377E-02 0.912E-03
CGA: 119    -0.676442232893E+03    0.32217E-02   -0.74352E-03  8424   0.134E-01 0.517E-02
CGA: 120    -0.676444833360E+03   -0.26005E-02   -0.55066E-02  8424   0.710E-02 0.163E-02
CGA: 121    -0.676440659431E+03    0.41739E-02   -0.18271E-02  8424   0.137E-01 0.579E-02
CGA: 122    -0.676443388906E+03   -0.27295E-02   -0.60816E-02  8424   0.815E-02 0.526E-02
CGA: 123    -0.676442340177E+03    0.10487E-02   -0.36839E-02  8424   0.872E-02 0.656E-02
CGA: 124    -0.676445067236E+03   -0.27271E-02   -0.41269E-02  8424   0.431E-02 0.394E-02
CGA: 125    -0.676447531461E+03   -0.24642E-02   -0.31559E-02  8424   0.149E-02 0.799E-03
CGA: 126    -0.676447943872E+03   -0.41241E-03   -0.52174E-03  8424   0.956E-03 0.267E-04
CGA: 127    -0.676448448726E+03   -0.50485E-03   -0.49984E-03  8424   0.882E-03-0.205E-03
CGA: 128    -0.676448549194E+03   -0.10047E-03   -0.16550E-03  8424   0.285E-03-0.331E-04
CGA: 129    -0.676449002811E+03   -0.45362E-03    0.97144E-03  8424   0.208E-03 0.105E-03
CGA: 130    -0.676449215033E+03   -0.21222E-03   -0.21226E-03  8424   0.135E-02-0.115E-03
CGA: 131    -0.676449417971E+03   -0.20294E-03   -0.19085E-03  8424   0.141E-03-0.177E-04
CGA: 132    -0.676449722935E+03   -0.30496E-03    0.93331E-04  8424   0.275E-03 0.842E-04
CGA: 133    -0.676449742281E+03   -0.19346E-04   -0.43038E-04  8424   0.879E-04 0.430E-04
CGA: 134    -0.676449945750E+03   -0.20347E-03    0.77338E-04  8424   0.193E-03 0.482E-04
CGA: 135    -0.676450082439E+03   -0.13669E-03   -0.88162E-04  8424   0.585E-03-0.210E-03
CGA: 136    -0.676450127032E+03   -0.44593E-04   -0.80755E-04  8424   0.525E-04 0.675E-04
CGA: 137    -0.676450235987E+03   -0.10896E-03    0.44314E-04  8424   0.183E-03 0.606E-05
CGA: 138    -0.676450820244E+03   -0.58426E-03    0.55674E-04  8424   0.350E-03 0.564E-04
CGA: 139    -0.676451970753E+03   -0.11505E-02    0.15971E-03  8424   0.932E-03-0.608E-04
CGA: 140    -0.676454134768E+03   -0.21640E-02    0.21593E-03  8424   0.230E-02-0.143E-02
CGA: 141    -0.676455107088E+03   -0.97232E-03   -0.96254E-03  8424   0.883E-03-0.385E-04
CGA: 142    -0.676455499639E+03   -0.39255E-03   -0.39449E-03  8424   0.707E-03 0.149E-04
CGA: 143    -0.676455713020E+03   -0.21338E-03   -0.21106E-03  8424   0.107E-03-0.438E-05
CGA: 144    -0.676455773518E+03   -0.60498E-04   -0.71110E-04  8424   0.542E-03-0.197E-03
CGA: 145    -0.676455802322E+03   -0.28804E-04   -0.71491E-04  8424   0.464E-04 0.893E-04
CGA: 146    -0.676455815183E+03   -0.12861E-04   -0.13484E-04  8424   0.223E-04 0.171E-05
CGA: 147    -0.676455893245E+03   -0.78062E-04    0.34345E-05  8424   0.823E-04-0.202E-04
CGA: 148    -0.676455897674E+03   -0.44294E-05   -0.11942E-04  8424   0.145E-04 0.175E-04
   1 F= -.67645590E+03 E0= -.67645590E+03  d E =-.676456E+03  mag=     1.0000
       N       E                     dE             d eps       ncg     rms          ort
SDA:   1    -0.676456103627E+03   -0.21038E-03    0.00000E+00  8424   0.806E-03 0.000E+00
CGA:   2    -0.676456207277E+03   -0.10365E-03   -0.13229E-03  8424   0.290E-03 0.745E-04
CGA:   3    -0.676456305092E+03   -0.97815E-04   -0.85271E-04  8424   0.129E-03-0.477E-04
CGA:   4    -0.676456340125E+03   -0.35033E-04   -0.24899E-04  8424   0.640E-04-0.352E-04
CGA:   5    -0.676456096226E+03    0.24390E-03   -0.65006E-04  8424   0.334E-02-0.348E-03
CGA:   6    -0.676456474040E+03   -0.37781E-03   -0.37126E-03  8424   0.313E-03-0.155E-04
CGA:   7    -0.676456569334E+03   -0.95295E-04   -0.85137E-04  8424   0.798E-04-0.401E-04
CGA:   8    -0.676456602583E+03   -0.33249E-04   -0.42590E-04  8424   0.313E-03-0.967E-04
CGA:   9    -0.676456672505E+03   -0.69922E-04   -0.50804E-04  8424   0.382E-04-0.535E-04
CGA:  10    -0.676455767294E+03    0.90521E-03   -0.49567E-03  8424   0.707E-02-0.367E-03
CGA:  11    -0.676456890994E+03   -0.11237E-02   -0.10456E-02  8424   0.342E-03-0.864E-04
CGA:  12    -0.676456979006E+03   -0.88013E-04   -0.92910E-04  8424   0.667E-04 0.797E-05
CGA:  13    -0.676457051148E+03   -0.72142E-04   -0.38658E-04  8424   0.369E-03-0.119E-03
CGA:  14    -0.676457070712E+03   -0.19564E-04   -0.42787E-04  8424   0.227E-04 0.331E-04
CGA:  15    -0.676456832041E+03    0.23867E-03   -0.61020E-04  8424   0.176E-02-0.181E-03
CGA:  16    -0.676457276863E+03   -0.44482E-03   -0.38037E-03  8424   0.276E-03-0.971E-04
CGA:  17    -0.676457302107E+03   -0.25244E-04   -0.42628E-04  8424   0.423E-04 0.257E-04
CGA:  18    -0.676457342254E+03   -0.40147E-04   -0.28875E-04  8424   0.114E-03-0.599E-04
CGA:  19    -0.676457400218E+03   -0.57964E-04   -0.36338E-04  8424   0.402E-04-0.446E-04
CGA:  20    -0.676457442374E+03   -0.42156E-04    0.95170E-04  8424   0.108E-03-0.295E-04
CGA:  21    -0.676457509982E+03   -0.67608E-04   -0.32074E-04  8424   0.895E-04-0.739E-04
CGA:  22    -0.676457515315E+03   -0.53323E-05   -0.11939E-04  8424   0.562E-05 0.106E-04
   2 F= -.67645752E+03 E0= -.67645752E+03  d E =-.161764E-02  mag=     1.0000
       N       E                     dE             d eps       ncg     rms          ort
SDA:   1    -0.676450846791E+03    0.66632E-02    0.00000E+00  8424   0.220E-01 0.000E+00
CGA:   2    -0.676456677770E+03   -0.58310E-02   -0.58498E-02  8424   0.983E-02 0.377E-04
CGA:   3    -0.676458510728E+03   -0.18330E-02   -0.18045E-02  8424   0.250E-02-0.538E-04
CGA:   4    -0.676458960343E+03   -0.44962E-03   -0.43403E-03  8424   0.669E-03-0.316E-04
CGA:   5    -0.676459085459E+03   -0.12512E-03   -0.11446E-03  8424   0.142E-03-0.225E-04
CGA:   6    -0.676459139449E+03   -0.53991E-04   -0.38000E-04  8424   0.764E-04-0.458E-04
CGA:   7    -0.676459078875E+03    0.60574E-04   -0.60097E-04  8424   0.134E-02-0.220E-03
CGA:   8    -0.676459275237E+03   -0.19636E-03   -0.18548E-03  8424   0.143E-03-0.220E-04
CGA:   9    -0.676459335430E+03   -0.60193E-04   -0.50193E-04  8424   0.748E-04-0.394E-04
CGA:  10    -0.676459351909E+03   -0.16479E-04   -0.44258E-04  8424   0.421E-03-0.128E-03
CGA:  11    -0.676459441261E+03   -0.89352E-04   -0.77131E-04  8424   0.568E-04-0.287E-04
CGA:  12    -0.676459461410E+03   -0.20149E-04   -0.47823E-04  8424   0.269E-03-0.881E-04
CGA:  13    -0.676459544833E+03   -0.83424E-04   -0.60504E-04  8424   0.717E-04-0.604E-04
CGA:  14    -0.676459561276E+03   -0.16443E-04   -0.14183E-04  8424   0.257E-04-0.688E-05
CGA:  15    -0.676459622498E+03   -0.61222E-04    0.49998E-05  8424   0.109E-03-0.357E-04
CGA:  16    -0.676459632895E+03   -0.10397E-04   -0.14789E-04  8424   0.139E-04 0.102E-04
CGA:  17    -0.676459677328E+03   -0.44433E-04    0.24913E-05  8424   0.382E-04-0.150E-04
CGA:  18    -0.676459693665E+03   -0.16337E-04   -0.12489E-04  8424   0.267E-04-0.175E-04
CGA:  19    -0.676459764454E+03   -0.70789E-04    0.10859E-05  8424   0.119E-03-0.264E-04
CGA:  20    -0.676459771141E+03   -0.66873E-05   -0.13484E-04  8424   0.137E-04 0.162E-04
   3 F= -.67645977E+03 E0= -.67645977E+03  d E =-.225583E-02  mag=     1.0000
       N       E                     dE             d eps       ncg     rms          ort
SDA:   1    -0.674835305596E+03    0.16245E+01    0.00000E+00  8424   0.418E+01 0.000E+00
CGA:   2    -0.676031194745E+03   -0.11959E+01   -0.11954E+01  8424   0.178E+01 0.757E-03
CGA:   3    -0.676345096359E+03   -0.31390E+00   -0.31449E+00  8424   0.449E+00 0.226E-02
CGA:   4    -0.676423885386E+03   -0.78789E-01   -0.78678E-01  8424   0.116E+00-0.235E-03
CGA:   5    -0.676443291172E+03   -0.19406E-01   -0.19332E-01  8424   0.231E-01-0.263E-03
CGA:   6    -0.676447983522E+03   -0.46923E-02   -0.47042E-02  8424   0.566E-02 0.394E-04
CGA:   7    -0.676449443067E+03   -0.14595E-02   -0.14245E-02  8424   0.230E-02-0.183E-03
CGA:   8    -0.676450049518E+03   -0.60645E-03   -0.59610E-03  8424   0.897E-03-0.621E-04
CGA:   9    -0.676450395526E+03   -0.34601E-03   -0.33902E-03  8424   0.635E-03-0.188E-03
CGA:  10    -0.676450623063E+03   -0.22754E-03   -0.24901E-03  8424   0.689E-03-0.297E-03
CGA:  11    -0.676450762610E+03   -0.13955E-03   -0.21364E-03  8424   0.111E-02-0.480E-03
CGA:  12    -0.676451056597E+03   -0.29399E-03   -0.29107E-03  8424   0.433E-03-0.174E-04
CGA:  13    -0.676451245161E+03   -0.18856E-03   -0.19054E-03  8424   0.441E-03-0.975E-04
CGA:  14    -0.676451350972E+03   -0.10581E-03   -0.99416E-04  8424   0.243E-03-0.475E-04
CGA:  15    -0.676451162194E+03    0.18878E-03   -0.26462E-03  8424   0.245E-02-0.569E-03
CGA:  16    -0.676451566869E+03   -0.40468E-03   -0.45747E-03  8424   0.447E-03 0.193E-03
CGA:  17    -0.676451750609E+03   -0.18374E-03   -0.16445E-03  8424   0.429E-03-0.182E-03
CGA:  18    -0.676451814840E+03   -0.64230E-04   -0.65192E-04  8424   0.239E-03 0.479E-05
CGA:  19    -0.676451874017E+03   -0.59178E-04   -0.62439E-04  8424   0.175E-03 0.181E-04
CGA:  20    -0.676451933180E+03   -0.59163E-04   -0.11398E-03  8424   0.825E-03-0.306E-03
CGA:  21    -0.676452019438E+03   -0.86258E-04   -0.11693E-03  8424   0.155E-03 0.106E-03
CGA:  22    -0.676452089865E+03   -0.70427E-04   -0.69334E-04  8424   0.889E-04-0.503E-04
CGA:  23    -0.676452160276E+03   -0.70410E-04    0.30913E-04  8424   0.885E-04 0.225E-04
CGA:  24    -0.676452216720E+03   -0.56444E-04   -0.63949E-04  8424   0.227E-03-0.485E-04
CGA:  25    -0.676452301649E+03   -0.84929E-04   -0.62884E-04  8424   0.273E-03-0.149E-03
CGA:  26    -0.676452310957E+03   -0.93074E-05   -0.26802E-04  8424   0.262E-04 0.550E-04
   4 F= -.67645231E+03 E0= -.67645231E+03  d E =0.746018E-02  mag=     1.0000
       N       E                     dE             d eps       ncg     rms          ort
SDA:   1    -0.676103894221E+03    0.34841E+00    0.00000E+00  8424   0.112E+01 0.000E+00
CGA:   2    -0.676335278067E+03   -0.23138E+00   -0.23162E+00  8424   0.453E+00 0.471E-03
CGA:   3    -0.676428581505E+03   -0.93303E-01   -0.93239E-01  8424   0.143E+00-0.326E-03
CGA:   4    -0.676452589430E+03   -0.24008E-01   -0.24006E-01  8424   0.375E-01-0.496E-04
CGA:   5    -0.676459046131E+03   -0.64567E-02   -0.64669E-02  8424   0.718E-02 0.458E-04
CGA:   6    -0.676460514184E+03   -0.14681E-02   -0.14610E-02  8424   0.166E-02-0.486E-04
CGA:   7    -0.676460887077E+03   -0.37289E-03   -0.37337E-03  8424   0.534E-03 0.365E-05
CGA:   8    -0.676461038514E+03   -0.15144E-03   -0.14845E-03  8424   0.192E-03-0.486E-04
CGA:   9    -0.676461102805E+03   -0.64291E-04   -0.68625E-04  8424   0.158E-03-0.775E-04
CGA:  10    -0.676461018677E+03    0.84128E-04   -0.95431E-04  8424   0.973E-03-0.269E-03
CGA:  11    -0.676461215203E+03   -0.19653E-03   -0.18819E-03  8424   0.180E-03-0.467E-04
CGA:  12    -0.676461289251E+03   -0.74048E-04   -0.82134E-04  8424   0.151E-03-0.695E-04
CGA:  13    -0.676461363197E+03   -0.73946E-04    0.20721E-03  8424   0.104E-03-0.294E-04
CGA:  14    -0.676461431586E+03   -0.68388E-04    0.14475E-03  8424   0.680E-04-0.255E-04
CGA:  15    -0.676461496263E+03   -0.64677E-04    0.13418E-04  8424   0.503E-04-0.131E-04
CGA:  16    -0.676461584816E+03   -0.88553E-04    0.38400E-05  8424   0.428E-04 0.600E-05
CGA:  17    -0.676461670174E+03   -0.85358E-04    0.62522E-05  8424   0.280E-04 0.137E-04
CGA:  18    -0.676461770494E+03   -0.10032E-03    0.25564E-05  8424   0.189E-04 0.167E-04
CGA:  19    -0.676461789697E+03   -0.19202E-04    0.93076E-05  8424   0.219E-04-0.143E-05
CGA:  20    -0.676461855273E+03   -0.65576E-04    0.11035E-05  8424   0.189E-04 0.189E-05
CGA:  21    -0.676461937465E+03   -0.82192E-04    0.86121E-06  8424   0.155E-04 0.137E-04
CGA:  22    -0.676461950853E+03   -0.13388E-04    0.17012E-04  8424   0.206E-04-0.676E-06
CGA:  23    -0.676462021678E+03   -0.70825E-04    0.94469E-06  8424   0.134E-04 0.327E-05
CGA:  24    -0.676462094526E+03   -0.72848E-04    0.53606E-06  8424   0.154E-04 0.111E-04
CGA:  25    -0.676462089328E+03    0.51982E-05   -0.14850E-04  8424   0.233E-03-0.339E-04
CGA:  26    -0.676462188121E+03   -0.98794E-04   -0.69205E-04  8424   0.408E-03-0.289E-03
CGA:  27    -0.676462199027E+03   -0.10906E-04   -0.39497E-04  8424   0.263E-04 0.962E-04
CGA:  28    -0.676462197513E+03    0.15139E-05   -0.23863E-05  8424   0.689E-05 0.127E-04
CGA:  29    -0.676462123880E+03    0.73633E-04   -0.15479E-04  8424   0.912E-03-0.780E-04
CGA:  30    -0.676462360065E+03   -0.23618E-03   -0.16218E-03  8424   0.127E-03-0.304E-03
CGA:  31    -0.676462363517E+03   -0.34513E-05   -0.11409E-04  8424   0.184E-04 0.290E-04
   5 F= -.67646236E+03 E0= -.67646236E+03  d E =-.100526E-01  mag=     1.0000
       N       E                     dE             d eps       ncg     rms          ort
SDA:   1    -0.676437301920E+03    0.25058E-01    0.00000E+00  8424   0.750E-01 0.000E+00
CGA:   2    -0.676454471814E+03   -0.17170E-01   -0.17159E-01  8424   0.339E-01-0.819E-04
CGA:   3    -0.676461352297E+03   -0.68805E-02   -0.68681E-02  8424   0.963E-02-0.805E-04
CGA:   4    -0.676462931843E+03   -0.15795E-02   -0.15758E-02  8424   0.237E-02-0.206E-04
CGA:   5    -0.676463344757E+03   -0.41291E-03   -0.40915E-03  8424   0.468E-03-0.212E-04
CGA:   6    -0.676463455464E+03   -0.11071E-03   -0.10571E-03  8424   0.138E-03-0.429E-04
CGA:   7    -0.676463496901E+03   -0.41437E-04   -0.40493E-04  8424   0.107E-03-0.589E-04
CGA:   8    -0.676462508009E+03    0.98889E-03   -0.53893E-03  8424   0.628E-02-0.611E-03
CGA:   9    -0.676463460791E+03   -0.95278E-03   -0.94663E-03  8424   0.751E-03-0.138E-04
CGA:  10    -0.676463712117E+03   -0.25133E-03   -0.24232E-03  8424   0.223E-03-0.335E-04
CGA:  11    -0.676463799823E+03   -0.87705E-04   -0.78137E-04  8424   0.108E-03-0.448E-04
CGA:  12    -0.676463847276E+03   -0.47453E-04   -0.55418E-04  8424   0.225E-03-0.109E-03
CGA:  13    -0.676463894769E+03   -0.47493E-04   -0.45425E-04  8424   0.343E-04-0.563E-05
CGA:  14    -0.676463943051E+03   -0.48282E-04    0.30837E-04  8424   0.672E-04-0.248E-04
CGA:  15    -0.676463948923E+03   -0.58720E-05   -0.90687E-05  8424   0.874E-05 0.763E-05
   6 F= -.67646395E+03 E0= -.67646395E+03  d E =-.158541E-02  mag=     1.0000
       N       E                     dE             d eps       ncg     rms          ort
SDA:   1    -0.676434576111E+03    0.29367E-01    0.00000E+00  8424   0.760E-01 0.000E+00
CGA:   2    -0.676455286669E+03   -0.20711E-01   -0.20689E-01  8424   0.337E-01-0.970E-04
CGA:   3    -0.676461594456E+03   -0.63078E-02   -0.62873E-02  8424   0.875E-02-0.640E-04
CGA:   4    -0.676463063053E+03   -0.14686E-02   -0.14683E-02  8424   0.220E-02-0.192E-05
CGA:   5    -0.676463432743E+03   -0.36969E-03   -0.37222E-03  8424   0.429E-03 0.757E-05
CGA:   6    -0.676463526026E+03   -0.93282E-04   -0.91439E-04  8424   0.112E-03-0.724E-05
CGA:   7    -0.676463561937E+03   -0.35912E-04   -0.32031E-04  8424   0.615E-04-0.234E-04
CGA:   8    -0.676463583063E+03   -0.21125E-04   -0.25259E-04  8424   0.133E-03-0.595E-04
CGA:   9    -0.676463609717E+03   -0.26655E-04   -0.23502E-04  8424   0.255E-04-0.114E-04
CGA:  10    -0.676463630552E+03   -0.20835E-04    0.34928E-03  8424   0.221E-04-0.106E-04
CGA:  11    -0.676463662846E+03   -0.32294E-04    0.15430E-05  8424   0.183E-04-0.527E-05
CGA:  12    -0.676463709479E+03   -0.46633E-04    0.10874E-05  8424   0.126E-04 0.313E-05
CGA:  13    -0.676463760085E+03   -0.50606E-04    0.11139E-05  8424   0.926E-05 0.419E-05
CGA:  14    -0.676463811668E+03   -0.51583E-04    0.72380E-06  8424   0.757E-05 0.344E-05
CGA:  15    -0.676463872471E+03   -0.60804E-04    0.40272E-06  8424   0.683E-05 0.672E-05
CGA:  16    -0.676463892167E+03   -0.19696E-04    0.65952E-06  8424   0.451E-05 0.786E-06
CGA:  17    -0.676463922055E+03   -0.29888E-04    0.19205E-06  8424   0.400E-05 0.274E-05
CGA:  18    -0.676463938374E+03   -0.16318E-04    0.24169E-06  8424   0.501E-05 0.100E-05
CGA:  19    -0.676463978900E+03   -0.40527E-04    0.21645E-06  8424   0.544E-05 0.294E-05
CGA:  20    -0.676463994024E+03   -0.15124E-04    0.55371E-06  8424   0.881E-05-0.702E-06
CGA:  21    -0.676464043322E+03   -0.49298E-04    0.26738E-06  8424   0.118E-04-0.474E-06
CGA:  22    -0.676464121407E+03   -0.78086E-04    0.35571E-06  8424   0.127E-04 0.851E-05
CGA:  23    -0.676464135088E+03   -0.13680E-04    0.12711E-04  8424   0.301E-04-0.924E-05
CGA:  24    -0.676464149820E+03   -0.14732E-04   -0.10136E-04  8424   0.833E-04-0.446E-04
CGA:  25    -0.676464158426E+03   -0.86064E-05   -0.98896E-05  8424   0.260E-05 0.409E-05
   7 F= -.67646416E+03 E0= -.67646416E+03  d E =-.209503E-03  mag=     1.0000
       N       E                     dE             d eps       ncg     rms          ort
SDA:   1    -0.676459293379E+03    0.48564E-02    0.00000E+00  8424   0.134E-01 0.000E+00
CGA:   2    -0.676462113938E+03   -0.28206E-02   -0.28206E-02  8424   0.566E-02-0.153E-05
CGA:   3    -0.676463305384E+03   -0.11914E-02   -0.11906E-02  8424   0.179E-02-0.563E-05
CGA:   4    -0.676463609936E+03   -0.30455E-03   -0.29872E-03  8424   0.448E-03-0.256E-04
CGA:   5    -0.676463696443E+03   -0.86507E-04   -0.80200E-04  8424   0.973E-04-0.309E-04
CGA:   6    -0.676463724698E+03   -0.28255E-04   -0.24846E-04  8424   0.507E-04-0.334E-04
CGA:   7    -0.676463035222E+03    0.68948E-03   -0.37712E-03  8424   0.529E-02-0.380E-03
CGA:   8    -0.676463738155E+03   -0.70293E-03   -0.69923E-03  8424   0.454E-03-0.758E-05
CGA:   9    -0.676463872140E+03   -0.13398E-03   -0.12827E-03  8424   0.123E-03-0.157E-04
CGA:  10    -0.676463919418E+03   -0.47278E-04   -0.38982E-04  8424   0.529E-04-0.275E-04
CGA:  11    -0.676463944506E+03   -0.25088E-04   -0.22059E-04  8424   0.762E-04-0.384E-04
CGA:  12    -0.676463974958E+03   -0.30452E-04   -0.19601E-04  8424   0.346E-04-0.305E-04
CGA:  13    -0.676463910065E+03    0.64893E-04   -0.33917E-04  8424   0.721E-03-0.952E-04
CGA:  14    -0.676464063317E+03   -0.15325E-03   -0.12263E-03  8424   0.879E-04-0.647E-04
CGA:  15    -0.676464081191E+03   -0.17874E-04   -0.20089E-04  8424   0.200E-04 0.595E-05
CGA:  16    -0.676464117167E+03   -0.35976E-04    0.16263E-04  8424   0.906E-04-0.288E-04
CGA:  17    -0.676464123132E+03   -0.59650E-05   -0.10812E-04  8424   0.635E-05 0.100E-04
   8 F= -.67646412E+03 E0= -.67646412E+03  d E =0.352943E-04  mag=     1.0000
       N       E                     dE             d eps       ncg     rms          ort
SDA:   1    -0.676455079379E+03    0.90378E-02    0.00000E+00  8424   0.236E-01 0.000E+00
CGA:   2    -0.676459917014E+03   -0.48376E-02   -0.48624E-02  8424   0.943E-02 0.656E-04
CGA:   3    -0.676462013580E+03   -0.20966E-02   -0.20867E-02  8424   0.308E-02-0.313E-04
CGA:   4    -0.676462499813E+03   -0.48623E-03   -0.48797E-03  8424   0.729E-03 0.392E-05
CGA:   5    -0.676462636052E+03   -0.13624E-03   -0.13053E-03  8424   0.152E-03-0.166E-04
CGA:   6    -0.676462687210E+03   -0.51158E-04   -0.39223E-04  8424   0.795E-04-0.491E-04
CGA:   7    -0.676462709607E+03   -0.22397E-04   -0.15983E-04  8424   0.487E-04-0.324E-04
CGA:   8    -0.676462744811E+03   -0.35204E-04    0.27395E-04  8424   0.720E-04-0.329E-04
CGA:   9    -0.676462764345E+03   -0.19534E-04   -0.15117E-04  8424   0.232E-04-0.160E-04
CGA:  10    -0.676462792388E+03   -0.28043E-04    0.65755E-05  8424   0.281E-04-0.126E-04
CGA:  11    -0.676462801327E+03   -0.89390E-05   -0.64886E-05  8424   0.113E-04-0.102E-04
   9 F= -.67646280E+03 E0= -.67646280E+03  d E =0.132181E-02  mag=     1.0000
       N       E                     dE             d eps       ncg     rms          ort
SDA:   1    -0.676451610156E+03    0.11182E-01    0.00000E+00  8424   0.357E-01 0.000E+00
CGA:   2    -0.676458298895E+03   -0.66887E-02   -0.66611E-02  8424   0.130E-01-0.109E-03
CGA:   3    -0.676461323432E+03   -0.30245E-02   -0.30232E-02  8424   0.476E-02-0.113E-04
CGA:   4    -0.676462103850E+03   -0.78042E-03   -0.76696E-03  8424   0.109E-02-0.502E-04
CGA:   5    -0.676462300541E+03   -0.19669E-03   -0.19148E-03  8424   0.228E-03-0.215E-04
CGA:   6    -0.676462342419E+03   -0.41877E-04   -0.43029E-04  8424   0.539E-04 0.523E-05
CGA:   7    -0.676462364375E+03   -0.21956E-04   -0.21845E-04  8424   0.701E-04-0.406E-04
CGA:   8    -0.676462379923E+03   -0.15548E-04   -0.12584E-04  8424   0.144E-04-0.136E-04
CGA:   9    -0.676462400802E+03   -0.20880E-04    0.17066E-05  8424   0.148E-04-0.754E-05
CGA:  10    -0.676462406428E+03   -0.56255E-05   -0.45023E-05  8424   0.205E-04-0.135E-04
CGA:  11    -0.676461740789E+03    0.66564E-03   -0.36750E-03  8424   0.583E-02-0.341E-03
CGA:  12    -0.676462475175E+03   -0.73439E-03   -0.77960E-03  8424   0.124E-03 0.824E-04
CGA:  13    -0.676462511107E+03   -0.35933E-04   -0.20414E-04  8424   0.136E-04-0.305E-04
CGA:  14    -0.676462513114E+03   -0.20065E-05   -0.19332E-05  8424   0.256E-05-0.166E-06
  10 F= -.67646251E+03 E0= -.67646251E+03  d E =0.288213E-03  mag=     1.0000
       N       E                     dE             d eps       ncg     rms          ort
SDA:   1    -0.676455843197E+03    0.66679E-02    0.00000E+00  8424   0.188E-01 0.000E+00
CGA:   2    -0.676460811126E+03   -0.49679E-02   -0.49402E-02  8424   0.830E-02-0.790E-04
CGA:   3    -0.676462406812E+03   -0.15957E-02   -0.16092E-02  8424   0.217E-02 0.329E-04
CGA:   4    -0.676462778976E+03   -0.37216E-03   -0.35417E-03  8424   0.552E-03-0.433E-04
CGA:   5    -0.676462880251E+03   -0.10127E-03   -0.93492E-04  8424   0.115E-03-0.201E-04
CGA:   6    -0.676462902667E+03   -0.22416E-04   -0.22738E-04  8424   0.308E-04 0.903E-06
CGA:   7    -0.676462909181E+03   -0.65143E-05   -0.23349E-04  8424   0.269E-03-0.746E-04
CGA:   8    -0.676462941575E+03   -0.32394E-04   -0.36608E-04  8424   0.231E-04 0.104E-04
CGA:   9    -0.676462641610E+03    0.29997E-03   -0.55465E-04  8424   0.192E-02-0.198E-03
CGA:  10    -0.676462956350E+03   -0.31474E-03   -0.33861E-03  8424   0.258E-03 0.543E-04
CGA:  11    -0.676463033840E+03   -0.77490E-04   -0.64340E-04  8424   0.499E-04-0.383E-04
CGA:  12    -0.676463041479E+03   -0.76388E-05   -0.91313E-05  8424   0.111E-04 0.421E-05
  11 F= -.67646304E+03 E0= -.67646304E+03  d E =-.528365E-03  mag=     1.0000
       N       E                     dE             d eps       ncg     rms          ort
SDA:   1    -0.676458734093E+03    0.42997E-02    0.00000E+00  8424   0.185E-01 0.000E+00
CGA:   2    -0.676462293668E+03   -0.35596E-02   -0.35331E-02  8424   0.685E-02-0.779E-04
CGA:   3    -0.676463812861E+03   -0.15192E-02   -0.15160E-02  8424   0.253E-02-0.123E-04
CGA:   4    -0.676464230292E+03   -0.41743E-03   -0.40743E-03  8424   0.640E-03-0.285E-04
CGA:   5    -0.676464351198E+03   -0.12091E-03   -0.11295E-03  8424   0.133E-03-0.249E-04
CGA:   6    -0.676464385188E+03   -0.33990E-04   -0.28268E-04  8424   0.436E-04-0.219E-04
CGA:   7    -0.676464398622E+03   -0.13434E-04   -0.21341E-04  8424   0.194E-03-0.692E-04
CGA:   8    -0.676464420850E+03   -0.22229E-04   -0.25008E-04  8424   0.161E-04 0.796E-05
CGA:   9    -0.676464039341E+03    0.38151E-03   -0.20815E-03  8424   0.205E-02-0.172E-03
CGA:  10    -0.676464430840E+03   -0.39150E-03   -0.39617E-03  8424   0.306E-03 0.640E-05
CGA:  11    -0.676464524749E+03   -0.93909E-04   -0.73657E-04  8424   0.480E-04-0.359E-04
CGA:  12    -0.676464533688E+03   -0.89383E-05   -0.96318E-05  8424   0.110E-04 0.125E-05
  12 F= -.67646453E+03 E0= -.67646453E+03  d E =-.149221E-02  mag=     1.0000
       N       E                     dE             d eps       ncg     rms          ort
SDA:   1    -0.676462679762E+03    0.18450E-02    0.00000E+00  8424   0.114E-01 0.000E+00
CGA:   2    -0.676464642200E+03   -0.19624E-02   -0.18781E-02  8424   0.362E-02-0.160E-03
CGA:   3    -0.676465453007E+03   -0.81081E-03   -0.81155E-03  8424   0.145E-02-0.388E-06
CGA:   4    -0.676465708880E+03   -0.25587E-03   -0.23982E-03  8424   0.388E-03-0.306E-04
CGA:   5    -0.676465787836E+03   -0.78957E-04   -0.66157E-04  8424   0.906E-04-0.259E-04
CGA:   6    -0.676465802453E+03   -0.14617E-04   -0.15028E-04  8424   0.185E-04 0.847E-06
CGA:   7    -0.676465813171E+03   -0.10718E-04   -0.12696E-04  8424   0.976E-04-0.343E-04
CGA:   8    -0.676465829687E+03   -0.16516E-04   -0.15375E-04  8424   0.118E-04-0.247E-05
CGA:   9    -0.676465846352E+03   -0.16665E-04    0.17233E-04  8424   0.507E-04-0.196E-04
CGA:  10    -0.676465853139E+03   -0.67864E-05   -0.74927E-05  8424   0.538E-05 0.154E-05
  13 F= -.67646585E+03 E0= -.67646585E+03  d E =-.131945E-02  mag=     1.0000
       N       E                     dE             d eps       ncg     rms          ort
SDA:   1    -0.676465417259E+03    0.42909E-03    0.00000E+00  8424   0.592E-02 0.000E+00
CGA:   2    -0.676466561126E+03   -0.11439E-02   -0.11033E-02  8424   0.221E-02-0.105E-03
CGA:   3    -0.676467020326E+03   -0.45920E-03   -0.46707E-03  8424   0.733E-03 0.224E-04
CGA:   4    -0.676467167389E+03   -0.14706E-03   -0.13564E-03  8424   0.204E-03-0.321E-04
CGA:   5    -0.676467211368E+03   -0.43979E-04   -0.35764E-04  8424   0.487E-04-0.242E-04
CGA:   6    -0.676467221240E+03   -0.98722E-05   -0.85075E-05  8424   0.133E-04-0.445E-05
  14 F= -.67646722E+03 E0= -.67646722E+03  d E =-.136810E-02  mag=     1.0000
       N       E                     dE             d eps       ncg     rms          ort
SDA:   1    -0.676466743428E+03    0.46794E-03    0.00000E+00  8424   0.554E-02 0.000E+00
CGA:   2    -0.676468059086E+03   -0.13157E-02   -0.12947E-02  8424   0.278E-02-0.820E-04
CGA:   3    -0.676468564935E+03   -0.50585E-03   -0.51298E-03  8424   0.771E-03 0.239E-04
CGA:   4    -0.676468701196E+03   -0.13626E-03   -0.12898E-03  8424   0.195E-03-0.246E-04
CGA:   5    -0.676468745932E+03   -0.44736E-04   -0.36415E-04  8424   0.570E-04-0.325E-04
CGA:   6    -0.676468760356E+03   -0.14424E-04   -0.11308E-04  8424   0.235E-04-0.158E-04
CGA:   7    -0.676468778490E+03   -0.18134E-04    0.14316E-04  8424   0.425E-04-0.205E-04
CGA:   8    -0.676468784645E+03   -0.61546E-05   -0.60067E-05  8424   0.546E-05-0.532E-06
  15 F= -.67646878E+03 E0= -.67646878E+03  d E =-.156340E-02  mag=     1.0000
       N       E                     dE             d eps       ncg     rms          ort
SDA:   1    -0.676465876129E+03    0.29024E-02    0.00000E+00  8424   0.170E-01 0.000E+00
CGA:   2    -0.676469637018E+03   -0.37609E-02   -0.37585E-02  8424   0.723E-02-0.139E-04
CGA:   3    -0.676471194249E+03   -0.15572E-02   -0.15499E-02  8424   0.222E-02-0.402E-04
CGA:   4    -0.676471565363E+03   -0.37111E-03   -0.35921E-03  8424   0.558E-03-0.520E-04
CGA:   5    -0.676471667875E+03   -0.10251E-03   -0.96504E-04  8424   0.115E-03-0.295E-04
CGA:   6    -0.676471693575E+03   -0.25699E-04   -0.23778E-04  8424   0.367E-04-0.127E-04
CGA:   7    -0.676471699099E+03   -0.55248E-05   -0.19309E-04  8424   0.169E-03-0.605E-04
CGA:   8    -0.676471724541E+03   -0.25442E-04   -0.23859E-04  8424   0.168E-04-0.681E-05
CGA:   9    -0.676471738898E+03   -0.14357E-04    0.13014E-04  8424   0.129E-04-0.785E-05
CGA:  10    -0.676471756059E+03   -0.17161E-04    0.51228E-06  8424   0.904E-05-0.491E-05
CGA:  11    -0.676471778405E+03   -0.22345E-04    0.22613E-06  8424   0.480E-05-0.554E-07
CGA:  12    -0.676471800064E+03   -0.21659E-04    0.16483E-06  8424   0.328E-05 0.303E-06
CGA:  13    -0.676471825572E+03   -0.25508E-04    0.69991E-07  8424   0.232E-05 0.327E-06
CGA:  14    -0.676471853077E+03   -0.27505E-04    0.33537E-07  8424   0.192E-05 0.130E-05
CGA:  15    -0.676471861928E+03   -0.88512E-05    0.64938E-07  8424   0.120E-05 0.182E-06
  16 F= -.67647186E+03 E0= -.67647186E+03  d E =-.307728E-02  mag=     1.0000
       N       E                     dE             d eps       ncg     rms          ort
SDA:   1    -0.676469887573E+03    0.19655E-02    0.00000E+00  8424   0.623E-02 0.000E+00
CGA:   2    -0.676471411120E+03   -0.15235E-02   -0.15212E-02  8424   0.294E-02-0.204E-04
CGA:   3    -0.676471998632E+03   -0.58751E-03   -0.58078E-03  8424   0.789E-03-0.429E-04
CGA:   4    -0.676472132420E+03   -0.13379E-03   -0.12978E-03  8424   0.204E-03-0.221E-04
CGA:   5    -0.676472169750E+03   -0.37330E-04   -0.35285E-04  8424   0.426E-04-0.127E-04
CGA:   6    -0.676472182063E+03   -0.12312E-04   -0.11561E-04  8424   0.263E-04-0.176E-04
CGA:   7    -0.676472195863E+03   -0.13800E-04    0.71150E-05  8424   0.223E-04-0.130E-04
CGA:   8    -0.676472217332E+03   -0.21469E-04    0.97438E-06  8424   0.137E-04-0.625E-05
CGA:   9    -0.676472238207E+03   -0.20876E-04    0.73822E-06  8424   0.805E-05-0.173E-05
CGA:  10    -0.676472258699E+03   -0.20492E-04    0.34048E-06  8424   0.473E-05-0.430E-06
CGA:  11    -0.676472277487E+03   -0.18788E-04    0.13790E-06  8424   0.280E-05 0.238E-07
CGA:  12    -0.676472296412E+03   -0.18925E-04    0.50651E-07  8424   0.184E-05 0.982E-06
CGA:  13    -0.676472317692E+03   -0.21280E-04    0.34169E-07  8424   0.144E-05 0.992E-06
CGA:  14    -0.676472324948E+03   -0.72569E-05    0.35891E-07  8424   0.916E-06 0.286E-06
  17 F= -.67647232E+03 E0= -.67647232E+03  d E =-.463020E-03  mag=     1.0000
       N       E                     dE             d eps       ncg     rms          ort
SDA:   1    -0.676470996191E+03    0.13215E-02    0.00000E+00  8424   0.186E-02 0.000E+00
CGA:   2    -0.676471372937E+03   -0.37675E-03   -0.37363E-03  8424   0.705E-03-0.243E-04
CGA:   3    -0.676471533227E+03   -0.16029E-03   -0.15858E-03  8424   0.250E-03-0.181E-04
CGA:   4    -0.676471573095E+03   -0.39868E-04   -0.39173E-04  8424   0.610E-04-0.445E-05
CGA:   5    -0.676471586847E+03   -0.13752E-04   -0.12534E-04  8424   0.189E-04-0.120E-04
CGA:   6    -0.676471598749E+03   -0.11903E-04    0.81726E-05  8424   0.164E-04-0.105E-04
CGA:   7    -0.676471603803E+03   -0.50536E-05   -0.48737E-05  8424   0.322E-04-0.191E-04
  18 F= -.67647160E+03 E0= -.67647160E+03  d E =0.721146E-03  mag=     1.0000
       N       E                     dE             d eps       ncg     rms          ort
SDA:   1    -0.676469976610E+03    0.16221E-02    0.00000E+00  8424   0.290E-02 0.000E+00
CGA:   2    -0.676470633252E+03   -0.65664E-03   -0.65448E-03  8424   0.125E-02-0.301E-04
CGA:   3    -0.676470884049E+03   -0.25080E-03   -0.24981E-03  8424   0.381E-03-0.109E-04
CGA:   4    -0.676470945529E+03   -0.61479E-04   -0.61023E-04  8424   0.101E-03-0.362E-05
CGA:   5    -0.676470965757E+03   -0.20228E-04   -0.19033E-04  8424   0.255E-04-0.129E-04
CGA:   6    -0.676470706606E+03    0.25915E-03   -0.14082E-03  8424   0.213E-02-0.197E-03
CGA:   7    -0.676470971802E+03   -0.26520E-03   -0.26715E-03  8424   0.198E-03 0.474E-05
CGA:   8    -0.676471018217E+03   -0.46415E-04   -0.44750E-04  8424   0.460E-04-0.636E-05
CGA:   9    -0.676471038092E+03   -0.19875E-04   -0.17699E-04  8424   0.405E-04-0.274E-04
CGA:  10    -0.676471047423E+03   -0.93308E-05   -0.79995E-05  8424   0.618E-05-0.485E-05
  19 F= -.67647105E+03 E0= -.67647105E+03  d E =0.556380E-03  mag=     1.0000
       N       E                     dE             d eps       ncg     rms          ort
SDA:   1    -0.676471083912E+03   -0.45820E-04    0.00000E+00  8424   0.904E-03 0.000E+00
CGA:   2    -0.676471264515E+03   -0.18060E-03   -0.18026E-03  8424   0.360E-03-0.141E-05
CGA:   3    -0.676471347485E+03   -0.82969E-04   -0.78379E-04  8424   0.164E-03-0.202E-04
CGA:   4    -0.676471373165E+03   -0.25680E-04   -0.22710E-04  8424   0.381E-04-0.104E-04
CGA:   5    -0.676471384811E+03   -0.11646E-04   -0.90116E-05  8424   0.191E-04-0.157E-04
CGA:   6    -0.676471401673E+03   -0.16862E-04    0.28035E-05  8424   0.329E-04-0.164E-04
CGA:   7    -0.676471406416E+03   -0.47434E-05   -0.46704E-05  8424   0.552E-05-0.278E-06
  20 F= -.67647141E+03 E0= -.67647141E+03  d E =-.358993E-03  mag=     1.0000
       N       E                     dE             d eps       ncg     rms          ort
SDA:   1    -0.676470951468E+03    0.45020E-03    0.00000E+00  8424   0.241E-02 0.000E+00
CGA:   2    -0.676471512272E+03   -0.56080E-03   -0.56026E-03  8424   0.109E-02-0.360E-05
CGA:   3    -0.676471738791E+03   -0.22652E-03   -0.22145E-03  8424   0.341E-03-0.273E-04
CGA:   4    -0.676471797161E+03   -0.58370E-04   -0.53765E-04  8424   0.922E-04-0.211E-04
CGA:   5    -0.676471818327E+03   -0.21166E-04   -0.17709E-04  8424   0.278E-04-0.210E-04
CGA:   6    -0.676471818129E+03    0.19774E-06   -0.13153E-04  8424   0.176E-03-0.531E-04
CGA:   7    -0.676471842003E+03   -0.23874E-04   -0.22307E-04  8424   0.171E-04-0.636E-05
CGA:   8    -0.676471793244E+03    0.48758E-04   -0.20675E-04  8424   0.472E-03-0.779E-04
CGA:   9    -0.676471866921E+03   -0.73677E-04   -0.71911E-04  8424   0.502E-04-0.706E-05
CGA:  10    -0.676471884362E+03   -0.17441E-04   -0.15844E-04  8424   0.174E-04-0.217E-04
CGA:  11    -0.676471896985E+03   -0.12623E-04    0.30234E-05  8424   0.969E-05-0.556E-05
CGA:  12    -0.676471914032E+03   -0.17047E-04    0.55730E-06  8424   0.283E-05-0.998E-06
CGA:  13    -0.676471927169E+03   -0.13137E-04    0.87767E-07  8424   0.138E-05 0.141E-06
