       N       E                     dE             d eps       ncg     rms          ort
DAV:   1     0.828610663108E+04    0.82861E+04   -0.24688E+05  8424   0.239E+03
DAV:   2     0.916947201929E+03   -0.73692E+04   -0.69184E+04  8424   0.659E+02
DAV:   3    -0.678841856826E+03   -0.15958E+04   -0.14036E+04  8424   0.283E+02
DAV:   4    -0.835033134971E+03   -0.15619E+03   -0.15348E+03  8424   0.858E+01
DAV:   5    -0.837562105029E+03   -0.25290E+01   -0.25169E+01  8424   0.122E+01
SDA:   6    -0.224227322103E+03    0.61333E+03   -0.25169E+01  8424   0.916E+04 0.000E+00
CGA:   7    -0.668476197088E+02    0.15738E+03   -0.49150E+03  8424   0.321E+05-0.602E+04
CGA:   8     0.310613521360E+04    0.31730E+04   -0.20929E+04  8424   0.305E+06-0.956E+05
CGA:   9     0.658768027936E+04    0.34815E+04   -0.26070E+05  8424   0.702E+05-0.431E+05
CGA:  10     0.464683123603E+04   -0.19408E+04   -0.42172E+04  8424   0.237E+05-0.164E+05
CGA:  11     0.232481804859E+04   -0.23220E+04   -0.74248E+03  8424   0.157E+06-0.196E+06
CGA:  12     0.522841003910E+04    0.29036E+04   -0.11352E+05  8424   0.248E+05-0.157E+05
CGA:  13     0.204456065460E+03   -0.50240E+04   -0.94010E+03  8424   0.311E+05-0.765E+05
CGA:  14     0.189553572136E+04    0.16911E+04   -0.15691E+04  8424   0.165E+06-0.863E+05
CGA:  15     0.478706875269E+04    0.28915E+04   -0.10900E+05  8424   0.195E+05-0.134E+05
CGA:  16    -0.526854434366E+03   -0.53139E+04   -0.58415E+03  8424   0.213E+04 0.834E+04
CGA:  17    -0.614781957090E+03   -0.87928E+02   -0.12505E+03  8424   0.210E+03-0.550E+02
CGA:  18    -0.625013771207E+03   -0.10232E+02   -0.91473E+01  8424   0.430E+03-0.444E+02
CGA:  19    -0.625926831494E+03   -0.91306E+00   -0.14082E+02  8424   0.550E+03-0.131E+03
CGA:  20    -0.647961529666E+03   -0.22035E+02   -0.87379E+01  8424   0.189E+03 0.134E+03
CGA:  21    -0.651190309924E+03   -0.32288E+01   -0.13409E+02  8424   0.144E+03 0.109E+02
CGA:  22    -0.659947610328E+03   -0.87573E+01   -0.73576E+01  8424   0.843E+02 0.654E+02
CGA:  23    -0.664732836514E+03   -0.47852E+01   -0.54988E+01  8424   0.168E+03-0.472E+02
CGA:  24    -0.667491246729E+03   -0.27584E+01   -0.77389E+01  8424   0.618E+02-0.377E+02
CGA:  25    -0.670236033949E+03   -0.27448E+01   -0.31375E+01  8424   0.131E+02-0.501E+00
CGA:  26    -0.671263777356E+03   -0.10277E+01   -0.10961E+01  8424   0.145E+02-0.446E-01
CGA:  27    -0.672521358073E+03   -0.12576E+01   -0.80073E+00  8424   0.610E+01 0.112E+02
CGA:  28    -0.672885932016E+03   -0.36457E+00   -0.29314E+00  8424   0.403E+01 0.765E+00
CGA:  29    -0.673702891576E+03   -0.81696E+00   -0.73437E+00  8424   0.712E+01 0.893E+00
CGA:  30    -0.674259866128E+03   -0.55697E+00   -0.65682E+00  8424   0.299E+01 0.760E+00
CGA:  31    -0.674862582162E+03   -0.60272E+00   -0.55540E+00  8424   0.589E+00 0.490E+00
CGA:  32    -0.674956773197E+03   -0.94191E-01   -0.90424E-01  8424   0.218E+00 0.959E-01
CGA:  33    -0.675030196240E+03   -0.73423E-01   -0.75187E-01  8424   0.169E+00-0.918E-02
CGA:  34    -0.675062959391E+03   -0.32763E-01   -0.31110E-01  8424   0.533E-01 0.152E-01
CGA:  35    -0.675081080525E+03   -0.18121E-01   -0.21344E-01  8424   0.343E-01-0.129E-01
CGA:  36    -0.675070466672E+03    0.10614E-01   -0.77874E-02  8424   0.172E+00-0.463E-01
CGA:  37    -0.675100121356E+03   -0.29655E-01   -0.29790E-01  8424   0.244E-01 0.202E-02
CGA:  38    -0.675109139976E+03   -0.90186E-02   -0.90312E-02  8424   0.106E-01-0.125E-03
CGA:  39    -0.675113979217E+03   -0.48392E-02   -0.53972E-02  8424   0.151E-01-0.215E-02
CGA:  40    -0.675117325921E+03   -0.33467E-02   -0.33626E-02  8424   0.650E-02-0.784E-03
CGA:  41    -0.675119842018E+03   -0.25161E-02   -0.29423E-02  8424   0.836E-02-0.205E-02
CGA:  42    -0.675121033068E+03   -0.11911E-02   -0.42209E-02  8424   0.318E-01-0.683E-02
CGA:  43    -0.675126124726E+03   -0.50917E-02   -0.52940E-02  8424   0.688E-02 0.174E-02
CGA:  44    -0.675128600385E+03   -0.24757E-02   -0.24508E-02  8424   0.238E-02 0.481E-03
CGA:  45    -0.675129698066E+03   -0.10977E-02   -0.10746E-02  8424   0.197E-02 0.166E-03
CGA:  46    -0.675130438327E+03   -0.74026E-03   -0.71619E-03  8424   0.127E-02 0.532E-03
CGA:  47    -0.675131321882E+03   -0.88355E-03   -0.92144E-03  8424   0.226E-02-0.171E-03
CGA:  48    -0.675132109924E+03   -0.78804E-03   -0.82748E-03  8424   0.302E-02-0.462E-03
CGA:  49    -0.675133462519E+03   -0.13526E-02   -0.18850E-02  8424   0.950E-02-0.171E-02
CGA:  50    -0.675135646069E+03   -0.21835E-02   -0.22438E-02  8424   0.342E-02 0.481E-03
CGA:  51    -0.675136759496E+03   -0.11134E-02   -0.11264E-02  8424   0.177E-02 0.591E-03
CGA:  52    -0.675137661241E+03   -0.90175E-03   -0.93086E-03  8424   0.130E-02-0.267E-03
CGA:  53    -0.675138040178E+03   -0.37894E-03   -0.37868E-03  8424   0.700E-03 0.921E-04
CGA:  54    -0.675136985488E+03    0.10547E-02   -0.12037E-02  8424   0.930E-02-0.183E-02
CGA:  55    -0.675139320123E+03   -0.23346E-02   -0.23595E-02  8424   0.111E-02 0.157E-03
CGA:  56    -0.675140003408E+03   -0.68328E-03   -0.66115E-03  8424   0.620E-03 0.113E-03
CGA:  57    -0.675140209719E+03   -0.20631E-03   -0.21429E-03  8424   0.368E-03 0.835E-04
CGA:  58    -0.675140563423E+03   -0.35370E-03    0.14776E-02  8424   0.204E-03 0.231E-03
CGA:  59    -0.675139508608E+03    0.10548E-02   -0.57562E-03  8424   0.107E-01-0.750E-03
CGA:  60    -0.675141334347E+03   -0.18257E-02   -0.18662E-02  8424   0.788E-03 0.826E-04
CGA:  61    -0.675141463419E+03   -0.12907E-03   -0.17113E-03  8424   0.218E-03 0.860E-04
CGA:  62    -0.675141615630E+03   -0.15221E-03   -0.14884E-03  8424   0.480E-03-0.551E-04
CGA:  63    -0.675141794622E+03   -0.17899E-03   -0.16874E-03  8424   0.650E-03-0.682E-04
CGA:  64    -0.675141133375E+03    0.66125E-03   -0.12027E-02  8424   0.225E-01-0.145E-02
CGA:  65    -0.675145160593E+03   -0.40272E-02   -0.37319E-02  8424   0.176E-02-0.677E-03
CGA:  66    -0.675145657259E+03   -0.49667E-03   -0.46079E-03  8424   0.656E-03-0.778E-04
CGA:  67    -0.675145988906E+03   -0.33165E-03   -0.24409E-03  8424   0.578E-03-0.293E-03
CGA:  68    -0.675146207947E+03   -0.21904E-03   -0.14863E-03  8424   0.603E-03-0.341E-03
CGA:  69    -0.675146374834E+03   -0.16689E-03   -0.16112E-03  8424   0.323E-03-0.152E-04
CGA:  70    -0.675146448703E+03   -0.73869E-04   -0.81666E-04  8424   0.947E-04 0.192E-04
CGA:  71    -0.675146617996E+03   -0.16929E-03    0.89568E-04  8424   0.238E-03-0.379E-04
CGA:  72    -0.675147121245E+03   -0.50325E-03    0.24533E-04  8424   0.631E-03 0.112E-04
CGA:  73    -0.675148951339E+03   -0.18301E-02    0.16941E-03  8424   0.118E-02 0.110E-03
CGA:  74    -0.675153347459E+03   -0.43961E-02    0.28262E-03  8424   0.295E-02-0.948E-04
CGA:  75    -0.675166777747E+03   -0.13430E-01    0.28617E-03  8424   0.990E-02-0.312E-02
CGA:  76    -0.675168125596E+03   -0.13478E-02   -0.24918E-02  8424   0.294E-02-0.146E-02
CGA:  77    -0.675168706537E+03   -0.58094E-03   -0.58537E-03  8424   0.592E-03-0.555E-04
CGA:  78    -0.675169009805E+03   -0.30327E-03   -0.24756E-03  8424   0.127E-02-0.365E-03
CGA:  79    -0.675169153891E+03   -0.14409E-03   -0.16817E-03  8424   0.147E-03 0.570E-04
CGA:  80    -0.675169466641E+03   -0.31275E-03    0.51420E-04  8424   0.265E-03 0.567E-04
CGA:  81    -0.675170407263E+03   -0.94062E-03    0.79070E-04  8424   0.341E-03 0.169E-03
CGA:  82    -0.675170499148E+03   -0.91885E-04   -0.78407E-04  8424   0.233E-03-0.416E-04
CGA:  83    -0.675170993840E+03   -0.49469E-03    0.44921E-04  8424   0.271E-03 0.520E-04
CGA:  84    -0.675171907399E+03   -0.91356E-03    0.57850E-04  8424   0.498E-03 0.839E-04
CGA:  85    -0.675173928409E+03   -0.20210E-02    0.94575E-04  8424   0.482E-03 0.367E-03
CGA:  86    -0.675174178833E+03   -0.25042E-03   -0.27988E-03  8424   0.214E-02-0.734E-03
CGA:  87    -0.675174489510E+03   -0.31068E-03   -0.32793E-03  8424   0.215E-03 0.464E-04
CGA:  88    -0.675174801803E+03   -0.31229E-03    0.15978E-03  8424   0.645E-03-0.192E-03
CGA:  89    -0.675174989395E+03   -0.18759E-03   -0.14521E-03  8424   0.268E-03-0.142E-03
CGA:  90    -0.675175417706E+03   -0.42831E-03    0.52184E-04  8424   0.671E-03-0.136E-03
CGA:  91    -0.675175572238E+03   -0.15453E-03   -0.12742E-03  8424   0.200E-03-0.849E-04
CGA:  92    -0.675175969135E+03   -0.39690E-03    0.33117E-04  8424   0.438E-03-0.699E-04
CGA:  93    -0.675177169882E+03   -0.12007E-02    0.21459E-04  8424   0.456E-03 0.269E-03
CGA:  94    -0.675177356070E+03   -0.18619E-03   -0.14677E-03  8424   0.464E-03-0.232E-03
CGA:  95    -0.675177578877E+03   -0.22281E-03   -0.13730E-03  8424   0.881E-03-0.457E-03
CGA:  96    -0.675177705310E+03   -0.12643E-03   -0.11477E-03  8424   0.912E-04-0.320E-04
CGA:  97    -0.675178040553E+03   -0.33524E-03    0.63422E-05  8424   0.794E-04 0.780E-04
CGA:  98    -0.675178337006E+03   -0.29645E-03    0.58930E-05  8424   0.844E-04 0.663E-04
CGA:  99    -0.675178636976E+03   -0.29997E-03    0.66845E-05  8424   0.103E-03 0.564E-04
CGA: 100    -0.675178907569E+03   -0.27059E-03    0.12732E-04  8424   0.227E-03 0.971E-05
CGA: 101    -0.675179871664E+03   -0.96410E-03    0.17513E-04  8424   0.223E-03 0.189E-03
CGA: 102    -0.675180143412E+03   -0.27175E-03    0.15518E-03  8424   0.283E-03-0.110E-03
CGA: 103    -0.675180812486E+03   -0.66907E-03    0.80376E-05  8424   0.381E-03 0.115E-03
CGA: 104    -0.675182100750E+03   -0.12883E-02    0.75145E-04  8424   0.225E-03 0.119E-03
CGA: 105    -0.675183097920E+03   -0.99717E-03    0.24934E-04  8424   0.205E-03 0.186E-03
CGA: 106    -0.675183442761E+03   -0.34484E-03    0.55606E-04  8424   0.380E-03-0.126E-03
CGA: 107    -0.675183576975E+03   -0.13421E-03   -0.10657E-03  8424   0.245E-03-0.157E-03
CGA: 108    -0.675184088835E+03   -0.51186E-03    0.10819E-04  8424   0.141E-03 0.984E-04
CGA: 109    -0.675184713811E+03   -0.62498E-03    0.17648E-04  8424   0.290E-03 0.121E-04
CGA: 110    -0.675186147396E+03   -0.14336E-02    0.17367E-04  8424   0.493E-03 0.204E-03
CGA: 111    -0.675186317396E+03   -0.17000E-03   -0.14559E-03  8424   0.221E-03-0.160E-03
CGA: 112    -0.675186794891E+03   -0.47749E-03    0.12514E-04  8424   0.214E-03 0.163E-04
CGA: 113    -0.675187492214E+03   -0.69732E-03    0.20631E-04  8424   0.130E-03 0.100E-03
CGA: 114    -0.675188150821E+03   -0.65861E-03    0.14386E-04  8424   0.217E-03 0.708E-04
CGA: 115    -0.675188431856E+03   -0.28104E-03    0.10156E-03  8424   0.697E-03-0.249E-03
CGA: 116    -0.675188584913E+03   -0.15306E-03   -0.12225E-03  8424   0.120E-03-0.117E-03
CGA: 117    -0.675188885970E+03   -0.30106E-03    0.84055E-05  8424   0.148E-03 0.255E-04
CGA: 118    -0.675189611178E+03   -0.72521E-03    0.10309E-04  8424   0.128E-03 0.995E-04
CGA: 119    -0.675189746029E+03   -0.13485E-03    0.12009E-03  8424   0.471E-03-0.117E-03
CGA: 120    -0.675189897412E+03   -0.15138E-03   -0.23366E-03  8424   0.401E-02-0.121E-02
CGA: 121    -0.675190262954E+03   -0.36554E-03   -0.44934E-03  8424   0.902E-04 0.271E-03
CGA: 122    -0.675190430752E+03   -0.16780E-03    0.18139E-04  8424   0.326E-03-0.584E-04
CGA: 123    -0.675190722219E+03   -0.29147E-03    0.87295E-03  8424   0.147E-02-0.566E-03
CGA: 124    -0.675190860697E+03   -0.13848E-03   -0.17539E-03  8424   0.576E-04 0.125E-03
CGA: 125    -0.675191078259E+03   -0.21756E-03    0.37353E-05  8424   0.139E-03 0.217E-04
CGA: 126    -0.675191975140E+03   -0.89688E-03    0.78398E-05  8424   0.987E-04 0.184E-03
CGA: 127    -0.675192264764E+03   -0.28962E-03    0.74142E-05  8424   0.269E-03-0.508E-04
CGA: 128    -0.675192338223E+03   -0.73459E-04   -0.55535E-04  8424   0.146E-03-0.930E-04
CGA: 129    -0.675192731758E+03   -0.39353E-03    0.43808E-05  8424   0.775E-04 0.776E-04
CGA: 130    -0.675193009192E+03   -0.27743E-03    0.42239E-05  8424   0.145E-03-0.210E-05
CGA: 131    -0.675193682839E+03   -0.67365E-03    0.53868E-05  8424   0.155E-03 0.124E-03
CGA: 132    -0.675193843877E+03   -0.16104E-03    0.90562E-04  8424   0.266E-03-0.103E-03
CGA: 133    -0.675194143055E+03   -0.29918E-03    0.11813E-03  8424   0.601E-03-0.291E-03
CGA: 134    -0.675194234302E+03   -0.91247E-04   -0.92468E-04  8424   0.593E-04 0.486E-05
CGA: 135    -0.675194489490E+03   -0.25519E-03    0.24385E-05  8424   0.626E-04 0.378E-04
CGA: 136    -0.675194721935E+03   -0.23245E-03    0.30326E-05  8424   0.587E-04 0.301E-04
CGA: 137    -0.675195158235E+03   -0.43630E-03    0.29248E-05  8424   0.614E-04 0.854E-04
CGA: 138    -0.675195380873E+03   -0.22264E-03    0.30732E-05  8424   0.525E-04 0.320E-04
CGA: 139    -0.675195607766E+03   -0.22689E-03    0.21099E-05  8424   0.478E-04 0.380E-04
CGA: 140    -0.675195825169E+03   -0.21740E-03    0.18104E-05  8424   0.485E-04 0.392E-04
CGA: 141    -0.675196053934E+03   -0.22876E-03    0.17603E-05  8424   0.603E-04 0.338E-04
CGA: 142    -0.675196250359E+03   -0.19643E-03    0.34629E-05  8424   0.118E-03 0.682E-05
CGA: 143    -0.675196910314E+03   -0.65996E-03    0.44264E-05  8424   0.877E-04 0.126E-03
CGA: 144    -0.675197135758E+03   -0.22544E-03    0.69395E-05  8424   0.246E-03-0.534E-04
CGA: 145    -0.675197230124E+03   -0.94366E-04   -0.70727E-04  8424   0.491E-03-0.259E-03
CGA: 146    -0.675197409598E+03   -0.17947E-03   -0.11779E-03  8424   0.613E-03-0.461E-03
CGA: 147    -0.675197512037E+03   -0.10244E-03   -0.82697E-04  8424   0.678E-04-0.840E-04
CGA: 148    -0.675197749392E+03   -0.23735E-03    0.22142E-05  8424   0.516E-04 0.356E-04
CGA: 149    -0.675197931501E+03   -0.18211E-03    0.23156E-05  8424   0.105E-03 0.123E-04
CGA: 150    -0.675198551984E+03   -0.62048E-03    0.40113E-05  8424   0.556E-04 0.123E-03
CGA: 151    -0.675198760579E+03   -0.20860E-03    0.23142E-05  8424   0.134E-03-0.170E-05
CGA: 152    -0.675199436992E+03   -0.67641E-03    0.36335E-05  8424   0.139E-03 0.126E-03
CGA: 153    -0.675199537261E+03   -0.10027E-03    0.17543E-02  8424   0.608E-03-0.202E-03
CGA: 154    -0.675199718429E+03   -0.18117E-03   -0.11212E-03  8424   0.384E-03-0.404E-03
CGA: 155    -0.675199793026E+03   -0.74597E-04   -0.54485E-04  8424   0.893E-04-0.978E-04
CGA: 156    -0.675200034002E+03   -0.24098E-03    0.25660E-05  8424   0.447E-04 0.362E-04
CGA: 157    -0.675200329133E+03   -0.29513E-03    0.17697E-05  8424   0.406E-04 0.545E-04
CGA: 158    -0.675200506428E+03   -0.17729E-03    0.12472E-05  8424   0.584E-04 0.246E-04
CGA: 159    -0.675200680432E+03   -0.17400E-03    0.28804E-05  8424   0.145E-03-0.152E-04
CGA: 160    -0.675201301443E+03   -0.62101E-03    0.23804E-05  8424   0.260E-03 0.955E-04
CGA: 161    -0.675201391930E+03   -0.90487E-04   -0.81942E-04  8424   0.829E-03-0.388E-03
CGA: 162    -0.675201548877E+03   -0.15695E-03   -0.11678E-03  8424   0.113E-03-0.206E-03
CGA: 163    -0.675201753879E+03   -0.20500E-03    0.50941E-05  8424   0.105E-03-0.570E-05
CGA: 164    -0.675202093574E+03   -0.33969E-03    0.38710E-05  8424   0.544E-04 0.525E-04
CGA: 165    -0.675202461016E+03   -0.36744E-03    0.22438E-05  8424   0.521E-04 0.543E-04
CGA: 166    -0.675202598701E+03   -0.13769E-03    0.27808E-05  8424   0.951E-04-0.338E-05
CGA: 167    -0.675203068188E+03   -0.46949E-03    0.20434E-05  8424   0.104E-03 0.870E-04
CGA: 168    -0.675203259156E+03   -0.19097E-03    0.93677E-05  8424   0.235E-03-0.914E-04
CGA: 169    -0.675203329014E+03   -0.69858E-04   -0.55656E-04  8424   0.206E-03-0.159E-03
CGA: 170    -0.675203521819E+03   -0.19280E-03    0.73419E-04  8424   0.487E-03-0.253E-03
CGA: 171    -0.675203599517E+03   -0.77698E-04   -0.69817E-04  8424   0.441E-04-0.444E-04
CGA: 172    -0.675203779390E+03   -0.17987E-03    0.10151E-05  8424   0.349E-04 0.300E-04
CGA: 173    -0.675203926820E+03   -0.14743E-03    0.95002E-06  8424   0.462E-04 0.217E-04
CGA: 174    -0.675204089347E+03   -0.16253E-03    0.15614E-05  8424   0.888E-04-0.563E-06
CGA: 175    -0.675204539494E+03   -0.45015E-03    0.19058E-05  8424   0.883E-04 0.861E-04
CGA: 176    -0.675204652402E+03   -0.11291E-03    0.13202E-04  8424   0.246E-03-0.832E-04
CGA: 177    -0.675203234912E+03    0.14175E-02   -0.27878E-03  8424   0.205E-01-0.207E-02
CGA: 178    -0.675205280826E+03   -0.20459E-02   -0.21149E-02  8424   0.696E-04 0.380E-03
CGA: 179    -0.675205435910E+03   -0.15508E-03    0.54757E-05  8424   0.186E-03-0.552E-04
CGA: 180    -0.675204339777E+03    0.10961E-02   -0.23231E-03  8424   0.140E-01-0.146E-02
CGA: 181    -0.675206084377E+03   -0.17446E-02   -0.17058E-02  8424   0.531E-04-0.143E-03
CGA: 182    -0.675206287465E+03   -0.20309E-03    0.23524E-05  8424   0.127E-03-0.219E-04
CGA: 183    -0.675206874213E+03   -0.58675E-03    0.14578E-05  8424   0.262E-03 0.566E-04
CGA: 184    -0.675208166985E+03   -0.12928E-02    0.19791E-04  8424   0.447E-03-0.190E-04
CGA: 185    -0.675210742905E+03   -0.25759E-02    0.10590E-04  8424   0.381E-03 0.309E-03
CGA: 186    -0.675210795415E+03   -0.52511E-04   -0.19961E-03  8424   0.293E-02-0.979E-03
CGA: 187    -0.675211092357E+03   -0.29694E-03   -0.35736E-03  8424   0.644E-04 0.234E-03
CGA: 188    -0.675211204107E+03   -0.11175E-03    0.10834E-04  8424   0.106E-03-0.439E-04
CGA: 189    -0.675211392708E+03   -0.18860E-03    0.13835E-04  8424   0.159E-03-0.847E-04
CGA: 190    -0.675211446570E+03   -0.53862E-04   -0.45984E-04  8424   0.132E-03-0.992E-04
CGA: 191    -0.675211644817E+03   -0.19825E-03    0.22525E-04  8424   0.261E-03-0.142E-03
CGA: 192    -0.675211692056E+03   -0.47239E-04   -0.44114E-04  8424   0.269E-04-0.161E-04
CGA: 193    -0.675211846750E+03   -0.15469E-03    0.58275E-06  8424   0.216E-04 0.218E-04
CGA: 194    -0.675211986365E+03   -0.13961E-03    0.47329E-06  8424   0.224E-04 0.186E-04
CGA: 195    -0.675212114257E+03   -0.12789E-03    0.56030E-06  8424   0.248E-04 0.170E-04
CGA: 196    -0.675212255748E+03   -0.14149E-03    0.62133E-06  8424   0.320E-04 0.125E-04
CGA: 197    -0.675212374516E+03   -0.11877E-03    0.13379E-05  8424   0.545E-04-0.380E-06
CGA: 198    -0.675212730909E+03   -0.35639E-03    0.11446E-05  8424   0.538E-04 0.524E-04
CGA: 199    -0.675212881285E+03   -0.15038E-03    0.32405E-05  8424   0.119E-03-0.384E-04
CGA: 200    -0.675212847144E+03    0.34141E-04   -0.76653E-04  8424   0.165E-02-0.381E-03
   1 F= -.67521285E+03 E0= -.67521285E+03  d E =-.675213E+03  mag=     3.0000
       N       E                     dE             d eps       ncg     rms          ort
SDA:   1    -0.675218106146E+03   -0.52249E-02    0.00000E+00  8424   0.526E-02 0.000E+00
CGA:   2    -0.675219206072E+03   -0.10999E-02   -0.10852E-02  8424   0.257E-02-0.944E-04
CGA:   3    -0.675219836050E+03   -0.62998E-03   -0.57678E-03  8424   0.880E-03-0.439E-03
CGA:   4    -0.675220037784E+03   -0.20173E-03   -0.17038E-03  8424   0.419E-03-0.283E-03
CGA:   5    -0.675219286560E+03    0.75122E-03   -0.27989E-03  8424   0.108E-01-0.159E-02
CGA:   6    -0.675220475215E+03   -0.11887E-02   -0.11800E-02  8424   0.841E-03-0.398E-04
CGA:   7    -0.675220769064E+03   -0.29385E-03   -0.28930E-03  8424   0.503E-03-0.358E-03
CGA:   8    -0.675215103389E+03    0.56657E-02   -0.31014E-02  8424   0.431E-01-0.322E-02
CGA:   9    -0.675220959105E+03   -0.58557E-02   -0.58286E-02  8424   0.305E-02 0.464E-06
CGA:  10    -0.675221939511E+03   -0.98041E-03   -0.94180E-03  8424   0.104E-02-0.123E-03
CGA:  11    -0.675222373022E+03   -0.43351E-03   -0.35264E-03  8424   0.459E-03-0.317E-03
CGA:  12    -0.675222501214E+03   -0.12819E-03   -0.80239E-04  8424   0.255E-03-0.139E-03
CGA:  13    -0.675222811085E+03   -0.30987E-03    0.10278E-03  8424   0.777E-03-0.265E-03
CGA:  14    -0.675222932784E+03   -0.12170E-03   -0.11755E-03  8424   0.143E-03-0.897E-05
CGA:  15    -0.675223092244E+03   -0.15946E-03    0.53956E-02  8424   0.556E-03-0.210E-03
CGA:  16    -0.675223186565E+03   -0.94321E-04   -0.83006E-04  8424   0.102E-03-0.272E-04
CGA:  17    -0.675223363474E+03   -0.17691E-03    0.37957E-04  8424   0.390E-03-0.151E-03
CGA:  18    -0.675223433416E+03   -0.69941E-04   -0.59283E-04  8424   0.848E-04-0.274E-04
CGA:  19    -0.675223609374E+03   -0.17596E-03    0.17798E-04  8424   0.247E-03-0.100E-03
CGA:  20    -0.675223672610E+03   -0.63236E-04   -0.44708E-04  8424   0.100E-03-0.547E-04
CGA:  21    -0.675223876179E+03   -0.20357E-03    0.12198E-04  8424   0.242E-03-0.987E-04
CGA:  22    -0.675223934804E+03   -0.58625E-04   -0.43361E-04  8424   0.970E-04-0.472E-04
CGA:  23    -0.675224123347E+03   -0.18854E-03    0.12772E-04  8424   0.214E-03-0.919E-04
CGA:  24    -0.675224187266E+03   -0.63919E-04   -0.43763E-04  8424   0.126E-03-0.715E-04
CGA:  25    -0.675224394734E+03   -0.20747E-03    0.12295E-04  8424   0.250E-03-0.114E-03
CGA:  26    -0.675224462516E+03   -0.67783E-04   -0.52051E-04  8424   0.124E-03-0.597E-04
CGA:  27    -0.675224631245E+03   -0.16873E-03    0.22549E-04  8424   0.358E-03-0.152E-03
CGA:  28    -0.675224701533E+03   -0.70288E-04   -0.56500E-04  8424   0.960E-04-0.456E-04
CGA:  29    -0.675224865294E+03   -0.16376E-03    0.15431E-04  8424   0.191E-03-0.913E-04
CGA:  30    -0.675224915228E+03   -0.49934E-04   -0.36128E-04  8424   0.906E-04-0.542E-04
CGA:  31    -0.675225084664E+03   -0.16944E-03    0.68924E-05  8424   0.150E-03-0.659E-04
CGA:  32    -0.675225148599E+03   -0.63934E-04   -0.48307E-04  8424   0.302E-03-0.142E-03
CGA:  33    -0.675225238823E+03   -0.90224E-04   -0.49308E-04  8424   0.120E-03-0.157E-03
CGA:  34    -0.675225271863E+03   -0.33041E-04   -0.19483E-04  8424   0.539E-04-0.541E-04
CGA:  35    -0.675225438256E+03   -0.16639E-03    0.98228E-06  8424   0.136E-04 0.157E-04
CGA:  36    -0.675225584766E+03   -0.14651E-03    0.37113E-06  8424   0.126E-04 0.159E-04
CGA:  37    -0.675225690483E+03   -0.10572E-03    0.26463E-06  8424   0.153E-04 0.106E-04
CGA:  38    -0.675225789875E+03   -0.99393E-04    0.43140E-06  8424   0.423E-04 0.166E-05
CGA:  39    -0.675226188506E+03   -0.39863E-03    0.97369E-06  8424   0.266E-04 0.437E-04
CGA:  40    -0.675226284537E+03   -0.96032E-04    0.15108E-05  8424   0.116E-03-0.263E-04
CGA:  41    -0.675226326350E+03   -0.41813E-04   -0.23493E-04  8424   0.118E-03-0.926E-04
CGA:  42    -0.675226376961E+03   -0.50610E-04   -0.42165E-04  8424   0.736E-03-0.266E-03
CGA:  43    -0.675226457507E+03   -0.80547E-04   -0.75508E-04  8424   0.122E-04-0.168E-04
CGA:  44    -0.675226555327E+03   -0.97820E-04    0.22376E-06  8424   0.126E-04 0.104E-04
CGA:  45    -0.675226640169E+03   -0.84842E-04    0.29625E-06  8424   0.233E-04 0.639E-05
CGA:  46    -0.675226742620E+03   -0.10245E-03    0.89595E-06  8424   0.107E-03-0.237E-04
CGA:  47    -0.675226766199E+03   -0.23579E-04   -0.15537E-04  8424   0.328E-04-0.351E-04
CGA:  48    -0.675226889929E+03   -0.12373E-03    0.59482E-06  8424   0.144E-04 0.107E-04
CGA:  49    -0.675227029433E+03   -0.13950E-03    0.38067E-06  8424   0.158E-04 0.138E-04
CGA:  50    -0.675227109488E+03   -0.80055E-04    0.47924E-06  8424   0.427E-04-0.255E-05
CGA:  51    -0.675227424998E+03   -0.31551E-03    0.58129E-06  8424   0.656E-04 0.316E-04
CGA:  52    -0.675227503440E+03   -0.78442E-04    0.18315E-04  8424   0.274E-03-0.109E-03
CGA:  53    -0.675227550595E+03   -0.47155E-04   -0.36470E-04  8424   0.279E-04-0.467E-04
CGA:  54    -0.675227634609E+03   -0.84014E-04    0.97322E-06  8424   0.426E-04-0.631E-05
CGA:  55    -0.675227862863E+03   -0.22825E-03    0.65277E-06  8424   0.164E-04 0.276E-04
CGA:  56    -0.675227927276E+03   -0.64413E-04    0.62891E-06  8424   0.336E-04-0.266E-05
CGA:  57    -0.675228162940E+03   -0.23566E-03    0.45410E-06  8424   0.441E-04 0.223E-04
CGA:  58    -0.675228267216E+03   -0.10428E-03    0.32611E-05  8424   0.817E-04-0.378E-04
CGA:  59    -0.675228286527E+03   -0.19311E-04   -0.15483E-04  8424   0.290E-04-0.238E-04
CGA:  60    -0.675228393998E+03   -0.10747E-03    0.53473E-06  8424   0.208E-04 0.579E-05
CGA:  61    -0.675228557230E+03   -0.16323E-03    0.49921E-06  8424   0.170E-04 0.130E-04
CGA:  62    -0.675228596434E+03   -0.39204E-04    0.12419E-05  8424   0.313E-04-0.424E-05
CGA:  63    -0.675228798081E+03   -0.20165E-03    0.35015E-06  8424   0.433E-04 0.207E-04
CGA:  64    -0.675228927051E+03   -0.12897E-03    0.22175E-05  8424   0.891E-04-0.427E-04
CGA:  65    -0.675228927466E+03   -0.41541E-06   -0.83226E-05  8424   0.155E-04 0.317E-04
   2 F= -.67522893E+03 E0= -.67522893E+03  d E =-.160803E-01  mag=     3.0000
       N       E                     dE             d eps       ncg     rms          ort
SDA:   1    -0.674571063709E+03    0.65786E+00    0.00000E+00  8424   0.209E+01 0.000E+00
CGA:   2    -0.675116455566E+03   -0.54539E+00   -0.54549E+00  8424   0.960E+00 0.705E-03
CGA:   3    -0.675295081595E+03   -0.17863E+00   -0.17839E+00  8424   0.238E+00-0.141E-02
CGA:   4    -0.675336229270E+03   -0.41148E-01   -0.41128E-01  8424   0.632E-01-0.126E-03
CGA:   5    -0.675346786773E+03   -0.10558E-01   -0.10600E-01  8424   0.123E-01 0.280E-03
CGA:   6    -0.675349314354E+03   -0.25276E-02   -0.25330E-02  8424   0.295E-02 0.512E-04
CGA:   7    -0.675350037546E+03   -0.72319E-03   -0.72288E-03  8424   0.109E-02-0.634E-05
CGA:   8    -0.675350345582E+03   -0.30804E-03   -0.30701E-03  8424   0.457E-03-0.654E-04
CGA:   9    -0.675350465807E+03   -0.12023E-03   -0.12049E-03  8424   0.181E-03 0.154E-04
CGA:  10    -0.675350523075E+03   -0.57268E-04   -0.56980E-04  8424   0.774E-04 0.304E-04
CGA:  11    -0.675350562237E+03   -0.39162E-04   -0.41723E-04  8424   0.831E-04-0.163E-04
CGA:  12    -0.675350617172E+03   -0.54935E-04    0.26628E-04  8424   0.652E-04 0.174E-04
CGA:  13    -0.675350700477E+03   -0.83306E-04    0.16398E-04  8424   0.536E-04 0.241E-04
CGA:  14    -0.675350806949E+03   -0.10647E-03    0.80944E-05  8424   0.395E-04 0.324E-04
CGA:  15    -0.675350856974E+03   -0.50025E-04    0.55888E-05  8424   0.157E-04 0.113E-04
CGA:  16    -0.675350911869E+03   -0.54895E-04    0.88158E-06  8424   0.136E-04 0.122E-04
CGA:  17    -0.675350957067E+03   -0.45198E-04    0.46529E-06  8424   0.123E-04 0.709E-05
CGA:  18    -0.675350990372E+03   -0.33305E-04    0.54745E-06  8424   0.181E-04 0.323E-05
CGA:  19    -0.675351089827E+03   -0.99456E-04    0.56296E-06  8424   0.115E-04 0.208E-04
CGA:  20    -0.675351133399E+03   -0.43571E-04    0.33608E-06  8424   0.181E-04 0.202E-05
CGA:  21    -0.675351232287E+03   -0.98888E-04    0.48995E-06  8424   0.131E-04 0.197E-04
CGA:  22    -0.675351263410E+03   -0.31124E-04    0.69281E-06  8424   0.220E-04-0.915E-06
CGA:  23    -0.675351365881E+03   -0.10247E-03    0.43095E-06  8424   0.211E-04 0.169E-04
CGA:  24    -0.675351411150E+03   -0.45269E-04    0.12766E-05  8424   0.354E-04-0.103E-04
CGA:  25    -0.675351507443E+03   -0.96293E-04    0.35891E-06  8424   0.494E-04 0.559E-05
CGA:  26    -0.675351670410E+03   -0.16297E-03    0.23747E-05  8424   0.934E-04-0.699E-05
CGA:  27    -0.675352046615E+03   -0.37621E-03    0.18241E-05  8424   0.125E-03 0.325E-04
CGA:  28    -0.675352602271E+03   -0.55566E-03    0.58085E-05  8424   0.271E-03-0.532E-04
CGA:  29    -0.675353791654E+03   -0.11894E-02    0.20422E-05  8424   0.730E-03-0.337E-04
CGA:  30    -0.675357147314E+03   -0.33557E-02    0.12789E-04  8424   0.119E-02-0.615E-03
CGA:  31    -0.675357389142E+03   -0.24183E-03   -0.22351E-03  8424   0.246E-03-0.158E-03
CGA:  32    -0.675357419791E+03   -0.30649E-04   -0.33169E-04  8424   0.314E-04 0.175E-04
CGA:  33    -0.675357447857E+03   -0.28066E-04    0.11399E-04  8424   0.214E-04 0.347E-06
CGA:  34    -0.675357492522E+03   -0.44665E-04    0.12497E-05  8424   0.274E-04-0.248E-06
CGA:  35    -0.675357561061E+03   -0.68539E-04    0.11837E-05  8424   0.259E-04 0.183E-04
CGA:  36    -0.675357502488E+03    0.58572E-04   -0.28281E-04  8424   0.852E-03-0.109E-03
CGA:  37    -0.675357648779E+03   -0.14629E-03   -0.11908E-03  8424   0.595E-04-0.143E-03
CGA:  38    -0.675357660065E+03   -0.11286E-04   -0.10758E-04  8424   0.129E-04-0.505E-05
CGA:  39    -0.675357695469E+03   -0.35404E-04    0.49798E-06  8424   0.839E-05 0.143E-05
CGA:  40    -0.675357730566E+03   -0.35097E-04    0.29908E-06  8424   0.552E-05 0.558E-05
CGA:  41    -0.675357754779E+03   -0.24212E-04    0.14739E-06  8424   0.528E-05 0.293E-05
CGA:  42    -0.675357770445E+03   -0.15666E-04    0.22670E-06  8424   0.838E-05 0.945E-06
CGA:  43    -0.675357825995E+03   -0.55550E-04    0.19870E-06  8424   0.583E-05 0.890E-05
CGA:  44    -0.675357852110E+03   -0.26116E-04    0.15219E-06  8424   0.909E-05-0.389E-06
CGA:  45    -0.675357903902E+03   -0.51792E-04    0.15566E-06  8424   0.899E-05 0.701E-05
CGA:  46    -0.675357917236E+03   -0.13334E-04    0.10638E-05  8424   0.114E-04-0.357E-05
CGA:  47    -0.675357964165E+03   -0.46929E-04    0.11075E-06  8424   0.133E-04 0.408E-05
CGA:  48    -0.675358044469E+03   -0.80303E-04    0.47267E-06  8424   0.132E-04 0.464E-05
CGA:  49    -0.675358130573E+03   -0.86104E-04    0.42367E-06  8424   0.133E-04 0.608E-05
CGA:  50    -0.675358243018E+03   -0.11245E-03    0.38124E-06  8424   0.106E-04 0.128E-04
CGA:  51    -0.675358270067E+03   -0.27049E-04    0.55667E-06  8424   0.161E-04-0.707E-05
CGA:  52    -0.675358274603E+03   -0.45353E-05   -0.37949E-05  8424   0.133E-04-0.915E-05
   3 F= -.67535827E+03 E0= -.67535827E+03  d E =-.129347E+00  mag=     3.0000
       N       E                     dE             d eps       ncg     rms          ort
SDA:   1    -0.661107372528E+03    0.14251E+02    0.00000E+00  8424   0.372E+02 0.000E+00
CGA:   2    -0.671625433188E+03   -0.10518E+02   -0.10520E+02  8424   0.163E+02 0.258E-01
CGA:   3    -0.674562749364E+03   -0.29373E+01   -0.29457E+01  8424   0.407E+01 0.932E-02
CGA:   4    -0.675283843669E+03   -0.72109E+00   -0.72089E+00  8424   0.108E+01-0.523E-03
CGA:   5    -0.675469924983E+03   -0.18608E+00   -0.18626E+00  8424   0.238E+00 0.134E-02
CGA:   6    -0.675518111208E+03   -0.48186E-01   -0.48410E-01  8424   0.641E-01 0.228E-02
CGA:   7    -0.675534716366E+03   -0.16605E-01   -0.16623E-01  8424   0.263E-01 0.518E-03
CGA:   8    -0.675541548492E+03   -0.68321E-02   -0.68669E-02  8424   0.958E-02 0.129E-02
CGA:   9    -0.675544183581E+03   -0.26351E-02   -0.26646E-02  8424   0.348E-02 0.148E-02
CGA:  10    -0.675545149386E+03   -0.96581E-03   -0.10062E-02  8424   0.135E-02 0.122E-02
CGA:  11    -0.675545397997E+03   -0.24861E-03   -0.33673E-03  8424   0.598E-03 0.908E-03
CGA:  12    -0.675545458367E+03   -0.60371E-04   -0.10480E-03  8424   0.378E-03 0.434E-03
CGA:  13    -0.675545470791E+03   -0.12423E-04   -0.55688E-04  8424   0.321E-03 0.346E-03
CGA:  14    -0.675545471442E+03   -0.65129E-06   -0.41979E-04  8424   0.290E-03 0.305E-03
CGA:  15    -0.675545467293E+03    0.41492E-05   -0.34749E-04  8424   0.268E-03 0.279E-03
CGA:  16    -0.675545460650E+03    0.66423E-05   -0.29921E-04  8424   0.251E-03 0.260E-03
CGA:  17    -0.675545452584E+03    0.80666E-05   -0.26337E-04  8424   0.238E-03 0.245E-03
CGA:  18    -0.675545443684E+03    0.89001E-05   -0.23514E-04  8424   0.227E-03 0.232E-03
CGA:  19    -0.675545434309E+03    0.93752E-05   -0.21206E-04  8424   0.217E-03 0.222E-03
CGA:  20    -0.675545424690E+03    0.96186E-05   -0.19271E-04  8424   0.209E-03 0.213E-03
CGA:  21    -0.675545414984E+03    0.97055E-05   -0.17619E-04  8424   0.201E-03 0.205E-03
CGA:  22    -0.675545405301E+03    0.96835E-05   -0.16189E-04  8424   0.195E-03 0.198E-03
CGA:  23    -0.675545395716E+03    0.95850E-05   -0.14939E-04  8424   0.189E-03 0.192E-03
CGA:  24    -0.675545386283E+03    0.94327E-05   -0.13836E-04  8424   0.184E-03 0.186E-03
CGA:  25    -0.675545377042E+03    0.92414E-05   -0.12857E-04  8424   0.179E-03 0.181E-03
CGA:  26    -0.675545368019E+03    0.90225E-05   -0.11985E-04  8424   0.175E-03 0.177E-03
CGA:  27    -0.675545359232E+03    0.87869E-05   -0.11211E-04  8424   0.171E-03 0.173E-03
CGA:  28    -0.675545350689E+03    0.85434E-05   -0.10510E-04  8424   0.168E-03 0.169E-03
   4 F= -.67554535E+03 E0= -.67554535E+03  d E =-.187076E+00  mag=     3.0000
       N       E                     dE             d eps       ncg     rms          ort
SDA:   1    -0.673741653044E+03    0.18037E+01    0.00000E+00  8424   0.597E+01 0.000E+00
CGA:   2    -0.674942764153E+03   -0.12011E+01   -0.12005E+01  8424   0.236E+01 0.123E-01
CGA:   3    -0.675442418694E+03   -0.49965E+00   -0.49978E+00  8424   0.775E+00-0.302E-02
CGA:   4    -0.675572527242E+03   -0.13011E+00   -0.13011E+00  8424   0.200E+00 0.369E-03
CGA:   5    -0.675606555231E+03   -0.34028E-01   -0.34025E-01  8424   0.387E-01 0.805E-03
CGA:   6    -0.675614460819E+03   -0.79056E-02   -0.79044E-02  8424   0.880E-02 0.246E-04
CGA:   7    -0.675616381927E+03   -0.19211E-02   -0.18927E-02  8424   0.261E-02 0.616E-03
CGA:   8    -0.675617006237E+03   -0.62431E-03   -0.60187E-03  8424   0.749E-03 0.510E-03
CGA:   9    -0.675617191980E+03   -0.18574E-03   -0.17728E-03  8424   0.308E-03 0.345E-03
CGA:  10    -0.675617244742E+03   -0.52762E-04   -0.62858E-04  8424   0.190E-03 0.286E-03
CGA:  11    -0.675617259404E+03   -0.14661E-04   -0.22966E-04  8424   0.141E-03 0.158E-03
CGA:  12    -0.675617265965E+03   -0.65616E-05   -0.15003E-04  8424   0.124E-03 0.131E-03
CGA:  13    -0.675617269234E+03   -0.32689E-05   -0.11805E-04  8424   0.114E-03 0.118E-03
   5 F= -.67561727E+03 E0= -.67561727E+03  d E =-.719185E-01  mag=     3.0000
       N       E                     dE             d eps       ncg     rms          ort
SDA:   1    -0.675515720566E+03    0.10155E+00    0.00000E+00  8424   0.299E+00 0.000E+00
CGA:   2    -0.675591466970E+03   -0.75746E-01   -0.75704E-01  8424   0.146E+00 0.412E-03
CGA:   3    -0.675619131468E+03   -0.27664E-01   -0.27658E-01  8424   0.358E-01 0.252E-03
CGA:   4    -0.675625065987E+03   -0.59345E-02   -0.59346E-02  8424   0.887E-02 0.282E-03
CGA:   5    -0.675626573880E+03   -0.15079E-02   -0.15071E-02  8424   0.182E-02 0.261E-03
CGA:   6    -0.675626937169E+03   -0.36329E-03   -0.35673E-03  8424   0.461E-03 0.264E-03
CGA:   7    -0.675627018641E+03   -0.81472E-04   -0.83519E-04  8424   0.200E-03 0.233E-03
CGA:   8    -0.675627039597E+03   -0.20956E-04   -0.26198E-04  8424   0.128E-03 0.146E-03
CGA:   9    -0.675627046528E+03   -0.69309E-05   -0.13700E-04  8424   0.110E-03 0.117E-03
CGA:  10    -0.675627050014E+03   -0.34863E-05   -0.10477E-04  8424   0.100E-03 0.104E-03
   6 F= -.67562705E+03 E0= -.67562705E+03  d E =-.978078E-02  mag=     3.0000
       N       E                     dE             d eps       ncg     rms          ort
SDA:   1    -0.673295847548E+03    0.23312E+01    0.00000E+00  8424   0.564E+01 0.000E+00
CGA:   2    -0.675117653104E+03   -0.18218E+01   -0.18232E+01  8424   0.242E+01-0.789E-02
CGA:   3    -0.675529797138E+03   -0.41214E+00   -0.41210E+00  8424   0.518E+00 0.596E-02
CGA:   4    -0.675621335346E+03   -0.91538E-01   -0.91537E-01  8424   0.138E+00 0.587E-04
CGA:   5    -0.675644901820E+03   -0.23566E-01   -0.23566E-01  8424   0.297E-01-0.228E-04
CGA:   6    -0.675650937650E+03   -0.60358E-02   -0.60040E-02  8424   0.737E-02 0.844E-03
CGA:   7    -0.675652789556E+03   -0.18519E-02   -0.18225E-02  8424   0.292E-02 0.397E-03
CGA:   8    -0.675653545169E+03   -0.75561E-03   -0.71286E-03  8424   0.113E-02 0.694E-03
CGA:   9    -0.675653865774E+03   -0.32061E-03   -0.29626E-03  8424   0.606E-03 0.643E-03
CGA:  10    -0.675654021129E+03   -0.15536E-03   -0.13841E-03  8424   0.351E-03 0.318E-03
CGA:  11    -0.675654074531E+03   -0.53402E-04   -0.57477E-04  8424   0.277E-03 0.289E-03
CGA:  12    -0.675654122719E+03   -0.48188E-04   -0.48588E-04  8424   0.246E-03 0.259E-03
CGA:  13    -0.675654154347E+03   -0.31628E-04   -0.37477E-04  8424   0.227E-03 0.236E-03
CGA:  14    -0.675654181531E+03   -0.27185E-04   -0.33454E-04  8424   0.212E-03 0.219E-03
CGA:  15    -0.675654203771E+03   -0.22240E-04   -0.29547E-04  8424   0.201E-03 0.206E-03
CGA:  16    -0.675654222745E+03   -0.18974E-04   -0.26738E-04  8424   0.191E-03 0.196E-03
CGA:  17    -0.675654239137E+03   -0.16392E-04   -0.24445E-04  8424   0.183E-03 0.187E-03
CGA:  18    -0.675654253493E+03   -0.14356E-04   -0.22554E-04  8424   0.176E-03 0.180E-03
CGA:  19    -0.675654266202E+03   -0.12709E-04   -0.20956E-04  8424   0.170E-03 0.173E-03
CGA:  20    -0.675654277555E+03   -0.11353E-04   -0.19583E-04  8424   0.165E-03 0.168E-03
CGA:  21    -0.675654287775E+03   -0.10220E-04   -0.18386E-04  8424   0.160E-03 0.163E-03
CGA:  22    -0.675654297037E+03   -0.92624E-05   -0.17331E-04  8424   0.156E-03 0.158E-03
CGA:  23    -0.675654305482E+03   -0.84442E-05   -0.16392E-04  8424   0.152E-03 0.154E-03
CGA:  24    -0.675654313221E+03   -0.77389E-05   -0.15550E-04  8424   0.149E-03 0.150E-03
CGA:  25    -0.675654320347E+03   -0.71264E-05   -0.14790E-04  8424   0.146E-03 0.147E-03
CGA:  26    -0.675654326937E+03   -0.65906E-05   -0.14098E-04  8424   0.143E-03 0.144E-03
CGA:  27    -0.675654333056E+03   -0.61186E-05   -0.13465E-04  8424   0.140E-03 0.141E-03
CGA:  28    -0.675654338756E+03   -0.57002E-05   -0.12883E-04  8424   0.138E-03 0.139E-03
CGA:  29    -0.675654344084E+03   -0.53275E-05   -0.12345E-04  8424   0.135E-03 0.137E-03
CGA:  30    -0.675654349077E+03   -0.49935E-05   -0.11846E-04  8424   0.133E-03 0.134E-03
CGA:  31    -0.675654353770E+03   -0.46930E-05   -0.11382E-04  8424   0.131E-03 0.132E-03
CGA:  32    -0.675654358193E+03   -0.44224E-05   -0.10948E-04  8424   0.129E-03 0.130E-03
CGA:  33    -0.675654362367E+03   -0.41743E-05   -0.10541E-04  8424   0.128E-03 0.129E-03
CGA:  34    -0.675654366319E+03   -0.39519E-05   -0.10160E-04  8424   0.126E-03 0.127E-03
   7 F= -.67565437E+03 E0= -.67565437E+03  d E =-.273163E-01  mag=     3.0000
       N       E                     dE             d eps       ncg     rms          ort
SDA:   1    -0.675427359010E+03    0.22700E+00    0.00000E+00  8424   0.684E+00 0.000E+00
CGA:   2    -0.675574772204E+03   -0.14741E+00   -0.14727E+00  8424   0.307E+00 0.140E-02
CGA:   3    -0.675638264177E+03   -0.63492E-01   -0.63457E-01  8424   0.904E-01 0.365E-03
CGA:   4    -0.675653124425E+03   -0.14860E-01   -0.14848E-01  8424   0.217E-01 0.374E-03
CGA:   5    -0.675656808196E+03   -0.36838E-02   -0.36703E-02  8424   0.435E-02 0.384E-03
CGA:   6    -0.675657721629E+03   -0.91343E-03   -0.89794E-03  8424   0.110E-02 0.226E-03
CGA:   7    -0.675657965579E+03   -0.24395E-03   -0.22922E-03  8424   0.383E-03 0.244E-03
CGA:   8    -0.675658051272E+03   -0.85693E-04   -0.79183E-04  8424   0.196E-03 0.235E-03
CGA:   9    -0.675658083918E+03   -0.32646E-04   -0.30740E-04  8424   0.129E-03 0.140E-03
CGA:  10    -0.675658099025E+03   -0.15107E-04   -0.16751E-04  8424   0.115E-03 0.120E-03
CGA:  11    -0.675658110555E+03   -0.11530E-04   -0.13968E-04  8424   0.108E-03 0.111E-03
CGA:  12    -0.675658120088E+03   -0.95331E-05   -0.12412E-04  8424   0.103E-03 0.105E-03
CGA:  13    -0.675658128330E+03   -0.82423E-05   -0.11359E-04  8424   0.996E-04 0.101E-03
CGA:  14    -0.675658135640E+03   -0.73103E-05   -0.10562E-04  8424   0.966E-04 0.980E-04
   8 F= -.67565814E+03 E0= -.67565814E+03  d E =-.376932E-02  mag=     3.0000
       N       E                     dE             d eps       ncg     rms          ort
SDA:   1    -0.675588203222E+03    0.69925E-01    0.00000E+00  8424   0.179E+00 0.000E+00
CGA:   2    -0.675637830239E+03   -0.49627E-01   -0.49580E-01  8424   0.851E-01 0.314E-03
CGA:   3    -0.675653378851E+03   -0.15549E-01   -0.15549E-01  8424   0.196E-01-0.163E-04
CGA:   4    -0.675656667269E+03   -0.32884E-02   -0.32817E-02  8424   0.505E-02 0.296E-03
CGA:   5    -0.675657535404E+03   -0.86813E-03   -0.86278E-03  8424   0.103E-02 0.238E-03
CGA:   6    -0.675657756903E+03   -0.22150E-03   -0.21451E-03  8424   0.295E-03 0.135E-03
CGA:   7    -0.675657815476E+03   -0.58573E-04   -0.55887E-04  8424   0.142E-03 0.149E-03
CGA:   8    -0.675657837215E+03   -0.21739E-04   -0.21552E-04  8424   0.917E-04 0.999E-04
CGA:   9    -0.675657848694E+03   -0.11480E-04   -0.12593E-04  8424   0.806E-04 0.845E-04
CGA:  10    -0.675657856118E+03   -0.74230E-05   -0.97115E-05  8424   0.755E-04 0.776E-04
   9 F= -.67565786E+03 E0= -.67565786E+03  d E =0.279523E-03  mag=     3.0000
       N       E                     dE             d eps       ncg     rms          ort
SDA:   1    -0.675483244653E+03    0.17460E+00    0.00000E+00  8424   0.435E+00 0.000E+00
CGA:   2    -0.675605386444E+03   -0.12214E+00   -0.12210E+00  8424   0.216E+00 0.260E-03
CGA:   3    -0.675644984588E+03   -0.39598E-01   -0.39604E-01  8424   0.479E-01-0.228E-03
CGA:   4    -0.675652847062E+03   -0.78625E-02   -0.78590E-02  8424   0.118E-01 0.364E-03
CGA:   5    -0.675654874804E+03   -0.20277E-02   -0.20235E-02  8424   0.243E-02 0.276E-03
CGA:   6    -0.675655394662E+03   -0.51986E-03   -0.51435E-03  8424   0.630E-03 0.108E-03
CGA:   7    -0.675655527497E+03   -0.13283E-03   -0.12756E-03  8424   0.218E-03 0.149E-03
CGA:   8    -0.675655576927E+03   -0.49430E-04   -0.47343E-04  8424   0.117E-03 0.135E-03
CGA:   9    -0.675655596307E+03   -0.19380E-04   -0.19165E-04  8424   0.745E-04 0.789E-04
CGA:  10    -0.675655602517E+03   -0.62094E-05   -0.90167E-05  8424   0.666E-04 0.696E-04
  10 F= -.67565560E+03 E0= -.67565560E+03  d E =0.225360E-02  mag=     3.0000
       N       E                     dE             d eps       ncg     rms          ort
SDA:   1    -0.675452671497E+03    0.20292E+00    0.00000E+00  8424   0.516E+00 0.000E+00
CGA:   2    -0.675588668730E+03   -0.13600E+00   -0.13596E+00  8424   0.272E+00 0.315E-03
CGA:   3    -0.675640290774E+03   -0.51622E-01   -0.51611E-01  8424   0.619E-01 0.343E-03
CGA:   4    -0.675650156346E+03   -0.98656E-02   -0.98673E-02  8424   0.142E-01 0.377E-03
CGA:   5    -0.675652605434E+03   -0.24491E-02   -0.24471E-02  8424   0.300E-02 0.244E-03
CGA:   6    -0.675653241103E+03   -0.63567E-03   -0.62928E-03  8424   0.747E-03 0.150E-03
CGA:   7    -0.675653392028E+03   -0.15092E-03   -0.14708E-03  8424   0.238E-03 0.178E-03
CGA:   8    -0.675653436168E+03   -0.44140E-04   -0.45879E-04  8424   0.124E-03 0.157E-03
CGA:   9    -0.675653450521E+03   -0.14353E-04   -0.17024E-04  8424   0.812E-04 0.909E-04
CGA:  10    -0.675653454815E+03   -0.42939E-05   -0.86818E-05  8424   0.715E-04 0.755E-04
  11 F= -.67565345E+03 E0= -.67565345E+03  d E =0.214770E-02  mag=     3.0000
       N       E                     dE             d eps       ncg     rms          ort
SDA:   1    -0.675152367830E+03    0.50108E+00    0.00000E+00  8424   0.128E+01 0.000E+00
CGA:   2    -0.675484390684E+03   -0.33202E+00   -0.33187E+00  8424   0.690E+00 0.133E-02
CGA:   3    -0.675616872207E+03   -0.13248E+00   -0.13245E+00  8424   0.161E+00 0.971E-03
CGA:   4    -0.675642146047E+03   -0.25274E-01   -0.25277E-01  8424   0.357E-01 0.423E-03
CGA:   5    -0.675648311364E+03   -0.61653E-02   -0.61637E-02  8424   0.747E-02 0.214E-03
CGA:   6    -0.675649883546E+03   -0.15722E-02   -0.15640E-02  8424   0.177E-02 0.189E-03
CGA:   7    -0.675650248698E+03   -0.36515E-03   -0.35702E-03  8424   0.505E-03 0.279E-03
CGA:   8    -0.675650349583E+03   -0.10089E-03   -0.10020E-03  8424   0.206E-03 0.252E-03
CGA:   9    -0.675650378970E+03   -0.29387E-04   -0.38160E-04  8424   0.125E-03 0.193E-03
CGA:  10    -0.675650386007E+03   -0.70366E-05   -0.13341E-04  8424   0.950E-04 0.106E-03
  12 F= -.67565039E+03 E0= -.67565039E+03  d E =0.306881E-02  mag=     3.0000
       N       E                     dE             d eps       ncg     rms          ort
SDA:   1    -0.675441714723E+03    0.20866E+00    0.00000E+00  8424   0.537E+00 0.000E+00
CGA:   2    -0.675591104302E+03   -0.14939E+00   -0.14933E+00  8424   0.269E+00 0.451E-03
CGA:   3    -0.675639526482E+03   -0.48422E-01   -0.48414E-01  8424   0.592E-01 0.519E-03
CGA:   4    -0.675649325302E+03   -0.97988E-02   -0.97990E-02  8424   0.148E-01 0.149E-03
CGA:   5    -0.675651872132E+03   -0.25468E-02   -0.25461E-02  8424   0.297E-02 0.135E-03
CGA:   6    -0.675652465054E+03   -0.59292E-03   -0.58674E-03  8424   0.668E-03 0.211E-03
CGA:   7    -0.675652593532E+03   -0.12848E-03   -0.12661E-03  8424   0.215E-03 0.212E-03
CGA:   8    -0.675652623217E+03   -0.29685E-04   -0.36372E-04  8424   0.115E-03 0.166E-03
CGA:   9    -0.675652629368E+03   -0.61512E-05   -0.11904E-04  8424   0.803E-04 0.916E-04
  13 F= -.67565263E+03 E0= -.67565263E+03  d E =-.224336E-02  mag=     3.0000
       N       E                     dE             d eps       ncg     rms          ort
SDA:   1    -0.675596900407E+03    0.55723E-01    0.00000E+00  8424   0.150E+00 0.000E+00
CGA:   2    -0.675637750321E+03   -0.40850E-01   -0.40853E-01  8424   0.768E-01-0.440E-04
CGA:   3    -0.675651985190E+03   -0.14235E-01   -0.14232E-01  8424   0.170E-01 0.117E-03
CGA:   4    -0.675654734095E+03   -0.27489E-02   -0.27492E-02  8424   0.413E-02 0.693E-04
CGA:   5    -0.675655432634E+03   -0.69854E-03   -0.69808E-03  8424   0.820E-03 0.174E-03
CGA:   6    -0.675655576545E+03   -0.14391E-03   -0.14350E-03  8424   0.201E-03 0.210E-03
CGA:   7    -0.675655602361E+03   -0.25816E-04   -0.31314E-04  8424   0.920E-04 0.132E-03
CGA:   8    -0.675655606548E+03   -0.41867E-05   -0.90201E-05  8424   0.639E-04 0.733E-04
  14 F= -.67565561E+03 E0= -.67565561E+03  d E =-.297718E-02  mag=     3.0000
       N       E                     dE             d eps       ncg     rms          ort
SDA:   1    -0.675589546377E+03    0.66056E-01    0.00000E+00  8424   0.195E+00 0.000E+00
CGA:   2    -0.675633236734E+03   -0.43690E-01   -0.43667E-01  8424   0.917E-01 0.322E-03
CGA:   3    -0.675652064738E+03   -0.18828E-01   -0.18813E-01  8424   0.259E-01 0.314E-03
CGA:   4    -0.675656224479E+03   -0.41597E-02   -0.41601E-02  8424   0.599E-02 0.209E-03
CGA:   5    -0.675657228353E+03   -0.10039E-02   -0.10029E-02  8424   0.116E-02 0.242E-03
CGA:   6    -0.675657442744E+03   -0.21439E-03   -0.21129E-03  8424   0.265E-03 0.226E-03
CGA:   7    -0.675657480459E+03   -0.37716E-04   -0.42208E-04  8424   0.107E-03 0.152E-03
CGA:   8    -0.675657485523E+03   -0.50633E-05   -0.10419E-04  8424   0.709E-04 0.835E-04
  15 F= -.67565749E+03 E0= -.67565749E+03  d E =-.187898E-02  mag=     3.0000
       N       E                     dE             d eps       ncg     rms          ort
SDA:   1    -0.675636262498E+03    0.21218E-01    0.00000E+00  8424   0.551E-01 0.000E+00
CGA:   2    -0.675652565167E+03   -0.16303E-01   -0.16287E-01  8424   0.287E-01 0.105E-03
CGA:   3    -0.675657604279E+03   -0.50391E-02   -0.50348E-02  8424   0.590E-02 0.302E-03
CGA:   4    -0.675658553038E+03   -0.94876E-03   -0.94927E-03  8424   0.140E-02 0.216E-03
CGA:   5    -0.675658779303E+03   -0.22627E-03   -0.22723E-03  8424   0.280E-03 0.201E-03
CGA:   6    -0.675658816515E+03   -0.37211E-04   -0.41799E-04  8424   0.102E-03 0.149E-03
CGA:   7    -0.675658820215E+03   -0.37006E-05   -0.90982E-05  8424   0.643E-04 0.769E-04
  16 F= -.67565882E+03 E0= -.67565882E+03  d E =-.133469E-02  mag=     3.0000
       N       E                     dE             d eps       ncg     rms          ort
SDA:   1    -0.675491826648E+03    0.16699E+00    0.00000E+00  8424   0.400E+00 0.000E+00
CGA:   2    -0.675618740099E+03   -0.12691E+00   -0.12703E+00  8424   0.200E+00-0.716E-03
CGA:   3    -0.675652484165E+03   -0.33744E-01   -0.33737E-01  8424   0.387E-01 0.758E-03
CGA:   4    -0.675658897798E+03   -0.64136E-02   -0.64124E-02  8424   0.976E-02 0.254E-03
CGA:   5    -0.675660597180E+03   -0.16994E-02   -0.16974E-02  8424   0.203E-02 0.162E-03
CGA:   6    -0.675661004277E+03   -0.40710E-03   -0.40092E-03  8424   0.447E-03 0.185E-03
CGA:   7    -0.675661092420E+03   -0.88143E-04   -0.86139E-04  8424   0.147E-03 0.144E-03
CGA:   8    -0.675661112010E+03   -0.19590E-04   -0.24141E-04  8424   0.800E-04 0.116E-03
CGA:   9    -0.675661115400E+03   -0.33907E-05   -0.76718E-05  8424   0.573E-04 0.651E-04
  17 F= -.67566112E+03 E0= -.67566112E+03  d E =-.229519E-02  mag=     3.0000
       N       E                     dE             d eps       ncg     rms          ort
SDA:   1    -0.674504488317E+03    0.11566E+01    0.00000E+00  8424   0.287E+01 0.000E+00
CGA:   2    -0.675312877164E+03   -0.80839E+00   -0.80869E+00  8424   0.155E+01-0.263E-02
CGA:   3    -0.675593349484E+03   -0.28047E+00   -0.28041E+00  8424   0.326E+00 0.273E-02
CGA:   4    -0.675645057005E+03   -0.51708E-01   -0.51709E-01  8424   0.762E-01 0.494E-03
CGA:   5    -0.675658414688E+03   -0.13358E-01   -0.13357E-01  8424   0.162E-01 0.411E-05
CGA:   6    -0.675661829158E+03   -0.34145E-02   -0.34108E-02  8424   0.376E-02 0.742E-04
CGA:   7    -0.675662675114E+03   -0.84596E-03   -0.84451E-03  8424   0.118E-02 0.238E-04
CGA:   8    -0.675662970339E+03   -0.29523E-03   -0.28682E-03  8424   0.385E-03 0.113E-03
CGA:   9    -0.675663095136E+03   -0.12480E-03   -0.11762E-03  8424   0.170E-03 0.659E-04
CGA:  10    -0.675663154901E+03   -0.59765E-04   -0.53233E-04  8424   0.894E-04 0.708E-04
CGA:  11    -0.675663183247E+03   -0.28346E-04   -0.26393E-04  8424   0.522E-04 0.713E-04
CGA:  12    -0.675663193713E+03   -0.10466E-04   -0.10068E-04  8424   0.353E-04 0.381E-04
CGA:  13    -0.675663198370E+03   -0.46566E-05   -0.55333E-05  8424   0.322E-04 0.334E-04
  18 F= -.67566320E+03 E0= -.67566320E+03  d E =-.208297E-02  mag=     3.0000
       N       E                     dE             d eps       ncg     rms          ort
SDA:   1    -0.675466608892E+03    0.19658E+00    0.00000E+00  8424   0.541E+00 0.000E+00
CGA:   2    -0.675598881593E+03   -0.13227E+00   -0.13225E+00  8424   0.273E+00 0.237E-03
CGA:   3    -0.675652102654E+03   -0.53221E-01   -0.53217E-01  8424   0.664E-01 0.337E-03
CGA:   4    -0.675662664253E+03   -0.10562E-01   -0.10565E-01  8424   0.154E-01 0.125E-03
CGA:   5    -0.675665356198E+03   -0.26919E-02   -0.26920E-02  8424   0.325E-02 0.844E-05
CGA:   6    -0.675666040717E+03   -0.68452E-03   -0.68509E-03  8424   0.791E-03-0.209E-04
CGA:   7    -0.675666208590E+03   -0.16787E-03   -0.16636E-03  8424   0.238E-03 0.538E-04
CGA:   8    -0.675666262637E+03   -0.54047E-04   -0.52543E-04  8424   0.831E-04 0.696E-04
CGA:   9    -0.675666282386E+03   -0.19749E-04   -0.19836E-04  8424   0.462E-04 0.527E-04
CGA:  10    -0.675666291074E+03   -0.86876E-05   -0.86546E-05  8424   0.300E-04 0.310E-04
  19 F= -.67566629E+03 E0= -.67566629E+03  d E =-.309270E-02  mag=     3.0000
       N       E                     dE             d eps       ncg     rms          ort
SDA:   1    -0.675571875997E+03    0.94406E-01    0.00000E+00  8424   0.237E+00 0.000E+00
CGA:   2    -0.675635487033E+03   -0.63611E-01   -0.63586E-01  8424   0.126E+00 0.275E-03
CGA:   3    -0.675659129918E+03   -0.23643E-01   -0.23642E-01  8424   0.286E-01-0.390E-03
CGA:   4    -0.675663631291E+03   -0.45014E-02   -0.45019E-02  8424   0.656E-02 0.113E-04
CGA:   5    -0.675664757344E+03   -0.11261E-02   -0.11276E-02  8424   0.136E-02 0.984E-04
CGA:   6    -0.675665035855E+03   -0.27851E-03   -0.27720E-03  8424   0.312E-03 0.925E-04
CGA:   7    -0.675665096010E+03   -0.60155E-04   -0.60622E-04  8424   0.963E-04 0.849E-04
CGA:   8    -0.675665110980E+03   -0.14970E-04   -0.17753E-04  8424   0.492E-04 0.660E-04
CGA:   9    -0.675665114354E+03   -0.33741E-05   -0.58637E-05  8424   0.332E-04 0.379E-04
  20 F= -.67566511E+03 E0= -.67566511E+03  d E =0.117672E-02  mag=     3.0000
       N       E                     dE             d eps       ncg     rms          ort
SDA:   1    -0.675592598135E+03    0.72513E-01    0.00000E+00  8424   0.194E+00 0.000E+00
CGA:   2    -0.675639646963E+03   -0.47049E-01   -0.47024E-01  8424   0.952E-01 0.360E-03
CGA:   3    -0.675658439700E+03   -0.18793E-01   -0.18796E-01  8424   0.244E-01-0.198E-03
CGA:   4    -0.675662358600E+03   -0.39189E-02   -0.39220E-02  8424   0.575E-02 0.150E-03
CGA:   5    -0.675663331006E+03   -0.97241E-03   -0.97439E-03  8424   0.113E-02 0.167E-03
CGA:   6    -0.675663563621E+03   -0.23262E-03   -0.23089E-03  8424   0.266E-03 0.884E-04
CGA:   7    -0.675663608477E+03   -0.44856E-04   -0.46638E-04  8424   0.877E-04 0.993E-04
CGA:   8    -0.675663616828E+03   -0.83510E-05   -0.13487E-04  8424   0.506E-04 0.756E-04
  21 F= -.67566362E+03 E0= -.67566362E+03  d E =0.149753E-02  mag=     3.0000
       N       E                     dE             d eps       ncg     rms          ort
SDA:   1    -0.675646919154E+03    0.16689E-01    0.00000E+00  8424   0.463E-01 0.000E+00
CGA:   2    -0.675659179764E+03   -0.12261E-01   -0.12257E-01  8424   0.238E-01 0.340E-04
CGA:   3    -0.675663614283E+03   -0.44345E-02   -0.44322E-02  8424   0.545E-02 0.259E-03
