       N       E                     dE             d eps       ncg     rms          rms(c)
DAV:   1     0.312423174158E+04    0.31242E+04   -0.25763E+05 73256   0.131E+03
DAV:   2    -0.588108916989E+03   -0.37123E+04   -0.35771E+04 88116   0.299E+02
DAV:   3    -0.865386837100E+03   -0.27728E+03   -0.27535E+03 88920   0.862E+01
DAV:   4    -0.869112788950E+03   -0.37260E+01   -0.37108E+01 88352   0.107E+01
DAV:   5    -0.869185104413E+03   -0.72315E-01   -0.72127E-01 90360   0.136E+00    0.987E+01
DAV:   6    -0.770991740243E+03    0.98193E+02   -0.41520E+02 81792   0.322E+01    0.507E+01
DAV:   7    -0.780227268514E+03   -0.92355E+01   -0.22199E+01 82848   0.785E+00    0.163E+01
DAV:   8    -0.785183860016E+03   -0.49566E+01   -0.23999E+00 85608   0.276E+00    0.793E+00
DAV:   9    -0.787923305399E+03   -0.27394E+01   -0.18529E+00 88416   0.200E+00    0.391E+00
DAV:  10    -0.788443026096E+03   -0.51972E+00   -0.34640E-01 83744   0.101E+00    0.113E+00
DAV:  11    -0.788514726237E+03   -0.71700E-01   -0.42648E-02 88640   0.379E-01    0.615E-01
DAV:  12    -0.788525666973E+03   -0.10941E-01   -0.67857E-03 84320   0.163E-01    0.290E-01
DAV:  13    -0.788527766430E+03   -0.20995E-02   -0.12681E-03 88584   0.778E-02    0.105E-01
DAV:  14    -0.788528157858E+03   -0.39143E-03   -0.50720E-04 83904   0.534E-02    0.450E-02
DAV:  15    -0.788528153594E+03    0.42646E-05   -0.11651E-04 91424   0.309E-02    0.326E-02
DAV:  16    -0.788528133066E+03    0.20527E-04   -0.30820E-05 74056   0.211E-02    0.136E-02
DAV:  17    -0.788528117709E+03    0.15357E-04   -0.17687E-05 66000   0.176E-02    0.738E-03
DAV:  18    -0.788528111256E+03    0.64534E-05   -0.20099E-05 70464   0.153E-02
   1 F= -.78852811E+03 E0= -.78852811E+03  d E =-.788528E+03  mag=    -0.0015
       N       E                     dE             d eps       ncg     rms          rms(c)
DAV:   1    -0.788528165117E+03   -0.47408E-04   -0.33769E-02 76272   0.357E-01    0.123E-01
DAV:   2    -0.788528178364E+03   -0.13246E-04   -0.90680E-04 90416   0.561E-02    0.362E-02
DAV:   3    -0.788528156480E+03    0.21884E-04   -0.62054E-05 91456   0.164E-02    0.204E-02
DAV:   4    -0.788528148723E+03    0.77571E-05   -0.13716E-05 51072   0.100E-02
   2 F= -.78852815E+03 E0= -.78852815E+03  d E =-.374668E-04  mag=    -0.0001
       N       E                     dE             d eps       ncg     rms          rms(c)
DAV:   1    -0.788528171009E+03   -0.14529E-04   -0.47068E-03 75968   0.134E-01    0.432E-02
DAV:   2    -0.788528174269E+03   -0.32598E-05   -0.13394E-04 90192   0.208E-02    0.137E-02
DAV:   3    -0.788528171000E+03    0.32688E-05   -0.56065E-06 48440   0.536E-03    0.821E-03
DAV:   4    -0.788528169967E+03    0.10324E-05   -0.28621E-06 42832   0.366E-03
   3 F= -.78852817E+03 E0= -.78852817E+03  d E =-.587115E-04  mag=    -0.0000
       N       E                     dE             d eps       ncg     rms          rms(c)
DAV:   1    -0.788528206332E+03   -0.35332E-04   -0.13783E-02 75264   0.227E-01    0.601E-02
DAV:   2    -0.788528187996E+03    0.18336E-04   -0.37019E-04 90392   0.378E-02    0.266E-02
DAV:   3    -0.788528180631E+03    0.73654E-05   -0.24542E-05 66104   0.987E-03    0.133E-02
DAV:   4    -0.788528177530E+03    0.31008E-05   -0.87170E-06 48008   0.624E-03
   4 F= -.78852818E+03 E0= -.78852818E+03  d E =-.756251E-05  mag=    -0.0000
       N       E                     dE             d eps       ncg     rms          rms(c)
DAV:   1    -0.788528204405E+03   -0.23775E-04   -0.30944E-03 75184   0.107E-01    0.279E-02
DAV:   2    -0.788528199882E+03    0.45237E-05   -0.79770E-05 90336   0.172E-02    0.123E-02
DAV:   3    -0.788528198023E+03    0.18584E-05   -0.51605E-06 47616   0.453E-03    0.615E-03
DAV:   4    -0.788528197684E+03    0.33949E-06   -0.18816E-06 40696   0.286E-03
   5 F= -.78852820E+03 E0= -.78852820E+03  d E =-.277163E-04  mag=    -0.0000
