       N       E                     dE             d eps       ncg     rms          ort
DAV:   1     0.283607404647E+04    0.28361E+04   -0.29332E+05  2880   0.140E+03
DAV:   2    -0.968330150699E+03   -0.38044E+04   -0.36706E+04  2880   0.314E+02
DAV:   3    -0.122944767908E+04   -0.26112E+03   -0.25903E+03  2880   0.854E+01
DAV:   4    -0.123256250216E+04   -0.31148E+01   -0.31037E+01  2880   0.991E+00
DAV:   5    -0.123261493917E+04   -0.52437E-01   -0.52314E-01  2880   0.118E+00
SDA:   6    -0.877308237915E+03    0.35531E+03   -0.52314E-01  2880   0.605E+03 0.000E+00
CGA:   7    -0.986254103699E+03   -0.10895E+03   -0.10909E+03  2880   0.500E+02 0.519E+01
CGA:   8    -0.997151915384E+03   -0.10898E+02   -0.10759E+02  2880   0.312E+02 0.549E+01
CGA:   9    -0.999795993290E+03   -0.26441E+01   -0.43346E+01  2880   0.228E+02 0.389E+01
CGA:  10    -0.100252459693E+04   -0.27286E+01   -0.28927E+01  2880   0.124E+02-0.550E+01
CGA:  11    -0.100392662147E+04   -0.14020E+01   -0.13921E+01  2880   0.716E+01-0.691E+00
CGA:  12    -0.100514445385E+04   -0.12178E+01   -0.10558E+01  2880   0.284E+01-0.200E+01
CGA:  13    -0.100546557087E+04   -0.32112E+00   -0.31895E+00  2880   0.135E+01-0.483E-01
CGA:  14    -0.100567540536E+04   -0.20983E+00   -0.19664E+00  2880   0.484E+00-0.104E+00
CGA:  15    -0.100577965859E+04   -0.10425E+00   -0.10488E+00  2880   0.453E+00-0.110E-01
CGA:  16    -0.100581627571E+04   -0.36617E-01   -0.38683E-01  2880   0.103E+00-0.167E-01
CGA:  17    -0.100583810066E+04   -0.21825E-01   -0.22015E-01  2880   0.101E+00-0.309E-02
CGA:  18    -0.100585005952E+04   -0.11959E-01   -0.12136E-01  2880   0.314E-01 0.191E-02
CGA:  19    -0.100585459277E+04   -0.45332E-02   -0.45547E-02  2880   0.337E-01 0.616E-04
CGA:  20    -0.100586077393E+04   -0.61812E-02   -0.62332E-02  2880   0.261E-01-0.444E-02
CGA:  21    -0.100586287618E+04   -0.21022E-02   -0.22460E-02  2880   0.714E-02-0.246E-03
CGA:  22    -0.100586468306E+04   -0.18069E-02   -0.17640E-02  2880   0.781E-02 0.494E-03
CGA:  23    -0.100586573246E+04   -0.10494E-02   -0.92483E-03  2880   0.549E-02 0.583E-03
CGA:  24    -0.100586622960E+04   -0.49713E-03   -0.52140E-03  2880   0.289E-02 0.143E-03
CGA:  25    -0.100586655219E+04   -0.32259E-03   -0.33962E-03  2880   0.240E-02 0.279E-03
CGA:  26    -0.100586678483E+04   -0.23264E-03   -0.23141E-03  2880   0.135E-02 0.207E-03
CGA:  27    -0.100586693052E+04   -0.14569E-03   -0.14199E-03  2880   0.128E-02-0.370E-04
CGA:  28    -0.100586708389E+04   -0.15338E-03   -0.15291E-03  2880   0.899E-03 0.182E-05
CGA:  29    -0.100586713551E+04   -0.51617E-04   -0.52052E-04  2880   0.462E-03 0.514E-04
CGA:  30    -0.100586721755E+04   -0.82043E-04   -0.84969E-04  2880   0.115E-02-0.132E-03
CGA:  31    -0.100586728787E+04   -0.70315E-04   -0.50318E-04  2880   0.965E-03-0.635E-04
CGA:  32    -0.100586734981E+04   -0.61937E-04   -0.41943E-04  2880   0.477E-03 0.982E-04
CGA:  33    -0.100586737828E+04   -0.28478E-04   -0.24134E-04  2880   0.244E-03 0.413E-04
CGA:  34    -0.100586739273E+04   -0.14445E-04   -0.15607E-04  2880   0.316E-03 0.447E-04
CGA:  35    -0.100586741453E+04   -0.21797E-04   -0.21772E-04  2880   0.382E-03 0.922E-04
CGA:  36    -0.100586743123E+04   -0.16706E-04   -0.16089E-04  2880   0.203E-03 0.102E-03
SDA:  37    -0.100586743974E+04   -0.85085E-05   -0.84168E-05  2880   0.118E-03 0.125E-04
CGA:  38    -0.100586748237E+04   -0.42632E-04   -0.41754E-04  2880   0.532E-03 0.311E-05
CGA:  39    -0.100586755517E+04   -0.72799E-04   -0.72801E-04  2880   0.951E-04-0.421E-05
CGA:  40    -0.100586755736E+04   -0.21834E-05   -0.40466E-05  2880   0.131E-04 0.202E-04
   1 F= -.10058676E+04 E0= -.10058516E+04  d E =-.100587E+04  mag=     1.0000
