       N       E                     dE             d eps       ncg     rms          rms(c)
DAV:   1     0.103755324730E+05    0.10376E+05   -0.37728E+05 32030   0.141E+03
DAV:   2     0.522967772663E+03   -0.98526E+04   -0.92985E+04 31410   0.452E+02
DAV:   3    -0.853820850323E+03   -0.13768E+04   -0.12746E+04 34770   0.173E+02
DAV:   4    -0.937610060677E+03   -0.83789E+02   -0.81486E+02 39300   0.446E+01
DAV:   5    -0.940112675138E+03   -0.25026E+01   -0.24953E+01 38340   0.835E+00    0.189E+02
DAV:   6    -0.423874626805E+03    0.51624E+03   -0.12078E+03 38880   0.766E+01    0.903E+01
DAV:   7    -0.653336584396E+03   -0.22946E+03   -0.38365E+02 39860   0.587E+01    0.754E+01
DAV:   8    -0.686923331786E+03   -0.33587E+02   -0.50119E+01 41420   0.187E+01    0.510E+01
DAV:   9    -0.737796925405E+03   -0.50874E+02   -0.44348E+01 39170   0.136E+01    0.301E+01
DAV:  10    -0.781012771339E+03   -0.43216E+02   -0.51913E+01 40710   0.162E+01    0.293E+01
DAV:  11    -0.791780731102E+03   -0.10768E+02   -0.17475E+01 39700   0.930E+00    0.136E+01
DAV:  12    -0.795175178403E+03   -0.33944E+01   -0.55826E+00 39620   0.609E+00    0.777E+00
DAV:  13    -0.796056799030E+03   -0.88162E+00   -0.13980E+00 36690   0.300E+00    0.418E+00
DAV:  14    -0.796372997241E+03   -0.31620E+00   -0.39004E-01 36250   0.174E+00    0.254E+00
DAV:  15    -0.796460022553E+03   -0.87025E-01   -0.14465E-01 37740   0.995E-01    0.125E+00
DAV:  16    -0.796476307956E+03   -0.16285E-01   -0.32895E-02 34280   0.528E-01    0.816E-01
DAV:  17    -0.796482665355E+03   -0.63574E-02   -0.88383E-03 37930   0.280E-01    0.551E-01
DAV:  18    -0.796487395529E+03   -0.47302E-02   -0.41720E-03 38250   0.193E-01    0.408E-01
DAV:  19    -0.796490317294E+03   -0.29218E-02   -0.25908E-03 38700   0.150E-01    0.315E-01
DAV:  20    -0.796492420858E+03   -0.21036E-02   -0.15482E-03 38680   0.100E-01    0.276E-01
DAV:  21    -0.796495053569E+03   -0.26327E-02   -0.14919E-03 42340   0.113E-01    0.236E-01
DAV:  22    -0.796497885992E+03   -0.28324E-02   -0.28612E-03 42250   0.154E-01    0.200E-01
DAV:  23    -0.796499720750E+03   -0.18348E-02   -0.26596E-03 40130   0.119E-01    0.168E-01
DAV:  24    -0.796500847207E+03   -0.11265E-02   -0.12363E-03 39720   0.877E-02    0.127E-01
DAV:  25    -0.796501657728E+03   -0.81052E-03   -0.12170E-03 41370   0.925E-02    0.958E-02
DAV:  26    -0.796502162817E+03   -0.50509E-03   -0.11814E-03 39500   0.809E-02    0.707E-02
DAV:  27    -0.796502453495E+03   -0.29068E-03   -0.52474E-04 34930   0.427E-02    0.565E-02
DAV:  28    -0.796502542138E+03   -0.88643E-04   -0.54392E-05 27160   0.169E-02    0.488E-02
DAV:  29    -0.796502642288E+03   -0.10015E-03   -0.52424E-05 30630   0.253E-02    0.411E-02
DAV:  30    -0.796502740272E+03   -0.97985E-04   -0.27230E-04 38520   0.385E-02    0.364E-02
DAV:  31    -0.796502808050E+03   -0.67778E-04   -0.11109E-04 32220   0.212E-02    0.310E-02
DAV:  32    -0.796502844102E+03   -0.36052E-04   -0.39462E-05 29710   0.178E-02    0.245E-02
DAV:  33    -0.796502873136E+03   -0.29034E-04   -0.68454E-05 32880   0.200E-02    0.174E-02
DAV:  34    -0.796502893806E+03   -0.20670E-04   -0.52874E-05 28130   0.147E-02    0.140E-02
DAV:  35    -0.796502903255E+03   -0.94488E-05   -0.13860E-05 21430   0.792E-03
   1 F= -.79650290E+03 E0= -.79650290E+03  d E =-.796503E+03  mag=    46.9999
       N       E                     dE             d eps       ncg     rms          rms(c)
DAV:   1    -0.796502999556E+03   -0.10575E-03   -0.50562E-04 32670   0.707E-02    0.122E-02
DAV:   2    -0.796503006257E+03   -0.67007E-05   -0.56222E-05 25860   0.149E-02    0.115E-02
DAV:   3    -0.796503007343E+03   -0.10869E-05   -0.31674E-06 16520   0.503E-03    0.816E-03
DAV:   4    -0.796503008474E+03   -0.11305E-05   -0.74564E-07 16520   0.260E-03
   2 F= -.79650301E+03 E0= -.79650301E+03  d E =-.105219E-03  mag=    47.0000
       N       E                     dE             d eps       ncg     rms          rms(c)
DAV:   1    -0.796498218808E+03    0.47885E-02   -0.65288E-01 35220   0.253E+00    0.301E-01
DAV:   2    -0.796505015490E+03   -0.67967E-02   -0.70875E-02 33490   0.503E-01    0.228E-01
DAV:   3    -0.796505361611E+03   -0.34612E-03   -0.22127E-03 40220   0.120E-01    0.122E-01
DAV:   4    -0.796505330451E+03    0.31160E-04   -0.20808E-04 44940   0.462E-02    0.971E-02
DAV:   5    -0.796505318654E+03    0.11798E-04   -0.16205E-04 39840   0.367E-02    0.341E-02
DAV:   6    -0.796505326265E+03   -0.76108E-05   -0.33195E-05 30410   0.182E-02
   3 F= -.79650533E+03 E0= -.79650533E+03  d E =-.231779E-02  mag=    47.0000
       N       E                     dE             d eps       ncg     rms          rms(c)
DAV:   1    -0.796494795565E+03    0.10523E-01   -0.85810E-01 34740   0.275E+00    0.328E-01
DAV:   2    -0.796502934870E+03   -0.81393E-02   -0.83578E-02 33320   0.539E-01    0.240E-01
DAV:   3    -0.796503322209E+03   -0.38734E-03   -0.22297E-03 39110   0.121E-01    0.129E-01
DAV:   4    -0.796503297456E+03    0.24753E-04   -0.21197E-04 44030   0.481E-02    0.104E-01
DAV:   5    -0.796503295251E+03    0.22053E-05   -0.16101E-04 40260   0.381E-02    0.362E-02
DAV:   6    -0.796503307858E+03   -0.12607E-04   -0.41338E-05 31770   0.190E-02    0.244E-02
DAV:   7    -0.796503311154E+03   -0.32964E-05   -0.10972E-05 17860   0.921E-03
   4 F= -.79650331E+03 E0= -.79650331E+03  d E =0.201511E-02  mag=    47.0000
       N       E                     dE             d eps       ncg     rms          rms(c)
DAV:   1    -0.796501527291E+03    0.17806E-02   -0.56835E-02 34380   0.674E-01    0.794E-02
DAV:   2    -0.796501996115E+03   -0.46882E-03   -0.47491E-03 33230   0.129E-01    0.525E-02
DAV:   3    -0.796502018435E+03   -0.22320E-04   -0.10731E-04 37250   0.254E-02    0.300E-02
DAV:   4    -0.796502019234E+03   -0.79825E-06   -0.86842E-06 18770   0.100E-02
   5 F= -.79650202E+03 E0= -.79650202E+03  d E =0.129192E-02  mag=    47.0000
       N       E                     dE             d eps       ncg     rms          rms(c)
DAV:   1    -0.796385862324E+03    0.11616E+00   -0.11811E+01 34250   0.969E+00    0.109E+00
DAV:   2    -0.796476635585E+03   -0.90773E-01   -0.92399E-01 33090   0.180E+00    0.659E-01
DAV:   3    -0.796480439494E+03   -0.38039E-02   -0.17900E-02 39180   0.323E-01    0.360E-01
DAV:   4    -0.796480134089E+03    0.30541E-03   -0.17385E-03 44100   0.122E-01    0.259E-01
DAV:   5    -0.796480228631E+03   -0.94543E-04   -0.10278E-03 43030   0.966E-02    0.885E-02
DAV:   6    -0.796480328822E+03   -0.10019E-03   -0.32911E-04 41320   0.517E-02    0.619E-02
DAV:   7    -0.796480346873E+03   -0.18051E-04   -0.42256E-05 29570   0.222E-02    0.432E-02
DAV:   8    -0.796480378056E+03   -0.31183E-04   -0.27422E-05 25620   0.157E-02    0.342E-02
DAV:   9    -0.796480404862E+03   -0.26806E-04   -0.25644E-05 27810   0.128E-02    0.290E-02
DAV:  10    -0.796480420637E+03   -0.15775E-04   -0.13152E-05 19920   0.919E-03    0.256E-02
DAV:  11    -0.796480444124E+03   -0.23487E-04   -0.14634E-05 21130   0.129E-02    0.213E-02
DAV:  12    -0.796480470060E+03   -0.25936E-04   -0.91257E-05 36060   0.247E-02    0.144E-02
DAV:  13    -0.796480484607E+03   -0.14547E-04   -0.42246E-05 23790   0.128E-02    0.110E-02
DAV:  14    -0.796480488887E+03   -0.42798E-05   -0.55131E-06 18760   0.641E-03
   6 F= -.79648049E+03 E0= -.79648049E+03  d E =0.215303E-01  mag=    47.0000
       N       E                     dE             d eps       ncg     rms          rms(c)
DAV:   1    -0.796411618050E+03    0.68867E-01   -0.71940E+00 35050   0.803E+00    0.936E-01
DAV:   2    -0.796475279666E+03   -0.63662E-01   -0.65548E-01 33490   0.157E+00    0.814E-01
DAV:   3    -0.796477902466E+03   -0.26228E-02   -0.19288E-02 38960   0.382E-01    0.430E-01
DAV:   4    -0.796477618354E+03    0.28411E-03   -0.19561E-03 42390   0.154E-01    0.364E-01
DAV:   5    -0.796477417394E+03    0.20096E-03   -0.18802E-03 40230   0.125E-01    0.115E-01
DAV:   6    -0.796477494950E+03   -0.77556E-04   -0.46193E-04 41740   0.633E-02    0.646E-02
DAV:   7    -0.796477501566E+03   -0.66151E-05   -0.12400E-04 40310   0.266E-02    0.393E-02
DAV:   8    -0.796477508458E+03   -0.68925E-05   -0.12580E-05 19950   0.133E-02
   7 F= -.79647751E+03 E0= -.79647751E+03  d E =0.298043E-02  mag=    47.0000
       N       E                     dE             d eps       ncg     rms          rms(c)
DAV:   1    -0.796463632272E+03    0.13869E-01   -0.13095E+00 35460   0.414E+00    0.507E-01
DAV:   2    -0.796481526108E+03   -0.17894E-01   -0.18963E-01 33600   0.823E-01    0.366E-01
DAV:   3    -0.796482635869E+03   -0.11098E-02   -0.68098E-03 40570   0.203E-01    0.199E-01
DAV:   4    -0.796482537913E+03    0.97956E-04   -0.63106E-04 43680   0.788E-02    0.150E-01
DAV:   5    -0.796482494964E+03    0.42949E-04   -0.47059E-04 38650   0.605E-02    0.556E-02
DAV:   6    -0.796482506473E+03   -0.11509E-04   -0.91914E-05 35070   0.341E-02    0.322E-02
DAV:   7    -0.796482508741E+03   -0.22678E-05   -0.42563E-05 31160   0.154E-02
   8 F= -.79648251E+03 E0= -.79648251E+03  d E =-.500028E-02  mag=    47.0000
       N       E                     dE             d eps       ncg     rms          rms(c)
DAV:   1    -0.796480464857E+03    0.20416E-02   -0.14803E-01 35190   0.120E+00    0.146E-01
DAV:   2    -0.796482022882E+03   -0.15580E-02   -0.15978E-02 33400   0.237E-01    0.118E-01
DAV:   3    -0.796482097641E+03   -0.74759E-04   -0.45597E-04 38860   0.574E-02    0.625E-02
DAV:   4    -0.796482092872E+03    0.47680E-05   -0.39892E-05 30470   0.235E-02
   9 F= -.79648209E+03 E0= -.79648209E+03  d E =0.415868E-03  mag=    47.0000
       N       E                     dE             d eps       ncg     rms          rms(c)
DAV:   1    -0.796480334233E+03    0.17634E-02   -0.12760E-01 34810   0.993E-01    0.116E-01
DAV:   2    -0.796481353433E+03   -0.10192E-02   -0.10414E-02 33380   0.193E-01    0.988E-02
DAV:   3    -0.796481391224E+03   -0.37791E-04   -0.27749E-04 36450   0.459E-02    0.545E-02
DAV:   4    -0.796481388519E+03    0.27054E-05   -0.23480E-05 27850   0.194E-02
  10 F= -.79648139E+03 E0= -.79648139E+03  d E =0.704354E-03  mag=    47.0000
       N       E                     dE             d eps       ncg     rms          rms(c)
DAV:   1    -0.796478563998E+03    0.28272E-02   -0.31411E-01 34890   0.149E+00    0.164E-01
DAV:   2    -0.796480623553E+03   -0.20596E-02   -0.21261E-02 33340   0.283E-01    0.128E-01
DAV:   3    -0.796480698920E+03   -0.75366E-04   -0.53428E-04 37020   0.627E-02    0.689E-02
DAV:   4    -0.796480689315E+03    0.96045E-05   -0.54123E-05 36410   0.267E-02
  11 F= -.79648069E+03 E0= -.79648069E+03  d E =0.699204E-03  mag=    47.0000
       N       E                     dE             d eps       ncg     rms          rms(c)
DAV:   1    -0.796456563624E+03    0.24135E-01   -0.33214E+00 34790   0.515E+00    0.613E-01
DAV:   2    -0.796484413471E+03   -0.27850E-01   -0.28159E-01 33310   0.102E+00    0.580E-01
DAV:   3    -0.796485327385E+03   -0.91391E-03   -0.77151E-03 37840   0.254E-01    0.300E-01
DAV:   4    -0.796485257247E+03    0.70138E-04   -0.77311E-04 42190   0.996E-02    0.267E-01
DAV:   5    -0.796485169845E+03    0.87402E-04   -0.78827E-04 41250   0.835E-02    0.777E-02
DAV:   6    -0.796485208638E+03   -0.38793E-04   -0.18719E-04 41760   0.371E-02    0.402E-02
DAV:   7    -0.796485211576E+03   -0.29385E-05   -0.34212E-05 29000   0.156E-02
  12 F= -.79648521E+03 E0= -.79648521E+03  d E =-.452226E-02  mag=    47.0000
       N       E                     dE             d eps       ncg     rms          rms(c)
DAV:   1    -0.796467634807E+03    0.17574E-01   -0.14857E+00 35460   0.401E+00    0.489E-01
DAV:   2    -0.796485316800E+03   -0.17682E-01   -0.18024E-01 33390   0.792E-01    0.418E-01
DAV:   3    -0.796486104249E+03   -0.78745E-03   -0.52213E-03 37760   0.203E-01    0.215E-01
DAV:   4    -0.796486066729E+03    0.37521E-04   -0.51409E-04 42000   0.807E-02    0.184E-01
DAV:   5    -0.796486029821E+03    0.36908E-04   -0.43594E-04 41520   0.627E-02    0.559E-02
DAV:   6    -0.796486047868E+03   -0.18047E-04   -0.89259E-05 37310   0.269E-02    0.289E-02
DAV:   7    -0.796486049716E+03   -0.18477E-05   -0.26051E-05 23630   0.124E-02
  13 F= -.79648605E+03 E0= -.79648605E+03  d E =-.838139E-03  mag=    47.0000
       N       E                     dE             d eps       ncg     rms          rms(c)
DAV:   1    -0.796485526472E+03    0.52140E-03   -0.39691E-02 35900   0.763E-01    0.970E-02
DAV:   2    -0.796486201828E+03   -0.67536E-03   -0.69562E-03 33520   0.149E-01    0.686E-02
DAV:   3    -0.796486240305E+03   -0.38477E-04   -0.20545E-04 36860   0.380E-02    0.362E-02
DAV:   4    -0.796486238254E+03    0.20512E-05   -0.15897E-05 22470   0.151E-02
  14 F= -.79648624E+03 E0= -.79648624E+03  d E =-.188539E-03  mag=    47.0000
       N       E                     dE             d eps       ncg     rms          rms(c)
DAV:   1    -0.796485826565E+03    0.41374E-03   -0.18582E-02 34650   0.381E-01    0.441E-02
DAV:   2    -0.796485961764E+03   -0.13520E-03   -0.14200E-03 33570   0.758E-02    0.419E-02
DAV:   3    -0.796485966327E+03   -0.45631E-05   -0.46007E-05 31000   0.196E-02    0.211E-02
DAV:   4    -0.796485966108E+03    0.21892E-06   -0.46375E-06 17230   0.800E-03
  15 F= -.79648597E+03 E0= -.79648597E+03  d E =0.272146E-03  mag=    47.0000
       N       E                     dE             d eps       ncg     rms          rms(c)
DAV:   1    -0.796484147940E+03    0.18184E-02   -0.18062E-01 34480   0.104E+00    0.115E-01
DAV:   2    -0.796485120165E+03   -0.97223E-03   -0.10042E-02 33410   0.204E-01    0.125E-01
DAV:   3    -0.796485137705E+03   -0.17539E-04   -0.27577E-04 35940   0.503E-02    0.677E-02
DAV:   4    -0.796485133328E+03    0.43765E-05   -0.24289E-05 27820   0.192E-02
  16 F= -.79648513E+03 E0= -.79648513E+03  d E =0.832780E-03  mag=    47.0000
       N       E                     dE             d eps       ncg     rms          rms(c)
DAV:   1    -0.796484661943E+03    0.47576E-03   -0.22817E-01 34790   0.132E+00    0.150E-01
DAV:   2    -0.796486361356E+03   -0.16994E-02   -0.17369E-02 33280   0.248E-01    0.968E-02
DAV:   3    -0.796486435759E+03   -0.74404E-04   -0.37038E-04 38780   0.485E-02    0.541E-02
DAV:   4    -0.796486430631E+03    0.51283E-05   -0.32242E-05 29040   0.208E-02
  17 F= -.79648643E+03 E0= -.79648643E+03  d E =-.129730E-02  mag=    47.0000
       N       E                     dE             d eps       ncg     rms          rms(c)
DAV:   1    -0.796474725043E+03    0.11711E-01   -0.24793E+00 34420   0.451E+00    0.523E-01
DAV:   2    -0.796494908050E+03   -0.20183E-01   -0.20973E-01 33380   0.901E-01    0.493E-01
DAV:   3    -0.796495625792E+03   -0.71774E-03   -0.65406E-03 39230   0.230E-01    0.248E-01
DAV:   4    -0.796495566927E+03    0.58865E-04   -0.66616E-04 42770   0.853E-02    0.218E-01
DAV:   5    -0.796495518075E+03    0.48852E-04   -0.64192E-04 40190   0.711E-02    0.694E-02
DAV:   6    -0.796495547653E+03   -0.29578E-04   -0.15123E-04 41470   0.341E-02    0.375E-02
DAV:   7    -0.796495552735E+03   -0.50820E-05   -0.40271E-05 29830   0.152E-02
  18 F= -.79649555E+03 E0= -.79649555E+03  d E =-.912210E-02  mag=    47.0000
       N       E                     dE             d eps       ncg     rms          rms(c)
DAV:   1    -0.796494366727E+03    0.11809E-02   -0.23149E-01 35630   0.179E+00    0.222E-01
DAV:   2    -0.796497885087E+03   -0.35184E-02   -0.36811E-02 33540   0.355E-01    0.174E-01
DAV:   3    -0.796498080097E+03   -0.19501E-03   -0.12150E-03 39950   0.928E-02    0.894E-02
DAV:   4    -0.796498071246E+03    0.88510E-05   -0.11884E-04 42860   0.351E-02    0.711E-02
DAV:   5    -0.796498068227E+03    0.30186E-05   -0.86332E-05 36030   0.260E-02
  19 F= -.79649807E+03 E0= -.79649807E+03  d E =-.251549E-02  mag=    47.0000
       N       E                     dE             d eps       ncg     rms          rms(c)
DAV:   1    -0.796498145775E+03   -0.74529E-04   -0.62258E-02 35190   0.863E-01    0.107E-01
DAV:   2    -0.796498952981E+03   -0.80721E-03   -0.83504E-03 33530   0.173E-01    0.926E-02
DAV:   3    -0.796498995859E+03   -0.42878E-04   -0.26616E-04 36760   0.441E-02    0.488E-02
DAV:   4    -0.796498996027E+03   -0.16813E-06   -0.22646E-05 26300   0.173E-02
  20 F= -.79649900E+03 E0= -.79649900E+03  d E =-.927800E-03  mag=    47.0000
       N       E                     dE             d eps       ncg     rms          rms(c)
DAV:   1    -0.796499606402E+03   -0.61054E-03   -0.16784E-02 34450   0.347E-01    0.418E-02
DAV:   2    -0.796499717705E+03   -0.11130E-03   -0.11570E-03 33520   0.687E-02    0.438E-02
DAV:   3    -0.796499721233E+03   -0.35280E-05   -0.39191E-05 29540   0.177E-02    0.249E-02
DAV:   4    -0.796499722288E+03   -0.10552E-05   -0.41172E-06 17380   0.788E-03
  21 F= -.79649972E+03 E0= -.79649972E+03  d E =-.726260E-03  mag=    47.0000
       N       E                     dE             d eps       ncg     rms          rms(c)
DAV:   1    -0.796502237676E+03   -0.25164E-02   -0.69161E-01 33990   0.212E+00    0.245E-01
DAV:   2    -0.796506588286E+03   -0.43506E-02   -0.44785E-02 33410   0.421E-01    0.254E-01
DAV:   3    -0.796506694617E+03   -0.10633E-03   -0.12503E-03 36440   0.105E-01    0.132E-01
DAV:   4    -0.796506691966E+03    0.26513E-05   -0.12846E-04 41240   0.397E-02    0.119E-01
DAV:   5    -0.796506685168E+03    0.67974E-05   -0.14192E-04 40210   0.341E-02    0.369E-02
DAV:   6    -0.796506695322E+03   -0.10154E-04   -0.36491E-05 31780   0.160E-02    0.205E-02
DAV:   7    -0.796506697456E+03   -0.21340E-05   -0.73200E-06 17210   0.768E-03
  22 F= -.79650670E+03 E0= -.79650670E+03  d E =-.697517E-02  mag=    47.0000
       N       E                     dE             d eps       ncg     rms          rms(c)
DAV:   1    -0.796500772761E+03    0.59226E-02   -0.15412E+00 34430   0.344E+00    0.394E-01
DAV:   2    -0.796512389913E+03   -0.11617E-01   -0.12117E-01 33440   0.701E-01    0.441E-01
DAV:   3    -0.796512645316E+03   -0.25540E-03   -0.38305E-03 38260   0.181E-01    0.234E-01
DAV:   4    -0.796512619678E+03    0.25639E-04   -0.39000E-04 42140   0.644E-02    0.209E-01
DAV:   5    -0.796512570052E+03    0.49626E-04   -0.44337E-04 41000   0.596E-02    0.623E-02
DAV:   6    -0.796512583201E+03   -0.13150E-04   -0.10490E-04 41440   0.285E-02    0.307E-02
DAV:   7    -0.796512583938E+03   -0.73663E-06   -0.22476E-05 23180   0.123E-02
  23 F= -.79651258E+03 E0= -.79651258E+03  d E =-.588648E-02  mag=    47.0000
       N       E                     dE             d eps       ncg     rms          rms(c)
DAV:   1    -0.796510750868E+03    0.18323E-02   -0.22683E-01 35070   0.155E+00    0.181E-01
DAV:   2    -0.796513241267E+03   -0.24904E-02   -0.26092E-02 33490   0.311E-01    0.176E-01
DAV:   3    -0.796513330236E+03   -0.88968E-04   -0.84073E-04 39280   0.813E-02    0.902E-02
DAV:   4    -0.796513323007E+03    0.72283E-05   -0.84639E-05 38960   0.295E-02
  24 F= -.79651332E+03 E0= -.79651332E+03  d E =-.739069E-03  mag=    47.0000
       N       E                     dE             d eps       ncg     rms          rms(c)
DAV:   1    -0.796512605652E+03    0.72458E-03   -0.44240E-02 34830   0.637E-01    0.743E-02
DAV:   2    -0.796512994959E+03   -0.38931E-03   -0.40630E-03 33590   0.125E-01    0.725E-02
DAV:   3    -0.796513009710E+03   -0.14750E-04   -0.13519E-04 34440   0.306E-02    0.439E-02
DAV:   4    -0.796513010000E+03   -0.28986E-06   -0.11434E-05 21640   0.140E-02
  25 F= -.79651301E+03 E0= -.79651301E+03  d E =0.313008E-03  mag=    47.0000
       N       E                     dE             d eps       ncg     rms          rms(c)
DAV:   1    -0.796512336308E+03    0.67340E-03   -0.38527E-02 34300   0.480E-01    0.556E-02
DAV:   2    -0.796512543261E+03   -0.20695E-03   -0.21493E-03 33550   0.948E-02    0.640E-02
DAV:   3    -0.796512547526E+03   -0.42644E-05   -0.67883E-05 32690   0.235E-02    0.379E-02
DAV:   4    -0.796512547760E+03   -0.23443E-06   -0.57172E-06 18470   0.987E-03
  26 F= -.79651255E+03 E0= -.79651255E+03  d E =0.462240E-03  mag=    47.0000
       N       E                     dE             d eps       ncg     rms          rms(c)
DAV:   1    -0.796510933851E+03    0.16137E-02   -0.12392E-01 34500   0.880E-01    0.999E-02
DAV:   2    -0.796511644609E+03   -0.71076E-03   -0.72525E-03 33350   0.169E-01    0.103E-01
DAV:   3    -0.796511662197E+03   -0.17588E-04   -0.18617E-04 34570   0.399E-02    0.581E-02
DAV:   4    -0.796511661122E+03    0.10747E-05   -0.16825E-05 25870   0.165E-02
  27 F= -.79651166E+03 E0= -.79651166E+03  d E =0.886638E-03  mag=    47.0000
       N       E                     dE             d eps       ncg     rms          rms(c)
DAV:   1    -0.796512498122E+03   -0.83593E-03   -0.22664E-01 34420   0.118E+00    0.126E-01
DAV:   2    -0.796513744246E+03   -0.12461E-02   -0.12858E-02 33330   0.219E-01    0.908E-02
DAV:   3    -0.796513786443E+03   -0.42197E-04   -0.29595E-04 37650   0.442E-02    0.522E-02
DAV:   4    -0.796513780842E+03    0.56011E-05   -0.26397E-05 28020   0.190E-02
  28 F= -.79651378E+03 E0= -.79651378E+03  d E =-.211972E-02  mag=    47.0000
       N       E                     dE             d eps       ncg     rms          rms(c)
DAV:   1    -0.796510201085E+03    0.35854E-02   -0.18496E+00 34180   0.365E+00    0.414E-01
DAV:   2    -0.796522879049E+03   -0.12678E-01   -0.13469E-01 33690   0.750E-01    0.446E-01
DAV:   3    -0.796523215591E+03   -0.33654E-03   -0.47990E-03 39760   0.195E-01    0.236E-01
DAV:   4    -0.796523130156E+03    0.85434E-04   -0.49579E-04 43630   0.708E-02    0.207E-01
DAV:   5    -0.796523060502E+03    0.69655E-04   -0.55885E-04 39990   0.650E-02    0.657E-02
DAV:   6    -0.796523072936E+03   -0.12435E-04   -0.13017E-04 42390   0.325E-02    0.356E-02
DAV:   7    -0.796523074304E+03   -0.13676E-05   -0.39509E-05 29110   0.142E-02
  29 F= -.79652307E+03 E0= -.79652307E+03  d E =-.929346E-02  mag=    47.0000
       N       E                     dE             d eps       ncg     rms          rms(c)
DAV:   1    -0.796519704105E+03    0.33688E-02   -0.30021E-01 34970   0.175E+00    0.207E-01
DAV:   2    -0.796522828582E+03   -0.31245E-02   -0.33910E-02 34190   0.359E-01    0.190E-01
DAV:   3    -0.796522976131E+03   -0.14755E-03   -0.13904E-03 40500   0.962E-02    0.998E-02
DAV:   4    -0.796522950480E+03    0.25651E-04   -0.13932E-04 43940   0.355E-02    0.821E-02
DAV:   5    -0.796522936773E+03    0.13707E-04   -0.12500E-04 38600   0.293E-02    0.286E-02
DAV:   6    -0.796522938117E+03   -0.13440E-05   -0.19172E-05 25410   0.151E-02
  30 F= -.79652294E+03 E0= -.79652294E+03  d E =0.136187E-03  mag=    47.0000
       N       E                     dE             d eps       ncg     rms          rms(c)
DAV:   1    -0.796520854181E+03    0.20826E-02   -0.60188E-02 34090   0.684E-01    0.811E-02
DAV:   2    -0.796521318204E+03   -0.46402E-03   -0.48580E-03 33460   0.141E-01    0.835E-02
DAV:   3    -0.796521333246E+03   -0.15043E-04   -0.16412E-04 36290   0.357E-02    0.454E-02
DAV:   4    -0.796521331557E+03    0.16893E-05   -0.13323E-05 22790   0.138E-02
  31 F= -.79652133E+03 E0= -.79652133E+03  d E =0.160656E-02  mag=    47.0000
       N       E                     dE             d eps       ncg     rms          rms(c)
DAV:   1    -0.796519844384E+03    0.14889E-02   -0.16947E-02 34210   0.330E-01    0.402E-02
DAV:   2    -0.796519947237E+03   -0.10285E-03   -0.10535E-03 33470   0.642E-02    0.385E-02
DAV:   3    -0.796519950399E+03   -0.31617E-05   -0.28456E-05 27260   0.153E-02    0.211E-02
DAV:   4    -0.796519950879E+03   -0.48021E-06   -0.38023E-06 17320   0.752E-03
  32 F= -.79651995E+03 E0= -.79651995E+03  d E =0.138068E-02  mag=    47.0000
       N       E                     dE             d eps       ncg     rms          rms(c)
DAV:   1    -0.796513296638E+03    0.66538E-02   -0.14233E-01 34020   0.982E-01    0.112E-01
DAV:   2    -0.796514226821E+03   -0.93018E-03   -0.95465E-03 33430   0.192E-01    0.101E-01
DAV:   3    -0.796514256788E+03   -0.29966E-04   -0.25110E-04 37200   0.449E-02    0.534E-02
DAV:   4    -0.796514254683E+03    0.21047E-05   -0.23602E-05 26970   0.186E-02
  33 F= -.79651425E+03 E0= -.79651425E+03  d E =0.569620E-02  mag=    47.0000
       N       E                     dE             d eps       ncg     rms          rms(c)
DAV:   1    -0.796503068704E+03    0.11188E-01   -0.28122E-01 33990   0.147E+00    0.170E-01
DAV:   2    -0.796505225049E+03   -0.21563E-02   -0.22440E-02 33450   0.287E-01    0.117E-01
DAV:   3    -0.796505323664E+03   -0.98614E-04   -0.64514E-04 39760   0.623E-02    0.662E-02
DAV:   4    -0.796505317227E+03    0.64371E-05   -0.57466E-05 35720   0.233E-02
  34 F= -.79650532E+03 E0= -.79650532E+03  d E =0.893746E-02  mag=    47.0000
       N       E                     dE             d eps       ncg     rms          rms(c)
DAV:   1    -0.796445383494E+03    0.59940E-01   -0.58806E+00 34690   0.710E+00    0.822E-01
DAV:   2    -0.796494896436E+03   -0.49513E-01   -0.53551E-01 34340   0.147E+00    0.802E-01
DAV:   3    -0.796496936049E+03   -0.20396E-02   -0.20970E-02 40680   0.381E-01    0.426E-01
DAV:   4    -0.796496521648E+03    0.41440E-03   -0.21844E-03 44170   0.148E-01    0.368E-01
DAV:   5    -0.796496236426E+03    0.28522E-03   -0.22302E-03 38950   0.125E-01    0.124E-01
DAV:   6    -0.796496272928E+03   -0.36502E-04   -0.45934E-04 41670   0.659E-02    0.703E-02
DAV:   7    -0.796496276794E+03   -0.38665E-05   -0.20127E-04 39040   0.304E-02    0.409E-02
DAV:   8    -0.796496281856E+03   -0.50621E-05   -0.14211E-05 21270   0.138E-02
  35 F= -.79649628E+03 E0= -.79649628E+03  d E =0.903537E-02  mag=    47.0000
       N       E                     dE             d eps       ncg     rms          rms(c)
DAV:   1    -0.796462454817E+03    0.33822E-01   -0.31362E+00 35580   0.610E+00    0.750E-01
DAV:   2    -0.796501721319E+03   -0.39267E-01   -0.43105E-01 34250   0.125E+00    0.583E-01
DAV:   3    -0.796504155241E+03   -0.24339E-02   -0.18157E-02 40630   0.322E-01    0.322E-01
DAV:   4    -0.796503819524E+03    0.33572E-03   -0.17469E-03 44690   0.122E-01    0.245E-01
DAV:   5    -0.796503680774E+03    0.13875E-03   -0.13932E-03 37950   0.969E-02    0.939E-02
DAV:   6    -0.796503692683E+03   -0.11909E-04   -0.24102E-04 38280   0.555E-02    0.563E-02
DAV:   7    -0.796503696807E+03   -0.41242E-05   -0.14272E-04 41560   0.266E-02    0.304E-02
DAV:   8    -0.796503698978E+03   -0.21712E-05   -0.99340E-06 19090   0.108E-02
  36 F= -.79650370E+03 E0= -.79650370E+03  d E =-.741712E-02  mag=    47.0000
       N       E                     dE             d eps       ncg     rms          rms(c)
DAV:   1    -0.796501504993E+03    0.21918E-02   -0.12949E-01 34000   0.897E-01    0.104E-01
DAV:   2    -0.796502272533E+03   -0.76754E-03   -0.79749E-03 33680   0.184E-01    0.122E-01
DAV:   3    -0.796502284917E+03   -0.12384E-04   -0.24775E-04 36580   0.472E-02    0.673E-02
DAV:   4    -0.796502282595E+03    0.23224E-05   -0.20927E-05 25420   0.170E-02
  37 F= -.79650228E+03 E0= -.79650228E+03  d E =0.141638E-02  mag=    47.0000
       N       E                     dE             d eps       ncg     rms          rms(c)
DAV:   1    -0.796498830625E+03    0.34543E-02   -0.16715E-01 34210   0.111E+00    0.128E-01
DAV:   2    -0.796499962011E+03   -0.11314E-02   -0.11910E-02 33410   0.220E-01    0.126E-01
DAV:   3    -0.796500003184E+03   -0.41173E-04   -0.40592E-04 37650   0.552E-02    0.703E-02
DAV:   4    -0.796499998762E+03    0.44222E-05   -0.41897E-05 34280   0.232E-02
  38 F= -.79650000E+03 E0= -.79650000E+03  d E =0.228383E-02  mag=    47.0000
       N       E                     dE             d eps       ncg     rms          rms(c)
DAV:   1    -0.796495622221E+03    0.43810E-02   -0.92905E-02 34110   0.899E-01    0.104E-01
DAV:   2    -0.796496430824E+03   -0.80860E-03   -0.84334E-03 33380   0.175E-01    0.719E-02
DAV:   3    -0.796496469068E+03   -0.38244E-04   -0.24929E-04 36940   0.367E-02    0.431E-02
DAV:   4    -0.796496467293E+03    0.17745E-05   -0.21335E-05 24690   0.164E-02
  39 F= -.79649647E+03 E0= -.79649647E+03  d E =0.353147E-02  mag=    47.0000
       N       E                     dE             d eps       ncg     rms          rms(c)
DAV:   1    -0.796487110141E+03    0.93589E-02   -0.31114E-01 33740   0.140E+00    0.159E-01
DAV:   2    -0.796488983192E+03   -0.18731E-02   -0.19363E-02 33350   0.267E-01    0.115E-01
DAV:   3    -0.796489059481E+03   -0.76289E-04   -0.50678E-04 37840   0.616E-02    0.613E-02
DAV:   4    -0.796489056050E+03    0.34308E-05   -0.51542E-05 35500   0.250E-02
  40 F= -.79648906E+03 E0= -.79648906E+03  d E =0.741124E-02  mag=    47.0000
       N       E                     dE             d eps       ncg     rms          rms(c)
DAV:   1    -0.796423866647E+03    0.65193E-01   -0.62812E+00 34730   0.765E+00    0.886E-01
DAV:   2    -0.796478946820E+03   -0.55080E-01   -0.59145E-01 33760   0.156E+00    0.873E-01
DAV:   3    -0.796481312188E+03   -0.23654E-02   -0.23556E-02 40230   0.419E-01    0.447E-01
DAV:   4    -0.796480968761E+03    0.34343E-03   -0.24186E-03 43400   0.160E-01    0.393E-01
DAV:   5    -0.796480702109E+03    0.26665E-03   -0.25200E-03 39150   0.135E-01    0.127E-01
DAV:   6    -0.796480740079E+03   -0.37970E-04   -0.47287E-04 41460   0.654E-02    0.711E-02
DAV:   7    -0.796480746721E+03   -0.66420E-05   -0.21602E-04 38990   0.312E-02    0.412E-02
DAV:   8    -0.796480751747E+03   -0.50265E-05   -0.14549E-05 21990   0.153E-02
  41 F= -.79648075E+03 E0= -.79648075E+03  d E =0.830430E-02  mag=    47.0000
       N       E                     dE             d eps       ncg     rms          rms(c)
DAV:   1    -0.796446256323E+03    0.34490E-01   -0.31693E+00 35260   0.641E+00    0.787E-01
DAV:   2    -0.796488740708E+03   -0.42484E-01   -0.46597E-01 34380   0.131E+00    0.614E-01
DAV:   3    -0.796491469018E+03   -0.27283E-02   -0.19941E-02 40800   0.347E-01    0.329E-01
DAV:   4    -0.796491129599E+03    0.33942E-03   -0.19405E-03 43840   0.132E-01    0.252E-01
DAV:   5    -0.796490991605E+03    0.13799E-03   -0.15926E-03 37440   0.103E-01    0.942E-02
DAV:   6    -0.796491004476E+03   -0.12872E-04   -0.24284E-04 37490   0.555E-02    0.572E-02
DAV:   7    -0.796491010467E+03   -0.59902E-05   -0.15474E-04 39370   0.267E-02    0.307E-02
DAV:   8    -0.796491012560E+03   -0.20937E-05   -0.99863E-06 19620   0.116E-02
  42 F= -.79649101E+03 E0= -.79649101E+03  d E =-.102608E-01  mag=    47.0000
       N       E                     dE             d eps       ncg     rms          rms(c)
DAV:   1    -0.796490263621E+03    0.74685E-03   -0.74105E-02 34120   0.613E-01    0.699E-02
DAV:   2    -0.796490604492E+03   -0.34087E-03   -0.35960E-03 34780   0.129E-01    0.937E-02
DAV:   3    -0.796490604870E+03   -0.37819E-06   -0.12385E-04 35250   0.339E-02    0.537E-02
DAV:   4    -0.796490602090E+03    0.27801E-05   -0.10146E-05 20370   0.116E-02
  43 F= -.79649060E+03 E0= -.79649060E+03  d E =0.410470E-03  mag=    47.0000
       N       E                     dE             d eps       ncg     rms          rms(c)
DAV:   1    -0.796484693231E+03    0.59116E-02   -0.66837E-01 34160   0.179E+00    0.200E-01
DAV:   2    -0.796487558284E+03   -0.28651E-02   -0.30313E-02 33690   0.366E-01    0.255E-01
DAV:   3    -0.796487574087E+03   -0.15803E-04   -0.98920E-04 36550   0.919E-02    0.149E-01
DAV:   4    -0.796487547489E+03    0.26599E-04   -0.10997E-04 41790   0.345E-02    0.135E-01
DAV:   5    -0.796487519867E+03    0.27622E-04   -0.17166E-04 39460   0.357E-02    0.426E-02
DAV:   6    -0.796487523995E+03   -0.41282E-05   -0.43039E-05 33940   0.175E-02
  44 F= -.79648752E+03 E0= -.79648752E+03  d E =0.307810E-02  mag=    47.0000
       N       E                     dE             d eps       ncg     rms          rms(c)
DAV:   1    -0.796486660784E+03    0.85908E-03   -0.22269E-02 35410   0.483E-01    0.599E-02
DAV:   2    -0.796486913475E+03   -0.25269E-03   -0.26785E-03 33630   0.999E-02    0.532E-02
DAV:   3    -0.796486925599E+03   -0.12124E-04   -0.10495E-04 36050   0.282E-02    0.272E-02
DAV:   4    -0.796486925197E+03    0.40230E-06   -0.79192E-06 18840   0.100E-02
  45 F= -.79648693E+03 E0= -.79648693E+03  d E =0.598798E-03  mag=    47.0000
       N       E                     dE             d eps       ncg     rms          rms(c)
DAV:   1    -0.796460776165E+03    0.26149E-01   -0.36994E+00 34190   0.461E+00    0.525E-01
DAV:   2    -0.796480526783E+03   -0.19751E-01   -0.21061E-01 34500   0.972E-01    0.694E-01
DAV:   3    -0.796480654836E+03   -0.12805E-03   -0.76093E-03 37470   0.256E-01    0.391E-01
DAV:   4    -0.796480502351E+03    0.15248E-03   -0.77040E-04 42170   0.896E-02    0.351E-01
DAV:   5    -0.796480287424E+03    0.21493E-03   -0.11615E-03 40620   0.950E-02    0.108E-01
DAV:   6    -0.796480302362E+03   -0.14937E-04   -0.27088E-04 42800   0.450E-02    0.525E-02
DAV:   7    -0.796480302632E+03   -0.27058E-06   -0.76084E-05 32880   0.187E-02
  46 F= -.79648030E+03 E0= -.79648030E+03  d E =0.662256E-02  mag=    47.0000
       N       E                     dE             d eps       ncg     rms          rms(c)
DAV:   1    -0.796422888972E+03    0.57413E-01   -0.60133E+00 34630   0.710E+00    0.853E-01
DAV:   2    -0.796476374120E+03   -0.53485E-01   -0.58451E-01 34600   0.152E+00    0.885E-01
DAV:   3    -0.796478517165E+03   -0.21430E-02   -0.25241E-02 40390   0.417E-01    0.472E-01
DAV:   4    -0.796478018951E+03    0.49821E-03   -0.26140E-03 44020   0.157E-01    0.409E-01
DAV:   5    -0.796477690414E+03    0.32854E-03   -0.28444E-03 38940   0.137E-01    0.137E-01
DAV:   6    -0.796477701947E+03   -0.11533E-04   -0.49082E-04 41460   0.665E-02    0.796E-02
DAV:   7    -0.796477707946E+03   -0.59994E-05   -0.28201E-04 37350   0.331E-02    0.456E-02
DAV:   8    -0.796477714929E+03   -0.69830E-05   -0.16613E-05 22350   0.157E-02
  47 F= -.79647771E+03 E0= -.79647771E+03  d E =0.258770E-02  mag=    47.0000
       N       E                     dE             d eps       ncg     rms          rms(c)
DAV:   1    -0.796468265776E+03    0.94422E-02   -0.10346E+00 35210   0.343E+00    0.437E-01
DAV:   2    -0.796482356587E+03   -0.14091E-01   -0.15484E-01 34530   0.730E-01    0.349E-01
DAV:   3    -0.796483186398E+03   -0.82981E-03   -0.66586E-03 40660   0.194E-01    0.193E-01
DAV:   4    -0.796483056099E+03    0.13030E-03   -0.63691E-04 44540   0.714E-02    0.146E-01
DAV:   5    -0.796483002724E+03    0.53375E-04   -0.53332E-04 38220   0.586E-02    0.558E-02
DAV:   6    -0.796483003353E+03   -0.62893E-06   -0.76994E-05 36370   0.312E-02
  48 F= -.79648300E+03 E0= -.79648300E+03  d E =-.528842E-02  mag=    47.0000
       N       E                     dE             d eps       ncg     rms          rms(c)
DAV:   1    -0.796482300026E+03    0.70270E-03   -0.27146E-02 35520   0.558E-01    0.752E-02
DAV:   2    -0.796482675427E+03   -0.37540E-03   -0.40388E-03 33860   0.117E-01    0.529E-02
DAV:   3    -0.796482699033E+03   -0.23607E-04   -0.16284E-04 37370   0.301E-02    0.314E-02
DAV:   4    -0.796482696852E+03    0.21814E-05   -0.11419E-05 19960   0.107E-02
  49 F= -.79648270E+03 E0= -.79648270E+03  d E =0.306501E-03  mag=    47.0000
       N       E                     dE             d eps       ncg     rms          rms(c)
DAV:   1    -0.796475719991E+03    0.69790E-02   -0.32778E-01 34760   0.176E+00    0.216E-01
DAV:   2    -0.796479260702E+03   -0.35407E-02   -0.38125E-02 33550   0.360E-01    0.156E-01
DAV:   3    -0.796479456534E+03   -0.19583E-03   -0.14791E-03 39260   0.877E-02    0.912E-02
DAV:   4    -0.796479429068E+03    0.27466E-04   -0.13340E-04 44180   0.320E-02    0.661E-02
DAV:   5    -0.796479423296E+03    0.57715E-05   -0.11459E-04 38010   0.274E-02    0.273E-02
DAV:   6    -0.796479425418E+03   -0.21222E-05   -0.17219E-05 24520   0.152E-02
  50 F= -.79647943E+03 E0= -.79647943E+03  d E =0.327143E-02  mag=    47.0000
       N       E                     dE             d eps       ncg     rms          rms(c)
DAV:   1    -0.796467102483E+03    0.12321E-01   -0.64916E-01 34190   0.247E+00    0.292E-01
DAV:   2    -0.796473686433E+03   -0.65840E-02   -0.67819E-02 33280   0.480E-01    0.190E-01
DAV:   3    -0.796474024949E+03   -0.33852E-03   -0.17600E-03 39440   0.106E-01    0.105E-01
DAV:   4    -0.796474007123E+03    0.17826E-04   -0.16427E-04 42800   0.410E-02    0.775E-02
DAV:   5    -0.796474012092E+03   -0.49688E-05   -0.11600E-04 38800   0.313E-02    0.303E-02
DAV:   6    -0.796474021372E+03   -0.92799E-05   -0.25751E-05 26190   0.159E-02
  51 F= -.79647402E+03 E0= -.79647402E+03  d E =0.540405E-02  mag=    47.0000
       N       E                     dE             d eps       ncg     rms          rms(c)
DAV:   1    -0.796418421793E+03    0.55590E-01   -0.34236E+00 35310   0.670E+00    0.846E-01
DAV:   2    -0.796464866835E+03   -0.46445E-01   -0.49733E-01 33590   0.134E+00    0.626E-01
DAV:   3    -0.796467889695E+03   -0.30229E-02   -0.19555E-02 40690   0.335E-01    0.335E-01
DAV:   4    -0.796467613355E+03    0.27634E-03   -0.18190E-03 43960   0.131E-01    0.261E-01
DAV:   5    -0.796467479742E+03    0.13361E-03   -0.13985E-03 38480   0.101E-01    0.923E-02
DAV:   6    -0.796467513742E+03   -0.34000E-04   -0.25910E-04 38050   0.553E-02    0.531E-02
DAV:   7    -0.796467521943E+03   -0.82010E-05   -0.12763E-04 38880   0.245E-02    0.310E-02
DAV:   8    -0.796467527091E+03   -0.51476E-05   -0.10763E-05 19180   0.110E-02
  52 F= -.79646753E+03 E0= -.79646753E+03  d E =0.649428E-02  mag=    47.0000
       N       E                     dE             d eps       ncg     rms          rms(c)
DAV:   1    -0.796459095038E+03    0.84269E-02   -0.10376E+00 35330   0.384E+00    0.485E-01
DAV:   2    -0.796473875217E+03   -0.14780E-01   -0.16039E-01 33590   0.755E-01    0.332E-01
DAV:   3    -0.796474893384E+03   -0.10182E-02   -0.64510E-03 39360   0.185E-01    0.184E-01
DAV:   4    -0.796474787739E+03    0.10564E-03   -0.58742E-04 44670   0.706E-02    0.132E-01
DAV:   5    -0.796474744089E+03    0.43650E-04   -0.41346E-04 38260   0.545E-02    0.487E-02
DAV:   6    -0.796474749575E+03   -0.54854E-05   -0.73484E-05 36070   0.319E-02
  53 F= -.79647475E+03 E0= -.79647475E+03  d E =-.722248E-02  mag=    47.0000
       N       E                     dE             d eps       ncg     rms          rms(c)
DAV:   1    -0.796471639311E+03    0.31048E-02   -0.23628E-01 35360   0.181E+00    0.231E-01
DAV:   2    -0.796475010033E+03   -0.33707E-02   -0.36318E-02 33600   0.359E-01    0.161E-01
DAV:   3    -0.796475243763E+03   -0.23373E-03   -0.14482E-03 38840   0.900E-02    0.900E-02
DAV:   4    -0.796475223815E+03    0.19948E-04   -0.12913E-04 44370   0.342E-02    0.657E-02
DAV:   5    -0.796475215884E+03    0.79305E-05   -0.99664E-05 36230   0.268E-02
  54 F= -.79647522E+03 E0= -.79647522E+03  d E =-.466310E-03  mag=    47.0000
       N       E                     dE             d eps       ncg     rms          rms(c)
DAV:   1    -0.796475406954E+03   -0.18314E-03   -0.45524E-03 35630   0.227E-01    0.292E-02
DAV:   2    -0.796475462877E+03   -0.55923E-04   -0.58608E-04 33580   0.460E-02    0.221E-02
DAV:   3    -0.796475465521E+03   -0.26437E-05   -0.17693E-05 22720   0.112E-02    0.125E-02
DAV:   4    -0.796475465686E+03   -0.16499E-06   -0.22399E-06 16520   0.541E-03
  55 F= -.79647547E+03 E0= -.79647547E+03  d E =-.249801E-03  mag=    47.0000
       N       E                     dE             d eps       ncg     rms          rms(c)
DAV:   1    -0.796475564274E+03   -0.98754E-04   -0.14982E-01 34480   0.126E+00    0.147E-01
DAV:   2    -0.796477157589E+03   -0.15933E-02   -0.17059E-02 33480   0.251E-01    0.106E-01
DAV:   3    -0.796477243687E+03   -0.86098E-04   -0.61866E-04 39370   0.603E-02    0.596E-02
DAV:   4    -0.796477230969E+03    0.12718E-04   -0.56666E-05 36120   0.247E-02    0.462E-02
DAV:   5    -0.796477226022E+03    0.49472E-05   -0.60133E-05 33250   0.190E-02
  56 F= -.79647723E+03 E0= -.79647723E+03  d E =-.176034E-02  mag=    47.0000
       N       E                     dE             d eps       ncg     rms          rms(c)
DAV:   1    -0.796477162958E+03    0.68011E-04   -0.24011E-01 34500   0.168E+00    0.201E-01
DAV:   2    -0.796479893951E+03   -0.27310E-02   -0.29569E-02 33440   0.334E-01    0.141E-01
DAV:   3    -0.796480065193E+03   -0.17124E-03   -0.11517E-03 39730   0.784E-02    0.789E-02
DAV:   4    -0.796480044708E+03    0.20485E-04   -0.97173E-05 42850   0.289E-02    0.565E-02
DAV:   5    -0.796480038873E+03    0.58348E-05   -0.79019E-05 35480   0.237E-02
  57 F= -.79648004E+03 E0= -.79648004E+03  d E =-.281285E-02  mag=    47.0000
       N       E                     dE             d eps       ncg     rms          rms(c)
DAV:   1    -0.796334635596E+03    0.14541E+00   -0.82100E+00 35500   0.107E+01    0.133E+00
DAV:   2    -0.796449916343E+03   -0.11528E+00   -0.12606E+00 33680   0.216E+00    0.946E-01
DAV:   3    -0.796457862834E+03   -0.79465E-02   -0.53828E-02 40140   0.536E-01    0.526E-01
DAV:   4    -0.796456946084E+03    0.91675E-03   -0.46618E-03 44600   0.201E-01    0.382E-01
DAV:   5    -0.796456531595E+03    0.41449E-03   -0.36008E-03 38020   0.159E-01    0.147E-01
DAV:   6    -0.796456587389E+03   -0.55794E-04   -0.66058E-04 38580   0.938E-02    0.819E-02
DAV:   7    -0.796456606791E+03   -0.19402E-04   -0.33756E-04 40980   0.406E-02    0.509E-02
DAV:   8    -0.796456616577E+03   -0.97858E-05   -0.28728E-05 27480   0.163E-02
  58 F= -.79645662E+03 E0= -.79645662E+03  d E =0.234223E-01  mag=    47.0000
       N       E                     dE             d eps       ncg     rms          rms(c)
DAV:   1    -0.796378994207E+03    0.77613E-01   -0.70240E+00 35570   0.100E+01    0.125E+00
DAV:   2    -0.796478682529E+03   -0.99688E-01   -0.10925E+00 33710   0.198E+00    0.856E-01
DAV:   3    -0.796485578944E+03   -0.68964E-02   -0.45170E-02 39510   0.487E-01    0.480E-01
DAV:   4    -0.796484777974E+03    0.80097E-03   -0.40576E-03 44520   0.182E-01    0.339E-01
DAV:   5    -0.796484449987E+03    0.32799E-03   -0.29652E-03 38060   0.145E-01    0.128E-01
DAV:   6    -0.796484478831E+03   -0.28844E-04   -0.51592E-04 39820   0.854E-02    0.718E-02
DAV:   7    -0.796484490646E+03   -0.11816E-04   -0.26456E-04 41760   0.365E-02    0.435E-02
DAV:   8    -0.796484493053E+03   -0.24068E-05   -0.20743E-05 24350   0.145E-02
  59 F= -.79648449E+03 E0= -.79648449E+03  d E =-.278765E-01  mag=    47.0000
       N       E                     dE             d eps       ncg     rms          rms(c)
DAV:   1    -0.796484205990E+03    0.28466E-03   -0.67516E-03 36040   0.293E-01    0.386E-02
DAV:   2    -0.796484302325E+03   -0.96335E-04   -0.99551E-04 33580   0.579E-02    0.265E-02
DAV:   3    -0.796484309233E+03   -0.69085E-05   -0.32323E-05 25760   0.151E-02    0.170E-02
DAV:   4    -0.796484310077E+03   -0.84346E-06   -0.36717E-06 17220   0.661E-03
  60 F= -.79648431E+03 E0= -.79648431E+03  d E =0.182976E-03  mag=    47.0000
       N       E                     dE             d eps       ncg     rms          rms(c)
DAV:   1    -0.796482365344E+03    0.19439E-02   -0.85715E-02 34730   0.911E-01    0.108E-01
DAV:   2    -0.796483239469E+03   -0.87413E-03   -0.89944E-03 33360   0.177E-01    0.751E-02
DAV:   3    -0.796483282140E+03   -0.42671E-04   -0.24535E-04 37550   0.400E-02    0.406E-02
DAV:   4    -0.796483279079E+03    0.30609E-05   -0.19516E-05 25230   0.161E-02
  61 F= -.79648328E+03 E0= -.79648328E+03  d E =0.103100E-02  mag=    47.0000
       N       E                     dE             d eps       ncg     rms          rms(c)
DAV:   1    -0.796482665492E+03    0.61665E-03   -0.23603E-02 35530   0.495E-01    0.588E-02
DAV:   2    -0.796482897633E+03   -0.23214E-03   -0.24701E-03 33570   0.957E-02    0.392E-02
DAV:   3    -0.796482912173E+03   -0.14540E-04   -0.88465E-05 35900   0.222E-02    0.220E-02
DAV:   4    -0.796482910853E+03    0.13205E-05   -0.51294E-06 17620   0.811E-03
  62 F= -.79648291E+03 E0= -.79648291E+03  d E =0.368226E-03  mag=    47.0000
       N       E                     dE             d eps       ncg     rms          rms(c)
DAV:   1    -0.796442360164E+03    0.40552E-01   -0.25200E+00 35160   0.522E+00    0.638E-01
DAV:   2    -0.796473868979E+03   -0.31509E-01   -0.33101E-01 33550   0.104E+00    0.458E-01
DAV:   3    -0.796475505803E+03   -0.16368E-02   -0.10551E-02 39710   0.254E-01    0.248E-01
DAV:   4    -0.796475350732E+03    0.15507E-03   -0.96950E-04 44870   0.935E-02    0.187E-01
DAV:   5    -0.796475312131E+03    0.38601E-04   -0.74787E-04 40930   0.739E-02    0.694E-02
DAV:   6    -0.796475334245E+03   -0.22114E-04   -0.13616E-04 39700   0.370E-02    0.447E-02
DAV:   7    -0.796475342518E+03   -0.82731E-05   -0.64370E-05 30740   0.174E-02
  63 F= -.79647534E+03 E0= -.79647534E+03  d E =0.756834E-02  mag=    47.0000
       N       E                     dE             d eps       ncg     rms          rms(c)
DAV:   1    -0.796339621686E+03    0.13571E+00   -0.78651E+00 35400   0.996E+00    0.127E+00
DAV:   2    -0.796458149256E+03   -0.11853E+00   -0.12836E+00 34260   0.207E+00    0.897E-01
DAV:   3    -0.796465406957E+03   -0.72577E-02   -0.50943E-02 40240   0.524E-01    0.508E-01
DAV:   4    -0.796464593122E+03    0.81384E-03   -0.44115E-03 44270   0.179E-01    0.355E-01
DAV:   5    -0.796464384358E+03    0.20876E-03   -0.35003E-03 39440   0.153E-01    0.149E-01
DAV:   6    -0.796464411826E+03   -0.27468E-04   -0.54344E-04 39060   0.843E-02    0.916E-02
DAV:   7    -0.796464438350E+03   -0.26524E-04   -0.33932E-04 42220   0.402E-02    0.533E-02
DAV:   8    -0.796464457502E+03   -0.19153E-04   -0.27460E-05 26160   0.179E-02    0.397E-02
DAV:   9    -0.796464482034E+03   -0.24532E-04   -0.28253E-05 25480   0.137E-02    0.282E-02
DAV:  10    -0.796464496104E+03   -0.14070E-04   -0.13464E-05 20040   0.102E-02    0.236E-02
DAV:  11    -0.796464506917E+03   -0.10812E-04   -0.75584E-06 18070   0.768E-03    0.208E-02
DAV:  12    -0.796464523645E+03   -0.16728E-04   -0.12410E-05 20470   0.113E-02    0.175E-02
DAV:  13    -0.796464538770E+03   -0.15125E-04   -0.33885E-05 29070   0.139E-02    0.135E-02
DAV:  14    -0.796464547730E+03   -0.89600E-05   -0.24814E-05 23640   0.111E-02
  64 F= -.79646455E+03 E0= -.79646455E+03  d E =0.107948E-01  mag=    47.0000
       N       E                     dE             d eps       ncg     rms          rms(c)
DAV:   1    -0.796444175237E+03    0.20364E-01   -0.18663E+00 35370   0.495E+00    0.642E-01
DAV:   2    -0.796474486336E+03   -0.30311E-01   -0.33056E-01 34390   0.104E+00    0.446E-01
DAV:   3    -0.796476384178E+03   -0.18978E-02   -0.13460E-02 40140   0.264E-01    0.256E-01
DAV:   4    -0.796476168562E+03    0.21562E-03   -0.11514E-03 44110   0.884E-02    0.175E-01
DAV:   5    -0.796476116349E+03    0.52213E-04   -0.90063E-04 38620   0.768E-02    0.755E-02
DAV:   6    -0.796476121934E+03   -0.55852E-05   -0.13199E-04 38150   0.425E-02    0.469E-02
DAV:   7    -0.796476128793E+03   -0.68587E-05   -0.87219E-05 38200   0.208E-02
  65 F= -.79647613E+03 E0= -.79647613E+03  d E =-.115811E-01  mag=    47.0000
       N       E                     dE             d eps       ncg     rms          rms(c)
DAV:   1    -0.796475247714E+03    0.87422E-03   -0.42107E-02 35690   0.687E-01    0.884E-02
DAV:   2    -0.796475805209E+03   -0.55750E-03   -0.59587E-03 33690   0.140E-01    0.610E-02
DAV:   3    -0.796475841918E+03   -0.36709E-04   -0.22444E-04 36940   0.337E-02    0.374E-02
DAV:   4    -0.796475841387E+03    0.53183E-06   -0.14981E-05 21720   0.112E-02
  66 F= -.79647584E+03 E0= -.79647584E+03  d E =0.287406E-03  mag=    47.0000
       N       E                     dE             d eps       ncg     rms          rms(c)
DAV:   1    -0.796469755596E+03    0.60863E-02   -0.35096E-01 34980   0.183E+00    0.214E-01
DAV:   2    -0.796473297940E+03   -0.35423E-02   -0.37082E-02 33330   0.355E-01    0.136E-01
DAV:   3    -0.796473484922E+03   -0.18698E-03   -0.10978E-03 38580   0.783E-02    0.796E-02
DAV:   4    -0.796473472505E+03    0.12417E-04   -0.92073E-05 40940   0.283E-02    0.548E-02
DAV:   5    -0.796473475325E+03   -0.28205E-05   -0.71677E-05 34520   0.232E-02
  67 F= -.79647348E+03 E0= -.79647348E+03  d E =0.236606E-02  mag=    47.0000
       N       E                     dE             d eps       ncg     rms          rms(c)
DAV:   1    -0.796468233143E+03    0.52394E-02   -0.29213E-01 34810   0.173E+00    0.207E-01
DAV:   2    -0.796471403390E+03   -0.31702E-02   -0.32502E-02 33250   0.327E-01    0.119E-01
DAV:   3    -0.796471578438E+03   -0.17505E-03   -0.75391E-04 39940   0.635E-02    0.663E-02
DAV:   4    -0.796471573601E+03    0.48374E-05   -0.56093E-05 31890   0.217E-02
  68 F= -.79647157E+03 E0= -.79647157E+03  d E =0.190172E-02  mag=    47.0000
       N       E                     dE             d eps       ncg     rms          rms(c)
DAV:   1    -0.796256722362E+03    0.21486E+00   -0.16118E+01 35140   0.121E+01    0.148E+00
DAV:   2    -0.796426417377E+03   -0.16970E+00   -0.18116E+00 33750   0.242E+00    0.970E-01
DAV:   3    -0.796435610736E+03   -0.91934E-02   -0.62276E-02 39110   0.558E-01    0.559E-01
DAV:   4    -0.796434570643E+03    0.10401E-02   -0.49190E-03 44950   0.177E-01    0.360E-01
DAV:   5    -0.796434348756E+03    0.22189E-03   -0.36427E-03 38330   0.153E-01    0.152E-01
DAV:   6    -0.796434449684E+03   -0.10093E-03   -0.68045E-04 39980   0.864E-02    0.983E-02
DAV:   7    -0.796434485876E+03   -0.36192E-04   -0.32721E-04 42190   0.437E-02    0.625E-02
DAV:   8    -0.796434521323E+03   -0.35446E-04   -0.39695E-05 30110   0.220E-02    0.468E-02
DAV:   9    -0.796434560818E+03   -0.39496E-04   -0.40715E-05 30510   0.162E-02    0.345E-02
DAV:  10    -0.796434587141E+03   -0.26323E-04   -0.20549E-05 25020   0.121E-02    0.293E-02
DAV:  11    -0.796434606919E+03   -0.19778E-04   -0.14031E-05 21600   0.104E-02    0.259E-02
DAV:  12    -0.796434636312E+03   -0.29393E-04   -0.25301E-05 29310   0.175E-02    0.191E-02
DAV:  13    -0.796434656410E+03   -0.20098E-04   -0.75272E-05 33810   0.190E-02    0.127E-02
DAV:  14    -0.796434666361E+03   -0.99504E-05   -0.28757E-05 22290   0.991E-03
  69 F= -.79643467E+03 E0= -.79643467E+03  d E =0.369072E-01  mag=    47.0000
       N       E                     dE             d eps       ncg     rms          rms(c)
DAV:   1    -0.795548707019E+03    0.88595E+00   -0.50805E+01 35250   0.256E+01    0.333E+00
DAV:   2    -0.796341178426E+03   -0.79247E+00   -0.86714E+00 34420   0.541E+00    0.228E+00
DAV:   3    -0.796393149789E+03   -0.51971E-01   -0.36806E-01 39470   0.135E+00    0.131E+00
DAV:   4    -0.796387354355E+03    0.57954E-02   -0.30025E-02 43560   0.438E-01    0.891E-01
DAV:   5    -0.796385743991E+03    0.16104E-02   -0.21950E-02 37960   0.361E-01    0.369E-01
DAV:   6    -0.796386013912E+03   -0.26992E-03   -0.31519E-03 38360   0.207E-01    0.243E-01
DAV:   7    -0.796386182984E+03   -0.16907E-03   -0.20933E-03 42680   0.108E-01    0.141E-01
DAV:   8    -0.796386329565E+03   -0.14658E-03   -0.23274E-04 39790   0.495E-02    0.103E-01
DAV:   9    -0.796386486802E+03   -0.15724E-03   -0.16539E-04 39780   0.330E-02    0.703E-02
DAV:  10    -0.796386585292E+03   -0.98490E-04   -0.78902E-05 32650   0.241E-02    0.603E-02
DAV:  11    -0.796386659163E+03   -0.73870E-04   -0.49514E-05 29960   0.196E-02    0.533E-02
DAV:  12    -0.796386786685E+03   -0.12752E-03   -0.11337E-04 37740   0.320E-02    0.406E-02
DAV:  13    -0.796386887470E+03   -0.10079E-03   -0.22795E-04 40140   0.404E-02    0.321E-02
DAV:  14    -0.796386939081E+03   -0.51611E-04   -0.10558E-04 35660   0.228E-02    0.239E-02
DAV:  15    -0.796386960919E+03   -0.21837E-04   -0.32116E-05 23860   0.133E-02    0.174E-02
DAV:  16    -0.796386971780E+03   -0.10861E-04   -0.17052E-05 23420   0.854E-03    0.141E-02
DAV:  17    -0.796386978732E+03   -0.69524E-05   -0.71615E-06 19500   0.654E-03
  70 F= -.79638698E+03 E0= -.79638698E+03  d E =0.476876E-01  mag=    47.0000
       N       E                     dE             d eps       ncg     rms          rms(c)
DAV:   1    -0.796190122202E+03    0.19685E+00   -0.19829E+01 35420   0.151E+01    0.190E+00
DAV:   2    -0.796448213325E+03   -0.25809E+00   -0.28151E+00 34140   0.309E+00    0.128E+00
DAV:   3    -0.796464516231E+03   -0.16303E-01   -0.11449E-01 40060   0.769E-01    0.731E-01
DAV:   4    -0.796462639148E+03    0.18771E-02   -0.96676E-03 43690   0.252E-01    0.480E-01
DAV:   5    -0.796462135707E+03    0.50344E-03   -0.69468E-03 37970   0.211E-01    0.212E-01
DAV:   6    -0.796462215142E+03   -0.79434E-04   -0.11154E-03 38290   0.121E-01    0.132E-01
DAV:   7    -0.796462267228E+03   -0.52086E-04   -0.66544E-04 42520   0.602E-02    0.786E-02
DAV:   8    -0.796462309896E+03   -0.42668E-04   -0.71980E-05 34790   0.271E-02    0.566E-02
DAV:   9    -0.796462356604E+03   -0.46708E-04   -0.52154E-05 33490   0.183E-02    0.374E-02
DAV:  10    -0.796462384255E+03   -0.27651E-04   -0.23445E-05 25020   0.134E-02    0.318E-02
DAV:  11    -0.796462403459E+03   -0.19204E-04   -0.13754E-05 20660   0.106E-02    0.283E-02
DAV:  12    -0.796462433931E+03   -0.30472E-04   -0.20943E-05 26060   0.156E-02    0.221E-02
DAV:  13    -0.796462460759E+03   -0.26827E-04   -0.73066E-05 34180   0.202E-02    0.150E-02
DAV:  14    -0.796462474412E+03   -0.13653E-04   -0.38219E-05 22550   0.123E-02    0.126E-02
DAV:  15    -0.796462479316E+03   -0.49038E-05   -0.86026E-06 20270   0.636E-03
  71 F= -.79646248E+03 E0= -.79646248E+03  d E =-.755006E-01  mag=    47.0000
       N       E                     dE             d eps       ncg     rms          rms(c)
DAV:   1    -0.796420193564E+03    0.42281E-01   -0.31285E+00 34740   0.605E+00    0.747E-01
DAV:   2    -0.796460993387E+03   -0.40800E-01   -0.42150E-01 33310   0.119E+00    0.509E-01
DAV:   3    -0.796463407680E+03   -0.24143E-02   -0.12624E-02 40350   0.281E-01    0.271E-01
DAV:   4    -0.796463302587E+03    0.10509E-03   -0.11474E-03 43500   0.107E-01    0.201E-01
DAV:   5    -0.796463293921E+03    0.86663E-05   -0.76239E-04 40890   0.816E-02    0.766E-02
DAV:   6    -0.796463342220E+03   -0.48300E-04   -0.15630E-04 39710   0.398E-02    0.456E-02
DAV:   7    -0.796463354939E+03   -0.12719E-04   -0.59238E-05 33170   0.188E-02    0.298E-02
DAV:   8    -0.796463366010E+03   -0.11071E-04   -0.99935E-06 19300   0.109E-02    0.240E-02
DAV:   9    -0.796463376091E+03   -0.10081E-04   -0.91822E-06 19740   0.877E-03    0.196E-02
DAV:  10    -0.796463383865E+03   -0.77743E-05   -0.74601E-06 18330   0.674E-03
  72 F= -.79646338E+03 E0= -.79646338E+03  d E =-.904550E-03  mag=    47.0000
       N       E                     dE             d eps       ncg     rms          rms(c)
DAV:   1    -0.796446928608E+03    0.16447E-01   -0.15019E+00 35490   0.431E+00    0.526E-01
DAV:   2    -0.796465758045E+03   -0.18829E-01   -0.20632E-01 34040   0.870E-01    0.371E-01
DAV:   3    -0.796467088458E+03   -0.13304E-02   -0.90459E-03 40500   0.225E-01    0.208E-01
DAV:   4    -0.796466937976E+03    0.15048E-03   -0.78124E-04 44000   0.777E-02    0.141E-01
DAV:   5    -0.796466889659E+03    0.48317E-04   -0.60168E-04 37900   0.636E-02    0.619E-02
DAV:   6    -0.796466899165E+03   -0.95062E-05   -0.89571E-05 35970   0.352E-02
  73 F= -.79646690E+03 E0= -.79646690E+03  d E =-.351530E-02  mag=    47.0000
       N       E                     dE             d eps       ncg     rms          rms(c)
DAV:   1    -0.796457189820E+03    0.96998E-02   -0.11020E+00 34850   0.309E+00    0.363E-01
DAV:   2    -0.796466522636E+03   -0.93328E-02   -0.96115E-02 33330   0.588E-01    0.248E-01
DAV:   3    -0.796466997828E+03   -0.47519E-03   -0.26690E-03 38120   0.132E-01    0.132E-01
DAV:   4    -0.796466960364E+03    0.37464E-04   -0.24037E-04 43440   0.516E-02    0.100E-01
DAV:   5    -0.796466951406E+03    0.89579E-05   -0.18585E-04 39600   0.394E-02    0.368E-02
DAV:   6    -0.796466964749E+03   -0.13343E-04   -0.46119E-05 32460   0.207E-02    0.248E-02
DAV:   7    -0.796466968092E+03   -0.33424E-05   -0.12600E-05 18180   0.974E-03
  74 F= -.79646697E+03 E0= -.79646697E+03  d E =-.689267E-04  mag=    47.0000
       N       E                     dE             d eps       ncg     rms          rms(c)
DAV:   1    -0.795911907437E+03    0.55506E+00   -0.30572E+01 35470   0.200E+01    0.252E+00
DAV:   2    -0.796349986013E+03   -0.43808E+00   -0.47588E+00 33660   0.412E+00    0.185E+00
DAV:   3    -0.796380992980E+03   -0.31007E-01   -0.20617E-01 40060   0.106E+00    0.100E+00
DAV:   4    -0.796377884496E+03    0.31085E-02   -0.17616E-02 44500   0.374E-01    0.724E-01
DAV:   5    -0.796376656102E+03    0.12284E-02   -0.13398E-02 38360   0.306E-01    0.295E-01
DAV:   6    -0.796376915059E+03   -0.25896E-03   -0.20717E-03 38530   0.162E-01    0.160E-01
DAV:   7    -0.796377002079E+03   -0.87020E-04   -0.11866E-03 41840   0.759E-02    0.990E-02
DAV:   8    -0.796377054205E+03   -0.52126E-04   -0.15047E-04 37710   0.367E-02    0.651E-02
DAV:   9    -0.796377097993E+03   -0.43788E-04   -0.65564E-05 35790   0.233E-02    0.414E-02
DAV:  10    -0.796377124192E+03   -0.26199E-04   -0.29414E-05 26640   0.159E-02    0.330E-02
DAV:  11    -0.796377140997E+03   -0.16806E-04   -0.14281E-05 20530   0.108E-02    0.275E-02
DAV:  12    -0.796377162906E+03   -0.21909E-04   -0.13081E-05 22450   0.102E-02    0.229E-02
DAV:  13    -0.796377190391E+03   -0.27484E-04   -0.35377E-05 31220   0.173E-02    0.177E-02
DAV:  14    -0.796377204414E+03   -0.14023E-04   -0.35635E-05 23520   0.113E-02    0.137E-02
DAV:  15    -0.796377211285E+03   -0.68709E-05   -0.68267E-06 19190   0.747E-03
  75 F= -.79637721E+03 E0= -.79637721E+03  d E =0.897568E-01  mag=    47.0000
       N       E                     dE             d eps       ncg     rms          rms(c)
DAV:   1    -0.795543089165E+03    0.83412E+00   -0.57661E+01 35580   0.280E+01    0.360E+00
DAV:   2    -0.796390867020E+03   -0.84778E+00   -0.92889E+00 33650   0.572E+00    0.253E+00
DAV:   3    -0.796451583875E+03   -0.60717E-01   -0.40031E-01 40380   0.148E+00    0.140E+00
DAV:   4    -0.796445268453E+03    0.63154E-02   -0.35274E-02 43730   0.537E-01    0.982E-01
DAV:   5    -0.796442934422E+03    0.23340E-02   -0.25979E-02 37440   0.422E-01    0.402E-01
DAV:   6    -0.796443392116E+03   -0.45769E-03   -0.38784E-03 37840   0.233E-01    0.231E-01
DAV:   7    -0.796443574290E+03   -0.18217E-03   -0.23905E-03 42480   0.110E-01    0.139E-01
DAV:   8    -0.796443678364E+03   -0.10407E-03   -0.29781E-04 38180   0.514E-02    0.938E-02
DAV:   9    -0.796443765638E+03   -0.87274E-04   -0.13728E-04 39920   0.326E-02    0.581E-02
DAV:  10    -0.796443817945E+03   -0.52307E-04   -0.57759E-05 32320   0.223E-02    0.470E-02
DAV:  11    -0.796443854093E+03   -0.36148E-04   -0.28098E-05 24270   0.152E-02    0.397E-02
DAV:  12    -0.796443904631E+03   -0.50539E-04   -0.33194E-05 30260   0.164E-02    0.328E-02
DAV:  13    -0.796443963588E+03   -0.58957E-04   -0.84421E-05 36060   0.270E-02    0.249E-02
DAV:  14    -0.796443994284E+03   -0.30695E-04   -0.69171E-05 31670   0.181E-02    0.201E-02
DAV:  15    -0.796444008656E+03   -0.14373E-04   -0.19704E-05 21500   0.106E-02    0.155E-02
DAV:  16    -0.796444016512E+03   -0.78561E-05   -0.12844E-05 20590   0.776E-03
  76 F= -.79644402E+03 E0= -.79644402E+03  d E =-.668052E-01  mag=    47.0000
       N       E                     dE             d eps       ncg     rms          rms(c)
DAV:   1    -0.796387275735E+03    0.56733E-01   -0.53583E+00 35170   0.863E+00    0.109E+00
DAV:   2    -0.796469942888E+03   -0.82667E-01   -0.90817E-01 34310   0.179E+00    0.778E-01
DAV:   3    -0.796475860487E+03   -0.59176E-02   -0.41150E-02 40190   0.467E-01    0.440E-01
DAV:   4    -0.796475186152E+03    0.67434E-03   -0.34826E-03 44400   0.163E-01    0.305E-01
DAV:   5    -0.796474936643E+03    0.24951E-03   -0.27092E-03 37370   0.133E-01    0.127E-01
DAV:   6    -0.796474964679E+03   -0.28035E-04   -0.36819E-04 38350   0.731E-02    0.723E-02
DAV:   7    -0.796474980217E+03   -0.15538E-04   -0.24756E-04 41730   0.351E-02    0.449E-02
DAV:   8    -0.796474989147E+03   -0.89299E-05   -0.25062E-05 26120   0.163E-02
  77 F= -.79647499E+03 E0= -.79647499E+03  d E =-.309726E-01  mag=    47.0000
       N       E                     dE             d eps       ncg     rms          rms(c)
DAV:   1    -0.796471834735E+03    0.31455E-02   -0.27290E-01 35810   0.191E+00    0.244E-01
DAV:   2    -0.796475873988E+03   -0.40393E-02   -0.44670E-02 34370   0.396E-01    0.170E-01
DAV:   3    -0.796476163913E+03   -0.28992E-03   -0.20522E-03 39730   0.104E-01    0.100E-01
DAV:   4    -0.796476132689E+03    0.31224E-04   -0.17643E-04 43940   0.360E-02    0.679E-02
DAV:   5    -0.796476127852E+03    0.48369E-05   -0.14127E-04 36980   0.303E-02    0.328E-02
DAV:   6    -0.796476132416E+03   -0.45646E-05   -0.21374E-05 25860   0.176E-02
  78 F= -.79647613E+03 E0= -.79647613E+03  d E =-.114327E-02  mag=    47.0000
       N       E                     dE             d eps       ncg     rms          rms(c)
DAV:   1    -0.796431725109E+03    0.44403E-01   -0.24194E+00 35400   0.555E+00    0.699E-01
DAV:   2    -0.796465519351E+03   -0.33794E-01   -0.37183E-01 34240   0.115E+00    0.496E-01
DAV:   3    -0.796467812685E+03   -0.22933E-02   -0.16661E-02 40160   0.299E-01    0.285E-01
DAV:   4    -0.796467519039E+03    0.29365E-03   -0.14572E-03 43840   0.106E-01    0.197E-01
DAV:   5    -0.796467421681E+03    0.97358E-04   -0.11929E-03 37910   0.882E-02    0.869E-02
DAV:   6    -0.796467439523E+03   -0.17843E-04   -0.18420E-04 37800   0.507E-02    0.536E-02
DAV:   7    -0.796467452183E+03   -0.12660E-04   -0.11198E-04 40720   0.244E-02    0.354E-02
DAV:   8    -0.796467463388E+03   -0.11205E-04   -0.13338E-05 20880   0.119E-02    0.268E-02
DAV:   9    -0.796467475083E+03   -0.11695E-04   -0.11560E-05 20590   0.919E-03    0.199E-02
DAV:  10    -0.796467482454E+03   -0.73704E-05   -0.80789E-06 18660   0.701E-03
  79 F= -.79646748E+03 E0= -.79646748E+03  d E =0.864996E-02  mag=    47.0000
       N       E                     dE             d eps       ncg     rms          rms(c)
DAV:   1    -0.794886832314E+03    0.15806E+01   -0.84865E+01 35390   0.338E+01    0.452E+00
DAV:   2    -0.796147997972E+03   -0.12612E+01   -0.13970E+01 34270   0.706E+00    0.303E+00
DAV:   3    -0.796238318638E+03   -0.90321E-01   -0.65235E-01 40360   0.185E+00    0.174E+00
DAV:   4    -0.796227372614E+03    0.10946E-01   -0.56929E-02 43030   0.642E-01    0.113E+00
DAV:   5    -0.796223475629E+03    0.38970E-02   -0.38945E-02 36620   0.496E-01    0.503E-01
DAV:   6    -0.796223945687E+03   -0.47006E-03   -0.59041E-03 36920   0.286E-01    0.297E-01
DAV:   7    -0.796224211555E+03   -0.26587E-03   -0.34484E-03 42190   0.136E-01    0.186E-01
DAV:   8    -0.796224413786E+03   -0.20223E-03   -0.43506E-04 38380   0.619E-02    0.126E-01
DAV:   9    -0.796224611109E+03   -0.19732E-03   -0.23098E-04 39960   0.400E-02    0.804E-02
DAV:  10    -0.796224723207E+03   -0.11210E-03   -0.10779E-04 35780   0.283E-02    0.669E-02
DAV:  11    -0.796224805005E+03   -0.81798E-04   -0.53268E-05 30620   0.208E-02    0.593E-02
DAV:  12    -0.796224935587E+03   -0.13058E-03   -0.96118E-05 37850   0.287E-02    0.476E-02
DAV:  13    -0.796225062362E+03   -0.12677E-03   -0.20939E-04 40860   0.413E-02    0.385E-02
DAV:  14    -0.796225131356E+03   -0.68994E-04   -0.13909E-04 37180   0.266E-02    0.302E-02
DAV:  15    -0.796225165352E+03   -0.33996E-04   -0.46500E-05 27000   0.162E-02    0.227E-02
DAV:  16    -0.796225184528E+03   -0.19176E-04   -0.30530E-05 26560   0.116E-02    0.178E-02
DAV:  17    -0.796225197616E+03   -0.13088E-04   -0.15910E-05 25470   0.941E-03    0.146E-02
DAV:  18    -0.796225205629E+03   -0.80136E-05   -0.11307E-05 20950   0.729E-03
  80 F= -.79622521E+03 E0= -.79622521E+03  d E =0.242277E+00  mag=    47.0000
       N       E                     dE             d eps       ncg     rms          rms(c)
DAV:   1    -0.795836774050E+03    0.38842E+00   -0.40335E+01 35480   0.233E+01    0.298E+00
DAV:   2    -0.796435838226E+03   -0.59906E+00   -0.66527E+00 34350   0.485E+00    0.221E+00
DAV:   3    -0.796477534368E+03   -0.41696E-01   -0.29899E-01 40040   0.124E+00    0.125E+00
DAV:   4    -0.796472336317E+03    0.51981E-02   -0.26784E-02 43970   0.448E-01    0.910E-01
DAV:   5    -0.796470590826E+03    0.17455E-02   -0.21219E-02 37280   0.365E-01    0.356E-01
DAV:   6    -0.796470787569E+03   -0.19674E-03   -0.29574E-03 38500   0.206E-01    0.226E-01
DAV:   7    -0.796470944448E+03   -0.15688E-03   -0.21633E-03 41260   0.101E-01    0.131E-01
DAV:   8    -0.796471052491E+03   -0.10804E-03   -0.21106E-04 38850   0.466E-02    0.912E-02
DAV:   9    -0.796471163346E+03   -0.11086E-03   -0.13744E-04 39680   0.314E-02    0.630E-02
DAV:  10    -0.796471238022E+03   -0.74676E-04   -0.61558E-05 31990   0.224E-02    0.535E-02
DAV:  11    -0.796471291305E+03   -0.53283E-04   -0.38315E-05 27230   0.168E-02    0.468E-02
DAV:  12    -0.796471382936E+03   -0.91631E-04   -0.72788E-05 34600   0.265E-02    0.365E-02
DAV:  13    -0.796471459327E+03   -0.76391E-04   -0.16904E-04 38060   0.332E-02    0.285E-02
DAV:  14    -0.796471500452E+03   -0.41125E-04   -0.79797E-05 33220   0.196E-02    0.224E-02
DAV:  15    -0.796471519953E+03   -0.19501E-04   -0.29208E-05 23620   0.123E-02    0.168E-02
DAV:  16    -0.796471530522E+03   -0.10569E-04   -0.15978E-05 23210   0.846E-03    0.140E-02
DAV:  17    -0.796471537645E+03   -0.71222E-05   -0.80021E-06 20940   0.686E-03
  81 F= -.79647154E+03 E0= -.79647154E+03  d E =-.246332E+00  mag=    47.0000
       N       E                     dE             d eps       ncg     rms          rms(c)
DAV:   1    -0.796426209802E+03    0.45321E-01   -0.31935E+00 35490   0.665E+00    0.842E-01
DAV:   2    -0.796475302567E+03   -0.49093E-01   -0.54187E-01 34480   0.138E+00    0.594E-01
DAV:   3    -0.796478789242E+03   -0.34867E-02   -0.24735E-02 40140   0.360E-01    0.339E-01
DAV:   4    -0.796478371883E+03    0.41736E-03   -0.20887E-03 44190   0.125E-01    0.232E-01
DAV:   5    -0.796478227097E+03    0.14479E-03   -0.16438E-03 37190   0.103E-01    0.996E-02
DAV:   6    -0.796478244308E+03   -0.17211E-04   -0.22771E-04 38010   0.575E-02    0.590E-02
DAV:   7    -0.796478256877E+03   -0.12569E-04   -0.15180E-04 41860   0.279E-02    0.379E-02
DAV:   8    -0.796478266418E+03   -0.95414E-05   -0.15801E-05 22600   0.133E-02
  82 F= -.79647827E+03 E0= -.79647827E+03  d E =-.672877E-02  mag=    47.0000
       N       E                     dE             d eps       ncg     rms          rms(c)
DAV:   1    -0.796476962011E+03    0.12949E-02   -0.88667E-02 35830   0.110E+00    0.136E-01
DAV:   2    -0.796478309324E+03   -0.13473E-02   -0.14348E-02 33540   0.224E-01    0.101E-01
DAV:   3    -0.796478399293E+03   -0.89969E-04   -0.56510E-04 39580   0.587E-02    0.563E-02
DAV:   4    -0.796478394636E+03    0.46571E-05   -0.44326E-05 31570   0.220E-02
  83 F= -.79647839E+03 E0= -.79647839E+03  d E =-.128218E-03  mag=    47.0000
       N       E                     dE             d eps       ncg     rms          rms(c)
DAV:   1    -0.795841534536E+03    0.63686E+00   -0.33137E+01 35370   0.210E+01    0.279E+00
DAV:   2    -0.796347940220E+03   -0.50641E+00   -0.55997E+00 34510   0.439E+00    0.190E+00
DAV:   3    -0.796383228929E+03   -0.35289E-01   -0.25524E-01 40000   0.113E+00    0.109E+00
DAV:   4    -0.796378907639E+03    0.43213E-02   -0.21966E-02 44060   0.381E-01    0.714E-01
DAV:   5    -0.796377586714E+03    0.13209E-02   -0.15586E-02 36650   0.314E-01    0.311E-01
DAV:   6    -0.796377699854E+03   -0.11314E-03   -0.22485E-03 37730   0.178E-01    0.188E-01
DAV:   7    -0.796377805873E+03   -0.10602E-03   -0.14207E-03 42210   0.863E-02    0.118E-01
DAV:   8    -0.796377895753E+03   -0.89880E-04   -0.16646E-04 39230   0.399E-02    0.810E-02
DAV:   9    -0.796377990116E+03   -0.94364E-04   -0.10023E-04 36970   0.257E-02    0.547E-02
DAV:  10    -0.796378048037E+03   -0.57920E-04   -0.47774E-05 30450   0.185E-02    0.470E-02
DAV:  11    -0.796378089990E+03   -0.41953E-04   -0.27589E-05 25590   0.142E-02    0.420E-02
DAV:  12    -0.796378159272E+03   -0.69282E-04   -0.45692E-05 32590   0.222E-02    0.336E-02
DAV:  13    -0.796378225119E+03   -0.65846E-04   -0.16117E-04 37900   0.320E-02    0.253E-02
DAV:  14    -0.796378261813E+03   -0.36695E-04   -0.79001E-05 31530   0.183E-02    0.208E-02
DAV:  15    -0.796378278384E+03   -0.16570E-04   -0.22581E-05 23460   0.116E-02    0.151E-02
DAV:  16    -0.796378287821E+03   -0.94370E-05   -0.17090E-05 23600   0.835E-03
  84 F= -.79637829E+03 E0= -.79637829E+03  d E =0.100107E+00  mag=    47.0000
       N       E                     dE             d eps       ncg     rms          rms(c)
DAV:   1    -0.794573762274E+03    0.18045E+01   -0.10987E+02 35250   0.380E+01    0.502E+00
DAV:   2    -0.796260864812E+03   -0.16871E+01   -0.18647E+01 34330   0.810E+00    0.366E+00
DAV:   3    -0.796374247353E+03   -0.11338E+00   -0.84894E-01 40300   0.207E+00    0.206E+00
DAV:   4    -0.796360017013E+03    0.14230E-01   -0.73484E-02 42350   0.732E-01    0.151E+00
DAV:   5    -0.796354508690E+03    0.55083E-02   -0.57517E-02 37650   0.575E-01    0.609E-01
DAV:   6    -0.796355393310E+03   -0.88462E-03   -0.81450E-03 37450   0.331E-01    0.384E-01
DAV:   7    -0.796355813345E+03   -0.42004E-03   -0.57204E-03 42200   0.168E-01    0.220E-01
DAV:   8    -0.796356141341E+03   -0.32800E-03   -0.56625E-04 38640   0.739E-02    0.156E-01
DAV:   9    -0.796356491583E+03   -0.35024E-03   -0.38949E-04 40470   0.522E-02    0.107E-01
DAV:  10    -0.796356708001E+03   -0.21642E-03   -0.18463E-04 36940   0.371E-02    0.904E-02
DAV:  11    -0.796356866577E+03   -0.15858E-03   -0.10345E-04 34710   0.287E-02    0.800E-02
DAV:  12    -0.796357130594E+03   -0.26402E-03   -0.21638E-04 42280   0.437E-02    0.630E-02
DAV:  13    -0.796357353975E+03   -0.22338E-03   -0.43524E-04 41820   0.567E-02    0.501E-02
DAV:  14    -0.796357474759E+03   -0.12078E-03   -0.25189E-04 40090   0.366E-02    0.374E-02
DAV:  15    -0.796357530903E+03   -0.56144E-04   -0.85864E-05 32100   0.200E-02    0.282E-02
DAV:  16    -0.796357557395E+03   -0.26492E-04   -0.35248E-05 24490   0.121E-02    0.220E-02
DAV:  17    -0.796357576311E+03   -0.18916E-04   -0.19527E-05 27830   0.110E-02    0.181E-02
DAV:  18    -0.796357587982E+03   -0.11671E-04   -0.16918E-05 24230   0.899E-03    0.143E-02
DAV:  19    -0.796357596994E+03   -0.90113E-05   -0.11114E-05 21950   0.843E-03
  85 F= -.79635760E+03 E0= -.79635760E+03  d E =0.206908E-01  mag=    47.0000
       N       E                     dE             d eps       ncg     rms          rms(c)
DAV:   1    -0.796074611642E+03    0.28298E+00   -0.25270E+01 35330   0.183E+01    0.240E+00
DAV:   2    -0.796466624747E+03   -0.39201E+00   -0.43249E+00 34300   0.380E+00    0.163E+00
DAV:   3    -0.796492595851E+03   -0.25971E-01   -0.18524E-01 40060   0.970E-01    0.931E-01
DAV:   4    -0.796489496207E+03    0.30996E-02   -0.16672E-02 43510   0.329E-01    0.622E-01
DAV:   5    -0.796488547109E+03    0.94910E-03   -0.11593E-02 36540   0.272E-01    0.267E-01
DAV:   6    -0.796488645837E+03   -0.98727E-04   -0.17198E-03 37930   0.154E-01    0.167E-01
DAV:   7    -0.796488730550E+03   -0.84714E-04   -0.10815E-03 42410   0.760E-02    0.999E-02
DAV:   8    -0.796488800258E+03   -0.69708E-04   -0.12434E-04 37750   0.349E-02    0.715E-02
DAV:   9    -0.796488871943E+03   -0.71685E-04   -0.80011E-05 36690   0.227E-02    0.471E-02
DAV:  10    -0.796488913967E+03   -0.42024E-04   -0.35020E-05 28270   0.163E-02    0.400E-02
DAV:  11    -0.796488946931E+03   -0.32964E-04   -0.21855E-05 24780   0.134E-02    0.353E-02
DAV:  12    -0.796488994919E+03   -0.47988E-04   -0.36058E-05 31710   0.187E-02    0.275E-02
DAV:  13    -0.796489037069E+03   -0.42150E-04   -0.95057E-05 36240   0.246E-02    0.199E-02
DAV:  14    -0.796489058342E+03   -0.21274E-04   -0.50451E-05 27040   0.148E-02    0.166E-02
DAV:  15    -0.796489067074E+03   -0.87315E-05   -0.13251E-05 21280   0.823E-03
  86 F= -.79648907E+03 E0= -.79648907E+03  d E =-.131470E+00  mag=    47.0000
       N       E                     dE             d eps       ncg     rms          rms(c)
DAV:   1    -0.796488128664E+03    0.92968E-03   -0.14080E-01 35650   0.135E+00    0.180E-01
DAV:   2    -0.796490449893E+03   -0.23212E-02   -0.25354E-02 34320   0.288E-01    0.124E-01
DAV:   3    -0.796490599936E+03   -0.15004E-03   -0.10907E-03 39440   0.728E-02    0.725E-02
DAV:   4    -0.796490582813E+03    0.17123E-04   -0.91325E-05 42270   0.240E-02    0.493E-02
DAV:   5    -0.796490580217E+03    0.25958E-05   -0.73848E-05 34870   0.214E-02
  87 F= -.79649058E+03 E0= -.79649058E+03  d E =-.151314E-02  mag=    47.0000
       N       E                     dE             d eps       ncg     rms          rms(c)
DAV:   1    -0.796468501421E+03    0.22081E-01   -0.18214E+00 34390   0.451E+00    0.605E-01
DAV:   2    -0.796495629836E+03   -0.27128E-01   -0.28823E-01 33530   0.951E-01    0.416E-01
DAV:   3    -0.796497186508E+03   -0.15567E-02   -0.10650E-02 39400   0.230E-01    0.239E-01
DAV:   4    -0.796497033966E+03    0.15254E-03   -0.94915E-04 44650   0.828E-02    0.171E-01
DAV:   5    -0.796497019148E+03    0.14818E-04   -0.73305E-04 38230   0.690E-02    0.704E-02
DAV:   6    -0.796497032005E+03   -0.12857E-04   -0.11490E-04 38110   0.371E-02    0.465E-02
DAV:   7    -0.796497041403E+03   -0.93982E-05   -0.72193E-05 34260   0.193E-02
  88 F= -.79649704E+03 E0= -.79649704E+03  d E =-.646119E-02  mag=    47.0000
       N       E                     dE             d eps       ncg     rms          rms(c)
DAV:   1    -0.796152169058E+03    0.34486E+00   -0.16956E+01 35110   0.144E+01    0.198E+00
DAV:   2    -0.796450500329E+03   -0.29833E+00   -0.32170E+00 34130   0.311E+00    0.139E+00
DAV:   3    -0.796467495576E+03   -0.16995E-01   -0.12767E-01 39260   0.771E-01    0.800E-01
DAV:   4    -0.796465324151E+03    0.21714E-02   -0.10822E-02 42950   0.261E-01    0.570E-01
DAV:   5    -0.796464588140E+03    0.73601E-03   -0.84906E-03 38240   0.226E-01    0.226E-01
DAV:   6    -0.796464669089E+03   -0.80949E-04   -0.12428E-03 38710   0.126E-01    0.146E-01
DAV:   7    -0.796464713913E+03   -0.44824E-04   -0.81404E-04 42360   0.648E-02    0.809E-02
DAV:   8    -0.796464752376E+03   -0.38462E-04   -0.74697E-05 36590   0.290E-02    0.574E-02
DAV:   9    -0.796464796848E+03   -0.44472E-04   -0.55316E-05 36040   0.195E-02    0.388E-02
DAV:  10    -0.796464823332E+03   -0.26484E-04   -0.22519E-05 25180   0.137E-02    0.326E-02
DAV:  11    -0.796464844187E+03   -0.20855E-04   -0.14190E-05 21930   0.106E-02    0.288E-02
DAV:  12    -0.796464876035E+03   -0.31848E-04   -0.21026E-05 28160   0.148E-02    0.234E-02
DAV:  13    -0.796464905556E+03   -0.29521E-04   -0.70431E-05 34410   0.189E-02    0.168E-02
DAV:  14    -0.796464922205E+03   -0.16650E-04   -0.40224E-05 26150   0.133E-02    0.141E-02
DAV:  15    -0.796464929648E+03   -0.74427E-05   -0.13135E-05 22860   0.748E-03
  89 F= -.79646493E+03 E0= -.79646493E+03  d E =0.321118E-01  mag=    47.0000
       N       E                     dE             d eps       ncg     rms          rms(c)
DAV:   1    -0.796377369007E+03    0.87553E-01   -0.67285E+00 34600   0.920E+00    0.127E+00
DAV:   2    -0.796499290739E+03   -0.12192E+00   -0.13166E+00 34090   0.199E+00    0.847E-01
DAV:   3    -0.796506261121E+03   -0.69704E-02   -0.51583E-02 39200   0.490E-01    0.493E-01
DAV:   4    -0.796505409801E+03    0.85132E-03   -0.43697E-03 44530   0.158E-01    0.325E-01
DAV:   5    -0.796505158469E+03    0.25133E-03   -0.31569E-03 37520   0.140E-01    0.137E-01
DAV:   6    -0.796505180214E+03   -0.21745E-04   -0.45496E-04 38640   0.773E-02    0.861E-02
DAV:   7    -0.796505198334E+03   -0.18120E-04   -0.28501E-04 42350   0.400E-02    0.512E-02
DAV:   8    -0.796505216368E+03   -0.18034E-04   -0.28815E-05 27980   0.182E-02    0.370E-02
DAV:   9    -0.796505236270E+03   -0.19902E-04   -0.23202E-05 24610   0.120E-02    0.255E-02
DAV:  10    -0.796505247880E+03   -0.11609E-04   -0.11126E-05 19730   0.859E-03    0.213E-02
DAV:  11    -0.796505256477E+03   -0.85975E-05   -0.56103E-06 17470   0.662E-03
  90 F= -.79650526E+03 E0= -.79650526E+03  d E =-.403268E-01  mag=    47.0000
       N       E                     dE             d eps       ncg     rms          rms(c)
DAV:   1    -0.796397665819E+03    0.10758E+00   -0.50474E+00 35040   0.783E+00    0.110E+00
DAV:   2    -0.796487060802E+03   -0.89395E-01   -0.96225E-01 34170   0.168E+00    0.743E-01
DAV:   3    -0.796492219498E+03   -0.51587E-02   -0.37915E-02 39050   0.416E-01    0.435E-01
DAV:   4    -0.796491600717E+03    0.61878E-03   -0.32750E-03 44780   0.138E-01    0.293E-01
DAV:   5    -0.796491468817E+03    0.13190E-03   -0.23895E-03 38240   0.122E-01    0.123E-01
DAV:   6    -0.796491494510E+03   -0.25693E-04   -0.34727E-04 39030   0.656E-02    0.817E-02
DAV:   7    -0.796491521613E+03   -0.27103E-04   -0.22410E-04 42330   0.346E-02    0.525E-02
DAV:   8    -0.796491551531E+03   -0.29918E-04   -0.26640E-05 27810   0.176E-02    0.414E-02
DAV:   9    -0.796491584688E+03   -0.33158E-04   -0.27486E-05 26800   0.134E-02    0.323E-02
DAV:  10    -0.796491608764E+03   -0.24076E-04   -0.18662E-05 25380   0.107E-02    0.284E-02
DAV:  11    -0.796491629565E+03   -0.20801E-04   -0.13843E-05 23030   0.981E-03    0.248E-02
DAV:  12    -0.796491661723E+03   -0.32158E-04   -0.31739E-05 29970   0.189E-02    0.192E-02
DAV:  13    -0.796491684270E+03   -0.22547E-04   -0.83796E-05 34040   0.189E-02    0.145E-02
DAV:  14    -0.796491697282E+03   -0.13012E-04   -0.30404E-05 24630   0.111E-02    0.108E-02
DAV:  15    -0.796491702580E+03   -0.52984E-05   -0.84560E-06 20180   0.565E-03
  91 F= -.79649170E+03 E0= -.79649170E+03  d E =0.135539E-01  mag=    47.0000
       N       E                     dE             d eps       ncg     rms          rms(c)
DAV:   1    -0.796455446462E+03    0.36251E-01   -0.27292E+00 34690   0.577E+00    0.795E-01
DAV:   2    -0.796504578729E+03   -0.49132E-01   -0.52850E-01 34190   0.126E+00    0.566E-01
DAV:   3    -0.796507307593E+03   -0.27289E-02   -0.20767E-02 39140   0.309E-01    0.327E-01
DAV:   4    -0.796506943465E+03    0.36413E-03   -0.18134E-03 43840   0.106E-01    0.235E-01
DAV:   5    -0.796506840520E+03    0.10294E-03   -0.14551E-03 38010   0.944E-02    0.918E-02
DAV:   6    -0.796506846965E+03   -0.64452E-05   -0.21163E-04 39550   0.509E-02    0.609E-02
DAV:   7    -0.796506855140E+03   -0.81744E-05   -0.14027E-04 41360   0.258E-02    0.340E-02
DAV:   8    -0.796506862586E+03   -0.74467E-05   -0.10972E-05 20320   0.122E-02
  92 F= -.79650686E+03 E0= -.79650686E+03  d E =-.151600E-01  mag=    47.0000
       N       E                     dE             d eps       ncg     rms          rms(c)
DAV:   1    -0.796507659230E+03   -0.80409E-03   -0.62359E-03 34480   0.224E-01    0.309E-02
DAV:   2    -0.796507712993E+03   -0.53763E-04   -0.54752E-04 33460   0.452E-02    0.228E-02
DAV:   3    -0.796507717814E+03   -0.48217E-05   -0.20224E-05 25480   0.113E-02    0.170E-02
DAV:   4    -0.796507719630E+03   -0.18156E-05   -0.28665E-06 16930   0.537E-03
  93 F= -.79650772E+03 E0= -.79650772E+03  d E =-.857043E-03  mag=    47.0000
       N       E                     dE             d eps       ncg     rms          rms(c)
DAV:   1    -0.796496539655E+03    0.11178E-01   -0.23266E+00 34270   0.426E+00    0.496E-01
DAV:   2    -0.796515956153E+03   -0.19416E-01   -0.20896E-01 33650   0.868E-01    0.378E-01
DAV:   3    -0.796516915356E+03   -0.95920E-03   -0.77145E-03 39670   0.207E-01    0.215E-01
DAV:   4    -0.796516754946E+03    0.16041E-03   -0.69353E-04 44840   0.740E-02    0.158E-01
DAV:   5    -0.796516712073E+03    0.42873E-04   -0.62404E-04 38480   0.642E-02    0.671E-02
[...]
DAV:   2    -0.796459096944E+03   -0.97139E+00   -0.10485E+01 33660   0.584E+00    0.274E+00
DAV:   3    -0.796512804493E+03   -0.53708E-01   -0.41600E-01 41180   0.153E+00    0.148E+00
DAV:   4    -0.796505768414E+03    0.70361E-02   -0.40977E-02 41520   0.579E-01    0.111E+00
DAV:   5    -0.796502283749E+03    0.34847E-02   -0.31061E-02 37720   0.435E-01    0.412E-01
DAV:   6    -0.796502800449E+03   -0.51670E-03   -0.45863E-03 37020   0.232E-01    0.251E-01
DAV:   7    -0.796502963232E+03   -0.16278E-03   -0.27813E-03 39250   0.114E-01    0.143E-01
DAV:   8    -0.796503060302E+03   -0.97070E-04   -0.26083E-04 39640   0.506E-02    0.949E-02
DAV:   9    -0.796503159861E+03   -0.99559E-04   -0.16405E-04 40060   0.391E-02    0.671E-02
DAV:  10    -0.796503224524E+03   -0.64663E-04   -0.69482E-05 34070   0.236E-02    0.518E-02
DAV:  11    -0.796503275189E+03   -0.50665E-04   -0.34677E-05 26540   0.169E-02    0.458E-02
DAV:  12    -0.796503348597E+03   -0.73408E-04   -0.54193E-05 34880   0.203E-02    0.377E-02
DAV:  13    -0.796503421298E+03   -0.72701E-04   -0.98364E-05 36380   0.274E-02    0.310E-02
DAV:  14    -0.796503465803E+03   -0.44504E-04   -0.91198E-05 35280   0.232E-02    0.244E-02
DAV:  15    -0.796503489838E+03   -0.24035E-04   -0.47838E-05 27240   0.161E-02    0.169E-02
DAV:  16    -0.796503502124E+03   -0.12286E-04   -0.25239E-05 25110   0.104E-02    0.121E-02
DAV:  17    -0.796503508126E+03   -0.60017E-05   -0.94888E-06 20110   0.666E-03
 185 F= -.79650351E+03 E0= -.79650351E+03  d E =-.129750E+00  mag=    47.0000
       N       E                     dE             d eps       ncg     rms          rms(c)
DAV:   1    -0.796470273364E+03    0.33229E-01   -0.31536E+00 35010   0.639E+00    0.844E-01
DAV:   2    -0.796520718294E+03   -0.50445E-01   -0.54630E-01 33850   0.132E+00    0.576E-01
DAV:   3    -0.796523713474E+03   -0.29952E-02   -0.21959E-02 39660   0.336E-01    0.334E-01
DAV:   4    -0.796523340250E+03    0.37322E-03   -0.19829E-03 43330   0.122E-01    0.232E-01
DAV:   5    -0.796523181953E+03    0.15830E-03   -0.15307E-03 37600   0.101E-01    0.934E-02
DAV:   6    -0.796523196249E+03   -0.14296E-04   -0.24718E-04 38610   0.567E-02    0.526E-02
DAV:   7    -0.796523203591E+03   -0.73421E-05   -0.13309E-04 40150   0.259E-02    0.312E-02
DAV:   8    -0.796523207705E+03   -0.41141E-05   -0.11712E-05 20310   0.112E-02
 186 F= -.79652321E+03 E0= -.79652321E+03  d E =-.196996E-01  mag=    47.0000
       N       E                     dE             d eps       ncg     rms          rms(c)
DAV:   1    -0.796515859475E+03    0.73441E-02   -0.64783E-01 34760   0.278E+00    0.366E-01
DAV:   2    -0.796525430095E+03   -0.95706E-02   -0.10360E-01 33690   0.576E-01    0.257E-01
DAV:   3    -0.796525984805E+03   -0.55471E-03   -0.41922E-03 39690   0.148E-01    0.147E-01
DAV:   4    -0.796525912902E+03    0.71903E-04   -0.38947E-04 43560   0.550E-02    0.104E-01
DAV:   5    -0.796525885203E+03    0.27699E-04   -0.30349E-04 37520   0.447E-02    0.431E-02
DAV:   6    -0.796525891467E+03   -0.62634E-05   -0.52980E-05 34520   0.254E-02
 187 F= -.79652589E+03 E0= -.79652589E+03  d E =-.268376E-02  mag=    47.0000
       N       E                     dE             d eps       ncg     rms          rms(c)
DAV:   1    -0.796417688714E+03    0.10820E+00   -0.78278E+00 34700   0.907E+00    0.115E+00
DAV:   2    -0.796515272662E+03   -0.97584E-01   -0.10467E+00 33460   0.187E+00    0.805E-01
DAV:   3    -0.796520454815E+03   -0.51822E-02   -0.39445E-02 39460   0.462E-01    0.462E-01
DAV:   4    -0.796519732687E+03    0.72213E-03   -0.36581E-03 43790   0.173E-01    0.327E-01
DAV:   5    -0.796519437354E+03    0.29533E-03   -0.28826E-03 37580   0.140E-01    0.132E-01
DAV:   6    -0.796519513709E+03   -0.76356E-04   -0.57599E-04 38630   0.792E-02    0.826E-02
DAV:   7    -0.796519546778E+03   -0.33069E-04   -0.24808E-04 38940   0.351E-02    0.548E-02
DAV:   8    -0.796519576279E+03   -0.29501E-04   -0.30517E-05 27760   0.175E-02    0.428E-02
DAV:   9    -0.796519611036E+03   -0.34757E-04   -0.31464E-05 27730   0.158E-02    0.344E-02
DAV:  10    -0.796519635037E+03   -0.24001E-04   -0.22164E-05 25860   0.121E-02    0.290E-02
DAV:  11    -0.796519655799E+03   -0.20762E-04   -0.13552E-05 22570   0.103E-02    0.254E-02
DAV:  12    -0.796519686243E+03   -0.30444E-04   -0.34070E-05 29630   0.171E-02    0.188E-02
DAV:  13    -0.796519708672E+03   -0.22430E-04   -0.69320E-05 34220   0.196E-02    0.140E-02
DAV:  14    -0.796519719696E+03   -0.11024E-04   -0.32003E-05 24140   0.117E-02    0.106E-02
DAV:  15    -0.796519723575E+03   -0.38787E-05   -0.82661E-06 19750   0.573E-03
 188 F= -.79651972E+03 E0= -.79651972E+03  d E =0.616789E-02  mag=    47.0000
       N       E                     dE             d eps       ncg     rms          rms(c)
DAV:   1    -0.795075335371E+03    0.14444E+01   -0.79403E+01 34460   0.319E+01    0.445E+00
DAV:   2    -0.796343297950E+03   -0.12680E+01   -0.13684E+01 33680   0.673E+00    0.316E+00
DAV:   3    -0.796414239535E+03   -0.70942E-01   -0.56920E-01 41200   0.180E+00    0.171E+00
DAV:   4    -0.796404652108E+03    0.95874E-02   -0.54335E-02 41920   0.673E-01    0.123E+00
DAV:   5    -0.796399939330E+03    0.47128E-02   -0.39725E-02 37840   0.483E-01    0.475E-01
DAV:   6    -0.796400738889E+03   -0.79956E-03   -0.57228E-03 36320   0.257E-01    0.274E-01
DAV:   7    -0.796400966864E+03   -0.22798E-03   -0.33279E-03 40020   0.127E-01    0.164E-01
DAV:   8    -0.796401102369E+03   -0.13551E-03   -0.34805E-04 39820   0.593E-02    0.111E-01
DAV:   9    -0.796401244933E+03   -0.14256E-03   -0.21884E-04 40180   0.457E-02    0.788E-02
DAV:  10    -0.796401337872E+03   -0.92939E-04   -0.10032E-04 36260   0.274E-02    0.610E-02
DAV:  11    -0.796401410975E+03   -0.73103E-04   -0.46728E-05 29470   0.196E-02    0.547E-02
DAV:  12    -0.796401513067E+03   -0.10209E-03   -0.72585E-05 36260   0.232E-02    0.458E-02
DAV:  13    -0.796401622598E+03   -0.10953E-03   -0.13246E-04 37110   0.337E-02    0.377E-02
DAV:  14    -0.796401694013E+03   -0.71415E-04   -0.15119E-04 36790   0.305E-02    0.297E-02
DAV:  15    -0.796401733217E+03   -0.39204E-04   -0.73342E-05 31570   0.197E-02    0.218E-02
DAV:  16    -0.796401753463E+03   -0.20246E-04   -0.37888E-05 24670   0.129E-02    0.155E-02
DAV:  17    -0.796401764140E+03   -0.10677E-04   -0.16026E-05 23130   0.872E-03    0.122E-02
DAV:  18    -0.796401770076E+03   -0.59361E-05   -0.82357E-06 19600   0.685E-03
 189 F= -.79640177E+03 E0= -.79640177E+03  d E =0.117953E+00  mag=    47.0000
       N       E                     dE             d eps       ncg     rms          rms(c)
DAV:   1    -0.796266913829E+03    0.13485E+00   -0.17494E+01 34690   0.149E+01    0.197E+00
DAV:   2    -0.796542228978E+03   -0.27532E+00   -0.29858E+00 33770   0.308E+00    0.138E+00
DAV:   3    -0.796558455207E+03   -0.16226E-01   -0.11792E-01 39070   0.769E-01    0.805E-01
DAV:   4    -0.796556435197E+03    0.20200E-02   -0.10581E-02 44150   0.283E-01    0.574E-01
DAV:   5    -0.796555571042E+03    0.86415E-03   -0.83512E-03 37720   0.238E-01    0.228E-01
DAV:   6    -0.796555679616E+03   -0.10857E-03   -0.13897E-03 38860   0.134E-01    0.128E-01
DAV:   7    -0.796555726548E+03   -0.46932E-04   -0.77635E-04 39940   0.624E-02    0.772E-02
DAV:   8    -0.796555758972E+03   -0.32424E-04   -0.81598E-05 35520   0.273E-02    0.531E-02
DAV:   9    -0.796555796021E+03   -0.37048E-04   -0.45726E-05 34170   0.194E-02    0.387E-02
DAV:  10    -0.796555821452E+03   -0.25432E-04   -0.23831E-05 25210   0.140E-02    0.320E-02
DAV:  11    -0.796555841973E+03   -0.20520E-04   -0.13584E-05 21870   0.106E-02    0.279E-02
DAV:  12    -0.796555869585E+03   -0.27612E-04   -0.19229E-05 27160   0.129E-02    0.231E-02
DAV:  13    -0.796555898448E+03   -0.28863E-04   -0.57206E-05 33790   0.189E-02    0.176E-02
DAV:  14    -0.796555915344E+03   -0.16896E-04   -0.42577E-05 26030   0.139E-02    0.136E-02
DAV:  15    -0.796555923502E+03   -0.81586E-05   -0.14546E-05 22820   0.852E-03
 190 F= -.79655592E+03 E0= -.79655592E+03  d E =-.154153E+00  mag=    47.0000
       N       E                     dE             d eps       ncg     rms          rms(c)
DAV:   1    -0.796459206006E+03    0.96709E-01   -0.69469E+00 34840   0.938E+00    0.124E+00
DAV:   2    -0.796569137591E+03   -0.10993E+00   -0.11904E+00 33830   0.194E+00    0.850E-01
DAV:   3    -0.796575582437E+03   -0.64448E-02   -0.47760E-02 39530   0.493E-01    0.493E-01
DAV:   4    -0.796574758637E+03    0.82380E-03   -0.42714E-03 43310   0.180E-01    0.343E-01
DAV:   5    -0.796574407754E+03    0.35088E-03   -0.33084E-03 37630   0.148E-01    0.139E-01
DAV:   6    -0.796574445632E+03   -0.37879E-04   -0.54911E-04 38830   0.844E-02    0.787E-02
DAV:   7    -0.796574465283E+03   -0.19651E-04   -0.28859E-04 40100   0.379E-02    0.484E-02
DAV:   8    -0.796574478410E+03   -0.13127E-04   -0.29113E-05 28530   0.167E-02    0.346E-02
DAV:   9    -0.796574493564E+03   -0.15155E-04   -0.18931E-05 22770   0.124E-02    0.256E-02
DAV:  10    -0.796574503758E+03   -0.10194E-04   -0.12195E-05 19850   0.911E-03    0.203E-02
DAV:  11    -0.796574511957E+03   -0.81991E-05   -0.60070E-06 17430   0.675E-03
 191 F= -.79657451E+03 E0= -.79657451E+03  d E =-.185885E-01  mag=    47.0000
       N       E                     dE             d eps       ncg     rms          rms(c)
DAV:   1    -0.796561982160E+03    0.12522E-01   -0.68120E-01 35100   0.281E+00    0.365E-01
DAV:   2    -0.796571523181E+03   -0.95410E-02   -0.10305E-01 33690   0.579E-01    0.262E-01
DAV:   3    -0.796572064811E+03   -0.54163E-03   -0.41103E-03 39800   0.148E-01    0.148E-01
DAV:   4    -0.796571993077E+03    0.71734E-04   -0.39232E-04 43680   0.554E-02    0.107E-01
DAV:   5    -0.796571967476E+03    0.25602E-04   -0.30686E-04 37680   0.454E-02    0.438E-02
DAV:   6    -0.796571975077E+03   -0.76013E-05   -0.56432E-05 35060   0.255E-02
 192 F= -.79657198E+03 E0= -.79657198E+03  d E =0.253688E-02  mag=    47.0000
       N       E                     dE             d eps       ncg     rms          rms(c)
DAV:   1    -0.795903940793E+03    0.66803E+00   -0.34769E+01 34480   0.214E+01    0.292E+00
DAV:   2    -0.796478706328E+03   -0.57477E+00   -0.62021E+00 33720   0.445E+00    0.202E+00
DAV:   3    -0.796512446910E+03   -0.33741E-01   -0.25429E-01 40800   0.117E+00    0.113E+00
DAV:   4    -0.796508367657E+03    0.40793E-02   -0.23873E-02 41900   0.438E-01    0.785E-01
DAV:   5    -0.796506492151E+03    0.18755E-02   -0.17129E-02 37710   0.328E-01    0.311E-01
DAV:   6    -0.796506790986E+03   -0.29884E-03   -0.25899E-03 36760   0.177E-01    0.179E-01
DAV:   7    -0.796506882551E+03   -0.91564E-04   -0.14260E-03 39790   0.835E-02    0.106E-01
DAV:   8    -0.796506942741E+03   -0.60190E-04   -0.15671E-04 38140   0.375E-02    0.734E-02
DAV:   9    -0.796507004131E+03   -0.61390E-04   -0.84947E-05 37980   0.275E-02    0.500E-02
DAV:  10    -0.796507041770E+03   -0.37639E-04   -0.39754E-05 29040   0.181E-02    0.402E-02
DAV:  11    -0.796507071430E+03   -0.29660E-04   -0.20106E-05 22460   0.132E-02    0.355E-02
DAV:  12    -0.796507112033E+03   -0.40603E-04   -0.27745E-05 29610   0.147E-02    0.299E-02
DAV:  13    -0.796507160990E+03   -0.48957E-04   -0.73487E-05 35860   0.250E-02    0.228E-02
DAV:  14    -0.796507189013E+03   -0.28023E-04   -0.72248E-05 29440   0.177E-02    0.190E-02
DAV:  15    -0.796507203134E+03   -0.14121E-04   -0.20594E-05 23730   0.117E-02    0.135E-02
DAV:  16    -0.796507211215E+03   -0.80805E-05   -0.18341E-05 22970   0.877E-03
 193 F= -.79650721E+03 E0= -.79650721E+03  d E =0.647639E-01  mag=    47.0000
       N       E                     dE             d eps       ncg     rms          rms(c)
DAV:   1    -0.795940753280E+03    0.56645E+00   -0.38191E+01 34450   0.220E+01    0.296E+00
DAV:   2    -0.796557241905E+03   -0.61649E+00   -0.66743E+00 33650   0.460E+00    0.203E+00
DAV:   3    -0.796592951806E+03   -0.35710E-01   -0.26243E-01 39030   0.114E+00    0.117E+00
DAV:   4    -0.796588425249E+03    0.45266E-02   -0.23252E-02 43840   0.420E-01    0.840E-01
DAV:   5    -0.796586399312E+03    0.20259E-02   -0.17641E-02 37530   0.342E-01    0.332E-01
DAV:   6    -0.796586669719E+03   -0.27041E-03   -0.30060E-03 38970   0.195E-01    0.190E-01
DAV:   7    -0.796586777987E+03   -0.10827E-03   -0.16261E-03 40350   0.905E-02    0.112E-01
DAV:   8    -0.796586847369E+03   -0.69382E-04   -0.17519E-04 37940   0.387E-02    0.777E-02
DAV:   9    -0.796586924246E+03   -0.76877E-04   -0.97509E-05 38230   0.275E-02    0.546E-02
DAV:  10    -0.796586976386E+03   -0.52140E-04   -0.48329E-05 31210   0.194E-02    0.453E-02
DAV:  11    -0.796587015199E+03   -0.38812E-04   -0.26985E-05 26030   0.149E-02    0.395E-02
DAV:  12    -0.796587071377E+03   -0.56179E-04   -0.42568E-05 32240   0.186E-02    0.318E-02
DAV:  13    -0.796587127240E+03   -0.55862E-04   -0.99429E-05 36780   0.272E-02    0.242E-02
DAV:  14    -0.796587157948E+03   -0.30709E-04   -0.75914E-05 33150   0.195E-02    0.198E-02
DAV:  15    -0.796587172314E+03   -0.14365E-04   -0.27012E-05 22590   0.115E-02    0.131E-02
DAV:  16    -0.796587178746E+03   -0.64322E-05   -0.12194E-05 19910   0.734E-03
 194 F= -.79658718E+03 E0= -.79658718E+03  d E =-.799675E-01  mag=    47.0000
       N       E                     dE             d eps       ncg     rms          rms(c)
DAV:   1    -0.796591686955E+03   -0.45146E-02   -0.24213E-01 35120   0.179E+00    0.237E-01
DAV:   2    -0.796595762797E+03   -0.40758E-02   -0.43908E-02 33670   0.371E-01    0.165E-01
DAV:   3    -0.796596003228E+03   -0.24043E-03   -0.17505E-03 40230   0.954E-02    0.928E-02
DAV:   4    -0.796595976671E+03    0.26557E-04   -0.15876E-04 43360   0.350E-02    0.655E-02
DAV:   5    -0.796595965600E+03    0.11070E-04   -0.11625E-04 37040   0.278E-02    0.257E-02
DAV:   6    -0.796595967345E+03   -0.17446E-05   -0.17279E-05 25420   0.152E-02
 195 F= -.79659597E+03 E0= -.79659597E+03  d E =-.878860E-02  mag=    47.0000
       N       E                     dE             d eps       ncg     rms          rms(c)
DAV:   1    -0.796273647854E+03    0.32232E+00   -0.17378E+01 34700   0.150E+01    0.203E+00
DAV:   2    -0.796561366418E+03   -0.28772E+00   -0.31055E+00 33780   0.313E+00    0.142E+00
DAV:   3    -0.796578149828E+03   -0.16783E-01   -0.12722E-01 40800   0.821E-01    0.799E-01
DAV:   4    -0.796576105030E+03    0.20448E-02   -0.11760E-02 42830   0.306E-01    0.560E-01
DAV:   5    -0.796575175985E+03    0.92905E-03   -0.88550E-03 37940   0.238E-01    0.221E-01
DAV:   6    -0.796575316232E+03   -0.14025E-03   -0.13720E-03 37130   0.129E-01    0.130E-01
DAV:   7    -0.796575364477E+03   -0.48246E-04   -0.75313E-04 39430   0.601E-02    0.768E-02
DAV:   8    -0.796575400551E+03   -0.36074E-04   -0.81490E-05 34870   0.268E-02    0.545E-02
DAV:   9    -0.796575438170E+03   -0.37619E-04   -0.44764E-05 33850   0.199E-02    0.385E-02
DAV:  10    -0.796575461494E+03   -0.23324E-04   -0.24471E-05 24190   0.139E-02    0.313E-02
DAV:  11    -0.796575480725E+03   -0.19231E-04   -0.13003E-05 20350   0.105E-02    0.276E-02
DAV:  12    -0.796575506570E+03   -0.25845E-04   -0.17815E-05 26460   0.123E-02    0.230E-02
DAV:  13    -0.796575535348E+03   -0.28778E-04   -0.53068E-05 32520   0.190E-02    0.177E-02
DAV:  14    -0.796575551642E+03   -0.16294E-04   -0.39965E-05 25230   0.134E-02    0.142E-02
DAV:  15    -0.796575559605E+03   -0.79631E-05   -0.12179E-05 21500   0.938E-03
 196 F= -.79657556E+03 E0= -.79657556E+03  d E =0.204077E-01  mag=    47.0000
       N       E                     dE             d eps       ncg     rms          rms(c)
DAV:   1    -0.795900755720E+03    0.67480E+00   -0.40110E+01 34840   0.224E+01    0.303E+00
DAV:   2    -0.796533771733E+03   -0.63302E+00   -0.68699E+00 33650   0.468E+00    0.204E+00
DAV:   3    -0.796570593018E+03   -0.36821E-01   -0.27272E-01 38970   0.116E+00    0.118E+00
DAV:   4    -0.796565799875E+03    0.47931E-02   -0.24456E-02 43920   0.428E-01    0.835E-01
DAV:   5    -0.796563661001E+03    0.21389E-02   -0.17786E-02 37480   0.345E-01    0.331E-01
DAV:   6    -0.796563925622E+03   -0.26462E-03   -0.30826E-03 38930   0.197E-01    0.189E-01
DAV:   7    -0.796564038114E+03   -0.11249E-03   -0.16086E-03 40510   0.898E-02    0.113E-01
DAV:   8    -0.796564105122E+03   -0.67007E-04   -0.17733E-04 37410   0.388E-02    0.777E-02
DAV:   9    -0.796564180231E+03   -0.75110E-04   -0.99017E-05 38170   0.273E-02    0.540E-02
DAV:  10    -0.796564230119E+03   -0.49887E-04   -0.47594E-05 30600   0.194E-02    0.445E-02
DAV:  11    -0.796564266214E+03   -0.36096E-04   -0.26332E-05 25660   0.147E-02    0.388E-02
DAV:  12    -0.796564318105E+03   -0.51891E-04   -0.38626E-05 31520   0.175E-02    0.314E-02
DAV:  13    -0.796564371246E+03   -0.53141E-04   -0.87976E-05 36380   0.258E-02    0.237E-02
DAV:  14    -0.796564400797E+03   -0.29551E-04   -0.75048E-05 32980   0.194E-02    0.196E-02
DAV:  15    -0.796564414743E+03   -0.13946E-04   -0.26916E-05 22860   0.113E-02    0.131E-02
DAV:  16    -0.796564420901E+03   -0.61576E-05   -0.11630E-05 19720   0.737E-03
 197 F= -.79656442E+03 E0= -.79656442E+03  d E =0.111387E-01  mag=    47.0000
       N       E                     dE             d eps       ncg     rms          rms(c)
DAV:   1    -0.796392250361E+03    0.17216E+00   -0.13263E+01 34450   0.130E+01    0.176E+00
DAV:   2    -0.796611290598E+03   -0.21904E+00   -0.23695E+00 33770   0.273E+00    0.126E+00
DAV:   3    -0.796623738276E+03   -0.12448E-01   -0.95143E-02 41070   0.716E-01    0.696E-01
DAV:   4    -0.796622142748E+03    0.15955E-02   -0.91314E-03 42780   0.269E-01    0.506E-01
DAV:   5    -0.796621382768E+03    0.75998E-03   -0.68892E-03 37300   0.210E-01    0.191E-01
DAV:   6    -0.796621488423E+03   -0.10566E-03   -0.10875E-03 37570   0.113E-01    0.115E-01
DAV:   7    -0.796621523154E+03   -0.34731E-04   -0.59354E-04 38800   0.520E-02    0.657E-02
DAV:   8    -0.796621545657E+03   -0.22503E-04   -0.58071E-05 33960   0.232E-02    0.454E-02
DAV:   9    -0.796621568658E+03   -0.23000E-04   -0.32295E-05 29620   0.175E-02    0.323E-02
DAV:  10    -0.796621583020E+03   -0.14363E-04   -0.17844E-05 21760   0.118E-02    0.251E-02
DAV:  11    -0.796621593793E+03   -0.10773E-04   -0.83604E-06 18700   0.788E-03    0.217E-02
DAV:  12    -0.796621608663E+03   -0.14869E-04   -0.10010E-05 21040   0.902E-03    0.182E-02
DAV:  13    -0.796621624846E+03   -0.16183E-04   -0.25624E-05 28440   0.127E-02    0.145E-02
DAV:  14    -0.796621634805E+03   -0.99585E-05   -0.23403E-05 25610   0.109E-02
 198 F= -.79662163E+03 E0= -.79662163E+03  d E =-.572139E-01  mag=    47.0000
       N       E                     dE             d eps       ncg     rms          rms(c)
DAV:   1    -0.796619765878E+03    0.18590E-02   -0.31489E-01 34370   0.169E+00    0.204E-01
DAV:   2    -0.796622827012E+03   -0.30611E-02   -0.32967E-02 33820   0.340E-01    0.158E-01
DAV:   3    -0.796622976341E+03   -0.14933E-03   -0.12296E-03 39710   0.857E-02    0.856E-02
DAV:   4    -0.796622949150E+03    0.27191E-04   -0.12524E-04 42930   0.332E-02    0.664E-02
DAV:   5    -0.796622937280E+03    0.11870E-04   -0.10896E-04 37750   0.260E-02    0.237E-02
DAV:   6    -0.796622939061E+03   -0.17812E-05   -0.17957E-05 25110   0.137E-02
 199 F= -.79662294E+03 E0= -.79662294E+03  d E =-.130426E-02  mag=    47.0000
       N       E                     dE             d eps       ncg     rms          rms(c)
DAV:   1    -0.796619872736E+03    0.30645E-02   -0.26318E-01 35270   0.183E+00    0.235E-01
DAV:   2    -0.796623736871E+03   -0.38641E-02   -0.41421E-02 33610   0.365E-01    0.154E-01
DAV:   3    -0.796623979082E+03   -0.24221E-03   -0.15841E-03 39940   0.922E-02    0.879E-02
DAV:   4    -0.796623958379E+03    0.20703E-04   -0.13948E-04 42990   0.333E-02    0.602E-02
DAV:   5    -0.796623953135E+03    0.52446E-05   -0.95543E-05 36350   0.258E-02
 200 F= -.79662395E+03 E0= -.79662395E+03  d E =-.101407E-02  mag=    47.0000
