       N       E                     dE             d eps       ncg     rms          ort
DAV:   1     0.430219440558E+04    0.43022E+04   -0.16602E+05  1704   0.167E+03
DAV:   2     0.138276213557E+03   -0.41639E+04   -0.40558E+04  1704   0.486E+02
DAV:   3    -0.692343899605E+03   -0.83062E+03   -0.79740E+03  1704   0.180E+02
DAV:   4    -0.759312009598E+03   -0.66968E+02   -0.66520E+02  1704   0.536E+01
DAV:   5    -0.760852483500E+03   -0.15405E+01   -0.15366E+01  1704   0.974E+00
SDA:   6    -0.441684679905E+03    0.31917E+03   -0.15366E+01  1704   0.940E+03 0.000E+00
CGA:   7    -0.573654959750E+03   -0.13197E+03   -0.12776E+03  1704   0.125E+03-0.309E+01
CGA:   8    -0.596803653645E+03   -0.23149E+02   -0.23110E+02  1704   0.533E+02-0.152E+01
CGA:   9    -0.607773762544E+03   -0.10970E+02   -0.10969E+02  1704   0.213E+02 0.133E+00
CGA:  10    -0.612264043823E+03   -0.44903E+01   -0.44899E+01  1704   0.687E+01 0.460E-01
CGA:  11    -0.613551901081E+03   -0.12879E+01   -0.12875E+01  1704   0.212E+01-0.335E-01
CGA:  12    -0.614037429595E+03   -0.48553E+00   -0.48617E+00  1704   0.908E+00-0.188E-01
CGA:  13    -0.614274661667E+03   -0.23723E+00   -0.23966E+00  1704   0.405E+00-0.349E-01
CGA:  14    -0.614382182013E+03   -0.10752E+00   -0.10913E+00  1704   0.203E+00-0.203E-01
CGA:  15    -0.614435767280E+03   -0.53585E-01   -0.53580E-01  1704   0.105E+00-0.333E-03
CGA:  16    -0.614464510587E+03   -0.28743E-01   -0.29065E-01  1704   0.414E-01-0.476E-02
CGA:  17    -0.614476626164E+03   -0.12116E-01   -0.12462E-01  1704   0.197E-01-0.336E-02
CGA:  18    -0.614481068328E+03   -0.44422E-02   -0.44814E-02  1704   0.118E-01-0.132E-02
CGA:  19    -0.614484058718E+03   -0.29904E-02   -0.31542E-02  1704   0.787E-02-0.247E-02
CGA:  20    -0.614485771911E+03   -0.17132E-02   -0.17767E-02  1704   0.455E-02-0.103E-02
CGA:  21    -0.614486672063E+03   -0.90015E-03   -0.89948E-03  1704   0.191E-02 0.426E-03
CGA:  22    -0.614487203390E+03   -0.53133E-03   -0.52240E-03  1704   0.691E-03 0.379E-03
CGA:  23    -0.614487391625E+03   -0.18824E-03   -0.18821E-03  1704   0.375E-03 0.187E-03
CGA:  24    -0.614487472121E+03   -0.80496E-04   -0.87848E-04  1704   0.179E-03 0.172E-03
CGA:  25    -0.614487513948E+03   -0.41827E-04   -0.47332E-04  1704   0.976E-04 0.125E-03
CGA:  26    -0.614487538618E+03   -0.24670E-04   -0.23908E-04  1704   0.662E-04 0.346E-04
CGA:  27    -0.614487540569E+03   -0.19513E-05   -0.93306E-05  1704   0.339E-04 0.615E-04
   1 F= -.61448754E+03 E0= -.61448582E+03  d E =-.614488E+03  mag=     0.0016
       N       E                     dE             d eps       ncg     rms          ort
SDA:   1    -0.614486023849E+03    0.15148E-02    0.00000E+00  1704   0.960E-02 0.000E+00
CGA:   2    -0.614487060619E+03   -0.10368E-02   -0.10747E-02  1704   0.168E-02 0.364E-03
CGA:   3    -0.614487367445E+03   -0.30683E-03   -0.31620E-03  1704   0.471E-03 0.385E-03
CGA:   4    -0.614487456063E+03   -0.88618E-04   -0.96217E-04  1704   0.186E-03 0.198E-03
CGA:   5    -0.614487488896E+03   -0.32832E-04   -0.38525E-04  1704   0.558E-04 0.101E-03
CGA:   6    -0.614487514527E+03   -0.25631E-04    0.36804E-04  1704   0.289E-04 0.261E-04
CGA:   7    -0.614487532862E+03   -0.18335E-04    0.51490E-04  1704   0.148E-04 0.231E-04
CGA:   8    -0.614487531779E+03    0.10827E-05   -0.80503E-06  1704   0.123E-04 0.130E-04
   2 F= -.61448753E+03 E0= -.61448581E+03  d E =0.879026E-05  mag=     0.0007
