       N       E                     dE             d eps       ncg     rms          rms(c)
DAV:   1     0.112416453847E+05    0.11242E+05   -0.43024E+05 34720   0.160E+03
DAV:   2     0.248357073510E+02   -0.11217E+05   -0.10203E+05 34180   0.487E+02
DAV:   3    -0.160875403975E+04   -0.16336E+04   -0.15484E+04 36440   0.198E+02
DAV:   4    -0.169251452608E+04   -0.83760E+02   -0.82548E+02 39190   0.456E+01
DAV:   5    -0.169358472502E+04   -0.10702E+01   -0.10669E+01 37490   0.557E+00    0.146E+02
DAV:   6    -0.128367309532E+04    0.40991E+03   -0.81041E+02 40800   0.760E+01    0.119E+02
DAV:   7    -0.133388171072E+04   -0.50209E+02   -0.35460E+02 37030   0.649E+01    0.871E+01
DAV:   8    -0.130869927539E+04    0.25182E+02   -0.49358E+01 38820   0.228E+01    0.685E+01
DAV:   9    -0.131638314514E+04   -0.76839E+01   -0.55273E+01 37050   0.312E+01    0.642E+01
DAV:  10    -0.132123479888E+04   -0.48517E+01   -0.35697E+01 38230   0.169E+01    0.422E+01
DAV:  11    -0.131951618414E+04    0.17186E+01   -0.89600E+00 36720   0.106E+01    0.245E+01
DAV:  12    -0.131955983912E+04   -0.43655E-01   -0.66657E+00 41200   0.653E+00    0.203E+01
DAV:  13    -0.132189677383E+04   -0.23369E+01   -0.99971E+00 36580   0.418E+00    0.208E+01
DAV:  14    -0.132177802887E+04    0.11874E+00   -0.60422E-01 36530   0.180E+00    0.186E+01
DAV:  15    -0.132194812834E+04   -0.17010E+00   -0.24033E-01 39970   0.720E-01    0.205E+01
DAV:  16    -0.132202585203E+04   -0.77724E-01   -0.30706E-01 35120   0.100E+00    0.235E+01
DAV:  17    -0.132291884532E+04   -0.89299E+00   -0.16744E-01 37130   0.109E+00    0.204E+01
DAV:  18    -0.132389568669E+04   -0.97684E+00   -0.21991E+00 39170   0.545E+00    0.900E+00
DAV:  19    -0.132402601529E+04   -0.13033E+00   -0.10030E+00 40180   0.226E+00    0.713E+00
DAV:  20    -0.132419203489E+04   -0.16602E+00   -0.26541E-01 39240   0.106E+00    0.466E+00
DAV:  21    -0.132421592590E+04   -0.23891E-01   -0.82480E-02 39310   0.694E-01    0.336E+00
DAV:  22    -0.132417295134E+04    0.42975E-01   -0.44316E-02 41430   0.582E-01    0.301E+00
DAV:  23    -0.132413671763E+04    0.36234E-01   -0.13338E-02 41650   0.379E-01    0.280E+00
DAV:  24    -0.132410559407E+04    0.31124E-01   -0.54048E-03 42070   0.282E-01    0.264E+00
DAV:  25    -0.132408534657E+04    0.20248E-01   -0.73800E-03 49000   0.299E-01    0.234E+00
DAV:  26    -0.132408354481E+04    0.18018E-02   -0.66918E-03 43490   0.207E-01    0.205E+00
DAV:  27    -0.132408493115E+04   -0.13863E-02   -0.30507E-03 41990   0.172E-01    0.175E+00
DAV:  28    -0.132408537887E+04   -0.44771E-03   -0.33965E-03 41870   0.212E-01    0.136E+00
DAV:  29    -0.132408431217E+04    0.10667E-02   -0.94891E-03 43220   0.393E-01    0.715E-01
DAV:  30    -0.132408596451E+04   -0.16523E-02   -0.74768E-03 41500   0.213E-01    0.384E-01
DAV:  31    -0.132408614427E+04   -0.17976E-03   -0.20293E-03 35900   0.750E-02    0.372E-01
DAV:  32    -0.132408612318E+04    0.21088E-04   -0.22524E-05 20580   0.970E-03
   1 F= -.13240861E+04 E0= -.13240861E+04  d E =-.132409E+04  mag=   114.0583
       N       E                     dE             d eps       ncg     rms          rms(c)
DAV:   1    -0.132408792788E+04   -0.17836E-02   -0.59463E-03 47820   0.390E-01    0.317E-01
DAV:   2    -0.132409036274E+04   -0.24349E-02   -0.66590E-03 37970   0.324E-01    0.416E-01
DAV:   3    -0.132408969434E+04    0.66840E-03   -0.22939E-03 36400   0.205E-01    0.123E-01
DAV:   4    -0.132408954459E+04    0.14975E-03   -0.23706E-04 32360   0.366E-02    0.758E-02
DAV:   5    -0.132408948370E+04    0.60890E-04   -0.91578E-05 24850   0.263E-02    0.497E-02
DAV:   6    -0.132408963452E+04   -0.15082E-03   -0.59767E-05 21940   0.254E-02    0.364E-02
DAV:   7    -0.132408956213E+04    0.72396E-04   -0.23891E-05 19500   0.158E-02    0.112E-02
DAV:   8    -0.132408952953E+04    0.32598E-04   -0.54771E-06 17970   0.537E-03
   2 F= -.13240895E+04 E0= -.13240895E+04  d E =-.340635E-02  mag=   114.0006
       N       E                     dE             d eps       ncg     rms          rms(c)
DAV:   1    -0.132409078591E+04   -0.12238E-02   -0.42403E-03 46590   0.328E-01    0.536E-02
DAV:   2    -0.132409086011E+04   -0.74202E-04   -0.11460E-03 36670   0.557E-02    0.292E-02
DAV:   3    -0.132409089258E+04   -0.32474E-04   -0.46885E-05 20370   0.170E-02    0.175E-02
DAV:   4    -0.132409087123E+04    0.21352E-04   -0.48741E-06 17920   0.682E-03
   3 F= -.13240909E+04 E0= -.13240909E+04  d E =-.134171E-02  mag=   114.0002
       N       E                     dE             d eps       ncg     rms          rms(c)
DAV:   1    -0.132269544104E+04    0.13955E+01   -0.48210E+01 47550   0.329E+01    0.551E+00
DAV:   2    -0.132403832067E+04   -0.13429E+01   -0.12089E+01 37660   0.569E+00    0.313E+00
DAV:   3    -0.132407561810E+04   -0.37297E-01   -0.44435E-01 37190   0.153E+00    0.169E+00
DAV:   4    -0.132407167553E+04    0.39426E-02   -0.40787E-02 39770   0.562E-01    0.115E+00
DAV:   5    -0.132406996852E+04    0.17070E-02   -0.82204E-03 40960   0.312E-01    0.836E-01
DAV:   6    -0.132406597316E+04    0.39954E-02   -0.78424E-03 42930   0.347E-01    0.357E-01
DAV:   7    -0.132406676953E+04   -0.79637E-03   -0.38265E-03 39980   0.154E-01    0.142E-01
DAV:   8    -0.132406713282E+04   -0.36329E-03   -0.61547E-04 36510   0.731E-02    0.841E-02
DAV:   9    -0.132406701472E+04    0.11809E-03   -0.84165E-05 24810   0.315E-02    0.437E-02
DAV:  10    -0.132406687870E+04    0.13602E-03   -0.37788E-05 19830   0.201E-02    0.295E-02
DAV:  11    -0.132406697518E+04   -0.96481E-04   -0.15516E-05 18810   0.107E-02    0.126E-02
DAV:  12    -0.132406699020E+04   -0.15024E-04   -0.42219E-06 18430   0.562E-03
   4 F= -.13240670E+04 E0= -.13240670E+04  d E =0.238810E-01  mag=   114.0000
       N       E                     dE             d eps       ncg     rms          rms(c)
DAV:   1    -0.132386360591E+04    0.20337E+00   -0.76634E+00 49560   0.143E+01    0.240E+00
DAV:   2    -0.132411445826E+04   -0.25085E+00   -0.21967E+00 38200   0.238E+00    0.125E+00
DAV:   3    -0.132412117264E+04   -0.67144E-02   -0.81375E-02 37440   0.651E-01    0.702E-01
DAV:   4    -0.132412156312E+04   -0.39048E-03   -0.65223E-03 38950   0.215E-01    0.446E-01
DAV:   5    -0.132412044026E+04    0.11229E-02   -0.14687E-03 41580   0.122E-01    0.316E-01
DAV:   6    -0.132412008587E+04    0.35439E-03   -0.14413E-03 43550   0.142E-01    0.137E-01
DAV:   7    -0.132411985213E+04    0.23374E-03   -0.68925E-04 39440   0.732E-02    0.717E-02
DAV:   8    -0.132411991981E+04   -0.67681E-04   -0.15078E-04 27520   0.399E-02    0.380E-02
DAV:   9    -0.132411993172E+04   -0.11901E-04   -0.23550E-05 20060   0.161E-02
   5 F= -.13241199E+04 E0= -.13241199E+04  d E =-.529415E-01  mag=   114.0000
       N       E                     dE             d eps       ncg     rms          rms(c)
DAV:   1    -0.132410079880E+04    0.19121E-01   -0.85369E-01 47670   0.419E+00    0.698E-01
DAV:   2    -0.132412191719E+04   -0.21118E-01   -0.19164E-01 37080   0.712E-01    0.334E-01
DAV:   3    -0.132412245429E+04   -0.53710E-03   -0.66632E-03 37050   0.163E-01    0.168E-01
DAV:   4    -0.132412246995E+04   -0.15664E-04   -0.41410E-04 32260   0.419E-02
   6 F= -.13241225E+04 E0= -.13241225E+04  d E =-.253824E-02  mag=   114.0000
       N       E                     dE             d eps       ncg     rms          rms(c)
DAV:   1    -0.132399126805E+04    0.13119E+00   -0.84138E+00 42550   0.104E+01    0.167E+00
DAV:   2    -0.132411748397E+04   -0.12622E+00   -0.12595E+00 36220   0.184E+00    0.843E-01
DAV:   3    -0.132411903213E+04   -0.15482E-02   -0.36316E-02 36590   0.381E-01    0.431E-01
DAV:   4    -0.132411858147E+04    0.45066E-03   -0.25045E-03 39770   0.109E-01    0.322E-01
DAV:   5    -0.132411813967E+04    0.44179E-03   -0.86971E-04 42750   0.115E-01    0.211E-01
DAV:   6    -0.132411785898E+04    0.28069E-03   -0.12067E-03 41680   0.124E-01    0.126E-01
DAV:   7    -0.132411804615E+04   -0.18716E-03   -0.41398E-04 37130   0.602E-02    0.362E-02
DAV:   8    -0.132411794435E+04    0.10180E-03   -0.34413E-05 19840   0.165E-02    0.260E-02
DAV:   9    -0.132411795667E+04   -0.12320E-04   -0.10482E-05 18290   0.104E-02
   7 F= -.13241180E+04 E0= -.13241180E+04  d E =0.451329E-02  mag=   114.0000
       N       E                     dE             d eps       ncg     rms          rms(c)
DAV:   1    -0.132108817993E+04    0.30298E+01   -0.83419E+01 49410   0.475E+01    0.815E+00
DAV:   2    -0.132378152799E+04   -0.26933E+01   -0.23600E+01 37900   0.784E+00    0.473E+00
DAV:   3    -0.132387442695E+04   -0.92899E-01   -0.81091E-01 37240   0.198E+00    0.211E+00
DAV:   4    -0.132387398011E+04    0.44684E-03   -0.56679E-02 40060   0.588E-01    0.140E+00
DAV:   5    -0.132387022064E+04    0.37595E-02   -0.17009E-02 41090   0.400E-01    0.100E+00
DAV:   6    -0.132386608089E+04    0.41398E-02   -0.15769E-02 42660   0.468E-01    0.630E-01
DAV:   7    -0.132386664428E+04   -0.56339E-03   -0.81576E-03 40500   0.291E-01    0.212E-01
DAV:   8    -0.132386695029E+04   -0.30601E-03   -0.16358E-03 37860   0.110E-01    0.109E-01
DAV:   9    -0.132386698144E+04   -0.31149E-04   -0.34976E-04 34990   0.476E-02
   8 F= -.13238670E+04 E0= -.13238670E+04  d E =0.250975E+00  mag=   114.0000
       N       E                     dE             d eps       ncg     rms          rms(c)
DAV:   1    -0.132291496539E+04    0.95198E+00   -0.30478E+01 50080   0.301E+01    0.524E+00
DAV:   2    -0.132405488811E+04   -0.11399E+01   -0.98514E+00 38680   0.492E+00    0.283E+00
DAV:   3    -0.132409555357E+04   -0.40665E-01   -0.36205E-01 37030   0.135E+00    0.143E+00
DAV:   4    -0.132409669097E+04   -0.11374E-02   -0.27587E-02 39440   0.432E-01    0.895E-01
DAV:   5    -0.132409374908E+04    0.29419E-02   -0.70632E-03 41490   0.245E-01    0.632E-01
DAV:   6    -0.132409237373E+04    0.13753E-02   -0.53495E-03 43090   0.265E-01    0.329E-01
DAV:   7    -0.132409184655E+04    0.52718E-03   -0.32581E-03 39840   0.170E-01    0.183E-01
DAV:   8    -0.132409241321E+04   -0.56666E-03   -0.94844E-04 36480   0.989E-02    0.863E-02
DAV:   9    -0.132409233876E+04    0.74453E-04   -0.15993E-04 30280   0.386E-02    0.392E-02
DAV:  10    -0.132409225815E+04    0.80614E-04   -0.42251E-05 20100   0.162E-02    0.267E-02
DAV:  11    -0.132409233193E+04   -0.73780E-04   -0.15023E-05 19130   0.127E-02    0.139E-02
DAV:  12    -0.132409232360E+04    0.83283E-05   -0.53810E-06 18490   0.566E-03
   9 F= -.13240923E+04 E0= -.13240923E+04  d E =-.225342E+00  mag=   114.0000
       N       E                     dE             d eps       ncg     rms          rms(c)
DAV:   1    -0.132403262277E+04    0.59709E-01   -0.18946E+00 49930   0.741E+00    0.127E+00
DAV:   2    -0.132410243146E+04   -0.69809E-01   -0.60293E-01 37760   0.120E+00    0.597E-01
DAV:   3    -0.132410486382E+04   -0.24324E-02   -0.23390E-02 37070   0.314E-01    0.309E-01
DAV:   4    -0.132410512764E+04   -0.26383E-03   -0.15564E-03 38950   0.856E-02    0.205E-01
DAV:   5    -0.132410483809E+04    0.28956E-03   -0.30644E-04 35410   0.534E-02    0.146E-01
DAV:   6    -0.132410485906E+04   -0.20972E-04   -0.28780E-04 37410   0.652E-02
  10 F= -.13241049E+04 E0= -.13241049E+04  d E =-.125355E-01  mag=   114.0000
       N       E                     dE             d eps       ncg     rms          rms(c)
DAV:   1    -0.132407528951E+04    0.29549E-01   -0.88722E-01 48620   0.484E+00    0.856E-01
DAV:   2    -0.132410768795E+04   -0.32398E-01   -0.28581E-01 37600   0.813E-01    0.405E-01
DAV:   3    -0.132410850084E+04   -0.81289E-03   -0.93044E-03 37220   0.199E-01    0.220E-01
DAV:   4    -0.132410858636E+04   -0.85527E-04   -0.72628E-04 36840   0.614E-02    0.154E-01
DAV:   5    -0.132410842552E+04    0.16084E-03   -0.10590E-04 24270   0.356E-02    0.118E-01
DAV:   6    -0.132410845410E+04   -0.28581E-04   -0.20420E-04 31350   0.558E-02
  11 F= -.13241085E+04 E0= -.13241085E+04  d E =-.359504E-02  mag=   114.0000
       N       E                     dE             d eps       ncg     rms          rms(c)
DAV:   1    -0.132403683511E+04    0.71590E-01   -0.25130E+00 48200   0.751E+00    0.123E+00
DAV:   2    -0.132410662518E+04   -0.69790E-01   -0.64070E-01 36870   0.127E+00    0.590E-01
DAV:   3    -0.132410825005E+04   -0.16249E-02   -0.19154E-02 37000   0.282E-01    0.287E-01
DAV:   4    -0.132410807306E+04    0.17699E-03   -0.12077E-03 38100   0.713E-02    0.217E-01
DAV:   5    -0.132410795113E+04    0.12193E-03   -0.22200E-04 31890   0.626E-02    0.143E-01
DAV:   6    -0.132410788519E+04    0.65939E-04   -0.31125E-04 38170   0.708E-02    0.601E-02
DAV:   7    -0.132410788711E+04   -0.19148E-05   -0.16722E-04 27450   0.383E-02
  12 F= -.13241079E+04 E0= -.13241079E+04  d E =0.566992E-03  mag=   114.0000
       N       E                     dE             d eps       ncg     rms          rms(c)
DAV:   1    -0.132396196129E+04    0.14592E+00   -0.68368E+00 45860   0.108E+01    0.170E+00
DAV:   2    -0.132410347742E+04   -0.14152E+00   -0.13388E+00 35960   0.184E+00    0.867E-01
DAV:   3    -0.132410654372E+04   -0.30663E-02   -0.40874E-02 37000   0.429E-01    0.469E-01
DAV:   4    -0.132410570005E+04    0.84368E-03   -0.34213E-03 39390   0.147E-01    0.325E-01
DAV:   5    -0.132410571950E+04   -0.19450E-04   -0.72248E-04 38260   0.987E-02    0.228E-01
DAV:   6    -0.132410529722E+04    0.42228E-03   -0.10139E-03 42970   0.121E-01    0.111E-01
DAV:   7    -0.132410550558E+04   -0.20835E-03   -0.51861E-04 37590   0.665E-02    0.520E-02
DAV:   8    -0.132410547641E+04    0.29165E-04   -0.55365E-05 20840   0.229E-02
  13 F= -.13241055E+04 E0= -.13241055E+04  d E =0.241070E-02  mag=   114.0000
       N       E                     dE             d eps       ncg     rms          rms(c)
DAV:   1    -0.132056348924E+04    0.35420E+01   -0.92901E+01 49490   0.509E+01    0.894E+00
DAV:   2    -0.132382733119E+04   -0.32638E+01   -0.28690E+01 37420   0.847E+00    0.565E+00
DAV:   3    -0.132393122730E+04   -0.10390E+00   -0.11238E+00 36990   0.243E+00    0.258E+00
DAV:   4    -0.132393132014E+04   -0.92836E-04   -0.10773E-01 40340   0.906E-01    0.173E+00
DAV:   5    -0.132392376127E+04    0.75589E-02   -0.24718E-02 39470   0.512E-01    0.129E+00
DAV:   6    -0.132391946903E+04    0.42922E-02   -0.12198E-02 42970   0.421E-01    0.650E-01
DAV:   7    -0.132391816119E+04    0.13078E-02   -0.61051E-03 41670   0.217E-01    0.195E-01
DAV:   8    -0.132391969209E+04   -0.15309E-02   -0.16631E-03 37450   0.896E-02    0.987E-02
DAV:   9    -0.132391954681E+04    0.14528E-03   -0.20434E-04 35330   0.367E-02    0.577E-02
DAV:  10    -0.132391939288E+04    0.15394E-03   -0.46602E-05 21080   0.178E-02    0.339E-02
DAV:  11    -0.132391949742E+04   -0.10455E-03   -0.20565E-05 19090   0.161E-02    0.192E-02
DAV:  12    -0.132391950976E+04   -0.12343E-04   -0.98667E-06 18460   0.102E-02
  14 F= -.13239195E+04 E0= -.13239195E+04  d E =0.185967E+00  mag=   114.0000
       N       E                     dE             d eps       ncg     rms          rms(c)
DAV:   1    -0.132333985142E+04    0.57965E+00   -0.24498E+01 50210   0.250E+01    0.404E+00
DAV:   2    -0.132405237975E+04   -0.71253E+00   -0.62909E+00 38070   0.415E+00    0.227E+00
DAV:   3    -0.132407806191E+04   -0.25682E-01   -0.28697E-01 37500   0.129E+00    0.144E+00
DAV:   4    -0.132407802762E+04    0.34296E-04   -0.32546E-02 38920   0.508E-01    0.747E-01
DAV:   5    -0.132407527136E+04    0.27563E-02   -0.62391E-03 38940   0.221E-01    0.539E-01
DAV:   6    -0.132407400864E+04    0.12627E-02   -0.46517E-03 41250   0.235E-01    0.223E-01
DAV:   7    -0.132407392020E+04    0.88445E-04   -0.19243E-03 40070   0.132E-01    0.127E-01
DAV:   8    -0.132407395619E+04   -0.35993E-04   -0.57463E-04 35990   0.701E-02    0.689E-02
DAV:   9    -0.132407400119E+04   -0.44998E-04   -0.78342E-05 23150   0.280E-02
  15 F= -.13240740E+04 E0= -.13240740E+04  d E =-.154491E+00  mag=   114.0000
       N       E                     dE             d eps       ncg     rms          rms(c)
DAV:   1    -0.132399548395E+04    0.78472E-01   -0.34413E+00 49680   0.900E+00    0.147E+00
DAV:   2    -0.132409287435E+04   -0.97390E-01   -0.86458E-01 37610   0.149E+00    0.760E-01
DAV:   3    -0.132409557837E+04   -0.27040E-02   -0.34365E-02 37070   0.437E-01    0.485E-01
DAV:   4    -0.132409592372E+04   -0.34535E-03   -0.39282E-03 39030   0.172E-01    0.269E-01
DAV:   5    -0.132409522385E+04    0.69987E-03   -0.62120E-04 36570   0.732E-02    0.192E-01
DAV:   6    -0.132409512061E+04    0.10324E-03   -0.55285E-04 39610   0.846E-02    0.713E-02
DAV:   7    -0.132409513247E+04   -0.11859E-04   -0.22374E-04 36090   0.397E-02
  16 F= -.13240951E+04 E0= -.13240951E+04  d E =-.211313E-01  mag=   114.0000
       N       E                     dE             d eps       ncg     rms          rms(c)
DAV:   1    -0.132405629472E+04    0.38826E-01   -0.15183E+00 49100   0.606E+00    0.101E+00
DAV:   2    -0.132410248008E+04   -0.46185E-01   -0.41034E-01 37010   0.995E-01    0.483E-01
DAV:   3    -0.132410389173E+04   -0.14117E-02   -0.13687E-02 36950   0.226E-01    0.233E-01
DAV:   4    -0.132410368116E+04    0.21057E-03   -0.84726E-04 38250   0.551E-02    0.170E-01
DAV:   5    -0.132410368703E+04   -0.58719E-05   -0.14966E-04 27730   0.514E-02
  17 F= -.13241037E+04 E0= -.13241037E+04  d E =-.855456E-02  mag=   114.0000
       N       E                     dE             d eps       ncg     rms          rms(c)
DAV:   1    -0.132404660408E+04    0.57077E-01   -0.20532E+00 48120   0.688E+00    0.115E+00
DAV:   2    -0.132410589042E+04   -0.59286E-01   -0.52808E-01 36830   0.115E+00    0.566E-01
DAV:   3    -0.132410769456E+04   -0.18041E-02   -0.17806E-02 37190   0.279E-01    0.304E-01
DAV:   4    -0.132410729957E+04    0.39500E-03   -0.13861E-03 38440   0.899E-02    0.216E-01
DAV:   5    -0.132410738210E+04   -0.82539E-04   -0.27629E-04 32900   0.602E-02    0.155E-01
DAV:   6    -0.132410718524E+04    0.19686E-03   -0.41948E-04 38800   0.783E-02    0.742E-02
DAV:   7    -0.132410733210E+04   -0.14685E-03   -0.22028E-04 32600   0.447E-02    0.368E-02
DAV:   8    -0.132410727500E+04    0.57099E-04   -0.30609E-05 19410   0.185E-02    0.156E-02
DAV:   9    -0.132410725741E+04    0.17590E-04   -0.69850E-06 18180   0.688E-03
  18 F= -.13241073E+04 E0= -.13241073E+04  d E =-.357038E-02  mag=   114.0000
       N       E                     dE             d eps       ncg     rms          rms(c)
DAV:   1    -0.132408710831E+04    0.20167E-01   -0.99990E-01 45410   0.413E+00    0.686E-01
DAV:   2    -0.132410890755E+04   -0.21799E-01   -0.20760E-01 36460   0.720E-01    0.342E-01
DAV:   3    -0.132410958724E+04   -0.67968E-03   -0.68924E-03 37000   0.181E-01    0.203E-01
DAV:   4    -0.132410927116E+04    0.31607E-03   -0.67819E-04 37180   0.684E-02    0.134E-01
DAV:   5    -0.132410936951E+04   -0.98343E-04   -0.83236E-05 23140   0.345E-02    0.968E-02
DAV:   6    -0.132410927750E+04    0.92005E-04   -0.14393E-04 29810   0.463E-02    0.365E-02
DAV:   7    -0.132410931991E+04   -0.42406E-04   -0.75119E-05 22860   0.202E-02
  19 F= -.13241093E+04 E0= -.13241093E+04  d E =-.206250E-02  mag=   114.0000
       N       E                     dE             d eps       ncg     rms          rms(c)
DAV:   1    -0.132367835289E+04    0.43092E+00   -0.21029E+01 44220   0.178E+01    0.301E+00
DAV:   2    -0.132409866681E+04   -0.42031E+00   -0.39830E+00 36400   0.314E+00    0.154E+00
DAV:   3    -0.132410581584E+04   -0.71490E-02   -0.11677E-01 36990   0.701E-01    0.797E-01
DAV:   4    -0.132410418828E+04    0.16276E-02   -0.10559E-02 39390   0.260E-01    0.585E-01
DAV:   5    -0.132410363122E+04    0.55706E-03   -0.19857E-03 40670   0.164E-01    0.414E-01
DAV:   6    -0.132410205167E+04    0.15796E-02   -0.24927E-03 44100   0.200E-01    0.166E-01
DAV:   7    -0.132410248638E+04   -0.43471E-03   -0.12943E-03 38450   0.907E-02    0.730E-02
DAV:   8    -0.132410248621E+04    0.17483E-06   -0.12376E-04 28780   0.334E-02
  20 F= -.13241025E+04 E0= -.13241025E+04  d E =0.683370E-02  mag=   114.0000
       N       E                     dE             d eps       ncg     rms          rms(c)
DAV:   1    -0.132366318914E+04    0.43930E+00   -0.23347E+01 44270   0.185E+01    0.307E+00
DAV:   2    -0.132409494281E+04   -0.43175E+00   -0.41493E+00 36260   0.328E+00    0.152E+00
DAV:   3    -0.132410073646E+04   -0.57937E-02   -0.11062E-01 36990   0.657E-01    0.715E-01
DAV:   4    -0.132410034135E+04    0.39511E-03   -0.72604E-03 39610   0.173E-01    0.550E-01
DAV:   5    -0.132409847173E+04    0.18696E-02   -0.19317E-03 42270   0.167E-01    0.378E-01
DAV:   6    -0.132409826321E+04    0.20852E-03   -0.28008E-03 44460   0.190E-01    0.198E-01
DAV:   7    -0.132409789781E+04    0.36540E-03   -0.13650E-03 38300   0.106E-01    0.751E-02
DAV:   8    -0.132409816741E+04   -0.26960E-03   -0.16530E-04 31120   0.387E-02    0.454E-02
DAV:   9    -0.132409818119E+04   -0.13786E-04   -0.30058E-05 20040   0.178E-02
  21 F= -.13240982E+04 E0= -.13240982E+04  d E =0.430502E-02  mag=   114.0000
       N       E                     dE             d eps       ncg     rms          rms(c)
DAV:   1    -0.132382302704E+04    0.27514E+00   -0.77296E+00 49400   0.150E+01    0.244E+00
DAV:   2    -0.132410096368E+04   -0.27794E+00   -0.24418E+00 36760   0.242E+00    0.122E+00
DAV:   3    -0.132410747058E+04   -0.65069E-02   -0.82189E-02 36770   0.591E-01    0.607E-01
DAV:   4    -0.132410815781E+04   -0.68723E-03   -0.59292E-03 40020   0.177E-01    0.436E-01
DAV:   5    -0.132410719447E+04    0.96334E-03   -0.11792E-03 41290   0.126E-01    0.318E-01
DAV:   6    -0.132410700991E+04    0.18455E-03   -0.14774E-03 44360   0.154E-01    0.156E-01
DAV:   7    -0.132410676001E+04    0.24990E-03   -0.77127E-04 38920   0.829E-02    0.660E-02
DAV:   8    -0.132410694000E+04   -0.17999E-03   -0.11469E-04 25530   0.349E-02    0.338E-02
DAV:   9    -0.132410696897E+04   -0.28966E-04   -0.19317E-05 19510   0.135E-02
  22 F= -.13241070E+04 E0= -.13241070E+04  d E =-.878777E-02  mag=   114.0000
       N       E                     dE             d eps       ncg     rms          rms(c)
DAV:   1    -0.132401292278E+04    0.94017E-01   -0.46298E+00 47650   0.911E+00    0.144E+00
DAV:   2    -0.132411484949E+04   -0.10193E+00   -0.94992E-01 37220   0.156E+00    0.766E-01
DAV:   3    -0.132411697589E+04   -0.21264E-02   -0.33936E-02 36740   0.415E-01    0.446E-01
DAV:   4    -0.132411714131E+04   -0.16543E-03   -0.24815E-03 39550   0.131E-01    0.267E-01
DAV:   5    -0.132411668692E+04    0.45439E-03   -0.57055E-04 37430   0.786E-02    0.178E-01
DAV:   6    -0.132411659132E+04    0.95603E-04   -0.49084E-04 42090   0.783E-02    0.747E-02
DAV:   7    -0.132411659689E+04   -0.55697E-05   -0.20849E-04 37010   0.332E-02
  23 F= -.13241166E+04 E0= -.13241166E+04  d E =-.962792E-02  mag=   114.0000
       N       E                     dE             d eps       ncg     rms          rms(c)
DAV:   1    -0.132406930913E+04    0.47282E-01   -0.20869E+00 47330   0.608E+00    0.101E+00
DAV:   2    -0.132411868468E+04   -0.49376E-01   -0.45703E-01 36650   0.104E+00    0.506E-01
DAV:   3    -0.132411961599E+04   -0.93131E-03   -0.13789E-02 36420   0.235E-01    0.249E-01
DAV:   4    -0.132411979795E+04   -0.18195E-03   -0.95028E-04 38370   0.678E-02    0.180E-01
DAV:   5    -0.132411954344E+04    0.25451E-03   -0.17888E-04 30510   0.518E-02    0.117E-01
DAV:   6    -0.132411955317E+04   -0.97288E-05   -0.22767E-04 34960   0.554E-02
  24 F= -.13241196E+04 E0= -.13241196E+04  d E =-.295628E-02  mag=   114.0000
       N       E                     dE             d eps       ncg     rms          rms(c)
DAV:   1    -0.132013694081E+04    0.39826E+01   -0.11694E+02 49530   0.536E+01    0.946E+00
DAV:   2    -0.132383714468E+04   -0.37002E+01   -0.32255E+01 36570   0.895E+00    0.600E+00
DAV:   3    -0.132393601678E+04   -0.98872E-01   -0.10406E+00 37140   0.224E+00    0.244E+00
DAV:   4    -0.132393700633E+04   -0.98955E-03   -0.79178E-02 40540   0.769E-01    0.170E+00
DAV:   5    -0.132393008492E+04    0.69214E-02   -0.16937E-02 40770   0.468E-01    0.117E+00
DAV:   6    -0.132392483068E+04    0.52542E-02   -0.12972E-02 43090   0.469E-01    0.623E-01
DAV:   7    -0.132392555516E+04   -0.72448E-03   -0.10430E-02 40160   0.304E-01    0.347E-01
DAV:   8    -0.132392540504E+04    0.15012E-03   -0.30442E-03 36870   0.169E-01    0.148E-01
DAV:   9    -0.132392627009E+04   -0.86505E-03   -0.39981E-04 34760   0.582E-02    0.683E-02
DAV:  10    -0.132392603703E+04    0.23306E-03   -0.87651E-05 24110   0.264E-02    0.408E-02
DAV:  11    -0.132392600634E+04    0.30691E-04   -0.38538E-05 19650   0.196E-02
  25 F= -.13239260E+04 E0= -.13239260E+04  d E =0.193547E+00  mag=   114.0000
       N       E                     dE             d eps       ncg     rms          rms(c)
DAV:   1    -0.132277732561E+04    0.11487E+01   -0.36799E+01 49500   0.315E+01    0.539E+00
DAV:   2    -0.132404268050E+04   -0.12654E+01   -0.11071E+01 37610   0.524E+00    0.307E+00
DAV:   3    -0.132408502361E+04   -0.42343E-01   -0.38347E-01 36700   0.135E+00    0.147E+00
DAV:   4    -0.132408562793E+04   -0.60433E-03   -0.27864E-02 40060   0.432E-01    0.958E-01
DAV:   5    -0.132408239695E+04    0.32310E-02   -0.75506E-03 41320   0.257E-01    0.641E-01
DAV:   6    -0.132408106142E+04    0.13355E-02   -0.46106E-03 41320   0.256E-01    0.321E-01
DAV:   7    -0.132408090644E+04    0.15498E-03   -0.24783E-03 39970   0.148E-01    0.150E-01
DAV:   8    -0.132408156241E+04   -0.65596E-03   -0.71229E-04 36460   0.785E-02    0.804E-02
DAV:   9    -0.132408141579E+04    0.14662E-03   -0.17758E-04 29340   0.415E-02    0.487E-02
DAV:  10    -0.132408137086E+04    0.44923E-04   -0.41941E-05 20250   0.209E-02
  26 F= -.13240814E+04 E0= -.13240814E+04  d E =-.155365E+00  mag=   114.0000
       N       E                     dE             d eps       ncg     rms          rms(c)
DAV:   1    -0.132406182498E+04    0.19591E-01   -0.11973E+00 50040   0.553E+00    0.915E-01
DAV:   2    -0.132409897918E+04   -0.37154E-01   -0.32546E-01 37870   0.894E-01    0.476E-01
DAV:   3    -0.132409976401E+04   -0.78483E-03   -0.13345E-02 37070   0.262E-01    0.297E-01
DAV:   4    -0.132410014767E+04   -0.38366E-03   -0.13063E-03 38320   0.979E-02    0.166E-01
DAV:   5    -0.132409979878E+04    0.34890E-03   -0.25715E-04 31870   0.523E-02    0.118E-01
DAV:   6    -0.132409976077E+04    0.38006E-04   -0.24268E-04 34620   0.539E-02
  27 F= -.13240998E+04 E0= -.13240998E+04  d E =-.183899E-01  mag=   114.0000
       N       E                     dE             d eps       ncg     rms          rms(c)
DAV:   1    -0.132397623982E+04    0.12356E+00   -0.44148E+00 49310   0.102E+01    0.164E+00
DAV:   2    -0.132410983142E+04   -0.13359E+00   -0.11668E+00 37160   0.167E+00    0.845E-01
DAV:   3    -0.132411273677E+04   -0.29053E-02   -0.40254E-02 36900   0.405E-01    0.441E-01
DAV:   4    -0.132411309330E+04   -0.35653E-03   -0.30016E-03 39400   0.130E-01    0.298E-01
DAV:   5    -0.132411237959E+04    0.71371E-03   -0.72837E-04 37490   0.964E-02    0.210E-01
DAV:   6    -0.132411231773E+04    0.61863E-04   -0.85695E-04 40960   0.103E-01    0.106E-01
DAV:   7    -0.132411211792E+04    0.19981E-03   -0.40990E-04 37080   0.606E-02    0.554E-02
DAV:   8    -0.132411220587E+04   -0.87955E-04   -0.77191E-05 21990   0.276E-02    0.232E-02
DAV:   9    -0.132411221444E+04   -0.85659E-05   -0.14506E-05 18780   0.994E-03
  28 F= -.13241122E+04 E0= -.13241122E+04  d E =-.124537E-01  mag=   114.0000
       N       E                     dE             d eps       ncg     rms          rms(c)
DAV:   1    -0.132408876890E+04    0.23437E-01   -0.10203E+00 48970   0.464E+00    0.755E-01
DAV:   2    -0.132411706589E+04   -0.28297E-01   -0.24864E-01 36610   0.753E-01    0.376E-01
DAV:   3    -0.132411780260E+04   -0.73671E-03   -0.79043E-03 36780   0.181E-01    0.188E-01
DAV:   4    -0.132411784216E+04   -0.39555E-04   -0.52557E-04 37420   0.510E-02    0.130E-01
DAV:   5    -0.132411782181E+04    0.20351E-04   -0.14439E-04 27090   0.414E-02
  29 F= -.13241178E+04 E0= -.13241178E+04  d E =-.560737E-02  mag=   114.0000
       N       E                     dE             d eps       ncg     rms          rms(c)
DAV:   1    -0.132355823684E+04    0.55961E+00   -0.16658E+01 49020   0.193E+01    0.331E+00
DAV:   2    -0.132408786983E+04   -0.52963E+00   -0.46318E+00 36300   0.314E+00    0.187E+00
DAV:   3    -0.132409979037E+04   -0.11921E-01   -0.14746E-01 36830   0.705E-01    0.802E-01
DAV:   4    -0.132409999129E+04   -0.20092E-03   -0.97451E-03 41280   0.214E-01    0.598E-01
DAV:   5    -0.132409887887E+04    0.11124E-02   -0.21433E-03 43420   0.172E-01    0.406E-01
DAV:   6    -0.132409780011E+04    0.10788E-02   -0.30402E-03 43910   0.208E-01    0.230E-01
DAV:   7    -0.132409830166E+04   -0.50155E-03   -0.16239E-03 38460   0.114E-01    0.809E-02
DAV:   8    -0.132409808322E+04    0.21844E-03   -0.17192E-04 32310   0.416E-02    0.437E-02
DAV:   9    -0.132409816875E+04   -0.85520E-04   -0.29355E-05 20140   0.176E-02    0.232E-02
DAV:  10    -0.132409813561E+04    0.33137E-04   -0.83921E-06 18170   0.828E-03
  30 F= -.13240981E+04 E0= -.13240981E+04  d E =0.196862E-01  mag=   114.0000
       N       E                     dE             d eps       ncg     rms          rms(c)
DAV:   1    -0.132389631634E+04    0.20185E+00   -0.64794E+00 49430   0.117E+01    0.210E+00
DAV:   2    -0.132410371278E+04   -0.20740E+00   -0.17949E+00 37020   0.193E+00    0.113E+00
DAV:   3    -0.132410955217E+04   -0.58394E-02   -0.62710E-02 36080   0.478E-01    0.549E-01
DAV:   4    -0.132410979022E+04   -0.23805E-03   -0.39903E-03 39980   0.125E-01    0.352E-01
DAV:   5    -0.132410923058E+04    0.55964E-03   -0.14460E-03 40790   0.120E-01    0.244E-01
DAV:   6    -0.132410931566E+04   -0.85086E-04   -0.14785E-03 39990   0.121E-01    0.152E-01
DAV:   7    -0.132410890773E+04    0.40793E-03   -0.53993E-04 36490   0.696E-02    0.434E-02
DAV:   8    -0.132410916677E+04   -0.25904E-03   -0.76892E-05 23490   0.241E-02    0.243E-02
DAV:   9    -0.132410915386E+04    0.12908E-04   -0.13636E-05 18530   0.953E-03
  31 F= -.13241092E+04 E0= -.13241092E+04  d E =-.110183E-01  mag=   114.0000
       N       E                     dE             d eps       ncg     rms          rms(c)
DAV:   1    -0.132404031061E+04    0.68856E-01   -0.25401E+00 48900   0.736E+00    0.123E+00
DAV:   2    -0.132411671210E+04   -0.76401E-01   -0.67552E-01 36880   0.120E+00    0.631E-01
DAV:   3    -0.132411874076E+04   -0.20287E-02   -0.23359E-02 36870   0.302E-01    0.331E-01
DAV:   4    -0.132411897703E+04   -0.23627E-03   -0.20080E-03 38290   0.109E-01    0.229E-01
DAV:   5    -0.132411863226E+04    0.34477E-03   -0.54871E-04 35990   0.745E-02    0.160E-01
DAV:   6    -0.132411860348E+04    0.28777E-04   -0.43392E-04 35870   0.739E-02
  32 F= -.13241186E+04 E0= -.13241186E+04  d E =-.944962E-02  mag=   114.0000
       N       E                     dE             d eps       ncg     rms          rms(c)
DAV:   1    -0.132403662626E+04    0.82006E-01   -0.35369E+00 46060   0.789E+00    0.126E+00
DAV:   2    -0.132411758783E+04   -0.80962E-01   -0.74840E-01 37010   0.134E+00    0.640E-01
DAV:   3    -0.132411894043E+04   -0.13526E-02   -0.24891E-02 36140   0.305E-01    0.319E-01
DAV:   4    -0.132411908025E+04   -0.13982E-03   -0.15901E-03 39960   0.826E-02    0.232E-01
DAV:   5    -0.132411862024E+04    0.46001E-03   -0.53062E-04 37380   0.770E-02    0.160E-01
DAV:   6    -0.132411870552E+04   -0.85273E-04   -0.60487E-04 38430   0.838E-02    0.931E-02
DAV:   7    -0.132411849266E+04    0.21285E-03   -0.25263E-04 33980   0.466E-02    0.305E-02
DAV:   8    -0.132411860116E+04   -0.10850E-03   -0.33412E-05 20080   0.170E-02    0.186E-02
DAV:   9    -0.132411862038E+04   -0.19217E-04   -0.89487E-06 18250   0.866E-03
  33 F= -.13241186E+04 E0= -.13241186E+04  d E =-.168911E-04  mag=   114.0000
       N       E                     dE             d eps       ncg     rms          rms(c)
DAV:   1    -0.132379386491E+04    0.32474E+00   -0.11763E+01 50080   0.156E+01    0.252E+00
DAV:   2    -0.132408469607E+04   -0.29083E+00   -0.25109E+00 36290   0.246E+00    0.132E+00
DAV:   3    -0.132409403749E+04   -0.93414E-02   -0.91474E-02 35900   0.619E-01    0.607E-01
DAV:   4    -0.132409477119E+04   -0.73370E-03   -0.54901E-03 40520   0.174E-01    0.381E-01
DAV:   5    -0.132409419038E+04    0.58081E-03   -0.17091E-03 41220   0.139E-01    0.235E-01
DAV:   6    -0.132409420573E+04   -0.15349E-04   -0.97249E-04 39250   0.109E-01    0.113E-01
DAV:   7    -0.132409406061E+04    0.14512E-03   -0.40563E-04 37330   0.566E-02    0.546E-02
DAV:   8    -0.132409424542E+04   -0.18481E-03   -0.87121E-05 23660   0.268E-02    0.325E-02
DAV:   9    -0.132409418964E+04    0.55781E-04   -0.26007E-05 19440   0.162E-02    0.220E-02
DAV:  10    -0.132409418953E+04    0.10357E-06   -0.87294E-06 18280   0.989E-03
  34 F= -.13240942E+04 E0= -.13240942E+04  d E =0.244308E-01  mag=   114.0000
       N       E                     dE             d eps       ncg     rms          rms(c)
DAV:   1    -0.132387478417E+04    0.21941E+00   -0.69039E+00 49420   0.132E+01    0.231E+00
DAV:   2    -0.132410898913E+04   -0.23420E+00   -0.20129E+00 37960   0.215E+00    0.123E+00
DAV:   3    -0.132411504875E+04   -0.60596E-02   -0.61017E-02 35780   0.562E-01    0.633E-01
DAV:   4    -0.132411566211E+04   -0.61336E-03   -0.45460E-03 40000   0.179E-01    0.395E-01
DAV:   5    -0.132411478893E+04    0.87318E-03   -0.14727E-03 40240   0.124E-01    0.270E-01
DAV:   6    -0.132411463292E+04    0.15601E-03   -0.12168E-03 41260   0.119E-01    0.141E-01
DAV:   7    -0.132411447098E+04    0.16194E-03   -0.64140E-04 38280   0.727E-02    0.768E-02
DAV:   8    -0.132411472317E+04   -0.25219E-03   -0.15450E-04 27280   0.408E-02    0.352E-02
DAV:   9    -0.132411467786E+04    0.45313E-04   -0.24598E-05 19770   0.154E-02
  35 F= -.13241147E+04 E0= -.13241147E+04  d E =-.204883E-01  mag=   114.0000
       N       E                     dE             d eps       ncg     rms          rms(c)
DAV:   1    -0.132406380124E+04    0.50922E-01   -0.18627E+00 49550   0.678E+00    0.108E+00
DAV:   2    -0.132412214281E+04   -0.58342E-01   -0.51675E-01 37200   0.109E+00    0.560E-01
DAV:   3    -0.132412352647E+04   -0.13837E-02   -0.17294E-02 36350   0.267E-01    0.271E-01
DAV:   4    -0.132412370111E+04   -0.17464E-03   -0.10508E-03 38630   0.684E-02    0.183E-01
DAV:   5    -0.132412347999E+04    0.22113E-03   -0.36745E-04 34740   0.645E-02    0.130E-01
DAV:   6    -0.132412359129E+04   -0.11131E-03   -0.40620E-04 35270   0.682E-02    0.816E-02
DAV:   7    -0.132412339592E+04    0.19537E-03   -0.14958E-04 26890   0.384E-02    0.232E-02
DAV:   8    -0.132412350549E+04   -0.10957E-03   -0.27604E-05 19430   0.131E-02    0.142E-02
DAV:   9    -0.132412352201E+04   -0.16516E-04   -0.58907E-06 17950   0.634E-03
  36 F= -.13241235E+04 E0= -.13241235E+04  d E =-.884415E-02  mag=   114.0000
       N       E                     dE             d eps       ncg     rms          rms(c)
DAV:   1    -0.132410297280E+04    0.20533E-01   -0.96622E-01 47390   0.412E+00    0.648E-01
DAV:   2    -0.132412274117E+04   -0.19768E-01   -0.18433E-01 36850   0.703E-01    0.322E-01
DAV:   3    -0.132412312703E+04   -0.38585E-03   -0.61545E-03 36890   0.159E-01    0.163E-01
DAV:   4    -0.132412313875E+04   -0.11722E-04   -0.34866E-04 30800   0.354E-02
  37 F= -.13241231E+04 E0= -.13241231E+04  d E =0.383256E-03  mag=   114.0000
       N       E                     dE             d eps       ncg     rms          rms(c)
DAV:   1    -0.131872729247E+04    0.53958E+01   -0.17987E+02 49360   0.588E+01    0.105E+01
DAV:   2    -0.132370283344E+04   -0.49755E+01   -0.44394E+01 37340   0.104E+01    0.125E+01
DAV:   3    -0.132375955916E+04   -0.56726E-01   -0.58162E+00 36900   0.622E+00    0.691E+00
DAV:   4    -0.132370723701E+04    0.52322E-01   -0.41492E-01 38240   0.236E+00    0.266E+00
DAV:   5    -0.132369364718E+04    0.13590E-01   -0.80538E-02 40860   0.732E-01    0.159E+00
DAV:   6    -0.132369072083E+04    0.29264E-02   -0.32061E-02 39550   0.446E-01    0.994E-01
DAV:   7    -0.132368888501E+04    0.18358E-02   -0.11393E-02 40450   0.340E-01    0.600E-01
DAV:   8    -0.132368874036E+04    0.14465E-03   -0.69262E-03 39640   0.274E-01    0.371E-01
DAV:   9    -0.132368850372E+04    0.23663E-03   -0.25627E-03 36970   0.163E-01    0.148E-01
DAV:  10    -0.132368847252E+04    0.31207E-04   -0.41552E-04 34990   0.524E-02
  38 F= -.13236885E+04 E0= -.13236885E+04  d E =0.434666E+00  mag=   114.0000
       N       E                     dE             d eps       ncg     rms          rms(c)
DAV:   1    -0.132020023800E+04    0.34883E+01   -0.13716E+02 50300   0.499E+01    0.922E+00
DAV:   2    -0.132404244711E+04   -0.38422E+01   -0.33678E+01 37750   0.888E+00    0.102E+01
DAV:   3    -0.132412014371E+04   -0.77697E-01   -0.45953E+00 37160   0.521E+00    0.525E+00
DAV:   4    -0.132406062179E+04    0.59522E-01   -0.31056E-01 38390   0.188E+00    0.199E+00
DAV:   5    -0.132405461593E+04    0.60059E-02   -0.59748E-02 41680   0.585E-01    0.118E+00
DAV:   6    -0.132405242873E+04    0.21872E-02   -0.25494E-02 39620   0.395E-01    0.687E-01
DAV:   7    -0.132405249506E+04   -0.66322E-04   -0.80819E-03 40200   0.311E-01    0.539E-01
DAV:   8    -0.132405200761E+04    0.48745E-03   -0.48412E-03 38670   0.237E-01    0.193E-01
DAV:   9    -0.132405189479E+04    0.11282E-03   -0.12388E-03 36550   0.927E-02    0.786E-02
DAV:  10    -0.132405199405E+04   -0.99259E-04   -0.19009E-04 32780   0.331E-02    0.539E-02
DAV:  11    -0.132405197523E+04    0.18821E-04   -0.47251E-05 20690   0.191E-02
  39 F= -.13240520E+04 E0= -.13240520E+04  d E =-.363503E+00  mag=   114.0000
       N       E                     dE             d eps       ncg     rms          rms(c)
DAV:   1    -0.132398795997E+04    0.64034E-01   -0.29242E+00 49260   0.846E+00    0.144E+00
DAV:   2    -0.132408510150E+04   -0.97142E-01   -0.86436E-01 38120   0.140E+00    0.758E-01
DAV:   3    -0.132408811448E+04   -0.30130E-02   -0.35307E-02 36600   0.402E-01    0.460E-01
DAV:   4    -0.132408842439E+04   -0.30991E-03   -0.26802E-03 38940   0.125E-01    0.270E-01
DAV:   5    -0.132408780303E+04    0.62136E-03   -0.82295E-04 38620   0.812E-02    0.200E-01
DAV:   6    -0.132408773885E+04    0.64176E-04   -0.74473E-04 38120   0.895E-02    0.102E-01
DAV:   7    -0.132408756967E+04    0.16919E-03   -0.34170E-04 36720   0.579E-02    0.582E-02
DAV:   8    -0.132408765039E+04   -0.80718E-04   -0.88486E-05 22290   0.298E-02    0.270E-02
DAV:   9    -0.132408763251E+04    0.17882E-04   -0.18421E-05 19180   0.113E-02
  40 F= -.13240876E+04 E0= -.13240876E+04  d E =-.356573E-01  mag=   114.0000
       N       E                     dE             d eps       ncg     rms          rms(c)
DAV:   1    -0.132398062982E+04    0.10702E+00   -0.42180E+00 48380   0.962E+00    0.158E+00
DAV:   2    -0.132409986359E+04   -0.11923E+00   -0.10461E+00 37190   0.160E+00    0.833E-01
DAV:   3    -0.132410285903E+04   -0.29954E-02   -0.39266E-02 35240   0.454E-01    0.511E-01
DAV:   4    -0.132410255046E+04    0.30856E-03   -0.32732E-03 39750   0.162E-01    0.306E-01
DAV:   5    -0.132410239386E+04    0.15660E-03   -0.90907E-04 38580   0.955E-02    0.218E-01
DAV:   6    -0.132410194341E+04    0.45045E-03   -0.89939E-04 40610   0.103E-01    0.111E-01
DAV:   7    -0.132410224478E+04   -0.30137E-03   -0.42774E-04 37760   0.601E-02    0.619E-02
DAV:   8    -0.132410206440E+04    0.18038E-03   -0.80383E-05 22710   0.286E-02    0.239E-02
DAV:   9    -0.132410209713E+04   -0.32733E-04   -0.14437E-05 18520   0.101E-02
  41 F= -.13241021E+04 E0= -.13241021E+04  d E =-.144646E-01  mag=   114.0000
       N       E                     dE             d eps       ncg     rms          rms(c)
DAV:   1    -0.132407796179E+04    0.24103E-01   -0.10835E+00 45390   0.459E+00    0.779E-01
DAV:   2    -0.132410828212E+04   -0.30320E-01   -0.27998E-01 37160   0.777E-01    0.395E-01
DAV:   3    -0.132410901292E+04   -0.73081E-03   -0.92754E-03 37040   0.201E-01    0.228E-01
DAV:   4    -0.132410879304E+04    0.21988E-03   -0.84642E-04 38180   0.744E-02    0.161E-01
DAV:   5    -0.132410888390E+04   -0.90856E-04   -0.11568E-04 24690   0.404E-02    0.118E-01
DAV:   6    -0.132410877194E+04    0.11196E-03   -0.17861E-04 33320   0.500E-02    0.416E-02
DAV:   7    -0.132410885802E+04   -0.86082E-04   -0.78535E-05 25420   0.193E-02    0.187E-02
DAV:   8    -0.132410881677E+04    0.41250E-04   -0.11172E-05 18070   0.966E-03
  42 F= -.13241088E+04 E0= -.13241088E+04  d E =-.671964E-02  mag=   114.0000
       N       E                     dE             d eps       ncg     rms          rms(c)
DAV:   1    -0.132390712601E+04    0.20173E+00   -0.56103E+00 48230   0.113E+01    0.204E+00
DAV:   2    -0.132411138320E+04   -0.20426E+00   -0.18046E+00 36260   0.186E+00    0.107E+00
DAV:   3    -0.132411465456E+04   -0.32714E-02   -0.53668E-02 37260   0.433E-01    0.503E-01
DAV:   4    -0.132411471835E+04   -0.63793E-04   -0.36429E-03 40660   0.127E-01    0.384E-01
DAV:   5    -0.132411432248E+04    0.39587E-03   -0.66173E-04 41090   0.101E-01    0.268E-01
DAV:   6    -0.132411380301E+04    0.51947E-03   -0.10133E-03 43540   0.126E-01    0.145E-01
DAV:   7    -0.132411403961E+04   -0.23661E-03   -0.55362E-04 36960   0.678E-02    0.481E-02
DAV:   8    -0.132411390189E+04    0.13772E-03   -0.62735E-05 21900   0.246E-02    0.261E-02
DAV:   9    -0.132411394478E+04   -0.42891E-04   -0.12429E-05 18550   0.107E-02
  43 F= -.13241139E+04 E0= -.13241139E+04  d E =-.512801E-02  mag=   114.0000
       N       E                     dE             d eps       ncg     rms          rms(c)
DAV:   1    -0.132407068246E+04    0.43219E-01   -0.17914E+00 47240   0.564E+00    0.971E-01
DAV:   2    -0.132411489654E+04   -0.44214E-01   -0.40887E-01 37530   0.991E-01    0.484E-01
DAV:   3    -0.132411549038E+04   -0.59384E-03   -0.14205E-02 36290   0.251E-01    0.279E-01
DAV:   4    -0.132411572328E+04   -0.23290E-03   -0.11387E-03 38790   0.797E-02    0.187E-01
DAV:   5    -0.132411539139E+04    0.33189E-03   -0.25407E-04 32460   0.509E-02    0.132E-01
DAV:   6    -0.132411540895E+04   -0.17563E-04   -0.30219E-04 36300   0.602E-02
  44 F= -.13241154E+04 E0= -.13241154E+04  d E =-.146417E-02  mag=   114.0000
       N       E                     dE             d eps       ncg     rms          rms(c)
DAV:   1    -0.132407107123E+04    0.44320E-01   -0.23044E+00 45270   0.627E+00    0.986E-01
DAV:   2    -0.132411814759E+04   -0.47076E-01   -0.44661E-01 37300   0.109E+00    0.534E-01
DAV:   3    -0.132411841128E+04   -0.26369E-03   -0.15102E-02 36500   0.300E-01    0.342E-01
DAV:   4    -0.132411865279E+04   -0.24151E-03   -0.16863E-03 39160   0.118E-01    0.201E-01
DAV:   5    -0.132411828542E+04    0.36737E-03   -0.25240E-04 31770   0.558E-02    0.140E-01
DAV:   6    -0.132411823271E+04    0.52714E-04   -0.30082E-04 38700   0.616E-02    0.482E-02
DAV:   7    -0.132411817343E+04    0.59274E-04   -0.12192E-04 28430   0.222E-02    0.198E-02
DAV:   8    -0.132411822240E+04   -0.48973E-04   -0.13003E-05 18260   0.102E-02
  45 F= -.13241182E+04 E0= -.13241182E+04  d E =-.281345E-02  mag=   114.0000
       N       E                     dE             d eps       ncg     rms          rms(c)
DAV:   1    -0.132381204946E+04    0.30612E+00   -0.10532E+01 47350   0.147E+01    0.251E+00
DAV:   2    -0.132409802041E+04   -0.28597E+00   -0.25907E+00 37140   0.252E+00    0.131E+00
DAV:   3    -0.132410554163E+04   -0.75212E-02   -0.87447E-02 36690   0.641E-01    0.694E-01
DAV:   4    -0.132410574452E+04   -0.20290E-03   -0.69600E-03 39980   0.207E-01    0.472E-01
DAV:   5    -0.132410493863E+04    0.80589E-03   -0.15451E-03 40200   0.134E-01    0.355E-01
DAV:   6    -0.132410463849E+04    0.30014E-03   -0.18294E-03 43430   0.162E-01    0.178E-01
DAV:   7    -0.132410421380E+04    0.42469E-03   -0.93853E-04 39240   0.874E-02    0.739E-02
DAV:   8    -0.132410456719E+04   -0.35338E-03   -0.17533E-04 32670   0.382E-02    0.401E-02
DAV:   9    -0.132410453726E+04    0.29922E-04   -0.20871E-05 19310   0.134E-02
  46 F= -.13241045E+04 E0= -.13241045E+04  d E =0.136851E-01  mag=   114.0000
       N       E                     dE             d eps       ncg     rms          rms(c)
DAV:   1    -0.132395853169E+04    0.14604E+00   -0.42836E+00 49940   0.106E+01    0.187E+00
DAV:   2    -0.132411142900E+04   -0.15290E+00   -0.13133E+00 37190   0.173E+00    0.988E-01
DAV:   3    -0.132411740530E+04   -0.59763E-02   -0.57282E-02 37120   0.472E-01    0.498E-01
DAV:   4    -0.132411777872E+04   -0.37343E-03   -0.34531E-03 39830   0.127E-01    0.303E-01
DAV:   5    -0.132411716127E+04    0.61745E-03   -0.78286E-04 40330   0.933E-02    0.206E-01
DAV:   6    -0.132411712366E+04    0.37604E-04   -0.67908E-04 42100   0.926E-02    0.118E-01
DAV:   7    -0.132411694346E+04    0.18020E-03   -0.33292E-04 36700   0.529E-02    0.476E-02
DAV:   8    -0.132411712974E+04   -0.18628E-03   -0.10264E-04 22490   0.315E-02    0.371E-02
DAV:   9    -0.132411708325E+04    0.46485E-04   -0.22774E-05 19350   0.152E-02
  47 F= -.13241171E+04 E0= -.13241171E+04  d E =-.125460E-01  mag=   114.0000
       N       E                     dE             d eps       ncg     rms          rms(c)
DAV:   1    -0.132410527990E+04    0.11850E-01   -0.52385E-01 49150   0.334E+00    0.557E-01
DAV:   2    -0.132412049158E+04   -0.15212E-01   -0.13404E-01 37030   0.549E-01    0.306E-01
DAV:   3    -0.132412107483E+04   -0.58325E-03   -0.50368E-03 36910   0.141E-01    0.163E-01
DAV:   4    -0.132412086406E+04    0.21077E-03   -0.42641E-04 34580   0.513E-02    0.107E-01
DAV:   5    -0.132412097545E+04   -0.11139E-03   -0.11887E-04 23780   0.365E-02    0.774E-02
DAV:   6    -0.132412088727E+04    0.88189E-04   -0.10816E-04 25960   0.372E-02    0.354E-02
DAV:   7    -0.132412092393E+04   -0.36660E-04   -0.51585E-05 21290   0.195E-02
  48 F= -.13241209E+04 E0= -.13241209E+04  d E =-.384067E-02  mag=   114.0000
       N       E                     dE             d eps       ncg     rms          rms(c)
DAV:   1    -0.132411358639E+04    0.73009E-02   -0.31875E-01 46950   0.248E+00    0.416E-01
DAV:   2    -0.132412140254E+04   -0.78161E-02   -0.71551E-02 37350   0.429E-01    0.218E-01
DAV:   3    -0.132412179471E+04   -0.39217E-03   -0.26821E-03 37080   0.116E-01    0.133E-01
DAV:   4    -0.132412160237E+04    0.19234E-03   -0.25723E-04 31440   0.422E-02    0.831E-02
DAV:   5    -0.132412167228E+04   -0.69905E-04   -0.54284E-05 20750   0.254E-02    0.603E-02
DAV:   6    -0.132412163811E+04    0.34169E-04   -0.60124E-05 23230   0.283E-02
  49 F= -.13241216E+04 E0= -.13241216E+04  d E =-.714182E-03  mag=   114.0000
       N       E                     dE             d eps       ncg     rms          rms(c)
DAV:   1    -0.132410893409E+04    0.12738E-01   -0.68929E-01 44390   0.320E+00    0.523E-01
DAV:   2    -0.132412124066E+04   -0.12307E-01   -0.11911E-01 37240   0.568E-01    0.265E-01
DAV:   3    -0.132412168877E+04   -0.44811E-03   -0.36887E-03 36810   0.134E-01    0.154E-01
DAV:   4    -0.132412149424E+04    0.19454E-03   -0.32889E-04 33070   0.463E-02    0.104E-01
DAV:   5    -0.132412152509E+04   -0.30853E-04   -0.84978E-05 21450   0.337E-02
  50 F= -.13241215E+04 E0= -.13241215E+04  d E =0.113020E-03  mag=   114.0000
       N       E                     dE             d eps       ncg     rms          rms(c)
DAV:   1    -0.132395815944E+04    0.16333E+00   -0.62196E+00 46130   0.106E+01    0.187E+00
DAV:   2    -0.132411204012E+04   -0.15388E+00   -0.14123E+00 36550   0.181E+00    0.909E-01
DAV:   3    -0.132411507183E+04   -0.30317E-02   -0.39965E-02 37070   0.383E-01    0.430E-01
DAV:   4    -0.132411497286E+04    0.98968E-04   -0.25441E-03 39420   0.853E-02    0.331E-01
DAV:   5    -0.132411445185E+04    0.52101E-03   -0.45112E-04 43100   0.838E-02    0.194E-01
DAV:   6    -0.132411427661E+04    0.17524E-03   -0.55275E-04 43480   0.812E-02    0.811E-02
DAV:   7    -0.132411442389E+04   -0.14729E-03   -0.31839E-04 35320   0.513E-02    0.496E-02
DAV:   8    -0.132411435652E+04    0.67374E-04   -0.41670E-05 20120   0.211E-02    0.192E-02
DAV:   9    -0.132411439514E+04   -0.38621E-04   -0.68264E-06 18200   0.801E-03
  51 F= -.13241144E+04 E0= -.13241144E+04  d E =0.712995E-02  mag=   114.0000
       N       E                     dE             d eps       ncg     rms          rms(c)
DAV:   1    -0.132405849139E+04    0.55865E-01   -0.20271E+00 49490   0.684E+00    0.121E+00
DAV:   2    -0.132412135684E+04   -0.62865E-01   -0.54253E-01 37390   0.112E+00    0.596E-01
DAV:   3    -0.132412287661E+04   -0.15198E-02   -0.20632E-02 37200   0.292E-01    0.313E-01
DAV:   4    -0.132412325142E+04   -0.37482E-03   -0.16582E-03 38350   0.966E-02    0.202E-01
DAV:   5    -0.132412291230E+04    0.33912E-03   -0.42461E-04 36130   0.652E-02    0.145E-01
DAV:   6    -0.132412292656E+04   -0.14255E-04   -0.35149E-04 36740   0.681E-02
  52 F= -.13241229E+04 E0= -.13241229E+04  d E =-.853142E-02  mag=   114.0000
       N       E                     dE             d eps       ncg     rms          rms(c)
DAV:   1    -0.132411963300E+04    0.32793E-02   -0.25012E-01 44250   0.187E+00    0.287E-01
DAV:   2    -0.132412381685E+04   -0.41838E-02   -0.40164E-02 36970   0.333E-01    0.164E-01
DAV:   3    -0.132412368351E+04    0.13334E-03   -0.14432E-03 36490   0.937E-02    0.109E-01
DAV:   4    -0.132412379487E+04   -0.11137E-03   -0.15531E-04 27090   0.367E-02    0.612E-02
DAV:   5    -0.132412370823E+04    0.86636E-04   -0.31976E-05 19760   0.194E-02    0.433E-02
DAV:   6    -0.132412371516E+04   -0.69248E-05   -0.37687E-05 19550   0.205E-02
  53 F= -.13241237E+04 E0= -.13241237E+04  d E =-.788601E-03  mag=   114.0000
       N       E                     dE             d eps       ncg     rms          rms(c)
DAV:   1    -0.132411868441E+04    0.50238E-02   -0.44804E-01 42710   0.223E+00    0.333E-01
DAV:   2    -0.132412427184E+04   -0.55874E-02   -0.57878E-02 37170   0.407E-01    0.188E-01
DAV:   3    -0.132412411378E+04    0.15806E-03   -0.19667E-03 36450   0.107E-01    0.125E-01
DAV:   4    -0.132412424029E+04   -0.12651E-03   -0.22268E-04 31300   0.431E-02    0.740E-02
DAV:   5    -0.132412412896E+04    0.11133E-03   -0.48857E-05 20680   0.235E-02    0.525E-02
DAV:   6    -0.132412414763E+04   -0.18673E-04   -0.56244E-05 22560   0.243E-02
  54 F= -.13241241E+04 E0= -.13241241E+04  d E =-.432471E-03  mag=   114.0000
       N       E                     dE             d eps       ncg     rms          rms(c)
DAV:   1    -0.132411692804E+04    0.72009E-02   -0.56664E-01 44030   0.259E+00    0.392E-01
DAV:   2    -0.132412425385E+04   -0.73258E-02   -0.74760E-02 36340   0.458E-01    0.195E-01
DAV:   3    -0.132412422254E+04    0.31304E-04   -0.21989E-03 36530   0.981E-02    0.103E-01
DAV:   4    -0.132412428724E+04   -0.64694E-04   -0.20162E-04 29450   0.368E-02    0.744E-02
DAV:   5    -0.132412417770E+04    0.10954E-03   -0.60626E-05 20220   0.266E-02    0.516E-02
DAV:   6    -0.132412423170E+04   -0.54003E-04   -0.60786E-05 21220   0.272E-02    0.193E-02
DAV:   7    -0.132412421451E+04    0.17191E-04   -0.29968E-05 18040   0.124E-02
  55 F= -.13241242E+04 E0= -.13241242E+04  d E =-.668820E-04  mag=   114.0000
       N       E                     dE             d eps       ncg     rms          rms(c)
DAV:   1    -0.132410189915E+04    0.22333E-01   -0.23653E+00 41870   0.463E+00    0.696E-01
DAV:   2    -0.132412369991E+04   -0.21801E-01   -0.24214E-01 35680   0.838E-01    0.336E-01
DAV:   3    -0.132412384523E+04   -0.14531E-03   -0.67134E-03 36900   0.158E-01    0.160E-01
DAV:   4    -0.132412372494E+04    0.12029E-03   -0.40685E-04 34140   0.374E-02    0.117E-01
DAV:   5    -0.132412360031E+04    0.12463E-03   -0.15252E-04 28270   0.449E-02    0.691E-02
DAV:   6    -0.132412370475E+04   -0.10445E-03   -0.17771E-04 31490   0.376E-02    0.429E-02
DAV:   7    -0.132412359733E+04    0.10742E-03   -0.57977E-05 19570   0.227E-02    0.164E-02
DAV:   8    -0.132412363845E+04   -0.41124E-04   -0.93399E-06 17950   0.797E-03
  56 F= -.13241236E+04 E0= -.13241236E+04  d E =0.576059E-03  mag=   114.0000
       N       E                     dE             d eps       ncg     rms          rms(c)
DAV:   1    -0.132411210233E+04    0.11495E-01   -0.69983E-01 43950   0.317E+00    0.491E-01
DAV:   2    -0.132412341830E+04   -0.11316E-01   -0.11260E-01 36510   0.563E-01    0.247E-01
DAV:   3    -0.132412375735E+04   -0.33905E-03   -0.33241E-03 36380   0.126E-01    0.134E-01
DAV:   4    -0.132412359759E+04    0.15975E-03   -0.29603E-04 32610   0.443E-02    0.939E-02
DAV:   5    -0.132412366166E+04   -0.64063E-04   -0.70436E-05 20790   0.301E-02    0.678E-02
DAV:   6    -0.132412359574E+04    0.65912E-04   -0.88904E-05 23590   0.353E-02    0.263E-02
DAV:   7    -0.132412363072E+04   -0.34976E-04   -0.49025E-05 18230   0.167E-02
  57 F= -.13241236E+04 E0= -.13241236E+04  d E =0.773378E-05  mag=   114.0000
       N       E                     dE             d eps       ncg     rms          rms(c)
DAV:   1    -0.132412143472E+04    0.21610E-02   -0.10119E-01 48430   0.145E+00    0.224E-01
DAV:   2    -0.132412385273E+04   -0.24180E-02   -0.22916E-02 36850   0.245E-01    0.118E-01
DAV:   3    -0.132412402907E+04   -0.17633E-03   -0.81531E-04 35080   0.616E-02    0.655E-02
DAV:   4    -0.132412393956E+04    0.89504E-04   -0.70739E-05 22840   0.227E-02    0.439E-02
DAV:   5    -0.132412398438E+04   -0.44819E-04   -0.18843E-05 18650   0.149E-02
  58 F= -.13241240E+04 E0= -.13241240E+04  d E =-.353661E-03  mag=   114.0000
       N       E                     dE             d eps       ncg     rms          rms(c)
DAV:   1    -0.132411496046E+04    0.89791E-02   -0.47389E-01 43870   0.260E+00    0.431E-01
DAV:   2    -0.132412343401E+04   -0.84735E-02   -0.83686E-02 35980   0.465E-01    0.202E-01
DAV:   3    -0.132412363296E+04   -0.19895E-03   -0.22877E-03 37030   0.925E-02    0.993E-02
DAV:   4    -0.132412359206E+04    0.40899E-04   -0.13917E-04 26130   0.197E-02
  59 F= -.13241236E+04 E0= -.13241236E+04  d E =0.392319E-03  mag=   114.0000
       N       E                     dE             d eps       ncg     rms          rms(c)
DAV:   1    -0.132402386186E+04    0.99771E-01   -0.55873E+00 44690   0.883E+00    0.143E+00
DAV:   2    -0.132412029088E+04   -0.96429E-01   -0.93623E-01 34970   0.154E+00    0.711E-01
DAV:   3    -0.132412158489E+04   -0.12940E-02   -0.26603E-02 36880   0.303E-01    0.328E-01
DAV:   4    -0.132412134240E+04    0.24249E-03   -0.16438E-03 40470   0.662E-02    0.253E-01
DAV:   5    -0.132412096009E+04    0.38231E-03   -0.38090E-04 36760   0.875E-02    0.119E-01
DAV:   6    -0.132412083068E+04    0.12941E-03   -0.48337E-04 40300   0.560E-02    0.585E-02
DAV:   7    -0.132412100311E+04   -0.17242E-03   -0.13200E-04 25870   0.341E-02    0.297E-02
DAV:   8    -0.132412094737E+04    0.55735E-04   -0.15783E-05 18020   0.120E-02    0.149E-02
DAV:   9    -0.132412094121E+04    0.61651E-05   -0.42563E-06 17920   0.613E-03
  60 F= -.13241209E+04 E0= -.13241209E+04  d E =0.265086E-02  mag=   114.0000
       N       E                     dE             d eps       ncg     rms          rms(c)
DAV:   1    -0.132409814011E+04    0.22807E-01   -0.11134E+00 44920   0.422E+00    0.700E-01
DAV:   2    -0.132412012353E+04   -0.21983E-01   -0.21007E-01 36060   0.742E-01    0.333E-01
DAV:   3    -0.132412055552E+04   -0.43198E-03   -0.60553E-03 36890   0.150E-01    0.156E-01
DAV:   4    -0.132412054720E+04    0.83199E-05   -0.37774E-04 30520   0.357E-02
  61 F= -.13241205E+04 E0= -.13241205E+04  d E =0.394009E-03  mag=   114.0000
       N       E                     dE             d eps       ncg     rms          rms(c)
DAV:   1    -0.132410991752E+04    0.10638E-01   -0.62613E-01 44820   0.304E+00    0.510E-01
DAV:   2    -0.132412159268E+04   -0.11675E-01   -0.10902E-01 35680   0.535E-01    0.248E-01
DAV:   3    -0.132412153043E+04    0.62249E-04   -0.36370E-03 36820   0.134E-01    0.139E-01
DAV:   4    -0.132412172544E+04   -0.19501E-03   -0.37441E-04 33120   0.542E-02    0.836E-02
DAV:   5    -0.132412158663E+04    0.13881E-03   -0.43901E-05 19930   0.258E-02    0.585E-02
DAV:   6    -0.132412157088E+04    0.15749E-04   -0.50822E-05 19340   0.280E-02
  62 F= -.13241216E+04 E0= -.13241216E+04  d E =-.102368E-02  mag=   114.0000
       N       E                     dE             d eps       ncg     rms          rms(c)
DAV:   1    -0.132411375370E+04    0.78329E-02   -0.32735E-01 46130   0.234E+00    0.419E-01
DAV:   2    -0.132412138370E+04   -0.76300E-02   -0.72215E-02 35910   0.409E-01    0.198E-01
DAV:   3    -0.132412165702E+04   -0.27332E-03   -0.20579E-03 36700   0.931E-02    0.104E-01
DAV:   4    -0.132412152706E+04    0.12996E-03   -0.16895E-04 28190   0.309E-02    0.771E-02
DAV:   5    -0.132412156163E+04   -0.34571E-04   -0.27416E-05 18780   0.195E-02
  63 F= -.13241216E+04 E0= -.13241216E+04  d E =0.925201E-05  mag=   114.0000
       N       E                     dE             d eps       ncg     rms          rms(c)
DAV:   1    -0.132392536670E+04    0.19616E+00   -0.82102E+00 46400   0.115E+01    0.210E+00
DAV:   2    -0.132411599488E+04   -0.19063E+00   -0.17739E+00 35430   0.199E+00    0.100E+00
DAV:   3    -0.132411974997E+04   -0.37551E-02   -0.48997E-02 36710   0.407E-01    0.456E-01
DAV:   4    -0.132411945972E+04    0.29024E-03   -0.30918E-03 39830   0.893E-02    0.359E-01
DAV:   5    -0.132411895383E+04    0.50589E-03   -0.53186E-04 41010   0.984E-02    0.228E-01
DAV:   6    -0.132411852854E+04    0.42530E-03   -0.10753E-03 43150   0.111E-01    0.135E-01
DAV:   7    -0.132411887558E+04   -0.34704E-03   -0.50630E-04 37150   0.660E-02    0.415E-02
DAV:   8    -0.132411878715E+04    0.88431E-04   -0.39903E-05 19890   0.178E-02    0.233E-02
DAV:   9    -0.132411874937E+04    0.37778E-04   -0.94372E-06 17950   0.957E-03
  64 F= -.13241187E+04 E0= -.13241187E+04  d E =0.281226E-02  mag=   114.0000
       N       E                     dE             d eps       ncg     rms          rms(c)
DAV:   1    -0.132407083537E+04    0.47952E-01   -0.12810E+00 49260   0.543E+00    0.105E+00
DAV:   2    -0.132411934916E+04   -0.48514E-01   -0.42623E-01 36500   0.886E-01    0.493E-01
DAV:   3    -0.132412083192E+04   -0.14828E-02   -0.12972E-02 36810   0.197E-01    0.226E-01
DAV:   4    -0.132412085042E+04   -0.18492E-04   -0.76851E-04 36730   0.427E-02    0.173E-01
DAV:   5    -0.132412077590E+04    0.74518E-04   -0.11273E-04 27610   0.428E-02    0.106E-01
DAV:   6    -0.132412069777E+04    0.78129E-04   -0.14016E-04 29970   0.414E-02    0.424E-02
DAV:   7    -0.132412078549E+04   -0.87721E-04   -0.65735E-05 22580   0.241E-02    0.197E-02
DAV:   8    -0.132412077758E+04    0.79130E-05   -0.10416E-05 17980   0.922E-03
  65 F= -.13241208E+04 E0= -.13241208E+04  d E =-.202821E-02  mag=   114.0000
       N       E                     dE             d eps       ncg     rms          rms(c)
DAV:   1    -0.132411605587E+04    0.47296E-02   -0.32879E-01 43240   0.214E+00    0.373E-01
DAV:   2    -0.132412230106E+04   -0.62452E-02   -0.60443E-02 36930   0.387E-01    0.180E-01
DAV:   3    -0.132412239982E+04   -0.98767E-04   -0.17993E-03 36970   0.847E-02    0.987E-02
DAV:   4    -0.132412242330E+04   -0.23474E-04   -0.11955E-04 26260   0.219E-02
  66 F= -.13241224E+04 E0= -.13241224E+04  d E =-.164572E-02  mag=   114.0000
       N       E                     dE             d eps       ncg     rms          rms(c)
DAV:   1    -0.132411046950E+04    0.11930E-01   -0.42128E-01 48430   0.305E+00    0.516E-01
DAV:   2    -0.132412292411E+04   -0.12455E-01   -0.11320E-01 36360   0.498E-01    0.248E-01
DAV:   3    -0.132412329589E+04   -0.37177E-03   -0.33717E-03 36270   0.114E-01    0.124E-01
DAV:   4    -0.132412333957E+04   -0.43686E-04   -0.22110E-04 30150   0.319E-02
  67 F= -.13241233E+04 E0= -.13241233E+04  d E =-.916275E-03  mag=   114.0000
       N       E                     dE             d eps       ncg     rms          rms(c)
DAV:   1    -0.132396904598E+04    0.15425E+00   -0.64459E+00 48560   0.110E+01    0.174E+00
DAV:   2    -0.132411712164E+04   -0.14808E+00   -0.13259E+00 35380   0.176E+00    0.862E-01
DAV:   3    -0.132412153931E+04   -0.44177E-02   -0.42020E-02 36030   0.399E-01    0.399E-01
DAV:   4    -0.132412172962E+04   -0.19030E-03   -0.26877E-03 40260   0.115E-01    0.288E-01
DAV:   5    -0.132412128686E+04    0.44275E-03   -0.10036E-03 40210   0.119E-01    0.203E-01
DAV:   6    -0.132412130188E+04   -0.15023E-04   -0.10500E-03 39900   0.108E-01    0.929E-02
DAV:   7    -0.132412111987E+04    0.18201E-03   -0.31723E-04 35470   0.515E-02    0.380E-02
DAV:   8    -0.132412129295E+04   -0.17307E-03   -0.38462E-05 20450   0.177E-02    0.238E-02
DAV:   9    -0.132412126330E+04    0.29644E-04   -0.75741E-06 18030   0.922E-03
  68 F= -.13241213E+04 E0= -.13241213E+04  d E =0.207627E-02  mag=   114.0000
       N       E                     dE             d eps       ncg     rms          rms(c)
DAV:   1    -0.132403092807E+04    0.90365E-01   -0.52069E+00 42830   0.835E+00    0.137E+00
DAV:   2    -0.132411736606E+04   -0.86438E-01   -0.83762E-01 37030   0.150E+00    0.720E-01
DAV:   3    -0.132411984383E+04   -0.24778E-02   -0.29847E-02 36900   0.388E-01    0.446E-01
DAV:   4    -0.132411895367E+04    0.89016E-03   -0.28679E-03 39210   0.142E-01    0.277E-01
DAV:   5    -0.132411908662E+04   -0.13295E-03   -0.60527E-04 36350   0.825E-02    0.199E-01
DAV:   6    -0.132411881205E+04    0.27457E-03   -0.73295E-04 40940   0.966E-02    0.915E-02
DAV:   7    -0.132411892119E+04   -0.10914E-03   -0.38007E-04 38030   0.567E-02    0.536E-02
DAV:   8    -0.132411893228E+04   -0.11084E-04   -0.61593E-05 21190   0.250E-02
  69 F= -.13241189E+04 E0= -.13241189E+04  d E =0.233103E-02  mag=   114.0000
       N       E                     dE             d eps       ncg     rms          rms(c)
DAV:   1    -0.132406706550E+04    0.51856E-01   -0.15722E+00 49150   0.660E+00    0.109E+00
DAV:   2    -0.132412244926E+04   -0.55384E-01   -0.48163E-01 37470   0.107E+00    0.560E-01
DAV:   3    -0.132412338448E+04   -0.93522E-03   -0.17329E-02 35910   0.305E-01    0.338E-01
DAV:   4    -0.132412380142E+04   -0.41694E-03   -0.17581E-03 38610   0.112E-01    0.199E-01
DAV:   5    -0.132412345535E+04    0.34607E-03   -0.26200E-04 32180   0.536E-02    0.142E-01
DAV:   6    -0.132412334858E+04    0.10677E-03   -0.25132E-04 34530   0.620E-02    0.583E-02
DAV:   7    -0.132412337422E+04   -0.25645E-04   -0.12993E-04 29760   0.349E-02
  70 F= -.13241234E+04 E0= -.13241234E+04  d E =-.444195E-02  mag=   114.0000
       N       E                     dE             d eps       ncg     rms          rms(c)
DAV:   1    -0.132411785832E+04    0.54903E-02   -0.23788E-01 48230   0.222E+00    0.365E-01
DAV:   2    -0.132412386486E+04   -0.60065E-02   -0.53727E-02 37080   0.374E-01    0.184E-01
DAV:   3    -0.132412384545E+04    0.19410E-04   -0.18606E-03 36530   0.974E-02    0.108E-01
DAV:   4    -0.132412398556E+04   -0.14011E-03   -0.17940E-04 28720   0.360E-02    0.685E-02
DAV:   5    -0.132412388985E+04    0.95712E-04   -0.30117E-05 19310   0.198E-02    0.487E-02
DAV:   6    -0.132412388860E+04    0.12450E-05   -0.36693E-05 18840   0.227E-02
  71 F= -.13241239E+04 E0= -.13241239E+04  d E =-.514378E-03  mag=   114.0000
       N       E                     dE             d eps       ncg     rms          rms(c)
DAV:   1    -0.132409157980E+04    0.32310E-01   -0.15586E+00 46840   0.501E+00    0.832E-01
DAV:   2    -0.132412236176E+04   -0.30782E-01   -0.29023E-01 35630   0.854E-01    0.391E-01
DAV:   3    -0.132412280964E+04   -0.44788E-03   -0.87490E-03 36560   0.183E-01    0.186E-01
DAV:   4    -0.132412288091E+04   -0.71267E-04   -0.59390E-04 34720   0.507E-02    0.141E-01
DAV:   5    -0.132412270151E+04    0.17940E-03   -0.16504E-04 24830   0.493E-02    0.104E-01
DAV:   6    -0.132412273795E+04   -0.36441E-04   -0.24457E-04 31910   0.555E-02
  72 F= -.13241227E+04 E0= -.13241227E+04  d E =0.115065E-02  mag=   114.0000
       N       E                     dE             d eps       ncg     rms          rms(c)
DAV:   1    -0.132404508735E+04    0.77614E-01   -0.36879E+00 45760   0.768E+00    0.128E+00
DAV:   2    -0.132411626488E+04   -0.71178E-01   -0.66367E-01 36240   0.133E+00    0.604E-01
DAV:   3    -0.132411781934E+04   -0.15545E-02   -0.21179E-02 37110   0.285E-01    0.286E-01
DAV:   4    -0.132411779043E+04    0.28914E-04   -0.12877E-03 39150   0.635E-02    0.209E-01
DAV:   5    -0.132411760700E+04    0.18343E-03   -0.30424E-04 36100   0.649E-02    0.123E-01
DAV:   6    -0.132411742978E+04    0.17722E-03   -0.40737E-04 40360   0.651E-02    0.798E-02
DAV:   7    -0.132411762043E+04   -0.19066E-03   -0.18886E-04 29530   0.412E-02    0.274E-02
DAV:   8    -0.132411754956E+04    0.70870E-04   -0.19676E-05 18610   0.136E-02    0.143E-02
DAV:   9    -0.132411753544E+04    0.14129E-04   -0.52235E-06 18090   0.599E-03
  73 F= -.13241175E+04 E0= -.13241175E+04  d E =0.520251E-02  mag=   114.0000
       N       E                     dE             d eps       ncg     rms          rms(c)
DAV:   1    -0.132409265204E+04    0.24898E-01   -0.86382E-01 49470   0.470E+00    0.822E-01
DAV:   2    -0.132412117054E+04   -0.28519E-01   -0.24795E-01 37180   0.767E-01    0.385E-01
DAV:   3    -0.132412210924E+04   -0.93869E-03   -0.90279E-03 36880   0.186E-01    0.185E-01
DAV:   4    -0.132412219695E+04   -0.87713E-04   -0.53253E-04 33960   0.422E-02    0.129E-01
DAV:   5    -0.132412207016E+04    0.12679E-03   -0.12520E-04 28620   0.367E-02    0.861E-02
DAV:   6    -0.132412213943E+04   -0.69266E-04   -0.13537E-04 26730   0.423E-02    0.567E-02
DAV:   7    -0.132412203519E+04    0.10424E-03   -0.83999E-05 22310   0.281E-02    0.194E-02
DAV:   8    -0.132412211136E+04   -0.76177E-04   -0.13336E-05 18050   0.109E-02    0.968E-03
DAV:   9    -0.132412211257E+04   -0.12070E-05   -0.40088E-06 17920   0.511E-03
  74 F= -.13241221E+04 E0= -.13241221E+04  d E =-.457713E-02  mag=   114.0000
       N       E                     dE             d eps       ncg     rms          rms(c)
DAV:   1    -0.132411654024E+04    0.55711E-02   -0.20646E-01 48490   0.210E+00    0.360E-01
DAV:   2    -0.132412255185E+04   -0.60116E-02   -0.54498E-02 36860   0.355E-01    0.173E-01
DAV:   3    -0.132412277077E+04   -0.21892E-03   -0.17473E-03 37140   0.820E-02    0.898E-02
DAV:   4    -0.132412270768E+04    0.63083E-04   -0.11533E-04 25210   0.232E-02    0.665E-02
DAV:   5    -0.132412273923E+04   -0.31543E-04   -0.31454E-05 19360   0.203E-02
  75 F= -.13241227E+04 E0= -.13241227E+04  d E =-.626658E-03  mag=   114.0000
       N       E                     dE             d eps       ncg     rms          rms(c)
DAV:   1    -0.132410556326E+04    0.17144E-01   -0.68864E-01 45420   0.325E+00    0.593E-01
DAV:   2    -0.132412213633E+04   -0.16573E-01   -0.15299E-01 35930   0.570E-01    0.282E-01
DAV:   3    -0.132412230783E+04   -0.17150E-03   -0.39035E-03 37210   0.109E-01    0.137E-01
DAV:   4    -0.132412233176E+04   -0.23928E-04   -0.24663E-04 27670   0.283E-02
  76 F= -.13241223E+04 E0= -.13241223E+04  d E =0.407469E-03  mag=   114.0000
       N       E                     dE             d eps       ncg     rms          rms(c)
DAV:   1    -0.132312888337E+04    0.99342E+00   -0.45759E+01 45180   0.262E+01    0.459E+00
DAV:   2    -0.132409467588E+04   -0.96579E+00   -0.89220E+00 35520   0.452E+00    0.263E+00
DAV:   3    -0.132410826612E+04   -0.13590E-01   -0.24416E-01 37000   0.904E-01    0.112E+00
DAV:   4    -0.132410719676E+04    0.10694E-02   -0.15439E-02 40980   0.239E-01    0.838E-01
DAV:   5    -0.132410406661E+04    0.31301E-02   -0.31609E-03 44250   0.227E-01    0.517E-01
DAV:   6    -0.132410303700E+04    0.10296E-02   -0.53940E-03 43440   0.265E-01    0.336E-01
DAV:   7    -0.132410251933E+04    0.51767E-03   -0.29818E-03 38150   0.167E-01    0.102E-01
DAV:   8    -0.132410318802E+04   -0.66869E-03   -0.25460E-04 34060   0.467E-02    0.555E-02
DAV:   9    -0.132410308491E+04    0.10311E-03   -0.48519E-05 21130   0.234E-02    0.363E-02
DAV:  10    -0.132410306916E+04    0.15751E-04   -0.14413E-05 18650   0.139E-02
  77 F= -.13241031E+04 E0= -.13241031E+04  d E =0.192626E-01  mag=   114.0000
       N       E                     dE             d eps       ncg     rms          rms(c)
DAV:   1    -0.132364319712E+04    0.45989E+00   -0.20755E+01 45350   0.181E+01    0.327E+00
DAV:   2    -0.132411615125E+04   -0.47295E+00   -0.44132E+00 35630   0.316E+00    0.165E+00
DAV:   3    -0.132412369108E+04   -0.75398E-02   -0.12134E-01 37050   0.635E-01    0.763E-01
DAV:   4    -0.132412350944E+04    0.18164E-03   -0.79263E-03 39840   0.165E-01    0.592E-01
DAV:   5    -0.132412177346E+04    0.17360E-02   -0.16247E-03 43390   0.156E-01    0.406E-01
DAV:   6    -0.132412150386E+04    0.26960E-03   -0.29287E-03 43590   0.198E-01    0.246E-01
DAV:   7    -0.132412094478E+04    0.55908E-03   -0.15410E-03 38350   0.114E-01    0.676E-02
DAV:   8    -0.132412131747E+04   -0.37269E-03   -0.13802E-04 31550   0.347E-02    0.404E-02
DAV:   9    -0.132412135511E+04   -0.37647E-04   -0.26363E-05 19670   0.168E-02
  78 F= -.13241214E+04 E0= -.13241214E+04  d E =-.182860E-01  mag=   114.0000
       N       E                     dE             d eps       ncg     rms          rms(c)
DAV:   1    -0.132404936999E+04    0.71947E-01   -0.28987E+00 46110   0.758E+00    0.121E+00
DAV:   2    -0.132411784081E+04   -0.68471E-01   -0.63536E-01 36730   0.131E+00    0.605E-01
DAV:   3    -0.132411937425E+04   -0.15334E-02   -0.20658E-02 37120   0.300E-01    0.321E-01
DAV:   4    -0.132411921317E+04    0.16108E-03   -0.13436E-03 38590   0.802E-02    0.226E-01
DAV:   5    -0.132411923138E+04   -0.18212E-04   -0.38018E-04 35170   0.700E-02
  79 F= -.13241192E+04 E0= -.13241192E+04  d E =0.212373E-02  mag=   114.0000
       N       E                     dE             d eps       ncg     rms          rms(c)
DAV:   1    -0.132408305144E+04    0.36162E-01   -0.16308E+00 46340   0.558E+00    0.929E-01
DAV:   2    -0.132412234413E+04   -0.39293E-01   -0.35684E-01 35870   0.978E-01    0.499E-01
DAV:   3    -0.132412285241E+04   -0.50828E-03   -0.14526E-02 36900   0.303E-01    0.331E-01
DAV:   4    -0.132412316159E+04   -0.30918E-03   -0.16130E-03 38120   0.117E-01    0.165E-01
DAV:   5    -0.132412280320E+04    0.35839E-03   -0.14637E-04 28580   0.418E-02    0.122E-01
DAV:   6    -0.132412266115E+04    0.14204E-03   -0.18252E-04 31820   0.540E-02    0.523E-02
DAV:   7    -0.132412267951E+04   -0.18351E-04   -0.10448E-04 26500   0.245E-02
  80 F= -.13241227E+04 E0= -.13241227E+04  d E =-.344813E-02  mag=   114.0000
       N       E                     dE             d eps       ncg     rms          rms(c)
DAV:   1    -0.132411678950E+04    0.58717E-02   -0.20136E-01 46120   0.198E+00    0.357E-01
DAV:   2    -0.132412274317E+04   -0.59537E-02   -0.54061E-02 35900   0.339E-01    0.169E-01
DAV:   3    -0.132412285817E+04   -0.11500E-03   -0.15708E-03 36400   0.721E-02    0.833E-02
DAV:   4    -0.132412283443E+04    0.23745E-04   -0.95499E-05 23410   0.190E-02
  81 F= -.13241228E+04 E0= -.13241228E+04  d E =-.154921E-03  mag=   114.0000
       N       E                     dE             d eps       ncg     rms          rms(c)
DAV:   1    -0.132340408087E+04    0.71878E+00   -0.24358E+01 46570   0.209E+01    0.393E+00
DAV:   2    -0.132410056244E+04   -0.69648E+00   -0.62799E+00 35330   0.350E+00    0.220E+00
DAV:   3    -0.132411337975E+04   -0.12817E-01   -0.18499E-01 37000   0.744E-01    0.958E-01
DAV:   4    -0.132411298678E+04    0.39297E-03   -0.11541E-02 41280   0.178E-01    0.738E-01
DAV:   5    -0.132411088560E+04    0.21012E-02   -0.13946E-03 45040   0.153E-01    0.458E-01
DAV:   6    -0.132410964134E+04    0.12443E-02   -0.30697E-03 44460   0.207E-01    0.281E-01
DAV:   7    -0.132411000987E+04   -0.36853E-03   -0.20120E-03 38520   0.132E-01    0.867E-02
DAV:   8    -0.132410992631E+04    0.83568E-04   -0.14467E-04 32640   0.331E-02    0.389E-02
DAV:   9    -0.132410989571E+04    0.30598E-04   -0.18060E-05 18730   0.143E-02
  82 F= -.13241099E+04 E0= -.13241099E+04  d E =0.129387E-01  mag=   114.0000
       N       E                     dE             d eps       ncg     rms          rms(c)
DAV:   1    -0.132383744137E+04    0.27248E+00   -0.75118E+00 47600   0.128E+01    0.252E+00
DAV:   2    -0.132411607652E+04   -0.27864E+00   -0.24642E+00 35510   0.213E+00    0.125E+00
DAV:   3    -0.132412206883E+04   -0.59923E-02   -0.72663E-02 36990   0.455E-01    0.560E-01
DAV:   4    -0.132412240219E+04   -0.33336E-03   -0.46394E-03 39550   0.978E-02    0.446E-01
DAV:   5    -0.132412153129E+04    0.87089E-03   -0.33120E-04 39900   0.825E-02    0.280E-01
DAV:   6    -0.132412116789E+04    0.36340E-03   -0.69222E-04 45380   0.949E-02    0.795E-02
DAV:   7    -0.132412125702E+04   -0.89129E-04   -0.39104E-04 36690   0.463E-02    0.547E-02
DAV:   8    -0.132412141082E+04   -0.15380E-03   -0.46085E-05 19700   0.222E-02    0.215E-02
DAV:   9    -0.132412135651E+04    0.54308E-04   -0.57152E-06 17950   0.791E-03    0.129E-02
DAV:  10    -0.132412133200E+04    0.24513E-04   -0.35072E-06 17920   0.621E-03
  83 F= -.13241213E+04 E0= -.13241213E+04  d E =-.114363E-01  mag=   114.0000
       N       E                     dE             d eps       ncg     rms          rms(c)
DAV:   1    -0.132405079014E+04    0.70566E-01   -0.24334E+00 46270   0.682E+00    0.118E+00
DAV:   2    -0.132412099011E+04   -0.70200E-01   -0.61936E-01 35900   0.112E+00    0.603E-01
DAV:   3    -0.132412236771E+04   -0.13776E-02   -0.20546E-02 37210   0.244E-01    0.282E-01
DAV:   4    -0.132412242796E+04   -0.60252E-04   -0.11645E-03 40200   0.560E-02    0.203E-01
DAV:   5    -0.132412226228E+04    0.16568E-03   -0.19944E-04 34170   0.577E-02    0.110E-01
DAV:   6    -0.132412208118E+04    0.18110E-03   -0.21030E-04 37140   0.487E-02    0.491E-02
DAV:   7    -0.132412222208E+04   -0.14090E-03   -0.96027E-05 24870   0.292E-02    0.241E-02
DAV:   8    -0.132412217721E+04    0.44873E-04   -0.13535E-05 18510   0.108E-02
  84 F= -.13241222E+04 E0= -.13241222E+04  d E =-.845209E-03  mag=   114.0000
       N       E                     dE             d eps       ncg     rms          rms(c)
DAV:   1    -0.132409793794E+04    0.24284E-01   -0.84231E-01 46200   0.410E+00    0.714E-01
DAV:   2    -0.132412265168E+04   -0.24714E-01   -0.22151E-01 35870   0.693E-01    0.351E-01
DAV:   3    -0.132412310039E+04   -0.44871E-03   -0.67244E-03 37160   0.146E-01    0.169E-01
DAV:   4    -0.132412311247E+04   -0.12089E-04   -0.38693E-04 31070   0.330E-02
  85 F= -.13241231E+04 E0= -.13241231E+04  d E =-.935266E-03  mag=   114.0000
       N       E                     dE             d eps       ncg     rms          rms(c)
DAV:   1    -0.132405923745E+04    0.63863E-01   -0.22174E+00 45860   0.632E+00    0.108E+00
DAV:   2    -0.132412043574E+04   -0.61198E-01   -0.55620E-01 35610   0.106E+00    0.553E-01
DAV:   3    -0.132412111440E+04   -0.67866E-03   -0.15889E-02 37100   0.215E-01    0.277E-01
DAV:   4    -0.132412121678E+04   -0.10238E-03   -0.97573E-04 39050   0.562E-02    0.215E-01
DAV:   5    -0.132412084161E+04    0.37516E-03   -0.26804E-04 32040   0.725E-02    0.135E-01
DAV:   6    -0.132412093740E+04   -0.95788E-04   -0.46932E-04 39360   0.729E-02    0.753E-02
DAV:   7    -0.132412074930E+04    0.18810E-03   -0.15704E-04 27750   0.387E-02    0.221E-02
DAV:   8    -0.132412083663E+04   -0.87331E-04   -0.15168E-05 18180   0.116E-02    0.150E-02
DAV:   9    -0.132412085885E+04   -0.22220E-04   -0.40962E-06 17960   0.624E-03
  86 F= -.13241209E+04 E0= -.13241209E+04  d E =0.225362E-02  mag=   114.0000
       N       E                     dE             d eps       ncg     rms          rms(c)
DAV:   1    -0.132410422464E+04    0.16612E-01   -0.52737E-01 46120   0.333E+00    0.600E-01
DAV:   2    -0.132412105115E+04   -0.16827E-01   -0.15092E-01 36310   0.572E-01    0.282E-01
DAV:   3    -0.132412124237E+04   -0.19122E-03   -0.45867E-03 37080   0.124E-01    0.138E-01
DAV:   4    -0.132412127414E+04   -0.31770E-04   -0.27428E-04 28700   0.271E-02
  87 F= -.13241213E+04 E0= -.13241213E+04  d E =-.415291E-03  mag=   114.0000
       N       E                     dE             d eps       ncg     rms          rms(c)
DAV:   1    -0.132402503266E+04    0.96210E-01   -0.28698E+00 47640   0.808E+00    0.133E+00
DAV:   2    -0.132411882390E+04   -0.93791E-01   -0.81186E-01 35600   0.126E+00    0.716E-01
DAV:   3    -0.132412051406E+04   -0.16902E-02   -0.26406E-02 36910   0.279E-01    0.323E-01
DAV:   4    -0.132412062201E+04   -0.10795E-03   -0.15247E-03 39880   0.753E-02    0.239E-01
DAV:   5    -0.132412052520E+04    0.96811E-04   -0.42900E-04 35230   0.840E-02    0.159E-01
DAV:   6    -0.132412016097E+04    0.36423E-03   -0.63018E-04 38950   0.892E-02    0.904E-02
DAV:   7    -0.132412039145E+04   -0.23048E-03   -0.19496E-04 30110   0.442E-02    0.218E-02
DAV:   8    -0.132412035080E+04    0.40650E-04   -0.18552E-05 18410   0.974E-03
  88 F= -.13241204E+04 E0= -.13241204E+04  d E =0.923347E-03  mag=   114.0000
       N       E                     dE             d eps       ncg     rms          rms(c)
DAV:   1    -0.132410618900E+04    0.14202E-01   -0.37487E-01 49090   0.330E+00    0.569E-01
DAV:   2    -0.132412122067E+04   -0.15032E-01   -0.13065E-01 36960   0.539E-01    0.278E-01
DAV:   3    -0.132412156837E+04   -0.34770E-03   -0.44039E-03 37100   0.125E-01    0.134E-01
DAV:   4    -0.132412157923E+04   -0.10859E-04   -0.24516E-04 28500   0.295E-02
  89 F= -.13241216E+04 E0= -.13241216E+04  d E =-.122843E-02  mag=   114.0000
       N       E                     dE             d eps       ncg     rms          rms(c)
DAV:   1    -0.132411141971E+04    0.10149E-01   -0.28983E-01 47330   0.250E+00    0.445E-01
DAV:   2    -0.132412142284E+04   -0.10003E-01   -0.87583E-02 35520   0.403E-01    0.230E-01
DAV:   3    -0.132412170837E+04   -0.28552E-03   -0.30086E-03 36930   0.968E-02    0.116E-01
DAV:   4    -0.132412165266E+04    0.55703E-04   -0.21489E-04 27560   0.353E-02    0.841E-02
DAV:   5    -0.132412168372E+04   -0.31060E-04   -0.51034E-05 20320   0.287E-02
  90 F= -.13241217E+04 E0= -.13241217E+04  d E =-.104495E-03  mag=   114.0000
       N       E                     dE             d eps       ncg     rms          rms(c)
DAV:   1    -0.132410746060E+04    0.14192E-01   -0.49924E-01 46490   0.306E+00    0.518E-01
DAV:   2    -0.132412093023E+04   -0.13470E-01   -0.12052E-01 36240   0.503E-01    0.265E-01
DAV:   3    -0.132412109282E+04   -0.16259E-03   -0.38907E-03 37210   0.112E-01    0.129E-01
DAV:   4    -0.132412120505E+04   -0.11223E-03   -0.26992E-04 29790   0.392E-02    0.935E-02
DAV:   5    -0.132412109190E+04    0.11316E-03   -0.72968E-05 21300   0.322E-02    0.689E-02
DAV:   6    -0.132412113934E+04   -0.47443E-04   -0.79371E-05 23690   0.344E-02
  91 F= -.13241211E+04 E0= -.13241211E+04  d E =0.544383E-03  mag=   114.0000
       N       E                     dE             d eps       ncg     rms          rms(c)
DAV:   1    -0.132410168277E+04    0.19409E-01   -0.94179E-01 44670   0.372E+00    0.657E-01
DAV:   2    -0.132412045640E+04   -0.18774E-01   -0.17769E-01 36440   0.651E-01    0.307E-01
DAV:   3    -0.132412070610E+04   -0.24970E-03   -0.50113E-03 37000   0.132E-01    0.146E-01
DAV:   4    -0.132412071408E+04   -0.79828E-05   -0.29852E-04 29210   0.283E-02
  92 F= -.13241207E+04 E0= -.13241207E+04  d E =0.425259E-03  mag=   114.0000
       N       E                     dE             d eps       ncg     rms          rms(c)
DAV:   1    -0.132410880394E+04    0.11902E-01   -0.51137E-01 44870   0.300E+00    0.511E-01
DAV:   2    -0.132412119289E+04   -0.12389E-01   -0.11630E-01 36930   0.522E-01    0.249E-01
DAV:   3    -0.132412131133E+04   -0.11843E-03   -0.30641E-03 36880   0.107E-01    0.129E-01
DAV:   4    -0.132412134288E+04   -0.31554E-04   -0.21690E-04 28980   0.320E-02
  93 F= -.13241213E+04 E0= -.13241213E+04  d E =-.628799E-03  mag=   114.0000
       N       E                     dE             d eps       ncg     rms          rms(c)
DAV:   1    -0.132411789955E+04    0.34118E-02   -0.92664E-02 48460   0.157E+00    0.287E-01
DAV:   2    -0.132412148447E+04   -0.35849E-02   -0.30233E-02 36880   0.268E-01    0.151E-01
DAV:   3    -0.132412142061E+04    0.63860E-04   -0.13195E-03 36780   0.894E-02    0.996E-02
DAV:   4    -0.132412156190E+04   -0.14129E-03   -0.14482E-04 25650   0.362E-02    0.505E-02
DAV:   5    -0.132412148648E+04    0.75420E-04   -0.13416E-05 18130   0.143E-02    0.356E-02
DAV:   6    -0.132412148352E+04    0.29559E-05   -0.14480E-05 18010   0.146E-02
  94 F= -.13241215E+04 E0= -.13241215E+04  d E =-.140641E-03  mag=   114.0000
       N       E                     dE             d eps       ncg     rms          rms(c)
DAV:   1    -0.132412056074E+04    0.92573E-03   -0.27441E-02 47280   0.823E-01    0.142E-01
DAV:   2    -0.132412151571E+04   -0.95497E-03   -0.84725E-03 36900   0.139E-01    0.672E-02
DAV:   3    -0.132412154217E+04   -0.26454E-04   -0.24639E-04 27230   0.309E-02    0.340E-02
DAV:   4    -0.132412152709E+04    0.15081E-04   -0.19218E-05 18700   0.104E-02
  95 F= -.13241215E+04 E0= -.13241215E+04  d E =-.435650E-04  mag=   114.0000
