       N       E                     dE             d eps       ncg     rms          rms(c)
DAV:   1     0.112453097733E+05    0.11245E+05   -0.43017E+05 34730   0.160E+03
DAV:   2     0.261389245371E+02   -0.11219E+05   -0.10204E+05 34160   0.487E+02
DAV:   3    -0.160861685060E+04   -0.16348E+04   -0.15492E+04 36430   0.198E+02
DAV:   4    -0.169260875630E+04   -0.83992E+02   -0.82784E+02 39210   0.456E+01
DAV:   5    -0.169367986809E+04   -0.10711E+01   -0.10678E+01 37600   0.558E+00    0.146E+02
DAV:   6    -0.128379685547E+04    0.40988E+03   -0.81038E+02 40920   0.759E+01    0.119E+02
DAV:   7    -0.133407596000E+04   -0.50279E+02   -0.35723E+02 36970   0.649E+01    0.872E+01
DAV:   8    -0.130852497708E+04    0.25551E+02   -0.49461E+01 38720   0.228E+01    0.687E+01
DAV:   9    -0.131649576813E+04   -0.79708E+01   -0.54302E+01 37090   0.315E+01    0.647E+01
DAV:  10    -0.132069152820E+04   -0.41958E+01   -0.44404E+01 37780   0.182E+01    0.449E+01
DAV:  11    -0.131967541939E+04    0.10161E+01   -0.13341E+01 37000   0.109E+01    0.284E+01
DAV:  12    -0.131890856046E+04    0.76686E+00   -0.46907E+00 40610   0.811E+00    0.196E+01
DAV:  13    -0.132350208000E+04   -0.45935E+01   -0.37107E+01 37000   0.537E+00    0.338E+01
DAV:  14    -0.131971580576E+04    0.37863E+01   -0.44869E+00 37460   0.456E+00    0.185E+01
DAV:  15    -0.132140071120E+04   -0.16849E+01   -0.19188E+00 35890   0.171E+00    0.195E+01
DAV:  16    -0.132159748345E+04   -0.19677E+00   -0.26965E-01 36340   0.683E-01    0.186E+01
DAV:  17    -0.132195401611E+04   -0.35653E+00   -0.18864E+00 38340   0.940E-01    0.168E+01
DAV:  18    -0.132228210926E+04   -0.32809E+00   -0.37735E-01 37450   0.665E-01    0.163E+01
DAV:  19    -0.132255242421E+04   -0.27031E+00   -0.25224E-01 41910   0.167E+00    0.139E+01
DAV:  20    -0.132196737990E+04    0.58504E+00   -0.10638E+00 39640   0.385E+00    0.149E+01
DAV:  21    -0.132186648326E+04    0.10090E+00   -0.52848E-01 42290   0.173E+00    0.156E+01
DAV:  22    -0.132259393236E+04   -0.72745E+00   -0.68897E-01 42840   0.190E+00    0.145E+01
DAV:  23    -0.132280352267E+04   -0.20959E+00   -0.68966E-01 35700   0.978E-01    0.163E+01
DAV:  24    -0.132321403320E+04   -0.41051E+00   -0.12637E-01 38170   0.117E+00    0.172E+01
DAV:  25    -0.132361998859E+04   -0.40596E+00   -0.91031E-02 45800   0.116E+00    0.176E+01
DAV:  26    -0.132406931420E+04   -0.44933E+00   -0.10499E-01 47800   0.121E+00    0.188E+01
DAV:  27    -0.132441445183E+04   -0.34514E+00   -0.88248E-02 47390   0.954E-01    0.214E+01
DAV:  28    -0.132477261260E+04   -0.35816E+00   -0.12549E+00 35280   0.717E-01    0.290E+01
DAV:  29    -0.132534290447E+04   -0.57029E+00   -0.50012E-01 35080   0.131E+00    0.301E+01
DAV:  30    -0.132544312794E+04   -0.10022E+00   -0.16095E-01 36270   0.484E-01    0.307E+01
DAV:  31    -0.132551070458E+04   -0.67577E-01   -0.15191E-01 34760   0.363E-01    0.312E+01
DAV:  32    -0.132555671075E+04   -0.46006E-01   -0.28481E-02 34950   0.291E-01    0.314E+01
DAV:  33    -0.132553777182E+04    0.18939E-01   -0.42311E-03 36990   0.218E-01    0.314E+01
DAV:  34    -0.132549773849E+04    0.40033E-01   -0.32149E-03 42790   0.233E-01    0.313E+01
DAV:  35    -0.132540522399E+04    0.92514E-01   -0.29218E-02 44620   0.632E-01    0.311E+01
DAV:  36    -0.132540164963E+04    0.35744E-02   -0.52812E-02 45990   0.388E-01    0.308E+01
DAV:  37    -0.132524853493E+04    0.15311E+00   -0.70457E-01 41430   0.650E-01    0.311E+01
DAV:  38    -0.132550077042E+04   -0.25224E+00   -0.85415E-01 35080   0.929E-01    0.317E+01
DAV:  39    -0.132557037385E+04   -0.69603E-01   -0.34972E-02 35630   0.381E-01    0.318E+01
DAV:  40    -0.132562789329E+04   -0.57519E-01   -0.52685E-03 38610   0.177E-01    0.318E+01
DAV:  41    -0.132563445966E+04   -0.65664E-02   -0.75537E-03 43470   0.346E-01    0.319E+01
DAV:  42    -0.132550820412E+04    0.12626E+00   -0.42025E-02 42490   0.105E+00    0.317E+01
DAV:  43    -0.132529255889E+04    0.21565E+00   -0.46162E-02 46230   0.803E-01    0.314E+01
DAV:  44    -0.132517581795E+04    0.11674E+00   -0.23633E-02 38290   0.280E-01    0.312E+01
DAV:  45    -0.132518340607E+04   -0.75881E-02   -0.22553E-03 35650   0.987E-02    0.313E+01
DAV:  46    -0.132520238993E+04   -0.18984E-01   -0.13110E-03 38850   0.194E-01    0.313E+01
DAV:  47    -0.132469050096E+04    0.51189E+00   -0.13582E-01 42180   0.124E+00    0.305E+01
DAV:  48    -0.132339283640E+04    0.12977E+01   -0.81732E+00 43100   0.528E+00    0.305E+01
DAV:  49    -0.132381679902E+04   -0.42396E+00   -0.49512E-01 36190   0.157E+00    0.306E+01
DAV:  50    -0.132397176801E+04   -0.15497E+00   -0.30003E-02 38290   0.348E-01    0.308E+01
DAV:  51    -0.132397680007E+04   -0.50321E-02   -0.55411E-02 42220   0.119E+00    0.297E+01
DAV:  52    -0.132390819425E+04    0.68606E-01   -0.37405E-02 40650   0.123E+00    0.290E+01
DAV:  53    -0.132390151261E+04    0.66816E-02   -0.24584E-02 41870   0.318E-01    0.280E+01
DAV:  54    -0.132277964959E+04    0.11219E+01   -0.11617E+00 41420   0.232E+00    0.240E+01
DAV:  55    -0.132290337809E+04   -0.12373E+00   -0.37753E-01 36940   0.125E+00    0.238E+01
DAV:  56    -0.132961174333E+04   -0.67084E+01   -0.23146E+01 43910   0.114E+01    0.513E+01
DAV:  57    -0.133210507662E+04   -0.24933E+01   -0.43476E+00 36940   0.319E+00    0.508E+01
DAV:  58    -0.133274441380E+04   -0.63934E+00   -0.11960E+00 36770   0.128E+00    0.531E+01
DAV:  59    -0.133292984222E+04   -0.18543E+00   -0.13029E-01 36260   0.665E-01    0.537E+01
DAV:  60    -0.133280824451E+04    0.12160E+00   -0.24246E-02 36800   0.363E-01    0.539E+01
DAV:  61    -0.134153018096E+04   -0.87219E+01   -0.56573E+01 40590   0.284E+01    0.886E+01
DAV:  62    -0.133442465493E+04    0.71055E+01   -0.12413E+01 37690   0.758E+00    0.754E+01
DAV:  63    -0.132893465567E+04    0.54900E+01   -0.25991E+00 39200   0.368E+00    0.608E+01
DAV:  64    -0.132471590600E+04    0.42187E+01   -0.42555E+00 42360   0.331E+00    0.461E+01
DAV:  65    -0.132514184962E+04   -0.42594E+00   -0.35738E+00 37150   0.218E+00    0.399E+01
DAV:  66    -0.133361220805E+04   -0.84704E+01   -0.14574E+01 41580   0.673E+00    0.616E+01
DAV:  67    -0.133530105645E+04   -0.16888E+01   -0.31076E+00 38910   0.296E+00    0.660E+01
DAV:  68    -0.133629327644E+04   -0.99222E+00   -0.68281E-01 35730   0.138E+00    0.677E+01
DAV:  69    -0.133488275102E+04    0.14105E+01   -0.74645E-02 39480   0.835E-01    0.664E+01
DAV:  70    -0.133445528181E+04    0.42747E+00   -0.50640E-02 41080   0.515E-01    0.659E+01
DAV:  71    -0.134959709797E+04   -0.15142E+02   -0.66680E+01 42000   0.238E+01    0.832E+01
DAV:  72    -0.135238820924E+04   -0.27911E+01   -0.13172E+01 37800   0.519E+00    0.797E+01
DAV:  73    -0.135465726496E+04   -0.22691E+01   -0.13684E+00 38190   0.144E+00    0.828E+01
DAV:  74    -0.135509043474E+04   -0.43317E+00   -0.21523E-01 37250   0.974E-01    0.843E+01
DAV:  75    -0.135555444659E+04   -0.46401E+00   -0.24810E-01 36060   0.959E-01    0.847E+01
DAV:  76    -0.134235440654E+04    0.13200E+02   -0.54266E-01 40740   0.491E+00    0.753E+01
DAV:  77    -0.133996785417E+04    0.23866E+01   -0.13268E+00 39980   0.198E+00    0.701E+01
DAV:  78    -0.133932430931E+04    0.64354E+00   -0.18438E-01 37410   0.101E+00    0.678E+01
DAV:  79    -0.133889620991E+04    0.42810E+00   -0.44419E-01 39950   0.105E+00    0.658E+01
DAV:  80    -0.133924686851E+04   -0.35066E+00   -0.84408E-02 36530   0.792E-01    0.657E+01
DAV:  81    -0.132163621061E+04    0.17611E+02   -0.47833E+00 41010   0.923E+00    0.411E+01
DAV:  82    -0.132281714069E+04   -0.11809E+01   -0.26610E+00 38750   0.356E+00    0.381E+01
DAV:  83    -0.132260517457E+04    0.21197E+00   -0.52392E+00 43240   0.201E+00    0.330E+01
DAV:  84    -0.132338162967E+04   -0.77646E+00   -0.14196E+00 35660   0.159E+00    0.289E+01
DAV:  85    -0.132477516903E+04   -0.13935E+01   -0.50187E-01 38290   0.186E+00    0.283E+01
DAV:  86    -0.132233334052E+04    0.24418E+01   -0.43423E+00 44080   0.502E+00    0.209E+01
DAV:  87    -0.132242654999E+04   -0.93209E-01   -0.11507E+00 42030   0.328E+00    0.170E+01
DAV:  88    -0.132285206395E+04   -0.42551E+00   -0.12161E+00 42750   0.235E+00    0.172E+01
DAV:  89    -0.132308791121E+04   -0.23585E+00   -0.26191E-01 37970   0.125E+00    0.175E+01
DAV:  90    -0.132315854438E+04   -0.70633E-01   -0.11616E-01 45370   0.115E+00    0.178E+01
DAV:  91    -0.132249489165E+04    0.66365E+00   -0.91458E-01 45280   0.553E+00    0.144E+01
DAV:  92    -0.132276496988E+04   -0.27008E+00   -0.83999E-01 41310   0.241E+00    0.189E+01
DAV:  93    -0.132305799304E+04   -0.29302E+00   -0.35350E-01 36620   0.154E+00    0.188E+01
DAV:  94    -0.132306504549E+04   -0.70525E-02   -0.65458E-02 39370   0.687E-01    0.186E+01
DAV:  95    -0.132276033253E+04    0.30471E+00   -0.78892E-02 42870   0.143E+00    0.179E+01
DAV:  96    -0.132301721358E+04   -0.25688E+00   -0.11108E+00 41410   0.291E+00    0.190E+01
DAV:  97    -0.132288647546E+04    0.13074E+00   -0.68770E-01 39950   0.316E+00    0.184E+01
DAV:  98    -0.132233754738E+04    0.54893E+00   -0.17613E+00 43480   0.329E+00    0.185E+01
DAV:  99    -0.132272819747E+04   -0.39065E+00   -0.51982E-01 36110   0.165E+00    0.190E+01
DAV: 100    -0.132274971764E+04   -0.21520E-01   -0.39945E-02 36210   0.373E-01    0.190E+01
DAV: 101    -0.132289790456E+04   -0.14819E+00   -0.16303E-01 41820   0.244E+00    0.179E+01
DAV: 102    -0.132280625437E+04    0.91650E-01   -0.35608E-01 44940   0.102E+00    0.168E+01
DAV: 103    -0.132330494278E+04   -0.49869E+00   -0.13247E+00 41720   0.183E+00    0.164E+01
DAV: 104    -0.132353259230E+04   -0.22765E+00   -0.11335E-01 35600   0.795E-01    0.166E+01
DAV: 105    -0.132346536585E+04    0.67226E-01   -0.17875E-02 42250   0.512E-01    0.164E+01
DAV: 106    -0.132255301141E+04    0.91235E+00   -0.93255E-01 40330   0.486E+00    0.185E+01
DAV: 107    -0.132282020601E+04   -0.26719E+00   -0.32381E-01 38350   0.197E+00    0.160E+01
DAV: 108    -0.132300370948E+04   -0.18350E+00   -0.14047E-01 44110   0.148E+00    0.154E+01
DAV: 109    -0.132313099162E+04   -0.12728E+00   -0.13757E-01 47080   0.138E+00    0.146E+01
DAV: 110    -0.132327105698E+04   -0.14007E+00   -0.21230E-01 44330   0.179E+00    0.124E+01
DAV: 111    -0.132327637749E+04   -0.53205E-02   -0.14954E+00 41020   0.396E+00    0.130E+01
DAV: 112    -0.132350953569E+04   -0.23316E+00   -0.82968E-01 36430   0.296E+00    0.124E+01
DAV: 113    -0.132350917520E+04    0.36049E-03   -0.12981E-01 39130   0.815E-01    0.121E+01
DAV: 114    -0.132350602973E+04    0.31455E-02   -0.91534E-02 45280   0.686E-01    0.119E+01
DAV: 115    -0.132341403193E+04    0.91998E-01   -0.81150E-02 43910   0.118E+00    0.117E+01
DAV: 116    -0.132351061769E+04   -0.96586E-01   -0.13916E-01 40720   0.212E+00    0.114E+01
DAV: 117    -0.132348906030E+04    0.21557E-01   -0.86613E-02 43570   0.972E-01    0.115E+01
DAV: 118    -0.132337432378E+04    0.11474E+00   -0.50396E-02 43690   0.737E-01    0.115E+01
DAV: 119    -0.132326637254E+04    0.10795E+00   -0.47384E-02 46510   0.629E-01    0.116E+01
DAV: 120    -0.132328779701E+04   -0.21424E-01   -0.20983E-02 35730   0.308E-01    0.118E+01
DAV: 121    -0.132324054202E+04    0.47255E-01   -0.28575E-02 42330   0.842E-01    0.116E+01
DAV: 122    -0.132323626534E+04    0.42767E-02   -0.27986E-02 40050   0.695E-01    0.116E+01
DAV: 123    -0.132325535522E+04   -0.19090E-01   -0.23605E-02 41920   0.531E-01    0.119E+01
DAV: 124    -0.132328436939E+04   -0.29014E-01   -0.14480E-02 40560   0.365E-01    0.123E+01
DAV: 125    -0.132331031746E+04   -0.25948E-01   -0.88840E-03 41110   0.303E-01    0.126E+01
DAV: 126    -0.132243903438E+04    0.87128E+00   -0.59714E-01 45020   0.355E+00    0.109E+01
DAV: 127    -0.132309363728E+04   -0.65460E+00   -0.23133E+00 39340   0.162E+00    0.109E+01
DAV: 128    -0.132334430901E+04   -0.25067E+00   -0.39109E-01 38780   0.162E+00    0.113E+01
DAV: 129    -0.132342455438E+04   -0.80245E-01   -0.12597E-01 37610   0.522E-01    0.123E+01
DAV: 130    -0.132353600119E+04   -0.11145E+00   -0.48205E-02 38860   0.775E-01    0.124E+01
DAV: 131    -0.132386654541E+04   -0.33054E+00   -0.16125E-01 41570   0.244E+00    0.129E+01
DAV: 132    -0.132397272718E+04   -0.10618E+00   -0.91449E-02 44970   0.114E+00    0.129E+01
DAV: 133    -0.132419374742E+04   -0.22102E+00   -0.56232E-02 42650   0.120E+00    0.135E+01
DAV: 134    -0.132452640886E+04   -0.33266E+00   -0.11762E-01 43940   0.162E+00    0.148E+01
DAV: 135    -0.132452607130E+04    0.33756E-03   -0.86320E-02 36120   0.450E-01    0.147E+01
DAV: 136    -0.132459936543E+04   -0.73294E-01   -0.15765E-02 40650   0.668E-01    0.145E+01
DAV: 137    -0.132466327148E+04   -0.63906E-01   -0.18070E-02 42600   0.517E-01    0.148E+01
DAV: 138    -0.132466369788E+04   -0.42640E-03   -0.14374E-02 43560   0.548E-01    0.147E+01
DAV: 139    -0.132461277092E+04    0.50927E-01   -0.25786E-02 49090   0.672E-01    0.143E+01
DAV: 140    -0.132451812185E+04    0.94649E-01   -0.73310E-02 49680   0.132E+00    0.132E+01
DAV: 141    -0.132484331325E+04   -0.32519E+00   -0.10118E+00 47530   0.552E+00    0.130E+01
DAV: 142    -0.132481008768E+04    0.33226E-01   -0.84473E-01 36750   0.180E+00    0.131E+01
DAV: 143    -0.132476070553E+04    0.49382E-01   -0.35310E-02 41510   0.551E-01    0.132E+01
DAV: 144    -0.132467738756E+04    0.83318E-01   -0.50903E-02 52670   0.117E+00    0.132E+01
DAV: 145    -0.132469007895E+04   -0.12691E-01   -0.90192E-02 46870   0.162E+00    0.136E+01
DAV: 146    -0.132484675181E+04   -0.15667E+00   -0.39018E-01 46160   0.248E+00    0.145E+01
DAV: 147    -0.132498304284E+04   -0.13629E+00   -0.21132E-01 42730   0.125E+00    0.146E+01
DAV: 148    -0.132499849822E+04   -0.15455E-01   -0.58333E-02 37300   0.402E-01    0.145E+01
DAV: 149    -0.132502180450E+04   -0.23306E-01   -0.31204E-03 51220   0.241E-01    0.147E+01
DAV: 150    -0.132502786964E+04   -0.60651E-02   -0.26778E-03 36920   0.820E-02
   1 F= -.13250279E+04 E0= -.13250279E+04  d E =-.132503E+04  mag=   114.0714
       N       E                     dE             d eps       ncg     rms          rms(c)
DAV:   1    -0.132496616534E+04    0.55639E-01   -0.65236E-02 48400   0.122E+00    0.144E+01
DAV:   2    -0.132575084278E+04   -0.78468E+00   -0.63429E+00 38920   0.930E+00    0.323E+01
DAV:   3    -0.132378843744E+04    0.19624E+01   -0.10898E+01 36830   0.114E+01    0.912E+00
DAV:   4    -0.132434359861E+04   -0.55516E+00   -0.59743E-01 36250   0.238E+00    0.646E+00
DAV:   5    -0.132419345036E+04    0.15015E+00   -0.13868E-01 41450   0.143E+00    0.411E+00
DAV:   6    -0.132409030599E+04    0.10314E+00   -0.11462E-01 42920   0.161E+00    0.256E+00
DAV:   7    -0.132407216496E+04    0.18141E-01   -0.82204E-02 43510   0.896E-01    0.136E+00
DAV:   8    -0.132406637953E+04    0.57854E-02   -0.20278E-02 38380   0.622E-01    0.685E-01
DAV:   9    -0.132406652824E+04   -0.14871E-03   -0.18555E-02 37760   0.247E-01    0.419E-01
DAV:  10    -0.132406577163E+04    0.75660E-03   -0.13961E-03 45010   0.144E-01    0.201E-01
DAV:  11    -0.132406538613E+04    0.38550E-03   -0.60254E-04 37790   0.658E-02    0.125E-01
DAV:  12    -0.132406552778E+04   -0.14165E-03   -0.19478E-04 34460   0.380E-02    0.835E-02
DAV:  13    -0.132406541868E+04    0.10910E-03   -0.41987E-05 23450   0.264E-02    0.434E-02
DAV:  14    -0.132406549173E+04   -0.73049E-04   -0.28349E-05 21230   0.211E-02    0.151E-02
DAV:  15    -0.132406545049E+04    0.41238E-04   -0.16886E-05 18820   0.770E-03
   2 F= -.13240655E+04 E0= -.13240655E+04  d E =0.962419E+00  mag=   114.0000
       N       E                     dE             d eps       ncg     rms          rms(c)
DAV:   1    -0.132406616425E+04   -0.67253E-03   -0.21733E-03 45500   0.206E-01    0.342E-02
DAV:   2    -0.132406620847E+04   -0.44214E-04   -0.48740E-04 34390   0.362E-02    0.191E-02
DAV:   3    -0.132406621637E+04   -0.79075E-05   -0.18934E-05 18880   0.112E-02    0.123E-02
DAV:   4    -0.132406620922E+04    0.71590E-05   -0.24001E-06 18050   0.445E-03
   3 F= -.13240662E+04 E0= -.13240662E+04  d E =-.758726E-03  mag=   114.0000
       N       E                     dE             d eps       ncg     rms          rms(c)
DAV:   1    -0.132075370236E+04    0.33125E+01   -0.12669E+02 48450   0.493E+01    0.826E+00
DAV:   2    -0.132383904616E+04   -0.30853E+01   -0.27364E+01 37400   0.842E+00    0.503E+00
DAV:   3    -0.132392520076E+04   -0.86155E-01   -0.96698E-01 36970   0.210E+00    0.246E+00
DAV:   4    -0.132391792991E+04    0.72708E-02   -0.92147E-02 40020   0.817E-01    0.181E+00
DAV:   5    -0.132391222310E+04    0.57068E-02   -0.23359E-02 41510   0.480E-01    0.121E+00
DAV:   6    -0.132390505588E+04    0.71672E-02   -0.20820E-02 41560   0.533E-01    0.605E-01
DAV:   7    -0.132390638333E+04   -0.13274E-02   -0.11627E-02 39020   0.305E-01    0.278E-01
DAV:   8    -0.132390655572E+04   -0.17240E-03   -0.20602E-03 37050   0.142E-01    0.136E-01
DAV:   9    -0.132390637368E+04    0.18204E-03   -0.28839E-04 34720   0.530E-02    0.772E-02
DAV:  10    -0.132390633851E+04    0.35171E-04   -0.11943E-04 26070   0.335E-02
   4 F= -.13239063E+04 E0= -.13239063E+04  d E =0.159871E+00  mag=   114.0000
       N       E                     dE             d eps       ncg     rms          rms(c)
DAV:   1    -0.132097707331E+04    0.29293E+01   -0.86815E+01 49430   0.457E+01    0.873E+00
DAV:   2    -0.132394016648E+04   -0.29631E+01   -0.26293E+01 38620   0.801E+00    0.577E+00
DAV:   3    -0.132403907854E+04   -0.98912E-01   -0.11734E+00 37460   0.255E+00    0.289E+00
DAV:   4    -0.132403524603E+04    0.38325E-02   -0.12457E-01 39470   0.103E+00    0.182E+00
DAV:   5    -0.132402767675E+04    0.75693E-02   -0.25249E-02 38850   0.477E-01    0.137E+00
DAV:   6    -0.132402241068E+04    0.52661E-02   -0.14792E-02 41760   0.424E-01    0.675E-01
DAV:   7    -0.132402092048E+04    0.14902E-02   -0.91061E-03 40450   0.307E-01    0.382E-01
DAV:   8    -0.132402162752E+04   -0.70705E-03   -0.36645E-03 37660   0.180E-01    0.145E-01
DAV:   9    -0.132402204416E+04   -0.41664E-03   -0.51962E-04 35650   0.700E-02    0.730E-02
DAV:  10    -0.132402185712E+04    0.18704E-03   -0.17491E-04 34420   0.303E-02    0.609E-02
DAV:  11    -0.132402187771E+04   -0.20587E-04   -0.23225E-05 20770   0.188E-02
   5 F= -.13240219E+04 E0= -.13240219E+04  d E =-.115539E+00  mag=   114.0000
       N       E                     dE             d eps       ncg     rms          rms(c)
DAV:   1    -0.132381772571E+04    0.20413E+00   -0.80312E+00 50020   0.144E+01    0.245E+00
DAV:   2    -0.132408523423E+04   -0.26751E+00   -0.23598E+00 38090   0.238E+00    0.123E+00
DAV:   3    -0.132409663979E+04   -0.11406E-01   -0.10355E-01 37590   0.655E-01    0.693E-01
DAV:   4    -0.132409588743E+04    0.75236E-03   -0.80162E-03 39260   0.225E-01    0.432E-01
DAV:   5    -0.132409537555E+04    0.51188E-03   -0.22743E-03 41290   0.144E-01    0.315E-01
DAV:   6    -0.132409459373E+04    0.78182E-03   -0.19093E-03 40760   0.151E-01    0.161E-01
DAV:   7    -0.132409495311E+04   -0.35937E-03   -0.83778E-04 39110   0.842E-02    0.712E-02
DAV:   8    -0.132409479357E+04    0.15953E-03   -0.24385E-04 35150   0.449E-02    0.448E-02
DAV:   9    -0.132409486628E+04   -0.72710E-04   -0.39709E-05 20630   0.196E-02    0.238E-02
DAV:  10    -0.132409483986E+04    0.26425E-04   -0.10742E-05 18750   0.965E-03
   6 F= -.13240948E+04 E0= -.13240948E+04  d E =-.729621E-01  mag=   114.0000
       N       E                     dE             d eps       ncg     rms          rms(c)
DAV:   1    -0.132403729075E+04    0.57576E-01   -0.22504E+00 49270   0.730E+00    0.122E+00
DAV:   2    -0.132410518911E+04   -0.67898E-01   -0.61243E-01 38040   0.122E+00    0.620E-01
DAV:   3    -0.132410733182E+04   -0.21427E-02   -0.22581E-02 37120   0.307E-01    0.321E-01
DAV:   4    -0.132410740024E+04   -0.68423E-04   -0.12868E-03 39800   0.742E-02    0.203E-01
DAV:   5    -0.132410717789E+04    0.22236E-03   -0.47519E-04 36790   0.654E-02    0.120E-01
DAV:   6    -0.132410724459E+04   -0.66702E-04   -0.25057E-04 37150   0.579E-02    0.676E-02
DAV:   7    -0.132410719311E+04    0.51478E-04   -0.12458E-04 27730   0.371E-02    0.326E-02
DAV:   8    -0.132410722648E+04   -0.33370E-04   -0.34011E-05 19980   0.183E-02
   7 F= -.13241072E+04 E0= -.13241072E+04  d E =-.123866E-01  mag=   114.0000
       N       E                     dE             d eps       ncg     rms          rms(c)
DAV:   1    -0.132358992535E+04    0.51727E+00   -0.22997E+01 45550   0.200E+01    0.333E+00
DAV:   2    -0.132408190110E+04   -0.49198E+00   -0.46202E+00 36800   0.354E+00    0.165E+00
DAV:   3    -0.132409104625E+04   -0.91452E-02   -0.14378E-01 37160   0.771E-01    0.811E-01
DAV:   4    -0.132409085460E+04    0.19166E-03   -0.88340E-03 39980   0.168E-01    0.587E-01
DAV:   5    -0.132408899434E+04    0.18603E-02   -0.16377E-03 42740   0.149E-01    0.350E-01
DAV:   6    -0.132408857144E+04    0.42290E-03   -0.19314E-03 44140   0.152E-01    0.127E-01
DAV:   7    -0.132408851829E+04    0.53151E-04   -0.11789E-03 38140   0.896E-02    0.967E-02
DAV:   8    -0.132408877102E+04   -0.25273E-03   -0.16451E-04 29280   0.418E-02    0.360E-02
DAV:   9    -0.132408867778E+04    0.93242E-04   -0.25745E-05 19390   0.132E-02    0.253E-02
DAV:  10    -0.132408863969E+04    0.38087E-04   -0.93310E-06 18710   0.105E-02
   8 F= -.13240886E+04 E0= -.13240886E+04  d E =0.185868E-01  mag=   114.0000
       N       E                     dE             d eps       ncg     rms          rms(c)
DAV:   1    -0.132011203198E+04    0.39766E+01   -0.11285E+02 50150   0.551E+01    0.953E+00
DAV:   2    -0.132368397105E+04   -0.35719E+01   -0.31071E+01 38040   0.913E+00    0.579E+00
DAV:   3    -0.132381639179E+04   -0.13242E+00   -0.13466E+00 37260   0.282E+00    0.296E+00
DAV:   4    -0.132381320153E+04    0.31903E-02   -0.13047E-01 40010   0.108E+00    0.170E+00
DAV:   5    -0.132380497833E+04    0.82232E-02   -0.31697E-02 39040   0.539E-01    0.125E+00
DAV:   6    -0.132380043381E+04    0.45445E-02   -0.20630E-02 40740   0.512E-01    0.682E-01
DAV:   7    -0.132379926582E+04    0.11680E-02   -0.12786E-02 40360   0.382E-01    0.454E-01
DAV:   8    -0.132380039707E+04   -0.11313E-02   -0.43573E-03 38520   0.216E-01    0.154E-01
DAV:   9    -0.132380051534E+04   -0.11827E-03   -0.71691E-04 36480   0.732E-02    0.844E-02
DAV:  10    -0.132380027816E+04    0.23718E-03   -0.22676E-04 35310   0.379E-02    0.691E-02
DAV:  11    -0.132380041325E+04   -0.13509E-03   -0.54717E-05 23320   0.277E-02    0.298E-02
DAV:  12    -0.132380048370E+04   -0.70455E-04   -0.24427E-05 18900   0.109E-02    0.172E-02
DAV:  13    -0.132380044478E+04    0.38928E-04   -0.77064E-06 18750   0.820E-03
   9 F= -.13238004E+04 E0= -.13238004E+04  d E =0.288195E+00  mag=   114.0000
       N       E                     dE             d eps       ncg     rms          rms(c)
DAV:   1    -0.132302386659E+04    0.77662E+00   -0.32500E+01 49540   0.294E+01    0.500E+00
DAV:   2    -0.132404976152E+04   -0.10259E+01   -0.90988E+00 38400   0.496E+00    0.287E+00
DAV:   3    -0.132409319147E+04   -0.43430E-01   -0.41656E-01 37270   0.146E+00    0.160E+00
DAV:   4    -0.132409108135E+04    0.21101E-02   -0.29416E-02 40030   0.475E-01    0.895E-01
DAV:   5    -0.132408837446E+04    0.27069E-02   -0.99407E-03 40620   0.304E-01    0.660E-01
DAV:   6    -0.132408597936E+04    0.23951E-02   -0.88865E-03 40410   0.327E-01    0.383E-01
DAV:   7    -0.132408631166E+04   -0.33230E-03   -0.43579E-03 40310   0.204E-01    0.203E-01
DAV:   8    -0.132408603832E+04    0.27334E-03   -0.14922E-03 37620   0.116E-01    0.108E-01
DAV:   9    -0.132408626851E+04   -0.23019E-03   -0.23890E-04 33770   0.487E-02    0.526E-02
DAV:  10    -0.132408616101E+04    0.10749E-03   -0.62083E-05 22240   0.202E-02    0.404E-02
DAV:  11    -0.132408615911E+04    0.19027E-05   -0.19704E-05 20710   0.165E-02
  10 F= -.13240862E+04 E0= -.13240862E+04  d E =-.285714E+00  mag=   114.0000
       N       E                     dE             d eps       ncg     rms          rms(c)
DAV:   1    -0.132393531731E+04    0.15084E+00   -0.50172E+00 49640   0.117E+01    0.197E+00
DAV:   2    -0.132410651003E+04   -0.17119E+00   -0.15088E+00 38000   0.193E+00    0.102E+00
DAV:   3    -0.132411287506E+04   -0.63650E-02   -0.61076E-02 37060   0.506E-01    0.526E-01
DAV:   4    -0.132411297028E+04   -0.95218E-04   -0.35651E-03 40670   0.131E-01    0.325E-01
DAV:   5    -0.132411241375E+04    0.55653E-03   -0.11627E-03 41160   0.103E-01    0.205E-01
DAV:   6    -0.132411239266E+04    0.21093E-04   -0.67467E-04 40420   0.987E-02    0.120E-01
DAV:   7    -0.132411234771E+04    0.44954E-04   -0.34788E-04 37210   0.608E-02
  11 F= -.13241123E+04 E0= -.13241123E+04  d E =-.261886E-01  mag=   114.0000
       N       E                     dE             d eps       ncg     rms          rms(c)
DAV:   1    -0.132398041103E+04    0.13198E+00   -0.41796E+00 49200   0.100E+01    0.164E+00
DAV:   2    -0.132410704970E+04   -0.12664E+00   -0.11327E+00 36790   0.167E+00    0.797E-01
DAV:   3    -0.132411039637E+04   -0.33467E-02   -0.39650E-02 36830   0.402E-01    0.405E-01
DAV:   4    -0.132411066610E+04   -0.26973E-03   -0.28180E-03 39490   0.116E-01    0.282E-01
DAV:   5    -0.132411032239E+04    0.34371E-03   -0.70475E-04 37160   0.870E-02    0.208E-01
DAV:   6    -0.132411032640E+04   -0.40030E-05   -0.69809E-04 40020   0.100E-01    0.103E-01
DAV:   7    -0.132411015344E+04    0.17295E-03   -0.34410E-04 36950   0.527E-02    0.373E-02
DAV:   8    -0.132411032371E+04   -0.17026E-03   -0.49765E-05 20660   0.208E-02    0.202E-02
DAV:   9    -0.132411028936E+04    0.34344E-04   -0.11661E-05 18330   0.971E-03
  12 F= -.13241103E+04 E0= -.13241103E+04  d E =0.205834E-02  mag=   114.0000
       N       E                     dE             d eps       ncg     rms          rms(c)
DAV:   1    -0.132113906815E+04    0.29713E+01   -0.92787E+01 50010   0.476E+01    0.797E+00
DAV:   2    -0.132375711382E+04   -0.26180E+01   -0.23134E+01 37970   0.804E+00    0.491E+00
DAV:   3    -0.132385215490E+04   -0.95041E-01   -0.11044E+00 37280   0.265E+00    0.278E+00
DAV:   4    -0.132384534236E+04    0.68125E-02   -0.10955E-01 39920   0.101E+00    0.144E+00
DAV:   5    -0.132383776514E+04    0.75772E-02   -0.24675E-02 39600   0.458E-01    0.104E+00
DAV:   6    -0.132383342579E+04    0.43394E-02   -0.18233E-02 40430   0.468E-01    0.596E-01
DAV:   7    -0.132383202843E+04    0.13974E-02   -0.11692E-02 40670   0.358E-01    0.415E-01
DAV:   8    -0.132383292521E+04   -0.89678E-03   -0.35430E-03 38340   0.191E-01    0.127E-01
DAV:   9    -0.132383292804E+04   -0.28286E-05   -0.56839E-04 36220   0.602E-02    0.766E-02
DAV:  10    -0.132383275118E+04    0.17686E-03   -0.17762E-04 32320   0.355E-02    0.652E-02
DAV:  11    -0.132383284793E+04   -0.96742E-04   -0.53769E-05 23570   0.299E-02    0.288E-02
DAV:  12    -0.132383289677E+04   -0.48848E-04   -0.24078E-05 18890   0.104E-02
  13 F= -.13238329E+04 E0= -.13238329E+04  d E =0.277393E+00  mag=   114.0000
       N       E                     dE             d eps       ncg     rms          rms(c)
DAV:   1    -0.132180410010E+04    0.20287E+01   -0.77910E+01 50530   0.447E+01    0.738E+00
DAV:   2    -0.132401874294E+04   -0.22146E+01   -0.19539E+01 38080   0.747E+00    0.457E+00
DAV:   3    -0.132411397190E+04   -0.95229E-01   -0.95301E-01 37430   0.226E+00    0.241E+00
DAV:   4    -0.132410752824E+04    0.64437E-02   -0.70323E-02 39760   0.801E-01    0.129E+00
DAV:   5    -0.132410139490E+04    0.61333E-02   -0.25562E-02 41040   0.462E-01    0.930E-01
DAV:   6    -0.132409614143E+04    0.52535E-02   -0.19307E-02 39690   0.463E-01    0.558E-01
DAV:   7    -0.132409644141E+04   -0.29998E-03   -0.98201E-03 40450   0.305E-01    0.323E-01
DAV:   8    -0.132409618834E+04    0.25307E-03   -0.34956E-03 37830   0.171E-01    0.163E-01
DAV:   9    -0.132409653583E+04   -0.34749E-03   -0.51101E-04 36560   0.689E-02    0.800E-02
DAV:  10    -0.132409637272E+04    0.16311E-03   -0.16203E-04 33750   0.301E-02    0.597E-02
DAV:  11    -0.132409639928E+04   -0.26564E-04   -0.44515E-05 23740   0.266E-02
  14 F= -.13240964E+04 E0= -.13240964E+04  d E =-.263503E+00  mag=   114.0000
       N       E                     dE             d eps       ncg     rms          rms(c)
DAV:   1    -0.132406391641E+04    0.32456E-01   -0.17283E+00 49860   0.682E+00    0.113E+00
DAV:   2    -0.132411665207E+04   -0.52736E-01   -0.47270E-01 38290   0.114E+00    0.577E-01
DAV:   3    -0.132411838095E+04   -0.17289E-02   -0.21221E-02 37720   0.313E-01    0.330E-01
DAV:   4    -0.132411853432E+04   -0.15337E-03   -0.13730E-03 39390   0.953E-02    0.190E-01
DAV:   5    -0.132411813628E+04    0.39803E-03   -0.54643E-04 36270   0.728E-02    0.144E-01
DAV:   6    -0.132411817645E+04   -0.40169E-04   -0.56056E-04 36650   0.789E-02    0.857E-02
DAV:   7    -0.132411799876E+04    0.17769E-03   -0.21226E-04 35130   0.448E-02    0.319E-02
DAV:   8    -0.132411805566E+04   -0.56899E-04   -0.61001E-05 20690   0.224E-02    0.213E-02
DAV:   9    -0.132411808224E+04   -0.26580E-04   -0.19589E-05 18790   0.107E-02
  15 F= -.13241181E+04 E0= -.13241181E+04  d E =-.216830E-01  mag=   114.0000
       N       E                     dE             d eps       ncg     rms          rms(c)
DAV:   1    -0.132387554369E+04    0.24251E+00   -0.68480E+00 48970   0.135E+01    0.231E+00
DAV:   2    -0.132410006492E+04   -0.22452E+00   -0.20052E+00 38280   0.232E+00    0.115E+00
DAV:   3    -0.132410686996E+04   -0.68050E-02   -0.78124E-02 37720   0.601E-01    0.635E-01
DAV:   4    -0.132410681184E+04    0.58124E-04   -0.46739E-03 39580   0.165E-01    0.401E-01
DAV:   5    -0.132410590773E+04    0.90411E-03   -0.15862E-03 41320   0.137E-01    0.288E-01
DAV:   6    -0.132410564188E+04    0.26585E-03   -0.21025E-03 40400   0.163E-01    0.196E-01
DAV:   7    -0.132410527089E+04    0.37099E-03   -0.97907E-04 39460   0.985E-02    0.687E-02
DAV:   8    -0.132410553834E+04   -0.26745E-03   -0.23860E-04 35330   0.444E-02    0.420E-02
DAV:   9    -0.132410547686E+04    0.61480E-04   -0.45022E-05 20800   0.220E-02    0.261E-02
DAV:  10    -0.132410548069E+04   -0.38325E-05   -0.12291E-05 18770   0.104E-02
  16 F= -.13241055E+04 E0= -.13241055E+04  d E =0.126015E-01  mag=   114.0000
       N       E                     dE             d eps       ncg     rms          rms(c)
DAV:   1    -0.132034664268E+04    0.37588E+01   -0.91112E+01 49980   0.523E+01    0.957E+00
DAV:   2    -0.132365568440E+04   -0.33090E+01   -0.28780E+01 38000   0.876E+00    0.558E+00
DAV:   3    -0.132379248000E+04   -0.13680E+00   -0.12921E+00 37810   0.248E+00    0.271E+00
DAV:   4    -0.132379037675E+04    0.21033E-02   -0.87556E-02 40370   0.778E-01    0.170E+00
DAV:   5    -0.132378324449E+04    0.71323E-02   -0.24101E-02 39330   0.487E-01    0.126E+00
DAV:   6    -0.132377628650E+04    0.69580E-02   -0.23244E-02 39890   0.558E-01    0.821E-01
DAV:   7    -0.132377600286E+04    0.28364E-03   -0.12277E-02 40510   0.372E-01    0.260E-01
DAV:   8    -0.132377666396E+04   -0.66110E-03   -0.42981E-03 37840   0.169E-01    0.175E-01
DAV:   9    -0.132377671418E+04   -0.50228E-04   -0.83211E-04 36880   0.781E-02    0.107E-01
DAV:  10    -0.132377635291E+04    0.36128E-03   -0.11202E-04 28990   0.318E-02    0.597E-02
DAV:  11    -0.132377654862E+04   -0.19571E-03   -0.56820E-05 23250   0.250E-02    0.290E-02
DAV:  12    -0.132377655264E+04   -0.40226E-05   -0.32036E-05 20060   0.166E-02
  17 F= -.13237766E+04 E0= -.13237766E+04  d E =0.328928E+00  mag=   114.0000
       N       E                     dE             d eps       ncg     rms          rms(c)
DAV:   1    -0.132084261675E+04    0.29339E+01   -0.97736E+01 49810   0.508E+01    0.920E+00
DAV:   2    -0.132399734084E+04   -0.31547E+01   -0.28013E+01 38540   0.869E+00    0.519E+00
DAV:   3    -0.132410105236E+04   -0.10371E+00   -0.11073E+00 37800   0.229E+00    0.263E+00
DAV:   4    -0.132409749274E+04    0.35596E-02   -0.68522E-02 40260   0.676E-01    0.163E+00
DAV:   5    -0.132408437490E+04    0.13118E-01   -0.26741E-02 39630   0.496E-01    0.117E+00
DAV:   6    -0.132407920199E+04    0.51729E-02   -0.28717E-02 40000   0.583E-01    0.844E-01
DAV:   7    -0.132407599289E+04    0.32091E-02   -0.15792E-02 40370   0.419E-01    0.296E-01
DAV:   8    -0.132407788402E+04   -0.18911E-02   -0.44879E-03 38420   0.203E-01    0.178E-01
DAV:   9    -0.132407787743E+04    0.65810E-05   -0.11429E-03 37460   0.981E-02    0.128E-01
DAV:  10    -0.132407747306E+04    0.40438E-03   -0.16085E-04 33180   0.364E-02    0.767E-02
DAV:  11    -0.132407763684E+04   -0.16378E-03   -0.56492E-05 23990   0.293E-02    0.370E-02
DAV:  12    -0.132407780795E+04   -0.17111E-03   -0.44309E-05 20380   0.166E-02    0.225E-02
DAV:  13    -0.132407770292E+04    0.10502E-03   -0.10835E-05 18810   0.872E-03    0.110E-02
DAV:  14    -0.132407768248E+04    0.20443E-04   -0.36358E-06 18620   0.495E-03
  18 F= -.13240777E+04 E0= -.13240777E+04  d E =-.301130E+00  mag=   114.0000
       N       E                     dE             d eps       ncg     rms          rms(c)
DAV:   1    -0.132404128459E+04    0.36418E-01   -0.23461E+00 49560   0.787E+00    0.128E+00
DAV:   2    -0.132411023244E+04   -0.68948E-01   -0.62008E-01 38410   0.133E+00    0.658E-01
DAV:   3    -0.132411309654E+04   -0.28641E-02   -0.28587E-02 37820   0.359E-01    0.387E-01
DAV:   4    -0.132411277706E+04    0.31948E-03   -0.16385E-03 39820   0.104E-01    0.218E-01
DAV:   5    -0.132411249801E+04    0.27904E-03   -0.71456E-04 37490   0.859E-02    0.157E-01
DAV:   6    -0.132411224547E+04    0.25254E-03   -0.83752E-04 38420   0.981E-02    0.115E-01
DAV:   7    -0.132411238143E+04   -0.13595E-03   -0.34150E-04 35470   0.583E-02    0.402E-02
DAV:   8    -0.132411228616E+04    0.95261E-04   -0.88848E-05 23460   0.279E-02    0.271E-02
DAV:   9    -0.132411230849E+04   -0.22324E-04   -0.28942E-05 19240   0.150E-02
  19 F= -.13241123E+04 E0= -.13241123E+04  d E =-.346260E-01  mag=   114.0000
       N       E                     dE             d eps       ncg     rms          rms(c)
DAV:   1    -0.132335130728E+04    0.76098E+00   -0.24827E+01 49710   0.245E+01    0.400E+00
DAV:   2    -0.132403316314E+04   -0.68186E+00   -0.61203E+00 38100   0.415E+00    0.208E+00
DAV:   3    -0.132405874459E+04   -0.25581E-01   -0.25626E-01 37650   0.110E+00    0.116E+00
DAV:   4    -0.132405711500E+04    0.16296E-02   -0.15533E-02 40300   0.322E-01    0.702E-01
DAV:   5    -0.132405482007E+04    0.22949E-02   -0.62040E-03 41830   0.258E-01    0.513E-01
DAV:   6    -0.132405314652E+04    0.16735E-02   -0.71453E-03 39610   0.286E-01    0.338E-01
DAV:   7    -0.132405343947E+04   -0.29294E-03   -0.28996E-03 40280   0.167E-01    0.117E-01
DAV:   8    -0.132405327884E+04    0.16063E-03   -0.82033E-04 38290   0.773E-02    0.794E-02
DAV:   9    -0.132405333232E+04   -0.53482E-04   -0.14958E-04 30420   0.366E-02    0.489E-02
DAV:  10    -0.132405324316E+04    0.89164E-04   -0.30793E-05 20320   0.177E-02    0.318E-02
DAV:  11    -0.132405329097E+04   -0.47810E-04   -0.18707E-05 21360   0.149E-02
  20 F= -.13240533E+04 E0= -.13240533E+04  d E =0.590175E-01  mag=   114.0000
       N       E                     dE             d eps       ncg     rms          rms(c)
DAV:   1    -0.131827254550E+04    0.57807E+01   -0.16763E+02 50730   0.676E+01    0.116E+01
DAV:   2    -0.132347151730E+04   -0.51990E+01   -0.45459E+01 37830   0.114E+01    0.816E+00
DAV:   3    -0.132367055622E+04   -0.19904E+00   -0.22171E+00 37620   0.352E+00    0.352E+00
DAV:   4    -0.132366378825E+04    0.67680E-02   -0.16623E-01 40450   0.123E+00    0.205E+00
DAV:   5    -0.132364837497E+04    0.15413E-01   -0.43540E-02 39630   0.604E-01    0.144E+00
DAV:   6    -0.132363844357E+04    0.99314E-02   -0.26788E-02 40920   0.587E-01    0.824E-01
DAV:   7    -0.132363677087E+04    0.16727E-02   -0.19700E-02 40320   0.440E-01    0.470E-01
DAV:   8    -0.132363880329E+04   -0.20324E-02   -0.84415E-03 37660   0.280E-01    0.255E-01
DAV:   9    -0.132363844212E+04    0.36117E-03   -0.12776E-03 37160   0.121E-01    0.118E-01
DAV:  10    -0.132363817759E+04    0.26453E-03   -0.40605E-04 35420   0.395E-02    0.923E-02
DAV:  11    -0.132363828125E+04   -0.10366E-03   -0.56178E-05 24620   0.359E-02    0.472E-02
DAV:  12    -0.132363843214E+04   -0.15089E-03   -0.55473E-05 20180   0.192E-02    0.237E-02
DAV:  13    -0.132363837683E+04    0.55309E-04   -0.14131E-05 18870   0.987E-03    0.140E-02
DAV:  14    -0.132363836826E+04    0.85705E-05   -0.57578E-06 18700   0.723E-03
  21 F= -.13236384E+04 E0= -.13236384E+04  d E =0.414923E+00  mag=   114.0000
       N       E                     dE             d eps       ncg     rms          rms(c)
DAV:   1    -0.132198395737E+04    0.16544E+01   -0.79101E+01 51160   0.448E+01    0.712E+00
DAV:   2    -0.132402566971E+04   -0.20417E+01   -0.18011E+01 38030   0.739E+00    0.418E+00
DAV:   3    -0.132411190895E+04   -0.86239E-01   -0.88059E-01 37820   0.207E+00    0.217E+00
DAV:   4    -0.132410688925E+04    0.50197E-02   -0.59304E-02 40130   0.701E-01    0.117E+00
DAV:   5    -0.132409948290E+04    0.74063E-02   -0.25395E-02 40010   0.497E-01    0.897E-01
DAV:   6    -0.132409368170E+04    0.58012E-02   -0.23434E-02 39190   0.531E-01    0.588E-01
DAV:   7    -0.132409363548E+04    0.46222E-04   -0.95467E-03 39910   0.311E-01    0.254E-01
DAV:   8    -0.132409369391E+04   -0.58433E-04   -0.35371E-03 38410   0.161E-01    0.170E-01
DAV:   9    -0.132409386307E+04   -0.16916E-03   -0.55389E-04 37570   0.764E-02    0.954E-02
DAV:  10    -0.132409361130E+04    0.25177E-03   -0.14988E-04 33500   0.323E-02    0.619E-02
DAV:  11    -0.132409375288E+04   -0.14158E-03   -0.41638E-05 23200   0.271E-02    0.286E-02
DAV:  12    -0.132409381720E+04   -0.64320E-04   -0.36789E-05 19050   0.140E-02    0.204E-02
DAV:  13    -0.132409376693E+04    0.50276E-04   -0.63026E-06 18730   0.759E-03    0.103E-02
DAV:  14    -0.132409377629E+04   -0.93667E-05   -0.26494E-06 18450   0.509E-03
  22 F= -.13240938E+04 E0= -.13240938E+04  d E =-.455408E+00  mag=   114.0000
       N       E                     dE             d eps       ncg     rms          rms(c)
DAV:   1    -0.132393444076E+04    0.15933E+00   -0.51957E+00 49100   0.112E+01    0.183E+00
DAV:   2    -0.132408341997E+04   -0.14898E+00   -0.13428E+00 37860   0.190E+00    0.926E-01
DAV:   3    -0.132408883526E+04   -0.54153E-02   -0.53923E-02 37620   0.485E-01    0.509E-01
DAV:   4    -0.132408826074E+04    0.57453E-03   -0.32390E-03 39980   0.132E-01    0.318E-01
DAV:   5    -0.132408789365E+04    0.36708E-03   -0.12654E-03 41520   0.111E-01    0.228E-01
DAV:   6    -0.132408735337E+04    0.54029E-03   -0.15057E-03 39380   0.130E-01    0.160E-01
DAV:   7    -0.132408760423E+04   -0.25087E-03   -0.61593E-04 38960   0.775E-02    0.473E-02
DAV:   8    -0.132408752636E+04    0.77866E-04   -0.12323E-04 28780   0.321E-02    0.305E-02
DAV:   9    -0.132408746831E+04    0.58052E-04   -0.32962E-05 19420   0.150E-02    0.237E-02
DAV:  10    -0.132408749482E+04   -0.26505E-04   -0.58797E-06 18710   0.776E-03
  23 F= -.13240875E+04 E0= -.13240875E+04  d E =0.628148E-02  mag=   114.0000
       N       E                     dE             d eps       ncg     rms          rms(c)
DAV:   1    -0.132157417802E+04    0.25133E+01   -0.89225E+01 49570   0.455E+01    0.738E+00
DAV:   2    -0.132381222802E+04   -0.22381E+01   -0.20169E+01 37780   0.776E+00    0.401E+00
DAV:   3    -0.132389083549E+04   -0.78607E-01   -0.87114E-01 37800   0.201E+00    0.209E+00
DAV:   4    -0.132388760037E+04    0.32351E-02   -0.53468E-02 41330   0.594E-01    0.128E+00
DAV:   5    -0.132387857865E+04    0.90217E-02   -0.22387E-02 40090   0.486E-01    0.968E-01
DAV:   6    -0.132387494314E+04    0.36355E-02   -0.23397E-02 39330   0.523E-01    0.651E-01
DAV:   7    -0.132387248419E+04    0.24589E-02   -0.97094E-03 40250   0.329E-01    0.188E-01
DAV:   8    -0.132387392025E+04   -0.14361E-02   -0.30181E-03 39320   0.138E-01    0.121E-01
DAV:   9    -0.132387385459E+04    0.65655E-04   -0.55128E-04 37330   0.550E-02    0.102E-01
DAV:  10    -0.132387358519E+04    0.26940E-03   -0.78753E-05 25100   0.280E-02    0.609E-02
DAV:  11    -0.132387375523E+04   -0.17003E-03   -0.56080E-05 23790   0.278E-02    0.368E-02
DAV:  12    -0.132387381932E+04   -0.64092E-04   -0.35605E-05 20580   0.209E-02    0.215E-02
DAV:  13    -0.132387378176E+04    0.37560E-04   -0.10900E-05 18760   0.867E-03
  24 F= -.13238738E+04 E0= -.13238738E+04  d E =0.213713E+00  mag=   114.0000
       N       E                     dE             d eps       ncg     rms          rms(c)
DAV:   1    -0.131559428617E+04    0.82795E+01   -0.26335E+02 50640   0.847E+01    0.146E+01
DAV:   2    -0.132330251339E+04   -0.77082E+01   -0.67809E+01 38030   0.142E+01    0.993E+00
DAV:   3    -0.132362405015E+04   -0.32154E+00   -0.33146E+00 37910   0.419E+00    0.434E+00
DAV:   4    -0.132360802027E+04    0.16030E-01   -0.21210E-01 40250   0.136E+00    0.252E+00
DAV:   5    -0.132358077985E+04    0.27240E-01   -0.66976E-02 39730   0.735E-01    0.175E+00
DAV:   6    -0.132356304106E+04    0.17739E-01   -0.37801E-02 40940   0.754E-01    0.991E-01
DAV:   7    -0.132356180071E+04    0.12403E-02   -0.25469E-02 40260   0.488E-01    0.387E-01
DAV:   8    -0.132356458696E+04   -0.27862E-02   -0.93399E-03 37570   0.238E-01    0.236E-01
DAV:   9    -0.132356365146E+04    0.93550E-03   -0.18483E-03 37560   0.980E-02    0.189E-01
DAV:  10    -0.132356345072E+04    0.20074E-03   -0.41552E-04 35450   0.659E-02    0.115E-01
DAV:  11    -0.132356371786E+04   -0.26714E-03   -0.20809E-04 33600   0.491E-02    0.599E-02
DAV:  12    -0.132356385314E+04   -0.13528E-03   -0.95479E-05 26330   0.273E-02    0.352E-02
DAV:  13    -0.132356365623E+04    0.19691E-03   -0.23440E-05 19250   0.145E-02    0.167E-02
DAV:  14    -0.132356365436E+04    0.18692E-05   -0.85369E-06 18780   0.584E-03
  25 F= -.13235637E+04 E0= -.13235637E+04  d E =0.310127E+00  mag=   114.0000
       N       E                     dE             d eps       ncg     rms          rms(c)
DAV:   1    -0.132273607300E+04    0.82758E+00   -0.50224E+01 50630   0.352E+01    0.556E+00
DAV:   2    -0.132399176344E+04   -0.12557E+01   -0.11273E+01 38050   0.583E+00    0.306E+00
DAV:   3    -0.132404324868E+04   -0.51485E-01   -0.53064E-01 37850   0.160E+00    0.169E+00
DAV:   4    -0.132404179320E+04    0.14555E-02   -0.36354E-02 40320   0.501E-01    0.957E-01
DAV:   5    -0.132403528059E+04    0.65126E-02   -0.16716E-02 40780   0.387E-01    0.726E-01
DAV:   6    -0.132403306935E+04    0.22112E-02   -0.15068E-02 39490   0.397E-01    0.429E-01
DAV:   7    -0.132403174703E+04    0.13223E-02   -0.60790E-03 39690   0.234E-01    0.202E-01
DAV:   8    -0.132403232554E+04   -0.57851E-03   -0.20153E-03 38110   0.127E-01    0.130E-01
DAV:   9    -0.132403237357E+04   -0.48031E-04   -0.33767E-04 34900   0.605E-02
  26 F= -.13240324E+04 E0= -.13240324E+04  d E =-.468719E+00  mag=   114.0000
       N       E                     dE             d eps       ncg     rms          rms(c)
DAV:   1    -0.132336483377E+04    0.66749E+00   -0.28884E+01 50470   0.259E+01    0.398E+00
DAV:   2    -0.132403419908E+04   -0.66937E+00   -0.60571E+00 37670   0.435E+00    0.218E+00
DAV:   3    -0.132405976881E+04   -0.25570E-01   -0.30592E-01 37810   0.126E+00    0.133E+00
DAV:   4    -0.132405922487E+04    0.54394E-03   -0.23728E-02 39750   0.442E-01    0.717E-01
DAV:   5    -0.132405559120E+04    0.36337E-02   -0.85314E-03 40420   0.284E-01    0.553E-01
DAV:   6    -0.132405412921E+04    0.14620E-02   -0.84824E-03 39400   0.300E-01    0.292E-01
DAV:   7    -0.132405333108E+04    0.79812E-03   -0.36072E-03 39690   0.181E-01    0.166E-01
DAV:   8    -0.132405364439E+04   -0.31331E-03   -0.13279E-03 38710   0.998E-02    0.988E-02
DAV:   9    -0.132405370631E+04   -0.61919E-04   -0.14949E-04 28670   0.468E-02    0.545E-02
DAV:  10    -0.132405361802E+04    0.88290E-04   -0.74108E-05 25740   0.230E-02    0.500E-02
DAV:  11    -0.132405364055E+04   -0.22531E-04   -0.22809E-05 22120   0.190E-02
  27 F= -.13240536E+04 E0= -.13240536E+04  d E =-.212670E-01  mag=   114.0000
       N       E                     dE             d eps       ncg     rms          rms(c)
DAV:   1    -0.132337220163E+04    0.68142E+00   -0.21674E+01 46670   0.212E+01    0.353E+00
DAV:   2    -0.132390223112E+04   -0.53003E+00   -0.49329E+00 38160   0.373E+00    0.177E+00
DAV:   3    -0.132391669643E+04   -0.14465E-01   -0.17437E-01 37570   0.899E-01    0.974E-01
DAV:   4    -0.132391603385E+04    0.66258E-03   -0.11082E-02 40100   0.250E-01    0.637E-01
DAV:   5    -0.132391383711E+04    0.21967E-02   -0.42804E-03 41730   0.220E-01    0.483E-01
DAV:   6    -0.132391329529E+04    0.54182E-03   -0.56126E-03 40480   0.260E-01    0.304E-01
DAV:   7    -0.132391247483E+04    0.82046E-03   -0.24273E-03 40340   0.158E-01    0.957E-02
DAV:   8    -0.132391293185E+04   -0.45701E-03   -0.62193E-04 37680   0.651E-02    0.627E-02
DAV:   9    -0.132391287936E+04    0.52485E-04   -0.95059E-05 25990   0.287E-02    0.436E-02
DAV:  10    -0.132391286737E+04    0.11993E-04   -0.21200E-05 19490   0.158E-02
  28 F= -.13239129E+04 E0= -.13239129E+04  d E =0.140773E+00  mag=   114.0000
       N       E                     dE             d eps       ncg     rms          rms(c)
DAV:   1    -0.131727184214E+04    0.66410E+01   -0.22541E+02 50250   0.753E+01    0.127E+01
DAV:   2    -0.132340445645E+04   -0.61326E+01   -0.54895E+01 38570   0.128E+01    0.827E+00
DAV:   3    -0.132365331654E+04   -0.24886E+00   -0.26358E+00 37800   0.373E+00    0.403E+00
DAV:   4    -0.132363632106E+04    0.16995E-01   -0.17793E-01 39940   0.123E+00    0.228E+00
DAV:   5    -0.132361052554E+04    0.25796E-01   -0.60860E-02 40340   0.686E-01    0.161E+00
DAV:   6    -0.132359664543E+04    0.13880E-01   -0.43458E-02 40480   0.719E-01    0.100E+00
DAV:   7    -0.132359356724E+04    0.30782E-02   -0.31348E-02 40220   0.552E-01    0.544E-01
DAV:   8    -0.132359576318E+04   -0.21959E-02   -0.11830E-02 37680   0.308E-01    0.297E-01
DAV:   9    -0.132359529575E+04    0.46743E-03   -0.19726E-03 37250   0.130E-01    0.162E-01
DAV:  10    -0.132359485682E+04    0.43893E-03   -0.45494E-04 35830   0.505E-02    0.105E-01
DAV:  11    -0.132359513634E+04   -0.27952E-03   -0.14115E-04 28710   0.432E-02    0.510E-02
DAV:  12    -0.132359518306E+04   -0.46716E-04   -0.99694E-05 26520   0.271E-02
  29 F= -.13235952E+04 E0= -.13235952E+04  d E =0.317684E+00  mag=   114.0000
       N       E                     dE             d eps       ncg     rms          rms(c)
DAV:   1    -0.132249505657E+04    0.11001E+01   -0.61817E+01 50660   0.383E+01    0.602E+00
DAV:   2    -0.132399676573E+04   -0.15017E+01   -0.13559E+01 38000   0.643E+00    0.349E+00
DAV:   3    -0.132405573609E+04   -0.58970E-01   -0.66537E-01 37920   0.195E+00    0.211E+00
DAV:   4    -0.132405255890E+04    0.31772E-02   -0.61734E-02 39770   0.721E-01    0.114E+00
DAV:   5    -0.132404473070E+04    0.78282E-02   -0.20755E-02 40440   0.433E-01    0.830E-01
DAV:   6    -0.132404081000E+04    0.39207E-02   -0.18653E-02 40120   0.440E-01    0.424E-01
DAV:   7    -0.132403975469E+04    0.10553E-02   -0.82313E-03 39310   0.262E-01    0.290E-01
DAV:   8    -0.132404021497E+04   -0.46028E-03   -0.29285E-03 38310   0.149E-01    0.136E-01
DAV:   9    -0.132404025111E+04   -0.36145E-04   -0.28420E-04 34170   0.644E-02
  30 F= -.13240403E+04 E0= -.13240403E+04  d E =-.445068E+00  mag=   114.0000
       N       E                     dE             d eps       ncg     rms          rms(c)
DAV:   1    -0.132364774120E+04    0.39247E+00   -0.16004E+01 49870   0.191E+01    0.298E+00
DAV:   2    -0.132402402917E+04   -0.37629E+00   -0.34454E+00 38050   0.326E+00    0.164E+00
DAV:   3    -0.132403721812E+04   -0.13189E-01   -0.17573E-01 37690   0.101E+00    0.112E+00
DAV:   4    -0.132403709371E+04    0.12440E-03   -0.17314E-02 38930   0.387E-01    0.575E-01
DAV:   5    -0.132403477127E+04    0.23224E-02   -0.41745E-03 40310   0.202E-01    0.422E-01
DAV:   6    -0.132403386431E+04    0.90697E-03   -0.45667E-03 40330   0.221E-01    0.206E-01
DAV:   7    -0.132403347613E+04    0.38817E-03   -0.22372E-03 39450   0.137E-01    0.152E-01
DAV:   8    -0.132403356694E+04   -0.90803E-04   -0.80057E-04 37440   0.783E-02    0.688E-02
DAV:   9    -0.132403360038E+04   -0.33445E-04   -0.73145E-05 24430   0.354E-02
  31 F= -.13240336E+04 E0= -.13240336E+04  d E =0.665073E-02  mag=   114.0000
       N       E                     dE             d eps       ncg     rms          rms(c)
DAV:   1    -0.132202063518E+04    0.20129E+01   -0.77522E+01 49560   0.415E+01    0.663E+00
DAV:   2    -0.132382974814E+04   -0.18091E+01   -0.16467E+01 37990   0.709E+00    0.368E+00
DAV:   3    -0.132389429308E+04   -0.64545E-01   -0.74328E-01 37830   0.187E+00    0.202E+00
DAV:   4    -0.132388880046E+04    0.54926E-02   -0.41044E-02 41420   0.529E-01    0.114E+00
DAV:   5    -0.132388137222E+04    0.74282E-02   -0.21099E-02 40810   0.442E-01    0.849E-01
DAV:   6    -0.132387693599E+04    0.44362E-02   -0.23695E-02 39830   0.496E-01    0.649E-01
DAV:   7    -0.132387650334E+04    0.43266E-03   -0.86857E-03 40420   0.301E-01    0.178E-01
DAV:   8    -0.132387650752E+04   -0.41793E-05   -0.27344E-03 39170   0.129E-01    0.133E-01
DAV:   9    -0.132387641872E+04    0.88795E-04   -0.52187E-04 36120   0.639E-02    0.972E-02
DAV:  10    -0.132387625091E+04    0.16781E-03   -0.81345E-05 24260   0.298E-02    0.617E-02
DAV:  11    -0.132387637022E+04   -0.11930E-03   -0.85271E-05 24770   0.305E-02    0.318E-02
DAV:  12    -0.132387637215E+04   -0.19338E-05   -0.34452E-05 19370   0.150E-02
  32 F= -.13238764E+04 E0= -.13238764E+04  d E =0.157228E+00  mag=   114.0000
       N       E                     dE             d eps       ncg     rms          rms(c)
DAV:   1    -0.132026073760E+04    0.36156E+01   -0.14192E+02 51130   0.585E+01    0.926E+00
DAV:   2    -0.132373373463E+04   -0.34730E+01   -0.31193E+01 38020   0.986E+00    0.584E+00
DAV:   3    -0.132387072336E+04   -0.13699E+00   -0.16291E+00 37820   0.293E+00    0.309E+00
DAV:   4    -0.132386101917E+04    0.97042E-02   -0.15497E-01 39870   0.120E+00    0.181E+00
DAV:   5    -0.132384487182E+04    0.16147E-01   -0.53034E-02 38700   0.724E-01    0.131E+00
DAV:   6    -0.132383337247E+04    0.11499E-01   -0.37635E-02 40080   0.654E-01    0.643E-01
DAV:   7    -0.132383122332E+04    0.21491E-02   -0.17418E-02 40000   0.380E-01    0.332E-01
DAV:   8    -0.132383241198E+04   -0.11887E-02   -0.70177E-03 39890   0.201E-01    0.209E-01
DAV:   9    -0.132383247768E+04   -0.65702E-04   -0.76208E-04 38210   0.904E-02    0.126E-01
DAV:  10    -0.132383212557E+04    0.35211E-03   -0.31076E-04 35590   0.480E-02    0.107E-01
DAV:  11    -0.132383223134E+04   -0.10577E-03   -0.10055E-04 26500   0.434E-02    0.434E-02
DAV:  12    -0.132383244688E+04   -0.21554E-03   -0.61264E-05 22350   0.208E-02    0.178E-02
DAV:  13    -0.132383234515E+04    0.10173E-03   -0.20457E-05 18910   0.936E-03    0.148E-02
DAV:  14    -0.132383234262E+04    0.25275E-05   -0.44493E-06 18730   0.568E-03
  33 F= -.13238323E+04 E0= -.13238323E+04  d E =0.440295E-01  mag=   114.0000
       N       E                     dE             d eps       ncg     rms          rms(c)
DAV:   1    -0.132363634049E+04    0.19600E+00   -0.14299E+01 50040   0.187E+01    0.292E+00
DAV:   2    -0.132399851894E+04   -0.36218E+00   -0.32975E+00 38400   0.315E+00    0.161E+00
DAV:   3    -0.132401294489E+04   -0.14426E-01   -0.16237E-01 37880   0.866E-01    0.965E-01
DAV:   4    -0.132401243496E+04    0.50993E-03   -0.10868E-02 39440   0.278E-01    0.520E-01
DAV:   5    -0.132401017891E+04    0.22560E-02   -0.50685E-03 40360   0.215E-01    0.416E-01
DAV:   6    -0.132400964326E+04    0.53565E-03   -0.51832E-03 39940   0.233E-01    0.243E-01
DAV:   7    -0.132400892232E+04    0.72094E-03   -0.19710E-03 39420   0.149E-01    0.980E-02
DAV:   8    -0.132400915280E+04   -0.23048E-03   -0.72335E-04 38520   0.677E-02    0.660E-02
DAV:   9    -0.132400922070E+04   -0.67895E-04   -0.10480E-04 26220   0.275E-02    0.491E-02
DAV:  10    -0.132400913422E+04    0.86482E-04   -0.21778E-05 19790   0.161E-02    0.300E-02
DAV:  11    -0.132400915951E+04   -0.25294E-04   -0.21075E-05 21450   0.151E-02
  34 F= -.13240092E+04 E0= -.13240092E+04  d E =-.176817E+00  mag=   114.0000
       N       E                     dE             d eps       ncg     rms          rms(c)
DAV:   1    -0.132372080008E+04    0.28833E+00   -0.12239E+01 49250   0.168E+01    0.267E+00
DAV:   2    -0.132402898229E+04   -0.30818E+00   -0.28189E+00 38130   0.287E+00    0.143E+00
DAV:   3    -0.132403996967E+04   -0.10987E-01   -0.12764E-01 37800   0.759E-01    0.824E-01
DAV:   4    -0.132403935694E+04    0.61273E-03   -0.68857E-03 40180   0.205E-01    0.461E-01
DAV:   5    -0.132403754161E+04    0.18153E-02   -0.29944E-03 41680   0.163E-01    0.272E-01
DAV:   6    -0.132403717527E+04    0.36634E-03   -0.20965E-03 39270   0.161E-01    0.183E-01
DAV:   7    -0.132403692364E+04    0.25163E-03   -0.11160E-03 38590   0.962E-02    0.722E-02
DAV:   8    -0.132403705335E+04   -0.12972E-03   -0.20672E-04 32930   0.487E-02    0.459E-02
DAV:   9    -0.132403700317E+04    0.50189E-04   -0.74072E-05 22910   0.219E-02    0.436E-02
DAV:  10    -0.132403702006E+04   -0.16897E-04   -0.20028E-05 19780   0.164E-02
  35 F= -.13240370E+04 E0= -.13240370E+04  d E =-.278606E-01  mag=   114.0000
       N       E                     dE             d eps       ncg     rms          rms(c)
DAV:   1    -0.132315278012E+04    0.88422E+00   -0.31602E+01 48650   0.252E+01    0.414E+00
DAV:   2    -0.132396670284E+04   -0.81392E+00   -0.75150E+00 38010   0.433E+00    0.255E+00
DAV:   3    -0.132398814639E+04   -0.21444E-01   -0.30031E-01 37400   0.133E+00    0.160E+00
DAV:   4    -0.132398589428E+04    0.22521E-02   -0.38933E-02 39220   0.597E-01    0.871E-01
DAV:   5    -0.132398242114E+04    0.34731E-02   -0.67368E-03 40970   0.260E-01    0.602E-01
DAV:   6    -0.132398094609E+04    0.14751E-02   -0.54413E-03 42280   0.246E-01    0.243E-01
DAV:   7    -0.132398085005E+04    0.96038E-04   -0.25902E-03 40260   0.110E-01    0.108E-01
DAV:   8    -0.132398089063E+04   -0.40580E-04   -0.62094E-04 37930   0.617E-02    0.703E-02
DAV:   9    -0.132398097650E+04   -0.85871E-04   -0.65763E-05 21880   0.258E-02    0.447E-02
DAV:  10    -0.132398091424E+04    0.62259E-04   -0.41565E-05 20640   0.193E-02    0.397E-02
DAV:  11    -0.132398094231E+04   -0.28070E-04   -0.18029E-05 20610   0.162E-02
  36 F= -.13239809E+04 E0= -.13239809E+04  d E =0.560777E-01  mag=   114.0000
       N       E                     dE             d eps       ncg     rms          rms(c)
DAV:   1    -0.132125869363E+04    0.27222E+01   -0.91931E+01 50380   0.466E+01    0.768E+00
DAV:   2    -0.132380685326E+04   -0.25482E+01   -0.22863E+01 38380   0.797E+00    0.600E+00
DAV:   3    -0.132389443778E+04   -0.87585E-01   -0.17030E+00 37410   0.347E+00    0.384E+00
DAV:   4    -0.132386379232E+04    0.30645E-01   -0.19969E-01 38470   0.149E+00    0.154E+00
DAV:   5    -0.132385529932E+04    0.84930E-02   -0.27375E-02 41060   0.368E-01    0.104E+00
DAV:   6    -0.132384896081E+04    0.63385E-02   -0.12757E-02 39910   0.375E-01    0.600E-01
DAV:   7    -0.132384826309E+04    0.69772E-03   -0.80757E-03 40410   0.288E-01    0.281E-01
DAV:   8    -0.132384821632E+04    0.46774E-04   -0.40985E-03 37720   0.165E-01    0.193E-01
DAV:   9    -0.132384828152E+04   -0.65203E-04   -0.69486E-04 36480   0.856E-02    0.108E-01
DAV:  10    -0.132384828073E+04    0.79388E-06   -0.14667E-04 33250   0.338E-02
  37 F= -.13238483E+04 E0= -.13238483E+04  d E =0.132662E+00  mag=   114.0000
       N       E                     dE             d eps       ncg     rms          rms(c)
DAV:   1    -0.132350046097E+04    0.34782E+00   -0.20027E+01 50160   0.219E+01    0.342E+00
DAV:   2    -0.132401656411E+04   -0.51610E+00   -0.46872E+00 37970   0.366E+00    0.189E+00
DAV:   3    -0.132403606481E+04   -0.19501E-01   -0.23110E-01 37660   0.103E+00    0.111E+00
DAV:   4    -0.132403552870E+04    0.53611E-03   -0.18292E-02 39990   0.361E-01    0.638E-01
DAV:   5    -0.132403300858E+04    0.25201E-02   -0.74139E-03 39680   0.262E-01    0.508E-01
DAV:   6    -0.132403188910E+04    0.11195E-02   -0.65361E-03 40130   0.262E-01    0.242E-01
DAV:   7    -0.132403115385E+04    0.73524E-03   -0.22442E-03 39910   0.137E-01    0.114E-01
DAV:   8    -0.132403152654E+04   -0.37269E-03   -0.89782E-04 39140   0.727E-02    0.779E-02
DAV:   9    -0.132403146905E+04    0.57496E-04   -0.10149E-04 26960   0.326E-02    0.475E-02
DAV:  10    -0.132403145307E+04    0.15975E-04   -0.38013E-05 20500   0.183E-02
  38 F= -.13240315E+04 E0= -.13240315E+04  d E =-.183172E+00  mag=   114.0000
       N       E                     dE             d eps       ncg     rms          rms(c)
DAV:   1    -0.132388178968E+04    0.14968E+00   -0.58489E+00 49640   0.118E+01    0.187E+00
DAV:   2    -0.132404319890E+04   -0.16141E+00   -0.14540E+00 38310   0.197E+00    0.101E+00
DAV:   3    -0.132404893094E+04   -0.57320E-02   -0.66091E-02 37470   0.524E-01    0.575E-01
DAV:   4    -0.132404869531E+04    0.23563E-03   -0.38103E-03 41200   0.150E-01    0.334E-01
DAV:   5    -0.132404788882E+04    0.80649E-03   -0.20460E-03 40630   0.137E-01    0.240E-01
DAV:   6    -0.132404792627E+04   -0.37454E-04   -0.21743E-03 39110   0.143E-01    0.192E-01
DAV:   7    -0.132404744423E+04    0.48204E-03   -0.73114E-04 37920   0.876E-02    0.511E-02
DAV:   8    -0.132404767273E+04   -0.22850E-03   -0.19089E-04 32820   0.374E-02    0.363E-02
DAV:   9    -0.132404767303E+04   -0.30274E-06   -0.37458E-05 19610   0.168E-02
  39 F= -.13240477E+04 E0= -.13240477E+04  d E =-.162200E-01  mag=   114.0000
       N       E                     dE             d eps       ncg     rms          rms(c)
DAV:   1    -0.132396991971E+04    0.77753E-01   -0.25308E+00 48640   0.751E+00    0.122E+00
DAV:   2    -0.132403666328E+04   -0.66744E-01   -0.60844E-01 37690   0.127E+00    0.628E-01
DAV:   3    -0.132403891870E+04   -0.22554E-02   -0.23834E-02 37420   0.348E-01    0.376E-01
DAV:   4    -0.132403844832E+04    0.47038E-03   -0.23135E-03 39360   0.132E-01    0.234E-01
DAV:   5    -0.132403848637E+04   -0.38046E-04   -0.49691E-04 35390   0.715E-02
  40 F= -.13240385E+04 E0= -.13240385E+04  d E =0.918667E-02  mag=   114.0000
       N       E                     dE             d eps       ncg     rms          rms(c)
DAV:   1    -0.132181573291E+04    0.22227E+01   -0.68821E+01 49690   0.410E+01    0.680E+00
DAV:   2    -0.132380757699E+04   -0.19918E+01   -0.17958E+01 38320   0.704E+00    0.457E+00
DAV:   3    -0.132387872044E+04   -0.71143E-01   -0.10636E+00 37620   0.266E+00    0.300E+00
DAV:   4    -0.132386468071E+04    0.14040E-01   -0.13603E-01 39010   0.115E+00    0.136E+00
DAV:   5    -0.132385648453E+04    0.81962E-02   -0.18005E-02 40430   0.368E-01    0.928E-01
DAV:   6    -0.132385060132E+04    0.58832E-02   -0.12063E-02 41620   0.356E-01    0.479E-01
DAV:   7    -0.132385025250E+04    0.34881E-03   -0.65615E-03 40660   0.238E-01    0.260E-01
DAV:   8    -0.132385045163E+04   -0.19913E-03   -0.28381E-03 37720   0.140E-01    0.149E-01
DAV:   9    -0.132385054615E+04   -0.94521E-04   -0.33605E-04 35270   0.627E-02    0.857E-02
DAV:  10    -0.132385044258E+04    0.10357E-03   -0.13561E-04 31780   0.292E-02    0.651E-02
DAV:  11    -0.132385046653E+04   -0.23957E-04   -0.34469E-05 23390   0.221E-02
  41 F= -.13238505E+04 E0= -.13238505E+04  d E =0.188020E+00  mag=   114.0000
       N       E                     dE             d eps       ncg     rms          rms(c)
DAV:   1    -0.132300160931E+04    0.84883E+00   -0.38260E+01 50370   0.310E+01    0.486E+00
DAV:   2    -0.132402669032E+04   -0.10251E+01   -0.92383E+00 38180   0.515E+00    0.278E+00
DAV:   3    -0.132406613756E+04   -0.39447E-01   -0.46509E-01 37710   0.152E+00    0.164E+00
DAV:   4    -0.132406471928E+04    0.14183E-02   -0.44541E-02 39630   0.597E-01    0.939E-01
DAV:   5    -0.132405992340E+04    0.47959E-02   -0.13960E-02 39860   0.366E-01    0.692E-01
DAV:   6    -0.132405717112E+04    0.27523E-02   -0.11360E-02 40060   0.350E-01    0.307E-01
DAV:   7    -0.132405638000E+04    0.79112E-03   -0.45042E-03 39890   0.183E-01    0.155E-01
DAV:   8    -0.132405680212E+04   -0.42211E-03   -0.16220E-03 41190   0.990E-02    0.950E-02
DAV:   9    -0.132405682070E+04   -0.18579E-04   -0.19636E-04 33050   0.374E-02
  42 F= -.13240568E+04 E0= -.13240568E+04  d E =-.206354E+00  mag=   114.0000
       N       E                     dE             d eps       ncg     rms          rms(c)
DAV:   1    -0.132404534062E+04    0.11462E-01   -0.46019E-01 49500   0.339E+00    0.572E-01
DAV:   2    -0.132406090171E+04   -0.15561E-01   -0.13623E-01 38590   0.559E-01    0.287E-01
DAV:   3    -0.132406140414E+04   -0.50243E-03   -0.49462E-03 37190   0.138E-01    0.153E-01
DAV:   4    -0.132406136954E+04    0.34601E-04   -0.30542E-04 30960   0.373E-02
  43 F= -.13240614E+04 E0= -.13240614E+04  d E =-.454884E-02  mag=   114.0000
       N       E                     dE             d eps       ncg     rms          rms(c)
DAV:   1    -0.132292823228E+04    0.11332E+01   -0.36255E+01 49830   0.299E+01    0.485E+00
DAV:   2    -0.132394989746E+04   -0.10217E+01   -0.90942E+00 37720   0.496E+00    0.255E+00
DAV:   3    -0.132398324088E+04   -0.33343E-01   -0.34026E-01 37710   0.124E+00    0.128E+00
DAV:   4    -0.132398265666E+04    0.58422E-03   -0.18008E-02 41570   0.288E-01    0.809E-01
DAV:   5    -0.132397924933E+04    0.34073E-02   -0.66604E-03 41510   0.245E-01    0.439E-01
DAV:   6    -0.132397812314E+04    0.11262E-02   -0.37438E-03 41230   0.206E-01    0.190E-01
DAV:   7    -0.132397869123E+04   -0.56809E-03   -0.21582E-03 38140   0.128E-01    0.125E-01
DAV:   8    -0.132397870474E+04   -0.13516E-04   -0.41759E-04 36310   0.637E-02
  44 F= -.13239787E+04 E0= -.13239787E+04  d E =0.826648E-01  mag=   114.0000
       N       E                     dE             d eps       ncg     rms          rms(c)
DAV:   1    -0.131886450691E+04    0.51142E+01   -0.15881E+02 51350   0.665E+01    0.110E+01
DAV:   2    -0.132359186267E+04   -0.47274E+01   -0.41025E+01 38420   0.109E+01    0.771E+00
DAV:   3    -0.132376107871E+04   -0.16922E+00   -0.23337E+00 37530   0.411E+00    0.454E+00
DAV:   4    -0.132372812998E+04    0.32949E-01   -0.30268E-01 38840   0.182E+00    0.205E+00
DAV:   5    -0.132371502302E+04    0.13107E-01   -0.45599E-02 40410   0.609E-01    0.137E+00
DAV:   6    -0.132370569402E+04    0.93290E-02   -0.27554E-02 40750   0.566E-01    0.779E-01
DAV:   7    -0.132370464471E+04    0.10493E-02   -0.17392E-02 40190   0.458E-01    0.507E-01
DAV:   8    -0.132370517069E+04   -0.52598E-03   -0.73635E-03 37810   0.267E-01    0.214E-01
DAV:   9    -0.132370538958E+04   -0.21889E-03   -0.99134E-04 37080   0.946E-02    0.106E-01
DAV:  10    -0.132370531759E+04    0.71998E-04   -0.31777E-04 36510   0.408E-02    0.889E-02
DAV:  11    -0.132370528088E+04    0.36709E-04   -0.82391E-05 25970   0.373E-02
  45 F= -.13237053E+04 E0= -.13237053E+04  d E =0.273424E+00  mag=   114.0000
       N       E                     dE             d eps       ncg     rms          rms(c)
DAV:   1    -0.132248365456E+04    0.12217E+01   -0.53281E+01 50710   0.384E+01    0.612E+00
DAV:   2    -0.132402271866E+04   -0.15391E+01   -0.13531E+01 38330   0.620E+00    0.339E+00
DAV:   3    -0.132407973439E+04   -0.57016E-01   -0.56162E-01 37800   0.164E+00    0.171E+00
DAV:   4    -0.132407886275E+04    0.87163E-03   -0.33078E-02 41650   0.462E-01    0.968E-01
DAV:   5    -0.132407303966E+04    0.58231E-02   -0.16743E-02 40650   0.366E-01    0.688E-01
DAV:   6    -0.132407212744E+04    0.91222E-03   -0.14561E-02 39530   0.387E-01    0.542E-01
DAV:   7    -0.132407036706E+04    0.17604E-02   -0.63231E-03 39240   0.264E-01    0.178E-01
DAV:   8    -0.132407127274E+04   -0.90568E-03   -0.16065E-03 37960   0.126E-01    0.120E-01
DAV:   9    -0.132407134279E+04   -0.70047E-04   -0.44763E-04 36480   0.602E-02    0.867E-02
DAV:  10    -0.132407115105E+04    0.19174E-03   -0.68774E-05 23850   0.262E-02    0.487E-02
DAV:  11    -0.132407124933E+04   -0.98278E-04   -0.43280E-05 23060   0.229E-02    0.220E-02
DAV:  12    -0.132407130476E+04   -0.55434E-04   -0.20961E-05 18900   0.119E-02    0.151E-02
DAV:  13    -0.132407126903E+04    0.35735E-04   -0.61842E-06 18680   0.593E-03
  46 F= -.13240713E+04 E0= -.13240713E+04  d E =-.365988E+00  mag=   114.0000
       N       E                     dE             d eps       ncg     rms          rms(c)
DAV:   1    -0.132405384280E+04    0.17462E-01   -0.77851E-01 50400   0.481E+00    0.768E-01
DAV:   2    -0.132407939018E+04   -0.25547E-01   -0.22347E-01 37980   0.781E-01    0.387E-01
DAV:   3    -0.132408056942E+04   -0.11792E-02   -0.99059E-03 37650   0.210E-01    0.215E-01
DAV:   4    -0.132408046413E+04    0.10529E-03   -0.65087E-04 38620   0.626E-02    0.127E-01
DAV:   5    -0.132408051574E+04   -0.51611E-04   -0.23579E-04 30900   0.478E-02    0.986E-02
DAV:   6    -0.132408038062E+04    0.13512E-03   -0.24414E-04 32670   0.521E-02    0.585E-02
DAV:   7    -0.132408049482E+04   -0.11420E-03   -0.89463E-05 25420   0.304E-02    0.189E-02
DAV:   8    -0.132408044558E+04    0.49241E-04   -0.26088E-05 18850   0.143E-02
  47 F= -.13240804E+04 E0= -.13240804E+04  d E =-.917655E-02  mag=   114.0000
       N       E                     dE             d eps       ncg     rms          rms(c)
DAV:   1    -0.132385651224E+04    0.22398E+00   -0.70007E+00 48910   0.134E+01    0.222E+00
DAV:   2    -0.132407016662E+04   -0.21365E+00   -0.19152E+00 37420   0.224E+00    0.108E+00
DAV:   3    -0.132407632293E+04   -0.61563E-02   -0.70995E-02 37450   0.556E-01    0.560E-01
DAV:   4    -0.132407623634E+04    0.86590E-04   -0.43926E-03 40240   0.145E-01    0.380E-01
DAV:   5    -0.132407583360E+04    0.40274E-03   -0.12363E-03 41060   0.121E-01    0.274E-01
DAV:   6    -0.132407533201E+04    0.50158E-03   -0.17621E-03 42080   0.149E-01    0.183E-01
DAV:   7    -0.132407563183E+04   -0.29982E-03   -0.79142E-04 39360   0.888E-02    0.515E-02
DAV:   8    -0.132407548575E+04    0.14608E-03   -0.14482E-04 31360   0.347E-02    0.327E-02
DAV:   9    -0.132407549812E+04   -0.12373E-04   -0.32310E-05 19590   0.166E-02
  48 F= -.13240755E+04 E0= -.13240755E+04  d E =0.494746E-02  mag=   114.0000
       N       E                     dE             d eps       ncg     rms          rms(c)
DAV:   1    -0.131961369933E+04    0.44618E+01   -0.11966E+02 50510   0.583E+01    0.101E+01
DAV:   2    -0.132351248059E+04   -0.38988E+01   -0.34162E+01 38290   0.969E+00    0.620E+00
DAV:   3    -0.132364987407E+04   -0.13739E+00   -0.14768E+00 37660   0.283E+00    0.309E+00
DAV:   4    -0.132364881462E+04    0.10594E-02   -0.14660E-01 39700   0.110E+00    0.194E+00
DAV:   5    -0.132363714914E+04    0.11665E-01   -0.42122E-02 38880   0.636E-01    0.144E+00
DAV:   6    -0.132362926661E+04    0.78825E-02   -0.28269E-02 40320   0.592E-01    0.785E-01
DAV:   7    -0.132362691736E+04    0.23493E-02   -0.15836E-02 39840   0.424E-01    0.412E-01
DAV:   8    -0.132362817775E+04   -0.12604E-02   -0.67016E-03 37770   0.237E-01    0.210E-01
DAV:   9    -0.132362840026E+04   -0.22251E-03   -0.90112E-04 37200   0.975E-02    0.999E-02
DAV:  10    -0.132362806844E+04    0.33182E-03   -0.28574E-04 34770   0.393E-02    0.829E-02
DAV:  11    -0.132362813393E+04   -0.65485E-04   -0.42957E-05 22960   0.233E-02    0.367E-02
DAV:  12    -0.132362830866E+04   -0.17474E-03   -0.38719E-05 20120   0.165E-02    0.175E-02
DAV:  13    -0.132362822436E+04    0.84305E-04   -0.13150E-05 18820   0.100E-02    0.114E-02
DAV:  14    -0.132362823164E+04   -0.72775E-05   -0.35501E-06 18680   0.459E-03
  49 F= -.13236282E+04 E0= -.13236282E+04  d E =0.447266E+00  mag=   114.0000
       N       E                     dE             d eps       ncg     rms          rms(c)
DAV:   1    -0.132242998599E+04    0.11982E+01   -0.57691E+01 50060   0.385E+01    0.627E+00
DAV:   2    -0.132401538736E+04   -0.15854E+01   -0.14121E+01 38080   0.646E+00    0.367E+00
DAV:   3    -0.132408078781E+04   -0.65400E-01   -0.68350E-01 37850   0.176E+00    0.188E+00
DAV:   4    -0.132407854652E+04    0.22413E-02   -0.38762E-02 40860   0.494E-01    0.103E+00
DAV:   5    -0.132407160379E+04    0.69427E-02   -0.15270E-02 40790   0.358E-01    0.649E-01
DAV:   6    -0.132406896476E+04    0.26390E-02   -0.12200E-02 39610   0.411E-01    0.531E-01
DAV:   7    -0.132406898550E+04   -0.20744E-04   -0.74545E-03 39130   0.271E-01    0.218E-01
DAV:   8    -0.132406893864E+04    0.46862E-04   -0.18891E-03 37500   0.134E-01    0.128E-01
DAV:   9    -0.132406916620E+04   -0.22756E-03   -0.40696E-04 35440   0.613E-02    0.958E-02
DAV:  10    -0.132406890423E+04    0.26197E-03   -0.10172E-04 26680   0.323E-02    0.520E-02
DAV:  11    -0.132406905642E+04   -0.15219E-03   -0.38311E-05 22960   0.236E-02    0.247E-02
DAV:  12    -0.132406908489E+04   -0.28472E-04   -0.28651E-05 18850   0.122E-02
  50 F= -.13240691E+04 E0= -.13240691E+04  d E =-.440853E+00  mag=   114.0000
       N       E                     dE             d eps       ncg     rms          rms(c)
DAV:   1    -0.132395116416E+04    0.11789E+00   -0.40146E+00 50110   0.109E+01    0.181E+00
DAV:   2    -0.132408807232E+04   -0.13691E+00   -0.11919E+00 38390   0.179E+00    0.914E-01
DAV:   3    -0.132409368580E+04   -0.56135E-02   -0.52929E-02 37650   0.485E-01    0.505E-01
DAV:   4    -0.132409350134E+04    0.18446E-03   -0.32296E-03 39420   0.136E-01    0.296E-01
DAV:   5    -0.132409336144E+04    0.13990E-03   -0.11851E-03 39890   0.105E-01    0.220E-01
DAV:   6    -0.132409296535E+04    0.39609E-03   -0.13065E-03 39180   0.120E-01    0.151E-01
DAV:   7    -0.132409319572E+04   -0.23038E-03   -0.50473E-04 37280   0.736E-02    0.438E-02
DAV:   8    -0.132409308638E+04    0.10934E-03   -0.12356E-04 28690   0.319E-02    0.274E-02
DAV:   9    -0.132409307657E+04    0.98071E-05   -0.32068E-05 18900   0.132E-02
  51 F= -.13240931E+04 E0= -.13240931E+04  d E =-.239917E-01  mag=   114.0000
       N       E                     dE             d eps       ncg     rms          rms(c)
DAV:   1    -0.132406439883E+04    0.28688E-01   -0.83472E-01 50130   0.507E+00    0.853E-01
DAV:   2    -0.132409556785E+04   -0.31169E-01   -0.26717E-01 37360   0.806E-01    0.402E-01
DAV:   3    -0.132409666486E+04   -0.10970E-02   -0.96634E-03 37050   0.198E-01    0.195E-01
DAV:   4    -0.132409656638E+04    0.98478E-04   -0.65367E-04 37140   0.544E-02    0.136E-01
DAV:   5    -0.132409664319E+04   -0.76813E-04   -0.15283E-04 25080   0.435E-02    0.103E-01
DAV:   6    -0.132409650142E+04    0.14178E-03   -0.18842E-04 28760   0.506E-02    0.536E-02
DAV:   7    -0.132409659703E+04   -0.95617E-04   -0.73546E-05 21580   0.251E-02    0.166E-02
DAV:   8    -0.132409657183E+04    0.25204E-04   -0.15537E-05 18250   0.104E-02
  52 F= -.13240966E+04 E0= -.13240966E+04  d E =-.349526E-02  mag=   114.0000
       N       E                     dE             d eps       ncg     rms          rms(c)
DAV:   1    -0.132391972654E+04    0.17687E+00   -0.62028E+00 48370   0.118E+01    0.195E+00
DAV:   2    -0.132409084656E+04   -0.17112E+00   -0.15252E+00 36450   0.197E+00    0.938E-01
DAV:   3    -0.132409469492E+04   -0.38484E-02   -0.48347E-02 36570   0.437E-01    0.440E-01
DAV:   4    -0.132409445662E+04    0.23829E-03   -0.29654E-03 39970   0.105E-01    0.325E-01
DAV:   5    -0.132409422817E+04    0.22846E-03   -0.62176E-04 39050   0.975E-02    0.223E-01
DAV:   6    -0.132409374800E+04    0.48017E-03   -0.10217E-03 42240   0.116E-01    0.131E-01
DAV:   7    -0.132409406862E+04   -0.32062E-03   -0.50013E-04 37680   0.654E-02    0.434E-02
DAV:   8    -0.132409395363E+04    0.11499E-03   -0.51333E-05 21110   0.238E-02    0.265E-02
DAV:   9    -0.132409392760E+04    0.26026E-04   -0.13635E-05 18860   0.120E-02
  53 F= -.13240939E+04 E0= -.13240939E+04  d E =0.264423E-02  mag=   114.0000
       N       E                     dE             d eps       ncg     rms          rms(c)
DAV:   1    -0.132346556588E+04    0.62839E+00   -0.23378E+01 47950   0.216E+01    0.351E+00
DAV:   2    -0.132404213762E+04   -0.57657E+00   -0.52035E+00 36470   0.361E+00    0.187E+00
DAV:   3    -0.132405591075E+04   -0.13773E-01   -0.16375E-01 36450   0.815E-01    0.854E-01
DAV:   4    -0.132405523604E+04    0.67471E-03   -0.11003E-02 40420   0.235E-01    0.616E-01
DAV:   5    -0.132405452661E+04    0.70943E-03   -0.34479E-03 42990   0.201E-01    0.442E-01
DAV:   6    -0.132405306830E+04    0.14583E-02   -0.38094E-03 41670   0.222E-01    0.243E-01
DAV:   7    -0.132405360449E+04   -0.53619E-03   -0.15299E-03 38690   0.114E-01    0.762E-02
DAV:   8    -0.132405359282E+04    0.11667E-04   -0.21282E-04 34850   0.403E-02
  54 F= -.13240536E+04 E0= -.13240536E+04  d E =0.403348E-01  mag=   114.0000
       N       E                     dE             d eps       ncg     rms          rms(c)
DAV:   1    -0.132369060524E+04    0.36300E+00   -0.14204E+01 49200   0.177E+01    0.291E+00
DAV:   2    -0.132407560259E+04   -0.38500E+00   -0.34259E+00 38020   0.296E+00    0.160E+00
DAV:   3    -0.132408663251E+04   -0.11030E-01   -0.13301E-01 36620   0.863E-01    0.957E-01
DAV:   4    -0.132408720501E+04   -0.57250E-03   -0.11938E-02 38920   0.304E-01    0.530E-01
DAV:   5    -0.132408585652E+04    0.13485E-02   -0.30338E-03 41080   0.163E-01    0.372E-01
DAV:   6    -0.132408539734E+04    0.45918E-03   -0.26526E-03 42260   0.171E-01    0.205E-01
DAV:   7    -0.132408506067E+04    0.33667E-03   -0.14255E-03 39210   0.115E-01    0.129E-01
DAV:   8    -0.132408530698E+04   -0.24631E-03   -0.36335E-04 35180   0.602E-02    0.440E-02
DAV:   9    -0.132408528644E+04    0.20534E-04   -0.44681E-05 21290   0.177E-02
  55 F= -.13240853E+04 E0= -.13240853E+04  d E =-.316936E-01  mag=   114.0000
       N       E                     dE             d eps       ncg     rms          rms(c)
DAV:   1    -0.132399526825E+04    0.90039E-01   -0.32001E+00 49550   0.938E+00    0.153E+00
DAV:   2    -0.132410302750E+04   -0.10776E+00   -0.94773E-01 37520   0.154E+00    0.746E-01
DAV:   3    -0.132410645311E+04   -0.34256E-02   -0.34832E-02 37270   0.372E-01    0.375E-01
DAV:   4    -0.132410644571E+04    0.74015E-05   -0.21176E-03 39460   0.883E-02    0.257E-01
DAV:   5    -0.132410635370E+04    0.92008E-04   -0.60291E-04 38720   0.820E-02    0.179E-01
DAV:   6    -0.132410610882E+04    0.24488E-03   -0.77440E-04 39480   0.952E-02    0.122E-01
DAV:   7    -0.132410633499E+04   -0.22617E-03   -0.31652E-04 34790   0.556E-02    0.307E-02
DAV:   8    -0.132410625838E+04    0.76618E-04   -0.41362E-05 20190   0.176E-02    0.173E-02
DAV:   9    -0.132410625297E+04    0.54007E-05   -0.89567E-06 18380   0.776E-03
  56 F= -.13241063E+04 E0= -.13241063E+04  d E =-.209665E-01  mag=   114.0000
       N       E                     dE             d eps       ncg     rms          rms(c)
DAV:   1    -0.132402178663E+04    0.84472E-01   -0.28972E+00 47790   0.811E+00    0.138E+00
DAV:   2    -0.132410784764E+04   -0.86061E-01   -0.75862E-01 36170   0.138E+00    0.652E-01
DAV:   3    -0.132410996879E+04   -0.21212E-02   -0.25848E-02 37090   0.311E-01    0.306E-01
DAV:   4    -0.132411003996E+04   -0.71163E-04   -0.16435E-03 38500   0.750E-02    0.230E-01
DAV:   5    -0.132410980969E+04    0.23027E-03   -0.25471E-04 34370   0.645E-02    0.158E-01
DAV:   6    -0.132410975216E+04    0.57526E-04   -0.47719E-04 41450   0.841E-02    0.910E-02
DAV:   7    -0.132410965563E+04    0.96530E-04   -0.25518E-04 33020   0.478E-02    0.322E-02
DAV:   8    -0.132410979772E+04   -0.14209E-03   -0.26649E-05 18990   0.167E-02    0.171E-02
DAV:   9    -0.132410976752E+04    0.30206E-04   -0.73933E-06 17950   0.803E-03
  57 F= -.13241098E+04 E0= -.13241098E+04  d E =-.351454E-02  mag=   114.0000
       N       E                     dE             d eps       ncg     rms          rms(c)
DAV:   1    -0.132392561176E+04    0.18419E+00   -0.77199E+00 46830   0.119E+01    0.196E+00
DAV:   2    -0.132410220019E+04   -0.17659E+00   -0.16123E+00 35910   0.202E+00    0.976E-01
DAV:   3    -0.132410568470E+04   -0.34845E-02   -0.50803E-02 36720   0.435E-01    0.447E-01
DAV:   4    -0.132410558875E+04    0.95943E-04   -0.32209E-03 39260   0.106E-01    0.329E-01
DAV:   5    -0.132410534162E+04    0.24713E-03   -0.67560E-04 42820   0.102E-01    0.216E-01
DAV:   6    -0.132410489015E+04    0.45148E-03   -0.10999E-03 43150   0.116E-01    0.138E-01
DAV:   7    -0.132410526910E+04   -0.37895E-03   -0.48925E-04 37290   0.661E-02    0.406E-02
DAV:   8    -0.132410520258E+04    0.66521E-04   -0.44351E-05 20600   0.201E-02    0.250E-02
DAV:   9    -0.132410516661E+04    0.35969E-04   -0.11453E-05 18500   0.108E-02
  58 F= -.13241052E+04 E0= -.13241052E+04  d E =0.460091E-02  mag=   114.0000
       N       E                     dE             d eps       ncg     rms          rms(c)
DAV:   1    -0.132357822287E+04    0.52698E+00   -0.22120E+01 46300   0.202E+01    0.330E+00
DAV:   2    -0.132409073182E+04   -0.51251E+00   -0.46906E+00 36100   0.343E+00    0.171E+00
DAV:   3    -0.132410047642E+04   -0.97446E-02   -0.14415E-01 36580   0.743E-01    0.788E-01
DAV:   4    -0.132410025993E+04    0.21649E-03   -0.86887E-03 40360   0.172E-01    0.571E-01
DAV:   5    -0.132409883363E+04    0.14263E-02   -0.16617E-03 43640   0.158E-01    0.342E-01
DAV:   6    -0.132409791642E+04    0.91721E-03   -0.25618E-03 43740   0.178E-01    0.230E-01
DAV:   7    -0.132409846105E+04   -0.54463E-03   -0.14297E-03 38410   0.113E-01    0.759E-02
DAV:   8    -0.132409837231E+04    0.88738E-04   -0.12438E-04 30980   0.325E-02    0.365E-02
DAV:   9    -0.132409830437E+04    0.67935E-04   -0.24252E-05 19650   0.160E-02    0.254E-02
DAV:  10    -0.132409833791E+04   -0.33537E-04   -0.92101E-06 18220   0.107E-02
  59 F= -.13240983E+04 E0= -.13240983E+04  d E =0.682870E-02  mag=   114.0000
       N       E                     dE             d eps       ncg     rms          rms(c)
DAV:   1    -0.132353867650E+04    0.55963E+00   -0.21295E+01 45740   0.206E+01    0.346E+00
DAV:   2    -0.132408557877E+04   -0.54690E+00   -0.50419E+00 36550   0.359E+00    0.170E+00
DAV:   3    -0.132409623805E+04   -0.10659E-01   -0.14990E-01 37010   0.777E-01    0.821E-01
DAV:   4    -0.132409564621E+04    0.59185E-03   -0.94589E-03 39750   0.189E-01    0.623E-01
DAV:   5    -0.132409443835E+04    0.12079E-02   -0.22216E-03 44010   0.178E-01    0.433E-01
DAV:   6    -0.132409313741E+04    0.13009E-02   -0.36846E-03 44300   0.224E-01    0.267E-01
DAV:   7    -0.132409371394E+04   -0.57653E-03   -0.16948E-03 38750   0.125E-01    0.729E-02
DAV:   8    -0.132409365252E+04    0.61422E-04   -0.18973E-04 34080   0.375E-02    0.457E-02
DAV:   9    -0.132409355687E+04    0.95642E-04   -0.34087E-05 19990   0.199E-02    0.272E-02
DAV:  10    -0.132409356850E+04   -0.11620E-04   -0.10291E-05 18530   0.114E-02
  60 F= -.13240936E+04 E0= -.13240936E+04  d E =0.476941E-02  mag=   114.0000
       N       E                     dE             d eps       ncg     rms          rms(c)
DAV:   1    -0.132395158030E+04    0.14198E+00   -0.55737E+00 47010   0.109E+01    0.181E+00
DAV:   2    -0.132410357592E+04   -0.15200E+00   -0.13763E+00 36680   0.186E+00    0.911E-01
DAV:   3    -0.132410706921E+04   -0.34933E-02   -0.46413E-02 36850   0.433E-01    0.461E-01
DAV:   4    -0.132410708053E+04   -0.11329E-04   -0.28166E-03 40060   0.104E-01    0.329E-01
DAV:   5    -0.132410644670E+04    0.63383E-03   -0.50806E-04 40840   0.886E-02    0.208E-01
DAV:   6    -0.132410649239E+04   -0.45684E-04   -0.74837E-04 42760   0.104E-01    0.124E-01
[...]
DAV:   1    -0.132368840331E+04    0.43129E+00   -0.31623E+01 42110   0.189E+01    0.289E+00
DAV:   2    -0.132410107111E+04   -0.41267E+00   -0.42279E+00 35720   0.341E+00    0.148E+00
DAV:   3    -0.132410369085E+04   -0.26197E-02   -0.97788E-02 36790   0.644E-01    0.690E-01
DAV:   4    -0.132410230636E+04    0.13845E-02   -0.63034E-03 40480   0.175E-01    0.517E-01
DAV:   5    -0.132410110135E+04    0.12050E-02   -0.29781E-03 41520   0.198E-01    0.376E-01
DAV:   6    -0.132410003281E+04    0.10685E-02   -0.37059E-03 42980   0.208E-01    0.183E-01
DAV:   7    -0.132410061107E+04   -0.57825E-03   -0.11891E-03 37870   0.947E-02    0.589E-02
DAV:   8    -0.132410052677E+04    0.84296E-04   -0.11403E-04 28230   0.250E-02    0.400E-02
DAV:   9    -0.132410051240E+04    0.14367E-04   -0.21527E-05 19250   0.162E-02
 170 F= -.13241005E+04 E0= -.13241005E+04  d E =0.191879E-01  mag=   114.0000
       N       E                     dE             d eps       ncg     rms          rms(c)
DAV:   1    -0.131837721347E+04    0.57233E+01   -0.14047E+02 50180   0.616E+01    0.116E+01
DAV:   2    -0.132356896226E+04   -0.51917E+01   -0.44887E+01 37810   0.103E+01    0.918E+00
DAV:   3    -0.132374446101E+04   -0.17550E+00   -0.27752E+00 37200   0.428E+00    0.466E+00
DAV:   4    -0.132370033576E+04    0.44125E-01   -0.29305E-01 38700   0.180E+00    0.231E+00
DAV:   5    -0.132369657502E+04    0.37607E-02   -0.39786E-02 40910   0.434E-01    0.156E+00
DAV:   6    -0.132369125623E+04    0.53188E-02   -0.12460E-02 44310   0.400E-01    0.877E-01
DAV:   7    -0.132369182943E+04   -0.57319E-03   -0.11241E-02 41450   0.370E-01    0.425E-01
DAV:   8    -0.132369140371E+04    0.42572E-03   -0.41712E-03 37820   0.198E-01    0.188E-01
DAV:   9    -0.132369205763E+04   -0.65392E-03   -0.70407E-04 36410   0.854E-02    0.894E-02
DAV:  10    -0.132369201527E+04    0.42357E-04   -0.25865E-04 31730   0.463E-02
 171 F= -.13236920E+04 E0= -.13236920E+04  d E =0.408497E+00  mag=   114.0000
       N       E                     dE             d eps       ncg     rms          rms(c)
DAV:   1    -0.132281829736E+04    0.87376E+00   -0.39855E+01 50670   0.307E+01    0.551E+00
DAV:   2    -0.132401892647E+04   -0.12006E+01   -0.10341E+01 38220   0.514E+00    0.405E+00
DAV:   3    -0.132406532896E+04   -0.46402E-01   -0.75987E-01 37160   0.233E+00    0.272E+00
DAV:   4    -0.132405375644E+04    0.11573E-01   -0.85850E-02 38620   0.935E-01    0.108E+00
DAV:   5    -0.132405091054E+04    0.28459E-02   -0.14131E-02 40640   0.261E-01    0.715E-01
DAV:   6    -0.132404920783E+04    0.17027E-02   -0.59193E-03 40560   0.249E-01    0.356E-01
DAV:   7    -0.132404914833E+04    0.59493E-04   -0.24051E-03 40080   0.169E-01    0.197E-01
DAV:   8    -0.132404892541E+04    0.22292E-03   -0.10365E-03 36780   0.100E-01    0.102E-01
DAV:   9    -0.132404898699E+04   -0.61571E-04   -0.17223E-04 30080   0.441E-02    0.458E-02
DAV:  10    -0.132404899143E+04   -0.44391E-05   -0.55723E-05 21860   0.166E-02
 172 F= -.13240490E+04 E0= -.13240490E+04  d E =-.356976E+00  mag=   114.0000
       N       E                     dE             d eps       ncg     rms          rms(c)
DAV:   1    -0.132379083715E+04    0.25815E+00   -0.84867E+00 50090   0.149E+01    0.258E+00
DAV:   2    -0.132408843510E+04   -0.29760E+00   -0.25684E+00 37920   0.241E+00    0.152E+00
DAV:   3    -0.132409782365E+04   -0.93885E-02   -0.12950E-01 36900   0.902E-01    0.105E+00
DAV:   4    -0.132409802300E+04   -0.19935E-03   -0.17772E-02 38930   0.391E-01    0.462E-01
DAV:   5    -0.132409671710E+04    0.13059E-02   -0.22578E-03 39170   0.130E-01    0.322E-01
DAV:   6    -0.132409621001E+04    0.50709E-03   -0.13690E-03 42330   0.126E-01    0.161E-01
DAV:   7    -0.132409623244E+04   -0.22433E-04   -0.59193E-04 39920   0.780E-02    0.905E-02
DAV:   8    -0.132409619608E+04    0.36365E-04   -0.17594E-04 30800   0.425E-02
 173 F= -.13240962E+04 E0= -.13240962E+04  d E =-.472047E-01  mag=   114.0000
       N       E                     dE             d eps       ncg     rms          rms(c)
DAV:   1    -0.132407177472E+04    0.24458E-01   -0.95967E-01 49940   0.487E+00    0.830E-01
DAV:   2    -0.132410364195E+04   -0.31867E-01   -0.27791E-01 36890   0.780E-01    0.415E-01
DAV:   3    -0.132410491271E+04   -0.12708E-02   -0.10335E-02 36860   0.203E-01    0.229E-01
DAV:   4    -0.132410463056E+04    0.28215E-03   -0.10627E-03 38240   0.823E-02    0.158E-01
DAV:   5    -0.132410476964E+04   -0.13908E-03   -0.19369E-04 27410   0.485E-02    0.107E-01
DAV:   6    -0.132410465241E+04    0.11722E-03   -0.16359E-04 31570   0.452E-02    0.347E-02
DAV:   7    -0.132410474358E+04   -0.91170E-04   -0.59963E-05 22540   0.176E-02    0.169E-02
DAV:   8    -0.132410471819E+04    0.25395E-04   -0.10073E-05 18000   0.844E-03
 174 F= -.13241047E+04 E0= -.13241047E+04  d E =-.852211E-02  mag=   114.0000
       N       E                     dE             d eps       ncg     rms          rms(c)
DAV:   1    -0.132404363818E+04    0.61105E-01   -0.24487E+00 48960   0.721E+00    0.116E+00
DAV:   2    -0.132411045394E+04   -0.66816E-01   -0.60218E-01 37250   0.121E+00    0.668E-01
DAV:   3    -0.132411303141E+04   -0.25775E-02   -0.25106E-02 36500   0.378E-01    0.454E-01
DAV:   4    -0.132411195127E+04    0.10801E-02   -0.32306E-03 38860   0.161E-01    0.251E-01
DAV:   5    -0.132411216753E+04   -0.21625E-03   -0.39263E-04 34590   0.648E-02    0.173E-01
DAV:   6    -0.132411208645E+04    0.81077E-04   -0.34843E-04 38690   0.666E-02    0.537E-02
DAV:   7    -0.132411214400E+04   -0.57553E-04   -0.14991E-04 29570   0.268E-02    0.285E-02
DAV:   8    -0.132411218607E+04   -0.42068E-04   -0.22058E-05 19320   0.145E-02
 175 F= -.13241122E+04 E0= -.13241122E+04  d E =-.746788E-02  mag=   114.0000
       N       E                     dE             d eps       ncg     rms          rms(c)
DAV:   1    -0.132409757559E+04    0.14568E-01   -0.76152E-01 46750   0.365E+00    0.590E-01
DAV:   2    -0.132411445891E+04   -0.16883E-01   -0.15559E-01 37480   0.625E-01    0.342E-01
DAV:   3    -0.132411517688E+04   -0.71797E-03   -0.63602E-03 36670   0.193E-01    0.232E-01
DAV:   4    -0.132411474443E+04    0.43246E-03   -0.73635E-04 37720   0.774E-02    0.125E-01
DAV:   5    -0.132411488453E+04   -0.14011E-03   -0.10993E-04 25950   0.346E-02    0.897E-02
DAV:   6    -0.132411486271E+04    0.21824E-04   -0.13188E-04 30530   0.390E-02
 176 F= -.13241149E+04 E0= -.13241149E+04  d E =-.267664E-02  mag=   114.0000
       N       E                     dE             d eps       ncg     rms          rms(c)
DAV:   1    -0.132399956336E+04    0.11532E+00   -0.59896E+00 44750   0.952E+00    0.149E+00
DAV:   2    -0.132411288330E+04   -0.11332E+00   -0.10677E+00 36830   0.163E+00    0.813E-01
DAV:   3    -0.132411496004E+04   -0.20767E-02   -0.36991E-02 36940   0.422E-01    0.496E-01
DAV:   4    -0.132411439812E+04    0.56193E-03   -0.36676E-03 39370   0.159E-01    0.304E-01
DAV:   5    -0.132411446738E+04   -0.69261E-04   -0.76793E-04 37620   0.931E-02    0.218E-01
DAV:   6    -0.132411404199E+04    0.42538E-03   -0.87374E-04 41820   0.103E-01    0.870E-02
DAV:   7    -0.132411427985E+04   -0.23785E-03   -0.41064E-04 38030   0.496E-02    0.406E-02
DAV:   8    -0.132411419063E+04    0.89218E-04   -0.44754E-05 20510   0.205E-02    0.232E-02
DAV:   9    -0.132411421770E+04   -0.27066E-04   -0.83197E-06 18600   0.959E-03
 177 F= -.13241142E+04 E0= -.13241142E+04  d E =0.645010E-03  mag=   114.0000
       N       E                     dE             d eps       ncg     rms          rms(c)
DAV:   1    -0.132381707498E+04    0.29712E+00   -0.16452E+01 42630   0.146E+01    0.235E+00
DAV:   2    -0.132409818575E+04   -0.28111E+00   -0.27207E+00 36720   0.259E+00    0.119E+00
DAV:   3    -0.132410171221E+04   -0.35265E-02   -0.78157E-02 36840   0.543E-01    0.593E-01
DAV:   4    -0.132410150872E+04    0.20349E-03   -0.48579E-03 40140   0.126E-01    0.436E-01
DAV:   5    -0.132410021573E+04    0.12930E-02   -0.13722E-03 42720   0.133E-01    0.240E-01
DAV:   6    -0.132410024129E+04   -0.25563E-04   -0.12591E-03 42190   0.111E-01    0.120E-01
DAV:   7    -0.132410012645E+04    0.11484E-03   -0.55640E-04 37510   0.661E-02    0.601E-02
DAV:   8    -0.132410032606E+04   -0.19961E-03   -0.67457E-05 22390   0.240E-02    0.287E-02
DAV:   9    -0.132410027818E+04    0.47878E-04   -0.14845E-05 18920   0.127E-02
 178 F= -.13241003E+04 E0= -.13241003E+04  d E =0.139395E-01  mag=   114.0000
       N       E                     dE             d eps       ncg     rms          rms(c)
DAV:   1    -0.131896759533E+04    0.51327E+01   -0.14606E+02 50240   0.577E+01    0.109E+01
DAV:   2    -0.132357795695E+04   -0.46104E+01   -0.40284E+01 38240   0.991E+00    0.965E+00
DAV:   3    -0.132373077545E+04   -0.15282E+00   -0.31964E+00 36900   0.483E+00    0.554E+00
DAV:   4    -0.132367882686E+04    0.51949E-01   -0.34517E-01 38720   0.206E+00    0.215E+00
DAV:   5    -0.132367118152E+04    0.76453E-02   -0.44235E-02 41210   0.485E-01    0.155E+00
DAV:   6    -0.132366650257E+04    0.46789E-02   -0.18076E-02 39030   0.438E-01    0.990E-01
DAV:   7    -0.132366484547E+04    0.16571E-02   -0.12696E-02 40420   0.399E-01    0.624E-01
DAV:   8    -0.132366438722E+04    0.45825E-03   -0.82319E-03 39800   0.316E-01    0.288E-01
DAV:   9    -0.132366444356E+04   -0.56344E-04   -0.16899E-03 37050   0.124E-01    0.107E-01
DAV:  10    -0.132366446684E+04   -0.23273E-04   -0.32640E-04 34550   0.443E-02
 179 F= -.13236645E+04 E0= -.13236645E+04  d E =0.435811E+00  mag=   114.0000
       N       E                     dE             d eps       ncg     rms          rms(c)
DAV:   1    -0.132276637024E+04    0.89807E+00   -0.41702E+01 50040   0.313E+01    0.548E+00
DAV:   2    -0.132400563091E+04   -0.12393E+01   -0.10666E+01 38820   0.502E+00    0.324E+00
DAV:   3    -0.132405738272E+04   -0.51752E-01   -0.41697E-01 37400   0.141E+00    0.164E+00
DAV:   4    -0.132405804872E+04   -0.66599E-03   -0.41177E-02 39170   0.569E-01    0.971E-01
DAV:   5    -0.132405478100E+04    0.32677E-02   -0.16283E-02 39130   0.355E-01    0.701E-01
DAV:   6    -0.132405386632E+04    0.91468E-03   -0.87753E-03 40910   0.298E-01    0.313E-01
DAV:   7    -0.132405333046E+04    0.53586E-03   -0.32265E-03 39760   0.175E-01    0.216E-01
DAV:   8    -0.132405364828E+04   -0.31782E-03   -0.11289E-03 36420   0.103E-01    0.952E-02
DAV:   9    -0.132405379862E+04   -0.15034E-03   -0.16987E-04 29390   0.400E-02    0.414E-02
DAV:  10    -0.132405368297E+04    0.11565E-03   -0.73390E-05 23090   0.207E-02    0.303E-02
DAV:  11    -0.132405374007E+04   -0.57102E-04   -0.16697E-05 18750   0.112E-02    0.150E-02
DAV:  12    -0.132405375209E+04   -0.12013E-04   -0.54504E-06 18340   0.612E-03
 180 F= -.13240538E+04 E0= -.13240538E+04  d E =-.389285E+00  mag=   114.0000
       N       E                     dE             d eps       ncg     rms          rms(c)
DAV:   1    -0.132376783303E+04    0.28591E+00   -0.96365E+00 49890   0.152E+01    0.273E+00
DAV:   2    -0.132409811429E+04   -0.33028E+00   -0.28425E+00 38250   0.245E+00    0.143E+00
DAV:   3    -0.132411081058E+04   -0.12696E-01   -0.10025E-01 37390   0.606E-01    0.684E-01
DAV:   4    -0.132411074000E+04    0.70578E-04   -0.58767E-03 40430   0.150E-01    0.434E-01
DAV:   5    -0.132411042591E+04    0.31409E-03   -0.22555E-03 41800   0.133E-01    0.267E-01
DAV:   6    -0.132410986250E+04    0.56341E-03   -0.12858E-03 40280   0.121E-01    0.172E-01
DAV:   7    -0.132411032038E+04   -0.45788E-03   -0.80899E-04 38380   0.863E-02    0.807E-02
DAV:   8    -0.132411016042E+04    0.15996E-03   -0.17001E-04 28610   0.417E-02    0.401E-02
DAV:   9    -0.132411020357E+04   -0.43151E-04   -0.45489E-05 20510   0.210E-02
 181 F= -.13241102E+04 E0= -.13241102E+04  d E =-.564515E-01  mag=   114.0000
       N       E                     dE             d eps       ncg     rms          rms(c)
DAV:   1    -0.132409275195E+04    0.17408E-01   -0.65697E-01 49370   0.394E+00    0.667E-01
DAV:   2    -0.132411447024E+04   -0.21718E-01   -0.19277E-01 37820   0.643E-01    0.370E-01
DAV:   3    -0.132411558240E+04   -0.11122E-02   -0.76705E-03 36880   0.193E-01    0.233E-01
DAV:   4    -0.132411526749E+04    0.31491E-03   -0.85843E-04 37150   0.786E-02    0.136E-01
DAV:   5    -0.132411545452E+04   -0.18703E-03   -0.16991E-04 27970   0.425E-02    0.930E-02
DAV:   6    -0.132411542199E+04    0.32534E-04   -0.13298E-04 29070   0.380E-02
 182 F= -.13241154E+04 E0= -.13241154E+04  d E =-.521841E-02  mag=   114.0000
       N       E                     dE             d eps       ncg     rms          rms(c)
DAV:   1    -0.132395299486E+04    0.16246E+00   -0.51828E+00 48780   0.106E+01    0.178E+00
DAV:   2    -0.132410886590E+04   -0.15587E+00   -0.13874E+00 37460   0.179E+00    0.104E+00
DAV:   3    -0.132411364257E+04   -0.47767E-02   -0.55066E-02 36790   0.544E-01    0.652E-01
DAV:   4    -0.132411240365E+04    0.12389E-02   -0.62136E-03 39600   0.226E-01    0.384E-01
DAV:   5    -0.132411257762E+04   -0.17397E-03   -0.10130E-03 37810   0.109E-01    0.265E-01
DAV:   6    -0.132411219449E+04    0.38314E-03   -0.86579E-04 43030   0.105E-01    0.913E-02
DAV:   7    -0.132411243871E+04   -0.24422E-03   -0.34670E-04 37460   0.402E-02    0.376E-02
DAV:   8    -0.132411235956E+04    0.79154E-04   -0.33926E-05 20000   0.165E-02    0.252E-02
DAV:   9    -0.132411237688E+04   -0.17320E-04   -0.79936E-06 18360   0.986E-03
 183 F= -.13241124E+04 E0= -.13241124E+04  d E =0.304511E-02  mag=   114.0000
       N       E                     dE             d eps       ncg     rms          rms(c)
DAV:   1    -0.132387692618E+04    0.23543E+00   -0.73834E+00 48550   0.122E+01    0.200E+00
DAV:   2    -0.132407743703E+04   -0.20051E+00   -0.18103E+00 37420   0.204E+00    0.115E+00
DAV:   3    -0.132408371804E+04   -0.62810E-02   -0.68396E-02 36820   0.586E-01    0.702E-01
DAV:   4    -0.132408291944E+04    0.79860E-03   -0.64770E-03 39930   0.217E-01    0.425E-01
DAV:   5    -0.132408301198E+04   -0.92538E-04   -0.16022E-03 38980   0.129E-01    0.299E-01
DAV:   6    -0.132408252133E+04    0.49065E-03   -0.13379E-03 42970   0.130E-01    0.118E-01
DAV:   7    -0.132408273304E+04   -0.21171E-03   -0.57510E-04 38690   0.638E-02    0.493E-02
DAV:   8    -0.132408271118E+04    0.21860E-04   -0.91993E-05 23970   0.270E-02
 184 F= -.13240827E+04 E0= -.13240827E+04  d E =0.296657E-01  mag=   114.0000
       N       E                     dE             d eps       ncg     rms          rms(c)
DAV:   1    -0.131820839599E+04    0.58743E+01   -0.16029E+02 50430   0.611E+01    0.118E+01
DAV:   2    -0.132363639834E+04   -0.54280E+01   -0.47216E+01 37970   0.109E+01    0.119E+01
DAV:   3    -0.132380539351E+04   -0.16900E+00   -0.50223E+00 36770   0.607E+00    0.719E+00
DAV:   4    -0.132371979941E+04    0.85594E-01   -0.45731E-01 38140   0.252E+00    0.260E+00
DAV:   5    -0.132371044619E+04    0.93532E-02   -0.77116E-02 41020   0.655E-01    0.172E+00
DAV:   6    -0.132370597905E+04    0.44671E-02   -0.27397E-02 39440   0.447E-01    0.108E+00
DAV:   7    -0.132370312630E+04    0.28527E-02   -0.92482E-03 41570   0.301E-01    0.517E-01
DAV:   8    -0.132370375486E+04   -0.62856E-03   -0.66503E-03 40310   0.211E-01    0.301E-01
DAV:   9    -0.132370347840E+04    0.27646E-03   -0.21455E-03 36930   0.147E-01    0.181E-01
DAV:  10    -0.132370331263E+04    0.16576E-03   -0.43098E-04 34880   0.705E-02    0.743E-02
DAV:  11    -0.132370346273E+04   -0.15010E-03   -0.10528E-04 25710   0.295E-02    0.477E-02
DAV:  12    -0.132370346367E+04   -0.94295E-06   -0.58843E-05 20460   0.224E-02
 185 F= -.13237035E+04 E0= -.13237035E+04  d E =0.379248E+00  mag=   114.0000
       N       E                     dE             d eps       ncg     rms          rms(c)
DAV:   1    -0.132255040572E+04    0.11531E+01   -0.46922E+01 49880   0.335E+01    0.592E+00
DAV:   2    -0.132401341713E+04   -0.14630E+01   -0.12728E+01 37990   0.548E+00    0.340E+00
DAV:   3    -0.132407456294E+04   -0.61146E-01   -0.50438E-01 37290   0.146E+00    0.165E+00
DAV:   4    -0.132407563885E+04   -0.10759E-02   -0.41212E-02 40380   0.536E-01    0.108E+00
DAV:   5    -0.132407208687E+04    0.35520E-02   -0.19537E-02 39340   0.402E-01    0.859E-01
DAV:   6    -0.132407032941E+04    0.17575E-02   -0.11470E-02 39990   0.354E-01    0.376E-01
DAV:   7    -0.132406943254E+04    0.89687E-03   -0.33215E-03 40270   0.162E-01    0.161E-01
DAV:   8    -0.132407012352E+04   -0.69098E-03   -0.11166E-03 38240   0.834E-02    0.104E-01
DAV:   9    -0.132407023082E+04   -0.10729E-03   -0.23918E-04 34710   0.457E-02    0.583E-02
DAV:  10    -0.132407005629E+04    0.17453E-03   -0.61821E-05 21540   0.226E-02    0.418E-02
DAV:  11    -0.132407010122E+04   -0.44933E-04   -0.31813E-05 20290   0.197E-02
 186 F= -.13240701E+04 E0= -.13240701E+04  d E =-.366638E+00  mag=   114.0000
       N       E                     dE             d eps       ncg     rms          rms(c)
DAV:   1    -0.132381399123E+04    0.25607E+00   -0.88898E+00 50210   0.145E+01    0.252E+00
DAV:   2    -0.132409812005E+04   -0.28413E+00   -0.24505E+00 37590   0.234E+00    0.135E+00
DAV:   3    -0.132411011655E+04   -0.11997E-01   -0.95185E-02 37140   0.639E-01    0.744E-01
DAV:   4    -0.132410944314E+04    0.67342E-03   -0.72820E-03 39580   0.206E-01    0.450E-01
DAV:   5    -0.132410970449E+04   -0.26136E-03   -0.25328E-03 39960   0.152E-01    0.319E-01
DAV:   6    -0.132410901111E+04    0.69339E-03   -0.21050E-03 41940   0.148E-01    0.173E-01
DAV:   7    -0.132410927382E+04   -0.26271E-03   -0.96792E-04 38400   0.974E-02    0.935E-02
DAV:   8    -0.132410921236E+04    0.61453E-04   -0.24254E-04 33280   0.477E-02    0.437E-02
DAV:   9    -0.132410921917E+04   -0.68036E-05   -0.36861E-05 20400   0.167E-02
 187 F= -.13241092E+04 E0= -.13241092E+04  d E =-.391179E-01  mag=   114.0000
       N       E                     dE             d eps       ncg     rms          rms(c)
DAV:   1    -0.132402659718E+04    0.82615E-01   -0.26036E+00 49750   0.814E+00    0.138E+00
DAV:   2    -0.132411077454E+04   -0.84177E-01   -0.71798E-01 36790   0.129E+00    0.712E-01
DAV:   3    -0.132411425103E+04   -0.34765E-02   -0.30229E-02 36890   0.378E-01    0.427E-01
DAV:   4    -0.132411365923E+04    0.59180E-03   -0.32025E-03 39120   0.155E-01    0.251E-01
DAV:   5    -0.132411392703E+04   -0.26780E-03   -0.63294E-04 36240   0.796E-02    0.170E-01
DAV:   6    -0.132411374019E+04    0.18685E-03   -0.39654E-04 38060   0.725E-02    0.589E-02
DAV:   7    -0.132411386420E+04   -0.12401E-03   -0.14772E-04 29290   0.296E-02    0.239E-02
DAV:   8    -0.132411381560E+04    0.48597E-04   -0.21164E-05 19490   0.105E-02
 188 F= -.13241138E+04 E0= -.13241138E+04  d E =-.459644E-02  mag=   114.0000
       N       E                     dE             d eps       ncg     rms          rms(c)
DAV:   1    -0.132393373189E+04    0.18013E+00   -0.60803E+00 49740   0.117E+01    0.188E+00
DAV:   2    -0.132409934252E+04   -0.16561E+00   -0.14540E+00 36970   0.194E+00    0.103E+00
DAV:   3    -0.132410449536E+04   -0.51528E-02   -0.62114E-02 37310   0.564E-01    0.640E-01
DAV:   4    -0.132410343093E+04    0.10644E-02   -0.62444E-03 39440   0.224E-01    0.372E-01
DAV:   5    -0.132410339829E+04    0.32641E-04   -0.10687E-03 38320   0.109E-01    0.268E-01
DAV:   6    -0.132410278844E+04    0.60985E-03   -0.10195E-03 43100   0.116E-01    0.100E-01
DAV:   7    -0.132410311679E+04   -0.32835E-03   -0.45989E-04 39050   0.520E-02    0.524E-02
DAV:   8    -0.132410295950E+04    0.15729E-03   -0.77987E-05 22420   0.261E-02    0.302E-02
DAV:   9    -0.132410296887E+04   -0.93707E-05   -0.12177E-05 18790   0.114E-02
 189 F= -.13241030E+04 E0= -.13241030E+04  d E =0.108467E-01  mag=   114.0000
       N       E                     dE             d eps       ncg     rms          rms(c)
DAV:   1    -0.131955874999E+04    0.45442E+01   -0.12239E+02 49700   0.553E+01    0.106E+01
