       N       E                     dE             d eps       ncg     rms          rms(c)
DAV:   1     0.112362096520E+05    0.11236E+05   -0.43028E+05 34710   0.160E+03
DAV:   2     0.253056587282E+02   -0.11211E+05   -0.10199E+05 34160   0.487E+02
DAV:   3    -0.160832438979E+04   -0.16336E+04   -0.15480E+04 36460   0.198E+02
DAV:   4    -0.169235362764E+04   -0.84029E+02   -0.82811E+02 39260   0.457E+01
DAV:   5    -0.169342797261E+04   -0.10743E+01   -0.10710E+01 37560   0.558E+00    0.146E+02
DAV:   6    -0.128394898671E+04    0.40948E+03   -0.81063E+02 41110   0.761E+01    0.120E+02
DAV:   7    -0.133401271916E+04   -0.50064E+02   -0.35262E+02 37020   0.653E+01    0.875E+01
DAV:   8    -0.130887101267E+04    0.25142E+02   -0.49470E+01 38700   0.229E+01    0.686E+01
DAV:   9    -0.131624273360E+04   -0.73717E+01   -0.55686E+01 37100   0.312E+01    0.634E+01
DAV:  10    -0.132309770222E+04   -0.68550E+01   -0.29105E+01 38030   0.154E+01    0.393E+01
DAV:  11    -0.131937951509E+04    0.37182E+01   -0.96907E+00 36690   0.118E+01    0.233E+01
DAV:  12    -0.131987989525E+04   -0.50038E+00   -0.37311E+00 39770   0.638E+00    0.221E+01
DAV:  13    -0.132190600481E+04   -0.20261E+01   -0.26221E+01 36880   0.455E+00    0.282E+01
DAV:  14    -0.132011453020E+04    0.17915E+01   -0.33331E+00 37010   0.384E+00    0.177E+01
DAV:  15    -0.132100638450E+04   -0.89185E+00   -0.84897E-01 36000   0.149E+00    0.209E+01
DAV:  16    -0.132121759125E+04   -0.21121E+00   -0.32646E-01 35690   0.687E-01    0.250E+01
DAV:  17    -0.132135785956E+04   -0.14027E+00   -0.75893E-02 35670   0.473E-01    0.256E+01
DAV:  18    -0.132137025526E+04   -0.12396E-01   -0.18286E-02 36570   0.315E-01    0.255E+01
DAV:  19    -0.132137193353E+04   -0.16783E-02   -0.37001E-03 34870   0.957E-02    0.254E+01
DAV:  20    -0.132130003145E+04    0.71902E-01   -0.23432E-02 39370   0.344E-01    0.256E+01
DAV:  21    -0.132108491688E+04    0.21511E+00   -0.14157E-01 40050   0.736E-01    0.263E+01
DAV:  22    -0.132075983920E+04    0.32508E+00   -0.73629E+00 40620   0.267E+00    0.240E+01
DAV:  23    -0.132149521148E+04   -0.73537E+00   -0.12397E+00 37590   0.183E+00    0.248E+01
DAV:  24    -0.132155960596E+04   -0.64394E-01   -0.23952E+00 40600   0.213E+00    0.251E+01
DAV:  25    -0.132204763817E+04   -0.48803E+00   -0.12892E+00 35910   0.140E+00    0.242E+01
DAV:  26    -0.132217165672E+04   -0.12402E+00   -0.78683E-02 36870   0.685E-01    0.240E+01
DAV:  27    -0.132218418066E+04   -0.12524E-01   -0.64595E-02 36300   0.298E-01    0.247E+01
DAV:  28    -0.132215515021E+04    0.29030E-01   -0.51945E-02 38920   0.485E-01    0.254E+01
DAV:  29    -0.132202584467E+04    0.12931E+00   -0.25523E-02 41180   0.528E-01    0.263E+01
DAV:  30    -0.132189511024E+04    0.13073E+00   -0.40594E-02 43500   0.566E-01    0.278E+01
DAV:  31    -0.132197880441E+04   -0.83694E-01   -0.16953E-01 42410   0.171E+00    0.221E+01
DAV:  32    -0.132279863312E+04   -0.81983E+00   -0.81422E-01 44830   0.203E+00    0.175E+01
DAV:  33    -0.132380729495E+04   -0.10087E+01   -0.62806E-01 36710   0.166E+00    0.188E+01
DAV:  34    -0.132391805007E+04   -0.11076E+00   -0.29971E-01 41960   0.169E+00    0.176E+01
DAV:  35    -0.132365796824E+04    0.26008E+00   -0.30427E-01 42530   0.167E+00    0.171E+01
DAV:  36    -0.132355397200E+04    0.10400E+00   -0.17617E-01 43330   0.937E-01    0.167E+01
DAV:  37    -0.132356492729E+04   -0.10955E-01   -0.66217E-02 36580   0.770E-01    0.175E+01
DAV:  38    -0.132356884225E+04   -0.39150E-02   -0.12886E-02 39090   0.201E-01    0.178E+01
DAV:  39    -0.132363267460E+04   -0.63832E-01   -0.57942E-02 41780   0.106E+00    0.151E+01
DAV:  40    -0.132351570568E+04    0.11697E+00   -0.31055E-01 42690   0.293E+00    0.104E+01
DAV:  41    -0.132348357523E+04    0.32130E-01   -0.36409E-01 44820   0.226E+00    0.960E+00
DAV:  42    -0.132348229529E+04    0.12799E-02   -0.15570E-01 37100   0.821E-01    0.956E+00
DAV:  43    -0.132348162206E+04    0.67323E-03   -0.13772E-02 36720   0.200E-01    0.970E+00
DAV:  44    -0.132348795628E+04   -0.63342E-02   -0.73313E-03 34750   0.150E-01    0.110E+01
DAV:  45    -0.132364635114E+04   -0.15839E+00   -0.32539E-01 34270   0.358E-01    0.165E+01
DAV:  46    -0.132383679992E+04   -0.19045E+00   -0.78431E-02 34530   0.781E-01    0.167E+01
DAV:  47    -0.132385294309E+04   -0.16143E-01   -0.13529E-02 35160   0.213E-01    0.168E+01
DAV:  48    -0.132385260396E+04    0.33913E-03   -0.15680E-03 35590   0.105E-01    0.168E+01
DAV:  49    -0.132384902084E+04    0.35831E-02   -0.62109E-04 36000   0.805E-02    0.168E+01
DAV:  50    -0.132383121719E+04    0.17804E-01   -0.31375E-02 39140   0.890E-01    0.168E+01
DAV:  51    -0.132369331073E+04    0.13791E+00   -0.18928E-01 42720   0.157E+00    0.171E+01
DAV:  52    -0.132380531395E+04   -0.11200E+00   -0.37918E-01 43590   0.124E+00    0.183E+01
DAV:  53    -0.132387134948E+04   -0.66036E-01   -0.29595E-01 35670   0.494E-01    0.180E+01
DAV:  54    -0.132400054545E+04   -0.12920E+00   -0.19437E-01 39230   0.848E-01    0.180E+01
DAV:  55    -0.132419414871E+04   -0.19360E+00   -0.14697E-01 42030   0.912E-01    0.186E+01
DAV:  56    -0.132423214159E+04   -0.37993E-01   -0.15250E-01 44260   0.879E-01    0.187E+01
DAV:  57    -0.132425553903E+04   -0.23397E-01   -0.64897E-02 36050   0.396E-01    0.189E+01
DAV:  58    -0.132438096399E+04   -0.12542E+00   -0.21176E-02 38690   0.446E-01    0.195E+01
DAV:  59    -0.132436906995E+04    0.11894E-01   -0.14335E-02 37060   0.290E-01    0.192E+01
DAV:  60    -0.132443381097E+04   -0.64741E-01   -0.35746E-02 44990   0.457E-01    0.191E+01
DAV:  61    -0.132393448294E+04    0.49933E+00   -0.64002E-01 44420   0.285E+00    0.165E+01
DAV:  62    -0.132400549223E+04   -0.71009E-01   -0.25602E-01 37200   0.846E-01    0.162E+01
DAV:  63    -0.132397628862E+04    0.29204E-01   -0.41421E-02 40150   0.332E-01    0.159E+01
DAV:  64    -0.132397855472E+04   -0.22661E-02   -0.28257E-02 40360   0.249E-01    0.158E+01
DAV:  65    -0.132401935202E+04   -0.40797E-01   -0.29585E-02 44690   0.365E-01    0.158E+01
DAV:  66    -0.132438966744E+04   -0.37032E+00   -0.15961E-01 41620   0.151E+00    0.172E+01
DAV:  67    -0.132420438792E+04    0.18528E+00   -0.57117E-02 37140   0.953E-01    0.162E+01
DAV:  68    -0.132418687334E+04    0.17515E-01   -0.18032E-02 38380   0.200E-01    0.160E+01
DAV:  69    -0.132412358557E+04    0.63288E-01   -0.20044E-02 45690   0.646E-01    0.155E+01
DAV:  70    -0.132421572251E+04   -0.92137E-01   -0.44472E-02 43440   0.787E-01    0.158E+01
DAV:  71    -0.132422963114E+04   -0.13909E-01   -0.11671E-01 46580   0.104E+00    0.158E+01
DAV:  72    -0.132428805306E+04   -0.58422E-01   -0.54969E-02 37000   0.433E-01    0.162E+01
DAV:  73    -0.132434337528E+04   -0.55322E-01   -0.22818E-02 44260   0.310E-01    0.165E+01
DAV:  74    -0.132435892170E+04   -0.15546E-01   -0.16154E-02 36140   0.132E-01    0.166E+01
DAV:  75    -0.132440452984E+04   -0.45608E-01   -0.34965E-03 40080   0.278E-01    0.169E+01
DAV:  76    -0.132440100813E+04    0.35217E-02   -0.32099E-02 45310   0.784E-01    0.168E+01
DAV:  77    -0.132435992662E+04    0.41082E-01   -0.97658E-03 38630   0.267E-01    0.167E+01
DAV:  78    -0.132427044540E+04    0.89481E-01   -0.79591E-03 45120   0.299E-01    0.165E+01
DAV:  79    -0.132421820738E+04    0.52238E-01   -0.88404E-03 41820   0.222E-01    0.165E+01
DAV:  80    -0.132420747701E+04    0.10730E-01   -0.73395E-03 39280   0.200E-01    0.166E+01
DAV:  81    -0.132425489565E+04   -0.47419E-01   -0.51617E-03 43990   0.188E-01    0.168E+01
DAV:  82    -0.132424223077E+04    0.12665E-01   -0.76790E-03 38210   0.262E-01    0.169E+01
DAV:  83    -0.132426169342E+04   -0.19463E-01   -0.11408E-02 41780   0.297E-01    0.172E+01
DAV:  84    -0.132428993341E+04   -0.28240E-01   -0.71033E-03 43640   0.203E-01    0.174E+01
DAV:  85    -0.132429382305E+04   -0.38896E-02   -0.24905E-03 35910   0.800E-02    0.175E+01
DAV:  86    -0.132187207505E+04    0.24217E+01   -0.68397E+00 39830   0.964E+00    0.343E+01
DAV:  87    -0.132264384853E+04   -0.77177E+00   -0.19704E+00 36220   0.312E+00    0.306E+01
DAV:  88    -0.132272964128E+04   -0.85793E-01   -0.41100E-01 36880   0.828E-01    0.313E+01
DAV:  89    -0.132380924620E+04   -0.10796E+01   -0.10707E+00 39760   0.250E+00    0.295E+01
DAV:  90    -0.132306676199E+04    0.74248E+00   -0.84899E-01 38980   0.234E+00    0.261E+01
DAV:  91    -0.132314008686E+04   -0.73325E-01   -0.83096E+00 43170   0.724E+00    0.114E+01
DAV:  92    -0.132396648133E+04   -0.82639E+00   -0.12413E+00 38080   0.289E+00    0.842E+00
DAV:  93    -0.132396042775E+04    0.60536E-02   -0.13389E-01 39810   0.934E-01    0.748E+00
DAV:  94    -0.132395101551E+04    0.94122E-02   -0.32555E-02 46060   0.897E-01    0.665E+00
DAV:  95    -0.132385738491E+04    0.93631E-01   -0.50508E-02 45690   0.117E+00    0.515E+00
DAV:  96    -0.132386522777E+04   -0.78429E-02   -0.88089E-02 45990   0.129E+00    0.531E+00
DAV:  97    -0.132383431411E+04    0.30914E-01   -0.60218E-02 36950   0.677E-01    0.574E+00
DAV:  98    -0.132390090079E+04   -0.66587E-01   -0.10073E-02 35420   0.235E-01    0.135E+01
DAV:  99    -0.132416464855E+04   -0.26375E+00   -0.17792E-01 34650   0.905E-01    0.152E+01
DAV: 100    -0.132421841864E+04   -0.53770E-01   -0.29239E-02 36670   0.361E-01    0.155E+01
DAV: 101    -0.132425648952E+04   -0.38071E-01   -0.53974E-03 39420   0.338E-01    0.156E+01
DAV: 102    -0.132424718600E+04    0.93035E-02   -0.32233E-03 42640   0.207E-01    0.156E+01
DAV: 103    -0.132426799079E+04   -0.20805E-01   -0.19809E-03 38190   0.107E-01    0.157E+01
DAV: 104    -0.132418434916E+04    0.83642E-01   -0.10008E-02 38610   0.359E-01    0.154E+01
DAV: 105    -0.132398777745E+04    0.19657E+00   -0.31425E-02 39490   0.726E-01    0.147E+01
DAV: 106    -0.132381431131E+04    0.17347E+00   -0.40924E-02 44640   0.673E-01    0.139E+01
DAV: 107    -0.132380500752E+04    0.93038E-02   -0.20394E-02 36480   0.213E-01    0.138E+01
DAV: 108    -0.132380474332E+04    0.26420E-03   -0.61474E-03 34810   0.678E-02    0.137E+01
DAV: 109    -0.132377259322E+04    0.32150E-01   -0.36954E-03 36260   0.166E-01    0.136E+01
DAV: 110    -0.132371835570E+04    0.54238E-01   -0.55046E-03 39130   0.246E-01    0.133E+01
DAV: 111    -0.132354836021E+04    0.17000E+00   -0.49442E-02 39030   0.941E-01    0.125E+01
DAV: 112    -0.132356272465E+04   -0.14364E-01   -0.14999E-02 37190   0.319E-01    0.124E+01
DAV: 113    -0.132356402515E+04   -0.13005E-02   -0.37753E-03 39480   0.110E-01    0.123E+01
DAV: 114    -0.132356010153E+04    0.39236E-02   -0.15651E-03 34340   0.607E-02    0.123E+01
DAV: 115    -0.132354895722E+04    0.11144E-01   -0.17721E-03 43600   0.239E-01    0.120E+01
DAV: 116    -0.132342894033E+04    0.12002E+00   -0.13606E-02 43300   0.620E-01    0.111E+01
DAV: 117    -0.132341052255E+04    0.18418E-01   -0.10219E-02 37710   0.177E-01    0.107E+01
DAV: 118    -0.132341192384E+04   -0.14013E-02   -0.32203E-03 38660   0.129E-01    0.103E+01
DAV: 119    -0.132341863744E+04   -0.67136E-02   -0.40501E-03 39190   0.148E-01    0.968E+00
DAV: 120    -0.132343333669E+04   -0.14699E-01   -0.62398E-03 42170   0.212E-01    0.832E+00
DAV: 121    -0.132346417747E+04   -0.30841E-01   -0.11564E-02 38070   0.273E-01    0.102E+00
DAV: 122    -0.132377297034E+04   -0.30879E+00   -0.86604E-02 34430   0.701E-01    0.411E+00
DAV: 123    -0.132384052874E+04   -0.67558E-01   -0.22527E-02 34560   0.427E-01    0.418E+00
DAV: 124    -0.132384151315E+04   -0.98441E-03   -0.38798E-03 35430   0.116E-01    0.423E+00
DAV: 125    -0.132384087445E+04    0.63870E-03   -0.27120E-04 34000   0.294E-02    0.424E+00
DAV: 126    -0.132383937852E+04    0.14959E-02   -0.11144E-04 29200   0.733E-02    0.417E+00
DAV: 127    -0.132383922287E+04    0.15566E-03   -0.87545E-05 27410   0.175E-02    0.418E+00
DAV: 128    -0.132383942251E+04   -0.19964E-03   -0.73433E-06 18350   0.729E-03    0.418E+00
DAV: 129    -0.132383969047E+04   -0.26796E-03   -0.20550E-05 22590   0.236E-02    0.421E+00
DAV: 130    -0.132384065592E+04   -0.96546E-03   -0.27612E-04 38680   0.947E-02    0.432E+00
DAV: 131    -0.132384807676E+04   -0.74208E-02   -0.19946E-03 46270   0.285E-01    0.469E+00
DAV: 132    -0.132384908941E+04   -0.10127E-02   -0.17521E-03 35370   0.656E-02    0.471E+00
DAV: 133    -0.132384875984E+04    0.32957E-03   -0.38568E-05 22920   0.125E-02    0.471E+00
DAV: 134    -0.132384959023E+04   -0.83038E-03   -0.16197E-05 20350   0.139E-02    0.468E+00
DAV: 135    -0.132384866982E+04    0.92041E-03   -0.33551E-05 22450   0.228E-02    0.472E+00
DAV: 136    -0.132384747117E+04    0.11986E-02   -0.71830E-04 40980   0.137E-01    0.491E+00
DAV: 137    -0.132384804678E+04   -0.57561E-03   -0.23315E-04 33430   0.471E-02    0.486E+00
DAV: 138    -0.132384869041E+04   -0.64363E-03   -0.29006E-05 21660   0.188E-02    0.488E+00
DAV: 139    -0.132384977794E+04   -0.10875E-02   -0.14147E-05 20600   0.204E-02    0.491E+00
DAV: 140    -0.132385256315E+04   -0.27852E-02   -0.41692E-05 26040   0.381E-02    0.496E+00
DAV: 141    -0.132386628763E+04   -0.13724E-01   -0.58103E-03 45300   0.310E-01    0.473E+00
DAV: 142    -0.132386968361E+04   -0.33960E-02   -0.40610E-03 38570   0.176E-01    0.474E+00
DAV: 143    -0.132386649314E+04    0.31905E-02   -0.25354E-03 42310   0.178E-01    0.449E+00
DAV: 144    -0.132385964346E+04    0.68497E-02   -0.19614E-03 45360   0.167E-01    0.428E+00
DAV: 145    -0.132385806194E+04    0.15815E-02   -0.84826E-04 36600   0.507E-02    0.425E+00
DAV: 146    -0.132385776693E+04    0.29501E-03   -0.68778E-05 24650   0.214E-02    0.425E+00
DAV: 147    -0.132385706285E+04    0.70408E-03   -0.28241E-05 22370   0.240E-02    0.422E+00
DAV: 148    -0.132385620507E+04    0.85778E-03   -0.16646E-05 19460   0.156E-02    0.420E+00
DAV: 149    -0.132385552430E+04    0.68077E-03   -0.11683E-05 20950   0.135E-02    0.418E+00
DAV: 150    -0.132385462041E+04    0.90389E-03   -0.89054E-06 20740   0.177E-02
   1 F= -.13238546E+04 E0= -.13238546E+04  d E =-.132385E+04  mag=   119.5121
       N       E                     dE             d eps       ncg     rms          rms(c)
DAV:   1    -0.132384762842E+04    0.78959E-02   -0.13775E-02 49140   0.624E-01    0.386E+00
DAV:   2    -0.132387593124E+04   -0.28303E-01   -0.41870E-01 40800   0.358E+00    0.113E+01
DAV:   3    -0.132361755125E+04    0.25838E+00   -0.41662E-01 37420   0.288E+00    0.170E+00
DAV:   4    -0.132378973669E+04   -0.17219E+00   -0.62023E-02 35810   0.720E-01    0.215E+00
DAV:   5    -0.132379426535E+04   -0.45287E-02   -0.81116E-03 38220   0.397E-01    0.158E+00
DAV:   6    -0.132378471941E+04    0.95459E-02   -0.76771E-03 41680   0.453E-01    0.103E+00
DAV:   7    -0.132378339441E+04    0.13250E-02   -0.61320E-03 45550   0.249E-01    0.716E-01
DAV:   8    -0.132378253736E+04    0.85706E-03   -0.23788E-03 42220   0.175E-01    0.452E-01
DAV:   9    -0.132378252641E+04    0.10945E-04   -0.13700E-03 37730   0.158E-01    0.149E-01
DAV:  10    -0.132378205254E+04    0.47387E-03   -0.10564E-03 37290   0.607E-02    0.114E-01
DAV:  11    -0.132378186789E+04    0.18465E-03   -0.99073E-05 26550   0.262E-02    0.762E-02
DAV:  12    -0.132378187988E+04   -0.11994E-04   -0.29966E-05 19690   0.154E-02
   2 F= -.13237819E+04 E0= -.13237818E+04  d E =0.727405E-01  mag=   119.9995
       N       E                     dE             d eps       ncg     rms          rms(c)
DAV:   1    -0.132380216234E+04   -0.20294E-01   -0.18195E-01 49190   0.206E+00    0.378E-01
DAV:   2    -0.132380828754E+04   -0.61252E-02   -0.54098E-02 37860   0.348E-01    0.192E-01
DAV:   3    -0.132380847333E+04   -0.18579E-03   -0.20002E-03 37310   0.969E-02    0.112E-01
DAV:   4    -0.132380858126E+04   -0.10794E-03   -0.15146E-04 26700   0.299E-02    0.697E-02
DAV:   5    -0.132380853098E+04    0.50280E-04   -0.25574E-05 19290   0.161E-02    0.510E-02
DAV:   6    -0.132380854845E+04   -0.17472E-04   -0.39931E-05 21930   0.225E-02
   3 F= -.13238085E+04 E0= -.13238085E+04  d E =-.266686E-01  mag=   120.0000
       N       E                     dE             d eps       ncg     rms          rms(c)
DAV:   1    -0.132070732325E+04    0.31012E+01   -0.93804E+01 49400   0.460E+01    0.951E+00
DAV:   2    -0.132394265150E+04   -0.32353E+01   -0.28266E+01 38210   0.806E+00    0.598E+00
DAV:   3    -0.132404907391E+04   -0.10642E+00   -0.10946E+00 37280   0.218E+00    0.269E+00
DAV:   4    -0.132405053314E+04   -0.14592E-02   -0.74233E-02 39770   0.616E-01    0.181E+00
DAV:   5    -0.132404430569E+04    0.62274E-02   -0.12992E-02 40810   0.322E-01    0.133E+00
DAV:   6    -0.132404003166E+04    0.42740E-02   -0.10399E-02 41660   0.407E-01    0.716E-01
DAV:   7    -0.132403910345E+04    0.92821E-03   -0.73333E-03 41170   0.266E-01    0.242E-01
DAV:   8    -0.132404055732E+04   -0.14539E-02   -0.17442E-03 38140   0.112E-01    0.124E-01
DAV:   9    -0.132404038372E+04    0.17361E-03   -0.33584E-04 34910   0.384E-02    0.774E-02
DAV:  10    -0.132404024900E+04    0.13471E-03   -0.43477E-05 21990   0.227E-02    0.448E-02
DAV:  11    -0.132404047175E+04   -0.22274E-03   -0.29049E-05 19170   0.162E-02    0.183E-02
DAV:  12    -0.132404036090E+04    0.11085E-03   -0.92678E-06 18710   0.882E-03    0.108E-02
DAV:  13    -0.132404035995E+04    0.94922E-06   -0.30316E-06 18260   0.362E-03
   4 F= -.13240404E+04 E0= -.13240404E+04  d E =-.231811E+00  mag=   120.0000
       N       E                     dE             d eps       ncg     rms          rms(c)
DAV:   1    -0.132399507200E+04    0.45289E-01   -0.18987E+00 48980   0.708E+00    0.124E+00
DAV:   2    -0.132406054559E+04   -0.65474E-01   -0.57038E-01 37750   0.117E+00    0.611E-01
DAV:   3    -0.132406235033E+04   -0.18047E-02   -0.19984E-02 36770   0.304E-01    0.327E-01
DAV:   4    -0.132406256467E+04   -0.21434E-03   -0.13958E-03 39360   0.863E-02    0.214E-01
DAV:   5    -0.132406230408E+04    0.26060E-03   -0.29415E-04 33870   0.550E-02    0.150E-01
DAV:   6    -0.132406228475E+04    0.19327E-04   -0.24994E-04 37510   0.614E-02
   5 F= -.13240623E+04 E0= -.13240623E+04  d E =-.219248E-01  mag=   120.0000
       N       E                     dE             d eps       ncg     rms          rms(c)
DAV:   1    -0.132366508765E+04    0.39722E+00   -0.12799E+01 48970   0.173E+01    0.299E+00
DAV:   2    -0.132405056540E+04   -0.38548E+00   -0.33623E+00 37070   0.283E+00    0.154E+00
DAV:   3    -0.132405979508E+04   -0.92297E-02   -0.11371E-01 36810   0.717E-01    0.782E-01
DAV:   4    -0.132406022515E+04   -0.43007E-03   -0.84396E-03 39680   0.217E-01    0.514E-01
DAV:   5    -0.132405914742E+04    0.10777E-02   -0.14142E-03 40850   0.134E-01    0.355E-01
DAV:   6    -0.132405878331E+04    0.36411E-03   -0.14583E-03 44700   0.151E-01    0.146E-01
DAV:   7    -0.132405870465E+04    0.78662E-04   -0.70444E-04 38950   0.684E-02    0.525E-02
DAV:   8    -0.132405888682E+04   -0.18217E-03   -0.71719E-05 23700   0.251E-02    0.282E-02
DAV:   9    -0.132405884120E+04    0.45623E-04   -0.15689E-05 18740   0.100E-02
   6 F= -.13240588E+04 E0= -.13240588E+04  d E =0.344355E-02  mag=   120.0000
       N       E                     dE             d eps       ncg     rms          rms(c)
DAV:   1    -0.132332701348E+04    0.73187E+00   -0.29426E+01 45920   0.206E+01    0.409E+00
DAV:   2    -0.132398330989E+04   -0.65630E+00   -0.59585E+00 37200   0.360E+00    0.232E+00
DAV:   3    -0.132400098619E+04   -0.17676E-01   -0.19726E-01 36570   0.868E-01    0.106E+00
DAV:   4    -0.132400073330E+04    0.25290E-03   -0.13378E-02 39980   0.242E-01    0.726E-01
DAV:   5    -0.132399868521E+04    0.20481E-02   -0.27023E-03 40400   0.170E-01    0.512E-01
DAV:   6    -0.132399792815E+04    0.75706E-03   -0.26628E-03 43690   0.189E-01    0.255E-01
DAV:   7    -0.132399761345E+04    0.31470E-03   -0.16062E-03 38920   0.109E-01    0.918E-02
DAV:   8    -0.132399793694E+04   -0.32350E-03   -0.23164E-04 34400   0.413E-02    0.477E-02
DAV:   9    -0.132399789215E+04    0.44799E-04   -0.40920E-05 20470   0.147E-02
   7 F= -.13239979E+04 E0= -.13239979E+04  d E =0.609491E-01  mag=   120.0000
       N       E                     dE             d eps       ncg     rms          rms(c)
DAV:   1    -0.131731221229E+04    0.66857E+01   -0.16495E+02 50760   0.609E+01    0.143E+01
DAV:   2    -0.132349690949E+04   -0.61847E+01   -0.53510E+01 37740   0.109E+01    0.109E+01
DAV:   3    -0.132373246845E+04   -0.23556E+00   -0.24711E+00 37250   0.383E+00    0.440E+00
DAV:   4    -0.132373106954E+04    0.13989E-02   -0.22112E-01 39120   0.142E+00    0.294E+00
DAV:   5    -0.132372211749E+04    0.89521E-02   -0.36617E-02 39030   0.531E-01    0.216E+00
DAV:   6    -0.132371667555E+04    0.54419E-02   -0.13858E-02 42140   0.404E-01    0.120E+00
DAV:   7    -0.132371596763E+04    0.70792E-03   -0.10288E-02 41610   0.278E-01    0.330E-01
DAV:   8    -0.132371806520E+04   -0.20976E-02   -0.29409E-03 38140   0.123E-01    0.152E-01
DAV:   9    -0.132371789038E+04    0.17482E-03   -0.71505E-04 37830   0.544E-02    0.100E-01
DAV:  10    -0.132371761350E+04    0.27688E-03   -0.70628E-05 24060   0.268E-02    0.507E-02
DAV:  11    -0.132371786594E+04   -0.25245E-03   -0.42407E-05 19980   0.189E-02    0.288E-02
DAV:  12    -0.132371781393E+04    0.52018E-04   -0.19853E-05 18700   0.125E-02    0.967E-03
DAV:  13    -0.132371776093E+04    0.52999E-04   -0.42646E-06 18350   0.508E-03    0.586E-03
DAV:  14    -0.132371777531E+04   -0.14383E-04   -0.85523E-07 18110   0.201E-03
   8 F= -.13237178E+04 E0= -.13237178E+04  d E =0.280117E+00  mag=   120.0000
       N       E                     dE             d eps       ncg     rms          rms(c)
DAV:   1    -0.132275627249E+04    0.96149E+00   -0.32177E+01 49580   0.295E+01    0.567E+00
DAV:   2    -0.132397795732E+04   -0.12217E+01   -0.10557E+01 38420   0.488E+00    0.331E+00
DAV:   3    -0.132402816751E+04   -0.50210E-01   -0.37691E-01 36990   0.135E+00    0.159E+00
DAV:   4    -0.132402912488E+04   -0.95737E-03   -0.26457E-02 39360   0.397E-01    0.977E-01
DAV:   5    -0.132402672625E+04    0.23986E-02   -0.79370E-03 41010   0.243E-01    0.665E-01
DAV:   6    -0.132402567227E+04    0.10540E-02   -0.37614E-03 42260   0.229E-01    0.358E-01
DAV:   7    -0.132402550521E+04    0.16706E-03   -0.20010E-03 40600   0.135E-01    0.152E-01
DAV:   8    -0.132402594543E+04   -0.44021E-03   -0.46235E-04 36060   0.639E-02    0.660E-02
DAV:   9    -0.132402587864E+04    0.66790E-04   -0.16386E-04 31120   0.256E-02    0.408E-02
DAV:  10    -0.132402584987E+04    0.28770E-04   -0.18227E-05 18740   0.133E-02
   9 F= -.13240258E+04 E0= -.13240258E+04  d E =-.308075E+00  mag=   120.0000
       N       E                     dE             d eps       ncg     rms          rms(c)
DAV:   1    -0.132369492841E+04    0.33095E+00   -0.10320E+01 49760   0.159E+01    0.297E+00
DAV:   2    -0.132405380407E+04   -0.35888E+00   -0.30726E+00 37770   0.257E+00    0.156E+00
DAV:   3    -0.132406655447E+04   -0.12750E-01   -0.11462E-01 36580   0.715E-01    0.788E-01
DAV:   4    -0.132406732224E+04   -0.76777E-03   -0.81318E-03 39390   0.217E-01    0.481E-01
DAV:   5    -0.132406642929E+04    0.89295E-03   -0.22247E-03 40760   0.134E-01    0.324E-01
DAV:   6    -0.132406616943E+04    0.25986E-03   -0.11542E-03 42500   0.122E-01    0.161E-01
DAV:   7    -0.132406615401E+04    0.15418E-04   -0.53200E-04 38990   0.646E-02    0.691E-02
DAV:   8    -0.132406631331E+04   -0.15930E-03   -0.10501E-04 28120   0.300E-02    0.324E-02
DAV:   9    -0.132406628288E+04    0.30426E-04   -0.30080E-05 19400   0.121E-02
  10 F= -.13240663E+04 E0= -.13240663E+04  d E =-.404330E-01  mag=   120.0000
       N       E                     dE             d eps       ncg     rms          rms(c)
DAV:   1    -0.132403674302E+04    0.29570E-01   -0.11503E+00 49270   0.500E+00    0.897E-01
DAV:   2    -0.132407127403E+04   -0.34531E-01   -0.29870E-01 36560   0.810E-01    0.426E-01
DAV:   3    -0.132407177786E+04   -0.50383E-03   -0.95542E-03 35930   0.194E-01    0.202E-01
DAV:   4    -0.132407189452E+04   -0.11666E-03   -0.66433E-04 37430   0.570E-02    0.142E-01
DAV:   5    -0.132407169251E+04    0.20201E-03   -0.12350E-04 26640   0.422E-02    0.925E-02
DAV:   6    -0.132407174327E+04   -0.50763E-04   -0.13055E-04 27610   0.418E-02    0.346E-02
DAV:   7    -0.132407172959E+04    0.13682E-04   -0.55969E-05 21620   0.203E-02
  11 F= -.13240717E+04 E0= -.13240717E+04  d E =-.544671E-02  mag=   120.0000
       N       E                     dE             d eps       ncg     rms          rms(c)
DAV:   1    -0.132331156014E+04    0.76018E+00   -0.27321E+01 47460   0.226E+01    0.409E+00
DAV:   2    -0.132402391306E+04   -0.71235E+00   -0.63628E+00 36400   0.385E+00    0.212E+00
DAV:   3    -0.132403772061E+04   -0.13808E-01   -0.16584E-01 36900   0.786E-01    0.894E-01
DAV:   4    -0.132403765022E+04    0.70388E-04   -0.10141E-02 40860   0.177E-01    0.676E-01
DAV:   5    -0.132403537538E+04    0.22748E-02   -0.17150E-03 43200   0.172E-01    0.399E-01
DAV:   6    -0.132403528752E+04    0.87856E-04   -0.21272E-03 44480   0.163E-01    0.170E-01
DAV:   7    -0.132403524506E+04    0.42456E-04   -0.10286E-03 37770   0.912E-02    0.801E-02
DAV:   8    -0.132403544162E+04   -0.19656E-03   -0.10858E-04 27110   0.314E-02    0.358E-02
DAV:   9    -0.132403539808E+04    0.43537E-04   -0.17439E-05 19270   0.121E-02
  12 F= -.13240354E+04 E0= -.13240354E+04  d E =0.363315E-01  mag=   120.0000
       N       E                     dE             d eps       ncg     rms          rms(c)
DAV:   1    -0.132364659512E+04    0.38885E+00   -0.16482E+01 46160   0.174E+01    0.293E+00
DAV:   2    -0.132402187452E+04   -0.37528E+00   -0.34788E+00 36630   0.304E+00    0.147E+00
DAV:   3    -0.132403032038E+04   -0.84459E-02   -0.11013E-01 37040   0.680E-01    0.720E-01
DAV:   4    -0.132403033173E+04   -0.11348E-04   -0.63710E-03 39650   0.155E-01    0.503E-01
DAV:   5    -0.132402902145E+04    0.13103E-02   -0.13888E-03 42100   0.138E-01    0.324E-01
DAV:   6    -0.132402866998E+04    0.35146E-03   -0.15963E-03 42680   0.154E-01    0.174E-01
DAV:   7    -0.132402851263E+04    0.15735E-03   -0.84145E-04 39020   0.800E-02    0.588E-02
DAV:   8    -0.132402871309E+04   -0.20046E-03   -0.10219E-04 27420   0.319E-02    0.321E-02
DAV:   9    -0.132402866714E+04    0.45954E-04   -0.25120E-05 18930   0.119E-02
  13 F= -.13240287E+04 E0= -.13240287E+04  d E =0.673095E-02  mag=   120.0000
       N       E                     dE             d eps       ncg     rms          rms(c)
DAV:   1    -0.132347003822E+04    0.55867E+00   -0.23379E+01 47430   0.209E+01    0.363E+00
DAV:   2    -0.132404619764E+04   -0.57616E+00   -0.52346E+00 36810   0.362E+00    0.189E+00
DAV:   3    -0.132405856518E+04   -0.12368E-01   -0.17067E-01 36700   0.846E-01    0.921E-01
DAV:   4    -0.132405889124E+04   -0.32607E-03   -0.11354E-02 40220   0.237E-01    0.650E-01
DAV:   5    -0.132405695760E+04    0.19336E-02   -0.23265E-03 42230   0.170E-01    0.439E-01
DAV:   6    -0.132405623070E+04    0.72691E-03   -0.26281E-03 42330   0.197E-01    0.197E-01
DAV:   7    -0.132405613014E+04    0.10056E-03   -0.13812E-03 39040   0.105E-01    0.801E-02
DAV:   8    -0.132405645024E+04   -0.32011E-03   -0.19192E-04 32670   0.402E-02    0.374E-02
DAV:   9    -0.132405640207E+04    0.48173E-04   -0.31215E-05 19520   0.137E-02
  14 F= -.13240564E+04 E0= -.13240564E+04  d E =-.277349E-01  mag=   120.0000
       N       E                     dE             d eps       ncg     rms          rms(c)
DAV:   1    -0.132365273729E+04    0.40371E+00   -0.15551E+01 47430   0.178E+01    0.289E+00
DAV:   2    -0.132403536851E+04   -0.38263E+00   -0.34854E+00 37410   0.302E+00    0.144E+00
DAV:   3    -0.132404403835E+04   -0.86698E-02   -0.11099E-01 37020   0.672E-01    0.683E-01
DAV:   4    -0.132404386863E+04    0.16972E-03   -0.67122E-03 39820   0.153E-01    0.491E-01
DAV:   5    -0.132404279393E+04    0.10747E-02   -0.17073E-03 43050   0.140E-01    0.295E-01
DAV:   6    -0.132404220975E+04    0.58417E-03   -0.13618E-03 43080   0.131E-01    0.122E-01
DAV:   7    -0.132404261684E+04   -0.40709E-03   -0.71180E-04 38210   0.757E-02    0.695E-02
DAV:   8    -0.132404255484E+04    0.62004E-04   -0.89220E-05 24650   0.298E-02    0.305E-02
DAV:   9    -0.132404253612E+04    0.18717E-04   -0.17579E-05 18870   0.115E-02
  15 F= -.13240425E+04 E0= -.13240425E+04  d E =0.138660E-01  mag=   120.0000
       N       E                     dE             d eps       ncg     rms          rms(c)
DAV:   1    -0.132378814383E+04    0.25441E+00   -0.12264E+01 46590   0.151E+01    0.248E+00
DAV:   2    -0.132406198769E+04   -0.27384E+00   -0.25287E+00 36250   0.259E+00    0.121E+00
DAV:   3    -0.132406776553E+04   -0.57778E-02   -0.79767E-02 37180   0.573E-01    0.575E-01
DAV:   4    -0.132406746193E+04    0.30360E-03   -0.47811E-03 39510   0.130E-01    0.420E-01
DAV:   5    -0.132406655358E+04    0.90834E-03   -0.99517E-04 42720   0.113E-01    0.259E-01
DAV:   6    -0.132406613366E+04    0.41993E-03   -0.97503E-04 43760   0.115E-01    0.107E-01
DAV:   7    -0.132406637007E+04   -0.23642E-03   -0.51451E-04 37820   0.592E-02    0.546E-02
DAV:   8    -0.132406632674E+04    0.43330E-04   -0.59354E-05 21600   0.245E-02
  16 F= -.13240663E+04 E0= -.13240663E+04  d E =-.237906E-01  mag=   120.0000
       N       E                     dE             d eps       ncg     rms          rms(c)
DAV:   1    -0.132340702552E+04    0.65934E+00   -0.41029E+01 43020   0.233E+01    0.380E+00
DAV:   2    -0.132406269264E+04   -0.65567E+00   -0.64815E+00 36300   0.425E+00    0.188E+00
DAV:   3    -0.132407075255E+04   -0.80599E-02   -0.17275E-01 36760   0.842E-01    0.910E-01
DAV:   4    -0.132406920185E+04    0.15507E-02   -0.10890E-02 39640   0.203E-01    0.690E-01
DAV:   5    -0.132406635937E+04    0.28425E-02   -0.28065E-03 42000   0.204E-01    0.424E-01
DAV:   6    -0.132406603261E+04    0.32675E-03   -0.31560E-03 43670   0.194E-01    0.187E-01
DAV:   7    -0.132406591674E+04    0.11587E-03   -0.13750E-03 38470   0.101E-01    0.861E-02
DAV:   8    -0.132406610060E+04   -0.18386E-03   -0.15649E-04 31160   0.359E-02    0.432E-02
DAV:   9    -0.132406608331E+04    0.17298E-04   -0.30526E-05 19700   0.158E-02
  17 F= -.13240661E+04 E0= -.13240661E+04  d E =0.243438E-03  mag=   120.0000
       N       E                     dE             d eps       ncg     rms          rms(c)
DAV:   1    -0.132327979394E+04    0.78631E+00   -0.32770E+01 48030   0.246E+01    0.417E+00
DAV:   2    -0.132401763440E+04   -0.73784E+00   -0.67496E+00 37340   0.423E+00    0.214E+00
DAV:   3    -0.132403886057E+04   -0.21226E-01   -0.22558E-01 37100   0.108E+00    0.116E+00
DAV:   4    -0.132403906728E+04   -0.20671E-03   -0.16617E-02 39280   0.327E-01    0.721E-01
DAV:   5    -0.132403686520E+04    0.22021E-02   -0.42791E-03 41000   0.199E-01    0.485E-01
DAV:   6    -0.132403591297E+04    0.95223E-03   -0.32536E-03 42740   0.208E-01    0.214E-01
DAV:   7    -0.132403605645E+04   -0.14347E-03   -0.16311E-03 39100   0.106E-01    0.968E-02
DAV:   8    -0.132403631235E+04   -0.25590E-03   -0.25370E-04 34450   0.447E-02    0.522E-02
DAV:   9    -0.132403627301E+04    0.39339E-04   -0.42148E-05 20120   0.158E-02
  18 F= -.13240363E+04 E0= -.13240363E+04  d E =0.298103E-01  mag=   120.0000
       N       E                     dE             d eps       ncg     rms          rms(c)
DAV:   1    -0.132377275440E+04    0.26356E+00   -0.12488E+01 47790   0.154E+01    0.256E+00
DAV:   2    -0.132406870496E+04   -0.29595E+00   -0.27371E+00 37600   0.269E+00    0.132E+00
DAV:   3    -0.132407731517E+04   -0.86102E-02   -0.10119E-01 36960   0.656E-01    0.717E-01
DAV:   4    -0.132407732561E+04   -0.10443E-04   -0.63145E-03 39600   0.170E-01    0.458E-01
DAV:   5    -0.132407616668E+04    0.11589E-02   -0.17213E-03 40820   0.128E-01    0.307E-01
DAV:   6    -0.132407591664E+04    0.25004E-03   -0.15131E-03 42780   0.142E-01    0.159E-01
DAV:   7    -0.132407574191E+04    0.17473E-03   -0.73772E-04 38840   0.775E-02    0.632E-02
DAV:   8    -0.132407592532E+04   -0.18341E-03   -0.12200E-04 28640   0.332E-02    0.337E-02
DAV:   9    -0.132407588773E+04    0.37593E-04   -0.25452E-05 18950   0.117E-02
  19 F= -.13240759E+04 E0= -.13240759E+04  d E =-.396147E-01  mag=   120.0000
       N       E                     dE             d eps       ncg     rms          rms(c)
DAV:   1    -0.132400972862E+04    0.66197E-01   -0.28604E+00 47910   0.756E+00    0.123E+00
DAV:   2    -0.132407974674E+04   -0.70018E-01   -0.63711E-01 36880   0.127E+00    0.590E-01
DAV:   3    -0.132408111254E+04   -0.13658E-02   -0.20625E-02 37120   0.281E-01    0.280E-01
DAV:   4    -0.132408114395E+04   -0.31412E-04   -0.12304E-03 38770   0.647E-02    0.199E-01
DAV:   5    -0.132408085495E+04    0.28900E-03   -0.31784E-04 35200   0.640E-02    0.116E-01
DAV:   6    -0.132408087485E+04   -0.19907E-04   -0.25924E-04 38020   0.550E-02
  20 F= -.13240809E+04 E0= -.13240809E+04  d E =-.498713E-02  mag=   120.0000
       N       E                     dE             d eps       ncg     rms          rms(c)
DAV:   1    -0.132402465534E+04    0.56200E-01   -0.28203E+00 46010   0.677E+00    0.111E+00
DAV:   2    -0.132407978592E+04   -0.55131E-01   -0.52164E-01 36460   0.117E+00    0.528E-01
DAV:   3    -0.132408067394E+04   -0.88802E-03   -0.15142E-02 37070   0.247E-01    0.256E-01
DAV:   4    -0.132408059516E+04    0.78780E-04   -0.90232E-04 37990   0.587E-02    0.186E-01
DAV:   5    -0.132408051559E+04    0.79563E-04   -0.23272E-04 33060   0.596E-02    0.114E-01
DAV:   6    -0.132408032475E+04    0.19084E-03   -0.26718E-04 38120   0.559E-02    0.527E-02
DAV:   7    -0.132408044587E+04   -0.12112E-03   -0.10897E-04 25250   0.302E-02    0.224E-02
DAV:   8    -0.132408042015E+04    0.25719E-04   -0.17117E-05 18760   0.116E-02
  21 F= -.13240804E+04 E0= -.13240804E+04  d E =0.454706E-03  mag=   120.0000
       N       E                     dE             d eps       ncg     rms          rms(c)
DAV:   1    -0.132394650357E+04    0.13394E+00   -0.80262E+00 44260   0.103E+01    0.164E+00
DAV:   2    -0.132407242790E+04   -0.12592E+00   -0.12395E+00 36180   0.184E+00    0.799E-01
DAV:   3    -0.132407422183E+04   -0.17939E-02   -0.36951E-02 37060   0.384E-01    0.398E-01
DAV:   4    -0.132407387905E+04    0.34278E-03   -0.23024E-03 39550   0.927E-02    0.290E-01
DAV:   5    -0.132407345974E+04    0.41931E-03   -0.64944E-04 41400   0.904E-02    0.178E-01
DAV:   6    -0.132407315175E+04    0.30800E-03   -0.65130E-04 41660   0.869E-02    0.846E-02
DAV:   7    -0.132407332944E+04   -0.17770E-03   -0.27827E-04 36300   0.465E-02    0.372E-02
DAV:   8    -0.132407329189E+04    0.37552E-04   -0.30256E-05 19900   0.161E-02
  22 F= -.13240733E+04 E0= -.13240733E+04  d E =0.712825E-02  mag=   120.0000
       N       E                     dE             d eps       ncg     rms          rms(c)
DAV:   1    -0.132388446450E+04    0.18886E+00   -0.10064E+01 45670   0.120E+01    0.190E+00
DAV:   2    -0.132406107140E+04   -0.17661E+00   -0.17013E+00 37270   0.211E+00    0.982E-01
DAV:   3    -0.132406419460E+04   -0.31232E-02   -0.54597E-02 36970   0.469E-01    0.509E-01
DAV:   4    -0.132406412859E+04    0.66014E-04   -0.36207E-03 39260   0.136E-01    0.345E-01
DAV:   5    -0.132406323264E+04    0.89595E-03   -0.12423E-03 41710   0.113E-01    0.219E-01
DAV:   6    -0.132406312414E+04    0.10849E-03   -0.97898E-04 41910   0.108E-01    0.105E-01
DAV:   7    -0.132406300090E+04    0.12324E-03   -0.44013E-04 38570   0.565E-02    0.446E-02
DAV:   8    -0.132406309053E+04   -0.89628E-04   -0.53267E-05 21510   0.207E-02    0.225E-02
DAV:   9    -0.132406308714E+04    0.33948E-05   -0.11268E-05 18720   0.804E-03
  23 F= -.13240631E+04 E0= -.13240631E+04  d E =0.102048E-01  mag=   120.0000
       N       E                     dE             d eps       ncg     rms          rms(c)
DAV:   1    -0.132356742609E+04    0.49566E+00   -0.20784E+01 47430   0.200E+01    0.331E+00
DAV:   2    -0.132403534480E+04   -0.46792E+00   -0.43019E+00 37130   0.345E+00    0.167E+00
DAV:   3    -0.132404710885E+04   -0.11764E-01   -0.14679E-01 37430   0.804E-01    0.836E-01
DAV:   4    -0.132404715763E+04   -0.48783E-04   -0.81724E-03 39650   0.192E-01    0.541E-01
DAV:   5    -0.132404566628E+04    0.14913E-02   -0.21780E-03 42160   0.152E-01    0.328E-01
DAV:   6    -0.132404518252E+04    0.48376E-03   -0.18493E-03 42040   0.155E-01    0.167E-01
DAV:   7    -0.132404519498E+04   -0.12452E-04   -0.10627E-03 38810   0.876E-02    0.755E-02
DAV:   8    -0.132404538671E+04   -0.19174E-03   -0.12934E-04 29100   0.395E-02    0.379E-02
DAV:   9    -0.132404531230E+04    0.74413E-04   -0.37965E-05 19770   0.155E-02    0.318E-02
DAV:  10    -0.132404530663E+04    0.56657E-05   -0.77822E-06 18850   0.927E-03
  24 F= -.13240453E+04 E0= -.13240453E+04  d E =0.177805E-01  mag=   120.0000
       N       E                     dE             d eps       ncg     rms          rms(c)
DAV:   1    -0.132023149542E+04    0.38138E+01   -0.10304E+02 50160   0.532E+01    0.939E+00
DAV:   2    -0.132365346457E+04   -0.34220E+01   -0.29870E+01 38130   0.889E+00    0.551E+00
DAV:   3    -0.132376545143E+04   -0.11199E+00   -0.11396E+00 37400   0.226E+00    0.246E+00
DAV:   4    -0.132376482178E+04    0.62964E-03   -0.69994E-02 41210   0.606E-01    0.160E+00
DAV:   5    -0.132375485129E+04    0.99705E-02   -0.15613E-02 39450   0.386E-01    0.109E+00
DAV:   6    -0.132374962907E+04    0.52222E-02   -0.12130E-02 40760   0.452E-01    0.626E-01
DAV:   7    -0.132374915528E+04    0.47379E-03   -0.91548E-03 39520   0.292E-01    0.243E-01
DAV:   8    -0.132375026401E+04   -0.11087E-02   -0.18504E-03 37570   0.139E-01    0.126E-01
DAV:   9    -0.132374998632E+04    0.27769E-03   -0.45247E-04 36580   0.508E-02    0.884E-02
DAV:  10    -0.132374981665E+04    0.16967E-03   -0.60927E-05 23730   0.232E-02    0.469E-02
DAV:  11    -0.132375000488E+04   -0.18823E-03   -0.31431E-05 22160   0.184E-02    0.208E-02
DAV:  12    -0.132375000922E+04   -0.43461E-05   -0.17469E-05 18850   0.937E-03
  25 F= -.13237500E+04 E0= -.13237500E+04  d E =0.295297E+00  mag=   120.0000
       N       E                     dE             d eps       ncg     rms          rms(c)
DAV:   1    -0.132305840127E+04    0.69160E+00   -0.27706E+01 49480   0.280E+01    0.479E+00
DAV:   2    -0.132398964654E+04   -0.93125E+00   -0.81544E+00 38550   0.468E+00    0.247E+00
DAV:   3    -0.132402423108E+04   -0.34585E-01   -0.33040E-01 37660   0.118E+00    0.126E+00
DAV:   4    -0.132402451749E+04   -0.28641E-03   -0.19138E-02 40440   0.284E-01    0.778E-01
DAV:   5    -0.132402158172E+04    0.29358E-02   -0.55336E-03 40050   0.223E-01    0.475E-01
DAV:   6    -0.132401969326E+04    0.18885E-02   -0.39929E-03 40880   0.233E-01    0.266E-01
DAV:   7    -0.132402051820E+04   -0.82494E-03   -0.24650E-03 39050   0.137E-01    0.115E-01
DAV:   8    -0.132402052667E+04   -0.84669E-05   -0.37197E-04 35880   0.702E-02
  26 F= -.13240205E+04 E0= -.13240205E+04  d E =-.270517E+00  mag=   120.0000
       N       E                     dE             d eps       ncg     rms          rms(c)
DAV:   1    -0.132375242547E+04    0.26809E+00   -0.83576E+00 49790   0.154E+01    0.266E+00
DAV:   2    -0.132404674856E+04   -0.29432E+00   -0.25642E+00 38070   0.254E+00    0.134E+00
DAV:   3    -0.132405686571E+04   -0.10117E-01   -0.10280E-01 37490   0.640E-01    0.684E-01
DAV:   4    -0.132405712836E+04   -0.26266E-03   -0.58755E-03 39820   0.164E-01    0.429E-01
DAV:   5    -0.132405656996E+04    0.55840E-03   -0.14319E-03 40050   0.121E-01    0.276E-01
DAV:   6    -0.132405595931E+04    0.61065E-03   -0.12460E-03 41370   0.136E-01    0.155E-01
DAV:   7    -0.132405631775E+04   -0.35844E-03   -0.74540E-04 39320   0.813E-02    0.589E-02
DAV:   8    -0.132405630420E+04    0.13557E-04   -0.11267E-04 28310   0.373E-02
  27 F= -.13240563E+04 E0= -.13240563E+04  d E =-.357775E-01  mag=   120.0000
       N       E                     dE             d eps       ncg     rms          rms(c)
DAV:   1    -0.132404448520E+04    0.11833E-01   -0.44136E-01 48130   0.332E+00    0.559E-01
DAV:   2    -0.132405818916E+04   -0.13704E-01   -0.12194E-01 36700   0.558E-01    0.263E-01
DAV:   3    -0.132405835319E+04   -0.16403E-03   -0.40254E-03 36940   0.130E-01    0.130E-01
DAV:   4    -0.132405840974E+04   -0.56551E-04   -0.25171E-04 29530   0.323E-02    0.943E-02
DAV:   5    -0.132405831935E+04    0.90385E-04   -0.41615E-05 19630   0.251E-02    0.654E-02
DAV:   6    -0.132405832819E+04   -0.88332E-05   -0.64002E-05 23530   0.318E-02
  28 F= -.13240583E+04 E0= -.13240583E+04  d E =-.202399E-02  mag=   120.0000
       N       E                     dE             d eps       ncg     rms          rms(c)
DAV:   1    -0.132353634710E+04    0.52197E+00   -0.20113E+01 46010   0.199E+01    0.339E+00
DAV:   2    -0.132403948356E+04   -0.50314E+00   -0.46517E+00 36020   0.345E+00    0.166E+00
DAV:   3    -0.132404708728E+04   -0.76037E-02   -0.12770E-01 37010   0.715E-01    0.771E-01
DAV:   4    -0.132404687042E+04    0.21687E-03   -0.79099E-03 40310   0.163E-01    0.597E-01
DAV:   5    -0.132404492480E+04    0.19456E-02   -0.12559E-03 43750   0.155E-01    0.372E-01
DAV:   6    -0.132404466117E+04    0.26362E-03   -0.18094E-03 43730   0.166E-01    0.150E-01
DAV:   7    -0.132404457778E+04    0.83388E-04   -0.96699E-04 38600   0.851E-02    0.692E-02
DAV:   8    -0.132404472805E+04   -0.15027E-03   -0.81432E-05 25400   0.300E-02    0.333E-02
DAV:   9    -0.132404472246E+04    0.55904E-05   -0.19849E-05 18950   0.128E-02
  29 F= -.13240447E+04 E0= -.13240447E+04  d E =0.136057E-01  mag=   120.0000
       N       E                     dE             d eps       ncg     rms          rms(c)
DAV:   1    -0.132338633908E+04    0.65839E+00   -0.33236E+01 45250   0.228E+01    0.382E+00
DAV:   2    -0.132402189245E+04   -0.63555E+00   -0.60297E+00 35690   0.398E+00    0.188E+00
DAV:   3    -0.132403158297E+04   -0.96905E-02   -0.17830E-01 37250   0.827E-01    0.876E-01
DAV:   4    -0.132403121056E+04    0.37241E-03   -0.11184E-02 40220   0.202E-01    0.662E-01
DAV:   5    -0.132402870392E+04    0.25066E-02   -0.19388E-03 43590   0.180E-01    0.425E-01
DAV:   6    -0.132402814325E+04    0.56067E-03   -0.26982E-03 43600   0.201E-01    0.191E-01
DAV:   7    -0.132402803852E+04    0.10473E-03   -0.14259E-03 38410   0.104E-01    0.784E-02
DAV:   8    -0.132402827405E+04   -0.23553E-03   -0.12568E-04 29650   0.345E-02    0.417E-02
DAV:   9    -0.132402825375E+04    0.20299E-04   -0.24489E-05 19240   0.141E-02
  30 F= -.13240283E+04 E0= -.13240283E+04  d E =0.164687E-01  mag=   120.0000
       N       E                     dE             d eps       ncg     rms          rms(c)
DAV:   1    -0.131833769188E+04    0.56906E+01   -0.15047E+02 49950   0.643E+01    0.119E+01
DAV:   2    -0.132343804761E+04   -0.51004E+01   -0.44640E+01 37940   0.107E+01    0.722E+00
DAV:   3    -0.132362310790E+04   -0.18506E+00   -0.17874E+00 37510   0.293E+00    0.322E+00
DAV:   4    -0.132362355119E+04   -0.44328E-03   -0.12346E-01 40120   0.875E-01    0.216E+00
DAV:   5    -0.132361207200E+04    0.11479E-01   -0.26422E-02 39350   0.479E-01    0.152E+00
DAV:   6    -0.132360405728E+04    0.80147E-02   -0.17033E-02 41870   0.525E-01    0.823E-01
DAV:   7    -0.132360388921E+04    0.16807E-03   -0.11688E-02 40470   0.345E-01    0.283E-01
DAV:   8    -0.132360596623E+04   -0.20770E-02   -0.33035E-03 37640   0.153E-01    0.134E-01
DAV:   9    -0.132360536023E+04    0.60600E-03   -0.71589E-04 37330   0.541E-02    0.102E-01
DAV:  10    -0.132360528242E+04    0.77808E-04   -0.61420E-05 23150   0.263E-02    0.571E-02
DAV:  11    -0.132360554029E+04   -0.25786E-03   -0.45953E-05 22190   0.207E-02    0.281E-02
DAV:  12    -0.132360544402E+04    0.96271E-04   -0.19970E-05 18970   0.120E-02    0.148E-02
DAV:  13    -0.132360540238E+04    0.41637E-04   -0.82464E-06 18760   0.730E-03
  31 F= -.13236054E+04 E0= -.13236054E+04  d E =0.422851E+00  mag=   120.0000
       N       E                     dE             d eps       ncg     rms          rms(c)
DAV:   1    -0.132250778981E+04    0.10977E+01   -0.51741E+01 50470   0.369E+01    0.602E+00
DAV:   2    -0.132397274526E+04   -0.14650E+01   -0.12878E+01 37700   0.610E+00    0.340E+00
DAV:   3    -0.132402909268E+04   -0.56347E-01   -0.60533E-01 37640   0.183E+00    0.195E+00
DAV:   4    -0.132402780354E+04    0.12891E-02   -0.43854E-02 40050   0.583E-01    0.105E+00
DAV:   5    -0.132402214922E+04    0.56543E-02   -0.12951E-02 40830   0.329E-01    0.711E-01
DAV:   6    -0.132401888102E+04    0.32682E-02   -0.88142E-03 40210   0.326E-01    0.353E-01
DAV:   7    -0.132401877539E+04    0.10564E-03   -0.41377E-03 39330   0.178E-01    0.171E-01
DAV:   8    -0.132401916570E+04   -0.39031E-03   -0.11176E-03 37470   0.884E-02    0.103E-01
DAV:   9    -0.132401903674E+04    0.12896E-03   -0.17241E-04 32950   0.322E-02    0.672E-02
DAV:  10    -0.132401891834E+04    0.11840E-03   -0.41434E-05 21790   0.199E-02    0.358E-02
DAV:  11    -0.132401909277E+04   -0.17443E-03   -0.21100E-05 21060   0.169E-02    0.134E-02
DAV:  12    -0.132401905999E+04    0.32774E-04   -0.13692E-05 18760   0.816E-03
  32 F= -.13240191E+04 E0= -.13240191E+04  d E =-.413658E+00  mag=   120.0000
       N       E                     dE             d eps       ncg     rms          rms(c)
DAV:   1    -0.132374924388E+04    0.26985E+00   -0.87913E+00 49890   0.158E+01    0.263E+00
DAV:   2    -0.132404522479E+04   -0.29598E+00   -0.25809E+00 38210   0.257E+00    0.129E+00
DAV:   3    -0.132405319157E+04   -0.79668E-02   -0.91442E-02 37550   0.676E-01    0.711E-01
DAV:   4    -0.132405349551E+04   -0.30394E-03   -0.64104E-03 39150   0.204E-01    0.428E-01
DAV:   5    -0.132405233388E+04    0.11616E-02   -0.16606E-03 41410   0.127E-01    0.294E-01
DAV:   6    -0.132405189558E+04    0.43829E-03   -0.13623E-03 41810   0.138E-01    0.137E-01
DAV:   7    -0.132405182397E+04    0.71616E-04   -0.64795E-04 39310   0.714E-02    0.639E-02
DAV:   8    -0.132405191899E+04   -0.95024E-04   -0.13680E-04 29480   0.330E-02    0.374E-02
DAV:   9    -0.132405189583E+04    0.23163E-04   -0.24820E-05 19100   0.119E-02
  33 F= -.13240519E+04 E0= -.13240519E+04  d E =-.328358E-01  mag=   120.0000
       N       E                     dE             d eps       ncg     rms          rms(c)
DAV:   1    -0.132403143860E+04    0.20480E-01   -0.93583E-01 48840   0.488E+00    0.800E-01
DAV:   2    -0.132405987429E+04   -0.28436E-01   -0.25054E-01 36880   0.816E-01    0.382E-01
DAV:   3    -0.132406076490E+04   -0.89061E-03   -0.89141E-03 37320   0.192E-01    0.194E-01
DAV:   4    -0.132406063511E+04    0.12980E-03   -0.54655E-04 33590   0.448E-02    0.134E-01
DAV:   5    -0.132406059795E+04    0.37154E-04   -0.84784E-05 23180   0.357E-02
  34 F= -.13240606E+04 E0= -.13240606E+04  d E =-.870213E-02  mag=   120.0000
       N       E                     dE             d eps       ncg     rms          rms(c)
DAV:   1    -0.132395340775E+04    0.10723E+00   -0.50468E+00 46880   0.988E+00    0.158E+00
DAV:   2    -0.132406777893E+04   -0.11437E+00   -0.10456E+00 36850   0.169E+00    0.782E-01
DAV:   3    -0.132407061719E+04   -0.28383E-02   -0.35488E-02 37240   0.386E-01    0.412E-01
DAV:   4    -0.132407027287E+04    0.34432E-03   -0.22126E-03 40000   0.964E-02    0.283E-01
DAV:   5    -0.132406997233E+04    0.30054E-03   -0.48879E-04 40350   0.843E-02    0.175E-01
DAV:   6    -0.132406973015E+04    0.24217E-03   -0.57489E-04 42030   0.899E-02    0.898E-02
DAV:   7    -0.132406990836E+04   -0.17821E-03   -0.29395E-04 36940   0.483E-02    0.348E-02
DAV:   8    -0.132406984817E+04    0.60190E-04   -0.27227E-05 19700   0.184E-02    0.186E-02
DAV:   9    -0.132406984237E+04    0.57956E-05   -0.88262E-06 18670   0.713E-03
  35 F= -.13240698E+04 E0= -.13240698E+04  d E =-.924442E-02  mag=   120.0000
       N       E                     dE             d eps       ncg     rms          rms(c)
DAV:   1    -0.132404681363E+04    0.23035E-01   -0.20876E+00 42590   0.478E+00    0.749E-01
DAV:   2    -0.132407271509E+04   -0.25901E-01   -0.26666E-01 36350   0.854E-01    0.368E-01
DAV:   3    -0.132407305735E+04   -0.34227E-03   -0.77215E-03 37260   0.177E-01    0.194E-01
DAV:   4    -0.132407291741E+04    0.13994E-03   -0.50874E-04 36580   0.481E-02    0.137E-01
DAV:   5    -0.132407288088E+04    0.36525E-04   -0.14170E-04 29720   0.457E-02
  36 F= -.13240729E+04 E0= -.13240729E+04  d E =-.303851E-02  mag=   120.0000
       N       E                     dE             d eps       ncg     rms          rms(c)
DAV:   1    -0.132255696279E+04    0.15160E+01   -0.10611E+02 41770   0.341E+01    0.560E+00
DAV:   2    -0.132403642050E+04   -0.14795E+01   -0.14296E+01 36570   0.615E+00    0.298E+00
DAV:   3    -0.132404743138E+04   -0.11011E-01   -0.34833E-01 37290   0.115E+00    0.137E+00
DAV:   4    -0.132404315304E+04    0.42783E-02   -0.22639E-02 40750   0.309E-01    0.103E+00
DAV:   5    -0.132403784522E+04    0.53078E-02   -0.59024E-03 42620   0.295E-01    0.607E-01
DAV:   6    -0.132403548561E+04    0.23596E-02   -0.72783E-03 41860   0.289E-01    0.315E-01
DAV:   7    -0.132403642757E+04   -0.94196E-03   -0.28141E-03 38070   0.153E-01    0.110E-01
DAV:   8    -0.132403652547E+04   -0.97900E-04   -0.24818E-04 33930   0.391E-02    0.562E-02
DAV:   9    -0.132403633325E+04    0.19222E-03   -0.33900E-05 20470   0.204E-02    0.339E-02
DAV:  10    -0.132403643028E+04   -0.97036E-04   -0.32418E-05 19890   0.193E-02    0.174E-02
DAV:  11    -0.132403640531E+04    0.24973E-04   -0.73199E-06 18200   0.707E-03
  37 F= -.13240364E+04 E0= -.13240364E+04  d E =0.364756E-01  mag=   120.0000
       N       E                     dE             d eps       ncg     rms          rms(c)
DAV:   1    -0.132299505804E+04    0.10414E+01   -0.65141E+01 44870   0.294E+01    0.473E+00
DAV:   2    -0.132399548614E+04   -0.10004E+01   -0.96198E+00 35930   0.508E+00    0.255E+00
DAV:   3    -0.132401082588E+04   -0.15340E-01   -0.27856E-01 37010   0.105E+00    0.115E+00
DAV:   4    -0.132400937773E+04    0.14481E-02   -0.17458E-02 41190   0.271E-01    0.804E-01
DAV:   5    -0.132400591442E+04    0.34633E-02   -0.40235E-03 42280   0.237E-01    0.484E-01
DAV:   6    -0.132400523309E+04    0.68133E-03   -0.46999E-03 41900   0.232E-01    0.250E-01
DAV:   7    -0.132400511358E+04    0.11950E-03   -0.20406E-03 37550   0.126E-01    0.968E-02
DAV:   8    -0.132400551538E+04   -0.40180E-03   -0.19082E-04 33310   0.396E-02    0.507E-02
DAV:   9    -0.132400543731E+04    0.78073E-04   -0.29118E-05 19630   0.147E-02    0.326E-02
DAV:  10    -0.132400539650E+04    0.40808E-04   -0.15358E-05 19030   0.134E-02
  38 F= -.13240054E+04 E0= -.13240054E+04  d E =0.310088E-01  mag=   120.0000
       N       E                     dE             d eps       ncg     rms          rms(c)
DAV:   1    -0.132372903230E+04    0.27641E+00   -0.21348E+01 40680   0.164E+01    0.247E+00
DAV:   2    -0.132403819180E+04   -0.30916E+00   -0.30729E+00 36690   0.294E+00    0.132E+00
DAV:   3    -0.132404193670E+04   -0.37449E-02   -0.97601E-02 37110   0.657E-01    0.733E-01
DAV:   4    -0.132404145236E+04    0.48435E-03   -0.64217E-03 39450   0.181E-01    0.500E-01
DAV:   5    -0.132403966217E+04    0.17902E-02   -0.18692E-03 41710   0.151E-01    0.319E-01
DAV:   6    -0.132403928290E+04    0.37928E-03   -0.20240E-03 42440   0.159E-01    0.156E-01
DAV:   7    -0.132403900553E+04    0.27737E-03   -0.84770E-04 38610   0.806E-02    0.554E-02
DAV:   8    -0.132403915630E+04   -0.15077E-03   -0.88353E-05 25350   0.262E-02    0.321E-02
DAV:   9    -0.132403915117E+04    0.51362E-05   -0.15613E-05 18760   0.999E-03
  39 F= -.13240392E+04 E0= -.13240392E+04  d E =-.337547E-01  mag=   120.0000
       N       E                     dE             d eps       ncg     rms          rms(c)
DAV:   1    -0.132401106589E+04    0.28090E-01   -0.12286E+00 47950   0.522E+00    0.865E-01
DAV:   2    -0.132404481508E+04   -0.33749E-01   -0.30138E-01 37820   0.896E-01    0.439E-01
DAV:   3    -0.132404589862E+04   -0.10835E-02   -0.10694E-02 37300   0.214E-01    0.235E-01
DAV:   4    -0.132404570014E+04    0.19848E-03   -0.66126E-04 37440   0.569E-02    0.153E-01
DAV:   5    -0.132404563530E+04    0.64838E-04   -0.17213E-04 31040   0.454E-02    0.991E-02
DAV:   6    -0.132404551260E+04    0.12270E-03   -0.17335E-04 32830   0.491E-02    0.526E-02
DAV:   7    -0.132404560508E+04   -0.92485E-04   -0.84701E-05 22640   0.280E-02    0.192E-02
DAV:   8    -0.132404557075E+04    0.34332E-04   -0.17470E-05 18690   0.114E-02
  40 F= -.13240456E+04 E0= -.13240456E+04  d E =-.641958E-02  mag=   120.0000
       N       E                     dE             d eps       ncg     rms          rms(c)
DAV:   1    -0.132401595977E+04    0.29645E-01   -0.17396E+00 43590   0.487E+00    0.769E-01
DAV:   2    -0.132404397388E+04   -0.28014E-01   -0.27341E-01 36100   0.851E-01    0.368E-01
DAV:   3    -0.132404448527E+04   -0.51139E-03   -0.76641E-03 36950   0.167E-01    0.176E-01
DAV:   4    -0.132404434672E+04    0.13855E-03   -0.46525E-04 33860   0.398E-02    0.133E-01
DAV:   5    -0.132404429066E+04    0.56060E-04   -0.11746E-04 27530   0.461E-02    0.785E-02
DAV:   6    -0.132404420164E+04    0.89023E-04   -0.16509E-04 34500   0.402E-02    0.362E-02
DAV:   7    -0.132404426913E+04   -0.67489E-04   -0.49653E-05 19600   0.211E-02    0.145E-02
DAV:   8    -0.132404424658E+04    0.22544E-04   -0.78361E-06 17920   0.682E-03
  41 F= -.13240442E+04 E0= -.13240442E+04  d E =0.132417E-02  mag=   120.0000
       N       E                     dE             d eps       ncg     rms          rms(c)
DAV:   1    -0.132373674966E+04    0.30752E+00   -0.14693E+01 44610   0.157E+01    0.250E+00
DAV:   2    -0.132403743405E+04   -0.30068E+00   -0.28127E+00 36250   0.273E+00    0.124E+00
DAV:   3    -0.132404219099E+04   -0.47569E-02   -0.84318E-02 36920   0.568E-01    0.598E-01
DAV:   4    -0.132404163440E+04    0.55660E-03   -0.53709E-03 39910   0.147E-01    0.455E-01
DAV:   5    -0.132404075292E+04    0.88148E-03   -0.10838E-03 43950   0.138E-01    0.286E-01
DAV:   6    -0.132403995004E+04    0.80287E-03   -0.13916E-03 43300   0.145E-01    0.126E-01
DAV:   7    -0.132404032586E+04   -0.37581E-03   -0.61845E-04 38140   0.687E-02    0.448E-02
DAV:   8    -0.132404029450E+04    0.31354E-04   -0.47964E-05 21140   0.182E-02
  42 F= -.13240403E+04 E0= -.13240403E+04  d E =0.395208E-02  mag=   120.0000
       N       E                     dE             d eps       ncg     rms          rms(c)
DAV:   1    -0.132399696236E+04    0.43363E-01   -0.20358E+00 45710   0.649E+00    0.107E+00
DAV:   2    -0.132405040764E+04   -0.53445E-01   -0.49442E-01 37490   0.114E+00    0.535E-01
DAV:   3    -0.132405104271E+04   -0.63507E-03   -0.15385E-02 36970   0.270E-01    0.295E-01
DAV:   4    -0.132405123826E+04   -0.19555E-03   -0.10250E-03 38480   0.735E-02    0.204E-01
DAV:   5    -0.132405098359E+04    0.25467E-03   -0.19943E-04 31540   0.514E-02    0.142E-01
DAV:   6    -0.132405091737E+04    0.66218E-04   -0.29158E-04 39670   0.669E-02    0.589E-02
DAV:   7    -0.132405084914E+04    0.68231E-04   -0.13868E-04 29860   0.321E-02    0.231E-02
DAV:   8    -0.132405090389E+04   -0.54744E-04   -0.21865E-05 18990   0.139E-02    0.134E-02
DAV:   9    -0.132405090021E+04    0.36804E-05   -0.58732E-06 18110   0.515E-03
  43 F= -.13240509E+04 E0= -.13240509E+04  d E =-.106057E-01  mag=   120.0000
       N       E                     dE             d eps       ncg     rms          rms(c)
DAV:   1    -0.132404850226E+04    0.24016E-02   -0.19776E-01 46190   0.195E+00    0.302E-01
DAV:   2    -0.132405297099E+04   -0.44687E-02   -0.41153E-02 36850   0.332E-01    0.153E-01
DAV:   3    -0.132405296153E+04    0.94578E-05   -0.13016E-03 36030   0.776E-02    0.825E-02
DAV:   4    -0.132405302603E+04   -0.64501E-04   -0.84547E-05 24980   0.226E-02    0.569E-02
DAV:   5    -0.132405298102E+04    0.45006E-04   -0.19759E-05 18590   0.171E-02
  44 F= -.13240530E+04 E0= -.13240530E+04  d E =-.208082E-02  mag=   120.0000
       N       E                     dE             d eps       ncg     rms          rms(c)
DAV:   1    -0.132402464907E+04    0.28377E-01   -0.11647E+00 48030   0.507E+00    0.829E-01
DAV:   2    -0.132405611942E+04   -0.31470E-01   -0.28140E-01 36570   0.835E-01    0.397E-01
DAV:   3    -0.132405669445E+04   -0.57503E-03   -0.87071E-03 35610   0.192E-01    0.193E-01
DAV:   4    -0.132405682506E+04   -0.13061E-03   -0.53506E-04 35550   0.503E-02    0.140E-01
DAV:   5    -0.132405666905E+04    0.15601E-03   -0.10289E-04 24470   0.432E-02    0.936E-02
DAV:   6    -0.132405668666E+04   -0.17606E-04   -0.15863E-04 29460   0.458E-02
  45 F= -.13240567E+04 E0= -.13240567E+04  d E =-.370563E-02  mag=   120.0000
       N       E                     dE             d eps       ncg     rms          rms(c)
DAV:   1    -0.132402522738E+04    0.31442E-01   -0.18385E+00 44750   0.538E+00    0.884E-01
DAV:   2    -0.132406087666E+04   -0.35649E-01   -0.34143E-01 36530   0.943E-01    0.421E-01
DAV:   3    -0.132406137953E+04   -0.50286E-03   -0.96385E-03 36420   0.196E-01    0.201E-01
DAV:   4    -0.132406137427E+04    0.52545E-05   -0.56381E-04 35390   0.420E-02    0.153E-01
DAV:   5    -0.132406126623E+04    0.10804E-03   -0.10968E-04 25790   0.461E-02    0.908E-02
DAV:   6    -0.132406117921E+04    0.87022E-04   -0.19099E-04 36420   0.406E-02    0.354E-02
DAV:   7    -0.132406126465E+04   -0.85448E-04   -0.58020E-05 20130   0.205E-02    0.169E-02
DAV:   8    -0.132406125084E+04    0.13812E-04   -0.95497E-06 17980   0.836E-03
  46 F= -.13240613E+04 E0= -.13240613E+04  d E =-.456418E-02  mag=   120.0000
       N       E                     dE             d eps       ncg     rms          rms(c)
DAV:   1    -0.132391145635E+04    0.14981E+00   -0.81805E+00 44840   0.110E+01    0.181E+00
DAV:   2    -0.132406307094E+04   -0.15161E+00   -0.14442E+00 36500   0.193E+00    0.874E-01
DAV:   3    -0.132406532493E+04   -0.22540E-02   -0.39570E-02 36270   0.393E-01    0.418E-01
DAV:   4    -0.132406503450E+04    0.29043E-03   -0.24707E-03 40200   0.963E-02    0.316E-01
DAV:   5    -0.132406470670E+04    0.32781E-03   -0.55820E-04 40940   0.100E-01    0.196E-01
DAV:   6    -0.132406430871E+04    0.39799E-03   -0.77876E-04 42280   0.979E-02    0.851E-02
DAV:   7    -0.132406456417E+04   -0.25546E-03   -0.30716E-04 36160   0.478E-02    0.341E-02
DAV:   8    -0.132406455169E+04    0.12473E-04   -0.25669E-05 19360   0.138E-02
  47 F= -.13240646E+04 E0= -.13240646E+04  d E =-.330085E-02  mag=   120.0000
       N       E                     dE             d eps       ncg     rms          rms(c)
DAV:   1    -0.132400268946E+04    0.61875E-01   -0.34531E+00 44230   0.731E+00    0.117E+00
DAV:   2    -0.132406636098E+04   -0.63672E-01   -0.61633E-01 36590   0.129E+00    0.571E-01
DAV:   3    -0.132406736950E+04   -0.10085E-02   -0.18105E-02 37040   0.266E-01    0.286E-01
DAV:   4    -0.132406727689E+04    0.92614E-04   -0.10814E-03 38610   0.579E-02    0.210E-01
DAV:   5    -0.132406696814E+04    0.30875E-03   -0.25257E-04 34000   0.630E-02    0.111E-01
DAV:   6    -0.132406692345E+04    0.44691E-04   -0.28718E-04 39380   0.455E-02
  48 F= -.13240669E+04 E0= -.13240669E+04  d E =-.237175E-02  mag=   120.0000
       N       E                     dE             d eps       ncg     rms          rms(c)
DAV:   1    -0.132404391477E+04    0.23053E-01   -0.12015E+00 46240   0.464E+00    0.725E-01
DAV:   2    -0.132406938534E+04   -0.25471E-01   -0.23659E-01 36630   0.791E-01    0.361E-01
DAV:   3    -0.132406969519E+04   -0.30985E-03   -0.72762E-03 36390   0.168E-01    0.176E-01
DAV:   4    -0.132406967722E+04    0.17975E-04   -0.40595E-04 31980   0.359E-02
  49 F= -.13240697E+04 E0= -.13240697E+04  d E =-.275377E-02  mag=   120.0000
       N       E                     dE             d eps       ncg     rms          rms(c)
DAV:   1    -0.132403342653E+04    0.36269E-01   -0.15317E+00 46650   0.561E+00    0.895E-01
DAV:   2    -0.132407183483E+04   -0.38408E-01   -0.35224E-01 36410   0.950E-01    0.449E-01
DAV:   3    -0.132407253031E+04   -0.69548E-03   -0.10653E-02 37010   0.201E-01    0.223E-01
DAV:   4    -0.132407245235E+04    0.77960E-04   -0.64553E-04 35520   0.492E-02    0.167E-01
DAV:   5    -0.132407238662E+04    0.65726E-04   -0.14110E-04 27710   0.561E-02    0.102E-01
DAV:   6    -0.132407225945E+04    0.12717E-03   -0.24222E-04 36970   0.530E-02    0.487E-02
DAV:   7    -0.132407235424E+04   -0.94796E-04   -0.71052E-05 20620   0.261E-02    0.164E-02
DAV:   8    -0.132407232664E+04    0.27603E-04   -0.11669E-05 17980   0.823E-03
  50 F= -.13240723E+04 E0= -.13240723E+04  d E =-.264943E-02  mag=   120.0000
       N       E                     dE             d eps       ncg     rms          rms(c)
DAV:   1    -0.132376349575E+04    0.30886E+00   -0.13781E+01 45970   0.154E+01    0.257E+00
DAV:   2    -0.132406406361E+04   -0.30057E+00   -0.27839E+00 36030   0.264E+00    0.129E+00
DAV:   3    -0.132406949962E+04   -0.54360E-02   -0.82195E-02 36870   0.550E-01    0.601E-01
DAV:   4    -0.132406940257E+04    0.97053E-04   -0.55084E-03 39480   0.140E-01    0.446E-01
DAV:   5    -0.132406851739E+04    0.88518E-03   -0.73022E-04 42870   0.112E-01    0.274E-01
DAV:   6    -0.132406804316E+04    0.47423E-03   -0.10734E-03 44350   0.117E-01    0.970E-02
DAV:   7    -0.132406833278E+04   -0.28962E-03   -0.48570E-04 36760   0.585E-02    0.554E-02
DAV:   8    -0.132406828596E+04    0.46824E-04   -0.45540E-05 20480   0.215E-02
  51 F= -.13240683E+04 E0= -.13240683E+04  d E =0.404068E-02  mag=   120.0000
       N       E                     dE             d eps       ncg     rms          rms(c)
DAV:   1    -0.132387381256E+04    0.19452E+00   -0.16524E+01 42680   0.131E+01    0.205E+00
DAV:   2    -0.132406123641E+04   -0.18742E+00   -0.19426E+00 36240   0.240E+00    0.105E+00
DAV:   3    -0.132406355101E+04   -0.23146E-02   -0.59628E-02 37190   0.502E-01    0.552E-01
DAV:   4    -0.132406310138E+04    0.44963E-03   -0.36439E-03 39320   0.123E-01    0.364E-01
DAV:   5    -0.132406214528E+04    0.95609E-03   -0.11295E-03 41250   0.114E-01    0.207E-01
DAV:   6    -0.132406209151E+04    0.53771E-04   -0.11726E-03 41420   0.106E-01    0.117E-01
DAV:   7    -0.132406196662E+04    0.12489E-03   -0.48023E-04 37240   0.607E-02    0.462E-02
DAV:   8    -0.132406208717E+04   -0.12055E-03   -0.41900E-05 20520   0.216E-02    0.260E-02
DAV:   9    -0.132406205905E+04    0.28124E-04   -0.12277E-05 18620   0.852E-03
  52 F= -.13240621E+04 E0= -.13240621E+04  d E =0.622691E-02  mag=   120.0000
       N       E                     dE             d eps       ncg     rms          rms(c)
DAV:   1    -0.132373929766E+04    0.32279E+00   -0.14842E+01 45770   0.159E+01    0.266E+00
DAV:   2    -0.132405363015E+04   -0.31433E+00   -0.29227E+00 36540   0.280E+00    0.135E+00
DAV:   3    -0.132405993476E+04   -0.63046E-02   -0.92180E-02 37190   0.618E-01    0.699E-01
DAV:   4    -0.132405978950E+04    0.14526E-03   -0.54747E-03 40230   0.138E-01    0.483E-01
DAV:   5    -0.132405879638E+04    0.99311E-03   -0.11005E-03 41990   0.124E-01    0.281E-01
DAV:   6    -0.132405816140E+04    0.63499E-03   -0.14099E-03 42120   0.128E-01    0.118E-01
DAV:   7    -0.132405852488E+04   -0.36348E-03   -0.68549E-04 37560   0.703E-02    0.578E-02
DAV:   8    -0.132405848397E+04    0.40906E-04   -0.58200E-05 22190   0.274E-02
  53 F= -.13240585E+04 E0= -.13240585E+04  d E =0.357507E-02  mag=   120.0000
       N       E                     dE             d eps       ncg     rms          rms(c)
DAV:   1    -0.132400755522E+04    0.50970E-01   -0.26518E+00 43660   0.685E+00    0.111E+00
DAV:   2    -0.132406468939E+04   -0.57134E-01   -0.53752E-01 37180   0.121E+00    0.546E-01
DAV:   3    -0.132406556921E+04   -0.87982E-03   -0.15426E-02 37030   0.263E-01    0.291E-01
DAV:   4    -0.132406556661E+04    0.26021E-05   -0.99845E-04 38420   0.628E-02    0.207E-01
DAV:   5    -0.132406541192E+04    0.15469E-03   -0.19779E-04 32250   0.549E-02    0.131E-01
DAV:   6    -0.132406528318E+04    0.12875E-03   -0.26690E-04 39330   0.561E-02    0.422E-02
DAV:   7    -0.132406535204E+04   -0.68863E-04   -0.11161E-04 24700   0.266E-02    0.248E-02
DAV:   8    -0.132406532259E+04    0.29454E-04   -0.17810E-05 18660   0.123E-02
  54 F= -.13240653E+04 E0= -.13240653E+04  d E =-.683861E-02  mag=   120.0000
       N       E                     dE             d eps       ncg     rms          rms(c)
DAV:   1    -0.132397518991E+04    0.90162E-01   -0.51048E+00 43790   0.851E+00    0.137E+00
DAV:   2    -0.132406147391E+04   -0.86284E-01   -0.84305E-01 35590   0.152E+00    0.651E-01
DAV:   3    -0.132406258103E+04   -0.11071E-02   -0.23540E-02 37120   0.309E-01    0.322E-01
DAV:   4    -0.132406250737E+04    0.73653E-04   -0.15326E-03 38670   0.756E-02    0.244E-01
DAV:   5    -0.132406209309E+04    0.41428E-03   -0.23621E-04 33560   0.664E-02    0.154E-01
DAV:   6    -0.132406203346E+04    0.59631E-04   -0.42528E-04 41840   0.721E-02    0.501E-02
DAV:   7    -0.132406197975E+04    0.53710E-04   -0.18212E-04 31060   0.344E-02    0.289E-02
DAV:   8    -0.132406203174E+04   -0.51992E-04   -0.17267E-05 18520   0.128E-02    0.161E-02
DAV:   9    -0.132406202157E+04    0.10176E-04   -0.37686E-06 17940   0.559E-03
  55 F= -.13240620E+04 E0= -.13240620E+04  d E =0.330102E-02  mag=   120.0000
       N       E                     dE             d eps       ncg     rms          rms(c)
DAV:   1    -0.132125944438E+04    0.28026E+01   -0.92607E+01 47160   0.455E+01    0.782E+00
DAV:   2    -0.132383981740E+04   -0.25804E+01   -0.23061E+01 37020   0.774E+00    0.447E+00
DAV:   3    -0.132390347140E+04   -0.63654E-01   -0.78662E-01 37250   0.188E+00    0.207E+00
DAV:   4    -0.132390329680E+04    0.17460E-03   -0.53176E-02 40120   0.519E-01    0.146E+00
DAV:   5    -0.132389628661E+04    0.70102E-02   -0.83328E-03 40930   0.313E-01    0.987E-01
DAV:   6    -0.132389141009E+04    0.48765E-02   -0.81468E-03 44710   0.376E-01    0.422E-01
DAV:   7    -0.132389184159E+04   -0.43150E-03   -0.57786E-03 39050   0.212E-01    0.216E-01
DAV:   8    -0.132389265893E+04   -0.81734E-03   -0.85939E-04 37460   0.942E-02    0.934E-02
DAV:   9    -0.132389246302E+04    0.19591E-03   -0.14769E-04 31260   0.293E-02    0.589E-02
DAV:  10    -0.132389232959E+04    0.13343E-03   -0.31677E-05 19910   0.207E-02    0.314E-02
DAV:  11    -0.132389251071E+04   -0.18112E-03   -0.25734E-05 19900   0.167E-02    0.150E-02
DAV:  12    -0.132389243930E+04    0.71412E-04   -0.65201E-06 18520   0.737E-03    0.687E-03
DAV:  13    -0.132389243038E+04    0.89213E-05   -0.16733E-06 18130   0.278E-03
  56 F= -.13238924E+04 E0= -.13238924E+04  d E =0.169591E+00  mag=   120.0000
       N       E                     dE             d eps       ncg     rms          rms(c)
DAV:   1    -0.132259583563E+04    0.12966E+01   -0.36000E+01 49860   0.335E+01    0.583E+00
DAV:   2    -0.132399982742E+04   -0.14040E+01   -0.12145E+01 37890   0.553E+00    0.332E+00
DAV:   3    -0.132405098088E+04   -0.51153E-01   -0.45772E-01 37300   0.145E+00    0.156E+00
DAV:   4    -0.132405103226E+04   -0.51383E-04   -0.30356E-02 39840   0.404E-01    0.101E+00
DAV:   5    -0.132404880251E+04    0.22297E-02   -0.64074E-03 40270   0.244E-01    0.678E-01
DAV:   6    -0.132404640899E+04    0.23935E-02   -0.40674E-03 43550   0.262E-01    0.338E-01
DAV:   7    -0.132404735037E+04   -0.94138E-03   -0.25789E-03 39460   0.155E-01    0.161E-01
DAV:   8    -0.132404732336E+04    0.27013E-04   -0.53612E-04 36440   0.714E-02    0.697E-02
DAV:   9    -0.132404733991E+04   -0.16549E-04   -0.12086E-04 29190   0.249E-02
  57 F= -.13240473E+04 E0= -.13240473E+04  d E =-.154910E+00  mag=   120.0000
       N       E                     dE             d eps       ncg     rms          rms(c)
DAV:   1    -0.132403161943E+04    0.15704E-01   -0.74646E-01 50000   0.475E+00    0.759E-01
DAV:   2    -0.132405800037E+04   -0.26381E-01   -0.23227E-01 37590   0.765E-01    0.375E-01
DAV:   3    -0.132405870830E+04   -0.70793E-03   -0.85236E-03 36910   0.197E-01    0.203E-01
DAV:   4    -0.132405874897E+04   -0.40669E-04   -0.53531E-04 37530   0.506E-02    0.129E-01
DAV:   5    -0.132405858234E+04    0.16663E-03   -0.12954E-04 27730   0.387E-02    0.860E-02
DAV:   6    -0.132405856957E+04    0.12768E-04   -0.10793E-04 25930   0.399E-02
  58 F= -.13240586E+04 E0= -.13240586E+04  d E =-.112297E-01  mag=   120.0000
       N       E                     dE             d eps       ncg     rms          rms(c)
DAV:   1    -0.132396175542E+04    0.96827E-01   -0.26192E+00 48560   0.874E+00    0.149E+00
DAV:   2    -0.132406370224E+04   -0.10195E+00   -0.90420E-01 37590   0.146E+00    0.720E-01
DAV:   3    -0.132406585860E+04   -0.21564E-02   -0.26963E-02 37330   0.329E-01    0.361E-01
DAV:   4    -0.132406591705E+04   -0.58446E-04   -0.16327E-03 38720   0.727E-02    0.272E-01
DAV:   5    -0.132406551203E+04    0.40501E-03   -0.24988E-04 33510   0.692E-02    0.174E-01
DAV:   6    -0.132406542936E+04    0.82669E-04   -0.38656E-04 41360   0.781E-02    0.716E-02
DAV:   7    -0.132406536400E+04    0.65367E-04   -0.19551E-04 32100   0.394E-02    0.316E-02
DAV:   8    -0.132406544192E+04   -0.77927E-04   -0.24739E-05 19400   0.158E-02    0.156E-02
DAV:   9    -0.132406542852E+04    0.13405E-04   -0.63788E-06 18230   0.604E-03
  59 F= -.13240654E+04 E0= -.13240654E+04  d E =-.685895E-02  mag=   120.0000
       N       E                     dE             d eps       ncg     rms          rms(c)
DAV:   1    -0.132405808791E+04    0.73540E-02   -0.32004E-01 46220   0.257E+00    0.421E-01
DAV:   2    -0.132406653279E+04   -0.84449E-02   -0.78632E-02 36690   0.439E-01    0.205E-01
DAV:   3    -0.132406671401E+04   -0.18122E-03   -0.23017E-03 37090   0.929E-02    0.102E-01
DAV:   4    -0.132406672181E+04   -0.78013E-05   -0.13283E-04 25340   0.202E-02
  60 F= -.13240667E+04 E0= -.13240667E+04  d E =-.129329E-02  mag=   120.0000
       N       E                     dE             d eps       ncg     rms          rms(c)
DAV:   1    -0.132388664342E+04    0.18007E+00   -0.64504E+00 46640   0.117E+01    0.192E+00
DAV:   2    -0.132406504200E+04   -0.17840E+00   -0.16385E+00 36300   0.197E+00    0.957E-01
DAV:   3    -0.132406814101E+04   -0.30990E-02   -0.49516E-02 37020   0.418E-01    0.460E-01
DAV:   4    -0.132406815429E+04   -0.13276E-04   -0.29234E-03 40480   0.905E-02    0.358E-01
DAV:   5    -0.132406738129E+04    0.77300E-03   -0.47620E-04 42020   0.100E-01    0.194E-01
DAV:   6    -0.132406737557E+04    0.57233E-05   -0.61179E-04 43120   0.788E-02    0.596E-02
DAV:   7    -0.132406740463E+04   -0.29068E-04   -0.21412E-04 32790   0.372E-02
  61 F= -.13240674E+04 E0= -.13240674E+04  d E =-.682826E-03  mag=   120.0000
       N       E                     dE             d eps       ncg     rms          rms(c)
DAV:   1    -0.132404321112E+04    0.24164E-01   -0.12437E+00 46320   0.464E+00    0.746E-01
DAV:   2    -0.132406804323E+04   -0.24832E-01   -0.23746E-01 36240   0.796E-01    0.358E-01
DAV:   3    -0.132406859703E+04   -0.55380E-03   -0.72795E-03 36870   0.172E-01    0.177E-01
DAV:   4    -0.132406855566E+04    0.41370E-04   -0.47018E-04 34440   0.444E-02
  62 F= -.13240686E+04 E0= -.13240686E+04  d E =-.115102E-02  mag=   120.0000
       N       E                     dE             d eps       ncg     rms          rms(c)
DAV:   1    -0.132396502555E+04    0.10357E+00   -0.48167E+00 46610   0.921E+00    0.147E+00
DAV:   2    -0.132406606338E+04   -0.10104E+00   -0.94866E-01 35870   0.156E+00    0.726E-01
DAV:   3    -0.132406796504E+04   -0.19017E-02   -0.29237E-02 36740   0.336E-01    0.360E-01
DAV:   4    -0.132406772863E+04    0.23642E-03   -0.19218E-03 39890   0.828E-02    0.277E-01
DAV:   5    -0.132406749627E+04    0.23236E-03   -0.36141E-04 36070   0.871E-02    0.170E-01
DAV:   6    -0.132406726917E+04    0.22711E-03   -0.62452E-04 43120   0.889E-02    0.734E-02
DAV:   7    -0.132406744504E+04   -0.17587E-03   -0.22950E-04 34350   0.434E-02    0.285E-02
DAV:   8    -0.132406740359E+04    0.41447E-04   -0.15842E-05 18820   0.121E-02
  63 F= -.13240674E+04 E0= -.13240674E+04  d E =0.115207E-02  mag=   120.0000
       N       E                     dE             d eps       ncg     rms          rms(c)
DAV:   1    -0.132244329549E+04    0.16241E+01   -0.97786E+01 45330   0.361E+01    0.612E+00
DAV:   2    -0.132403068035E+04   -0.15874E+01   -0.15027E+01 35780   0.634E+00    0.326E+00
DAV:   3    -0.132405320121E+04   -0.22521E-01   -0.40803E-01 36930   0.125E+00    0.139E+00
DAV:   4    -0.132405089284E+04    0.23084E-02   -0.26570E-02 41190   0.312E-01    0.103E+00
DAV:   5    -0.132404572521E+04    0.51676E-02   -0.48647E-03 43350   0.269E-01    0.619E-01
DAV:   6    -0.132404460375E+04    0.11215E-02   -0.65185E-03 42550   0.278E-01    0.309E-01
DAV:   7    -0.132404456311E+04    0.40642E-04   -0.32016E-03 38000   0.161E-01    0.128E-01
DAV:   8    -0.132404514604E+04   -0.58293E-03   -0.28267E-04 34170   0.485E-02    0.569E-02
DAV:   9    -0.132404503020E+04    0.11585E-03   -0.38953E-05 20980   0.188E-02    0.326E-02
DAV:  10    -0.132404497497E+04    0.55228E-04   -0.32380E-05 20070   0.192E-02    0.180E-02
DAV:  11    -0.132404507040E+04   -0.95431E-04   -0.78154E-06 18180   0.833E-03    0.753E-03
DAV:  12    -0.132404504966E+04    0.20745E-04   -0.18414E-06 18060   0.297E-03
  64 F= -.13240450E+04 E0= -.13240450E+04  d E =0.223539E-01  mag=   120.0000
       N       E                     dE             d eps       ncg     rms          rms(c)
DAV:   1    -0.132141351655E+04    0.26316E+01   -0.15971E+02 44690   0.447E+01    0.777E+00
DAV:   2    -0.132394752915E+04   -0.25340E+01   -0.23926E+01 35880   0.797E+00    0.450E+00
DAV:   3    -0.132398996952E+04   -0.42440E-01   -0.70830E-01 37040   0.163E+00    0.188E+00
DAV:   4    -0.132398570939E+04    0.42601E-02   -0.45875E-02 41170   0.413E-01    0.138E+00
DAV:   5    -0.132397799212E+04    0.77173E-02   -0.77022E-03 42200   0.305E-01    0.873E-01
DAV:   6    -0.132397543706E+04    0.25551E-02   -0.10209E-02 42650   0.370E-01    0.433E-01
DAV:   7    -0.132397525275E+04    0.18431E-03   -0.62741E-03 38190   0.220E-01    0.171E-01
DAV:   8    -0.132397611273E+04   -0.85997E-03   -0.60348E-04 35580   0.723E-02    0.756E-02
DAV:   9    -0.132397601817E+04    0.94553E-04   -0.88252E-05 26010   0.239E-02    0.473E-02
DAV:  10    -0.132397593102E+04    0.87154E-04   -0.44644E-05 20160   0.238E-02    0.258E-02
DAV:  11    -0.132397604770E+04   -0.11668E-03   -0.13263E-05 18480   0.104E-02    0.108E-02
DAV:  12    -0.132397603426E+04    0.13439E-04   -0.38187E-06 18080   0.489E-03
  65 F= -.13239760E+04 E0= -.13239760E+04  d E =0.690154E-01  mag=   120.0000
       N       E                     dE             d eps       ncg     rms          rms(c)
DAV:   1    -0.131992052001E+04    0.40555E+01   -0.12158E+02 48330   0.524E+01    0.104E+01
DAV:   2    -0.132368696085E+04   -0.37664E+01   -0.33264E+01 37910   0.914E+00    0.620E+00
DAV:   3    -0.132379800856E+04   -0.11105E+00   -0.11644E+00 37410   0.226E+00    0.278E+00
DAV:   4    -0.132379685840E+04    0.11502E-02   -0.75248E-02 40610   0.545E-01    0.200E+00
DAV:   5    -0.132378757492E+04    0.92835E-02   -0.12642E-02 40110   0.291E-01    0.138E+00
DAV:   6    -0.132378009983E+04    0.74751E-02   -0.87209E-03 43450   0.378E-01    0.496E-01
DAV:   7    -0.132378279326E+04   -0.26934E-02   -0.74830E-03 39520   0.185E-01    0.195E-01
DAV:   8    -0.132378280302E+04   -0.97585E-05   -0.10593E-03 37520   0.880E-02    0.117E-01
DAV:   9    -0.132378269487E+04    0.10816E-03   -0.22303E-04 33830   0.379E-02    0.648E-02
DAV:  10    -0.132378267093E+04    0.23933E-04   -0.43192E-05 22240   0.243E-02
  66 F= -.13237827E+04 E0= -.13237827E+04  d E =0.193363E+00  mag=   120.0000
       N       E                     dE             d eps       ncg     rms          rms(c)
DAV:   1    -0.132318990176E+04    0.59279E+00   -0.24400E+01 49460   0.251E+01    0.444E+00
DAV:   2    -0.132397523707E+04   -0.78534E+00   -0.67909E+00 38000   0.418E+00    0.243E+00
DAV:   3    -0.132400450078E+04   -0.29264E-01   -0.28012E-01 37750   0.106E+00    0.115E+00
DAV:   4    -0.132400527485E+04   -0.77407E-03   -0.16241E-02 40700   0.252E-01    0.714E-01
DAV:   5    -0.132400300685E+04    0.22680E-02   -0.45070E-03 40120   0.179E-01    0.438E-01
DAV:   6    -0.132400214919E+04    0.85766E-03   -0.23290E-03 43060   0.182E-01    0.209E-01
DAV:   7    -0.132400227653E+04   -0.12735E-03   -0.16238E-03 39000   0.117E-01    0.116E-01
DAV:   8    -0.132400259458E+04   -0.31805E-03   -0.26969E-04 34370   0.544E-02    0.446E-02
DAV:   9    -0.132400242618E+04    0.16840E-03   -0.55311E-05 20900   0.183E-02    0.340E-02
DAV:  10    -0.132400242269E+04    0.34843E-05   -0.12368E-05 18940   0.969E-03
  67 F= -.13240024E+04 E0= -.13240024E+04  d E =-.219752E+00  mag=   120.0000
       N       E                     dE             d eps       ncg     rms          rms(c)
DAV:   1    -0.132386184735E+04    0.14058E+00   -0.49773E+00 48350   0.110E+01    0.196E+00
DAV:   2    -0.132401900525E+04   -0.15716E+00   -0.13755E+00 38360   0.186E+00    0.942E-01
DAV:   3    -0.132402431569E+04   -0.53104E-02   -0.50004E-02 37660   0.448E-01    0.483E-01
DAV:   4    -0.132402446797E+04   -0.15229E-03   -0.28178E-03 39450   0.100E-01    0.317E-01
DAV:   5    -0.132402398211E+04    0.48587E-03   -0.84234E-04 40450   0.830E-02    0.194E-01
DAV:   6    -0.132402391819E+04    0.63916E-04   -0.53816E-04 42510   0.854E-02    0.922E-02
DAV:   7    -0.132402385137E+04    0.66819E-04   -0.31115E-04 38140   0.518E-02    0.468E-02
DAV:   8    -0.132402396445E+04   -0.11308E-03   -0.40291E-05 20570   0.225E-02    0.184E-02
DAV:   9    -0.132402392669E+04    0.37758E-04   -0.12543E-05 18740   0.874E-03
  68 F= -.13240239E+04 E0= -.13240239E+04  d E =-.215040E-01  mag=   120.0000
       N       E                     dE             d eps       ncg     rms          rms(c)
DAV:   1    -0.132401722677E+04    0.67377E-02   -0.34817E-01 46460   0.266E+00    0.433E-01
DAV:   2    -0.132402586960E+04   -0.86428E-02   -0.78993E-02 36680   0.462E-01    0.211E-01
DAV:   3    -0.132402605929E+04   -0.18969E-03   -0.24504E-03 37280   0.101E-01    0.108E-01
DAV:   4    -0.132402603853E+04    0.20763E-04   -0.14850E-04 25110   0.252E-02
  69 F= -.13240260E+04 E0= -.13240260E+04  d E =-.211184E-02  mag=   120.0000
       N       E                     dE             d eps       ncg     rms          rms(c)
DAV:   1    -0.132389657689E+04    0.12948E+00   -0.54983E+00 46000   0.103E+01    0.160E+00
DAV:   2    -0.132402483306E+04   -0.12826E+00   -0.11768E+00 36380   0.176E+00    0.815E-01
DAV:   3    -0.132402674710E+04   -0.19140E-02   -0.35949E-02 37160   0.374E-01    0.415E-01
DAV:   4    -0.132402663673E+04    0.11036E-03   -0.22362E-03 39700   0.994E-02    0.310E-01
DAV:   5    -0.132402598679E+04    0.64994E-03   -0.54860E-04 40930   0.979E-02    0.193E-01
DAV:   6    -0.132402598223E+04    0.45685E-05   -0.68474E-04 41820   0.990E-02    0.857E-02
DAV:   7    -0.132402581007E+04    0.17215E-03   -0.28208E-04 36280   0.471E-02    0.306E-02
DAV:   8    -0.132402585973E+04   -0.49657E-04   -0.22966E-05 19440   0.143E-02
  70 F= -.13240259E+04 E0= -.13240259E+04  d E =0.178800E-03  mag=   120.0000
       N       E                     dE             d eps       ncg     rms          rms(c)
DAV:   1    -0.132395257119E+04    0.73239E-01   -0.38730E+00 44210   0.767E+00    0.122E+00
DAV:   2    -0.132402386079E+04   -0.71290E-01   -0.68114E-01 36030   0.134E+00    0.593E-01
DAV:   3    -0.132402495168E+04   -0.10909E-02   -0.19926E-02 37150   0.267E-01    0.284E-01
DAV:   4    -0.132402487335E+04    0.78337E-04   -0.12144E-03 38690   0.603E-02    0.214E-01
[...]
DAV:   3    -0.132406403775E+04   -0.81726E-02   -0.11774E-01 37090   0.638E-01    0.672E-01
DAV:   4    -0.132406396758E+04    0.70171E-04   -0.71286E-03 40450   0.139E-01    0.506E-01
DAV:   5    -0.132406258536E+04    0.13822E-02   -0.10984E-03 44700   0.136E-01    0.287E-01
DAV:   6    -0.132406198699E+04    0.59838E-03   -0.12089E-03 44210   0.118E-01    0.102E-01
DAV:   7    -0.132406236558E+04   -0.37859E-03   -0.52846E-04 37400   0.615E-02    0.604E-02
DAV:   8    -0.132406229130E+04    0.74274E-04   -0.48256E-05 20890   0.225E-02    0.260E-02
DAV:   9    -0.132406226021E+04    0.31090E-04   -0.11056E-05 18710   0.104E-02
 155 F= -.13240623E+04 E0= -.13240623E+04  d E =0.105002E-03  mag=   120.0000
       N       E                     dE             d eps       ncg     rms          rms(c)
DAV:   1    -0.132370081329E+04    0.36148E+00   -0.20680E+01 43600   0.171E+01    0.277E+00
DAV:   2    -0.132405551046E+04   -0.35470E+00   -0.34261E+00 36890   0.308E+00    0.140E+00
DAV:   3    -0.132406052232E+04   -0.50119E-02   -0.10032E-01 37100   0.658E-01    0.740E-01
DAV:   4    -0.132405980121E+04    0.72111E-03   -0.67104E-03 39640   0.173E-01    0.526E-01
DAV:   5    -0.132405864792E+04    0.11533E-02   -0.14307E-03 41920   0.147E-01    0.338E-01
DAV:   6    -0.132405766669E+04    0.98123E-03   -0.20186E-03 43890   0.165E-01    0.158E-01
DAV:   7    -0.132405807864E+04   -0.41195E-03   -0.91517E-04 38710   0.824E-02    0.586E-02
DAV:   8    -0.132405805472E+04    0.23921E-04   -0.80093E-05 24800   0.260E-02
 156 F= -.13240581E+04 E0= -.13240581E+04  d E =0.420550E-02  mag=   120.0000
       N       E                     dE             d eps       ncg     rms          rms(c)
DAV:   1    -0.132365563641E+04    0.40244E+00   -0.30664E+01 42360   0.187E+01    0.287E+00
DAV:   2    -0.132405524768E+04   -0.39961E+00   -0.41021E+00 36310   0.340E+00    0.144E+00
DAV:   3    -0.132405833511E+04   -0.30874E-02   -0.11152E-01 36730   0.688E-01    0.740E-01
DAV:   4    -0.132405703774E+04    0.12974E-02   -0.72316E-03 39760   0.186E-01    0.544E-01
DAV:   5    -0.132405575759E+04    0.12801E-02   -0.21317E-03 41970   0.176E-01    0.346E-01
DAV:   6    -0.132405482273E+04    0.93486E-03   -0.25278E-03 42220   0.174E-01    0.156E-01
DAV:   7    -0.132405525763E+04   -0.43490E-03   -0.97644E-04 38550   0.835E-02    0.615E-02
DAV:   8    -0.132405526793E+04   -0.10292E-04   -0.91434E-05 26600   0.251E-02
 157 F= -.13240553E+04 E0= -.13240553E+04  d E =0.278679E-02  mag=   120.0000
       N       E                     dE             d eps       ncg     rms          rms(c)
DAV:   1    -0.131818250068E+04    0.58728E+01   -0.21390E+02 48500   0.668E+01    0.113E+01
DAV:   2    -0.132352931973E+04   -0.53468E+01   -0.47656E+01 37210   0.117E+01    0.755E+00
DAV:   3    -0.132367386135E+04   -0.14454E+00   -0.19355E+00 36740   0.351E+00    0.378E+00
DAV:   4    -0.132366078270E+04    0.13079E-01   -0.15713E-01 39790   0.123E+00    0.221E+00
DAV:   5    -0.132364610724E+04    0.14675E-01   -0.29315E-02 41010   0.520E-01    0.158E+00
DAV:   6    -0.132363424536E+04    0.11862E-01   -0.21654E-02 42400   0.558E-01    0.687E-01
DAV:   7    -0.132363481683E+04   -0.57147E-03   -0.12391E-02 40030   0.263E-01    0.255E-01
DAV:   8    -0.132363591440E+04   -0.10976E-02   -0.19341E-03 37240   0.109E-01    0.157E-01
DAV:   9    -0.132363578697E+04    0.12743E-03   -0.25127E-04 34620   0.389E-02    0.874E-02
DAV:  10    -0.132363547272E+04    0.31425E-03   -0.78612E-05 24550   0.299E-02    0.471E-02
DAV:  11    -0.132363575817E+04   -0.28544E-03   -0.37011E-05 21250   0.179E-02    0.180E-02
DAV:  12    -0.132363570640E+04    0.51767E-04   -0.13351E-05 18790   0.884E-03    0.115E-02
DAV:  13    -0.132363568027E+04    0.26131E-04   -0.35845E-06 18680   0.397E-03
 158 F= -.13236357E+04 E0= -.13236357E+04  d E =0.419588E+00  mag=   120.0000
       N       E                     dE             d eps       ncg     rms          rms(c)
DAV:   1    -0.132235671013E+04    0.12790E+01   -0.46077E+01 49920   0.358E+01    0.624E+00
DAV:   2    -0.132395274486E+04   -0.15960E+01   -0.13884E+01 37720   0.597E+00    0.339E+00
DAV:   3    -0.132401211928E+04   -0.59374E-01   -0.55233E-01 37130   0.153E+00    0.161E+00
DAV:   4    -0.132401316471E+04   -0.10454E-02   -0.33223E-02 41670   0.361E-01    0.104E+00
DAV:   5    -0.132400865519E+04    0.45095E-02   -0.80181E-03 40660   0.267E-01    0.652E-01
DAV:   6    -0.132400683872E+04    0.18165E-02   -0.49946E-03 41580   0.273E-01    0.349E-01
DAV:   7    -0.132400714865E+04   -0.30993E-03   -0.31812E-03 39300   0.175E-01    0.162E-01
DAV:   8    -0.132400777627E+04   -0.62763E-03   -0.65873E-04 37080   0.815E-02    0.727E-02
DAV:   9    -0.132400750265E+04    0.27362E-03   -0.15600E-04 32660   0.299E-02    0.583E-02
DAV:  10    -0.132400747563E+04    0.27022E-04   -0.20623E-05 19240   0.151E-02
 159 F= -.13240075E+04 E0= -.13240075E+04  d E =-.371795E+00  mag=   120.0000
       N       E                     dE             d eps       ncg     rms          rms(c)
DAV:   1    -0.132375141714E+04    0.25609E+00   -0.91016E+00 49310   0.155E+01    0.263E+00
DAV:   2    -0.132405312860E+04   -0.30171E+00   -0.26455E+00 37660   0.259E+00    0.129E+00
DAV:   3    -0.132406116626E+04   -0.80377E-02   -0.87690E-02 36320   0.623E-01    0.645E-01
DAV:   4    -0.132406110607E+04    0.60192E-04   -0.50051E-03 39770   0.142E-01    0.450E-01
DAV:   5    -0.132406049644E+04    0.60963E-03   -0.13942E-03 40930   0.127E-01    0.288E-01
DAV:   6    -0.132405994282E+04    0.55362E-03   -0.11944E-03 43180   0.131E-01    0.143E-01
DAV:   7    -0.132406031694E+04   -0.37412E-03   -0.58714E-04 38780   0.746E-02    0.576E-02
DAV:   8    -0.132406028348E+04    0.33461E-04   -0.83642E-05 24860   0.296E-02
 160 F= -.13240603E+04 E0= -.13240603E+04  d E =-.528078E-01  mag=   120.0000
       N       E                     dE             d eps       ncg     rms          rms(c)
DAV:   1    -0.132402677590E+04    0.33541E-01   -0.14912E+00 48670   0.597E+00    0.992E-01
DAV:   2    -0.132407219468E+04   -0.45419E-01   -0.40447E-01 37360   0.101E+00    0.479E-01
DAV:   3    -0.132407287214E+04   -0.67746E-03   -0.12333E-02 35770   0.232E-01    0.249E-01
DAV:   4    -0.132407281700E+04    0.55142E-04   -0.70942E-04 38780   0.534E-02    0.180E-01
DAV:   5    -0.132407274690E+04    0.70097E-04   -0.18783E-04 29990   0.542E-02    0.114E-01
DAV:   6    -0.132407262836E+04    0.11854E-03   -0.22600E-04 34910   0.545E-02    0.539E-02
DAV:   7    -0.132407273330E+04   -0.10494E-03   -0.89062E-05 21590   0.291E-02    0.218E-02
DAV:   8    -0.132407270108E+04    0.32220E-04   -0.19101E-05 18700   0.120E-02
 161 F= -.13240727E+04 E0= -.13240727E+04  d E =-.124176E-01  mag=   120.0000
       N       E                     dE             d eps       ncg     rms          rms(c)
DAV:   1    -0.132383930994E+04    0.23342E+00   -0.94763E+00 47800   0.139E+01    0.222E+00
DAV:   2    -0.132407559757E+04   -0.23629E+00   -0.21572E+00 36580   0.237E+00    0.111E+00
DAV:   3    -0.132407950210E+04   -0.39045E-02   -0.67160E-02 36380   0.540E-01    0.569E-01
DAV:   4    -0.132407923212E+04    0.26998E-03   -0.42305E-03 40040   0.135E-01    0.413E-01
DAV:   5    -0.132407863445E+04    0.59767E-03   -0.79916E-04 42670   0.115E-01    0.268E-01
DAV:   6    -0.132407809884E+04    0.53561E-03   -0.10977E-03 43850   0.129E-01    0.119E-01
DAV:   7    -0.132407838486E+04   -0.28602E-03   -0.50937E-04 38300   0.636E-02    0.474E-02
DAV:   8    -0.132407831968E+04    0.65176E-04   -0.51959E-05 21500   0.210E-02    0.257E-02
DAV:   9    -0.132407832295E+04   -0.32683E-05   -0.10613E-05 18570   0.820E-03
 162 F= -.13240783E+04 E0= -.13240783E+04  d E =-.562187E-02  mag=   120.0000
       N       E                     dE             d eps       ncg     rms          rms(c)
DAV:   1    -0.132405486927E+04    0.23450E-01   -0.12030E+00 45470   0.466E+00    0.767E-01
DAV:   2    -0.132408183380E+04   -0.26965E-01   -0.25157E-01 36280   0.810E-01    0.362E-01
DAV:   3    -0.132408227239E+04   -0.43859E-03   -0.76751E-03 37070   0.171E-01    0.176E-01
DAV:   4    -0.132408233808E+04   -0.65690E-04   -0.47568E-04 32010   0.417E-02    0.133E-01
DAV:   5    -0.132408216214E+04    0.17594E-03   -0.89183E-05 22400   0.398E-02    0.878E-02
DAV:   6    -0.132408218565E+04   -0.23518E-04   -0.15333E-04 29380   0.448E-02
 163 F= -.13240822E+04 E0= -.13240822E+04  d E =-.386270E-02  mag=   120.0000
       N       E                     dE             d eps       ncg     rms          rms(c)
DAV:   1    -0.132270815710E+04    0.13740E+01   -0.53408E+01 45240   0.314E+01    0.571E+00
DAV:   2    -0.132405974464E+04   -0.13516E+01   -0.12462E+01 36280   0.551E+00    0.295E+00
DAV:   3    -0.132408334332E+04   -0.23599E-01   -0.35520E-01 37000   0.120E+00    0.137E+00
DAV:   4    -0.132408325826E+04    0.85060E-04   -0.24851E-02 39760   0.324E-01    0.105E+00
DAV:   5    -0.132407915150E+04    0.41068E-02   -0.28092E-03 41920   0.213E-01    0.736E-01
DAV:   6    -0.132407661355E+04    0.25379E-02   -0.47033E-03 44050   0.299E-01    0.321E-01
DAV:   7    -0.132407661025E+04    0.33002E-05   -0.32791E-03 38590   0.152E-01    0.127E-01
DAV:   8    -0.132407711589E+04   -0.50564E-03   -0.34579E-04 35240   0.560E-02    0.639E-02
DAV:   9    -0.132407707437E+04    0.41525E-04   -0.45198E-05 21540   0.172E-02
 164 F= -.13240771E+04 E0= -.13240771E+04  d E =0.511128E-02  mag=   120.0000
       N       E                     dE             d eps       ncg     rms          rms(c)
DAV:   1    -0.132340696039E+04    0.67016E+00   -0.33741E+01 45030   0.231E+01    0.381E+00
DAV:   2    -0.132405149086E+04   -0.64453E+00   -0.60930E+00 36500   0.406E+00    0.194E+00
DAV:   3    -0.132406211761E+04   -0.10627E-01   -0.18341E-01 36690   0.894E-01    0.972E-01
DAV:   4    -0.132406189454E+04    0.22307E-03   -0.12324E-02 39780   0.243E-01    0.685E-01
DAV:   5    -0.132405957080E+04    0.23237E-02   -0.26835E-03 41380   0.193E-01    0.462E-01
DAV:   6    -0.132405873093E+04    0.83987E-03   -0.35115E-03 43730   0.223E-01    0.218E-01
DAV:   7    -0.132405856150E+04    0.16943E-03   -0.16487E-03 38630   0.111E-01    0.794E-02
DAV:   8    -0.132405895046E+04   -0.38896E-03   -0.17849E-04 32070   0.369E-02    0.460E-02
DAV:   9    -0.132405889838E+04    0.52079E-04   -0.24697E-05 19270   0.131E-02    0.277E-02
DAV:  10    -0.132405883517E+04    0.63216E-04   -0.98893E-06 18530   0.115E-02    0.139E-02
DAV:  11    -0.132405889787E+04   -0.62704E-04   -0.50013E-06 18210   0.560E-03    0.618E-03
DAV:  12    -0.132405888651E+04    0.11359E-04   -0.12859E-06 18000   0.320E-03
 165 F= -.13240589E+04 E0= -.13240589E+04  d E =0.181879E-01  mag=   120.0000
       N       E                     dE             d eps       ncg     rms          rms(c)
DAV:   1    -0.132375437146E+04    0.30453E+00   -0.16937E+01 45270   0.164E+01    0.260E+00
DAV:   2    -0.132406601114E+04   -0.31164E+00   -0.29680E+00 37310   0.292E+00    0.135E+00
DAV:   3    -0.132407085734E+04   -0.48462E-02   -0.10087E-01 37090   0.686E-01    0.757E-01
DAV:   4    -0.132407003271E+04    0.82463E-03   -0.64270E-03 40370   0.188E-01    0.497E-01
DAV:   5    -0.132406902301E+04    0.10097E-02   -0.16691E-03 42130   0.150E-01    0.331E-01
DAV:   6    -0.132406805772E+04    0.96529E-03   -0.22514E-03 41680   0.170E-01    0.177E-01
DAV:   7    -0.132406837435E+04   -0.31663E-03   -0.10896E-03 39290   0.888E-02    0.608E-02
DAV:   8    -0.132406831881E+04    0.55538E-04   -0.15140E-04 31220   0.356E-02    0.359E-02
DAV:   9    -0.132406830147E+04    0.17342E-04   -0.27982E-05 19030   0.122E-02
 166 F= -.13240683E+04 E0= -.13240683E+04  d E =-.941496E-02  mag=   120.0000
       N       E                     dE             d eps       ncg     rms          rms(c)
DAV:   1    -0.132347483303E+04    0.59349E+00   -0.29533E+01 44810   0.216E+01    0.364E+00
DAV:   2    -0.132405200875E+04   -0.57718E+00   -0.54623E+00 37480   0.388E+00    0.187E+00
DAV:   3    -0.132406352115E+04   -0.11512E-01   -0.17246E-01 36790   0.884E-01    0.991E-01
DAV:   4    -0.132406248589E+04    0.10353E-02   -0.10691E-02 39840   0.216E-01    0.685E-01
DAV:   5    -0.132406026791E+04    0.22180E-02   -0.26944E-03 41360   0.171E-01    0.453E-01
DAV:   6    -0.132405885451E+04    0.14134E-02   -0.30544E-03 43300   0.200E-01    0.211E-01
DAV:   7    -0.132405934797E+04   -0.49347E-03   -0.16635E-03 38890   0.109E-01    0.899E-02
DAV:   8    -0.132405926839E+04    0.79582E-04   -0.22031E-04 33370   0.466E-02    0.473E-02
DAV:   9    -0.132405928093E+04   -0.12535E-04   -0.41894E-05 20210   0.171E-02
 167 F= -.13240593E+04 E0= -.13240593E+04  d E =0.902054E-02  mag=   120.0000
       N       E                     dE             d eps       ncg     rms          rms(c)
DAV:   1    -0.132387915484E+04    0.18011E+00   -0.80419E+00 46120   0.126E+01    0.214E+00
DAV:   2    -0.132407738854E+04   -0.19823E+00   -0.18271E+00 37570   0.220E+00    0.104E+00
DAV:   3    -0.132408189563E+04   -0.45071E-02   -0.59139E-02 37140   0.511E-01    0.553E-01
DAV:   4    -0.132408179188E+04    0.10375E-03   -0.37853E-03 39380   0.132E-01    0.379E-01
DAV:   5    -0.132408094892E+04    0.84296E-03   -0.81567E-04 41620   0.104E-01    0.257E-01
DAV:   6    -0.132408080652E+04    0.14240E-03   -0.99098E-04 42570   0.123E-01    0.124E-01
DAV:   7    -0.132408059684E+04    0.20969E-03   -0.51044E-04 39090   0.623E-02    0.423E-02
DAV:   8    -0.132408068922E+04   -0.92385E-04   -0.52419E-05 21360   0.233E-02    0.234E-02
DAV:   9    -0.132408068602E+04    0.32003E-05   -0.13879E-05 18720   0.892E-03
 168 F= -.13240807E+04 E0= -.13240807E+04  d E =-.214051E-01  mag=   120.0000
       N       E                     dE             d eps       ncg     rms          rms(c)
DAV:   1    -0.132377214028E+04    0.30855E+00   -0.11249E+01 46420   0.153E+01    0.255E+00
DAV:   2    -0.132407132476E+04   -0.29918E+00   -0.27371E+00 37300   0.264E+00    0.129E+00
DAV:   3    -0.132407785222E+04   -0.65275E-02   -0.88524E-02 37220   0.614E-01    0.678E-01
DAV:   4    -0.132407773229E+04    0.11993E-03   -0.56817E-03 39910   0.160E-01    0.483E-01
DAV:   5    -0.132407646486E+04    0.12674E-02   -0.11493E-03 42170   0.128E-01    0.323E-01
DAV:   6    -0.132407608231E+04    0.38255E-03   -0.14755E-03 43700   0.152E-01    0.145E-01
DAV:   7    -0.132407584428E+04    0.23803E-03   -0.74697E-04 38840   0.767E-02    0.563E-02
DAV:   8    -0.132407600347E+04   -0.15919E-03   -0.75487E-05 23780   0.271E-02    0.300E-02
DAV:   9    -0.132407597996E+04    0.23511E-04   -0.16092E-05 18790   0.959E-03
 169 F= -.13240760E+04 E0= -.13240760E+04  d E =0.470606E-02  mag=   120.0000
       N       E                     dE             d eps       ncg     rms          rms(c)
DAV:   1    -0.131865882852E+04    0.54172E+01   -0.12370E+02 50160   0.610E+01    0.117E+01
DAV:   2    -0.132353626606E+04   -0.48774E+01   -0.42090E+01 38010   0.102E+01    0.731E+00
DAV:   3    -0.132369567945E+04   -0.15941E+00   -0.15030E+00 37280   0.264E+00    0.309E+00
DAV:   4    -0.132369978125E+04   -0.41018E-02   -0.10091E-01 40330   0.682E-01    0.213E+00
DAV:   5    -0.132369266417E+04    0.71171E-02   -0.16993E-02 39520   0.368E-01    0.149E+00
DAV:   6    -0.132368529941E+04    0.73648E-02   -0.98341E-03 44000   0.442E-01    0.740E-01
DAV:   7    -0.132368726100E+04   -0.19616E-02   -0.88453E-03 39890   0.300E-01    0.312E-01
DAV:   8    -0.132368776172E+04   -0.50071E-03   -0.20241E-03 37350   0.144E-01    0.130E-01
DAV:   9    -0.132368791037E+04   -0.14865E-03   -0.49821E-04 36110   0.523E-02    0.780E-02
DAV:  10    -0.132368768850E+04    0.22187E-03   -0.69474E-05 23460   0.259E-02    0.439E-02
DAV:  11    -0.132368786768E+04   -0.17918E-03   -0.30095E-05 19230   0.173E-02    0.177E-02
DAV:  12    -0.132368786128E+04    0.63966E-05   -0.11569E-05 18610   0.804E-03
 170 F= -.13236879E+04 E0= -.13236879E+04  d E =0.388119E+00  mag=   120.0000
       N       E                     dE             d eps       ncg     rms          rms(c)
DAV:   1    -0.132183018389E+04    0.18577E+01   -0.58857E+01 50050   0.418E+01    0.750E+00
DAV:   2    -0.132399309345E+04   -0.21629E+01   -0.18564E+01 37830   0.687E+00    0.432E+00
DAV:   3    -0.132408055848E+04   -0.87465E-01   -0.74938E-01 37460   0.176E+00    0.190E+00
DAV:   4    -0.132408176971E+04   -0.12112E-02   -0.44961E-02 42570   0.419E-01    0.123E+00
DAV:   5    -0.132407681863E+04    0.49511E-02   -0.10363E-02 41660   0.277E-01    0.761E-01
DAV:   6    -0.132407447421E+04    0.23444E-02   -0.47261E-03 42230   0.277E-01    0.374E-01
DAV:   7    -0.132407491746E+04   -0.44325E-03   -0.37528E-03 39040   0.186E-01    0.195E-01
DAV:   8    -0.132407549388E+04   -0.57641E-03   -0.75595E-04 36980   0.884E-02    0.695E-02
DAV:   9    -0.132407518021E+04    0.31367E-03   -0.22282E-04 34580   0.315E-02    0.510E-02
DAV:  10    -0.132407525271E+04   -0.72499E-04   -0.16909E-05 19040   0.145E-02    0.265E-02
DAV:  11    -0.132407534599E+04   -0.93280E-04   -0.18675E-05 19600   0.138E-02    0.134E-02
DAV:  12    -0.132407527701E+04    0.68980E-04   -0.70629E-06 18510   0.696E-03    0.653E-03
DAV:  13    -0.132407527549E+04    0.15197E-05   -0.14182E-06 18170   0.263E-03
 171 F= -.13240753E+04 E0= -.13240753E+04  d E =-.387414E+00  mag=   120.0000
       N       E                     dE             d eps       ncg     rms          rms(c)
DAV:   1    -0.132397926654E+04    0.96010E-01   -0.28707E+00 49980   0.921E+00    0.159E+00
DAV:   2    -0.132408620579E+04   -0.10694E+00   -0.92136E-01 37830   0.151E+00    0.760E-01
DAV:   3    -0.132408960387E+04   -0.33981E-02   -0.31913E-02 37410   0.354E-01    0.375E-01
DAV:   4    -0.132408966622E+04   -0.62346E-04   -0.18894E-03 39360   0.830E-02    0.255E-01
DAV:   5    -0.132408932440E+04    0.34182E-03   -0.43318E-04 38780   0.700E-02    0.160E-01
DAV:   6    -0.132408934969E+04   -0.25294E-04   -0.34424E-04 39850   0.734E-02
 172 F= -.13240893E+04 E0= -.13240893E+04  d E =-.140742E-01  mag=   120.0000
       N       E                     dE             d eps       ncg     rms          rms(c)
DAV:   1    -0.132404239092E+04    0.46933E-01   -0.15237E+00 48080   0.628E+00    0.107E+00
DAV:   2    -0.132409503644E+04   -0.52646E-01   -0.46883E-01 37770   0.108E+00    0.539E-01
DAV:   3    -0.132409591850E+04   -0.88206E-03   -0.14606E-02 37310   0.261E-01    0.295E-01
DAV:   4    -0.132409593705E+04   -0.18546E-04   -0.99666E-04 38640   0.724E-02    0.209E-01
DAV:   5    -0.132409558933E+04    0.34772E-03   -0.16882E-04 30220   0.526E-02    0.145E-01
DAV:   6    -0.132409555464E+04    0.34685E-04   -0.28068E-04 38380   0.663E-02
 173 F= -.13240956E+04 E0= -.13240956E+04  d E =-.620495E-02  mag=   120.0000
       N       E                     dE             d eps       ncg     rms          rms(c)
DAV:   1    -0.132402829175E+04    0.67298E-01   -0.25923E+00 45130   0.700E+00    0.118E+00
DAV:   2    -0.132409474288E+04   -0.66451E-01   -0.60765E-01 37310   0.122E+00    0.595E-01
DAV:   3    -0.132409566637E+04   -0.92350E-03   -0.18861E-02 37240   0.283E-01    0.327E-01
DAV:   4    -0.132409557937E+04    0.87008E-04   -0.12545E-03 38810   0.791E-02    0.234E-01
DAV:   5    -0.132409512612E+04    0.45324E-03   -0.22134E-04 32310   0.630E-02    0.157E-01
DAV:   6    -0.132409511344E+04    0.12684E-04   -0.37388E-04 40760   0.736E-02
 174 F= -.13240951E+04 E0= -.13240951E+04  d E =0.441203E-03  mag=   120.0000
       N       E                     dE             d eps       ncg     rms          rms(c)
DAV:   1    -0.132380957892E+04    0.28555E+00   -0.14093E+01 43480   0.145E+01    0.233E+00
DAV:   2    -0.132406792816E+04   -0.25835E+00   -0.24762E+00 36770   0.257E+00    0.117E+00
DAV:   3    -0.132407127883E+04   -0.33507E-02   -0.72646E-02 37220   0.546E-01    0.613E-01
DAV:   4    -0.132407086848E+04    0.41034E-03   -0.47778E-03 39620   0.144E-01    0.447E-01
