       N       E                     dE             d eps       ncg     rms          rms(c)
DAV:   1     0.823817222948E+04    0.82382E+04   -0.23581E+05 34344   0.218E+03
DAV:   2     0.116216625099E+04   -0.70760E+04   -0.66304E+04 33696   0.632E+02
DAV:   3    -0.384846253223E+03   -0.15470E+04   -0.13601E+04 35964   0.272E+02
DAV:   4    -0.541655482773E+03   -0.15681E+03   -0.15406E+03 36816   0.837E+01
DAV:   5    -0.544389099890E+03   -0.27336E+01   -0.27201E+01 36732   0.124E+01    0.106E+02
DAV:   6    -0.556747358054E+03   -0.12358E+02   -0.94878E+02 44856   0.119E+02    0.127E+02
DAV:   7    -0.433852872522E+03    0.12289E+03   -0.34074E+02 37068   0.120E+02    0.354E+01
DAV:   8    -0.441008746542E+03   -0.71559E+01   -0.91645E+01 42444   0.294E+01    0.515E+01
DAV:   9    -0.445312013675E+03   -0.43033E+01   -0.91503E+01 37884   0.317E+01    0.595E+01
DAV:  10    -0.445022294623E+03    0.28972E+00   -0.51044E+01 37872   0.190E+01    0.572E+01
DAV:  11    -0.439116614182E+03    0.59057E+01   -0.23057E+01 37152   0.157E+01    0.151E+01
DAV:  12    -0.439696589723E+03   -0.57998E+00   -0.13491E+01 38076   0.211E+01    0.210E+01
DAV:  13    -0.437405619531E+03    0.22910E+01   -0.94126E+00 37104   0.139E+01    0.720E+00
DAV:  14    -0.437421721388E+03   -0.16102E-01   -0.22674E+00 38832   0.577E+00    0.769E+00
DAV:  15    -0.437402727518E+03    0.18994E-01   -0.18496E+00 37704   0.483E+00    0.635E+00
DAV:  16    -0.437284077994E+03    0.11865E+00   -0.69501E-01 41808   0.366E+00    0.493E+00
DAV:  17    -0.437294059747E+03   -0.99818E-02   -0.54756E-01 38988   0.309E+00    0.460E+00
DAV:  18    -0.437230180457E+03    0.63879E-01   -0.34489E-01 39060   0.262E+00    0.334E+00
DAV:  19    -0.437229256079E+03    0.92438E-03   -0.10696E-01 40464   0.184E+00    0.290E+00
DAV:  20    -0.437210598506E+03    0.18658E-01   -0.41267E-02 39180   0.134E+00    0.200E+00
DAV:  21    -0.437210386000E+03    0.21251E-03   -0.36596E-02 41976   0.749E-01    0.185E+00
DAV:  22    -0.437209972787E+03    0.41321E-03   -0.72841E-03 36360   0.382E-01    0.180E+00
DAV:  23    -0.437208283268E+03    0.16895E-02   -0.18319E-03 40824   0.226E-01    0.202E+00
DAV:  24    -0.437210517313E+03   -0.22340E-02   -0.79135E-03 40392   0.601E-01    0.156E+00
DAV:  25    -0.437206736698E+03    0.37806E-02   -0.19805E-02 42024   0.858E-01    0.918E-01
DAV:  26    -0.437207781087E+03   -0.10444E-02   -0.60947E-03 41892   0.417E-01    0.787E-01
DAV:  27    -0.437207565690E+03    0.21540E-03   -0.33158E-03 37704   0.375E-01    0.704E-01
DAV:  28    -0.437207047632E+03    0.51806E-03   -0.14675E-03 43284   0.262E-01    0.474E-01
DAV:  29    -0.437207085104E+03   -0.37472E-04   -0.21496E-03 40104   0.337E-01    0.393E-01
DAV:  30    -0.437206740168E+03    0.34494E-03   -0.77298E-04 41772   0.214E-01    0.251E-01
DAV:  31    -0.437206736220E+03    0.39477E-05   -0.34733E-04 42972   0.127E-01    0.205E-01
DAV:  32    -0.437206676162E+03    0.60058E-04   -0.23098E-04 36408   0.110E-01    0.159E-01
DAV:  33    -0.437206667549E+03    0.86129E-05   -0.77124E-05 31020   0.589E-02
   1 F= -.43720667E+03 E0= -.43719182E+03  d E =-.437207E+03  mag=     1.9676
       N       E                     dE             d eps       ncg     rms          rms(c)
DAV:   1    -0.437209700245E+03   -0.30241E-02   -0.27963E-03 48864   0.526E-01    0.920E-02
DAV:   2    -0.437210046830E+03   -0.34659E-03   -0.27373E-03 40188   0.212E-01    0.285E-01
DAV:   3    -0.437209784077E+03    0.26275E-03   -0.18133E-03 37956   0.194E-01    0.777E-02
DAV:   4    -0.437209822318E+03   -0.38241E-04   -0.28104E-04 36240   0.101E-01    0.741E-02
DAV:   5    -0.437209806557E+03    0.15761E-04   -0.15884E-04 30648   0.816E-02    0.456E-02
DAV:   6    -0.437209809123E+03   -0.25658E-05   -0.51456E-05 25368   0.564E-02
   2 F= -.43720981E+03 E0= -.43719495E+03  d E =-.314157E-02  mag=     1.9677
       N       E                     dE             d eps       ncg     rms          rms(c)
DAV:   1    -0.437165378554E+03    0.44428E-01   -0.33903E+00 47352   0.183E+01    0.107E+00
DAV:   2    -0.437308343879E+03   -0.14297E+00   -0.14341E+00 36504   0.249E+00    0.143E+00
DAV:   3    -0.437310030461E+03   -0.16866E-02   -0.19194E-01 37032   0.188E+00    0.155E+00
DAV:   4    -0.437306370650E+03    0.36598E-02   -0.80772E-02 38484   0.960E-01    0.911E-01
DAV:   5    -0.437303962540E+03    0.24081E-02   -0.13306E-02 37872   0.762E-01    0.393E-01
DAV:   6    -0.437304996984E+03   -0.10344E-02   -0.58745E-03 42240   0.531E-01    0.531E-01
DAV:   7    -0.437303931211E+03    0.10658E-02   -0.64505E-03 40404   0.485E-01    0.267E-01
DAV:   8    -0.437304208975E+03   -0.27776E-03   -0.24217E-03 39204   0.304E-01    0.350E-01
DAV:   9    -0.437303927089E+03    0.28189E-03   -0.10289E-03 38736   0.223E-01    0.242E-01
DAV:  10    -0.437303785684E+03    0.14141E-03   -0.13377E-03 44436   0.106E-01    0.505E-02
DAV:  11    -0.437303864077E+03   -0.78394E-04   -0.42035E-04 37284   0.890E-02    0.103E-01
DAV:  12    -0.437303853726E+03    0.10351E-04   -0.83587E-05 29724   0.656E-02    0.850E-02
DAV:  13    -0.437303836866E+03    0.16860E-04   -0.91256E-05 22800   0.388E-02    0.330E-02
DAV:  14    -0.437303839268E+03   -0.24017E-05   -0.63781E-05 20400   0.363E-02
   3 F= -.43730384E+03 E0= -.43728890E+03  d E =-.940301E-01  mag=     1.9664
       N       E                     dE             d eps       ncg     rms          rms(c)
DAV:   1    -0.437035972159E+03    0.26786E+00   -0.97670E+00 46428   0.293E+01    0.197E+00
DAV:   2    -0.437467151271E+03   -0.43118E+00   -0.42444E+00 37860   0.513E+00    0.411E+00
DAV:   3    -0.437417486559E+03    0.49665E-01   -0.88740E-01 37296   0.362E+00    0.243E+00
DAV:   4    -0.437418286363E+03   -0.79980E-03   -0.24375E-01 38640   0.198E+00    0.161E+00
DAV:   5    -0.437408725988E+03    0.95604E-02   -0.50338E-02 37284   0.132E+00    0.740E-01
DAV:   6    -0.437410237227E+03   -0.15112E-02   -0.15465E-02 39504   0.831E-01    0.796E-01
DAV:   7    -0.437408702807E+03    0.15344E-02   -0.21060E-02 40092   0.733E-01    0.603E-01
DAV:   8    -0.437409646929E+03   -0.94412E-03   -0.83049E-03 39780   0.569E-01    0.738E-01
DAV:   9    -0.437408529460E+03    0.11175E-02   -0.33384E-03 38796   0.391E-01    0.543E-01
DAV:  10    -0.437407829784E+03    0.69968E-03   -0.75714E-03 48912   0.246E-01    0.143E-01
DAV:  11    -0.437408199402E+03   -0.36962E-03   -0.20335E-03 42204   0.226E-01    0.225E-01
DAV:  12    -0.437408145415E+03    0.53987E-04   -0.37056E-04 36096   0.141E-01    0.175E-01
DAV:  13    -0.437408092949E+03    0.52466E-04   -0.15894E-04 33552   0.594E-02    0.105E-01
DAV:  14    -0.437408086689E+03    0.62609E-05   -0.24549E-04 29640   0.628E-02    0.450E-02
DAV:  15    -0.437408091902E+03   -0.52135E-05   -0.14702E-04 30708   0.553E-02    0.611E-02
DAV:  16    -0.437408094948E+03   -0.30464E-05   -0.37133E-05 23292   0.434E-02
   4 F= -.43740809E+03 E0= -.43739298E+03  d E =-.104256E+00  mag=     1.9660
       N       E                     dE             d eps       ncg     rms          rms(c)
DAV:   1    -0.437386207133E+03    0.21885E-01   -0.35422E+00 43104   0.122E+01    0.858E-01
DAV:   2    -0.437471002052E+03   -0.84795E-01   -0.84371E-01 39324   0.266E+00    0.294E+00
DAV:   3    -0.437444734849E+03    0.26267E-01   -0.25113E-01 37272   0.189E+00    0.847E-01
DAV:   4    -0.437447770502E+03   -0.30357E-02   -0.32065E-02 37632   0.988E-01    0.671E-01
DAV:   5    -0.437445896264E+03    0.18742E-02   -0.10473E-02 37524   0.651E-01    0.302E-01
DAV:   6    -0.437445974009E+03   -0.77745E-04   -0.23532E-03 38760   0.352E-01    0.279E-01
DAV:   7    -0.437445665378E+03    0.30863E-03   -0.16725E-03 37512   0.267E-01    0.161E-01
DAV:   8    -0.437445968406E+03   -0.30303E-03   -0.25032E-03 42240   0.281E-01    0.289E-01
DAV:   9    -0.437445707881E+03    0.26052E-03   -0.97454E-04 38928   0.221E-01    0.179E-01
DAV:  10    -0.437445646296E+03    0.61585E-04   -0.43234E-04 37104   0.705E-02    0.642E-02
DAV:  11    -0.437445663535E+03   -0.17239E-04   -0.20667E-04 30348   0.585E-02    0.423E-02
DAV:  12    -0.437445672461E+03   -0.89262E-05   -0.67334E-05 24048   0.400E-02
   5 F= -.43744567E+03 E0= -.43743046E+03  d E =-.375775E-01  mag=     1.9666
       N       E                     dE             d eps       ncg     rms          rms(c)
DAV:   1    -0.437392175486E+03    0.53488E-01   -0.71025E+00 40272   0.150E+01    0.876E-01
DAV:   2    -0.437490081843E+03   -0.97906E-01   -0.99784E-01 37500   0.269E+00    0.259E+00
DAV:   3    -0.437472990831E+03    0.17091E-01   -0.23301E-01 37308   0.175E+00    0.902E-01
DAV:   4    -0.437476078294E+03   -0.30875E-02   -0.34323E-02 37752   0.100E+00    0.778E-01
DAV:   5    -0.437473170044E+03    0.29082E-02   -0.11548E-02 37404   0.694E-01    0.303E-01
DAV:   6    -0.437473584420E+03   -0.41438E-03   -0.30758E-03 40500   0.393E-01    0.371E-01
DAV:   7    -0.437472845054E+03    0.73937E-03   -0.33815E-03 40104   0.391E-01    0.201E-01
DAV:   8    -0.437473057094E+03   -0.21204E-03   -0.15073E-03 42060   0.219E-01    0.243E-01
DAV:   9    -0.437472919890E+03    0.13720E-03   -0.67186E-04 37164   0.175E-01    0.170E-01
DAV:  10    -0.437472861558E+03    0.58333E-04   -0.62037E-04 35364   0.776E-02    0.428E-02
DAV:  11    -0.437472895075E+03   -0.33518E-04   -0.20056E-04 31968   0.687E-02    0.727E-02
DAV:  12    -0.437472887730E+03    0.73450E-05   -0.44982E-05 26892   0.506E-02
   6 F= -.43747289E+03 E0= -.43745755E+03  d E =-.272153E-01  mag=     1.9671
       N       E                     dE             d eps       ncg     rms          rms(c)
DAV:   1    -0.437419496044E+03    0.53399E-01   -0.43495E+00 41640   0.132E+01    0.703E-01
DAV:   2    -0.437487815099E+03   -0.68319E-01   -0.69157E-01 36960   0.194E+00    0.126E+00
DAV:   3    -0.437486869929E+03    0.94517E-03   -0.11096E-01 38208   0.126E+00    0.106E+00
DAV:   4    -0.437485707439E+03    0.11625E-02   -0.27136E-02 39000   0.689E-01    0.591E-01
DAV:   5    -0.437484341583E+03    0.13659E-02   -0.56849E-03 37800   0.554E-01    0.248E-01
DAV:   6    -0.437484980466E+03   -0.63888E-03   -0.31669E-03 40608   0.379E-01    0.386E-01
DAV:   7    -0.437484260055E+03    0.72041E-03   -0.32966E-03 42144   0.394E-01    0.200E-01
DAV:   8    -0.437484311486E+03   -0.51431E-04   -0.75186E-04 42528   0.165E-01    0.159E-01
DAV:   9    -0.437484247199E+03    0.64287E-04   -0.31723E-04 36696   0.117E-01    0.914E-02
DAV:  10    -0.437484229205E+03    0.17994E-04   -0.15406E-04 29400   0.570E-02    0.378E-02
DAV:  11    -0.437484233298E+03   -0.40931E-05   -0.76297E-05 27120   0.567E-02
   7 F= -.43748423E+03 E0= -.43746888E+03  d E =-.113456E-01  mag=     1.9680
       N       E                     dE             d eps       ncg     rms          rms(c)
DAV:   1    -0.437415124368E+03    0.69105E-01   -0.47231E+00 42540   0.144E+01    0.737E-01
DAV:   2    -0.437494244090E+03   -0.79120E-01   -0.79900E-01 36936   0.206E+00    0.973E-01
DAV:   3    -0.437496050108E+03   -0.18060E-02   -0.92564E-02 37944   0.138E+00    0.114E+00
DAV:   4    -0.437493149521E+03    0.29006E-02   -0.34188E-02 39012   0.674E-01    0.606E-01
DAV:   5    -0.437492009205E+03    0.11403E-02   -0.62967E-03 39072   0.529E-01    0.255E-01
DAV:   6    -0.437492712732E+03   -0.70353E-03   -0.30868E-03 40932   0.395E-01    0.403E-01
DAV:   7    -0.437491902944E+03    0.80979E-03   -0.34079E-03 42132   0.414E-01    0.171E-01
DAV:   8    -0.437491952363E+03   -0.49420E-04   -0.89421E-04 41892   0.192E-01    0.150E-01
DAV:   9    -0.437491869363E+03    0.83000E-04   -0.36337E-04 37896   0.131E-01    0.710E-02
DAV:  10    -0.437491866549E+03    0.28136E-05   -0.15633E-04 33696   0.568E-02    0.494E-02
DAV:  11    -0.437491866815E+03   -0.26588E-06   -0.88223E-05 28332   0.563E-02
   8 F= -.43749187E+03 E0= -.43747649E+03  d E =-.763352E-02  mag=     1.9683
       N       E                     dE             d eps       ncg     rms          rms(c)
DAV:   1    -0.437389096207E+03    0.10277E+00   -0.55803E+00 45084   0.173E+01    0.888E-01
DAV:   2    -0.437501571109E+03   -0.11247E+00   -0.11296E+00 36516   0.251E+00    0.105E+00
DAV:   3    -0.437504196120E+03   -0.26250E-02   -0.98360E-02 37104   0.179E+00    0.104E+00
DAV:   4    -0.437499260342E+03    0.49358E-02   -0.21000E-02 38568   0.922E-01    0.474E-01
DAV:   5    -0.437499147274E+03    0.11307E-03   -0.92640E-03 40704   0.388E-01    0.412E-01
DAV:   6    -0.437499929761E+03   -0.78249E-03   -0.78290E-03 42312   0.453E-01    0.520E-01
DAV:   7    -0.437498795285E+03    0.11345E-02   -0.53681E-03 41112   0.491E-01    0.190E-01
DAV:   8    -0.437498902415E+03   -0.10713E-03   -0.14548E-03 41820   0.239E-01    0.177E-01
DAV:   9    -0.437498777499E+03    0.12492E-03   -0.62050E-04 37836   0.173E-01    0.593E-02
DAV:  10    -0.437498786326E+03   -0.88273E-05   -0.13043E-04 35556   0.711E-02    0.542E-02
DAV:  11    -0.437498776334E+03    0.99921E-05   -0.88282E-05 28800   0.703E-02
   9 F= -.43749878E+03 E0= -.43748338E+03  d E =-.690952E-02  mag=     1.9685
       N       E                     dE             d eps       ncg     rms          rms(c)
DAV:   1    -0.437487642818E+03    0.11144E-01   -0.92870E-01 42312   0.643E+00    0.319E-01
DAV:   2    -0.437502579544E+03   -0.14937E-01   -0.15151E-01 37500   0.909E-01    0.435E-01
DAV:   3    -0.437503041446E+03   -0.46190E-03   -0.19646E-02 37812   0.586E-01    0.569E-01
DAV:   4    -0.437502312517E+03    0.72893E-03   -0.60723E-03 39204   0.301E-01    0.240E-01
DAV:   5    -0.437502160898E+03    0.15162E-03   -0.87689E-04 40752   0.208E-01    0.116E-01
DAV:   6    -0.437502221953E+03   -0.61055E-04   -0.70868E-04 40752   0.155E-01    0.157E-01
DAV:   7    -0.437502150260E+03    0.71693E-04   -0.55608E-04 40920   0.164E-01    0.113E-01
DAV:   8    -0.437502125435E+03    0.24824E-04   -0.19524E-04 35292   0.723E-02    0.542E-02
DAV:   9    -0.437502122262E+03    0.31739E-05   -0.72049E-05 27660   0.586E-02
  10 F= -.43750212E+03 E0= -.43748675E+03  d E =-.334593E-02  mag=     1.9677
       N       E                     dE             d eps       ncg     rms          rms(c)
DAV:   1    -0.437500480228E+03    0.16452E-02   -0.12044E-01 45840   0.282E+00    0.149E-01
DAV:   2    -0.437503591928E+03   -0.31117E-02   -0.31441E-02 36648   0.396E-01    0.295E-01
DAV:   3    -0.437503520019E+03    0.71909E-04   -0.53543E-03 37764   0.283E-01    0.215E-01
DAV:   4    -0.437503490197E+03    0.29821E-04   -0.95196E-04 37368   0.147E-01    0.114E-01
DAV:   5    -0.437503441558E+03    0.48640E-04   -0.22207E-04 33672   0.111E-01    0.532E-02
DAV:   6    -0.437503460762E+03   -0.19205E-04   -0.14566E-04 31200   0.709E-02    0.706E-02
DAV:   7    -0.437503448101E+03    0.12661E-04   -0.11986E-04 33204   0.794E-02    0.613E-02
DAV:   8    -0.437503445317E+03    0.27841E-05   -0.23682E-05 19584   0.309E-02
  11 F= -.43750345E+03 E0= -.43748805E+03  d E =-.132306E-02  mag=     1.9672
       N       E                     dE             d eps       ncg     rms          rms(c)
DAV:   1    -0.437497736701E+03    0.57114E-02   -0.33068E-01 45816   0.455E+00    0.230E-01
DAV:   2    -0.437505341673E+03   -0.76050E-02   -0.76986E-02 36480   0.598E-01    0.237E-01
DAV:   3    -0.437505767476E+03   -0.42580E-03   -0.77427E-03 37152   0.448E-01    0.379E-01
DAV:   4    -0.437505358918E+03    0.40856E-03   -0.32538E-03 39828   0.241E-01    0.173E-01
DAV:   5    -0.437505299286E+03    0.59632E-04   -0.55340E-04 38400   0.129E-01    0.782E-02
DAV:   6    -0.437505373337E+03   -0.74051E-04   -0.26849E-04 36132   0.120E-01    0.122E-01
DAV:   7    -0.437505307050E+03    0.66287E-04   -0.33287E-04 38292   0.124E-01    0.534E-02
DAV:   8    -0.437505311182E+03   -0.41324E-05   -0.66459E-05 28488   0.554E-02
  12 F= -.43750531E+03 E0= -.43748993E+03  d E =-.186587E-02  mag=     1.9669
       N       E                     dE             d eps       ncg     rms          rms(c)
DAV:   1    -0.437489790076E+03    0.15517E-01   -0.82592E-01 45804   0.717E+00    0.353E-01
DAV:   2    -0.437507876220E+03   -0.18086E-01   -0.18324E-01 36540   0.973E-01    0.633E-01
DAV:   3    -0.437507923157E+03   -0.46937E-04   -0.29502E-02 37632   0.623E-01    0.550E-01
DAV:   4    -0.437507465913E+03    0.45724E-03   -0.53998E-03 39360   0.328E-01    0.249E-01
DAV:   5    -0.437507286590E+03    0.17932E-03   -0.11268E-03 39492   0.244E-01    0.128E-01
DAV:   6    -0.437507412698E+03   -0.12611E-03   -0.11272E-03 42492   0.176E-01    0.196E-01
DAV:   7    -0.437507312193E+03    0.10051E-03   -0.75296E-04 41628   0.176E-01    0.174E-01
DAV:   8    -0.437507281351E+03    0.30841E-04   -0.16621E-04 35892   0.698E-02    0.112E-01
DAV:   9    -0.437507265489E+03    0.15863E-04   -0.93252E-05 28512   0.523E-02    0.679E-02
DAV:  10    -0.437507261370E+03    0.41189E-05   -0.17443E-04 21852   0.392E-02    0.290E-02
DAV:  11    -0.437507268198E+03   -0.68286E-05   -0.20397E-05 20280   0.309E-02
  13 F= -.43750727E+03 E0= -.43749191E+03  d E =-.195702E-02  mag=     1.9668
       N       E                     dE             d eps       ncg     rms          rms(c)
DAV:   1    -0.437491290635E+03    0.15971E-01   -0.71262E-01 45768   0.703E+00    0.341E-01
DAV:   2    -0.437508261830E+03   -0.16971E-01   -0.17270E-01 36228   0.921E-01    0.503E-01
DAV:   3    -0.437508893228E+03   -0.63140E-03   -0.25856E-02 37440   0.594E-01    0.619E-01
DAV:   4    -0.437508050940E+03    0.84229E-03   -0.60544E-03 39876   0.322E-01    0.231E-01
DAV:   5    -0.437507972160E+03    0.78780E-04   -0.10164E-03 40320   0.219E-01    0.130E-01
DAV:   6    -0.437508100848E+03   -0.12869E-03   -0.11724E-03 42456   0.173E-01    0.198E-01
DAV:   7    -0.437508021043E+03    0.79804E-04   -0.61593E-04 41988   0.173E-01    0.188E-01
DAV:   8    -0.437507972137E+03    0.48906E-04   -0.17786E-04 35760   0.717E-02    0.117E-01
DAV:   9    -0.437507956356E+03    0.15781E-04   -0.12456E-04 29400   0.552E-02    0.671E-02
DAV:  10    -0.437507953193E+03    0.31630E-05   -0.16321E-04 23268   0.419E-02    0.302E-02
DAV:  11    -0.437507959273E+03   -0.60795E-05   -0.19399E-05 20340   0.316E-02
  14 F= -.43750796E+03 E0= -.43749263E+03  d E =-.691075E-03  mag=     1.9671
       N       E                     dE             d eps       ncg     rms          rms(c)
DAV:   1    -0.437503089952E+03    0.48632E-02   -0.14487E-01 46116   0.345E+00    0.171E-01
DAV:   2    -0.437507230904E+03   -0.41410E-02   -0.42328E-02 36768   0.461E-01    0.313E-01
DAV:   3    -0.437507242931E+03   -0.12027E-04   -0.71449E-03 37524   0.325E-01    0.281E-01
DAV:   4    -0.437507112696E+03    0.13023E-03   -0.13755E-03 39264   0.159E-01    0.121E-01
DAV:   5    -0.437507072582E+03    0.40114E-04   -0.26082E-04 34128   0.109E-01    0.638E-02
DAV:   6    -0.437507107111E+03   -0.34529E-04   -0.27097E-04 35448   0.892E-02    0.100E-01
DAV:   7    -0.437507074933E+03    0.32178E-04   -0.19364E-04 35040   0.898E-02    0.785E-02
DAV:   8    -0.437507068348E+03    0.65851E-05   -0.42794E-05 22188   0.334E-02
  15 F= -.43750707E+03 E0= -.43749173E+03  d E =0.890925E-03  mag=     1.9672
       N       E                     dE             d eps       ncg     rms          rms(c)
DAV:   1    -0.437505621014E+03    0.14539E-02   -0.21789E-02 49992   0.177E+00    0.948E-02
DAV:   2    -0.437506836915E+03   -0.12159E-02   -0.12203E-02 36408   0.222E-01    0.207E-01
DAV:   3    -0.437506757634E+03    0.79281E-04   -0.18836E-03 37404   0.166E-01    0.993E-02
DAV:   4    -0.437506785653E+03   -0.28020E-04   -0.36086E-04 35508   0.859E-02    0.892E-02
DAV:   5    -0.437506755928E+03    0.29725E-04   -0.10734E-04 28188   0.633E-02    0.316E-02
DAV:   6    -0.437506759967E+03   -0.40386E-05   -0.19440E-05 20772   0.276E-02
  16 F= -.43750676E+03 E0= -.43749141E+03  d E =0.308381E-03  mag=     1.9673
