       N       E                     dE             d eps       ncg     rms          ort
DAV:   1     0.841044068014E+04    0.84104E+04   -0.38840E+05  6370   0.184E+03
DAV:   2    -0.111041005138E+03   -0.85215E+04   -0.78348E+04  6370   0.479E+02
DAV:   3    -0.137832848503E+04   -0.12673E+04   -0.12360E+04  6370   0.206E+02
DAV:   4    -0.144394086991E+04   -0.65612E+02   -0.62078E+02  6370   0.464E+01
DAV:   5    -0.144626058894E+04   -0.23197E+01   -0.22631E+01  6370   0.727E+00
SDA:   6    -0.744508948721E+03    0.70175E+03   -0.22631E+01  6370   0.279E+04 0.000E+00
CGA:   7    -0.105078801083E+04   -0.30628E+03   -0.29650E+03  6370   0.160E+04-0.263E+03
CGA:   8    -0.102523905707E+04    0.25549E+02   -0.97691E+02  6370   0.146E+04-0.524E+03
CGA:   9    -0.103640051811E+04   -0.11161E+02   -0.43590E+02  6370   0.200E+04-0.850E+03
CGA:  10    -0.979322604828E+03    0.57078E+02   -0.10758E+03  6370   0.219E+04-0.101E+04
CGA:  11    -0.110339093456E+04   -0.12407E+03   -0.51217E+02  6370   0.430E+03-0.834E+03
CGA:  12    -0.110197532825E+04    0.14156E+01   -0.95120E+01  6370   0.118E+04-0.255E+03
CGA:  13    -0.102518426897E+04    0.76791E+02   -0.65135E+02  6370   0.279E+04-0.790E+03
CGA:  14    -0.986743222254E+03    0.38441E+02   -0.13375E+03  6370   0.219E+04-0.167E+04
CGA:  15    -0.110465776566E+04   -0.11791E+03   -0.63819E+02  6370   0.872E+03-0.118E+04
CGA:  16    -0.109647660622E+04    0.81812E+01   -0.37606E+02  6370   0.128E+04-0.894E+03
CGA:  17    -0.108358860816E+04    0.12888E+02   -0.49763E+02  6370   0.214E+04-0.122E+04
CGA:  18    -0.101220665959E+04    0.71382E+02   -0.10345E+03  6370   0.340E+04-0.174E+04
CGA:  19    -0.995171933457E+03    0.17035E+02   -0.13618E+03  6370   0.216E+04-0.157E+04
CGA:  20    -0.108869462802E+04   -0.93523E+02   -0.40994E+02  6370   0.139E+04-0.203E+04
CGA:  21    -0.105391315511E+04    0.34781E+02   -0.47673E+02  6370   0.504E+04-0.346E+04
CGA:  22    -0.973778184633E+03    0.80135E+02   -0.25866E+03  6370   0.138E+04-0.754E+03
CGA:  23    -0.104757797741E+04   -0.73800E+02   -0.36165E+02  6370   0.226E+04-0.289E+04
CGA:  24    -0.105501827557E+04   -0.74403E+01   -0.77726E+02  6370   0.304E+04-0.186E+04
CGA:  25    -0.102813747208E+04    0.26881E+02   -0.11920E+03  6370   0.316E+04-0.261E+04
CGA:  26    -0.102996985246E+04   -0.18324E+01   -0.12629E+03  6370   0.204E+04-0.158E+04
CGA:  27    -0.103400168102E+04   -0.40318E+01   -0.68124E+02  6370   0.438E+04-0.350E+04
CGA:  28    -0.973254298344E+03    0.60747E+02   -0.17101E+03  6370   0.157E+04-0.114E+04
CGA:  29    -0.973611087425E+03   -0.35679E+00   -0.44246E+02  6370   0.233E+04-0.136E+04
CGA:  30    -0.976470820874E+03   -0.28597E+01   -0.87281E+02  6370   0.384E+04-0.233E+04
CGA:  31    -0.971652917343E+03    0.48179E+01   -0.15476E+03  6370   0.903E+03-0.593E+03
CGA:  32    -0.107954641401E+04   -0.10789E+03   -0.22654E+02  6370   0.375E+04-0.601E+04
CGA:  33    -0.100659613298E+04    0.72950E+02   -0.12000E+03  6370   0.592E+04-0.349E+04
CGA:  34    -0.959959388122E+03    0.46637E+02   -0.21370E+03  6370   0.100E+04-0.599E+03
CGA:  35    -0.994436556284E+03   -0.34477E+02   -0.29373E+02  6370   0.461E+04-0.430E+04
CGA:  36    -0.962155504863E+03    0.32281E+02   -0.15362E+03  6370   0.844E+03-0.661E+03
CGA:  37    -0.996245182614E+03   -0.34090E+02   -0.22581E+02  6370   0.294E+04-0.336E+04
CGA:  38    -0.964122836854E+03    0.32122E+02   -0.87072E+02  6370   0.138E+04-0.936E+03
CGA:  39    -0.988172823812E+03   -0.24050E+02   -0.31638E+02  6370   0.714E+03-0.394E+03
CGA:  40    -0.107533003337E+04   -0.87157E+02   -0.89676E+01  6370   0.407E+04 0.398E+04
CGA:  41    -0.989304943140E+03    0.86025E+02   -0.10587E+03  6370   0.324E+04-0.178E+04
CGA:  42    -0.101447033779E+04   -0.25165E+02   -0.53701E+02  6370   0.117E+04-0.935E+03
CGA:  43    -0.106971955716E+04   -0.55249E+02   -0.13870E+02  6370   0.838E+04-0.112E+05
CGA:  44    -0.980908459113E+03    0.88811E+02   -0.21608E+03  6370   0.179E+04-0.982E+03
CGA:  45    -0.101254154295E+04   -0.31633E+02   -0.34448E+02  6370   0.752E+04-0.669E+04
CGA:  46    -0.986348885112E+03    0.26193E+02   -0.19133E+03  6370   0.779E+03-0.463E+03
CGA:  47    -0.112665685949E+04   -0.14031E+03   -0.11962E+02  6370   0.108E+04 0.603E+03
CGA:  48    -0.112272898070E+04    0.39279E+01   -0.17720E+02  6370   0.117E+04-0.741E+03
CGA:  49    -0.110754361794E+04    0.15185E+02   -0.17907E+02  6370   0.335E+04-0.203E+04
CGA:  50    -0.109742094202E+04    0.10123E+02   -0.66083E+02  6370   0.294E+04-0.150E+04
CGA:  51    -0.111598916384E+04   -0.18568E+02   -0.25483E+02  6370   0.164E+04-0.659E+03
CGA:  52    -0.110598477163E+04    0.10004E+02   -0.18260E+02  6370   0.181E+04-0.124E+04
CGA:  53    -0.110922816525E+04   -0.32434E+01   -0.31424E+02  6370   0.184E+04-0.128E+04
CGA:  54    -0.111993823020E+04   -0.10710E+02   -0.26017E+02  6370   0.199E+04-0.199E+04
CGA:  55    -0.111605589893E+04    0.38823E+01   -0.29028E+02  6370   0.235E+04-0.189E+04
CGA:  56    -0.110697174345E+04    0.90842E+01   -0.32772E+02  6370   0.449E+04-0.298E+04
CGA:  57    -0.110016025551E+04    0.68115E+01   -0.68494E+02  6370   0.321E+04-0.213E+04
CGA:  58    -0.112828573612E+04   -0.28125E+02   -0.24644E+02  6370   0.517E+03-0.124E+03
CGA:  59    -0.113634772311E+04   -0.80620E+01   -0.41199E+01  6370   0.106E+03 0.976E+01
CGA:  60    -0.113650791593E+04   -0.16019E+00   -0.49122E+00  6370   0.812E+02-0.727E+02
CGA:  61    -0.113677918617E+04   -0.27127E+00   -0.63849E+00  6370   0.548E+02-0.441E+02
CGA:  62    -0.113702511438E+04   -0.24593E+00   -0.27502E+00  6370   0.107E+02-0.714E+01
CGA:  63    -0.113736180771E+04   -0.33669E+00   -0.33663E+00  6370   0.461E+02-0.428E+00
CGA:  64    -0.113842391065E+04   -0.10621E+01   -0.11505E+01  6370   0.228E+02 0.402E+01
CGA:  65    -0.113873433047E+04   -0.31042E+00   -0.41215E+00  6370   0.177E+02-0.354E+01
CGA:  66    -0.113915868222E+04   -0.42435E+00   -0.43281E+00  6370   0.363E+01 0.287E+01
CGA:  67    -0.113924995275E+04   -0.91271E-01   -0.92173E-01  6370   0.222E+01-0.189E+00
CGA:  68    -0.113936299867E+04   -0.11305E+00   -0.13822E+00  6370   0.474E+01-0.690E+00
CGA:  69    -0.113896244864E+04    0.40055E+00   -0.29770E+00  6370   0.734E+02-0.214E+02
CGA:  70    -0.113955819730E+04   -0.59575E+00   -0.59542E+00  6370   0.248E+01-0.460E+01
CGA:  71    -0.113966796910E+04   -0.10977E+00   -0.10368E+00  6370   0.279E+01 0.307E+00
CGA:  72    -0.113971844151E+04   -0.50472E-01   -0.55608E-01  6370   0.177E+01-0.209E+00
CGA:  73    -0.113980845036E+04   -0.90009E-01   -0.10099E+00  6370   0.161E+01-0.323E+00
CGA:  74    -0.113986743568E+04   -0.58985E-01   -0.57065E-01  6370   0.117E+01 0.751E-01
CGA:  75    -0.113990935124E+04   -0.41916E-01   -0.41679E-01  6370   0.908E+00-0.162E+00
CGA:  76    -0.113993691983E+04   -0.27569E-01   -0.42374E-01  6370   0.137E+01-0.674E+00
CGA:  77    -0.113998653238E+04   -0.49613E-01   -0.49572E-01  6370   0.359E+00-0.201E-01
CGA:  78    -0.113999446810E+04   -0.79357E-02   -0.79781E-02  6370   0.216E+00 0.150E-01
CGA:  79    -0.113994458805E+04    0.49880E-01   -0.26313E-01  6370   0.519E+01-0.595E+00
CGA:  80    -0.114004250846E+04   -0.97920E-01   -0.17017E+00  6370   0.273E+01-0.771E+00
CGA:  81    -0.114007816628E+04   -0.35658E-01   -0.33375E-01  6370   0.134E+00 0.229E+00
CGA:  82    -0.114008213093E+04   -0.39646E-02   -0.37714E-02  6370   0.154E+00 0.560E-02
CGA:  83    -0.114009180630E+04   -0.96754E-02   -0.10010E-01  6370   0.365E+00-0.759E-01
CGA:  84    -0.114009931593E+04   -0.75096E-02   -0.43250E-02  6370   0.520E+00-0.620E-01
CGA:  85    -0.114011742685E+04   -0.18111E-01   -0.18182E-01  6370   0.852E+00-0.159E+00
CGA:  86    -0.114012589020E+04   -0.84634E-02   -0.43322E-02  6370   0.561E+00 0.334E+00
CGA:  87    -0.114013631926E+04   -0.10429E-01   -0.72230E-02  6370   0.432E+00 0.259E+00
CGA:  88    -0.114014575043E+04   -0.94312E-02   -0.68764E-02  6370   0.442E+00 0.175E+00
CGA:  89    -0.114015322463E+04   -0.74742E-02   -0.53448E-02  6370   0.286E+00 0.163E+00
CGA:  90    -0.114015805718E+04   -0.48325E-02   -0.43393E-02  6370   0.147E+00-0.339E-01
CGA:  91    -0.114016037973E+04   -0.23225E-02   -0.22247E-02  6370   0.224E+00-0.116E-01
CGA:  92    -0.114016334508E+04   -0.29653E-02   -0.33758E-02  6370   0.215E+00 0.145E-01
CGA:  93    -0.114016528658E+04   -0.19415E-02   -0.25126E-02  6370   0.148E+00 0.344E-01
CGA:  94    -0.114016730962E+04   -0.20230E-02   -0.25277E-02  6370   0.169E+00 0.218E-01
CGA:  95    -0.114017012032E+04   -0.28107E-02   -0.32066E-02  6370   0.118E+00-0.294E-03
CGA:  96    -0.114017200723E+04   -0.18869E-02   -0.16973E-02  6370   0.601E-01-0.212E-01
CGA:  97    -0.114017369771E+04   -0.16905E-02   -0.15643E-02  6370   0.871E-01-0.218E-01
CGA:  98    -0.114017468380E+04   -0.98609E-03   -0.75836E-03  6370   0.750E-01-0.596E-02
CGA:  99    -0.114017678268E+04   -0.20989E-02   -0.18707E-02  6370   0.177E+00-0.227E-01
CGA: 100    -0.114018096369E+04   -0.41810E-02   -0.32902E-02  6370   0.336E+00-0.991E-01
CGA: 101    -0.114018723194E+04   -0.62682E-02   -0.58516E-02  6370   0.998E-01-0.454E-01
CGA: 102    -0.114018952829E+04   -0.22963E-02   -0.23772E-02  6370   0.188E-01 0.159E-01
CGA: 103    -0.114019098233E+04   -0.14540E-02   -0.13047E-02  6370   0.103E-01 0.601E-02
CGA: 104    -0.114019127826E+04   -0.29593E-03   -0.10480E-02  6370   0.118E+00-0.180E-01
CGA: 105    -0.114019209924E+04   -0.82098E-03   -0.12530E-02  6370   0.711E-02 0.170E-01
CGA: 106    -0.114019214624E+04   -0.46999E-04   -0.12456E-03  6370   0.594E-02 0.379E-02
CGA: 107    -0.114019260216E+04   -0.45592E-03    0.10382E-02  6370   0.848E-02 0.125E-02
CGA: 108    -0.114019307139E+04   -0.46923E-03   -0.43375E-03  6370   0.344E-02 0.500E-02
CGA: 109    -0.114019343895E+04   -0.36756E-03   -0.23925E-04  6370   0.330E-01-0.231E-02
CGA: 110    -0.114019392874E+04   -0.48980E-03   -0.65038E-03  6370   0.947E-02 0.650E-02
CGA: 111    -0.114019437854E+04   -0.44979E-03   -0.36142E-03  6370   0.538E-02-0.279E-02
CGA: 112    -0.114019458089E+04   -0.20235E-03   -0.21133E-03  6370   0.691E-02 0.185E-02
CGA: 113    -0.114019543969E+04   -0.85880E-03   -0.95398E-03  6370   0.226E-01-0.221E-02
CGA: 114    -0.114019599354E+04   -0.55386E-03   -0.63607E-03  6370   0.409E-01 0.441E-02
CGA: 115    -0.114019935558E+04   -0.33620E-02   -0.33877E-02  6370   0.313E-01 0.583E-03
CGA: 116    -0.114020052345E+04   -0.11679E-02   -0.89686E-03  6370   0.323E-01-0.100E-01
CGA: 117    -0.114020128973E+04   -0.76628E-03   -0.80796E-03  6370   0.113E-01 0.230E-02
CGA: 118    -0.114020138741E+04   -0.97675E-04   -0.21532E-03  6370   0.701E-02 0.300E-02
CGA: 119    -0.114020190673E+04   -0.51933E-03   -0.52622E-03  6370   0.124E-01-0.278E-02
CGA: 120    -0.114020118784E+04    0.71889E-03   -0.95567E-03  6370   0.158E+00-0.231E-01
CGA: 121    -0.114020296364E+04   -0.17758E-02   -0.22407E-02  6370   0.311E-01 0.200E-01
CGA: 122    -0.114020423889E+04   -0.12752E-02   -0.12678E-02  6370   0.136E-01-0.608E-04
CGA: 123    -0.114020490465E+04   -0.66576E-03   -0.50429E-03  6370   0.272E-01-0.824E-02
CGA: 124    -0.114020498797E+04   -0.83323E-04   -0.30625E-03  6370   0.346E-02 0.526E-02
CGA: 125    -0.114020502510E+04   -0.37130E-04   -0.81875E-04  6370   0.275E-02 0.138E-02
CGA: 126    -0.114020518647E+04   -0.16137E-03   -0.28702E-03  6370   0.159E-01-0.554E-02
CGA: 127    -0.114020538870E+04   -0.20223E-03   -0.30716E-03  6370   0.440E-02 0.342E-02
CGA: 128    -0.114020566423E+04   -0.27553E-03   -0.27251E-03  6370   0.779E-02-0.478E-02
CGA: 129    -0.114020568903E+04   -0.24794E-04   -0.11308E-03  6370   0.219E-02 0.250E-02
CGA: 130    -0.114020578292E+04   -0.93899E-04   -0.90163E-04  6370   0.136E-02-0.144E-03
CGA: 131    -0.114020602871E+04   -0.24579E-03    0.31572E-04  6370   0.507E-02-0.554E-03
CGA: 132    -0.114020650959E+04   -0.48088E-03    0.11418E-03  6370   0.167E-01-0.892E-03
CGA: 133    -0.114020691319E+04   -0.40359E-03   -0.27276E-03  6370   0.132E-01-0.213E-02
CGA: 134    -0.114020740321E+04   -0.49002E-03   -0.39011E-03  6370   0.205E-01-0.593E-02
CGA: 135    -0.114020788275E+04   -0.47954E-03   -0.16288E-03  6370   0.584E-02-0.104E-01
CGA: 136    -0.114020812323E+04   -0.24049E-03   -0.30450E-03  6370   0.329E-01-0.911E-02
CGA: 137    -0.114020820331E+04   -0.80079E-04   -0.31518E-03  6370   0.198E-02 0.669E-02
CGA: 138    -0.114020817547E+04    0.27849E-04   -0.16772E-04  6370   0.872E-03 0.122E-02
CGA: 139    -0.114020817900E+04   -0.35355E-05   -0.17552E-04  6370   0.618E-03 0.648E-03
CGA: 140    -0.114020823525E+04   -0.56251E-04    0.10627E-03  6370   0.595E-03 0.472E-03
CGA: 141    -0.114020822475E+04    0.10502E-04   -0.53634E-05  6370   0.474E-03 0.500E-03
CGA: 142    -0.114020822632E+04   -0.15708E-05   -0.97899E-05  6370   0.438E-03 0.445E-03
CGA: 143    -0.114020829639E+04   -0.70072E-04   -0.47321E-04  6370   0.539E-03 0.328E-03
CGA: 144    -0.114020828452E+04    0.11876E-04   -0.31772E-05  6370   0.362E-03 0.420E-03
CGA: 145    -0.114020827695E+04    0.75674E-05   -0.28065E-05  6370   0.309E-03 0.322E-03
   1 F= -.11402083E+04 E0= -.11401872E+04  d E =-.114021E+04  mag=    65.0000
