       N       E                     dE             d eps       ncg     rms          rms(c)
DAV:   1     0.103723650611E+05    0.10372E+05   -0.37717E+05 32040   0.141E+03
DAV:   2     0.525965838195E+03   -0.98464E+04   -0.92916E+04 31390   0.452E+02
DAV:   3    -0.853185149165E+03   -0.13792E+04   -0.12764E+04 34750   0.173E+02
DAV:   4    -0.937777818683E+03   -0.84593E+02   -0.82227E+02 39230   0.448E+01
DAV:   5    -0.940308445126E+03   -0.25306E+01   -0.25230E+01 38450   0.839E+00    0.189E+02
DAV:   6    -0.425318879583E+03    0.51499E+03   -0.12066E+03 38850   0.767E+01    0.921E+01
DAV:   7    -0.660134147264E+03   -0.23482E+03   -0.39895E+02 40150   0.619E+01    0.777E+01
DAV:   8    -0.689255301473E+03   -0.29121E+02   -0.55432E+01 41020   0.198E+01    0.506E+01
DAV:   9    -0.737313540071E+03   -0.48058E+02   -0.43447E+01 39590   0.145E+01    0.348E+01
DAV:  10    -0.773261760878E+03   -0.35948E+02   -0.39155E+01 41290   0.151E+01    0.336E+01
DAV:  11    -0.790837670147E+03   -0.17576E+02   -0.31513E+01 39300   0.112E+01    0.188E+01
DAV:  12    -0.793463770340E+03   -0.26261E+01   -0.68907E+00 40410   0.771E+00    0.148E+01
DAV:  13    -0.794836762368E+03   -0.13730E+01   -0.57719E+00 41410   0.531E+00    0.830E+00
DAV:  14    -0.795645682882E+03   -0.80892E+00   -0.12234E+00 39390   0.280E+00    0.493E+00
DAV:  15    -0.796030567029E+03   -0.38488E+00   -0.35545E-01 36320   0.157E+00    0.312E+00
DAV:  16    -0.796200785209E+03   -0.17022E+00   -0.18442E-01 37180   0.120E+00    0.165E+00
DAV:  17    -0.796235887484E+03   -0.35102E-01   -0.62542E-02 35550   0.739E-01    0.943E-01
DAV:  18    -0.796242794041E+03   -0.69066E-02   -0.14475E-02 34330   0.367E-01    0.629E-01
DAV:  19    -0.796248499648E+03   -0.57056E-02   -0.45477E-03 36530   0.217E-01    0.502E-01
DAV:  20    -0.796254233321E+03   -0.57337E-02   -0.36238E-03 39840   0.178E-01    0.369E-01
DAV:  21    -0.796257488234E+03   -0.32549E-02   -0.29319E-03 38260   0.129E-01    0.314E-01
DAV:  22    -0.796259905093E+03   -0.24169E-02   -0.14991E-03 39470   0.976E-02    0.278E-01
DAV:  23    -0.796263086158E+03   -0.31811E-02   -0.21205E-03 42820   0.130E-01    0.234E-01
DAV:  24    -0.796266225332E+03   -0.31392E-02   -0.43161E-03 42380   0.185E-01    0.191E-01
DAV:  25    -0.796268197534E+03   -0.19722E-02   -0.39621E-03 40310   0.149E-01    0.151E-01
DAV:  26    -0.796269274490E+03   -0.10770E-02   -0.19262E-03 38800   0.102E-01    0.111E-01
DAV:  27    -0.796269821500E+03   -0.54701E-03   -0.86791E-04 36020   0.551E-02    0.839E-02
DAV:  28    -0.796270084127E+03   -0.26263E-03   -0.22652E-04 34050   0.335E-02    0.641E-02
DAV:  29    -0.796270269883E+03   -0.18576E-03   -0.23908E-04 39530   0.408E-02    0.524E-02
DAV:  30    -0.796270396997E+03   -0.12711E-03   -0.20899E-04 34510   0.292E-02    0.448E-02
DAV:  31    -0.796270487728E+03   -0.90731E-04   -0.94582E-05 33200   0.238E-02    0.376E-02
DAV:  32    -0.796270569439E+03   -0.81711E-04   -0.15489E-04 38280   0.346E-02    0.281E-02
DAV:  33    -0.796270622828E+03   -0.53389E-04   -0.13438E-04 34760   0.237E-02    0.232E-02
DAV:  34    -0.796270648319E+03   -0.25491E-04   -0.36547E-05 23440   0.120E-02    0.156E-02
DAV:  35    -0.796270660215E+03   -0.11896E-04   -0.13053E-05 20470   0.780E-03    0.133E-02
DAV:  36    -0.796270667808E+03   -0.75932E-05   -0.75019E-06 19080   0.857E-03
   1 F= -.79627067E+03 E0= -.79627067E+03  d E =-.796271E+03  mag=    47.0011
       N       E                     dE             d eps       ncg     rms          rms(c)
DAV:   1    -0.796278276254E+03   -0.76160E-02   -0.15883E-02 36170   0.480E-01    0.594E-02
DAV:   2    -0.796278523982E+03   -0.24773E-03   -0.25958E-03 33590   0.947E-02    0.446E-02
DAV:   3    -0.796278539320E+03   -0.15338E-04   -0.85288E-05 34770   0.240E-02    0.244E-02
DAV:   4    -0.796278539338E+03   -0.17666E-07   -0.64904E-06 17430   0.886E-03
   2 F= -.79627854E+03 E0= -.79627854E+03  d E =-.787153E-02  mag=    47.0001
       N       E                     dE             d eps       ncg     rms          rms(c)
DAV:   1    -0.796158733372E+03    0.11981E+00   -0.20232E+01 35630   0.171E+01    0.209E+00
DAV:   2    -0.796468658903E+03   -0.30993E+00   -0.32864E+00 33570   0.336E+00    0.157E+00
DAV:   3    -0.796487353557E+03   -0.18695E-01   -0.10933E-01 40320   0.848E-01    0.840E-01
DAV:   4    -0.796486348963E+03    0.10046E-02   -0.10639E-02 43510   0.309E-01    0.627E-01
DAV:   5    -0.796486285697E+03    0.63265E-04   -0.74897E-03 41380   0.252E-01    0.246E-01
DAV:   6    -0.796486470656E+03   -0.18496E-03   -0.14326E-03 40910   0.137E-01    0.133E-01
DAV:   7    -0.796486536542E+03   -0.65887E-04   -0.69476E-04 42420   0.640E-02    0.786E-02
DAV:   8    -0.796486581918E+03   -0.45375E-04   -0.70836E-05 36860   0.285E-02    0.563E-02
DAV:   9    -0.796486640906E+03   -0.58988E-04   -0.61440E-05 36700   0.223E-02    0.434E-02
DAV:  10    -0.796486676884E+03   -0.35978E-04   -0.29632E-05 25420   0.154E-02    0.366E-02
DAV:  11    -0.796486710516E+03   -0.33632E-04   -0.21449E-05 24670   0.131E-02    0.313E-02
DAV:  12    -0.796486755654E+03   -0.45138E-04   -0.40199E-05 30860   0.187E-02    0.247E-02
DAV:  13    -0.796486790267E+03   -0.34613E-04   -0.79153E-05 34810   0.213E-02    0.187E-02
DAV:  14    -0.796486808564E+03   -0.18297E-04   -0.39312E-05 24000   0.133E-02    0.145E-02
DAV:  15    -0.796486815872E+03   -0.73084E-05   -0.11297E-05 20310   0.721E-03
   3 F= -.79648682E+03 E0= -.79648682E+03  d E =-.208277E+00  mag=    47.0000
       N       E                     dE             d eps       ncg     rms          rms(c)
DAV:   1    -0.796249985846E+03    0.23682E+00   -0.18345E+01 35670   0.162E+01    0.198E+00
DAV:   2    -0.796528889621E+03   -0.27890E+00   -0.29339E+00 33590   0.315E+00    0.141E+00
DAV:   3    -0.796546018463E+03   -0.17129E-01   -0.93730E-02 40010   0.785E-01    0.760E-01
DAV:   4    -0.796545199302E+03    0.81916E-03   -0.89211E-03 43530   0.285E-01    0.550E-01
DAV:   5    -0.796545232069E+03   -0.32766E-04   -0.60465E-03 42390   0.227E-01    0.220E-01
DAV:   6    -0.796545403476E+03   -0.17141E-03   -0.11716E-03 41340   0.125E-01    0.120E-01
DAV:   7    -0.796545473550E+03   -0.70073E-04   -0.56486E-04 42070   0.581E-02    0.742E-02
DAV:   8    -0.796545522481E+03   -0.48932E-04   -0.61626E-05 35250   0.263E-02    0.557E-02
DAV:   9    -0.796545588295E+03   -0.65813E-04   -0.59070E-05 36330   0.212E-02    0.442E-02
DAV:  10    -0.796545630763E+03   -0.42469E-04   -0.31197E-05 25730   0.154E-02    0.382E-02
DAV:  11    -0.796545671278E+03   -0.40515E-04   -0.24392E-05 27130   0.140E-02    0.330E-02
DAV:  12    -0.796545728194E+03   -0.56915E-04   -0.50217E-05 32530   0.229E-02    0.259E-02
DAV:  13    -0.796545769863E+03   -0.41670E-04   -0.12759E-04 34930   0.246E-02    0.197E-02
DAV:  14    -0.796545793252E+03   -0.23389E-04   -0.51372E-05 24260   0.138E-02    0.156E-02
DAV:  15    -0.796545801375E+03   -0.81230E-05   -0.10249E-05 19700   0.668E-03
   4 F= -.79654580E+03 E0= -.79654580E+03  d E =-.589855E-01  mag=    47.0000
       N       E                     dE             d eps       ncg     rms          rms(c)
DAV:   1    -0.796538273517E+03    0.75197E-02   -0.66689E-01 35350   0.231E+00    0.271E-01
DAV:   2    -0.796544025410E+03   -0.57519E-02   -0.59415E-02 33420   0.453E-01    0.223E-01
DAV:   3    -0.796544231324E+03   -0.20591E-03   -0.16718E-03 39390   0.108E-01    0.114E-01
DAV:   4    -0.796544208053E+03    0.23271E-04   -0.17470E-04 44220   0.429E-02    0.980E-02
DAV:   5    -0.796544201052E+03    0.70010E-05   -0.14506E-04 39850   0.321E-02    0.332E-02
DAV:   6    -0.796544211255E+03   -0.10203E-04   -0.33150E-05 29010   0.153E-02    0.236E-02
DAV:   7    -0.796544215259E+03   -0.40041E-05   -0.94584E-06 17230   0.804E-03
   5 F= -.79654422E+03 E0= -.79654422E+03  d E =0.158612E-02  mag=    47.0000
       N       E                     dE             d eps       ncg     rms          rms(c)
DAV:   1    -0.794838914662E+03    0.17053E+01   -0.19035E+02 34340   0.367E+01    0.435E+00
DAV:   2    -0.796308209166E+03   -0.14693E+01   -0.15043E+01 33310   0.724E+00    0.371E+00
DAV:   3    -0.796348166061E+03   -0.39957E-01   -0.36282E-01 37230   0.166E+00    0.184E+00
DAV:   4    -0.796342874599E+03    0.52915E-02   -0.39759E-02 43620   0.681E-01    0.166E+00
DAV:   5    -0.796340478812E+03    0.23958E-02   -0.30181E-02 42440   0.479E-01    0.525E-01
DAV:   6    -0.796343078592E+03   -0.25998E-02   -0.80154E-03 39220   0.215E-01    0.325E-01
DAV:   7    -0.796343624403E+03   -0.54581E-03   -0.12448E-03 39590   0.100E-01    0.242E-01
DAV:   8    -0.796344348689E+03   -0.72429E-03   -0.53598E-04 41900   0.786E-02    0.188E-01
DAV:   9    -0.796345184578E+03   -0.83589E-03   -0.73779E-04 41630   0.772E-02    0.145E-01
DAV:  10    -0.796345673166E+03   -0.48859E-03   -0.52040E-04 39550   0.499E-02    0.125E-01
DAV:  11    -0.796346241515E+03   -0.56835E-03   -0.41921E-04 43590   0.579E-02    0.101E-01
DAV:  12    -0.796346753135E+03   -0.51162E-03   -0.10014E-03 42160   0.871E-02    0.727E-02
DAV:  13    -0.796347028735E+03   -0.27560E-03   -0.78905E-04 41530   0.638E-02    0.523E-02
DAV:  14    -0.796347158775E+03   -0.13004E-03   -0.24455E-04 34700   0.297E-02    0.389E-02
DAV:  15    -0.796347198627E+03   -0.39852E-04   -0.36822E-05 23980   0.121E-02    0.321E-02
DAV:  16    -0.796347229496E+03   -0.30869E-04   -0.13913E-05 21880   0.122E-02    0.262E-02
DAV:  17    -0.796347260348E+03   -0.30852E-04   -0.58241E-05 32030   0.189E-02    0.221E-02
DAV:  18    -0.796347276910E+03   -0.16563E-04   -0.33314E-05 24050   0.113E-02    0.180E-02
DAV:  19    -0.796347290544E+03   -0.13634E-04   -0.12292E-05 22710   0.109E-02    0.153E-02
DAV:  20    -0.796347301931E+03   -0.11387E-04   -0.34958E-05 29720   0.137E-02    0.113E-02
DAV:  21    -0.796347309801E+03   -0.78701E-05   -0.19762E-05 21980   0.869E-03
   6 F= -.79634731E+03 E0= -.79634731E+03  d E =0.196905E+00  mag=    47.0000
       N       E                     dE             d eps       ncg     rms          rms(c)
DAV:   1    -0.792252999374E+03    0.40943E+01   -0.39703E+02 34650   0.555E+01    0.683E+00
DAV:   2    -0.795530531771E+03   -0.32775E+01   -0.33529E+01 33450   0.108E+01    0.511E+00
DAV:   3    -0.795650686593E+03   -0.12015E+00   -0.78120E-01 38140   0.228E+00    0.259E+00
DAV:   4    -0.795637576235E+03    0.13110E-01   -0.81195E-02 44040   0.930E-01    0.216E+00
DAV:   5    -0.795636575577E+03    0.10007E-02   -0.57088E-02 41610   0.664E-01    0.731E-01
DAV:   6    -0.795641431178E+03   -0.48556E-02   -0.15226E-02 40160   0.334E-01    0.470E-01
DAV:   7    -0.795642530194E+03   -0.10990E-02   -0.31192E-03 39720   0.164E-01    0.325E-01
DAV:   8    -0.795643807400E+03   -0.12772E-02   -0.10750E-03 41940   0.112E-01    0.250E-01
DAV:   9    -0.795645195474E+03   -0.13881E-02   -0.12057E-03 40640   0.973E-02    0.194E-01
DAV:  10    -0.795646119927E+03   -0.92445E-03   -0.90362E-04 40100   0.686E-02    0.166E-01
DAV:  11    -0.795647109422E+03   -0.98949E-03   -0.72202E-04 43360   0.772E-02    0.132E-01
DAV:  12    -0.795647984793E+03   -0.87537E-03   -0.13931E-03 42930   0.107E-01    0.955E-02
DAV:  13    -0.795648452507E+03   -0.46771E-03   -0.12491E-03 41580   0.807E-02    0.700E-02
DAV:  14    -0.795648660322E+03   -0.20782E-03   -0.36784E-04 36630   0.385E-02    0.508E-02
DAV:  15    -0.795648728984E+03   -0.68661E-04   -0.75023E-05 26380   0.164E-02    0.417E-02
DAV:  16    -0.795648782198E+03   -0.53214E-04   -0.23647E-05 25000   0.143E-02    0.331E-02
DAV:  17    -0.795648834752E+03   -0.52554E-04   -0.70285E-05 34930   0.230E-02    0.274E-02
DAV:  18    -0.795648863903E+03   -0.29151E-04   -0.47717E-05 24620   0.139E-02    0.238E-02
DAV:  19    -0.795648888167E+03   -0.24264E-04   -0.16987E-05 25800   0.123E-02    0.202E-02
DAV:  20    -0.795648912096E+03   -0.23929E-04   -0.52824E-05 32890   0.184E-02    0.156E-02
DAV:  21    -0.795648929230E+03   -0.17134E-04   -0.37436E-05 24440   0.120E-02    0.132E-02
DAV:  22    -0.795648937058E+03   -0.78276E-05   -0.99368E-06 20370   0.652E-03
   7 F= -.79564894E+03 E0= -.79564894E+03  d E =0.698373E+00  mag=    47.0000
       N       E                     dE             d eps       ncg     rms          rms(c)
DAV:   1    -0.795251489654E+03    0.39744E+00   -0.41345E+01 35210   0.217E+01    0.278E+00
DAV:   2    -0.795781770153E+03   -0.53028E+00   -0.55963E+00 33520   0.441E+00    0.231E+00
DAV:   3    -0.795806455571E+03   -0.24685E-01   -0.19405E-01 40340   0.111E+00    0.119E+00
DAV:   4    -0.795803625643E+03    0.28299E-02   -0.21721E-02 44350   0.449E-01    0.101E+00
DAV:   5    -0.795802027255E+03    0.15984E-02   -0.15436E-02 38780   0.340E-01    0.325E-01
DAV:   6    -0.795802467835E+03   -0.44058E-03   -0.31557E-03 40340   0.169E-01    0.197E-01
DAV:   7    -0.795802547519E+03   -0.79684E-04   -0.12100E-03 41990   0.824E-02    0.115E-01
DAV:   8    -0.795802612025E+03   -0.64506E-04   -0.13239E-04 39590   0.409E-02    0.775E-02
DAV:   9    -0.795802686332E+03   -0.74307E-04   -0.10670E-04 39720   0.314E-02    0.553E-02
DAV:  10    -0.795802736641E+03   -0.50310E-04   -0.52124E-05 30470   0.194E-02    0.435E-02
DAV:  11    -0.795802775738E+03   -0.39096E-04   -0.28231E-05 23160   0.136E-02    0.377E-02
DAV:  12    -0.795802830249E+03   -0.54511E-04   -0.33165E-05 30020   0.181E-02    0.309E-02
DAV:  13    -0.795802878032E+03   -0.47783E-04   -0.77055E-05 34260   0.212E-02    0.238E-02
DAV:  14    -0.795802907267E+03   -0.29235E-04   -0.55484E-05 30000   0.184E-02    0.194E-02
DAV:  15    -0.795802922419E+03   -0.15152E-04   -0.31929E-05 23350   0.117E-02    0.135E-02
DAV:  16    -0.795802929673E+03   -0.72533E-05   -0.91102E-06 19830   0.687E-03
   8 F= -.79580293E+03 E0= -.79580293E+03  d E =-.153993E+00  mag=    47.0000
       N       E                     dE             d eps       ncg     rms          rms(c)
DAV:   1    -0.795766075031E+03    0.36847E-01   -0.14501E+01 34370   0.102E+01    0.117E+00
DAV:   2    -0.795865316829E+03   -0.99242E-01   -0.10231E+00 33360   0.202E+00    0.125E+00
DAV:   3    -0.795867938135E+03   -0.26213E-02   -0.27775E-02 36310   0.492E-01    0.649E-01
DAV:   4    -0.795867774440E+03    0.16370E-03   -0.28847E-03 42040   0.189E-01    0.600E-01
DAV:   5    -0.795867447783E+03    0.32666E-03   -0.29103E-03 42660   0.155E-01    0.184E-01
DAV:   6    -0.795867593103E+03   -0.14532E-03   -0.73783E-04 42290   0.745E-02    0.915E-02
DAV:   7    -0.795867607298E+03   -0.14196E-04   -0.13777E-04 38630   0.322E-02    0.649E-02
DAV:   8    -0.795867630210E+03   -0.22912E-04   -0.26227E-05 25500   0.188E-02    0.477E-02
DAV:   9    -0.795867665941E+03   -0.35730E-04   -0.40895E-05 32900   0.178E-02    0.328E-02
DAV:  10    -0.795867688214E+03   -0.22273E-04   -0.22674E-05 22280   0.109E-02    0.286E-02
DAV:  11    -0.795867710124E+03   -0.21910E-04   -0.11083E-05 18890   0.939E-03    0.256E-02
DAV:  12    -0.795867738374E+03   -0.28250E-04   -0.23500E-05 28020   0.137E-02    0.207E-02
DAV:  13    -0.795867763316E+03   -0.24942E-04   -0.57753E-05 33620   0.195E-02    0.151E-02
DAV:  14    -0.795867779426E+03   -0.16109E-04   -0.49964E-05 25100   0.134E-02    0.123E-02
DAV:  15    -0.795867785893E+03   -0.64670E-05   -0.97387E-06 20750   0.626E-03
   9 F= -.79586779E+03 E0= -.79586779E+03  d E =-.648562E-01  mag=    47.0000
       N       E                     dE             d eps       ncg     rms          rms(c)
DAV:   1    -0.795732764160E+03    0.13502E+00   -0.25177E+01 34450   0.137E+01    0.154E+00
DAV:   2    -0.795907991797E+03   -0.17523E+00   -0.18066E+00 33340   0.263E+00    0.144E+00
DAV:   3    -0.795913910320E+03   -0.59185E-02   -0.46408E-02 37650   0.625E-01    0.724E-01
DAV:   4    -0.795913429716E+03    0.48060E-03   -0.48431E-03 42780   0.244E-01    0.657E-01
DAV:   5    -0.795913029609E+03    0.40011E-03   -0.43164E-03 42120   0.189E-01    0.202E-01
DAV:   6    -0.795913314979E+03   -0.28537E-03   -0.11252E-03 41550   0.900E-02    0.108E-01
DAV:   7    -0.795913338840E+03   -0.23861E-04   -0.19906E-04 40650   0.396E-02    0.744E-02
DAV:   8    -0.795913376344E+03   -0.37504E-04   -0.40223E-05 29060   0.227E-02    0.556E-02
DAV:   9    -0.795913430835E+03   -0.54491E-04   -0.58363E-05 35680   0.214E-02    0.404E-02
DAV:  10    -0.795913465465E+03   -0.34630E-04   -0.32155E-05 23550   0.128E-02    0.352E-02
DAV:  11    -0.795913499072E+03   -0.33607E-04   -0.16074E-05 23580   0.112E-02    0.317E-02
DAV:  12    -0.795913546029E+03   -0.46958E-04   -0.37304E-05 31080   0.189E-02    0.252E-02
DAV:  13    -0.795913585039E+03   -0.39010E-04   -0.11224E-04 36500   0.246E-02    0.183E-02
DAV:  14    -0.795913608749E+03   -0.23709E-04   -0.55759E-05 27610   0.152E-02    0.157E-02
DAV:  15    -0.795913618057E+03   -0.93082E-05   -0.13305E-05 20630   0.763E-03
  10 F= -.79591362E+03 E0= -.79591362E+03  d E =-.458322E-01  mag=    47.0000
       N       E                     dE             d eps       ncg     rms          rms(c)
DAV:   1    -0.794792599303E+03    0.11210E+01   -0.14145E+02 35020   0.342E+01    0.378E+00
DAV:   2    -0.795887062102E+03   -0.10945E+01   -0.11177E+01 32890   0.638E+00    0.277E+00
DAV:   3    -0.795930535170E+03   -0.43473E-01   -0.23640E-01 38890   0.132E+00    0.140E+00
DAV:   4    -0.795927244447E+03    0.32907E-02   -0.24127E-02 43790   0.526E-01    0.117E+00
DAV:   5    -0.795926407351E+03    0.83710E-03   -0.15932E-02 44200   0.390E-01    0.363E-01
DAV:   6    -0.795928042505E+03   -0.16352E-02   -0.45519E-03 40650   0.178E-01    0.215E-01
DAV:   7    -0.795928162834E+03   -0.12033E-03   -0.46777E-04 39770   0.771E-02    0.140E-01
DAV:   8    -0.795928363689E+03   -0.20085E-03   -0.21621E-04 42240   0.492E-02    0.105E-01
DAV:   9    -0.795928586335E+03   -0.22265E-03   -0.21015E-04 41300   0.415E-02    0.816E-02
DAV:  10    -0.795928718695E+03   -0.13236E-03   -0.11929E-04 33370   0.241E-02    0.717E-02
DAV:  11    -0.795928925910E+03   -0.20722E-03   -0.12038E-04 36950   0.321E-02    0.606E-02
DAV:  12    -0.795929166829E+03   -0.24092E-03   -0.45388E-04 43320   0.641E-02    0.458E-02
DAV:  13    -0.795929308142E+03   -0.14131E-03   -0.37585E-04 40960   0.426E-02    0.370E-02
DAV:  14    -0.795929369664E+03   -0.61522E-04   -0.75176E-05 31680   0.203E-02    0.281E-02
DAV:  15    -0.795929394844E+03   -0.25181E-04   -0.32107E-05 22000   0.112E-02    0.236E-02
DAV:  16    -0.795929412309E+03   -0.17465E-04   -0.11173E-05 22230   0.907E-03    0.194E-02
DAV:  17    -0.795929428350E+03   -0.16041E-04   -0.19986E-05 25170   0.114E-02    0.155E-02
DAV:  18    -0.795929439785E+03   -0.11435E-04   -0.19735E-05 23970   0.890E-03    0.135E-02
DAV:  19    -0.795929447652E+03   -0.78667E-05   -0.95535E-06 18970   0.689E-03
  11 F= -.79592945E+03 E0= -.79592945E+03  d E =-.158296E-01  mag=    47.0000
       N       E                     dE             d eps       ncg     rms          rms(c)
DAV:   1    -0.793024821972E+03    0.29046E+01   -0.33391E+02 34510   0.533E+01    0.614E+00
DAV:   2    -0.795777180481E+03   -0.27524E+01   -0.28192E+01 33300   0.103E+01    0.538E+00
DAV:   3    -0.795868433239E+03   -0.91253E-01   -0.68890E-01 36770   0.244E+00    0.268E+00
DAV:   4    -0.795862531643E+03    0.59016E-02   -0.73292E-02 42780   0.976E-01    0.238E+00
DAV:   5    -0.795857725909E+03    0.48057E-02   -0.56032E-02 42750   0.712E-01    0.714E-01
DAV:   6    -0.795861654092E+03   -0.39282E-02   -0.13952E-02 41390   0.309E-01    0.363E-01
DAV:   7    -0.795861884326E+03   -0.23023E-03   -0.21253E-03 39720   0.135E-01    0.244E-01
DAV:   8    -0.795862263109E+03   -0.37878E-03   -0.54711E-04 41240   0.793E-02    0.173E-01
DAV:   9    -0.795862758222E+03   -0.49511E-03   -0.51591E-04 42260   0.655E-02    0.125E-01
DAV:  10    -0.795863064963E+03   -0.30674E-03   -0.31225E-04 39170   0.398E-02    0.107E-01
DAV:  11    -0.795863417214E+03   -0.35225E-03   -0.18261E-04 41820   0.382E-02    0.928E-02
DAV:  12    -0.795863837250E+03   -0.42004E-03   -0.38701E-04 42650   0.580E-02    0.734E-02
DAV:  13    -0.795864140365E+03   -0.30311E-03   -0.59309E-04 42380   0.669E-02    0.585E-02
DAV:  14    -0.795864308742E+03   -0.16838E-03   -0.40472E-04 39760   0.462E-02    0.429E-02
DAV:  15    -0.795864384347E+03   -0.75605E-04   -0.12049E-04 31260   0.217E-02    0.317E-02
DAV:  16    -0.795864411263E+03   -0.26916E-04   -0.25573E-05 22360   0.973E-03    0.247E-02
DAV:  17    -0.795864430958E+03   -0.19695E-04   -0.10524E-05 21550   0.100E-02    0.188E-02
DAV:  18    -0.795864446141E+03   -0.15184E-04   -0.23523E-05 27310   0.114E-02    0.154E-02
DAV:  19    -0.795864456312E+03   -0.10171E-04   -0.14757E-05 20820   0.785E-03    0.135E-02
DAV:  20    -0.795864465104E+03   -0.87920E-05   -0.84326E-06 18860   0.782E-03
  12 F= -.79586447E+03 E0= -.79586447E+03  d E =0.649825E-01  mag=    47.0000
       N       E                     dE             d eps       ncg     rms          rms(c)
DAV:   1    -0.795302507631E+03    0.56195E+00   -0.50105E+01 35130   0.227E+01    0.275E+00
DAV:   2    -0.795838310431E+03   -0.53580E+00   -0.55795E+00 33530   0.457E+00    0.238E+00
DAV:   3    -0.795861845189E+03   -0.23535E-01   -0.18579E-01 38720   0.116E+00    0.123E+00
DAV:   4    -0.795859796747E+03    0.20484E-02   -0.19223E-02 43860   0.446E-01    0.105E+00
DAV:   5    -0.795858641837E+03    0.11549E-02   -0.15480E-02 40830   0.345E-01    0.338E-01
DAV:   6    -0.795859098921E+03   -0.45708E-03   -0.31751E-03 41320   0.168E-01    0.195E-01
DAV:   7    -0.795859167562E+03   -0.68640E-04   -0.11100E-03 41100   0.768E-02    0.109E-01
DAV:   8    -0.795859236772E+03   -0.69210E-04   -0.11835E-04 39600   0.397E-02    0.823E-02
DAV:   9    -0.795859328050E+03   -0.91278E-04   -0.11361E-04 40420   0.308E-02    0.597E-02
DAV:  10    -0.795859385147E+03   -0.57097E-04   -0.57420E-05 29690   0.202E-02    0.497E-02
DAV:  11    -0.795859443628E+03   -0.58481E-04   -0.42848E-05 30360   0.170E-02    0.431E-02
DAV:  12    -0.795859520874E+03   -0.77246E-04   -0.58066E-05 32880   0.227E-02    0.358E-02
DAV:  13    -0.795859589688E+03   -0.68814E-04   -0.12583E-04 37300   0.297E-02    0.280E-02
DAV:  14    -0.795859630263E+03   -0.40575E-04   -0.96137E-05 33850   0.225E-02    0.230E-02
DAV:  15    -0.795859650211E+03   -0.19948E-04   -0.36089E-05 22810   0.120E-02    0.164E-02
DAV:  16    -0.795859658866E+03   -0.86551E-05   -0.94946E-06 19930   0.655E-03
  13 F= -.79585966E+03 E0= -.79585966E+03  d E =0.480624E-02  mag=    47.0000
       N       E                     dE             d eps       ncg     rms          rms(c)
DAV:   1    -0.795848868589E+03    0.10782E-01   -0.26188E+00 34870   0.555E+00    0.715E-01
DAV:   2    -0.795885283900E+03   -0.36415E-01   -0.38870E-01 33610   0.114E+00    0.566E-01
DAV:   3    -0.795887113262E+03   -0.18294E-02   -0.14465E-02 40480   0.295E-01    0.297E-01
DAV:   4    -0.795886871725E+03    0.24154E-03   -0.15715E-03 44500   0.117E-01    0.237E-01
DAV:   5    -0.795886764392E+03    0.10733E-03   -0.11136E-03 38300   0.851E-02    0.798E-02
DAV:   6    -0.795886784843E+03   -0.20451E-04   -0.19345E-04 39400   0.426E-02    0.507E-02
DAV:   7    -0.795886790355E+03   -0.55127E-05   -0.87224E-05 37140   0.211E-02
  14 F= -.79588679E+03 E0= -.79588679E+03  d E =-.271315E-01  mag=    47.0000
       N       E                     dE             d eps       ncg     rms          rms(c)
DAV:   1    -0.795833889139E+03    0.52896E-01   -0.74398E+00 34700   0.798E+00    0.894E-01
DAV:   2    -0.795893213211E+03   -0.59324E-01   -0.61092E-01 33310   0.151E+00    0.743E-01
DAV:   3    -0.795895578411E+03   -0.23652E-02   -0.15422E-02 38160   0.351E-01    0.368E-01
DAV:   4    -0.795895401205E+03    0.17721E-03   -0.16413E-03 42920   0.143E-01    0.325E-01
DAV:   5    -0.795895296606E+03    0.10460E-03   -0.12361E-03 42220   0.103E-01    0.977E-02
DAV:   6    -0.795895377338E+03   -0.80732E-04   -0.31816E-04 40810   0.472E-02    0.556E-02
DAV:   7    -0.795895382791E+03   -0.54531E-05   -0.53985E-05 32340   0.204E-02
  15 F= -.79589538E+03 E0= -.79589538E+03  d E =-.859244E-02  mag=    47.0000
       N       E                     dE             d eps       ncg     rms          rms(c)
DAV:   1    -0.795182148482E+03    0.71323E+00   -0.87517E+01 35020   0.271E+01    0.303E+00
DAV:   2    -0.795859951420E+03   -0.67780E+00   -0.69210E+00 32950   0.498E+00    0.222E+00
DAV:   3    -0.795888725353E+03   -0.28774E-01   -0.14867E-01 38830   0.107E+00    0.110E+00
DAV:   4    -0.795886832363E+03    0.18930E-02   -0.15537E-02 43090   0.446E-01    0.936E-01
DAV:   5    -0.795886168607E+03    0.66376E-03   -0.10157E-02 44150   0.317E-01    0.278E-01
DAV:   6    -0.795887113642E+03   -0.94503E-03   -0.28141E-03 40960   0.140E-01    0.163E-01
DAV:   7    -0.795887151803E+03   -0.38161E-04   -0.29356E-04 39800   0.580E-02    0.986E-02
DAV:   8    -0.795887222733E+03   -0.70930E-04   -0.10870E-04 38890   0.360E-02    0.701E-02
DAV:   9    -0.795887297489E+03   -0.74757E-04   -0.95354E-05 37680   0.280E-02    0.516E-02
DAV:  10    -0.795887340622E+03   -0.43133E-04   -0.44375E-05 23750   0.163E-02    0.447E-02
DAV:  11    -0.795887403495E+03   -0.62872E-04   -0.31268E-05 28070   0.174E-02    0.388E-02
DAV:  12    -0.795887483355E+03   -0.79860E-04   -0.11938E-04 36590   0.322E-02    0.288E-02
DAV:  13    -0.795887532147E+03   -0.48792E-04   -0.15478E-04 35970   0.269E-02    0.233E-02
DAV:  14    -0.795887555762E+03   -0.23614E-04   -0.43257E-05 25950   0.140E-02    0.174E-02
DAV:  15    -0.795887565101E+03   -0.93393E-05   -0.13040E-05 20570   0.759E-03
  16 F= -.79588757E+03 E0= -.79588757E+03  d E =0.781769E-02  mag=    47.0000
       N       E                     dE             d eps       ncg     rms          rms(c)
DAV:   1    -0.791187554994E+03    0.47000E+01   -0.54064E+02 35120   0.692E+01    0.789E+00
DAV:   2    -0.795680047900E+03   -0.44925E+01   -0.45812E+01 31800   0.125E+01    0.474E+00
DAV:   3    -0.795888975718E+03   -0.20893E+00   -0.87025E-01 40370   0.223E+00    0.242E+00
DAV:   4    -0.795876410057E+03    0.12566E-01   -0.78342E-02 45530   0.832E-01    0.174E+00
DAV:   5    -0.795878698533E+03   -0.22885E-02   -0.39713E-02 45350   0.651E-01    0.576E-01
DAV:   6    -0.795882593066E+03   -0.38945E-02   -0.12775E-02 42540   0.351E-01    0.367E-01
DAV:   7    -0.795882716761E+03   -0.12370E-03   -0.14610E-03 39740   0.147E-01    0.196E-01
DAV:   8    -0.795883049037E+03   -0.33228E-03   -0.66436E-04 42840   0.834E-02    0.131E-01
DAV:   9    -0.795883286062E+03   -0.23703E-03   -0.35762E-04 40000   0.535E-02    0.102E-01
DAV:  10    -0.795883449384E+03   -0.16332E-03   -0.13194E-04 35890   0.323E-02    0.887E-02
DAV:  11    -0.795883673386E+03   -0.22400E-03   -0.12419E-04 36660   0.307E-02    0.757E-02
DAV:  12    -0.795884001946E+03   -0.32856E-03   -0.48537E-04 42860   0.691E-02    0.570E-02
DAV:  13    -0.795884177972E+03   -0.17603E-03   -0.53062E-04 42500   0.523E-02    0.426E-02
DAV:  14    -0.795884255529E+03   -0.77557E-04   -0.13825E-04 35420   0.281E-02    0.300E-02
DAV:  15    -0.795884288501E+03   -0.32972E-04   -0.60188E-05 25610   0.143E-02    0.233E-02
DAV:  16    -0.795884302096E+03   -0.13595E-04   -0.80001E-06 18960   0.735E-03    0.195E-02
DAV:  17    -0.795884315724E+03   -0.13629E-04   -0.11455E-05 20410   0.111E-02    0.157E-02
DAV:  18    -0.795884325307E+03   -0.95824E-05   -0.24044E-05 25280   0.946E-03
  17 F= -.79588433E+03 E0= -.79588433E+03  d E =0.323979E-02  mag=    47.0000
       N       E                     dE             d eps       ncg     rms          rms(c)
DAV:   1    -0.792832964904E+03    0.30514E+01   -0.27267E+02 34220   0.512E+01    0.660E+00
DAV:   2    -0.795652343778E+03   -0.28194E+01   -0.29229E+01 33410   0.102E+01    0.512E+00
DAV:   3    -0.795763894858E+03   -0.11155E+00   -0.88277E-01 40580   0.251E+00    0.254E+00
DAV:   4    -0.795751326314E+03    0.12569E-01   -0.98774E-02 44840   0.102E+00    0.214E+00
DAV:   5    -0.795744223390E+03    0.71029E-02   -0.63119E-02 40970   0.701E-01    0.679E-01
DAV:   6    -0.795747010596E+03   -0.27872E-02   -0.14067E-02 39270   0.335E-01    0.388E-01
DAV:   7    -0.795747292878E+03   -0.28228E-03   -0.40232E-03 41100   0.153E-01    0.226E-01
DAV:   8    -0.795747534447E+03   -0.24157E-03   -0.53956E-04 40000   0.779E-02    0.159E-01
DAV:   9    -0.795747806279E+03   -0.27183E-03   -0.42013E-04 42390   0.624E-02    0.109E-01
DAV:  10    -0.795747990012E+03   -0.18373E-03   -0.21548E-04 39520   0.377E-02    0.864E-02
DAV:  11    -0.795748136675E+03   -0.14666E-03   -0.10427E-04 37760   0.273E-02    0.751E-02
DAV:  12    -0.795748345838E+03   -0.20916E-03   -0.14207E-04 37750   0.349E-02    0.619E-02
DAV:  13    -0.795748530298E+03   -0.18446E-03   -0.24640E-04 40880   0.433E-02    0.485E-02
DAV:  14    -0.795748643289E+03   -0.11299E-03   -0.22535E-04 39100   0.396E-02    0.379E-02
DAV:  15    -0.795748698740E+03   -0.55452E-04   -0.11652E-04 32860   0.221E-02    0.268E-02
DAV:  16    -0.795748722183E+03   -0.23442E-04   -0.27379E-05 21260   0.109E-02    0.201E-02
DAV:  17    -0.795748737407E+03   -0.15224E-04   -0.14612E-05 23920   0.901E-03    0.166E-02
DAV:  18    -0.795748749392E+03   -0.11985E-04   -0.12237E-05 20610   0.926E-03    0.140E-02
DAV:  19    -0.795748757682E+03   -0.82909E-05   -0.11831E-05 20550   0.700E-03
  18 F= -.79574876E+03 E0= -.79574876E+03  d E =0.135568E+00  mag=    47.0000
       N       E                     dE             d eps       ncg     rms          rms(c)
DAV:   1    -0.795331674388E+03    0.41708E+00   -0.43422E+01 34930   0.229E+01    0.302E+00
DAV:   2    -0.795959623163E+03   -0.62795E+00   -0.67447E+00 33920   0.480E+00    0.257E+00
DAV:   3    -0.795990057985E+03   -0.30435E-01   -0.25627E-01 40980   0.125E+00    0.133E+00
DAV:   4    -0.795985883234E+03    0.41748E-02   -0.29469E-02 43510   0.525E-01    0.114E+00
DAV:   5    -0.795983449509E+03    0.24337E-02   -0.22570E-02 37300   0.372E-01    0.372E-01
DAV:   6    -0.795983820334E+03   -0.37083E-03   -0.38241E-03 38300   0.186E-01    0.232E-01
DAV:   7    -0.795983907717E+03   -0.87383E-04   -0.19004E-03 39700   0.920E-02    0.134E-01
DAV:   8    -0.795983959853E+03   -0.52136E-04   -0.16062E-04 40630   0.454E-02    0.808E-02
DAV:   9    -0.795984017592E+03   -0.57738E-04   -0.12334E-04 40930   0.370E-02    0.560E-02
DAV:  10    -0.795984054110E+03   -0.36518E-04   -0.47775E-05 29830   0.209E-02    0.398E-02
DAV:  11    -0.795984078775E+03   -0.24665E-04   -0.23640E-05 22210   0.130E-02    0.343E-02
DAV:  12    -0.795984116088E+03   -0.37313E-04   -0.23594E-05 26790   0.148E-02    0.284E-02
DAV:  13    -0.795984146294E+03   -0.30206E-04   -0.39654E-05 27380   0.148E-02    0.237E-02
DAV:  14    -0.795984167886E+03   -0.21592E-04   -0.29711E-05 28170   0.154E-02    0.186E-02
DAV:  15    -0.795984180271E+03   -0.12385E-04   -0.29789E-05 24300   0.119E-02    0.121E-02
DAV:  16    -0.795984186745E+03   -0.64739E-05   -0.11497E-05 20370   0.843E-03
  19 F= -.79598419E+03 E0= -.79598419E+03  d E =-.235429E+00  mag=    47.0000
       N       E                     dE             d eps       ncg     rms          rms(c)
DAV:   1    -0.795905993704E+03    0.78187E-01   -0.76482E+00 34890   0.894E+00    0.105E+00
DAV:   2    -0.795988685798E+03   -0.82692E-01   -0.86264E-01 33430   0.178E+00    0.889E-01
DAV:   3    -0.795992261844E+03   -0.35760E-02   -0.27086E-02 39910   0.443E-01    0.448E-01
DAV:   4    -0.795991932268E+03    0.32958E-03   -0.28706E-03 44350   0.175E-01    0.385E-01
DAV:   5    -0.795991723012E+03    0.20926E-03   -0.21488E-03 40050   0.129E-01    0.123E-01
DAV:   6    -0.795991812305E+03   -0.89292E-04   -0.47298E-04 39860   0.611E-02    0.731E-02
DAV:   7    -0.795991825310E+03   -0.13005E-04   -0.14551E-04 40740   0.289E-02    0.441E-02
DAV:   8    -0.795991837195E+03   -0.11885E-04   -0.16678E-05 22850   0.155E-02    0.330E-02
DAV:   9    -0.795991850945E+03   -0.13750E-04   -0.17923E-05 20280   0.131E-02    0.245E-02
DAV:  10    -0.795991859920E+03   -0.89744E-05   -0.12671E-05 19080   0.866E-03
  20 F= -.79599186E+03 E0= -.79599186E+03  d E =-.767317E-02  mag=    47.0000
       N       E                     dE             d eps       ncg     rms          rms(c)
DAV:   1    -0.795954534505E+03    0.37316E-01   -0.42873E+00 35420   0.623E+00    0.703E-01
DAV:   2    -0.795992277021E+03   -0.37743E-01   -0.38672E-01 33210   0.118E+00    0.531E-01
DAV:   3    -0.795993904697E+03   -0.16277E-02   -0.93142E-03 38520   0.266E-01    0.270E-01
DAV:   4    -0.795993815692E+03    0.89006E-04   -0.93704E-04 42810   0.109E-01    0.228E-01
DAV:   5    -0.795993791916E+03    0.23776E-04   -0.65016E-04 43130   0.796E-02    0.746E-02
DAV:   6    -0.795993851513E+03   -0.59597E-04   -0.17958E-04 39650   0.364E-02    0.468E-02
DAV:   7    -0.795993862291E+03   -0.10779E-04   -0.32401E-05 26810   0.164E-02    0.328E-02
DAV:   8    -0.795993876471E+03   -0.14180E-04   -0.11253E-05 18150   0.109E-02    0.271E-02
DAV:   9    -0.795993891818E+03   -0.15347E-04   -0.13399E-05 19600   0.996E-03    0.217E-02
DAV:  10    -0.795993902521E+03   -0.10703E-04   -0.11114E-05 19500   0.768E-03    0.186E-02
DAV:  11    -0.795993912580E+03   -0.10060E-04   -0.63305E-06 16870   0.761E-03    0.159E-02
DAV:  12    -0.795993926387E+03   -0.13807E-04   -0.24647E-05 26960   0.144E-02    0.113E-02
DAV:  13    -0.795993934352E+03   -0.79642E-05   -0.28228E-05 24630   0.106E-02
  21 F= -.79599393E+03 E0= -.79599393E+03  d E =-.207443E-02  mag=    47.0000
       N       E                     dE             d eps       ncg     rms          rms(c)
DAV:   1    -0.792658511177E+03    0.33354E+01   -0.36921E+02 35040   0.562E+01    0.647E+00
DAV:   2    -0.795744382922E+03   -0.30859E+01   -0.31511E+01 32600   0.104E+01    0.427E+00
DAV:   3    -0.795885045164E+03   -0.14066E+00   -0.63948E-01 40080   0.210E+00    0.216E+00
DAV:   4    -0.795877611871E+03    0.74333E-02   -0.61622E-02 43760   0.866E-01    0.169E+00
DAV:   5    -0.795877124015E+03    0.48786E-03   -0.36590E-02 44840   0.627E-01    0.569E-01
DAV:   6    -0.795881373260E+03   -0.42492E-02   -0.11025E-02 41160   0.290E-01    0.346E-01
DAV:   7    -0.795881834383E+03   -0.46112E-03   -0.13828E-03 39630   0.126E-01    0.220E-01
DAV:   8    -0.795882534398E+03   -0.70001E-03   -0.71334E-04 42740   0.843E-02    0.167E-01
DAV:   9    -0.795883057370E+03   -0.52297E-03   -0.52094E-04 40760   0.618E-02    0.135E-01
DAV:  10    -0.795883405026E+03   -0.34766E-03   -0.25990E-04 38420   0.422E-02    0.118E-01
DAV:  11    -0.795883927730E+03   -0.52270E-03   -0.36995E-04 43650   0.578E-02    0.943E-02
DAV:  12    -0.795884451692E+03   -0.52396E-03   -0.10997E-03 43020   0.101E-01    0.688E-02
DAV:  13    -0.795884706095E+03   -0.25440E-03   -0.77764E-04 42210   0.593E-02    0.520E-02
DAV:  14    -0.795884794856E+03   -0.88761E-04   -0.13398E-04 33970   0.256E-02    0.370E-02
DAV:  15    -0.795884829041E+03   -0.34185E-04   -0.48273E-05 23080   0.129E-02    0.309E-02
DAV:  16    -0.795884856261E+03   -0.27220E-04   -0.10786E-05 22330   0.112E-02    0.254E-02
DAV:  17    -0.795884882912E+03   -0.26651E-04   -0.43125E-05 30720   0.169E-02    0.208E-02
DAV:  18    -0.795884898280E+03   -0.15368E-04   -0.28784E-05 24170   0.106E-02    0.176E-02
DAV:  19    -0.795884911650E+03   -0.13371E-04   -0.11964E-05 22990   0.115E-02    0.149E-02
DAV:  20    -0.795884923360E+03   -0.11709E-04   -0.38252E-05 30550   0.154E-02    0.109E-02
DAV:  21    -0.795884931525E+03   -0.81653E-05   -0.25180E-05 22840   0.938E-03
  22 F= -.79588493E+03 E0= -.79588493E+03  d E =0.109003E+00  mag=    47.0000
       N       E                     dE             d eps       ncg     rms          rms(c)
DAV:   1    -0.793152140980E+03    0.27328E+01   -0.22833E+02 34900   0.464E+01    0.573E+00
DAV:   2    -0.795433881818E+03   -0.22817E+01   -0.23675E+01 33390   0.929E+00    0.462E+00
DAV:   3    -0.795528678046E+03   -0.94796E-01   -0.71582E-01 39840   0.222E+00    0.230E+00
DAV:   4    -0.795518962060E+03    0.97160E-02   -0.75498E-02 44660   0.909E-01    0.198E+00
DAV:   5    -0.795513972397E+03    0.49897E-02   -0.52590E-02 40240   0.629E-01    0.626E-01
DAV:   6    -0.795516407002E+03   -0.24346E-02   -0.12040E-02 39360   0.311E-01    0.381E-01
DAV:   7    -0.795516743183E+03   -0.33618E-03   -0.36790E-03 41810   0.147E-01    0.236E-01
DAV:   8    -0.795517094246E+03   -0.35106E-03   -0.49248E-04 40690   0.772E-02    0.172E-01
DAV:   9    -0.795517495318E+03   -0.40107E-03   -0.45493E-04 41440   0.669E-02    0.125E-01
DAV:  10    -0.795517799211E+03   -0.30389E-03   -0.30303E-04 39750   0.437E-02    0.103E-01
DAV:  11    -0.795518034034E+03   -0.23482E-03   -0.16003E-04 38360   0.321E-02    0.897E-02
DAV:  12    -0.795518399354E+03   -0.36532E-03   -0.29829E-04 43310   0.516E-02    0.725E-02
DAV:  13    -0.795518677285E+03   -0.27793E-03   -0.51053E-04 41640   0.597E-02    0.552E-02
DAV:  14    -0.795518825125E+03   -0.14784E-03   -0.32837E-04 40680   0.461E-02    0.421E-02
DAV:  15    -0.795518892582E+03   -0.67457E-04   -0.14319E-04 33500   0.241E-02    0.303E-02
DAV:  16    -0.795518918840E+03   -0.26259E-04   -0.30502E-05 21520   0.113E-02    0.229E-02
DAV:  17    -0.795518937777E+03   -0.18937E-04   -0.16919E-05 25890   0.105E-02    0.186E-02
DAV:  18    -0.795518951957E+03   -0.14179E-04   -0.17088E-05 22930   0.103E-02    0.158E-02
DAV:  19    -0.795518960701E+03   -0.87441E-05   -0.11503E-05 20500   0.707E-03
  23 F= -.79551896E+03 E0= -.79551896E+03  d E =0.365971E+00  mag=    47.0000
       N       E                     dE             d eps       ncg     rms          rms(c)
DAV:   1    -0.795026422405E+03    0.49253E+00   -0.48786E+01 34570   0.239E+01    0.315E+00
DAV:   2    -0.795710288574E+03   -0.68387E+00   -0.73611E+00 33880   0.507E+00    0.276E+00
DAV:   3    -0.795743326762E+03   -0.33038E-01   -0.29477E-01 41030   0.133E+00    0.143E+00
DAV:   4    -0.795738497461E+03    0.48293E-02   -0.33439E-02 42660   0.546E-01    0.124E+00
DAV:   5    -0.795735606198E+03    0.28913E-02   -0.27556E-02 37720   0.403E-01    0.421E-01
DAV:   6    -0.795735960098E+03   -0.35390E-03   -0.42645E-03 38260   0.201E-01    0.258E-01
DAV:   7    -0.795736056942E+03   -0.96843E-04   -0.25377E-03 41500   0.106E-01    0.153E-01
DAV:   8    -0.795736129461E+03   -0.72520E-04   -0.21030E-04 40990   0.516E-02    0.928E-02
DAV:   9    -0.795736209602E+03   -0.80141E-04   -0.15643E-04 41620   0.422E-02    0.645E-02
DAV:  10    -0.795736262351E+03   -0.52749E-04   -0.66716E-05 34330   0.231E-02    0.460E-02
DAV:  11    -0.795736297308E+03   -0.34956E-04   -0.29130E-05 24730   0.147E-02    0.402E-02
DAV:  12    -0.795736347869E+03   -0.50561E-04   -0.34793E-05 29190   0.168E-02    0.332E-02
DAV:  13    -0.795736392572E+03   -0.44703E-04   -0.51535E-05 31370   0.191E-02    0.272E-02
DAV:  14    -0.795736421417E+03   -0.28845E-04   -0.47433E-05 29430   0.173E-02    0.215E-02
DAV:  15    -0.795736437576E+03   -0.16159E-04   -0.31694E-05 25970   0.126E-02    0.156E-02
DAV:  16    -0.795736446723E+03   -0.91464E-05   -0.14385E-05 21150   0.861E-03
  24 F= -.79573645E+03 E0= -.79573645E+03  d E =-.217486E+00  mag=    47.0000
       N       E                     dE             d eps       ncg     rms          rms(c)
DAV:   1    -0.795717859970E+03    0.18578E-01   -0.35300E+00 35190   0.551E+00    0.656E-01
DAV:   2    -0.795749747654E+03   -0.31888E-01   -0.32828E-01 33440   0.112E+00    0.696E-01
DAV:   3    -0.795750710986E+03   -0.96333E-03   -0.10393E-02 38610   0.289E-01    0.358E-01
DAV:   4    -0.795750692618E+03    0.18368E-04   -0.10833E-03 43290   0.112E-01    0.331E-01
DAV:   5    -0.795750578734E+03    0.11388E-03   -0.10355E-03 41170   0.938E-02    0.995E-02
DAV:   6    -0.795750620320E+03   -0.41586E-04   -0.25628E-04 41480   0.438E-02    0.530E-02
DAV:   7    -0.795750628064E+03   -0.77443E-05   -0.67607E-05 33390   0.205E-02
  25 F= -.79575063E+03 E0= -.79575063E+03  d E =-.141813E-01  mag=    47.0000
       N       E                     dE             d eps       ncg     rms          rms(c)
DAV:   1    -0.795725680868E+03    0.24939E-01   -0.46069E+00 35190   0.644E+00    0.756E-01
DAV:   2    -0.795768908919E+03   -0.43228E-01   -0.44775E-01 33370   0.128E+00    0.704E-01
DAV:   3    -0.795770728561E+03   -0.18196E-02   -0.13509E-02 39880   0.321E-01    0.357E-01
DAV:   4    -0.795770685277E+03    0.43284E-04   -0.14139E-03 43830   0.131E-01    0.325E-01
DAV:   5    -0.795770632420E+03    0.52858E-04   -0.11673E-03 42180   0.102E-01    0.105E-01
DAV:   6    -0.795770707322E+03   -0.74902E-04   -0.28248E-04 39770   0.478E-02    0.640E-02
DAV:   7    -0.795770728415E+03   -0.21094E-04   -0.90745E-05 38120   0.237E-02    0.466E-02
DAV:   8    -0.795770751940E+03   -0.23525E-04   -0.16547E-05 21390   0.139E-02    0.374E-02
DAV:   9    -0.795770782012E+03   -0.30072E-04   -0.22042E-05 26700   0.146E-02    0.303E-02
DAV:  10    -0.795770806981E+03   -0.24969E-04   -0.25063E-05 25380   0.119E-02    0.261E-02
DAV:  11    -0.795770824644E+03   -0.17664E-04   -0.13916E-05 21620   0.910E-03    0.217E-02
DAV:  12    -0.795770849652E+03   -0.25008E-04   -0.23077E-05 27040   0.177E-02    0.171E-02
DAV:  13    -0.795770866254E+03   -0.16602E-04   -0.68001E-05 30720   0.166E-02    0.129E-02
DAV:  14    -0.795770875057E+03   -0.88036E-05   -0.22037E-05 20870   0.914E-03
  26 F= -.79577088E+03 E0= -.79577088E+03  d E =-.202470E-01  mag=    47.0000
       N       E                     dE             d eps       ncg     rms          rms(c)
DAV:   1    -0.795552179493E+03    0.21869E+00   -0.29110E+01 35070   0.157E+01    0.180E+00
DAV:   2    -0.795799573360E+03   -0.24739E+00   -0.25177E+00 33140   0.296E+00    0.139E+00
DAV:   3    -0.795810160839E+03   -0.10587E-01   -0.57214E-02 39660   0.653E-01    0.690E-01
DAV:   4    -0.795809767361E+03    0.39348E-03   -0.59172E-03 43550   0.274E-01    0.604E-01
DAV:   5    -0.795809693191E+03    0.74170E-04   -0.39168E-03 44110   0.200E-01    0.189E-01
DAV:   6    -0.795810118952E+03   -0.42576E-03   -0.10854E-03 39110   0.858E-02    0.117E-01
DAV:   7    -0.795810190247E+03   -0.71296E-04   -0.17327E-04 39290   0.409E-02    0.842E-02
DAV:   8    -0.795810282534E+03   -0.92287E-04   -0.70714E-05 34510   0.279E-02    0.670E-02
DAV:   9    -0.795810388316E+03   -0.10578E-03   -0.87205E-05 36390   0.277E-02    0.532E-02
DAV:  10    -0.795810456593E+03   -0.68276E-04   -0.67516E-05 31070   0.185E-02    0.458E-02
DAV:  11    -0.795810534390E+03   -0.77798E-04   -0.53271E-05 32380   0.219E-02    0.375E-02
DAV:  12    -0.795810612482E+03   -0.78092E-04   -0.14650E-04 38610   0.367E-02    0.259E-02
DAV:  13    -0.795810653842E+03   -0.41359E-04   -0.12327E-04 36050   0.252E-02    0.208E-02
DAV:  14    -0.795810671322E+03   -0.17480E-04   -0.31593E-05 22340   0.117E-02    0.148E-02
DAV:  15    -0.795810677464E+03   -0.61423E-05   -0.81206E-06 18530   0.615E-03
  27 F= -.79581068E+03 E0= -.79581068E+03  d E =-.398024E-01  mag=    47.0000
       N       E                     dE             d eps       ncg     rms          rms(c)
DAV:   1    -0.793857646406E+03    0.19530E+01   -0.22103E+02 34660   0.438E+01    0.516E+00
DAV:   2    -0.795817326022E+03   -0.19597E+01   -0.20093E+01 33140   0.827E+00    0.347E+00
DAV:   3    -0.795913489906E+03   -0.96164E-01   -0.47179E-01 40270   0.174E+00    0.176E+00
DAV:   4    -0.795908672659E+03    0.48172E-02   -0.44766E-02 42310   0.692E-01    0.136E+00
DAV:   5    -0.795908543130E+03    0.12953E-03   -0.27779E-02 44950   0.500E-01    0.481E-01
DAV:   6    -0.795911020423E+03   -0.24773E-02   -0.76257E-03 40590   0.248E-01    0.299E-01
DAV:   7    -0.795911348904E+03   -0.32848E-03   -0.18252E-03 40900   0.116E-01    0.189E-01
DAV:   8    -0.795911733751E+03   -0.38485E-03   -0.40445E-04 41920   0.649E-02    0.145E-01
DAV:   9    -0.795912147895E+03   -0.41414E-03   -0.34884E-04 41020   0.560E-02    0.117E-01
DAV:  10    -0.795912427114E+03   -0.27922E-03   -0.25313E-04 39380   0.396E-02    0.986E-02
DAV:  11    -0.795912708010E+03   -0.28090E-03   -0.16974E-04 38910   0.353E-02    0.858E-02
DAV:  12    -0.795913096361E+03   -0.38835E-03   -0.43813E-04 43320   0.637E-02    0.649E-02
DAV:  13    -0.795913336742E+03   -0.24038E-03   -0.60113E-04 42030   0.613E-02    0.491E-02
DAV:  14    -0.795913463513E+03   -0.12677E-03   -0.24788E-04 38010   0.372E-02    0.360E-02
DAV:  15    -0.795913518790E+03   -0.55276E-04   -0.84794E-05 28150   0.174E-02    0.291E-02
DAV:  16    -0.795913537204E+03   -0.18414E-04   -0.12077E-05 19280   0.776E-03    0.248E-02
DAV:  17    -0.795913559234E+03   -0.22031E-04   -0.97080E-06 20350   0.106E-02    0.205E-02
DAV:  18    -0.795913579885E+03   -0.20651E-04   -0.36416E-05 30420   0.125E-02    0.178E-02
DAV:  19    -0.795913594037E+03   -0.14152E-04   -0.16696E-05 20500   0.862E-03    0.158E-02
DAV:  20    -0.795913608705E+03   -0.14668E-04   -0.14019E-05 24000   0.108E-02    0.134E-02
DAV:  21    -0.795913621878E+03   -0.13172E-04   -0.40705E-05 31310   0.134E-02    0.111E-02
DAV:  22    -0.795913632328E+03   -0.10450E-04   -0.21522E-05 22660   0.859E-03    0.936E-03
DAV:  23    -0.795913636965E+03   -0.46372E-05   -0.50853E-06 19350   0.453E-03
  28 F= -.79591364E+03 E0= -.79591364E+03  d E =-.102960E+00  mag=    47.0000
       N       E                     dE             d eps       ncg     rms          rms(c)
DAV:   1    -0.788101788167E+03    0.78118E+01   -0.54164E+02 35520   0.779E+01    0.109E+01
DAV:   2    -0.794851381241E+03   -0.67496E+01   -0.72529E+01 33600   0.162E+01    0.795E+00
DAV:   3    -0.795183560757E+03   -0.33218E+00   -0.29440E+00 41560   0.449E+00    0.424E+00
DAV:   4    -0.795130636440E+03    0.52924E-01   -0.31645E-01 40570   0.175E+00    0.315E+00
DAV:   5    -0.795104163971E+03    0.26472E-01   -0.19929E-01 37780   0.111E+00    0.130E+00
DAV:   6    -0.795110892112E+03   -0.67281E-02   -0.36217E-02 36520   0.587E-01    0.727E-01
DAV:   7    -0.795112635036E+03   -0.17429E-02   -0.16906E-02 41610   0.303E-01    0.457E-01
DAV:   8    -0.795113900025E+03   -0.12650E-02   -0.21634E-03 40640   0.156E-01    0.310E-01
DAV:   9    -0.795115199805E+03   -0.12998E-02   -0.16666E-03 40420   0.133E-01    0.224E-01
DAV:  10    -0.795116018584E+03   -0.81878E-03   -0.92291E-04 37930   0.812E-02    0.178E-01
DAV:  11    -0.795116579149E+03   -0.56057E-03   -0.39041E-04 39830   0.522E-02    0.159E-01
DAV:  12    -0.795117487227E+03   -0.90808E-03   -0.56358E-04 43830   0.690E-02    0.134E-01
DAV:  13    -0.795118453290E+03   -0.96606E-03   -0.12547E-03 43250   0.107E-01    0.111E-01
DAV:  14    -0.795119017303E+03   -0.56401E-03   -0.10507E-03 42140   0.728E-02    0.918E-02
DAV:  15    -0.795119352263E+03   -0.33496E-03   -0.39906E-04 40040   0.562E-02    0.702E-02
DAV:  16    -0.795119572146E+03   -0.21988E-03   -0.41722E-04 37150   0.440E-02    0.538E-02
DAV:  17    -0.795119713932E+03   -0.14179E-03   -0.20222E-04 34870   0.316E-02    0.406E-02
DAV:  18    -0.795119789972E+03   -0.76040E-04   -0.99543E-05 31000   0.201E-02    0.348E-02
DAV:  19    -0.795119835121E+03   -0.45150E-04   -0.33224E-05 26090   0.146E-02    0.288E-02
DAV:  20    -0.795119882311E+03   -0.47190E-04   -0.74046E-05 36710   0.231E-02    0.244E-02
DAV:  21    -0.795119918297E+03   -0.35986E-04   -0.80533E-05 33450   0.201E-02    0.216E-02
DAV:  22    -0.795119943084E+03   -0.24787E-04   -0.39636E-05 26400   0.134E-02    0.173E-02
DAV:  23    -0.795119959677E+03   -0.16593E-04   -0.25909E-05 29050   0.125E-02    0.141E-02
DAV:  24    -0.795119971454E+03   -0.11777E-04   -0.25063E-05 25500   0.107E-02    0.113E-02
DAV:  25    -0.795119979289E+03   -0.78356E-05   -0.13377E-05 21910   0.763E-03
  29 F= -.79511998E+03 E0= -.79511998E+03  d E =0.793658E+00  mag=    47.0000
       N       E                     dE             d eps       ncg     rms          rms(c)
DAV:   1    -0.793483963555E+03    0.16360E+01   -0.17519E+02 35000   0.480E+01    0.621E+00
DAV:   2    -0.796153614505E+03   -0.26697E+01   -0.29036E+01 33600   0.101E+01    0.521E+00
DAV:   3    -0.796303417370E+03   -0.14980E+00   -0.11347E+00 41370   0.257E+00    0.277E+00
DAV:   4    -0.796287043325E+03    0.16374E-01   -0.11453E-01 42800   0.993E-01    0.231E+00
DAV:   5    -0.796277799851E+03    0.92435E-02   -0.92243E-02 38430   0.783E-01    0.813E-01
DAV:   6    -0.796280212542E+03   -0.24127E-02   -0.15703E-02 37570   0.423E-01    0.495E-01
DAV:   7    -0.796280786502E+03   -0.57396E-03   -0.97994E-03 41930   0.216E-01    0.282E-01
DAV:   8    -0.796281145332E+03   -0.35883E-03   -0.86586E-04 39830   0.100E-01    0.184E-01
DAV:   9    -0.796281542568E+03   -0.39724E-03   -0.63590E-04 42330   0.814E-02    0.137E-01
DAV:  10    -0.796281851331E+03   -0.30876E-03   -0.30746E-04 37870   0.490E-02    0.107E-01
DAV:  11    -0.796282067058E+03   -0.21573E-03   -0.17032E-04 38240   0.337E-02    0.927E-02
DAV:  12    -0.796282372179E+03   -0.30512E-03   -0.20817E-04 42730   0.407E-02    0.793E-02
DAV:  13    -0.796282663277E+03   -0.29110E-03   -0.33648E-04 42350   0.511E-02    0.652E-02
DAV:  14    -0.796282869490E+03   -0.20621E-03   -0.36417E-04 41650   0.515E-02    0.544E-02
DAV:  15    -0.796282991615E+03   -0.12213E-03   -0.24186E-04 37350   0.339E-02    0.395E-02
DAV:  16    -0.796283055978E+03   -0.64362E-04   -0.91290E-05 31500   0.220E-02    0.296E-02
DAV:  17    -0.796283093972E+03   -0.37994E-04   -0.55347E-05 27330   0.152E-02    0.229E-02
DAV:  18    -0.796283116912E+03   -0.22940E-04   -0.24609E-05 25540   0.120E-02    0.189E-02
DAV:  19    -0.796283131848E+03   -0.14935E-04   -0.18295E-05 22750   0.976E-03    0.160E-02
DAV:  20    -0.796283144404E+03   -0.12556E-04   -0.16196E-05 23370   0.112E-02    0.133E-02
DAV:  21    -0.796283154891E+03   -0.10487E-04   -0.26646E-05 28130   0.114E-02    0.107E-02
DAV:  22    -0.796283162574E+03   -0.76832E-05   -0.17106E-05 21820   0.872E-03
  30 F= -.79628316E+03 E0= -.79628316E+03  d E =-.116318E+01  mag=    47.0000
       N       E                     dE             d eps       ncg     rms          rms(c)
DAV:   1    -0.796030803569E+03    0.25235E+00   -0.21477E+01 35290   0.168E+01    0.210E+00
DAV:   2    -0.796336326740E+03   -0.30552E+00   -0.33141E+00 33900   0.342E+00    0.151E+00
DAV:   3    -0.796355564296E+03   -0.19238E-01   -0.13668E-01 40750   0.887E-01    0.838E-01
DAV:   4    -0.796353278271E+03    0.22860E-02   -0.13398E-02 44180   0.340E-01    0.618E-01
DAV:   5    -0.796352403935E+03    0.87434E-03   -0.99322E-03 38570   0.259E-01    0.245E-01
DAV:   6    -0.796352552143E+03   -0.14821E-03   -0.16334E-03 37100   0.142E-01    0.150E-01
DAV:   7    -0.796352621235E+03   -0.69091E-04   -0.95331E-04 42300   0.694E-02    0.898E-02
DAV:   8    -0.796352670124E+03   -0.48890E-04   -0.97238E-05 35720   0.309E-02    0.621E-02
DAV:   9    -0.796352723368E+03   -0.53243E-04   -0.65422E-05 36800   0.252E-02    0.451E-02
DAV:  10    -0.796352758764E+03   -0.35396E-04   -0.34533E-05 27080   0.169E-02    0.368E-02
DAV:  11    -0.796352782670E+03   -0.23906E-04   -0.17869E-05 21100   0.115E-02    0.321E-02
DAV:  12    -0.796352820628E+03   -0.37958E-04   -0.20977E-05 25960   0.149E-02    0.273E-02
DAV:  13    -0.796352859605E+03   -0.38977E-04   -0.67919E-05 32910   0.193E-02    0.212E-02
DAV:  14    -0.796352884925E+03   -0.25320E-04   -0.49584E-05 27610   0.167E-02    0.180E-02
DAV:  15    -0.796352898648E+03   -0.13722E-04   -0.25105E-05 23750   0.108E-02    0.130E-02
DAV:  16    -0.796352905651E+03   -0.70035E-05   -0.87435E-06 19480   0.711E-03
  31 F= -.79635291E+03 E0= -.79635291E+03  d E =-.697431E-01  mag=    47.0000
       N       E                     dE             d eps       ncg     rms          rms(c)
DAV:   1    -0.796364386930E+03   -0.11488E-01   -0.18372E+00 34960   0.385E+00    0.430E-01
DAV:   2    -0.796378973649E+03   -0.14587E-01   -0.14944E-01 33170   0.740E-01    0.340E-01
DAV:   3    -0.796379549830E+03   -0.57618E-03   -0.36473E-03 38410   0.169E-01    0.175E-01
DAV:   4    -0.796379508378E+03    0.41453E-04   -0.37725E-04 42340   0.707E-02    0.152E-01
DAV:   5    -0.796379499431E+03    0.89464E-05   -0.30268E-04 41920   0.512E-02    0.505E-02
DAV:   6    -0.796379529412E+03   -0.29981E-04   -0.83935E-05 36350   0.236E-02    0.345E-02
DAV:   7    -0.796379537481E+03   -0.80691E-05   -0.14478E-05 18700   0.113E-02
  32 F= -.79637954E+03 E0= -.79637954E+03  d E =-.266318E-01  mag=    47.0000
       N       E                     dE             d eps       ncg     rms          rms(c)
DAV:   1    -0.796219165722E+03    0.16036E+00   -0.31028E+01 34930   0.159E+01    0.175E+00
DAV:   2    -0.796465621498E+03   -0.24646E+00   -0.25212E+00 32980   0.299E+00    0.119E+00
DAV:   3    -0.796475585876E+03   -0.99644E-02   -0.54942E-02 39030   0.601E-01    0.640E-01
DAV:   4    -0.796474850639E+03    0.73524E-03   -0.55612E-03 43420   0.258E-01    0.520E-01
DAV:   5    -0.796474892439E+03   -0.41800E-04   -0.40244E-03 44260   0.197E-01    0.187E-01
DAV:   6    -0.796475369247E+03   -0.47681E-03   -0.12625E-03 39520   0.957E-02    0.135E-01
DAV:   7    -0.796475503878E+03   -0.13463E-03   -0.21838E-04 39410   0.435E-02    0.102E-01
DAV:   8    -0.796475704809E+03   -0.20093E-03   -0.12213E-04 39060   0.349E-02    0.854E-02
DAV:   9    -0.796475912024E+03   -0.20721E-03   -0.15767E-04 40360   0.355E-02    0.721E-02
DAV:  10    -0.796476040017E+03   -0.12799E-03   -0.11326E-04 33250   0.247E-02    0.642E-02
DAV:  11    -0.796476216493E+03   -0.17648E-03   -0.14469E-04 40140   0.358E-02    0.519E-02
DAV:  12    -0.796476378915E+03   -0.16242E-03   -0.41859E-04 42800   0.611E-02    0.385E-02
DAV:  13    -0.796476477109E+03   -0.98194E-04   -0.31415E-04 40470   0.379E-02    0.296E-02
DAV:  14    -0.796476516488E+03   -0.39379E-04   -0.64970E-05 26980   0.156E-02    0.219E-02
DAV:  15    -0.796476528153E+03   -0.11665E-04   -0.13556E-05 19220   0.751E-03    0.181E-02
DAV:  16    -0.796476537344E+03   -0.91912E-05   -0.38491E-06 16760   0.673E-03
  33 F= -.79647654E+03 E0= -.79647654E+03  d E =-.969999E-01  mag=    47.0000
       N       E                     dE             d eps       ncg     rms          rms(c)
DAV:   1    -0.795611996767E+03    0.86453E+00   -0.12046E+02 34770   0.311E+01    0.347E+00
DAV:   2    -0.796566056708E+03   -0.95406E+00   -0.97408E+00 32880   0.586E+00    0.233E+00
DAV:   3    -0.796605249520E+03   -0.39193E-01   -0.20583E-01 39170   0.117E+00    0.125E+00
DAV:   4    -0.796602685343E+03    0.25642E-02   -0.21062E-02 43700   0.494E-01    0.100E+00
DAV:   5    -0.796602927638E+03   -0.24229E-03   -0.13942E-02 44580   0.385E-01    0.363E-01
DAV:   6    -0.796604683026E+03   -0.17554E-02   -0.44663E-03 39330   0.180E-01    0.248E-01
DAV:   7    -0.796605137133E+03   -0.45411E-03   -0.71712E-04 39510   0.812E-02    0.184E-01
DAV:   8    -0.796605830195E+03   -0.69306E-03   -0.43947E-04 43290   0.640E-02    0.151E-01
DAV:   9    -0.796606484271E+03   -0.65408E-03   -0.51211E-04 41910   0.610E-02    0.129E-01
DAV:  10    -0.796606858179E+03   -0.37391E-03   -0.30682E-04 39040   0.411E-02    0.114E-01
DAV:  11    -0.796607419432E+03   -0.56125E-03   -0.43361E-04 44200   0.650E-02    0.914E-02
DAV:  12    -0.796607907776E+03   -0.48834E-03   -0.12946E-03 42850   0.103E-01    0.665E-02
DAV:  13    -0.796608195991E+03   -0.28822E-03   -0.86132E-04 42000   0.646E-02    0.505E-02
DAV:  14    -0.796608315883E+03   -0.11989E-03   -0.19802E-04 34910   0.266E-02    0.376E-02
DAV:  15    -0.796608348912E+03   -0.33029E-04   -0.29165E-05 22680   0.105E-02    0.311E-02
DAV:  16    -0.796608379504E+03   -0.30592E-04   -0.12087E-05 20540   0.124E-02    0.247E-02
DAV:  17    -0.796608408985E+03   -0.29481E-04   -0.71609E-05 34400   0.208E-02    0.205E-02
DAV:  18    -0.796608427687E+03   -0.18702E-04   -0.35799E-05 23770   0.119E-02    0.169E-02
DAV:  19    -0.796608439975E+03   -0.12288E-04   -0.10577E-05 20980   0.100E-02    0.144E-02
DAV:  20    -0.796608451080E+03   -0.11105E-04   -0.27319E-05 27770   0.125E-02    0.109E-02
DAV:  21    -0.796608458830E+03   -0.77497E-05   -0.19387E-05 22870   0.860E-03
  34 F= -.79660846E+03 E0= -.79660846E+03  d E =-.131921E+00  mag=    47.0000
       N       E                     dE             d eps       ncg     rms          rms(c)
DAV:   1    -0.794812745669E+03    0.17957E+01   -0.21810E+02 34700   0.409E+01    0.467E+00
DAV:   2    -0.796462146401E+03   -0.16494E+01   -0.16884E+01 33370   0.814E+00    0.461E+00
DAV:   3    -0.796507134367E+03   -0.44988E-01   -0.52484E-01 37900   0.211E+00    0.231E+00
DAV:   4    -0.796502804783E+03    0.43296E-02   -0.51469E-02 41720   0.807E-01    0.211E+00
DAV:   5    -0.796497240501E+03    0.55643E-02   -0.54230E-02 40900   0.632E-01    0.688E-01
DAV:   6    -0.796500172212E+03   -0.29317E-02   -0.12084E-02 39540   0.297E-01    0.378E-01
DAV:   7    -0.796500846779E+03   -0.67457E-03   -0.33886E-03 38670   0.132E-01    0.272E-01
DAV:   8    -0.796501652896E+03   -0.80612E-03   -0.57146E-04 40060   0.810E-02    0.221E-01
DAV:   9    -0.796502695422E+03   -0.10425E-02   -0.75655E-04 41710   0.866E-02    0.176E-01
DAV:  10    -0.796503458912E+03   -0.76349E-03   -0.70751E-04 39800   0.694E-02    0.151E-01
DAV:  11    -0.796504160678E+03   -0.70177E-03   -0.52524E-04 41500   0.613E-02    0.129E-01
DAV:  12    -0.796505015587E+03   -0.85491E-03   -0.11563E-03 43480   0.101E-01    0.964E-02
DAV:  13    -0.796505522038E+03   -0.50645E-03   -0.14314E-03 41860   0.940E-02    0.729E-02
DAV:  14    -0.796505777346E+03   -0.25531E-03   -0.52693E-04 39140   0.515E-02    0.504E-02
DAV:  15    -0.796505873418E+03   -0.96073E-04   -0.15797E-04 30240   0.227E-02    0.401E-02
DAV:  16    -0.796505904589E+03   -0.31171E-04   -0.18515E-05 21760   0.104E-02    0.339E-02
DAV:  17    -0.796505949227E+03   -0.44638E-04   -0.27603E-05 27410   0.203E-02    0.266E-02
DAV:  18    -0.796505980428E+03   -0.31201E-04   -0.88265E-05 31460   0.182E-02    0.234E-02
DAV:  19    -0.796505999355E+03   -0.18927E-04   -0.25842E-05 21520   0.101E-02    0.198E-02
DAV:  20    -0.796506018309E+03   -0.18954E-04   -0.17066E-05 24000   0.130E-02    0.169E-02
DAV:  21    -0.796506034076E+03   -0.15767E-04   -0.49219E-05 31410   0.152E-02    0.127E-02
DAV:  22    -0.796506044898E+03   -0.10822E-04   -0.24786E-05 22770   0.986E-03    0.976E-03
DAV:  23    -0.796506049682E+03   -0.47836E-05   -0.65246E-06 19220   0.557E-03
  35 F= -.79650605E+03 E0= -.79650605E+03  d E =0.102409E+00  mag=    47.0000
       N       E                     dE             d eps       ncg     rms          rms(c)
DAV:   1    -0.796170017877E+03    0.33603E+00   -0.37314E+01 35190   0.206E+01    0.254E+00
DAV:   2    -0.796639654996E+03   -0.46964E+00   -0.49837E+00 33590   0.425E+00    0.220E+00
DAV:   3    -0.796664137382E+03   -0.24482E-01   -0.18517E-01 39530   0.113E+00    0.113E+00
DAV:   4    -0.796662161886E+03    0.19755E-02   -0.18670E-02 42820   0.440E-01    0.943E-01
DAV:   5    -0.796661259022E+03    0.90286E-03   -0.16164E-02 39590   0.350E-01    0.329E-01
DAV:   6    -0.796661608533E+03   -0.34951E-03   -0.27287E-03 39710   0.170E-01    0.190E-01
DAV:   7    -0.796661737875E+03   -0.12934E-03   -0.14598E-03 40210   0.823E-02    0.114E-01
DAV:   8    -0.796661835866E+03   -0.97991E-04   -0.13523E-04 39920   0.393E-02    0.819E-02
DAV:   9    -0.796661940052E+03   -0.10419E-03   -0.10706E-04 40630   0.335E-02    0.628E-02
DAV:  10    -0.796662012415E+03   -0.72362E-04   -0.64385E-05 32030   0.236E-02    0.515E-02
DAV:  11    -0.796662069621E+03   -0.57206E-04   -0.45533E-05 28890   0.176E-02    0.430E-02
DAV:  12    -0.796662157968E+03   -0.88347E-04   -0.97226E-05 37310   0.296E-02    0.317E-02
DAV:  13    -0.796662208014E+03   -0.50046E-04   -0.10968E-04 35250   0.259E-02    0.249E-02
DAV:  14    -0.796662231856E+03   -0.23841E-04   -0.47244E-05 28730   0.164E-02    0.180E-02
DAV:  15    -0.796662242078E+03   -0.10223E-04   -0.19436E-05 22120   0.933E-03    0.127E-02
DAV:  16    -0.796662246249E+03   -0.41707E-05   -0.49237E-06 17570   0.537E-03
  36 F= -.79666225E+03 E0= -.79666225E+03  d E =-.156197E+00  mag=    47.0000
       N       E                     dE             d eps       ncg     rms          rms(c)
DAV:   1    -0.796644704988E+03    0.17537E-01   -0.38140E+00 34550   0.561E+00    0.651E-01
DAV:   2    -0.796675869366E+03   -0.31164E-01   -0.31895E-01 33320   0.114E+00    0.691E-01
DAV:   3    -0.796676795633E+03   -0.92627E-03   -0.10168E-02 36050   0.302E-01    0.354E-01
DAV:   4    -0.796676781861E+03    0.13773E-04   -0.10132E-03 41830   0.114E-01    0.325E-01
DAV:   5    -0.796676704247E+03    0.77614E-04   -0.10370E-03 40530   0.919E-02    0.998E-02
DAV:   6    -0.796676753098E+03   -0.48851E-04   -0.22922E-04 40440   0.411E-02    0.537E-02
DAV:   7    -0.796676767912E+03   -0.14814E-04   -0.60731E-05 31860   0.175E-02    0.398E-02
DAV:   8    -0.796676784109E+03   -0.16198E-04   -0.10078E-05 19330   0.121E-02    0.323E-02
DAV:   9    -0.796676804331E+03   -0.20222E-04   -0.16598E-05 23000   0.127E-02    0.250E-02
DAV:  10    -0.796676820035E+03   -0.15704E-04   -0.18146E-05 23160   0.101E-02    0.211E-02
DAV:  11    -0.796676833165E+03   -0.13130E-04   -0.10133E-05 18260   0.827E-03    0.178E-02
DAV:  12    -0.796676849134E+03   -0.15969E-04   -0.18382E-05 24200   0.129E-02    0.139E-02
DAV:  13    -0.796676859709E+03   -0.10575E-04   -0.33310E-05 28240   0.130E-02    0.110E-02
DAV:  14    -0.796676865841E+03   -0.61325E-05   -0.15755E-05 19970   0.751E-03
  37 F= -.79667687E+03 E0= -.79667687E+03  d E =-.146196E-01  mag=    47.0000
       N       E                     dE             d eps       ncg     rms          rms(c)
DAV:   1    -0.796641413942E+03    0.35446E-01   -0.55985E+00 35020   0.658E+00    0.756E-01
DAV:   2    -0.796683429484E+03   -0.42016E-01   -0.42767E-01 33290   0.128E+00    0.663E-01
DAV:   3    -0.796685040661E+03   -0.16112E-02   -0.11287E-02 37370   0.316E-01    0.329E-01
DAV:   4    -0.796684971340E+03    0.69321E-04   -0.11340E-03 42000   0.127E-01    0.296E-01
DAV:   5    -0.796684934990E+03    0.36351E-04   -0.10221E-03 42060   0.941E-02    0.952E-02
DAV:   6    -0.796685026512E+03   -0.91523E-04   -0.26604E-04 39100   0.431E-02    0.589E-02
DAV:   7    -0.796685049894E+03   -0.23381E-04   -0.51358E-05 31070   0.198E-02    0.464E-02
DAV:   8    -0.796685078883E+03   -0.28989E-04   -0.18041E-05 21430   0.148E-02    0.384E-02
DAV:   9    -0.796685115770E+03   -0.36887E-04   -0.29815E-05 29930   0.163E-02    0.305E-02
DAV:  10    -0.796685142013E+03   -0.26243E-04   -0.29824E-05 24000   0.123E-02    0.266E-02
DAV:  11    -0.796685165641E+03   -0.23628E-04   -0.16344E-05 23730   0.118E-02    0.217E-02
DAV:  12    -0.796685191243E+03   -0.25603E-04   -0.43537E-05 32160   0.204E-02    0.154E-02
DAV:  13    -0.796685206920E+03   -0.15677E-04   -0.65961E-05 27830   0.155E-02    0.119E-02
DAV:  14    -0.796685213637E+03   -0.67169E-05   -0.12719E-05 20880   0.740E-03
  38 F= -.79668521E+03 E0= -.79668521E+03  d E =-.834780E-02  mag=    47.0000
       N       E                     dE             d eps       ncg     rms          rms(c)
DAV:   1    -0.796579422758E+03    0.10578E+00   -0.13411E+01 34610   0.101E+01    0.115E+00
DAV:   2    -0.796681013464E+03   -0.10159E+00   -0.10294E+00 32830   0.190E+00    0.726E-01
DAV:   3    -0.796685318736E+03   -0.43053E-02   -0.21630E-02 39730   0.376E-01    0.389E-01
DAV:   4    -0.796685070591E+03    0.24814E-03   -0.20013E-03 43320   0.152E-01    0.303E-01
DAV:   5    -0.796685198131E+03   -0.12754E-03   -0.14968E-03 44690   0.120E-01    0.121E-01
DAV:   6    -0.796685408716E+03   -0.21058E-03   -0.49915E-04 39320   0.617E-02    0.917E-02
DAV:   7    -0.796685484942E+03   -0.76226E-04   -0.92559E-05 35870   0.288E-02    0.728E-02
DAV:   8    -0.796685615993E+03   -0.13105E-03   -0.84042E-05 36140   0.277E-02    0.595E-02
DAV:   9    -0.796685733647E+03   -0.11765E-03   -0.10670E-04 37420   0.282E-02    0.503E-02
DAV:  10    -0.796685801030E+03   -0.67383E-04   -0.63796E-05 29630   0.200E-02    0.443E-02
DAV:  11    -0.796685877685E+03   -0.76655E-04   -0.71675E-05 35660   0.250E-02    0.341E-02
DAV:  12    -0.796685940785E+03   -0.63099E-04   -0.19688E-04 41890   0.408E-02    0.230E-02
DAV:  13    -0.796685978151E+03   -0.37366E-04   -0.12799E-04 33500   0.219E-02    0.187E-02
DAV:  14    -0.796685988171E+03   -0.10021E-04   -0.15883E-05 19740   0.738E-03    0.135E-02
DAV:  15    -0.796685990104E+03   -0.19328E-05   -0.16736E-06 16520   0.395E-03
  39 F= -.79668599E+03 E0= -.79668599E+03  d E =-.776467E-03  mag=    47.0000
       N       E                     dE             d eps       ncg     rms          rms(c)
DAV:   1    -0.795948053749E+03    0.73793E+00   -0.89620E+01 34750   0.260E+01    0.294E+00
DAV:   2    -0.796624397337E+03   -0.67634E+00   -0.68542E+00 32640   0.488E+00    0.166E+00
DAV:   3    -0.796653636314E+03   -0.29239E-01   -0.13707E-01 39450   0.844E-01    0.944E-01
DAV:   4    -0.796652176437E+03    0.14599E-02   -0.11670E-02 43530   0.304E-01    0.674E-01
DAV:   5    -0.796653825785E+03   -0.16493E-02   -0.77499E-03 44290   0.269E-01    0.316E-01
DAV:   6    -0.796655157804E+03   -0.13320E-02   -0.30764E-03 39660   0.160E-01    0.248E-01
DAV:   7    -0.796655767282E+03   -0.60948E-03   -0.67165E-04 40030   0.788E-02    0.202E-01
DAV:   8    -0.796656945153E+03   -0.11779E-02   -0.78781E-04 44090   0.834E-02    0.163E-01
DAV:   9    -0.796657899926E+03   -0.95477E-03   -0.97069E-04 41950   0.804E-02    0.138E-01
DAV:  10    -0.796658452099E+03   -0.55217E-03   -0.49937E-04 41340   0.572E-02    0.119E-01
DAV:  11    -0.796659031554E+03   -0.57946E-03   -0.60173E-04 42070   0.725E-02    0.924E-02
DAV:  12    -0.796659454728E+03   -0.42317E-03   -0.13739E-03 41510   0.107E-01    0.626E-02
DAV:  13    -0.796659719211E+03   -0.26448E-03   -0.96920E-04 39620   0.585E-02    0.512E-02
DAV:  14    -0.796659781141E+03   -0.61930E-04   -0.90271E-05 28800   0.176E-02    0.399E-02
DAV:  15    -0.796659794634E+03   -0.13493E-04   -0.49672E-06 18190   0.760E-03    0.363E-02
DAV:  16    -0.796659842412E+03   -0.47778E-04   -0.25887E-05 26000   0.221E-02    0.275E-02
DAV:  17    -0.796659885173E+03   -0.42761E-04   -0.18226E-04 36890   0.292E-02    0.262E-02
DAV:  18    -0.796659907244E+03   -0.22071E-04   -0.44480E-05 25340   0.131E-02    0.202E-02
DAV:  19    -0.796659918148E+03   -0.10904E-04   -0.97080E-06 18840   0.108E-02    0.179E-02
DAV:  20    -0.796659929174E+03   -0.11027E-04   -0.31355E-05 27220   0.118E-02    0.126E-02
DAV:  21    -0.796659936689E+03   -0.75143E-05   -0.19187E-05 22850   0.951E-03
  40 F= -.79665994E+03 E0= -.79665994E+03  d E =0.260534E-01  mag=    47.0000
       N       E                     dE             d eps       ncg     rms          rms(c)
DAV:   1    -0.795436075946E+03    0.12239E+01   -0.10456E+02 35440   0.319E+01    0.377E+00
DAV:   2    -0.796464528381E+03   -0.10285E+01   -0.10784E+01 33560   0.643E+00    0.329E+00
DAV:   3    -0.796516242096E+03   -0.51714E-01   -0.38096E-01 39500   0.166E+00    0.171E+00
DAV:   4    -0.796512277745E+03    0.39644E-02   -0.37699E-02 43130   0.658E-01    0.148E+00
DAV:   5    -0.796510519369E+03    0.17584E-02   -0.35710E-02 40400   0.525E-01    0.535E-01
DAV:   6    -0.796512425593E+03   -0.19062E-02   -0.71172E-03 39100   0.251E-01    0.340E-01
DAV:   7    -0.796513205957E+03   -0.78036E-03   -0.33631E-03 39170   0.127E-01    0.252E-01
DAV:   8    -0.796513957671E+03   -0.75171E-03   -0.51599E-04 41550   0.758E-02    0.204E-01
DAV:   9    -0.796514852922E+03   -0.89525E-03   -0.59811E-04 41890   0.782E-02    0.170E-01
DAV:  10    -0.796515697940E+03   -0.84502E-03   -0.66991E-04 40030   0.724E-02    0.148E-01
DAV:  11    -0.796516340265E+03   -0.64233E-03   -0.58703E-04 39810   0.593E-02    0.123E-01
DAV:  12    -0.796517185379E+03   -0.84511E-03   -0.12255E-03 43620   0.106E-01    0.935E-02
DAV:  13    -0.796517672131E+03   -0.48675E-03   -0.13796E-03 41460   0.902E-02    0.693E-02
DAV:  14    -0.796517919571E+03   -0.24744E-03   -0.50664E-04 38370   0.483E-02    0.519E-02
DAV:  15    -0.796518014737E+03   -0.95167E-04   -0.14362E-04 31020   0.222E-02    0.413E-02
DAV:  16    -0.796518056986E+03   -0.42249E-04   -0.26253E-05 23920   0.130E-02    0.357E-02
DAV:  17    -0.796518108713E+03   -0.51726E-04   -0.44091E-05 29650   0.233E-02    0.295E-02
DAV:  18    -0.796518145795E+03   -0.37083E-04   -0.10272E-04 31560   0.193E-02    0.260E-02
DAV:  19    -0.796518171022E+03   -0.25227E-04   -0.33298E-05 24170   0.114E-02    0.227E-02
DAV:  20    -0.796518197642E+03   -0.26620E-04   -0.28574E-05 27700   0.164E-02    0.187E-02
DAV:  21    -0.796518218821E+03   -0.21180E-04   -0.81900E-05 34240   0.208E-02    0.149E-02
DAV:  22    -0.796518235586E+03   -0.16764E-04   -0.41806E-05 26210   0.129E-02    0.118E-02
DAV:  23    -0.796518242910E+03   -0.73244E-05   -0.99550E-06 20180   0.674E-03
  41 F= -.79651824E+03 E0= -.79651824E+03  d E =0.141694E+00  mag=    47.0000
       N       E                     dE             d eps       ncg     rms          rms(c)
DAV:   1    -0.796129974440E+03    0.38826E+00   -0.32595E+01 35380   0.210E+01    0.259E+00
DAV:   2    -0.796623651293E+03   -0.49368E+00   -0.53751E+00 33750   0.434E+00    0.191E+00
DAV:   3    -0.796656984787E+03   -0.33333E-01   -0.21940E-01 41290   0.113E+00    0.105E+00
DAV:   4    -0.796653755055E+03    0.32297E-02   -0.19414E-02 43260   0.427E-01    0.784E-01
DAV:   5    -0.796652598039E+03    0.11570E-02   -0.16133E-02 40200   0.344E-01    0.333E-01
DAV:   6    -0.796652962125E+03   -0.36409E-03   -0.25298E-03 37970   0.185E-01    0.190E-01
DAV:   7    -0.796653108956E+03   -0.14683E-03   -0.16217E-03 39530   0.892E-02    0.117E-01
DAV:   8    -0.796653216300E+03   -0.10734E-03   -0.17967E-04 38080   0.406E-02    0.840E-02
DAV:   9    -0.796653320843E+03   -0.10454E-03   -0.10790E-04 39510   0.324E-02    0.616E-02
DAV:  10    -0.796653392196E+03   -0.71353E-04   -0.66304E-05 31870   0.230E-02    0.517E-02
DAV:  11    -0.796653443427E+03   -0.51231E-04   -0.36021E-05 26170   0.165E-02    0.453E-02
DAV:  12    -0.796653531255E+03   -0.87829E-04   -0.67990E-05 33190   0.260E-02    0.357E-02
DAV:  13    -0.796653603723E+03   -0.72468E-04   -0.15654E-04 36600   0.307E-02    0.277E-02
DAV:  14    -0.796653646474E+03   -0.42751E-04   -0.88908E-05 32300   0.218E-02    0.231E-02
DAV:  15    -0.796653668293E+03   -0.21819E-04   -0.36506E-05 24260   0.129E-02    0.163E-02
DAV:  16    -0.796653678628E+03   -0.10335E-04   -0.12939E-05 20180   0.808E-03    0.142E-02
DAV:  17    -0.796653685825E+03   -0.71965E-05   -0.77009E-06 18900   0.629E-03
  42 F= -.79665369E+03 E0= -.79665369E+03  d E =-.135443E+00  mag=    47.0000
       N       E                     dE             d eps       ncg     rms          rms(c)
DAV:   1    -0.796654243814E+03   -0.56519E-03   -0.11055E+00 34620   0.293E+00    0.343E-01
DAV:   2    -0.796662817706E+03   -0.85739E-02   -0.87498E-02 33400   0.611E-01    0.391E-01
DAV:   3    -0.796663027264E+03   -0.20956E-03   -0.27988E-03 36480   0.164E-01    0.206E-01
DAV:   4    -0.796663031219E+03   -0.39546E-05   -0.27045E-04 40940   0.585E-02    0.190E-01
DAV:   5    -0.796662997941E+03    0.33277E-04   -0.31198E-04 40680   0.515E-02    0.579E-02
DAV:   6    -0.796663014537E+03   -0.16595E-04   -0.75791E-05 38410   0.251E-02    0.293E-02
DAV:   7    -0.796663018526E+03   -0.39888E-05   -0.15570E-05 19470   0.105E-02
  43 F= -.79666302E+03 E0= -.79666302E+03  d E =-.933270E-02  mag=    47.0000
       N       E                     dE             d eps       ncg     rms          rms(c)
DAV:   1    -0.796616321936E+03    0.46693E-01   -0.81607E+00 34430   0.748E+00    0.865E-01
DAV:   2    -0.796671283368E+03   -0.54961E-01   -0.56049E-01 33440   0.155E+00    0.102E+00
DAV:   3    -0.796672328966E+03   -0.10456E-02   -0.17407E-02 35560   0.403E-01    0.546E-01
DAV:   4    -0.796672323588E+03    0.53782E-05   -0.17133E-03 41060   0.145E-01    0.502E-01
DAV:   5    -0.796672094347E+03    0.22924E-03   -0.20107E-03 41300   0.129E-01    0.155E-01
DAV:   6    -0.796672206543E+03   -0.11220E-03   -0.51706E-04 41860   0.629E-02    0.790E-02
DAV:   7    -0.796672231347E+03   -0.24804E-04   -0.94366E-05 36750   0.245E-02    0.615E-02
DAV:   8    -0.796672267639E+03   -0.36292E-04   -0.23843E-05 25620   0.177E-02    0.492E-02
DAV:   9    -0.796672321404E+03   -0.53765E-04   -0.48963E-05 34910   0.208E-02    0.362E-02
DAV:  10    -0.796672353825E+03   -0.32421E-04   -0.38564E-05 23780   0.133E-02    0.326E-02
DAV:  11    -0.796672381426E+03   -0.27601E-04   -0.15753E-05 23390   0.106E-02    0.283E-02
DAV:  12    -0.796672423696E+03   -0.42269E-04   -0.46123E-05 32600   0.236E-02    0.211E-02
DAV:  13    -0.796672451209E+03   -0.27513E-04   -0.11442E-04 34170   0.211E-02    0.164E-02
DAV:  14    -0.796672467486E+03   -0.16277E-04   -0.34860E-05 22890   0.106E-02    0.126E-02
DAV:  15    -0.796672471598E+03   -0.41118E-05   -0.42351E-06 17660   0.466E-03
  44 F= -.79667247E+03 E0= -.79667247E+03  d E =-.945307E-02  mag=    47.0000
       N       E                     dE             d eps       ncg     rms          rms(c)
DAV:   1    -0.796669195543E+03    0.32719E-02   -0.41679E-01 35110   0.195E+00    0.224E-01
DAV:   2    -0.796673017608E+03   -0.38221E-02   -0.38894E-02 32930   0.366E-01    0.136E-01
DAV:   3    -0.796673204840E+03   -0.18723E-03   -0.84217E-04 39860   0.717E-02    0.746E-02
DAV:   4    -0.796673198640E+03    0.62003E-05   -0.75545E-05 37620   0.286E-02
  45 F= -.79667320E+03 E0= -.79667320E+03  d E =-.727042E-03  mag=    47.0000
       N       E                     dE             d eps       ncg     rms          rms(c)
DAV:   1    -0.795989426681E+03    0.68378E+00   -0.62350E+01 34940   0.242E+01    0.285E+00
DAV:   2    -0.796604273441E+03   -0.61485E+00   -0.62496E+00 33300   0.481E+00    0.245E+00
DAV:   3    -0.796628656571E+03   -0.24383E-01   -0.16216E-01 36900   0.117E+00    0.122E+00
DAV:   4    -0.796628030791E+03    0.62578E-03   -0.15845E-02 41780   0.469E-01    0.109E+00
DAV:   5    -0.796627102469E+03    0.92832E-03   -0.12186E-02 42030   0.336E-01    0.328E-01
DAV:   6    -0.796628094072E+03   -0.99160E-03   -0.30376E-03 39440   0.144E-01    0.174E-01
DAV:   7    -0.796628217633E+03   -0.12356E-03   -0.52312E-04 39570   0.625E-02    0.125E-01
DAV:   8    -0.796628362503E+03   -0.14487E-03   -0.13221E-04 40020   0.409E-02    0.981E-02
DAV:   9    -0.796628544146E+03   -0.18164E-03   -0.15970E-04 41090   0.386E-02    0.768E-02
DAV:  10    -0.796628671755E+03   -0.12761E-03   -0.11958E-04 33920   0.269E-02    0.661E-02
DAV:  11    -0.796628817429E+03   -0.14567E-03   -0.10556E-04 37960   0.285E-02    0.561E-02
DAV:  12    -0.796628977861E+03   -0.16043E-03   -0.22254E-04 41910   0.443E-02    0.416E-02
DAV:  13    -0.796629074089E+03   -0.96228E-04   -0.28012E-04 41700   0.425E-02    0.318E-02
DAV:  14    -0.796629124550E+03   -0.50461E-04   -0.13544E-04 34430   0.242E-02    0.228E-02
DAV:  15    -0.796629142433E+03   -0.17882E-04   -0.32577E-05 21960   0.104E-02    0.176E-02
DAV:  16    -0.796629147509E+03   -0.50767E-05   -0.32733E-06 16830   0.470E-03
  46 F= -.79662915E+03 E0= -.79662915E+03  d E =0.440511E-01  mag=    47.0000
       N       E                     dE             d eps       ncg     rms          rms(c)
DAV:   1    -0.795944396651E+03    0.68475E+00   -0.57922E+01 34640   0.246E+01    0.301E+00
DAV:   2    -0.796629196023E+03   -0.68480E+00   -0.70763E+00 33510   0.511E+00    0.280E+00
DAV:   3    -0.796656944436E+03   -0.27748E-01   -0.22551E-01 39320   0.131E+00    0.142E+00
DAV:   4    -0.796655602846E+03    0.13416E-02   -0.22602E-02 43060   0.521E-01    0.128E+00
DAV:   5    -0.796653475492E+03    0.21274E-02   -0.19986E-02 40150   0.406E-01    0.393E-01
DAV:   6    -0.796654373848E+03   -0.89836E-03   -0.44634E-03 40720   0.187E-01    0.210E-01
DAV:   7    -0.796654499897E+03   -0.12605E-03   -0.13445E-03 40360   0.844E-02    0.141E-01
DAV:   8    -0.796654618281E+03   -0.11838E-03   -0.18416E-04 40880   0.470E-02    0.101E-01
DAV:   9    -0.796654768761E+03   -0.15048E-03   -0.15260E-04 41560   0.397E-02    0.760E-02
DAV:  10    -0.796654889358E+03   -0.12060E-03   -0.10793E-04 35850   0.275E-02    0.635E-02
DAV:  11    -0.796654983635E+03   -0.94277E-04   -0.67721E-05 31530   0.203E-02    0.552E-02
DAV:  12    -0.796655119563E+03   -0.13593E-03   -0.11099E-04 37550   0.302E-02    0.455E-02
DAV:  13    -0.796655235103E+03   -0.11554E-03   -0.19917E-04 39080   0.388E-02    0.356E-02
DAV:  14    -0.796655306615E+03   -0.71511E-04   -0.15327E-04 36070   0.296E-02    0.294E-02
DAV:  15    -0.796655343557E+03   -0.36942E-04   -0.58439E-05 27760   0.158E-02    0.217E-02
DAV:  16    -0.796655360309E+03   -0.16752E-04   -0.17440E-05 21520   0.870E-03    0.181E-02
DAV:  17    -0.796655373772E+03   -0.13463E-04   -0.11591E-05 23170   0.852E-03    0.151E-02
DAV:  18    -0.796655385479E+03   -0.11708E-04   -0.18584E-05 25080   0.101E-02    0.133E-02
DAV:  19    -0.796655392928E+03   -0.74487E-05   -0.11829E-05 21200   0.640E-03
  47 F= -.79665539E+03 E0= -.79665539E+03  d E =-.262454E-01  mag=    47.0000
       N       E                     dE             d eps       ncg     rms          rms(c)
DAV:   1    -0.796572910998E+03    0.82474E-01   -0.76354E+00 35200   0.970E+00    0.122E+00
DAV:   2    -0.796682937097E+03   -0.11003E+00   -0.11539E+00 33570   0.198E+00    0.985E-01
DAV:   3    -0.796688686093E+03   -0.57490E-02   -0.37928E-02 40960   0.514E-01    0.505E-01
DAV:   4    -0.796688304455E+03    0.38164E-03   -0.39677E-03 43760   0.209E-01    0.430E-01
DAV:   5    -0.796687994914E+03    0.30954E-03   -0.30599E-03 38570   0.153E-01    0.139E-01
DAV:   6    -0.796688119881E+03   -0.12497E-03   -0.63838E-04 37130   0.727E-02    0.809E-02
DAV:   7    -0.796688135465E+03   -0.15584E-04   -0.22591E-04 41650   0.332E-02    0.468E-02
DAV:   8    -0.796688145463E+03   -0.99985E-05   -0.20956E-05 24160   0.171E-02
  48 F= -.79668815E+03 E0= -.79668815E+03  d E =-.327525E-01  mag=    47.0000
       N       E                     dE             d eps       ncg     rms          rms(c)
DAV:   1    -0.796686199056E+03    0.19364E-02   -0.41785E-01 35310   0.206E+00    0.242E-01
DAV:   2    -0.796690625772E+03   -0.44267E-02   -0.45926E-02 33550   0.404E-01    0.175E-01
DAV:   3    -0.796690842270E+03   -0.21650E-03   -0.14009E-03 39660   0.967E-02    0.945E-02
DAV:   4    -0.796690827934E+03    0.14336E-04   -0.13881E-04 43140   0.385E-02    0.755E-02
DAV:   5    -0.796690829252E+03   -0.13178E-05   -0.10907E-04 37430   0.300E-02    0.316E-02
DAV:   6    -0.796690839954E+03   -0.10702E-04   -0.28238E-05 27550   0.160E-02    0.243E-02
DAV:   7    -0.796690844772E+03   -0.48183E-05   -0.95854E-06 17740   0.859E-03
  49 F= -.79669084E+03 E0= -.79669084E+03  d E =-.269931E-02  mag=    47.0000
       N       E                     dE             d eps       ncg     rms          rms(c)
DAV:   1    -0.796575249361E+03    0.11559E+00   -0.14070E+01 34750   0.105E+01    0.121E+00
DAV:   2    -0.796689979113E+03   -0.11473E+00   -0.11673E+00 33220   0.201E+00    0.860E-01
DAV:   3    -0.796694368390E+03   -0.43893E-02   -0.27088E-02 38810   0.436E-01    0.451E-01
DAV:   4    -0.796694044259E+03    0.32413E-03   -0.27331E-03 43000   0.182E-01    0.377E-01
DAV:   5    -0.796694077839E+03   -0.33579E-04   -0.21671E-03 43250   0.137E-01    0.140E-01
DAV:   6    -0.796694335841E+03   -0.25800E-03   -0.64103E-04 39070   0.647E-02    0.103E-01
DAV:   7    -0.796694430117E+03   -0.94276E-04   -0.12902E-04 37700   0.312E-02    0.814E-02
DAV:   8    -0.796694565648E+03   -0.13553E-03   -0.80027E-05 34810   0.270E-02    0.690E-02
DAV:   9    -0.796694714063E+03   -0.14841E-03   -0.13143E-04 38040   0.308E-02    0.573E-02
DAV:  10    -0.796694808085E+03   -0.94023E-04   -0.10036E-04 31790   0.224E-02    0.501E-02
[...]
 180 F= -.79663312E+03 E0= -.79663312E+03  d E =0.466892E-01  mag=    47.0000
       N       E                     dE             d eps       ncg     rms          rms(c)
DAV:   1    -0.796540835647E+03    0.92272E-01   -0.84989E+00 35000   0.106E+01    0.134E+00
DAV:   2    -0.796673555292E+03   -0.13272E+00   -0.14011E+00 33580   0.213E+00    0.855E-01
DAV:   3    -0.796680991735E+03   -0.74364E-02   -0.44504E-02 39680   0.486E-01    0.476E-01
DAV:   4    -0.796680300705E+03    0.69103E-03   -0.40860E-03 44990   0.185E-01    0.338E-01
DAV:   5    -0.796679958583E+03    0.34212E-03   -0.25297E-03 38770   0.144E-01    0.132E-01
DAV:   6    -0.796680048707E+03   -0.90123E-04   -0.61781E-04 38240   0.826E-02    0.761E-02
DAV:   7    -0.796680058982E+03   -0.10275E-04   -0.20337E-04 40770   0.365E-02    0.458E-02
DAV:   8    -0.796680063490E+03   -0.45084E-05   -0.21007E-05 24100   0.161E-02
 181 F= -.79668006E+03 E0= -.79668006E+03  d E =-.469463E-01  mag=    47.0000
       N       E                     dE             d eps       ncg     rms          rms(c)
DAV:   1    -0.796669878927E+03    0.10180E-01   -0.10762E+00 35470   0.352E+00    0.415E-01
DAV:   2    -0.796682809799E+03   -0.12931E-01   -0.13452E-01 33550   0.688E-01    0.265E-01
DAV:   3    -0.796683506936E+03   -0.69714E-03   -0.38649E-03 40030   0.152E-01    0.146E-01
DAV:   4    -0.796683455885E+03    0.51050E-04   -0.36484E-04 44540   0.607E-02    0.107E-01
DAV:   5    -0.796683436760E+03    0.19125E-04   -0.22935E-04 38810   0.446E-02    0.411E-02
DAV:   6    -0.796683451865E+03   -0.15105E-04   -0.62751E-05 34530   0.248E-02    0.272E-02
DAV:   7    -0.796683454937E+03   -0.30721E-05   -0.15403E-05 18880   0.113E-02
 182 F= -.79668345E+03 E0= -.79668345E+03  d E =-.339145E-02  mag=    47.0000
       N       E                     dE             d eps       ncg     rms          rms(c)
DAV:   1    -0.796659398880E+03    0.24053E-01   -0.25320E+00 35310   0.499E+00    0.564E-01
DAV:   2    -0.796683952249E+03   -0.24553E-01   -0.25029E-01 32950   0.942E-01    0.333E-01
DAV:   3    -0.796685161337E+03   -0.12091E-02   -0.53966E-03 39840   0.183E-01    0.178E-01
DAV:   4    -0.796685109501E+03    0.51836E-04   -0.48165E-04 43840   0.732E-02    0.132E-01
DAV:   5    -0.796685110143E+03   -0.64210E-06   -0.27001E-04 43330   0.543E-02    0.455E-02
DAV:   6    -0.796685137576E+03   -0.27433E-04   -0.83809E-05 36940   0.268E-02    0.281E-02
DAV:   7    -0.796685140044E+03   -0.24682E-05   -0.11955E-05 18750   0.115E-02
 183 F= -.79668514E+03 E0= -.79668514E+03  d E =-.168511E-02  mag=    47.0000
       N       E                     dE             d eps       ncg     rms          rms(c)
DAV:   1    -0.795829562201E+03    0.85558E+00   -0.73631E+01 35410   0.278E+01    0.319E+00
DAV:   2    -0.796624515263E+03   -0.79495E+00   -0.81264E+00 33010   0.533E+00    0.171E+00
DAV:   3    -0.796664138815E+03   -0.39624E-01   -0.17835E-01 38410   0.935E-01    0.953E-01
DAV:   4    -0.796662418816E+03    0.17200E-02   -0.13896E-02 45670   0.311E-01    0.625E-01
DAV:   5    -0.796662773261E+03   -0.35445E-03   -0.61446E-03 41470   0.249E-01    0.227E-01
DAV:   6    -0.796663303438E+03   -0.53018E-03   -0.22488E-03 42990   0.149E-01    0.133E-01
DAV:   7    -0.796663303207E+03    0.23049E-06   -0.36208E-04 42070   0.642E-02    0.718E-02
DAV:   8    -0.796663313889E+03   -0.10682E-04   -0.77612E-05 36220   0.308E-02    0.388E-02
DAV:   9    -0.796663327518E+03   -0.13629E-04   -0.37944E-05 29630   0.180E-02    0.279E-02
DAV:  10    -0.796663335034E+03   -0.75154E-05   -0.12353E-05 18930   0.102E-02
 184 F= -.79666334E+03 E0= -.79666334E+03  d E =0.218050E-01  mag=    47.0000
       N       E                     dE             d eps       ncg     rms          rms(c)
DAV:   1    -0.796421333632E+03    0.24199E+00   -0.18555E+01 35390   0.151E+01    0.182E+00
DAV:   2    -0.796668347274E+03   -0.24701E+00   -0.25864E+00 33580   0.297E+00    0.113E+00
DAV:   3    -0.796681728943E+03   -0.13382E-01   -0.76019E-02 39050   0.638E-01    0.635E-01
DAV:   4    -0.796680538276E+03    0.11907E-02   -0.68173E-03 45020   0.240E-01    0.443E-01
DAV:   5    -0.796680024814E+03    0.51346E-03   -0.41322E-03 39060   0.186E-01    0.172E-01
DAV:   6    -0.796680198382E+03   -0.17357E-03   -0.11176E-03 39320   0.110E-01    0.999E-02
DAV:   7    -0.796680213458E+03   -0.15076E-04   -0.32844E-04 40870   0.473E-02    0.596E-02
DAV:   8    -0.796680220783E+03   -0.73255E-05   -0.41517E-05 31580   0.212E-02
 185 F= -.79668022E+03 E0= -.79668022E+03  d E =-.168857E-01  mag=    47.0000
       N       E                     dE             d eps       ncg     rms          rms(c)
DAV:   1    -0.796673542666E+03    0.66708E-02   -0.66332E-01 35520   0.300E+00    0.375E-01
DAV:   2    -0.796683780162E+03   -0.10237E-01   -0.10813E-01 33590   0.595E-01    0.237E-01
DAV:   3    -0.796684385112E+03   -0.60495E-03   -0.34559E-03 39720   0.134E-01    0.133E-01
DAV:   4    -0.796684335470E+03    0.49642E-04   -0.30679E-04 44650   0.504E-02    0.929E-02
DAV:   5    -0.796684314074E+03    0.21396E-04   -0.19454E-04 38340   0.405E-02    0.374E-02
DAV:   6    -0.796684321129E+03   -0.70546E-05   -0.46657E-05 32050   0.243E-02
 186 F= -.79668432E+03 E0= -.79668432E+03  d E =-.410035E-02  mag=    47.0000
       N       E                     dE             d eps       ncg     rms          rms(c)
DAV:   1    -0.796663792888E+03    0.20521E-01   -0.19662E+00 35030   0.443E+00    0.500E-01
DAV:   2    -0.796683144771E+03   -0.19352E-01   -0.19744E-01 32730   0.826E-01    0.267E-01
DAV:   3    -0.796684096518E+03   -0.95175E-03   -0.40307E-03 39120   0.142E-01    0.149E-01
DAV:   4    -0.796684052601E+03    0.43918E-04   -0.32424E-04 45800   0.479E-02    0.955E-02
DAV:   5    -0.796684070975E+03   -0.18374E-04   -0.14367E-04 43110   0.398E-02    0.344E-02
DAV:   6    -0.796684082550E+03   -0.11576E-04   -0.48925E-05 33460   0.242E-02    0.220E-02
DAV:   7    -0.796684083016E+03   -0.46569E-06   -0.87900E-06 17860   0.112E-02
 187 F= -.79668408E+03 E0= -.79668408E+03  d E =0.238113E-03  mag=    47.0000
       N       E                     dE             d eps       ncg     rms          rms(c)
DAV:   1    -0.795416892419E+03    0.12672E+01   -0.13169E+02 34950   0.356E+01    0.398E+00
DAV:   2    -0.796615992120E+03   -0.11991E+01   -0.12215E+01 31490   0.649E+00    0.209E+00
DAV:   3    -0.796673302341E+03   -0.57310E-01   -0.22453E-01 38690   0.103E+00    0.114E+00
DAV:   4    -0.796670152502E+03    0.31498E-02   -0.18622E-02 41310   0.321E-01    0.700E-01
DAV:   5    -0.796672029069E+03   -0.18766E-02   -0.65785E-03 43430   0.238E-01    0.216E-01
DAV:   6    -0.796672590153E+03   -0.56108E-03   -0.21809E-03 42980   0.142E-01    0.136E-01
DAV:   7    -0.796672577200E+03    0.12953E-04   -0.23179E-04 42150   0.666E-02    0.740E-02
DAV:   8    -0.796672581615E+03   -0.44157E-05   -0.80468E-05 36580   0.333E-02
 188 F= -.79667258E+03 E0= -.79667258E+03  d E =0.115014E-01  mag=    47.0000
       N       E                     dE             d eps       ncg     rms          rms(c)
DAV:   1    -0.795960852633E+03    0.71172E+00   -0.60933E+01 35230   0.256E+01    0.294E+00
DAV:   2    -0.796606993797E+03   -0.64614E+00   -0.66844E+00 33340   0.483E+00    0.172E+00
DAV:   3    -0.796640912716E+03   -0.33919E-01   -0.16302E-01 39130   0.949E-01    0.958E-01
DAV:   4    -0.796638756462E+03    0.21563E-02   -0.13966E-02 44550   0.351E-01    0.650E-01
DAV:   5    -0.796638379186E+03    0.37728E-03   -0.80959E-03 41080   0.281E-01    0.255E-01
DAV:   6    -0.796638888838E+03   -0.50965E-03   -0.24621E-03 41570   0.162E-01    0.144E-01
DAV:   7    -0.796638930636E+03   -0.41798E-04   -0.56062E-04 41380   0.664E-02    0.857E-02
DAV:   8    -0.796638965860E+03   -0.35224E-04   -0.98622E-05 37060   0.327E-02    0.553E-02
DAV:   9    -0.796639004292E+03   -0.38433E-04   -0.58693E-05 35270   0.229E-02    0.417E-02
DAV:  10    -0.796639029116E+03   -0.24824E-04   -0.27979E-05 24530   0.140E-02    0.349E-02
DAV:  11    -0.796639050715E+03   -0.21599E-04   -0.12598E-05 20480   0.101E-02    0.317E-02
DAV:  12    -0.796639082867E+03   -0.32152E-04   -0.19665E-05 26780   0.128E-02    0.275E-02
DAV:  13    -0.796639124089E+03   -0.41221E-04   -0.67717E-05 33480   0.209E-02    0.222E-02
DAV:  14    -0.796639151257E+03   -0.27168E-04   -0.60131E-05 29190   0.163E-02    0.183E-02
DAV:  15    -0.796639168151E+03   -0.16893E-04   -0.28013E-05 28470   0.137E-02    0.144E-02
DAV:  16    -0.796639178964E+03   -0.10813E-04   -0.25811E-05 25320   0.102E-02    0.117E-02
DAV:  17    -0.796639184752E+03   -0.57884E-05   -0.93719E-06 19490   0.592E-03
 189 F= -.79663918E+03 E0= -.79663918E+03  d E =0.333969E-01  mag=    47.0000
       N       E                     dE             d eps       ncg     rms          rms(c)
DAV:   1    -0.796593410626E+03    0.45768E-01   -0.48487E+00 35710   0.785E+00    0.959E-01
DAV:   2    -0.796662881325E+03   -0.69471E-01   -0.73224E-01 33580   0.155E+00    0.601E-01
DAV:   3    -0.796667011841E+03   -0.41305E-02   -0.23500E-02 39690   0.355E-01    0.344E-01
DAV:   4    -0.796666703441E+03    0.30840E-03   -0.20172E-03 44720   0.128E-01    0.235E-01
DAV:   5    -0.796666584298E+03    0.11914E-03   -0.13047E-03 39490   0.107E-01    0.101E-01
DAV:   6    -0.796666633086E+03   -0.48788E-04   -0.31159E-04 38780   0.625E-02    0.553E-02
DAV:   7    -0.796666642287E+03   -0.92011E-05   -0.11480E-04 40960   0.275E-02    0.359E-02
DAV:   8    -0.796666648118E+03   -0.58307E-05   -0.14648E-05 21650   0.125E-02
 190 F= -.79666665E+03 E0= -.79666665E+03  d E =-.274634E-01  mag=    47.0000
       N       E                     dE             d eps       ncg     rms          rms(c)
DAV:   1    -0.796620252838E+03    0.46389E-01   -0.42735E+00 35530   0.686E+00    0.794E-01
DAV:   2    -0.796668445232E+03   -0.48192E-01   -0.49859E-01 33420   0.131E+00    0.466E-01
DAV:   3    -0.796671007863E+03   -0.25626E-02   -0.12914E-02 38950   0.265E-01    0.264E-01
DAV:   4    -0.796670852875E+03    0.15499E-03   -0.10927E-03 44670   0.969E-02    0.180E-01
DAV:   5    -0.796670826044E+03    0.26831E-04   -0.64128E-04 40640   0.791E-02    0.742E-02
DAV:   6    -0.796670869411E+03   -0.43368E-04   -0.19537E-04 40380   0.465E-02    0.441E-02
DAV:   7    -0.796670876670E+03   -0.72589E-05   -0.49312E-05 32840   0.203E-02
 191 F= -.79667088E+03 E0= -.79667088E+03  d E =-.422855E-02  mag=    47.0000
       N       E                     dE             d eps       ncg     rms          rms(c)
DAV:   1    -0.796623254320E+03    0.47615E-01   -0.52478E+00 35250   0.711E+00    0.783E-01
DAV:   2    -0.796668886673E+03   -0.45632E-01   -0.46602E-01 32320   0.127E+00    0.420E-01
DAV:   3    -0.796671104882E+03   -0.22182E-02   -0.85522E-03 39520   0.207E-01    0.230E-01
DAV:   4    -0.796670979240E+03    0.12564E-03   -0.75734E-04 45800   0.732E-02    0.146E-01
DAV:   5    -0.796671048911E+03   -0.69671E-04   -0.32256E-04 45050   0.565E-02    0.500E-02
DAV:   6    -0.796671076292E+03   -0.27381E-04   -0.10957E-04 40980   0.343E-02    0.340E-02
DAV:   7    -0.796671078823E+03   -0.25310E-05   -0.12402E-05 20990   0.150E-02
 192 F= -.79667108E+03 E0= -.79667108E+03  d E =-.202153E-03  mag=    47.0000
       N       E                     dE             d eps       ncg     rms          rms(c)
DAV:   1    -0.795969994970E+03    0.70108E+00   -0.68049E+01 35050   0.262E+01    0.295E+00
DAV:   2    -0.796620970934E+03   -0.65098E+00   -0.66923E+00 33000   0.480E+00    0.163E+00
DAV:   3    -0.796653719620E+03   -0.32749E-01   -0.14080E-01 39270   0.863E-01    0.902E-01
DAV:   4    -0.796651820342E+03    0.18993E-02   -0.11731E-02 45230   0.305E-01    0.589E-01
DAV:   5    -0.796652064461E+03   -0.24412E-03   -0.59702E-03 43100   0.250E-01    0.222E-01
DAV:   6    -0.796652476900E+03   -0.41244E-03   -0.19768E-03 42710   0.147E-01    0.123E-01
DAV:   7    -0.796652487673E+03   -0.10773E-04   -0.33971E-04 42140   0.582E-02    0.673E-02
DAV:   8    -0.796652495449E+03   -0.77758E-05   -0.65789E-05 33940   0.278E-02
 193 F= -.79665250E+03 E0= -.79665250E+03  d E =0.185834E-01  mag=    47.0000
       N       E                     dE             d eps       ncg     rms          rms(c)
DAV:   1    -0.796394782082E+03    0.25771E+00   -0.20417E+01 35550   0.152E+01    0.181E+00
DAV:   2    -0.796648215488E+03   -0.25343E+00   -0.26412E+00 33590   0.298E+00    0.110E+00
DAV:   3    -0.796662279979E+03   -0.14064E-01   -0.74878E-02 39570   0.638E-01    0.621E-01
DAV:   4    -0.796661319873E+03    0.96011E-03   -0.62095E-03 44630   0.227E-01    0.422E-01
DAV:   5    -0.796661034811E+03    0.28506E-03   -0.39975E-03 40070   0.192E-01    0.178E-01
DAV:   6    -0.796661207971E+03   -0.17316E-03   -0.98436E-04 40240   0.111E-01    0.962E-02
DAV:   7    -0.796661233610E+03   -0.25640E-04   -0.34905E-04 41760   0.487E-02    0.595E-02
DAV:   8    -0.796661245658E+03   -0.12048E-04   -0.45800E-05 31890   0.215E-02    0.357E-02
DAV:   9    -0.796661259213E+03   -0.13555E-04   -0.23307E-05 24710   0.154E-02    0.265E-02
DAV:  10    -0.796661267976E+03   -0.87628E-05   -0.13729E-05 19110   0.105E-02
 194 F= -.79666127E+03 E0= -.79666127E+03  d E =-.877253E-02  mag=    47.0000
       N       E                     dE             d eps       ncg     rms          rms(c)
DAV:   1    -0.796635513127E+03    0.25746E-01   -0.26921E+00 34940   0.512E+00    0.577E-01
DAV:   2    -0.796661081764E+03   -0.25569E-01   -0.26154E-01 32660   0.945E-01    0.312E-01
DAV:   3    -0.796662356008E+03   -0.12742E-02   -0.53129E-03 39340   0.165E-01    0.172E-01
DAV:   4    -0.796662292346E+03    0.63662E-04   -0.42588E-04 45660   0.551E-02    0.110E-01
DAV:   5    -0.796662317529E+03   -0.25183E-04   -0.20614E-04 44150   0.470E-02    0.406E-02
DAV:   6    -0.796662332626E+03   -0.15097E-04   -0.66236E-05 36920   0.277E-02    0.244E-02
DAV:   7    -0.796662333724E+03   -0.10982E-05   -0.10637E-05 18780   0.121E-02
 195 F= -.79666233E+03 E0= -.79666233E+03  d E =-.106575E-02  mag=    47.0000
       N       E                     dE             d eps       ncg     rms          rms(c)
DAV:   1    -0.795961478384E+03    0.70085E+00   -0.67486E+01 35170   0.259E+01    0.293E+00
DAV:   2    -0.796616473945E+03   -0.65500E+00   -0.67091E+00 32860   0.481E+00    0.160E+00
DAV:   3    -0.796649524945E+03   -0.33051E-01   -0.14153E-01 39250   0.858E-01    0.884E-01
DAV:   4    -0.796647965098E+03    0.15598E-02   -0.11300E-02 45290   0.293E-01    0.576E-01
DAV:   5    -0.796648355918E+03   -0.39082E-03   -0.56993E-03 44030   0.245E-01    0.220E-01
DAV:   6    -0.796648776992E+03   -0.42107E-03   -0.18408E-03 42720   0.142E-01    0.121E-01
DAV:   7    -0.796648792262E+03   -0.15270E-04   -0.34513E-04 42300   0.586E-02    0.669E-02
DAV:   8    -0.796648805000E+03   -0.12738E-04   -0.64706E-05 34860   0.279E-02    0.378E-02
DAV:   9    -0.796648820682E+03   -0.15681E-04   -0.35068E-05 28770   0.173E-02    0.275E-02
DAV:  10    -0.796648829104E+03   -0.84218E-05   -0.13754E-05 19190   0.109E-02
 196 F= -.79664883E+03 E0= -.79664883E+03  d E =0.135046E-01  mag=    47.0000
       N       E                     dE             d eps       ncg     rms          rms(c)
DAV:   1    -0.795976259840E+03    0.67256E+00   -0.58890E+01 35370   0.247E+01    0.286E+00
DAV:   2    -0.796597789783E+03   -0.62153E+00   -0.64467E+00 33320   0.474E+00    0.169E+00
DAV:   3    -0.796632244033E+03   -0.34454E-01   -0.17543E-01 39660   0.985E-01    0.946E-01
DAV:   4    -0.796630296468E+03    0.19476E-02   -0.13762E-02 44590   0.337E-01    0.631E-01
DAV:   5    -0.796629971772E+03    0.32470E-03   -0.87556E-03 41470   0.284E-01    0.270E-01
DAV:   6    -0.796630438423E+03   -0.46665E-03   -0.21608E-03 41230   0.162E-01    0.145E-01
DAV:   7    -0.796630496312E+03   -0.57889E-04   -0.74566E-04 42550   0.723E-02    0.865E-02
DAV:   8    -0.796630526508E+03   -0.30196E-04   -0.10230E-04 34830   0.326E-02    0.529E-02
DAV:   9    -0.796630558885E+03   -0.32377E-04   -0.54061E-05 34410   0.235E-02    0.372E-02
DAV:  10    -0.796630578135E+03   -0.19250E-04   -0.26347E-05 24650   0.153E-02    0.296E-02
DAV:  11    -0.796630589316E+03   -0.11181E-04   -0.10345E-05 18820   0.927E-03    0.262E-02
DAV:  12    -0.796630608096E+03   -0.18780E-04   -0.95616E-06 18990   0.998E-03    0.229E-02
DAV:  13    -0.796630631710E+03   -0.23614E-04   -0.32729E-05 29910   0.141E-02    0.182E-02
DAV:  14    -0.796630649010E+03   -0.17300E-04   -0.30283E-05 27190   0.138E-02    0.152E-02
DAV:  15    -0.796630659578E+03   -0.10568E-04   -0.20602E-05 24610   0.112E-02    0.113E-02
DAV:  16    -0.796630665300E+03   -0.57219E-05   -0.11894E-05 20680   0.768E-03
 197 F= -.79663067E+03 E0= -.79663067E+03  d E =0.181638E-01  mag=    47.0000
       N       E                     dE             d eps       ncg     rms          rms(c)
DAV:   1    -0.796450196199E+03    0.18046E+00   -0.16044E+01 35840   0.135E+01    0.157E+00
DAV:   2    -0.796635607061E+03   -0.18541E+00   -0.19495E+00 33420   0.262E+00    0.964E-01
DAV:   3    -0.796647009875E+03   -0.11403E-01   -0.60288E-02 40280   0.588E-01    0.550E-01
DAV:   4    -0.796646304144E+03    0.70573E-03   -0.47389E-03 44300   0.201E-01    0.363E-01
DAV:   5    -0.796646184986E+03    0.11916E-03   -0.33745E-03 40590   0.171E-01    0.163E-01
DAV:   6    -0.796646318754E+03   -0.13377E-03   -0.71702E-04 40650   0.983E-02    0.867E-02
DAV:   7    -0.796646348029E+03   -0.29275E-04   -0.31217E-04 42270   0.441E-02    0.554E-02
DAV:   8    -0.796646363954E+03   -0.15925E-04   -0.38789E-05 30380   0.198E-02    0.357E-02
DAV:   9    -0.796646380525E+03   -0.16571E-04   -0.22011E-05 22870   0.145E-02    0.265E-02
DAV:  10    -0.796646391070E+03   -0.10545E-04   -0.14769E-05 21290   0.104E-02    0.209E-02
DAV:  11    -0.796646396780E+03   -0.57098E-05   -0.56618E-06 17320   0.632E-03
 198 F= -.79664640E+03 E0= -.79664640E+03  d E =-.157315E-01  mag=    47.0000
       N       E                     dE             d eps       ncg     rms          rms(c)
DAV:   1    -0.796183299609E+03    0.46309E+00   -0.47660E+01 35640   0.214E+01    0.238E+00
DAV:   2    -0.796618929566E+03   -0.43563E+00   -0.44141E+00 31610   0.395E+00    0.122E+00
DAV:   3    -0.796640782550E+03   -0.21853E-01   -0.84837E-02 39360   0.645E-01    0.667E-01
DAV:   4    -0.796640037561E+03    0.74499E-03   -0.66837E-03 45050   0.208E-01    0.428E-01
DAV:   5    -0.796640624691E+03   -0.58713E-03   -0.27394E-03 45290   0.168E-01    0.150E-01
DAV:   6    -0.796640873297E+03   -0.24861E-03   -0.96144E-04 43470   0.103E-01    0.911E-02
DAV:   7    -0.796640868896E+03    0.44009E-05   -0.14260E-04 42380   0.470E-02    0.461E-02
DAV:   8    -0.796640870892E+03   -0.19967E-05   -0.29734E-05 26820   0.205E-02
 199 F= -.79664087E+03 E0= -.79664087E+03  d E =0.552589E-02  mag=    47.0000
       N       E                     dE             d eps       ncg     rms          rms(c)
DAV:   1    -0.796010159309E+03    0.63071E+00   -0.63959E+01 35630   0.248E+01    0.276E+00
DAV:   2    -0.796597570840E+03   -0.58741E+00   -0.59473E+00 31640   0.460E+00    0.144E+00
DAV:   3    -0.796627202286E+03   -0.29631E-01   -0.11684E-01 39570   0.787E-01    0.784E-01
DAV:   4    -0.796626378473E+03    0.82381E-03   -0.94820E-03 44960   0.278E-01    0.530E-01
DAV:   5    -0.796626998402E+03   -0.61993E-03   -0.43526E-03 45580   0.225E-01    0.192E-01
DAV:   6    -0.796627440996E+03   -0.44259E-03   -0.15021E-03 43140   0.125E-01    0.112E-01
DAV:   7    -0.796627450509E+03   -0.95128E-05   -0.21800E-04 42110   0.544E-02    0.585E-02
DAV:   8    -0.796627465325E+03   -0.14816E-04   -0.52824E-05 32750   0.260E-02    0.343E-02
DAV:   9    -0.796627481283E+03   -0.15957E-04   -0.30149E-05 23830   0.154E-02    0.275E-02
DAV:  10    -0.796627489408E+03   -0.81250E-05   -0.11638E-05 18280   0.104E-02
 200 F= -.79662749E+03 E0= -.79662749E+03  d E =0.133815E-01  mag=    47.0000
