       N       E                     dE             d eps       ncg     rms          rms(c)
DAV:   1     0.309755925268E+04    0.30976E+04   -0.25779E+05 11556   0.130E+03
DAV:   2    -0.599574624491E+03   -0.36971E+04   -0.35635E+04 14064   0.297E+02
DAV:   3    -0.865572741408E+03   -0.26600E+03   -0.26428E+03 13992   0.844E+01
DAV:   4    -0.868980662535E+03   -0.34079E+01   -0.33950E+01 14052   0.102E+01
DAV:   5    -0.869041167300E+03   -0.60505E-01   -0.60350E-01 14352   0.126E+00    0.988E+01
DAV:   6    -0.771033575501E+03    0.98008E+02   -0.41079E+02 12876   0.320E+01    0.504E+01
DAV:   7    -0.780463302753E+03   -0.94297E+01   -0.22126E+01 13092   0.777E+00    0.163E+01
DAV:   8    -0.785272969734E+03   -0.48097E+01   -0.22787E+00 13584   0.274E+00    0.787E+00
DAV:   9    -0.787793618743E+03   -0.25206E+01   -0.14951E+00 14016   0.189E+00    0.386E+00
DAV:  10    -0.788325013643E+03   -0.53139E+00   -0.34055E-01 13176   0.997E-01    0.115E+00
DAV:  11    -0.788397678381E+03   -0.72665E-01   -0.42138E-02 14088   0.374E-01    0.622E-01
DAV:  12    -0.788408749030E+03   -0.11071E-01   -0.65396E-03 13320   0.155E-01    0.284E-01
DAV:  13    -0.788410925559E+03   -0.21765E-02   -0.11594E-03 13860   0.685E-02    0.104E-01
DAV:  14    -0.788411437685E+03   -0.51213E-03   -0.45390E-04 13008   0.421E-02    0.428E-02
DAV:  15    -0.788411468956E+03   -0.31272E-04   -0.61661E-05 13560   0.222E-02    0.297E-02
DAV:  16    -0.788411477574E+03   -0.86180E-05   -0.25617E-05 11028   0.146E-02
   1 F= -.78841148E+03 E0= -.78841148E+03  d E =-.788411E+03  mag=    -0.0035
       N       E                     dE             d eps       ncg     rms          rms(c)
DAV:   1    -0.788411512333E+03   -0.43376E-04   -0.82227E-04 12264   0.512E-02    0.113E-02
DAV:   2    -0.788411512599E+03   -0.26651E-06   -0.23328E-05 11628   0.979E-03    0.560E-03
DAV:   3    -0.788411511279E+03    0.13199E-05   -0.16133E-06  7380   0.394E-03    0.331E-03
DAV:   4    -0.788411509780E+03    0.14992E-05   -0.16950E-06  9252   0.566E-03
   2 F= -.78841151E+03 E0= -.78841151E+03  d E =-.322058E-04  mag=     0.0001
       N       E                     dE             d eps       ncg     rms          rms(c)
DAV:   1    -0.788411660168E+03   -0.14889E-03   -0.42686E-02 11904   0.355E-01    0.611E-02
DAV:   2    -0.788411745914E+03   -0.85746E-04   -0.96551E-04 13584   0.500E-02    0.229E-02
DAV:   3    -0.788411737375E+03    0.85395E-05   -0.12086E-05 10464   0.853E-03    0.122E-02
DAV:   4    -0.788411733580E+03    0.37950E-05   -0.11957E-05  9528   0.935E-03
   3 F= -.78841173E+03 E0= -.78841173E+03  d E =-.223800E-03  mag=     0.0000
       N       E                     dE             d eps       ncg     rms          rms(c)
DAV:   1    -0.787934027700E+03    0.47771E+00   -0.30905E+01 11640   0.103E+01    0.393E+00
DAV:   2    -0.788015601730E+03   -0.81574E-01   -0.12236E+00 14196   0.193E+00    0.147E+00
DAV:   3    -0.787977405441E+03    0.38196E-01   -0.31812E-02 14376   0.538E-01    0.609E-01
DAV:   4    -0.787962609571E+03    0.14796E-01   -0.25899E-02 14088   0.523E-01    0.189E-01
DAV:   5    -0.787960483881E+03    0.21257E-02   -0.12518E-02 14328   0.314E-01    0.161E-01
DAV:   6    -0.787959920386E+03    0.56350E-03   -0.19313E-03 14400   0.970E-02    0.942E-02
DAV:   7    -0.787959195712E+03    0.72467E-03   -0.88380E-04 14328   0.943E-02    0.406E-02
DAV:   8    -0.787959041853E+03    0.15386E-03   -0.40396E-04 14472   0.713E-02    0.371E-02
DAV:   9    -0.787959046820E+03   -0.49675E-05   -0.37290E-04 14232   0.417E-02    0.354E-02
DAV:  10    -0.787959038644E+03    0.81769E-05   -0.12130E-05 10524   0.115E-02
   4 F= -.78795904E+03 E0= -.78795904E+03  d E =0.452695E+00  mag=    -0.0000
       N       E                     dE             d eps       ncg     rms          rms(c)
DAV:   1    -0.788056505174E+03   -0.97458E-01   -0.93024E+01 11904   0.178E+01    0.784E+00
DAV:   2    -0.788271676314E+03   -0.21517E+00   -0.36119E+00 14196   0.338E+00    0.265E+00
DAV:   3    -0.788152775460E+03    0.11890E+00   -0.84976E-02 14352   0.889E-01    0.132E+00
DAV:   4    -0.788091656019E+03    0.61119E-01   -0.87339E-02 14088   0.106E+00    0.333E-01
DAV:   5    -0.788085507797E+03    0.61482E-02   -0.51796E-02 14400   0.671E-01    0.288E-01
DAV:   6    -0.788084048582E+03    0.14592E-02   -0.10685E-02 14292   0.224E-01    0.206E-01
DAV:   7    -0.788082544645E+03    0.15039E-02   -0.19874E-03 14124   0.103E-01    0.960E-02
DAV:   8    -0.788081468214E+03    0.10764E-02   -0.10701E-03 14400   0.187E-01    0.598E-02
DAV:   9    -0.788081458862E+03    0.93528E-05   -0.12440E-03 14328   0.871E-02    0.561E-02
DAV:  10    -0.788081472791E+03   -0.13930E-04   -0.37679E-04 13908   0.367E-02    0.554E-02
DAV:  11    -0.788081452371E+03    0.20421E-04   -0.35655E-05 13272   0.132E-02    0.317E-02
DAV:  12    -0.788081438899E+03    0.13472E-04   -0.51309E-05 13320   0.179E-02    0.774E-03
DAV:  13    -0.788081440113E+03   -0.12139E-05   -0.12881E-05  8412   0.672E-03
   5 F= -.78808144E+03 E0= -.78808144E+03  d E =-.122401E+00  mag=     0.0000
       N       E                     dE             d eps       ncg     rms          rms(c)
DAV:   1    -0.788405597048E+03   -0.32416E+00   -0.19573E+01 11904   0.826E+00    0.329E+00
DAV:   2    -0.788454765288E+03   -0.49168E-01   -0.79125E-01 14184   0.158E+00    0.132E+00
DAV:   3    -0.788427270683E+03    0.27495E-01   -0.21852E-02 14352   0.474E-01    0.584E-01
DAV:   4    -0.788415880570E+03    0.11390E-01   -0.18448E-02 14064   0.489E-01    0.161E-01
DAV:   5    -0.788414630040E+03    0.12505E-02   -0.11018E-02 14328   0.294E-01    0.149E-01
DAV:   6    -0.788414330609E+03    0.29943E-03   -0.18238E-03 14256   0.833E-02    0.110E-01
DAV:   7    -0.788413899035E+03    0.43157E-03   -0.53384E-04 14220   0.535E-02    0.459E-02
DAV:   8    -0.788413629534E+03    0.26950E-03   -0.36989E-04 14424   0.900E-02    0.389E-02
DAV:   9    -0.788413626802E+03    0.27326E-05   -0.38094E-04 14208   0.425E-02    0.302E-02
DAV:  10    -0.788413628520E+03   -0.17186E-05   -0.47358E-05 12984   0.126E-02
   6 F= -.78841363E+03 E0= -.78841363E+03  d E =-.332188E+00  mag=    -0.0000
       N       E                     dE             d eps       ncg     rms          rms(c)
DAV:   1    -0.788414240980E+03   -0.61418E-03   -0.17706E-02 11904   0.233E-01    0.101E-01
DAV:   2    -0.788414290823E+03   -0.49843E-04   -0.64560E-04 14256   0.411E-02    0.323E-02
DAV:   3    -0.788414279197E+03    0.11626E-04   -0.18006E-05 11676   0.989E-03    0.143E-02
DAV:   4    -0.788414276554E+03    0.26425E-05   -0.10253E-05  9024   0.702E-03
   7 F= -.78841428E+03 E0= -.78841428E+03  d E =-.648034E-03  mag=     0.0000
       N       E                     dE             d eps       ncg     rms          rms(c)
DAV:   1    -0.788414565691E+03   -0.28649E-03   -0.90606E-02 11688   0.541E-01    0.209E-01
DAV:   2    -0.788414768525E+03   -0.20283E-03   -0.29135E-03 14268   0.904E-02    0.632E-02
DAV:   3    -0.788414713068E+03    0.55457E-04   -0.98639E-05 14448   0.234E-02    0.295E-02
DAV:   4    -0.788414700287E+03    0.12781E-04   -0.46015E-05 13704   0.151E-02    0.128E-02
DAV:   5    -0.788414698970E+03    0.13176E-05   -0.10339E-05  8520   0.819E-03
   8 F= -.78841470E+03 E0= -.78841470E+03  d E =-.422415E-03  mag=     0.0000
       N       E                     dE             d eps       ncg     rms          rms(c)
DAV:   1    -0.788414633260E+03    0.67028E-04   -0.23579E-02 11784   0.279E-01    0.921E-02
DAV:   2    -0.788414675060E+03   -0.41801E-04   -0.59357E-04 14448   0.423E-02    0.230E-02
DAV:   3    -0.788414666184E+03    0.88764E-05   -0.19857E-05 11880   0.107E-02    0.116E-02
DAV:   4    -0.788414664185E+03    0.19986E-05   -0.11033E-05  9444   0.741E-03
   9 F= -.78841466E+03 E0= -.78841466E+03  d E =0.347845E-04  mag=    -0.0000
       N       E                     dE             d eps       ncg     rms          rms(c)
DAV:   1    -0.788414247372E+03    0.41881E-03   -0.10482E-01 11664   0.606E-01    0.134E-01
DAV:   2    -0.788414442352E+03   -0.19498E-03   -0.25815E-03 14220   0.902E-02    0.437E-02
DAV:   3    -0.788414404233E+03    0.38118E-04   -0.54211E-05 14292   0.182E-02    0.230E-02
DAV:   4    -0.788414389910E+03    0.14324E-04   -0.37335E-05 13656   0.155E-02    0.735E-03
DAV:   5    -0.788414389342E+03    0.56742E-06   -0.10471E-05  8088   0.855E-03
  10 F= -.78841439E+03 E0= -.78841439E+03  d E =0.274843E-03  mag=    -0.0000
       N       E                     dE             d eps       ncg     rms          rms(c)
DAV:   1    -0.788407181903E+03    0.72080E-02   -0.72187E-01 11544   0.160E+00    0.563E-01
DAV:   2    -0.788408968465E+03   -0.17866E-02   -0.26459E-02 14304   0.288E-01    0.205E-01
DAV:   3    -0.788408239881E+03    0.72858E-03   -0.70290E-04 14352   0.792E-02    0.888E-02
DAV:   4    -0.788407975147E+03    0.26473E-03   -0.49028E-04 14184   0.744E-02    0.285E-02
DAV:   5    -0.788407941846E+03    0.33301E-04   -0.25860E-04 14328   0.496E-02    0.245E-02
DAV:   6    -0.788407938174E+03    0.36718E-05   -0.62127E-05 13536   0.151E-02
  11 F= -.78840794E+03 E0= -.78840794E+03  d E =0.645117E-02  mag=    -0.0000
       N       E                     dE             d eps       ncg     rms          rms(c)
DAV:   1    -0.788413896011E+03   -0.59542E-02   -0.48944E-01 11904   0.131E+00    0.478E-01
DAV:   2    -0.788415211627E+03   -0.13156E-02   -0.18476E-02 14232   0.239E-01    0.177E-01
DAV:   3    -0.788414719844E+03    0.49178E-03   -0.46929E-04 14304   0.620E-02    0.723E-02
DAV:   4    -0.788414567839E+03    0.15201E-03   -0.31510E-04 14208   0.546E-02    0.221E-02
DAV:   5    -0.788414554976E+03    0.12863E-04   -0.14434E-04 14400   0.347E-02    0.192E-02
DAV:   6    -0.788414552544E+03    0.24319E-05   -0.28228E-05 10560   0.104E-02
  12 F= -.78841455E+03 E0= -.78841455E+03  d E =-.661437E-02  mag=     0.0000
       N       E                     dE             d eps       ncg     rms          rms(c)
DAV:   1    -0.788414880172E+03   -0.32520E-03   -0.10583E-01 11568   0.598E-01    0.225E-01
DAV:   2    -0.788415077550E+03   -0.19738E-03   -0.33908E-03 14352   0.101E-01    0.687E-02
DAV:   3    -0.788415001999E+03    0.75550E-04   -0.11175E-04 14520   0.246E-02    0.323E-02
DAV:   4    -0.788414986309E+03    0.15691E-04   -0.61676E-05 14064   0.180E-02    0.137E-02
DAV:   5    -0.788414985682E+03    0.62692E-06   -0.14642E-05 10128   0.109E-02
  13 F= -.78841499E+03 E0= -.78841499E+03  d E =-.433137E-03  mag=     0.0000
       N       E                     dE             d eps       ncg     rms          rms(c)
DAV:   1    -0.788415147525E+03   -0.16122E-03   -0.71792E-03 11856   0.156E-01    0.567E-02
DAV:   2    -0.788415161590E+03   -0.14065E-04   -0.24136E-04 14328   0.276E-02    0.193E-02
DAV:   3    -0.788415155741E+03    0.58495E-05   -0.77250E-06  8748   0.732E-03    0.895E-03
DAV:   4    -0.788415154226E+03    0.15149E-05   -0.54680E-06  8280   0.585E-03
  14 F= -.78841515E+03 E0= -.78841515E+03  d E =-.168544E-03  mag=     0.0000
       N       E                     dE             d eps       ncg     rms          rms(c)
DAV:   1    -0.788415624210E+03   -0.46847E-03   -0.54854E-02 11568   0.437E-01    0.983E-02
DAV:   2    -0.788415726124E+03   -0.10191E-03   -0.14161E-03 14016   0.676E-02    0.368E-02
DAV:   3    -0.788415701997E+03    0.24127E-04   -0.35517E-05 13752   0.151E-02    0.184E-02
DAV:   4    -0.788415690443E+03    0.11554E-04   -0.21470E-05 10896   0.137E-02    0.561E-03
DAV:   5    -0.788415689331E+03    0.11128E-05   -0.89214E-06  8112   0.803E-03
  15 F= -.78841569E+03 E0= -.78841569E+03  d E =-.535105E-03  mag=     0.0000
       N       E                     dE             d eps       ncg     rms          rms(c)
DAV:   1    -0.788416232231E+03   -0.54179E-03   -0.45430E-01 11520   0.117E+00    0.295E-01
DAV:   2    -0.788417255198E+03   -0.10230E-02   -0.12270E-02 13800   0.181E-01    0.112E-01
DAV:   3    -0.788417092083E+03    0.16311E-03   -0.24963E-04 14304   0.365E-02    0.508E-02
DAV:   4    -0.788417043803E+03    0.48280E-04   -0.13717E-04 14088   0.269E-02    0.158E-02
DAV:   5    -0.788417041795E+03    0.20080E-05   -0.33774E-05 12768   0.147E-02
  16 F= -.78841704E+03 E0= -.78841704E+03  d E =-.135246E-02  mag=    -0.0000
       N       E                     dE             d eps       ncg     rms          rms(c)
DAV:   1    -0.788417707391E+03   -0.66359E-03   -0.12647E-01 11544   0.649E-01    0.244E-01
DAV:   2    -0.788418067911E+03   -0.36052E-03   -0.46260E-03 14088   0.113E-01    0.832E-02
DAV:   3    -0.788417973317E+03    0.94594E-04   -0.10629E-04 14448   0.246E-02    0.355E-02
DAV:   4    -0.788417951177E+03    0.22141E-04   -0.65440E-05 13968   0.184E-02    0.113E-02
DAV:   5    -0.788417951546E+03   -0.36918E-06   -0.16975E-05  9180   0.928E-03
  17 F= -.78841795E+03 E0= -.78841795E+03  d E =-.909751E-03  mag=     0.0000
       N       E                     dE             d eps       ncg     rms          rms(c)
DAV:   1    -0.788418176417E+03   -0.22524E-03   -0.39977E-02 11568   0.359E-01    0.145E-01
DAV:   2    -0.788418288732E+03   -0.11231E-03   -0.15527E-03 14184   0.659E-02    0.517E-02
DAV:   3    -0.788418251669E+03    0.37063E-04   -0.42290E-05 13860   0.157E-02    0.218E-02
DAV:   4    -0.788418241575E+03    0.10094E-04   -0.24655E-05 11616   0.126E-02    0.733E-03
DAV:   5    -0.788418240889E+03    0.68605E-06   -0.84943E-06  7968   0.750E-03
  18 F= -.78841824E+03 E0= -.78841824E+03  d E =-.289343E-03  mag=     0.0000
       N       E                     dE             d eps       ncg     rms          rms(c)
DAV:   1    -0.788418615296E+03   -0.37372E-03   -0.58689E-03 11568   0.135E-01    0.300E-02
DAV:   2    -0.788418628150E+03   -0.12854E-04   -0.15179E-04 13776   0.206E-02    0.115E-02
DAV:   3    -0.788418626355E+03    0.17945E-05   -0.25563E-06  7224   0.400E-03    0.566E-03
DAV:   4    -0.788418625774E+03    0.58099E-06   -0.24283E-06  6396   0.355E-03
  19 F= -.78841863E+03 E0= -.78841863E+03  d E =-.384886E-03  mag=    -0.0000
       N       E                     dE             d eps       ncg     rms          rms(c)
DAV:   1    -0.788420537395E+03   -0.19110E-02   -0.17918E-01 11520   0.714E-01    0.126E-01
DAV:   2    -0.788420879820E+03   -0.34242E-03   -0.40871E-03 13608   0.101E-01    0.469E-02
DAV:   3    -0.788420843729E+03    0.36090E-04   -0.64640E-05 13896   0.169E-02    0.252E-02
DAV:   4    -0.788420828832E+03    0.14897E-04   -0.49857E-05 13848   0.152E-02    0.797E-03
DAV:   5    -0.788420828147E+03    0.68515E-06   -0.94605E-06  8472   0.772E-03
  20 F= -.78842083E+03 E0= -.78842083E+03  d E =-.220237E-02  mag=    -0.0000
       N       E                     dE             d eps       ncg     rms          rms(c)
DAV:   1    -0.788423618586E+03   -0.27898E-02   -0.43386E-01 11520   0.111E+00    0.244E-01
DAV:   2    -0.788424452182E+03   -0.83360E-03   -0.10653E-02 13728   0.166E-01    0.893E-02
DAV:   3    -0.788424310410E+03    0.14177E-03   -0.20573E-04 14232   0.316E-02    0.453E-02
DAV:   4    -0.788424258705E+03    0.51705E-04   -0.14913E-04 13944   0.296E-02    0.143E-02
DAV:   5    -0.788424258434E+03    0.27084E-06   -0.41425E-05 13368   0.143E-02
  21 F= -.78842426E+03 E0= -.78842426E+03  d E =-.343029E-02  mag=     0.0000
       N       E                     dE             d eps       ncg     rms          rms(c)
DAV:   1    -0.788422273752E+03    0.19850E-02   -0.17258E-01 11520   0.735E-01    0.203E-01
DAV:   2    -0.788422654813E+03   -0.38106E-03   -0.48121E-03 13968   0.116E-01    0.722E-02
DAV:   3    -0.788422578209E+03    0.76604E-04   -0.11054E-04 14256   0.239E-02    0.329E-02
DAV:   4    -0.788422555748E+03    0.22461E-04   -0.61082E-05 14124   0.180E-02    0.108E-02
DAV:   5    -0.788422555110E+03    0.63809E-06   -0.15766E-05  9912   0.949E-03
  22 F= -.78842256E+03 E0= -.78842256E+03  d E =0.170332E-02  mag=     0.0000
       N       E                     dE             d eps       ncg     rms          rms(c)
DAV:   1    -0.788421360875E+03    0.11949E-02   -0.77687E-02 11520   0.498E-01    0.134E-01
DAV:   2    -0.788421533054E+03   -0.17218E-03   -0.22812E-03 13848   0.814E-02    0.508E-02
DAV:   3    -0.788421489540E+03    0.43514E-04   -0.46425E-05 14112   0.175E-02    0.232E-02
DAV:   4    -0.788421473863E+03    0.15677E-04   -0.36718E-05 13296   0.167E-02    0.684E-03
DAV:   5    -0.788421472923E+03    0.93991E-06   -0.11925E-05  9024   0.920E-03
  23 F= -.78842147E+03 E0= -.78842147E+03  d E =0.108219E-02  mag=     0.0000
