       N       E                     dE             d eps       ncg     rms          rms(c)
DAV:   1     0.305501651890E+04    0.30550E+04   -0.25770E+05 11520   0.130E+03
DAV:   2    -0.604929217688E+03   -0.36599E+04   -0.35376E+04 14064   0.298E+02
DAV:   3    -0.863789152729E+03   -0.25886E+03   -0.25624E+03 13980   0.836E+01
DAV:   4    -0.867073168699E+03   -0.32840E+01   -0.32714E+01 14028   0.101E+01
DAV:   5    -0.867130698840E+03   -0.57530E-01   -0.57387E-01 14268   0.123E+00    0.989E+01
DAV:   6    -0.776370594897E+03    0.90760E+02   -0.42060E+02 13296   0.321E+01    0.518E+01
DAV:   7    -0.782012200265E+03   -0.56416E+01   -0.34771E+01 13620   0.110E+01    0.209E+01
DAV:   8    -0.785843610856E+03   -0.38314E+01   -0.17086E+01 14748   0.729E+00    0.142E+01
DAV:   9    -0.789079456810E+03   -0.32358E+01   -0.26122E+01 14676   0.487E+00    0.115E+01
DAV:  10    -0.789417930147E+03   -0.33847E+00   -0.19863E+01 15288   0.351E+00    0.825E+00
DAV:  11    -0.789559662475E+03   -0.14173E+00   -0.21849E+00 14364   0.275E+00    0.580E+00
DAV:  12    -0.789961910926E+03   -0.40225E+00   -0.19424E+00 14448   0.231E+00    0.542E+00
DAV:  13    -0.790112780726E+03   -0.15087E+00   -0.11757E+00 14136   0.163E+00    0.332E+00
DAV:  14    -0.790197820031E+03   -0.85039E-01   -0.83929E-01 14676   0.125E+00    0.400E+00
DAV:  15    -0.790225055781E+03   -0.27236E-01   -0.29779E-01 14460   0.888E-01    0.233E+00
DAV:  16    -0.790285584297E+03   -0.60529E-01   -0.53987E-01 14940   0.730E-01    0.446E+00
DAV:  17    -0.790278011463E+03    0.75728E-02   -0.22978E-02 12348   0.341E-01    0.438E+00
DAV:  18    -0.790263855193E+03    0.14156E-01   -0.32232E-03 13908   0.126E-01    0.392E+00
DAV:  19    -0.790247477436E+03    0.16378E-01   -0.14035E-01 16872   0.731E-01    0.152E+00
DAV:  20    -0.790267368340E+03   -0.19891E-01   -0.52827E-02 12768   0.373E-01    0.128E+00
DAV:  21    -0.790272196992E+03   -0.48287E-02   -0.17248E-02 13392   0.196E-01    0.155E+00
DAV:  22    -0.790271491085E+03    0.70591E-03   -0.29253E-03 12024   0.105E-01    0.158E+00
DAV:  23    -0.790269281071E+03    0.22100E-02   -0.29883E-03 13224   0.945E-02    0.162E+00
DAV:  24    -0.790267709458E+03    0.15716E-02   -0.16842E-02 14052   0.136E-01    0.170E+00
DAV:  25    -0.790269162285E+03   -0.14528E-02   -0.60777E-02 13884   0.264E-01    0.171E+00
DAV:  26    -0.790266852619E+03    0.23097E-02   -0.26651E-02 12516   0.248E-01    0.116E+00
DAV:  27    -0.790266476327E+03    0.37629E-03   -0.32471E-02 12600   0.262E-01    0.510E-01
DAV:  28    -0.790268146917E+03   -0.16706E-02   -0.67435E-03 12636   0.143E-01    0.519E-01
DAV:  29    -0.790267827283E+03    0.31963E-03   -0.17420E-02 12864   0.111E-01    0.464E-01
DAV:  30    -0.790268675806E+03   -0.84852E-03   -0.35779E-03 12168   0.871E-02    0.412E-01
DAV:  31    -0.790268332967E+03    0.34284E-03   -0.15409E-03 12360   0.711E-02    0.347E-01
DAV:  32    -0.790267386125E+03    0.94684E-03   -0.22989E-03 12012   0.664E-02    0.158E-01
DAV:  33    -0.790267533572E+03   -0.14745E-03   -0.41307E-04 12180   0.356E-02    0.923E-02
DAV:  34    -0.790267637530E+03   -0.10396E-03   -0.21279E-04 11904   0.217E-02    0.663E-02
DAV:  35    -0.790267667294E+03   -0.29764E-04   -0.86631E-05 12024   0.142E-02    0.234E-02
DAV:  36    -0.790267702343E+03   -0.35049E-04   -0.43891E-05  9864   0.107E-02    0.340E-02
DAV:  37    -0.790267711086E+03   -0.87433E-05   -0.16394E-05  8352   0.835E-03
   1 F= -.79026771E+03 E0= -.79024134E+03  d E =-.790268E+03  mag=    -0.5639
       N       E                     dE             d eps       ncg     rms          rms(c)
DAV:   1    -0.790267805864E+03   -0.10352E-03   -0.16500E-03 11832   0.717E-02    0.516E-02
DAV:   2    -0.790267871121E+03   -0.65258E-04   -0.51345E-04 15708   0.332E-02    0.177E-01
DAV:   3    -0.790267792852E+03    0.78270E-04   -0.29521E-04 14208   0.253E-02    0.351E-02
DAV:   4    -0.790267826273E+03   -0.33422E-04   -0.50701E-05 10680   0.104E-02    0.598E-02
DAV:   5    -0.790267828993E+03   -0.27196E-05   -0.20223E-05  8220   0.652E-03
   2 F= -.79026783E+03 E0= -.79024171E+03  d E =-.117907E-03  mag=    -0.5676
       N       E                     dE             d eps       ncg     rms          rms(c)
DAV:   1    -0.790267963310E+03   -0.13704E-03   -0.45700E-03 11808   0.118E-01    0.196E-01
DAV:   2    -0.790269677639E+03   -0.17143E-02   -0.11533E-02 17220   0.143E-01    0.926E-01
DAV:   3    -0.790267318355E+03    0.23593E-02   -0.89363E-03 15780   0.119E-01    0.124E-01
DAV:   4    -0.790267951508E+03   -0.63315E-03   -0.34819E-04 11784   0.359E-02    0.115E-01
DAV:   5    -0.790267961074E+03   -0.95654E-05   -0.46932E-05 10704   0.103E-02
   3 F= -.79026796E+03 E0= -.79024195E+03  d E =-.132081E-03  mag=    -0.5798
       N       E                     dE             d eps       ncg     rms          rms(c)
DAV:   1    -0.790269119609E+03   -0.11681E-02   -0.24653E-01 11664   0.874E-01    0.124E+00
DAV:   2    -0.790322249974E+03   -0.53130E-01   -0.61161E-01 17904   0.951E-01    0.491E+00
DAV:   3    -0.790261050417E+03    0.61200E-01   -0.36281E-01 16896   0.710E-01    0.145E+00
DAV:   4    -0.790265923758E+03   -0.48733E-02   -0.15571E-02 12636   0.212E-01    0.751E-01
DAV:   5    -0.790267441708E+03   -0.15179E-02   -0.53287E-03 14100   0.104E-01    0.608E-01
DAV:   6    -0.790267841938E+03   -0.40023E-03   -0.48219E-04 12072   0.469E-02    0.564E-01
DAV:   7    -0.790267255248E+03    0.58669E-03   -0.10434E-03 12396   0.430E-02    0.604E-01
DAV:   8    -0.790265811167E+03    0.14441E-02   -0.45569E-03 12864   0.842E-02    0.377E-01
DAV:   9    -0.790266741080E+03   -0.92991E-03   -0.60798E-03 12528   0.962E-02    0.625E-01
DAV:  10    -0.790266463825E+03    0.27726E-03   -0.36624E-03 11928   0.922E-02    0.347E-01
DAV:  11    -0.790266303608E+03    0.16022E-03   -0.19433E-03 12120   0.589E-02    0.121E-01
DAV:  12    -0.790266408610E+03   -0.10500E-03   -0.31872E-04 12612   0.295E-02    0.140E-01
DAV:  13    -0.790266342656E+03    0.65953E-04   -0.29687E-04 12480   0.232E-02    0.706E-02
DAV:  14    -0.790266365885E+03   -0.23229E-04   -0.95528E-05 11196   0.155E-02    0.639E-02
DAV:  15    -0.790266326731E+03    0.39154E-04   -0.15847E-04 11220   0.150E-02    0.579E-02
DAV:  16    -0.790266313833E+03    0.12898E-04   -0.53287E-05 11124   0.112E-02    0.395E-02
DAV:  17    -0.790266290170E+03    0.23663E-04   -0.57551E-05 12264   0.965E-03    0.389E-02
DAV:  18    -0.790266274495E+03    0.15675E-04   -0.33173E-05  9312   0.730E-03    0.408E-02
DAV:  19    -0.790266291847E+03   -0.17352E-04   -0.10406E-05  8364   0.699E-03    0.391E-02
DAV:  20    -0.790266287422E+03    0.44246E-05   -0.13554E-06  6804   0.179E-03
   4 F= -.79026629E+03 E0= -.79023997E+03  d E =0.167365E-02  mag=    -0.5469
       N       E                     dE             d eps       ncg     rms          rms(c)
DAV:   1    -0.790275759208E+03   -0.94674E-02   -0.36128E+00 11568   0.320E+00    0.373E+00
DAV:   2    -0.790400007138E+03   -0.12425E+00   -0.28815E+00 17724   0.248E+00    0.716E+00
DAV:   3    -0.790335418168E+03    0.64589E-01   -0.23335E+00 17232   0.149E+00    0.511E+00
DAV:   4    -0.790261360256E+03    0.74058E-01   -0.13724E-01 14148   0.708E-01    0.300E+00
DAV:   5    -0.790248292814E+03    0.13067E-01   -0.32551E-02 14052   0.399E-01    0.250E+00
DAV:   6    -0.790244168223E+03    0.41246E-02   -0.14277E-01 15552   0.413E-01    0.187E+00
DAV:   7    -0.790249108668E+03   -0.49404E-02   -0.25710E-02 12636   0.277E-01    0.179E+00
DAV:   8    -0.790243838021E+03    0.52706E-02   -0.13263E-02 14544   0.260E-01    0.105E+00
DAV:   9    -0.790244836336E+03   -0.99832E-03   -0.34852E-02 14100   0.217E-01    0.813E-01
DAV:  10    -0.790244514309E+03    0.32203E-03   -0.36301E-03 12348   0.125E-01    0.515E-01
DAV:  11    -0.790244778082E+03   -0.26377E-03   -0.19284E-03 13944   0.584E-02    0.395E-01
DAV:  12    -0.790244688701E+03    0.89381E-04   -0.17985E-04 11856   0.332E-02    0.398E-01
DAV:  13    -0.790243996239E+03    0.69246E-03   -0.13194E-03 11892   0.411E-02    0.395E-01
DAV:  14    -0.790243099735E+03    0.89650E-03   -0.81370E-03 12876   0.104E-01    0.363E-01
DAV:  15    -0.790243651483E+03   -0.55175E-03   -0.17590E-03 11796   0.831E-02    0.342E-01
DAV:  16    -0.790243417883E+03    0.23360E-03   -0.11633E-03 13992   0.494E-02    0.191E-01
DAV:  17    -0.790243077019E+03    0.34086E-03   -0.72745E-04 14280   0.469E-02    0.201E-01
DAV:  18    -0.790243554406E+03   -0.47739E-03   -0.18457E-03 12432   0.789E-02    0.166E-01
DAV:  19    -0.790243788476E+03   -0.23407E-03   -0.63613E-04 12552   0.426E-02    0.139E-01
DAV:  20    -0.790243834690E+03   -0.46214E-04   -0.27188E-03 12840   0.683E-02    0.117E-01
DAV:  21    -0.790244230068E+03   -0.39538E-03   -0.91213E-04 12924   0.403E-02    0.169E-01
DAV:  22    -0.790244602201E+03   -0.37213E-03   -0.86898E-04 14436   0.261E-02    0.254E-01
DAV:  23    -0.790244131349E+03    0.47085E-03   -0.11085E-03 11772   0.445E-02    0.166E-01
DAV:  24    -0.790244186772E+03   -0.55423E-04   -0.49542E-05 11184   0.122E-02    0.154E-01
DAV:  25    -0.790244062569E+03    0.12420E-03   -0.18283E-04 12168   0.135E-02    0.114E-01
DAV:  26    -0.790243862638E+03    0.19993E-03   -0.62953E-04 13440   0.281E-02    0.703E-02
DAV:  27    -0.790243777443E+03    0.85195E-04   -0.35766E-04 13944   0.224E-02    0.597E-02
DAV:  28    -0.790243789810E+03   -0.12367E-04   -0.61363E-05 10716   0.124E-02    0.595E-02
DAV:  29    -0.790243790187E+03   -0.37645E-06   -0.11924E-05  8532   0.597E-03
   5 F= -.79024379E+03 E0= -.79021793E+03  d E =0.224972E-01  mag=    -0.5851
       N       E                     dE             d eps       ncg     rms          rms(c)
DAV:   1    -0.790245211435E+03   -0.14216E-02   -0.37794E+00 11520   0.346E+00    0.143E+00
DAV:   2    -0.790279708561E+03   -0.34497E-01   -0.27276E-01 14748   0.821E-01    0.343E+00
DAV:   3    -0.790251760805E+03    0.27948E-01   -0.75959E-01 15924   0.551E-01    0.103E+00
DAV:   4    -0.790259379255E+03   -0.76184E-02   -0.67022E-02 13440   0.357E-01    0.176E+00
DAV:   5    -0.790253144702E+03    0.62346E-02   -0.42417E-02 14808   0.246E-01    0.671E-01
DAV:   6    -0.790252998889E+03    0.14581E-03   -0.41157E-03 13308   0.129E-01    0.504E-01
DAV:   7    -0.790252167583E+03    0.83131E-03   -0.65736E-03 14016   0.119E-01    0.300E-01
DAV:   8    -0.790252890697E+03   -0.72311E-03   -0.13831E-03 12084   0.603E-02    0.322E-01
DAV:   9    -0.790252760555E+03    0.13014E-03   -0.88723E-05 11976   0.252E-02    0.323E-01
DAV:  10    -0.790252720071E+03    0.40484E-04   -0.70220E-05 10560   0.946E-03    0.340E-01
DAV:  11    -0.790252824669E+03   -0.10460E-03   -0.47318E-05 10536   0.138E-02    0.350E-01
DAV:  12    -0.790253095004E+03   -0.27033E-03   -0.26479E-04 13440   0.351E-02    0.327E-01
DAV:  13    -0.790253498540E+03   -0.40354E-03   -0.29377E-03 13872   0.966E-02    0.352E-01
DAV:  14    -0.790253308559E+03    0.18998E-03   -0.36623E-03 13284   0.918E-02    0.342E-01
DAV:  15    -0.790253387143E+03   -0.78583E-04   -0.62018E-04 12312   0.444E-02    0.251E-01
DAV:  16    -0.790253472246E+03   -0.85103E-04   -0.27679E-04 12912   0.342E-02    0.193E-01
DAV:  17    -0.790253501410E+03   -0.29164E-04   -0.17263E-04 12024   0.252E-02    0.142E-01
DAV:  18    -0.790253536191E+03   -0.34782E-04   -0.18699E-04 12960   0.292E-02    0.766E-02
DAV:  19    -0.790253543636E+03   -0.74449E-05   -0.64449E-05 12336   0.143E-02
   6 F= -.79025354E+03 E0= -.79022967E+03  d E =-.975345E-02  mag=    -0.9036
       N       E                     dE             d eps       ncg     rms          rms(c)
DAV:   1    -0.787244272735E+03    0.30093E+01   -0.30088E+02 11520   0.299E+01    0.209E+01
DAV:   2    -0.790564279141E+03   -0.33200E+01   -0.88059E+01 16920   0.885E+00    0.114E+01
DAV:   3    -0.787937255346E+03    0.26270E+01   -0.97039E+00 15744   0.546E+00    0.818E+00
DAV:   4    -0.787761252875E+03    0.17600E+00   -0.89396E+00 14664   0.382E+00    0.629E+00
DAV:   5    -0.787662301966E+03    0.98951E-01   -0.50611E+00 15132   0.266E+00    0.798E+00
DAV:   6    -0.787585774818E+03    0.76527E-01   -0.83919E+00 15828   0.174E+00    0.998E+00
DAV:   7    -0.787500132903E+03    0.85642E-01   -0.16273E+01 17172   0.206E+00    0.509E+00
DAV:   8    -0.787449607034E+03    0.50526E-01   -0.34733E-01 12948   0.811E-01    0.406E+00
DAV:   9    -0.787444157348E+03    0.54497E-02   -0.24796E-01 15216   0.592E-01    0.466E+00
DAV:  10    -0.787452837500E+03   -0.86802E-02   -0.11088E-01 14328   0.449E-01    0.574E+00
DAV:  11    -0.787457243784E+03   -0.44063E-02   -0.11128E-02 12648   0.217E-01    0.601E+00
DAV:  12    -0.787370448181E+03    0.86796E-01   -0.52490E-02 16872   0.492E-01    0.492E+00
DAV:  13    -0.787254621066E+03    0.11583E+00   -0.77002E-02 15720   0.626E-01    0.368E+00
DAV:  14    -0.787224041745E+03    0.30579E-01   -0.47299E-02 13848   0.379E-01    0.317E+00
DAV:  15    -0.787219749482E+03    0.42923E-02   -0.11411E-02 14304   0.248E-01    0.285E+00
DAV:  16    -0.787183019594E+03    0.36730E-01   -0.24453E-02 15720   0.389E-01    0.283E+00
DAV:  17    -0.787181748817E+03    0.12708E-02   -0.95800E-03 12360   0.235E-01    0.285E+00
DAV:  18    -0.787178291665E+03    0.34572E-02   -0.34237E-03 14892   0.116E-01    0.315E+00
DAV:  19    -0.787177024256E+03    0.12674E-02   -0.12286E-02 14316   0.126E-01    0.325E+00
DAV:  20    -0.787160139519E+03    0.16885E-01   -0.75846E-02 16548   0.457E-01    0.191E+00
DAV:  21    -0.787154913581E+03    0.52259E-02   -0.39891E-02 13548   0.290E-01    0.134E+00
DAV:  22    -0.787159690340E+03   -0.47768E-02   -0.12807E-02 12336   0.136E-01    0.130E+00
DAV:  23    -0.787159904149E+03   -0.21381E-03   -0.13688E-03 12684   0.556E-02    0.132E+00
DAV:  24    -0.787159567211E+03    0.33694E-03   -0.30702E-03 13308   0.103E-01    0.115E+00
DAV:  25    -0.787161241676E+03   -0.16745E-02   -0.86615E-03 15276   0.197E-01    0.122E+00
DAV:  26    -0.787159619783E+03    0.16219E-02   -0.13361E-02 13200   0.220E-01    0.774E-01
DAV:  27    -0.787161483856E+03   -0.18641E-02   -0.25852E-02 13128   0.203E-01    0.708E-01
DAV:  28    -0.787161425016E+03    0.58840E-04   -0.70943E-03 11868   0.130E-01    0.675E-01
DAV:  29    -0.787161281567E+03    0.14345E-03   -0.24109E-03 12576   0.103E-01    0.402E-01
DAV:  30    -0.787161782893E+03   -0.50133E-03   -0.58213E-03 12156   0.109E-01    0.319E-01
DAV:  31    -0.787162008292E+03   -0.22540E-03   -0.65628E-04 11928   0.542E-02    0.318E-01
DAV:  32    -0.787161887599E+03    0.12069E-03   -0.22811E-04 12768   0.289E-02    0.282E-01
DAV:  33    -0.787161958780E+03   -0.71182E-04   -0.35349E-03 14988   0.109E-01    0.369E-01
DAV:  34    -0.787161709606E+03    0.24917E-03   -0.92244E-04 13128   0.588E-02    0.271E-01
DAV:  35    -0.787161636593E+03    0.73013E-04   -0.53717E-04 12840   0.291E-02    0.178E-01
DAV:  36    -0.787161617114E+03    0.19479E-04   -0.75920E-04 13248   0.263E-02    0.139E-01
DAV:  37    -0.787161780040E+03   -0.16293E-03   -0.24453E-04 11880   0.298E-02    0.849E-02
DAV:  38    -0.787161934655E+03   -0.15461E-03   -0.25000E-04 13764   0.265E-02    0.140E-01
DAV:  39    -0.787161922504E+03    0.12151E-04   -0.16345E-04 13608   0.243E-02    0.124E-01
DAV:  40    -0.787161894425E+03    0.28079E-04   -0.40314E-04 12576   0.213E-02    0.438E-02
DAV:  41    -0.787161937092E+03   -0.42666E-04   -0.37803E-05 11256   0.129E-02    0.293E-02
DAV:  42    -0.787161935649E+03    0.14425E-05   -0.16355E-05  7452   0.417E-03
   7 F= -.78716194E+03 E0= -.78713108E+03  d E =0.309161E+01  mag=    -1.1132
       N       E                     dE             d eps       ncg     rms          rms(c)
DAV:   1    -0.789885016683E+03   -0.27231E+01   -0.20657E+02 11976   0.215E+01    0.165E+01
DAV:   2    -0.793194447944E+03   -0.33094E+01   -0.95794E+01 16452   0.753E+00    0.126E+01
DAV:   3    -0.790932338217E+03    0.22621E+01   -0.17363E+01 15168   0.489E+00    0.107E+01
DAV:   4    -0.790315840728E+03    0.61650E+00   -0.91931E+00 14676   0.262E+00    0.931E+00
DAV:   5    -0.790031153037E+03    0.28469E+00   -0.23257E+00 14688   0.162E+00    0.959E+00
DAV:   6    -0.789931803562E+03    0.99349E-01   -0.35753E+00 15024   0.983E-01    0.787E+00
DAV:   7    -0.789789468069E+03    0.14234E+00   -0.11639E+00 15708   0.907E-01    0.744E+00
DAV:   8    -0.789848827482E+03   -0.59359E-01   -0.22220E+00 16932   0.106E+00    0.876E+00
DAV:   9    -0.789818125130E+03    0.30702E-01   -0.62281E+00 18252   0.243E+00    0.824E+00
DAV:  10    -0.790055220600E+03   -0.23710E+00   -0.55970E+00 15012   0.188E+00    0.640E+00
DAV:  11    -0.789931170621E+03    0.12405E+00   -0.28630E-01 13656   0.841E-01    0.615E+00
DAV:  12    -0.789940502299E+03   -0.93317E-02   -0.31452E-02 13020   0.269E-01    0.646E+00
DAV:  13    -0.789975278893E+03   -0.34777E-01   -0.19396E-01 17208   0.590E-01    0.590E+00
DAV:  14    -0.789816535786E+03    0.15874E+00   -0.10259E+00 16176   0.802E-01    0.581E+00
DAV:  15    -0.789850078751E+03   -0.33543E-01   -0.35385E-02 12600   0.360E-01    0.623E+00
DAV:  16    -0.789912552074E+03   -0.62473E-01   -0.81212E-02 16764   0.683E-01    0.625E+00
DAV:  17    -0.789896136940E+03    0.16415E-01   -0.31410E-02 11892   0.360E-01    0.538E+00
DAV:  18    -0.789884695961E+03    0.11441E-01   -0.14280E-01 16080   0.942E-01    0.673E+00
DAV:  19    -0.789708223455E+03    0.17647E+00   -0.28389E-01 14316   0.835E-01    0.497E+00
DAV:  20    -0.789622159942E+03    0.86064E-01   -0.15654E-01 14592   0.816E-01    0.523E+00
DAV:  21    -0.789672971107E+03   -0.50811E-01   -0.13181E-01 14952   0.820E-01    0.549E+00
DAV:  22    -0.789646486612E+03    0.26484E-01   -0.10810E-01 14016   0.601E-01    0.359E+00
DAV:  23    -0.789657560555E+03   -0.11074E-01   -0.15185E-02 12120   0.223E-01    0.375E+00
DAV:  24    -0.789653498946E+03    0.40616E-02   -0.48885E-03 12372   0.802E-02    0.392E+00
DAV:  25    -0.789626676431E+03    0.26823E-01   -0.54069E-02 16548   0.343E-01    0.362E+00
DAV:  26    -0.789665605750E+03   -0.38929E-01   -0.79708E-02 12468   0.247E-01    0.503E+00
DAV:  27    -0.789640112014E+03    0.25494E-01   -0.58509E-02 12660   0.299E-01    0.429E+00
DAV:  28    -0.789636777432E+03    0.33346E-02   -0.14095E-02 13236   0.202E-01    0.408E+00
DAV:  29    -0.789642060443E+03   -0.52830E-02   -0.13082E-02 12696   0.102E-01    0.450E+00
DAV:  30    -0.789641572052E+03    0.48839E-03   -0.36867E-03 11892   0.787E-02    0.469E+00
DAV:  31    -0.789650986323E+03   -0.94143E-02   -0.99678E-03 14280   0.107E-01    0.502E+00
DAV:  32    -0.789648861129E+03    0.21252E-02   -0.80791E-04 11916   0.524E-02    0.500E+00
DAV:  33    -0.789647870906E+03    0.99022E-03   -0.12084E-04 12888   0.122E-02    0.498E+00
DAV:  34    -0.789637366331E+03    0.10505E-01   -0.44918E-02 14652   0.219E-01    0.537E+00
DAV:  35    -0.789593213364E+03    0.44153E-01   -0.64675E-02 14688   0.312E-01    0.427E+00
DAV:  36    -0.789552940948E+03    0.40272E-01   -0.18652E-02 15672   0.415E-01    0.354E+00
DAV:  37    -0.789553191782E+03   -0.25083E-03   -0.70924E-03 13704   0.147E-01    0.328E+00
DAV:  38    -0.789554963720E+03   -0.17719E-02   -0.29182E-04 12684   0.336E-02    0.325E+00
DAV:  39    -0.789553348729E+03    0.16150E-02   -0.24652E-04 12312   0.188E-02    0.313E+00
DAV:  40    -0.789542851461E+03    0.10497E-01   -0.11527E-02 14124   0.157E-01    0.284E+00
DAV:  41    -0.789515794960E+03    0.27057E-01   -0.33891E-02 15576   0.330E-01    0.163E+00
DAV:  42    -0.789521279506E+03   -0.54845E-02   -0.39874E-03 12396   0.126E-01    0.158E+00
DAV:  43    -0.789521921552E+03   -0.64205E-03   -0.68908E-04 14028   0.388E-02    0.159E+00
DAV:  44    -0.789521371487E+03    0.55006E-03   -0.13308E-03 13728   0.442E-02    0.163E+00
DAV:  45    -0.789521272631E+03    0.98856E-04   -0.24887E-04 12228   0.271E-02    0.162E+00
DAV:  46    -0.789519613734E+03    0.16589E-02   -0.29169E-03 13752   0.856E-02    0.166E+00
DAV:  47    -0.789504333415E+03    0.15280E-01   -0.10748E-01 16836   0.506E-01    0.182E+00
DAV:  48    -0.789506106461E+03   -0.17730E-02   -0.86255E-03 11952   0.179E-01    0.181E+00
DAV:  49    -0.789505372686E+03    0.73378E-03   -0.17811E-04 13776   0.298E-02    0.180E+00
DAV:  50    -0.789505261685E+03    0.11100E-03   -0.67358E-06  9864   0.540E-03    0.181E+00
DAV:  51    -0.789508381393E+03   -0.31197E-02   -0.39714E-03 13464   0.102E-01    0.212E+00
DAV:  52    -0.789549177619E+03   -0.40796E-01   -0.40079E-01 14784   0.102E+00    0.428E+00
DAV:  53    -0.789528845575E+03    0.20332E-01   -0.35197E-02 12456   0.382E-01    0.358E+00
DAV:  54    -0.789505269521E+03    0.23576E-01   -0.51604E-02 15036   0.378E-01    0.211E+00
DAV:  55    -0.789502356469E+03    0.29131E-02   -0.28863E-02 13608   0.302E-01    0.117E+00
DAV:  56    -0.789506590891E+03   -0.42344E-02   -0.10849E-02 11832   0.191E-01    0.109E+00
DAV:  57    -0.789504850098E+03    0.17408E-02   -0.89147E-03 14136   0.175E-01    0.993E-01
DAV:  58    -0.789503361905E+03    0.14882E-02   -0.42937E-03 12312   0.104E-01    0.758E-01
DAV:  59    -0.789502703806E+03    0.65810E-03   -0.20633E-03 13764   0.496E-02    0.681E-01
DAV:  60    -0.789502242815E+03    0.46099E-03   -0.29663E-03 12888   0.641E-02    0.540E-01
DAV:  61    -0.789502040385E+03    0.20243E-03   -0.33361E-03 12552   0.806E-02    0.396E-01
DAV:  62    -0.789502299388E+03   -0.25900E-03   -0.20338E-03 13404   0.597E-02    0.503E-01
DAV:  63    -0.789501853611E+03    0.44578E-03   -0.60326E-04 11808   0.554E-02    0.428E-01
DAV:  64    -0.789501887966E+03   -0.34355E-04   -0.93842E-05 12432   0.168E-02    0.447E-01
DAV:  65    -0.789501761814E+03    0.12615E-03   -0.11593E-04 12204   0.169E-02    0.449E-01
DAV:  66    -0.789501187519E+03    0.57429E-03   -0.39958E-04 13548   0.339E-02    0.390E-01
DAV:  67    -0.789500808571E+03    0.37895E-03   -0.93195E-04 12840   0.345E-02    0.322E-01
DAV:  68    -0.789501022150E+03   -0.21358E-03   -0.80299E-05 11556   0.235E-02    0.321E-01
DAV:  69    -0.789501096330E+03   -0.74179E-04   -0.14229E-05  9048   0.880E-03    0.322E-01
DAV:  70    -0.789501276371E+03   -0.18004E-03   -0.24760E-04 11760   0.203E-02    0.350E-01
DAV:  71    -0.789501356342E+03   -0.79971E-04   -0.88947E-05 11772   0.130E-02    0.363E-01
DAV:  72    -0.789501074832E+03    0.28151E-03   -0.28524E-04 11472   0.224E-02    0.315E-01
DAV:  73    -0.789500945428E+03    0.12940E-03   -0.46138E-04 12144   0.298E-02    0.298E-01
DAV:  74    -0.789500749836E+03    0.19559E-03   -0.13645E-03 13392   0.442E-02    0.264E-01
DAV:  75    -0.789500860993E+03   -0.11116E-03   -0.21319E-04 12180   0.267E-02    0.226E-01
DAV:  76    -0.789500909490E+03   -0.48497E-04   -0.55746E-05 12144   0.167E-02    0.217E-01
DAV:  77    -0.789500973645E+03   -0.64154E-04   -0.18699E-03 14040   0.497E-02    0.228E-01
DAV:  78    -0.789500887771E+03    0.85874E-04   -0.88130E-04 11808   0.506E-02    0.150E-01
DAV:  79    -0.789500868678E+03    0.19093E-04   -0.21115E-04 13548   0.252E-02    0.741E-02
DAV:  80    -0.789500897795E+03   -0.29116E-04   -0.14507E-04 12324   0.196E-02    0.571E-02
DAV:  81    -0.789500891164E+03    0.66310E-05   -0.53250E-05 11220   0.125E-02
   8 F= -.78950089E+03 E0= -.78947150E+03  d E =-.233896E+01  mag=    -0.0667
       N       E                     dE             d eps       ncg     rms          rms(c)
DAV:   1    -0.789910632687E+03   -0.40973E+00   -0.11662E+01 11520   0.585E+00    0.299E+00
DAV:   2    -0.790338659410E+03   -0.42803E+00   -0.39917E+00 15048   0.200E+00    0.757E+00
DAV:   3    -0.789924568964E+03    0.41409E+00   -0.12418E+00 16308   0.128E+00    0.298E+00
DAV:   4    -0.789945193218E+03   -0.20624E-01   -0.55056E-01 13740   0.630E-01    0.272E+00
DAV:   5    -0.789942649271E+03    0.25439E-02   -0.54174E-01 13860   0.561E-01    0.276E+00
DAV:   6    -0.789947307089E+03   -0.46578E-02   -0.98342E-02 13632   0.397E-01    0.279E+00
DAV:   7    -0.789952018588E+03   -0.47115E-02   -0.31717E-02 14112   0.281E-01    0.304E+00
DAV:   8    -0.789933716207E+03    0.18302E-01   -0.31589E-02 16320   0.347E-01    0.221E+00
DAV:   9    -0.789933984484E+03   -0.26828E-03   -0.19086E-01 14436   0.319E-01    0.250E+00
DAV:  10    -0.789935803877E+03   -0.18194E-02   -0.11529E-02 12960   0.264E-01    0.186E+00
DAV:  11    -0.789933514636E+03    0.22892E-02   -0.32297E-03 11952   0.108E-01    0.204E+00
DAV:  12    -0.789925863742E+03    0.76509E-02   -0.26656E-02 15432   0.164E-01    0.131E+00
DAV:  13    -0.789930333034E+03   -0.44693E-02   -0.14592E-02 12528   0.140E-01    0.114E+00
DAV:  14    -0.789933902675E+03   -0.35696E-02   -0.62629E-02 15000   0.219E-01    0.146E+00
DAV:  15    -0.789932492690E+03    0.14100E-02   -0.10886E-02 12948   0.185E-01    0.820E-01
DAV:  16    -0.789932468571E+03    0.24119E-04   -0.84925E-03 12924   0.120E-01    0.375E-01
DAV:  17    -0.789932653996E+03   -0.18542E-03   -0.20712E-03 12168   0.714E-02    0.136E-01
DAV:  18    -0.789932849094E+03   -0.19510E-03   -0.51934E-04 13956   0.321E-02    0.112E-01
DAV:  19    -0.789932867749E+03   -0.18655E-04   -0.16405E-04 12336   0.226E-02    0.104E-01
DAV:  20    -0.789932850561E+03    0.17187E-04   -0.23281E-04 11916   0.177E-02    0.685E-02
DAV:  21    -0.789932861269E+03   -0.10707E-04   -0.67779E-05  9216   0.123E-02    0.399E-02
DAV:  22    -0.789932861655E+03   -0.38608E-06   -0.32407E-05  8064   0.678E-03
   9 F= -.78993286E+03 E0= -.78990821E+03  d E =-.431970E+00  mag=    -0.4020
       N       E                     dE             d eps       ncg     rms          rms(c)
DAV:   1    -0.790201861028E+03   -0.26900E+00   -0.17039E+01 11520   0.692E+00    0.435E+00
DAV:   2    -0.790863861368E+03   -0.66200E+00   -0.45224E+00 16224   0.297E+00    0.105E+01
DAV:   3    -0.790345183910E+03    0.51868E+00   -0.80646E+00 15756   0.161E+00    0.689E+00
DAV:   4    -0.790241431892E+03    0.10375E+00   -0.43325E+00 15972   0.127E+00    0.388E+00
DAV:   5    -0.790207551326E+03    0.33881E-01   -0.25049E-01 13488   0.914E-01    0.206E+00
DAV:   6    -0.790186199202E+03    0.21352E-01   -0.99312E-02 14580   0.662E-01    0.164E+00
DAV:   7    -0.790191124106E+03   -0.49249E-02   -0.11061E-01 14592   0.396E-01    0.229E+00
DAV:   8    -0.790191515380E+03   -0.39127E-03   -0.59756E-03 12120   0.167E-01    0.236E+00
DAV:   9    -0.790190288515E+03    0.12269E-02   -0.50260E-04 13908   0.423E-02    0.236E+00
DAV:  10    -0.790179051506E+03    0.11237E-01   -0.60908E-02 17424   0.319E-01    0.182E+00
DAV:  11    -0.790183371207E+03   -0.43197E-02   -0.69228E-02 13752   0.318E-01    0.208E+00
DAV:  12    -0.790180441591E+03    0.29296E-02   -0.78090E-02 13992   0.338E-01    0.149E+00
DAV:  13    -0.790180813925E+03   -0.37233E-03   -0.61036E-02 14676   0.281E-01    0.111E+00
DAV:  14    -0.790180232129E+03    0.58180E-03   -0.45641E-03 12324   0.145E-01    0.935E-01
DAV:  15    -0.790181189283E+03   -0.95715E-03   -0.48082E-03 12864   0.781E-02    0.111E+00
DAV:  16    -0.790179045729E+03    0.21436E-02   -0.68480E-03 12024   0.100E-01    0.940E-01
DAV:  17    -0.790179061005E+03   -0.15276E-04   -0.60909E-03 13476   0.667E-02    0.962E-01
DAV:  18    -0.790179037347E+03    0.23658E-04   -0.36985E-03 11808   0.882E-02    0.865E-01
DAV:  19    -0.790179432799E+03   -0.39545E-03   -0.14129E-04 12480   0.278E-02    0.866E-01
DAV:  20    -0.790179645737E+03   -0.21294E-03   -0.19804E-04 12096   0.203E-02    0.912E-01
DAV:  21    -0.790179444220E+03    0.20152E-03   -0.46590E-04 12720   0.311E-02    0.856E-01
DAV:  22    -0.790179563551E+03   -0.11933E-03   -0.59008E-03 13272   0.114E-01    0.784E-01
DAV:  23    -0.790178763939E+03    0.79961E-03   -0.28570E-03 14352   0.806E-02    0.473E-01
DAV:  24    -0.790178565847E+03    0.19809E-03   -0.16538E-03 13440   0.643E-02    0.273E-01
DAV:  25    -0.790178887317E+03   -0.32147E-03   -0.52504E-04 12672   0.335E-02    0.247E-01
DAV:  26    -0.790178919467E+03   -0.32151E-04   -0.44314E-04 12396   0.288E-02    0.222E-01
DAV:  27    -0.790178796464E+03    0.12300E-03   -0.13701E-03 13824   0.615E-02    0.156E-01
DAV:  28    -0.790178832052E+03   -0.35588E-04   -0.25077E-04 11880   0.300E-02    0.115E-01
DAV:  29    -0.790178810213E+03    0.21838E-04   -0.70058E-05 11304   0.128E-02    0.764E-02
DAV:  30    -0.790178823835E+03   -0.13621E-04   -0.15474E-04 12060   0.146E-02    0.477E-02
DAV:  31    -0.790178842037E+03   -0.18203E-04   -0.48086E-05 11904   0.121E-02    0.410E-02
DAV:  32    -0.790178842132E+03   -0.94678E-07   -0.11774E-05  8328   0.708E-03
  10 F= -.79017884E+03 E0= -.79015199E+03  d E =-.245980E+00  mag=    -0.0764
       N       E                     dE             d eps       ncg     rms          rms(c)
DAV:   1    -0.790219346257E+03   -0.40504E-01   -0.31625E+00 11520   0.287E+00    0.233E+00
DAV:   2    -0.790687641162E+03   -0.46829E+00   -0.33228E+00 17232   0.185E+00    0.962E+00
DAV:   3    -0.790267345581E+03    0.42030E+00   -0.42224E+00 16788   0.110E+00    0.522E+00
DAV:   4    -0.790208523854E+03    0.58822E-01   -0.11095E+00 14448   0.683E-01    0.202E+00
DAV:   5    -0.790211488486E+03   -0.29646E-02   -0.51764E-02 12792   0.505E-01    0.895E-01
DAV:   6    -0.790222935321E+03   -0.11447E-01   -0.43938E-02 13992   0.287E-01    0.194E+00
DAV:   7    -0.790213675175E+03    0.92601E-02   -0.15955E-02 11892   0.188E-01    0.155E+00
DAV:   8    -0.790211796806E+03    0.18784E-02   -0.37715E-02 14844   0.216E-01    0.154E+00
DAV:   9    -0.790211577222E+03    0.21958E-03   -0.19120E-02 12120   0.183E-01    0.128E+00
DAV:  10    -0.790212701915E+03   -0.11247E-02   -0.29875E-03 12372   0.104E-01    0.140E+00
DAV:  11    -0.790211409857E+03    0.12921E-02   -0.45443E-03 12192   0.932E-02    0.128E+00
DAV:  12    -0.790214677942E+03   -0.32681E-02   -0.97890E-02 13548   0.308E-01    0.186E+00
DAV:  13    -0.790206819499E+03    0.78584E-02   -0.33115E-01 12396   0.374E-01    0.666E-01
DAV:  14    -0.790209628802E+03   -0.28093E-02   -0.11704E-02 11772   0.173E-01    0.408E-01
DAV:  15    -0.790210050390E+03   -0.42159E-03   -0.24519E-03 12576   0.771E-02    0.310E-01
DAV:  16    -0.790210011189E+03    0.39201E-04   -0.14548E-03 12756   0.701E-02    0.209E-01
DAV:  17    -0.790210058330E+03   -0.47140E-04   -0.10422E-03 12348   0.583E-02    0.235E-01
DAV:  18    -0.790209623599E+03    0.43473E-03   -0.67676E-04 12780   0.475E-02    0.133E-01
DAV:  19    -0.790209494400E+03    0.12920E-03   -0.27816E-04 13776   0.252E-02    0.129E-01
DAV:  20    -0.790209318490E+03    0.17591E-03   -0.24953E-04 13596   0.188E-02    0.134E-01
DAV:  21    -0.790209002413E+03    0.31608E-03   -0.56357E-04 13908   0.269E-02    0.131E-01
DAV:  22    -0.790209161242E+03   -0.15883E-03   -0.49351E-05 11532   0.167E-02    0.130E-01
DAV:  23    -0.790209324041E+03   -0.16280E-03   -0.15056E-04 11484   0.158E-02    0.125E-01
DAV:  24    -0.790209463957E+03   -0.13992E-03   -0.14756E-04 12864   0.147E-02    0.126E-01
DAV:  25    -0.790209730849E+03   -0.26689E-03   -0.43961E-04 13656   0.265E-02    0.116E-01
DAV:  26    -0.790210041876E+03   -0.31103E-03   -0.25420E-03 13596   0.729E-02    0.124E-01
DAV:  27    -0.790210199226E+03   -0.15735E-03   -0.42838E-04 12240   0.368E-02    0.123E-01
DAV:  28    -0.790210202869E+03   -0.36429E-05   -0.57291E-05 11244   0.153E-02
  11 F= -.79021020E+03 E0= -.79018335E+03  d E =-.313607E-01  mag=     0.0458
       N       E                     dE             d eps       ncg     rms          rms(c)
DAV:   1    -0.790219597201E+03   -0.93980E-02   -0.14632E+00 11520   0.204E+00    0.137E+00
DAV:   2    -0.790508484219E+03   -0.28889E+00   -0.18534E+00 16968   0.108E+00    0.877E+00
DAV:   3    -0.790190872333E+03    0.31761E+00   -0.19210E+00 16344   0.753E-01    0.146E+00
DAV:   4    -0.790218919905E+03   -0.28048E-01   -0.35035E-02 12552   0.375E-01    0.693E-01
DAV:   5    -0.790227138196E+03   -0.82183E-02   -0.36258E-02 13968   0.191E-01    0.149E+00
DAV:   6    -0.790220340949E+03    0.67972E-02   -0.11598E-02 11856   0.141E-01    0.119E+00
DAV:   7    -0.790216169242E+03    0.41717E-02   -0.24017E-02 15012   0.176E-01    0.729E-01
DAV:   8    -0.790217402709E+03   -0.12335E-02   -0.74568E-03 11940   0.142E-01    0.368E-01
DAV:   9    -0.790217564115E+03   -0.16141E-03   -0.14795E-03 13128   0.804E-02    0.168E-01
DAV:  10    -0.790217657205E+03   -0.93090E-04   -0.96727E-04 14016   0.579E-02    0.204E-01
DAV:  11    -0.790217575113E+03    0.82093E-04   -0.64899E-04 14436   0.399E-02    0.844E-02
DAV:  12    -0.790217606555E+03   -0.31442E-04   -0.30198E-04 12456   0.244E-02    0.837E-02
DAV:  13    -0.790217604261E+03    0.22937E-05   -0.19785E-04 11268   0.164E-02    0.623E-02
DAV:  14    -0.790217598810E+03    0.54510E-05   -0.84385E-05  9828   0.125E-02
  12 F= -.79021760E+03 E0= -.79019057E+03  d E =-.739594E-02  mag=     0.0923
       N       E                     dE             d eps       ncg     rms          rms(c)
DAV:   1    -0.790219391910E+03   -0.17876E-02   -0.19192E+00 11520   0.247E+00    0.812E-01
DAV:   2    -0.790251740116E+03   -0.32348E-01   -0.26663E-01 14532   0.554E-01    0.357E+00
DAV:   3    -0.790220464102E+03    0.31276E-01   -0.36439E-01 14844   0.351E-01    0.135E+00
DAV:   4    -0.790222158687E+03   -0.16946E-02   -0.25401E-02 13776   0.284E-01    0.396E-01
DAV:   5    -0.790223597678E+03   -0.14390E-02   -0.88499E-03 13536   0.138E-01    0.739E-01
DAV:   6    -0.790223709705E+03   -0.11203E-03   -0.10140E-03 11916   0.687E-02    0.833E-01
DAV:   7    -0.790221023215E+03    0.26865E-02   -0.65827E-03 12984   0.746E-02    0.260E-01
DAV:   8    -0.790221622307E+03   -0.59909E-03   -0.23685E-03 12720   0.683E-02    0.190E-01
DAV:   9    -0.790221847812E+03   -0.22551E-03   -0.67946E-04 12192   0.502E-02    0.119E-01
DAV:  10    -0.790221895494E+03   -0.47682E-04   -0.47464E-04 13668   0.344E-02    0.130E-01
DAV:  11    -0.790221881281E+03    0.14213E-04   -0.12137E-04 12348   0.194E-02    0.103E-01
DAV:  12    -0.790221867403E+03    0.13878E-04   -0.25680E-04 12468   0.194E-02    0.554E-02
DAV:  13    -0.790221866301E+03    0.11019E-05   -0.37462E-05  9768   0.103E-02
  13 F= -.79022187E+03 E0= -.79019466E+03  d E =-.426749E-02  mag=     0.1099
       N       E                     dE             d eps       ncg     rms          rms(c)
DAV:   1    -0.790230924934E+03   -0.90575E-02   -0.16648E+00 11520   0.230E+00    0.115E+00
DAV:   2    -0.790323778624E+03   -0.92854E-01   -0.10217E+00 17208   0.979E-01    0.303E+00
DAV:   3    -0.790244203910E+03    0.79575E-01   -0.10237E-01 17832   0.692E-01    0.182E+00
DAV:   4    -0.790232566459E+03    0.11637E-01   -0.30243E-02 13524   0.275E-01    0.921E-01
DAV:   5    -0.790232252276E+03    0.31418E-03   -0.12515E-02 13788   0.161E-01    0.752E-01
DAV:   6    -0.790233235726E+03   -0.98345E-03   -0.11924E-03 12012   0.869E-02    0.768E-01
DAV:   7    -0.790232931505E+03    0.30422E-03   -0.79623E-05 12024   0.219E-02    0.786E-01
DAV:   8    -0.790233591609E+03   -0.66010E-03   -0.37518E-03 16884   0.742E-02    0.114E+00
DAV:   9    -0.790232018803E+03    0.15728E-02   -0.29293E-03 13164   0.728E-02    0.896E-01
DAV:  10    -0.790231258415E+03    0.76039E-03   -0.67052E-03 12912   0.108E-01    0.673E-01
DAV:  11    -0.790231704410E+03   -0.44600E-03   -0.60645E-03 12984   0.914E-02    0.567E-01
DAV:  12    -0.790231516582E+03    0.18783E-03   -0.10582E-03 12060   0.562E-02    0.482E-01
DAV:  13    -0.790231661505E+03   -0.14492E-03   -0.19843E-03 13908   0.392E-02    0.544E-01
DAV:  14    -0.790231335441E+03    0.32606E-03   -0.96794E-04 12144   0.386E-02    0.346E-01
DAV:  15    -0.790231292224E+03    0.43217E-04   -0.25657E-04 13068   0.263E-02    0.284E-01
DAV:  16    -0.790231158479E+03    0.13374E-03   -0.45729E-04 12324   0.292E-02    0.146E-01
DAV:  17    -0.790231178127E+03   -0.19648E-04   -0.20426E-04 10332   0.147E-02    0.164E-01
DAV:  18    -0.790231158275E+03    0.19852E-04   -0.30277E-05 10620   0.109E-02    0.123E-01
DAV:  19    -0.790231120855E+03    0.37420E-04   -0.21625E-04 12600   0.201E-02    0.216E-02
DAV:  20    -0.790231128744E+03   -0.78890E-05   -0.91591E-06  9564   0.639E-03
  14 F= -.79023113E+03 E0= -.79020377E+03  d E =-.926244E-02  mag=     0.1115
       N       E                     dE             d eps       ncg     rms          rms(c)
DAV:   1    -0.790233620848E+03   -0.25000E-02   -0.95926E-01 11520   0.176E+00    0.973E-01
DAV:   2    -0.790257737993E+03   -0.24117E-01   -0.20118E-01 16320   0.689E-01    0.278E+00
DAV:   3    -0.790235974607E+03    0.21763E-01   -0.12586E-01 16692   0.505E-01    0.158E+00
DAV:   4    -0.790235356820E+03    0.61779E-03   -0.60377E-02 13596   0.251E-01    0.616E-01
DAV:   5    -0.790239011515E+03   -0.36547E-02   -0.18783E-02 13332   0.158E-01    0.138E+00
DAV:   6    -0.790237874523E+03    0.11370E-02   -0.15126E-03 11664   0.981E-02    0.140E+00
DAV:   7    -0.790237665829E+03    0.20869E-03   -0.10326E-04 12912   0.180E-02    0.142E+00
DAV:   8    -0.790235881226E+03    0.17846E-02   -0.14834E-02 14328   0.143E-01    0.127E+00
DAV:   9    -0.790234827945E+03    0.10533E-02   -0.13316E-02 12624   0.146E-01    0.858E-01
DAV:  10    -0.790235542034E+03   -0.71409E-03   -0.66850E-03 12372   0.133E-01    0.781E-01
DAV:  11    -0.790235760966E+03   -0.21893E-03   -0.34507E-03 14568   0.102E-01    0.709E-01
DAV:  12    -0.790235608284E+03    0.15268E-03   -0.10047E-03 12264   0.501E-02    0.619E-01
DAV:  13    -0.790235505079E+03    0.10320E-03   -0.38945E-04 13248   0.294E-02    0.608E-01
DAV:  14    -0.790235411583E+03    0.93496E-04   -0.21448E-04 12960   0.272E-02    0.583E-01
DAV:  15    -0.790235148058E+03    0.26352E-03   -0.15435E-04 13548   0.226E-02    0.529E-01
DAV:  16    -0.790234938578E+03    0.20948E-03   -0.10404E-04 13800   0.181E-02    0.492E-01
DAV:  17    -0.790234783798E+03    0.15478E-03   -0.76305E-05 12612   0.158E-02    0.450E-01
DAV:  18    -0.790234541000E+03    0.24280E-03   -0.18807E-04 13176   0.239E-02    0.373E-01
DAV:  19    -0.790234170300E+03    0.37070E-03   -0.69212E-04 12588   0.494E-02    0.219E-01
DAV:  20    -0.790234042318E+03    0.12798E-03   -0.31712E-04 13872   0.304E-02    0.123E-01
DAV:  21    -0.790234023997E+03    0.18321E-04   -0.39511E-05 11868   0.980E-03    0.914E-02
DAV:  22    -0.790234004779E+03    0.19218E-04   -0.48870E-05 12816   0.111E-02    0.529E-02
DAV:  23    -0.790233996436E+03    0.83424E-05   -0.98001E-05 12780   0.163E-02
  15 F= -.79023400E+03 E0= -.79020673E+03  d E =-.286769E-02  mag=     0.1288
       N       E                     dE             d eps       ncg     rms          rms(c)
DAV:   1    -0.790235354030E+03   -0.13493E-02   -0.12415E-01 11520   0.641E-01    0.335E-01
DAV:   2    -0.790237449044E+03   -0.20950E-02   -0.22817E-02 16176   0.231E-01    0.111E+00
DAV:   3    -0.790235133134E+03    0.23159E-02   -0.14921E-02 16308   0.165E-01    0.277E-01
DAV:   4    -0.790236082428E+03   -0.94929E-03   -0.75603E-03 13536   0.698E-02    0.494E-01
DAV:   5    -0.790236174934E+03   -0.92506E-04   -0.96562E-04 12696   0.397E-02    0.498E-01
DAV:   6    -0.790235104961E+03    0.10700E-02   -0.43162E-03 11856   0.529E-02    0.210E-01
DAV:   7    -0.790235299708E+03   -0.19475E-03   -0.71057E-04 12780   0.481E-02    0.730E-02
DAV:   8    -0.790235399567E+03   -0.99860E-04   -0.22625E-04 12264   0.283E-02    0.571E-02
DAV:   9    -0.790235405720E+03   -0.61528E-05   -0.42761E-05 11964   0.157E-02
  16 F= -.79023541E+03 E0= -.79020805E+03  d E =-.140928E-02  mag=     0.1243
       N       E                     dE             d eps       ncg     rms          rms(c)
DAV:   1    -0.790235858655E+03   -0.45909E-03   -0.60446E-02 11520   0.443E-01    0.212E-01
DAV:   2    -0.790244116409E+03   -0.82578E-02   -0.55508E-02 16752   0.174E-01    0.196E+00
DAV:   3    -0.790233325922E+03    0.10790E-01   -0.59325E-02 14700   0.157E-01    0.194E-01
DAV:   4    -0.790236011661E+03   -0.26857E-02   -0.16067E-03 11628   0.657E-02    0.252E-01
DAV:   5    -0.790235999654E+03    0.12007E-04   -0.11840E-04 12684   0.258E-02    0.233E-01
DAV:   6    -0.790235750285E+03    0.24937E-03   -0.12969E-03 12264   0.321E-02    0.138E-01
DAV:   7    -0.790235804564E+03   -0.54280E-04   -0.31468E-04 12372   0.268E-02    0.664E-02
DAV:   8    -0.790235852367E+03   -0.47803E-04   -0.16653E-04 11628   0.190E-02    0.795E-02
DAV:   9    -0.790235854154E+03   -0.17870E-05   -0.34503E-05  9156   0.116E-02
  17 F= -.79023585E+03 E0= -.79020856E+03  d E =-.448434E-03  mag=     0.1253
       N       E                     dE             d eps       ncg     rms          rms(c)
DAV:   1    -0.790236730829E+03   -0.87846E-03   -0.41802E-01 11520   0.114E+00    0.697E-01
DAV:   2    -0.790304813361E+03   -0.68083E-01   -0.57649E-01 17100   0.593E-01    0.571E+00
DAV:   3    -0.790225652446E+03    0.79161E-01   -0.88229E-01 14880   0.463E-01    0.189E+00
DAV:   4    -0.790234985358E+03   -0.93329E-02   -0.50615E-02 13068   0.271E-01    0.406E-01
DAV:   5    -0.790237177705E+03   -0.21923E-02   -0.35568E-03 13140   0.110E-01    0.492E-01
DAV:   6    -0.790236731571E+03    0.44613E-03   -0.57817E-04 12516   0.408E-02    0.433E-01
DAV:   7    -0.790235656425E+03    0.10751E-02   -0.21549E-03 13896   0.617E-02    0.164E-01
DAV:   8    -0.790236139998E+03   -0.48357E-03   -0.11779E-03 11688   0.573E-02    0.168E-01
DAV:   9    -0.790236137599E+03    0.23995E-05   -0.24129E-04 12708   0.308E-02    0.123E-01
DAV:  10    -0.790236120322E+03    0.17277E-04   -0.60171E-04 13824   0.245E-02    0.872E-02
DAV:  11    -0.790236119608E+03    0.71435E-06   -0.65413E-05 12204   0.166E-02
  18 F= -.79023612E+03 E0= -.79020902E+03  d E =-.265454E-03  mag=     0.1323
       N       E                     dE             d eps       ncg     rms          rms(c)
DAV:   1    -0.790243181407E+03   -0.70611E-02   -0.24985E+00 11520   0.276E+00    0.206E+00
DAV:   2    -0.790615410376E+03   -0.37223E+00   -0.28684E+00 18072   0.166E+00    0.944E+00
DAV:   3    -0.790256179008E+03    0.35923E+00   -0.39431E+00 16392   0.101E+00    0.361E+00
DAV:   4    -0.790249538946E+03    0.66401E-02   -0.14471E-01 14580   0.729E-01    0.198E+00
DAV:   5    -0.790242889903E+03    0.66490E-02   -0.40954E-02 13236   0.352E-01    0.144E+00
DAV:   6    -0.790241918939E+03    0.97096E-03   -0.85436E-03 13584   0.175E-01    0.129E+00
DAV:   7    -0.790238913472E+03    0.30055E-02   -0.74399E-03 12300   0.109E-01    0.116E+00
DAV:   8    -0.790234832629E+03    0.40808E-02   -0.18286E-02 16488   0.179E-01    0.653E-01
DAV:   9    -0.790235471007E+03   -0.63838E-03   -0.12186E-02 13200   0.160E-01    0.456E-01
DAV:  10    -0.790235379868E+03    0.91139E-04   -0.40977E-03 13068   0.981E-02    0.308E-01
DAV:  11    -0.790235292792E+03    0.87077E-04   -0.22419E-03 13488   0.663E-02    0.261E-01
DAV:  12    -0.790235161351E+03    0.13144E-03   -0.20284E-03 13260   0.457E-02    0.116E-01
DAV:  13    -0.790235218754E+03   -0.57403E-04   -0.49437E-04 13044   0.302E-02    0.121E-01
DAV:  14    -0.790235184298E+03    0.34456E-04   -0.17509E-04 11736   0.203E-02    0.276E-02
DAV:  15    -0.790235195041E+03   -0.10743E-04   -0.56505E-05  9060   0.967E-03    0.405E-02
DAV:  16    -0.790235194288E+03    0.75290E-06   -0.65550E-05  8232   0.840E-03
  19 F= -.79023519E+03 E0= -.79020800E+03  d E =0.925320E-03  mag=     0.1599
       N       E                     dE             d eps       ncg     rms          rms(c)
DAV:   1    -0.790236577755E+03   -0.13827E-02   -0.51619E-01 11520   0.131E+00    0.568E-01
DAV:   2    -0.790244673237E+03   -0.80955E-02   -0.79318E-02 15132   0.395E-01    0.180E+00
DAV:   3    -0.790237649084E+03    0.70242E-02   -0.68034E-02 15528   0.282E-01    0.822E-01
DAV:   4    -0.790237264983E+03    0.38410E-03   -0.20889E-02 13356   0.136E-01    0.397E-01
DAV:   5    -0.790237657591E+03   -0.39261E-03   -0.56583E-03 12504   0.103E-01    0.482E-01
DAV:   6    -0.790237955271E+03   -0.29768E-03   -0.18976E-03 12420   0.586E-02    0.498E-01
DAV:   7    -0.790236635260E+03    0.13200E-02   -0.39134E-03 11796   0.553E-02    0.185E-01
DAV:   8    -0.790236933383E+03   -0.29812E-03   -0.55964E-04 13188   0.508E-02    0.145E-01
DAV:   9    -0.790237064263E+03   -0.13088E-03   -0.46649E-04 12648   0.363E-02    0.136E-01
DAV:  10    -0.790237025381E+03    0.38882E-04   -0.26003E-04 12288   0.308E-02    0.729E-02
DAV:  11    -0.790237036382E+03   -0.11002E-04   -0.10581E-04 11532   0.160E-02    0.345E-02
DAV:  12    -0.790237038037E+03   -0.16543E-05   -0.19684E-05  8184   0.861E-03
  20 F= -.79023704E+03 E0= -.79020980E+03  d E =-.184375E-02  mag=     0.1563
       N       E                     dE             d eps       ncg     rms          rms(c)
DAV:   1    -0.790238684088E+03   -0.16477E-02   -0.11717E-01 11520   0.620E-01    0.509E-01
DAV:   2    -0.790257211910E+03   -0.18528E-01   -0.14641E-01 17532   0.405E-01    0.248E+00
DAV:   3    -0.790236285366E+03    0.20927E-01   -0.70409E-02 17376   0.311E-01    0.300E-01
DAV:   4    -0.790238285354E+03   -0.20000E-02   -0.50555E-03 12960   0.980E-02    0.286E-01
DAV:   5    -0.790238586104E+03   -0.30075E-03   -0.40319E-03 12648   0.687E-02    0.303E-01
DAV:   6    -0.790238776235E+03   -0.19013E-03   -0.92749E-04 13716   0.378E-02    0.372E-01
DAV:   7    -0.790238212612E+03    0.56362E-03   -0.10755E-03 11868   0.388E-02    0.219E-01
DAV:   8    -0.790238161267E+03    0.51345E-04   -0.29187E-04 13632   0.299E-02    0.783E-02
DAV:   9    -0.790238284039E+03   -0.12277E-03   -0.13876E-04 11532   0.253E-02    0.486E-02
DAV:  10    -0.790238299836E+03   -0.15796E-04   -0.40206E-05 10872   0.140E-02    0.318E-02
DAV:  11    -0.790238299505E+03    0.33101E-06   -0.59328E-05  9348   0.871E-03
  21 F= -.79023830E+03 E0= -.79021104E+03  d E =-.126147E-02  mag=     0.1504
       N       E                     dE             d eps       ncg     rms          rms(c)
DAV:   1    -0.790238385309E+03   -0.85474E-04   -0.65698E-02 11520   0.459E-01    0.145E-01
DAV:   2    -0.790240831974E+03   -0.24467E-02   -0.16791E-02 15072   0.124E-01    0.998E-01
DAV:   3    -0.790237879163E+03    0.29528E-02   -0.16685E-02 15132   0.969E-02    0.191E-01
DAV:   4    -0.790238457182E+03   -0.57802E-03   -0.90926E-04 12096   0.432E-02    0.687E-02
DAV:   5    -0.790238541898E+03   -0.84716E-04   -0.22276E-04 13260   0.198E-02    0.132E-01
DAV:   6    -0.790238460698E+03    0.81200E-04   -0.15276E-04 11088   0.150E-02    0.760E-02
DAV:   7    -0.790238452879E+03    0.78188E-05   -0.54621E-05 10488   0.138E-02
  22 F= -.79023845E+03 E0= -.79021128E+03  d E =-.153375E-03  mag=     0.1511
       N       E                     dE             d eps       ncg     rms          rms(c)
DAV:   1    -0.790235116945E+03    0.33438E-02   -0.16356E+00 11520   0.226E+00    0.605E-01
DAV:   2    -0.790285259770E+03   -0.50143E-01   -0.41912E-01 14748   0.554E-01    0.495E+00
DAV:   3    -0.790227249924E+03    0.58010E-01   -0.64441E-01 14196   0.396E-01    0.109E+00
DAV:   4    -0.790236977968E+03   -0.97280E-02   -0.16999E-02 12072   0.216E-01    0.386E-01
DAV:   5    -0.790239033958E+03   -0.20560E-02   -0.50813E-03 13188   0.942E-02    0.606E-01
DAV:   6    -0.790237246779E+03    0.17872E-02   -0.25486E-03 12084   0.674E-02    0.402E-01
DAV:   7    -0.790236745147E+03    0.50163E-03   -0.39883E-03 14352   0.687E-02    0.184E-01
DAV:   8    -0.790237079402E+03   -0.33426E-03   -0.14023E-03 12492   0.592E-02    0.150E-01
DAV:   9    -0.790237106509E+03   -0.27106E-04   -0.31986E-04 12216   0.409E-02    0.111E-01
DAV:  10    -0.790237078656E+03    0.27853E-04   -0.33163E-04 14964   0.261E-02    0.668E-02
DAV:  11    -0.790237102000E+03   -0.23344E-04   -0.49432E-05 12240   0.163E-02    0.932E-02
DAV:  12    -0.790237075908E+03    0.26092E-04   -0.88003E-05  9708   0.133E-02    0.201E-02
DAV:  13    -0.790237083185E+03   -0.72765E-05   -0.15424E-05  7656   0.673E-03
  23 F= -.79023708E+03 E0= -.79021002E+03  d E =0.136969E-02  mag=     0.1462
       N       E                     dE             d eps       ncg     rms          rms(c)
DAV:   1    -0.790142871635E+03    0.94204E-01   -0.42350E+01 11520   0.114E+01    0.241E+00
DAV:   2    -0.790405905827E+03   -0.26303E+00   -0.26052E+00 14040   0.229E+00    0.756E+00
DAV:   3    -0.790277281933E+03    0.12862E+00   -0.36966E+00 14556   0.106E+00    0.505E+00
DAV:   4    -0.790222431560E+03    0.54850E-01   -0.33112E-01 15348   0.893E-01    0.202E+00
DAV:   5    -0.790217003972E+03    0.54276E-02   -0.51644E-02 13572   0.516E-01    0.101E+00
DAV:   6    -0.790227405255E+03   -0.10401E-01   -0.60493E-02 13992   0.301E-01    0.210E+00
DAV:   7    -0.790223104728E+03    0.43005E-02   -0.65755E-03 12024   0.163E-01    0.187E+00
DAV:   8    -0.790216701974E+03    0.64028E-02   -0.27250E-02 14748   0.220E-01    0.189E+00
DAV:   9    -0.790217708409E+03   -0.10064E-02   -0.14143E-01 16008   0.340E-01    0.205E+00
DAV:  10    -0.790214136099E+03    0.35723E-02   -0.16582E-02 12288   0.220E-01    0.143E+00
DAV:  11    -0.790210551254E+03    0.35848E-02   -0.12928E-02 14592   0.191E-01    0.633E-01
DAV:  12    -0.790211384556E+03   -0.83330E-03   -0.82878E-03 12816   0.145E-01    0.347E-01
DAV:  13    -0.790211937813E+03   -0.55326E-03   -0.12785E-03 12300   0.707E-02    0.286E-01
DAV:  14    -0.790211796078E+03    0.14173E-03   -0.86305E-04 15516   0.518E-02    0.113E-01
DAV:  15    -0.790211908638E+03   -0.11256E-03   -0.22211E-04 12408   0.326E-02    0.959E-02
DAV:  16    -0.790211894640E+03    0.13998E-04   -0.75018E-05 11592   0.144E-02    0.623E-02
DAV:  17    -0.790211901626E+03   -0.69858E-05   -0.50631E-05  9432   0.116E-02
  24 F= -.79021190E+03 E0= -.79018501E+03  d E =0.251816E-01  mag=     0.1654
       N       E                     dE             d eps       ncg     rms          rms(c)
DAV:   1    -0.790217904797E+03   -0.60102E-02   -0.10904E+01 11520   0.599E+00    0.217E+00
DAV:   2    -0.790397671690E+03   -0.17977E+00   -0.23435E+00 15732   0.177E+00    0.421E+00
DAV:   3    -0.790268483026E+03    0.12919E+00   -0.30252E-01 16224   0.106E+00    0.253E+00
DAV:   4    -0.790236448850E+03    0.32034E-01   -0.75909E-02 13776   0.522E-01    0.137E+00
DAV:   5    -0.790230532770E+03    0.59161E-02   -0.44378E-02 14268   0.396E-01    0.108E+00
DAV:   6    -0.790233725982E+03   -0.31932E-02   -0.22039E-02 14412   0.271E-01    0.142E+00
DAV:   7    -0.790230971460E+03    0.27545E-02   -0.93537E-02 15432   0.222E-01    0.718E-01
DAV:   8    -0.790231747209E+03   -0.77575E-03   -0.11222E-02 13116   0.133E-01    0.937E-01
DAV:   9    -0.790229415733E+03    0.23315E-02   -0.29529E-03 11880   0.830E-02    0.624E-01
DAV:  10    -0.790228520917E+03    0.89482E-03   -0.51487E-03 16248   0.928E-02    0.447E-01
DAV:  11    -0.790228259129E+03    0.26179E-03   -0.30065E-03 13176   0.765E-02    0.167E-01
DAV:  12    -0.790228810362E+03   -0.55123E-03   -0.19142E-03 12864   0.619E-02    0.263E-01
DAV:  13    -0.790228701470E+03    0.10889E-03   -0.14946E-03 11952   0.466E-02    0.856E-02
DAV:  14    -0.790228735831E+03   -0.34360E-04   -0.20916E-04 13620   0.238E-02    0.832E-02
DAV:  15    -0.790228733982E+03    0.18492E-05   -0.11259E-04 11016   0.167E-02    0.431E-02
DAV:  16    -0.790228732821E+03    0.11608E-05   -0.49192E-05  9192   0.108E-02
  25 F= -.79022873E+03 E0= -.79020178E+03  d E =-.168312E-01  mag=     0.1584
       N       E                     dE             d eps       ncg     rms          rms(c)
DAV:   1    -0.790212005136E+03    0.16729E-01   -0.90115E+00 11520   0.546E+00    0.235E+00
DAV:   2    -0.790451050382E+03   -0.23905E+00   -0.22084E+00 15660   0.179E+00    0.813E+00
DAV:   3    -0.790283251466E+03    0.16780E+00   -0.40394E+00 15108   0.104E+00    0.497E+00
DAV:   4    -0.790216864547E+03    0.66387E-01   -0.80073E-01 15684   0.807E-01    0.156E+00
DAV:   5    -0.790224213548E+03   -0.73490E-02   -0.74407E-02 12660   0.487E-01    0.103E+00
DAV:   6    -0.790230946493E+03   -0.67329E-02   -0.52083E-02 13680   0.288E-01    0.152E+00
DAV:   7    -0.790228714941E+03    0.22316E-02   -0.40183E-03 11832   0.143E-01    0.147E+00
DAV:   8    -0.790226947694E+03    0.17672E-02   -0.15201E-02 13920   0.119E-01    0.174E+00
DAV:   9    -0.790226279134E+03    0.66856E-03   -0.67891E-04 12132   0.613E-02    0.172E+00
DAV:  10    -0.790222973224E+03    0.33059E-02   -0.50646E-03 15360   0.152E-01    0.163E+00
DAV:  11    -0.790240301600E+03   -0.17328E-01   -0.17795E-01 15108   0.305E-01    0.375E+00
DAV:  12    -0.790212756702E+03    0.27545E-01   -0.28683E-01 12132   0.364E-01    0.916E-01
DAV:  13    -0.790218878897E+03   -0.61222E-02   -0.24446E-02 11760   0.239E-01    0.405E-01
DAV:  14    -0.790219595592E+03   -0.71670E-03   -0.35294E-03 13116   0.110E-01    0.503E-01
DAV:  15    -0.790219684249E+03   -0.88657E-04   -0.82380E-03 13524   0.109E-01    0.705E-01
DAV:  16    -0.790218699050E+03    0.98520E-03   -0.37453E-03 11820   0.787E-02    0.215E-01
DAV:  17    -0.790219087183E+03   -0.38813E-03   -0.10794E-03 13560   0.479E-02    0.212E-01
DAV:  18    -0.790219047862E+03    0.39321E-04   -0.30545E-04 11868   0.374E-02    0.124E-01
DAV:  19    -0.790218986983E+03    0.60879E-04   -0.13548E-04 12984   0.167E-02    0.557E-02
DAV:  20    -0.790219004151E+03   -0.17168E-04   -0.51732E-05  9552   0.108E-02    0.382E-02
DAV:  21    -0.790219014491E+03   -0.10340E-04   -0.10020E-05  8112   0.702E-03    0.339E-02
DAV:  22    -0.790219026826E+03   -0.12335E-04   -0.48297E-05 10200   0.109E-02    0.634E-02
DAV:  23    -0.790219012006E+03    0.14820E-04   -0.33909E-05  8652   0.882E-03    0.199E-02
DAV:  24    -0.790219014747E+03   -0.27415E-05   -0.59509E-06  7008   0.368E-03
  26 F= -.79021901E+03 E0= -.79019235E+03  d E =0.971807E-02  mag=     0.1567
       N       E                     dE             d eps       ncg     rms          rms(c)
DAV:   1    -0.790228321500E+03   -0.93095E-02   -0.60802E+00 11520   0.444E+00    0.166E+00
DAV:   2    -0.790296077235E+03   -0.67756E-01   -0.80757E-01 15420   0.128E+00    0.412E+00
DAV:   3    -0.790235690530E+03    0.60387E-01   -0.17061E-01 15744   0.818E-01    0.150E+00
DAV:   4    -0.790236956612E+03   -0.12661E-02   -0.52744E-02 13536   0.343E-01    0.651E-01
DAV:   5    -0.790249671243E+03   -0.12715E-01   -0.93806E-02 15504   0.268E-01    0.263E+00
DAV:   6    -0.790244521026E+03    0.51502E-02   -0.20838E-02 11976   0.182E-01    0.225E+00
DAV:   7    -0.790238631721E+03    0.58893E-02   -0.86720E-03 12888   0.970E-02    0.162E+00
DAV:   8    -0.790233782430E+03    0.48493E-02   -0.27446E-02 14904   0.149E-01    0.582E-01
DAV:   9    -0.790235398254E+03   -0.16158E-02   -0.80067E-03 11988   0.135E-01    0.304E-01
DAV:  10    -0.790236177436E+03   -0.77918E-03   -0.18226E-03 12096   0.924E-02    0.210E-01
DAV:  11    -0.790236087602E+03    0.89834E-04   -0.79704E-04 14496   0.539E-02    0.125E-01
DAV:  12    -0.790236146038E+03   -0.58436E-04   -0.22982E-04 13044   0.271E-02    0.145E-01
DAV:  13    -0.790236088407E+03    0.57631E-04   -0.38209E-04 12648   0.237E-02    0.481E-02
DAV:  14    -0.790236104531E+03   -0.16124E-04   -0.43479E-05 11748   0.139E-02    0.242E-02
DAV:  15    -0.790236103539E+03    0.99181E-06   -0.35665E-05  8424   0.761E-03
  27 F= -.79023610E+03 E0= -.79020931E+03  d E =-.170888E-01  mag=     0.1603
       N       E                     dE             d eps       ncg     rms          rms(c)
DAV:   1    -0.790235930797E+03    0.17373E-03   -0.23139E-01 11520   0.884E-01    0.617E-01
DAV:   2    -0.790264341790E+03   -0.28411E-01   -0.21814E-01 17004   0.487E-01    0.201E+00
DAV:   3    -0.790234212885E+03    0.30129E-01   -0.36181E-02 17460   0.378E-01    0.544E-01
DAV:   4    -0.790235292967E+03   -0.10801E-02   -0.87716E-03 13428   0.129E-01    0.306E-01
DAV:   5    -0.790236850589E+03   -0.15576E-02   -0.41072E-03 12408   0.790E-02    0.640E-01
DAV:   6    -0.790235823814E+03    0.10268E-02   -0.98299E-04 11724   0.588E-02    0.512E-01
DAV:   7    -0.790235540189E+03    0.28362E-03   -0.44572E-03 15708   0.605E-02    0.491E-01
DAV:   8    -0.790235117163E+03    0.42303E-03   -0.21655E-03 14256   0.497E-02    0.761E-02
DAV:   9    -0.790235520847E+03   -0.40368E-03   -0.33410E-04 11628   0.447E-02    0.686E-02
DAV:  10    -0.790235554138E+03   -0.33291E-04   -0.13791E-04 12108   0.205E-02    0.815E-02
DAV:  11    -0.790235530584E+03    0.23554E-04   -0.96119E-05 10284   0.145E-02    0.208E-02
DAV:  12    -0.790235539195E+03   -0.86115E-05   -0.44104E-05  8556   0.847E-03
  28 F= -.79023554E+03 E0= -.79020859E+03  d E =0.564343E-03  mag=     0.1516
       N       E                     dE             d eps       ncg     rms          rms(c)
DAV:   1    -0.790236505157E+03   -0.97457E-03   -0.64581E-02 11520   0.471E-01    0.249E-01
DAV:   2    -0.790242005575E+03   -0.55004E-02   -0.37573E-02 16308   0.181E-01    0.150E+00
DAV:   3    -0.790235306311E+03    0.66993E-02   -0.46364E-02 14352   0.148E-01    0.407E-01
DAV:   4    -0.790236608510E+03   -0.13022E-02   -0.29983E-03 11844   0.805E-02    0.211E-01
DAV:   5    -0.790237010410E+03   -0.40190E-03   -0.61474E-04 12180   0.329E-02    0.318E-01
DAV:   6    -0.790236424694E+03    0.58572E-03   -0.15195E-03 12744   0.441E-02    0.194E-01
DAV:   7    -0.790236444143E+03   -0.19450E-04   -0.28480E-04 13260   0.371E-02    0.904E-02
DAV:   8    -0.790236506744E+03   -0.62601E-04   -0.33299E-04 11736   0.261E-02    0.583E-02
DAV:   9    -0.790236512604E+03   -0.58598E-05   -0.41033E-05 10500   0.153E-02
  29 F= -.79023651E+03 E0= -.79020957E+03  d E =-.973409E-03  mag=     0.1555
       N       E                     dE             d eps       ncg     rms          rms(c)
DAV:   1    -0.790236535574E+03   -0.28829E-04   -0.97116E-03 11520   0.173E-01    0.450E-02
DAV:   2    -0.790236567761E+03   -0.32187E-04   -0.34453E-04 14076   0.308E-02    0.767E-02
DAV:   3    -0.790236555353E+03    0.12408E-04   -0.12380E-04 10488   0.162E-02    0.432E-02
DAV:   4    -0.790236578456E+03   -0.23103E-04   -0.71318E-05  9612   0.111E-02    0.862E-02
DAV:   5    -0.790236573724E+03    0.47324E-05   -0.34640E-05  8208   0.680E-03
  30 F= -.79023657E+03 E0= -.79020982E+03  d E =-.611197E-04  mag=     0.1563
       N       E                     dE             d eps       ncg     rms          rms(c)
DAV:   1    -0.790235498957E+03    0.10795E-02   -0.53627E-01 11520   0.126E+00    0.459E-01
DAV:   2    -0.790265567112E+03   -0.30068E-01   -0.22793E-01 15828   0.397E-01    0.372E+00
DAV:   3    -0.790230244868E+03    0.35322E-01   -0.29568E-01 14124   0.308E-01    0.922E-01
DAV:   4    -0.790236559053E+03   -0.63142E-02   -0.12045E-02 11748   0.164E-01    0.493E-01
DAV:   5    -0.790236723658E+03   -0.16461E-03   -0.88441E-04 12468   0.602E-02    0.440E-01
DAV:   6    -0.790235951401E+03    0.77226E-03   -0.41269E-03 12756   0.635E-02    0.406E-01
DAV:   7    -0.790235736053E+03    0.21535E-03   -0.27228E-03 13980   0.732E-02    0.216E-01
DAV:   8    -0.790236091870E+03   -0.35582E-03   -0.16880E-03 12816   0.508E-02    0.302E-01
DAV:   9    -0.790235936186E+03    0.15568E-03   -0.37595E-04 12264   0.362E-02    0.172E-01
DAV:  10    -0.790235907198E+03    0.28989E-04   -0.51934E-04 14280   0.294E-02    0.618E-02
DAV:  11    -0.790235974993E+03   -0.67796E-04   -0.23257E-04 12708   0.235E-02    0.106E-01
DAV:  12    -0.790235945546E+03    0.29447E-04   -0.88995E-05  9780   0.134E-02    0.456E-02
DAV:  13    -0.790235949810E+03   -0.42637E-05   -0.35998E-05  8844   0.828E-03
  31 F= -.79023595E+03 E0= -.79020925E+03  d E =0.623914E-03  mag=     0.1536
       N       E                     dE             d eps       ncg     rms          rms(c)
DAV:   1    -0.790234759583E+03    0.11860E-02   -0.26456E+00 11520   0.279E+00    0.141E+00
DAV:   2    -0.790355215382E+03   -0.12046E+00   -0.15511E+00 17580   0.122E+00    0.299E+00
DAV:   3    -0.790258887457E+03    0.96328E-01   -0.75907E-02 17580   0.819E-01    0.191E+00
DAV:   4    -0.790242319800E+03    0.16568E-01   -0.30466E-02 13812   0.335E-01    0.128E+00
DAV:   5    -0.790234290389E+03    0.80294E-02   -0.15130E-02 13968   0.200E-01    0.524E-01
DAV:   6    -0.790234930385E+03   -0.64000E-03   -0.46385E-03 13572   0.130E-01    0.291E-01
DAV:   7    -0.790236620410E+03   -0.16900E-02   -0.33752E-03 12432   0.756E-02    0.729E-01
DAV:   8    -0.790235395799E+03    0.12246E-02   -0.13842E-03 12072   0.647E-02    0.595E-01
DAV:   9    -0.790234415166E+03    0.98063E-03   -0.26114E-03 15336   0.552E-02    0.210E-01
DAV:  10    -0.790234860685E+03   -0.44552E-03   -0.71385E-04 12588   0.570E-02    0.106E-01
DAV:  11    -0.790235079476E+03   -0.21879E-03   -0.47373E-04 11832   0.403E-02    0.143E-01
DAV:  12    -0.790235028781E+03    0.50695E-04   -0.57854E-04 12756   0.258E-02    0.805E-02
DAV:  13    -0.790235029986E+03   -0.12050E-05   -0.99929E-05 11364   0.158E-02
  32 F= -.79023503E+03 E0= -.79020832E+03  d E =0.919824E-03  mag=     0.1412
       N       E                     dE             d eps       ncg     rms          rms(c)
DAV:   1    -0.790236104247E+03   -0.10755E-02   -0.20605E-01 11520   0.834E-01    0.504E-01
DAV:   2    -0.790251251093E+03   -0.15147E-01   -0.11978E-01 16980   0.383E-01    0.254E+00
DAV:   3    -0.790235728746E+03    0.15522E-01   -0.16139E-01 15948   0.292E-01    0.104E+00
DAV:   4    -0.790235742509E+03   -0.13764E-04   -0.95115E-03 12840   0.173E-01    0.236E-01
DAV:   5    -0.790237025529E+03   -0.12830E-02   -0.40286E-03 13908   0.837E-02    0.474E-01
DAV:   6    -0.790236240438E+03    0.78509E-03   -0.15794E-03 11772   0.555E-02    0.346E-01
DAV:   7    -0.790235831467E+03    0.40897E-03   -0.21442E-03 14184   0.533E-02    0.187E-01
DAV:   8    -0.790236059494E+03   -0.22803E-03   -0.68169E-04 12084   0.465E-02    0.670E-02
DAV:   9    -0.790236107839E+03   -0.48346E-04   -0.15882E-04 12276   0.242E-02    0.680E-02
DAV:  10    -0.790236097300E+03    0.10540E-04   -0.72042E-05 10332   0.172E-02    0.491E-02
DAV:  11    -0.790236099515E+03   -0.22157E-05   -0.25481E-05  8580   0.969E-03
  33 F= -.79023610E+03 E0= -.79020925E+03  d E =-.106953E-02  mag=     0.1460
       N       E                     dE             d eps       ncg     rms          rms(c)
DAV:   1    -0.790236195165E+03   -0.97866E-04   -0.27157E-01 11520   0.914E-01    0.191E-01
DAV:   2    -0.790237675566E+03   -0.14804E-02   -0.11887E-02 13956   0.156E-01    0.627E-01
DAV:   3    -0.790236663120E+03    0.10124E-02   -0.10370E-02 14892   0.849E-02    0.307E-01
DAV:   4    -0.790236671789E+03   -0.86691E-05   -0.24148E-03 13128   0.587E-02    0.145E-01
DAV:   5    -0.790236667577E+03    0.42119E-05   -0.26978E-04 13092   0.321E-02    0.754E-02
DAV:   6    -0.790236706714E+03   -0.39138E-04   -0.99882E-05 12960   0.151E-02    0.116E-01
DAV:   7    -0.790236667736E+03    0.38978E-04   -0.46540E-05  9540   0.102E-02    0.934E-02
DAV:   8    -0.790236630510E+03    0.37226E-04   -0.16131E-04 12012   0.151E-02    0.550E-02
DAV:   9    -0.790236641968E+03   -0.11458E-04   -0.73689E-05  9984   0.133E-02    0.239E-02
DAV:  10    -0.790236648340E+03   -0.63712E-05   -0.17156E-05  8136   0.820E-03
  34 F= -.79023665E+03 E0= -.79020984E+03  d E =-.548824E-03  mag=     0.1441
       N       E                     dE             d eps       ncg     rms          rms(c)
DAV:   1    -0.790236815100E+03   -0.17313E-03   -0.41258E-02 11520   0.374E-01    0.158E-01
DAV:   2    -0.790239283166E+03   -0.24681E-02   -0.16108E-02 16416   0.117E-01    0.973E-01
DAV:   3    -0.790236311389E+03    0.29718E-02   -0.16964E-02 14928   0.952E-02    0.218E-01
DAV:   4    -0.790236830707E+03   -0.51932E-03   -0.11621E-03 12084   0.492E-02    0.862E-02
DAV:   5    -0.790236972540E+03   -0.14183E-03   -0.39433E-04 12204   0.228E-02    0.169E-01
DAV:   6    -0.790236819282E+03    0.15326E-03   -0.37423E-04 11268   0.212E-02    0.881E-02
DAV:   7    -0.790236825366E+03   -0.60833E-05   -0.14200E-04 11616   0.159E-02    0.244E-02
DAV:   8    -0.790236848359E+03   -0.22993E-04   -0.53638E-05  9168   0.117E-02    0.361E-02
DAV:   9    -0.790236847348E+03    0.10108E-05   -0.85249E-06  7272   0.626E-03
  35 F= -.79023685E+03 E0= -.79021005E+03  d E =-.199009E-03  mag=     0.1432
