       N       E                     dE             d eps       ncg     rms          ort
DAV:   1     0.281395430753E+04    0.28140E+04   -0.29412E+05  2880   0.141E+03
DAV:   2    -0.973304895207E+03   -0.37873E+04   -0.36551E+04  2880   0.312E+02
DAV:   3    -0.122927034247E+04   -0.25597E+03   -0.25387E+03  2880   0.846E+01
DAV:   4    -0.123225817657E+04   -0.29878E+01   -0.29775E+01  2880   0.971E+00
DAV:   5    -0.123230685565E+04   -0.48679E-01   -0.48573E-01  2880   0.114E+00
SDA:   6    -0.877291557074E+03    0.35502E+03   -0.48573E-01  2880   0.602E+03 0.000E+00
CGA:   7    -0.986109409012E+03   -0.10882E+03   -0.10892E+03  2880   0.637E+02 0.442E+01
CGA:   8    -0.995662233419E+03   -0.95528E+01   -0.10439E+02  2880   0.361E+02 0.807E+01
CGA:   9    -0.100016601638E+04   -0.45038E+01   -0.56409E+01  2880   0.154E+02 0.495E+01
CGA:  10    -0.100269306839E+04   -0.25271E+01   -0.26601E+01  2880   0.829E+01 0.468E-01
CGA:  11    -0.100380850067E+04   -0.11154E+01   -0.12130E+01  2880   0.178E+02 0.160E+00
CGA:  12    -0.100455781445E+04   -0.74931E+00   -0.12695E+01  2880   0.578E+01-0.621E+01
CGA:  13    -0.100494630423E+04   -0.38849E+00   -0.29853E+00  2880   0.184E+01 0.294E+00
CGA:  14    -0.100519504940E+04   -0.24875E+00   -0.24269E+00  2880   0.274E+01 0.491E-01
CGA:  15    -0.100528231674E+04   -0.87267E-01   -0.11951E+00  2880   0.170E+01-0.107E+01
CGA:  16    -0.100530920749E+04   -0.26891E-01   -0.57020E-01  2880   0.209E+01-0.406E+00
CGA:  17    -0.100538005027E+04   -0.70843E-01   -0.79667E-01  2880   0.143E+01-0.197E+00
CGA:  18    -0.100545887989E+04   -0.78830E-01   -0.92338E-01  2880   0.727E+00-0.127E+00
CGA:  19    -0.100548663504E+04   -0.27755E-01   -0.23687E-01  2880   0.335E+00 0.816E-01
CGA:  20    -0.100551086717E+04   -0.24232E-01   -0.25318E-01  2880   0.495E+00-0.147E-01
CGA:  21    -0.100553609243E+04   -0.25225E-01   -0.21770E-01  2880   0.431E+00 0.568E-01
CGA:  22    -0.100555565140E+04   -0.19559E-01   -0.20908E-01  2880   0.361E+00-0.265E-01
CGA:  23    -0.100557037529E+04   -0.14724E-01   -0.14919E-01  2880   0.280E+00-0.622E-02
CGA:  24    -0.100557976918E+04   -0.93939E-02   -0.10526E-01  2880   0.140E+00-0.268E-01
CGA:  25    -0.100558437536E+04   -0.46062E-02   -0.44845E-02  2880   0.883E-01 0.168E-02
CGA:  26    -0.100558874374E+04   -0.43684E-02   -0.40952E-02  2880   0.116E+00 0.426E-02
CGA:  27    -0.100559631578E+04   -0.75720E-02   -0.74701E-02  2880   0.189E+00 0.195E-02
CGA:  28    -0.100560274483E+04   -0.64291E-02   -0.58711E-02  2880   0.123E+00 0.195E-01
CGA:  29    -0.100560642323E+04   -0.36784E-02   -0.39270E-02  2880   0.747E-01-0.317E-02
CGA:  30    -0.100560877905E+04   -0.23558E-02   -0.24318E-02  2880   0.624E-01-0.655E-04
CGA:  31    -0.100561071612E+04   -0.19371E-02   -0.20215E-02  2880   0.429E-01-0.113E-02
CGA:  32    -0.100561193464E+04   -0.12185E-02   -0.12650E-02  2880   0.273E-01-0.976E-04
CGA:  33    -0.100561280098E+04   -0.86634E-03   -0.89232E-03  2880   0.262E-01 0.124E-02
CGA:  34    -0.100561385218E+04   -0.10512E-02   -0.11458E-02  2880   0.319E-01 0.149E-02
CGA:  35    -0.100561483732E+04   -0.98514E-03   -0.99144E-03  2880   0.214E-01 0.476E-02
CGA:  36    -0.100561541563E+04   -0.57831E-03   -0.59900E-03  2880   0.139E-01 0.288E-02
SDA:  37    -0.100561589707E+04   -0.48144E-03   -0.52124E-03  2880   0.170E-01 0.907E-03
CGA:  38    -0.100561702307E+04   -0.11260E-02   -0.11189E-02  2880   0.591E-02-0.667E-03
CGA:  39    -0.100561810182E+04   -0.10788E-02   -0.11702E-02  2880   0.902E-02-0.767E-03
CGA:  40    -0.100561905413E+04   -0.95230E-03   -0.98471E-03  2880   0.394E-02-0.781E-03
CGA:  41    -0.100562019055E+04   -0.11364E-02   -0.13544E-02  2880   0.374E-02-0.113E-02
CGA:  42    -0.100562032531E+04   -0.13476E-03   -0.13557E-03  2880   0.103E-02 0.690E-05
CGA:  43    -0.100562040041E+04   -0.75104E-04   -0.73130E-04  2880   0.100E-02-0.692E-04
CGA:  44    -0.100562058127E+04   -0.18086E-03   -0.18263E-03  2880   0.241E-02-0.237E-05
CGA:  45    -0.100562068515E+04   -0.10388E-03   -0.10264E-03  2880   0.792E-03 0.434E-03
CGA:  46    -0.100562071771E+04   -0.32557E-04   -0.37594E-04  2880   0.442E-03 0.117E-03
CGA:  47    -0.100562075574E+04   -0.38033E-04   -0.38728E-04  2880   0.705E-03 0.425E-04
CGA:  48    -0.100562080923E+04   -0.53494E-04   -0.52493E-04  2880   0.621E-03-0.262E-05
CGA:  49    -0.100562083464E+04   -0.25403E-04   -0.24039E-04  2880   0.266E-03-0.276E-05
CGA:  50    -0.100562084824E+04   -0.13600E-04   -0.13209E-04  2880   0.292E-03-0.640E-05
CGA:  51    -0.100562087378E+04   -0.25548E-04   -0.25544E-04  2880   0.656E-03-0.402E-05
CGA:  52    -0.100562090509E+04   -0.31306E-04   -0.29242E-04  2880   0.456E-03 0.623E-04
CGA:  53    -0.100562092020E+04   -0.15114E-04   -0.14756E-04  2880   0.163E-03 0.403E-04
CGA:  54    -0.100562092755E+04   -0.73453E-05   -0.73074E-05  2880   0.160E-03 0.398E-05
CGA:  55    -0.100562093883E+04   -0.11279E-04   -0.10919E-04  2880   0.310E-03 0.519E-05
CGA:  56    -0.100562094657E+04   -0.77380E-05   -0.59776E-05  2880   0.261E-03 0.134E-03
   1 F= -.10056209E+04 E0= -.10056058E+04  d E =-.100562E+04  mag=     1.0000
       N       E                     dE             d eps       ncg     rms          ort
SDA:   1    -0.100561876883E+04    0.21700E-02    0.00000E+00  2880   0.406E-01 0.000E+00
CGA:   2    -0.100562060195E+04   -0.18331E-02   -0.18614E-02  2880   0.638E-03 0.321E-03
CGA:   3    -0.100562053413E+04    0.67817E-04   -0.77283E-04  2880   0.483E-02-0.944E-03
CGA:   4    -0.100562076628E+04   -0.23215E-03   -0.24913E-03  2880   0.129E-02 0.134E-03
CGA:   5    -0.100562082264E+04   -0.56360E-04   -0.77049E-04  2880   0.114E-03 0.308E-03
CGA:   6    -0.100562082526E+04   -0.26212E-05   -0.67238E-05  2880   0.536E-04 0.514E-04
   2 F= -.10056208E+04 E0= -.10056057E+04  d E =0.121304E-03  mag=     0.9984
       N       E                     dE             d eps       ncg     rms          ort
SDA:   1    -0.100561951441E+04    0.13082E-02    0.00000E+00  2880   0.952E-02 0.000E+00
CGA:   2    -0.100561994557E+04   -0.43117E-03   -0.46463E-03  2880   0.131E-02 0.372E-03
CGA:   3    -0.100562013428E+04   -0.18871E-03   -0.18376E-03  2880   0.132E-02 0.292E-03
CGA:   4    -0.100562026744E+04   -0.13316E-03   -0.13734E-03  2880   0.515E-03 0.114E-03
CGA:   5    -0.100562035030E+04   -0.82855E-04   -0.12241E-03  2880   0.942E-03-0.390E-03
CGA:   6    -0.100562037612E+04   -0.25818E-04   -0.35181E-04  2880   0.117E-03 0.972E-04
CGA:   7    -0.100562037872E+04   -0.26000E-05   -0.70351E-05  2880   0.584E-04 0.704E-04
   3 F= -.10056204E+04 E0= -.10056052E+04  d E =0.446545E-03  mag=     0.9984
       N       E                     dE             d eps       ncg     rms          ort
SDA:   1    -0.100556200648E+04    0.58370E-01    0.00000E+00  2880   0.586E+00 0.000E+00
CGA:   2    -0.100558559296E+04   -0.23586E-01   -0.23089E-01  2880   0.860E-01 0.699E-02
CGA:   3    -0.100560962308E+04   -0.24030E-01   -0.23906E-01  2880   0.768E-01 0.675E-03
CGA:   4    -0.100561430198E+04   -0.46789E-02   -0.47006E-02  2880   0.167E-01-0.129E-02
CGA:   5    -0.100561618908E+04   -0.18871E-02   -0.18871E-02  2880   0.194E-01-0.761E-04
CGA:   6    -0.100561774986E+04   -0.15608E-02   -0.15493E-02  2880   0.186E-02-0.246E-03
CGA:   7    -0.100561802319E+04   -0.27333E-03   -0.26931E-03  2880   0.118E-02 0.123E-03
CGA:   8    -0.100561810483E+04   -0.81634E-04   -0.88544E-04  2880   0.418E-03 0.156E-03
CGA:   9    -0.100561816696E+04   -0.62139E-04   -0.63431E-04  2880   0.626E-03-0.607E-04
CGA:  10    -0.100561821123E+04   -0.44263E-04   -0.43252E-04  2880   0.102E-03-0.330E-04
CGA:  11    -0.100561821550E+04   -0.42714E-05   -0.57793E-05  2880   0.785E-04 0.286E-04
   4 F= -.10056182E+04 E0= -.10056031E+04  d E =0.216322E-02  mag=     0.9984
       N       E                     dE             d eps       ncg     rms          ort
SDA:   1    -0.100544507732E+04    0.17313E+00    0.00000E+00  2880   0.643E+00 0.000E+00
CGA:   2    -0.100549482422E+04   -0.49747E-01   -0.52208E-01  2880   0.601E+00 0.140E-01
CGA:   3    -0.100558193927E+04   -0.87115E-01   -0.86476E-01  2880   0.260E+00 0.137E-01
CGA:   4    -0.100559844227E+04   -0.16503E-01   -0.15976E-01  2880   0.502E-01 0.382E-02
CGA:   5    -0.100560987691E+04   -0.11435E-01   -0.11777E-01  2880   0.174E-01-0.273E-02
CGA:   6    -0.100561126600E+04   -0.13891E-02   -0.14165E-02  2880   0.974E-02 0.109E-02
CGA:   7    -0.100561205375E+04   -0.78775E-03   -0.80993E-03  2880   0.282E-02 0.764E-03
CGA:   8    -0.100561230861E+04   -0.25486E-03   -0.25983E-03  2880   0.188E-02 0.181E-03
CGA:   9    -0.100561267763E+04   -0.36902E-03   -0.40481E-03  2880   0.663E-03-0.381E-03
CGA:  10    -0.100561272470E+04   -0.47075E-04   -0.47365E-04  2880   0.545E-03 0.761E-05
CGA:  11    -0.100561279474E+04   -0.70039E-04   -0.70325E-04  2880   0.312E-03-0.183E-04
CGA:  12    -0.100561281121E+04   -0.16464E-04   -0.19120E-04  2880   0.923E-04 0.532E-04
CGA:  13    -0.100561283828E+04   -0.27069E-04   -0.30300E-04  2880   0.686E-04-0.184E-04
CGA:  14    -0.100561284527E+04   -0.69914E-05   -0.87618E-05  2880   0.175E-03-0.437E-04
   5 F= -.10056128E+04 E0= -.10055978E+04  d E =0.537023E-02  mag=     0.9985
       N       E                     dE             d eps       ncg     rms          ort
SDA:   1    -0.100542767731E+04    0.18516E+00    0.00000E+00  2880   0.217E+01 0.000E+00
CGA:   2    -0.100552517081E+04   -0.97493E-01   -0.80207E-01  2880   0.209E+00 0.257E+00
CGA:   3    -0.100554641517E+04   -0.21244E-01   -0.20983E-01  2880   0.369E+00-0.336E-02
CGA:   4    -0.100558070463E+04   -0.34289E-01   -0.34263E-01  2880   0.318E+00-0.752E-03
CGA:   5    -0.100559564087E+04   -0.14936E-01   -0.14938E-01  2880   0.777E-01-0.592E-03
CGA:   6    -0.100559872778E+04   -0.30869E-02   -0.31815E-02  2880   0.278E-01-0.283E-02
CGA:   7    -0.100560204772E+04   -0.33199E-02   -0.33274E-02  2880   0.550E-01-0.429E-03
CGA:   8    -0.100560511069E+04   -0.30630E-02   -0.30501E-02  2880   0.737E-02 0.504E-03
CGA:   9    -0.100560541656E+04   -0.30587E-03   -0.31429E-03  2880   0.371E-02 0.375E-04
CGA:  10    -0.100560602254E+04   -0.60598E-03   -0.59866E-03  2880   0.595E-02 0.115E-03
CGA:  11    -0.100560631234E+04   -0.28979E-03   -0.29446E-03  2880   0.129E-02 0.880E-04
CGA:  12    -0.100560639370E+04   -0.81368E-04   -0.83594E-04  2880   0.796E-03 0.487E-04
CGA:  13    -0.100560648363E+04   -0.89926E-04   -0.90576E-04  2880   0.124E-02-0.581E-04
CGA:  14    -0.100560657088E+04   -0.87247E-04   -0.83558E-04  2880   0.406E-03-0.144E-03
CGA:  15    -0.100560659145E+04   -0.20574E-04   -0.21191E-04  2880   0.349E-03 0.137E-04
CGA:  16    -0.100560661612E+04   -0.24667E-04   -0.26854E-04  2880   0.168E-03 0.106E-03
CGA:  17    -0.100560662348E+04   -0.73655E-05   -0.91918E-05  2880   0.537E-04 0.343E-04
CGA:  18    -0.100560663536E+04   -0.11878E-04   -0.19047E-04  2880   0.227E-03-0.356E-04
CGA:  19    -0.100560664517E+04   -0.98155E-05   -0.10342E-04  2880   0.362E-04 0.838E-05
   6 F= -.10056066E+04 E0= -.10055917E+04  d E =0.620009E-02  mag=     0.9984
       N       E                     dE             d eps       ncg     rms          ort
SDA:   1    -0.100551578126E+04    0.90854E-01    0.00000E+00  2880   0.145E+01 0.000E+00
CGA:   2    -0.100556594045E+04   -0.50159E-01   -0.56976E-01  2880   0.146E+00-0.140E+00
CGA:   3    -0.100559319356E+04   -0.27253E-01   -0.27512E-01  2880   0.228E+00-0.263E-02
CGA:   4    -0.100560763051E+04   -0.14437E-01   -0.14521E-01  2880   0.230E-01 0.664E-03
CGA:   5    -0.100561013774E+04   -0.25072E-02   -0.25044E-02  2880   0.243E-01 0.178E-03
CGA:   6    -0.100561280785E+04   -0.26701E-02   -0.26602E-02  2880   0.491E-02 0.988E-03
CGA:   7    -0.100561325246E+04   -0.44461E-03   -0.43835E-03  2880   0.373E-02-0.439E-03
CGA:   8    -0.100561370093E+04   -0.44847E-03   -0.46285E-03  2880   0.160E-02-0.406E-03
CGA:   9    -0.100561380752E+04   -0.10659E-03   -0.10831E-03  2880   0.682E-03 0.569E-04
CGA:  10    -0.100561385359E+04   -0.46068E-04   -0.52680E-04  2880   0.127E-03 0.256E-03
CGA:  11    -0.100561387580E+04   -0.22207E-04   -0.20380E-04  2880   0.882E-04 0.104E-03
CGA:  12    -0.100561389713E+04   -0.21327E-04    0.21115E-04  2880   0.777E-04 0.515E-04
CGA:  13    -0.100561390379E+04   -0.66663E-05   -0.68380E-05  2880   0.102E-03 0.140E-04
CGA:  14    -0.100561393490E+04   -0.31111E-04   -0.58337E-04  2880   0.219E-03-0.705E-04
CGA:  15    -0.100561394100E+04   -0.60968E-05   -0.84067E-05  2880   0.420E-04 0.266E-04
   7 F= -.10056139E+04 E0= -.10055989E+04  d E =-.729582E-02  mag=     0.9984
       N       E                     dE             d eps       ncg     rms          ort
SDA:   1    -0.100551874330E+04    0.95192E-01    0.00000E+00  2880   0.169E+01 0.000E+00
CGA:   2    -0.100557303948E+04   -0.54296E-01   -0.70105E-01  2880   0.191E+00-0.310E+00
CGA:   3    -0.100559027326E+04   -0.17234E-01   -0.17235E-01  2880   0.147E+00-0.257E-02
CGA:   4    -0.100560549424E+04   -0.15221E-01   -0.15219E-01  2880   0.653E-01 0.177E-03
CGA:   5    -0.100561064501E+04   -0.51508E-02   -0.51583E-02  2880   0.225E-01-0.562E-03
CGA:   6    -0.100561282102E+04   -0.21760E-02   -0.21876E-02  2880   0.119E-01 0.856E-03
CGA:   7    -0.100561410419E+04   -0.12832E-02   -0.12825E-02  2880   0.652E-02-0.197E-03
CGA:   8    -0.100561463963E+04   -0.53544E-03   -0.54131E-03  2880   0.182E-02 0.201E-03
CGA:   9    -0.100561483282E+04   -0.19318E-03   -0.19242E-03  2880   0.163E-02-0.227E-03
CGA:  10    -0.100561500223E+04   -0.16941E-03   -0.16851E-03  2880   0.390E-03 0.709E-04
CGA:  11    -0.100561503532E+04   -0.33099E-04   -0.32628E-04  2880   0.269E-03-0.209E-04
CGA:  12    -0.100561506239E+04   -0.27063E-04   -0.26980E-04  2880   0.529E-04 0.100E-03
CGA:  13    -0.100561507820E+04   -0.15814E-04    0.11938E-03  2880   0.332E-04 0.533E-04
CGA:  14    -0.100561508714E+04   -0.89425E-05   -0.10966E-05  2880   0.554E-03-0.280E-04
CGA:  15    -0.100561510847E+04   -0.21325E-04   -0.21100E-04  2880   0.234E-04-0.266E-06
CGA:  16    -0.100561510731E+04    0.11636E-05   -0.79718E-06  2880   0.940E-05 0.130E-04
   8 F= -.10056151E+04 E0= -.10056000E+04  d E =-.116631E-02  mag=     0.9984
       N       E                     dE             d eps       ncg     rms          ort
SDA:   1    -0.100559131432E+04    0.23794E-01    0.00000E+00  2880   0.276E+00 0.000E+00
CGA:   2    -0.100560206308E+04   -0.10749E-01   -0.10024E-01  2880   0.299E-01 0.146E-01
CGA:   3    -0.100560968381E+04   -0.76207E-02   -0.76018E-02  2880   0.635E-01 0.147E-03
CGA:   4    -0.100561307048E+04   -0.33867E-02   -0.35300E-02  2880   0.103E-01-0.150E-02
CGA:   5    -0.100561373326E+04   -0.66278E-03   -0.63994E-03  2880   0.490E-02-0.344E-03
CGA:   6    -0.100561460677E+04   -0.87351E-03   -0.88417E-03  2880   0.346E-02-0.357E-03
CGA:   7    -0.100561472164E+04   -0.11487E-03   -0.12594E-03  2880   0.590E-03 0.955E-04
CGA:   8    -0.100561477132E+04   -0.49676E-04   -0.59236E-04  2880   0.582E-03 0.177E-03
CGA:   9    -0.100561481179E+04   -0.40471E-04   -0.48175E-04  2880   0.180E-03 0.874E-04
CGA:  10    -0.100561484881E+04   -0.37018E-04   -0.37936E-04  2880   0.159E-03-0.243E-04
CGA:  11    -0.100561486830E+04   -0.19491E-04   -0.17252E-04  2880   0.143E-03-0.106E-03
CGA:  12    -0.100561487246E+04   -0.41662E-05   -0.74029E-05  2880   0.384E-04 0.334E-04
   9 F= -.10056149E+04 E0= -.10055998E+04  d E =0.234841E-03  mag=     0.9984
       N       E                     dE             d eps       ncg     rms          ort
SDA:   1    -0.100559735241E+04    0.17516E-01    0.00000E+00  2880   0.146E+00 0.000E+00
CGA:   2    -0.100560367558E+04   -0.63232E-02   -0.57789E-02  2880   0.262E-01 0.108E-01
CGA:   3    -0.100560951377E+04   -0.58382E-02   -0.57931E-02  2880   0.498E-01 0.496E-03
CGA:   4    -0.100561283723E+04   -0.33235E-02   -0.33486E-02  2880   0.919E-02-0.204E-03
CGA:   5    -0.100561334027E+04   -0.50304E-03   -0.48841E-03  2880   0.366E-02-0.427E-03
CGA:   6    -0.100561404239E+04   -0.70212E-03   -0.73755E-03  2880   0.185E-02-0.433E-03
CGA:   7    -0.100561409846E+04   -0.56066E-04   -0.65435E-04  2880   0.528E-03 0.905E-04
CGA:   8    -0.100561413769E+04   -0.39229E-04   -0.47484E-04  2880   0.428E-03 0.195E-03
CGA:   9    -0.100561416364E+04   -0.25954E-04   -0.32396E-04  2880   0.129E-03 0.887E-04
CGA:  10    -0.100561419343E+04   -0.29786E-04   -0.29548E-04  2880   0.663E-04 0.352E-05
CGA:  11    -0.100561391070E+04    0.28272E-03   -0.15323E-03  2880   0.528E-02-0.484E-03
CGA:  12    -0.100561414217E+04   -0.23146E-03   -0.25723E-03  2880   0.456E-03 0.326E-04
CGA:  13    -0.100561416394E+04   -0.21769E-04   -0.36366E-04  2880   0.234E-03 0.110E-03
CGA:  14    -0.100561417967E+04   -0.15735E-04   -0.22303E-04  2880   0.732E-04 0.494E-04
CGA:  15    -0.100561420663E+04   -0.26955E-04   -0.29627E-04  2880   0.555E-04-0.212E-04
CGA:  16    -0.100561421546E+04   -0.88341E-05   -0.78210E-05  2880   0.142E-03-0.637E-04
  10 F= -.10056142E+04 E0= -.10055992E+04  d E =0.657002E-03  mag=     0.9984
       N       E                     dE             d eps       ncg     rms          ort
SDA:   1    -0.100557882585E+04    0.35381E-01    0.00000E+00  2880   0.129E+00 0.000E+00
CGA:   2    -0.100558952063E+04   -0.10695E-01   -0.10443E-01  2880   0.107E+00 0.280E-02
CGA:   3    -0.100560733602E+04   -0.17815E-01   -0.17801E-01  2880   0.740E-01-0.377E-03
CGA:   4    -0.100561093636E+04   -0.36003E-02   -0.39283E-02  2880   0.109E-01-0.479E-02
CGA:   5    -0.100561309132E+04   -0.21550E-02   -0.21549E-02  2880   0.748E-02-0.250E-05
CGA:   6    -0.100561344467E+04   -0.35335E-03   -0.37093E-03  2880   0.121E-02-0.242E-04
CGA:   7    -0.100561368743E+04   -0.24275E-03   -0.24426E-03  2880   0.172E-02-0.842E-04
CGA:   8    -0.100561378628E+04   -0.98851E-04   -0.10487E-03  2880   0.172E-03 0.567E-04
CGA:   9    -0.100561380567E+04   -0.19390E-04   -0.20739E-04  2880   0.217E-03 0.208E-04
CGA:  10    -0.100561383742E+04   -0.31756E-04   -0.32944E-04  2880   0.418E-04 0.293E-04
CGA:  11    -0.100561383967E+04   -0.22427E-05   -0.17032E-04  2880   0.711E-03-0.801E-04
CGA:  12    -0.100561385847E+04   -0.18807E-04   -0.24212E-04  2880   0.206E-04 0.379E-04
CGA:  13    -0.100561385784E+04    0.63801E-06   -0.94056E-06  2880   0.107E-04 0.119E-04
  11 F= -.10056139E+04 E0= -.10055989E+04  d E =0.357627E-03  mag=     0.9984
       N       E                     dE             d eps       ncg     rms          ort
SDA:   1    -0.100555861867E+04    0.55240E-01    0.00000E+00  2880   0.120E+01 0.000E+00
CGA:   2    -0.100559234176E+04   -0.33723E-01   -0.56679E-01  2880   0.236E+00-0.424E+00
CGA:   3    -0.100560426470E+04   -0.11923E-01   -0.11820E-01  2880   0.398E-01-0.106E-02
CGA:   4    -0.100560867544E+04   -0.44107E-02   -0.43763E-02  2880   0.420E-01 0.206E-03
CGA:   5    -0.100561430831E+04   -0.56329E-02   -0.56341E-02  2880   0.154E-01-0.230E-03
CGA:   6    -0.100561511849E+04   -0.81018E-03   -0.85810E-03  2880   0.308E-02-0.115E-03
CGA:   7    -0.100561564132E+04   -0.52283E-03   -0.52020E-03  2880   0.338E-02 0.101E-03
CGA:   8    -0.100561588682E+04   -0.24550E-03   -0.25627E-03  2880   0.632E-03 0.981E-04
CGA:   9    -0.100561596094E+04   -0.74125E-04   -0.69104E-04  2880   0.724E-03-0.140E-03
CGA:  10    -0.100561604481E+04   -0.83865E-04   -0.84555E-04  2880   0.205E-03-0.841E-04
CGA:  11    -0.100561605324E+04   -0.84309E-05   -0.11300E-04  2880   0.808E-04 0.352E-04
  12 F= -.10056161E+04 E0= -.10056010E+04  d E =-.219540E-02  mag=     0.9984
       N       E                     dE             d eps       ncg     rms          ort
SDA:   1    -0.100561181419E+04    0.42306E-02    0.00000E+00  2880   0.145E-01 0.000E+00
CGA:   2    -0.100561387094E+04   -0.20568E-02   -0.20594E-02  2880   0.275E-01-0.373E-03
CGA:   3    -0.100561618645E+04   -0.23155E-02   -0.22765E-02  2880   0.360E-02-0.713E-03
CGA:   4    -0.100561663053E+04   -0.44409E-03   -0.44708E-03  2880   0.721E-03 0.688E-03
CGA:   5    -0.100561679324E+04   -0.16271E-03   -0.15741E-03  2880   0.521E-03 0.102E-03
CGA:   6    -0.100561685007E+04   -0.56824E-04   -0.52960E-04  2880   0.252E-03-0.864E-04
CGA:   7    -0.100561687442E+04   -0.24354E-04   -0.22205E-04  2880   0.217E-03-0.812E-04
CGA:   8    -0.100561689244E+04   -0.18022E-04   -0.16185E-04  2880   0.174E-03-0.882E-04
CGA:   9    -0.100561689518E+04   -0.27353E-05   -0.57291E-05  2880   0.630E-04 0.401E-04
  13 F= -.10056169E+04 E0= -.10056018E+04  d E =-.841938E-03  mag=     0.9984
       N       E                     dE             d eps       ncg     rms          ort
SDA:   1    -0.100560655057E+04    0.10342E-01    0.00000E+00  2880   0.411E-01 0.000E+00
CGA:   2    -0.100561017733E+04   -0.36268E-02   -0.35799E-02  2880   0.464E-01-0.282E-03
CGA:   3    -0.100561658288E+04   -0.64055E-02   -0.64374E-02  2880   0.143E-01-0.157E-02
CGA:   4    -0.100561759964E+04   -0.10168E-02   -0.10441E-02  2880   0.512E-02 0.495E-03
CGA:   5    -0.100561808770E+04   -0.48806E-03   -0.50529E-03  2880   0.109E-02 0.785E-03
CGA:   6    -0.100561835648E+04   -0.26878E-03   -0.27938E-03  2880   0.103E-02-0.102E-03
CGA:   7    -0.100561842308E+04   -0.66592E-04   -0.58511E-04  2880   0.166E-03-0.138E-03
CGA:   8    -0.100561845838E+04   -0.35304E-04   -0.35956E-04  2880   0.216E-03-0.521E-05
CGA:   9    -0.100561846938E+04   -0.11001E-04   -0.11011E-04  2880   0.276E-04-0.900E-06
CGA:  10    -0.100561847090E+04   -0.15163E-05   -0.21416E-05  2880   0.194E-04 0.141E-04
  14 F= -.10056185E+04 E0= -.10056034E+04  d E =-.157572E-02  mag=     0.9984
       N       E                     dE             d eps       ncg     rms          ort
SDA:   1    -0.100546419323E+04    0.15428E+00    0.00000E+00  2880   0.444E+00 0.000E+00
CGA:   2    -0.100554185092E+04   -0.77658E-01   -0.77282E-01  2880   0.709E+00 0.494E-02
CGA:   3    -0.100559986610E+04   -0.58015E-01   -0.54796E-01  2880   0.138E+00 0.703E-02
CGA:   4    -0.100561236916E+04   -0.12503E-01   -0.12522E-01  2880   0.704E-01 0.289E-02
CGA:   5    -0.100561909373E+04   -0.67246E-02   -0.68006E-02  2880   0.225E-01 0.148E-02
CGA:   6    -0.100562285101E+04   -0.37573E-02   -0.37772E-02  2880   0.129E-01-0.611E-03
CGA:   7    -0.100562353492E+04   -0.68391E-03   -0.64358E-03  2880   0.226E-02-0.250E-03
CGA:   8    -0.100562402632E+04   -0.49140E-03   -0.45823E-03  2880   0.844E-03 0.390E-03
CGA:   9    -0.100562413727E+04   -0.11095E-03   -0.10825E-03  2880   0.121E-02-0.179E-03
CGA:  10    -0.100562424703E+04   -0.10976E-03   -0.10894E-03  2880   0.480E-03-0.810E-04
CGA:  11    -0.100562426474E+04   -0.17708E-04   -0.22718E-04  2880   0.188E-03 0.659E-04
CGA:  12    -0.100562427791E+04   -0.13166E-04   -0.16110E-04  2880   0.174E-03 0.649E-04
CGA:  13    -0.100562429582E+04   -0.17915E-04   -0.19897E-04  2880   0.743E-04 0.603E-04
CGA:  14    -0.100562430368E+04   -0.78575E-05   -0.79220E-05  2880   0.747E-04 0.966E-06
CGA:  15    -0.100562412197E+04    0.18171E-03   -0.99156E-04  2880   0.102E-02-0.377E-03
CGA:  16    -0.100562420960E+04   -0.87630E-04   -0.10639E-03  2880   0.429E-03 0.218E-03
CGA:  17    -0.100562424438E+04   -0.34781E-04   -0.41333E-04  2880   0.236E-03 0.543E-04
CGA:  18    -0.100562428250E+04   -0.38118E-04   -0.38677E-04  2880   0.170E-03 0.104E-04
CGA:  19    -0.100562431457E+04   -0.32073E-04   -0.24845E-04  2880   0.210E-03-0.133E-03
CGA:  20    -0.100562431781E+04   -0.32410E-05   -0.82290E-05  2880   0.296E-04 0.327E-04
  15 F= -.10056243E+04 E0= -.10056091E+04  d E =-.584691E-02  mag=     0.9984
       N       E                     dE             d eps       ncg     rms          ort
SDA:   1    -0.100558820216E+04    0.36112E-01    0.00000E+00  2880   0.114E+00 0.000E+00
CGA:   2    -0.100560306339E+04   -0.14861E-01   -0.14557E-01  2880   0.179E+00-0.441E-03
CGA:   3    -0.100562220140E+04   -0.19138E-01   -0.19101E-01  2880   0.456E-01-0.104E-02
CGA:   4    -0.100562485430E+04   -0.26529E-02   -0.27705E-02  2880   0.132E-01-0.807E-03
CGA:   5    -0.100562717756E+04   -0.23233E-02   -0.23151E-02  2880   0.338E-02 0.678E-03
CGA:   6    -0.100562765443E+04   -0.47687E-03   -0.46661E-03  2880   0.283E-02-0.321E-03
CGA:   7    -0.100562784150E+04   -0.18707E-03   -0.16293E-03  2880   0.791E-03-0.251E-03
CGA:   8    -0.100562793645E+04   -0.94951E-04   -0.99545E-04  2880   0.128E-03 0.208E-03
CGA:   9    -0.100562795866E+04   -0.22212E-04   -0.23165E-04  2880   0.128E-03 0.602E-04
CGA:  10    -0.100562798561E+04   -0.26948E-04   -0.26133E-04  2880   0.223E-03-0.412E-04
CGA:  11    -0.100562799451E+04   -0.88973E-05   -0.81206E-05  2880   0.963E-04-0.761E-05
  16 F= -.10056280E+04 E0= -.10056128E+04  d E =-.367670E-02  mag=     0.9984
       N       E                     dE             d eps       ncg     rms          ort
SDA:   1    -0.100559434586E+04    0.33640E-01    0.00000E+00  2880   0.893E-01 0.000E+00
CGA:   2    -0.100560629593E+04   -0.11950E-01   -0.11964E-01  2880   0.160E+00 0.904E-03
CGA:   3    -0.100562137582E+04   -0.15080E-01   -0.15121E-01  2880   0.150E-01-0.225E-03
CGA:   4    -0.100562393560E+04   -0.25598E-02   -0.25732E-02  2880   0.143E-01-0.548E-03
CGA:   5    -0.100562494741E+04   -0.10118E-02   -0.10078E-02  2880   0.316E-02-0.465E-04
CGA:   6    -0.100562522359E+04   -0.27618E-03   -0.29227E-03  2880   0.161E-02 0.382E-03
CGA:   7    -0.100562536134E+04   -0.13775E-03   -0.14064E-03  2880   0.440E-03 0.414E-04
CGA:   8    -0.100562546659E+04   -0.10524E-03   -0.11712E-03  2880   0.497E-03-0.957E-04
CGA:   9    -0.100562549333E+04   -0.26745E-04   -0.22430E-04  2880   0.159E-03-0.538E-04
CGA:  10    -0.100562550282E+04   -0.94896E-05   -0.12211E-04  2880   0.769E-04 0.531E-04
  17 F= -.10056255E+04 E0= -.10056103E+04  d E =0.249169E-02  mag=     0.9984
       N       E                     dE             d eps       ncg     rms          ort
SDA:   1    -0.100558422733E+04    0.41266E-01    0.00000E+00  2880   0.128E+00 0.000E+00
CGA:   2    -0.100559643748E+04   -0.12210E-01   -0.12254E-01  2880   0.173E+00-0.979E-03
CGA:   3    -0.100561896677E+04   -0.22529E-01   -0.22527E-01  2880   0.153E-01 0.111E-02
CGA:   4    -0.100562231681E+04   -0.33500E-02   -0.33762E-02  2880   0.141E-01-0.313E-03
CGA:   5    -0.100562324235E+04   -0.92554E-03   -0.90931E-03  2880   0.156E-02-0.310E-03
CGA:   6    -0.100562346338E+04   -0.22103E-03   -0.21782E-03  2880   0.139E-02 0.266E-03
CGA:   7    -0.100562357839E+04   -0.11501E-03   -0.11572E-03  2880   0.404E-03 0.902E-05
CGA:   8    -0.100562363707E+04   -0.58680E-04   -0.59434E-04  2880   0.338E-03-0.436E-04
CGA:   9    -0.100562366804E+04   -0.30971E-04   -0.28003E-04  2880   0.198E-03-0.829E-04
CGA:  10    -0.100562367812E+04   -0.10084E-04   -0.12072E-04  2880   0.507E-04 0.424E-04
CGA:  11    -0.100562368437E+04   -0.62504E-05   -0.66944E-05  2880   0.282E-04 0.278E-04
CGA:  12    -0.100562357414E+04    0.11024E-03   -0.59173E-04  2880   0.396E-02-0.199E-03
CGA:  13    -0.100562369927E+04   -0.12513E-03   -0.14561E-03  2880   0.480E-04-0.839E-04
CGA:  14    -0.100562370067E+04   -0.14047E-05   -0.30301E-05  2880   0.154E-04 0.105E-04
  18 F= -.10056237E+04 E0= -.10056085E+04  d E =0.180215E-02  mag=     0.9984
       N       E                     dE             d eps       ncg     rms          ort
SDA:   1    -0.100560159035E+04    0.22109E-01    0.00000E+00  2880   0.142E+00 0.000E+00
CGA:   2    -0.100560861326E+04   -0.70229E-02   -0.77215E-02  2880   0.672E-01-0.963E-02
CGA:   3    -0.100562363070E+04   -0.15017E-01   -0.15065E-01  2880   0.147E-01-0.102E-02
CGA:   4    -0.100562480232E+04   -0.11716E-02   -0.12331E-02  2880   0.954E-02 0.722E-03
CGA:   5    -0.100562577250E+04   -0.97018E-03   -0.10012E-02  2880   0.348E-02 0.263E-03
CGA:   6    -0.100562613554E+04   -0.36304E-03   -0.35304E-03  2880   0.184E-02-0.145E-03
CGA:   7    -0.100562631667E+04   -0.18113E-03   -0.16040E-03  2880   0.480E-03-0.237E-03
CGA:   8    -0.100562635278E+04   -0.36112E-04   -0.40951E-04  2880   0.341E-03 0.586E-04
CGA:   9    -0.100562638793E+04   -0.35149E-04   -0.37997E-04  2880   0.847E-04 0.374E-04
CGA:  10    -0.100562639404E+04   -0.61029E-05   -0.81617E-05  2880   0.443E-04 0.246E-04
CGA:  11    -0.100562623427E+04    0.15977E-03   -0.86506E-04  2880   0.326E-02-0.249E-03
CGA:  12    -0.100562633643E+04   -0.10216E-03   -0.13136E-03  2880   0.356E-03-0.179E-05
CGA:  13    -0.100562636518E+04   -0.28747E-04   -0.42963E-04  2880   0.953E-04 0.916E-04
CGA:  14    -0.100562640031E+04   -0.35137E-04   -0.35544E-04  2880   0.166E-03-0.250E-04
CGA:  15    -0.100562640435E+04   -0.40359E-05   -0.41360E-05  2880   0.344E-04-0.188E-06
  19 F= -.10056264E+04 E0= -.10056112E+04  d E =-.270368E-02  mag=     0.9985
       N       E                     dE             d eps       ncg     rms          ort
SDA:   1    -0.100559923232E+04    0.27168E-01    0.00000E+00  2880   0.998E-01 0.000E+00
CGA:   2    -0.100560861049E+04   -0.93782E-02   -0.84981E-02  2880   0.958E-01 0.840E-02
CGA:   3    -0.100562480472E+04   -0.16194E-01   -0.16086E-01  2880   0.425E-01-0.649E-03
CGA:   4    -0.100562734620E+04   -0.25415E-02   -0.27119E-02  2880   0.104E-01-0.153E-02
CGA:   5    -0.100562877323E+04   -0.14270E-02   -0.14552E-02  2880   0.421E-02 0.424E-03
CGA:   6    -0.100562919921E+04   -0.42599E-03   -0.41756E-03  2880   0.294E-02-0.399E-04
CGA:   7    -0.100562948082E+04   -0.28161E-03   -0.24620E-03  2880   0.551E-03-0.321E-03
CGA:   8    -0.100562953345E+04   -0.52624E-04   -0.61007E-04  2880   0.376E-03 0.890E-04
CGA:   9    -0.100562956827E+04   -0.34826E-04   -0.37741E-04  2880   0.149E-03 0.211E-04
CGA:  10    -0.100562958448E+04   -0.16206E-04   -0.17533E-04  2880   0.892E-04 0.132E-04
CGA:  11    -0.100562960408E+04   -0.19600E-04   -0.21331E-04  2880   0.374E-03-0.948E-04
CGA:  12    -0.100562961090E+04   -0.68227E-05   -0.13149E-04  2880   0.231E-04 0.325E-04
  20 F= -.10056296E+04 E0= -.10056144E+04  d E =-.320655E-02  mag=     0.9985
       N       E                     dE             d eps       ncg     rms          ort
SDA:   1    -0.100562227688E+04    0.73272E-02    0.00000E+00  2880   0.174E-01 0.000E+00
CGA:   2    -0.100562773037E+04   -0.54535E-02   -0.54636E-02  2880   0.133E-01-0.893E-04
CGA:   3    -0.100562856038E+04   -0.83002E-03   -0.84815E-03  2880   0.408E-02-0.174E-03
CGA:   4    -0.100562910494E+04   -0.54456E-03   -0.54170E-03  2880   0.342E-02-0.623E-04
CGA:   5    -0.100562930125E+04   -0.19631E-03   -0.20764E-03  2880   0.440E-03 0.127E-03
CGA:   6    -0.100562940504E+04   -0.10378E-03   -0.11945E-03  2880   0.327E-03-0.187E-03
CGA:   7    -0.100562941658E+04   -0.11549E-04   -0.15619E-04  2880   0.202E-03 0.410E-04
CGA:   8    -0.100562942190E+04   -0.53147E-05   -0.13951E-04  2880   0.489E-04 0.755E-04
  21 F= -.10056294E+04 E0= -.10056142E+04  d E =0.189002E-03  mag=     0.9985
       N       E                     dE             d eps       ncg     rms          ort
SDA:   1    -0.100562766715E+04    0.17494E-02    0.00000E+00  2880   0.222E-01 0.000E+00
CGA:   2    -0.100562847695E+04   -0.80979E-03   -0.90262E-03  2880   0.247E-02-0.101E-02
CGA:   3    -0.100562899345E+04   -0.51650E-03   -0.51732E-03  2880   0.358E-02-0.255E-04
CGA:   4    -0.100562923464E+04   -0.24120E-03   -0.25228E-03  2880   0.400E-03 0.145E-03
CGA:   5    -0.100562930720E+04   -0.72556E-04   -0.84049E-04  2880   0.134E-02-0.266E-03
CGA:   6    -0.100562934541E+04   -0.38214E-04   -0.49991E-04  2880   0.850E-04 0.628E-04
CGA:   7    -0.100562934695E+04   -0.15409E-05   -0.54453E-05  2880   0.376E-04 0.423E-04
  22 F= -.10056293E+04 E0= -.10056141E+04  d E =0.749445E-04  mag=     0.9985
