       N       E                     dE             d eps       ncg     rms          ort
DAV:   1     0.102746889396E+05    0.10275E+05   -0.42564E+05 10640   0.156E+03
DAV:   2    -0.145924953595E+03   -0.10421E+05   -0.98261E+04 10640   0.475E+02
DAV:   3    -0.154814391960E+04   -0.14022E+04   -0.13103E+04 10640   0.182E+02
DAV:   4    -0.162843487560E+04   -0.80291E+02   -0.78118E+02 10640   0.459E+01
DAV:   5    -0.163075410379E+04   -0.23192E+01   -0.23117E+01 10640   0.830E+00
SDA:   6    -0.766276470544E+03    0.86448E+03   -0.23117E+01 10640   0.283E+04 0.000E+00
CGA:   7    -0.117085140434E+04   -0.40457E+03   -0.40067E+03 10640   0.894E+03-0.132E+02
CGA:   8    -0.119346721031E+04   -0.22616E+02   -0.51975E+02 10640   0.932E+03-0.445E+03
CGA:   9    -0.123354792864E+04   -0.40081E+02   -0.23201E+02 10640   0.301E+03 0.680E+02
CGA:  10    -0.124574575266E+04   -0.12198E+02   -0.24256E+02 10640   0.612E+03-0.884E+02
CGA:  11    -0.126324556603E+04   -0.17500E+02   -0.19057E+02 10640   0.601E+03-0.172E+03
CGA:  12    -0.126875902350E+04   -0.55135E+01   -0.17716E+02 10640   0.467E+03-0.172E+03
CGA:  13    -0.127332297848E+04   -0.45640E+01   -0.90832E+01 10640   0.314E+03-0.251E+03
CGA:  14    -0.127720099672E+04   -0.38780E+01   -0.14073E+02 10640   0.470E+03-0.203E+03
CGA:  15    -0.127691689357E+04    0.28410E+00   -0.17125E+02 10640   0.831E+03-0.564E+03
CGA:  16    -0.126731928560E+04    0.95976E+01   -0.36350E+02 10640   0.102E+04-0.653E+03
CGA:  17    -0.127172853034E+04   -0.44092E+01   -0.35929E+02 10640   0.133E+04-0.133E+04
CGA:  18    -0.126079171312E+04    0.10937E+02   -0.56920E+02 10640   0.129E+04-0.983E+03
CGA:  19    -0.127789186366E+04   -0.17100E+02   -0.43171E+02 10640   0.112E+04-0.147E+04
CGA:  20    -0.127530952228E+04    0.25823E+01   -0.43229E+02 10640   0.982E+03-0.878E+03
CGA:  21    -0.128810213181E+04   -0.12793E+02   -0.31204E+02 10640   0.658E+03-0.915E+03
CGA:  22    -0.129136712389E+04   -0.32650E+01   -0.22263E+02 10640   0.428E+03-0.465E+03
CGA:  23    -0.129842411353E+04   -0.70570E+01   -0.11726E+02 10640   0.126E+03-0.229E+03
CGA:  24    -0.130048316027E+04   -0.20590E+01   -0.31855E+01 10640   0.288E+02-0.379E+02
CGA:  25    -0.130170566545E+04   -0.12225E+01   -0.12421E+01 10640   0.225E+02-0.692E+00
CGA:  26    -0.130297655264E+04   -0.12709E+01   -0.14020E+01 10640   0.247E+02-0.742E+00
CGA:  27    -0.130457948213E+04   -0.16029E+01   -0.17296E+01 10640   0.122E+02 0.898E-01
CGA:  28    -0.130510611633E+04   -0.52663E+00   -0.58524E+00 10640   0.384E+01-0.843E+00
CGA:  29    -0.130540947330E+04   -0.30336E+00   -0.30759E+00 10640   0.347E+01 0.617E-01
CGA:  30    -0.130577798411E+04   -0.36851E+00   -0.36674E+00 10640   0.339E+01 0.267E-01
CGA:  31    -0.130612072146E+04   -0.34274E+00   -0.34166E+00 10640   0.177E+01 0.412E-01
CGA:  32    -0.130625380527E+04   -0.13308E+00   -0.13133E+00 10640   0.898E+00-0.134E+00
CGA:  33    -0.130637817416E+04   -0.12437E+00   -0.13207E+00 10640   0.154E+01-0.143E+00
CGA:  34    -0.130653540799E+04   -0.15723E+00   -0.17010E+00 10640   0.102E+01-0.421E+00
CGA:  35    -0.130659548263E+04   -0.60075E-01   -0.56160E-01 10640   0.304E+00-0.196E+00
CGA:  36    -0.130659646196E+04   -0.97932E-03   -0.85850E-01 10640   0.327E+01-0.342E+00
CGA:  37    -0.130671689315E+04   -0.12043E+00   -0.12090E+00 10640   0.115E+00-0.316E-01
CGA:  38    -0.130673997737E+04   -0.23084E-01   -0.31292E-01 10640   0.503E+00-0.490E-01
CGA:  39    -0.130677545089E+04   -0.35474E-01   -0.36821E-01 10640   0.558E+00-0.121E+00
CGA:  40    -0.130680215730E+04   -0.26706E-01   -0.23215E-01 10640   0.214E+00-0.637E-01
CGA:  41    -0.130681701948E+04   -0.14862E-01   -0.13665E-01 10640   0.167E+00-0.304E-01
CGA:  42    -0.130683361679E+04   -0.16597E-01   -0.16814E-01 10640   0.161E+00-0.408E-01
CGA:  43    -0.130684171351E+04   -0.80967E-02   -0.67630E-02 10640   0.706E-01-0.249E-01
CGA:  44    -0.130684864327E+04   -0.69298E-02   -0.80655E-02 10640   0.178E+00-0.441E-01
CGA:  45    -0.130686128593E+04   -0.12643E-01   -0.12330E-01 10640   0.453E-01-0.778E-02
CGA:  46    -0.130686707830E+04   -0.57924E-02   -0.66609E-02 10640   0.779E-01-0.190E-01
CGA:  47    -0.130687228570E+04   -0.52074E-02   -0.68833E-02 10640   0.607E-01-0.401E-01
CGA:  48    -0.130687876956E+04   -0.64839E-02   -0.64928E-02 10640   0.388E-01 0.156E-02
CGA:  49    -0.130688192114E+04   -0.31516E-02   -0.31173E-02 10640   0.520E-02-0.978E-03
CGA:  50    -0.130686436503E+04    0.17556E-01   -0.95841E-02 10640   0.487E+00-0.354E-01
CGA:  51    -0.130688689473E+04   -0.22530E-01   -0.22317E-01 10640   0.300E-01-0.987E-03
CGA:  52    -0.130688928123E+04   -0.23865E-02   -0.20856E-02 10640   0.530E-02-0.245E-02
CGA:  53    -0.130684951508E+04    0.39766E-01   -0.21789E-01 10640   0.686E+00-0.439E-01
CGA:  54    -0.130688605909E+04   -0.36544E-01   -0.36227E-01 10640   0.862E-01 0.158E-01
CGA:  55    -0.130689449517E+04   -0.84361E-02   -0.89279E-02 10640   0.441E-01 0.233E-02
CGA:  56    -0.130689768656E+04   -0.31914E-02   -0.33616E-02 10640   0.117E-02 0.760E-03
CGA:  57    -0.130689808160E+04   -0.39504E-03   -0.23054E-03 10640   0.436E-02-0.148E-02
CGA:  58    -0.130689845692E+04   -0.37532E-03   -0.27569E-03 10640   0.385E-03-0.412E-03
CGA:  59    -0.130689909603E+04   -0.63910E-03    0.22834E-04 10640   0.264E-02-0.407E-03
CGA:  60    -0.130689931141E+04   -0.21538E-03   -0.14942E-03 10640   0.271E-03-0.282E-03
CGA:  61    -0.130689980060E+04   -0.48919E-03    0.12486E-04 10640   0.208E-02-0.280E-03
CGA:  62    -0.130689997380E+04   -0.17321E-03   -0.10702E-03 10640   0.276E-03-0.295E-03
CGA:  63    -0.130690042681E+04   -0.45301E-03    0.11954E-04 10640   0.196E-02-0.322E-03
CGA:  64    -0.130690059396E+04   -0.16715E-03   -0.10392E-03 10640   0.299E-03-0.299E-03
CGA:  65    -0.130690095301E+04   -0.35905E-03    0.18076E-04 10640   0.233E-02-0.462E-03
CGA:  66    -0.130690112973E+04   -0.17672E-03   -0.12074E-03 10640   0.297E-03-0.277E-03
CGA:  67    -0.130690141273E+04   -0.28300E-03    0.26312E-04 10640   0.249E-02-0.559E-03
CGA:  68    -0.130690159323E+04   -0.18050E-03   -0.12881E-03 10640   0.299E-03-0.269E-03
CGA:  69    -0.130690182202E+04   -0.22879E-03    0.37821E-04 10640   0.250E-02-0.609E-03
CGA:  70    -0.130690199582E+04   -0.17381E-03   -0.12818E-03 10640   0.282E-03-0.248E-03
CGA:  71    -0.130690219196E+04   -0.19613E-03    0.40172E-04 10640   0.221E-02-0.576E-03
CGA:  72    -0.130690235009E+04   -0.15813E-03   -0.11505E-03 10640   0.264E-03-0.248E-03
CGA:  73    -0.130690252863E+04   -0.17853E-03    0.33245E-04 10640   0.192E-02-0.521E-03
CGA:  74    -0.130690266614E+04   -0.13752E-03   -0.99541E-04 10640   0.226E-03-0.229E-03
CGA:  75    -0.130690283265E+04   -0.16651E-03    0.20489E-04 10640   0.146E-02-0.411E-03
CGA:  76    -0.130690294723E+04   -0.11458E-03   -0.78184E-04 10640   0.204E-03-0.234E-03
CGA:  77    -0.130690310811E+04   -0.16088E-03    0.12758E-04 10640   0.116E-02-0.332E-03
CGA:  78    -0.130690320323E+04   -0.95124E-04   -0.62744E-04 10640   0.172E-03-0.220E-03
CGA:  79    -0.130690335531E+04   -0.15208E-03    0.74589E-05 10640   0.828E-03-0.241E-03
CGA:  80    -0.130690343463E+04   -0.79316E-04   -0.47834E-04 10640   0.176E-03-0.232E-03
CGA:  81    -0.130690358635E+04   -0.15172E-03    0.53757E-05 10640   0.636E-03-0.191E-03
CGA:  82    -0.130690365424E+04   -0.67896E-04   -0.39031E-04 10640   0.183E-03-0.230E-03
CGA:  83    -0.130690380226E+04   -0.14802E-03    0.41695E-05 10640   0.470E-03-0.150E-03
CGA:  84    -0.130690386492E+04   -0.62659E-04   -0.34110E-04 10640   0.263E-03-0.265E-03
CGA:  85    -0.130690391448E+04   -0.49564E-04   -0.23481E-04 10640   0.442E-03-0.305E-03
CGA:  86    -0.130690396556E+04   -0.51071E-04   -0.26600E-04 10640   0.150E-03-0.221E-03
CGA:  87    -0.130690401602E+04   -0.50465E-04    0.61898E-03 10640   0.145E-02-0.421E-03
CGA:  88    -0.130690409841E+04   -0.82386E-04   -0.62695E-04 10640   0.365E-04-0.161E-03
CGA:  89    -0.130690419021E+04   -0.91804E-04    0.32747E-06 10640   0.125E-03-0.242E-04
CGA:  90    -0.130690424422E+04   -0.54006E-04    0.27929E-04 10640   0.110E-02-0.334E-03
CGA:  91    -0.130690430699E+04   -0.62771E-04   -0.47818E-04 10640   0.307E-04-0.128E-03
CGA:  92    -0.130690438900E+04   -0.82010E-04    0.23487E-06 10640   0.930E-04-0.178E-04
CGA:  93    -0.130690444043E+04   -0.51428E-04    0.88397E-05 10640   0.730E-03-0.231E-03
CGA:  94    -0.130690449150E+04   -0.51075E-04   -0.34619E-04 10640   0.486E-04-0.155E-03
CGA:  95    -0.130690456358E+04   -0.72082E-04    0.52717E-06 10640   0.123E-03-0.359E-04
CGA:  96    -0.130690460282E+04   -0.39235E-04    0.11729E-03 10640   0.919E-03-0.312E-03
CGA:  97    -0.130690465490E+04   -0.52086E-04   -0.40205E-04 10640   0.251E-04-0.113E-03
CGA:  98    -0.130690471765E+04   -0.62743E-04    0.17482E-06 10640   0.696E-04-0.163E-04
CGA:  99    -0.130690476089E+04   -0.43243E-04    0.42176E-05 10640   0.455E-03-0.158E-03
CGA: 100    -0.130690479844E+04   -0.37551E-04   -0.23792E-04 10640   0.641E-04-0.152E-03
CGA: 101    -0.130690485932E+04   -0.60885E-04    0.71204E-06 10640   0.836E-04-0.315E-04
CGA: 102    -0.130690499621E+04   -0.13689E-03    0.27548E-06 10640   0.779E-05 0.123E-04
CGA: 103    -0.130690505556E+04   -0.59355E-04    0.26800E-07 10640   0.125E-04 0.405E-05
CGA: 104    -0.130690509964E+04   -0.44079E-04    0.72900E-07 10640   0.523E-04-0.131E-04
CGA: 105    -0.130690513144E+04   -0.31800E-04    0.30185E-05 10640   0.321E-03-0.117E-03
CGA: 106    -0.130690515930E+04   -0.27857E-04   -0.17406E-04 10640   0.569E-04-0.124E-03
CGA: 107    -0.130690520584E+04   -0.46539E-04    0.58864E-06 10640   0.525E-04-0.231E-04
CGA: 108    -0.130690528916E+04   -0.83324E-04    0.23223E-06 10640   0.206E-04-0.463E-05
CGA: 109    -0.130690535513E+04   -0.65969E-04    0.10351E-06 10640   0.373E-04-0.101E-04
CGA: 110    -0.130690551026E+04   -0.15513E-03    0.42997E-07 10640   0.153E-04 0.153E-04
CGA: 111    -0.130690559807E+04   -0.87809E-04    0.10182E-06 10640   0.980E-04-0.309E-04
CGA: 112    -0.130690561095E+04   -0.12878E-04   -0.75303E-05 10640   0.962E-04-0.933E-04
CGA: 113    -0.130690562488E+04   -0.13926E-04   -0.88942E-05 10640   0.185E-03-0.130E-03
CGA: 114    -0.130690563912E+04   -0.14243E-04   -0.95611E-05 10640   0.225E-04-0.600E-04
CGA: 115    -0.130690566322E+04   -0.24102E-04    0.17948E-06 10640   0.256E-04-0.124E-04
CGA: 116    -0.130690567908E+04   -0.15853E-04    0.10872E-05 10640   0.122E-03-0.522E-04
CGA: 117    -0.130690569265E+04   -0.13579E-04   -0.83570E-05 10640   0.731E-04-0.915E-04
CGA: 118    -0.130690570248E+04   -0.98243E-05   -0.75732E-05 10640   0.204E-03-0.119E-03
CGA: 119    -0.130690571810E+04   -0.15619E-04   -0.10693E-04 10640   0.273E-04-0.710E-04
CGA: 120    -0.130690573763E+04   -0.19530E-04    0.28693E-06 10640   0.229E-04-0.133E-04
CGA: 121    -0.130690577214E+04   -0.34509E-04    0.60462E-07 10640   0.308E-05-0.296E-06
CGA: 122    -0.130690579221E+04   -0.20071E-04    0.66493E-08 10640   0.523E-05-0.837E-06
CGA: 123    -0.130690584198E+04   -0.49777E-04    0.41383E-08 10640   0.353E-05 0.344E-05
CGA: 124    -0.130690585557E+04   -0.13592E-04    0.13631E-07 10640   0.120E-04-0.452E-05
CGA: 125    -0.130690586693E+04   -0.11359E-04    0.23506E-06 10640   0.480E-04-0.221E-04
CGA: 126    -0.130690586066E+04    0.62743E-05   -0.95516E-05 10640   0.815E-03-0.195E-03
CGA: 127    -0.130690589478E+04   -0.34118E-04   -0.32297E-04 10640   0.130E-05-0.208E-04
CGA: 128    -0.130690590691E+04   -0.12131E-04    0.18822E-08 10640   0.269E-05-0.292E-06
CGA: 129    -0.130690594360E+04   -0.36690E-04    0.16706E-08 10640   0.308E-05 0.189E-05
CGA: 130    -0.130690595363E+04   -0.10034E-04    0.14220E-07 10640   0.112E-04-0.459E-05
CGA: 131    -0.130690596305E+04   -0.94208E-05    0.25515E-06 10640   0.454E-04-0.213E-04
   1 F= -.13069060E+04 E0= -.13068866E+04  d E =-.130691E+04  mag=    47.0000
       N       E                     dE             d eps       ncg     rms          ort
SDA:   1    -0.130690604255E+04   -0.88923E-04    0.00000E+00 10640   0.653E-01 0.000E+00
CGA:   2    -0.130690857049E+04   -0.25279E-02   -0.25301E-02 10640   0.196E-02 0.221E-03
CGA:   3    -0.130690915454E+04   -0.58405E-03   -0.55583E-03 10640   0.819E-03 0.166E-03
CGA:   4    -0.130690928526E+04   -0.13072E-03   -0.13535E-03 10640   0.101E-02-0.147E-03
CGA:   5    -0.130690936538E+04   -0.80122E-04   -0.73864E-04 10640   0.278E-03-0.187E-03
CGA:   6    -0.130690939165E+04   -0.26272E-04   -0.24189E-04 10640   0.230E-03-0.147E-03
CGA:   7    -0.130690940603E+04   -0.14378E-04   -0.14344E-04 10640   0.464E-04-0.256E-06
CGA:   8    -0.130690941705E+04   -0.11019E-04    0.21107E-03 10640   0.323E-04 0.558E-05
CGA:   9    -0.130690942767E+04   -0.10621E-04    0.84561E-05 10640   0.199E-04-0.102E-04
CGA:  10    -0.130690943554E+04   -0.78704E-05    0.54323E-06 10640   0.103E-04-0.519E-05
   2 F= -.13069094E+04 E0= -.13068901E+04  d E =-.347249E-02  mag=    47.0000
       N       E                     dE             d eps       ncg     rms          ort
SDA:   1    -0.130668486012E+04    0.22457E+00    0.00000E+00 10640   0.751E+00 0.000E+00
CGA:   2    -0.130682737854E+04   -0.14252E+00   -0.14220E+00 10640   0.104E+01 0.473E-02
CGA:   3    -0.130690829369E+04   -0.80915E-01   -0.80984E-01 10640   0.241E+00 0.982E-03
CGA:   4    -0.130694038970E+04   -0.32096E-01   -0.32116E-01 10640   0.149E+00-0.124E-02
CGA:   5    -0.130695217263E+04   -0.11783E-01   -0.11725E-01 10640   0.283E-01-0.140E-02
CGA:   6    -0.130695499525E+04   -0.28226E-02   -0.28105E-02 10640   0.168E-01-0.687E-03
CGA:   7    -0.130695690784E+04   -0.19126E-02   -0.19125E-02 10640   0.461E-02-0.319E-03
CGA:   8    -0.130695737880E+04   -0.47096E-03   -0.47137E-03 10640   0.231E-02 0.370E-04
CGA:   9    -0.130695765215E+04   -0.27335E-03   -0.27284E-03 10640   0.863E-03 0.408E-03
CGA:  10    -0.130695771413E+04   -0.61979E-04   -0.73234E-04 10640   0.352E-03 0.257E-03
CGA:  11    -0.130695775523E+04   -0.41098E-04   -0.44958E-04 10640   0.173E-03 0.253E-03
CGA:  12    -0.130695777030E+04   -0.15075E-04   -0.16389E-04 10640   0.124E-03 0.716E-04
CGA:  13    -0.130695778317E+04   -0.12870E-04   -0.15549E-04 10640   0.782E-04 0.116E-03
CGA:  14    -0.130695778732E+04   -0.41506E-05   -0.58820E-05 10640   0.517E-04 0.485E-04
   3 F= -.13069578E+04 E0= -.13069385E+04  d E =-.483518E-01  mag=    47.0000
       N       E                     dE             d eps       ncg     rms          ort
SDA:   1    -0.130456570865E+04    0.23921E+01    0.00000E+00 10640   0.693E+01 0.000E+00
CGA:   2    -0.130580904583E+04   -0.12433E+01   -0.12450E+01 10640   0.926E+01-0.184E-01
CGA:   3    -0.130657852065E+04   -0.76947E+00   -0.77036E+00 10640   0.227E+01 0.134E-01
CGA:   4    -0.130686037859E+04   -0.28186E+00   -0.28183E+00 10640   0.141E+01 0.102E-02
CGA:   5    -0.130698224547E+04   -0.12187E+00   -0.12174E+00 10640   0.260E+00-0.415E-02
CGA:   6    -0.130700680300E+04   -0.24558E-01   -0.24535E-01 10640   0.160E+00-0.120E-02
CGA:   7    -0.130702578291E+04   -0.18980E-01   -0.18988E-01 10640   0.494E-01-0.648E-03
CGA:   8    -0.130703065617E+04   -0.48733E-02   -0.48733E-02 10640   0.225E-01 0.189E-04
CGA:   9    -0.130703416746E+04   -0.35113E-02   -0.34507E-02 10640   0.960E-02 0.135E-02
CGA:  10    -0.130703499014E+04   -0.82268E-03   -0.84362E-03 10640   0.522E-02 0.761E-03
CGA:  11    -0.130703581307E+04   -0.82293E-03   -0.79185E-03 10640   0.234E-02 0.999E-03
CGA:  12    -0.130703610746E+04   -0.29440E-03   -0.29644E-03 10640   0.117E-02 0.463E-03
CGA:  13    -0.130703632117E+04   -0.21370E-03   -0.20327E-03 10640   0.106E-02 0.302E-03
CGA:  14    -0.130703644797E+04   -0.12681E-03   -0.13023E-03 10640   0.396E-03 0.235E-03
CGA:  15    -0.130703650400E+04   -0.56029E-04   -0.55441E-04 10640   0.195E-03 0.201E-03
CGA:  16    -0.130703651868E+04   -0.14681E-04   -0.16722E-04 10640   0.128E-03 0.781E-04
CGA:  17    -0.130703653101E+04   -0.12325E-04   -0.15443E-04 10640   0.871E-04 0.128E-03
CGA:  18    -0.130703653364E+04   -0.26271E-05   -0.54522E-05 10640   0.593E-04 0.604E-04
   4 F= -.13070365E+04 E0= -.13070175E+04  d E =-.787463E-01  mag=    47.0000
       N       E                     dE             d eps       ncg     rms          ort
SDA:   1    -0.130650997787E+04    0.52655E+00    0.00000E+00 10640   0.177E+01 0.000E+00
CGA:   2    -0.130681784998E+04   -0.30787E+00   -0.30773E+00 10640   0.129E+01 0.260E-02
CGA:   3    -0.130693169710E+04   -0.11385E+00   -0.11389E+00 10640   0.651E+00 0.166E-02
CGA:   4    -0.130702004818E+04   -0.88351E-01   -0.88242E-01 10640   0.303E+00 0.403E-02
CGA:   5    -0.130704279100E+04   -0.22743E-01   -0.22738E-01 10640   0.568E-01 0.177E-03
CGA:   6    -0.130704914302E+04   -0.63520E-02   -0.63506E-02 10640   0.358E-01 0.343E-03
CGA:   7    -0.130705229833E+04   -0.31553E-02   -0.31600E-02 10640   0.873E-02 0.272E-03
CGA:   8    -0.130705345362E+04   -0.11553E-02   -0.11567E-02 10640   0.621E-02-0.523E-04
CGA:   9    -0.130705413526E+04   -0.68164E-03   -0.68086E-03 10640   0.152E-02 0.266E-03
CGA:  10    -0.130705432886E+04   -0.19360E-03   -0.19040E-03 10640   0.122E-02 0.256E-03
CGA:  11    -0.130705446904E+04   -0.14018E-03   -0.14255E-03 10640   0.367E-03 0.280E-03
CGA:  12    -0.130705450620E+04   -0.37157E-04   -0.40628E-04 10640   0.191E-03 0.196E-03
CGA:  13    -0.130705452563E+04   -0.19431E-04   -0.19749E-04 10640   0.165E-03 0.884E-04
CGA:  14    -0.130705454400E+04   -0.18368E-04   -0.21409E-04 10640   0.932E-04 0.168E-03
CGA:  15    -0.130705454888E+04   -0.48817E-05   -0.69840E-05 10640   0.726E-04 0.682E-04
   5 F= -.13070545E+04 E0= -.13070357E+04  d E =-.180152E-01  mag=    47.0000
       N       E                     dE             d eps       ncg     rms          ort
SDA:   1    -0.130575096671E+04    0.13036E+01    0.00000E+00 10640   0.353E+01 0.000E+00
CGA:   2    -0.130660171750E+04   -0.85075E+00   -0.85111E+00 10640   0.253E+01-0.188E-02
CGA:   3    -0.130686699317E+04   -0.26528E+00   -0.26526E+00 10640   0.130E+01 0.242E-02
CGA:   4    -0.130701038251E+04   -0.14339E+00   -0.14339E+00 10640   0.451E+00-0.903E-03
CGA:   5    -0.130704302369E+04   -0.32641E-01   -0.32566E-01 10640   0.102E+00-0.164E-02
CGA:   6    -0.130705713228E+04   -0.14109E-01   -0.14041E-01 10640   0.583E-01 0.227E-02
CGA:   7    -0.130706183055E+04   -0.46983E-02   -0.46969E-02 10640   0.184E-01-0.136E-05
CGA:   8    -0.130706420499E+04   -0.23744E-02   -0.23945E-02 10640   0.130E-01-0.887E-03
CGA:   9    -0.130706547040E+04   -0.12654E-02   -0.12658E-02 10640   0.306E-02 0.705E-04
CGA:  10    -0.130706603087E+04   -0.56047E-03   -0.60105E-03 10640   0.426E-02-0.465E-03
CGA:  11    -0.130706637837E+04   -0.34750E-03   -0.33957E-03 10640   0.134E-02-0.423E-03
CGA:  12    -0.130706652112E+04   -0.14275E-03   -0.14381E-03 10640   0.133E-02-0.140E-03
CGA:  13    -0.130706675006E+04   -0.22895E-03   -0.28502E-03 10640   0.133E-02-0.443E-03
CGA:  14    -0.130706682209E+04   -0.72026E-04   -0.65745E-04 10640   0.488E-03-0.144E-03
CGA:  15    -0.130706683762E+04   -0.15533E-04   -0.16189E-03 10640   0.336E-02-0.576E-03
CGA:  16    -0.130706703699E+04   -0.19937E-03   -0.19802E-03 10640   0.251E-03-0.148E-04
CGA:  17    -0.130706707456E+04   -0.37573E-04   -0.38847E-04 10640   0.366E-03-0.421E-04
CGA:  18    -0.130706711138E+04   -0.36813E-04   -0.85237E-04 10640   0.107E-02-0.319E-03
CGA:  19    -0.130706716481E+04   -0.53436E-04   -0.56214E-04 10640   0.196E-03 0.346E-04
CGA:  20    -0.130706719529E+04   -0.30481E-04   -0.30400E-04 10640   0.119E-03 0.418E-05
CGA:  21    -0.130706721215E+04   -0.16856E-04   -0.23331E-04 10640   0.242E-03-0.108E-03
CGA:  22    -0.130706722660E+04   -0.14452E-04   -0.14400E-04 10640   0.482E-04-0.401E-06
CGA:  23    -0.130706710520E+04    0.12140E-03   -0.65418E-04 10640   0.296E-02-0.232E-03
CGA:  24    -0.130706725024E+04   -0.14505E-03   -0.14007E-03 10640   0.300E-03-0.239E-04
CGA:  25    -0.130706728604E+04   -0.35794E-04   -0.35478E-04 10640   0.126E-03-0.257E-05
CGA:  26    -0.130706729469E+04   -0.86482E-05   -0.10889E-04 10640   0.177E-04 0.165E-04
CGA:  27    -0.130706728502E+04    0.96630E-05   -0.10743E-04 10640   0.483E-03-0.638E-04
CGA:  28    -0.130706731937E+04   -0.34349E-04   -0.30717E-04 10640   0.587E-04-0.208E-04
CGA:  29    -0.130706732484E+04   -0.54668E-05   -0.40971E-05 10640   0.179E-04-0.898E-05
   6 F= -.13070673E+04 E0= -.13070488E+04  d E =-.127760E-01  mag=    47.0000
       N       E                     dE             d eps       ncg     rms          ort
SDA:   1    -0.130533655364E+04    0.17308E+01    0.00000E+00 10640   0.497E+01 0.000E+00
CGA:   2    -0.130632882660E+04   -0.99227E+00   -0.99225E+00 10640   0.497E+01-0.437E-03
CGA:   3    -0.130670537322E+04   -0.37655E+00   -0.37508E+00 10640   0.197E+01 0.179E-01
CGA:   4    -0.130697689985E+04   -0.27153E+00   -0.27160E+00 10640   0.769E+00-0.195E-03
CGA:   5    -0.130703755282E+04   -0.60653E-01   -0.60435E-01 10640   0.141E+00 0.193E-02
CGA:   6    -0.130705741379E+04   -0.19861E-01   -0.19906E-01 10640   0.911E-01 0.767E-03
CGA:   7    -0.130706471582E+04   -0.73020E-02   -0.73594E-02 10640   0.255E-01 0.477E-03
CGA:   8    -0.130706805937E+04   -0.33436E-02   -0.33343E-02 10640   0.180E-01-0.139E-03
CGA:   9    -0.130706994558E+04   -0.18862E-02   -0.18407E-02 10640   0.501E-02-0.536E-03
CGA:  10    -0.130707063704E+04   -0.69146E-03   -0.67867E-03 10640   0.508E-02-0.290E-03
CGA:  11    -0.130707123752E+04   -0.60048E-03   -0.56441E-03 10640   0.219E-02-0.573E-03
CGA:  12    -0.130707148561E+04   -0.24809E-03   -0.22207E-03 10640   0.184E-02-0.412E-03
CGA:  13    -0.130707179161E+04   -0.30600E-03   -0.31997E-03 10640   0.167E-02-0.360E-03
CGA:  14    -0.130707194248E+04   -0.15087E-03   -0.12603E-03 10640   0.801E-03-0.304E-03
CGA:  15    -0.130707204776E+04   -0.10528E-03   -0.21376E-03 10640   0.403E-02-0.710E-03
CGA:  16    -0.130707221497E+04   -0.16721E-03   -0.18119E-03 10640   0.328E-03 0.105E-03
CGA:  17    -0.130707226328E+04   -0.48312E-04   -0.48930E-04 10640   0.396E-03 0.224E-04
CGA:  18    -0.130707225723E+04    0.60461E-05   -0.19763E-03 10640   0.271E-02-0.692E-03
CGA:  19    -0.130707238195E+04   -0.12472E-03   -0.14971E-03 10640   0.477E-03 0.195E-03
CGA:  20    -0.130707247471E+04   -0.92765E-04   -0.92726E-04 10640   0.379E-03 0.371E-04
CGA:  21    -0.130707252771E+04   -0.53001E-04   -0.42535E-04 10640   0.153E-03-0.137E-03
CGA:  22    -0.130707253727E+04   -0.95548E-05   -0.10216E-04 10640   0.733E-04 0.912E-05
CGA:  23    -0.130707255250E+04   -0.15228E-04   -0.15981E-04 10640   0.189E-03-0.232E-04
CGA:  24    -0.130707260394E+04   -0.51446E-04    0.80974E-04 10640   0.212E-03-0.941E-04
CGA:  25    -0.130707265430E+04   -0.50357E-04    0.26606E-04 10640   0.563E-03-0.230E-03
CGA:  26    -0.130707268712E+04   -0.32818E-04   -0.38369E-04 10640   0.147E-03 0.528E-04
CGA:  27    -0.130707272234E+04   -0.35221E-04   -0.37937E-04 10640   0.216E-03-0.407E-04
CGA:  28    -0.130707273941E+04   -0.17076E-04   -0.10816E-04 10640   0.521E-04-0.604E-04
CGA:  29    -0.130707273463E+04    0.47837E-05   -0.16300E-04 10640   0.481E-03-0.793E-04
CGA:  30    -0.130707275412E+04   -0.19492E-04   -0.25033E-04 10640   0.358E-04 0.437E-04
CGA:  31    -0.130707275984E+04   -0.57161E-05   -0.51923E-05 10640   0.455E-04-0.126E-04
   7 F= -.13070728E+04 E0= -.13070546E+04  d E =-.543500E-02  mag=    47.0000
       N       E                     dE             d eps       ncg     rms          ort
SDA:   1    -0.130647203945E+04    0.60071E+00    0.00000E+00 10640   0.177E+01 0.000E+00
CGA:   2    -0.130684815379E+04   -0.37611E+00   -0.37610E+00 10640   0.113E+01 0.659E-03
CGA:   3    -0.130697340230E+04   -0.12525E+00   -0.12493E+00 10640   0.761E+00-0.427E-03
CGA:   4    -0.130705546447E+04   -0.82062E-01   -0.81993E-01 10640   0.200E+00-0.730E-03
CGA:   5    -0.130707127132E+04   -0.15807E-01   -0.15870E-01 10640   0.491E-01 0.115E-02
CGA:   6    -0.130707787139E+04   -0.66001E-02   -0.65900E-02 10640   0.277E-01-0.325E-03
CGA:   7    -0.130708002581E+04   -0.21544E-02   -0.21450E-02 10640   0.920E-02-0.644E-04
CGA:   8    -0.130708121257E+04   -0.11868E-02   -0.11824E-02 10640   0.548E-02-0.147E-03
CGA:   9    -0.130708187095E+04   -0.65838E-03   -0.63128E-03 10640   0.212E-02-0.687E-03
CGA:  10    -0.130708214585E+04   -0.27490E-03   -0.27092E-03 10640   0.213E-02-0.476E-03
CGA:  11    -0.130708239821E+04   -0.25236E-03   -0.24916E-03 10640   0.168E-02-0.944E-03
CGA:  12    -0.130708252998E+04   -0.13178E-03   -0.10256E-03 10640   0.115E-02-0.664E-03
CGA:  13    -0.130707935792E+04    0.31721E-02   -0.17149E-02 10640   0.612E-01-0.463E-02
CGA:  14    -0.130708233707E+04   -0.29791E-02   -0.29373E-02 10640   0.462E-02-0.275E-03
CGA:  15    -0.130708282717E+04   -0.49010E-03   -0.48759E-03 10640   0.332E-02-0.762E-05
CGA:  16    -0.130708326980E+04   -0.44263E-03   -0.44955E-03 10640   0.129E-02 0.599E-04
CGA:  17    -0.130708340756E+04   -0.13775E-03   -0.13002E-03 10640   0.568E-03-0.488E-04
CGA:  18    -0.130708350160E+04   -0.94040E-04   -0.98477E-04 10640   0.579E-03 0.707E-04
CGA:  19    -0.130708356088E+04   -0.59284E-04   -0.63658E-04 10640   0.184E-03 0.314E-04
CGA:  20    -0.130708359235E+04   -0.31468E-04   -0.30465E-04 10640   0.218E-03-0.131E-04
CGA:  21    -0.130708360965E+04   -0.17303E-04   -0.21186E-04 10640   0.413E-04 0.312E-04
CGA:  22    -0.130708361189E+04   -0.22353E-05   -0.39057E-05 10640   0.223E-04 0.119E-04
   8 F= -.13070836E+04 E0= -.13070656E+04  d E =-.108520E-01  mag=    47.0000
       N       E                     dE             d eps       ncg     rms          ort
SDA:   1    -0.130686722384E+04    0.21639E+00    0.00000E+00 10640   0.647E+00 0.000E+00
CGA:   2    -0.130699269470E+04   -0.12547E+00   -0.12548E+00 10640   0.583E+00 0.518E-03
CGA:   3    -0.130704197336E+04   -0.49279E-01   -0.49157E-01 10640   0.255E+00-0.410E-03
CGA:   4    -0.130707599924E+04   -0.34026E-01   -0.33928E-01 10640   0.101E+00-0.127E-02
CGA:   5    -0.130708435290E+04   -0.83537E-02   -0.83551E-02 10640   0.162E-01 0.163E-03
CGA:   6    -0.130708689642E+04   -0.25435E-02   -0.25397E-02 10640   0.105E-01-0.817E-04
CGA:   7    -0.130708765055E+04   -0.75413E-03   -0.74404E-03 10640   0.300E-02-0.674E-04
CGA:   8    -0.130708807014E+04   -0.41959E-03   -0.41997E-03 10640   0.184E-02 0.908E-05
CGA:   9    -0.130708825758E+04   -0.18743E-03   -0.18404E-03 10640   0.660E-03-0.360E-04
CGA:  10    -0.130708835138E+04   -0.93805E-04   -0.88352E-04 10640   0.708E-03-0.114E-03
CGA:  11    -0.130708842843E+04   -0.77047E-04   -0.70795E-04 10640   0.241E-03-0.102E-03
CGA:  12    -0.130708846296E+04   -0.34538E-04   -0.32687E-04 10640   0.353E-03-0.903E-04
CGA:  13    -0.130708807434E+04    0.38862E-03   -0.15935E-03 10640   0.510E-02-0.101E-02
CGA:  14    -0.130708835463E+04   -0.28029E-03   -0.29296E-03 10640   0.115E-02 0.947E-04
CGA:  15    -0.130708856281E+04   -0.20819E-03   -0.20840E-03 10640   0.101E-02 0.113E-04
CGA:  16    -0.130708864461E+04   -0.81795E-04   -0.77366E-04 10640   0.197E-03-0.353E-04
CGA:  17    -0.130708866933E+04   -0.24718E-04   -0.25920E-04 10640   0.164E-03 0.223E-04
CGA:  18    -0.130708870403E+04   -0.34705E-04   -0.34722E-04 10640   0.141E-03-0.912E-05
CGA:  19    -0.130708871536E+04   -0.11329E-04   -0.10403E-04 10640   0.484E-04-0.831E-05
CGA:  20    -0.130708872417E+04   -0.88054E-05   -0.88661E-05 10640   0.543E-04-0.509E-05
   9 F= -.13070887E+04 E0= -.13070708E+04  d E =-.511228E-02  mag=    47.0000
       N       E                     dE             d eps       ncg     rms          ort
SDA:   1    -0.130660882481E+04    0.47989E+00    0.00000E+00 10640   0.138E+01 0.000E+00
CGA:   2    -0.130687563479E+04   -0.26681E+00   -0.26680E+00 10640   0.140E+01 0.836E-03
CGA:   3    -0.130699673816E+04   -0.12110E+00   -0.12091E+00 10640   0.551E+00 0.208E-02
CGA:   4    -0.130705910530E+04   -0.62367E-01   -0.62298E-01 10640   0.281E+00-0.121E-03
CGA:   5    -0.130708305934E+04   -0.23954E-01   -0.23917E-01 10640   0.398E-01-0.217E-03
CGA:   6    -0.130708767038E+04   -0.46110E-02   -0.46061E-02 10640   0.288E-01-0.505E-04
CGA:   7    -0.130709050170E+04   -0.28313E-02   -0.28180E-02 10640   0.704E-02-0.170E-03
CGA:   8    -0.130709129060E+04   -0.78890E-03   -0.78533E-03 10640   0.435E-02-0.636E-04
CGA:   9    -0.130709186241E+04   -0.57182E-03   -0.56466E-03 10640   0.182E-02-0.228E-03
CGA:  10    -0.130709205083E+04   -0.18842E-03   -0.17911E-03 10640   0.113E-02-0.164E-03
CGA:  11    -0.130709222962E+04   -0.17878E-03   -0.18797E-03 10640   0.149E-02-0.360E-03
CGA:  12    -0.130709233553E+04   -0.10592E-03   -0.84891E-04 10640   0.429E-03-0.281E-03
CGA:  13    -0.130709149425E+04    0.84128E-03   -0.45557E-03 10640   0.186E-01-0.142E-02
CGA:  14    -0.130709250018E+04   -0.10059E-02   -0.98271E-03 10640   0.133E-02-0.942E-04
CGA:  15    -0.130709264810E+04   -0.14792E-03   -0.14488E-03 10640   0.105E-02-0.175E-04
CGA:  16    -0.130709278382E+04   -0.13573E-03   -0.13680E-03 10640   0.238E-03 0.881E-05
CGA:  17    -0.130709282259E+04   -0.38767E-04   -0.32499E-04 10640   0.304E-03-0.513E-04
CGA:  18    -0.130709287555E+04   -0.52958E-04   -0.50217E-04 10640   0.325E-03-0.687E-04
CGA:  19    -0.130709289663E+04   -0.21080E-04   -0.16544E-04 10640   0.797E-04-0.247E-04
CGA:  20    -0.130709287042E+04    0.26211E-04   -0.42497E-04 10640   0.171E-02-0.204E-03
CGA:  21    -0.130709295445E+04   -0.84034E-04   -0.91556E-04 10640   0.999E-04 0.401E-04
CGA:  22    -0.130709296524E+04   -0.10786E-04   -0.87944E-05 10640   0.548E-04-0.123E-04
CGA:  23    -0.130709299015E+04   -0.24917E-04    0.65483E-04 10640   0.935E-04-0.237E-04
CGA:  24    -0.130709300156E+04   -0.11412E-04   -0.56243E-05 10640   0.596E-04-0.438E-04
CGA:  25    -0.130709301868E+04   -0.17116E-04    0.22042E-04 10640   0.801E-04-0.141E-04
CGA:  26    -0.130709298855E+04    0.30134E-04   -0.26191E-04 10640   0.142E-02-0.287E-03
CGA:  27    -0.130709305418E+04   -0.65634E-04   -0.75445E-04 10640   0.125E-03 0.547E-04
CGA:  28    -0.130709307812E+04   -0.23941E-04   -0.21589E-04 10640   0.150E-03-0.356E-04
CGA:  29    -0.130709309652E+04   -0.18399E-04   -0.12339E-04 10640   0.622E-04-0.532E-04
CGA:  30    -0.130709309911E+04   -0.25889E-05   -0.35502E-05 10640   0.429E-04 0.718E-05
  10 F= -.13070931E+04 E0= -.13070753E+04  d E =-.437494E-02  mag=    47.0000
       N       E                     dE             d eps       ncg     rms          ort
SDA:   1    -0.130637693232E+04    0.71616E+00    0.00000E+00 10640   0.216E+01 0.000E+00
CGA:   2    -0.130679678492E+04   -0.41985E+00   -0.41987E+00 10640   0.158E+01 0.103E-02
CGA:   3    -0.130694926462E+04   -0.15248E+00   -0.15218E+00 10640   0.843E+00 0.201E-02
CGA:   4    -0.130705819047E+04   -0.10893E+00   -0.10896E+00 10640   0.300E+00 0.125E-02
CGA:   5    -0.130708128515E+04   -0.23095E-01   -0.23090E-01 10640   0.604E-01 0.748E-03
CGA:   6    -0.130708934869E+04   -0.80635E-02   -0.80397E-02 10640   0.338E-01-0.384E-03
CGA:   7    -0.130709249310E+04   -0.31444E-02   -0.31595E-02 10640   0.860E-02 0.191E-03
CGA:   8    -0.130709378651E+04   -0.12934E-02   -0.12887E-02 10640   0.711E-02-0.123E-03
CGA:   9    -0.130709441970E+04   -0.63319E-03   -0.61117E-03 10640   0.215E-02-0.223E-03
CGA:  10    -0.130709469913E+04   -0.27943E-03   -0.27364E-03 10640   0.180E-02-0.119E-03
CGA:  11    -0.130709493990E+04   -0.24076E-03   -0.23069E-03 10640   0.939E-03-0.245E-03
CGA:  12    -0.130709503026E+04   -0.90360E-04   -0.79866E-04 10640   0.663E-03-0.137E-03
CGA:  13    -0.130709514642E+04   -0.11617E-03   -0.19253E-03 10640   0.193E-02-0.456E-03
CGA:  14    -0.130709526221E+04   -0.11579E-03   -0.10605E-03 10640   0.302E-03-0.751E-04
CGA:  15    -0.130709531426E+04   -0.52048E-04   -0.52410E-04 10640   0.499E-03-0.526E-04
CGA:  16    -0.130709536877E+04   -0.54506E-04   -0.49877E-04 10640   0.161E-03-0.882E-04
CGA:  17    -0.130709534788E+04    0.20890E-04   -0.51845E-04 10640   0.235E-02-0.332E-03
CGA:  18    -0.130709545422E+04   -0.10634E-03   -0.11412E-03 10640   0.151E-03 0.622E-04
CGA:  19    -0.130709547066E+04   -0.16441E-04   -0.14581E-04 10640   0.946E-04-0.227E-04
CGA:  20    -0.130709550489E+04   -0.34228E-04    0.28431E-04 10640   0.710E-04 0.185E-04
CGA:  21    -0.130709551902E+04   -0.14123E-04   -0.18240E-04 10640   0.289E-03-0.949E-04
CGA:  22    -0.130709554442E+04   -0.25408E-04   -0.19822E-04 10640   0.604E-04-0.526E-04
CGA:  23    -0.130709555213E+04   -0.77095E-05   -0.69990E-05 10640   0.100E-03-0.266E-04
  11 F= -.13070956E+04 E0= -.13070780E+04  d E =-.245302E-02  mag=    47.0000
       N       E                     dE             d eps       ncg     rms          ort
SDA:   1    -0.130677962443E+04    0.31592E+00    0.00000E+00 10640   0.978E+00 0.000E+00
CGA:   2    -0.130694546632E+04   -0.16584E+00   -0.16584E+00 10640   0.986E+00 0.153E-02
CGA:   3    -0.130702927666E+04   -0.83810E-01   -0.83750E-01 10640   0.334E+00-0.157E-02
CGA:   4    -0.130708345268E+04   -0.54176E-01   -0.54176E-01 10640   0.126E+00 0.493E-03
CGA:   5    -0.130709275506E+04   -0.93024E-02   -0.92991E-02 10640   0.281E-01 0.228E-03
CGA:   6    -0.130709655475E+04   -0.37997E-02   -0.37880E-02 10640   0.145E-01-0.469E-03
CGA:   7    -0.130709784226E+04   -0.12875E-02   -0.12931E-02 10640   0.478E-02 0.948E-04
CGA:   8    -0.130709837648E+04   -0.53422E-03   -0.53285E-03 10640   0.327E-02-0.283E-04
CGA:   9    -0.130709875184E+04   -0.37536E-03   -0.36669E-03 10640   0.102E-02-0.220E-03
CGA:  10    -0.130709886265E+04   -0.11081E-03   -0.11043E-03 10640   0.762E-03-0.104E-04
CGA:  11    -0.130709896524E+04   -0.10259E-03   -0.10150E-03 10640   0.462E-03-0.799E-04
CGA:  12    -0.130709902258E+04   -0.57338E-04   -0.54765E-04 10640   0.421E-03-0.172E-03
CGA:  13    -0.130709906161E+04   -0.39032E-04   -0.70090E-04 10640   0.827E-03-0.263E-03
CGA:  14    -0.130709911222E+04   -0.50609E-04   -0.46058E-04 10640   0.199E-03-0.459E-04
CGA:  15    -0.130709914433E+04   -0.32105E-04   -0.67665E-04 10640   0.848E-03-0.167E-03
CGA:  16    -0.130709918469E+04   -0.40365E-04   -0.40762E-04 10640   0.800E-04 0.479E-05
CGA:  17    -0.130709919635E+04   -0.11664E-04   -0.11217E-04 10640   0.103E-03-0.331E-04
CGA:  18    -0.130709921671E+04   -0.20359E-04    0.42251E-04 10640   0.693E-04-0.107E-04
CGA:  19    -0.130709922617E+04   -0.94543E-05   -0.96800E-05 10640   0.124E-03-0.606E-04
CGA:  20    -0.130709924123E+04   -0.15058E-04   -0.13041E-04 10640   0.673E-04-0.425E-04
CGA:  21    -0.130709916507E+04    0.76153E-04   -0.29335E-04 10640   0.237E-02-0.205E-03
CGA:  22    -0.130709926730E+04   -0.10222E-03   -0.10105E-03 10640   0.918E-04-0.612E-05
CGA:  23    -0.130709928699E+04   -0.19690E-04   -0.21879E-04 10640   0.158E-03-0.312E-04
CGA:  24    -0.130709929584E+04   -0.88500E-05   -0.73905E-05 10640   0.460E-04-0.143E-04
  12 F= -.13070993E+04 E0= -.13070818E+04  d E =-.374370E-02  mag=    47.0000
       N       E                     dE             d eps       ncg     rms          ort
SDA:   1    -0.130702364578E+04    0.75641E-01    0.00000E+00 10640   0.237E+00 0.000E+00
CGA:   2    -0.130706552234E+04   -0.41877E-01   -0.41888E-01 10640   0.220E+00-0.712E-03
CGA:   3    -0.130708264867E+04   -0.17126E-01   -0.17130E-01 10640   0.845E-01 0.358E-03
CGA:   4    -0.130709577913E+04   -0.13130E-01   -0.13135E-01 10640   0.336E-01 0.101E-02
CGA:   5    -0.130709832853E+04   -0.25494E-02   -0.25543E-02 10640   0.801E-02 0.848E-04
CGA:   6    -0.130709917677E+04   -0.84824E-03   -0.85284E-03 10640   0.446E-02 0.991E-04
CGA:   7    -0.130709958444E+04   -0.40767E-03   -0.41808E-03 10640   0.998E-03 0.178E-03
CGA:   8    -0.130709973184E+04   -0.14740E-03   -0.14761E-03 10640   0.697E-03 0.299E-04
CGA:   9    -0.130709981320E+04   -0.81362E-04   -0.80469E-04 10640   0.219E-03-0.238E-04
CGA:  10    -0.130709983516E+04   -0.21956E-04   -0.22841E-04 10640   0.143E-03 0.228E-04
CGA:  11    -0.130709984952E+04   -0.14364E-04   -0.15878E-04 10640   0.457E-04 0.339E-04
CGA:  12    -0.130709985256E+04   -0.30377E-05   -0.46268E-05 10640   0.203E-04 0.260E-04
  13 F= -.13070999E+04 E0= -.13070824E+04  d E =-.556722E-03  mag=    47.0000
       N       E                     dE             d eps       ncg     rms          ort
SDA:   1    -0.130702578890E+04    0.74061E-01    0.00000E+00 10640   0.219E+00 0.000E+00
CGA:   2    -0.130707226912E+04   -0.46480E-01   -0.46548E-01 10640   0.137E+00-0.859E-03
CGA:   3    -0.130708819420E+04   -0.15925E-01   -0.15944E-01 10640   0.916E-01 0.938E-03
CGA:   4    -0.130709725292E+04   -0.90587E-02   -0.90785E-02 10640   0.335E-01 0.508E-03
CGA:   5    -0.130709975298E+04   -0.25001E-02   -0.24971E-02 10640   0.578E-02-0.226E-04
CGA:   6    -0.130710058020E+04   -0.82722E-03   -0.82569E-03 10640   0.293E-02 0.166E-03
CGA:   7    -0.130710084821E+04   -0.26801E-03   -0.27203E-03 10640   0.985E-03 0.951E-04
CGA:   8    -0.130710098282E+04   -0.13461E-03   -0.13467E-03 10640   0.819E-03-0.898E-04
CGA:   9    -0.130710106529E+04   -0.82465E-04   -0.80283E-04 10640   0.254E-03-0.907E-04
CGA:  10    -0.130710109277E+04   -0.27485E-04   -0.27282E-04 10640   0.202E-03-0.204E-04
CGA:  11    -0.130710112053E+04   -0.27760E-04   -0.41273E-04 10640   0.372E-03-0.146E-03
CGA:  12    -0.130710113681E+04   -0.16278E-04   -0.17674E-04 10640   0.588E-04 0.164E-04
CGA:  13    -0.130710114532E+04   -0.85146E-05   -0.83981E-05 10640   0.340E-04 0.183E-04
  14 F= -.13071011E+04 E0= -.13070837E+04  d E =-.129277E-02  mag=    47.0000
       N       E                     dE             d eps       ncg     rms          ort
SDA:   1    -0.130232548571E+04    0.47757E+01    0.00000E+00 10640   0.155E+02 0.000E+00
CGA:   2    -0.130477990521E+04   -0.24544E+01   -0.24554E+01 10640   0.122E+02-0.197E-01
CGA:   3    -0.130612201096E+04   -0.13421E+01   -0.13413E+01 10640   0.519E+01 0.122E-01
CGA:   4    -0.130676414122E+04   -0.64213E+00   -0.64214E+00 10640   0.284E+01 0.546E-02
CGA:   5    -0.130699810847E+04   -0.23397E+00   -0.23412E+00 10640   0.448E+00-0.164E-02
CGA:   6    -0.130704288684E+04   -0.44778E-01   -0.44793E-01 10640   0.245E+00 0.864E-03
CGA:   7    -0.130707114498E+04   -0.28258E-01   -0.28273E-01 10640   0.837E-01 0.119E-02
CGA:   8    -0.130707889609E+04   -0.77511E-02   -0.76925E-02 10640   0.443E-01-0.155E-02
CGA:   9    -0.130708471203E+04   -0.58159E-02   -0.58314E-02 10640   0.251E-01-0.204E-02
CGA:  10    -0.130708705043E+04   -0.23384E-02   -0.23009E-02 10640   0.828E-02-0.120E-02
CGA:  11    -0.130708862715E+04   -0.15767E-02   -0.19772E-02 10640   0.145E-01-0.320E-02
CGA:  12    -0.130708933240E+04   -0.70526E-03   -0.62546E-03 10640   0.433E-02-0.130E-02
CGA:  13    -0.130708973380E+04   -0.40139E-03   -0.38502E-03 10640   0.502E-02-0.526E-03
CGA:  14    -0.130709042980E+04   -0.69601E-03   -0.85167E-03 10640   0.801E-02-0.237E-02
CGA:  15    -0.130709074642E+04   -0.31662E-03   -0.21461E-03 10640   0.346E-02-0.130E-02
CGA:  16    -0.130709096793E+04   -0.22150E-03   -0.16872E-03 10640   0.264E-02-0.773E-03
CGA:  17    -0.130709123332E+04   -0.26540E-03   -0.32233E-03 10640   0.671E-02-0.167E-02
CGA:  18    -0.130709170310E+04   -0.46978E-03   -0.46243E-03 10640   0.856E-03-0.122E-03
CGA:  19    -0.130709181665E+04   -0.11355E-03   -0.11471E-03 10640   0.122E-02-0.784E-04
CGA:  20    -0.130709203138E+04   -0.21474E-03   -0.25970E-03 10640   0.963E-03-0.406E-03
CGA:  21    -0.130709210212E+04   -0.70736E-04   -0.60145E-04 10640   0.511E-03-0.305E-03
CGA:  22    -0.130709143616E+04    0.66596E-03   -0.36014E-03 10640   0.167E-01-0.137E-02
CGA:  23    -0.130709224256E+04   -0.80640E-03   -0.79320E-03 10640   0.119E-02-0.711E-04
CGA:  24    -0.130709234608E+04   -0.10353E-03   -0.10222E-03 10640   0.466E-03-0.828E-05
CGA:  25    -0.130709244595E+04   -0.99869E-04   -0.99922E-04 10640   0.452E-03-0.477E-04
CGA:  26    -0.130709251279E+04   -0.66833E-04   -0.51081E-04 10640   0.377E-03-0.176E-03
CGA:  27    -0.130709255616E+04   -0.43371E-04   -0.63683E-04 10640   0.102E-02-0.308E-03
CGA:  28    -0.130709260788E+04   -0.51723E-04   -0.54273E-04 10640   0.145E-03 0.171E-04
CGA:  29    -0.130709262648E+04   -0.18601E-04   -0.18531E-04 10640   0.108E-03-0.694E-06
CGA:  30    -0.130709264782E+04   -0.21338E-04   -0.21191E-04 10640   0.762E-04-0.302E-04
CGA:  31    -0.130709265507E+04   -0.72491E-05   -0.41903E-05 10640   0.261E-04-0.244E-04
  15 F= -.13070927E+04 E0= -.13070757E+04  d E =0.849026E-02  mag=    47.0000
       N       E                     dE             d eps       ncg     rms          ort
SDA:   1    -0.130510563537E+04    0.19870E+01    0.00000E+00 10640   0.628E+01 0.000E+00
CGA:   2    -0.130623962775E+04   -0.11340E+01   -0.11342E+01 10640   0.421E+01 0.101E-01
CGA:   3    -0.130671685871E+04   -0.47723E+00   -0.47620E+00 10640   0.217E+01 0.650E-02
CGA:   4    -0.130700492546E+04   -0.28807E+00   -0.28780E+00 10640   0.861E+00-0.215E-04
CGA:   5    -0.130706874158E+04   -0.63816E-01   -0.63842E-01 10640   0.168E+00-0.312E-02
CGA:   6    -0.130708767184E+04   -0.18930E-01   -0.18897E-01 10640   0.101E+00-0.152E-03
CGA:   7    -0.130709760319E+04   -0.99314E-02   -0.99426E-02 10640   0.280E-01 0.176E-03
CGA:   8    -0.130710068750E+04   -0.30843E-02   -0.30722E-02 10640   0.194E-01-0.156E-03
CGA:   9    -0.130710289513E+04   -0.22076E-02   -0.22103E-02 10640   0.681E-02 0.587E-04
CGA:  10    -0.130710354140E+04   -0.64627E-03   -0.65259E-03 10640   0.345E-02 0.927E-04
CGA:  11    -0.130710417096E+04   -0.62956E-03   -0.63149E-03 10640   0.165E-02-0.124E-03
CGA:  12    -0.130710432960E+04   -0.15864E-03   -0.16441E-03 10640   0.929E-03 0.931E-04
CGA:  13    -0.130710455599E+04   -0.22639E-03   -0.23708E-03 10640   0.158E-02-0.138E-03
CGA:  14    -0.130710466523E+04   -0.10924E-03   -0.10338E-03 10640   0.399E-03-0.699E-04
CGA:  15    -0.130710471602E+04   -0.50797E-04   -0.51938E-04 10640   0.461E-03 0.429E-04
CGA:  16    -0.130710480715E+04   -0.91126E-04   -0.93145E-04 10640   0.570E-03-0.969E-04
CGA:  17    -0.130710484197E+04   -0.34819E-04   -0.31154E-04 10640   0.196E-03-0.431E-04
CGA:  18    -0.130710485397E+04   -0.12002E-04   -0.16492E-04 10640   0.221E-03 0.669E-04
CGA:  19    -0.130710487570E+04   -0.21733E-04   -0.28956E-04 10640   0.117E-03 0.127E-03
CGA:  20    -0.130710489111E+04   -0.15408E-04   -0.14466E-04 10640   0.171E-03-0.340E-04
CGA:  21    -0.130710489805E+04   -0.69418E-05   -0.10862E-04 10640   0.135E-03 0.650E-04
  16 F= -.13071049E+04 E0= -.13070876E+04  d E =-.122430E-01  mag=    47.0000
       N       E                     dE             d eps       ncg     rms          ort
SDA:   1    -0.130695371283E+04    0.15118E+00    0.00000E+00 10640   0.462E+00 0.000E+00
CGA:   2    -0.130703699741E+04   -0.83285E-01   -0.83246E-01 10640   0.425E+00 0.119E-02
CGA:   3    -0.130707193802E+04   -0.34941E-01   -0.34912E-01 10640   0.173E+00-0.174E-03
CGA:   4    -0.130709652105E+04   -0.24583E-01   -0.24587E-01 10640   0.850E-01-0.154E-02
CGA:   5    -0.130710274044E+04   -0.62194E-02   -0.61540E-02 10640   0.153E-01-0.916E-03
CGA:   6    -0.130710456081E+04   -0.18204E-02   -0.18121E-02 10640   0.934E-02-0.477E-03
CGA:   7    -0.130710538606E+04   -0.82525E-03   -0.82482E-03 10640   0.253E-02-0.660E-06
CGA:   8    -0.130710568030E+04   -0.29424E-03   -0.29289E-03 10640   0.150E-02-0.727E-04
CGA:   9    -0.130710587470E+04   -0.19439E-03   -0.19446E-03 10640   0.569E-03-0.102E-03
CGA:  10    -0.130710592483E+04   -0.50132E-04   -0.50753E-04 10640   0.273E-03 0.173E-04
CGA:  11    -0.130710595538E+04   -0.30553E-04   -0.90205E-04 10640   0.131E-02-0.315E-03
CGA:  12    -0.130710601844E+04   -0.63063E-04   -0.61557E-04 10640   0.136E-03-0.147E-04
CGA:  13    -0.130710603522E+04   -0.16779E-04   -0.38564E-04 10640   0.577E-03-0.144E-03
CGA:  14    -0.130710607244E+04   -0.37221E-04   -0.32802E-04 10640   0.624E-04-0.503E-04
CGA:  15    -0.130710608035E+04   -0.79039E-05   -0.75788E-05 10640   0.133E-03-0.539E-04
  17 F= -.13071061E+04 E0= -.13070888E+04  d E =-.118229E-02  mag=    47.0000
       N       E                     dE             d eps       ncg     rms          ort
SDA:   1    -0.130706031757E+04    0.45755E-01    0.00000E+00 10640   0.149E+00 0.000E+00
CGA:   2    -0.130708682698E+04   -0.26509E-01   -0.26550E-01 10640   0.115E+00-0.908E-03
CGA:   3    -0.130709625989E+04   -0.94329E-02   -0.94453E-02 10640   0.581E-01 0.427E-03
CGA:   4    -0.130710418629E+04   -0.79264E-02   -0.79244E-02 10640   0.241E-01 0.101E-02
CGA:   5    -0.130710617527E+04   -0.19890E-02   -0.19965E-02 10640   0.439E-02 0.160E-03
CGA:   6    -0.130710666201E+04   -0.48674E-03   -0.48916E-03 10640   0.260E-02 0.120E-03
CGA:   7    -0.130710690235E+04   -0.24034E-03   -0.24381E-03 10640   0.630E-03 0.907E-04
CGA:   8    -0.130710700000E+04   -0.97648E-04   -0.98594E-04 10640   0.496E-03-0.408E-04
CGA:   9    -0.130710704988E+04   -0.49884E-04   -0.49515E-04 10640   0.151E-03-0.159E-04
CGA:  10    -0.130710706555E+04   -0.15664E-04   -0.15497E-04 10640   0.115E-03-0.738E-05
CGA:  11    -0.130710707976E+04   -0.14211E-04   -0.14232E-04 10640   0.472E-04-0.667E-05
CGA:  12    -0.130710708358E+04   -0.38254E-05   -0.38759E-05 10640   0.187E-04 0.129E-05
  18 F= -.13071071E+04 E0= -.13070899E+04  d E =-.100323E-02  mag=    47.0000
       N       E                     dE             d eps       ncg     rms          ort
SDA:   1    -0.130707153148E+04    0.35548E-01    0.00000E+00 10640   0.110E+00 0.000E+00
CGA:   2    -0.130709381632E+04   -0.22285E-01   -0.22290E-01 10640   0.596E-01-0.551E-04
CGA:   3    -0.130710125655E+04   -0.74402E-02   -0.74392E-02 10640   0.468E-01-0.182E-03
CGA:   4    -0.130710614895E+04   -0.48924E-02   -0.49101E-02 10640   0.102E-01 0.773E-03
CGA:   5    -0.130710699724E+04   -0.84829E-03   -0.84531E-03 10640   0.307E-02-0.560E-04
CGA:   6    -0.130710740430E+04   -0.40706E-03   -0.40671E-03 10640   0.110E-02 0.467E-04
CGA:   7    -0.130710749343E+04   -0.89134E-04   -0.94677E-04 10640   0.390E-03 0.135E-03
CGA:   8    -0.130710757947E+04   -0.86034E-04   -0.92522E-04 10640   0.275E-03-0.741E-04
CGA:   9    -0.130710759668E+04   -0.17212E-04   -0.17177E-04 10640   0.112E-03-0.476E-06
CGA:  10    -0.130710761074E+04   -0.14064E-04   -0.14062E-04 10640   0.798E-04 0.634E-05
CGA:  11    -0.130710762249E+04   -0.11746E-04   -0.15366E-04 10640   0.109E-03-0.641E-04
CGA:  12    -0.130710762717E+04   -0.46806E-05   -0.61538E-05 10640   0.236E-04 0.205E-04
  19 F= -.13071076E+04 E0= -.13070904E+04  d E =-.543585E-03  mag=    47.0000
       N       E                     dE             d eps       ncg     rms          ort
SDA:   1    -0.130660214731E+04    0.50548E+00    0.00000E+00 10640   0.151E+01 0.000E+00
CGA:   2    -0.130690464895E+04   -0.30250E+00   -0.30206E+00 10640   0.978E+00 0.598E-02
CGA:   3    -0.130701128890E+04   -0.10664E+00   -0.10656E+00 10640   0.589E+00-0.435E-02
CGA:   4    -0.130708774623E+04   -0.76457E-01   -0.76451E-01 10640   0.129E+00 0.202E-02
CGA:   5    -0.130709844978E+04   -0.10704E-01   -0.10705E-01 10640   0.447E-01 0.157E-03
CGA:   6    -0.130710345298E+04   -0.50032E-02   -0.50038E-02 10640   0.215E-01 0.678E-04
CGA:   7    -0.130710534392E+04   -0.18909E-02   -0.19037E-02 10640   0.640E-02 0.383E-03
CGA:   8    -0.130710625098E+04   -0.90706E-03   -0.90856E-03 10640   0.493E-02-0.825E-04
CGA:   9    -0.130710668185E+04   -0.43087E-03   -0.42767E-03 10640   0.148E-02-0.855E-04
CGA:  10    -0.130710687998E+04   -0.19812E-03   -0.20021E-03 10640   0.123E-02-0.129E-03
CGA:  11    -0.130710704004E+04   -0.16006E-03   -0.16667E-03 10640   0.534E-03-0.252E-03
CGA:  12    -0.130710709308E+04   -0.53037E-04   -0.53184E-04 10640   0.434E-03-0.762E-04
CGA:  13    -0.130710716021E+04   -0.67130E-04   -0.87183E-04 10640   0.734E-03-0.181E-03
CGA:  14    -0.130710719173E+04   -0.31519E-04   -0.26289E-04 10640   0.196E-03-0.787E-04
CGA:  15    -0.130710720739E+04   -0.15665E-04   -0.15137E-04 10640   0.228E-03-0.137E-04
CGA:  16    -0.130710723640E+04   -0.29014E-04   -0.29767E-04 10640   0.261E-03-0.460E-04
CGA:  17    -0.130710725908E+04   -0.22673E-04   -0.19912E-04 10640   0.149E-03-0.965E-04
CGA:  18    -0.130710726813E+04   -0.90513E-05   -0.74572E-05 10640   0.125E-03-0.366E-04
CGA:  19    -0.130710728167E+04   -0.13543E-04   -0.13816E-04 10640   0.177E-03-0.115E-04
CGA:  20    -0.130710729743E+04   -0.15758E-04   -0.14255E-04 10640   0.818E-04-0.459E-04
CGA:  21    -0.130710697674E+04    0.32069E-03   -0.17467E-03 10640   0.681E-02-0.555E-03
CGA:  22    -0.130710726918E+04   -0.29243E-03   -0.31699E-03 10640   0.364E-03 0.159E-03
CGA:  23    -0.130710729192E+04   -0.22742E-04   -0.27645E-04 10640   0.144E-03 0.362E-04
CGA:  24    -0.130710732626E+04   -0.34337E-04   -0.34566E-04 10640   0.136E-03-0.157E-04
CGA:  25    -0.130710733069E+04   -0.44293E-05   -0.73109E-05 10640   0.283E-04 0.200E-04
  20 F= -.13071073E+04 E0= -.13070903E+04  d E =0.296482E-03  mag=    47.0000
       N       E                     dE             d eps       ncg     rms          ort
SDA:   1    -0.130702991307E+04    0.77413E-01    0.00000E+00 10640   0.257E+00 0.000E+00
CGA:   2    -0.130707696996E+04   -0.47057E-01   -0.47062E-01 10640   0.139E+00 0.659E-03
CGA:   3    -0.130709200732E+04   -0.15037E-01   -0.14994E-01 10640   0.103E+00-0.454E-03
CGA:   4    -0.130710489535E+04   -0.12888E-01   -0.12895E-01 10640   0.270E-01 0.160E-03
CGA:   5    -0.130710711532E+04   -0.22200E-02   -0.22427E-02 10640   0.633E-02 0.251E-03
CGA:   6    -0.130710801415E+04   -0.89883E-03   -0.89540E-03 10640   0.283E-02-0.884E-04
CGA:   7    -0.130710822939E+04   -0.21524E-03   -0.22648E-03 10640   0.107E-02 0.122E-03
CGA:   8    -0.130710837273E+04   -0.14333E-03   -0.14565E-03 10640   0.667E-03 0.566E-04
CGA:   9    -0.130710844119E+04   -0.68462E-04   -0.66308E-04 10640   0.248E-03-0.280E-04
CGA:  10    -0.130710846644E+04   -0.25257E-04   -0.26889E-04 10640   0.121E-03 0.315E-04
CGA:  11    -0.130710848083E+04   -0.14387E-04   -0.15464E-04 10640   0.419E-04 0.219E-04
CGA:  12    -0.130710848830E+04   -0.74666E-05   -0.75103E-05 10640   0.401E-04 0.521E-05
  21 F= -.13071085E+04 E0= -.13070914E+04  d E =-.115761E-02  mag=    47.0000
       N       E                     dE             d eps       ncg     rms          ort
SDA:   1    -0.130710099045E+04    0.74904E-02    0.00000E+00 10640   0.246E-01 0.000E+00
CGA:   2    -0.130710515188E+04   -0.41614E-02   -0.41657E-02 10640   0.223E-01-0.288E-03
CGA:   3    -0.130710716293E+04   -0.20111E-02   -0.20339E-02 10640   0.849E-02 0.392E-03
CGA:   4    -0.130710826647E+04   -0.11035E-02   -0.10989E-02 10640   0.536E-02-0.180E-03
CGA:   5    -0.130710870652E+04   -0.44005E-03   -0.42169E-03 10640   0.914E-03-0.252E-03
CGA:   6    -0.130710878879E+04   -0.82268E-04   -0.83586E-04 10640   0.429E-03 0.261E-04
CGA:   7    -0.130710884136E+04   -0.52574E-04   -0.52427E-04 10640   0.162E-03-0.523E-05
CGA:   8    -0.130710885957E+04   -0.18207E-04   -0.17356E-04 10640   0.957E-04-0.237E-04
CGA:   9    -0.130710886733E+04   -0.77595E-05   -0.81792E-05 10640   0.309E-04 0.100E-04
  22 F= -.13071089E+04 E0= -.13070918E+04  d E =-.379033E-03  mag=    47.0000
