       N       E                     dE             d eps       ncg     rms          ort
DAV:   1     0.281414793877E+04    0.28141E+04   -0.29329E+05  2880   0.140E+03
DAV:   2    -0.974477299986E+03   -0.37886E+04   -0.36554E+04  2880   0.313E+02
DAV:   3    -0.122932913246E+04   -0.25485E+03   -0.25277E+03  2880   0.845E+01
DAV:   4    -0.123228777946E+04   -0.29586E+01   -0.29485E+01  2880   0.969E+00
DAV:   5    -0.123233538877E+04   -0.47609E-01   -0.47508E-01  2880   0.113E+00
SDA:   6    -0.876589253608E+03    0.35575E+03   -0.47508E-01  2880   0.607E+03 0.000E+00
CGA:   7    -0.986223672239E+03   -0.10963E+03   -0.10954E+03  2880   0.508E+02 0.777E+00
CGA:   8    -0.997529923996E+03   -0.11306E+02   -0.11186E+02  2880   0.217E+02 0.329E+01
CGA:   9    -0.100176168903E+04   -0.42318E+01   -0.42845E+01  2880   0.977E+01 0.168E+01
CGA:  10    -0.100268359041E+04   -0.92190E+00   -0.10995E+01  2880   0.196E+02-0.515E+01
CGA:  11    -0.100382847785E+04   -0.11449E+01   -0.21964E+01  2880   0.281E+01 0.418E+00
CGA:  12    -0.100432597704E+04   -0.49750E+00   -0.56831E+00  2880   0.939E+01-0.519E+01
CGA:  13    -0.100466253385E+04   -0.33656E+00   -0.90740E+00  2880   0.169E+01-0.990E+00
CGA:  14    -0.100495586523E+04   -0.29333E+00   -0.14238E+00  2880   0.663E+00 0.104E+01
CGA:  15    -0.100505357414E+04   -0.97709E-01   -0.95639E-01  2880   0.130E+01-0.200E-01
CGA:  16    -0.100542558197E+04   -0.37201E+00   -0.36877E+00  2880   0.701E+00 0.225E-01
CGA:  17    -0.100547429019E+04   -0.48708E-01   -0.41864E-01  2880   0.343E-01 0.776E-01
CGA:  18    -0.100547858823E+04   -0.42980E-02   -0.44290E-02  2880   0.402E-01 0.202E-02
CGA:  19    -0.100548506686E+04   -0.64786E-02   -0.65690E-02  2880   0.131E-01 0.426E-02
CGA:  20    -0.100548617926E+04   -0.11124E-02   -0.11252E-02  2880   0.696E-02 0.240E-03
CGA:  21    -0.100548816593E+04   -0.19867E-02   -0.20386E-02  2880   0.790E-02-0.458E-03
CGA:  22    -0.100548868369E+04   -0.51776E-03   -0.50481E-03  2880   0.238E-02-0.647E-04
CGA:  23    -0.100548909347E+04   -0.40978E-03   -0.41147E-03  2880   0.433E-02-0.370E-03
CGA:  24    -0.100548957308E+04   -0.47961E-03   -0.45689E-03  2880   0.296E-02-0.462E-03
CGA:  25    -0.100548973363E+04   -0.16056E-03   -0.15324E-03  2880   0.676E-03-0.115E-03
CGA:  26    -0.100548978401E+04   -0.50381E-04   -0.52541E-04  2880   0.638E-03 0.248E-04
CGA:  27    -0.100548988124E+04   -0.97223E-04   -0.98237E-04  2880   0.750E-03 0.103E-03
CGA:  28    -0.100548992881E+04   -0.47576E-04   -0.55178E-04  2880   0.149E-03 0.875E-04
CGA:  29    -0.100548993507E+04   -0.62547E-05   -0.12230E-04  2880   0.146E-03 0.756E-04
CGA:  30    -0.100548994498E+04   -0.99148E-05   -0.13533E-04  2880   0.858E-04 0.646E-04
CGA:  31    -0.100548995204E+04   -0.70563E-05   -0.11335E-04  2880   0.499E-04 0.789E-04
   1 F= -.10054900E+04 E0= -.10054738E+04  d E =-.100549E+04  mag=     1.0000
       N       E                     dE             d eps       ncg     rms          ort
SDA:   1    -0.100549046252E+04   -0.51754E-03    0.00000E+00  2880   0.337E-02 0.000E+00
CGA:   2    -0.100549064469E+04   -0.18217E-03   -0.17770E-03  2880   0.187E-03-0.697E-04
CGA:   3    -0.100549067922E+04   -0.34524E-04   -0.36257E-04  2880   0.281E-03-0.294E-04
CGA:   4    -0.100549070593E+04   -0.26716E-04   -0.26497E-04  2880   0.518E-04-0.770E-05
CGA:   5    -0.100549070934E+04   -0.34068E-05   -0.45091E-05  2880   0.257E-04 0.222E-04
   2 F= -.10054907E+04 E0= -.10054744E+04  d E =-.757300E-03  mag=     0.9986
       N       E                     dE             d eps       ncg     rms          ort
SDA:   1    -0.100547418765E+04    0.16518E-01    0.00000E+00  2880   0.846E-01 0.000E+00
CGA:   2    -0.100550184870E+04   -0.27661E-01   -0.27618E-01  2880   0.717E-01 0.230E-03
CGA:   3    -0.100550661244E+04   -0.47637E-02   -0.47379E-02  2880   0.136E-01 0.125E-02
CGA:   4    -0.100550957996E+04   -0.29675E-02   -0.30107E-02  2880   0.521E-02-0.553E-03
CGA:   5    -0.100551001044E+04   -0.43048E-03   -0.42554E-03  2880   0.158E-02-0.296E-04
CGA:   6    -0.100551030316E+04   -0.29272E-03   -0.28448E-03  2880   0.435E-03 0.196E-03
CGA:   7    -0.100551036273E+04   -0.59574E-04   -0.57095E-04  2880   0.424E-03-0.102E-03
CGA:   8    -0.100551041852E+04   -0.55786E-04   -0.55610E-04  2880   0.129E-03 0.545E-05
CGA:   9    -0.100551042946E+04   -0.10946E-04   -0.11330E-04  2880   0.744E-04 0.591E-05
CGA:  10    -0.100551044214E+04   -0.12681E-04   -0.30828E-04  2880   0.208E-03-0.706E-04
CGA:  11    -0.100551044916E+04   -0.70157E-05   -0.11047E-04  2880   0.354E-04 0.395E-04
   3 F= -.10055104E+04 E0= -.10054942E+04  d E =-.197398E-01  mag=     0.9990
       N       E                     dE             d eps       ncg     rms          ort
SDA:   1    -0.100538096033E+04    0.12948E+00    0.00000E+00  2880   0.500E+00 0.000E+00
CGA:   2    -0.100544739876E+04   -0.66438E-01   -0.67252E-01  2880   0.554E+00 0.288E-01
CGA:   3    -0.100552783061E+04   -0.80432E-01   -0.80311E-01  2880   0.791E-01-0.575E-02
CGA:   4    -0.100553781958E+04   -0.99890E-02   -0.99304E-02  2880   0.596E-01-0.216E-02
CGA:   5    -0.100554436821E+04   -0.65486E-02   -0.65487E-02  2880   0.767E-02-0.180E-03
CGA:   6    -0.100554546739E+04   -0.10992E-02   -0.10991E-02  2880   0.671E-02 0.356E-04
CGA:   7    -0.100554624098E+04   -0.77360E-03   -0.77976E-03  2880   0.960E-03 0.180E-03
CGA:   8    -0.100554643786E+04   -0.19688E-03   -0.20675E-03  2880   0.176E-02-0.147E-03
CGA:   9    -0.100554659865E+04   -0.16079E-03   -0.15912E-03  2880   0.224E-03-0.465E-04
CGA:  10    -0.100554663848E+04   -0.39838E-04   -0.39184E-04  2880   0.350E-03 0.165E-04
CGA:  11    -0.100554667319E+04   -0.34707E-04   -0.36887E-04  2880   0.478E-04 0.466E-04
CGA:  12    -0.100554668492E+04   -0.11734E-04   -0.11831E-04  2880   0.970E-04-0.145E-05
CGA:  13    -0.100554669172E+04   -0.67928E-05   -0.24443E-04  2880   0.217E-03-0.155E-03
CGA:  14    -0.100554669664E+04   -0.49272E-05   -0.10580E-04  2880   0.426E-04 0.539E-04
   4 F= -.10055467E+04 E0= -.10055305E+04  d E =-.362475E-01  mag=     0.9996
       N       E                     dE             d eps       ncg     rms          ort
SDA:   1    -0.100521415613E+04    0.33254E+00    0.00000E+00  2880   0.297E+01 0.000E+00
CGA:   2    -0.100533924461E+04   -0.12509E+00   -0.21785E+00  2880   0.123E+01-0.573E+00
CGA:   3    -0.100550855088E+04   -0.16931E+00   -0.17884E+00  2880   0.778E+00-0.163E+00
CGA:   4    -0.100556322785E+04   -0.54677E-01   -0.59144E-01  2880   0.102E+00-0.144E-01
CGA:   5    -0.100557469034E+04   -0.11462E-01   -0.11285E-01  2880   0.643E-01-0.167E-02
CGA:   6    -0.100558442442E+04   -0.97341E-02   -0.97310E-02  2880   0.204E-01-0.451E-03
CGA:   7    -0.100558616363E+04   -0.17392E-02   -0.17458E-02  2880   0.670E-02 0.428E-03
CGA:   8    -0.100558749034E+04   -0.13267E-02   -0.13181E-02  2880   0.440E-02 0.110E-03
CGA:   9    -0.100558785071E+04   -0.36037E-03   -0.37113E-03  2880   0.907E-03 0.195E-03
CGA:  10    -0.100558808893E+04   -0.23822E-03   -0.29724E-03  2880   0.269E-02-0.334E-03
CGA:  11    -0.100558820428E+04   -0.11534E-03   -0.11255E-03  2880   0.672E-03-0.221E-04
CGA:  12    -0.100558822600E+04   -0.21721E-04   -0.27912E-04  2880   0.255E-03 0.609E-04
CGA:  13    -0.100558824590E+04   -0.19900E-04   -0.24318E-04  2880   0.321E-03 0.918E-04
CGA:  14    -0.100558827451E+04   -0.28615E-04   -0.32852E-04  2880   0.622E-04 0.722E-04
CGA:  15    -0.100558828580E+04   -0.11287E-04   -0.11967E-04  2880   0.177E-03-0.259E-04
CGA:  16    -0.100558829398E+04   -0.81823E-05   -0.70031E-05  2880   0.228E-03-0.186E-04
   5 F= -.10055883E+04 E0= -.10055721E+04  d E =-.415973E-01  mag=     0.9999
       N       E                     dE             d eps       ncg     rms          ort
SDA:   1    -0.100411484395E+04    0.14734E+01    0.00000E+00  2880   0.203E+02 0.000E+00
CGA:   2    -0.100487408967E+04   -0.75925E+00   -0.14161E+01  2880   0.333E+01-0.279E+01
CGA:   3    -0.100524897257E+04   -0.37488E+00   -0.32190E+00  2880   0.338E+01-0.260E+01
CGA:   4    -0.100537380942E+04   -0.12484E+00   -0.20410E+00  2880   0.101E+01-0.712E+00
CGA:   5    -0.100550948788E+04   -0.13568E+00   -0.14858E+00  2880   0.120E+01-0.159E+00
CGA:   6    -0.100560794286E+04   -0.98455E-01   -0.10103E+00  2880   0.108E+00 0.319E-01
CGA:   7    -0.100561642324E+04   -0.84804E-02   -0.82593E-02  2880   0.414E-01 0.947E-03
CGA:   8    -0.100562828382E+04   -0.11861E-01   -0.11700E-01  2880   0.382E-01 0.943E-03
CGA:   9    -0.100563094681E+04   -0.26630E-02   -0.26305E-02  2880   0.369E-02 0.579E-03
CGA:  10    -0.100563161173E+04   -0.66493E-03   -0.67204E-03  2880   0.573E-02-0.160E-03
CGA:  11    -0.100563230838E+04   -0.69665E-03   -0.69672E-03  2880   0.998E-03-0.333E-04
CGA:  12    -0.100563243204E+04   -0.12366E-03   -0.12369E-03  2880   0.995E-03 0.757E-05
CGA:  13    -0.100563257004E+04   -0.13800E-03   -0.13620E-03  2880   0.167E-03 0.177E-03
CGA:  14    -0.100563261457E+04   -0.44532E-04   -0.61562E-04  2880   0.932E-03-0.926E-04
CGA:  15    -0.100563265329E+04   -0.38717E-04   -0.41168E-04  2880   0.405E-04 0.302E-04
CGA:  16    -0.100563265885E+04   -0.55597E-05   -0.16570E-04  2880   0.335E-03-0.419E-04
CGA:  17    -0.100563267730E+04   -0.18452E-04   -0.19583E-04  2880   0.126E-04 0.127E-04
CGA:  18    -0.100563267822E+04   -0.91737E-06   -0.12779E-05  2880   0.117E-04 0.845E-05
   6 F= -.10056327E+04 E0= -.10056165E+04  d E =-.443842E-01  mag=     1.0000
       N       E                     dE             d eps       ncg     rms          ort
SDA:   1    -0.100378305593E+04    0.18496E+01    0.00000E+00  2880   0.189E+02 0.000E+00
CGA:   2    -0.100449210083E+04   -0.70904E+00   -0.16071E+01  2880   0.404E+01-0.102E+01
CGA:   3    -0.100517656468E+04   -0.68446E+00   -0.36447E+00  2880   0.103E+01 0.563E+00
CGA:   4    -0.100541504067E+04   -0.23848E+00   -0.23810E+00  2880   0.360E+01 0.305E-02
CGA:   5    -0.100558093701E+04   -0.16590E+00   -0.18352E+00  2880   0.694E+00-0.284E+00
CGA:   6    -0.100560530721E+04   -0.24370E-01   -0.27241E-01  2880   0.184E+00-0.615E-01
CGA:   7    -0.100561833575E+04   -0.13029E-01   -0.13347E-01  2880   0.193E+00-0.831E-03
CGA:   8    -0.100563615397E+04   -0.17818E-01   -0.17608E-01  2880   0.175E+00-0.895E-04
CGA:   9    -0.100564716442E+04   -0.11010E-01   -0.10749E-01  2880   0.423E-01 0.198E-02
CGA:  10    -0.100564927607E+04   -0.21116E-02   -0.21694E-02  2880   0.218E-01-0.117E-02
CGA:  11    -0.100565258303E+04   -0.33070E-02   -0.32973E-02  2880   0.406E-01 0.258E-03
CGA:  12    -0.100565498129E+04   -0.23983E-02   -0.24014E-02  2880   0.700E-02 0.430E-03
CGA:  13    -0.100565543557E+04   -0.45429E-03   -0.45377E-03  2880   0.462E-02-0.152E-03
CGA:  14    -0.100565606077E+04   -0.62520E-03   -0.62649E-03  2880   0.685E-02-0.990E-04
CGA:  15    -0.100565651871E+04   -0.45793E-03   -0.47042E-03  2880   0.194E-02 0.218E-03
CGA:  16    -0.100565661623E+04   -0.97522E-04   -0.10453E-03  2880   0.656E-03 0.835E-04
CGA:  17    -0.100565670724E+04   -0.91010E-04   -0.92160E-04  2880   0.123E-02-0.660E-04
CGA:  18    -0.100565681876E+04   -0.11152E-03   -0.10929E-03  2880   0.755E-03-0.129E-03
CGA:  19    -0.100565684690E+04   -0.28146E-04   -0.29588E-04  2880   0.174E-03 0.152E-04
CGA:  20    -0.100565685227E+04   -0.53702E-05   -0.80565E-05  2880   0.113E-03 0.388E-04
CGA:  21    -0.100565686051E+04   -0.82315E-05   -0.10322E-04  2880   0.155E-03 0.605E-04
CGA:  22    -0.100565687341E+04   -0.12904E-04   -0.12271E-04  2880   0.856E-04-0.242E-04
CGA:  23    -0.100565688351E+04   -0.10099E-04   -0.92381E-05  2880   0.322E-04 0.394E-04
CGA:  24    -0.100565688634E+04   -0.28349E-05   -0.34356E-05  2880   0.160E-04 0.173E-04
   7 F= -.10056569E+04 E0= -.10056408E+04  d E =-.242081E-01  mag=     1.0000
       N       E                     dE             d eps       ncg     rms          ort
SDA:   1    -0.100418486956E+04    0.14720E+01    0.00000E+00  2880   0.126E+02 0.000E+00
CGA:   2    -0.100469616410E+04   -0.51129E+00   -0.79646E+00  2880   0.411E+01-0.151E+01
CGA:   3    -0.100522938265E+04   -0.53322E+00   -0.60704E+00  2880   0.434E+01-0.858E+00
CGA:   4    -0.100557226868E+04   -0.34289E+00   -0.34061E+00  2880   0.357E+00-0.142E+00
CGA:   5    -0.100560643348E+04   -0.34165E-01   -0.33957E-01  2880   0.291E+00-0.133E-01
CGA:   6    -0.100564589095E+04   -0.39457E-01   -0.39274E-01  2880   0.490E-01 0.348E-02
CGA:   7    -0.100565008690E+04   -0.41960E-02   -0.41633E-02  2880   0.302E-01-0.519E-03
CGA:   8    -0.100565588943E+04   -0.58025E-02   -0.57036E-02  2880   0.108E-01 0.107E-02
CGA:   9    -0.100565668559E+04   -0.79616E-03   -0.79565E-03  2880   0.408E-02-0.463E-04
CGA:  10    -0.100565763694E+04   -0.95135E-03   -0.94818E-03  2880   0.422E-02 0.112E-04
CGA:  11    -0.100565797668E+04   -0.33974E-03   -0.33683E-03  2880   0.876E-03-0.103E-03
CGA:  12    -0.100565810537E+04   -0.12869E-03   -0.12561E-03  2880   0.963E-03 0.843E-04
CGA:  13    -0.100565823867E+04   -0.13330E-03   -0.13250E-03  2880   0.314E-03 0.718E-04
CGA:  14    -0.100565827598E+04   -0.37314E-04   -0.37325E-04  2880   0.246E-03-0.881E-06
CGA:  15    -0.100565832235E+04   -0.46370E-04   -0.54879E-04  2880   0.372E-03-0.793E-04
CGA:  16    -0.100565833945E+04   -0.17098E-04   -0.16696E-04  2880   0.441E-04-0.963E-05
CGA:  17    -0.100565834169E+04   -0.22386E-05   -0.28732E-05  2880   0.356E-04 0.122E-04
   8 F= -.10056583E+04 E0= -.10056421E+04  d E =-.145535E-02  mag=     1.0000
       N       E                     dE             d eps       ncg     rms          ort
SDA:   1    -0.100551782814E+04    0.14051E+00    0.00000E+00  2880   0.477E+00 0.000E+00
CGA:   2    -0.100556882873E+04   -0.51001E-01   -0.51154E-01  2880   0.530E+00 0.855E-02
CGA:   3    -0.100564566672E+04   -0.76838E-01   -0.77109E-01  2880   0.133E+00-0.733E-02
CGA:   4    -0.100565639098E+04   -0.10724E-01   -0.10710E-01  2880   0.441E-01-0.457E-03
CGA:   5    -0.100566466295E+04   -0.82720E-02   -0.82725E-02  2880   0.214E-01-0.927E-04
CGA:   6    -0.100566589595E+04   -0.12330E-02   -0.12687E-02  2880   0.476E-02-0.455E-04
CGA:   7    -0.100566708390E+04   -0.11880E-02   -0.11951E-02  2880   0.295E-02-0.599E-04
CGA:   8    -0.100566725671E+04   -0.17281E-03   -0.17979E-03  2880   0.679E-03 0.111E-03
CGA:   9    -0.100566745888E+04   -0.20218E-03   -0.20239E-03  2880   0.936E-03-0.304E-05
CGA:  10    -0.100566753481E+04   -0.75930E-04   -0.74802E-04  2880   0.184E-03-0.266E-04
CGA:  11    -0.100566756403E+04   -0.29219E-04   -0.29499E-04  2880   0.282E-03-0.793E-05
CGA:  12    -0.100566759755E+04   -0.33516E-04   -0.33577E-04  2880   0.429E-04 0.271E-04
CGA:  13    -0.100566760371E+04   -0.61642E-05   -0.62943E-05  2880   0.807E-04-0.175E-04
   9 F= -.10056676E+04 E0= -.10056514E+04  d E =-.926202E-02  mag=     1.0000
       N       E                     dE             d eps       ncg     rms          ort
SDA:   1    -0.100563626692E+04    0.31331E-01    0.00000E+00  2880   0.107E+00 0.000E+00
CGA:   2    -0.100564979401E+04   -0.13527E-01   -0.13530E-01  2880   0.129E+00 0.675E-03
CGA:   3    -0.100566556566E+04   -0.15772E-01   -0.15786E-01  2880   0.454E-01 0.104E-02
CGA:   4    -0.100566865838E+04   -0.30927E-02   -0.31438E-02  2880   0.839E-02-0.707E-03
CGA:   5    -0.100567054824E+04   -0.18899E-02   -0.18538E-02  2880   0.229E-02 0.350E-03
CGA:   6    -0.100567075602E+04   -0.20778E-03   -0.20424E-03  2880   0.113E-02-0.108E-03
CGA:   7    -0.100567094181E+04   -0.18579E-03   -0.18297E-03  2880   0.343E-03 0.633E-04
CGA:   8    -0.100567097225E+04   -0.30446E-04   -0.30626E-04  2880   0.148E-03 0.164E-05
CGA:   9    -0.100567099289E+04   -0.20633E-04   -0.20414E-04  2880   0.127E-03 0.207E-04
CGA:  10    -0.100567100776E+04   -0.14870E-04   -0.15038E-04  2880   0.345E-04 0.633E-05
CGA:  11    -0.100567101294E+04   -0.51871E-05   -0.50691E-05  2880   0.170E-04 0.856E-05
  10 F= -.10056710E+04 E0= -.10056549E+04  d E =-.340923E-02  mag=     1.0000
       N       E                     dE             d eps       ncg     rms          ort
SDA:   1    -0.100504086752E+04    0.63014E+00    0.00000E+00  2880   0.304E+01 0.000E+00
CGA:   2    -0.100522724136E+04   -0.18637E+00   -0.23705E+00  2880   0.208E+01-0.185E+00
CGA:   3    -0.100559254609E+04   -0.36530E+00   -0.37870E+00  2880   0.719E+00-0.165E+00
CGA:   4    -0.100563381338E+04   -0.41267E-01   -0.44485E-01  2880   0.191E+00-0.252E-01
CGA:   5    -0.100566341441E+04   -0.29601E-01   -0.29839E-01  2880   0.132E+00-0.546E-02
CGA:   6    -0.100567240825E+04   -0.89938E-02   -0.92325E-02  2880   0.168E-01-0.334E-03
CGA:   7    -0.100567468581E+04   -0.22776E-02   -0.22797E-02  2880   0.184E-01-0.229E-03
CGA:   8    -0.100567673023E+04   -0.20444E-02   -0.20515E-02  2880   0.250E-02 0.390E-03
CGA:   9    -0.100567700450E+04   -0.27427E-03   -0.27265E-03  2880   0.253E-02-0.921E-04
CGA:  10    -0.100567744138E+04   -0.43689E-03   -0.43036E-03  2880   0.519E-03 0.114E-03
CGA:  11    -0.100567749908E+04   -0.57702E-04   -0.57218E-04  2880   0.556E-03-0.255E-04
CGA:  12    -0.100567759951E+04   -0.10043E-03   -0.96547E-04  2880   0.913E-04 0.666E-04
CGA:  13    -0.100567761790E+04   -0.18383E-04   -0.21781E-04  2880   0.325E-03-0.409E-04
CGA:  14    -0.100567763010E+04   -0.12207E-04   -0.12285E-04  2880   0.288E-03 0.989E-06
CGA:  15    -0.100567763752E+04   -0.74128E-05   -0.98835E-05  2880   0.571E-04 0.237E-04
  11 F= -.10056776E+04 E0= -.10056615E+04  d E =-.662457E-02  mag=     1.0000
       N       E                     dE             d eps       ncg     rms          ort
SDA:   1    -0.100403327425E+04    0.16444E+01    0.00000E+00  2880   0.529E+01 0.000E+00
CGA:   2    -0.100463858734E+04   -0.60531E+00   -0.61089E+00  2880   0.465E+01 0.542E+00
CGA:   3    -0.100540967504E+04   -0.77109E+00   -0.86257E+00  2880   0.337E+01-0.142E+01
CGA:   4    -0.100554084902E+04   -0.13117E+00   -0.14391E+00  2880   0.456E+00-0.128E+00
CGA:   5    -0.100561257208E+04   -0.71723E-01   -0.72983E-01  2880   0.557E+00-0.214E-01
CGA:   6    -0.100564661188E+04   -0.34040E-01   -0.33857E-01  2880   0.782E-01-0.328E-02
CGA:   7    -0.100565370531E+04   -0.70934E-02   -0.71093E-02  2880   0.542E-01-0.424E-03
CGA:   8    -0.100566264364E+04   -0.89383E-02   -0.88835E-02  2880   0.134E-01 0.114E-02
CGA:   9    -0.100566378789E+04   -0.11443E-02   -0.11459E-02  2880   0.821E-02-0.273E-03
CGA:  10    -0.100566495259E+04   -0.11647E-02   -0.11625E-02  2880   0.797E-02 0.469E-04
CGA:  11    -0.100566563908E+04   -0.68649E-03   -0.68956E-03  2880   0.106E-02 0.346E-04
CGA:  12    -0.100566595626E+04   -0.31718E-03   -0.30764E-03  2880   0.148E-02 0.533E-04
CGA:  13    -0.100566604908E+04   -0.92822E-04   -0.96935E-04  2880   0.298E-03 0.469E-04
CGA:  14    -0.100566610866E+04   -0.59582E-04   -0.76302E-04  2880   0.864E-03-0.136E-03
CGA:  15    -0.100566613802E+04   -0.29359E-04   -0.30256E-04  2880   0.486E-03 0.136E-04
CGA:  16    -0.100566615199E+04   -0.13972E-04   -0.18067E-04  2880   0.109E-03 0.441E-04
CGA:  17    -0.100566615660E+04   -0.46087E-05   -0.59432E-05  2880   0.809E-04 0.175E-04
  12 F= -.10056662E+04 E0= -.10056502E+04  d E =0.114809E-01  mag=     1.0000
       N       E                     dE             d eps       ncg     rms          ort
SDA:   1    -0.100542114571E+04    0.24501E+00    0.00000E+00  2880   0.128E+01 0.000E+00
CGA:   2    -0.100550789657E+04   -0.86751E-01   -0.97342E-01  2880   0.716E+00-0.192E-01
CGA:   3    -0.100563616308E+04   -0.12827E+00   -0.12676E+00  2880   0.473E+00 0.197E-01
CGA:   4    -0.100566580668E+04   -0.29644E-01   -0.29188E-01  2880   0.704E-01 0.828E-03
CGA:   5    -0.100567982380E+04   -0.14017E-01   -0.14010E-01  2880   0.544E-01-0.132E-03
CGA:   6    -0.100568438581E+04   -0.45620E-02   -0.45385E-02  2880   0.762E-02 0.330E-03
CGA:   7    -0.100568612821E+04   -0.17424E-02   -0.17794E-02  2880   0.100E-01-0.347E-03
CGA:   8    -0.100568676885E+04   -0.64064E-03   -0.65662E-03  2880   0.151E-02 0.294E-03
CGA:   9    -0.100568692267E+04   -0.15382E-03   -0.15410E-03  2880   0.142E-02 0.191E-05
CGA:  10    -0.100568722981E+04   -0.30715E-03   -0.31606E-03  2880   0.411E-03-0.892E-04
CGA:  11    -0.100568725532E+04   -0.25503E-04   -0.28565E-04  2880   0.252E-03 0.588E-04
CGA:  12    -0.100568731641E+04   -0.61090E-04   -0.63669E-04  2880   0.345E-03-0.267E-04
CGA:  13    -0.100568734043E+04   -0.24020E-04   -0.22688E-04  2880   0.535E-04-0.260E-04
CGA:  14    -0.100568734820E+04   -0.77757E-05   -0.75074E-05  2880   0.681E-04 0.951E-05
  13 F= -.10056873E+04 E0= -.10056712E+04  d E =-.211916E-01  mag=     1.0000
       N       E                     dE             d eps       ncg     rms          ort
SDA:   1    -0.100566776253E+04    0.19578E-01    0.00000E+00  2880   0.114E+00 0.000E+00
CGA:   2    -0.100567452467E+04   -0.67621E-02   -0.70398E-02  2880   0.571E-01-0.141E-02
CGA:   3    -0.100568708196E+04   -0.12557E-01   -0.12587E-01  2880   0.311E-01-0.360E-03
CGA:   4    -0.100568907382E+04   -0.19919E-02   -0.20234E-02  2880   0.539E-02 0.516E-03
CGA:   5    -0.100569025180E+04   -0.11780E-02   -0.12035E-02  2880   0.379E-02-0.274E-03
CGA:   6    -0.100569051918E+04   -0.26738E-03   -0.26970E-03  2880   0.535E-03-0.713E-05
CGA:   7    -0.100569067048E+04   -0.15130E-03   -0.14821E-03  2880   0.217E-03 0.203E-04
CGA:   8    -0.100569068501E+04   -0.14533E-04   -0.15977E-04  2880   0.920E-04 0.226E-04
CGA:   9    -0.100569070817E+04   -0.23152E-04   -0.28351E-04  2880   0.253E-03-0.352E-04
CGA:  10    -0.100569071472E+04   -0.65539E-05   -0.70198E-05  2880   0.101E-03 0.462E-05
  14 F= -.10056907E+04 E0= -.10056745E+04  d E =-.336652E-02  mag=     1.0000
       N       E                     dE             d eps       ncg     rms          ort
SDA:   1    -0.100563123361E+04    0.59475E-01    0.00000E+00  2880   0.190E+00 0.000E+00
CGA:   2    -0.100565500986E+04   -0.23776E-01   -0.23775E-01  2880   0.235E+00-0.101E-02
CGA:   3    -0.100568666823E+04   -0.31658E-01   -0.31659E-01  2880   0.477E-01-0.331E-03
CGA:   4    -0.100568954158E+04   -0.28734E-02   -0.28990E-02  2880   0.177E-01 0.795E-03
CGA:   5    -0.100569319726E+04   -0.36557E-02   -0.36966E-02  2880   0.209E-02-0.518E-03
CGA:   6    -0.100569360562E+04   -0.40836E-03   -0.39684E-03  2880   0.205E-02 0.168E-03
CGA:   7    -0.100569377813E+04   -0.17251E-03   -0.16439E-03  2880   0.475E-03-0.148E-03
CGA:   8    -0.100569381509E+04   -0.36964E-04   -0.38983E-04  2880   0.225E-03 0.464E-04
CGA:   9    -0.100569386665E+04   -0.51555E-04   -0.52562E-04  2880   0.190E-03-0.127E-04
CGA:  10    -0.100569388055E+04   -0.13904E-04   -0.14041E-04  2880   0.455E-04 0.164E-05
CGA:  11    -0.100569385497E+04    0.25583E-04   -0.28533E-04  2880   0.115E-02-0.110E-03
CGA:  12    -0.100569389498E+04   -0.40011E-04   -0.48509E-04  2880   0.555E-04 0.652E-04
CGA:  13    -0.100569389917E+04   -0.41887E-05   -0.42351E-05  2880   0.180E-04 0.285E-06
CGA:  14    -0.100569387168E+04    0.27488E-04   -0.15134E-04  2880   0.383E-03-0.556E-04
CGA:  15    -0.100569388320E+04   -0.11519E-04   -0.18031E-04  2880   0.771E-04 0.227E-04
CGA:  16    -0.100569389881E+04   -0.15610E-04   -0.16213E-04  2880   0.296E-04 0.112E-04
CGA:  17    -0.100569390384E+04   -0.50236E-05   -0.31599E-05  2880   0.186E-04-0.123E-04
  15 F= -.10056939E+04 E0= -.10056777E+04  d E =-.318912E-02  mag=     1.0000
       N       E                     dE             d eps       ncg     rms          ort
SDA:   1    -0.100469957613E+04    0.99432E+00    0.00000E+00  2880   0.331E+01 0.000E+00
CGA:   2    -0.100503291917E+04   -0.33334E+00   -0.44363E+00  2880   0.483E+01-0.250E+00
CGA:   3    -0.100553318416E+04   -0.50026E+00   -0.53755E+00  2880   0.163E+01-0.171E+00
CGA:   4    -0.100562168635E+04   -0.88502E-01   -0.98043E-01  2880   0.366E+00-0.249E+00
CGA:   5    -0.100566672719E+04   -0.45041E-01   -0.45755E-01  2880   0.336E+00-0.183E-02
CGA:   6    -0.100568555896E+04   -0.18832E-01   -0.21712E-01  2880   0.653E-01-0.342E-01
CGA:   7    -0.100569065242E+04   -0.50935E-02   -0.52809E-02  2880   0.257E-01-0.124E-02
CGA:   8    -0.100569488357E+04   -0.42311E-02   -0.42279E-02  2880   0.127E-01-0.161E-03
CGA:   9    -0.100569592558E+04   -0.10420E-02   -0.10585E-02  2880   0.371E-02 0.362E-03
CGA:  10    -0.100569638039E+04   -0.45481E-03   -0.44613E-03  2880   0.424E-02-0.117E-03
CGA:  11    -0.100569690827E+04   -0.52788E-03   -0.53058E-03  2880   0.122E-02 0.338E-04
CGA:  12    -0.100569701532E+04   -0.10705E-03   -0.11084E-03  2880   0.575E-03 0.389E-04
CGA:  13    -0.100569716948E+04   -0.15416E-03   -0.15966E-03  2880   0.957E-03-0.644E-04
CGA:  14    -0.100569721223E+04   -0.42745E-04   -0.48435E-04  2880   0.170E-03 0.357E-04
CGA:  15    -0.100569722722E+04   -0.14998E-04   -0.16115E-04  2880   0.152E-03 0.123E-04
CGA:  16    -0.100569725746E+04   -0.30236E-04   -0.30948E-04  2880   0.287E-03-0.435E-04
CGA:  17    -0.100569726533E+04   -0.78699E-05   -0.87535E-05  2880   0.755E-04 0.584E-05
  16 F= -.10056973E+04 E0= -.10056810E+04  d E =-.336149E-02  mag=     1.0000
       N       E                     dE             d eps       ncg     rms          ort
SDA:   1    -0.999875285546E+03    0.58220E+01    0.00000E+00  2880   0.252E+02 0.000E+00
CGA:   2    -0.100219024730E+04   -0.23150E+01   -0.29572E+01  2880   0.987E+01 0.361E+01
CGA:   3    -0.100398221632E+04   -0.17920E+01   -0.17702E+01  2880   0.158E+02-0.768E+01
CGA:   4    -0.100449683151E+04   -0.51462E+00   -0.12874E+01  2880   0.612E+01-0.428E+01
CGA:   5    -0.100521780823E+04   -0.72098E+00   -0.43678E+00  2880   0.163E+01-0.635E+00
CGA:   6    -0.100542932812E+04   -0.21152E+00   -0.21392E+00  2880   0.136E+01 0.219E+00
CGA:   7    -0.100550814019E+04   -0.78812E-01   -0.10478E+00  2880   0.158E+01-0.261E+00
CGA:   8    -0.100560509350E+04   -0.96953E-01   -0.82206E-01  2880   0.973E+00 0.127E+00
CGA:   9    -0.100564604231E+04   -0.40949E-01   -0.42426E-01  2880   0.209E+00-0.735E-01
CGA:  10    -0.100565983659E+04   -0.13794E-01   -0.15230E-01  2880   0.123E+00-0.519E-02
CGA:  11    -0.100566436643E+04   -0.45298E-02   -0.50654E-02  2880   0.358E-01-0.335E-02
CGA:  12    -0.100566786448E+04   -0.34981E-02   -0.34949E-02  2880   0.382E-01 0.287E-03
CGA:  13    -0.100567052723E+04   -0.26627E-02   -0.26353E-02  2880   0.268E-01-0.150E-02
CGA:  14    -0.100567359674E+04   -0.30695E-02   -0.30749E-02  2880   0.259E-01 0.736E-03
CGA:  15    -0.100567485409E+04   -0.12574E-02   -0.14127E-02  2880   0.838E-02 0.615E-03
CGA:  16    -0.100567552042E+04   -0.66633E-03   -0.66813E-03  2880   0.412E-02-0.147E-03
CGA:  17    -0.100567583691E+04   -0.31649E-03   -0.29808E-03  2880   0.321E-02-0.456E-03
CGA:  18    -0.100567609910E+04   -0.26219E-03   -0.27086E-03  2880   0.204E-02 0.386E-03
CGA:  19    -0.100567621864E+04   -0.11955E-03   -0.14114E-03  2880   0.108E-02 0.362E-03
CGA:  20    -0.100567633880E+04   -0.12016E-03   -0.11827E-03  2880   0.871E-03-0.101E-03
CGA:  21    -0.100567644596E+04   -0.10717E-03   -0.10883E-03  2880   0.152E-02-0.700E-04
CGA:  22    -0.100567649798E+04   -0.52021E-04   -0.72226E-04  2880   0.379E-03 0.309E-03
CGA:  23    -0.100567650186E+04   -0.38761E-05   -0.14547E-04  2880   0.106E-03 0.130E-03
  17 F= -.10056765E+04 E0= -.10056607E+04  d E =0.207635E-01  mag=     1.0000
       N       E                     dE             d eps       ncg     rms          ort
SDA:   1    -0.100353753107E+04    0.21390E+01    0.00000E+00  2880   0.583E+01 0.000E+00
CGA:   2    -0.100451049530E+04   -0.97296E+00   -0.93530E+00  2880   0.857E+01 0.638E+00
CGA:   3    -0.100534235001E+04   -0.83185E+00   -0.84390E+00  2880   0.256E+01 0.778E-01
CGA:   4    -0.100552790195E+04   -0.18555E+00   -0.19438E+00  2880   0.682E+00 0.854E-02
CGA:   5    -0.100562462435E+04   -0.96722E-01   -0.95904E-01  2880   0.688E+00 0.153E-01
CGA:   6    -0.100566892523E+04   -0.44301E-01   -0.46358E-01  2880   0.128E+00-0.404E-02
CGA:   7    -0.100568017963E+04   -0.11254E-01   -0.11285E-01  2880   0.613E-01 0.893E-03
CGA:   8    -0.100568820540E+04   -0.80258E-02   -0.80211E-02  2880   0.571E-01-0.382E-03
CGA:   9    -0.100569250482E+04   -0.42994E-02   -0.43411E-02  2880   0.130E-01 0.812E-03
CGA:  10    -0.100569370631E+04   -0.12015E-02   -0.12051E-02  2880   0.789E-02 0.228E-03
CGA:  11    -0.100569523472E+04   -0.15284E-02   -0.15786E-02  2880   0.107E-01-0.566E-03
CGA:  12    -0.100569585087E+04   -0.61615E-03   -0.63226E-03  2880   0.225E-02 0.221E-03
CGA:  13    -0.100569603703E+04   -0.18617E-03   -0.19059E-03  2880   0.134E-02 0.176E-03
CGA:  14    -0.100569626546E+04   -0.22843E-03   -0.23174E-03  2880   0.256E-02-0.633E-04
CGA:  15    -0.100569645377E+04   -0.18831E-03   -0.19215E-03  2880   0.472E-03 0.131E-03
CGA:  16    -0.100569647393E+04   -0.20158E-04   -0.24060E-04  2880   0.208E-03 0.637E-04
CGA:  17    -0.100569651592E+04   -0.41990E-04   -0.42457E-04  2880   0.455E-03-0.695E-05
CGA:  18    -0.100569655602E+04   -0.40105E-04   -0.36989E-04  2880   0.183E-03-0.141E-03
CGA:  19    -0.100569656274E+04   -0.67147E-05   -0.61791E-05  2880   0.681E-04-0.102E-04
  18 F= -.10056966E+04 E0= -.10056805E+04  d E =-.200609E-01  mag=     1.0000
       N       E                     dE             d eps       ncg     rms          ort
SDA:   1    -0.100408876426E+04    0.16078E+01    0.00000E+00  2880   0.917E+01 0.000E+00
CGA:   2    -0.100467467495E+04   -0.58591E+00   -0.61371E+00  2880   0.371E+01-0.684E+00
CGA:   3    -0.100536329462E+04   -0.68862E+00   -0.65724E+00  2880   0.279E+01 0.335E+00
CGA:   4    -0.100554931412E+04   -0.18602E+00   -0.19530E+00  2880   0.963E+00-0.732E-01
CGA:   5    -0.100560779234E+04   -0.58478E-01   -0.60689E-01  2880   0.519E+00-0.113E-01
CGA:   6    -0.100564543278E+04   -0.37640E-01   -0.36881E-01  2880   0.419E+00-0.625E-02
CGA:   7    -0.100567714708E+04   -0.31714E-01   -0.31332E-01  2880   0.159E+00-0.369E-02
CGA:   8    -0.100568753027E+04   -0.10383E-01   -0.10407E-01  2880   0.647E-01-0.602E-04
CGA:   9    -0.100569183668E+04   -0.43064E-02   -0.43435E-02  2880   0.307E-01-0.457E-03
CGA:  10    -0.100569485229E+04   -0.30156E-02   -0.30134E-02  2880   0.296E-01 0.192E-03
CGA:  11    -0.100569699635E+04   -0.21441E-02   -0.21581E-02  2880   0.160E-01 0.461E-03
CGA:  12    -0.100569822439E+04   -0.12280E-02   -0.12309E-02  2880   0.738E-02 0.799E-05
CGA:  13    -0.100569876466E+04   -0.54027E-03   -0.53590E-03  2880   0.512E-02-0.238E-03
CGA:  14    -0.100569931188E+04   -0.54722E-03   -0.54743E-03  2880   0.443E-02-0.313E-04
CGA:  15    -0.100569964558E+04   -0.33370E-03   -0.33570E-03  2880   0.275E-02 0.799E-04
CGA:  16    -0.100569985203E+04   -0.20646E-03   -0.20625E-03  2880   0.108E-02-0.526E-04
CGA:  17    -0.100569994178E+04   -0.89745E-04   -0.89688E-04  2880   0.951E-03-0.166E-04
CGA:  18    -0.100570001914E+04   -0.77359E-04   -0.77904E-04  2880   0.558E-03 0.779E-04
CGA:  19    -0.100570006897E+04   -0.49833E-04   -0.50086E-04  2880   0.383E-03 0.341E-04
CGA:  20    -0.100570010179E+04   -0.32814E-04   -0.32679E-04  2880   0.237E-03-0.189E-04
CGA:  21    -0.100570012297E+04   -0.21189E-04   -0.21105E-04  2880   0.154E-03 0.161E-04
CGA:  22    -0.100570013338E+04   -0.10408E-04   -0.10671E-04  2880   0.726E-04 0.983E-05
CGA:  23    -0.100570014223E+04   -0.88436E-05   -0.12971E-04  2880   0.199E-03-0.525E-04
  19 F= -.10057001E+04 E0= -.10056838E+04  d E =-.357949E-02  mag=     1.0000
       N       E                     dE             d eps       ncg     rms          ort
SDA:   1    -0.100516758538E+04    0.53255E+00    0.00000E+00  2880   0.609E+01 0.000E+00
CGA:   2    -0.100541469248E+04   -0.24711E+00   -0.29436E+00  2880   0.108E+01-0.762E+00
CGA:   3    -0.100558030231E+04   -0.16561E+00   -0.16495E+00  2880   0.976E+00 0.102E-01
CGA:   4    -0.100567513493E+04   -0.94833E-01   -0.94916E-01  2880   0.220E+00-0.102E-01
CGA:   5    -0.100569434631E+04   -0.19211E-01   -0.19196E-01  2880   0.104E+00-0.331E-02
CGA:   6    -0.100570772499E+04   -0.13379E-01   -0.13289E-01  2880   0.570E-01 0.189E-02
CGA:   7    -0.100571279484E+04   -0.50698E-02   -0.50728E-02  2880   0.143E-01-0.698E-03
CGA:   8    -0.100571437629E+04   -0.15815E-02   -0.15684E-02  2880   0.690E-02 0.681E-03
CGA:   9    -0.100571541150E+04   -0.10352E-02   -0.10595E-02  2880   0.693E-02-0.504E-03
CGA:  10    -0.100571594383E+04   -0.53233E-03   -0.53743E-03  2880   0.122E-02 0.326E-03
CGA:  11    -0.100571608695E+04   -0.14312E-03   -0.14233E-03  2880   0.741E-03 0.400E-04
CGA:  12    -0.100571629499E+04   -0.20804E-03   -0.21067E-03  2880   0.544E-03-0.175E-04
CGA:  13    -0.100571633532E+04   -0.40330E-04   -0.41570E-04  2880   0.114E-03 0.415E-04
CGA:  14    -0.100571636284E+04   -0.27520E-04   -0.25379E-04  2880   0.137E-03 0.206E-04
CGA:  15    -0.100571638546E+04   -0.22613E-04   -0.25077E-04  2880   0.166E-03-0.553E-04
CGA:  16    -0.100571638800E+04   -0.25408E-05   -0.42731E-05  2880   0.699E-04 0.249E-04
  20 F= -.10057164E+04 E0= -.10057002E+04  d E =-.162458E-01  mag=     1.0000
       N       E                     dE             d eps       ncg     rms          ort
SDA:   1    -0.100568519076E+04    0.31195E-01    0.00000E+00  2880   0.149E+00 0.000E+00
CGA:   2    -0.100569487435E+04   -0.96836E-02   -0.97735E-02  2880   0.773E-01 0.137E-02
CGA:   3    -0.100571022401E+04   -0.15350E-01   -0.15332E-01  2880   0.535E-01 0.388E-04
CGA:   4    -0.100571423615E+04   -0.40121E-02   -0.39471E-02  2880   0.692E-02 0.160E-03
CGA:   5    -0.100571574382E+04   -0.15077E-02   -0.15004E-02  2880   0.605E-02 0.521E-04
CGA:   6    -0.100571619409E+04   -0.45027E-03   -0.44713E-03  2880   0.704E-03-0.378E-04
CGA:   7    -0.100571633505E+04   -0.14096E-03   -0.16171E-03  2880   0.182E-02-0.174E-03
CGA:   8    -0.100571640501E+04   -0.69951E-04   -0.75530E-04  2880   0.341E-03 0.863E-04
CGA:   9    -0.100571641305E+04   -0.80447E-05   -0.12358E-04  2880   0.117E-03 0.514E-04
CGA:  10    -0.100571642355E+04   -0.10501E-04   -0.11535E-04  2880   0.204E-03 0.442E-04
CGA:  11    -0.100571645236E+04   -0.28814E-04   -0.28822E-04  2880   0.319E-04 0.141E-05
CGA:  12    -0.100571645029E+04    0.20730E-05   -0.89913E-05  2880   0.442E-03-0.648E-04
CGA:  13    -0.100571646215E+04   -0.11859E-04   -0.16134E-04  2880   0.149E-04 0.481E-04
CGA:  14    -0.100571646261E+04   -0.46326E-06   -0.84590E-06  2880   0.920E-05 0.625E-05
  21 F= -.10057165E+04 E0= -.10057003E+04  d E =-.746187E-04  mag=     1.0000
       N       E                     dE             d eps       ncg     rms          ort
SDA:   1    -0.100549797505E+04    0.21849E+00    0.00000E+00  2880   0.546E+00 0.000E+00
CGA:   2    -0.100561110178E+04   -0.11313E+00   -0.11248E+00  2880   0.983E+00 0.660E-02
CGA:   3    -0.100569317138E+04   -0.82070E-01   -0.80796E-01  2880   0.889E-01-0.334E-02
CGA:   4    -0.100570342912E+04   -0.10258E-01   -0.10258E-01  2880   0.826E-01 0.273E-03
CGA:   5    -0.100571259328E+04   -0.91642E-02   -0.91632E-02  2880   0.919E-02-0.693E-03
CGA:   6    -0.100571364199E+04   -0.10487E-02   -0.10502E-02  2880   0.866E-02 0.294E-03
CGA:   7    -0.100571472583E+04   -0.10838E-02   -0.10844E-02  2880   0.228E-02-0.260E-03
CGA:   8    -0.100571488372E+04   -0.15789E-03   -0.16296E-03  2880   0.740E-03 0.986E-04
CGA:   9    -0.100571509690E+04   -0.21318E-03   -0.21776E-03  2880   0.695E-03-0.290E-04
CGA:  10    -0.100571512719E+04   -0.30289E-04   -0.35359E-04  2880   0.117E-03 0.633E-04
CGA:  11    -0.100571517500E+04   -0.47808E-04   -0.48380E-04  2880   0.287E-03-0.248E-05
CGA:  12    -0.100571519474E+04   -0.19738E-04   -0.17098E-04  2880   0.467E-04-0.372E-04
CGA:  13    -0.100571519809E+04   -0.33534E-05   -0.38567E-05  2880   0.312E-04 0.139E-04
  22 F= -.10057152E+04 E0= -.10056990E+04  d E =0.126452E-02  mag=     1.0000
       N       E                     dE             d eps       ncg     rms          ort
SDA:   1    -0.100202973420E+04    0.36855E+01    0.00000E+00  2880   0.111E+02 0.000E+00
CGA:   2    -0.100349447792E+04   -0.14647E+01   -0.14588E+01  2880   0.902E+01 0.216E+01
CGA:   3    -0.100503896250E+04   -0.15445E+01   -0.16744E+01  2880   0.769E+01-0.296E+01
CGA:   4    -0.100539760878E+04   -0.35865E+00   -0.36817E+00  2880   0.151E+01-0.165E+00
CGA:   5    -0.100550560667E+04   -0.10800E+00   -0.95294E-01  2880   0.749E+00 0.770E-01
CGA:   6    -0.100559951260E+04   -0.93906E-01   -0.93953E-01  2880   0.713E+00-0.430E-03
CGA:   7    -0.100565088775E+04   -0.51375E-01   -0.50638E-01  2880   0.101E+00 0.645E-02
CGA:   8    -0.100565739352E+04   -0.65058E-02   -0.67534E-02  2880   0.884E-01 0.809E-03
CGA:   9    -0.100567218001E+04   -0.14786E-01   -0.14755E-01  2880   0.427E-01 0.638E-03
CGA:  10    -0.100567435583E+04   -0.21758E-02   -0.21526E-02  2880   0.128E-01-0.101E-02
CGA:  11    -0.100567618435E+04   -0.18285E-02   -0.18197E-02  2880   0.159E-01 0.267E-03
CGA:  12    -0.100567803157E+04   -0.18472E-02   -0.18480E-02  2880   0.560E-02 0.142E-03
CGA:  13    -0.100567838954E+04   -0.35797E-03   -0.33625E-03  2880   0.220E-02-0.428E-03
CGA:  14    -0.100567895720E+04   -0.56765E-03   -0.53801E-03  2880   0.977E-03 0.197E-03
CGA:  15    -0.100567901990E+04   -0.62706E-04   -0.72406E-04  2880   0.450E-03 0.175E-03
CGA:  16    -0.100567913466E+04   -0.11476E-03   -0.12774E-03  2880   0.109E-02-0.110E-03
CGA:  17    -0.100567917920E+04   -0.44536E-04   -0.45124E-04  2880   0.295E-03 0.534E-05
CGA:  18    -0.100567918714E+04   -0.79443E-05   -0.10473E-04  2880   0.944E-04 0.271E-04
  23 F= -.10056792E+04 E0= -.10056631E+04  d E =0.360110E-01  mag=     1.0000
       N       E                     dE             d eps       ncg     rms          ort
SDA:   1    -0.100480699271E+04    0.87219E+00    0.00000E+00  2880   0.247E+01 0.000E+00
CGA:   2    -0.100528082401E+04   -0.47383E+00   -0.43875E+00  2880   0.195E+01 0.470E+00
CGA:   3    -0.100558682290E+04   -0.30600E+00   -0.31802E+00  2880   0.102E+01-0.432E+00
CGA:   4    -0.100566197346E+04   -0.75151E-01   -0.75139E-01  2880   0.289E+00-0.297E-02
CGA:   5    -0.100568327436E+04   -0.21301E-01   -0.21290E-01  2880   0.133E+00 0.182E-02
CGA:   6    -0.100570115131E+04   -0.17877E-01   -0.17807E-01  2880   0.729E-01 0.194E-02
CGA:   7    -0.100570707705E+04   -0.59257E-02   -0.60612E-02  2880   0.157E-01 0.304E-03
CGA:   8    -0.100570860530E+04   -0.15283E-02   -0.15426E-02  2880   0.145E-01 0.715E-03
CGA:   9    -0.100571050925E+04   -0.19039E-02   -0.19078E-02  2880   0.606E-02-0.422E-03
CGA:  10    -0.100571109365E+04   -0.58440E-03   -0.58379E-03  2880   0.193E-02-0.833E-04
CGA:  11    -0.100571137577E+04   -0.28212E-03   -0.27327E-03  2880   0.219E-02 0.297E-03
CGA:  12    -0.100571164679E+04   -0.27102E-03   -0.26937E-03  2880   0.109E-02-0.182E-03
CGA:  13    -0.100571174432E+04   -0.97529E-04   -0.98842E-04  2880   0.281E-03 0.748E-04
CGA:  14    -0.100571179898E+04   -0.54657E-04   -0.53614E-04  2880   0.380E-03 0.150E-04
CGA:  15    -0.100571184503E+04   -0.46054E-04   -0.46152E-04  2880   0.637E-04 0.367E-04
CGA:  16    -0.100571180679E+04    0.38238E-04   -0.31714E-04  2880   0.194E-02-0.209E-03
CGA:  17    -0.100571186638E+04   -0.59586E-04   -0.75754E-04  2880   0.494E-04 0.151E-03
CGA:  18    -0.100571186721E+04   -0.82843E-06   -0.22714E-05  2880   0.114E-04 0.162E-04
  24 F= -.10057119E+04 E0= -.10056957E+04  d E =-.326801E-01  mag=     1.0000
       N       E                     dE             d eps       ncg     rms          ort
SDA:   1    -0.100543235589E+04    0.27951E+00    0.00000E+00  2880   0.834E+00 0.000E+00
CGA:   2    -0.100555174915E+04   -0.11939E+00   -0.11793E+00  2880   0.995E+00 0.479E-01
CGA:   3    -0.100567058635E+04   -0.11884E+00   -0.11888E+00  2880   0.305E+00 0.249E-02
CGA:   4    -0.100569116350E+04   -0.20577E-01   -0.20886E-01  2880   0.927E-01-0.359E-02
CGA:   5    -0.100570905554E+04   -0.17892E-01   -0.17893E-01  2880   0.465E-01-0.207E-03
CGA:   6    -0.100571249189E+04   -0.34364E-02   -0.34038E-02  2880   0.885E-02 0.459E-03
CGA:   7    -0.100571445364E+04   -0.19617E-02   -0.19965E-02  2880   0.104E-01-0.369E-03
CGA:   8    -0.100571508332E+04   -0.62968E-03   -0.64938E-03  2880   0.192E-02 0.174E-03
CGA:   9    -0.100571530444E+04   -0.22112E-03   -0.22131E-03  2880   0.179E-02-0.830E-05
CGA:  10    -0.100571567330E+04   -0.36886E-03   -0.37146E-03  2880   0.719E-03-0.336E-04
CGA:  11    -0.100571571057E+04   -0.37276E-04   -0.42374E-04  2880   0.276E-03 0.715E-04
CGA:  12    -0.100571577746E+04   -0.66885E-04   -0.65703E-04  2880   0.456E-03 0.120E-04
CGA:  13    -0.100571581922E+04   -0.41768E-04   -0.40819E-04  2880   0.736E-04-0.248E-04
CGA:  14    -0.100571582497E+04   -0.57489E-05   -0.62695E-05  2880   0.640E-04 0.137E-04
CGA:  15    -0.100571583929E+04   -0.14316E-04   -0.19322E-04  2880   0.118E-03-0.389E-04
CGA:  16    -0.100571584423E+04   -0.49396E-05   -0.56724E-05  2880   0.973E-05 0.795E-05
  25 F= -.10057158E+04 E0= -.10056996E+04  d E =-.397702E-02  mag=     1.0000
       N       E                     dE             d eps       ncg     rms          ort
SDA:   1    -0.100564621334E+04    0.69626E-01    0.00000E+00  2880   0.199E+00 0.000E+00
CGA:   2    -0.100567614787E+04   -0.29935E-01   -0.29767E-01  2880   0.316E+00 0.475E-02
CGA:   3    -0.100570927966E+04   -0.33132E-01   -0.32845E-01  2880   0.349E-01-0.400E-02
CGA:   4    -0.100571370004E+04   -0.44204E-02   -0.44205E-02  2880   0.312E-01 0.395E-04
CGA:   5    -0.100571709136E+04   -0.33913E-02   -0.33813E-02  2880   0.726E-02-0.505E-03
CGA:   6    -0.100571757756E+04   -0.48619E-03   -0.50233E-03  2880   0.245E-02 0.248E-03
CGA:   7    -0.100571814524E+04   -0.56768E-03   -0.58199E-03  2880   0.146E-02-0.140E-03
CGA:   8    -0.100571821324E+04   -0.67998E-04   -0.77184E-04  2880   0.315E-03 0.119E-03
CGA:   9    -0.100571830902E+04   -0.95784E-04   -0.93646E-04  2880   0.496E-03 0.137E-04
CGA:  10    -0.100571835473E+04   -0.45712E-04   -0.42479E-04  2880   0.113E-03-0.694E-04
CGA:  11    -0.100571836322E+04   -0.84898E-05   -0.94171E-05  2880   0.855E-04 0.278E-04
CGA:  12    -0.100571838107E+04   -0.17846E-04   -0.18217E-04  2880   0.919E-04-0.917E-05
CGA:  13    -0.100571838802E+04   -0.69498E-05   -0.68718E-05  2880   0.136E-04-0.199E-05
  26 F= -.10057184E+04 E0= -.10057022E+04  d E =-.254379E-02  mag=     1.0000
