       N       E                     dE             d eps       ncg     rms          rms(c)
DAV:   1     0.112307684810E+05    0.11231E+05   -0.43006E+05 34680   0.160E+03
DAV:   2     0.238129106140E+02   -0.11207E+05   -0.10196E+05 34160   0.487E+02
DAV:   3    -0.160872501793E+04   -0.16325E+04   -0.15469E+04 36450   0.198E+02
DAV:   4    -0.169260673409E+04   -0.83882E+02   -0.82679E+02 39270   0.456E+01
DAV:   5    -0.169367725065E+04   -0.10705E+01   -0.10673E+01 37620   0.558E+00    0.146E+02
DAV:   6    -0.128476708305E+04    0.40891E+03   -0.80985E+02 41300   0.758E+01    0.119E+02
DAV:   7    -0.133439472500E+04   -0.49628E+02   -0.35662E+02 36960   0.646E+01    0.874E+01
DAV:   8    -0.130928289811E+04    0.25112E+02   -0.50165E+01 38790   0.226E+01    0.679E+01
DAV:   9    -0.131687752193E+04   -0.75946E+01   -0.50465E+01 37090   0.309E+01    0.647E+01
DAV:  10    -0.132104445564E+04   -0.41669E+01   -0.27524E+01 37820   0.162E+01    0.408E+01
DAV:  11    -0.131910859875E+04    0.19359E+01   -0.82759E+00 36730   0.103E+01    0.230E+01
DAV:  12    -0.132027650047E+04   -0.11679E+01   -0.57610E+00 40550   0.619E+00    0.240E+01
DAV:  13    -0.132136938177E+04   -0.10929E+01   -0.24409E+01 37100   0.462E+00    0.242E+01
DAV:  14    -0.132065751089E+04    0.71187E+00   -0.97359E-01 36680   0.330E+00    0.167E+01
DAV:  15    -0.132111439542E+04   -0.45688E+00   -0.35680E-01 36520   0.872E-01    0.171E+01
DAV:  16    -0.132104685013E+04    0.67545E-01   -0.47396E-01 37430   0.956E-01    0.185E+01
DAV:  17    -0.132092995816E+04    0.11689E+00   -0.95330E-01 39720   0.759E-01    0.194E+01
DAV:  18    -0.132118442237E+04   -0.25446E+00   -0.59848E-01 35900   0.526E-01    0.197E+01
DAV:  19    -0.132127035146E+04   -0.85929E-01   -0.12247E-01 34760   0.362E-01    0.198E+01
DAV:  20    -0.132128575503E+04   -0.15404E-01   -0.15846E-02 34100   0.174E-01    0.198E+01
DAV:  21    -0.132133324367E+04   -0.47489E-01   -0.51698E-02 36890   0.336E-01    0.198E+01
DAV:  22    -0.132049118149E+04    0.84206E+00   -0.18903E+01 39450   0.493E+00    0.259E+01
DAV:  23    -0.132204370026E+04   -0.15525E+01   -0.25459E+00 36520   0.209E+00    0.236E+01
DAV:  24    -0.132246622738E+04   -0.42253E+00   -0.39506E-01 35110   0.102E+00    0.226E+01
DAV:  25    -0.132252447984E+04   -0.58252E-01   -0.17972E-01 37870   0.622E-01    0.220E+01
DAV:  26    -0.132257643559E+04   -0.51956E-01   -0.76884E-02 35780   0.292E-01    0.219E+01
DAV:  27    -0.132246321175E+04    0.11322E+00   -0.28344E-01 43510   0.844E-01    0.221E+01
DAV:  28    -0.132250020465E+04   -0.36993E-01   -0.23465E-01 39560   0.115E+00    0.221E+01
DAV:  29    -0.132208773256E+04    0.41247E+00   -0.29513E-01 41680   0.137E+00    0.212E+01
DAV:  30    -0.132223659603E+04   -0.14886E+00   -0.98552E-01 40410   0.147E+00    0.188E+01
DAV:  31    -0.132346604153E+04   -0.12294E+01   -0.31571E-01 35320   0.171E+00    0.186E+01
DAV:  32    -0.132326316471E+04    0.20288E+00   -0.10402E-01 40160   0.880E-01    0.179E+01
DAV:  33    -0.132334458838E+04   -0.81424E-01   -0.20135E-02 34800   0.302E-01    0.179E+01
DAV:  34    -0.132324053691E+04    0.10405E+00   -0.30377E-03 34410   0.173E-01    0.180E+01
DAV:  35    -0.132317181113E+04    0.68726E-01   -0.13606E-03 36970   0.938E-02    0.181E+01
DAV:  36    -0.132240190222E+04    0.76991E+00   -0.85078E-02 40280   0.120E+00    0.202E+01
DAV:  37    -0.132236296556E+04    0.38937E-01   -0.36815E-02 37380   0.273E-01    0.204E+01
DAV:  38    -0.132236418645E+04   -0.12209E-02   -0.12648E-03 35610   0.471E-02    0.204E+01
DAV:  39    -0.132241127149E+04   -0.47085E-01   -0.31597E-03 38750   0.123E-01    0.203E+01
DAV:  40    -0.132255091817E+04   -0.13965E+00   -0.62727E-02 43900   0.466E-01    0.199E+01
DAV:  41    -0.132324680511E+04   -0.69589E+00   -0.54482E-01 41630   0.182E+00    0.184E+01
DAV:  42    -0.132354787793E+04   -0.30107E+00   -0.88432E-01 43420   0.103E+00    0.180E+01
DAV:  43    -0.132376393677E+04   -0.21606E+00   -0.10293E+00 35260   0.903E-01    0.188E+01
DAV:  44    -0.132384910433E+04   -0.85168E-01   -0.47593E-02 35500   0.525E-01    0.189E+01
DAV:  45    -0.132385449511E+04   -0.53908E-02   -0.10910E-02 36220   0.176E-01    0.189E+01
DAV:  46    -0.132385965358E+04   -0.51585E-02   -0.19667E-01 39370   0.543E-01    0.201E+01
DAV:  47    -0.132389380110E+04   -0.34148E-01   -0.12705E-01 36910   0.598E-01    0.209E+01
DAV:  48    -0.132388878709E+04    0.50140E-02   -0.17842E-02 37410   0.300E-01    0.211E+01
DAV:  49    -0.132389206762E+04   -0.32805E-02   -0.28489E-03 35560   0.915E-02    0.212E+01
DAV:  50    -0.132389298616E+04   -0.91854E-03   -0.21520E-03 39460   0.179E-01    0.213E+01
DAV:  51    -0.132336933755E+04    0.52365E+00   -0.10436E-01 42730   0.109E+00    0.216E+01
DAV:  52    -0.132326936423E+04    0.99973E-01   -0.33694E-02 38920   0.354E-01    0.220E+01
DAV:  53    -0.132360885798E+04   -0.33949E+00   -0.74618E-02 38360   0.105E+00    0.210E+01
DAV:  54    -0.132419622622E+04   -0.58737E+00   -0.20446E-01 40830   0.164E+00    0.200E+01
DAV:  55    -0.132435021097E+04   -0.15398E+00   -0.34816E-01 41890   0.193E+00    0.209E+01
DAV:  56    -0.132443561883E+04   -0.85408E-01   -0.21570E+00 44760   0.427E+00    0.230E+01
DAV:  57    -0.132424346168E+04    0.19216E+00   -0.12084E+00 38140   0.237E+00    0.224E+01
DAV:  58    -0.132422873765E+04    0.14724E-01   -0.14396E-01 36620   0.665E-01    0.225E+01
DAV:  59    -0.132424719328E+04   -0.18456E-01   -0.13667E-02 35980   0.185E-01    0.227E+01
DAV:  60    -0.132422151687E+04    0.25676E-01   -0.86013E-03 38680   0.171E-01    0.227E+01
DAV:  61    -0.132226714675E+04    0.19544E+01   -0.16336E+00 43630   0.431E+00    0.202E+01
DAV:  62    -0.132367140256E+04   -0.14043E+01   -0.22546E+00 39650   0.310E+00    0.170E+01
DAV:  63    -0.132321738715E+04    0.45402E+00   -0.38230E-01 44930   0.200E+00    0.183E+01
DAV:  64    -0.132288215306E+04    0.33523E+00   -0.11990E-01 38250   0.799E-01    0.193E+01
DAV:  65    -0.132202586288E+04    0.85629E+00   -0.15070E-01 44920   0.160E+00    0.223E+01
DAV:  66    -0.132306085142E+04   -0.10350E+01   -0.55688E-01 45290   0.356E+00    0.211E+01
DAV:  67    -0.132333634568E+04   -0.27549E+00   -0.35999E-01 38760   0.143E+00    0.220E+01
DAV:  68    -0.132372182784E+04   -0.38548E+00   -0.31508E-01 37620   0.187E+00    0.227E+01
DAV:  69    -0.132386434614E+04   -0.14252E+00   -0.18543E-01 35180   0.787E-01    0.234E+01
DAV:  70    -0.132389917263E+04   -0.34826E-01   -0.33607E-02 36640   0.293E-01    0.236E+01
DAV:  71    -0.132396827345E+04   -0.69101E-01   -0.24447E+01 40110   0.931E+00    0.295E+01
DAV:  72    -0.132555588622E+04   -0.15876E+01   -0.18529E+00 36120   0.252E+00    0.300E+01
DAV:  73    -0.132582675386E+04   -0.27087E+00   -0.12420E-01 36720   0.847E-01    0.305E+01
DAV:  74    -0.132581819115E+04    0.85627E-02   -0.29851E-02 36090   0.259E-01    0.304E+01
DAV:  75    -0.132625533363E+04   -0.43714E+00   -0.91502E-02 44450   0.112E+00    0.315E+01
DAV:  76    -0.132585030022E+04    0.40503E+00   -0.57110E-01 43890   0.214E+00    0.314E+01
DAV:  77    -0.132630657973E+04   -0.45628E+00   -0.71946E-01 40950   0.158E+00    0.319E+01
DAV:  78    -0.132603018172E+04    0.27640E+00   -0.23390E+00 42190   0.141E+00    0.337E+01
DAV:  79    -0.132668065870E+04   -0.65048E+00   -0.31003E-01 40240   0.153E+00    0.352E+01
DAV:  80    -0.132674898720E+04   -0.68329E-01   -0.46778E-02 36150   0.359E-01    0.353E+01
DAV:  81    -0.132621306944E+04    0.53592E+00   -0.10682E-01 42180   0.118E+00    0.338E+01
DAV:  82    -0.132629731362E+04   -0.84244E-01   -0.27145E-02 39910   0.676E-01    0.344E+01
DAV:  83    -0.132641527183E+04   -0.11796E+00   -0.37632E-02 46690   0.703E-01    0.350E+01
DAV:  84    -0.132667901078E+04   -0.26374E+00   -0.50681E-02 44050   0.718E-01    0.356E+01
DAV:  85    -0.132682459943E+04   -0.14559E+00   -0.31508E-02 45310   0.591E-01    0.345E+01
DAV:  86    -0.132268395693E+04    0.41406E+01   -0.19181E+00 44370   0.732E+00    0.254E+01
DAV:  87    -0.132377521875E+04   -0.10913E+01   -0.13927E+00 39410   0.314E+00    0.266E+01
DAV:  88    -0.132420166958E+04   -0.42645E+00   -0.33630E-01 42810   0.147E+00    0.284E+01
DAV:  89    -0.132454071868E+04   -0.33905E+00   -0.21558E+00 41330   0.822E-01    0.325E+01
DAV:  90    -0.132455907385E+04   -0.18355E-01   -0.85480E-01 37720   0.139E+00    0.333E+01
DAV:  91    -0.132108765861E+04    0.34714E+01   -0.20865E+01 42810   0.113E+01    0.193E+01
DAV:  92    -0.132364407857E+04   -0.25564E+01   -0.45089E+00 37850   0.547E+00    0.156E+01
DAV:  93    -0.132372204723E+04   -0.77969E-01   -0.40915E-01 38400   0.155E+00    0.151E+01
DAV:  94    -0.132376711255E+04   -0.45065E-01   -0.17658E-01 46450   0.157E+00    0.140E+01
DAV:  95    -0.132364272716E+04    0.12439E+00   -0.12794E-01 45520   0.165E+00    0.141E+01
DAV:  96    -0.132344408194E+04    0.19865E+00   -0.11618E-01 46260   0.179E+00    0.151E+01
DAV:  97    -0.132337233492E+04    0.71747E-01   -0.11815E-01 39780   0.696E-01    0.160E+01
DAV:  98    -0.132335277743E+04    0.19557E-01   -0.15080E-02 36240   0.195E-01    0.162E+01
DAV:  99    -0.132334037560E+04    0.12402E-01   -0.11627E-03 39790   0.111E-01    0.162E+01
DAV: 100    -0.132335114199E+04   -0.10766E-01   -0.17687E-03 40810   0.148E-01    0.160E+01
DAV: 101    -0.132393165531E+04   -0.58051E+00   -0.34145E-01 41380   0.312E+00    0.113E+01
DAV: 102    -0.132384606299E+04    0.85592E-01   -0.13404E-01 37240   0.102E+00    0.114E+01
DAV: 103    -0.132369112275E+04    0.15494E+00   -0.24552E-02 45270   0.682E-01    0.120E+01
DAV: 104    -0.132360680975E+04    0.84313E-01   -0.14023E-02 41720   0.336E-01    0.121E+01
DAV: 105    -0.132359973026E+04    0.70795E-02   -0.36640E-03 37060   0.981E-02    0.122E+01
DAV: 106    -0.132370479898E+04   -0.10507E+00   -0.48935E-03 42870   0.367E-01    0.121E+01
DAV: 107    -0.132373319765E+04   -0.28399E-01   -0.44724E-03 39540   0.262E-01    0.120E+01
DAV: 108    -0.132374734336E+04   -0.14146E-01   -0.30196E-03 43930   0.166E-01    0.121E+01
DAV: 109    -0.132374665699E+04    0.68637E-03   -0.96557E-04 34920   0.617E-02    0.121E+01
DAV: 110    -0.132374583259E+04    0.82440E-03   -0.12431E-04 29270   0.570E-02    0.121E+01
DAV: 111    -0.132400963860E+04   -0.26381E+00   -0.98721E-02 44540   0.198E+00    0.116E+01
DAV: 112    -0.132397579039E+04    0.33848E-01   -0.73046E-02 40000   0.888E-01    0.106E+01
DAV: 113    -0.132393714265E+04    0.38648E-01   -0.48343E-02 44880   0.971E-01    0.899E+00
DAV: 114    -0.132391255476E+04    0.24588E-01   -0.53445E-02 44710   0.105E+00    0.744E+00
DAV: 115    -0.132394529360E+04   -0.32739E-01   -0.51139E-02 42510   0.102E+00    0.577E+00
DAV: 116    -0.132396279782E+04   -0.17504E-01   -0.54452E-02 45470   0.107E+00    0.497E+00
DAV: 117    -0.132397346041E+04   -0.10663E-01   -0.38438E-02 37610   0.489E-01    0.458E+00
DAV: 118    -0.132397473060E+04   -0.12702E-02   -0.66267E-03 42530   0.221E-01    0.437E+00
DAV: 119    -0.132397287176E+04    0.18588E-02   -0.21551E-03 39550   0.952E-02    0.428E+00
DAV: 120    -0.132397105762E+04    0.18141E-02   -0.22961E-04 34730   0.805E-02    0.418E+00
DAV: 121    -0.132392763707E+04    0.43421E-01   -0.55668E-02 45110   0.107E+00    0.498E+00
DAV: 122    -0.132393671306E+04   -0.90760E-02   -0.30729E-02 37530   0.716E-01    0.432E+00
DAV: 123    -0.132393372135E+04    0.29917E-02   -0.64773E-03 43690   0.401E-01    0.407E+00
DAV: 124    -0.132393670615E+04   -0.29848E-02   -0.84460E-03 45740   0.327E-01    0.367E+00
DAV: 125    -0.132393949167E+04   -0.27855E-02   -0.57759E-03 45390   0.299E-01    0.321E+00
DAV: 126    -0.132396493995E+04   -0.25448E-01   -0.38454E-02 40660   0.107E+00    0.225E+00
DAV: 127    -0.132396401045E+04    0.92951E-03   -0.23670E-02 36880   0.295E-01    0.222E+00
DAV: 128    -0.132396309226E+04    0.91819E-03   -0.10032E-03 39450   0.100E-01    0.218E+00
DAV: 129    -0.132396178319E+04    0.13091E-02   -0.36757E-04 38810   0.621E-02    0.211E+00
DAV: 130    -0.132396029681E+04    0.14864E-02   -0.17977E-04 31920   0.690E-02    0.203E+00
DAV: 131    -0.132395022831E+04    0.10068E-01   -0.15265E-02 42220   0.586E-01    0.177E+00
DAV: 132    -0.132395150536E+04   -0.12770E-02   -0.66195E-03 37310   0.234E-01    0.160E+00
DAV: 133    -0.132395165307E+04   -0.14772E-03   -0.87354E-04 41410   0.203E-01    0.142E+00
DAV: 134    -0.132395049906E+04    0.11540E-02   -0.21093E-03 46880   0.240E-01    0.117E+00
DAV: 135    -0.132395050164E+04   -0.25711E-05   -0.27881E-03 42480   0.132E-01    0.102E+00
DAV: 136    -0.132395030744E+04    0.19420E-03   -0.55389E-04 39380   0.846E-02    0.927E-01
DAV: 137    -0.132394999061E+04    0.31682E-03   -0.40455E-04 35230   0.406E-02    0.873E-01
DAV: 138    -0.132394990919E+04    0.81427E-04   -0.35640E-05 20500   0.183E-02    0.831E-01
DAV: 139    -0.132394965978E+04    0.24941E-03   -0.91877E-05 27600   0.266E-02    0.758E-01
DAV: 140    -0.132394953497E+04    0.12481E-03   -0.14359E-04 30260   0.265E-02    0.664E-01
DAV: 141    -0.132394937367E+04    0.16130E-03   -0.21746E-04 33860   0.357E-02    0.518E-01
DAV: 142    -0.132394930507E+04    0.68605E-04   -0.29256E-04 36340   0.398E-02    0.365E-01
DAV: 143    -0.132394927649E+04    0.28572E-04   -0.36346E-04 35280   0.382E-02
   1 F= -.13239493E+04 E0= -.13239493E+04  d E =-.132395E+04  mag=   119.9996
       N       E                     dE             d eps       ncg     rms          rms(c)
DAV:   1    -0.132394993447E+04   -0.62941E-03   -0.77410E-03 43480   0.343E-01    0.882E-02
DAV:   2    -0.132395014169E+04   -0.20722E-03   -0.14781E-03 37840   0.700E-02    0.624E-02
DAV:   3    -0.132395014641E+04   -0.47159E-05   -0.72530E-05 20940   0.275E-02    0.354E-02
DAV:   4    -0.132395015011E+04   -0.37005E-05   -0.89685E-06 17920   0.952E-03
   2 F= -.13239502E+04 E0= -.13239502E+04  d E =-.873617E-03  mag=   119.9999
       N       E                     dE             d eps       ncg     rms          rms(c)
DAV:   1    -0.132395051798E+04   -0.37157E-03   -0.48751E-03 41220   0.276E-01    0.448E-02
DAV:   2    -0.132395064293E+04   -0.12495E-03   -0.88217E-04 37120   0.501E-02    0.233E-02
DAV:   3    -0.132395065084E+04   -0.79066E-05   -0.24889E-05 19060   0.112E-02    0.137E-02
DAV:   4    -0.132395063806E+04    0.12780E-04   -0.25676E-06 17920   0.382E-03
   3 F= -.13239506E+04 E0= -.13239506E+04  d E =-.487945E-03  mag=   120.0000
       N       E                     dE             d eps       ncg     rms          rms(c)
DAV:   1    -0.131829905886E+04    0.56516E+01   -0.29212E+02 44320   0.664E+01    0.115E+01
DAV:   2    -0.132377309865E+04   -0.54740E+01   -0.50353E+01 36470   0.120E+01    0.681E+00
DAV:   3    -0.132386773465E+04   -0.94636E-01   -0.15113E+00 37550   0.266E+00    0.307E+00
DAV:   4    -0.132385224302E+04    0.15492E-01   -0.11759E-01 40080   0.890E-01    0.231E+00
DAV:   5    -0.132383684928E+04    0.15394E-01   -0.22749E-02 40900   0.545E-01    0.157E+00
DAV:   6    -0.132382431545E+04    0.12534E-01   -0.26850E-02 42420   0.670E-01    0.753E-01
DAV:   7    -0.132382651712E+04   -0.22017E-02   -0.16419E-02 39260   0.343E-01    0.245E-01
DAV:   8    -0.132382669860E+04   -0.18149E-03   -0.18321E-03 37280   0.108E-01    0.144E-01
DAV:   9    -0.132382650570E+04    0.19290E-03   -0.21071E-04 34980   0.379E-02    0.919E-02
DAV:  10    -0.132382652162E+04   -0.15923E-04   -0.10758E-04 26420   0.379E-02
   4 F= -.13238265E+04 E0= -.13238265E+04  d E =0.124116E+00  mag=   120.0000
       N       E                     dE             d eps       ncg     rms          rms(c)
DAV:   1    -0.132143955528E+04    0.23870E+01   -0.84891E+01 47810   0.438E+01    0.797E+00
DAV:   2    -0.132388006424E+04   -0.24405E+01   -0.22117E+01 38390   0.776E+00    0.472E+00
DAV:   3    -0.132395125155E+04   -0.71187E-01   -0.79579E-01 37700   0.197E+00    0.225E+00
DAV:   4    -0.132395024614E+04    0.10054E-02   -0.53126E-02 40810   0.589E-01    0.147E+00
DAV:   5    -0.132394131183E+04    0.89343E-02   -0.16077E-02 40510   0.387E-01    0.977E-01
DAV:   6    -0.132393711340E+04    0.41984E-02   -0.13416E-02 40380   0.437E-01    0.575E-01
DAV:   7    -0.132393652202E+04    0.59138E-03   -0.84984E-03 39750   0.288E-01    0.201E-01
DAV:   8    -0.132393763993E+04   -0.11179E-02   -0.20394E-03 37670   0.129E-01    0.106E-01
DAV:   9    -0.132393747468E+04    0.16525E-03   -0.45804E-04 36770   0.420E-02    0.994E-02
DAV:  10    -0.132393730611E+04    0.16857E-03   -0.33213E-05 21300   0.207E-02    0.567E-02
DAV:  11    -0.132393753565E+04   -0.22955E-03   -0.31968E-05 22700   0.198E-02    0.240E-02
DAV:  12    -0.132393751249E+04    0.23160E-04   -0.23833E-05 19040   0.129E-02
   5 F= -.13239375E+04 E0= -.13239375E+04  d E =-.110991E+00  mag=   120.0000
       N       E                     dE             d eps       ncg     rms          rms(c)
DAV:   1    -0.132381691363E+04    0.12062E+00   -0.60018E+00 48360   0.117E+01    0.200E+00
DAV:   2    -0.132398026993E+04   -0.16336E+00   -0.14632E+00 38330   0.203E+00    0.101E+00
DAV:   3    -0.132398681526E+04   -0.65453E-02   -0.63682E-02 38130   0.518E-01    0.572E-01
DAV:   4    -0.132398610947E+04    0.70579E-03   -0.34158E-03 39360   0.134E-01    0.334E-01
DAV:   5    -0.132398514234E+04    0.96713E-03   -0.13983E-03 41300   0.107E-01    0.198E-01
DAV:   6    -0.132398471992E+04    0.42242E-03   -0.10695E-03 40160   0.109E-01    0.118E-01
DAV:   7    -0.132398482208E+04   -0.10216E-03   -0.59075E-04 38560   0.687E-02    0.571E-02
DAV:   8    -0.132398474950E+04    0.72581E-04   -0.11254E-04 26780   0.351E-02    0.313E-02
DAV:   9    -0.132398477547E+04   -0.25970E-04   -0.37158E-05 19070   0.148E-02
   6 F= -.13239848E+04 E0= -.13239848E+04  d E =-.472630E-01  mag=   120.0000
       N       E                     dE             d eps       ncg     rms          rms(c)
DAV:   1    -0.132391420250E+04    0.70547E-01   -0.44969E+00 45440   0.878E+00    0.140E+00
DAV:   2    -0.132400438306E+04   -0.90181E-01   -0.85345E-01 36760   0.154E+00    0.709E-01
DAV:   3    -0.132400548312E+04   -0.11001E-02   -0.26688E-02 37290   0.357E-01    0.379E-01
DAV:   4    -0.132400568887E+04   -0.20575E-03   -0.19323E-03 39420   0.107E-01    0.254E-01
DAV:   5    -0.132400526655E+04    0.42232E-03   -0.38553E-04 35090   0.759E-02    0.175E-01
DAV:   6    -0.132400521319E+04    0.53357E-04   -0.53850E-04 41760   0.877E-02    0.726E-02
DAV:   7    -0.132400515462E+04    0.58567E-04   -0.27868E-04 38000   0.396E-02    0.299E-02
DAV:   8    -0.132400520351E+04   -0.48890E-04   -0.28418E-05 19700   0.156E-02
   7 F= -.13240052E+04 E0= -.13240052E+04  d E =-.204280E-01  mag=   120.0000
       N       E                     dE             d eps       ncg     rms          rms(c)
DAV:   1    -0.132169303617E+04    0.23121E+01   -0.11721E+02 44990   0.443E+01    0.733E+00
DAV:   2    -0.132405791411E+04   -0.23649E+01   -0.22182E+01 35910   0.782E+00    0.394E+00
DAV:   3    -0.132409624538E+04   -0.38331E-01   -0.64249E-01 37060   0.171E+00    0.182E+00
DAV:   4    -0.132409527147E+04    0.97391E-03   -0.48673E-02 40210   0.525E-01    0.136E+00
DAV:   5    -0.132408844439E+04    0.68271E-02   -0.80980E-03 39970   0.353E-01    0.953E-01
DAV:   6    -0.132408387472E+04    0.45697E-02   -0.10313E-02 43500   0.416E-01    0.402E-01
DAV:   7    -0.132408455727E+04   -0.68254E-03   -0.61223E-03 38870   0.192E-01    0.161E-01
DAV:   8    -0.132408534329E+04   -0.78603E-03   -0.63760E-04 36640   0.674E-02    0.893E-02
DAV:   9    -0.132408535580E+04   -0.12510E-04   -0.62906E-05 24870   0.226E-02
   8 F= -.13240854E+04 E0= -.13240854E+04  d E =-.801523E-01  mag=   120.0000
       N       E                     dE             d eps       ncg     rms          rms(c)
DAV:   1    -0.132005464152E+04    0.40307E+01   -0.17172E+02 46340   0.578E+01    0.997E+00
DAV:   2    -0.132394706216E+04   -0.38924E+01   -0.35628E+01 37850   0.102E+01    0.575E+00
DAV:   3    -0.132404941486E+04   -0.10235E+00   -0.12242E+00 37720   0.245E+00    0.281E+00
DAV:   4    -0.132404163123E+04    0.77836E-02   -0.71494E-02 40950   0.640E-01    0.178E+00
DAV:   5    -0.132402782988E+04    0.13801E-01   -0.22217E-02 40250   0.462E-01    0.116E+00
DAV:   6    -0.132402029250E+04    0.75374E-02   -0.20637E-02 41290   0.538E-01    0.688E-01
DAV:   7    -0.132402160081E+04   -0.13083E-02   -0.13568E-02 39250   0.334E-01    0.248E-01
DAV:   8    -0.132402190148E+04   -0.30067E-03   -0.23773E-03 37620   0.146E-01    0.127E-01
DAV:   9    -0.132402163841E+04    0.26307E-03   -0.65632E-04 36900   0.542E-02    0.121E-01
DAV:  10    -0.132402166442E+04   -0.26004E-04   -0.53553E-05 23190   0.266E-02
   9 F= -.13240217E+04 E0= -.13240217E+04  d E =0.636914E-01  mag=   120.0000
       N       E                     dE             d eps       ncg     rms          rms(c)
DAV:   1    -0.132340465741E+04    0.61698E+00   -0.32493E+01 50410   0.286E+01    0.457E+00
DAV:   2    -0.132427039655E+04   -0.86574E+00   -0.76723E+00 37980   0.477E+00    0.252E+00
DAV:   3    -0.132430042558E+04   -0.30029E-01   -0.34230E-01 37820   0.130E+00    0.138E+00
DAV:   4    -0.132429966195E+04    0.76363E-03   -0.23330E-02 39900   0.416E-01    0.768E-01
DAV:   5    -0.132429553927E+04    0.41227E-02   -0.81273E-03 40350   0.290E-01    0.529E-01
DAV:   6    -0.132429387877E+04    0.16605E-02   -0.71319E-03 39890   0.288E-01    0.295E-01
DAV:   7    -0.132429361037E+04    0.26839E-03   -0.33000E-03 39490   0.155E-01    0.123E-01
DAV:   8    -0.132429396274E+04   -0.35236E-03   -0.86402E-04 39110   0.778E-02    0.818E-02
DAV:   9    -0.132429391781E+04    0.44929E-04   -0.13356E-04 30630   0.261E-02
  10 F= -.13242939E+04 E0= -.13242939E+04  d E =-.272253E+00  mag=   120.0000
       N       E                     dE             d eps       ncg     rms          rms(c)
DAV:   1    -0.132419351492E+04    0.10045E+00   -0.54275E+00 46330   0.107E+01    0.179E+00
DAV:   2    -0.132433366730E+04   -0.14015E+00   -0.12871E+00 37880   0.189E+00    0.893E-01
DAV:   3    -0.132433670544E+04   -0.30381E-02   -0.44577E-02 37690   0.451E-01    0.490E-01
DAV:   4    -0.132433687074E+04   -0.16530E-03   -0.27395E-03 39890   0.122E-01    0.319E-01
DAV:   5    -0.132433620917E+04    0.66157E-03   -0.79476E-04 40430   0.989E-02    0.212E-01
DAV:   6    -0.132433614038E+04    0.68798E-04   -0.93939E-04 40440   0.111E-01    0.113E-01
DAV:   7    -0.132433598771E+04    0.15267E-03   -0.49079E-04 39140   0.605E-02    0.452E-02
DAV:   8    -0.132433608136E+04   -0.93650E-04   -0.79355E-05 22960   0.287E-02    0.284E-02
DAV:   9    -0.132433607717E+04    0.41886E-05   -0.23381E-05 18880   0.111E-02
  11 F= -.13243361E+04 E0= -.13243361E+04  d E =-.421594E-01  mag=   120.0000
       N       E                     dE             d eps       ncg     rms          rms(c)
DAV:   1    -0.132422933169E+04    0.10675E+00   -0.91222E+00 43690   0.117E+01    0.186E+00
DAV:   2    -0.132438727569E+04   -0.15794E+00   -0.15295E+00 37010   0.210E+00    0.903E-01
DAV:   3    -0.132438905349E+04   -0.17778E-02   -0.43916E-02 37240   0.435E-01    0.449E-01
DAV:   4    -0.132438931468E+04   -0.26120E-03   -0.28176E-03 39400   0.106E-01    0.328E-01
DAV:   5    -0.132438872849E+04    0.58619E-03   -0.57443E-04 40780   0.976E-02    0.202E-01
DAV:   6    -0.132438867298E+04    0.55507E-04   -0.81994E-04 43530   0.998E-02    0.864E-02
DAV:   7    -0.132438863024E+04    0.42741E-04   -0.34934E-04 37040   0.501E-02
  12 F= -.13243886E+04 E0= -.13243886E+04  d E =-.525531E-01  mag=   120.0000
       N       E                     dE             d eps       ncg     rms          rms(c)
DAV:   1    -0.132150123286E+04    0.28874E+01   -0.13774E+02 44530   0.481E+01    0.825E+00
DAV:   2    -0.132428274720E+04   -0.27815E+01   -0.26046E+01 37240   0.872E+00    0.475E+00
DAV:   3    -0.132435388147E+04   -0.71134E-01   -0.95088E-01 37640   0.204E+00    0.229E+00
DAV:   4    -0.132435048336E+04    0.33981E-02   -0.56740E-02 41120   0.527E-01    0.148E+00
DAV:   5    -0.132434145262E+04    0.90307E-02   -0.13548E-02 39650   0.379E-01    0.952E-01
DAV:   6    -0.132433643938E+04    0.50132E-02   -0.14399E-02 41320   0.456E-01    0.551E-01
DAV:   7    -0.132433790137E+04   -0.14620E-02   -0.99818E-03 39310   0.276E-01    0.208E-01
DAV:   8    -0.132433808843E+04   -0.18706E-03   -0.14614E-03 37430   0.114E-01    0.106E-01
DAV:   9    -0.132433790595E+04    0.18248E-03   -0.36453E-04 34390   0.412E-02    0.920E-02
DAV:  10    -0.132433791751E+04   -0.11559E-04   -0.39996E-05 22900   0.230E-02
  13 F= -.13243379E+04 E0= -.13243379E+04  d E =0.507127E-01  mag=   120.0000
       N       E                     dE             d eps       ncg     rms          rms(c)
DAV:   1    -0.132292558877E+04    0.14123E+01   -0.55314E+01 49550   0.368E+01    0.606E+00
DAV:   2    -0.132442278972E+04   -0.14972E+01   -0.13349E+01 38340   0.623E+00    0.336E+00
DAV:   3    -0.132447708037E+04   -0.54291E-01   -0.57689E-01 37890   0.163E+00    0.174E+00
DAV:   4    -0.132447569319E+04    0.13872E-02   -0.34458E-02 40410   0.481E-01    0.100E+00
DAV:   5    -0.132446909561E+04    0.65976E-02   -0.12703E-02 40390   0.356E-01    0.680E-01
DAV:   6    -0.132446671574E+04    0.23799E-02   -0.11465E-02 39890   0.377E-01    0.433E-01
DAV:   7    -0.132446613646E+04    0.57928E-03   -0.59926E-03 39260   0.220E-01    0.156E-01
DAV:   8    -0.132446674948E+04   -0.61302E-03   -0.14289E-03 39690   0.109E-01    0.100E-01
DAV:   9    -0.132446669309E+04    0.56398E-04   -0.28495E-04 34930   0.364E-02    0.827E-02
DAV:  10    -0.132446656019E+04    0.13290E-03   -0.36777E-05 22510   0.214E-02    0.433E-02
DAV:  11    -0.132446670964E+04   -0.14945E-03   -0.27549E-05 22470   0.191E-02    0.192E-02
DAV:  12    -0.132446674983E+04   -0.40197E-04   -0.22847E-05 19050   0.117E-02
  14 F= -.13244667E+04 E0= -.13244667E+04  d E =-.128832E+00  mag=   120.0000
       N       E                     dE             d eps       ncg     rms          rms(c)
DAV:   1    -0.132442338675E+04    0.43323E-01   -0.23932E+00 45920   0.704E+00    0.116E+00
DAV:   2    -0.132448162462E+04   -0.58238E-01   -0.54040E-01 37980   0.123E+00    0.567E-01
DAV:   3    -0.132448324069E+04   -0.16161E-02   -0.19791E-02 37780   0.296E-01    0.319E-01
DAV:   4    -0.132448310502E+04    0.13567E-03   -0.11478E-03 39500   0.788E-02    0.202E-01
DAV:   5    -0.132448293062E+04    0.17441E-03   -0.39780E-04 36370   0.678E-02    0.129E-01
DAV:   6    -0.132448271438E+04    0.21623E-03   -0.43407E-04 38930   0.751E-02    0.789E-02
DAV:   7    -0.132448284658E+04   -0.13220E-03   -0.23237E-04 36180   0.421E-02    0.295E-02
DAV:   8    -0.132448280910E+04    0.37483E-04   -0.32461E-05 19730   0.190E-02
  15 F= -.13244828E+04 E0= -.13244828E+04  d E =-.160593E-01  mag=   120.0000
       N       E                     dE             d eps       ncg     rms          rms(c)
DAV:   1    -0.132362997092E+04    0.85288E+00   -0.43134E+01 44110   0.264E+01    0.426E+00
DAV:   2    -0.132445701376E+04   -0.82704E+00   -0.79174E+00 36400   0.467E+00    0.217E+00
DAV:   3    -0.132447043382E+04   -0.13420E-01   -0.22932E-01 37590   0.972E-01    0.104E+00
DAV:   4    -0.132446939710E+04    0.10367E-02   -0.13798E-02 40920   0.230E-01    0.757E-01
DAV:   5    -0.132446630515E+04    0.30920E-02   -0.29417E-03 42850   0.203E-01    0.445E-01
DAV:   6    -0.132446513044E+04    0.11747E-02   -0.31443E-03 43910   0.198E-01    0.147E-01
DAV:   7    -0.132446571980E+04   -0.58936E-03   -0.16537E-03 37700   0.893E-02    0.914E-02
DAV:   8    -0.132446572549E+04   -0.56892E-05   -0.10792E-04 28700   0.300E-02
  16 F= -.13244657E+04 E0= -.13244657E+04  d E =0.170836E-01  mag=   120.0000
       N       E                     dE             d eps       ncg     rms          rms(c)
DAV:   1    -0.131785426661E+04    0.66115E+01   -0.28706E+02 44820   0.710E+01    0.126E+01
DAV:   2    -0.132408029066E+04   -0.62260E+01   -0.56567E+01 36810   0.126E+01    0.738E+00
DAV:   3    -0.132423262911E+04   -0.15234E+00   -0.19714E+00 37760   0.297E+00    0.331E+00
DAV:   4    -0.132422644443E+04    0.61847E-02   -0.13331E-01 41280   0.882E-01    0.240E+00
DAV:   5    -0.132420767091E+04    0.18774E-01   -0.26960E-02 38680   0.563E-01    0.172E+00
DAV:   6    -0.132419572805E+04    0.11943E-01   -0.27682E-02 41610   0.683E-01    0.983E-01
DAV:   7    -0.132419395641E+04    0.17716E-02   -0.21643E-02 40580   0.441E-01    0.278E-01
DAV:   8    -0.132419650154E+04   -0.25451E-02   -0.46135E-03 37530   0.173E-01    0.149E-01
DAV:   9    -0.132419612410E+04    0.37744E-03   -0.64598E-04 37770   0.501E-02    0.111E-01
DAV:  10    -0.132419590513E+04    0.21897E-03   -0.84933E-05 24840   0.336E-02    0.651E-02
DAV:  11    -0.132419620319E+04   -0.29806E-03   -0.63141E-05 23490   0.240E-02    0.307E-02
DAV:  12    -0.132419613393E+04    0.69264E-04   -0.27804E-05 19060   0.142E-02    0.166E-02
DAV:  13    -0.132419607404E+04    0.59890E-04   -0.10994E-05 18710   0.842E-03    0.126E-02
DAV:  14    -0.132419609853E+04   -0.24488E-04   -0.17141E-06 18550   0.323E-03
  17 F= -.13241961E+04 E0= -.13241961E+04  d E =0.269627E+00  mag=   120.0000
       N       E                     dE             d eps       ncg     rms          rms(c)
DAV:   1    -0.132224606900E+04    0.19500E+01   -0.79594E+01 47530   0.413E+01    0.722E+00
DAV:   2    -0.132428785853E+04   -0.20418E+01   -0.18559E+01 37870   0.721E+00    0.404E+00
DAV:   3    -0.132436087901E+04   -0.73020E-01   -0.78933E-01 37940   0.185E+00    0.204E+00
DAV:   4    -0.132435777459E+04    0.31044E-02   -0.46120E-02 40540   0.493E-01    0.126E+00
DAV:   5    -0.132434892857E+04    0.88460E-02   -0.14590E-02 40210   0.355E-01    0.788E-01
DAV:   6    -0.132434427570E+04    0.46529E-02   -0.11734E-02 40720   0.405E-01    0.491E-01
DAV:   7    -0.132434525647E+04   -0.98077E-03   -0.81222E-03 39360   0.262E-01    0.210E-01
DAV:   8    -0.132434521642E+04    0.40056E-04   -0.15690E-03 38020   0.128E-01    0.109E-01
DAV:   9    -0.132434517884E+04    0.37581E-04   -0.43133E-04 35670   0.461E-02
  18 F= -.13243452E+04 E0= -.13243452E+04  d E =-.149080E+00  mag=   120.0000
       N       E                     dE             d eps       ncg     rms          rms(c)
DAV:   1    -0.132426980971E+04    0.75407E-01   -0.41070E+00 44760   0.828E+00    0.137E+00
DAV:   2    -0.132435226663E+04   -0.82457E-01   -0.79366E-01 37190   0.148E+00    0.658E-01
DAV:   3    -0.132435393837E+04   -0.16717E-02   -0.25889E-02 37470   0.328E-01    0.345E-01
DAV:   4    -0.132435363857E+04    0.29981E-03   -0.15082E-03 39940   0.749E-02    0.243E-01
DAV:   5    -0.132435329667E+04    0.34190E-03   -0.40421E-04 38500   0.690E-02    0.141E-01
DAV:   6    -0.132435311292E+04    0.18375E-03   -0.40403E-04 40630   0.705E-02    0.500E-02
DAV:   7    -0.132435319431E+04   -0.81391E-04   -0.23176E-04 36570   0.376E-02    0.342E-02
DAV:   8    -0.132435314116E+04    0.53155E-04   -0.24187E-05 19480   0.166E-02    0.163E-02
DAV:   9    -0.132435316255E+04   -0.21395E-04   -0.73973E-06 18570   0.694E-03
  19 F= -.13243532E+04 E0= -.13243532E+04  d E =-.798372E-02  mag=   120.0000
       N       E                     dE             d eps       ncg     rms          rms(c)
DAV:   1    -0.131976129657E+04    0.45918E+01   -0.23422E+02 43050   0.584E+01    0.105E+01
DAV:   2    -0.132420051123E+04   -0.44392E+01   -0.41407E+01 35820   0.106E+01    0.578E+00
DAV:   3    -0.132427308978E+04   -0.72579E-01   -0.11618E+00 37580   0.214E+00    0.252E+00
DAV:   4    -0.132426440824E+04    0.86815E-02   -0.74864E-02 40870   0.538E-01    0.196E+00
DAV:   5    -0.132425102643E+04    0.13382E-01   -0.10479E-02 40950   0.382E-01    0.133E+00
DAV:   6    -0.132424279453E+04    0.82319E-02   -0.16415E-02 43840   0.538E-01    0.583E-01
DAV:   7    -0.132424490583E+04   -0.21113E-02   -0.12177E-02 38680   0.295E-01    0.237E-01
DAV:   8    -0.132424509395E+04   -0.18812E-03   -0.13657E-03 36900   0.105E-01    0.108E-01
DAV:   9    -0.132424492437E+04    0.16958E-03   -0.18055E-04 34540   0.331E-02    0.710E-02
DAV:  10    -0.132424500658E+04   -0.82213E-04   -0.80569E-05 24670   0.344E-02    0.409E-02
DAV:  11    -0.132424502219E+04   -0.15606E-04   -0.35232E-05 19100   0.151E-02
  20 F= -.13242450E+04 E0= -.13242450E+04  d E =0.108140E+00  mag=   120.0000
       N       E                     dE             d eps       ncg     rms          rms(c)
DAV:   1    -0.131804584108E+04    0.61992E+01   -0.30718E+02 44530   0.702E+01    0.119E+01
DAV:   2    -0.132391734960E+04   -0.58715E+01   -0.54121E+01 37190   0.125E+01    0.728E+00
DAV:   3    -0.132404193668E+04   -0.12459E+00   -0.17594E+00 37420   0.274E+00    0.312E+00
DAV:   4    -0.132403043329E+04    0.11503E-01   -0.10754E-01 42290   0.690E-01    0.219E+00
DAV:   5    -0.132401021745E+04    0.20216E-01   -0.22390E-02 40110   0.459E-01    0.137E+00
DAV:   6    -0.132399909100E+04    0.11126E-01   -0.18380E-02 41910   0.523E-01    0.569E-01
DAV:   7    -0.132400249119E+04   -0.34002E-02   -0.14433E-02 39100   0.275E-01    0.282E-01
DAV:   8    -0.132400264002E+04   -0.14883E-03   -0.20042E-03 37570   0.128E-01    0.155E-01
DAV:   9    -0.132400241576E+04    0.22426E-03   -0.40880E-04 35370   0.556E-02    0.100E-01
DAV:  10    -0.132400236969E+04    0.46065E-04   -0.12087E-04 31710   0.356E-02
  21 F= -.13240024E+04 E0= -.13240024E+04  d E =0.242652E+00  mag=   120.0000
       N       E                     dE             d eps       ncg     rms          rms(c)
DAV:   1    -0.132278326652E+04    0.12191E+01   -0.51615E+01 49010   0.336E+01    0.575E+00
DAV:   2    -0.132411610087E+04   -0.13328E+01   -0.11945E+01 37810   0.571E+00    0.302E+00
DAV:   3    -0.132415947900E+04   -0.43378E-01   -0.47975E-01 37820   0.145E+00    0.153E+00
DAV:   4    -0.132415883102E+04    0.64799E-03   -0.31136E-02 40040   0.426E-01    0.959E-01
DAV:   5    -0.132415374360E+04    0.50874E-02   -0.87843E-03 39870   0.302E-01    0.670E-01
DAV:   6    -0.132415167577E+04    0.20678E-02   -0.85222E-03 40580   0.339E-01    0.379E-01
DAV:   7    -0.132415128340E+04    0.39237E-03   -0.47563E-03 39690   0.195E-01    0.146E-01
DAV:   8    -0.132415176974E+04   -0.48634E-03   -0.10558E-03 38170   0.908E-02    0.857E-02
DAV:   9    -0.132415175041E+04    0.19328E-04   -0.18635E-04 34050   0.308E-02
  22 F= -.13241518E+04 E0= -.13241518E+04  d E =-.149381E+00  mag=   120.0000
       N       E                     dE             d eps       ncg     rms          rms(c)
DAV:   1    -0.132376911724E+04    0.38265E+00   -0.18959E+01 44270   0.168E+01    0.282E+00
DAV:   2    -0.132411905869E+04   -0.34994E+00   -0.33756E+00 36530   0.299E+00    0.134E+00
DAV:   3    -0.132412464891E+04   -0.55902E-02   -0.98621E-02 37070   0.607E-01    0.634E-01
DAV:   4    -0.132412410656E+04    0.54235E-03   -0.61859E-03 40100   0.142E-01    0.488E-01
DAV:   5    -0.132412261632E+04    0.14902E-02   -0.12246E-03 42970   0.144E-01    0.313E-01
DAV:   6    -0.132412258400E+04    0.32314E-04   -0.18450E-03 44410   0.158E-01    0.154E-01
DAV:   7    -0.132412233887E+04    0.24513E-03   -0.92519E-04 38270   0.831E-02    0.598E-02
DAV:   8    -0.132412247823E+04   -0.13936E-03   -0.86590E-05 26230   0.282E-02    0.317E-02
DAV:   9    -0.132412249871E+04   -0.20487E-04   -0.18119E-05 18730   0.119E-02
  23 F= -.13241225E+04 E0= -.13241225E+04  d E =0.292517E-01  mag=   120.0000
       N       E                     dE             d eps       ncg     rms          rms(c)
DAV:   1    -0.131573460255E+04    0.83879E+01   -0.47316E+02 42990   0.799E+01    0.140E+01
DAV:   2    -0.132375404646E+04   -0.80194E+01   -0.74695E+01 35980   0.146E+01    0.831E+00
DAV:   3    -0.132390713879E+04   -0.15309E+00   -0.23213E+00 37580   0.308E+00    0.361E+00
DAV:   4    -0.132388860149E+04    0.18537E-01   -0.15170E-01 40800   0.865E-01    0.276E+00
DAV:   5    -0.132386628438E+04    0.22317E-01   -0.24519E-02 39170   0.536E-01    0.191E+00
DAV:   6    -0.132384889995E+04    0.17384E-01   -0.32010E-02 43170   0.735E-01    0.945E-01
DAV:   7    -0.132385111753E+04   -0.22176E-02   -0.25323E-02 39510   0.438E-01    0.354E-01
DAV:   8    -0.132385174647E+04   -0.62894E-03   -0.39353E-03 36950   0.168E-01    0.174E-01
DAV:   9    -0.132385182631E+04   -0.79842E-04   -0.51776E-04 36700   0.539E-02    0.106E-01
DAV:  10    -0.132385174311E+04    0.83201E-04   -0.14804E-04 31620   0.429E-02    0.526E-02
DAV:  11    -0.132385181422E+04   -0.71110E-04   -0.79428E-05 23350   0.274E-02    0.219E-02
DAV:  12    -0.132385176603E+04    0.48196E-04   -0.23677E-05 18830   0.133E-02
  24 F= -.13238518E+04 E0= -.13238518E+04  d E =0.270733E+00  mag=   120.0000
       N       E                     dE             d eps       ncg     rms          rms(c)
DAV:   1    -0.131742626106E+04    0.64256E+01   -0.24469E+02 46600   0.690E+01    0.129E+01
DAV:   2    -0.132352845462E+04   -0.61022E+01   -0.55599E+01 37680   0.123E+01    0.767E+00
DAV:   3    -0.132368571256E+04   -0.15726E+00   -0.18950E+00 37730   0.309E+00    0.368E+00
DAV:   4    -0.132367613970E+04    0.95729E-02   -0.15431E-01 39760   0.108E+00    0.254E+00
DAV:   5    -0.132365673438E+04    0.19405E-01   -0.37471E-02 39340   0.642E-01    0.188E+00
DAV:   6    -0.132364258566E+04    0.14149E-01   -0.30757E-02 40590   0.696E-01    0.102E+00
DAV:   7    -0.132364067924E+04    0.19064E-02   -0.22594E-02 40490   0.456E-01    0.318E-01
DAV:   8    -0.132364305833E+04   -0.23791E-02   -0.68279E-03 37590   0.195E-01    0.179E-01
DAV:   9    -0.132364273449E+04    0.32384E-03   -0.91493E-04 37850   0.624E-02    0.127E-01
DAV:  10    -0.132364242994E+04    0.30455E-03   -0.11218E-04 28340   0.350E-02    0.730E-02
DAV:  11    -0.132364275612E+04   -0.32617E-03   -0.78451E-05 25500   0.265E-02    0.331E-02
DAV:  12    -0.132364268029E+04    0.75824E-04   -0.36978E-05 20250   0.168E-02    0.160E-02
DAV:  13    -0.132364260200E+04    0.78288E-04   -0.17042E-05 18800   0.992E-03    0.127E-02
DAV:  14    -0.132364264816E+04   -0.46152E-04   -0.26280E-06 18650   0.413E-03
  25 F= -.13236426E+04 E0= -.13236426E+04  d E =0.209118E+00  mag=   120.0000
       N       E                     dE             d eps       ncg     rms          rms(c)
DAV:   1    -0.132305839601E+04    0.58421E+00   -0.28635E+01 45660   0.237E+01    0.396E+00
DAV:   2    -0.132372590829E+04   -0.66751E+00   -0.62600E+00 38090   0.420E+00    0.205E+00
DAV:   3    -0.132374541822E+04   -0.19510E-01   -0.23396E-01 37670   0.104E+00    0.115E+00
DAV:   4    -0.132374357803E+04    0.18402E-02   -0.14821E-02 40130   0.295E-01    0.723E-01
DAV:   5    -0.132374107934E+04    0.24987E-02   -0.50332E-03 40910   0.242E-01    0.493E-01
DAV:   6    -0.132373918033E+04    0.18990E-02   -0.60934E-03 40760   0.278E-01    0.307E-01
DAV:   7    -0.132373962628E+04   -0.44595E-03   -0.29096E-03 39430   0.158E-01    0.101E-01
DAV:   8    -0.132373955604E+04    0.70237E-04   -0.62618E-04 37340   0.713E-02    0.620E-02
DAV:   9    -0.132373948882E+04    0.67220E-04   -0.11456E-04 27570   0.241E-02    0.495E-02
DAV:  10    -0.132373947700E+04    0.11820E-04   -0.22096E-05 20480   0.158E-02
  26 F= -.13237395E+04 E0= -.13237395E+04  d E =-.968288E-01  mag=   120.0000
       N       E                     dE             d eps       ncg     rms          rms(c)
DAV:   1    -0.132272381660E+04    0.10157E+01   -0.44929E+01 44310   0.270E+01    0.438E+00
DAV:   2    -0.132358704542E+04   -0.86323E+00   -0.82172E+00 37120   0.479E+00    0.228E+00
DAV:   3    -0.132360523737E+04   -0.18192E-01   -0.26894E-01 37360   0.108E+00    0.117E+00
DAV:   4    -0.132360310875E+04    0.21286E-02   -0.18028E-02 40260   0.318E-01    0.800E-01
DAV:   5    -0.132360034510E+04    0.27637E-02   -0.44027E-03 42250   0.244E-01    0.539E-01
DAV:   6    -0.132359823901E+04    0.21061E-02   -0.56840E-03 41820   0.282E-01    0.295E-01
DAV:   7    -0.132359884357E+04   -0.60456E-03   -0.30113E-03 39300   0.150E-01    0.106E-01
DAV:   8    -0.132359872953E+04    0.11404E-03   -0.43492E-04 35840   0.594E-02    0.651E-02
DAV:   9    -0.132359870515E+04    0.24379E-04   -0.63501E-05 22430   0.208E-02
  27 F= -.13235987E+04 E0= -.13235987E+04  d E =0.140772E+00  mag=   120.0000
       N       E                     dE             d eps       ncg     rms          rms(c)
DAV:   1    -0.132105639564E+04    0.25423E+01   -0.12558E+02 42610   0.405E+01    0.667E+00
DAV:   2    -0.132310270813E+04   -0.20463E+01   -0.19380E+01 36530   0.723E+00    0.366E+00
DAV:   3    -0.132313276379E+04   -0.30056E-01   -0.53849E-01 36860   0.145E+00    0.165E+00
DAV:   4    -0.132312772072E+04    0.50431E-02   -0.36974E-02 40500   0.418E-01    0.124E+00
DAV:   5    -0.132312206354E+04    0.56572E-02   -0.77624E-03 42730   0.339E-01    0.822E-01
DAV:   6    -0.132311803638E+04    0.40272E-02   -0.10184E-02 42750   0.387E-01    0.396E-01
DAV:   7    -0.132311915115E+04   -0.11148E-02   -0.54546E-03 38300   0.196E-01    0.134E-01
DAV:   8    -0.132311924185E+04   -0.90700E-04   -0.59194E-04 36120   0.611E-02    0.743E-02
DAV:   9    -0.132311907248E+04    0.16938E-03   -0.68005E-05 23170   0.236E-02    0.486E-02
DAV:  10    -0.132311913893E+04   -0.66451E-04   -0.48117E-05 21980   0.224E-02    0.253E-02
DAV:  11    -0.132311913032E+04    0.86050E-05   -0.14267E-05 18610   0.840E-03
  28 F= -.13231191E+04 E0= -.13231191E+04  d E =0.479575E+00  mag=   120.0000
       N       E                     dE             d eps       ncg     rms          rms(c)
DAV:   1    -0.131635393916E+04    0.67652E+01   -0.24076E+02 44790   0.660E+01    0.126E+01
DAV:   2    -0.132203164454E+04   -0.56777E+01   -0.51948E+01 37880   0.119E+01    0.709E+00
DAV:   3    -0.132218507271E+04   -0.15343E+00   -0.18419E+00 37310   0.291E+00    0.346E+00
DAV:   4    -0.132217880395E+04    0.62688E-02   -0.13551E-01 40040   0.920E-01    0.248E+00
DAV:   5    -0.132216071622E+04    0.18088E-01   -0.31395E-02 38520   0.590E-01    0.183E+00
DAV:   6    -0.132214910596E+04    0.11610E-01   -0.31059E-02 41540   0.712E-01    0.105E+00
DAV:   7    -0.132214675927E+04    0.23467E-02   -0.22450E-02 40160   0.470E-01    0.327E-01
DAV:   8    -0.132214915467E+04   -0.23954E-02   -0.58446E-03 37770   0.195E-01    0.168E-01
DAV:   9    -0.132214879767E+04    0.35700E-03   -0.93612E-04 37460   0.625E-02    0.126E-01
DAV:  10    -0.132214851772E+04    0.27995E-03   -0.10800E-04 26270   0.334E-02    0.726E-02
DAV:  11    -0.132214880193E+04   -0.28421E-03   -0.67611E-05 23320   0.246E-02    0.355E-02
DAV:  12    -0.132214876318E+04    0.38749E-04   -0.36975E-05 20140   0.171E-02
  29 F= -.13221488E+04 E0= -.13221487E+04  d E =0.970367E+00  mag=   119.9987
       N       E                     dE             d eps       ncg     rms          rms(c)
DAV:   1    -0.132092228044E+04    0.12265E+01   -0.71872E+01 45280   0.345E+01    0.584E+00
DAV:   2    -0.132232273752E+04   -0.14005E+01   -0.13231E+01 37590   0.617E+00    0.311E+00
DAV:   3    -0.132236159013E+04   -0.38853E-01   -0.51708E-01 37570   0.152E+00    0.166E+00
DAV:   4    -0.132235794084E+04    0.36493E-02   -0.32997E-02 40400   0.445E-01    0.106E+00
DAV:   5    -0.132235232455E+04    0.56163E-02   -0.10111E-02 40830   0.335E-01    0.721E-01
DAV:   6    -0.132234847527E+04    0.38493E-02   -0.10875E-02 40190   0.381E-01    0.440E-01
DAV:   7    -0.132234916572E+04   -0.69045E-03   -0.58828E-03 39290   0.221E-01    0.150E-01
DAV:   8    -0.132234925558E+04   -0.89864E-04   -0.12111E-03 38030   0.970E-02    0.954E-02
DAV:   9    -0.132234917053E+04    0.85056E-04   -0.23448E-04 34650   0.336E-02    0.792E-02
DAV:  10    -0.132234910243E+04    0.68098E-04   -0.32498E-05 21100   0.191E-02    0.455E-02
DAV:  11    -0.132234922006E+04   -0.11763E-03   -0.22028E-05 21880   0.178E-02    0.212E-02
DAV:  12    -0.132234916934E+04    0.50721E-04   -0.21126E-05 19200   0.135E-02    0.138E-02
DAV:  13    -0.132234918337E+04   -0.14030E-04   -0.50824E-06 18610   0.553E-03
  30 F= -.13223492E+04 E0= -.13223492E+04  d E =-.200420E+00  mag=   120.0000
       N       E                     dE             d eps       ncg     rms          rms(c)
DAV:   1    -0.132123332954E+04    0.11158E+01   -0.61082E+01 43580   0.288E+01    0.477E+00
DAV:   2    -0.132221445375E+04   -0.98112E+00   -0.96328E+00 36360   0.520E+00    0.235E+00
DAV:   3    -0.132222980316E+04   -0.15349E-01   -0.27929E-01 37200   0.108E+00    0.116E+00
DAV:   4    -0.132222756903E+04    0.22341E-02   -0.19109E-02 40300   0.294E-01    0.871E-01
DAV:   5    -0.132222433827E+04    0.32308E-02   -0.38217E-03 41660   0.249E-01    0.586E-01
DAV:   6    -0.132222187095E+04    0.24673E-02   -0.58075E-03 43510   0.293E-01    0.280E-01
DAV:   7    -0.132222275919E+04   -0.88824E-03   -0.30789E-03 38800   0.146E-01    0.111E-01
DAV:   8    -0.132222279024E+04   -0.31055E-04   -0.30915E-04 35080   0.501E-02
  31 F= -.13222228E+04 E0= -.13222228E+04  d E =0.126393E+00  mag=   120.0000
       N       E                     dE             d eps       ncg     rms          rms(c)
DAV:   1    -0.130961862469E+04    0.12604E+02   -0.63764E+02 44190   0.959E+01    0.181E+01
DAV:   2    -0.132159768355E+04   -0.11979E+02   -0.10895E+02 36530   0.175E+01    0.110E+01
DAV:   3    -0.132182446041E+04   -0.22678E+00   -0.31132E+00 38080   0.350E+00    0.459E+00
DAV:   4    -0.132180064522E+04    0.23815E-01   -0.18556E-01 42260   0.853E-01    0.348E+00
DAV:   5    -0.132176574610E+04    0.34899E-01   -0.27868E-02 39510   0.524E-01    0.238E+00
DAV:   6    -0.132174345702E+04    0.22289E-01   -0.35723E-02 44060   0.807E-01    0.744E-01
DAV:   7    -0.132175097158E+04   -0.75146E-02   -0.31359E-02 38800   0.402E-01    0.453E-01
DAV:   8    -0.132175059981E+04    0.37177E-03   -0.38196E-03 37090   0.194E-01    0.283E-01
DAV:   9    -0.132175048197E+04    0.11784E-03   -0.48629E-04 36610   0.586E-02    0.228E-01
DAV:  10    -0.132175042875E+04    0.53225E-04   -0.14748E-04 32700   0.464E-02    0.132E-01
DAV:  11    -0.132175038767E+04    0.41077E-04   -0.24804E-04 32950   0.553E-02
  32 F= -.13217504E+04 E0= -.13217501E+04  d E =0.472403E+00  mag=   119.9948
       N       E                     dE             d eps       ncg     rms          rms(c)
DAV:   1    -0.131294626600E+04    0.88042E+01   -0.35104E+02 45570   0.817E+01    0.161E+01
DAV:   2    -0.132165582954E+04   -0.87096E+01   -0.78991E+01 37520   0.148E+01    0.100E+01
DAV:   3    -0.132192450823E+04   -0.26868E+00   -0.30061E+00 37630   0.357E+00    0.436E+00
DAV:   4    -0.132191238413E+04    0.12124E-01   -0.18771E-01 41020   0.969E-01    0.309E+00
DAV:   5    -0.132188717453E+04    0.25210E-01   -0.39145E-02 38940   0.584E-01    0.217E+00
DAV:   6    -0.132186824945E+04    0.18925E-01   -0.33426E-02 42480   0.799E-01    0.119E+00
DAV:   7    -0.132186981065E+04   -0.15612E-02   -0.29641E-02 39960   0.517E-01    0.414E-01
DAV:   8    -0.132187127035E+04   -0.14597E-02   -0.62304E-03 37620   0.215E-01    0.211E-01
DAV:   9    -0.132187072597E+04    0.54438E-03   -0.12816E-03 37400   0.691E-02    0.154E-01
DAV:  10    -0.132187065423E+04    0.71739E-04   -0.11058E-04 27380   0.437E-02    0.894E-02
DAV:  11    -0.132187086943E+04   -0.21520E-03   -0.14294E-04 32120   0.364E-02    0.373E-02
DAV:  12    -0.132187079569E+04    0.73745E-04   -0.53096E-05 19340   0.173E-02    0.267E-02
DAV:  13    -0.132187080103E+04   -0.53409E-05   -0.16291E-05 18820   0.942E-03
  33 F= -.13218708E+04 E0= -.13218708E+04  d E =-.120413E+00  mag=   120.0000
       N       E                     dE             d eps       ncg     rms          rms(c)
DAV:   1    -0.132154857682E+04    0.32222E+00   -0.22426E+01 47570   0.219E+01    0.364E+00
DAV:   2    -0.132209786270E+04   -0.54929E+00   -0.50260E+00 38170   0.378E+00    0.185E+00
DAV:   3    -0.132211622918E+04   -0.18366E-01   -0.21546E-01 37740   0.970E-01    0.104E+00
DAV:   4    -0.132211552846E+04    0.70072E-03   -0.13099E-02 39950   0.268E-01    0.619E-01
DAV:   5    -0.132211253474E+04    0.29937E-02   -0.50347E-03 40660   0.220E-01    0.403E-01
DAV:   6    -0.132211189443E+04    0.64031E-03   -0.43836E-03 41080   0.227E-01    0.253E-01
DAV:   7    -0.132211154520E+04    0.34923E-03   -0.21045E-03 39270   0.130E-01    0.990E-02
DAV:   8    -0.132211169329E+04   -0.14808E-03   -0.43071E-04 35570   0.620E-02    0.582E-02
DAV:   9    -0.132211168748E+04    0.58035E-05   -0.97519E-05 26880   0.221E-02
  34 F= -.13221117E+04 E0= -.13221117E+04  d E =-.240886E+00  mag=   120.0000
       N       E                     dE             d eps       ncg     rms          rms(c)
DAV:   1    -0.131979127901E+04    0.23204E+01   -0.13385E+02 43970   0.446E+01    0.748E+00
DAV:   2    -0.132216432940E+04   -0.23731E+01   -0.22819E+01 36320   0.800E+00    0.390E+00
DAV:   3    -0.132220670404E+04   -0.42375E-01   -0.67650E-01 37440   0.167E+00    0.176E+00
DAV:   4    -0.132220268989E+04    0.40141E-02   -0.41348E-02 42610   0.427E-01    0.135E+00
DAV:   5    -0.132219371526E+04    0.89746E-02   -0.93976E-03 40490   0.372E-01    0.889E-01
DAV:   6    -0.132219082733E+04    0.28879E-02   -0.12502E-02 41930   0.436E-01    0.475E-01
DAV:   7    -0.132219073412E+04    0.93208E-04   -0.72794E-03 38910   0.239E-01    0.159E-01
DAV:   8    -0.132219152951E+04   -0.79539E-03   -0.84506E-04 37390   0.820E-02    0.833E-02
DAV:   9    -0.132219145307E+04    0.76440E-04   -0.15544E-04 31680   0.317E-02    0.621E-02
DAV:  10    -0.132219131279E+04    0.14028E-03   -0.50107E-05 23190   0.257E-02    0.343E-02
DAV:  11    -0.132219144508E+04   -0.13229E-03   -0.21194E-05 18850   0.111E-02    0.199E-02
DAV:  12    -0.132219145442E+04   -0.93426E-05   -0.89213E-06 18850   0.102E-02
  35 F= -.13221915E+04 E0= -.13221915E+04  d E =-.797669E-01  mag=   120.0000
       N       E                     dE             d eps       ncg     rms          rms(c)
DAV:   1    -0.130683252893E+04    0.15359E+02   -0.79259E+02 43760   0.107E+02    0.205E+01
DAV:   2    -0.132192742358E+04   -0.15095E+02   -0.13695E+02 36270   0.199E+01    0.126E+01
DAV:   3    -0.132223089600E+04   -0.30347E+00   -0.40420E+00 38490   0.407E+00    0.537E+00
DAV:   4    -0.132220275097E+04    0.28145E-01   -0.23690E-01 42670   0.962E-01    0.400E+00
DAV:   5    -0.132216101142E+04    0.41740E-01   -0.32085E-02 39460   0.577E-01    0.280E+00
DAV:   6    -0.132213033878E+04    0.30673E-01   -0.44820E-02 45160   0.925E-01    0.921E-01
DAV:   7    -0.132213846510E+04   -0.81263E-02   -0.38677E-02 38800   0.443E-01    0.447E-01
DAV:   8    -0.132213899242E+04   -0.52731E-03   -0.46679E-03 37150   0.201E-01    0.226E-01
DAV:   9    -0.132213849806E+04    0.49435E-03   -0.65460E-04 36550   0.729E-02    0.138E-01
DAV:  10    -0.132213857753E+04   -0.79468E-04   -0.22215E-04 34470   0.515E-02    0.887E-02
DAV:  11    -0.132213863093E+04   -0.53398E-04   -0.10612E-04 25390   0.284E-02    0.311E-02
DAV:  12    -0.132213851312E+04    0.11780E-03   -0.28379E-05 18880   0.139E-02    0.200E-02
DAV:  13    -0.132213855620E+04   -0.43074E-04   -0.91878E-06 18720   0.840E-03
  36 F= -.13221386E+04 E0= -.13221386E+04  d E =0.528982E-01  mag=   120.0000
       N       E                     dE             d eps       ncg     rms          rms(c)
DAV:   1    -0.130933267065E+04    0.12806E+02   -0.52998E+02 47650   0.100E+02    0.189E+01
DAV:   2    -0.132172828375E+04   -0.12396E+02   -0.11149E+02 37850   0.180E+01    0.128E+01
DAV:   3    -0.132209387284E+04   -0.36559E+00   -0.50272E+00 37550   0.561E+00    0.629E+00
DAV:   4    -0.132204030351E+04    0.53569E-01   -0.47656E-01 39180   0.222E+00    0.389E+00
DAV:   5    -0.132199963883E+04    0.40665E-01   -0.94939E-02 39490   0.916E-01    0.277E+00
DAV:   6    -0.132196787490E+04    0.31764E-01   -0.54122E-02 40420   0.843E-01    0.140E+00
DAV:   7    -0.132196706440E+04    0.81049E-03   -0.39636E-02 40710   0.555E-01    0.470E-01
DAV:   8    -0.132197061318E+04   -0.35488E-02   -0.14639E-02 37670   0.249E-01    0.282E-01
DAV:   9    -0.132196978061E+04    0.83257E-03   -0.16967E-03 37830   0.864E-02    0.182E-01
DAV:  10    -0.132196946673E+04    0.31388E-03   -0.29140E-04 35820   0.497E-02    0.108E-01
DAV:  11    -0.132196999550E+04   -0.52877E-03   -0.13525E-04 32930   0.396E-02    0.457E-02
DAV:  12    -0.132196970719E+04    0.28830E-03   -0.82452E-05 22320   0.209E-02    0.240E-02
DAV:  13    -0.132196968972E+04    0.17471E-04   -0.19607E-05 18920   0.994E-03
  37 F= -.13219697E+04 E0= -.13219697E+04  d E =0.168866E+00  mag=   120.0000
       N       E                     dE             d eps       ncg     rms          rms(c)
DAV:   1    -0.132043550416E+04    0.15342E+01   -0.82386E+01 50200   0.426E+01    0.749E+00
DAV:   2    -0.132256790496E+04   -0.21324E+01   -0.19070E+01 38060   0.734E+00    0.463E+00
DAV:   3    -0.132264803921E+04   -0.80134E-01   -0.86502E-01 37620   0.195E+00    0.225E+00
DAV:   4    -0.132264494855E+04    0.30907E-02   -0.49336E-02 40220   0.508E-01    0.133E+00
DAV:   5    -0.132263519617E+04    0.97524E-02   -0.18945E-02 40330   0.364E-01    0.807E-01
DAV:   6    -0.132263171889E+04    0.34773E-02   -0.12293E-02 40500   0.404E-01    0.526E-01
DAV:   7    -0.132263133465E+04    0.38424E-03   -0.93005E-03 39100   0.284E-01    0.239E-01
DAV:   8    -0.132263229029E+04   -0.95564E-03   -0.15976E-03 37610   0.137E-01    0.107E-01
DAV:   9    -0.132263205607E+04    0.23422E-03   -0.44682E-04 36260   0.437E-02    0.102E-01
DAV:  10    -0.132263194648E+04    0.10959E-03   -0.32763E-05 22200   0.214E-02    0.523E-02
DAV:  11    -0.132263214770E+04   -0.20122E-03   -0.33371E-05 22790   0.205E-02    0.160E-02
DAV:  12    -0.132263209667E+04    0.51023E-04   -0.22034E-05 18890   0.101E-02    0.135E-02
DAV:  13    -0.132263208932E+04    0.73531E-05   -0.47103E-06 18710   0.418E-03
  38 F= -.13226321E+04 E0= -.13226321E+04  d E =-.662400E+00  mag=   120.0000
       N       E                     dE             d eps       ncg     rms          rms(c)
DAV:   1    -0.132186842311E+04    0.76367E+00   -0.37961E+01 45670   0.256E+01    0.447E+00
DAV:   2    -0.132269045844E+04   -0.82204E+00   -0.77419E+00 37820   0.460E+00    0.232E+00
DAV:   3    -0.132271095908E+04   -0.20501E-01   -0.26672E-01 37410   0.108E+00    0.123E+00
DAV:   4    -0.132270961743E+04    0.13416E-02   -0.16431E-02 39770   0.279E-01    0.811E-01
DAV:   5    -0.132270667137E+04    0.29461E-02   -0.42765E-03 41090   0.213E-01    0.550E-01
DAV:   6    -0.132270458422E+04    0.20871E-02   -0.51903E-03 42250   0.270E-01    0.317E-01
DAV:   7    -0.132270507284E+04   -0.48861E-03   -0.31438E-03 39180   0.161E-01    0.117E-01
DAV:   8    -0.132270502603E+04    0.46809E-04   -0.51063E-04 36740   0.706E-02    0.599E-02
DAV:   9    -0.132270498616E+04    0.39871E-04   -0.11000E-04 28030   0.223E-02
  39 F= -.13227050E+04 E0= -.13227050E+04  d E =-.728968E-01  mag=   120.0000
       N       E                     dE             d eps       ncg     rms          rms(c)
DAV:   1    -0.132138819009E+04    0.13168E+01   -0.82634E+01 43350   0.340E+01    0.555E+00
DAV:   2    -0.132276306513E+04   -0.13749E+01   -0.13433E+01 36560   0.615E+00    0.282E+00
DAV:   3    -0.132277820042E+04   -0.15135E-01   -0.34275E-01 36890   0.120E+00    0.134E+00
DAV:   4    -0.132277553410E+04    0.26663E-02   -0.21477E-02 40700   0.287E-01    0.100E+00
DAV:   5    -0.132277034208E+04    0.51920E-02   -0.45623E-03 42780   0.273E-01    0.621E-01
DAV:   6    -0.132276806978E+04    0.22723E-02   -0.64973E-03 42920   0.297E-01    0.291E-01
DAV:   7    -0.132276899685E+04   -0.92707E-03   -0.34824E-03 38430   0.159E-01    0.125E-01
DAV:   8    -0.132276897998E+04    0.16867E-04   -0.34473E-04 34880   0.565E-02
  40 F= -.13227690E+04 E0= -.13227690E+04  d E =-.639938E-01  mag=   120.0000
       N       E                     dE             d eps       ncg     rms          rms(c)
DAV:   1    -0.130982836875E+04    0.12941E+02   -0.58905E+02 44360   0.992E+01    0.183E+01
DAV:   2    -0.132221308669E+04   -0.12385E+02   -0.11297E+02 37480   0.180E+01    0.117E+01
DAV:   3    -0.132252114980E+04   -0.30806E+00   -0.39608E+00 37640   0.441E+00    0.529E+00
DAV:   4    -0.132249432323E+04    0.26827E-01   -0.31894E-01 39990   0.159E+00    0.380E+00
DAV:   5    -0.132245303141E+04    0.41292E-01   -0.90147E-02 39530   0.978E-01    0.278E+00
DAV:   6    -0.132242446910E+04    0.28562E-01   -0.63274E-02 40240   0.978E-01    0.153E+00
DAV:   7    -0.132242030857E+04    0.41605E-02   -0.44523E-02 40640   0.652E-01    0.472E-01
DAV:   8    -0.132242465652E+04   -0.43480E-02   -0.14499E-02 37590   0.265E-01    0.272E-01
DAV:   9    -0.132242413192E+04    0.52461E-03   -0.16174E-03 37920   0.860E-02    0.177E-01
DAV:  10    -0.132242360758E+04    0.52434E-03   -0.28458E-04 35100   0.511E-02    0.104E-01
DAV:  11    -0.132242408015E+04   -0.47256E-03   -0.13291E-04 32570   0.351E-02    0.482E-02
DAV:  12    -0.132242395028E+04    0.12987E-03   -0.71338E-05 22610   0.243E-02    0.227E-02
DAV:  13    -0.132242386941E+04    0.80865E-04   -0.26125E-05 18870   0.119E-02    0.163E-02
DAV:  14    -0.132242391074E+04   -0.41321E-04   -0.36393E-06 18740   0.407E-03
  41 F= -.13224239E+04 E0= -.13224239E+04  d E =0.345069E+00  mag=   120.0000
       N       E                     dE             d eps       ncg     rms          rms(c)
DAV:   1    -0.131940156165E+04    0.30223E+01   -0.13157E+02 50570   0.549E+01    0.100E+01
DAV:   2    -0.132300020970E+04   -0.35986E+01   -0.32092E+01 38240   0.951E+00    0.662E+00
DAV:   3    -0.132313798050E+04   -0.13777E+00   -0.14312E+00 37790   0.255E+00    0.295E+00
DAV:   4    -0.132313144770E+04    0.65328E-02   -0.81246E-02 40210   0.676E-01    0.176E+00
DAV:   5    -0.132311656534E+04    0.14882E-01   -0.30115E-02 39930   0.437E-01    0.111E+00
DAV:   6    -0.132310959691E+04    0.69684E-02   -0.17320E-02 40330   0.515E-01    0.658E-01
DAV:   7    -0.132310965415E+04   -0.57242E-04   -0.15424E-02 39170   0.353E-01    0.314E-01
DAV:   8    -0.132311088829E+04   -0.12341E-02   -0.30267E-03 38160   0.182E-01    0.148E-01
DAV:   9    -0.132311048392E+04    0.40436E-03   -0.76166E-04 37590   0.587E-02    0.128E-01
DAV:  10    -0.132311036340E+04    0.12052E-03   -0.65582E-05 24280   0.274E-02    0.707E-02
DAV:  11    -0.132311066080E+04   -0.29740E-03   -0.60459E-05 24270   0.291E-02    0.256E-02
DAV:  12    -0.132311055631E+04    0.10449E-03   -0.40203E-05 19210   0.147E-02    0.209E-02
DAV:  13    -0.132311055082E+04    0.54910E-05   -0.90153E-06 18740   0.640E-03
  42 F= -.13231106E+04 E0= -.13231106E+04  d E =-.686640E+00  mag=   120.0000
       N       E                     dE             d eps       ncg     rms          rms(c)
DAV:   1    -0.132303146802E+04    0.79088E-01   -0.63838E+00 43490   0.970E+00    0.160E+00
DAV:   2    -0.132314657545E+04   -0.11511E+00   -0.11220E+00 36800   0.174E+00    0.752E-01
DAV:   3    -0.132314785380E+04   -0.12784E-02   -0.28647E-02 36930   0.335E-01    0.368E-01
DAV:   4    -0.132314764661E+04    0.20720E-03   -0.17868E-03 39010   0.747E-02    0.283E-01
DAV:   5    -0.132314717771E+04    0.46890E-03   -0.39558E-04 36510   0.880E-02    0.168E-01
DAV:   6    -0.132314693758E+04    0.24013E-03   -0.62948E-04 41590   0.855E-02    0.756E-02
DAV:   7    -0.132314711003E+04   -0.17245E-03   -0.25977E-04 35280   0.442E-02    0.316E-02
DAV:   8    -0.132314706119E+04    0.48842E-04   -0.20645E-05 18970   0.141E-02
  43 F= -.13231471E+04 E0= -.13231471E+04  d E =-.365104E-01  mag=   120.0000
       N       E                     dE             d eps       ncg     rms          rms(c)
DAV:   1    -0.131051100682E+04    0.12636E+02   -0.71036E+02 42850   0.100E+02    0.178E+01
DAV:   2    -0.132306025402E+04   -0.12549E+02   -0.11508E+02 36540   0.182E+01    0.110E+01
DAV:   3    -0.132327385265E+04   -0.21360E+00   -0.32768E+00 37990   0.358E+00    0.445E+00
DAV:   4    -0.132324464445E+04    0.29208E-01   -0.19701E-01 42570   0.903E-01    0.340E+00
DAV:   5    -0.132320548696E+04    0.39157E-01   -0.33725E-02 41070   0.617E-01    0.221E+00
DAV:   6    -0.132318512688E+04    0.20360E-01   -0.42622E-02 42170   0.856E-01    0.995E-01
DAV:   7    -0.132319022227E+04   -0.50954E-02   -0.36654E-02 39050   0.515E-01    0.443E-01
DAV:   8    -0.132319023118E+04   -0.89095E-05   -0.47979E-03 37100   0.206E-01    0.195E-01
DAV:   9    -0.132318985732E+04    0.37386E-03   -0.68409E-04 37290   0.593E-02    0.129E-01
DAV:  10    -0.132319011506E+04   -0.25774E-03   -0.21196E-04 33630   0.521E-02    0.702E-02
DAV:  11    -0.132319001767E+04    0.97393E-04   -0.14941E-04 27640   0.390E-02    0.283E-02
DAV:  12    -0.132319000886E+04    0.88040E-05   -0.30322E-05 19030   0.164E-02
  44 F= -.13231900E+04 E0= -.13231900E+04  d E =-.429477E-01  mag=   120.0000
       N       E                     dE             d eps       ncg     rms          rms(c)
DAV:   1    -0.130909314963E+04    0.14097E+02   -0.43666E+02 49890   0.978E+01    0.223E+01
DAV:   2    -0.132230572767E+04   -0.13213E+02   -0.11804E+02 38060   0.183E+01    0.170E+01
DAV:   3    -0.132282567045E+04   -0.51994E+00   -0.58751E+00 37810   0.525E+00    0.664E+00
DAV:   4    -0.132280897882E+04    0.16692E-01   -0.33056E-01 39880   0.119E+00    0.445E+00
DAV:   5    -0.132277244163E+04    0.36537E-01   -0.67206E-02 39830   0.576E-01    0.325E+00
DAV:   6    -0.132273701166E+04    0.35430E-01   -0.43857E-02 41670   0.938E-01    0.151E+00
DAV:   7    -0.132273781224E+04   -0.80058E-03   -0.56116E-02 39870   0.669E-01    0.676E-01
DAV:   8    -0.132274159992E+04   -0.37877E-02   -0.15182E-02 37940   0.371E-01    0.335E-01
DAV:   9    -0.132274026062E+04    0.13393E-02   -0.25505E-03 37350   0.117E-01    0.163E-01
DAV:  10    -0.132273973392E+04    0.52671E-03   -0.39322E-04 35520   0.547E-02    0.101E-01
DAV:  11    -0.132274028130E+04   -0.54738E-03   -0.28700E-04 35300   0.564E-02    0.659E-02
DAV:  12    -0.132273999919E+04    0.28211E-03   -0.84700E-05 24330   0.284E-02    0.256E-02
DAV:  13    -0.132273993330E+04    0.65891E-04   -0.33631E-05 19210   0.105E-02    0.190E-02
DAV:  14    -0.132273997507E+04   -0.41772E-04   -0.49403E-06 18780   0.615E-03
  45 F= -.13227400E+04 E0= -.13227400E+04  d E =0.450034E+00  mag=   120.0000
       N       E                     dE             d eps       ncg     rms          rms(c)
DAV:   1    -0.131969827186E+04    0.30417E+01   -0.14417E+02 50120   0.557E+01    0.101E+01
DAV:   2    -0.132345333320E+04   -0.37551E+01   -0.33119E+01 38120   0.952E+00    0.660E+00
DAV:   3    -0.132359393911E+04   -0.14061E+00   -0.14136E+00 37740   0.240E+00    0.270E+00
DAV:   4    -0.132358586525E+04    0.80739E-02   -0.83158E-02 40320   0.638E-01    0.166E+00
DAV:   5    -0.132357095399E+04    0.14911E-01   -0.28699E-02 39780   0.414E-01    0.981E-01
DAV:   6    -0.132356286835E+04    0.80856E-02   -0.13684E-02 40640   0.458E-01    0.390E-01
DAV:   7    -0.132356596236E+04   -0.30940E-02   -0.12984E-02 38550   0.263E-01    0.267E-01
DAV:   8    -0.132356547209E+04    0.49026E-03   -0.22658E-03 37670   0.135E-01    0.177E-01
DAV:   9    -0.132356529714E+04    0.17495E-03   -0.36805E-04 35460   0.545E-02    0.107E-01
DAV:  10    -0.132356541067E+04   -0.11353E-03   -0.11676E-04 29100   0.353E-02    0.570E-02
DAV:  11    -0.132356543828E+04   -0.27612E-04   -0.66538E-05 25830   0.236E-02
  46 F= -.13235654E+04 E0= -.13235654E+04  d E =-.825463E+00  mag=   120.0000
       N       E                     dE             d eps       ncg     rms          rms(c)
DAV:   1    -0.132352497303E+04    0.40438E-01   -0.34564E+00 45250   0.820E+00    0.136E+00
DAV:   2    -0.132360802727E+04   -0.83054E-01   -0.78084E-01 37780   0.145E+00    0.653E-01
DAV:   3    -0.132360962349E+04   -0.15962E-02   -0.24246E-02 37470   0.325E-01    0.353E-01
DAV:   4    -0.132360946988E+04    0.15361E-03   -0.14037E-03 39150   0.752E-02    0.246E-01
DAV:   5    -0.132360900602E+04    0.46386E-03   -0.41481E-04 38790   0.719E-02    0.149E-01
DAV:   6    -0.132360895481E+04    0.51217E-04   -0.45201E-04 40330   0.774E-02    0.701E-02
DAV:   7    -0.132360884961E+04    0.10519E-03   -0.26466E-04 37180   0.428E-02    0.362E-02
DAV:   8    -0.132360890793E+04   -0.58315E-04   -0.30445E-05 20150   0.195E-02    0.184E-02
DAV:   9    -0.132360888785E+04    0.20084E-04   -0.88395E-06 18690   0.718E-03
  47 F= -.13236089E+04 E0= -.13236089E+04  d E =-.434496E-01  mag=   120.0000
       N       E                     dE             d eps       ncg     rms          rms(c)
DAV:   1    -0.132159880432E+04    0.20101E+01   -0.11537E+02 43310   0.424E+01    0.691E+00
DAV:   2    -0.132376151013E+04   -0.21627E+01   -0.20382E+01 36930   0.750E+00    0.362E+00
DAV:   3    -0.132378543357E+04   -0.23923E-01   -0.47659E-01 37160   0.141E+00    0.159E+00
DAV:   4    -0.132378128011E+04    0.41535E-02   -0.28595E-02 41650   0.327E-01    0.121E+00
DAV:   5    -0.132377240093E+04    0.88792E-02   -0.68299E-03 43940   0.339E-01    0.669E-01
DAV:   6    -0.132377142922E+04    0.97172E-03   -0.78746E-03 41970   0.291E-01    0.292E-01
DAV:   7    -0.132377158155E+04   -0.15233E-03   -0.37965E-03 37750   0.168E-01    0.158E-01
DAV:   8    -0.132377203472E+04   -0.45317E-03   -0.42075E-04 34590   0.634E-02    0.666E-02
DAV:   9    -0.132377186182E+04    0.17289E-03   -0.69927E-05 23900   0.229E-02    0.421E-02
DAV:  10    -0.132377180119E+04    0.60632E-04   -0.34661E-05 19960   0.192E-02    0.230E-02
DAV:  11    -0.132377189935E+04   -0.98161E-04   -0.13129E-05 18640   0.109E-02    0.993E-03
DAV:  12    -0.132377187659E+04    0.22764E-04   -0.37050E-06 18290   0.440E-03
  48 F= -.13237719E+04 E0= -.13237719E+04  d E =-.162989E+00  mag=   120.0000
       N       E                     dE             d eps       ncg     rms          rms(c)
DAV:   1    -0.131146319999E+04    0.12309E+02   -0.38315E+02 47440   0.906E+01    0.199E+01
DAV:   2    -0.132298750641E+04   -0.11524E+02   -0.10327E+02 37700   0.166E+01    0.129E+01
DAV:   3    -0.132335708110E+04   -0.36957E+00   -0.41479E+00 37880   0.434E+00    0.562E+00
DAV:   4    -0.132335073499E+04    0.63461E-02   -0.26348E-01 40070   0.101E+00    0.404E+00
DAV:   5    -0.132332394603E+04    0.26789E-01   -0.38918E-02 40020   0.493E-01    0.296E+00
DAV:   6    -0.132329640561E+04    0.27540E-01   -0.30013E-02 42570   0.813E-01    0.127E+00
DAV:   7    -0.132330090020E+04   -0.44946E-02   -0.35495E-02 39970   0.506E-01    0.527E-01
DAV:   8    -0.132330169684E+04   -0.79664E-03   -0.80548E-03 37620   0.263E-01    0.258E-01
DAV:   9    -0.132330136440E+04    0.33243E-03   -0.15319E-03 37060   0.944E-02    0.135E-01
DAV:  10    -0.132330123709E+04    0.12732E-03   -0.24980E-04 34580   0.487E-02    0.751E-02
DAV:  11    -0.132330128950E+04   -0.52408E-04   -0.19925E-04 32450   0.457E-02    0.487E-02
DAV:  12    -0.132330126970E+04    0.19799E-04   -0.50076E-05 20320   0.206E-02
  49 F= -.13233013E+04 E0= -.13233013E+04  d E =0.470607E+00  mag=   120.0000
       N       E                     dE             d eps       ncg     rms          rms(c)
DAV:   1    -0.132116017536E+04    0.21411E+01   -0.10159E+02 49850   0.491E+01    0.855E+00
DAV:   2    -0.132397434883E+04   -0.28142E+01   -0.24907E+01 38440   0.831E+00    0.516E+00
DAV:   3    -0.132407669637E+04   -0.10235E+00   -0.10384E+00 37680   0.214E+00    0.237E+00
DAV:   4    -0.132407284883E+04    0.38475E-02   -0.65586E-02 39880   0.613E-01    0.144E+00
DAV:   5    -0.132406133962E+04    0.11509E-01   -0.24720E-02 39370   0.462E-01    0.955E-01
DAV:   6    -0.132405665312E+04    0.46865E-02   -0.19194E-02 40800   0.493E-01    0.607E-01
DAV:   7    -0.132405573969E+04    0.91343E-03   -0.10712E-02 39350   0.313E-01    0.242E-01
DAV:   8    -0.132405700197E+04   -0.12623E-02   -0.23292E-03 37630   0.142E-01    0.124E-01
DAV:   9    -0.132405668773E+04    0.31424E-03   -0.54125E-04 37420   0.449E-02    0.109E-01
DAV:  10    -0.132405651311E+04    0.17462E-03   -0.48731E-05 23580   0.290E-02    0.579E-02
DAV:  11    -0.132405681514E+04   -0.30204E-03   -0.45765E-05 22450   0.197E-02    0.210E-02
DAV:  12    -0.132405680463E+04    0.10516E-04   -0.22374E-05 19220   0.135E-02
  50 F= -.13240568E+04 E0= -.13240568E+04  d E =-.755535E+00  mag=   120.0000
       N       E                     dE             d eps       ncg     rms          rms(c)
DAV:   1    -0.132388476262E+04    0.17205E+00   -0.65280E+00 48750   0.130E+01    0.224E+00
DAV:   2    -0.132409610630E+04   -0.21134E+00   -0.18806E+00 38370   0.221E+00    0.108E+00
DAV:   3    -0.132410227885E+04   -0.61726E-02   -0.67763E-02 37560   0.536E-01    0.570E-01
DAV:   4    -0.132410213292E+04    0.14594E-03   -0.40172E-03 39290   0.135E-01    0.377E-01
DAV:   5    -0.132410120693E+04    0.92599E-03   -0.11595E-03 40980   0.110E-01    0.246E-01
DAV:   6    -0.132410114018E+04    0.66745E-04   -0.12263E-03 41540   0.129E-01    0.144E-01
DAV:   7    -0.132410086340E+04    0.27679E-03   -0.69690E-04 39180   0.769E-02    0.563E-02
DAV:   8    -0.132410098439E+04   -0.12100E-03   -0.96236E-05 25290   0.331E-02    0.274E-02
DAV:   9    -0.132410098644E+04   -0.20513E-05   -0.28910E-05 19000   0.114E-02
  51 F= -.13241010E+04 E0= -.13241010E+04  d E =-.441818E-01  mag=   120.0000
       N       E                     dE             d eps       ncg     rms          rms(c)
DAV:   1    -0.132403981215E+04    0.61172E-01   -0.32871E+00 47630   0.824E+00    0.136E+00
DAV:   2    -0.132412378855E+04   -0.83976E-01   -0.76165E-01 36280   0.141E+00    0.646E-01
DAV:   3    -0.132412539936E+04   -0.16108E-02   -0.23335E-02 37410   0.310E-01    0.312E-01
DAV:   4    -0.132412546138E+04   -0.62021E-04   -0.16384E-03 38620   0.862E-02    0.234E-01
DAV:   5    -0.132412503884E+04    0.42254E-03   -0.27316E-04 31870   0.661E-02    0.166E-01
DAV:   6    -0.132412503960E+04   -0.75536E-06   -0.41665E-04 41030   0.827E-02
  52 F= -.13241250E+04 E0= -.13241250E+04  d E =-.240532E-01  mag=   120.0000
       N       E                     dE             d eps       ncg     rms          rms(c)
DAV:   1    -0.132267728945E+04    0.14477E+01   -0.64003E+01 45790   0.338E+01    0.597E+00
DAV:   2    -0.132416531227E+04   -0.14880E+01   -0.13791E+01 35930   0.593E+00    0.322E+00
DAV:   3    -0.132419252892E+04   -0.27217E-01   -0.40112E-01 37250   0.130E+00    0.144E+00
DAV:   4    -0.132419190415E+04    0.62477E-03   -0.29619E-02 39220   0.388E-01    0.112E+00
DAV:   5    -0.132418749049E+04    0.44137E-02   -0.50213E-03 42110   0.270E-01    0.801E-01
DAV:   6    -0.132418512465E+04    0.23658E-02   -0.63053E-03 42960   0.336E-01    0.389E-01
DAV:   7    -0.132418482042E+04    0.30423E-03   -0.40434E-03 39250   0.170E-01    0.114E-01
DAV:   8    -0.132418549696E+04   -0.67654E-03   -0.49799E-04 35910   0.516E-02    0.596E-02
DAV:   9    -0.132418544216E+04    0.54802E-04   -0.36658E-05 20850   0.182E-02    0.379E-02
DAV:  10    -0.132418538803E+04    0.54132E-04   -0.31727E-05 19880   0.201E-02    0.202E-02
DAV:  11    -0.132418544493E+04   -0.56900E-04   -0.93723E-06 18200   0.713E-03    0.109E-02
DAV:  12    -0.132418543980E+04    0.51256E-05   -0.20964E-06 17960   0.423E-03
  53 F= -.13241854E+04 E0= -.13241854E+04  d E =-.604002E-01  mag=   120.0000
       N       E                     dE             d eps       ncg     rms          rms(c)
DAV:   1    -0.131919510208E+04    0.49903E+01   -0.26828E+02 42500   0.612E+01    0.113E+01
DAV:   2    -0.132416179330E+04   -0.49667E+01   -0.46427E+01 35870   0.111E+01    0.670E+00
DAV:   3    -0.132424578976E+04   -0.83996E-01   -0.13269E+00 37970   0.227E+00    0.283E+00
DAV:   4    -0.132423626287E+04    0.95269E-02   -0.89562E-02 39850   0.607E-01    0.221E+00
DAV:   5    -0.132422303903E+04    0.13224E-01   -0.12283E-02 41370   0.404E-01    0.153E+00
DAV:   6    -0.132421291269E+04    0.10126E-01   -0.21205E-02 43220   0.605E-01    0.800E-01
DAV:   7    -0.132421401298E+04   -0.11003E-02   -0.15220E-02 39390   0.356E-01    0.234E-01
DAV:   8    -0.132421456806E+04   -0.55509E-03   -0.19540E-03 36700   0.109E-01    0.113E-01
DAV:   9    -0.132421430472E+04    0.26334E-03   -0.17854E-04 33790   0.320E-02    0.725E-02
DAV:  10    -0.132421443823E+04   -0.13351E-03   -0.11213E-04 25440   0.378E-02    0.386E-02
DAV:  11    -0.132421438218E+04    0.56046E-04   -0.33968E-05 18980   0.155E-02    0.169E-02
DAV:  12    -0.132421436993E+04    0.12258E-04   -0.81415E-06 18260   0.747E-03
  54 F= -.13242144E+04 E0= -.13242144E+04  d E =-.289301E-01  mag=   120.0000
       N       E                     dE             d eps       ncg     rms          rms(c)
DAV:   1    -0.132334470201E+04    0.86968E+00   -0.39684E+01 45970   0.282E+01    0.467E+00
DAV:   2    -0.132429646552E+04   -0.95176E+00   -0.86768E+00 37540   0.484E+00    0.239E+00
DAV:   3    -0.132431443682E+04   -0.17971E-01   -0.26376E-01 37210   0.111E+00    0.120E+00
DAV:   4    -0.132431467829E+04   -0.24147E-03   -0.17811E-02 39620   0.291E-01    0.838E-01
DAV:   5    -0.132431157969E+04    0.30986E-02   -0.36980E-03 42020   0.222E-01    0.564E-01
DAV:   6    -0.132431032625E+04    0.12534E-02   -0.49902E-03 42690   0.268E-01    0.293E-01
DAV:   7    -0.132430990061E+04    0.42563E-03   -0.28442E-03 38730   0.155E-01    0.121E-01
DAV:   8    -0.132431054312E+04   -0.64250E-03   -0.37128E-04 35900   0.585E-02    0.566E-02
DAV:   9    -0.132431048050E+04    0.62612E-04   -0.50918E-05 21400   0.179E-02    0.342E-02
DAV:  10    -0.132431036815E+04    0.11235E-03   -0.19312E-05 19610   0.150E-02    0.193E-02
DAV:  11    -0.132431047266E+04   -0.10450E-03   -0.87796E-06 18640   0.784E-03    0.952E-03
DAV:  12    -0.132431044821E+04    0.24451E-04   -0.27253E-06 18310   0.430E-03
  55 F= -.13243104E+04 E0= -.13243104E+04  d E =-.960783E-01  mag=   120.0000
       N       E                     dE             d eps       ncg     rms          rms(c)
DAV:   1    -0.132402144348E+04    0.28903E+00   -0.16710E+01 45100   0.165E+01    0.262E+00
DAV:   2    -0.132433514352E+04   -0.31370E+00   -0.29912E+00 36250   0.290E+00    0.128E+00
DAV:   3    -0.132434018183E+04   -0.50383E-02   -0.89425E-02 37310   0.609E-01    0.623E-01
DAV:   4    -0.132434021374E+04   -0.31908E-04   -0.54745E-03 39260   0.136E-01    0.454E-01
DAV:   5    -0.132433891078E+04    0.13030E-02   -0.11056E-03 42660   0.133E-01    0.272E-01
DAV:   6    -0.132433882263E+04    0.88157E-04   -0.15593E-03 43730   0.138E-01    0.138E-01
DAV:   7    -0.132433865998E+04    0.16264E-03   -0.74683E-04 37610   0.764E-02    0.567E-02
DAV:   8    -0.132433888484E+04   -0.22486E-03   -0.70710E-05 22970   0.257E-02    0.281E-02
DAV:   9    -0.132433886402E+04    0.20820E-04   -0.13111E-05 18490   0.980E-03
  56 F= -.13243389E+04 E0= -.13243389E+04  d E =-.284158E-01  mag=   120.0000
       N       E                     dE             d eps       ncg     rms          rms(c)
DAV:   1    -0.132416869789E+04    0.17019E+00   -0.10418E+01 45010   0.127E+01    0.202E+00
DAV:   2    -0.132435501068E+04   -0.18631E+00   -0.17837E+00 36450   0.224E+00    0.996E-01
DAV:   3    -0.132435747829E+04   -0.24676E-02   -0.54430E-02 36780   0.486E-01    0.510E-01
DAV:   4    -0.132435735055E+04    0.12774E-03   -0.35291E-03 39730   0.116E-01    0.361E-01
DAV:   5    -0.132435670818E+04    0.64237E-03   -0.66421E-04 41710   0.963E-02    0.219E-01
DAV:   6    -0.132435633638E+04    0.37180E-03   -0.83675E-04 43510   0.975E-02    0.787E-02
DAV:   7    -0.132435656037E+04   -0.22399E-03   -0.37717E-04 37430   0.486E-02    0.452E-02
DAV:   8    -0.132435649320E+04    0.67175E-04   -0.39174E-05 20090   0.201E-02    0.250E-02
DAV:   9    -0.132435652432E+04   -0.31120E-04   -0.78952E-06 18330   0.859E-03
  57 F= -.13243565E+04 E0= -.13243565E+04  d E =-.176603E-01  mag=   120.0000
       N       E                     dE             d eps       ncg     rms          rms(c)
DAV:   1    -0.132403119826E+04    0.32529E+00   -0.22711E+01 44470   0.173E+01    0.270E+00
DAV:   2    -0.132437459493E+04   -0.34340E+00   -0.33510E+00 36370   0.307E+00    0.141E+00
DAV:   3    -0.132437914647E+04   -0.45515E-02   -0.10015E-01 36240   0.679E-01    0.737E-01
DAV:   4    -0.132437837671E+04    0.76976E-03   -0.71227E-03 39620   0.190E-01    0.492E-01
DAV:   5    -0.132437736273E+04    0.10140E-02   -0.16652E-03 41360   0.152E-01    0.305E-01
DAV:   6    -0.132437648025E+04    0.88248E-03   -0.22096E-03 42760   0.163E-01    0.175E-01
DAV:   7    -0.132437691676E+04   -0.43651E-03   -0.10067E-03 37800   0.906E-02    0.687E-02
DAV:   8    -0.132437682868E+04    0.88084E-04   -0.88951E-05 26130   0.255E-02    0.334E-02
DAV:   9    -0.132437680288E+04    0.25798E-04   -0.13383E-05 18690   0.947E-03
  58 F= -.13243768E+04 E0= -.13243768E+04  d E =-.202786E-01  mag=   120.0000
       N       E                     dE             d eps       ncg     rms          rms(c)
DAV:   1    -0.132344292544E+04    0.93390E+00   -0.55819E+01 43230   0.275E+01    0.466E+00
DAV:   2    -0.132439778998E+04   -0.95486E+00   -0.92050E+00 36680   0.496E+00    0.242E+00
DAV:   3    -0.132440979323E+04   -0.12003E-01   -0.24471E-01 36870   0.978E-01    0.112E+00
DAV:   4    -0.132440814280E+04    0.16504E-02   -0.16338E-02 39810   0.246E-01    0.849E-01
DAV:   5    -0.132440475122E+04    0.33916E-02   -0.29576E-03 42240   0.207E-01    0.531E-01
DAV:   6    -0.132440298447E+04    0.17668E-02   -0.44338E-03 42370   0.237E-01    0.255E-01
DAV:   7    -0.132440381204E+04   -0.82757E-03   -0.25159E-03 38420   0.137E-01    0.112E-01
DAV:   8    -0.132440374296E+04    0.69078E-04   -0.24949E-04 33910   0.463E-02    0.499E-02
DAV:   9    -0.132440372763E+04    0.15334E-04   -0.35844E-05 20060   0.165E-02
  59 F= -.13244037E+04 E0= -.13244037E+04  d E =-.269247E-01  mag=   120.0000
       N       E                     dE             d eps       ncg     rms          rms(c)
DAV:   1    -0.132336789641E+04    0.10358E+01   -0.65971E+01 42010   0.290E+01    0.488E+00
DAV:   2    -0.132441220750E+04   -0.10443E+01   -0.10131E+01 36630   0.530E+00    0.244E+00
DAV:   3    -0.132442779901E+04   -0.15592E-01   -0.29940E-01 37020   0.111E+00    0.120E+00
DAV:   4    -0.132442589139E+04    0.19076E-02   -0.19030E-02 40070   0.249E-01    0.888E-01
DAV:   5    -0.132442185581E+04    0.40356E-02   -0.35090E-03 41820   0.217E-01    0.545E-01
DAV:   6    -0.132442027126E+04    0.15845E-02   -0.45623E-03 43690   0.220E-01    0.204E-01
DAV:   7    -0.132442105729E+04   -0.78603E-03   -0.21564E-03 38150   0.115E-01    0.114E-01
DAV:   8    -0.132442099068E+04    0.66605E-04   -0.26105E-04 33880   0.483E-02    0.587E-02
DAV:   9    -0.132442102980E+04   -0.39119E-04   -0.41682E-05 20480   0.196E-02
  60 F= -.13244210E+04 E0= -.13244210E+04  d E =-.173022E-01  mag=   120.0000
       N       E                     dE             d eps       ncg     rms          rms(c)
DAV:   1    -0.132397631311E+04    0.44468E+00   -0.25948E+01 44280   0.198E+01    0.325E+00
DAV:   2    -0.132444628541E+04   -0.46997E+00   -0.44791E+00 37340   0.354E+00    0.163E+00
DAV:   3    -0.132445365162E+04   -0.73662E-02   -0.13227E-01 37370   0.754E-01    0.843E-01
DAV:   4    -0.132445306557E+04    0.58605E-03   -0.85729E-03 39530   0.191E-01    0.587E-01
DAV:   5    -0.132445098737E+04    0.20782E-02   -0.21984E-03 42110   0.170E-01    0.360E-01
DAV:   6    -0.132445061962E+04    0.36775E-03   -0.27978E-03 43590   0.179E-01    0.191E-01
DAV:   7    -0.132445028954E+04    0.33009E-03   -0.13874E-03 38240   0.105E-01    0.833E-02
DAV:   8    -0.132445054034E+04   -0.25080E-03   -0.14534E-04 30390   0.371E-02    0.418E-02
DAV:   9    -0.132445049959E+04    0.40747E-04   -0.23076E-05 19080   0.124E-02
  61 F= -.13244505E+04 E0= -.13244505E+04  d E =-.294698E-01  mag=   120.0000
       N       E                     dE             d eps       ncg     rms          rms(c)
DAV:   1    -0.132424211597E+04    0.20842E+00   -0.20089E+01 41790   0.144E+01    0.220E+00
[...]
DAV:   7    -0.132438223641E+04   -0.60223E-03   -0.22151E-03 38290   0.127E-01    0.986E-02
DAV:   8    -0.132438219611E+04    0.40301E-04   -0.22993E-04 34120   0.405E-02
 170 F= -.13243822E+04 E0= -.13243822E+04  d E =0.746162E-01  mag=   120.0000
       N       E                     dE             d eps       ncg     rms          rms(c)
DAV:   1    -0.132067333785E+04    0.37089E+01   -0.87138E+01 49020   0.474E+01    0.970E+00
DAV:   2    -0.132398588759E+04   -0.33125E+01   -0.28943E+01 37510   0.811E+00    0.598E+00
DAV:   3    -0.132410384086E+04   -0.11795E+00   -0.11894E+00 37800   0.214E+00    0.259E+00
DAV:   4    -0.132410503573E+04   -0.11949E-02   -0.75972E-02 40550   0.575E-01    0.180E+00
DAV:   5    -0.132409676761E+04    0.82681E-02   -0.14830E-02 39770   0.388E-01    0.130E+00
DAV:   6    -0.132409364816E+04    0.31195E-02   -0.18151E-02 41430   0.480E-01    0.903E-01
DAV:   7    -0.132408977174E+04    0.38764E-02   -0.12217E-02 40650   0.367E-01    0.268E-01
DAV:   8    -0.132409212109E+04   -0.23494E-02   -0.27356E-03 38640   0.140E-01    0.128E-01
DAV:   9    -0.132409194612E+04    0.17496E-03   -0.47829E-04 37250   0.469E-02    0.848E-02
DAV:  10    -0.132409171630E+04    0.22982E-03   -0.54799E-05 22120   0.240E-02    0.449E-02
DAV:  11    -0.132409188074E+04   -0.16444E-03   -0.30766E-05 20760   0.162E-02    0.210E-02
DAV:  12    -0.132409189747E+04   -0.16726E-04   -0.15328E-05 19080   0.102E-02
 171 F= -.13240919E+04 E0= -.13240919E+04  d E =0.290299E+00  mag=   120.0000
       N       E                     dE             d eps       ncg     rms          rms(c)
DAV:   1    -0.132357372122E+04    0.51816E+00   -0.23111E+01 49990   0.243E+01    0.410E+00
DAV:   2    -0.132427287096E+04   -0.69915E+00   -0.61029E+00 38030   0.407E+00    0.227E+00
DAV:   3    -0.132430228454E+04   -0.29414E-01   -0.27914E-01 37600   0.113E+00    0.122E+00
DAV:   4    -0.132430065170E+04    0.16328E-02   -0.20762E-02 39540   0.382E-01    0.702E-01
DAV:   5    -0.132429973231E+04    0.91939E-03   -0.61280E-03 40300   0.253E-01    0.497E-01
DAV:   6    -0.132429781754E+04    0.19148E-02   -0.54864E-03 40730   0.246E-01    0.268E-01
DAV:   7    -0.132429834602E+04   -0.52847E-03   -0.20628E-03 39610   0.127E-01    0.100E-01
DAV:   8    -0.132429839536E+04   -0.49345E-04   -0.58560E-04 37700   0.618E-02    0.615E-02
DAV:   9    -0.132429835528E+04    0.40082E-04   -0.90712E-05 25570   0.216E-02
 172 F= -.13242984E+04 E0= -.13242984E+04  d E =-.206458E+00  mag=   120.0000
       N       E                     dE             d eps       ncg     rms          rms(c)
DAV:   1    -0.132414135280E+04    0.15704E+00   -0.56500E+00 49660   0.115E+01    0.199E+00
DAV:   2    -0.132430982392E+04   -0.16847E+00   -0.14694E+00 37680   0.193E+00    0.102E+00
DAV:   3    -0.132431691619E+04   -0.70923E-02   -0.63907E-02 37410   0.515E-01    0.558E-01
DAV:   4    -0.132431652737E+04    0.38882E-03   -0.43192E-03 39840   0.161E-01    0.330E-01
DAV:   5    -0.132431652440E+04    0.29748E-05   -0.11572E-03 39500   0.112E-01    0.230E-01
DAV:   6    -0.132431611430E+04    0.41009E-03   -0.10935E-03 40340   0.112E-01    0.126E-01
DAV:   7    -0.132431633309E+04   -0.21879E-03   -0.42149E-04 38780   0.561E-02    0.440E-02
DAV:   8    -0.132431629446E+04    0.38626E-04   -0.87945E-05 24660   0.268E-02
 173 F= -.13243163E+04 E0= -.13243163E+04  d E =-.179392E-01  mag=   120.0000
       N       E                     dE             d eps       ncg     rms          rms(c)
DAV:   1    -0.132428968657E+04    0.26647E-01   -0.91148E-01 46280   0.435E+00    0.741E-01
DAV:   2    -0.132431441918E+04   -0.24733E-01   -0.22375E-01 36560   0.732E-01    0.354E-01
DAV:   3    -0.132431501171E+04   -0.59253E-03   -0.70386E-03 36830   0.157E-01    0.166E-01
DAV:   4    -0.132431501429E+04   -0.25793E-05   -0.39102E-04 29760   0.338E-02
 174 F= -.13243150E+04 E0= -.13243150E+04  d E =0.128018E-02  mag=   120.0000
       N       E                     dE             d eps       ncg     rms          rms(c)
DAV:   1    -0.132420556373E+04    0.10945E+00   -0.40687E+00 45150   0.850E+00    0.141E+00
DAV:   2    -0.132430221303E+04   -0.96649E-01   -0.89376E-01 36320   0.143E+00    0.710E-01
DAV:   3    -0.132430370869E+04   -0.14957E-02   -0.25992E-02 37180   0.294E-01    0.346E-01
DAV:   4    -0.132430368932E+04    0.19376E-04   -0.15204E-03 40160   0.697E-02    0.263E-01
DAV:   5    -0.132430322266E+04    0.46666E-03   -0.40456E-04 38840   0.845E-02    0.144E-01
DAV:   6    -0.132430329479E+04   -0.72129E-04   -0.47285E-04 40230   0.717E-02    0.745E-02
DAV:   7    -0.132430315798E+04    0.13681E-03   -0.17541E-04 31110   0.400E-02    0.278E-02
DAV:   8    -0.132430322623E+04   -0.68244E-04   -0.18018E-05 18630   0.124E-02    0.143E-02
DAV:   9    -0.132430322865E+04   -0.24215E-05   -0.49746E-06 18170   0.555E-03
 175 F= -.13243032E+04 E0= -.13243032E+04  d E =0.117856E-01  mag=   120.0000
       N       E                     dE             d eps       ncg     rms          rms(c)
DAV:   1    -0.132425669706E+04    0.46529E-01   -0.21566E+00 42970   0.518E+00    0.850E-01
DAV:   2    -0.132429099506E+04   -0.34298E-01   -0.33882E-01 36200   0.900E-01    0.410E-01
DAV:   3    -0.132429131637E+04   -0.32131E-03   -0.91998E-03 37020   0.175E-01    0.199E-01
DAV:   4    -0.132429128245E+04    0.33914E-04   -0.56662E-04 34920   0.436E-02    0.150E-01
DAV:   5    -0.132429105589E+04    0.22656E-03   -0.13752E-04 28610   0.493E-02    0.927E-02
DAV:   6    -0.132429109858E+04   -0.42691E-04   -0.21524E-04 35790   0.468E-02
 176 F= -.13242911E+04 E0= -.13242911E+04  d E =0.121301E-01  mag=   120.0000
       N       E                     dE             d eps       ncg     rms          rms(c)
DAV:   1    -0.132378891891E+04    0.50214E+00   -0.26592E+01 42770   0.184E+01    0.315E+00
DAV:   2    -0.132423898842E+04   -0.45007E+00   -0.43891E+00 36240   0.322E+00    0.158E+00
DAV:   3    -0.132424375254E+04   -0.47641E-02   -0.11262E-01 37030   0.618E-01    0.731E-01
DAV:   4    -0.132424312173E+04    0.63081E-03   -0.71159E-03 40150   0.147E-01    0.558E-01
DAV:   5    -0.132424107474E+04    0.20470E-02   -0.14058E-03 43900   0.153E-01    0.333E-01
DAV:   6    -0.132424085460E+04    0.22014E-03   -0.20220E-03 42970   0.151E-01    0.167E-01
DAV:   7    -0.132424062164E+04    0.23297E-03   -0.90621E-04 37620   0.836E-02    0.669E-02
DAV:   8    -0.132424082052E+04   -0.19888E-03   -0.85458E-05 25460   0.244E-02    0.328E-02
DAV:   9    -0.132424082108E+04   -0.56982E-06   -0.14485E-05 18790   0.116E-02
 177 F= -.13242408E+04 E0= -.13242408E+04  d E =0.502775E-01  mag=   120.0000
       N       E                     dE             d eps       ncg     rms          rms(c)
DAV:   1    -0.132155946407E+04    0.26814E+01   -0.13650E+02 43800   0.421E+01    0.776E+00
DAV:   2    -0.132407750489E+04   -0.25180E+01   -0.23354E+01 36200   0.751E+00    0.451E+00
DAV:   3    -0.132411559223E+04   -0.38087E-01   -0.61761E-01 37110   0.151E+00    0.188E+00
DAV:   4    -0.132411234059E+04    0.32516E-02   -0.42337E-02 39850   0.411E-01    0.142E+00
DAV:   5    -0.132410504673E+04    0.72939E-02   -0.76244E-03 41830   0.314E-01    0.954E-01
DAV:   6    -0.132410237851E+04    0.26682E-02   -0.10426E-02 42370   0.388E-01    0.542E-01
DAV:   7    -0.132410133301E+04    0.10455E-02   -0.71345E-03 39600   0.239E-01    0.175E-01
DAV:   8    -0.132410249775E+04   -0.11647E-02   -0.88123E-04 36540   0.732E-02    0.863E-02
DAV:   9    -0.132410250826E+04   -0.10519E-04   -0.75852E-05 25360   0.234E-02
 178 F= -.13241025E+04 E0= -.13241025E+04  d E =0.138313E+00  mag=   120.0000
       N       E                     dE             d eps       ncg     rms          rms(c)
DAV:   1    -0.131865462642E+04    0.54479E+01   -0.17200E+02 46950   0.570E+01    0.122E+01
DAV:   2    -0.132363491778E+04   -0.49803E+01   -0.44409E+01 37140   0.103E+01    0.789E+00
DAV:   3    -0.132378896299E+04   -0.15405E+00   -0.15991E+00 37490   0.256E+00    0.339E+00
DAV:   4    -0.132378716043E+04    0.18026E-02   -0.98035E-02 39940   0.656E-01    0.236E+00
DAV:   5    -0.132377892471E+04    0.82357E-02   -0.17754E-02 39660   0.375E-01    0.169E+00
DAV:   6    -0.132377185652E+04    0.70682E-02   -0.16341E-02 41920   0.496E-01    0.978E-01
DAV:   7    -0.132377218072E+04   -0.32420E-03   -0.14797E-02 40410   0.384E-01    0.307E-01
DAV:   8    -0.132377295140E+04   -0.77067E-03   -0.32738E-03 37540   0.151E-01    0.122E-01
DAV:   9    -0.132377270156E+04    0.24984E-03   -0.55012E-04 36560   0.472E-02    0.788E-02
DAV:  10    -0.132377283002E+04   -0.12846E-03   -0.63466E-05 23410   0.244E-02    0.478E-02
DAV:  11    -0.132377285879E+04   -0.28770E-04   -0.37998E-05 20530   0.207E-02
 179 F= -.13237729E+04 E0= -.13237729E+04  d E =0.329649E+00  mag=   120.0000
       N       E                     dE             d eps       ncg     rms          rms(c)
DAV:   1    -0.132322643581E+04    0.54639E+00   -0.22749E+01 50100   0.228E+01    0.426E+00
DAV:   2    -0.132394486566E+04   -0.71843E+00   -0.62235E+00 37670   0.383E+00    0.235E+00
DAV:   3    -0.132397399145E+04   -0.29126E-01   -0.26867E-01 37370   0.103E+00    0.116E+00
DAV:   4    -0.132397438474E+04   -0.39328E-03   -0.17833E-02 39850   0.291E-01    0.709E-01
DAV:   5    -0.132397194544E+04    0.24393E-02   -0.45511E-03 38830   0.197E-01    0.487E-01
DAV:   6    -0.132397103249E+04    0.91295E-03   -0.32694E-03 40850   0.205E-01    0.271E-01
DAV:   7    -0.132397064520E+04    0.38729E-03   -0.19179E-03 39340   0.132E-01    0.123E-01
DAV:   8    -0.132397109929E+04   -0.45409E-03   -0.40934E-04 36050   0.587E-02    0.560E-02
DAV:   9    -0.132397101054E+04    0.88746E-04   -0.69021E-05 23400   0.185E-02    0.355E-02
DAV:  10    -0.132397094062E+04    0.69928E-04   -0.14980E-05 18870   0.118E-02    0.205E-02
DAV:  11    -0.132397101647E+04   -0.75854E-04   -0.87719E-06 18670   0.911E-03    0.835E-03
DAV:  12    -0.132397100087E+04    0.15597E-04   -0.30023E-06 18350   0.413E-03
 180 F= -.13239710E+04 E0= -.13239710E+04  d E =-.198142E+00  mag=   120.0000
       N       E                     dE             d eps       ncg     rms          rms(c)
DAV:   1    -0.132371328132E+04    0.25774E+00   -0.94607E+00 49360   0.142E+01    0.252E+00
DAV:   2    -0.132398479887E+04   -0.27152E+00   -0.23786E+00 37480   0.238E+00    0.128E+00
DAV:   3    -0.132399508599E+04   -0.10287E-01   -0.93721E-02 37130   0.598E-01    0.654E-01
DAV:   4    -0.132399507025E+04    0.15740E-04   -0.56968E-03 39570   0.151E-01    0.407E-01
DAV:   5    -0.132399407994E+04    0.99032E-03   -0.13860E-03 39760   0.110E-01    0.269E-01
DAV:   6    -0.132399387407E+04    0.20587E-03   -0.10126E-03 40730   0.112E-01    0.141E-01
DAV:   7    -0.132399369629E+04    0.17778E-03   -0.61492E-04 38520   0.719E-02    0.684E-02
DAV:   8    -0.132399387610E+04   -0.17981E-03   -0.10661E-04 26330   0.334E-02    0.324E-02
DAV:   9    -0.132399383692E+04    0.39179E-04   -0.23565E-05 19240   0.113E-02
 181 F= -.13239938E+04 E0= -.13239938E+04  d E =-.228361E-01  mag=   120.0000
       N       E                     dE             d eps       ncg     rms          rms(c)
DAV:   1    -0.132393447950E+04    0.59397E-01   -0.25957E+00 44300   0.622E+00    0.101E+00
DAV:   2    -0.132398237251E+04   -0.47893E-01   -0.46398E-01 36360   0.110E+00    0.492E-01
DAV:   3    -0.132398324578E+04   -0.87326E-03   -0.14758E-02 36710   0.243E-01    0.263E-01
DAV:   4    -0.132398319152E+04    0.54254E-04   -0.10117E-03 37820   0.653E-02    0.185E-01
DAV:   5    -0.132398289380E+04    0.29772E-03   -0.17015E-04 29570   0.505E-02    0.125E-01
DAV:   6    -0.132398292878E+04   -0.34978E-04   -0.28792E-04 36560   0.620E-02
 182 F= -.13239829E+04 E0= -.13239829E+04  d E =0.109081E-01  mag=   120.0000
       N       E                     dE             d eps       ncg     rms          rms(c)
DAV:   1    -0.132273745775E+04    0.12454E+01   -0.61724E+01 43470   0.296E+01    0.507E+00
DAV:   2    -0.132388587763E+04   -0.11484E+01   -0.10932E+01 36010   0.527E+00    0.260E+00
DAV:   3    -0.132390118358E+04   -0.15306E-01   -0.30236E-01 36690   0.107E+00    0.121E+00
DAV:   4    -0.132389971457E+04    0.14690E-02   -0.21092E-02 40050   0.299E-01    0.939E-01
DAV:   5    -0.132389570597E+04    0.40086E-02   -0.40144E-03 41700   0.245E-01    0.655E-01
DAV:   6    -0.132389416524E+04    0.15407E-02   -0.53439E-03 43020   0.291E-01    0.305E-01
DAV:   7    -0.132389395544E+04    0.20980E-03   -0.29946E-03 38280   0.142E-01    0.101E-01
DAV:   8    -0.132389437644E+04   -0.42100E-03   -0.31647E-04 34980   0.410E-02    0.543E-02
DAV:   9    -0.132389437727E+04   -0.83436E-06   -0.24441E-05 20040   0.163E-02
 183 F= -.13238944E+04 E0= -.13238944E+04  d E =0.885515E-01  mag=   120.0000
       N       E                     dE             d eps       ncg     rms          rms(c)
DAV:   1    -0.131824843440E+04    0.56459E+01   -0.28855E+02 43640   0.617E+01    0.117E+01
DAV:   2    -0.132355695919E+04   -0.53085E+01   -0.48814E+01 35950   0.112E+01    0.695E+00
DAV:   3    -0.132364430289E+04   -0.87344E-01   -0.13456E+00 37600   0.227E+00    0.295E+00
DAV:   4    -0.132363587928E+04    0.84236E-02   -0.88576E-02 40600   0.610E-01    0.225E+00
DAV:   5    -0.132362115093E+04    0.14728E-01   -0.13802E-02 40960   0.430E-01    0.159E+00
DAV:   6    -0.132361367210E+04    0.74788E-02   -0.22057E-02 43250   0.608E-01    0.886E-01
DAV:   7    -0.132361157812E+04    0.20940E-02   -0.16653E-02 39300   0.380E-01    0.238E-01
DAV:   8    -0.132361371567E+04   -0.21376E-02   -0.23068E-03 36630   0.114E-01    0.122E-01
DAV:   9    -0.132361366154E+04    0.54131E-04   -0.16810E-04 32570   0.363E-02    0.780E-02
DAV:  10    -0.132361349221E+04    0.16932E-03   -0.14611E-04 26360   0.403E-02    0.413E-02
DAV:  11    -0.132361362275E+04   -0.13054E-03   -0.31602E-05 19020   0.141E-02    0.197E-02
DAV:  12    -0.132361361010E+04    0.12650E-04   -0.71725E-06 18120   0.663E-03
 184 F= -.13236136E+04 E0= -.13236136E+04  d E =0.280767E+00  mag=   120.0000
       N       E                     dE             d eps       ncg     rms          rms(c)
DAV:   1    -0.131633425705E+04    0.72794E+01   -0.22274E+02 48430   0.704E+01    0.136E+01
DAV:   2    -0.132284684041E+04   -0.65126E+01   -0.56926E+01 37240   0.123E+01    0.927E+00
DAV:   3    -0.132305299133E+04   -0.20615E+00   -0.20846E+00 37050   0.311E+00    0.363E+00
DAV:   4    -0.132305647505E+04   -0.34837E-02   -0.12828E-01 40530   0.735E-01    0.247E+00
DAV:   5    -0.132304515836E+04    0.11317E-01   -0.21956E-02 40830   0.415E-01    0.168E+00
DAV:   6    -0.132303889072E+04    0.62676E-02   -0.17116E-02 41490   0.535E-01    0.918E-01
DAV:   7    -0.132303857916E+04    0.31156E-03   -0.14820E-02 40100   0.382E-01    0.352E-01
DAV:   8    -0.132304102214E+04   -0.24430E-02   -0.30523E-03 36950   0.159E-01    0.131E-01
DAV:   9    -0.132304069074E+04    0.33141E-03   -0.50328E-04 35860   0.489E-02    0.793E-02
DAV:  10    -0.132304056314E+04    0.12759E-03   -0.80147E-05 24750   0.294E-02    0.483E-02
DAV:  11    -0.132304080492E+04   -0.24177E-03   -0.38857E-05 19490   0.204E-02    0.203E-02
DAV:  12    -0.132304072595E+04    0.78962E-04   -0.16213E-05 18580   0.942E-03    0.113E-02
DAV:  13    -0.132304068325E+04    0.42702E-04   -0.39757E-06 18280   0.513E-03
 185 F= -.13230407E+04 E0= -.13230407E+04  d E =0.572927E+00  mag=   120.0000
       N       E                     dE             d eps       ncg     rms          rms(c)
DAV:   1    -0.132227327229E+04    0.76745E+00   -0.39623E+01 48780   0.287E+01    0.479E+00
DAV:   2    -0.132325110746E+04   -0.97784E+00   -0.86588E+00 37320   0.483E+00    0.250E+00
DAV:   3    -0.132328228303E+04   -0.31176E-01   -0.32770E-01 37230   0.119E+00    0.125E+00
DAV:   4    -0.132328221509E+04    0.67940E-04   -0.21852E-02 39770   0.333E-01    0.810E-01
DAV:   5    -0.132327877897E+04    0.34361E-02   -0.57356E-03 39020   0.242E-01    0.548E-01
DAV:   6    -0.132327755159E+04    0.12274E-02   -0.47938E-03 42790   0.251E-01    0.278E-01
DAV:   7    -0.132327732981E+04    0.22178E-03   -0.22623E-03 39070   0.137E-01    0.113E-01
DAV:   8    -0.132327773306E+04   -0.40326E-03   -0.36750E-04 35160   0.512E-02    0.589E-02
DAV:   9    -0.132327766405E+04    0.69008E-04   -0.43181E-05 20640   0.166E-02    0.337E-02
DAV:  10    -0.132327759521E+04    0.68844E-04   -0.17809E-05 18820   0.138E-02    0.204E-02
DAV:  11    -0.132327766611E+04   -0.70905E-04   -0.83301E-06 18500   0.844E-03    0.787E-03
DAV:  12    -0.132327766516E+04    0.95139E-06   -0.27208E-06 18190   0.419E-03
 186 F= -.13232777E+04 E0= -.13232777E+04  d E =-.236982E+00  mag=   120.0000
       N       E                     dE             d eps       ncg     rms          rms(c)
DAV:   1    -0.132294953644E+04    0.32813E+00   -0.16218E+01 46470   0.168E+01    0.271E+00
DAV:   2    -0.132327825044E+04   -0.32871E+00   -0.30427E+00 37230   0.291E+00    0.133E+00
DAV:   3    -0.132328554493E+04   -0.72945E-02   -0.94969E-02 36920   0.638E-01    0.673E-01
DAV:   4    -0.132328493404E+04    0.61089E-03   -0.58531E-03 39670   0.152E-01    0.455E-01
DAV:   5    -0.132328336927E+04    0.15648E-02   -0.16646E-03 41090   0.138E-01    0.280E-01
DAV:   6    -0.132328325056E+04    0.11871E-03   -0.15163E-03 43100   0.132E-01    0.134E-01
DAV:   7    -0.132328303473E+04    0.21583E-03   -0.69887E-04 37870   0.751E-02    0.629E-02
DAV:   8    -0.132328315223E+04   -0.11750E-03   -0.84786E-05 23600   0.291E-02    0.315E-02
DAV:   9    -0.132328313972E+04    0.12505E-04   -0.16164E-05 18870   0.100E-02
 187 F= -.13232831E+04 E0= -.13232831E+04  d E =-.547456E-02  mag=   120.0000
       N       E                     dE             d eps       ncg     rms          rms(c)
DAV:   1    -0.132302788827E+04    0.25526E+00   -0.13491E+01 44920   0.140E+01    0.221E+00
DAV:   2    -0.132324277271E+04   -0.21488E+00   -0.20854E+00 36260   0.246E+00    0.105E+00
DAV:   3    -0.132324632555E+04   -0.35528E-02   -0.59897E-02 36440   0.499E-01    0.494E-01
DAV:   4    -0.132324587829E+04    0.44726E-03   -0.36530E-03 39760   0.112E-01    0.358E-01
DAV:   5    -0.132324485578E+04    0.10225E-02   -0.94397E-04 42530   0.119E-01    0.201E-01
DAV:   6    -0.132324492197E+04   -0.66186E-04   -0.10051E-03 41650   0.995E-02    0.964E-02
DAV:   7    -0.132324475276E+04    0.16921E-03   -0.38030E-04 36620   0.567E-02    0.457E-02
DAV:   8    -0.132324483232E+04   -0.79563E-04   -0.35264E-05 20140   0.190E-02    0.228E-02
DAV:   9    -0.132324483343E+04   -0.11126E-05   -0.86470E-06 18330   0.792E-03
 188 F= -.13232448E+04 E0= -.13232448E+04  d E =0.383063E-01  mag=   120.0000
       N       E                     dE             d eps       ncg     rms          rms(c)
DAV:   1    -0.132112835006E+04    0.21165E+01   -0.13063E+02 44540   0.418E+01    0.666E+00
DAV:   2    -0.132308230082E+04   -0.19540E+01   -0.18789E+01 35940   0.737E+00    0.347E+00
DAV:   3    -0.132310856386E+04   -0.26263E-01   -0.49136E-01 36550   0.143E+00    0.148E+00
DAV:   4    -0.132310466811E+04    0.38958E-02   -0.30635E-02 41580   0.340E-01    0.109E+00
DAV:   5    -0.132309787935E+04    0.67888E-02   -0.70732E-03 42930   0.329E-01    0.622E-01
DAV:   6    -0.132309699971E+04    0.87964E-03   -0.81444E-03 40870   0.289E-01    0.284E-01
DAV:   7    -0.132309721245E+04   -0.21274E-03   -0.32911E-03 36950   0.166E-01    0.145E-01
DAV:   8    -0.132309771887E+04   -0.50642E-03   -0.35804E-04 34350   0.568E-02    0.702E-02
DAV:   9    -0.132309753456E+04    0.18431E-03   -0.52554E-05 23590   0.226E-02    0.448E-02
DAV:  10    -0.132309751750E+04    0.17059E-04   -0.23420E-05 18900   0.173E-02
 189 F= -.13230975E+04 E0= -.13230975E+04  d E =0.147316E+00  mag=   120.0000
       N       E                     dE             d eps       ncg     rms          rms(c)
DAV:   1    -0.131209925106E+04    0.10998E+02   -0.40996E+02 48000   0.924E+01    0.174E+01
