       N       E                     dE             d eps       ncg     rms          ort
DAV:   1     0.112307684810E+05    0.11231E+05   -0.46651E+05  8540   0.170E+03
DAV:   2     0.238129106140E+02   -0.11207E+05   -0.10196E+05  8540   0.487E+02
DAV:   3    -0.160872501793E+04   -0.16325E+04   -0.15469E+04  8540   0.198E+02
DAV:   4    -0.169260673409E+04   -0.83882E+02   -0.82679E+02  8540   0.456E+01
DAV:   5    -0.169367725065E+04   -0.10705E+01   -0.10673E+01  8540   0.558E+00
SDA:   6    -0.804156978630E+03    0.88952E+03   -0.10673E+01  8540   0.299E+04 0.000E+00
CGA:   7    -0.122916953129E+04   -0.42501E+03   -0.42626E+03  8540   0.305E+03 0.308E+02
CGA:   8    -0.128736359654E+04   -0.58194E+02   -0.58188E+02  8540   0.755E+02 0.958E+00
CGA:   9    -0.131166002339E+04   -0.24296E+02   -0.24233E+02  8540   0.392E+02 0.343E+00
CGA:  10    -0.132046727729E+04   -0.88073E+01   -0.88270E+01  8540   0.106E+02-0.786E+00
CGA:  11    -0.132294662593E+04   -0.24793E+01   -0.24946E+01  8540   0.264E+01-0.482E+00
CGA:  12    -0.132358210677E+04   -0.63548E+00   -0.64329E+00  8540   0.754E+00-0.157E+00
CGA:  13    -0.132378810004E+04   -0.20599E+00   -0.20619E+00  8540   0.251E+00-0.322E-02
CGA:  14    -0.132387128778E+04   -0.83188E-01   -0.87433E-01  8540   0.115E+00-0.314E-01
CGA:  15    -0.132390582251E+04   -0.34535E-01   -0.50901E-01  8540   0.981E-01-0.581E-01
CGA:  16    -0.132393218778E+04   -0.26365E-01   -0.26912E-01  8540   0.340E-01-0.135E-01
CGA:  17    -0.132394089232E+04   -0.87045E-02   -0.10175E-01  8540   0.211E-01-0.131E-01
CGA:  18    -0.132394722388E+04   -0.63316E-02    0.11025E+00  8540   0.546E-02 0.956E-03
CGA:  19    -0.132392239793E+04    0.24826E-01   -0.13501E-01  8540   0.174E+00-0.256E-01
CGA:  20    -0.132395073824E+04   -0.28340E-01   -0.28456E-01  8540   0.190E-01 0.390E-02
CGA:  21    -0.132395609255E+04   -0.53543E-02   -0.52766E-02  8540   0.134E-02-0.513E-03
CGA:  22    -0.132395613241E+04   -0.39860E-04   -0.20280E-03  8540   0.375E-03 0.619E-03
CGA:  23    -0.132395610527E+04    0.27141E-04   -0.62019E-04  8540   0.161E-03 0.305E-03
CGA:  24    -0.132395611146E+04   -0.61858E-05   -0.29340E-04  8540   0.839E-04 0.111E-03
