       N       E                     dE             d eps       ncg     rms          rms(c)
DAV:   1     0.112270696654E+05    0.11227E+05   -0.43006E+05 34690   0.160E+03
DAV:   2     0.235657202552E+02   -0.11204E+05   -0.10194E+05 34160   0.487E+02
DAV:   3    -0.160832153509E+04   -0.16319E+04   -0.15462E+04 36390   0.197E+02
DAV:   4    -0.169239557084E+04   -0.84074E+02   -0.82845E+02 39210   0.457E+01
DAV:   5    -0.169347050383E+04   -0.10749E+01   -0.10715E+01 37430   0.558E+00    0.146E+02
DAV:   6    -0.128381789373E+04    0.40965E+03   -0.80885E+02 41230   0.759E+01    0.119E+02
DAV:   7    -0.133589615510E+04   -0.52078E+02   -0.36770E+02 37030   0.652E+01    0.879E+01
DAV:   8    -0.130951580183E+04    0.26380E+02   -0.50497E+01 38870   0.226E+01    0.687E+01
DAV:   9    -0.131704273386E+04   -0.75269E+01   -0.48227E+01 36950   0.308E+01    0.661E+01
DAV:  10    -0.131961642596E+04   -0.25737E+01   -0.26600E+01 37720   0.169E+01    0.432E+01
DAV:  11    -0.131885600905E+04    0.76042E+00   -0.86647E+00 36750   0.101E+01    0.263E+01
DAV:  12    -0.131880071013E+04    0.55299E-01   -0.43261E+00 41220   0.671E+00    0.191E+01
DAV:  13    -0.132096234095E+04   -0.21616E+01   -0.82242E+00 36350   0.414E+00    0.195E+01
DAV:  14    -0.132080964281E+04    0.15270E+00   -0.31787E+00 36720   0.200E+00    0.187E+01
DAV:  15    -0.132116260698E+04   -0.35296E+00   -0.71394E-01 35350   0.975E-01    0.200E+01
DAV:  16    -0.132121257579E+04   -0.49969E-01   -0.69937E-02 35980   0.326E-01    0.202E+01
DAV:  17    -0.132125358404E+04   -0.41008E-01   -0.17927E-02 34460   0.151E-01    0.201E+01
DAV:  18    -0.132111838077E+04    0.13520E+00   -0.65552E-02 36320   0.328E-01    0.205E+01
DAV:  19    -0.132140280933E+04   -0.28443E+00   -0.33063E-01 36600   0.749E-01    0.197E+01
DAV:  20    -0.132160510426E+04   -0.20229E+00   -0.43335E-01 40710   0.501E-01    0.194E+01
DAV:  21    -0.132167235790E+04   -0.67254E-01   -0.77831E-02 34400   0.385E-01    0.194E+01
DAV:  22    -0.132144641253E+04    0.22595E+00   -0.70293E-01 38730   0.186E+00    0.179E+01
DAV:  23    -0.132097748393E+04    0.46893E+00   -0.43593E+00 43240   0.480E+00    0.222E+01
DAV:  24    -0.132140485968E+04   -0.42738E+00   -0.10402E+00 38210   0.237E+00    0.227E+01
DAV:  25    -0.132192475064E+04   -0.51989E+00   -0.21660E-01 38710   0.158E+00    0.189E+01
DAV:  26    -0.132231146281E+04   -0.38671E+00   -0.10149E+00 45000   0.150E+00    0.147E+01
DAV:  27    -0.132190813586E+04    0.40333E+00   -0.58396E-01 38140   0.232E+00    0.174E+01
DAV:  28    -0.132128880083E+04    0.61934E+00   -0.27127E-01 43580   0.154E+00    0.199E+01
DAV:  29    -0.132144805344E+04   -0.15925E+00   -0.89904E-02 38550   0.670E-01    0.189E+01
DAV:  30    -0.132114936190E+04    0.29869E+00   -0.56529E-02 40100   0.796E-01    0.193E+01
DAV:  31    -0.132203227997E+04   -0.88292E+00   -0.24883E-01 43040   0.168E+00    0.150E+01
DAV:  32    -0.132307802479E+04   -0.10457E+01   -0.66718E-01 39630   0.180E+00    0.110E+01
DAV:  33    -0.132325360911E+04   -0.17558E+00   -0.13950E-01 38300   0.843E-01    0.104E+01
DAV:  34    -0.132326719545E+04   -0.13586E-01   -0.27042E-02 42950   0.564E-01    0.975E+00
DAV:  35    -0.132344998942E+04   -0.18279E+00   -0.73905E-02 41640   0.137E+00    0.657E+00
DAV:  36    -0.132360035477E+04   -0.15037E+00   -0.14529E-01 42460   0.151E+00    0.310E+00
DAV:  37    -0.132359838684E+04    0.19679E-02   -0.78679E-02 37410   0.640E-01    0.275E+00
DAV:  38    -0.132361638626E+04   -0.17999E-01   -0.16083E-02 37300   0.369E-01    0.177E+00
DAV:  39    -0.132361420916E+04    0.21771E-02   -0.82435E-03 42080   0.279E-01    0.132E+00
DAV:  40    -0.132361992378E+04   -0.57146E-02   -0.11692E-02 38040   0.340E-01    0.102E+00
DAV:  41    -0.132361829768E+04    0.16261E-02   -0.69983E-03 40110   0.322E-01    0.994E-01
DAV:  42    -0.132362114410E+04   -0.28464E-02   -0.25123E-03 40340   0.158E-01    0.929E-01
DAV:  43    -0.132362051826E+04    0.62584E-03   -0.10808E-03 36580   0.110E-01    0.750E-01
DAV:  44    -0.132362028623E+04    0.23203E-03   -0.99968E-04 43570   0.914E-02    0.610E-01
DAV:  45    -0.132361988842E+04    0.39781E-03   -0.15041E-03 42430   0.131E-01    0.374E-01
DAV:  46    -0.132361966862E+04    0.21980E-03   -0.73924E-04 39500   0.780E-02    0.286E-01
DAV:  47    -0.132361990839E+04   -0.23977E-03   -0.27598E-04 34920   0.297E-02    0.236E-01
DAV:  48    -0.132361989763E+04    0.10757E-04   -0.30029E-05 21450   0.164E-02
   1 F= -.13236199E+04 E0= -.13236199E+04  d E =-.132362E+04  mag=   114.0019
       N       E                     dE             d eps       ncg     rms          rms(c)
DAV:   1    -0.132362354656E+04   -0.36382E-02   -0.14235E-02 49170   0.585E-01    0.169E-01
DAV:   2    -0.132362403031E+04   -0.48375E-03   -0.47794E-03 39020   0.203E-01    0.204E-01
DAV:   3    -0.132362422684E+04   -0.19653E-03   -0.12922E-03 36120   0.119E-01    0.788E-02
DAV:   4    -0.132362408194E+04    0.14490E-03   -0.86384E-05 23630   0.204E-02    0.338E-02
DAV:   5    -0.132362409094E+04   -0.90015E-05   -0.15050E-05 19140   0.118E-02
   2 F= -.13236241E+04 E0= -.13236241E+04  d E =-.419331E-02  mag=   114.0002
       N       E                     dE             d eps       ncg     rms          rms(c)
DAV:   1    -0.132362725733E+04   -0.31754E-02   -0.10347E-02 48500   0.499E-01    0.821E-02
DAV:   2    -0.132362754471E+04   -0.28738E-03   -0.26968E-03 37960   0.845E-02    0.432E-02
DAV:   3    -0.132362752027E+04    0.24434E-04   -0.93221E-05 21390   0.223E-02    0.243E-02
DAV:   4    -0.132362754762E+04   -0.27348E-04   -0.86337E-06 17930   0.816E-03
   3 F= -.13236275E+04 E0= -.13236275E+04  d E =-.345668E-02  mag=   114.0001
       N       E                     dE             d eps       ncg     rms          rms(c)
DAV:   1    -0.131938599176E+04    0.42415E+01   -0.14956E+02 48840   0.573E+01    0.103E+01
DAV:   2    -0.132358804085E+04   -0.42020E+01   -0.37322E+01 37480   0.989E+00    0.671E+00
DAV:   3    -0.132369944082E+04   -0.11140E+00   -0.13286E+00 36990   0.282E+00    0.313E+00
DAV:   4    -0.132369406102E+04    0.53798E-02   -0.12978E-01 39390   0.106E+00    0.204E+00
DAV:   5    -0.132368366613E+04    0.10395E-01   -0.24597E-02 39100   0.537E-01    0.145E+00
DAV:   6    -0.132367716166E+04    0.65045E-02   -0.15806E-02 42340   0.462E-01    0.708E-01
DAV:   7    -0.132367736333E+04   -0.20167E-03   -0.87582E-03 41300   0.233E-01    0.197E-01
DAV:   8    -0.132367914566E+04   -0.17823E-02   -0.16248E-03 36950   0.902E-02    0.115E-01
DAV:   9    -0.132367883126E+04    0.31440E-03   -0.22550E-04 34520   0.446E-02    0.731E-02
DAV:  10    -0.132367867487E+04    0.15639E-03   -0.64148E-05 23090   0.282E-02    0.415E-02
DAV:  11    -0.132367884100E+04   -0.16613E-03   -0.31433E-05 19470   0.182E-02    0.215E-02
DAV:  12    -0.132367887424E+04   -0.33239E-04   -0.13718E-05 18600   0.110E-02
   4 F= -.13236789E+04 E0= -.13236789E+04  d E =-.513266E-01  mag=   114.0000
       N       E                     dE             d eps       ncg     rms          rms(c)
DAV:   1    -0.132313401766E+04    0.54482E+00   -0.17601E+01 49450   0.222E+01    0.381E+00
DAV:   2    -0.132376853547E+04   -0.63452E+00   -0.55278E+00 37900   0.368E+00    0.192E+00
DAV:   3    -0.132378804018E+04   -0.19505E-01   -0.18194E-01 36960   0.888E-01    0.936E-01
DAV:   4    -0.132378830030E+04   -0.26012E-03   -0.10931E-02 40100   0.204E-01    0.634E-01
DAV:   5    -0.132378699422E+04    0.13061E-02   -0.28854E-03 42370   0.171E-01    0.403E-01
DAV:   6    -0.132378621654E+04    0.77768E-03   -0.21035E-03 43270   0.177E-01    0.212E-01
DAV:   7    -0.132378657915E+04   -0.36261E-03   -0.12435E-03 38900   0.113E-01    0.974E-02
DAV:   8    -0.132378653183E+04    0.47322E-04   -0.23986E-04 33010   0.474E-02
   5 F= -.13237865E+04 E0= -.13237865E+04  d E =-.107658E+00  mag=   114.0000
       N       E                     dE             d eps       ncg     rms          rms(c)
DAV:   1    -0.132375073082E+04    0.35848E-01   -0.32850E+00 43340   0.699E+00    0.117E+00
DAV:   2    -0.132381004902E+04   -0.59318E-01   -0.58161E-01 36620   0.127E+00    0.571E-01
DAV:   3    -0.132381145519E+04   -0.14062E-02   -0.18048E-02 37200   0.293E-01    0.315E-01
DAV:   4    -0.132381106478E+04    0.39041E-03   -0.12738E-03 39360   0.822E-02    0.220E-01
DAV:   5    -0.132381101644E+04    0.48339E-04   -0.24466E-04 31390   0.607E-02
   6 F= -.13238110E+04 E0= -.13238110E+04  d E =-.244846E-01  mag=   114.0000
       N       E                     dE             d eps       ncg     rms          rms(c)
DAV:   1    -0.132307370852E+04    0.73736E+00   -0.49092E+01 42820   0.252E+01    0.425E+00
DAV:   2    -0.132386951542E+04   -0.79581E+00   -0.78226E+00 36510   0.456E+00    0.216E+00
DAV:   3    -0.132387801746E+04   -0.85020E-02   -0.19337E-01 36900   0.904E-01    0.105E+00
DAV:   4    -0.132387592716E+04    0.20903E-02   -0.13125E-02 39570   0.242E-01    0.795E-01
DAV:   5    -0.132387353410E+04    0.23931E-02   -0.29355E-03 42560   0.219E-01    0.512E-01
DAV:   6    -0.132387164836E+04    0.18857E-02   -0.43264E-03 44040   0.239E-01    0.256E-01
DAV:   7    -0.132387245227E+04   -0.80391E-03   -0.20424E-03 38190   0.122E-01    0.894E-02
DAV:   8    -0.132387246482E+04   -0.12552E-04   -0.22456E-04 33870   0.419E-02
   7 F= -.13238725E+04 E0= -.13238725E+04  d E =-.614484E-01  mag=   114.0000
       N       E                     dE             d eps       ncg     rms          rms(c)
DAV:   1    -0.131775005379E+04    0.61224E+01   -0.23232E+02 47050   0.676E+01    0.123E+01
DAV:   2    -0.132347209343E+04   -0.57220E+01   -0.51523E+01 37190   0.119E+01    0.775E+00
DAV:   3    -0.132363876865E+04   -0.16668E+00   -0.19240E+00 36930   0.326E+00    0.363E+00
DAV:   4    -0.132363396631E+04    0.48023E-02   -0.14526E-01 40590   0.103E+00    0.242E+00
DAV:   5    -0.132361764498E+04    0.16321E-01   -0.30024E-02 39860   0.584E-01    0.180E+00
DAV:   6    -0.132360758576E+04    0.10059E-01   -0.25045E-02 40850   0.609E-01    0.108E+00
DAV:   7    -0.132360422974E+04    0.33560E-02   -0.18604E-02 40740   0.448E-01    0.394E-01
DAV:   8    -0.132360685431E+04   -0.26246E-02   -0.58011E-03 37750   0.223E-01    0.215E-01
DAV:   9    -0.132360693190E+04   -0.77586E-04   -0.93999E-04 36680   0.878E-02    0.103E-01
DAV:  10    -0.132360651844E+04    0.41346E-03   -0.20237E-04 33810   0.375E-02    0.607E-02
DAV:  11    -0.132360675126E+04   -0.23281E-03   -0.57307E-05 23500   0.249E-02    0.271E-02
DAV:  12    -0.132360676497E+04   -0.13710E-04   -0.30176E-05 19340   0.152E-02
   8 F= -.13236068E+04 E0= -.13236068E+04  d E =0.265700E+00  mag=   114.0000
       N       E                     dE             d eps       ncg     rms          rms(c)
DAV:   1    -0.132233577303E+04    0.12710E+01   -0.43928E+01 49640   0.352E+01    0.625E+00
DAV:   2    -0.132390245574E+04   -0.15667E+01   -0.13799E+01 38140   0.591E+00    0.332E+00
DAV:   3    -0.132395776510E+04   -0.55309E-01   -0.53696E-01 37210   0.155E+00    0.167E+00
DAV:   4    -0.132395706679E+04    0.69832E-03   -0.34864E-02 40360   0.404E-01    0.109E+00
DAV:   5    -0.132395353998E+04    0.35268E-02   -0.92502E-03 39910   0.307E-01    0.750E-01
DAV:   6    -0.132395062448E+04    0.29155E-02   -0.94637E-03 41220   0.358E-01    0.506E-01
DAV:   7    -0.132395113865E+04   -0.51417E-03   -0.48760E-03 40270   0.229E-01    0.157E-01
DAV:   8    -0.132395120497E+04   -0.66320E-04   -0.10043E-03 37530   0.869E-02    0.746E-02
DAV:   9    -0.132395106733E+04    0.13764E-03   -0.21875E-04 34900   0.315E-02    0.630E-02
DAV:  10    -0.132395108452E+04   -0.17187E-04   -0.32781E-05 20800   0.192E-02
   9 F= -.13239511E+04 E0= -.13239511E+04  d E =-.344320E+00  mag=   114.0000
       N       E                     dE             d eps       ncg     rms          rms(c)
DAV:   1    -0.132386206288E+04    0.89004E-01   -0.36568E+00 49570   0.992E+00    0.164E+00
DAV:   2    -0.132397786210E+04   -0.11580E+00   -0.10125E+00 37940   0.165E+00    0.813E-01
DAV:   3    -0.132398147898E+04   -0.36169E-02   -0.37254E-02 36440   0.435E-01    0.455E-01
DAV:   4    -0.132398114520E+04    0.33377E-03   -0.22451E-03 40190   0.109E-01    0.280E-01
DAV:   5    -0.132398111328E+04    0.31926E-04   -0.63704E-04 39520   0.841E-02    0.188E-01
DAV:   6    -0.132398081370E+04    0.29957E-03   -0.60078E-04 41600   0.899E-02    0.106E-01
DAV:   7    -0.132398102196E+04   -0.20826E-03   -0.28527E-04 37240   0.487E-02    0.405E-02
DAV:   8    -0.132398093833E+04    0.83629E-04   -0.57884E-05 21000   0.243E-02    0.243E-02
DAV:   9    -0.132398094647E+04   -0.81328E-05   -0.15252E-05 18830   0.118E-02
  10 F= -.13239809E+04 E0= -.13239809E+04  d E =-.298619E-01  mag=   114.0000
       N       E                     dE             d eps       ncg     rms          rms(c)
DAV:   1    -0.132393563075E+04    0.45308E-01   -0.18766E+00 48330   0.664E+00    0.113E+00
DAV:   2    -0.132399350360E+04   -0.57873E-01   -0.52093E-01 36980   0.114E+00    0.552E-01
DAV:   3    -0.132399498737E+04   -0.14838E-02   -0.16587E-02 36700   0.280E-01    0.297E-01
DAV:   4    -0.132399481812E+04    0.16924E-03   -0.10885E-03 38590   0.736E-02    0.207E-01
DAV:   5    -0.132399467999E+04    0.13813E-03   -0.18541E-04 30680   0.538E-02    0.139E-01
DAV:   6    -0.132399464870E+04    0.31295E-04   -0.27525E-04 38220   0.650E-02
  11 F= -.13239946E+04 E0= -.13239946E+04  d E =-.137022E-01  mag=   114.0000
       N       E                     dE             d eps       ncg     rms          rms(c)
DAV:   1    -0.132382952887E+04    0.16515E+00   -0.68868E+00 46660   0.118E+01    0.198E+00
DAV:   2    -0.132401215118E+04   -0.18262E+00   -0.16759E+00 36870   0.204E+00    0.980E-01
DAV:   3    -0.132401491031E+04   -0.27591E-02   -0.47733E-02 36850   0.476E-01    0.520E-01
DAV:   4    -0.132401505632E+04   -0.14601E-03   -0.37763E-03 38920   0.148E-01    0.375E-01
DAV:   5    -0.132401437270E+04    0.68362E-03   -0.65242E-04 39450   0.988E-02    0.266E-01
DAV:   6    -0.132401419287E+04    0.17983E-03   -0.92471E-04 43110   0.127E-01    0.107E-01
DAV:   7    -0.132401402203E+04    0.17084E-03   -0.47648E-04 38050   0.566E-02    0.432E-02
DAV:   8    -0.132401419074E+04   -0.16871E-03   -0.53215E-05 20670   0.212E-02    0.264E-02
DAV:   9    -0.132401416583E+04    0.24910E-04   -0.94586E-06 18310   0.903E-03
  12 F= -.13240142E+04 E0= -.13240142E+04  d E =-.195171E-01  mag=   114.0000
       N       E                     dE             d eps       ncg     rms          rms(c)
DAV:   1    -0.132360918528E+04    0.40501E+00   -0.20986E+01 45020   0.185E+01    0.305E+00
DAV:   2    -0.132403827080E+04   -0.42909E+00   -0.40419E+00 36170   0.322E+00    0.153E+00
DAV:   3    -0.132404497094E+04   -0.67001E-02   -0.12055E-01 36990   0.682E-01    0.727E-01
DAV:   4    -0.132404504433E+04   -0.73393E-04   -0.82345E-03 39690   0.184E-01    0.548E-01
DAV:   5    -0.132404334000E+04    0.17043E-02   -0.16502E-03 42990   0.164E-01    0.374E-01
DAV:   6    -0.132404303101E+04    0.30899E-03   -0.25238E-03 44250   0.191E-01    0.202E-01
DAV:   7    -0.132404265283E+04    0.37817E-03   -0.11750E-03 38350   0.981E-02    0.600E-02
DAV:   8    -0.132404296001E+04   -0.30718E-03   -0.11274E-04 28320   0.256E-02    0.330E-02
DAV:   9    -0.132404296862E+04   -0.86109E-05   -0.13045E-05 18710   0.114E-02
  13 F= -.13240430E+04 E0= -.13240430E+04  d E =-.288028E-01  mag=   114.0000
       N       E                     dE             d eps       ncg     rms          rms(c)
DAV:   1    -0.131613007234E+04    0.79129E+01   -0.22383E+02 49670   0.757E+01    0.142E+01
DAV:   2    -0.132346806388E+04   -0.73380E+01   -0.64024E+01 36580   0.130E+01    0.103E+01
DAV:   3    -0.132368990698E+04   -0.22184E+00   -0.25871E+00 37090   0.368E+00    0.391E+00
DAV:   4    -0.132369542966E+04   -0.55227E-02   -0.17946E-01 40300   0.101E+00    0.264E+00
DAV:   5    -0.132368233901E+04    0.13091E-01   -0.34694E-02 39770   0.621E-01    0.204E+00
DAV:   6    -0.132367567892E+04    0.66601E-02   -0.26720E-02 42980   0.634E-01    0.124E+00
DAV:   7    -0.132367026671E+04    0.54122E-02   -0.21230E-02 41730   0.507E-01    0.360E-01
DAV:   8    -0.132367374207E+04   -0.34754E-02   -0.63199E-03 36980   0.225E-01    0.233E-01
DAV:   9    -0.132367390768E+04   -0.16561E-03   -0.10173E-03 36420   0.998E-02    0.114E-01
DAV:  10    -0.132367349943E+04    0.40825E-03   -0.15314E-04 28050   0.374E-02    0.591E-02
DAV:  11    -0.132367356330E+04   -0.63877E-04   -0.54045E-05 21640   0.226E-02    0.248E-02
DAV:  12    -0.132367373841E+04   -0.17511E-03   -0.28258E-05 19440   0.159E-02    0.150E-02
DAV:  13    -0.132367366727E+04    0.71140E-04   -0.64982E-06 18400   0.682E-03    0.781E-03
DAV:  14    -0.132367365687E+04    0.10399E-04   -0.17155E-06 18180   0.276E-03
  14 F= -.13236737E+04 E0= -.13236737E+04  d E =0.369312E+00  mag=   114.0000
       N       E                     dE             d eps       ncg     rms          rms(c)
DAV:   1    -0.132204269748E+04    0.16310E+01   -0.56790E+01 49340   0.391E+01    0.696E+00
DAV:   2    -0.132400668784E+04   -0.19640E+01   -0.17026E+01 38350   0.663E+00    0.395E+00
DAV:   3    -0.132406800158E+04   -0.61314E-01   -0.63024E-01 37120   0.179E+00    0.196E+00
DAV:   4    -0.132406858465E+04   -0.58307E-03   -0.48108E-02 39320   0.544E-01    0.124E+00
DAV:   5    -0.132406432140E+04    0.42633E-02   -0.10838E-02 39010   0.325E-01    0.910E-01
DAV:   6    -0.132406149479E+04    0.28266E-02   -0.10296E-02 42580   0.381E-01    0.492E-01
DAV:   7    -0.132406041473E+04    0.10801E-02   -0.57815E-03 40310   0.237E-01    0.209E-01
DAV:   8    -0.132406176329E+04   -0.13486E-02   -0.13787E-03 37130   0.111E-01    0.116E-01
DAV:   9    -0.132406147921E+04    0.28408E-03   -0.22047E-04 32380   0.428E-02    0.500E-02
DAV:  10    -0.132406136122E+04    0.11799E-03   -0.41890E-05 20650   0.210E-02    0.299E-02
DAV:  11    -0.132406147410E+04   -0.11288E-03   -0.20379E-05 18730   0.126E-02    0.140E-02
DAV:  12    -0.132406142879E+04    0.45313E-04   -0.60945E-06 18340   0.646E-03
  15 F= -.13240614E+04 E0= -.13240614E+04  d E =-.387772E+00  mag=   114.0000
       N       E                     dE             d eps       ncg     rms          rms(c)
DAV:   1    -0.132382033139E+04    0.24114E+00   -0.82225E+00 50150   0.151E+01    0.248E+00
DAV:   2    -0.132410427785E+04   -0.28395E+00   -0.24529E+00 36870   0.246E+00    0.124E+00
DAV:   3    -0.132411238390E+04   -0.81061E-02   -0.97113E-02 37140   0.651E-01    0.661E-01
DAV:   4    -0.132411303462E+04   -0.65072E-03   -0.78049E-03 39240   0.215E-01    0.435E-01
DAV:   5    -0.132411211194E+04    0.92268E-03   -0.13624E-03 38740   0.122E-01    0.316E-01
DAV:   6    -0.132411185520E+04    0.25674E-03   -0.13963E-03 44330   0.144E-01    0.137E-01
DAV:   7    -0.132411159341E+04    0.26179E-03   -0.60130E-04 39200   0.709E-02    0.583E-02
DAV:   8    -0.132411186517E+04   -0.27176E-03   -0.12175E-04 25380   0.321E-02    0.345E-02
DAV:   9    -0.132411180875E+04    0.56422E-04   -0.20038E-05 19140   0.130E-02    0.173E-02
DAV:  10    -0.132411177739E+04    0.31358E-04   -0.57557E-06 18240   0.749E-03
  16 F= -.13241118E+04 E0= -.13241118E+04  d E =-.503486E-01  mag=   114.0000
       N       E                     dE             d eps       ncg     rms          rms(c)
DAV:   1    -0.132402602684E+04    0.85782E-01   -0.30840E+00 49790   0.939E+00    0.148E+00
DAV:   2    -0.132413159223E+04   -0.10557E+00   -0.92281E-01 36540   0.150E+00    0.735E-01
DAV:   3    -0.132413423835E+04   -0.26461E-02   -0.31248E-02 36830   0.353E-01    0.351E-01
DAV:   4    -0.132413440376E+04   -0.16540E-03   -0.19705E-03 39270   0.881E-02    0.250E-01
DAV:   5    -0.132413391252E+04    0.49123E-03   -0.41745E-04 34260   0.786E-02    0.176E-01
DAV:   6    -0.132413408805E+04   -0.17553E-03   -0.56316E-04 38490   0.881E-02    0.894E-02
DAV:   7    -0.132413386629E+04    0.22176E-03   -0.22245E-04 31010   0.450E-02    0.290E-02
DAV:   8    -0.132413395717E+04   -0.90881E-04   -0.31286E-05 19550   0.165E-02    0.168E-02
DAV:   9    -0.132413397598E+04   -0.18810E-04   -0.77500E-06 18030   0.790E-03
  17 F= -.13241340E+04 E0= -.13241340E+04  d E =-.221986E-01  mag=   114.0000
       N       E                     dE             d eps       ncg     rms          rms(c)
DAV:   1    -0.132401665955E+04    0.11730E+00   -0.40252E+00 49880   0.103E+01    0.163E+00
DAV:   2    -0.132414442268E+04   -0.12776E+00   -0.11154E+00 36550   0.164E+00    0.814E-01
DAV:   3    -0.132414711224E+04   -0.26896E-02   -0.35584E-02 36780   0.380E-01    0.385E-01
DAV:   4    -0.132414717098E+04   -0.58741E-04   -0.20321E-03 39690   0.848E-02    0.268E-01
DAV:   5    -0.132414664866E+04    0.52231E-03   -0.49217E-04 38160   0.868E-02    0.161E-01
DAV:   6    -0.132414686407E+04   -0.21541E-03   -0.65642E-04 39020   0.862E-02    0.110E-01
DAV:   7    -0.132414656120E+04    0.30288E-03   -0.27823E-04 32650   0.521E-02    0.316E-02
DAV:   8    -0.132414669392E+04   -0.13272E-03   -0.28259E-05 19540   0.149E-02    0.153E-02
DAV:   9    -0.132414671547E+04   -0.21553E-04   -0.59078E-06 18210   0.655E-03
  18 F= -.13241467E+04 E0= -.13241467E+04  d E =-.127395E-01  mag=   114.0000
       N       E                     dE             d eps       ncg     rms          rms(c)
DAV:   1    -0.132410566072E+04    0.41033E-01   -0.18523E+00 46980   0.605E+00    0.997E-01
DAV:   2    -0.132415308523E+04   -0.47425E-01   -0.43684E-01 36490   0.103E+00    0.490E-01
DAV:   3    -0.132415396076E+04   -0.87553E-03   -0.13933E-02 37070   0.227E-01    0.242E-01
DAV:   4    -0.132415394471E+04    0.16049E-04   -0.84138E-04 38180   0.506E-02    0.179E-01
DAV:   5    -0.132415369319E+04    0.25153E-03   -0.16738E-04 30810   0.533E-02    0.103E-01
DAV:   6    -0.132415375499E+04   -0.61800E-04   -0.25165E-04 35330   0.511E-02    0.593E-02
DAV:   7    -0.132415362665E+04    0.12834E-03   -0.11197E-04 23110   0.325E-02    0.236E-02
DAV:   8    -0.132415370896E+04   -0.82312E-04   -0.15043E-05 18350   0.112E-02    0.117E-02
DAV:   9    -0.132415371610E+04   -0.71340E-05   -0.37499E-06 17980   0.433E-03
  19 F= -.13241537E+04 E0= -.13241537E+04  d E =-.700062E-02  mag=   114.0000
       N       E                     dE             d eps       ncg     rms          rms(c)
DAV:   1    -0.132335193937E+04    0.80177E+00   -0.35696E+01 45070   0.240E+01    0.415E+00
DAV:   2    -0.132414211844E+04   -0.79018E+00   -0.73715E+00 36160   0.418E+00    0.226E+00
DAV:   3    -0.132415561360E+04   -0.13495E-01   -0.21777E-01 36440   0.901E-01    0.104E+00
DAV:   4    -0.132415473580E+04    0.87779E-03   -0.13604E-02 41120   0.210E-01    0.777E-01
DAV:   5    -0.132415195664E+04    0.27792E-02   -0.20805E-03 43400   0.169E-01    0.455E-01
DAV:   6    -0.132415052047E+04    0.14362E-02   -0.25661E-03 42690   0.167E-01    0.146E-01
DAV:   7    -0.132415130234E+04   -0.78188E-03   -0.14020E-03 37960   0.929E-02    0.108E-01
DAV:   8    -0.132415112133E+04    0.18101E-03   -0.19768E-04 30110   0.435E-02    0.470E-02
DAV:   9    -0.132415116621E+04   -0.44879E-04   -0.29731E-05 20420   0.148E-02
  20 F= -.13241512E+04 E0= -.13241512E+04  d E =0.254989E-02  mag=   114.0000
       N       E                     dE             d eps       ncg     rms          rms(c)
DAV:   1    -0.132313710199E+04    0.10140E+01   -0.50268E+01 43720   0.268E+01    0.443E+00
DAV:   2    -0.132411291664E+04   -0.97581E+00   -0.93126E+00 36940   0.481E+00    0.240E+00
DAV:   3    -0.132413048216E+04   -0.17566E-01   -0.31198E-01 36770   0.118E+00    0.137E+00
DAV:   4    -0.132412947800E+04    0.10042E-02   -0.25239E-02 39150   0.400E-01    0.942E-01
DAV:   5    -0.132412505127E+04    0.44267E-02   -0.58610E-03 40660   0.249E-01    0.652E-01
DAV:   6    -0.132412304252E+04    0.20087E-02   -0.59734E-03 42120   0.273E-01    0.289E-01
DAV:   7    -0.132412288090E+04    0.16162E-03   -0.31229E-03 39400   0.146E-01    0.130E-01
DAV:   8    -0.132412334024E+04   -0.45934E-03   -0.50354E-04 35620   0.647E-02    0.789E-02
DAV:   9    -0.132412336288E+04   -0.22643E-04   -0.78008E-05 23120   0.258E-02
  21 F= -.13241234E+04 E0= -.13241234E+04  d E =0.278033E-01  mag=   114.0000
       N       E                     dE             d eps       ncg     rms          rms(c)
DAV:   1    -0.132368316089E+04    0.44018E+00   -0.20098E+01 44080   0.185E+01    0.314E+00
DAV:   2    -0.132412819520E+04   -0.44503E+00   -0.42125E+00 37600   0.334E+00    0.163E+00
DAV:   3    -0.132413616139E+04   -0.79662E-02   -0.13559E-01 36600   0.808E-01    0.928E-01
DAV:   4    -0.132413597234E+04    0.18905E-03   -0.10206E-02 39610   0.236E-01    0.634E-01
DAV:   5    -0.132413399525E+04    0.19771E-02   -0.27759E-03 41990   0.187E-01    0.452E-01
DAV:   6    -0.132413340394E+04    0.59131E-03   -0.37896E-03 41710   0.221E-01    0.235E-01
DAV:   7    -0.132413292150E+04    0.48244E-03   -0.16417E-03 39060   0.115E-01    0.946E-02
DAV:   8    -0.132413338673E+04   -0.46523E-03   -0.24263E-04 34170   0.432E-02    0.592E-02
DAV:   9    -0.132413333837E+04    0.48360E-04   -0.33702E-05 20070   0.183E-02
  22 F= -.13241333E+04 E0= -.13241333E+04  d E =-.997549E-02  mag=   114.0000
       N       E                     dE             d eps       ncg     rms          rms(c)
DAV:   1    -0.132389495642E+04    0.23843E+00   -0.89045E+00 49240   0.142E+01    0.220E+00
DAV:   2    -0.132413417831E+04   -0.23922E+00   -0.21503E+00 37110   0.235E+00    0.113E+00
DAV:   3    -0.132413967486E+04   -0.54966E-02   -0.71731E-02 36420   0.549E-01    0.559E-01
DAV:   4    -0.132413949352E+04    0.18134E-03   -0.41520E-03 39650   0.123E-01    0.377E-01
DAV:   5    -0.132413885363E+04    0.63989E-03   -0.12487E-03 43420   0.118E-01    0.221E-01
DAV:   6    -0.132413828142E+04    0.57220E-03   -0.94067E-04 43250   0.106E-01    0.118E-01
DAV:   7    -0.132413867743E+04   -0.39601E-03   -0.50820E-04 37040   0.685E-02    0.579E-02
DAV:   8    -0.132413856264E+04    0.11480E-03   -0.75686E-05 21610   0.263E-02    0.254E-02
DAV:   9    -0.132413857379E+04   -0.11157E-04   -0.13658E-05 19070   0.116E-02
  23 F= -.13241386E+04 E0= -.13241386E+04  d E =-.523542E-02  mag=   114.0000
       N       E                     dE             d eps       ncg     rms          rms(c)
DAV:   1    -0.132399111150E+04    0.14745E+00   -0.97540E+00 42820   0.111E+01    0.175E+00
DAV:   2    -0.132413393951E+04   -0.14283E+00   -0.14345E+00 35600   0.198E+00    0.872E-01
DAV:   3    -0.132413513393E+04   -0.11944E-02   -0.40745E-02 37100   0.404E-01    0.433E-01
DAV:   4    -0.132413498619E+04    0.14774E-03   -0.27593E-03 39250   0.109E-01    0.326E-01
DAV:   5    -0.132413408264E+04    0.90355E-03   -0.76975E-04 41690   0.106E-01    0.218E-01
DAV:   6    -0.132413408290E+04   -0.26368E-06   -0.10498E-03 41820   0.117E-01    0.111E-01
DAV:   7    -0.132413382203E+04    0.26087E-03   -0.43975E-04 37240   0.588E-02    0.374E-02
DAV:   8    -0.132413397759E+04   -0.15556E-03   -0.38084E-05 19760   0.161E-02    0.233E-02
DAV:   9    -0.132413399701E+04   -0.19419E-04   -0.74659E-06 18180   0.780E-03
  24 F= -.13241340E+04 E0= -.13241340E+04  d E =0.457679E-02  mag=   114.0000
       N       E                     dE             d eps       ncg     rms          rms(c)
DAV:   1    -0.131703916218E+04    0.70948E+01   -0.28560E+02 47920   0.730E+01    0.129E+01
DAV:   2    -0.132366313481E+04   -0.66240E+01   -0.59327E+01 37350   0.127E+01    0.863E+00
DAV:   3    -0.132383922556E+04   -0.17609E+00   -0.25313E+00 37000   0.404E+00    0.446E+00
DAV:   4    -0.132381155605E+04    0.27670E-01   -0.26192E-01 38640   0.161E+00    0.255E+00
DAV:   5    -0.132379617412E+04    0.15382E-01   -0.41523E-02 38870   0.584E-01    0.179E+00
DAV:   6    -0.132378578001E+04    0.10394E-01   -0.20743E-02 43820   0.489E-01    0.867E-01
DAV:   7    -0.132378683923E+04   -0.10592E-02   -0.12858E-02 40790   0.255E-01    0.290E-01
DAV:   8    -0.132378812269E+04   -0.12835E-02   -0.24638E-03 36980   0.130E-01    0.181E-01
DAV:   9    -0.132378822091E+04   -0.98223E-04   -0.44511E-04 36180   0.631E-02    0.109E-01
DAV:  10    -0.132378784341E+04    0.37750E-03   -0.14538E-04 28520   0.413E-02    0.539E-02
DAV:  11    -0.132378811006E+04   -0.26665E-03   -0.61502E-05 20680   0.267E-02    0.272E-02
DAV:  12    -0.132378813143E+04   -0.21368E-04   -0.22725E-05 18750   0.151E-02
  25 F= -.13237881E+04 E0= -.13237881E+04  d E =0.345866E+00  mag=   114.0000
       N       E                     dE             d eps       ncg     rms          rms(c)
DAV:   1    -0.132098442512E+04    0.28037E+01   -0.10807E+02 50530   0.525E+01    0.865E+00
DAV:   2    -0.132407981427E+04   -0.30954E+01   -0.26883E+01 38100   0.875E+00    0.571E+00
DAV:   3    -0.132420072612E+04   -0.12091E+00   -0.13187E+00 36680   0.294E+00    0.308E+00
DAV:   4    -0.132419447864E+04    0.62475E-02   -0.12757E-01 39550   0.111E+00    0.162E+00
DAV:   5    -0.132418750142E+04    0.69772E-02   -0.28045E-02 39250   0.451E-01    0.113E+00
DAV:   6    -0.132418336384E+04    0.41376E-02   -0.16289E-02 41850   0.428E-01    0.511E-01
DAV:   7    -0.132418287269E+04    0.49114E-03   -0.77336E-03 39970   0.288E-01    0.356E-01
DAV:   8    -0.132418348476E+04   -0.61207E-03   -0.27289E-03 36970   0.160E-01    0.122E-01
DAV:   9    -0.132418356546E+04   -0.80694E-04   -0.34487E-04 33020   0.522E-02    0.643E-02
DAV:  10    -0.132418340800E+04    0.15746E-03   -0.11848E-04 26310   0.273E-02    0.424E-02
DAV:  11    -0.132418350230E+04   -0.94299E-04   -0.40215E-05 20080   0.213E-02    0.241E-02
DAV:  12    -0.132418355184E+04   -0.49542E-04   -0.12421E-05 18580   0.110E-02
  26 F= -.13241836E+04 E0= -.13241836E+04  d E =-.395420E+00  mag=   114.0000
       N       E                     dE             d eps       ncg     rms          rms(c)
DAV:   1    -0.132416425085E+04    0.19251E-01   -0.15045E+00 48910   0.593E+00    0.944E-01
DAV:   2    -0.132420602501E+04   -0.41774E-01   -0.37835E-01 37860   0.101E+00    0.495E-01
DAV:   3    -0.132420749029E+04   -0.14653E-02   -0.15070E-02 36170   0.270E-01    0.291E-01
DAV:   4    -0.132420711518E+04    0.37511E-03   -0.10104E-03 38860   0.729E-02    0.183E-01
DAV:   5    -0.132420719137E+04   -0.76194E-04   -0.30151E-04 31240   0.570E-02    0.133E-01
DAV:   6    -0.132420699518E+04    0.19620E-03   -0.33143E-04 35050   0.631E-02    0.707E-02
DAV:   7    -0.132420712410E+04   -0.12892E-03   -0.13287E-04 26050   0.328E-02    0.253E-02
DAV:   8    -0.132420707384E+04    0.50263E-04   -0.32648E-05 19700   0.166E-02    0.179E-02
DAV:   9    -0.132420706420E+04    0.96401E-05   -0.88116E-06 18230   0.809E-03
  27 F= -.13242071E+04 E0= -.13242071E+04  d E =-.235124E-01  mag=   114.0000
       N       E                     dE             d eps       ncg     rms          rms(c)
DAV:   1    -0.132409249753E+04    0.11458E+00   -0.61416E+00 46300   0.109E+01    0.177E+00
DAV:   2    -0.132423595467E+04   -0.14346E+00   -0.13286E+00 37380   0.190E+00    0.900E-01
DAV:   3    -0.132423902251E+04   -0.30678E-02   -0.43528E-02 36600   0.463E-01    0.501E-01
DAV:   4    -0.132423829553E+04    0.72698E-03   -0.33061E-03 39890   0.136E-01    0.348E-01
DAV:   5    -0.132423822870E+04    0.66832E-04   -0.69704E-04 38370   0.978E-02    0.250E-01
DAV:   6    -0.132423771203E+04    0.51667E-03   -0.95863E-04 43240   0.117E-01    0.110E-01
DAV:   7    -0.132423795057E+04   -0.23854E-03   -0.43865E-04 38310   0.533E-02    0.414E-02
DAV:   8    -0.132423789163E+04    0.58939E-04   -0.57510E-05 20860   0.224E-02    0.285E-02
DAV:   9    -0.132423786955E+04    0.22084E-04   -0.12583E-05 19030   0.106E-02
  28 F= -.13242379E+04 E0= -.13242379E+04  d E =-.308053E-01  mag=   114.0000
       N       E                     dE             d eps       ncg     rms          rms(c)
DAV:   1    -0.132420574986E+04    0.32142E-01   -0.28152E+00 45060   0.665E+00    0.103E+00
DAV:   2    -0.132425571211E+04   -0.49962E-01   -0.47637E-01 36420   0.116E+00    0.508E-01
DAV:   3    -0.132425679594E+04   -0.10838E-02   -0.15543E-02 36530   0.263E-01    0.267E-01
DAV:   4    -0.132425651470E+04    0.28124E-03   -0.11664E-03 38660   0.770E-02    0.188E-01
DAV:   5    -0.132425656231E+04   -0.47615E-04   -0.24480E-04 31030   0.595E-02
  29 F= -.13242566E+04 E0= -.13242566E+04  d E =-.186928E-01  mag=   114.0000
       N       E                     dE             d eps       ncg     rms          rms(c)
DAV:   1    -0.132279223618E+04    0.14643E+01   -0.81440E+01 46020   0.360E+01    0.577E+00
DAV:   2    -0.132429615565E+04   -0.15039E+01   -0.13905E+01 36230   0.621E+00    0.312E+00
DAV:   3    -0.132432301490E+04   -0.26859E-01   -0.43928E-01 37040   0.146E+00    0.153E+00
DAV:   4    -0.132432205426E+04    0.96065E-03   -0.38197E-02 40050   0.509E-01    0.107E+00
DAV:   5    -0.132431759610E+04    0.44582E-02   -0.83867E-03 40970   0.342E-01    0.741E-01
DAV:   6    -0.132431537401E+04    0.22221E-02   -0.90955E-03 42790   0.355E-01    0.317E-01
DAV:   7    -0.132431525444E+04    0.11957E-03   -0.42538E-03 38230   0.171E-01    0.154E-01
DAV:   8    -0.132431595001E+04   -0.69558E-03   -0.50148E-04 35680   0.626E-02    0.103E-01
DAV:   9    -0.132431582696E+04    0.12305E-03   -0.62142E-05 21960   0.249E-02    0.711E-02
DAV:  10    -0.132431568921E+04    0.13775E-03   -0.48555E-05 22140   0.247E-02    0.347E-02
DAV:  11    -0.132431586349E+04   -0.17428E-03   -0.21265E-05 18570   0.150E-02    0.142E-02
DAV:  12    -0.132431583861E+04    0.24882E-04   -0.42722E-06 18110   0.553E-03
  30 F= -.13243158E+04 E0= -.13243158E+04  d E =-.592763E-01  mag=   114.0000
       N       E                     dE             d eps       ncg     rms          rms(c)
DAV:   1    -0.132388158775E+04    0.43428E+00   -0.19632E+01 48570   0.193E+01    0.313E+00
DAV:   2    -0.132433814171E+04   -0.45655E+00   -0.41427E+00 37520   0.330E+00    0.175E+00
DAV:   3    -0.132435015443E+04   -0.12013E-01   -0.15642E-01 35880   0.901E-01    0.971E-01
DAV:   4    -0.132435061998E+04   -0.46555E-03   -0.12014E-02 39710   0.291E-01    0.558E-01
DAV:   5    -0.132434897602E+04    0.16440E-02   -0.27726E-03 39690   0.163E-01    0.386E-01
DAV:   6    -0.132434840460E+04    0.57142E-03   -0.23055E-03 42590   0.161E-01    0.178E-01
DAV:   7    -0.132434818874E+04    0.21586E-03   -0.11780E-03 38980   0.903E-02    0.982E-02
DAV:   8    -0.132434844863E+04   -0.25989E-03   -0.29200E-04 33380   0.522E-02    0.534E-02
DAV:   9    -0.132434836510E+04    0.83531E-04   -0.40031E-05 20540   0.205E-02    0.291E-02
DAV:  10    -0.132434832064E+04    0.44462E-04   -0.14201E-05 18600   0.109E-02
  31 F= -.13243483E+04 E0= -.13243483E+04  d E =-.324820E-01  mag=   114.0000
       N       E                     dE             d eps       ncg     rms          rms(c)
DAV:   1    -0.132428606646E+04    0.62299E-01   -0.29777E+00 46950   0.790E+00    0.129E+00
DAV:   2    -0.132436445697E+04   -0.78391E-01   -0.70826E-01 37250   0.135E+00    0.662E-01
DAV:   3    -0.132436592582E+04   -0.14688E-02   -0.25971E-02 37200   0.344E-01    0.370E-01
DAV:   4    -0.132436625718E+04   -0.33136E-03   -0.18451E-03 39470   0.998E-02    0.242E-01
DAV:   5    -0.132436590683E+04    0.35034E-03   -0.33360E-04 36570   0.633E-02    0.171E-01
DAV:   6    -0.132436596300E+04   -0.56166E-04   -0.44806E-04 39670   0.824E-02    0.814E-02
DAV:   7    -0.132436578034E+04    0.18266E-03   -0.25107E-04 35520   0.454E-02    0.354E-02
DAV:   8    -0.132436589621E+04   -0.11586E-03   -0.39284E-05 20040   0.204E-02    0.198E-02
DAV:   9    -0.132436589404E+04    0.21709E-05   -0.96594E-06 18280   0.903E-03
  32 F= -.13243659E+04 E0= -.13243659E+04  d E =-.175734E-01  mag=   114.0000
       N       E                     dE             d eps       ncg     rms          rms(c)
DAV:   1    -0.132394107737E+04    0.42482E+00   -0.25892E+01 45430   0.193E+01    0.310E+00
DAV:   2    -0.132439218224E+04   -0.45110E+00   -0.42603E+00 36500   0.338E+00    0.158E+00
DAV:   3    -0.132439930485E+04   -0.71226E-02   -0.12894E-01 36750   0.738E-01    0.789E-01
DAV:   4    -0.132439949448E+04   -0.18963E-03   -0.94664E-03 39510   0.223E-01    0.559E-01
DAV:   5    -0.132439774337E+04    0.17511E-02   -0.24286E-03 41160   0.176E-01    0.385E-01
DAV:   6    -0.132439758091E+04    0.16246E-03   -0.28540E-03 44120   0.191E-01    0.170E-01
DAV:   7    -0.132439730432E+04    0.27659E-03   -0.12467E-03 37870   0.989E-02    0.775E-02
DAV:   8    -0.132439752814E+04   -0.22382E-03   -0.15686E-04 28810   0.347E-02    0.508E-02
DAV:   9    -0.132439751526E+04    0.12878E-04   -0.27752E-05 19670   0.163E-02
  33 F= -.13243975E+04 E0= -.13243975E+04  d E =-.316212E-01  mag=   114.0000
       N       E                     dE             d eps       ncg     rms          rms(c)
DAV:   1    -0.132302743165E+04    0.13701E+01   -0.10250E+02 41770   0.330E+01    0.534E+00
DAV:   2    -0.132436634141E+04   -0.13389E+01   -0.13096E+01 36430   0.610E+00    0.282E+00
DAV:   3    -0.132438217473E+04   -0.15833E-01   -0.36454E-01 36750   0.124E+00    0.139E+00
DAV:   4    -0.132437867623E+04    0.34985E-02   -0.24274E-02 40850   0.325E-01    0.102E+00
DAV:   5    -0.132437367646E+04    0.49998E-02   -0.74009E-03 41480   0.301E-01    0.670E-01
DAV:   6    -0.132437263666E+04    0.10398E-02   -0.91560E-03 41990   0.327E-01    0.389E-01
DAV:   7    -0.132437196538E+04    0.67129E-03   -0.45229E-03 38020   0.210E-01    0.150E-01
DAV:   8    -0.132437263998E+04   -0.67460E-03   -0.61953E-04 35650   0.640E-02    0.825E-02
DAV:   9    -0.132437253198E+04    0.10800E-03   -0.84428E-05 22780   0.248E-02    0.645E-02
DAV:  10    -0.132437250132E+04    0.30665E-04   -0.43069E-05 20290   0.243E-02
  34 F= -.13243725E+04 E0= -.13243725E+04  d E =0.250139E-01  mag=   114.0000
       N       E                     dE             d eps       ncg     rms          rms(c)
DAV:   1    -0.132396349722E+04    0.40903E+00   -0.16258E+01 48430   0.187E+01    0.315E+00
DAV:   2    -0.132440938540E+04   -0.44589E+00   -0.39862E+00 37740   0.320E+00    0.164E+00
DAV:   3    -0.132442096083E+04   -0.11575E-01   -0.13221E-01 36270   0.763E-01    0.828E-01
DAV:   4    -0.132442114400E+04   -0.18317E-03   -0.78702E-03 40130   0.175E-01    0.551E-01
DAV:   5    -0.132441949224E+04    0.16518E-02   -0.24891E-03 41490   0.159E-01    0.331E-01
DAV:   6    -0.132441947911E+04    0.13134E-04   -0.18674E-03 42880   0.152E-01    0.194E-01
DAV:   7    -0.132441912535E+04    0.35376E-03   -0.10282E-03 38740   0.950E-02    0.836E-02
DAV:   8    -0.132441943860E+04   -0.31326E-03   -0.14971E-04 29520   0.385E-02    0.368E-02
DAV:   9    -0.132441939685E+04    0.41751E-04   -0.28145E-05 19490   0.150E-02
  35 F= -.13244194E+04 E0= -.13244194E+04  d E =-.468955E-01  mag=   114.0000
       N       E                     dE             d eps       ncg     rms          rms(c)
DAV:   1    -0.132432843157E+04    0.91007E-01   -0.40461E+00 46840   0.896E+00    0.151E+00
DAV:   2    -0.132443227331E+04   -0.10384E+00   -0.94680E-01 37250   0.155E+00    0.744E-01
DAV:   3    -0.132443479527E+04   -0.25220E-02   -0.32616E-02 37350   0.361E-01    0.390E-01
DAV:   4    -0.132443485473E+04   -0.59460E-04   -0.20070E-03 39430   0.886E-02    0.270E-01
DAV:   5    -0.132443439110E+04    0.46363E-03   -0.39266E-04 37510   0.748E-02    0.172E-01
DAV:   6    -0.132443424316E+04    0.14794E-03   -0.48041E-04 42270   0.851E-02    0.867E-02
DAV:   7    -0.132443424210E+04    0.10532E-05   -0.25385E-04 36080   0.465E-02
  36 F= -.13244342E+04 E0= -.13244342E+04  d E =-.148452E-01  mag=   114.0000
       N       E                     dE             d eps       ncg     rms          rms(c)
DAV:   1    -0.132429313946E+04    0.14110E+00   -0.66954E+00 47150   0.107E+01    0.180E+00
DAV:   2    -0.132443746470E+04   -0.14433E+00   -0.13301E+00 36230   0.184E+00    0.867E-01
DAV:   3    -0.132444083087E+04   -0.33662E-02   -0.43835E-02 37120   0.420E-01    0.428E-01
DAV:   4    -0.132444106211E+04   -0.23124E-03   -0.34122E-03 40270   0.134E-01    0.315E-01
DAV:   5    -0.132444057652E+04    0.48559E-03   -0.63966E-04 37770   0.948E-02    0.222E-01
DAV:   6    -0.132444044793E+04    0.12859E-03   -0.82134E-04 43480   0.110E-01    0.915E-02
DAV:   7    -0.132444034229E+04    0.10564E-03   -0.36676E-04 36900   0.513E-02    0.393E-02
DAV:   8    -0.132444043208E+04   -0.89786E-04   -0.36720E-05 20110   0.172E-02    0.282E-02
DAV:   9    -0.132444039535E+04    0.36724E-04   -0.99217E-06 18160   0.930E-03
  37 F= -.13244404E+04 E0= -.13244404E+04  d E =-.615325E-02  mag=   114.0000
       N       E                     dE             d eps       ncg     rms          rms(c)
DAV:   1    -0.131494282273E+04    0.94976E+01   -0.28798E+02 48360   0.799E+01    0.157E+01
DAV:   2    -0.132361572079E+04   -0.86729E+01   -0.77056E+01 36910   0.142E+01    0.109E+01
DAV:   3    -0.132391222963E+04   -0.29651E+00   -0.31440E+00 37680   0.382E+00    0.461E+00
DAV:   4    -0.132391308945E+04   -0.85982E-03   -0.20862E-01 40400   0.105E+00    0.320E+00
DAV:   5    -0.132389412220E+04    0.18967E-01   -0.34685E-02 39640   0.563E-01    0.226E+00
DAV:   6    -0.132388137058E+04    0.12752E-01   -0.25567E-02 41690   0.671E-01    0.123E+00
DAV:   7    -0.132387992306E+04    0.14475E-02   -0.20632E-02 40370   0.468E-01    0.368E-01
DAV:   8    -0.132388296964E+04   -0.30466E-02   -0.55264E-03 37280   0.188E-01    0.198E-01
DAV:   9    -0.132388236945E+04    0.60019E-03   -0.97117E-04 37420   0.740E-02    0.139E-01
DAV:  10    -0.132388227283E+04    0.96620E-04   -0.25485E-04 31670   0.560E-02    0.871E-02
DAV:  11    -0.132388256034E+04   -0.28751E-03   -0.11973E-04 24810   0.372E-02    0.432E-02
DAV:  12    -0.132388256289E+04   -0.25480E-05   -0.39539E-05 19890   0.195E-02
  38 F= -.13238826E+04 E0= -.13238826E+04  d E =0.557832E+00  mag=   114.0000
       N       E                     dE             d eps       ncg     rms          rms(c)
DAV:   1    -0.131947669936E+04    0.44059E+01   -0.14093E+02 50050   0.582E+01    0.118E+01
DAV:   2    -0.132425594108E+04   -0.47792E+01   -0.41913E+01 38110   0.103E+01    0.810E+00
DAV:   3    -0.132441875391E+04   -0.16281E+00   -0.17451E+00 37420   0.287E+00    0.345E+00
DAV:   4    -0.132441707328E+04    0.16806E-02   -0.11703E-01 40090   0.868E-01    0.226E+00
DAV:   5    -0.132440328344E+04    0.13790E-01   -0.29345E-02 39060   0.544E-01    0.163E+00
DAV:   6    -0.132439573078E+04    0.75527E-02   -0.23000E-02 40410   0.575E-01    0.973E-01
DAV:   7    -0.132439277676E+04    0.29540E-02   -0.15869E-02 40490   0.400E-01    0.340E-01
DAV:   8    -0.132439531757E+04   -0.25408E-02   -0.54238E-03 37670   0.214E-01    0.216E-01
DAV:   9    -0.132439501452E+04    0.30305E-03   -0.11138E-03 37170   0.109E-01    0.119E-01
DAV:  10    -0.132439463866E+04    0.37586E-03   -0.20016E-04 33400   0.385E-02    0.692E-02
DAV:  11    -0.132439483630E+04   -0.19764E-03   -0.51888E-05 23040   0.245E-02    0.321E-02
DAV:  12    -0.132439488736E+04   -0.51061E-04   -0.42732E-05 20400   0.202E-02    0.207E-02
DAV:  13    -0.132439482770E+04    0.59662E-04   -0.11056E-05 18720   0.974E-03    0.108E-02
DAV:  14    -0.132439482117E+04    0.65321E-05   -0.30013E-06 18480   0.383E-03
  39 F= -.13243948E+04 E0= -.13243948E+04  d E =-.512258E+00  mag=   114.0000
       N       E                     dE             d eps       ncg     rms          rms(c)
DAV:   1    -0.132435424083E+04    0.40587E-01   -0.23437E+00 48790   0.758E+00    0.130E+00
DAV:   2    -0.132442522054E+04   -0.70980E-01   -0.63541E-01 38020   0.132E+00    0.675E-01
DAV:   3    -0.132442818527E+04   -0.29647E-02   -0.28301E-02 37430   0.376E-01    0.413E-01
DAV:   4    -0.132442768236E+04    0.50291E-03   -0.19290E-03 39620   0.115E-01    0.244E-01
DAV:   5    -0.132442773317E+04   -0.50816E-04   -0.44915E-04 37010   0.701E-02    0.179E-01
DAV:   6    -0.132442739417E+04    0.33901E-03   -0.61841E-04 38760   0.865E-02    0.973E-02
DAV:   7    -0.132442759255E+04   -0.19839E-03   -0.30979E-04 37600   0.504E-02    0.420E-02
DAV:   8    -0.132442756008E+04    0.32478E-04   -0.82276E-05 21430   0.282E-02
  40 F= -.13244276E+04 E0= -.13244276E+04  d E =-.327389E-01  mag=   114.0000
       N       E                     dE             d eps       ncg     rms          rms(c)
DAV:   1    -0.132430719411E+04    0.12040E+00   -0.53119E+00 48040   0.107E+01    0.174E+00
DAV:   2    -0.132444886916E+04   -0.14168E+00   -0.12850E+00 37690   0.185E+00    0.931E-01
DAV:   3    -0.132445274326E+04   -0.38741E-02   -0.46682E-02 36240   0.496E-01    0.549E-01
DAV:   4    -0.132445183607E+04    0.90718E-03   -0.35599E-03 40160   0.150E-01    0.346E-01
DAV:   5    -0.132445170327E+04    0.13280E-03   -0.77433E-04 38120   0.959E-02    0.250E-01
DAV:   6    -0.132445114090E+04    0.56237E-03   -0.10312E-03 42790   0.116E-01    0.112E-01
DAV:   7    -0.132445138166E+04   -0.24076E-03   -0.50092E-04 38610   0.599E-02    0.529E-02
DAV:   8    -0.132445132610E+04    0.55557E-04   -0.92292E-05 22750   0.303E-02    0.312E-02
DAV:   9    -0.132445132257E+04    0.35258E-05   -0.19235E-05 19300   0.144E-02
  41 F= -.13244513E+04 E0= -.13244513E+04  d E =-.237625E-01  mag=   114.0000
       N       E                     dE             d eps       ncg     rms          rms(c)
DAV:   1    -0.132441662635E+04    0.34700E-01   -0.19903E+00 44060   0.567E+00    0.967E-01
DAV:   2    -0.132446050140E+04   -0.43875E-01   -0.41449E-01 37390   0.104E+00    0.532E-01
DAV:   3    -0.132446168595E+04   -0.11845E-02   -0.13851E-02 36980   0.290E-01    0.338E-01
DAV:   4    -0.132446103559E+04    0.65036E-03   -0.11656E-03 38930   0.918E-02    0.211E-01
DAV:   5    -0.132446103623E+04   -0.64286E-06   -0.17927E-04 30690   0.479E-02
  42 F= -.13244610E+04 E0= -.13244610E+04  d E =-.971366E-02  mag=   114.0000
       N       E                     dE             d eps       ncg     rms          rms(c)
DAV:   1    -0.132422349430E+04    0.23754E+00   -0.99150E+00 45310   0.135E+01    0.224E+00
DAV:   2    -0.132446762961E+04   -0.24414E+00   -0.22654E+00 36740   0.235E+00    0.116E+00
DAV:   3    -0.132447134276E+04   -0.37131E-02   -0.67563E-02 37080   0.552E-01    0.630E-01
DAV:   4    -0.132447072208E+04    0.62068E-03   -0.47952E-03 39790   0.156E-01    0.451E-01
DAV:   5    -0.132447019618E+04    0.52590E-03   -0.85290E-04 42530   0.119E-01    0.298E-01
DAV:   6    -0.132446944435E+04    0.75183E-03   -0.12453E-03 43190   0.135E-01    0.130E-01
DAV:   7    -0.132446981551E+04   -0.37115E-03   -0.63081E-04 38440   0.641E-02    0.506E-02
DAV:   8    -0.132446974530E+04    0.70210E-04   -0.67642E-05 21840   0.255E-02    0.318E-02
DAV:   9    -0.132446974749E+04   -0.21874E-05   -0.15939E-05 19160   0.127E-02
  43 F= -.13244697E+04 E0= -.13244697E+04  d E =-.871126E-02  mag=   114.0000
       N       E                     dE             d eps       ncg     rms          rms(c)
DAV:   1    -0.132440675658E+04    0.62989E-01   -0.31590E+00 45700   0.735E+00    0.121E+00
DAV:   2    -0.132447530442E+04   -0.68548E-01   -0.63818E-01 37160   0.130E+00    0.597E-01
DAV:   3    -0.132447607088E+04   -0.76646E-03   -0.19164E-02 36840   0.302E-01    0.326E-01
DAV:   4    -0.132447630174E+04   -0.23086E-03   -0.13640E-03 39200   0.849E-02    0.228E-01
DAV:   5    -0.132447600035E+04    0.30138E-03   -0.25948E-04 33340   0.634E-02    0.150E-01
DAV:   6    -0.132447589004E+04    0.11031E-03   -0.36944E-04 41340   0.683E-02    0.600E-02
DAV:   7    -0.132447584366E+04    0.46386E-04   -0.14656E-04 29560   0.298E-02
  44 F= -.13244758E+04 E0= -.13244758E+04  d E =-.609617E-02  mag=   114.0000
       N       E                     dE             d eps       ncg     rms          rms(c)
DAV:   1    -0.132435947521E+04    0.11641E+00   -0.57737E+00 47330   0.999E+00    0.159E+00
DAV:   2    -0.132448161106E+04   -0.12214E+00   -0.11338E+00 36850   0.172E+00    0.827E-01
DAV:   3    -0.132448328744E+04   -0.16764E-02   -0.39382E-02 36690   0.445E-01    0.481E-01
DAV:   4    -0.132448377139E+04   -0.48396E-03   -0.33618E-03 39260   0.149E-01    0.300E-01
DAV:   5    -0.132448315681E+04    0.61458E-03   -0.55815E-04 37030   0.839E-02    0.206E-01
DAV:   6    -0.132448302350E+04    0.13331E-03   -0.74212E-04 43320   0.944E-02    0.884E-02
DAV:   7    -0.132448291855E+04    0.10494E-03   -0.32561E-04 36520   0.496E-02    0.511E-02
DAV:   8    -0.132448297263E+04   -0.54075E-04   -0.56464E-05 20620   0.232E-02    0.255E-02
DAV:   9    -0.132448295661E+04    0.16017E-04   -0.86438E-06 18210   0.753E-03
  45 F= -.13244830E+04 E0= -.13244830E+04  d E =-.711295E-02  mag=   114.0000
       N       E                     dE             d eps       ncg     rms          rms(c)
DAV:   1    -0.132382062806E+04    0.66234E+00   -0.32564E+01 47420   0.232E+01    0.376E+00
DAV:   2    -0.132446338323E+04   -0.64276E+00   -0.59173E+00 37120   0.395E+00    0.192E+00
DAV:   3    -0.132447424431E+04   -0.10861E-01   -0.17707E-01 36900   0.930E-01    0.100E+00
DAV:   4    -0.132447434293E+04   -0.98622E-04   -0.15318E-02 39240   0.318E-01    0.666E-01
DAV:   5    -0.132447211683E+04    0.22261E-02   -0.35891E-03 41070   0.223E-01    0.456E-01
DAV:   6    -0.132447142214E+04    0.69469E-03   -0.37919E-03 43130   0.217E-01    0.194E-01
DAV:   7    -0.132447126753E+04    0.15461E-03   -0.15446E-03 38350   0.103E-01    0.865E-02
DAV:   8    -0.132447146402E+04   -0.19649E-03   -0.18717E-04 30870   0.358E-02    0.566E-02
DAV:   9    -0.132447147530E+04   -0.11279E-04   -0.26948E-05 19970   0.176E-02
  46 F= -.13244715E+04 E0= -.13244715E+04  d E =0.114813E-01  mag=   114.0000
       N       E                     dE             d eps       ncg     rms          rms(c)
DAV:   1    -0.132420817738E+04    0.26329E+00   -0.74892E+00 48760   0.135E+01    0.232E+00
DAV:   2    -0.132448500064E+04   -0.27682E+00   -0.24775E+00 37810   0.228E+00    0.120E+00
DAV:   3    -0.132449224350E+04   -0.72429E-02   -0.81360E-02 36330   0.557E-01    0.640E-01
DAV:   4    -0.132449217442E+04    0.69081E-04   -0.52365E-03 40310   0.148E-01    0.441E-01
DAV:   5    -0.132449148906E+04    0.68536E-03   -0.13502E-03 41820   0.125E-01    0.306E-01
DAV:   6    -0.132449095581E+04    0.53325E-03   -0.14486E-03 41760   0.141E-01    0.155E-01
DAV:   7    -0.132449122026E+04   -0.26445E-03   -0.66978E-04 38940   0.763E-02    0.587E-02
DAV:   8    -0.132449112071E+04    0.99546E-04   -0.13281E-04 27090   0.327E-02    0.359E-02
DAV:   9    -0.132449118877E+04   -0.68057E-04   -0.28497E-05 19760   0.159E-02    0.212E-02
DAV:  10    -0.132449115741E+04    0.31358E-04   -0.53666E-06 18260   0.693E-03
  47 F= -.13244912E+04 E0= -.13244912E+04  d E =-.196821E-01  mag=   114.0000
       N       E                     dE             d eps       ncg     rms          rms(c)
DAV:   1    -0.132447918386E+04    0.12005E-01   -0.87082E-01 46290   0.368E+00    0.589E-01
DAV:   2    -0.132449641761E+04   -0.17234E-01   -0.16570E-01 37620   0.654E-01    0.315E-01
DAV:   3    -0.132449672993E+04   -0.31231E-03   -0.61596E-03 36490   0.164E-01    0.185E-01
DAV:   4    -0.132449666457E+04    0.65354E-04   -0.40054E-04 33950   0.429E-02    0.119E-01
DAV:   5    -0.132449658241E+04    0.82161E-04   -0.11036E-04 25810   0.355E-02    0.834E-02
DAV:   6    -0.132449659110E+04   -0.86878E-05   -0.15551E-04 29820   0.407E-02
  48 F= -.13244966E+04 E0= -.13244966E+04  d E =-.543369E-02  mag=   114.0000
       N       E                     dE             d eps       ncg     rms          rms(c)
DAV:   1    -0.132447850895E+04    0.18073E-01   -0.10068E+00 47760   0.416E+00    0.646E-01
DAV:   2    -0.132449973580E+04   -0.21227E-01   -0.20232E-01 37390   0.714E-01    0.356E-01
DAV:   3    -0.132450022309E+04   -0.48729E-03   -0.75154E-03 36340   0.189E-01    0.214E-01
DAV:   4    -0.132450025845E+04   -0.35359E-04   -0.62567E-04 37840   0.626E-02    0.131E-01
DAV:   5    -0.132450006698E+04    0.19147E-03   -0.15433E-04 26590   0.441E-02    0.937E-02
DAV:   6    -0.132450012069E+04   -0.53714E-04   -0.18884E-04 31460   0.454E-02    0.418E-02
DAV:   7    -0.132450005065E+04    0.70037E-04   -0.61859E-05 20820   0.217E-02    0.181E-02
DAV:   8    -0.132450008447E+04   -0.33817E-04   -0.14585E-05 18270   0.967E-03
  49 F= -.13245001E+04 E0= -.13245001E+04  d E =-.349337E-02  mag=   114.0000
       N       E                     dE             d eps       ncg     rms          rms(c)
DAV:   1    -0.132443254413E+04    0.67507E-01   -0.44631E+00 44550   0.771E+00    0.124E+00
DAV:   2    -0.132450258900E+04   -0.70045E-01   -0.68156E-01 36610   0.135E+00    0.617E-01
DAV:   3    -0.132450398953E+04   -0.14005E-02   -0.20822E-02 36870   0.285E-01    0.318E-01
DAV:   4    -0.132450374178E+04    0.24775E-03   -0.13475E-03 39380   0.699E-02    0.223E-01
DAV:   5    -0.132450350313E+04    0.23865E-03   -0.36535E-04 37640   0.749E-02    0.121E-01
DAV:   6    -0.132450349463E+04    0.84995E-05   -0.41400E-04 38460   0.613E-02
  50 F= -.13245035E+04 E0= -.13245035E+04  d E =-.341016E-02  mag=   114.0000
       N       E                     dE             d eps       ncg     rms          rms(c)
DAV:   1    -0.132359039009E+04    0.91311E+00   -0.48810E+01 44250   0.259E+01    0.472E+00
DAV:   2    -0.132448978735E+04   -0.89940E+00   -0.84100E+00 36610   0.458E+00    0.245E+00
DAV:   3    -0.132450478618E+04   -0.14999E-01   -0.24028E-01 36860   0.961E-01    0.119E+00
DAV:   4    -0.132450341659E+04    0.13696E-02   -0.16920E-02 39900   0.261E-01    0.890E-01
DAV:   5    -0.132450052143E+04    0.28952E-02   -0.33145E-03 42260   0.221E-01    0.561E-01
DAV:   6    -0.132449929531E+04    0.12261E-02   -0.51249E-03 42740   0.258E-01    0.322E-01
DAV:   7    -0.132449969484E+04   -0.39952E-03   -0.26492E-03 38190   0.157E-01    0.139E-01
DAV:   8    -0.132449961920E+04    0.75636E-04   -0.30181E-04 34510   0.472E-02    0.959E-02
DAV:   9    -0.132449967293E+04   -0.53734E-04   -0.49119E-05 21150   0.223E-02    0.708E-02
DAV:  10    -0.132449957112E+04    0.10182E-03   -0.42482E-05 21510   0.224E-02    0.361E-02
DAV:  11    -0.132449970725E+04   -0.13613E-03   -0.17747E-05 18480   0.152E-02    0.174E-02
DAV:  12    -0.132449968274E+04    0.24502E-04   -0.74771E-06 18110   0.840E-03
  51 F= -.13244997E+04 E0= -.13244997E+04  d E =0.381189E-02  mag=   114.0000
       N       E                     dE             d eps       ncg     rms          rms(c)
DAV:   1    -0.132437292075E+04    0.12679E+00   -0.49026E+00 49600   0.106E+01    0.178E+00
DAV:   2    -0.132451028996E+04   -0.13737E+00   -0.11970E+00 37580   0.177E+00    0.883E-01
DAV:   3    -0.132451393827E+04   -0.36483E-02   -0.42311E-02 37260   0.430E-01    0.445E-01
DAV:   4    -0.132451407352E+04   -0.13525E-03   -0.27229E-03 39620   0.119E-01    0.290E-01
DAV:   5    -0.132451366092E+04    0.41260E-03   -0.75979E-04 38850   0.944E-02    0.197E-01
DAV:   6    -0.132451355262E+04    0.10830E-03   -0.82971E-04 41830   0.102E-01    0.105E-01
DAV:   7    -0.132451340574E+04    0.14688E-03   -0.34251E-04 37750   0.561E-02    0.399E-02
DAV:   8    -0.132451354374E+04   -0.13800E-03   -0.58169E-05 21260   0.225E-02    0.246E-02
DAV:   9    -0.132451350000E+04    0.43749E-04   -0.14838E-05 18730   0.106E-02
  52 F= -.13245135E+04 E0= -.13245135E+04  d E =-.138173E-01  mag=   114.0000
       N       E                     dE             d eps       ncg     rms          rms(c)
DAV:   1    -0.132449973131E+04    0.13812E-01   -0.90753E-01 47720   0.393E+00    0.633E-01
DAV:   2    -0.132451876849E+04   -0.19037E-01   -0.17640E-01 37880   0.676E-01    0.333E-01
DAV:   3    -0.132451902834E+04   -0.25986E-03   -0.58243E-03 36530   0.169E-01    0.189E-01
DAV:   4    -0.132451910139E+04   -0.73047E-04   -0.31601E-04 34460   0.415E-02    0.117E-01
DAV:   5    -0.132451893299E+04    0.16840E-03   -0.16049E-04 29730   0.418E-02    0.765E-02
DAV:   6    -0.132451900497E+04   -0.71978E-04   -0.13442E-04 27380   0.384E-02    0.460E-02
DAV:   7    -0.132451892001E+04    0.84960E-04   -0.57967E-05 20150   0.225E-02    0.166E-02
DAV:   8    -0.132451897211E+04   -0.52107E-04   -0.12995E-05 18330   0.970E-03    0.107E-02
DAV:   9    -0.132451897388E+04   -0.17685E-05   -0.33067E-06 17990   0.471E-03
  53 F= -.13245190E+04 E0= -.13245190E+04  d E =-.547389E-02  mag=   114.0000
       N       E                     dE             d eps       ncg     rms          rms(c)
DAV:   1    -0.132449397379E+04    0.24998E-01   -0.14470E+00 44810   0.475E+00    0.792E-01
DAV:   2    -0.132452239411E+04   -0.28420E-01   -0.26744E-01 37220   0.838E-01    0.397E-01
DAV:   3    -0.132452273248E+04   -0.33838E-03   -0.77615E-03 36680   0.185E-01    0.210E-01
DAV:   4    -0.132452276947E+04   -0.36993E-04   -0.49672E-04 36130   0.452E-02
  54 F= -.13245228E+04 E0= -.13245228E+04  d E =-.379559E-02  mag=   114.0000
       N       E                     dE             d eps       ncg     rms          rms(c)
DAV:   1    -0.132445831927E+04    0.64413E-01   -0.39996E+00 43980   0.744E+00    0.116E+00
DAV:   2    -0.132452383963E+04   -0.65520E-01   -0.64109E-01 36410   0.129E+00    0.614E-01
DAV:   3    -0.132452441035E+04   -0.57071E-03   -0.19401E-02 36860   0.286E-01    0.347E-01
DAV:   4    -0.132452447862E+04   -0.68275E-04   -0.14797E-03 39670   0.904E-02    0.256E-01
DAV:   5    -0.132452395430E+04    0.52433E-03   -0.53641E-04 38760   0.917E-02    0.158E-01
DAV:   6    -0.132452408109E+04   -0.12679E-03   -0.61248E-04 39640   0.796E-02    0.745E-02
DAV:   7    -0.132452393538E+04    0.14571E-03   -0.18591E-04 31210   0.409E-02    0.397E-02
DAV:   8    -0.132452398696E+04   -0.51583E-04   -0.23437E-05 19180   0.137E-02    0.309E-02
DAV:   9    -0.132452400540E+04   -0.18438E-04   -0.57765E-06 18110   0.703E-03
  55 F= -.13245240E+04 E0= -.13245240E+04  d E =-.123593E-02  mag=   114.0000
       N       E                     dE             d eps       ncg     rms          rms(c)
DAV:   1    -0.132433291481E+04    0.19107E+00   -0.15198E+01 42100   0.129E+01    0.196E+00
DAV:   2    -0.132452331497E+04   -0.19040E+00   -0.19312E+00 36540   0.230E+00    0.108E+00
DAV:   3    -0.132452480203E+04   -0.14871E-02   -0.59588E-02 36570   0.501E-01    0.594E-01
DAV:   4    -0.132452435553E+04    0.44650E-03   -0.42885E-03 40030   0.162E-01    0.428E-01
DAV:   5    -0.132452306914E+04    0.12864E-02   -0.17640E-03 41510   0.152E-01    0.271E-01
DAV:   6    -0.132452303733E+04    0.31814E-04   -0.19035E-03 40140   0.142E-01    0.140E-01
DAV:   7    -0.132452282999E+04    0.20734E-03   -0.64105E-04 37490   0.738E-02    0.663E-02
DAV:   8    -0.132452295285E+04   -0.12286E-03   -0.66289E-05 21880   0.204E-02    0.506E-02
DAV:   9    -0.132452296809E+04   -0.15237E-04   -0.15534E-05 18870   0.107E-02
  56 F= -.13245230E+04 E0= -.13245230E+04  d E =0.103732E-02  mag=   114.0000
       N       E                     dE             d eps       ncg     rms          rms(c)
DAV:   1    -0.132443128232E+04    0.91671E-01   -0.40788E+00 47680   0.876E+00    0.141E+00
DAV:   2    -0.132452554921E+04   -0.94267E-01   -0.85931E-01 37130   0.148E+00    0.712E-01
DAV:   3    -0.132452745558E+04   -0.19064E-02   -0.29029E-02 36550   0.362E-01    0.395E-01
DAV:   4    -0.132452758943E+04   -0.13385E-03   -0.20170E-03 39090   0.106E-01    0.267E-01
DAV:   5    -0.132452696995E+04    0.61948E-03   -0.67542E-04 40620   0.881E-02    0.173E-01
DAV:   6    -0.132452692893E+04    0.41015E-04   -0.57658E-04 39900   0.824E-02    0.827E-02
DAV:   7    -0.132452681342E+04    0.11551E-03   -0.24369E-04 34520   0.450E-02    0.423E-02
DAV:   8    -0.132452688384E+04   -0.70411E-04   -0.40734E-05 20220   0.195E-02    0.306E-02
DAV:   9    -0.132452688333E+04    0.50550E-06   -0.91832E-06 18320   0.840E-03
  57 F= -.13245269E+04 E0= -.13245269E+04  d E =-.391525E-02  mag=   114.0000
       N       E                     dE             d eps       ncg     rms          rms(c)
DAV:   1    -0.132451295054E+04    0.13933E-01   -0.84700E-01 45760   0.386E+00    0.570E-01
DAV:   2    -0.132453032953E+04   -0.17379E-01   -0.16332E-01 36790   0.643E-01    0.298E-01
DAV:   3    -0.132453070422E+04   -0.37468E-03   -0.54642E-03 36990   0.144E-01    0.151E-01
DAV:   4    -0.132453063162E+04    0.72593E-04   -0.33315E-04 32430   0.384E-02    0.106E-01
DAV:   5    -0.132453066876E+04   -0.37142E-04   -0.12278E-04 27470   0.376E-02
  58 F= -.13245307E+04 E0= -.13245307E+04  d E =-.378543E-02  mag=   114.0000
       N       E                     dE             d eps       ncg     rms          rms(c)
DAV:   1    -0.132450216621E+04    0.28465E-01   -0.14546E+00 44190   0.494E+00    0.782E-01
DAV:   2    -0.132453227424E+04   -0.30108E-01   -0.27862E-01 36540   0.852E-01    0.392E-01
DAV:   3    -0.132453253234E+04   -0.25810E-03   -0.84917E-03 36600   0.183E-01    0.203E-01
DAV:   4    -0.132453262032E+04   -0.87978E-04   -0.54690E-04 35350   0.503E-02    0.153E-01
DAV:   5    -0.132453238190E+04    0.23842E-03   -0.13410E-04 27720   0.493E-02    0.973E-02
DAV:   6    -0.132453242013E+04   -0.38229E-04   -0.21555E-04 34030   0.501E-02
  59 F= -.13245324E+04 E0= -.13245324E+04  d E =-.175136E-02  mag=   114.0000
       N       E                     dE             d eps       ncg     rms          rms(c)
DAV:   1    -0.132431748519E+04    0.21490E+00   -0.15089E+01 41850   0.134E+01    0.210E+00
DAV:   2    -0.132452796032E+04   -0.21048E+00   -0.20786E+00 36510   0.237E+00    0.111E+00
DAV:   3    -0.132453068369E+04   -0.27234E-02   -0.63136E-02 36210   0.500E-01    0.576E-01
DAV:   4    -0.132453044327E+04    0.24042E-03   -0.42312E-03 39780   0.142E-01    0.429E-01
DAV:   5    -0.132452916332E+04    0.12800E-02   -0.13825E-03 43070   0.143E-01    0.257E-01
DAV:   6    -0.132452919682E+04   -0.33501E-04   -0.15896E-03 40240   0.132E-01    0.139E-01
DAV:   7    -0.132452897179E+04    0.22503E-03   -0.57610E-04 36950   0.759E-02    0.659E-02
DAV:   8    -0.132452911028E+04   -0.13849E-03   -0.62132E-05 21320   0.217E-02    0.506E-02
DAV:   9    -0.132452911366E+04   -0.33799E-05   -0.16030E-05 18900   0.115E-02
  60 F= -.13245291E+04 E0= -.13245291E+04  d E =0.330647E-02  mag=   114.0000
       N       E                     dE             d eps       ncg     rms          rms(c)
DAV:   1    -0.132446530002E+04    0.63810E-01   -0.32164E+00 47480   0.740E+00    0.119E+00
DAV:   2    -0.132453149282E+04   -0.66193E-01   -0.61762E-01 37400   0.128E+00    0.618E-01
DAV:   3    -0.132453257495E+04   -0.10821E-02   -0.20419E-02 36490   0.303E-01    0.332E-01
DAV:   4    -0.132453268769E+04   -0.11274E-03   -0.13909E-03 39360   0.868E-02    0.221E-01
DAV:   5    -0.132453223878E+04    0.44891E-03   -0.40883E-04 36100   0.702E-02    0.142E-01
DAV:   6    -0.132453224144E+04   -0.26634E-05   -0.38224E-04 38590   0.672E-02
  61 F= -.13245322E+04 E0= -.13245322E+04  d E =-.312779E-02  mag=   114.0000
       N       E                     dE             d eps       ncg     rms          rms(c)
DAV:   1    -0.132449782526E+04    0.34414E-01   -0.18949E+00 44030   0.540E+00    0.864E-01
DAV:   2    -0.132453409917E+04   -0.36274E-01   -0.34385E-01 36370   0.946E-01    0.432E-01
DAV:   3    -0.132453474773E+04   -0.64857E-03   -0.10435E-02 36540   0.206E-01    0.227E-01
DAV:   4    -0.132453468061E+04    0.67125E-04   -0.72790E-04 37910   0.596E-02    0.172E-01
DAV:   5    -0.132453454435E+04    0.13626E-03   -0.15756E-04 28090   0.545E-02    0.114E-01
DAV:   6    -0.132453453065E+04    0.13700E-04   -0.25212E-04 36800   0.586E-02
  62 F= -.13245345E+04 E0= -.13245345E+04  d E =-.228920E-02  mag=   114.0000
       N       E                     dE             d eps       ncg     rms          rms(c)
DAV:   1    -0.132452094132E+04    0.13603E-01   -0.70202E-01 44600   0.333E+00    0.580E-01
DAV:   2    -0.132453616695E+04   -0.15226E-01   -0.13963E-01 36550   0.581E-01    0.287E-01
DAV:   3    -0.132453643993E+04   -0.27298E-03   -0.44331E-03 36380   0.134E-01    0.166E-01
DAV:   4    -0.132453644578E+04   -0.58495E-05   -0.34320E-04 32960   0.418E-02
  63 F= -.13245364E+04 E0= -.13245364E+04  d E =-.191513E-02  mag=   114.0000
       N       E                     dE             d eps       ncg     rms          rms(c)
DAV:   1    -0.132420674716E+04    0.32969E+00   -0.15596E+01 44360   0.147E+01    0.273E+00
DAV:   2    -0.132452801531E+04   -0.32127E+00   -0.29867E+00 36840   0.256E+00    0.140E+00
DAV:   3    -0.132453300578E+04   -0.49905E-02   -0.83725E-02 36190   0.551E-01    0.707E-01
DAV:   4    -0.132453299328E+04    0.12496E-04   -0.62932E-03 40000   0.164E-01    0.550E-01
DAV:   5    -0.132453168668E+04    0.13066E-02   -0.13340E-03 43010   0.152E-01    0.365E-01
DAV:   6    -0.132453130638E+04    0.38030E-03   -0.20733E-03 43470   0.170E-01    0.172E-01
DAV:   7    -0.132453120522E+04    0.10116E-03   -0.88216E-04 36960   0.932E-02    0.764E-02
DAV:   8    -0.132453139371E+04   -0.18849E-03   -0.96597E-05 24080   0.243E-02    0.610E-02
DAV:   9    -0.132453137851E+04    0.15203E-04   -0.16969E-05 18460   0.106E-02
  64 F= -.13245314E+04 E0= -.13245314E+04  d E =0.506727E-02  mag=   114.0000
       N       E                     dE             d eps       ncg     rms          rms(c)
DAV:   1    -0.132443055209E+04    0.10084E+00   -0.31510E+00 48370   0.822E+00    0.155E+00
DAV:   2    -0.132453306781E+04   -0.10252E+00   -0.88237E-01 36920   0.136E+00    0.765E-01
DAV:   3    -0.132453608201E+04   -0.30142E-02   -0.32257E-02 37360   0.312E-01    0.348E-01
DAV:   4    -0.132453623167E+04   -0.14966E-03   -0.19705E-03 39220   0.706E-02    0.241E-01
DAV:   5    -0.132453608306E+04    0.14861E-03   -0.29232E-04 37030   0.551E-02    0.144E-01
DAV:   6    -0.132453594853E+04    0.13453E-03   -0.21108E-04 38640   0.531E-02    0.505E-02
DAV:   7    -0.132453606378E+04   -0.11525E-03   -0.11977E-04 27440   0.306E-02    0.308E-02
DAV:   8    -0.132453606951E+04   -0.57271E-05   -0.20281E-05 19000   0.144E-02
  65 F= -.13245361E+04 E0= -.13245361E+04  d E =-.469099E-02  mag=   114.0000
       N       E                     dE             d eps       ncg     rms          rms(c)
DAV:   1    -0.132451844054E+04    0.17623E-01   -0.99845E-01 45400   0.407E+00    0.670E-01
DAV:   2    -0.132453931410E+04   -0.20874E-01   -0.19838E-01 37480   0.721E-01    0.348E-01
DAV:   3    -0.132453972313E+04   -0.40903E-03   -0.64762E-03 36770   0.172E-01    0.202E-01
DAV:   4    -0.132453971406E+04    0.90665E-05   -0.41883E-04 35190   0.458E-02
  66 F= -.13245397E+04 E0= -.13245397E+04  d E =-.364456E-02  mag=   114.0000
       N       E                     dE             d eps       ncg     rms          rms(c)
DAV:   1    -0.132453135129E+04    0.83718E-02   -0.41859E-01 46320   0.273E+00    0.447E-01
DAV:   2    -0.132454028607E+04   -0.89348E-02   -0.85785E-02 37110   0.474E-01    0.242E-01
DAV:   3    -0.132454053060E+04   -0.24454E-03   -0.30589E-03 37220   0.123E-01    0.146E-01
DAV:   4    -0.132454044715E+04    0.83456E-04   -0.23381E-04 30850   0.420E-02    0.951E-02
DAV:   5    -0.132454041066E+04    0.36482E-04   -0.73745E-05 23480   0.341E-02
  67 F= -.13245404E+04 E0= -.13245404E+04  d E =-.696601E-03  mag=   114.0000
       N       E                     dE             d eps       ncg     rms          rms(c)
DAV:   1    -0.132446657615E+04    0.73871E-01   -0.45780E+00 44150   0.775E+00    0.128E+00
DAV:   2    -0.132453863024E+04   -0.72054E-01   -0.71083E-01 36420   0.138E+00    0.619E-01
DAV:   3    -0.132453957826E+04   -0.94803E-03   -0.21006E-02 36480   0.284E-01    0.301E-01
DAV:   4    -0.132453951687E+04    0.61390E-04   -0.13750E-03 39780   0.735E-02    0.226E-01
DAV:   5    -0.132453919659E+04    0.32028E-03   -0.30511E-04 34040   0.719E-02    0.146E-01
DAV:   6    -0.132453919111E+04    0.54808E-05   -0.46584E-04 40260   0.776E-02
  68 F= -.13245392E+04 E0= -.13245392E+04  d E =0.121956E-02  mag=   114.0000
       N       E                     dE             d eps       ncg     rms          rms(c)
DAV:   1    -0.132448330034E+04    0.55896E-01   -0.38400E+00 43180   0.683E+00    0.111E+00
DAV:   2    -0.132453784421E+04   -0.54544E-01   -0.55464E-01 36710   0.124E+00    0.529E-01
DAV:   3    -0.132453850048E+04   -0.65627E-03   -0.15194E-02 37080   0.246E-01    0.265E-01
DAV:   4    -0.132453831537E+04    0.18510E-03   -0.95407E-04 38850   0.585E-02    0.194E-01
DAV:   5    -0.132453808193E+04    0.23345E-03   -0.25000E-04 32960   0.639E-02    0.117E-01
DAV:   6    -0.132453805138E+04    0.30546E-04   -0.34739E-04 38960   0.622E-02
  69 F= -.13245381E+04 E0= -.13245381E+04  d E =0.113973E-02  mag=   114.0000
       N       E                     dE             d eps       ncg     rms          rms(c)
DAV:   1    -0.132452164363E+04    0.16438E-01   -0.85622E-01 46620   0.398E+00    0.649E-01
DAV:   2    -0.132454075773E+04   -0.19114E-01   -0.17446E-01 37400   0.691E-01    0.328E-01
DAV:   3    -0.132454111985E+04   -0.36212E-03   -0.58221E-03 36900   0.162E-01    0.176E-01
DAV:   4    -0.132454113096E+04   -0.11108E-04   -0.34581E-04 31750   0.402E-02
  70 F= -.13245411E+04 E0= -.13245411E+04  d E =-.307958E-02  mag=   114.0000
       N       E                     dE             d eps       ncg     rms          rms(c)
DAV:   1    -0.132453728542E+04    0.38344E-02   -0.19717E-01 46150   0.189E+00    0.318E-01
DAV:   2    -0.132454167355E+04   -0.43881E-02   -0.40611E-02 37900   0.334E-01    0.172E-01
DAV:   3    -0.132454174308E+04   -0.69527E-04   -0.15122E-03 36910   0.952E-02    0.109E-01
DAV:   4    -0.132454174391E+04   -0.82716E-06   -0.12619E-04 26040   0.332E-02
  71 F= -.13245417E+04 E0= -.13245417E+04  d E =-.612947E-03  mag=   114.0000
       N       E                     dE             d eps       ncg     rms          rms(c)
DAV:   1    -0.132452568906E+04    0.16054E-01   -0.10443E+00 44460   0.371E+00    0.573E-01
DAV:   2    -0.132454115429E+04   -0.15465E-01   -0.15268E-01 36350   0.652E-01    0.294E-01
DAV:   3    -0.132454129073E+04   -0.13644E-03   -0.47302E-03 37100   0.146E-01    0.163E-01
DAV:   4    -0.132454127418E+04    0.16553E-04   -0.35717E-04 32750   0.491E-02
  72 F= -.13245413E+04 E0= -.13245413E+04  d E =0.469728E-03  mag=   114.0000
       N       E                     dE             d eps       ncg     rms          rms(c)
DAV:   1    -0.132449131103E+04    0.49980E-01   -0.35418E+00 42850   0.658E+00    0.100E+00
DAV:   2    -0.132453979769E+04   -0.48487E-01   -0.49836E-01 36670   0.118E+00    0.519E-01
DAV:   3    -0.132454018613E+04   -0.38844E-03   -0.13736E-02 36960   0.245E-01    0.275E-01
DAV:   4    -0.132454011749E+04    0.68644E-04   -0.97826E-04 39110   0.729E-02    0.199E-01
DAV:   5    -0.132453992330E+04    0.19419E-03   -0.28477E-04 33160   0.708E-02    0.125E-01
DAV:   6    -0.132453986720E+04    0.56100E-04   -0.40678E-04 38050   0.681E-02    0.577E-02
DAV:   7    -0.132453983022E+04    0.36984E-04   -0.13841E-04 26960   0.351E-02
  73 F= -.13245398E+04 E0= -.13245398E+04  d E =0.144396E-02  mag=   114.0000
       N       E                     dE             d eps       ncg     rms          rms(c)
DAV:   1    -0.132452978513E+04    0.10082E-01   -0.55527E-01 45280   0.319E+00    0.508E-01
DAV:   2    -0.132454201812E+04   -0.12233E-01   -0.11285E-01 36580   0.547E-01    0.247E-01
DAV:   3    -0.132454217382E+04   -0.15570E-03   -0.37587E-03 37130   0.122E-01    0.125E-01
DAV:   4    -0.132454220324E+04   -0.29413E-04   -0.21837E-04 28960   0.301E-02
  74 F= -.13245422E+04 E0= -.13245422E+04  d E =-.237302E-02  mag=   114.0000
       N       E                     dE             d eps       ncg     rms          rms(c)
DAV:   1    -0.132453737497E+04    0.47989E-02   -0.26830E-01 45620   0.219E+00    0.329E-01
DAV:   2    -0.132454302826E+04   -0.56533E-02   -0.52604E-02 36910   0.370E-01    0.182E-01
DAV:   3    -0.132454302264E+04    0.56229E-05   -0.17412E-03 37320   0.896E-02    0.104E-01
DAV:   4    -0.132454302273E+04   -0.85594E-07   -0.11578E-04 25120   0.280E-02
  75 F= -.13245430E+04 E0= -.13245430E+04  d E =-.819490E-03  mag=   114.0000
       N       E                     dE             d eps       ncg     rms          rms(c)
DAV:   1    -0.132453851817E+04    0.45045E-02   -0.23490E-01 43400   0.187E+00    0.298E-01
DAV:   2    -0.132454283087E+04   -0.43127E-02   -0.41196E-02 36600   0.327E-01    0.153E-01
DAV:   3    -0.132454286548E+04   -0.34613E-04   -0.12073E-03 36420   0.723E-02    0.835E-02
DAV:   4    -0.132454284504E+04    0.20438E-04   -0.86513E-05 23650   0.235E-02
  76 F= -.13245428E+04 E0= -.13245428E+04  d E =0.177685E-03  mag=   114.0000
       N       E                     dE             d eps       ncg     rms          rms(c)
DAV:   1    -0.132423800589E+04    0.30486E+00   -0.15551E+01 44400   0.152E+01    0.249E+00
DAV:   2    -0.132453322306E+04   -0.29522E+00   -0.27589E+00 35490   0.258E+00    0.127E+00
DAV:   3    -0.132453763541E+04   -0.44124E-02   -0.85765E-02 36990   0.542E-01    0.588E-01
DAV:   4    -0.132453763358E+04    0.18300E-05   -0.53801E-03 41870   0.127E-01    0.448E-01
DAV:   5    -0.132453646105E+04    0.11725E-02   -0.98188E-04 44190   0.127E-01    0.247E-01
DAV:   6    -0.132453630764E+04    0.15341E-03   -0.12212E-03 42820   0.112E-01    0.116E-01
DAV:   7    -0.132453632001E+04   -0.12369E-04   -0.49391E-04 36400   0.725E-02
  77 F= -.13245363E+04 E0= -.13245363E+04  d E =0.652504E-02  mag=   114.0000
       N       E                     dE             d eps       ncg     rms          rms(c)
DAV:   1    -0.132441043384E+04    0.12587E+00   -0.74266E+00 43420   0.101E+01    0.167E+00
DAV:   2    -0.132454196554E+04   -0.13153E+00   -0.12622E+00 35840   0.177E+00    0.831E-01
DAV:   3    -0.132454400630E+04   -0.20408E-02   -0.37604E-02 36730   0.362E-01    0.402E-01
DAV:   4    -0.132454374831E+04    0.25799E-03   -0.24267E-03 40290   0.926E-02    0.306E-01
DAV:   5    -0.132454326598E+04    0.48233E-03   -0.49522E-04 41480   0.895E-02    0.189E-01
DAV:   6    -0.132454296545E+04    0.30053E-03   -0.72676E-04 41400   0.973E-02    0.938E-02
DAV:   7    -0.132454316147E+04   -0.19602E-03   -0.31167E-04 35420   0.546E-02    0.415E-02
DAV:   8    -0.132454313007E+04    0.31401E-04   -0.31325E-05 19460   0.156E-02
  78 F= -.13245431E+04 E0= -.13245431E+04  d E =-.681006E-02  mag=   114.0000
       N       E                     dE             d eps       ncg     rms          rms(c)
DAV:   1    -0.132450258387E+04    0.40578E-01   -0.15495E+00 45080   0.548E+00    0.920E-01
DAV:   2    -0.132454207697E+04   -0.39493E-01   -0.36816E-01 37020   0.950E-01    0.449E-01
DAV:   3    -0.132454288728E+04   -0.81032E-03   -0.10969E-02 37270   0.207E-01    0.233E-01
DAV:   4    -0.132454278020E+04    0.10708E-03   -0.67430E-04 35880   0.504E-02    0.175E-01
DAV:   5    -0.132454268976E+04    0.90443E-04   -0.14318E-04 29140   0.504E-02    0.112E-01
DAV:   6    -0.132454258030E+04    0.10946E-03   -0.23726E-04 35650   0.565E-02    0.536E-02
DAV:   7    -0.132454267030E+04   -0.89999E-04   -0.95173E-05 23350   0.305E-02    0.217E-02
DAV:   8    -0.132454264502E+04    0.25283E-04   -0.15150E-05 18230   0.976E-03
  79 F= -.13245426E+04 E0= -.13245426E+04  d E =0.485048E-03  mag=   114.0000
       N       E                     dE             d eps       ncg     rms          rms(c)
DAV:   1    -0.132452593058E+04    0.16740E-01   -0.77135E-01 45320   0.378E+00    0.611E-01
DAV:   2    -0.132454372416E+04   -0.17794E-01   -0.16233E-01 36470   0.646E-01    0.303E-01
DAV:   3    -0.132454392254E+04   -0.19838E-03   -0.50043E-03 37240   0.140E-01    0.151E-01
DAV:   4    -0.132454400555E+04   -0.83011E-04   -0.31292E-04 30720   0.383E-02    0.110E-01
DAV:   5    -0.132454389712E+04    0.10843E-03   -0.76508E-05 21890   0.368E-02    0.731E-02
DAV:   6    -0.132454390601E+04   -0.88861E-05   -0.11764E-04 26100   0.384E-02
  80 F= -.13245439E+04 E0= -.13245439E+04  d E =-.126099E-02  mag=   114.0000
       N       E                     dE             d eps       ncg     rms          rms(c)
DAV:   1    -0.132454256961E+04    0.13275E-02   -0.60148E-02 46700   0.105E+00    0.173E-01
DAV:   2    -0.132454403981E+04   -0.14702E-02   -0.12871E-02 36090   0.171E-01    0.843E-02
DAV:   3    -0.132454405208E+04   -0.12278E-04   -0.42756E-04 31770   0.370E-02    0.381E-02
DAV:   4    -0.132454405579E+04   -0.37021E-05   -0.27367E-05 19930   0.109E-02
  81 F= -.13245441E+04 E0= -.13245441E+04  d E =-.149780E-03  mag=   114.0000
       N       E                     dE             d eps       ncg     rms          rms(c)
DAV:   1    -0.132435552559E+04    0.18853E+00   -0.76615E+00 46350   0.117E+01    0.196E+00
DAV:   2    -0.132454045800E+04   -0.18493E+00   -0.16299E+00 36070   0.186E+00    0.101E+00
DAV:   3    -0.132454372796E+04   -0.32700E-02   -0.52453E-02 36950   0.398E-01    0.426E-01
DAV:   4    -0.132454388033E+04   -0.15237E-03   -0.30368E-03 40630   0.990E-02    0.306E-01
DAV:   5    -0.132454337492E+04    0.50541E-03   -0.57715E-04 44960   0.970E-02    0.169E-01
DAV:   6    -0.132454331237E+04    0.62549E-04   -0.60885E-04 41330   0.863E-02    0.893E-02
DAV:   7    -0.132454324418E+04    0.68186E-04   -0.24186E-04 34580   0.528E-02    0.382E-02
DAV:   8    -0.132454332649E+04   -0.82308E-04   -0.24831E-05 19000   0.152E-02    0.220E-02
DAV:   9    -0.132454330072E+04    0.25773E-04   -0.61435E-06 18190   0.540E-03
  82 F= -.13245433E+04 E0= -.13245433E+04  d E =0.755071E-03  mag=   114.0000
       N       E                     dE             d eps       ncg     rms          rms(c)
DAV:   1    -0.132448441490E+04    0.58912E-01   -0.22249E+00 47690   0.656E+00    0.110E+00
DAV:   2    -0.132454374322E+04   -0.59328E-01   -0.51956E-01 35520   0.105E+00    0.560E-01
DAV:   3    -0.132454494030E+04   -0.11971E-02   -0.17774E-02 36960   0.229E-01    0.244E-01
DAV:   4    -0.132454516774E+04   -0.22744E-03   -0.10069E-03 38680   0.537E-02    0.172E-01
DAV:   5    -0.132454493780E+04    0.22994E-03   -0.15069E-04 31230   0.516E-02    0.925E-02
DAV:   6    -0.132454493146E+04    0.63317E-05   -0.17386E-04 34700   0.437E-02
  83 F= -.13245449E+04 E0= -.13245449E+04  d E =-.163075E-02  mag=   114.0000
       N       E                     dE             d eps       ncg     rms          rms(c)
DAV:   1    -0.132452526244E+04    0.19675E-01   -0.67846E-01 47100   0.382E+00    0.607E-01
DAV:   2    -0.132454423807E+04   -0.18976E-01   -0.16831E-01 36070   0.629E-01    0.307E-01
DAV:   3    -0.132454461508E+04   -0.37701E-03   -0.58725E-03 37200   0.141E-01    0.149E-01
DAV:   4    -0.132454463662E+04   -0.21548E-04   -0.32686E-04 29890   0.320E-02
  84 F= -.13245446E+04 E0= -.13245446E+04  d E =0.294840E-03  mag=   114.0000
       N       E                     dE             d eps       ncg     rms          rms(c)
DAV:   1    -0.132453699080E+04    0.76243E-02   -0.34844E-01 46170   0.258E+00    0.441E-01
DAV:   2    -0.132454525103E+04   -0.82602E-02   -0.75351E-02 36060   0.430E-01    0.200E-01
DAV:   3    -0.132454557054E+04   -0.31951E-03   -0.24833E-03 36970   0.922E-02    0.822E-02
DAV:   4    -0.132454550327E+04    0.67270E-04   -0.14172E-04 24890   0.213E-02    0.549E-02
DAV:   5    -0.132454553208E+04   -0.28810E-04   -0.18911E-05 17980   0.161E-02
  85 F= -.13245455E+04 E0= -.13245455E+04  d E =-.895454E-03  mag=   114.0000
       N       E                     dE             d eps       ncg     rms          rms(c)
DAV:   1    -0.132452341690E+04    0.22086E-01   -0.10015E+00 46130   0.411E+00    0.699E-01
DAV:   2    -0.132454570036E+04   -0.22283E-01   -0.20245E-01 36150   0.667E-01    0.339E-01
DAV:   3    -0.132454610619E+04   -0.40583E-03   -0.65855E-03 37020   0.146E-01    0.153E-01
DAV:   4    -0.132454615771E+04   -0.51522E-04   -0.41661E-04 33340   0.439E-02    0.110E-01
DAV:   5    -0.132454605207E+04    0.10564E-03   -0.84896E-05 23660   0.387E-02    0.737E-02
DAV:   6    -0.132454610017E+04   -0.48098E-04   -0.11688E-04 28740   0.392E-02
  86 F= -.13245461E+04 E0= -.13245461E+04  d E =-.568093E-03  mag=   114.0000
       N       E                     dE             d eps       ncg     rms          rms(c)
DAV:   1    -0.132453438453E+04    0.11668E-01   -0.56646E-01 44800   0.278E+00    0.543E-01
DAV:   2    -0.132454669904E+04   -0.12315E-01   -0.11402E-01 36310   0.477E-01    0.247E-01
DAV:   3    -0.132454693076E+04   -0.23172E-03   -0.33587E-03 36790   0.981E-02    0.113E-01
DAV:   4    -0.132454690168E+04    0.29075E-04   -0.20402E-04 27660   0.227E-02
  87 F= -.13245469E+04 E0= -.13245469E+04  d E =-.801513E-03  mag=   114.0000
       N       E                     dE             d eps       ncg     rms          rms(c)
DAV:   1    -0.132448088716E+04    0.66044E-01   -0.28719E+00 44990   0.649E+00    0.123E+00
DAV:   2    -0.132454705406E+04   -0.66167E-01   -0.60668E-01 36760   0.110E+00    0.610E-01
DAV:   3    -0.132454808195E+04   -0.10279E-02   -0.15674E-02 37010   0.220E-01    0.283E-01
DAV:   4    -0.132454801092E+04    0.71030E-04   -0.96453E-04 38540   0.541E-02    0.214E-01
DAV:   5    -0.132454782735E+04    0.18358E-03   -0.22737E-04 35010   0.633E-02    0.124E-01
DAV:   6    -0.132454773100E+04    0.96342E-04   -0.31396E-04 37510   0.581E-02    0.618E-02
DAV:   7    -0.132454782267E+04   -0.91667E-04   -0.10815E-04 25700   0.335E-02    0.245E-02
DAV:   8    -0.132454779507E+04    0.27600E-04   -0.14635E-05 18160   0.992E-03
  88 F= -.13245478E+04 E0= -.13245478E+04  d E =-.893387E-03  mag=   114.0000
       N       E                     dE             d eps       ncg     rms          rms(c)
DAV:   1    -0.132454282774E+04    0.49949E-02   -0.16624E-01 48480   0.203E+00    0.329E-01
DAV:   2    -0.132454813474E+04   -0.53070E-02   -0.46500E-02 37610   0.328E-01    0.165E-01
DAV:   3    -0.132454820247E+04   -0.67727E-04   -0.15739E-03 37440   0.791E-02    0.841E-02
DAV:   4    -0.132454823080E+04   -0.28328E-04   -0.88127E-05 23540   0.218E-02
  89 F= -.13245482E+04 E0= -.13245482E+04  d E =-.435726E-03  mag=   114.0000
       N       E                     dE             d eps       ncg     rms          rms(c)
DAV:   1    -0.132454566067E+04    0.25418E-02   -0.88890E-02 49440   0.149E+00    0.236E-01
DAV:   2    -0.132454853602E+04   -0.28753E-02   -0.25023E-02 35960   0.233E-01    0.126E-01
DAV:   3    -0.132454857222E+04   -0.36201E-04   -0.91979E-04 35510   0.619E-02    0.661E-02
DAV:   4    -0.132454859128E+04   -0.19058E-04   -0.63456E-05 21960   0.222E-02
  90 F= -.13245486E+04 E0= -.13245486E+04  d E =-.360478E-03  mag=   114.0000
       N       E                     dE             d eps       ncg     rms          rms(c)
DAV:   1    -0.132453656422E+04    0.12008E-01   -0.48911E-01 45600   0.276E+00    0.534E-01
DAV:   2    -0.132454908499E+04   -0.12521E-01   -0.11277E-01 36500   0.459E-01    0.250E-01
DAV:   3    -0.132454922264E+04   -0.13765E-03   -0.29165E-03 37000   0.955E-02    0.116E-01
DAV:   4    -0.132454926053E+04   -0.37891E-04   -0.18036E-04 27520   0.277E-02
  91 F= -.13245493E+04 E0= -.13245493E+04  d E =-.669259E-03  mag=   114.0000
       N       E                     dE             d eps       ncg     rms          rms(c)
DAV:   1    -0.132451344478E+04    0.35778E-01   -0.17778E+00 44010   0.453E+00    0.903E-01
DAV:   2    -0.132454842723E+04   -0.34982E-01   -0.32933E-01 36830   0.775E-01    0.446E-01
DAV:   3    -0.132454868059E+04   -0.25337E-03   -0.82590E-03 36930   0.159E-01    0.214E-01
DAV:   4    -0.132454875842E+04   -0.77827E-04   -0.56391E-04 37170   0.488E-02    0.161E-01
DAV:   5    -0.132454859024E+04    0.16818E-03   -0.13953E-04 29480   0.489E-02    0.104E-01
DAV:   6    -0.132454861432E+04   -0.24076E-04   -0.22280E-04 36360   0.505E-02
  92 F= -.13245486E+04 E0= -.13245486E+04  d E =0.646219E-03  mag=   114.0000
       N       E                     dE             d eps       ncg     rms          rms(c)
DAV:   1    -0.132453257785E+04    0.16012E-01   -0.40911E-01 50010   0.305E+00    0.614E-01
DAV:   2    -0.132454883015E+04   -0.16252E-01   -0.13593E-01 36550   0.481E-01    0.280E-01
DAV:   3    -0.132454920364E+04   -0.37349E-03   -0.41341E-03 37160   0.107E-01    0.124E-01
DAV:   4    -0.132454924739E+04   -0.43742E-04   -0.22460E-04 28630   0.225E-02
  93 F= -.13245492E+04 E0= -.13245492E+04  d E =-.633070E-03  mag=   114.0000
       N       E                     dE             d eps       ncg     rms          rms(c)
DAV:   1    -0.132454640590E+04    0.27977E-02   -0.11821E-01 46430   0.152E+00    0.260E-01
DAV:   2    -0.132454958350E+04   -0.31776E-02   -0.28724E-02 36470   0.251E-01    0.129E-01
DAV:   3    -0.132454968194E+04   -0.98441E-04   -0.97788E-04 36370   0.597E-02    0.655E-02
DAV:   4    -0.132454965322E+04    0.28722E-04   -0.59504E-05 22260   0.179E-02
  94 F= -.13245497E+04 E0= -.13245497E+04  d E =-.405837E-03  mag=   114.0000
       N       E                     dE             d eps       ncg     rms          rms(c)
DAV:   1    -0.132454891514E+04    0.76680E-03   -0.28233E-02 47550   0.711E-01    0.136E-01
DAV:   2    -0.132454978304E+04   -0.86790E-03   -0.81199E-03 37480   0.121E-01    0.728E-02
DAV:   3    -0.132454982234E+04   -0.39299E-04   -0.24439E-04 30240   0.329E-02    0.431E-02
DAV:   4    -0.132454980562E+04    0.16728E-04   -0.18632E-05 18960   0.116E-02
  95 F= -.13245498E+04 E0= -.13245498E+04  d E =-.152394E-03  mag=   114.0000
