       N       E                     dE             d eps       ncg     rms          ort
DAV:   1     0.112364819441E+05    0.11236E+05   -0.46663E+05  8540   0.170E+03
DAV:   2     0.233292551017E+02   -0.11213E+05   -0.10200E+05  8540   0.487E+02
DAV:   3    -0.160850347237E+04   -0.16318E+04   -0.15464E+04  8540   0.198E+02
DAV:   4    -0.169228042643E+04   -0.83777E+02   -0.82569E+02  8540   0.456E+01
DAV:   5    -0.169335006460E+04   -0.10696E+01   -0.10663E+01  8540   0.557E+00
SDA:   6    -0.802246304968E+03    0.89110E+03   -0.10663E+01  8540   0.300E+04 0.000E+00
CGA:   7    -0.122024841175E+04   -0.41800E+03   -0.42114E+03  8540   0.364E+03 0.541E+02
CGA:   8    -0.127616801709E+04   -0.55920E+02   -0.49064E+02  8540   0.106E+03 0.531E+02
CGA:   9    -0.129584196912E+04   -0.19674E+02   -0.19414E+02  8540   0.120E+03-0.444E+02
CGA:  10    -0.130517112389E+04   -0.93292E+01   -0.90433E+01  8540   0.820E+02 0.655E+00
CGA:  11    -0.130960620016E+04   -0.44351E+01   -0.59562E+01  8540   0.657E+02-0.958E+01
CGA:  12    -0.131604090478E+04   -0.64347E+01   -0.53806E+01  8540   0.290E+02-0.174E+02
CGA:  13    -0.131904787159E+04   -0.30070E+01   -0.10070E+01  8540   0.150E+02 0.239E+02
CGA:  14    -0.131957441561E+04   -0.52654E+00   -0.13588E+01  8540   0.662E+02-0.528E+01
CGA:  15    -0.132135681196E+04   -0.17824E+01   -0.17292E+01  8540   0.377E+02 0.199E+01
CGA:  16    -0.132051793571E+04    0.83888E+00   -0.14434E+01  8540   0.967E+02-0.782E+02
CGA:  17    -0.132085340422E+04   -0.33547E+00   -0.71832E+01  8540   0.146E+02-0.694E+01
CGA:  18    -0.132187615269E+04   -0.10227E+01   -0.51368E+00  8540   0.149E+02 0.190E+02
CGA:  19    -0.132278989729E+04   -0.91374E+00   -0.49204E+00  8540   0.895E+01-0.226E+02
CGA:  20    -0.132258813376E+04    0.20176E+00   -0.46970E+00  8540   0.142E+02-0.670E+01
CGA:  21    -0.132285303483E+04   -0.26490E+00   -0.42739E+00  8540   0.107E+02-0.161E+02
CGA:  22    -0.132264981430E+04    0.20322E+00   -0.53959E+00  8540   0.130E+02-0.720E+01
CGA:  23    -0.132303170685E+04   -0.38189E+00   -0.33293E+00  8540   0.182E+01-0.592E+01
CGA:  24    -0.132308344859E+04   -0.51742E-01   -0.61850E-01  8540   0.717E+00-0.826E-01
CGA:  25    -0.132311192360E+04   -0.28475E-01   -0.26316E-01  8540   0.367E+00 0.471E-01
CGA:  26    -0.132319271947E+04   -0.80796E-01   -0.73783E-01  8540   0.859E+00 0.756E-01
CGA:  27    -0.132323987183E+04   -0.47152E-01   -0.42952E-01  8540   0.215E+00 0.371E-01
CGA:  28    -0.132328166721E+04   -0.41795E-01   -0.38033E-01  8540   0.403E+00 0.345E-01
CGA:  29    -0.132331753103E+04   -0.35864E-01   -0.31919E-01  8540   0.177E+00-0.520E-01
CGA:  30    -0.132335829819E+04   -0.40767E-01   -0.38111E-01  8540   0.338E-01-0.416E-02
CGA:  31    -0.132336963568E+04   -0.11337E-01   -0.12152E-01  8540   0.263E-01-0.353E-02
CGA:  32    -0.132337666525E+04   -0.70296E-02    0.13302E-01  8540   0.106E-01 0.894E-02
CGA:  33    -0.132338236140E+04   -0.56961E-02    0.18788E-02  8540   0.455E-02 0.596E-02
CGA:  34    -0.132338292006E+04   -0.55865E-03   -0.30290E-02  8540   0.335E-01-0.506E-02
CGA:  35    -0.132338615264E+04   -0.32326E-02   -0.34442E-02  8540   0.125E-02-0.666E-03
CGA:  36    -0.132338612842E+04    0.24218E-04   -0.76487E-04  8540   0.950E-03 0.106E-02
CGA:  37    -0.132338610919E+04    0.19224E-04   -0.57294E-04  8540   0.762E-03 0.833E-03
CGA:  38    -0.132338609907E+04    0.10128E-04   -0.48671E-04  8540   0.657E-03 0.700E-03
CGA:  39    -0.132338609966E+04   -0.59875E-06   -0.45885E-04  8540   0.580E-03 0.612E-03
CGA:  40    -0.132338611139E+04   -0.11722E-04   -0.45324E-04  8540   0.515E-03 0.543E-03
CGA:  41    -0.132338613509E+04   -0.23702E-04   -0.46354E-04  8540   0.457E-03 0.482E-03
CGA:  42    -0.132338617199E+04   -0.36901E-04   -0.48757E-04  8540   0.400E-03 0.425E-03
CGA:  43    -0.132338622452E+04   -0.52532E-04   -0.52927E-04  8540   0.343E-03 0.369E-03
CGA:  44    -0.132338630233E+04   -0.77812E-04   -0.62576E-04  8540   0.278E-03 0.308E-03
CGA:  45    -0.132338643406E+04   -0.13173E-03   -0.88965E-04  8540   0.194E-03 0.231E-03
CGA:  46    -0.132338649250E+04   -0.58437E-04    0.37573E-03  8540   0.169E-03 0.181E-03
CGA:  47    -0.132338654730E+04   -0.54800E-04    0.10025E-03  8540   0.147E-03 0.157E-03
CGA:  48    -0.132338659954E+04   -0.52244E-04    0.46117E-04  8540   0.128E-03 0.137E-03
CGA:  49    -0.132338664888E+04   -0.49341E-04    0.27754E-04  8540   0.112E-03 0.119E-03
CGA:  50    -0.132338669622E+04   -0.47336E-04    0.17379E-04  8540   0.976E-04 0.104E-03
CGA:  51    -0.132338674102E+04   -0.44798E-04    0.12099E-04  8540   0.856E-04 0.912E-04
CGA:  52    -0.132338678409E+04   -0.43077E-04    0.84040E-05  8540   0.751E-04 0.800E-04
CGA:  53    -0.132338682493E+04   -0.40833E-04    0.62171E-05  8540   0.664E-04 0.702E-04
CGA:  54    -0.132338686368E+04   -0.38757E-04    0.47316E-05  8540   0.594E-04 0.613E-04
CGA:  55    -0.132338690151E+04   -0.37824E-04    0.35846E-05  8540   0.558E-04 0.520E-04
CGA:  56    -0.132338693411E+04   -0.32600E-04    0.39680E-05  8540   0.583E-04 0.402E-04
CGA:  57    -0.132338696953E+04   -0.35428E-04    0.38395E-05  8540   0.721E-04 0.213E-04
CGA:  58    -0.132338704147E+04   -0.71939E-04    0.46819E-05  8540   0.391E-04 0.829E-04
CGA:  59    -0.132338706710E+04   -0.25632E-04    0.22511E-05  8540   0.404E-04 0.165E-04
CGA:  60    -0.132338711966E+04   -0.52558E-04    0.19255E-05  8540   0.268E-04 0.497E-04
CGA:  61    -0.132338714518E+04   -0.25514E-04    0.85128E-06  8540   0.250E-04 0.127E-04
CGA:  62    -0.132338719183E+04   -0.46655E-04    0.79524E-06  8540   0.188E-04 0.321E-04
CGA:  63    -0.132338721018E+04   -0.18352E-04    0.57624E-06  8540   0.153E-04 0.105E-04
CGA:  64    -0.132338722829E+04   -0.18105E-04    0.35810E-06  8540   0.132E-04 0.991E-05
CGA:  65    -0.132338724826E+04   -0.19970E-04    0.22476E-06  8540   0.113E-04 0.934E-05
CGA:  66    -0.132338726306E+04   -0.14802E-04    0.23092E-06  8540   0.978E-05 0.865E-05
CGA:  67    -0.132338728152E+04   -0.18461E-04    0.12835E-06  8540   0.848E-05 0.799E-05
CGA:  68    -0.132338729502E+04   -0.13500E-04    0.13668E-06  8540   0.744E-05 0.729E-05
CGA:  69    -0.132338731112E+04   -0.16097E-04    0.83442E-07  8540   0.656E-05 0.662E-05
CGA:  70    -0.132338732381E+04   -0.12688E-04    0.83636E-07  8540   0.582E-05 0.597E-05
CGA:  71    -0.132338733779E+04   -0.13980E-04    0.57738E-07  8540   0.517E-05 0.537E-05
CGA:  72    -0.132338734958E+04   -0.11789E-04    0.54499E-07  8540   0.461E-05 0.481E-05
CGA:  73    -0.132338736186E+04   -0.12287E-04    0.40705E-07  8540   0.411E-05 0.431E-05
CGA:  74    -0.132338737263E+04   -0.10763E-04    0.37066E-07  8540   0.367E-05 0.385E-05
CGA:  75    -0.132338738351E+04   -0.10885E-04    0.28831E-07  8540   0.328E-05 0.345E-05
CGA:  76    -0.132338739320E+04   -0.96936E-05    0.25846E-07  8540   0.293E-05 0.308E-05
   1 F= -.13233874E+04 E0= -.13233870E+04  d E =-.132339E+04  mag=   126.0000
       N       E                     dE             d eps       ncg     rms          ort
SDA:   1    -0.132339337851E+04   -0.59950E-02    0.00000E+00  8540   0.546E-02 0.000E+00
CGA:   2    -0.132339467157E+04   -0.12931E-02   -0.12823E-02  8540   0.246E-02 0.117E-03
CGA:   3    -0.132339528370E+04   -0.61213E-03   -0.66607E-03  8540   0.796E-03-0.466E-03
CGA:   4    -0.132339540368E+04   -0.11999E-03   -0.12161E-03  8540   0.148E-03-0.489E-04
CGA:   5    -0.132339509669E+04    0.30699E-03   -0.16656E-03  8540   0.230E-02-0.518E-03
CGA:   6    -0.132339537765E+04   -0.28096E-03   -0.31552E-03  8540   0.299E-03 0.250E-03
CGA:   7    -0.132339547568E+04   -0.98031E-04   -0.11751E-03  8540   0.315E-03-0.254E-03
CGA:   8    -0.132339548711E+04   -0.11424E-04   -0.30009E-04  8540   0.516E-04 0.103E-03
CGA:   9    -0.132339549088E+04   -0.37692E-05   -0.73470E-05  8540   0.145E-04 0.217E-04
CGA:  10    -0.132339550471E+04   -0.13839E-04    0.10299E-04  8540   0.121E-04-0.148E-04
CGA:  11    -0.132339550382E+04    0.89513E-06   -0.74713E-06  8540   0.545E-05 0.811E-05
   2 F= -.13233955E+04 E0= -.13233952E+04  d E =-.811062E-02  mag=   126.0000
       N       E                     dE             d eps       ncg     rms          ort
SDA:   1    -0.132256477129E+04    0.83073E+00    0.00000E+00  8540   0.267E+01 0.000E+00
CGA:   2    -0.132320655121E+04   -0.64178E+00   -0.64180E+00  8540   0.124E+01 0.241E-02
CGA:   3    -0.132348061698E+04   -0.27407E+00   -0.27401E+00  8540   0.253E+00-0.292E-02
CGA:   4    -0.132353332969E+04   -0.52713E-01   -0.52651E-01  8540   0.458E-01-0.174E-02
CGA:   5    -0.132354319292E+04   -0.98632E-02   -0.98713E-02  8540   0.100E-01 0.288E-03
CGA:   6    -0.132354561188E+04   -0.24190E-02   -0.24199E-02  8540   0.260E-02 0.347E-03
CGA:   7    -0.132354641928E+04   -0.80740E-03   -0.82404E-03  8540   0.100E-02-0.260E-03
CGA:   8    -0.132354671973E+04   -0.30045E-03   -0.37571E-03  8540   0.761E-03-0.443E-03
CGA:   9    -0.132354684618E+04   -0.12644E-03   -0.16001E-03  8540   0.398E-03-0.276E-03
CGA:  10    -0.132354693031E+04   -0.84128E-04   -0.10138E-03  8540   0.220E-03-0.124E-03
CGA:  11    -0.132354687069E+04    0.59612E-04   -0.14013E-03  8540   0.842E-03-0.304E-03
CGA:  12    -0.132354708231E+04   -0.21161E-03   -0.20956E-03  8540   0.124E-03-0.406E-04
CGA:  13    -0.132354712490E+04   -0.42589E-04   -0.45002E-04  8540   0.628E-04-0.291E-04
CGA:  14    -0.132354713110E+04   -0.61984E-05   -0.78070E-05  8540   0.172E-04 0.116E-04
   3 F= -.13235471E+04 E0= -.13235471E+04  d E =-.151627E+00  mag=   126.0000
       N       E                     dE             d eps       ncg     rms          ort
SDA:   1    -0.131165922131E+04    0.11888E+02    0.00000E+00  8540   0.314E+02 0.000E+00
CGA:   2    -0.131999360954E+04   -0.83344E+01   -0.83345E+01  8540   0.148E+02-0.374E-02
CGA:   3    -0.132304599446E+04   -0.30524E+01   -0.30530E+01  8540   0.286E+01 0.414E-03
CGA:   4    -0.132364080488E+04   -0.59481E+00   -0.59472E+00  8540   0.518E+00-0.166E-02
CGA:   5    -0.132375492847E+04   -0.11412E+00   -0.11423E+00  8540   0.117E+00 0.161E-02
CGA:   6    -0.132378437204E+04   -0.29444E-01   -0.29457E-01  8540   0.340E-01 0.535E-03
CGA:   7    -0.132379413718E+04   -0.97651E-02   -0.97728E-02  8540   0.115E-01-0.588E-03
CGA:   8    -0.132379780591E+04   -0.36687E-02   -0.37095E-02  8540   0.450E-02-0.752E-03
CGA:   9    -0.132379922088E+04   -0.14150E-02   -0.14393E-02  8540   0.151E-02-0.369E-03
CGA:  10    -0.132379967791E+04   -0.45703E-03   -0.46244E-03  8540   0.458E-03-0.100E-03
CGA:  11    -0.132379970248E+04   -0.24574E-04   -0.33464E-03  8540   0.146E-02-0.620E-03
CGA:  12    -0.132379995734E+04   -0.25486E-03   -0.27144E-03  8540   0.202E-03 0.138E-03
CGA:  13    -0.132380009254E+04   -0.13520E-03    0.21193E-02  8540   0.722E-04-0.255E-04
CGA:  14    -0.132380010848E+04   -0.15935E-04   -0.16249E-04  8540   0.221E-04 0.722E-05
CGA:  15    -0.132380013556E+04   -0.27084E-04    0.42012E-05  8540   0.733E-05 0.488E-05
CGA:  16    -0.132380016134E+04   -0.25777E-04    0.35007E-06  8540   0.386E-05 0.190E-05
CGA:  17    -0.132380017355E+04   -0.12209E-04    0.22676E-06  8540   0.175E-05 0.874E-06
CGA:  18    -0.132380018879E+04   -0.15239E-04    0.29578E-07  8540   0.696E-06 0.805E-06
CGA:  19    -0.132380020190E+04   -0.13115E-04    0.73701E-08  8540   0.360E-06 0.330E-06
CGA:  20    -0.132380021002E+04   -0.81223E-05    0.32360E-08  8540   0.198E-06 0.172E-06
   4 F= -.13238002E+04 E0= -.13238002E+04  d E =-.253079E+00  mag=   126.0000
       N       E                     dE             d eps       ncg     rms          ort
SDA:   1    -0.132243906357E+04    0.13611E+01    0.00000E+00  8540   0.358E+01 0.000E+00
CGA:   2    -0.132346586451E+04   -0.10268E+01   -0.10268E+01  8540   0.160E+01-0.192E-02
CGA:   3    -0.132377791096E+04   -0.31205E+00   -0.31214E+00  8540   0.303E+00 0.241E-03
CGA:   4    -0.132384224993E+04   -0.64339E-01   -0.64471E-01  8540   0.541E-01 0.156E-02
CGA:   5    -0.132385412131E+04   -0.11871E-01   -0.11847E-01  8540   0.121E-01-0.364E-03
CGA:   6    -0.132385732029E+04   -0.31990E-02   -0.31876E-02  8540   0.379E-02-0.550E-03
CGA:   7    -0.132385831343E+04   -0.99314E-03   -0.99272E-03  8540   0.117E-02-0.433E-04
CGA:   8    -0.132385868330E+04   -0.36987E-03   -0.37195E-03  8540   0.444E-03-0.556E-04
CGA:   9    -0.132385882523E+04   -0.14193E-03   -0.14335E-03  8540   0.141E-03-0.270E-04
CGA:  10    -0.132385887448E+04   -0.49246E-04   -0.68165E-04  8540   0.124E-03-0.832E-04
CGA:  11    -0.132385889921E+04   -0.24735E-04   -0.25621E-04  8540   0.158E-04 0.942E-05
CGA:  12    -0.132385891556E+04   -0.16345E-04    0.39575E-05  8540   0.615E-05 0.175E-05
CGA:  13    -0.132385891822E+04   -0.26650E-05   -0.26893E-05  8540   0.452E-05-0.259E-06
   5 F= -.13238589E+04 E0= -.13238589E+04  d E =-.587082E-01  mag=   126.0000
       N       E                     dE             d eps       ncg     rms          ort
SDA:   1    -0.131805190109E+04    0.58070E+01    0.00000E+00  8540   0.146E+02 0.000E+00
CGA:   2    -0.132228326563E+04   -0.42314E+01   -0.42313E+01  8540   0.666E+01-0.109E-01
CGA:   3    -0.132357367179E+04   -0.12904E+01   -0.12911E+01  8540   0.122E+01 0.291E-02
CGA:   4    -0.132383367483E+04   -0.26000E+00   -0.26029E+00  8540   0.223E+00 0.323E-02
CGA:   5    -0.132388254069E+04   -0.48866E-01   -0.48832E-01  8540   0.507E-01-0.572E-03
CGA:   6    -0.132389560150E+04   -0.13061E-01   -0.13032E-01  8540   0.153E-01-0.101E-02
CGA:   7    -0.132389977903E+04   -0.41775E-02   -0.41779E-02  8540   0.488E-02 0.434E-04
CGA:   8    -0.132390133158E+04   -0.15526E-02   -0.15528E-02  8540   0.179E-02-0.799E-05
CGA:   9    -0.132390194935E+04   -0.61777E-03   -0.62324E-03  8540   0.594E-03-0.881E-04
CGA:  10    -0.132390213802E+04   -0.18866E-03   -0.18918E-03  8540   0.171E-03-0.116E-04
CGA:  11    -0.132390213629E+04    0.17318E-05   -0.14716E-03  8540   0.610E-03-0.256E-03
CGA:  12    -0.132390224267E+04   -0.10639E-03   -0.12004E-03  8540   0.671E-04 0.110E-03
CGA:  13    -0.132390166424E+04    0.57844E-03   -0.31155E-03  8540   0.239E-02-0.428E-03
CGA:  14    -0.132390213187E+04   -0.46764E-03   -0.56642E-03  8540   0.382E-03 0.294E-03
CGA:  15    -0.132390233566E+04   -0.20378E-03   -0.15204E-03  8540   0.294E-03-0.254E-03
CGA:  16    -0.132390232692E+04    0.87383E-05   -0.31252E-04  8540   0.399E-04 0.913E-04
   6 F= -.13239023E+04 E0= -.13239023E+04  d E =-.434087E-01  mag=   126.0000
       N       E                     dE             d eps       ncg     rms          ort
SDA:   1    -0.132249945356E+04    0.14029E+01    0.00000E+00  8540   0.384E+01 0.000E+00
CGA:   2    -0.132345574508E+04   -0.95629E+00   -0.95704E+00  8540   0.176E+01 0.584E-03
CGA:   3    -0.132383169582E+04   -0.37595E+00   -0.37612E+00  8540   0.352E+00 0.543E-03
CGA:   4    -0.132390423497E+04   -0.72539E-01   -0.72646E-01  8540   0.640E-01 0.377E-03
CGA:   5    -0.132391827338E+04   -0.14038E-01   -0.14015E-01  8540   0.147E-01-0.117E-03
CGA:   6    -0.132392185677E+04   -0.35834E-02   -0.35875E-02  8540   0.398E-02 0.155E-04
CGA:   7    -0.132392289318E+04   -0.10364E-02   -0.10561E-02  8540   0.117E-02 0.111E-03
CGA:   8    -0.132392326309E+04   -0.36991E-03   -0.37104E-03  8540   0.412E-03 0.887E-05
CGA:   9    -0.132392339840E+04   -0.13531E-03   -0.13669E-03  8540   0.139E-03 0.142E-04
CGA:  10    -0.132392344438E+04   -0.45986E-04   -0.46899E-04  8540   0.441E-04 0.956E-05
CGA:  11    -0.132392345016E+04   -0.57798E-05   -0.99016E-05  8540   0.154E-04 0.200E-04
   7 F= -.13239235E+04 E0= -.13239235E+04  d E =-.211232E-01  mag=   126.0000
       N       E                     dE             d eps       ncg     rms          ort
SDA:   1    -0.132348342837E+04    0.44002E+00    0.00000E+00  8540   0.122E+01 0.000E+00
CGA:   2    -0.132378777130E+04   -0.30434E+00   -0.30447E+00  8540   0.564E+00 0.374E-03
CGA:   3    -0.132390680583E+04   -0.11903E+00   -0.11903E+00  8540   0.114E+00-0.240E-03
CGA:   4    -0.132393052019E+04   -0.23714E-01   -0.23653E-01  8540   0.207E-01-0.373E-03
CGA:   5    -0.132393502912E+04   -0.45089E-02   -0.45075E-02  8540   0.468E-02-0.163E-04
CGA:   6    -0.132393613731E+04   -0.11082E-02   -0.11239E-02  8540   0.122E-02 0.127E-03
CGA:   7    -0.132393645793E+04   -0.32062E-03   -0.32825E-03  8540   0.346E-03 0.802E-04
CGA:   8    -0.132393658504E+04   -0.12712E-03   -0.12691E-03  8540   0.150E-03-0.261E-04
CGA:   9    -0.132393663432E+04   -0.49277E-04   -0.49314E-04  8540   0.549E-04-0.134E-04
CGA:  10    -0.132393664584E+04   -0.11522E-04   -0.12618E-04  8540   0.152E-04 0.109E-04
CGA:  11    -0.132393664940E+04   -0.35620E-05   -0.42009E-05  8540   0.543E-05 0.544E-05
   8 F= -.13239366E+04 E0= -.13239366E+04  d E =-.131992E-01  mag=   126.0000
       N       E                     dE             d eps       ncg     rms          ort
SDA:   1    -0.132324174929E+04    0.69490E+00    0.00000E+00  8540   0.182E+01 0.000E+00
CGA:   2    -0.132372463418E+04   -0.48288E+00   -0.48300E+00  8540   0.871E+00 0.674E-03
CGA:   3    -0.132390323190E+04   -0.17860E+00   -0.17853E+00  8540   0.162E+00-0.806E-03
CGA:   4    -0.132393670426E+04   -0.33472E-01   -0.33377E-01  8540   0.288E-01-0.807E-03
CGA:   5    -0.132394301454E+04   -0.63103E-02   -0.63089E-02  8540   0.660E-02-0.214E-04
CGA:   6    -0.132394460410E+04   -0.15896E-02   -0.15972E-02  8540   0.169E-02 0.103E-03
CGA:   7    -0.132394506963E+04   -0.46553E-03   -0.46678E-03  8540   0.518E-03 0.318E-04
CGA:   8    -0.132394525477E+04   -0.18514E-03   -0.18835E-03  8540   0.236E-03-0.683E-04
CGA:   9    -0.132394533092E+04   -0.76151E-04   -0.80998E-04  8540   0.109E-03-0.584E-04
CGA:  10    -0.132394535361E+04   -0.22689E-04   -0.22803E-04  8540   0.298E-04 0.299E-05
CGA:  11    -0.132394536540E+04   -0.11796E-04   -0.15504E-04  8540   0.312E-04-0.193E-04
CGA:  12    -0.132394536974E+04   -0.43423E-05   -0.56389E-05  8540   0.483E-05 0.904E-05
   9 F= -.13239454E+04 E0= -.13239454E+04  d E =-.872034E-02  mag=   126.0000
       N       E                     dE             d eps       ncg     rms          ort
SDA:   1    -0.132323015113E+04    0.71521E+00    0.00000E+00  8540   0.178E+01 0.000E+00
CGA:   2    -0.132374869469E+04   -0.51854E+00   -0.51855E+00  8540   0.853E+00-0.548E-03
CGA:   3    -0.132391259365E+04   -0.16390E+00   -0.16397E+00  8540   0.143E+00 0.362E-03
CGA:   4    -0.132394236982E+04   -0.29776E-01   -0.29797E-01  8540   0.261E-01 0.185E-03
CGA:   5    -0.132394820568E+04   -0.58359E-02   -0.58108E-02  8540   0.601E-02-0.314E-03
CGA:   6    -0.132394966988E+04   -0.14642E-02   -0.14591E-02  8540   0.159E-02-0.946E-04
CGA:   7    -0.132395006505E+04   -0.39517E-03   -0.39914E-03  8540   0.448E-03 0.948E-04
CGA:   8    -0.132395020610E+04   -0.14104E-03   -0.14098E-03  8540   0.150E-03 0.391E-04
CGA:   9    -0.132395026645E+04   -0.60354E-04   -0.60885E-04  8540   0.608E-04-0.689E-05
CGA:  10    -0.132395028898E+04   -0.22527E-04   -0.29353E-04  8540   0.475E-04-0.331E-04
CGA:  11    -0.132395029657E+04   -0.75880E-05   -0.87687E-05  8540   0.636E-05 0.943E-05
  10 F= -.13239503E+04 E0= -.13239503E+04  d E =-.492682E-02  mag=   126.0000
       N       E                     dE             d eps       ncg     rms          ort
SDA:   1    -0.132318615597E+04    0.76413E+00    0.00000E+00  8540   0.193E+01 0.000E+00
CGA:   2    -0.132372358952E+04   -0.53743E+00   -0.53744E+00  8540   0.957E+00-0.754E-03
CGA:   3    -0.132391338203E+04   -0.18979E+00   -0.18990E+00  8540   0.161E+00 0.748E-03
CGA:   4    -0.132394653418E+04   -0.33152E-01   -0.33202E-01  8540   0.290E-01 0.522E-03
CGA:   5    -0.132395313096E+04   -0.65968E-02   -0.65658E-02  8540   0.684E-02-0.486E-03
CGA:   6    -0.132395482789E+04   -0.16969E-02   -0.16869E-02  8540   0.184E-02-0.276E-03
CGA:   7    -0.132395526315E+04   -0.43525E-03   -0.43957E-03  8540   0.497E-03 0.116E-03
CGA:   8    -0.132395540712E+04   -0.14397E-03   -0.14465E-03  8540   0.152E-03 0.702E-04
CGA:   9    -0.132395547265E+04   -0.65527E-04   -0.66776E-04  8540   0.719E-04-0.122E-04
CGA:  10    -0.132395548872E+04   -0.16074E-04   -0.43803E-04  8540   0.126E-03-0.742E-04
CGA:  11    -0.132395551375E+04   -0.25033E-04   -0.25924E-04  8540   0.150E-04 0.877E-05
CGA:  12    -0.132395551624E+04   -0.24911E-05   -0.32438E-05  8540   0.497E-05 0.753E-05
  11 F= -.13239555E+04 E0= -.13239555E+04  d E =-.521968E-02  mag=   126.0000
       N       E                     dE             d eps       ncg     rms          ort
SDA:   1    -0.132370092449E+04    0.25459E+00    0.00000E+00  8540   0.696E+00 0.000E+00
CGA:   2    -0.132387350260E+04   -0.17258E+00   -0.17262E+00  8540   0.323E+00 0.510E-03
CGA:   3    -0.132394196432E+04   -0.68462E-01   -0.68452E-01  8540   0.647E-01-0.248E-03
CGA:   4    -0.132395563003E+04   -0.13666E-01   -0.13651E-01  8540   0.118E-01-0.202E-03
CGA:   5    -0.132395820761E+04   -0.25776E-02   -0.25690E-02  8540   0.262E-02-0.130E-03
CGA:   6    -0.132395887863E+04   -0.67102E-03   -0.66888E-03  8540   0.753E-03-0.891E-04
CGA:   7    -0.132395908513E+04   -0.20650E-03   -0.20661E-03  8540   0.233E-03-0.425E-04
CGA:   8    -0.132395915741E+04   -0.72282E-04   -0.74402E-04  8540   0.966E-04-0.371E-04
CGA:   9    -0.132395918660E+04   -0.29187E-04   -0.35692E-04  8540   0.610E-04-0.420E-04
CGA:  10    -0.132395913107E+04    0.55525E-04   -0.37930E-04  8540   0.380E-03-0.116E-03
CGA:  11    -0.132395920848E+04   -0.77414E-04   -0.78390E-04  8540   0.451E-04 0.765E-05
CGA:  12    -0.132395922618E+04   -0.17693E-04   -0.17626E-04  8540   0.140E-04 0.117E-05
CGA:  13    -0.132395922786E+04   -0.16871E-05   -0.27622E-05  8540   0.573E-05 0.788E-05
  12 F= -.13239592E+04 E0= -.13239592E+04  d E =-.371162E-02  mag=   126.0000
       N       E                     dE             d eps       ncg     rms          ort
SDA:   1    -0.132392881577E+04    0.30410E-01    0.00000E+00  8540   0.863E-01 0.000E+00
CGA:   2    -0.132394947072E+04   -0.20655E-01   -0.20654E-01  8540   0.400E-01-0.512E-04
CGA:   3    -0.132395825303E+04   -0.87823E-02   -0.88008E-02  8540   0.810E-02 0.177E-03
CGA:   4    -0.132395988763E+04   -0.16346E-02   -0.16525E-02  8540   0.140E-02 0.166E-03
CGA:   5    -0.132396019943E+04   -0.31179E-03   -0.31388E-03  8540   0.318E-03 0.243E-04
CGA:   6    -0.132396028230E+04   -0.82874E-04   -0.82654E-04  8540   0.883E-04-0.505E-05
CGA:   7    -0.132396030654E+04   -0.24235E-04   -0.24209E-04  8540   0.268E-04-0.135E-05
CGA:   8    -0.132396031339E+04   -0.68540E-05   -0.69522E-05  8540   0.747E-05 0.292E-05
  13 F= -.13239603E+04 E0= -.13239603E+04  d E =-.108553E-02  mag=   126.0000
       N       E                     dE             d eps       ncg     rms          ort
SDA:   1    -0.132388118135E+04    0.79125E-01    0.00000E+00  8540   0.208E+00 0.000E+00
CGA:   2    -0.132393510573E+04   -0.53924E-01   -0.53926E-01  8540   0.104E+00-0.560E-04
CGA:   3    -0.132395690693E+04   -0.21801E-01   -0.21825E-01  8540   0.186E-01 0.273E-03
CGA:   4    -0.132396066245E+04   -0.37555E-02   -0.37706E-02  8540   0.325E-02 0.178E-03
CGA:   5    -0.132396142782E+04   -0.76537E-03   -0.76054E-03  8540   0.802E-03-0.103E-03
CGA:   6    -0.132396162452E+04   -0.19670E-03   -0.19564E-03  8540   0.215E-03-0.423E-04
CGA:   7    -0.132396167132E+04   -0.46797E-04   -0.47718E-04  8540   0.526E-04 0.221E-04
CGA:   8    -0.132396168672E+04   -0.15405E-04   -0.15464E-04  8540   0.163E-04 0.817E-05
CGA:   9    -0.132396169306E+04   -0.63313E-05   -0.62667E-05  8540   0.661E-05 0.107E-05
CGA:  10    -0.132396166185E+04    0.31206E-04   -0.16885E-04  8540   0.146E-03-0.300E-04
CGA:  11    -0.132396169030E+04   -0.28445E-04   -0.31035E-04  8540   0.188E-04 0.884E-05
CGA:  12    -0.132396169748E+04   -0.71867E-05   -0.73356E-05  8540   0.599E-05 0.123E-05
  14 F= -.13239617E+04 E0= -.13239617E+04  d E =-.138409E-02  mag=   126.0000
       N       E                     dE             d eps       ncg     rms          ort
SDA:   1    -0.132369629183E+04    0.26540E+00    0.00000E+00  8540   0.684E+00 0.000E+00
CGA:   2    -0.132387681332E+04   -0.18052E+00   -0.18053E+00  8540   0.345E+00-0.249E-03
CGA:   3    -0.132394789824E+04   -0.71085E-01   -0.71112E-01  8540   0.602E-01 0.238E-04
CGA:   4    -0.132396018301E+04   -0.12285E-01   -0.12324E-01  8540   0.105E-01 0.143E-03
CGA:   5    -0.132396257487E+04   -0.23919E-02   -0.23884E-02  8540   0.242E-02-0.196E-04
CGA:   6    -0.132396317779E+04   -0.60293E-03   -0.59758E-03  8540   0.625E-03-0.304E-04
CGA:   7    -0.132396334502E+04   -0.16722E-03   -0.16789E-03  8540   0.183E-03 0.447E-05
CGA:   8    -0.132396340039E+04   -0.55371E-04   -0.55588E-04  8540   0.612E-04 0.197E-05
CGA:   9    -0.132396342168E+04   -0.21296E-04   -0.21226E-04  8540   0.204E-04-0.114E-05
CGA:  10    -0.132396343040E+04   -0.87152E-05   -0.90844E-05  8540   0.111E-04-0.705E-05
  15 F= -.13239634E+04 E0= -.13239634E+04  d E =-.173292E-02  mag=   126.0000
       N       E                     dE             d eps       ncg     rms          ort
SDA:   1    -0.132363459072E+04    0.32883E+00    0.00000E+00  8540   0.854E+00 0.000E+00
CGA:   2    -0.132385440471E+04   -0.21981E+00   -0.21985E+00  8540   0.430E+00-0.112E-03
CGA:   3    -0.132394476332E+04   -0.90359E-01   -0.90321E-01  8540   0.762E-01-0.346E-03
CGA:   4    -0.132396031242E+04   -0.15549E-01   -0.15559E-01  8540   0.134E-01 0.363E-04
CGA:   5    -0.132396333562E+04   -0.30232E-02   -0.30246E-02  8540   0.306E-02 0.539E-05
CGA:   6    -0.132396408900E+04   -0.75338E-03   -0.75190E-03  8540   0.777E-03-0.127E-04
CGA:   7    -0.132396430251E+04   -0.21352E-03   -0.21345E-03  8540   0.232E-03-0.881E-06
CGA:   8    -0.132396437343E+04   -0.70914E-04   -0.70821E-04  8540   0.790E-04-0.188E-05
CGA:   9    -0.132396440004E+04   -0.26613E-04   -0.26594E-04  8540   0.258E-04-0.134E-05
CGA:  10    -0.132396441089E+04   -0.10845E-04   -0.12428E-04  8540   0.173E-04-0.115E-04
CGA:  11    -0.132396441319E+04   -0.23026E-05   -0.23336E-05  8540   0.646E-05 0.264E-06
  16 F= -.13239644E+04 E0= -.13239644E+04  d E =-.982790E-03  mag=   126.0000
       N       E                     dE             d eps       ncg     rms          ort
SDA:   1    -0.132383075885E+04    0.13365E+00    0.00000E+00  8540   0.360E+00 0.000E+00
CGA:   2    -0.132391977795E+04   -0.89019E-01   -0.89054E-01  8540   0.170E+00 0.153E-03
CGA:   3    -0.132395683343E+04   -0.37055E-01   -0.37035E-01  8540   0.332E-01-0.239E-03
CGA:   4    -0.132396363299E+04   -0.67996E-02   -0.68046E-02  8540   0.584E-02 0.293E-04
CGA:   5    -0.132396491675E+04   -0.12838E-02   -0.12882E-02  8540   0.133E-02 0.373E-04
CGA:   6    -0.132396524295E+04   -0.32620E-03   -0.32693E-03  8540   0.342E-03 0.836E-05
CGA:   7    -0.132396533491E+04   -0.91955E-04   -0.92429E-04  8540   0.978E-04 0.841E-05
CGA:   8    -0.132396536638E+04   -0.31472E-04   -0.31457E-04  8540   0.342E-04-0.195E-05
CGA:   9    -0.132396537511E+04   -0.87371E-05   -0.90596E-05  8540   0.926E-05 0.631E-05
  17 F= -.13239654E+04 E0= -.13239654E+04  d E =-.961926E-03  mag=   126.0000
       N       E                     dE             d eps       ncg     rms          ort
SDA:   1    -0.132343217756E+04    0.53319E+00    0.00000E+00  8540   0.138E+01 0.000E+00
CGA:   2    -0.132379006994E+04   -0.35789E+00   -0.35794E+00  8540   0.679E+00 0.109E-03
CGA:   3    -0.132393419325E+04   -0.14412E+00   -0.14412E+00  8540   0.122E+00-0.317E-03
CGA:   4    -0.132395899528E+04   -0.24802E-01   -0.24828E-01  8540   0.212E-01 0.224E-03
CGA:   5    -0.132396376960E+04   -0.47743E-02   -0.47778E-02  8540   0.497E-02 0.392E-04
CGA:   6    -0.132396497723E+04   -0.12076E-02   -0.12074E-02  8540   0.126E-02-0.473E-05
CGA:   7    -0.132396530799E+04   -0.33076E-03   -0.33201E-03  8540   0.358E-03 0.402E-04
CGA:   8    -0.132396541869E+04   -0.11071E-03   -0.11063E-03  8540   0.116E-03 0.125E-04
CGA:   9    -0.132396545575E+04   -0.37059E-04   -0.36868E-04  8540   0.349E-04 0.143E-04
CGA:  10    -0.132396546775E+04   -0.11997E-04   -0.11936E-04  8540   0.102E-04 0.637E-05
CGA:  11    -0.132396546995E+04   -0.21998E-05   -0.25932E-05  8540   0.332E-05 0.493E-05
  18 F= -.13239655E+04 E0= -.13239655E+04  d E =-.948349E-04  mag=   126.0000
       N       E                     dE             d eps       ncg     rms          ort
SDA:   1    -0.130827458385E+04    0.15691E+02    0.00000E+00  8540   0.479E+02 0.000E+00
CGA:   2    -0.131779353698E+04   -0.95190E+01   -0.95631E+01  8540   0.182E+02 0.128E+00
CGA:   3    -0.132236124462E+04   -0.45677E+01   -0.45688E+01  8540   0.471E+01 0.239E-01
CGA:   4    -0.132335355439E+04   -0.99231E+00   -0.99196E+00  8540   0.856E+00-0.947E-02
CGA:   5    -0.132354071675E+04   -0.18716E+00   -0.18714E+00  8540   0.195E+00-0.992E-03
CGA:   6    -0.132358854808E+04   -0.47831E-01   -0.47828E-01  8540   0.500E-01-0.189E-03
CGA:   7    -0.132360243000E+04   -0.13882E-01   -0.13881E-01  8540   0.147E-01 0.680E-04
CGA:   8    -0.132360680525E+04   -0.43753E-02   -0.43802E-02  8540   0.483E-02-0.189E-03
CGA:   9    -0.132360850644E+04   -0.17012E-02   -0.17398E-02  8540   0.188E-02-0.419E-03
CGA:  10    -0.132360907721E+04   -0.57077E-03   -0.56981E-03  8540   0.552E-03 0.165E-04
CGA:  11    -0.132360928524E+04   -0.20803E-03   -0.21885E-03  8540   0.191E-03-0.953E-04
CGA:  12    -0.132360933590E+04   -0.50660E-04   -0.50363E-04  8540   0.582E-04 0.862E-05
CGA:  13    -0.132360937655E+04   -0.40653E-04    0.52573E-04  8540   0.192E-04 0.135E-04
CGA:  14    -0.132360938231E+04   -0.57538E-05   -0.19461E-04  8540   0.549E-04-0.258E-04
CGA:  15    -0.132360940135E+04   -0.19043E-04   -0.24809E-04  8540   0.581E-04-0.415E-04
CGA:  16    -0.132360940174E+04   -0.39602E-06   -0.57656E-05  8540   0.112E-04 0.243E-04
  19 F= -.13236094E+04 E0= -.13236094E+04  d E =0.356068E+00  mag=   126.0000
       N       E                     dE             d eps       ncg     rms          ort
SDA:   1    -0.131455123966E+04    0.90582E+01    0.00000E+00  8540   0.300E+02 0.000E+00
CGA:   2    -0.132039644039E+04   -0.58452E+01   -0.58778E+01  8540   0.111E+02 0.517E-01
CGA:   3    -0.132317272886E+04   -0.27763E+01   -0.27771E+01  8540   0.287E+01 0.147E-01
CGA:   4    -0.132378634799E+04   -0.61362E+00   -0.61372E+00  8540   0.548E+00-0.135E-02
CGA:   5    -0.132390501401E+04   -0.11867E+00   -0.11869E+00  8540   0.123E+00-0.150E-03
CGA:   6    -0.132393523926E+04   -0.30225E-01   -0.30196E-01  8540   0.319E-01-0.798E-03
CGA:   7    -0.132394404321E+04   -0.88039E-02   -0.88040E-02  8540   0.939E-02 0.549E-05
CGA:   8    -0.132394681040E+04   -0.27672E-02   -0.27690E-02  8540   0.303E-02-0.140E-03
CGA:   9    -0.132394784652E+04   -0.10361E-02   -0.10466E-02  8540   0.110E-02-0.154E-03
CGA:  10    -0.132394818352E+04   -0.33700E-03   -0.33505E-03  8540   0.317E-03 0.537E-04
CGA:  11    -0.132394831636E+04   -0.13284E-03   -0.15259E-03  8540   0.169E-03-0.115E-03
CGA:  12    -0.132394835147E+04   -0.35114E-04   -0.35657E-04  8540   0.610E-04-0.157E-04
CGA:  13    -0.132394837294E+04   -0.21469E-04   -0.25837E-04  8540   0.394E-04-0.259E-04
CGA:  14    -0.132394839395E+04   -0.21004E-04    0.67768E-05  8540   0.207E-04-0.204E-05
CGA:  15    -0.132394839794E+04   -0.39907E-05   -0.43620E-05  8540   0.787E-05 0.444E-05
  20 F= -.13239484E+04 E0= -.13239484E+04  d E =-.338996E+00  mag=   126.0000
       N       E                     dE             d eps       ncg     rms          ort
SDA:   1    -0.132378291646E+04    0.16548E+00    0.00000E+00  8540   0.536E+00 0.000E+00
CGA:   2    -0.132389304857E+04   -0.11013E+00   -0.11023E+00  8540   0.216E+00 0.757E-03
CGA:   3    -0.132394623903E+04   -0.53190E-01   -0.53186E-01  8540   0.545E-01-0.267E-03
CGA:   4    -0.132395763755E+04   -0.11399E-01   -0.11380E-01  8540   0.993E-02-0.247E-03
CGA:   5    -0.132395979275E+04   -0.21552E-02   -0.21603E-02  8540   0.222E-02 0.736E-04
CGA:   6    -0.132396031457E+04   -0.52183E-03   -0.52536E-03  8540   0.529E-03 0.764E-04
CGA:   7    -0.132396046324E+04   -0.14867E-03   -0.14880E-03  8540   0.153E-03 0.206E-04
CGA:   8    -0.132396051866E+04   -0.55417E-04   -0.59178E-04  8540   0.825E-04-0.396E-04
CGA:   9    -0.132396053852E+04   -0.19864E-04   -0.20531E-04  8540   0.312E-04-0.126E-04
CGA:  10    -0.132396054365E+04   -0.51264E-05   -0.56726E-05  8540   0.101E-04 0.762E-05
  21 F= -.13239605E+04 E0= -.13239605E+04  d E =-.121457E-01  mag=   126.0000
       N       E                     dE             d eps       ncg     rms          ort
SDA:   1    -0.132348998381E+04    0.47055E+00    0.00000E+00  8540   0.141E+01 0.000E+00
CGA:   2    -0.132378948839E+04   -0.29950E+00   -0.29966E+00  8540   0.593E+00 0.158E-02
CGA:   3    -0.132393169661E+04   -0.14221E+00   -0.14219E+00  8540   0.143E+00-0.755E-03
CGA:   4    -0.132396147454E+04   -0.29778E-01   -0.29737E-01  8540   0.260E-01-0.660E-03
CGA:   5    -0.132396711072E+04   -0.56362E-02   -0.56432E-02  8540   0.581E-02 0.128E-03
CGA:   6    -0.132396848398E+04   -0.13733E-02   -0.13787E-02  8540   0.142E-02 0.176E-03
CGA:   7    -0.132396888052E+04   -0.39654E-03   -0.39625E-03  8540   0.404E-03 0.482E-04
CGA:   8    -0.132396901861E+04   -0.13810E-03   -0.14246E-03  8540   0.172E-03-0.576E-04
CGA:   9    -0.132396906938E+04   -0.50763E-04   -0.53300E-04  8540   0.671E-04-0.272E-04
CGA:  10    -0.132396908365E+04   -0.14276E-04   -0.14450E-04  8540   0.181E-04 0.980E-05
CGA:  11    -0.132396908881E+04   -0.51527E-05   -0.52257E-05  8540   0.556E-05 0.356E-05
CGA:  12    -0.132396905786E+04    0.30950E-04   -0.16695E-04  8540   0.130E-03-0.288E-04
CGA:  13    -0.132396909055E+04   -0.32695E-04   -0.33486E-04  8540   0.189E-04 0.329E-05
CGA:  14    -0.132396910023E+04   -0.96799E-05   -0.12842E-04  8540   0.258E-04-0.176E-04
  22 F= -.13239691E+04 E0= -.13239691E+04  d E =-.855658E-02  mag=   126.0000
       N       E                     dE             d eps       ncg     rms          ort
SDA:   1    -0.132393025155E+04    0.38839E-01    0.00000E+00  8540   0.114E+00 0.000E+00
CGA:   2    -0.132395631395E+04   -0.26062E-01   -0.26124E-01  8540   0.519E-01 0.201E-03
CGA:   3    -0.132396812298E+04   -0.11809E-01   -0.11785E-01  8540   0.112E-01-0.121E-03
CGA:   4    -0.132397045619E+04   -0.23332E-02   -0.23128E-02  8540   0.199E-02-0.856E-04
CGA:   5    -0.132397089043E+04   -0.43424E-03   -0.43486E-03  8540   0.449E-03 0.207E-05
CGA:   6    -0.132397099470E+04   -0.10427E-03   -0.10664E-03  8540   0.111E-03 0.122E-04
CGA:   7    -0.132397102601E+04   -0.31309E-04   -0.31523E-04  8540   0.327E-04 0.146E-05
CGA:   8    -0.132397103891E+04   -0.12898E-04   -0.12610E-04  8540   0.182E-04-0.914E-05
CGA:   9    -0.132397104301E+04   -0.41045E-05   -0.39480E-05  8540   0.583E-05-0.144E-05
  23 F= -.13239710E+04 E0= -.13239710E+04  d E =-.194278E-02  mag=   126.0000
       N       E                     dE             d eps       ncg     rms          ort
SDA:   1    -0.132386229607E+04    0.10874E+00    0.00000E+00  8540   0.305E+00 0.000E+00
CGA:   2    -0.132393348999E+04   -0.71194E-01   -0.71262E-01  8540   0.140E+00 0.274E-03
CGA:   3    -0.132396489834E+04   -0.31408E-01   -0.31374E-01  8540   0.297E-01-0.246E-03
CGA:   4    -0.132397104120E+04   -0.61429E-02   -0.61272E-02  8540   0.530E-02-0.944E-04
CGA:   5    -0.132397219784E+04   -0.11566E-02   -0.11594E-02  8540   0.120E-02 0.158E-04
CGA:   6    -0.132397248868E+04   -0.29084E-03   -0.29142E-03  8540   0.311E-03 0.438E-05
CGA:   7    -0.132397257223E+04   -0.83545E-04   -0.84100E-04  8540   0.886E-04 0.606E-05
CGA:   8    -0.132397260050E+04   -0.28275E-04   -0.28120E-04  8540   0.306E-04-0.352E-05
CGA:   9    -0.132397261049E+04   -0.99872E-05   -0.99718E-05  8540   0.100E-04-0.115E-05
  24 F= -.13239726E+04 E0= -.13239726E+04  d E =-.156748E-02  mag=   126.0000
       N       E                     dE             d eps       ncg     rms          ort
SDA:   1    -0.132394061700E+04    0.31984E-01    0.00000E+00  8540   0.904E-01 0.000E+00
CGA:   2    -0.132396269657E+04   -0.22080E-01   -0.22092E-01  8540   0.432E-01 0.682E-04
CGA:   3    -0.132397217973E+04   -0.94832E-02   -0.94731E-02  8540   0.857E-02-0.921E-04
CGA:   4    -0.132397391779E+04   -0.17381E-02   -0.17408E-02  8540   0.148E-02 0.174E-04
CGA:   5    -0.132397424641E+04   -0.32862E-03   -0.32903E-03  8540   0.342E-03 0.313E-05
CGA:   6    -0.132397433615E+04   -0.89738E-04   -0.88520E-04  8540   0.944E-04-0.170E-04
CGA:   7    -0.132397435822E+04   -0.22069E-04   -0.22472E-04  8540   0.246E-04 0.523E-05
CGA:   8    -0.132397436529E+04   -0.70689E-05   -0.71823E-05  8540   0.724E-05 0.244E-05
  25 F= -.13239744E+04 E0= -.13239744E+04  d E =-.175480E-02  mag=   126.0000
       N       E                     dE             d eps       ncg     rms          ort
SDA:   1    -0.132387810174E+04    0.96256E-01    0.00000E+00  8540   0.257E+00 0.000E+00
CGA:   2    -0.132394776570E+04   -0.69664E-01   -0.69668E-01  8540   0.124E+00-0.928E-05
CGA:   3    -0.132397286400E+04   -0.25098E-01   -0.25088E-01  8540   0.222E-01-0.132E-03
CGA:   4    -0.132397746405E+04   -0.46001E-02   -0.46124E-02  8540   0.392E-02 0.115E-03
CGA:   5    -0.132397834523E+04   -0.88118E-03   -0.87995E-03  8540   0.895E-03-0.161E-04
CGA:   6    -0.132397857595E+04   -0.23072E-03   -0.22913E-03  8540   0.250E-03-0.357E-04
CGA:   7    -0.132397863748E+04   -0.61535E-04   -0.61935E-04  8540   0.683E-04 0.965E-05
CGA:   8    -0.132397865737E+04   -0.19887E-04   -0.19996E-04  8540   0.210E-04 0.704E-05
CGA:   9    -0.132397866447E+04   -0.70981E-05   -0.70711E-05  8540   0.670E-05 0.326E-05
  26 F= -.13239787E+04 E0= -.13239787E+04  d E =-.429918E-02  mag=   126.0000
       N       E                     dE             d eps       ncg     rms          ort
SDA:   1    -0.132390869879E+04    0.69959E-01    0.00000E+00  8540   0.199E+00 0.000E+00
CGA:   2    -0.132395900297E+04   -0.50304E-01   -0.50305E-01  8540   0.933E-01-0.666E-04
CGA:   3    -0.132397889665E+04   -0.19894E-01   -0.19871E-01  8540   0.180E-01-0.278E-03
CGA:   4    -0.132398269909E+04   -0.38024E-02   -0.38015E-02  8540   0.329E-02-0.140E-04
CGA:   5    -0.132398342085E+04   -0.72176E-03   -0.72264E-03  8540   0.731E-03 0.102E-04
CGA:   6    -0.132398360590E+04   -0.18505E-03   -0.18457E-03  8540   0.200E-03-0.112E-04
CGA:   7    -0.132398366015E+04   -0.54250E-04   -0.54247E-04  8540   0.587E-04-0.199E-06
CGA:   8    -0.132398368024E+04   -0.20089E-04   -0.20632E-04  8540   0.262E-04-0.906E-05
CGA:   9    -0.132398368793E+04   -0.76983E-05   -0.79695E-05  8540   0.972E-05-0.422E-05
  27 F= -.13239837E+04 E0= -.13239837E+04  d E =-.502347E-02  mag=   126.0000
       N       E                     dE             d eps       ncg     rms          ort
SDA:   1    -0.132395855857E+04    0.25122E-01    0.00000E+00  8540   0.753E-01 0.000E+00
CGA:   2    -0.132397613940E+04   -0.17581E-01   -0.17583E-01  8540   0.339E-01 0.648E-05
CGA:   3    -0.132398376791E+04   -0.76285E-02   -0.76269E-02  8540   0.726E-02-0.356E-04
CGA:   4    -0.132398527549E+04   -0.15076E-02   -0.15075E-02  8540   0.128E-02-0.235E-05
CGA:   5    -0.132398556491E+04   -0.28942E-03   -0.28802E-03  8540   0.299E-03-0.231E-04
CGA:   6    -0.132398563958E+04   -0.74670E-04   -0.74334E-04  8540   0.815E-04-0.110E-04
CGA:   7    -0.132398566122E+04   -0.21644E-04   -0.21624E-04  8540   0.240E-04-0.306E-05
CGA:   8    -0.132398566799E+04   -0.67656E-05   -0.67692E-05  8540   0.741E-05-0.328E-06
  28 F= -.13239857E+04 E0= -.13239857E+04  d E =-.198006E-02  mag=   126.0000
       N       E                     dE             d eps       ncg     rms          ort
SDA:   1    -0.132398129609E+04    0.43651E-02    0.00000E+00  8540   0.125E-01 0.000E+00
CGA:   2    -0.132398456912E+04   -0.32730E-02   -0.32754E-02  8540   0.611E-02 0.693E-04
CGA:   3    -0.132398586411E+04   -0.12950E-02   -0.12902E-02  8540   0.110E-02-0.611E-04
CGA:   4    -0.132398608781E+04   -0.22370E-03   -0.22370E-03  8540   0.196E-03-0.267E-06
CGA:   5    -0.132398613610E+04   -0.48293E-04   -0.47510E-04  8540   0.559E-04-0.190E-04
CGA:   6    -0.132398614932E+04   -0.13219E-04   -0.13033E-04  8540   0.172E-04-0.789E-05
CGA:   7    -0.132398615299E+04   -0.36665E-05   -0.36649E-05  8540   0.436E-05-0.490E-07
  29 F= -.13239862E+04 E0= -.13239862E+04  d E =-.485000E-03  mag=   126.0000
       N       E                     dE             d eps       ncg     rms          ort
SDA:   1    -0.132394136710E+04    0.44782E-01    0.00000E+00  8540   0.118E+00 0.000E+00
CGA:   2    -0.132397384674E+04   -0.32480E-01   -0.32481E-01  8540   0.579E-01 0.802E-04
CGA:   3    -0.132398558381E+04   -0.11737E-01   -0.11720E-01  8540   0.101E-01-0.231E-03
CGA:   4    -0.132398766926E+04   -0.20855E-02   -0.20866E-02  8540   0.181E-02 0.137E-04
CGA:   5    -0.132398808621E+04   -0.41695E-03   -0.41509E-03  8540   0.424E-03-0.425E-04
CGA:   6    -0.132398819436E+04   -0.10815E-03   -0.10784E-03  8540   0.120E-03-0.289E-04
CGA:   7    -0.132398822251E+04   -0.28145E-04   -0.28235E-04  8540   0.315E-04 0.511E-05
CGA:   8    -0.132398823387E+04   -0.11363E-04   -0.11828E-04  8540   0.148E-04-0.514E-05
CGA:   9    -0.132398823818E+04   -0.43046E-05   -0.45694E-05  8540   0.606E-05-0.278E-05
  30 F= -.13239882E+04 E0= -.13239882E+04  d E =-.208519E-02  mag=   126.0000
       N       E                     dE             d eps       ncg     rms          ort
SDA:   1    -0.132388272002E+04    0.10551E+00    0.00000E+00  8540   0.282E+00 0.000E+00
CGA:   2    -0.132395251866E+04   -0.69799E-01   -0.69806E-01  8540   0.140E+00 0.938E-04
CGA:   3    -0.132398318357E+04   -0.30665E-01   -0.30641E-01  8540   0.263E-01-0.467E-03
CGA:   4    -0.132398847283E+04   -0.52893E-02   -0.52835E-02  8540   0.455E-02-0.858E-04
CGA:   5    -0.132398950511E+04   -0.10323E-02   -0.10309E-02  8540   0.109E-02-0.335E-04
CGA:   6    -0.132398977065E+04   -0.26555E-03   -0.26492E-03  8540   0.273E-03-0.280E-04
CGA:   7    -0.132398984081E+04   -0.70155E-04   -0.70173E-04  8540   0.755E-04 0.533E-05
CGA:   8    -0.132398986786E+04   -0.27052E-04   -0.29264E-04  8540   0.411E-04-0.196E-04
CGA:   9    -0.132398987680E+04   -0.89352E-05   -0.16547E-04  8540   0.456E-04-0.282E-04
CGA:  10    -0.132398988742E+04   -0.10619E-04   -0.10478E-04  8540   0.814E-05-0.249E-05
CGA:  11    -0.132398988867E+04   -0.12558E-05   -0.15061E-05  8540   0.169E-05 0.284E-05
  31 F= -.13239899E+04 E0= -.13239899E+04  d E =-.165049E-02  mag=   126.0000
       N       E                     dE             d eps       ncg     rms          ort
SDA:   1    -0.132349990788E+04    0.48998E+00    0.00000E+00  8540   0.127E+01 0.000E+00
CGA:   2    -0.132382661707E+04   -0.32671E+00   -0.32687E+00  8540   0.647E+00-0.680E-04
CGA:   3    -0.132396352271E+04   -0.13691E+00   -0.13677E+00  8540   0.114E+00-0.575E-03
CGA:   4    -0.132398670368E+04   -0.23181E-01   -0.23160E-01  8540   0.204E-01-0.963E-04
CGA:   5    -0.132399128063E+04   -0.45769E-02   -0.45770E-02  8540   0.484E-02-0.567E-05
CGA:   6    -0.132399242807E+04   -0.11474E-02   -0.11452E-02  8540   0.119E-02-0.112E-04
CGA:   7    -0.132399274849E+04   -0.32042E-03   -0.32210E-03  8540   0.349E-03 0.941E-05
CGA:   8    -0.132399286262E+04   -0.11413E-03   -0.11217E-03  8540   0.126E-03-0.168E-04
CGA:   9    -0.132399290970E+04   -0.47079E-04   -0.46251E-04  8540   0.512E-04-0.188E-04
CGA:  10    -0.132399292455E+04   -0.14847E-04   -0.14557E-04  8540   0.144E-04-0.311E-05
CGA:  11    -0.132399292913E+04   -0.45842E-05   -0.45317E-05  8540   0.394E-05-0.600E-06
CGA:  12    -0.132399293238E+04   -0.32500E-05    0.30504E-04  8540   0.190E-05-0.602E-06
  32 F= -.13239929E+04 E0= -.13239929E+04  d E =-.304371E-02  mag=   126.0000
       N       E                     dE             d eps       ncg     rms          ort
SDA:   1    -0.132389513281E+04    0.97796E-01    0.00000E+00  8540   0.270E+00 0.000E+00
CGA:   2    -0.132395858376E+04   -0.63451E-01   -0.63484E-01  8540   0.131E+00 0.359E-04
CGA:   3    -0.132398821107E+04   -0.29627E-01   -0.29607E-01  8540   0.262E-01-0.182E-03
CGA:   4    -0.132399349834E+04   -0.52873E-02   -0.52756E-02  8540   0.455E-02-0.701E-04
CGA:   5    -0.132399450828E+04   -0.10099E-02   -0.10102E-02  8540   0.107E-02 0.310E-06
CGA:   6    -0.132399476016E+04   -0.25188E-03   -0.25417E-03  8540   0.257E-03 0.168E-04
CGA:   7    -0.132399482836E+04   -0.68199E-04   -0.69161E-04  8540   0.728E-04 0.955E-05
CGA:   8    -0.132399485099E+04   -0.22632E-04   -0.22701E-04  8540   0.244E-04 0.113E-05
CGA:   9    -0.132399486036E+04   -0.93630E-05   -0.94224E-05  8540   0.103E-04-0.247E-05
  33 F= -.13239949E+04 E0= -.13239949E+04  d E =-.192797E-02  mag=   126.0000
       N       E                     dE             d eps       ncg     rms          ort
SDA:   1    -0.132398429146E+04    0.10560E-01    0.00000E+00  8540   0.324E-01 0.000E+00
CGA:   2    -0.132399174795E+04   -0.74565E-02   -0.74678E-02  8540   0.151E-01 0.737E-04
CGA:   3    -0.132399525048E+04   -0.35025E-02   -0.34972E-02  8540   0.321E-02-0.541E-04
CGA:   4    -0.132399591084E+04   -0.66036E-03   -0.65472E-03  8540   0.561E-03-0.425E-04
CGA:   5    -0.132399602865E+04   -0.11781E-03   -0.11858E-03  8540   0.127E-03 0.634E-05
CGA:   6    -0.132399605615E+04   -0.27495E-04   -0.28734E-04  8540   0.290E-04 0.119E-04
CGA:   7    -0.132399606435E+04   -0.82068E-05   -0.83281E-05  8540   0.853E-05 0.203E-05
  34 F= -.13239961E+04 E0= -.13239961E+04  d E =-.120400E-02  mag=   126.0000
       N       E                     dE             d eps       ncg     rms          ort
SDA:   1    -0.132377716697E+04    0.21889E+00    0.00000E+00  8540   0.574E+00 0.000E+00
CGA:   2    -0.132392076501E+04   -0.14360E+00   -0.14365E+00  8540   0.291E+00 0.453E-03
CGA:   3    -0.132398427987E+04   -0.63515E-01   -0.63480E-01  8540   0.536E-01-0.481E-03
CGA:   4    -0.132399502046E+04   -0.10741E-01   -0.10721E-01  8540   0.931E-02-0.199E-03
CGA:   5    -0.132399710404E+04   -0.20836E-02   -0.20824E-02  8540   0.220E-02-0.173E-04
CGA:   6    -0.132399762510E+04   -0.52106E-03   -0.52204E-03  8540   0.525E-03 0.153E-04
CGA:   7    -0.132399776796E+04   -0.14286E-03   -0.14295E-03  8540   0.154E-03 0.334E-05
CGA:   8    -0.132399781818E+04   -0.50222E-04   -0.50618E-04  8540   0.593E-04-0.124E-04
CGA:   9    -0.132399783870E+04   -0.20522E-04   -0.21858E-04  8540   0.277E-04-0.129E-04
CGA:  10    -0.132399784620E+04   -0.74981E-05   -0.77416E-05  8540   0.911E-05-0.445E-05
  35 F= -.13239978E+04 E0= -.13239978E+04  d E =-.178184E-02  mag=   126.0000
       N       E                     dE             d eps       ncg     rms          ort
SDA:   1    -0.132309667833E+04    0.90116E+00    0.00000E+00  8540   0.227E+01 0.000E+00
CGA:   2    -0.132371691587E+04   -0.62024E+00   -0.62028E+00  8540   0.115E+01 0.498E-03
CGA:   3    -0.132394797772E+04   -0.23106E+00   -0.23104E+00  8540   0.191E+00-0.512E-03
CGA:   4    -0.132398694936E+04   -0.38972E-01   -0.38966E-01  8540   0.347E-01-0.108E-03
CGA:   5    -0.132399477259E+04   -0.78232E-02   -0.78247E-02  8540   0.789E-02 0.141E-04
CGA:   6    -0.132399667273E+04   -0.19001E-02   -0.19014E-02  8540   0.195E-02 0.267E-04
CGA:   7    -0.132399720728E+04   -0.53455E-03   -0.53484E-03  8540   0.573E-03 0.263E-04
CGA:   8    -0.132399738806E+04   -0.18077E-03   -0.18060E-03  8540   0.197E-03 0.620E-05
CGA:   9    -0.132399745591E+04   -0.67852E-04   -0.67836E-04  8540   0.628E-04 0.256E-06
CGA:  10    -0.132399747818E+04   -0.22269E-04   -0.22573E-04  8540   0.191E-04-0.431E-05
CGA:  11    -0.132399748208E+04   -0.38989E-05   -0.41831E-05  8540   0.496E-05 0.501E-05
  36 F= -.13239975E+04 E0= -.13239975E+04  d E =0.364124E-03  mag=   126.0000
       N       E                     dE             d eps       ncg     rms          ort
SDA:   1    -0.132389953997E+04    0.97938E-01    0.00000E+00  8540   0.276E+00 0.000E+00
CGA:   2    -0.132396342850E+04   -0.63889E-01   -0.63894E-01  8540   0.129E+00-0.348E-04
CGA:   3    -0.132399236214E+04   -0.28934E-01   -0.28938E-01  8540   0.264E-01 0.412E-05
CGA:   4    -0.132399779977E+04   -0.54376E-02   -0.54324E-02  8540   0.477E-02-0.726E-04
CGA:   5    -0.132399886259E+04   -0.10628E-02   -0.10604E-02  8540   0.111E-02-0.438E-04
CGA:   6    -0.132399914530E+04   -0.28270E-03   -0.28147E-03  8540   0.309E-03-0.581E-04
CGA:   7    -0.132399922968E+04   -0.84384E-04   -0.84738E-04  8540   0.985E-04-0.266E-04
CGA:   8    -0.132399925520E+04   -0.25515E-04   -0.25530E-04  8540   0.291E-04-0.224E-05
CGA:   9    -0.132399924866E+04    0.65392E-05   -0.25657E-04  8540   0.135E-03-0.516E-04
CGA:  10    -0.132399927573E+04   -0.27070E-04   -0.27647E-04  8540   0.135E-04 0.554E-05
CGA:  11    -0.132399916741E+04    0.10832E-03   -0.58400E-04  8540   0.512E-03-0.810E-04
CGA:  12    -0.132399926151E+04   -0.94104E-04   -0.10890E-03  8540   0.537E-04 0.433E-04
CGA:  13    -0.132399929026E+04   -0.28748E-04   -0.26082E-04  8540   0.242E-04-0.302E-04
CGA:  14    -0.132399928636E+04    0.38994E-05   -0.22771E-05  8540   0.879E-05 0.141E-04
  37 F= -.13239993E+04 E0= -.13239993E+04  d E =-.180428E-02  mag=   126.0000
       N       E                     dE             d eps       ncg     rms          ort
SDA:   1    -0.132396511632E+04    0.34174E-01    0.00000E+00  8540   0.877E-01 0.000E+00
CGA:   2    -0.132398846570E+04   -0.23349E-01   -0.23353E-01  8540   0.451E-01-0.230E-04
CGA:   3    -0.132399768357E+04   -0.92179E-02   -0.92124E-02  8540   0.765E-02-0.333E-04
CGA:   4    -0.132399924156E+04   -0.15580E-02   -0.15535E-02  8540   0.138E-02-0.186E-04
CGA:   5    -0.132399955475E+04   -0.31319E-03   -0.31114E-03  8540   0.324E-03-0.939E-05
CGA:   6    -0.132399963600E+04   -0.81250E-04   -0.79381E-04  8540   0.831E-04-0.967E-05
CGA:   7    -0.132399965805E+04   -0.22057E-04   -0.21902E-04  8540   0.241E-04-0.985E-06
CGA:   8    -0.132399966580E+04   -0.77452E-05   -0.76036E-05  8540   0.864E-05-0.137E-05
  38 F= -.13239997E+04 E0= -.13239997E+04  d E =-.379442E-03  mag=   126.0000
       N       E                     dE             d eps       ncg     rms          ort
SDA:   1    -0.132371429757E+04    0.28536E+00    0.00000E+00  8540   0.726E+00 0.000E+00
CGA:   2    -0.132390564264E+04   -0.19135E+00   -0.19138E+00  8540   0.377E+00-0.163E-03
CGA:   3    -0.132398362691E+04   -0.77984E-01   -0.78008E-01  8540   0.642E-01-0.216E-04
CGA:   4    -0.132399651799E+04   -0.12891E-01   -0.12880E-01  8540   0.115E-01-0.683E-04
CGA:   5    -0.132399908914E+04   -0.25712E-02   -0.25742E-02  8540   0.275E-02 0.141E-04
CGA:   6    -0.132399974124E+04   -0.65210E-03   -0.65257E-03  8540   0.667E-03 0.241E-05
CGA:   7    -0.132399992669E+04   -0.18544E-03   -0.18423E-03  8540   0.202E-03-0.111E-04
CGA:   8    -0.132399998818E+04   -0.61493E-04   -0.61255E-04  8540   0.683E-04-0.330E-05
CGA:   9    -0.132400001586E+04   -0.27685E-04   -0.28509E-04  8540   0.347E-04-0.174E-04
CGA:  10    -0.132400002463E+04   -0.87693E-05   -0.85675E-05  8540   0.108E-04-0.417E-05
  39 F= -.13240000E+04 E0= -.13240000E+04  d E =-.358834E-03  mag=   126.0000
       N       E                     dE             d eps       ncg     rms          ort
SDA:   1    -0.132128379996E+04    0.27162E+01    0.00000E+00  8540   0.671E+01 0.000E+00
CGA:   2    -0.132316280198E+04   -0.18790E+01   -0.18794E+01  8540   0.347E+01-0.144E-02
CGA:   3    -0.132384851253E+04   -0.68571E+00   -0.68600E+00  8540   0.552E+00 0.130E-02
CGA:   4    -0.132396108845E+04   -0.11258E+00   -0.11264E+00  8540   0.101E+00 0.250E-03
CGA:   5    -0.132398395834E+04   -0.22870E-01   -0.22892E-01  8540   0.234E-01 0.120E-03
CGA:   6    -0.132398956948E+04   -0.56111E-02   -0.56107E-02  8540   0.580E-02-0.794E-05
CGA:   7    -0.132399117627E+04   -0.16068E-02   -0.16060E-02  8540   0.176E-02-0.100E-04
CGA:   8    -0.132399171541E+04   -0.53914E-03   -0.54041E-03  8540   0.604E-03 0.235E-04
CGA:   9    -0.132399193937E+04   -0.22395E-03   -0.22431E-03  8540   0.215E-03-0.415E-04
CGA:  10    -0.132399200034E+04   -0.60973E-04   -0.61436E-04  8540   0.545E-04 0.894E-05
CGA:  11    -0.132399202429E+04   -0.23950E-04   -0.27479E-04  8540   0.365E-04-0.276E-04
CGA:  12    -0.132399202519E+04   -0.89619E-06   -0.48505E-05  8540   0.943E-05 0.172E-04
  40 F= -.13239920E+04 E0= -.13239920E+04  d E =0.799945E-02  mag=   126.0000
       N       E                     dE             d eps       ncg     rms          ort
SDA:   1    -0.132245834302E+04    0.15337E+01    0.00000E+00  8540   0.374E+01 0.000E+00
CGA:   2    -0.132355926005E+04   -0.11009E+01   -0.11010E+01  8540   0.184E+01-0.371E-03
CGA:   3    -0.132391136605E+04   -0.35211E+00   -0.35219E+00  8540   0.282E+00-0.560E-04
CGA:   4    -0.132397085922E+04   -0.59493E-01   -0.59505E-01  8540   0.527E-01 0.594E-04
CGA:   5    -0.132398260155E+04   -0.11742E-01   -0.11765E-01  8540   0.117E-01 0.208E-03
CGA:   6    -0.132398551077E+04   -0.29092E-02   -0.29089E-02  8540   0.302E-02-0.543E-05
CGA:   7    -0.132398634972E+04   -0.83895E-03   -0.83972E-03  8540   0.927E-03 0.202E-04
CGA:   8    -0.132398664153E+04   -0.29181E-03   -0.29184E-03  8540   0.324E-03 0.260E-04
CGA:   9    -0.132398675515E+04   -0.11362E-03   -0.11358E-03  8540   0.998E-04 0.116E-05
CGA:  10    -0.132398677990E+04   -0.24750E-04   -0.25967E-04  8540   0.237E-04 0.218E-04
CGA:  11    -0.132398678890E+04   -0.89991E-05   -0.90017E-05  8540   0.754E-05 0.203E-05
  41 F= -.13239868E+04 E0= -.13239868E+04  d E =0.523629E-02  mag=   126.0000
       N       E                     dE             d eps       ncg     rms          ort
SDA:   1    -0.132336234231E+04    0.62444E+00    0.00000E+00  8540   0.172E+01 0.000E+00
CGA:   2    -0.132376573627E+04   -0.40339E+00   -0.40354E+00  8540   0.813E+00 0.110E-02
CGA:   3    -0.132394873427E+04   -0.18300E+00   -0.18297E+00  8540   0.166E+00-0.686E-03
CGA:   4    -0.132398262123E+04   -0.33887E-01   -0.33845E-01  8540   0.296E-01-0.486E-03
CGA:   5    -0.132398918443E+04   -0.65632E-02   -0.65737E-02  8540   0.682E-02 0.140E-03
CGA:   6    -0.132399082609E+04   -0.16417E-02   -0.16454E-02  8540   0.168E-02 0.758E-04
CGA:   7    -0.132399128836E+04   -0.46228E-03   -0.46276E-03  8540   0.476E-03 0.334E-04
CGA:   8    -0.132399144126E+04   -0.15289E-03   -0.15346E-03  8540   0.170E-03-0.189E-04
CGA:   9    -0.132399149778E+04   -0.56525E-04   -0.57129E-04  8540   0.585E-04-0.968E-05
CGA:  10    -0.132399151018E+04   -0.12398E-04   -0.13189E-04  8540   0.157E-04 0.154E-04
CGA:  11    -0.132399151478E+04   -0.46029E-05   -0.48036E-05  8540   0.491E-05 0.444E-05
  42 F= -.13239915E+04 E0= -.13239915E+04  d E =-.472589E-02  mag=   126.0000
       N       E                     dE             d eps       ncg     rms          ort
SDA:   1    -0.132287633341E+04    0.11152E+01    0.00000E+00  8540   0.283E+01 0.000E+00
CGA:   2    -0.132362713545E+04   -0.75080E+00   -0.75085E+00  8540   0.146E+01 0.795E-03
CGA:   3    -0.132392973512E+04   -0.30260E+00   -0.30265E+00  8540   0.245E+00 0.112E-05
CGA:   4    -0.132397912835E+04   -0.49393E-01   -0.49389E-01  8540   0.441E-01-0.103E-03
CGA:   5    -0.132398916419E+04   -0.10036E-01   -0.10044E-01  8540   0.103E-01 0.163E-03
CGA:   6    -0.132399165257E+04   -0.24884E-02   -0.24887E-02  8540   0.250E-02 0.866E-05
CGA:   7    -0.132399235346E+04   -0.70089E-03   -0.70098E-03  8540   0.754E-03-0.115E-04
CGA:   8    -0.132399258865E+04   -0.23519E-03   -0.23577E-03  8540   0.263E-03-0.140E-04
CGA:   9    -0.132399268201E+04   -0.93358E-04   -0.95905E-04  8540   0.983E-04-0.263E-04
CGA:  10    -0.132399270926E+04   -0.27251E-04   -0.27161E-04  8540   0.253E-04 0.320E-05
CGA:  11    -0.132399271942E+04   -0.10162E-04   -0.12475E-04  8540   0.159E-04-0.117E-04
CGA:  12    -0.132399271972E+04   -0.29837E-06   -0.10555E-05  8540   0.950E-05 0.455E-05
  43 F= -.13239927E+04 E0= -.13239927E+04  d E =-.120494E-02  mag=   126.0000
       N       E                     dE             d eps       ncg     rms          ort
SDA:   1    -0.127704674372E+04    0.46946E+02    0.00000E+00  8540   0.139E+03 0.000E+00
CGA:   2    -0.130585569229E+04   -0.28809E+02   -0.28912E+02  8540   0.571E+02 0.487E+00
CGA:   3    -0.131984971630E+04   -0.13994E+02   -0.13996E+02  8540   0.139E+02 0.603E-01
CGA:   4    -0.132270210882E+04   -0.28524E+01   -0.28530E+01  8540   0.239E+01-0.753E-03
CGA:   5    -0.132322935257E+04   -0.52724E+00   -0.52744E+00  8540   0.565E+00 0.239E-02
CGA:   6    -0.132336875260E+04   -0.13940E+00   -0.13939E+00  8540   0.146E+00-0.795E-03
CGA:   7    -0.132340874291E+04   -0.39990E-01   -0.39968E-01  8540   0.427E-01 0.196E-02
CGA:   8    -0.132342172827E+04   -0.12985E-01   -0.12959E-01  8540   0.140E-01 0.743E-03
CGA:   9    -0.132342658385E+04   -0.48556E-02   -0.48401E-02  8540   0.493E-02 0.205E-03
CGA:  10    -0.132342823236E+04   -0.16485E-02   -0.16271E-02  8540   0.150E-02 0.381E-03
CGA:  11    -0.132342872484E+04   -0.49248E-03   -0.48694E-03  8540   0.425E-03 0.194E-03
CGA:  12    -0.132342890634E+04   -0.18150E-03   -0.19161E-03  8540   0.261E-03-0.809E-04
CGA:  13    -0.132342892719E+04   -0.20848E-04   -0.32446E-04  8540   0.115E-03 0.920E-04
CGA:  14    -0.132342894951E+04   -0.22325E-04   -0.26866E-04  8540   0.532E-04 0.452E-04
CGA:  15    -0.132342899785E+04   -0.48337E-04    0.46543E-04  8540   0.270E-04 0.177E-05
CGA:  16    -0.132342902070E+04   -0.22847E-04    0.71216E-05  8540   0.178E-04 0.445E-05
CGA:  17    -0.132342902481E+04   -0.41084E-05   -0.43012E-05  8540   0.732E-05 0.314E-05
  44 F= -.13234290E+04 E0= -.13234290E+04  d E =0.563695E+00  mag=   126.0000
       N       E                     dE             d eps       ncg     rms          ort
SDA:   1    -0.130639198257E+04    0.17037E+02    0.00000E+00  8540   0.548E+02 0.000E+00
CGA:   2    -0.131732799773E+04   -0.10936E+02   -0.10959E+02  8540   0.207E+02 0.126E+00
CGA:   3    -0.132250895561E+04   -0.51810E+01   -0.51813E+01  8540   0.544E+01 0.140E-01
CGA:   4    -0.132365654048E+04   -0.11476E+01   -0.11473E+01  8540   0.101E+01-0.903E-02
CGA:   5    -0.132387706577E+04   -0.22053E+00   -0.22051E+00  8540   0.226E+00-0.873E-03
CGA:   6    -0.132393225490E+04   -0.55189E-01   -0.55175E-01  8540   0.582E-01-0.120E-02
CGA:   7    -0.132394832178E+04   -0.16067E-01   -0.16063E-01  8540   0.167E-01 0.145E-03
CGA:   8    -0.132395334989E+04   -0.50281E-02   -0.50434E-02  8540   0.547E-02-0.360E-03
CGA:   9    -0.132395523734E+04   -0.18875E-02   -0.19211E-02  8540   0.206E-02-0.342E-03
CGA:  10    -0.132395588332E+04   -0.64599E-03   -0.64343E-03  8540   0.609E-03 0.364E-04
CGA:  11    -0.132395612705E+04   -0.24373E-03   -0.28850E-03  8540   0.341E-03-0.227E-03
CGA:  12    -0.132395619433E+04   -0.67285E-04   -0.69029E-04  8540   0.141E-03-0.386E-04
CGA:  13    -0.132395622384E+04   -0.29507E-04   -0.77912E-04  8540   0.262E-03-0.141E-03
CGA:  14    -0.132395630095E+04   -0.77109E-04   -0.76676E-04  8540   0.120E-03-0.887E-04
CGA:  15    -0.132395630554E+04   -0.45936E-05   -0.97091E-05  8540   0.382E-04 0.294E-04
  45 F= -.13239563E+04 E0= -.13239563E+04  d E =-.527281E+00  mag=   126.0000
       N       E                     dE             d eps       ncg     rms          ort
SDA:   1    -0.132374074926E+04    0.21555E+00    0.00000E+00  8540   0.694E+00 0.000E+00
CGA:   2    -0.132389699520E+04   -0.15625E+00   -0.15633E+00  8540   0.303E+00 0.122E-02
CGA:   3    -0.132396671969E+04   -0.69724E-01   -0.69711E-01  8540   0.669E-01-0.482E-03
CGA:   4    -0.132398072177E+04   -0.14002E-01   -0.13994E-01  8540   0.124E-01-0.144E-03
CGA:   5    -0.132398339028E+04   -0.26685E-02   -0.26785E-02  8540   0.267E-02 0.183E-03
CGA:   6    -0.132398402404E+04   -0.63376E-03   -0.63856E-03  8540   0.665E-03 0.151E-03
CGA:   7    -0.132398421098E+04   -0.18694E-03   -0.18692E-03  8540   0.184E-03 0.603E-04
CGA:   8    -0.132398428057E+04   -0.69586E-04   -0.72078E-04  8540   0.873E-04-0.265E-04
CGA:   9    -0.132398430171E+04   -0.21148E-04   -0.21083E-04  8540   0.259E-04 0.542E-05
CGA:  10    -0.132398430547E+04   -0.37572E-05   -0.48649E-05  8540   0.925E-05 0.118E-04
  46 F= -.13239843E+04 E0= -.13239843E+04  d E =-.279999E-01  mag=   126.0000
       N       E                     dE             d eps       ncg     rms          ort
SDA:   1    -0.132263498550E+04    0.13493E+01    0.00000E+00  8540   0.388E+01 0.000E+00
CGA:   2    -0.132351854648E+04   -0.88356E+00   -0.88381E+00  8540   0.174E+01 0.572E-02
CGA:   3    -0.132391629807E+04   -0.39775E+00   -0.39771E+00  8540   0.379E+00-0.228E-02
CGA:   4    -0.132399482723E+04   -0.78529E-01   -0.78457E-01  8540   0.688E-01-0.155E-02
CGA:   5    -0.132400972420E+04   -0.14897E-01   -0.14917E-01  8540   0.152E-01 0.540E-03
CGA:   6    -0.132401341524E+04   -0.36910E-02   -0.36956E-02  8540   0.387E-02 0.418E-03
CGA:   7    -0.132401450873E+04   -0.10935E-02   -0.10906E-02  8540   0.110E-02 0.120E-03
CGA:   8    -0.132401488019E+04   -0.37146E-03   -0.37940E-03  8540   0.433E-03-0.968E-04
CGA:   9    -0.132401501333E+04   -0.13314E-03   -0.13570E-03  8540   0.145E-03-0.295E-04
CGA:  10    -0.132401503974E+04   -0.26414E-04   -0.28642E-04  8540   0.417E-04 0.463E-04
CGA:  11    -0.132401504536E+04   -0.56211E-05   -0.83655E-05  8540   0.158E-04 0.258E-04
  47 F= -.13240150E+04 E0= -.13240150E+04  d E =-.307399E-01  mag=   126.0000
       N       E                     dE             d eps       ncg     rms          ort
SDA:   1    -0.132382537529E+04    0.18966E+00    0.00000E+00  8540   0.538E+00 0.000E+00
CGA:   2    -0.132395745279E+04   -0.13208E+00   -0.13209E+00  8540   0.250E+00 0.562E-03
CGA:   3    -0.132401158592E+04   -0.54133E-01   -0.54120E-01  8540   0.513E-01-0.405E-03
CGA:   4    -0.132402221321E+04   -0.10627E-01   -0.10614E-01  8540   0.907E-02-0.296E-03
CGA:   5    -0.132402414631E+04   -0.19331E-02   -0.19386E-02  8540   0.196E-02 0.148E-03
CGA:   6    -0.132402461725E+04   -0.47093E-03   -0.47216E-03  8540   0.488E-03 0.980E-04
CGA:   7    -0.132402475524E+04   -0.13800E-03   -0.13749E-03  8540   0.140E-03 0.266E-04
CGA:   8    -0.132402480063E+04   -0.45386E-04   -0.45064E-04  8540   0.468E-04 0.573E-05
CGA:   9    -0.132402481736E+04   -0.16728E-04   -0.16681E-04  8540   0.160E-04 0.509E-06
CGA:  10    -0.132402481818E+04   -0.82507E-06   -0.21014E-05  8540   0.741E-05 0.100E-04
  48 F= -.13240248E+04 E0= -.13240248E+04  d E =-.977282E-02  mag=   126.0000
       N       E                     dE             d eps       ncg     rms          ort
SDA:   1    -0.132298006735E+04    0.10448E+01    0.00000E+00  8540   0.281E+01 0.000E+00
CGA:   2    -0.132368776755E+04   -0.70770E+00   -0.70768E+00  8540   0.133E+01 0.955E-03
CGA:   3    -0.132396960553E+04   -0.28184E+00   -0.28183E+00  8540   0.265E+00-0.392E-03
CGA:   4    -0.132402417989E+04   -0.54574E-01   -0.54567E-01  8540   0.456E-01-0.246E-03
CGA:   5    -0.132403415103E+04   -0.99711E-02   -0.99786E-02  8540   0.101E-01 0.328E-03
CGA:   6    -0.132403665775E+04   -0.25067E-02   -0.25059E-02  8540   0.258E-02 0.138E-03
CGA:   7    -0.132403736749E+04   -0.70974E-03   -0.70798E-03  8540   0.741E-03 0.581E-04
CGA:   8    -0.132403759894E+04   -0.23145E-03   -0.22999E-03  8540   0.239E-03 0.234E-04
CGA:   9    -0.132403768739E+04   -0.88450E-04   -0.90787E-04  8540   0.929E-04-0.189E-04
CGA:  10    -0.132403770333E+04   -0.15937E-04   -0.17422E-04  8540   0.279E-04 0.313E-04
CGA:  11    -0.132403770900E+04   -0.56686E-05   -0.66021E-05  8540   0.919E-05 0.130E-04
  49 F= -.13240377E+04 E0= -.13240377E+04  d E =-.128908E-01  mag=   126.0000
       N       E                     dE             d eps       ncg     rms          ort
SDA:   1    -0.132334991275E+04    0.68779E+00    0.00000E+00  8540   0.183E+01 0.000E+00
CGA:   2    -0.132381313623E+04   -0.46322E+00   -0.46321E+00  8540   0.878E+00 0.150E-03
CGA:   3    -0.132399998381E+04   -0.18685E+00   -0.18688E+00  8540   0.172E+00 0.689E-03
CGA:   4    -0.132403511409E+04   -0.35130E-01   -0.35137E-01  8540   0.293E-01 0.135E-03
CGA:   5    -0.132404159385E+04   -0.64798E-02   -0.64817E-02  8540   0.667E-02 0.877E-04
CGA:   6    -0.132404326170E+04   -0.16679E-02   -0.16678E-02  8540   0.169E-02 0.242E-05
CGA:   7    -0.132404371870E+04   -0.45700E-03   -0.45625E-03  8540   0.485E-03 0.259E-04
CGA:   8    -0.132404386292E+04   -0.14422E-03   -0.14251E-03  8540   0.146E-03 0.368E-04
CGA:   9    -0.132404392062E+04   -0.57708E-04   -0.59296E-04  8540   0.614E-04-0.121E-04
CGA:  10    -0.132404393276E+04   -0.12137E-04   -0.12619E-04  8540   0.180E-04 0.175E-04
CGA:  11    -0.132404393786E+04   -0.50964E-05   -0.52158E-05  8540   0.565E-05 0.482E-05
  50 F= -.13240439E+04 E0= -.13240439E+04  d E =-.622886E-02  mag=   126.0000
       N       E                     dE             d eps       ncg     rms          ort
SDA:   1    -0.132242910240E+04    0.16148E+01    0.00000E+00  8540   0.409E+01 0.000E+00
CGA:   2    -0.132355287605E+04   -0.11238E+01   -0.11237E+01  8540   0.202E+01 0.481E-03
CGA:   3    -0.132395357040E+04   -0.40069E+00   -0.40076E+00  8540   0.354E+00 0.512E-03
CGA:   4    -0.132402651141E+04   -0.72941E-01   -0.72962E-01  8540   0.630E-01 0.374E-03
CGA:   5    -0.132404049297E+04   -0.13982E-01   -0.13986E-01  8540   0.141E-01 0.123E-03
CGA:   6    -0.132404401627E+04   -0.35233E-02   -0.35231E-02  8540   0.364E-02-0.530E-04
CGA:   7    -0.132404502148E+04   -0.10052E-02   -0.10051E-02  8540   0.109E-02 0.528E-05
CGA:   8    -0.132404536168E+04   -0.34021E-03   -0.33887E-03  8540   0.362E-03 0.236E-04
CGA:   9    -0.132404549905E+04   -0.13737E-03   -0.14474E-03  8540   0.152E-03-0.548E-04
CGA:  10    -0.132404553203E+04   -0.32978E-04   -0.33096E-04  8540   0.381E-04 0.203E-04
CGA:  11    -0.132404554646E+04   -0.14428E-04   -0.15071E-04  8540   0.160E-04-0.752E-05
CGA:  12    -0.132404555017E+04   -0.37098E-05   -0.36994E-05  8540   0.595E-05 0.491E-06
  51 F= -.13240456E+04 E0= -.13240456E+04  d E =-.161231E-02  mag=   126.0000
       N       E                     dE             d eps       ncg     rms          ort
SDA:   1    -0.132135811255E+04    0.26874E+01    0.00000E+00  8540   0.663E+01 0.000E+00
CGA:   2    -0.132325168496E+04   -0.18936E+01   -0.18935E+01  8540   0.332E+01 0.140E-02
CGA:   3    -0.132389796734E+04   -0.64628E+00   -0.64632E+00  8540   0.525E+00-0.428E-03
CGA:   4    -0.132400703046E+04   -0.10906E+00   -0.10909E+00  8540   0.976E-01 0.350E-03
CGA:   5    -0.132402895222E+04   -0.21922E-01   -0.21933E-01  8540   0.218E-01 0.303E-03
CGA:   6    -0.132403433554E+04   -0.53833E-02   -0.53840E-02  8540   0.548E-02 0.606E-04
CGA:   7    -0.132403588091E+04   -0.15454E-02   -0.15449E-02  8540   0.169E-02 0.195E-04
CGA:   8    -0.132403644273E+04   -0.56182E-03   -0.56707E-03  8540   0.643E-03-0.683E-04
CGA:   9    -0.132403665887E+04   -0.21614E-03   -0.22190E-03  8540   0.217E-03-0.584E-04
CGA:  10    -0.132403671579E+04   -0.56921E-04   -0.56575E-04  8540   0.507E-04 0.171E-04
CGA:  11    -0.132403673529E+04   -0.19494E-04   -0.20137E-04  8540   0.184E-04-0.639E-05
CGA:  12    -0.132403674163E+04   -0.63474E-05   -0.86081E-05  8540   0.162E-04-0.858E-05
  52 F= -.13240367E+04 E0= -.13240367E+04  d E =0.880853E-02  mag=   126.0000
       N       E                     dE             d eps       ncg     rms          ort
SDA:   1    -0.132314765059E+04    0.88908E+00    0.00000E+00  8540   0.245E+01 0.000E+00
CGA:   2    -0.132374512101E+04   -0.59747E+00   -0.59753E+00  8540   0.112E+01 0.787E-03
CGA:   3    -0.132398800590E+04   -0.24288E+00   -0.24285E+00  8540   0.232E+00-0.115E-02
CGA:   4    -0.132403664717E+04   -0.48641E-01   -0.48622E-01  8540   0.410E-01-0.369E-03
CGA:   5    -0.132404560868E+04   -0.89615E-02   -0.89691E-02  8540   0.889E-02 0.140E-03
CGA:   6    -0.132404783384E+04   -0.22252E-02   -0.22271E-02  8540   0.233E-02 0.115E-03
CGA:   7    -0.132404849294E+04   -0.65910E-03   -0.65870E-03  8540   0.666E-03 0.294E-04
CGA:   8    -0.132404871534E+04   -0.22240E-03   -0.22572E-03  8540   0.250E-03-0.485E-04
CGA:   9    -0.132404879135E+04   -0.76003E-04   -0.76486E-04  8540   0.772E-04-0.798E-05
CGA:  10    -0.132404881617E+04   -0.24825E-04   -0.24933E-04  8540   0.213E-04-0.180E-05
CGA:  11    -0.132404882308E+04   -0.69113E-05   -0.69104E-05  8540   0.578E-05 0.909E-08
  53 F= -.13240488E+04 E0= -.13240488E+04  d E =-.120814E-01  mag=   126.0000
       N       E                     dE             d eps       ncg     rms          ort
SDA:   1    -0.132390461138E+04    0.14420E+00    0.00000E+00  8540   0.408E+00 0.000E+00
CGA:   2    -0.132400291526E+04   -0.98304E-01   -0.98303E-01  8540   0.189E+00-0.210E-03
CGA:   3    -0.132404446008E+04   -0.41545E-01   -0.41537E-01  8540   0.384E-01-0.216E-03
CGA:   4    -0.132405232010E+04   -0.78600E-02   -0.78719E-02  8540   0.679E-02 0.164E-03
CGA:   5    -0.132405381868E+04   -0.14986E-02   -0.15005E-02  8540   0.152E-02 0.348E-04
CGA:   6    -0.132405421385E+04   -0.39517E-03   -0.39472E-03  8540   0.417E-03-0.465E-04
CGA:   7    -0.132405431854E+04   -0.10469E-03   -0.10484E-03  8540   0.110E-03 0.185E-04
CGA:   8    -0.132405434762E+04   -0.29081E-04   -0.29334E-04  8540   0.300E-04 0.207E-04
CGA:   9    -0.132405435561E+04   -0.79850E-05   -0.83672E-05  8540   0.101E-04 0.123E-04
  54 F= -.13240544E+04 E0= -.13240544E+04  d E =-.553253E-02  mag=   126.0000
       N       E                     dE             d eps       ncg     rms          ort
SDA:   1    -0.132357904060E+04    0.47531E+00    0.00000E+00  8540   0.126E+01 0.000E+00
CGA:   2    -0.132389368298E+04   -0.31464E+00   -0.31465E+00  8540   0.613E+00 0.251E-03
CGA:   3    -0.132402620405E+04   -0.13252E+00   -0.13252E+00  8540   0.119E+00-0.260E-03
CGA:   4    -0.132405007117E+04   -0.23867E-01   -0.23892E-01  8540   0.207E-01 0.397E-03
CGA:   5    -0.132405472202E+04   -0.46509E-02   -0.46536E-02  8540   0.484E-02 0.794E-04
CGA:   6    -0.132405593796E+04   -0.12159E-02   -0.12157E-02  8540   0.123E-02-0.592E-04
CGA:   7    -0.132405625348E+04   -0.31553E-03   -0.31525E-03  8540   0.332E-03 0.549E-04
CGA:   8    -0.132405635540E+04   -0.10191E-03   -0.10084E-03  8540   0.101E-03 0.296E-04
CGA:   9    -0.132405638652E+04   -0.31129E-04   -0.30589E-04  8540   0.307E-04 0.243E-04
CGA:  10    -0.132405639851E+04   -0.11984E-04   -0.11626E-04  8540   0.108E-04 0.754E-05
CGA:  11    -0.132405640106E+04   -0.25538E-05   -0.28471E-05  8540   0.402E-05 0.604E-05
  55 F= -.13240564E+04 E0= -.13240564E+04  d E =-.204545E-02  mag=   126.0000
       N       E                     dE             d eps       ncg     rms          ort
SDA:   1    -0.131940788823E+04    0.46485E+01    0.00000E+00  8540   0.121E+02 0.000E+00
CGA:   2    -0.132252326860E+04   -0.31154E+01   -0.31153E+01  8540   0.584E+01 0.247E-02
CGA:   3    -0.132376110754E+04   -0.12378E+01   -0.12379E+01  8540   0.111E+01 0.121E-02
CGA:   4    -0.132398584779E+04   -0.22474E+00   -0.22488E+00  8540   0.190E+00 0.256E-02
CGA:   5    -0.132402881184E+04   -0.42964E-01   -0.42973E-01  8540   0.441E-01 0.319E-03
CGA:   6    -0.132403994651E+04   -0.11135E-01   -0.11136E-01  8540   0.113E-01-0.422E-03
CGA:   7    -0.132404296833E+04   -0.30218E-02   -0.30174E-02  8540   0.322E-02 0.193E-03
CGA:   8    -0.132404395739E+04   -0.98905E-03   -0.97822E-03  8540   0.984E-03 0.220E-03
CGA:   9    -0.132404430187E+04   -0.34449E-03   -0.33792E-03  8540   0.312E-03 0.937E-04
CGA:  10    -0.132404441746E+04   -0.11558E-03   -0.11336E-03  8540   0.954E-04 0.290E-04
CGA:  11    -0.132404444939E+04   -0.31930E-04   -0.31222E-04  8540   0.271E-04 0.174E-04
CGA:  12    -0.132404445447E+04   -0.50851E-05   -0.61753E-05  8540   0.105E-04 0.160E-04
  56 F= -.13240445E+04 E0= -.13240445E+04  d E =0.119466E-01  mag=   126.0000
       N       E                     dE             d eps       ncg     rms          ort
SDA:   1    -0.131868627439E+04    0.53582E+01    0.00000E+00  8540   0.140E+02 0.000E+00
CGA:   2    -0.132224115075E+04   -0.35549E+01   -0.35549E+01  8540   0.688E+01 0.254E-02
CGA:   3    -0.132369819083E+04   -0.14570E+01   -0.14571E+01  8540   0.128E+01-0.154E-03
CGA:   4    -0.132395713881E+04   -0.25895E+00   -0.25903E+00  8540   0.222E+00 0.122E-02
CGA:   5    -0.132400722089E+04   -0.50082E-01   -0.50095E-01  8540   0.516E-01 0.392E-03
CGA:   6    -0.132402003995E+04   -0.12819E-01   -0.12819E-01  8540   0.128E-01-0.140E-03
CGA:   7    -0.132402354403E+04   -0.35041E-02   -0.34992E-02  8540   0.366E-02 0.201E-03
CGA:   8    -0.132402467193E+04   -0.11279E-02   -0.11176E-02  8540   0.113E-02 0.207E-03
CGA:   9    -0.132402507491E+04   -0.40298E-03   -0.39804E-03  8540   0.364E-03 0.619E-04
CGA:  10    -0.132402519015E+04   -0.11524E-03   -0.11283E-03  8540   0.985E-04 0.660E-04
CGA:  11    -0.132402522547E+04   -0.35327E-04   -0.34561E-04  8540   0.291E-04 0.205E-04
CGA:  12    -0.132402522896E+04   -0.34818E-05   -0.56153E-05  8540   0.135E-04 0.209E-04
  57 F= -.13240252E+04 E0= -.13240252E+04  d E =0.192255E-01  mag=   126.0000
       N       E                     dE             d eps       ncg     rms          ort
SDA:   1    -0.129490465344E+04    0.29121E+02    0.00000E+00  8540   0.883E+02 0.000E+00
CGA:   2    -0.131257146983E+04   -0.17667E+02   -0.17714E+02  8540   0.342E+02 0.329E+00
CGA:   3    -0.132120453076E+04   -0.86331E+01   -0.86330E+01  8540   0.889E+01 0.491E-01
CGA:   4    -0.132306335273E+04   -0.18588E+01   -0.18583E+01  8540   0.156E+01-0.174E-01
CGA:   5    -0.132340290923E+04   -0.33956E+00   -0.33953E+00  8540   0.356E+00-0.171E-02
CGA:   6    -0.132349145650E+04   -0.88547E-01   -0.88546E-01  8540   0.896E-01 0.503E-03
CGA:   7    -0.132351651187E+04   -0.25055E-01   -0.25023E-01  8540   0.253E-01 0.994E-03
CGA:   8    -0.132352445820E+04   -0.79463E-02   -0.79664E-02  8540   0.842E-02-0.331E-03
CGA:   9    -0.132352735508E+04   -0.28969E-02   -0.29283E-02  8540   0.300E-02-0.317E-03
CGA:  10    -0.132352826025E+04   -0.90517E-03   -0.88733E-03  8540   0.813E-03 0.351E-03
CGA:  11    -0.132352857361E+04   -0.31337E-03   -0.31178E-03  8540   0.240E-03 0.183E-04
CGA:  12    -0.132352864768E+04   -0.74066E-04   -0.72480E-04  8540   0.739E-04 0.501E-04
CGA:  13    -0.132352868852E+04   -0.40834E-04   -0.53119E-04  8540   0.770E-04-0.376E-04
CGA:  14    -0.132352870516E+04   -0.16644E-04   -0.17538E-04  8540   0.110E-04 0.165E-04
CGA:  15    -0.132352870982E+04   -0.46630E-05   -0.46090E-05  8540   0.567E-05 0.789E-06
  58 F= -.13235287E+04 E0= -.13235287E+04  d E =0.496519E+00  mag=   126.0000
       N       E                     dE             d eps       ncg     rms          ort
SDA:   1    -0.131632555766E+04    0.72031E+01    0.00000E+00  8540   0.236E+02 0.000E+00
CGA:   2    -0.132109261339E+04   -0.47671E+01   -0.47750E+01  8540   0.915E+01 0.300E-01
CGA:   3    -0.132335376227E+04   -0.22611E+01   -0.22615E+01  8540   0.234E+01 0.554E-02
CGA:   4    -0.132384825296E+04   -0.49449E+00   -0.49455E+00  8540   0.434E+00-0.749E-04
CGA:   5    -0.132394270020E+04   -0.94447E-01   -0.94484E-01  8540   0.956E-01 0.437E-03
CGA:   6    -0.132396666551E+04   -0.23965E-01   -0.23946E-01  8540   0.251E-01-0.941E-03
CGA:   7    -0.132397356454E+04   -0.68990E-02   -0.68972E-02  8540   0.684E-02 0.225E-03
CGA:   8    -0.132397560693E+04   -0.20424E-02   -0.20393E-02  8540   0.210E-02 0.118E-03
CGA:   9    -0.132397632431E+04   -0.71737E-03   -0.71386E-03  8540   0.687E-03 0.543E-04
CGA:  10    -0.132397656021E+04   -0.23591E-03   -0.23258E-03  8540   0.210E-03 0.596E-04
CGA:  11    -0.132397664697E+04   -0.86756E-04   -0.89013E-04  8540   0.751E-04-0.202E-04
CGA:  12    -0.132397666628E+04   -0.19313E-04   -0.19301E-04  8540   0.221E-04 0.102E-04
CGA:  13    -0.132397667281E+04   -0.65250E-05   -0.66361E-05  8540   0.700E-05 0.593E-05
  59 F= -.13239767E+04 E0= -.13239767E+04  d E =-.447963E+00  mag=   126.0000
       N       E                     dE             d eps       ncg     rms          ort
SDA:   1    -0.132271175872E+04    0.12649E+01    0.00000E+00  8540   0.405E+01 0.000E+00
CGA:   2    -0.132352991844E+04   -0.81816E+00   -0.81882E+00  8540   0.158E+01 0.389E-02
CGA:   3    -0.132392368830E+04   -0.39377E+00   -0.39379E+00  8540   0.411E+00-0.484E-03
CGA:   4    -0.132400988141E+04   -0.86193E-01   -0.86152E-01  8540   0.748E-01-0.727E-03
CGA:   5    -0.132402616930E+04   -0.16288E-01   -0.16301E-01  8540   0.167E-01 0.201E-03
CGA:   6    -0.132403028623E+04   -0.41169E-02   -0.41169E-02  8540   0.414E-02-0.553E-05
CGA:   7    -0.132403143862E+04   -0.11524E-02   -0.11519E-02  8540   0.114E-02 0.539E-04
CGA:   8    -0.132403179246E+04   -0.35385E-03   -0.35461E-03  8540   0.370E-03-0.215E-04
CGA:   9    -0.132403191766E+04   -0.12520E-03   -0.12582E-03  8540   0.128E-03-0.843E-05
CGA:  10    -0.132403195405E+04   -0.36390E-04   -0.36087E-04  8540   0.347E-04 0.214E-04
CGA:  11    -0.132403196667E+04   -0.12617E-04   -0.12461E-04  8540   0.990E-05 0.497E-05
CGA:  12    -0.132403197104E+04   -0.43741E-05   -0.44560E-05  8540   0.437E-05-0.716E-06
  60 F= -.13240320E+04 E0= -.13240320E+04  d E =-.552982E-01  mag=   126.0000
       N       E                     dE             d eps       ncg     rms          ort
SDA:   1    -0.132383179612E+04    0.20017E+00    0.00000E+00  8540   0.627E+00 0.000E+00
CGA:   2    -0.132396547985E+04   -0.13368E+00   -0.13377E+00  8540   0.267E+00 0.612E-03
CGA:   3    -0.132403026839E+04   -0.64789E-01   -0.64768E-01  8540   0.626E-01-0.547E-03
CGA:   4    -0.132404316796E+04   -0.12900E-01   -0.12877E-01  8540   0.109E-01-0.268E-03
CGA:   5    -0.132404557121E+04   -0.24032E-02   -0.24106E-02  8540   0.249E-02 0.103E-03
CGA:   6    -0.132404616085E+04   -0.58964E-03   -0.59494E-03  8540   0.572E-03 0.103E-03
CGA:   7    -0.132404632603E+04   -0.16519E-03   -0.16537E-03  8540   0.161E-03 0.244E-04
CGA:   8    -0.132404638404E+04   -0.58008E-04   -0.59725E-04  8540   0.706E-04-0.244E-04
CGA:   9    -0.132404640210E+04   -0.18056E-04   -0.18035E-04  8540   0.213E-04 0.163E-05
CGA:  10    -0.132404640608E+04   -0.39867E-05   -0.45982E-05  8540   0.678E-05 0.784E-05
  61 F= -.13240464E+04 E0= -.13240464E+04  d E =-.144350E-01  mag=   126.0000
       N       E                     dE             d eps       ncg     rms          ort
SDA:   1    -0.132331354800E+04    0.73285E+00    0.00000E+00  8540   0.212E+01 0.000E+00
CGA:   2    -0.132377962184E+04   -0.46607E+00   -0.46630E+00  8540   0.937E+00 0.229E-02
CGA:   3    -0.132400328531E+04   -0.22366E+00   -0.22365E+00  8540   0.211E+00-0.953E-03
CGA:   4    -0.132404639207E+04   -0.43107E-01   -0.43079E-01  8540   0.359E-01-0.446E-03
CGA:   5    -0.132405436897E+04   -0.79769E-02   -0.79868E-02  8540   0.829E-02 0.198E-03
CGA:   6    -0.132405639054E+04   -0.20216E-02   -0.20258E-02  8540   0.197E-02 0.165E-03
CGA:   7    -0.132405694906E+04   -0.55852E-03   -0.55811E-03  8540   0.551E-03 0.373E-04
CGA:   8    -0.132405713533E+04   -0.18626E-03   -0.19005E-03  8540   0.213E-03-0.535E-04
CGA:   9    -0.132405719823E+04   -0.62905E-04   -0.63173E-04  8540   0.680E-04-0.475E-05
CGA:  10    -0.132405721711E+04   -0.18879E-04   -0.18783E-04  8540   0.177E-04 0.110E-04
CGA:  11    -0.132405722140E+04   -0.42878E-05   -0.46180E-05  8540   0.526E-05 0.674E-05
  62 F= -.13240572E+04 E0= -.13240572E+04  d E =-.108153E-01  mag=   126.0000
       N       E                     dE             d eps       ncg     rms          ort
SDA:   1    -0.132377544867E+04    0.28177E+00    0.00000E+00  8540   0.711E+00 0.000E+00
CGA:   2    -0.132398047127E+04   -0.20502E+00   -0.20502E+00  8540   0.341E+00-0.323E-03
CGA:   3    -0.132404644117E+04   -0.65970E-01   -0.65957E-01  8540   0.574E-01-0.199E-03
CGA:   4    -0.132405861498E+04   -0.12174E-01   -0.12169E-01  8540   0.104E-01-0.738E-04
CGA:   5    -0.132406086742E+04   -0.22524E-02   -0.22584E-02  8540   0.222E-02 0.891E-04
CGA:   6    -0.132406143182E+04   -0.56441E-03   -0.56527E-03  8540   0.572E-03 0.305E-04
[...]
CGA:  13    -0.132394778014E+04   -0.30332E-05   -0.32951E-05  8540   0.434E-05 0.597E-05
 109 F= -.13239478E+04 E0= -.13239478E+04  d E =0.212224E-01  mag=   126.0000
       N       E                     dE             d eps       ncg     rms          ort
SDA:   1    -0.127441715780E+04    0.49531E+02    0.00000E+00  8540   0.139E+03 0.000E+00
CGA:   2    -0.130577122959E+04   -0.31354E+02   -0.31395E+02  8540   0.624E+02 0.333E+00
CGA:   3    -0.132015659497E+04   -0.14385E+02   -0.14388E+02  8540   0.132E+02 0.379E-01
CGA:   4    -0.132286970745E+04   -0.27131E+01   -0.27139E+01  8540   0.234E+01 0.272E-02
CGA:   5    -0.132339603624E+04   -0.52633E+00   -0.52632E+00  8540   0.557E+00-0.186E-02
CGA:   6    -0.132353498728E+04   -0.13895E+00   -0.13885E+00  8540   0.146E+00-0.706E-02
CGA:   7    -0.132357486751E+04   -0.39880E-01   -0.39868E-01  8540   0.421E-01 0.852E-03
CGA:   8    -0.132358723374E+04   -0.12366E-01   -0.12319E-01  8540   0.133E-01 0.170E-02
CGA:   9    -0.132359193424E+04   -0.47005E-02   -0.46931E-02  8540   0.436E-02 0.946E-04
CGA:  10    -0.132359344467E+04   -0.15104E-02   -0.15044E-02  8540   0.131E-02 0.818E-04
CGA:  11    -0.132359396677E+04   -0.52209E-03   -0.59705E-03  8540   0.643E-03-0.432E-03
CGA:  12    -0.132359398950E+04   -0.22734E-04   -0.57378E-04  8540   0.319E-03 0.234E-03
CGA:  13    -0.132359400652E+04   -0.17023E-04   -0.49051E-04  8540   0.111E-03 0.199E-03
CGA:  14    -0.132359373520E+04    0.27133E-03   -0.15142E-03  8540   0.140E-02-0.315E-03
CGA:  15    -0.132359390655E+04   -0.17136E-03   -0.26632E-03  8540   0.257E-03 0.324E-03
CGA:  16    -0.132359403544E+04   -0.12888E-03   -0.11702E-03  8540   0.817E-04-0.118E-03
CGA:  17    -0.132359397866E+04    0.56777E-04   -0.54335E-04  8540   0.612E-03-0.145E-03
CGA:  18    -0.132359406827E+04   -0.89608E-04   -0.10642E-03  8540   0.883E-04 0.508E-04
CGA:  19    -0.132359406337E+04    0.48974E-05   -0.13062E-04  8540   0.300E-04 0.513E-04
 110 F= -.13235941E+04 E0= -.13235941E+04  d E =0.353717E+00  mag=   126.0000
       N       E                     dE             d eps       ncg     rms          ort
SDA:   1    -0.131152078082E+04    0.12073E+02    0.00000E+00  8540   0.357E+02 0.000E+00
CGA:   2    -0.131949470260E+04   -0.79739E+01   -0.79968E+01  8540   0.155E+02-0.160E-02
CGA:   3    -0.132305844536E+04   -0.35637E+01   -0.35654E+01  8540   0.334E+01 0.933E-02
CGA:   4    -0.132376187219E+04   -0.70343E+00   -0.70271E+00  8540   0.610E+00-0.347E-02
CGA:   5    -0.132389632183E+04   -0.13445E+00   -0.13486E+00  8540   0.139E+00 0.176E-02
CGA:   6    -0.132393019009E+04   -0.33868E-01   -0.34150E-01  8540   0.362E-01 0.164E-02
CGA:   7    -0.132394039481E+04   -0.10205E-01   -0.10245E-01  8540   0.105E-01 0.312E-03
CGA:   8    -0.132394382902E+04   -0.34342E-02   -0.33833E-02  8540   0.390E-02-0.644E-03
CGA:   9    -0.132394514711E+04   -0.13181E-02   -0.13028E-02  8540   0.138E-02-0.401E-03
CGA:  10    -0.132394547873E+04   -0.33163E-03   -0.34843E-03  8540   0.340E-03 0.153E-03
CGA:  11    -0.132394558948E+04   -0.11075E-03   -0.11349E-03  8540   0.937E-04 0.317E-04
CGA:  12    -0.132394558301E+04    0.64675E-05   -0.10154E-03  8540   0.451E-03-0.178E-03
CGA:  13    -0.132394566558E+04   -0.82563E-04   -0.95591E-04  8540   0.488E-04 0.648E-04
CGA:  14    -0.132394567254E+04   -0.69671E-05   -0.49776E-04  8540   0.180E-03-0.876E-04
CGA:  15    -0.132394568487E+04   -0.12330E-04   -0.28797E-04  8540   0.386E-04 0.617E-04
CGA:  16    -0.132394569960E+04   -0.14724E-04   -0.14168E-04  8540   0.612E-05-0.400E-05
CGA:  17    -0.132394571216E+04   -0.12560E-04    0.61474E-06  8540   0.949E-05-0.507E-05
CGA:  18    -0.132394570974E+04    0.24198E-05   -0.31766E-06  8540   0.570E-05 0.734E-05
 111 F= -.13239457E+04 E0= -.13239457E+04  d E =-.351646E+00  mag=   126.0000
       N       E                     dE             d eps       ncg     rms          ort
SDA:   1    -0.132337023398E+04    0.57548E+00    0.00000E+00  8540   0.159E+01 0.000E+00
CGA:   2    -0.132376770585E+04   -0.39747E+00   -0.39776E+00  8540   0.758E+00 0.155E-02
CGA:   3    -0.132392939344E+04   -0.16169E+00   -0.16152E+00  8540   0.143E+00-0.139E-02
CGA:   4    -0.132395942297E+04   -0.30030E-01   -0.29847E-01  8540   0.263E-01-0.126E-02
CGA:   5    -0.132396494866E+04   -0.55257E-02   -0.56080E-02  8540   0.574E-02 0.607E-03
CGA:   6    -0.132396619773E+04   -0.12491E-02   -0.13202E-02  8540   0.135E-02 0.603E-03
CGA:   7    -0.132396660615E+04   -0.40842E-03   -0.41271E-03  8540   0.421E-03 0.715E-04
CGA:   8    -0.132396678526E+04   -0.17911E-03   -0.22819E-03  8540   0.496E-03-0.271E-03
CGA:   9    -0.132396686929E+04   -0.84031E-04   -0.91543E-04  8540   0.542E-04 0.474E-04
CGA:  10    -0.132396687671E+04   -0.74117E-05   -0.11203E-04  8540   0.163E-04 0.260E-04
 112 F= -.13239669E+04 E0= -.13239669E+04  d E =-.211670E-01  mag=   126.0000
       N       E                     dE             d eps       ncg     rms          ort
SDA:   1    -0.131624037470E+04    0.77265E+01    0.00000E+00  8540   0.201E+02 0.000E+00
CGA:   2    -0.132139150756E+04   -0.51511E+01   -0.51531E+01  8540   0.100E+02 0.101E-01
CGA:   3    -0.132350929699E+04   -0.21178E+01   -0.21177E+01  8540   0.179E+01-0.382E-02
CGA:   4    -0.132387575229E+04   -0.36646E+00   -0.36616E+00  8540   0.324E+00-0.270E-02
CGA:   5    -0.132394795631E+04   -0.72204E-01   -0.72382E-01  8540   0.747E-01 0.193E-02
CGA:   6    -0.132396592924E+04   -0.17973E-01   -0.18067E-01  8540   0.182E-01 0.138E-02
CGA:   7    -0.132397106557E+04   -0.51363E-02   -0.51380E-02  8540   0.550E-02 0.589E-04
CGA:   8    -0.132397291683E+04   -0.18513E-02   -0.18708E-02  8540   0.223E-02-0.534E-03
CGA:   9    -0.132397362308E+04   -0.70625E-03   -0.72236E-03  8540   0.794E-03-0.301E-03
CGA:  10    -0.132397379934E+04   -0.17626E-03   -0.18065E-03  8540   0.190E-03 0.995E-04
CGA:  11    -0.132397386997E+04   -0.70628E-04   -0.71059E-04  8540   0.650E-04-0.162E-04
CGA:  12    -0.132397391299E+04   -0.43024E-04    0.50561E-04  8540   0.220E-04 0.190E-05
CGA:  13    -0.132397393603E+04   -0.23039E-04    0.52122E-05  8540   0.778E-05 0.364E-05
CGA:  14    -0.132397394956E+04   -0.13528E-04    0.96673E-06  8540   0.319E-05 0.180E-05
CGA:  15    -0.132397395844E+04   -0.88786E-05    0.22420E-06  8540   0.123E-05 0.932E-06
 113 F= -.13239740E+04 E0= -.13239740E+04  d E =-.708173E-02  mag=   126.0000
       N       E                     dE             d eps       ncg     rms          ort
SDA:   1    -0.131369566193E+04    0.10278E+02    0.00000E+00  8540   0.258E+02 0.000E+00
CGA:   2    -0.132067643243E+04   -0.69808E+01   -0.69816E+01  8540   0.134E+02 0.600E-02
CGA:   3    -0.132339052055E+04   -0.27141E+01   -0.27144E+01  8540   0.216E+01-0.482E-03
CGA:   4    -0.132382812173E+04   -0.43760E+00   -0.43771E+00  8540   0.396E+00 0.681E-03
CGA:   5    -0.132391753860E+04   -0.89417E-01   -0.89509E-01  8540   0.920E-01 0.124E-02
CGA:   6    -0.132393981406E+04   -0.22275E-01   -0.22285E-01  8540   0.222E-01 0.176E-03
CGA:   7    -0.132394590153E+04   -0.60875E-02   -0.60896E-02  8540   0.671E-02 0.136E-03
CGA:   8    -0.132394802045E+04   -0.21189E-02   -0.21210E-02  8540   0.236E-02-0.813E-04
CGA:   9    -0.132394884518E+04   -0.82473E-03   -0.83701E-03  8540   0.812E-03-0.178E-03
CGA:  10    -0.132394906074E+04   -0.21557E-03   -0.21594E-03  8540   0.191E-03 0.722E-04
CGA:  11    -0.132394913856E+04   -0.77815E-04   -0.83129E-04  8540   0.736E-04-0.494E-04
CGA:  12    -0.132394915341E+04   -0.14850E-04   -0.14988E-04  8540   0.236E-04 0.595E-05
CGA:  13    -0.132394899121E+04    0.16220E-03   -0.87336E-04  8540   0.648E-03-0.130E-03
CGA:  14    -0.132394915554E+04   -0.16433E-03   -0.17738E-03  8540   0.516E-04 0.488E-04
CGA:  15    -0.132394915294E+04    0.26008E-05   -0.53619E-04  8540   0.454E-03-0.128E-03
CGA:  16    -0.132394916733E+04   -0.14386E-04   -0.58998E-04  8540   0.557E-04 0.107E-03
CGA:  17    -0.132394917009E+04   -0.27573E-05   -0.11027E-04  8540   0.198E-04 0.224E-04
CGA:  18    -0.132394918388E+04   -0.13790E-04   -0.14984E-04  8540   0.495E-04-0.426E-04
CGA:  19    -0.132394918030E+04    0.35777E-05   -0.60390E-05  8540   0.148E-04 0.247E-04
 114 F= -.13239492E+04 E0= -.13239492E+04  d E =0.247781E-01  mag=   126.0000
       N       E                     dE             d eps       ncg     rms          ort
SDA:   1    -0.127992335506E+04    0.44026E+02    0.00000E+00  8540   0.116E+03 0.000E+00
CGA:   2    -0.130929123602E+04   -0.29368E+02   -0.29445E+02  8540   0.554E+02 0.138E-01
CGA:   3    -0.132098597070E+04   -0.11695E+02   -0.11709E+02  8540   0.101E+02 0.148E+00
CGA:   4    -0.132308596926E+04   -0.21000E+01   -0.21038E+01  8540   0.187E+01 0.965E-02
CGA:   5    -0.132350534497E+04   -0.41938E+00   -0.41925E+00  8540   0.446E+00-0.202E-02
CGA:   6    -0.132361792812E+04   -0.11258E+00   -0.11184E+00  8540   0.121E+00-0.440E-02
CGA:   7    -0.132365073707E+04   -0.32809E-01   -0.32921E-01  8540   0.362E-01 0.762E-03
CGA:   8    -0.132366138142E+04   -0.10644E-01   -0.10832E-01  8540   0.115E-01 0.164E-02
CGA:   9    -0.132366532025E+04   -0.39388E-02   -0.39677E-02  8540   0.348E-02 0.378E-03
CGA:  10    -0.132366652512E+04   -0.12049E-02   -0.12094E-02  8540   0.991E-03 0.700E-04
CGA:  11    -0.132366687719E+04   -0.35207E-03   -0.35070E-03  8540   0.281E-03-0.269E-04
CGA:  12    -0.132366689278E+04   -0.15590E-04   -0.47194E-04  8540   0.107E-03 0.142E-03
CGA:  13    -0.132366690216E+04   -0.93772E-05   -0.20622E-04  8540   0.406E-04 0.588E-04
 115 F= -.13236669E+04 E0= -.13236669E+04  d E =0.282278E+00  mag=   126.0000
       N       E                     dE             d eps       ncg     rms          ort
SDA:   1    -0.131537379169E+04    0.82931E+01    0.00000E+00  8540   0.253E+02 0.000E+00
CGA:   2    -0.132076223952E+04   -0.53884E+01   -0.54108E+01  8540   0.105E+02 0.107E-01
CGA:   3    -0.132326594491E+04   -0.25037E+01   -0.25038E+01  8540   0.243E+01 0.496E-02
CGA:   4    -0.132377983771E+04   -0.51389E+00   -0.51323E+00  8540   0.455E+00-0.510E-02
CGA:   5    -0.132387749737E+04   -0.97660E-01   -0.98000E-01  8540   0.101E+00 0.234E-02
CGA:   6    -0.132390183326E+04   -0.24336E-01   -0.24570E-01  8540   0.258E-01 0.242E-02
CGA:   7    -0.132390907392E+04   -0.72407E-02   -0.72702E-02  8540   0.747E-02 0.501E-03
CGA:   8    -0.132391160327E+04   -0.25293E-02   -0.25307E-02  8540   0.294E-02-0.743E-03
CGA:   9    -0.132391256145E+04   -0.95818E-03   -0.97658E-03  8540   0.116E-02-0.483E-03
CGA:  10    -0.132391278929E+04   -0.22784E-03   -0.24288E-03  8540   0.303E-03 0.181E-03
CGA:  11    -0.132391285664E+04   -0.67356E-04   -0.77161E-04  8540   0.925E-04 0.907E-04
CGA:  12    -0.132391290456E+04   -0.47918E-04   -0.55760E-04  8540   0.827E-04-0.558E-04
CGA:  13    -0.132391292389E+04   -0.19329E-04   -0.20211E-04  8540   0.112E-04 0.103E-04
CGA:  14    -0.132391294841E+04   -0.24521E-04    0.10329E-05  8540   0.363E-05 0.184E-05
CGA:  15    -0.132391295465E+04   -0.62417E-05    0.54595E-06  8540   0.175E-05 0.167E-05
 116 F= -.13239130E+04 E0= -.13239130E+04  d E =-.246052E+00  mag=   126.0000
       N       E                     dE             d eps       ncg     rms          ort
SDA:   1    -0.132347698266E+04    0.43597E+00    0.00000E+00  8540   0.118E+01 0.000E+00
CGA:   2    -0.132377647208E+04   -0.29949E+00   -0.29965E+00  8540   0.573E+00 0.158E-02
CGA:   3    -0.132389837071E+04   -0.12190E+00   -0.12177E+00  8540   0.106E+00-0.146E-02
CGA:   4    -0.132392075313E+04   -0.22382E-01   -0.22215E-01  8540   0.197E-01-0.158E-02
CGA:   5    -0.132392478784E+04   -0.40347E-02   -0.40947E-02  8540   0.425E-02 0.595E-03
CGA:   6    -0.132392568599E+04   -0.89815E-03   -0.95189E-03  8540   0.964E-03 0.603E-03
CGA:   7    -0.132392599362E+04   -0.30763E-03   -0.30846E-03  8540   0.326E-03 0.381E-04
CGA:   8    -0.132392605184E+04   -0.58218E-04   -0.24455E-03  8540   0.988E-03-0.442E-03
CGA:   9    -0.132392621802E+04   -0.16618E-03   -0.17845E-03  8540   0.999E-04 0.867E-04
CGA:  10    -0.132392622794E+04   -0.99240E-05   -0.17926E-04  8540   0.325E-04 0.534E-04
CGA:  11    -0.132392624309E+04   -0.15151E-04   -0.16487E-04  8540   0.192E-04-0.671E-05
CGA:  12    -0.132392625334E+04   -0.10243E-04    0.42233E-04  8540   0.362E-05-0.397E-05
CGA:  13    -0.132392626052E+04   -0.71859E-05    0.15464E-06  8540   0.124E-05 0.833E-06
 117 F= -.13239263E+04 E0= -.13239263E+04  d E =-.133059E-01  mag=   126.0000
       N       E                     dE             d eps       ncg     rms          ort
SDA:   1    -0.130924050104E+04    0.14686E+02    0.00000E+00  8540   0.380E+02 0.000E+00
CGA:   2    -0.131908027922E+04   -0.98398E+01   -0.98435E+01  8540   0.189E+02 0.233E-01
CGA:   3    -0.132305039162E+04   -0.39701E+01   -0.39704E+01  8540   0.333E+01-0.466E-02
CGA:   4    -0.132373249064E+04   -0.68210E+00   -0.68164E+00  8540   0.607E+00-0.431E-02
CGA:   5    -0.132386712744E+04   -0.13464E+00   -0.13492E+00  8540   0.141E+00 0.338E-02
CGA:   6    -0.132390105772E+04   -0.33930E-01   -0.34076E-01  8540   0.345E-01 0.244E-02
CGA:   7    -0.132391069210E+04   -0.96344E-02   -0.96396E-02  8540   0.105E-01 0.221E-03
CGA:   8    -0.132391413068E+04   -0.34386E-02   -0.34583E-02  8540   0.401E-02-0.620E-03
CGA:   9    -0.132391541992E+04   -0.12892E-02   -0.13034E-02  8540   0.132E-02-0.298E-03
CGA:  10    -0.132391571973E+04   -0.29980E-03   -0.31061E-03  8540   0.316E-03 0.241E-03
CGA:  11    -0.132391581528E+04   -0.95558E-04   -0.97793E-04  8540   0.868E-04 0.619E-04
CGA:  12    -0.132391584236E+04   -0.27078E-04   -0.72964E-04  8540   0.192E-03-0.113E-03
CGA:  13    -0.132391587472E+04   -0.32354E-04   -0.37942E-04  8540   0.252E-04 0.473E-04
CGA:  14    -0.132391587490E+04   -0.18148E-06   -0.26411E-04  8540   0.867E-04-0.493E-04
CGA:  15    -0.132391589820E+04   -0.23298E-04   -0.23840E-04  8540   0.673E-05 0.876E-05
CGA:  16    -0.132391590466E+04   -0.64660E-05    0.40128E-05  8540   0.266E-05-0.143E-05
 118 F= -.13239159E+04 E0= -.13239159E+04  d E =0.103559E-01  mag=   126.0000
       N       E                     dE             d eps       ncg     rms          ort
SDA:   1    -0.129690284772E+04    0.27013E+02    0.00000E+00  8540   0.686E+02 0.000E+00
CGA:   2    -0.131506085384E+04   -0.18158E+02   -0.18164E+02  8540   0.353E+02 0.367E-01
CGA:   3    -0.132235382350E+04   -0.72930E+01   -0.72952E+01  8540   0.583E+01 0.841E-02
CGA:   4    -0.132353563470E+04   -0.11818E+01   -0.11821E+01  8540   0.108E+01 0.150E-02
CGA:   5    -0.132377953614E+04   -0.24390E+00   -0.24412E+00  8540   0.255E+00 0.241E-02
CGA:   6    -0.132384095200E+04   -0.61416E-01   -0.61427E-01  8540   0.629E-01 0.128E-03
CGA:   7    -0.132385813862E+04   -0.17187E-01   -0.17194E-01  8540   0.193E-01 0.276E-03
CGA:   8    -0.132386413157E+04   -0.59929E-02   -0.59951E-02  8540   0.673E-02-0.170E-03
CGA:   9    -0.132386648753E+04   -0.23560E-02   -0.23841E-02  8540   0.231E-02-0.473E-03
CGA:  10    -0.132386713490E+04   -0.64738E-03   -0.64735E-03  8540   0.563E-03 0.120E-03
CGA:  11    -0.132386735836E+04   -0.22346E-03   -0.23682E-03  8540   0.203E-03-0.135E-03
CGA:  12    -0.132386741634E+04   -0.57984E-04   -0.61644E-04  8540   0.796E-04-0.393E-04
CGA:  13    -0.132386746283E+04   -0.46482E-04    0.60077E-04  8540   0.246E-04 0.709E-05
CGA:  14    -0.132386748323E+04   -0.20403E-04    0.18241E-04  8540   0.892E-05 0.350E-05
CGA:  15    -0.132386749096E+04   -0.77267E-05    0.71147E-05  8540   0.293E-05 0.139E-05
 119 F= -.13238675E+04 E0= -.13238675E+04  d E =0.484137E-01  mag=   126.0000
       N       E                     dE             d eps       ncg     rms          ort
SDA:   1    -0.129107711777E+04    0.32790E+02    0.00000E+00  8540   0.870E+02 0.000E+00
CGA:   2    -0.131292601229E+04   -0.21849E+02   -0.21861E+02  8540   0.412E+02 0.563E-01
CGA:   3    -0.132167207441E+04   -0.87461E+01   -0.87491E+01  8540   0.771E+01 0.240E-01
CGA:   4    -0.132327174643E+04   -0.15997E+01   -0.16014E+01  8540   0.142E+01 0.126E-01
CGA:   5    -0.132358578095E+04   -0.31403E+00   -0.31386E+00  8540   0.337E+00-0.312E-02
CGA:   6    -0.132367144632E+04   -0.85665E-01   -0.85372E-01  8540   0.948E-01-0.738E-02
CGA:   7    -0.132369651176E+04   -0.25065E-01   -0.25075E-01  8540   0.282E-01 0.435E-03
CGA:   8    -0.132370450217E+04   -0.79904E-02   -0.80067E-02  8540   0.846E-02 0.205E-02
CGA:   9    -0.132370747480E+04   -0.29726E-02   -0.29572E-02  8540   0.263E-02 0.437E-03
CGA:  10    -0.132370847081E+04   -0.99600E-03   -0.10053E-02  8540   0.904E-03-0.131E-03
CGA:  11    -0.132370880286E+04   -0.33206E-03   -0.37419E-03  8540   0.449E-03-0.302E-03
CGA:  12    -0.132370882037E+04   -0.17505E-04   -0.42450E-04  8540   0.213E-03 0.155E-03
CGA:  13    -0.132370882793E+04   -0.75594E-05   -0.31961E-04  8540   0.762E-04 0.133E-03
CGA:  14    -0.132370885475E+04   -0.26822E-04   -0.25634E-04  8540   0.181E-04 0.234E-04
CGA:  15    -0.132370885329E+04    0.14569E-05   -0.22875E-05  8540   0.132E-04 0.195E-04
 120 F= -.13237089E+04 E0= -.13237089E+04  d E =0.158638E+00  mag=   126.0000
       N       E                     dE             d eps       ncg     rms          ort
SDA:   1    -0.131962089727E+04    0.40880E+01    0.00000E+00  8540   0.126E+02 0.000E+00
CGA:   2    -0.132230691278E+04   -0.26860E+01   -0.26876E+01  8540   0.538E+01 0.134E-01
CGA:   3    -0.132360311349E+04   -0.12962E+01   -0.12963E+01  8540   0.126E+01-0.584E-03
CGA:   4    -0.132386343365E+04   -0.26032E+00   -0.26004E+00  8540   0.226E+00-0.504E-02
CGA:   5    -0.132391270011E+04   -0.49266E-01   -0.49326E-01  8540   0.521E-01 0.128E-02
CGA:   6    -0.132392500258E+04   -0.12302E-01   -0.12343E-01  8540   0.129E-01 0.159E-02
CGA:   7    -0.132392863510E+04   -0.36325E-02   -0.36287E-02  8540   0.382E-02 0.280E-03
CGA:   8    -0.132392993884E+04   -0.13037E-02   -0.13660E-02  8540   0.175E-02-0.692E-03
CGA:   9    -0.132393044218E+04   -0.50334E-03   -0.59593E-03  8540   0.971E-03-0.615E-03
CGA:  10    -0.132393057805E+04   -0.13587E-03   -0.14116E-03  8540   0.318E-03 0.110E-03
CGA:  11    -0.132393063688E+04   -0.58836E-04   -0.66038E-04  8540   0.113E-03 0.864E-04
CGA:  12    -0.132393068120E+04   -0.44321E-04   -0.45137E-04  8540   0.580E-04-0.169E-04
CGA:  13    -0.132393063483E+04    0.46374E-04   -0.51067E-04  8540   0.302E-03-0.127E-03
CGA:  14    -0.132393073502E+04   -0.10019E-03   -0.10228E-03  8540   0.985E-04-0.640E-04
CGA:  15    -0.132393074250E+04   -0.74778E-05   -0.12560E-04  8540   0.315E-04 0.348E-04
 121 F= -.13239307E+04 E0= -.13239307E+04  d E =-.221889E+00  mag=   126.0000
       N       E                     dE             d eps       ncg     rms          ort
SDA:   1    -0.132291724261E+04    0.10135E+01    0.00000E+00  8540   0.288E+01 0.000E+00
CGA:   2    -0.132358077177E+04   -0.66353E+00   -0.66388E+00  8540   0.133E+01 0.364E-02
CGA:   3    -0.132388323215E+04   -0.30246E+00   -0.30238E+00  8540   0.277E+00-0.200E-02
CGA:   4    -0.132394074003E+04   -0.57508E-01   -0.57307E-01  8540   0.503E-01-0.252E-02
CGA:   5    -0.132395144658E+04   -0.10707E-01   -0.10765E-01  8540   0.113E-01 0.849E-03
CGA:   6    -0.132395398259E+04   -0.25360E-02   -0.25916E-02  8540   0.263E-02 0.991E-03
CGA:   7    -0.132395475472E+04   -0.77213E-03   -0.77317E-03  8540   0.797E-03 0.136E-03
CGA:   8    -0.132395506353E+04   -0.30881E-03   -0.39886E-03  8540   0.810E-03-0.455E-03
CGA:   9    -0.132395521437E+04   -0.15084E-03   -0.15511E-03  8540   0.986E-04 0.443E-04
CGA:  10    -0.132395523470E+04   -0.20327E-04   -0.22695E-04  8540   0.259E-04 0.366E-04
CGA:  11    -0.132395521751E+04    0.17190E-04   -0.38334E-04  8540   0.201E-03-0.695E-04
CGA:  12    -0.132395527835E+04   -0.60842E-04   -0.59813E-04  8540   0.472E-04-0.476E-04
CGA:  13    -0.132395528941E+04   -0.11058E-04   -0.11078E-04  8540   0.372E-05 0.175E-05
CGA:  14    -0.132395528971E+04   -0.30112E-06   -0.57128E-06  8540   0.892E-06 0.159E-05
