       N       E                     dE             d eps       ncg     rms          rms(c)
DAV:   1     0.565550501149E+04    0.56555E+04   -0.21049E+05137745   0.157E+03
DAV:   2     0.310376364037E+03   -0.53451E+04   -0.48531E+04134925   0.474E+02
DAV:   3    -0.449577981804E+03   -0.75995E+03   -0.72154E+03143235   0.188E+02
DAV:   4    -0.483955768799E+03   -0.34378E+02   -0.34018E+02150510   0.413E+01
DAV:   5    -0.484352667322E+03   -0.39690E+00   -0.39623E+00148770   0.486E+00    0.114E+02
DAV:   6    -0.408539155741E+03    0.75814E+02   -0.53529E+02162210   0.893E+01    0.111E+02
DAV:   7    -0.398427976692E+03    0.10111E+02   -0.29488E+02150900   0.893E+01    0.602E+01
DAV:   8    -0.388493642687E+03    0.99343E+01   -0.63878E+01157650   0.288E+01    0.334E+01
DAV:   9    -0.388847166185E+03   -0.35352E+00   -0.15126E+01156795   0.162E+01    0.247E+01
DAV:  10    -0.389096537887E+03   -0.24937E+00   -0.63278E+00146700   0.125E+01    0.195E+01
DAV:  11    -0.389171394234E+03   -0.74856E-01   -0.29060E+00146160   0.601E+00    0.115E+01
DAV:  12    -0.389052156801E+03    0.11924E+00   -0.87033E-01160140   0.384E+00    0.620E+00
DAV:  13    -0.389038998749E+03    0.13158E-01   -0.43585E-01156375   0.311E+00    0.431E+00
DAV:  14    -0.389053071034E+03   -0.14072E-01   -0.12840E-01146460   0.169E+00    0.148E+00
DAV:  15    -0.389059087591E+03   -0.60166E-02   -0.28453E-02153810   0.779E-01    0.953E-01
DAV:  16    -0.389059748945E+03   -0.66135E-03   -0.95415E-03146670   0.470E-01    0.578E-01
DAV:  17    -0.389060276864E+03   -0.52792E-03   -0.24006E-03147345   0.180E-01    0.339E-01
DAV:  18    -0.389060392589E+03   -0.11573E-03   -0.64606E-04149130   0.113E-01    0.189E-01
DAV:  19    -0.389060459190E+03   -0.66601E-04   -0.36436E-04142650   0.729E-02    0.954E-02
DAV:  20    -0.389060499773E+03   -0.40583E-04   -0.84622E-05142680   0.415E-02    0.366E-02
DAV:  21    -0.389060520750E+03   -0.20977E-04   -0.36207E-05120705   0.183E-02    0.243E-02
DAV:  22    -0.389060529015E+03   -0.82655E-05   -0.12308E-05 87285   0.139E-02
   1 F= -.38906053E+03 E0= -.38905143E+03  d E =-.389061E+03  mag=    55.0010
       N       E                     dE             d eps       ncg     rms          rms(c)
DAV:   1    -0.388236865523E+03    0.82366E+00   -0.87728E+01186060   0.532E+01    0.852E+00
DAV:   2    -0.389250904342E+03   -0.10140E+01   -0.13872E+01145440   0.111E+01    0.759E+00
DAV:   3    -0.389239150985E+03    0.11753E-01   -0.15358E+00143565   0.562E+00    0.521E+00
DAV:   4    -0.389199711350E+03    0.39440E-01   -0.23542E-01150375   0.155E+00    0.253E+00
DAV:   5    -0.389185871283E+03    0.13840E-01   -0.84267E-02151095   0.134E+00    0.299E+00
DAV:   6    -0.389181115607E+03    0.47557E-02   -0.35241E-02148290   0.795E-01    0.748E-01
DAV:   7    -0.389180047402E+03    0.10682E-02   -0.84917E-03148650   0.408E-01    0.429E-01
DAV:   8    -0.389180248120E+03   -0.20072E-03   -0.19934E-03150000   0.147E-01    0.233E-01
DAV:   9    -0.389180266324E+03   -0.18204E-04   -0.46301E-04152760   0.928E-02    0.148E-01
DAV:  10    -0.389180284889E+03   -0.18565E-04   -0.20279E-04149190   0.553E-02    0.679E-02
DAV:  11    -0.389180284653E+03    0.23613E-06   -0.39062E-05128085   0.259E-02
   2 F= -.38918028E+03 E0= -.38917215E+03  d E =-.119756E+00  mag=    55.0000
       N       E                     dE             d eps       ncg     rms          rms(c)
DAV:   1    -0.389114863886E+03    0.65421E-01   -0.74859E+00178800   0.156E+01    0.245E+00
DAV:   2    -0.389212928796E+03   -0.98065E-01   -0.13016E+00144855   0.329E+00    0.201E+00
DAV:   3    -0.389212111586E+03    0.81721E-03   -0.12643E-01143205   0.162E+00    0.153E+00
DAV:   4    -0.389208314140E+03    0.37974E-02   -0.18157E-02155655   0.442E-01    0.607E-01
DAV:   5    -0.389207043012E+03    0.12711E-02   -0.59370E-03152055   0.376E-01    0.797E-01
DAV:   6    -0.389206776000E+03    0.26701E-03   -0.31100E-03153915   0.225E-01    0.278E-01
DAV:   7    -0.389206683556E+03    0.92444E-04   -0.67681E-04148215   0.117E-01    0.135E-01
DAV:   8    -0.389206701077E+03   -0.17521E-04   -0.17726E-04148425   0.473E-02    0.757E-02
DAV:   9    -0.389206704098E+03   -0.30205E-05   -0.41483E-05132105   0.277E-02
   3 F= -.38920670E+03 E0= -.38919848E+03  d E =-.146175E+00  mag=    55.0000
       N       E                     dE             d eps       ncg     rms          rms(c)
DAV:   1    -0.389046251036E+03    0.16045E+00   -0.21820E+01150270   0.193E+01    0.252E+00
DAV:   2    -0.389261434952E+03   -0.21518E+00   -0.21958E+00147465   0.387E+00    0.235E+00
DAV:   3    -0.389268514619E+03   -0.70797E-02   -0.11169E-01144435   0.130E+00    0.235E+00
DAV:   4    -0.389264366007E+03    0.41486E-02   -0.18870E-02152040   0.542E-01    0.749E-01
DAV:   5    -0.389261645906E+03    0.27201E-02   -0.44463E-03157125   0.298E-01    0.585E-01
DAV:   6    -0.389260475962E+03    0.11699E-02   -0.41364E-03159135   0.270E-01    0.261E-01
DAV:   7    -0.389260554730E+03   -0.78768E-04   -0.10928E-03145920   0.147E-01    0.171E-01
DAV:   8    -0.389260571204E+03   -0.16474E-04   -0.19878E-04144855   0.607E-02    0.945E-02
DAV:   9    -0.389260582483E+03   -0.11279E-04   -0.56667E-05137970   0.304E-02    0.573E-02
DAV:  10    -0.389260584416E+03   -0.19330E-05   -0.20144E-05 98115   0.220E-02
   4 F= -.38926058E+03 E0= -.38925252E+03  d E =-.538803E-01  mag=    55.0000
       N       E                     dE             d eps       ncg     rms          rms(c)
DAV:   1    -0.389233857001E+03    0.26725E-01   -0.31465E+00149925   0.733E+00    0.968E-01
DAV:   2    -0.389264949231E+03   -0.31092E-01   -0.31745E-01147720   0.148E+00    0.101E+00
DAV:   3    -0.389266040354E+03   -0.10911E-02   -0.18387E-02144705   0.527E-01    0.104E+00
DAV:   4    -0.389265338414E+03    0.70194E-03   -0.28834E-03150315   0.213E-01    0.291E-01
DAV:   5    -0.389264954435E+03    0.38398E-03   -0.63963E-04157695   0.113E-01    0.236E-01
DAV:   6    -0.389264774914E+03    0.17952E-03   -0.63537E-04155520   0.107E-01    0.119E-01
DAV:   7    -0.389264787364E+03   -0.12450E-04   -0.17243E-04145140   0.536E-02    0.677E-02
DAV:   8    -0.389264790349E+03   -0.29850E-05   -0.28098E-05122340   0.213E-02
   5 F= -.38926479E+03 E0= -.38925668E+03  d E =-.580863E-01  mag=    55.0000
       N       E                     dE             d eps       ncg     rms          rms(c)
DAV:   1    -0.389057351419E+03    0.20744E+00   -0.19256E+01161850   0.202E+01    0.313E+00
DAV:   2    -0.389300691925E+03   -0.24334E+00   -0.23740E+00145275   0.410E+00    0.532E+00
DAV:   3    -0.389311601540E+03   -0.10910E-01   -0.27959E-01144960   0.196E+00    0.364E+00
DAV:   4    -0.389308025198E+03    0.35763E-02   -0.17082E-02146925   0.566E-01    0.163E+00
DAV:   5    -0.389305999078E+03    0.20261E-02   -0.45630E-03158055   0.289E-01    0.862E-01
DAV:   6    -0.389305418539E+03    0.58054E-03   -0.39362E-03153555   0.264E-01    0.288E-01
DAV:   7    -0.389305600314E+03   -0.18178E-03   -0.10418E-03142035   0.112E-01    0.268E-01
DAV:   8    -0.389305612645E+03   -0.12331E-04   -0.18167E-04149265   0.570E-02    0.102E-01
DAV:   9    -0.389305624182E+03   -0.11537E-04   -0.68819E-05148215   0.295E-02    0.555E-02
DAV:  10    -0.389305624236E+03   -0.54337E-07   -0.26163E-05101280   0.224E-02
   6 F= -.38930562E+03 E0= -.38929801E+03  d E =-.408339E-01  mag=    55.0000
       N       E                     dE             d eps       ncg     rms          rms(c)
DAV:   1    -0.389179003240E+03    0.12662E+00   -0.10491E+01159675   0.149E+01    0.231E+00
DAV:   2    -0.389312510057E+03   -0.13351E+00   -0.12971E+00145755   0.298E+00    0.375E+00
DAV:   3    -0.389318817085E+03   -0.63070E-02   -0.13525E-01145050   0.143E+00    0.273E+00
DAV:   4    -0.389316798435E+03    0.20187E-02   -0.87752E-03148590   0.408E-01    0.132E+00
DAV:   5    -0.389315660983E+03    0.11375E-02   -0.22634E-03157080   0.218E-01    0.780E-01
DAV:   6    -0.389315283641E+03    0.37734E-03   -0.26161E-03154740   0.214E-01    0.207E-01
DAV:   7    -0.389315413405E+03   -0.12976E-03   -0.66425E-04142005   0.895E-02    0.229E-01
DAV:   8    -0.389315416308E+03   -0.29031E-05   -0.10651E-04147960   0.468E-02    0.926E-02
DAV:   9    -0.389315421313E+03   -0.50044E-05   -0.42207E-05126765   0.263E-02
   7 F= -.38931542E+03 E0= -.38930883E+03  d E =-.506310E-01  mag=    55.0000
       N       E                     dE             d eps       ncg     rms          rms(c)
DAV:   1    -0.389194185616E+03    0.12123E+00   -0.19030E+01148425   0.166E+01    0.346E+00
DAV:   2    -0.389357377005E+03   -0.16319E+00   -0.16079E+00148365   0.370E+00    0.362E+00
DAV:   3    -0.389367707369E+03   -0.10330E-01   -0.16792E-01144990   0.186E+00    0.237E+00
DAV:   4    -0.389364329690E+03    0.33777E-02   -0.13701E-02149295   0.509E-01    0.119E+00
DAV:   5    -0.389362942099E+03    0.13876E-02   -0.65449E-03156915   0.450E-01    0.625E-01
DAV:   6    -0.389362850364E+03    0.91736E-04   -0.44133E-03151290   0.335E-01    0.308E-01
DAV:   7    -0.389362861934E+03   -0.11571E-04   -0.82392E-04145560   0.147E-01    0.116E-01
DAV:   8    -0.389362871264E+03   -0.93293E-05   -0.16129E-04147135   0.441E-02    0.655E-02
DAV:   9    -0.389362877195E+03   -0.59315E-05   -0.28605E-05132360   0.245E-02
   8 F= -.38936288E+03 E0= -.38936113E+03  d E =-.474559E-01  mag=    55.0000
       N       E                     dE             d eps       ncg     rms          rms(c)
DAV:   1    -0.387813884759E+03    0.15490E+01   -0.17011E+02147180   0.499E+01    0.617E+00
DAV:   2    -0.389318221878E+03   -0.15043E+01   -0.14898E+01148005   0.980E+00    0.445E+00
DAV:   3    -0.389350023549E+03   -0.31802E-01   -0.58752E-01142185   0.314E+00    0.285E+00
DAV:   4    -0.389332984037E+03    0.17040E-01   -0.50420E-02161670   0.109E+00    0.137E+00
DAV:   5    -0.389318856664E+03    0.14127E-01   -0.27639E-02155850   0.592E-01    0.717E-01
DAV:   6    -0.389318615705E+03    0.24096E-03   -0.11074E-02159960   0.315E-01    0.356E-01
DAV:   7    -0.389318793064E+03   -0.17736E-03   -0.19386E-03144240   0.174E-01    0.208E-01
DAV:   8    -0.389318811574E+03   -0.18509E-04   -0.29404E-04147300   0.932E-02    0.124E-01
DAV:   9    -0.389318826130E+03   -0.14556E-04   -0.11650E-04149880   0.598E-02    0.543E-02
DAV:  10    -0.389318828689E+03   -0.25597E-05   -0.29515E-05127530   0.258E-02
   9 F= -.38931883E+03 E0= -.38931881E+03  d E =-.340738E-02  mag=    55.0000
       N       E                     dE             d eps       ncg     rms          rms(c)
DAV:   1    -0.388723177162E+03    0.59565E+00   -0.76903E+01151635   0.336E+01    0.408E+00
DAV:   2    -0.389396180070E+03   -0.67300E+00   -0.67114E+00149145   0.669E+00    0.334E+00
DAV:   3    -0.389407279780E+03   -0.11100E-01   -0.29935E-01142470   0.237E+00    0.214E+00
DAV:   4    -0.389398618905E+03    0.86609E-02   -0.26032E-02160350   0.688E-01    0.985E-01
DAV:   5    -0.389391283130E+03    0.73358E-02   -0.15487E-02156675   0.462E-01    0.494E-01
DAV:   6    -0.389391196874E+03    0.86256E-04   -0.60190E-03159930   0.274E-01    0.345E-01
DAV:   7    -0.389391214205E+03   -0.17331E-04   -0.14352E-03144495   0.164E-01    0.178E-01
DAV:   8    -0.389391211386E+03    0.28192E-05   -0.25466E-04146895   0.697E-02    0.934E-02
DAV:   9    -0.389391224278E+03   -0.12892E-04   -0.64041E-05149385   0.358E-02    0.461E-02
DAV:  10    -0.389391227235E+03   -0.29575E-05   -0.17921E-05 92925   0.189E-02
  10 F= -.38939123E+03 E0= -.38939119E+03  d E =-.758059E-01  mag=    55.0000
       N       E                     dE             d eps       ncg     rms          rms(c)
DAV:   1    -0.389304557672E+03    0.86667E-01   -0.23788E+01153690   0.159E+01    0.185E+00
DAV:   2    -0.389444752674E+03   -0.14020E+00   -0.14376E+00147570   0.323E+00    0.168E+00
DAV:   3    -0.389445351828E+03   -0.59915E-03   -0.63165E-02143640   0.114E+00    0.949E-01
DAV:   4    -0.389443095347E+03    0.22565E-02   -0.61432E-03157995   0.298E-01    0.469E-01
DAV:   5    -0.389441617506E+03    0.14778E-02   -0.35508E-03158700   0.214E-01    0.273E-01
DAV:   6    -0.389441675190E+03   -0.57684E-04   -0.14038E-03152565   0.121E-01    0.150E-01
DAV:   7    -0.389441696671E+03   -0.21481E-04   -0.21258E-04143400   0.676E-02    0.936E-02
DAV:   8    -0.389441695721E+03    0.94989E-06   -0.49105E-05138795   0.401E-02
  11 F= -.38944170E+03 E0= -.38944169E+03  d E =-.504685E-01  mag=    55.0000
       N       E                     dE             d eps       ncg     rms          rms(c)
DAV:   1    -0.389418562649E+03    0.23134E-01   -0.52871E+00155505   0.749E+00    0.899E-01
DAV:   2    -0.389448965950E+03   -0.30403E-01   -0.31532E-01148065   0.156E+00    0.852E-01
DAV:   3    -0.389449143409E+03   -0.17746E-03   -0.15746E-02143880   0.565E-01    0.462E-01
DAV:   4    -0.389448616185E+03    0.52722E-03   -0.14227E-03157650   0.137E-01    0.233E-01
DAV:   5    -0.389448291932E+03    0.32425E-03   -0.80387E-04161835   0.101E-01    0.129E-01
DAV:   6    -0.389448311466E+03   -0.19534E-04   -0.32231E-04151920   0.584E-02    0.714E-02
DAV:   7    -0.389448315323E+03   -0.38565E-05   -0.46954E-05138585   0.320E-02
  12 F= -.38944832E+03 E0= -.38944832E+03  d E =-.570881E-01  mag=    55.0000
       N       E                     dE             d eps       ncg     rms          rms(c)
DAV:   1    -0.389360079791E+03    0.88232E-01   -0.89875E+00170910   0.145E+01    0.157E+00
DAV:   2    -0.389476250075E+03   -0.11617E+00   -0.11243E+00145110   0.257E+00    0.103E+00
DAV:   3    -0.389481678762E+03   -0.54287E-02   -0.38785E-02141135   0.675E-01    0.575E-01
DAV:   4    -0.389481144867E+03    0.53389E-03   -0.30932E-03160425   0.207E-01    0.318E-01
DAV:   5    -0.389480510064E+03    0.63480E-03   -0.10901E-03162480   0.160E-01    0.202E-01
DAV:   6    -0.389480475690E+03    0.34374E-04   -0.69862E-04157830   0.118E-01    0.100E-01
DAV:   7    -0.389480492609E+03   -0.16919E-04   -0.21025E-04144555   0.597E-02    0.418E-02
DAV:   8    -0.389480493189E+03   -0.58037E-06   -0.21086E-05112170   0.195E-02
  13 F= -.38948049E+03 E0= -.38948049E+03  d E =-.321779E-01  mag=    55.0000
       N       E                     dE             d eps       ncg     rms          rms(c)
DAV:   1    -0.389426895883E+03    0.53597E-01   -0.45748E+00169275   0.104E+01    0.112E+00
DAV:   2    -0.389485804177E+03   -0.58908E-01   -0.57083E-01145050   0.184E+00    0.732E-01
DAV:   3    -0.389488620810E+03   -0.28166E-02   -0.19826E-02141195   0.483E-01    0.411E-01
DAV:   4    -0.389488354109E+03    0.26670E-03   -0.15671E-03158490   0.146E-01    0.226E-01
DAV:   5    -0.389488034885E+03    0.31922E-03   -0.54745E-04164010   0.114E-01    0.144E-01
DAV:   6    -0.389488017382E+03    0.17503E-04   -0.35369E-04154770   0.836E-02    0.713E-02
DAV:   7    -0.389488026288E+03   -0.89057E-05   -0.10852E-04144600   0.432E-02    0.301E-02
DAV:   8    -0.389488026600E+03   -0.31216E-06   -0.10788E-05 79710   0.142E-02
  14 F= -.38948803E+03 E0= -.38948803E+03  d E =-.397113E-01  mag=    55.0000
       N       E                     dE             d eps       ncg     rms          rms(c)
DAV:   1    -0.389390495633E+03    0.97531E-01   -0.11017E+01165270   0.143E+01    0.155E+00
DAV:   2    -0.389506022949E+03   -0.11553E+00   -0.11201E+00145125   0.261E+00    0.971E-01
DAV:   3    -0.389510375155E+03   -0.43522E-02   -0.35644E-02143490   0.673E-01    0.575E-01
DAV:   4    -0.389509734355E+03    0.64080E-03   -0.31964E-03160740   0.218E-01    0.317E-01
DAV:   5    -0.389508988876E+03    0.74548E-03   -0.11065E-03161400   0.160E-01    0.192E-01
DAV:   6    -0.389508959827E+03    0.29050E-04   -0.70543E-04163065   0.105E-01    0.975E-02
DAV:   7    -0.389508976578E+03   -0.16751E-04   -0.16615E-04144690   0.528E-02    0.400E-02
DAV:   8    -0.389508977239E+03   -0.66170E-06   -0.15012E-05102405   0.183E-02
  15 F= -.38950898E+03 E0= -.38950898E+03  d E =-.209506E-01  mag=    55.0000
       N       E                     dE             d eps       ncg     rms          rms(c)
DAV:   1    -0.389499270647E+03    0.97059E-02   -0.10627E+00166860   0.444E+00    0.471E-01
DAV:   2    -0.389510073299E+03   -0.10803E-01   -0.10487E-01145335   0.802E-01    0.297E-01
DAV:   3    -0.389510480234E+03   -0.40694E-03   -0.32592E-03143610   0.205E-01    0.176E-01
DAV:   4    -0.389510418346E+03    0.61888E-04   -0.29275E-04159285   0.682E-02    0.955E-02
DAV:   5    -0.389510350531E+03    0.67815E-04   -0.11110E-04161325   0.504E-02    0.582E-02
DAV:   6    -0.389510348965E+03    0.15662E-05   -0.65395E-05156255   0.318E-02
  16 F= -.38951035E+03 E0= -.38951035E+03  d E =-.223224E-01  mag=    55.0000
       N       E                     dE             d eps       ncg     rms          rms(c)
DAV:   1    -0.389452367933E+03    0.57983E-01   -0.51060E+00166065   0.106E+01    0.122E+00
DAV:   2    -0.389518670966E+03   -0.66303E-01   -0.65332E-01146625   0.200E+00    0.798E-01
DAV:   3    -0.389520676382E+03   -0.20054E-02   -0.23517E-02142545   0.607E-01    0.530E-01
DAV:   4    -0.389520110550E+03    0.56583E-03   -0.22314E-03162330   0.191E-01    0.257E-01
DAV:   5    -0.389519532706E+03    0.57784E-03   -0.76816E-04164475   0.120E-01    0.136E-01
DAV:   6    -0.389519500469E+03    0.32237E-04   -0.41678E-04164475   0.693E-02    0.671E-02
DAV:   7    -0.389519508408E+03   -0.79392E-05   -0.82215E-05144645   0.369E-02
  17 F= -.38951951E+03 E0= -.38951951E+03  d E =-.915944E-02  mag=    55.0000
       N       E                     dE             d eps       ncg     rms          rms(c)
DAV:   1    -0.389513988947E+03    0.55115E-02   -0.46828E-01165990   0.322E+00    0.372E-01
DAV:   2    -0.389520078665E+03   -0.60897E-02   -0.60050E-02146595   0.606E-01    0.241E-01
DAV:   3    -0.389520270239E+03   -0.19157E-03   -0.21445E-03142635   0.181E-01    0.161E-01
DAV:   4    -0.389520219287E+03    0.50952E-04   -0.19957E-04162300   0.567E-02    0.794E-02
DAV:   5    -0.389520167650E+03    0.51636E-04   -0.71909E-05157020   0.367E-02    0.418E-02
DAV:   6    -0.389520166451E+03    0.11995E-05   -0.39347E-05149385   0.207E-02
  18 F= -.38952017E+03 E0= -.38952017E+03  d E =-.981749E-02  mag=    55.0000
       N       E                     dE             d eps       ncg     rms          rms(c)
DAV:   1    -0.389480965895E+03    0.39202E-01   -0.25979E+00173820   0.833E+00    0.100E+00
DAV:   2    -0.389524268231E+03   -0.43302E-01   -0.41791E-01145950   0.151E+00    0.618E-01
DAV:   3    -0.389525807169E+03   -0.15389E-02   -0.14660E-02143085   0.465E-01    0.399E-01
DAV:   4    -0.389525552078E+03    0.25509E-03   -0.12976E-03159675   0.147E-01    0.199E-01
DAV:   5    -0.389525282900E+03    0.26918E-03   -0.39399E-04166110   0.880E-02    0.105E-01
DAV:   6    -0.389525274885E+03    0.80153E-05   -0.20799E-04164820   0.508E-02    0.469E-02
DAV:   7    -0.389525280096E+03   -0.52110E-05   -0.45300E-05139770   0.261E-02
  19 F= -.38952528E+03 E0= -.38952528E+03  d E =-.511365E-02  mag=    55.0000
       N       E                     dE             d eps       ncg     rms          rms(c)
DAV:   1    -0.389518634677E+03    0.66402E-02   -0.42052E-01171105   0.335E+00    0.406E-01
DAV:   2    -0.389525727053E+03   -0.70924E-02   -0.68477E-02145995   0.611E-01    0.248E-01
DAV:   3    -0.389525984810E+03   -0.25776E-03   -0.23859E-03143100   0.187E-01    0.161E-01
DAV:   4    -0.389525944549E+03    0.40261E-04   -0.20964E-04160710   0.587E-02    0.821E-02
DAV:   5    -0.389525901673E+03    0.42875E-04   -0.64197E-05158775   0.360E-02    0.429E-02
DAV:   6    -0.389525901444E+03    0.22905E-06   -0.33814E-05142230   0.207E-02
  20 F= -.38952590E+03 E0= -.38952590E+03  d E =-.573499E-02  mag=    55.0000
       N       E                     dE             d eps       ncg     rms          rms(c)
DAV:   1    -0.389499713123E+03    0.26189E-01   -0.23558E+00168465   0.715E+00    0.770E-01
DAV:   2    -0.389528537805E+03   -0.28825E-01   -0.27574E-01144720   0.129E+00    0.464E-01
DAV:   3    -0.389529598949E+03   -0.10611E-02   -0.86076E-03142200   0.325E-01    0.275E-01
DAV:   4    -0.389529459216E+03    0.13973E-03   -0.78670E-04159735   0.117E-01    0.164E-01
DAV:   5    -0.389529292280E+03    0.16694E-03   -0.27956E-04162690   0.819E-02    0.967E-02
DAV:   6    -0.389529289960E+03    0.23196E-05   -0.15931E-04162405   0.490E-02    0.458E-02
DAV:   7    -0.389529294006E+03   -0.40462E-05   -0.39978E-05133350   0.253E-02
  21 F= -.38952929E+03 E0= -.38952929E+03  d E =-.339256E-02  mag=    55.0000
       N       E                     dE             d eps       ncg     rms          rms(c)
DAV:   1    -0.389527273611E+03    0.20163E-02   -0.17751E-01168810   0.196E+00    0.213E-01
DAV:   2    -0.389529450021E+03   -0.21764E-02   -0.20799E-02144705   0.354E-01    0.129E-01
DAV:   3    -0.389529531712E+03   -0.81691E-04   -0.65409E-04142305   0.904E-02    0.766E-02
DAV:   4    -0.389529521351E+03    0.10361E-04   -0.58999E-05149865   0.326E-02    0.462E-02
DAV:   5    -0.389529508882E+03    0.12469E-04   -0.21613E-05 97290   0.229E-02    0.277E-02
DAV:   6    -0.389529509045E+03   -0.16287E-06   -0.13957E-05 81420   0.139E-02
  22 F= -.38952951E+03 E0= -.38952951E+03  d E =-.360760E-02  mag=    55.0000
       N       E                     dE             d eps       ncg     rms          rms(c)
DAV:   1    -0.389509776502E+03    0.19732E-01   -0.19424E+00164610   0.617E+00    0.666E-01
DAV:   2    -0.389531399451E+03   -0.21623E-01   -0.20956E-01144645   0.113E+00    0.418E-01
DAV:   3    -0.389532162875E+03   -0.76342E-03   -0.67786E-03141360   0.294E-01    0.267E-01
DAV:   4    -0.389532021960E+03    0.14091E-03   -0.62487E-04161265   0.100E-01    0.161E-01
DAV:   5    -0.389531860511E+03    0.16145E-03   -0.24624E-04165840   0.703E-02    0.895E-02
DAV:   6    -0.389531863856E+03   -0.33453E-05   -0.14685E-04159465   0.406E-02    0.427E-02
DAV:   7    -0.389531866246E+03   -0.23903E-05   -0.34945E-05131805   0.242E-02
  23 F= -.38953187E+03 E0= -.38953187E+03  d E =-.235720E-02  mag=    55.0000
       N       E                     dE             d eps       ncg     rms          rms(c)
DAV:   1    -0.389527324158E+03    0.45397E-02   -0.42880E-01164625   0.289E+00    0.314E-01
DAV:   2    -0.389532095987E+03   -0.47718E-02   -0.46231E-02144630   0.531E-01    0.199E-01
DAV:   3    -0.389532267111E+03   -0.17112E-03   -0.15039E-03141390   0.139E-01    0.127E-01
DAV:   4    -0.389532236385E+03    0.30726E-04   -0.13755E-04159585   0.467E-02    0.770E-02
DAV:   5    -0.389532201601E+03    0.34784E-04   -0.55114E-05144300   0.334E-02    0.424E-02
DAV:   6    -0.389532203193E+03   -0.15914E-05   -0.33530E-05141030   0.191E-02
  24 F= -.38953220E+03 E0= -.38953220E+03  d E =-.269415E-02  mag=    55.0000
       N       E                     dE             d eps       ncg     rms          rms(c)
DAV:   1    -0.389510282987E+03    0.21919E-01   -0.22513E+00165075   0.651E+00    0.727E-01
DAV:   2    -0.389533969764E+03   -0.23687E-01   -0.22895E-01146010   0.117E+00    0.465E-01
DAV:   3    -0.389534931603E+03   -0.96184E-03   -0.80172E-03141570   0.331E-01    0.315E-01
DAV:   4    -0.389534794948E+03    0.13666E-03   -0.75960E-04157950   0.111E-01    0.175E-01
DAV:   5    -0.389534672100E+03    0.12285E-03   -0.26310E-04158820   0.709E-02    0.102E-01
DAV:   6    -0.389534683739E+03   -0.11638E-04   -0.13512E-04156960   0.402E-02    0.486E-02
DAV:   7    -0.389534687649E+03   -0.39105E-05   -0.30037E-05131175   0.211E-02
  25 F= -.38953469E+03 E0= -.38953469E+03  d E =-.248446E-02  mag=    55.0000
       N       E                     dE             d eps       ncg     rms          rms(c)
DAV:   1    -0.389521997045E+03    0.12687E-01   -0.12578E+00165060   0.487E+00    0.545E-01
DAV:   2    -0.389535247357E+03   -0.13250E-01   -0.12791E-01145995   0.873E-01    0.348E-01
DAV:   3    -0.389535789472E+03   -0.54212E-03   -0.44934E-03141630   0.246E-01    0.236E-01
DAV:   4    -0.389535714243E+03    0.75230E-04   -0.42534E-04158490   0.823E-02    0.132E-01
DAV:   5    -0.389535646470E+03    0.67773E-04   -0.14865E-04156510   0.532E-02    0.765E-02
DAV:   6    -0.389535653447E+03   -0.69765E-05   -0.75945E-05155445   0.299E-02
  26 F= -.38953565E+03 E0= -.38953565E+03  d E =-.345025E-02  mag=    55.0000
       N       E                     dE             d eps       ncg     rms          rms(c)
DAV:   1    -0.389528446298E+03    0.72002E-02   -0.14323E+00152040   0.424E+00    0.486E-01
DAV:   2    -0.389537979496E+03   -0.95332E-02   -0.95117E-02144585   0.796E-01    0.368E-01
DAV:   3    -0.389538230999E+03   -0.25150E-03   -0.35355E-03144030   0.247E-01    0.254E-01
DAV:   4    -0.389538125365E+03    0.10563E-03   -0.39318E-04158595   0.803E-02    0.138E-01
DAV:   5    -0.389538061476E+03    0.63889E-04   -0.17342E-04151815   0.540E-02    0.823E-02
DAV:   6    -0.389538068581E+03   -0.71044E-05   -0.84700E-05155040   0.298E-02
  27 F= -.38953807E+03 E0= -.38953807E+03  d E =-.241513E-02  mag=    55.0000
       N       E                     dE             d eps       ncg     rms          rms(c)
DAV:   1    -0.389453563808E+03    0.84498E-01   -0.12866E+01150150   0.127E+01    0.145E+00
DAV:   2    -0.389541533119E+03   -0.87969E-01   -0.87315E-01144585   0.241E+00    0.111E+00
DAV:   3    -0.389543609237E+03   -0.20761E-02   -0.32329E-02144150   0.742E-01    0.759E-01
DAV:   4    -0.389542644740E+03    0.96450E-03   -0.36336E-03158775   0.243E-01    0.416E-01
DAV:   5    -0.389542022455E+03    0.62228E-03   -0.15494E-03151860   0.165E-01    0.249E-01
DAV:   6    -0.389542070962E+03   -0.48507E-04   -0.77178E-04160080   0.913E-02    0.107E-01
DAV:   7    -0.389542090444E+03   -0.19482E-04   -0.13749E-04147765   0.477E-02    0.514E-02
DAV:   8    -0.389542089156E+03    0.12882E-05   -0.27267E-05126240   0.296E-02
  28 F= -.38954209E+03 E0= -.38954209E+03  d E =-.643571E-02  mag=    55.0000
       N       E                     dE             d eps       ncg     rms          rms(c)
DAV:   1    -0.389539871166E+03    0.22193E-02   -0.51476E-01144975   0.243E+00    0.277E-01
DAV:   2    -0.389543385318E+03   -0.35142E-02   -0.34031E-02146715   0.456E-01    0.184E-01
DAV:   3    -0.389543476244E+03   -0.90926E-04   -0.87571E-04143175   0.984E-02    0.120E-01
DAV:   4    -0.389543450764E+03    0.25479E-04   -0.97885E-05158640   0.426E-02    0.898E-02
DAV:   5    -0.389543428812E+03    0.21952E-04   -0.58426E-05146430   0.339E-02    0.459E-02
DAV:   6    -0.389543434113E+03   -0.53011E-05   -0.29007E-05135525   0.191E-02
  29 F= -.38954343E+03 E0= -.38954343E+03  d E =-.134496E-02  mag=    55.0000
       N       E                     dE             d eps       ncg     rms          rms(c)
DAV:   1    -0.389515812680E+03    0.27616E-01   -0.46345E+00144855   0.728E+00    0.816E-01
DAV:   2    -0.389546899555E+03   -0.31087E-01   -0.30163E-01144660   0.136E+00    0.537E-01
DAV:   3    -0.389547716531E+03   -0.81698E-03   -0.79852E-03143310   0.289E-01    0.347E-01
DAV:   4    -0.389547481061E+03    0.23547E-03   -0.87008E-04160155   0.124E-01    0.260E-01
DAV:   5    -0.389547284320E+03    0.19674E-03   -0.48539E-04155700   0.974E-02    0.132E-01
DAV:   6    -0.389547326487E+03   -0.42167E-04   -0.24923E-04156360   0.555E-02    0.686E-02
DAV:   7    -0.389547327335E+03   -0.84775E-06   -0.54391E-05143820   0.292E-02
  30 F= -.38954733E+03 E0= -.38954733E+03  d E =-.523818E-02  mag=    55.0000
       N       E                     dE             d eps       ncg     rms          rms(c)
DAV:   1    -0.389430316793E+03    0.11701E+00   -0.18555E+01146940   0.146E+01    0.161E+00
DAV:   2    -0.389552195811E+03   -0.12188E+00   -0.11852E+00144585   0.270E+00    0.106E+00
DAV:   3    -0.389555150166E+03   -0.29544E-02   -0.31378E-02143025   0.586E-01    0.679E-01
DAV:   4    -0.389554176709E+03    0.97346E-03   -0.33967E-03159840   0.248E-01    0.491E-01
DAV:   5    -0.389553361203E+03    0.81551E-03   -0.19070E-03154275   0.189E-01    0.249E-01
DAV:   6    -0.389553512863E+03   -0.15166E-03   -0.95385E-04154485   0.105E-01    0.129E-01
DAV:   7    -0.389553518401E+03   -0.55387E-05   -0.19358E-04144315   0.550E-02    0.543E-02
DAV:   8    -0.389553512993E+03    0.54084E-05   -0.22092E-05117000   0.235E-02
  31 F= -.38955351E+03 E0= -.38955351E+03  d E =-.114238E-01  mag=    55.0000
       N       E                     dE             d eps       ncg     rms          rms(c)
DAV:   1    -0.389064197732E+03    0.48932E+00   -0.74135E+01148125   0.291E+01    0.315E+00
DAV:   2    -0.389545516547E+03   -0.48132E+00   -0.47111E+00144375   0.541E+00    0.206E+00
DAV:   3    -0.389555165389E+03   -0.96488E-02   -0.12413E-01142590   0.122E+00    0.129E+00
DAV:   4    -0.389550970585E+03    0.41948E-02   -0.13136E-02159390   0.487E-01    0.841E-01
DAV:   5    -0.389547383684E+03    0.35869E-02   -0.68822E-03154560   0.355E-01    0.427E-01
DAV:   6    -0.389547750216E+03   -0.36653E-03   -0.34907E-03154035   0.200E-01    0.228E-01
DAV:   7    -0.389547791837E+03   -0.41621E-04   -0.64873E-04144630   0.104E-01    0.105E-01
DAV:   8    -0.389547786608E+03    0.52289E-05   -0.70487E-05149130   0.403E-02
  32 F= -.38954779E+03 E0= -.38954779E+03  d E =-.569745E-02  mag=    55.0000
       N       E                     dE             d eps       ncg     rms          rms(c)
DAV:   1    -0.389276924281E+03    0.27087E+00   -0.42598E+01148095   0.221E+01    0.239E+00
DAV:   2    -0.389554456590E+03   -0.27753E+00   -0.27156E+00144420   0.409E+00    0.157E+00
DAV:   3    -0.389559657112E+03   -0.52005E-02   -0.70813E-02143055   0.918E-01    0.961E-01
DAV:   4    -0.389557045621E+03    0.26115E-02   -0.85247E-03157695   0.370E-01    0.642E-01
DAV:   5    -0.389554937425E+03    0.21082E-02   -0.37849E-03155235   0.251E-01    0.363E-01
DAV:   6    -0.389555024821E+03   -0.87395E-04   -0.19399E-03155085   0.145E-01    0.185E-01
DAV:   7    -0.389555067570E+03   -0.42749E-04   -0.38242E-04144150   0.697E-02    0.821E-02
DAV:   8    -0.389555067467E+03    0.10289E-06   -0.43505E-05150855   0.319E-02
  33 F= -.38955507E+03 E0= -.38955507E+03  d E =-.129783E-01  mag=    55.0000
       N       E                     dE             d eps       ncg     rms          rms(c)
DAV:   1    -0.389519670480E+03    0.35397E-01   -0.55442E+00145815   0.831E+00    0.956E-01
DAV:   2    -0.389560699724E+03   -0.41029E-01   -0.40551E-01144015   0.158E+00    0.606E-01
DAV:   3    -0.389561621253E+03   -0.92153E-03   -0.11132E-02142890   0.359E-01    0.375E-01
DAV:   4    -0.389561172266E+03    0.44899E-03   -0.12913E-03159285   0.163E-01    0.276E-01
DAV:   5    -0.389560810484E+03    0.36178E-03   -0.66298E-04156795   0.119E-01    0.139E-01
DAV:   6    -0.389560840381E+03   -0.29896E-04   -0.31745E-04152820   0.597E-02    0.701E-02
DAV:   7    -0.389560844203E+03   -0.38225E-05   -0.58340E-05143370   0.328E-02
  34 F= -.38956084E+03 E0= -.38956084E+03  d E =-.577674E-02  mag=    55.0000
       N       E                     dE             d eps       ncg     rms          rms(c)
DAV:   1    -0.389521342338E+03    0.39498E-01   -0.57651E+00145980   0.847E+00    0.967E-01
DAV:   2    -0.389563617735E+03   -0.42275E-01   -0.41887E-01144000   0.160E+00    0.607E-01
DAV:   3    -0.389564553746E+03   -0.93601E-03   -0.11526E-02142860   0.367E-01    0.374E-01
DAV:   4    -0.389564086249E+03    0.46750E-03   -0.13200E-03160920   0.163E-01    0.270E-01
DAV:   5    -0.389563710070E+03    0.37618E-03   -0.67724E-04157155   0.117E-01    0.136E-01
DAV:   6    -0.389563739140E+03   -0.29070E-04   -0.32014E-04154275   0.584E-02    0.697E-02
DAV:   7    -0.389563743230E+03   -0.40898E-05   -0.56030E-05142545   0.319E-02
  35 F= -.38956374E+03 E0= -.38956374E+03  d E =-.867576E-02  mag=    55.0000
       N       E                     dE             d eps       ncg     rms          rms(c)
DAV:   1    -0.389561129927E+03    0.26092E-02   -0.39423E-01149070   0.221E+00    0.247E-01
DAV:   2    -0.389563882313E+03   -0.27524E-02   -0.27336E-02143910   0.415E-01    0.160E-01
DAV:   3    -0.389563942951E+03   -0.60638E-04   -0.74705E-04142665   0.952E-02    0.975E-02
DAV:   4    -0.389563910835E+03    0.32116E-04   -0.86283E-05158220   0.415E-02    0.679E-02
DAV:   5    -0.389563886601E+03    0.24234E-04   -0.45717E-05141615   0.288E-02    0.351E-02
DAV:   6    -0.389563888349E+03   -0.17478E-05   -0.19734E-05103095   0.146E-02
  36 F= -.38956389E+03 E0= -.38956389E+03  d E =-.882088E-02  mag=    55.0000
       N       E                     dE             d eps       ncg     rms          rms(c)
DAV:   1    -0.389562758650E+03    0.11280E-02   -0.87694E-01142770   0.344E+00    0.523E-01
DAV:   2    -0.389568658873E+03   -0.59002E-02   -0.72848E-02145725   0.794E-01    0.480E-01
DAV:   3    -0.389568562100E+03    0.96773E-04   -0.51109E-03145350   0.334E-01    0.278E-01
DAV:   4    -0.389568351012E+03    0.21109E-03   -0.65678E-04158280   0.846E-02    0.116E-01
DAV:   5    -0.389568259783E+03    0.91228E-04   -0.17028E-04157395   0.638E-02    0.700E-02
DAV:   6    -0.389568249034E+03    0.10749E-04   -0.87384E-05149040   0.366E-02    0.344E-02
DAV:   7    -0.389568251378E+03   -0.23434E-05   -0.16391E-05 92325   0.193E-02
  37 F= -.38956825E+03 E0= -.38956825E+03  d E =-.436303E-02  mag=    55.0000
       N       E                     dE             d eps       ncg     rms          rms(c)
DAV:   1    -0.389553841977E+03    0.14407E-01   -0.29517E+00146160   0.629E+00    0.944E-01
DAV:   2    -0.389572843432E+03   -0.19001E-01   -0.23608E-01145530   0.144E+00    0.879E-01
DAV:   3    -0.389572445687E+03    0.39774E-03   -0.16699E-02145140   0.604E-01    0.502E-01
DAV:   4    -0.389571742649E+03    0.70304E-03   -0.22211E-03156465   0.152E-01    0.210E-01
DAV:   5    -0.389571442806E+03    0.29984E-03   -0.55931E-04156435   0.115E-01    0.125E-01
DAV:   6    -0.389571408026E+03    0.34780E-04   -0.28646E-04156015   0.650E-02    0.625E-02
DAV:   7    -0.389571415837E+03   -0.78104E-05   -0.57740E-05143640   0.339E-02
  38 F= -.38957142E+03 E0= -.38957142E+03  d E =-.752749E-02  mag=    55.0000
       N       E                     dE             d eps       ncg     rms          rms(c)
DAV:   1    -0.389563148894E+03    0.82591E-02   -0.12199E+00162960   0.481E+00    0.662E-01
DAV:   2    -0.389574933739E+03   -0.11785E-01   -0.12909E-01145170   0.991E-01    0.533E-01
DAV:   3    -0.389575127392E+03   -0.19365E-03   -0.79290E-03144420   0.407E-01    0.357E-01
DAV:   4    -0.389574868239E+03    0.25915E-03   -0.87704E-04156750   0.109E-01    0.138E-01
DAV:   5    -0.389574746055E+03    0.12218E-03   -0.26944E-04152490   0.759E-02    0.773E-02
DAV:   6    -0.389574736920E+03    0.91347E-05   -0.11953E-04152595   0.392E-02    0.351E-02
DAV:   7    -0.389574739140E+03   -0.22198E-05   -0.18717E-05102765   0.180E-02
  39 F= -.38957474E+03 E0= -.38957474E+03  d E =-.332330E-02  mag=    55.0000
       N       E                     dE             d eps       ncg     rms          rms(c)
DAV:   1    -0.389570693815E+03    0.40431E-02   -0.48606E-01162900   0.304E+00    0.420E-01
DAV:   2    -0.389575421443E+03   -0.47276E-02   -0.51657E-02145200   0.627E-01    0.340E-01
DAV:   3    -0.389575496306E+03   -0.74863E-04   -0.31905E-03144465   0.259E-01    0.227E-01
DAV:   4    -0.389575393513E+03    0.10279E-03   -0.35198E-04156735   0.689E-02    0.885E-02
DAV:   5    -0.389575344258E+03    0.49256E-04   -0.10850E-04152490   0.487E-02    0.493E-02
DAV:   6    -0.389575340217E+03    0.40407E-05   -0.48905E-05140130   0.255E-02
  40 F= -.38957534E+03 E0= -.38957534E+03  d E =-.392438E-02  mag=    55.0000
       N       E                     dE             d eps       ncg     rms          rms(c)
DAV:   1    -0.389569169958E+03    0.61743E-02   -0.60005E-01175140   0.390E+00    0.458E-01
DAV:   2    -0.389577182208E+03   -0.80122E-02   -0.81074E-02146160   0.721E-01    0.307E-01
DAV:   3    -0.389577472116E+03   -0.28991E-03   -0.35178E-03141690   0.250E-01    0.222E-01
DAV:   4    -0.389577381632E+03    0.90484E-04   -0.34420E-04160830   0.748E-02    0.869E-02
DAV:   5    -0.389577323004E+03    0.58628E-04   -0.11531E-04151845   0.467E-02    0.491E-02
DAV:   6    -0.389577322704E+03    0.29941E-06   -0.49070E-05151485   0.223E-02
  41 F= -.38957732E+03 E0= -.38957732E+03  d E =-.198249E-02  mag=    55.0000
       N       E                     dE             d eps       ncg     rms          rms(c)
DAV:   1    -0.389567267620E+03    0.10055E-01   -0.79970E-01175185   0.450E+00    0.529E-01
DAV:   2    -0.389577979680E+03   -0.10712E-01   -0.10811E-01146160   0.832E-01    0.356E-01
DAV:   3    -0.389578365215E+03   -0.38553E-03   -0.46994E-03141840   0.290E-01    0.258E-01
DAV:   4    -0.389578245707E+03    0.11951E-03   -0.45791E-04160320   0.868E-02    0.101E-01
DAV:   5    -0.389578167943E+03    0.77764E-04   -0.15501E-04153990   0.543E-02    0.573E-02
DAV:   6    -0.389578167975E+03   -0.31701E-07   -0.66862E-05159150   0.261E-02
  42 F= -.38957817E+03 E0= -.38957817E+03  d E =-.282776E-02  mag=    55.0000
       N       E                     dE             d eps       ncg     rms          rms(c)
DAV:   1    -0.389568766182E+03    0.94018E-02   -0.68764E-01176895   0.431E+00    0.465E-01
DAV:   2    -0.389579274395E+03   -0.10508E-01   -0.10004E-01144435   0.750E-01    0.254E-01
DAV:   3    -0.389579735631E+03   -0.46124E-03   -0.30072E-03141135   0.175E-01    0.134E-01
DAV:   4    -0.389579697919E+03    0.37711E-04   -0.25329E-04161400   0.607E-02    0.870E-02
DAV:   5    -0.389579652092E+03    0.45827E-04   -0.64209E-05151275   0.440E-02    0.495E-02
DAV:   6    -0.389579650507E+03    0.15852E-05   -0.45144E-05150345   0.282E-02
  43 F= -.38957965E+03 E0= -.38957965E+03  d E =-.148253E-02  mag=    55.0000
       N       E                     dE             d eps       ncg     rms          rms(c)
DAV:   1    -0.389577271037E+03    0.23811E-02   -0.16262E-01177420   0.209E+00    0.225E-01
DAV:   2    -0.389579753259E+03   -0.24822E-02   -0.23636E-02144420   0.365E-01    0.123E-01
DAV:   3    -0.389579864266E+03   -0.11101E-03   -0.70624E-04141105   0.840E-02    0.647E-02
DAV:   4    -0.389579855677E+03    0.85885E-05   -0.57605E-05145110   0.291E-02
  44 F= -.38957986E+03 E0= -.38957986E+03  d E =-.168770E-02  mag=    55.0000
       N       E                     dE             d eps       ncg     rms          rms(c)
DAV:   1    -0.389574312243E+03    0.55520E-02   -0.55161E-01169800   0.344E+00    0.408E-01
DAV:   2    -0.389580846498E+03   -0.65343E-02   -0.67128E-02145110   0.659E-01    0.271E-01
DAV:   3    -0.389581002487E+03   -0.15599E-03   -0.26627E-03143205   0.209E-01    0.193E-01
DAV:   4    -0.389580898677E+03    0.10381E-03   -0.28505E-04158295   0.717E-02    0.869E-02
DAV:   5    -0.389580820296E+03    0.78380E-04   -0.12856E-04158175   0.456E-02    0.467E-02
DAV:   6    -0.389580820196E+03    0.10017E-06   -0.51564E-05143070   0.215E-02
  45 F= -.38958082E+03 E0= -.38958082E+03  d E =-.964519E-03  mag=    55.0000
       N       E                     dE             d eps       ncg     rms          rms(c)
DAV:   1    -0.389579849749E+03    0.97055E-03   -0.86714E-02166995   0.136E+00    0.165E-01
DAV:   2    -0.389580915996E+03   -0.10662E-02   -0.10877E-02146115   0.265E-01    0.109E-01
DAV:   3    -0.389580943467E+03   -0.27471E-04   -0.43017E-04142275   0.844E-02    0.772E-02
DAV:   4    -0.389580927651E+03    0.15815E-04   -0.44142E-05141780   0.285E-02    0.360E-02
DAV:   5    -0.389580914813E+03    0.12838E-04   -0.21486E-05 92430   0.188E-02    0.204E-02
DAV:   6    -0.389580914801E+03    0.12391E-07   -0.10193E-05 78930   0.972E-03
  46 F= -.38958091E+03 E0= -.38958091E+03  d E =-.105912E-02  mag=    55.0000
       N       E                     dE             d eps       ncg     rms          rms(c)
DAV:   1    -0.389578080994E+03    0.28338E-02   -0.27580E-01173460   0.250E+00    0.265E-01
DAV:   2    -0.389581417959E+03   -0.33370E-02   -0.32248E-02144690   0.450E-01    0.165E-01
DAV:   3    -0.389581541851E+03   -0.12389E-03   -0.10544E-03142230   0.119E-01    0.995E-02
DAV:   4    -0.389581520905E+03    0.20945E-04   -0.95213E-05157245   0.391E-02    0.527E-02
DAV:   5    -0.389581499559E+03    0.21346E-04   -0.32930E-05123450   0.268E-02    0.310E-02
DAV:   6    -0.389581499072E+03    0.48682E-06   -0.17772E-05 93120   0.160E-02
  47 F= -.38958150E+03 E0= -.38958150E+03  d E =-.584271E-03  mag=    55.0000
       N       E                     dE             d eps       ncg     rms          rms(c)
DAV:   1    -0.389578304866E+03    0.31947E-02   -0.27365E-01173985   0.249E+00    0.263E-01
DAV:   2    -0.389581592608E+03   -0.32877E-02   -0.31760E-02144690   0.448E-01    0.165E-01
DAV:   3    -0.389581715731E+03   -0.12312E-03   -0.10404E-03142320   0.119E-01    0.100E-01
DAV:   4    -0.389581695258E+03    0.20472E-04   -0.93935E-05156975   0.392E-02    0.525E-02
DAV:   5    -0.389581674709E+03    0.20549E-04   -0.32766E-05124260   0.266E-02    0.311E-02
DAV:   6    -0.389581674414E+03    0.29482E-06   -0.17546E-05 91350   0.161E-02
  48 F= -.38958167E+03 E0= -.38958167E+03  d E =-.759613E-03  mag=    55.0000
       N       E                     dE             d eps       ncg     rms          rms(c)
DAV:   1    -0.389577059861E+03    0.46148E-02   -0.39633E-01177195   0.308E+00    0.343E-01
DAV:   2    -0.389581895368E+03   -0.48355E-02   -0.48031E-02144360   0.569E-01    0.249E-01
DAV:   3    -0.389582077768E+03   -0.18240E-03   -0.21685E-03141435   0.198E-01    0.165E-01
DAV:   4    -0.389582028605E+03    0.49162E-04   -0.19198E-04157890   0.576E-02    0.669E-02
DAV:   5    -0.389581992097E+03    0.36509E-04   -0.66641E-05147675   0.338E-02    0.376E-02
DAV:   6    -0.389581990873E+03    0.12233E-05   -0.27762E-05125370   0.183E-02
  49 F= -.38958199E+03 E0= -.38958199E+03  d E =-.316459E-03  mag=    55.0000
       N       E                     dE             d eps       ncg     rms          rms(c)
DAV:   1    -0.389581984669E+03    0.74281E-05   -0.45843E-04176700   0.104E-01    0.162E-02
DAV:   2    -0.389581990911E+03   -0.62426E-05   -0.60077E-05134100   0.220E-02    0.133E-02
DAV:   3    -0.389581991157E+03   -0.24599E-06   -0.37239E-06 78915   0.969E-03    0.862E-03
DAV:   4    -0.389581991086E+03    0.71115E-07   -0.47894E-07 77115   0.282E-03
  50 F= -.38958199E+03 E0= -.38958199E+03  d E =-.316672E-03  mag=    55.0000
       N       E                     dE             d eps       ncg     rms          rms(c)
DAV:   1    -0.389581012912E+03    0.97825E-03   -0.11250E-01167865   0.147E+00    0.164E-01
DAV:   2    -0.389582154507E+03   -0.11416E-02   -0.11432E-02145350   0.276E-01    0.111E-01
DAV:   3    -0.389582188553E+03   -0.34046E-04   -0.40804E-04143760   0.781E-02    0.717E-02
DAV:   4    -0.389582176386E+03    0.12167E-04   -0.41318E-05139710   0.255E-02    0.354E-02
DAV:   5    -0.389582166712E+03    0.96744E-05   -0.17858E-05 89730   0.170E-02
  51 F= -.38958217E+03 E0= -.38958217E+03  d E =-.175625E-03  mag=    55.0000
       N       E                     dE             d eps       ncg     rms          rms(c)
DAV:   1    -0.389581944756E+03    0.23163E-03   -0.21752E-02168225   0.651E-01    0.722E-02
DAV:   2    -0.389582167088E+03   -0.22233E-03   -0.22357E-03146070   0.121E-01    0.469E-02
DAV:   3    -0.389582173537E+03   -0.64491E-05   -0.74066E-05133470   0.319E-02    0.315E-02
DAV:   4    -0.389582171324E+03    0.22133E-05   -0.75925E-06 80670   0.111E-02
  52 F= -.38958217E+03 E0= -.38958217E+03  d E =-.180238E-03  mag=    55.0000
       N       E                     dE             d eps       ncg     rms          rms(c)
DAV:   1    -0.389581252626E+03    0.92091E-03   -0.10733E-01166080   0.139E+00    0.153E-01
DAV:   2    -0.389582237196E+03   -0.98457E-03   -0.98632E-03145185   0.258E-01    0.108E-01
DAV:   3    -0.389582267830E+03   -0.30633E-04   -0.37474E-04143565   0.768E-02    0.689E-02
DAV:   4    -0.389582256874E+03    0.10955E-04   -0.34638E-05132600   0.247E-02    0.324E-02
DAV:   5    -0.389582248624E+03    0.82499E-05   -0.16758E-05 89325   0.157E-02
  53 F= -.38958225E+03 E0= -.38958225E+03  d E =-.773002E-04  mag=    55.0000
       N       E                     dE             d eps       ncg     rms          rms(c)
DAV:   1    -0.389582245374E+03    0.11500E-04   -0.22982E-04162015   0.679E-02    0.120E-02
DAV:   2    -0.389582247990E+03   -0.26155E-05   -0.27001E-05115905   0.139E-02    0.786E-03
DAV:   3    -0.389582248191E+03   -0.20144E-06   -0.13528E-06 77220   0.487E-03    0.572E-03
DAV:   4    -0.389582248257E+03   -0.65316E-07   -0.27102E-07 77130   0.244E-03
  54 F= -.38958225E+03 E0= -.38958225E+03  d E =-.769323E-04  mag=    55.0000
       N       E                     dE             d eps       ncg     rms          rms(c)
DAV:   1    -0.389581670297E+03    0.57789E-03   -0.70833E-02161955   0.117E+00    0.159E-01
DAV:   2    -0.389582331964E+03   -0.66167E-03   -0.74747E-03145155   0.236E-01    0.116E-01
DAV:   3    -0.389582340773E+03   -0.88096E-05   -0.41442E-04144300   0.903E-02    0.851E-02
DAV:   4    -0.389582321194E+03    0.19579E-04   -0.52324E-05140895   0.279E-02    0.315E-02
DAV:   5    -0.389582311687E+03    0.95075E-05   -0.16525E-05 94335   0.178E-02
  55 F= -.38958231E+03 E0= -.38958231E+03  d E =-.634301E-04  mag=    55.0000
       N       E                     dE             d eps       ncg     rms          rms(c)
DAV:   1    -0.389582311469E+03    0.97250E-05   -0.10964E-04149805   0.421E-02    0.111E-02
DAV:   2    -0.389582312021E+03   -0.55184E-06   -0.94208E-06 84030   0.108E-02    0.958E-03
DAV:   3    -0.389582312023E+03   -0.17171E-08   -0.16380E-06 77100   0.607E-03    0.501E-03
DAV:   4    -0.389582311911E+03    0.11156E-06   -0.45568E-07 76920   0.229E-03
  56 F= -.38958231E+03 E0= -.38958231E+03  d E =-.636546E-04  mag=    55.0000
       N       E                     dE             d eps       ncg     rms          rms(c)
DAV:   1    -0.389582306780E+03    0.52427E-05   -0.70243E-04171180   0.116E-01    0.155E-02
DAV:   2    -0.389582312426E+03   -0.56456E-05   -0.68366E-05140910   0.228E-02    0.111E-02
DAV:   3    -0.389582312495E+03   -0.69529E-07   -0.33436E-06 76125   0.859E-03    0.846E-03
DAV:   4    -0.389582312322E+03    0.17308E-06   -0.69421E-07 74655   0.307E-03
  57 F= -.38958231E+03 E0= -.38958231E+03  d E =-.640655E-04  mag=    55.0000
       N       E                     dE             d eps       ncg     rms          rms(c)
DAV:   1    -0.389582072124E+03    0.24037E-03   -0.18021E-02179400   0.735E-01    0.925E-02
DAV:   2    -0.389582342647E+03   -0.27052E-03   -0.28722E-03145710   0.140E-01    0.668E-02
DAV:   3    -0.389582352996E+03   -0.10348E-04   -0.15745E-04140100   0.554E-02    0.488E-02
DAV:   4    -0.389582348056E+03    0.49395E-05   -0.14893E-05 90945   0.163E-02
  58 F= -.38958235E+03 E0= -.38958235E+03  d E =-.357342E-04  mag=    55.0000
