       N       E                     dE             d eps       ncg     rms          ort
DAV:   1     0.841059635292E+04    0.84106E+04   -0.38812E+05  6370   0.184E+03
DAV:   2    -0.108844393818E+03   -0.85194E+04   -0.78354E+04  6370   0.479E+02
DAV:   3    -0.137742985018E+04   -0.12686E+04   -0.12371E+04  6370   0.206E+02
DAV:   4    -0.144404045526E+04   -0.66611E+02   -0.62977E+02  6370   0.465E+01
DAV:   5    -0.144639360970E+04   -0.23532E+01   -0.22928E+01  6370   0.729E+00
SDA:   6    -0.741213789053E+03    0.70518E+03   -0.22928E+01  6370   0.287E+04 0.000E+00
CGA:   7    -0.106865676649E+04   -0.32744E+03   -0.32648E+03  6370   0.534E+03-0.233E+03
CGA:   8    -0.106764729502E+04    0.10095E+01   -0.34006E+02  6370   0.203E+04-0.260E+03
CGA:   9    -0.109660161875E+04   -0.28954E+02   -0.25364E+02  6370   0.615E+03 0.266E+02
CGA:  10    -0.109832301346E+04   -0.17214E+01   -0.26979E+02  6370   0.992E+03-0.685E+03
CGA:  11    -0.107369515862E+04    0.24628E+02   -0.57977E+02  6370   0.143E+04-0.591E+03
CGA:  12    -0.104335457040E+04    0.30341E+02   -0.70939E+02  6370   0.219E+04-0.136E+04
CGA:  13    -0.103009127021E+04    0.13263E+02   -0.10022E+03  6370   0.236E+04-0.175E+04
CGA:  14    -0.101424006406E+04    0.15851E+02   -0.99688E+02  6370   0.308E+04-0.240E+04
CGA:  15    -0.100220766685E+04    0.12032E+02   -0.12890E+03  6370   0.169E+04-0.150E+04
CGA:  16    -0.112118966678E+04   -0.11898E+03   -0.21774E+02  6370   0.575E+03-0.109E+04
CGA:  17    -0.111018349038E+04    0.11006E+02   -0.18423E+02  6370   0.158E+04-0.894E+03
CGA:  18    -0.106624120406E+04    0.43942E+02   -0.70682E+02  6370   0.232E+04-0.999E+03
CGA:  19    -0.102815125666E+04    0.38090E+02   -0.10114E+03  6370   0.308E+04-0.192E+04
CGA:  20    -0.103518836622E+04   -0.70371E+01   -0.13951E+03  6370   0.235E+04-0.193E+04
CGA:  21    -0.102927226813E+04    0.59161E+01   -0.10141E+03  6370   0.292E+04-0.217E+04
CGA:  22    -0.976287653756E+03    0.52985E+02   -0.13002E+03  6370   0.312E+04-0.227E+04
CGA:  23    -0.973848369183E+03    0.24393E+01   -0.14155E+03  6370   0.918E+03-0.773E+03
CGA:  24    -0.103355981159E+04   -0.59711E+02   -0.25695E+02  6370   0.395E+04-0.478E+04
CGA:  25    -0.963936346075E+03    0.69623E+02   -0.18002E+03  6370   0.838E+03-0.552E+03
CGA:  26    -0.104336381241E+04   -0.79427E+02   -0.24153E+02  6370   0.334E+04-0.435E+04
CGA:  27    -0.963672924273E+03    0.79691E+02   -0.12906E+03  6370   0.168E+04-0.990E+03
CGA:  28    -0.982354438303E+03   -0.18682E+02   -0.47861E+02  6370   0.223E+04-0.144E+04
CGA:  29    -0.959901409652E+03    0.22453E+02   -0.85864E+02  6370   0.134E+04-0.105E+04
CGA:  30    -0.986489182454E+03   -0.26588E+02   -0.30237E+02  6370   0.106E+04-0.433E+03
CGA:  31    -0.105562355979E+04   -0.69134E+02   -0.21718E+02  6370   0.202E+04-0.591E+03
CGA:  32    -0.104750065804E+04    0.81229E+01   -0.58863E+02  6370   0.457E+04-0.275E+04
CGA:  33    -0.103565505533E+04    0.11846E+02   -0.16513E+03  6370   0.212E+04-0.123E+04
CGA:  34    -0.105894487335E+04   -0.23290E+02   -0.36146E+02  6370   0.356E+04-0.169E+04
CGA:  35    -0.105508014393E+04    0.38647E+01   -0.11597E+03  6370   0.239E+04-0.159E+04
CGA:  36    -0.108211278997E+04   -0.27033E+02   -0.41069E+02  6370   0.384E+04 0.553E+03
CGA:  37    -0.102374336936E+04    0.58369E+02   -0.14935E+03  6370   0.177E+04-0.716E+03
CGA:  38    -0.109558164203E+04   -0.71838E+02   -0.43707E+02  6370   0.199E+04-0.108E+04
CGA:  39    -0.110082808400E+04   -0.52464E+01   -0.44059E+02  6370   0.263E+04-0.274E+04
CGA:  40    -0.108693667300E+04    0.13891E+02   -0.64944E+02  6370   0.205E+04-0.165E+04
CGA:  41    -0.110063274013E+04   -0.13696E+02   -0.42128E+02  6370   0.277E+04-0.310E+04
CGA:  42    -0.109294452768E+04    0.76882E+01   -0.65088E+02  6370   0.194E+04-0.168E+04
CGA:  43    -0.111492946692E+04   -0.21985E+02   -0.35786E+02  6370   0.129E+04-0.184E+04
CGA:  44    -0.111747171624E+04   -0.25422E+01   -0.23963E+02  6370   0.165E+04-0.166E+04
CGA:  45    -0.111617003535E+04    0.13017E+01   -0.29148E+02  6370   0.179E+04-0.157E+04
CGA:  46    -0.111005005027E+04    0.61200E+01   -0.35194E+02  6370   0.178E+04-0.146E+04
CGA:  47    -0.111459324251E+04   -0.45432E+01   -0.31042E+02  6370   0.194E+04-0.200E+04
CGA:  48    -0.111297652853E+04    0.16167E+01   -0.35937E+02  6370   0.157E+04-0.146E+04
CGA:  49    -0.112400034187E+04   -0.11024E+02   -0.24345E+02  6370   0.139E+04-0.188E+04
CGA:  50    -0.112625230040E+04   -0.22520E+01   -0.22020E+02  6370   0.995E+03-0.105E+04
CGA:  51    -0.113421520685E+04   -0.79629E+01   -0.12452E+02  6370   0.284E+03-0.581E+03
CGA:  52    -0.113582694830E+04   -0.16117E+01   -0.36216E+01  6370   0.817E+02-0.128E+03
CGA:  53    -0.113668236397E+04   -0.85542E+00   -0.92060E+00  6370   0.881E+01-0.204E+01
CGA:  54    -0.113686069315E+04   -0.17833E+00   -0.17714E+00  6370   0.102E+02-0.677E+00
CGA:  55    -0.113829360737E+04   -0.14329E+01   -0.13843E+01  6370   0.214E+02 0.149E+01
CGA:  56    -0.113892679286E+04   -0.63319E+00   -0.77629E+00  6370   0.131E+02 0.245E+01
CGA:  57    -0.113911099762E+04   -0.18420E+00   -0.11266E+00  6370   0.460E+01 0.784E+01
CGA:  58    -0.113921192073E+04   -0.10092E+00   -0.10964E+00  6370   0.260E+01-0.235E+00
CGA:  59    -0.113948359136E+04   -0.27167E+00   -0.24276E+00  6370   0.223E+01 0.502E+00
CGA:  60    -0.113962190148E+04   -0.13831E+00   -0.14095E+00  6370   0.368E+01-0.364E+00
CGA:  61    -0.113974650083E+04   -0.12460E+00   -0.11725E+00  6370   0.359E+01-0.533E+00
CGA:  62    -0.113987842086E+04   -0.13192E+00   -0.84253E-01  6370   0.264E+01 0.520E+00
CGA:  63    -0.113993015303E+04   -0.51732E-01   -0.49198E-01  6370   0.149E+01-0.197E+00
CGA:  64    -0.113995828517E+04   -0.28132E-01   -0.27123E-01  6370   0.115E+01-0.279E+00
CGA:  65    -0.114000850497E+04   -0.50220E-01   -0.56844E-01  6370   0.285E+01-0.339E+00
CGA:  66    -0.114003978860E+04   -0.31284E-01   -0.22046E-01  6370   0.182E+01 0.288E+00
CGA:  67    -0.114007056393E+04   -0.30775E-01   -0.26353E-01  6370   0.169E+01 0.381E-01
CGA:  68    -0.114010404096E+04   -0.33477E-01   -0.34490E-01  6370   0.210E+01-0.178E+00
CGA:  69    -0.114014022092E+04   -0.36180E-01   -0.37528E-01  6370   0.768E+00-0.188E+00
CGA:  70    -0.114015366476E+04   -0.13444E-01   -0.13173E-01  6370   0.427E+00-0.111E+00
CGA:  71    -0.114016818399E+04   -0.14519E-01   -0.14865E-01  6370   0.360E+00-0.489E-01
CGA:  72    -0.114017759822E+04   -0.94142E-02   -0.90129E-02  6370   0.414E+00 0.123E-01
CGA:  73    -0.114018596777E+04   -0.83696E-02   -0.81709E-02  6370   0.244E+00-0.273E-03
CGA:  74    -0.114019211401E+04   -0.61462E-02   -0.62961E-02  6370   0.282E+00-0.157E-01
CGA:  75    -0.114020075997E+04   -0.86460E-02   -0.86121E-02  6370   0.206E+00 0.850E-02
CGA:  76    -0.114020925540E+04   -0.84954E-02   -0.85635E-02  6370   0.385E+00-0.117E-02
CGA:  77    -0.114022111686E+04   -0.11861E-01   -0.11747E-01  6370   0.346E+00-0.243E-01
CGA:  78    -0.114023028695E+04   -0.91701E-02   -0.89628E-02  6370   0.284E+00-0.453E-01
CGA:  79    -0.114023808096E+04   -0.77940E-02   -0.75946E-02  6370   0.287E+00-0.325E-01
CGA:  80    -0.114024758666E+04   -0.95057E-02   -0.10039E-01  6370   0.344E+00-0.888E-01
CGA:  81    -0.114025394865E+04   -0.63620E-02   -0.58394E-02  6370   0.259E+00-0.815E-01
CGA:  82    -0.114026249562E+04   -0.85470E-02   -0.10327E-01  6370   0.357E+00-0.986E-01
CGA:  83    -0.114026763488E+04   -0.51393E-02   -0.46835E-02  6370   0.297E+00-0.239E-01
CGA:  84    -0.114027689269E+04   -0.92578E-02   -0.92377E-02  6370   0.259E+00-0.285E-01
CGA:  85    -0.114028478981E+04   -0.78971E-02   -0.78460E-02  6370   0.282E+00-0.599E-01
CGA:  86    -0.114029160658E+04   -0.68168E-02   -0.66709E-02  6370   0.186E+00-0.180E-01
CGA:  87    -0.114029696838E+04   -0.53618E-02   -0.53133E-02  6370   0.236E+00-0.382E-03
SDA:  88    -0.114030404486E+04   -0.70765E-02   -0.69643E-02  6370   0.228E+00-0.276E-01
CGA:  89    -0.114031333038E+04   -0.92855E-02   -0.92722E-02  6370   0.862E-01 0.894E-03
CGA:  90    -0.114031583679E+04   -0.25064E-02   -0.25837E-02  6370   0.941E-01 0.195E-01
CGA:  91    -0.114032462401E+04   -0.87872E-02   -0.95675E-02  6370   0.124E+00-0.133E-01
CGA:  92    -0.114033499896E+04   -0.10375E-01   -0.10472E-01  6370   0.168E+00 0.183E-04
CGA:  93    -0.114034063997E+04   -0.56410E-02   -0.57501E-02  6370   0.203E+00 0.349E-01
CGA:  94    -0.114035003226E+04   -0.93923E-02   -0.94306E-02  6370   0.106E+00 0.444E-01
CGA:  95    -0.114035506167E+04   -0.50294E-02   -0.50321E-02  6370   0.101E+00 0.201E-01
CGA:  96    -0.114035710508E+04   -0.20434E-02   -0.25928E-02  6370   0.487E-01 0.361E-01
CGA:  97    -0.114035974080E+04   -0.26357E-02   -0.26045E-02  6370   0.526E-01 0.300E-01
CGA:  98    -0.114036153985E+04   -0.17990E-02   -0.16864E-02  6370   0.822E-01-0.193E-01
CGA:  99    -0.114036366037E+04   -0.21205E-02   -0.21070E-02  6370   0.599E-01 0.733E-02
CGA: 100    -0.114036445476E+04   -0.79439E-03   -0.10837E-02  6370   0.414E-01 0.146E-01
CGA: 101    -0.114036675457E+04   -0.22998E-02   -0.22692E-02  6370   0.638E-01 0.565E-02
CGA: 102    -0.114036886645E+04   -0.21119E-02   -0.19641E-02  6370   0.782E-01-0.163E-01
CGA: 103    -0.114037263874E+04   -0.37723E-02   -0.40128E-02  6370   0.238E+00-0.678E-02
CGA: 104    -0.114037558317E+04   -0.29444E-02   -0.31693E-02  6370   0.983E-01 0.369E-01
CGA: 105    -0.114037732928E+04   -0.17461E-02   -0.20283E-02  6370   0.906E-01 0.169E-01
CGA: 106    -0.114038011247E+04   -0.27832E-02   -0.28709E-02  6370   0.708E-01 0.162E-02
CGA: 107    -0.114038250855E+04   -0.23961E-02   -0.23384E-02  6370   0.142E+00-0.191E-01
CGA: 108    -0.114038626132E+04   -0.37528E-02   -0.37559E-02  6370   0.220E+00-0.136E-02
CGA: 109    -0.114038900821E+04   -0.27469E-02   -0.29606E-02  6370   0.157E+00 0.370E-01
CGA: 110    -0.114039298280E+04   -0.39746E-02   -0.40408E-02  6370   0.250E+00 0.240E-01
CGA: 111    -0.114039767146E+04   -0.46887E-02   -0.43838E-02  6370   0.228E+00 0.110E-01
CGA: 112    -0.114040124306E+04   -0.35716E-02   -0.34844E-02  6370   0.219E+00-0.344E-01
CGA: 113    -0.114040553135E+04   -0.42883E-02   -0.42155E-02  6370   0.366E+00-0.174E-01
CGA: 114    -0.114040935376E+04   -0.38224E-02   -0.34568E-02  6370   0.200E+00 0.654E-01
CGA: 115    -0.114041105757E+04   -0.17038E-02   -0.20297E-02  6370   0.108E+00 0.322E-01
CGA: 116    -0.114041249227E+04   -0.14347E-02   -0.16467E-02  6370   0.147E+00 0.183E-01
CGA: 117    -0.114041514442E+04   -0.26522E-02   -0.26960E-02  6370   0.197E+00 0.605E-02
CGA: 118    -0.114041790694E+04   -0.27625E-02   -0.27198E-02  6370   0.158E+00-0.247E-01
CGA: 119    -0.114042027009E+04   -0.23632E-02   -0.21616E-02  6370   0.203E+00-0.244E-01
CGA: 120    -0.114042335825E+04   -0.30882E-02   -0.30670E-02  6370   0.227E+00-0.381E-02
CGA: 121    -0.114042540559E+04   -0.20473E-02   -0.22245E-02  6370   0.129E+00 0.279E-01
CGA: 122    -0.114042690389E+04   -0.14983E-02   -0.16779E-02  6370   0.132E+00 0.200E-01
CGA: 123    -0.114042939064E+04   -0.24867E-02   -0.25229E-02  6370   0.186E+00 0.582E-02
CGA: 124    -0.114043242937E+04   -0.30387E-02   -0.29841E-02  6370   0.127E+00-0.235E-01
CGA: 125    -0.114043441087E+04   -0.19815E-02   -0.17431E-02  6370   0.975E-01-0.341E-01
CGA: 126    -0.114043587865E+04   -0.14678E-02   -0.14110E-02  6370   0.977E-01-0.144E-01
CGA: 127    -0.114043687585E+04   -0.99720E-03   -0.10475E-02  6370   0.778E-01 0.811E-02
SDA: 128    -0.114043845359E+04   -0.15777E-02   -0.15913E-02  6370   0.118E+00 0.816E-02
CGA: 129    -0.114044174375E+04   -0.32902E-02   -0.36464E-02  6370   0.151E+00-0.450E-01
CGA: 130    -0.114044396539E+04   -0.22216E-02   -0.22129E-02  6370   0.566E-01 0.166E-01
CGA: 131    -0.114044444715E+04   -0.48176E-03   -0.69517E-03  6370   0.245E-01 0.181E-01
CGA: 132    -0.114044519373E+04   -0.74658E-03   -0.74061E-03  6370   0.364E-01 0.121E-01
CGA: 133    -0.114044724274E+04   -0.20490E-02   -0.22419E-02  6370   0.440E-01-0.974E-02
CGA: 134    -0.114044858559E+04   -0.13429E-02   -0.19629E-02  6370   0.123E+00-0.157E-01
CGA: 135    -0.114044924870E+04   -0.66310E-03   -0.72888E-03  6370   0.102E+00 0.191E-01
CGA: 136    -0.114045033523E+04   -0.10865E-02   -0.12652E-02  6370   0.799E-01 0.240E-01
CGA: 137    -0.114045157077E+04   -0.12355E-02   -0.12739E-02  6370   0.754E-01 0.134E-01
CGA: 138    -0.114045265783E+04   -0.10871E-02   -0.97869E-03  6370   0.489E-01-0.426E-02
CGA: 139    -0.114045340030E+04   -0.74247E-03   -0.59819E-03  6370   0.491E-01-0.162E-01
CGA: 140    -0.114045401757E+04   -0.61727E-03   -0.54915E-03  6370   0.856E-01-0.133E-01
CGA: 141    -0.114045464809E+04   -0.63052E-03   -0.64747E-03  6370   0.752E-01 0.275E-02
CGA: 142    -0.114045509113E+04   -0.44304E-03   -0.60230E-03  6370   0.454E-01 0.146E-01
CGA: 143    -0.114045543820E+04   -0.34706E-03   -0.49164E-03  6370   0.443E-01 0.135E-01
CGA: 144    -0.114045612892E+04   -0.69072E-03   -0.75154E-03  6370   0.588E-01 0.107E-01
CGA: 145    -0.114045706697E+04   -0.93805E-03   -0.88122E-03  6370   0.511E-01-0.280E-02
CGA: 146    -0.114045769210E+04   -0.62513E-03   -0.48712E-03  6370   0.454E-01-0.128E-01
CGA: 147    -0.114045817216E+04   -0.48006E-03   -0.36640E-03  6370   0.590E-01-0.134E-01
CGA: 148    -0.114045857624E+04   -0.40408E-03   -0.34445E-03  6370   0.623E-01-0.503E-02
CGA: 149    -0.114045893107E+04   -0.35483E-03   -0.38625E-03  6370   0.442E-01 0.549E-02
CGA: 150    -0.114045916276E+04   -0.23169E-03   -0.29946E-03  6370   0.315E-01 0.831E-02
CGA: 151    -0.114045939110E+04   -0.22834E-03   -0.27280E-03  6370   0.293E-01 0.556E-02
CGA: 152    -0.114045972367E+04   -0.33257E-03   -0.32750E-03  6370   0.315E-01-0.103E-02
CGA: 153    -0.114046011491E+04   -0.39123E-03   -0.33627E-03  6370   0.319E-01-0.125E-01
CGA: 154    -0.114046040372E+04   -0.28881E-03   -0.20510E-03  6370   0.378E-01-0.170E-01
CGA: 155    -0.114046145728E+04   -0.10536E-02   -0.93891E-03  6370   0.101E-01 0.126E-01
CGA: 156    -0.114046030925E+04    0.11480E-02   -0.71403E-03  6370   0.116E+00-0.305E-01
CGA: 157    -0.114046191740E+04   -0.16082E-02   -0.18477E-02  6370   0.260E-01 0.206E-01
CGA: 158    -0.114046289792E+04   -0.98052E-03   -0.10004E-02  6370   0.434E-02-0.507E-02
CGA: 159    -0.114046317008E+04   -0.27215E-03    0.13965E-03  6370   0.381E-02 0.152E-02
CGA: 160    -0.114046335390E+04   -0.18382E-03   -0.17377E-03  6370   0.211E-02 0.202E-02
CGA: 161    -0.114046352134E+04   -0.16744E-03    0.81729E-04  6370   0.142E-02 0.123E-02
CGA: 162    -0.114046354808E+04   -0.26739E-04   -0.33065E-04  6370   0.135E-02 0.112E-02
CGA: 163    -0.114046368902E+04   -0.14094E-03    0.23784E-04  6370   0.143E-02 0.102E-02
CGA: 164    -0.114046369415E+04   -0.51293E-05   -0.20703E-04  6370   0.117E-02 0.110E-02
CGA: 165    -0.114046379140E+04   -0.97252E-04    0.33139E-04  6370   0.113E-02 0.110E-02
CGA: 166    -0.114046392954E+04   -0.13813E-03   -0.91966E-04  6370   0.182E-02 0.866E-03
CGA: 167    -0.114046414442E+04   -0.21489E-03    0.30068E-04  6370   0.313E-02-0.457E-03
CGA: 168    -0.114046434320E+04   -0.19878E-03    0.93396E-04  6370   0.395E-02 0.215E-02
CGA: 169    -0.114046432047E+04    0.22731E-04   -0.27297E-04  6370   0.134E-02 0.210E-02
CGA: 170    -0.114046431035E+04    0.10125E-04   -0.10766E-04  6370   0.859E-03 0.973E-03
CGA: 171    -0.114046432911E+04   -0.18767E-04   -0.21328E-04  6370   0.845E-03 0.727E-03
CGA: 172    -0.114046442423E+04   -0.95120E-04    0.11958E-04  6370   0.886E-03 0.663E-03
CGA: 173    -0.114046442452E+04   -0.28366E-06   -0.11424E-04  6370   0.740E-03 0.728E-03
CGA: 174    -0.114046448184E+04   -0.57326E-04    0.24652E-04  6370   0.716E-03 0.720E-03
CGA: 175    -0.114046452396E+04   -0.42116E-04    0.13480E-03  6370   0.693E-03 0.694E-03
CGA: 176    -0.114046458256E+04   -0.58601E-04    0.17519E-04  6370   0.674E-03 0.666E-03
CGA: 177    -0.114046470224E+04   -0.11968E-03   -0.75183E-04  6370   0.124E-02 0.532E-03
CGA: 178    -0.114046487417E+04   -0.17193E-03    0.16488E-04  6370   0.250E-02-0.576E-03
CGA: 179    -0.114046502434E+04   -0.15017E-03    0.27645E-04  6370   0.479E-02 0.109E-02
CGA: 180    -0.114046507798E+04   -0.53640E-04   -0.10599E-03  6370   0.454E-03 0.327E-02
CGA: 181    -0.114046512003E+04   -0.42052E-04    0.13968E-04  6370   0.447E-03 0.440E-03
CGA: 182    -0.114046514844E+04   -0.28413E-04   -0.21450E-04  6370   0.492E-03 0.407E-03
CGA: 183    -0.114046522431E+04   -0.75863E-04    0.54197E-05  6370   0.619E-03 0.295E-03
CGA: 184    -0.114046521631E+04    0.79993E-05   -0.42633E-05  6370   0.444E-03 0.494E-03
   1 F= -.11404652E+04 E0= -.11404443E+04  d E =-.114047E+04  mag=    65.0000
