       N       E                     dE             d eps       ncg     rms          ort
DAV:   1     0.282365223311E+04    0.28237E+04   -0.29323E+05  2880   0.140E+03
DAV:   2    -0.969235397902E+03   -0.37929E+04   -0.36582E+04  2880   0.313E+02
DAV:   3    -0.122646432395E+04   -0.25723E+03   -0.25518E+03  2880   0.850E+01
DAV:   4    -0.122945726497E+04   -0.29929E+01   -0.29827E+01  2880   0.973E+00
DAV:   5    -0.122950606665E+04   -0.48802E-01   -0.48702E-01  2880   0.114E+00
SDA:   6    -0.872567233266E+03    0.35694E+03   -0.48702E-01  2880   0.611E+03 0.000E+00
CGA:   7    -0.982085809028E+03   -0.10952E+03   -0.10973E+03  2880   0.566E+02 0.655E+01
CGA:   8    -0.992827140970E+03   -0.10741E+02   -0.10852E+02  2880   0.248E+02 0.554E+01
CGA:   9    -0.996298949887E+03   -0.34718E+01   -0.40772E+01  2880   0.219E+02 0.278E+01
CGA:  10    -0.999074514552E+03   -0.27756E+01   -0.27818E+01  2880   0.158E+02-0.625E+01
CGA:  11    -0.100020376554E+04   -0.11293E+01   -0.11895E+01  2880   0.740E+01-0.187E+01
CGA:  12    -0.100145478974E+04   -0.12510E+01   -0.12493E+01  2880   0.356E+01 0.247E+00
CGA:  13    -0.100176126011E+04   -0.30647E+00   -0.26914E+00  2880   0.164E+01 0.194E-01
CGA:  14    -0.100200080899E+04   -0.23955E+00   -0.24476E+00  2880   0.127E+01 0.257E-01
CGA:  15    -0.100210735434E+04   -0.10655E+00   -0.10805E+00  2880   0.128E+01-0.414E-01
CGA:  16    -0.100222197624E+04   -0.11462E+00   -0.10227E+00  2880   0.515E+00 0.514E-01
CGA:  17    -0.100225130590E+04   -0.29330E-01   -0.33906E-01  2880   0.313E+00-0.642E-01
CGA:  18    -0.100229190493E+04   -0.40599E-01   -0.41203E-01  2880   0.228E+00 0.139E-01
CGA:  19    -0.100230685944E+04   -0.14955E-01   -0.13745E-01  2880   0.992E-01 0.118E-01
CGA:  20    -0.100232339403E+04   -0.16535E-01   -0.16530E-01  2880   0.110E+00-0.375E-03
CGA:  21    -0.100232912827E+04   -0.57342E-02   -0.62324E-02  2880   0.477E-01-0.928E-04
CGA:  22    -0.100233509016E+04   -0.59619E-02   -0.60913E-02  2880   0.651E-01 0.393E-02
CGA:  23    -0.100234006936E+04   -0.49792E-02   -0.51980E-02  2880   0.247E-01 0.140E-02
CGA:  24    -0.100234298797E+04   -0.29186E-02   -0.29055E-02  2880   0.252E-01-0.267E-03
CGA:  25    -0.100234487950E+04   -0.18915E-02   -0.19307E-02  2880   0.988E-02-0.719E-04
CGA:  26    -0.100234639732E+04   -0.15178E-02   -0.15234E-02  2880   0.181E-01-0.381E-04
CGA:  27    -0.100234764394E+04   -0.12466E-02   -0.11925E-02  2880   0.884E-02 0.137E-02
CGA:  28    -0.100234827964E+04   -0.63570E-03   -0.68004E-03  2880   0.826E-02-0.312E-03
CGA:  29    -0.100234916054E+04   -0.88090E-03   -0.82138E-03  2880   0.387E-02-0.193E-03
CGA:  30    -0.100234938234E+04   -0.22179E-03   -0.19017E-03  2880   0.254E-02 0.180E-03
CGA:  31    -0.100234963946E+04   -0.25713E-03   -0.23634E-03  2880   0.301E-02-0.404E-03
CGA:  32    -0.100234979112E+04   -0.15165E-03   -0.13897E-03  2880   0.236E-02-0.281E-03
CGA:  33    -0.100234991936E+04   -0.12824E-03   -0.13536E-03  2880   0.235E-02 0.121E-03
CGA:  34    -0.100235001150E+04   -0.92143E-04   -0.10840E-03  2880   0.124E-02 0.460E-03
CGA:  35    -0.100235006165E+04   -0.50150E-04   -0.65103E-04  2880   0.992E-03 0.255E-03
CGA:  36    -0.100235012834E+04   -0.66689E-04   -0.72697E-04  2880   0.111E-02 0.140E-03
SDA:  37    -0.100235020239E+04   -0.74054E-04   -0.70887E-04  2880   0.108E-02-0.666E-04
CGA:  38    -0.100235037568E+04   -0.17329E-03   -0.23468E-03  2880   0.144E-02-0.580E-03
CGA:  39    -0.100235050190E+04   -0.12621E-03   -0.12731E-03  2880   0.323E-03 0.388E-04
CGA:  40    -0.100235054487E+04   -0.42978E-04   -0.41605E-04  2880   0.224E-03 0.113E-03
CGA:  41    -0.100235061137E+04   -0.66498E-04   -0.64098E-04  2880   0.614E-03 0.246E-04
CGA:  42    -0.100235071784E+04   -0.10646E-03   -0.15070E-03  2880   0.234E-03-0.434E-03
CGA:  43    -0.100235073233E+04   -0.14491E-04   -0.17212E-04  2880   0.927E-04 0.539E-04
CGA:  44    -0.100235074086E+04   -0.85361E-05   -0.10075E-04  2880   0.581E-04 0.468E-04
   1 F= -.10023507E+04 E0= -.10023345E+04  d E =-.100235E+04  mag=     1.0000
       N       E                     dE             d eps       ncg     rms          ort
SDA:   1    -0.100241369243E+04   -0.62960E-01    0.00000E+00  2880   0.989E-02 0.000E+00
CGA:   2    -0.100241465059E+04   -0.95816E-03   -0.97096E-03  2880   0.119E-01 0.572E-03
CGA:   3    -0.100241648254E+04   -0.18320E-02   -0.18282E-02  2880   0.219E-02 0.115E-03
CGA:   4    -0.100241674211E+04   -0.25958E-03   -0.25937E-03  2880   0.150E-02-0.319E-03
CGA:   5    -0.100241688012E+04   -0.13801E-03   -0.13610E-03  2880   0.868E-03-0.168E-03
CGA:   6    -0.100241691588E+04   -0.35758E-04   -0.45252E-04  2880   0.154E-03 0.159E-03
CGA:   7    -0.100241692278E+04   -0.69055E-05   -0.10905E-04  2880   0.793E-04 0.726E-04
   2 F= -.10024169E+04 E0= -.10024005E+04  d E =-.661819E-01  mag=     0.9991
       N       E                     dE             d eps       ncg     rms          ort
SDA:   1    -0.100105683935E+04    0.13601E+01    0.00000E+00  2880   0.851E+01 0.000E+00
CGA:   2    -0.100245961397E+04   -0.14028E+01   -0.12499E+01  2880   0.322E+01 0.282E+01
CGA:   3    -0.100318235414E+04   -0.72274E+00   -0.79050E+00  2880   0.616E+01-0.723E+00
CGA:   4    -0.100349569417E+04   -0.31334E+00   -0.30977E+00  2880   0.242E+01-0.671E-02
CGA:   5    -0.100357042701E+04   -0.74733E-01   -0.10036E+00  2880   0.912E+00-0.505E+00
CGA:   6    -0.100362258741E+04   -0.52160E-01   -0.47372E-01  2880   0.440E+00 0.134E-01
CGA:   7    -0.100367050265E+04   -0.47915E-01   -0.47916E-01  2880   0.607E+00-0.145E-02
CGA:   8    -0.100370346444E+04   -0.32962E-01   -0.35167E-01  2880   0.213E+00-0.125E-01
CGA:   9    -0.100371402819E+04   -0.10564E-01   -0.10541E-01  2880   0.122E+00-0.431E-02
CGA:  10    -0.100372741232E+04   -0.13384E-01   -0.13300E-01  2880   0.802E-01 0.391E-02
CGA:  11    -0.100373295429E+04   -0.55420E-02   -0.56315E-02  2880   0.676E-01 0.103E-02
CGA:  12    -0.100374032501E+04   -0.73707E-02   -0.73633E-02  2880   0.370E-01 0.161E-02
CGA:  13    -0.100374244257E+04   -0.21176E-02   -0.21195E-02  2880   0.175E-01-0.618E-03
CGA:  14    -0.100374456822E+04   -0.21257E-02   -0.21465E-02  2880   0.141E-01-0.863E-03
CGA:  15    -0.100374556404E+04   -0.99582E-03   -0.10060E-02  2880   0.960E-02 0.400E-03
CGA:  16    -0.100374627396E+04   -0.70992E-03   -0.71904E-03  2880   0.309E-02 0.205E-03
CGA:  17    -0.100374657357E+04   -0.29961E-03   -0.29894E-03  2880   0.394E-02-0.250E-03
CGA:  18    -0.100374690657E+04   -0.33300E-03   -0.33321E-03  2880   0.142E-02 0.330E-04
CGA:  19    -0.100374698573E+04   -0.79160E-04   -0.83305E-04  2880   0.922E-03 0.101E-03
CGA:  20    -0.100374711586E+04   -0.13013E-03   -0.13621E-03  2880   0.751E-03-0.142E-03
CGA:  21    -0.100374717180E+04   -0.55941E-04   -0.52407E-04  2880   0.732E-03-0.241E-03
CGA:  22    -0.100374721243E+04   -0.40630E-04   -0.40328E-04  2880   0.420E-03-0.214E-04
CGA:  23    -0.100374722185E+04   -0.94247E-05   -0.15761E-04  2880   0.195E-03 0.107E-03
CGA:  24    -0.100374722753E+04   -0.56723E-05   -0.10858E-04  2880   0.150E-03 0.106E-03
CGA:  25    -0.100374724387E+04   -0.16344E-04   -0.17938E-04  2880   0.289E-03-0.571E-04
CGA:  26    -0.100374725806E+04   -0.14187E-04   -0.14708E-04  2880   0.225E-03 0.525E-04
CGA:  27    -0.100374726507E+04   -0.70119E-05   -0.98225E-05  2880   0.414E-04 0.497E-04
   3 F= -.10037473E+04 E0= -.10037309E+04  d E =-.133034E+01  mag=     0.9979
       N       E                     dE             d eps       ncg     rms          ort
SDA:   1    -0.100017699776E+04    0.35703E+01    0.00000E+00  2880   0.278E+02 0.000E+00
CGA:   2    -0.100266744579E+04   -0.24904E+01   -0.24929E+01  2880   0.689E+01 0.293E+00
CGA:   3    -0.100328253322E+04   -0.61509E+00   -0.61808E+00  2880   0.581E+01 0.489E+00
CGA:   4    -0.100405800415E+04   -0.77547E+00   -0.81085E+00  2880   0.291E+01-0.947E+00
CGA:   5    -0.100425611609E+04   -0.19811E+00   -0.20035E+00  2880   0.187E+01 0.502E-01
CGA:   6    -0.100437141583E+04   -0.11530E+00   -0.94376E-01  2880   0.315E+00 0.151E+00
CGA:   7    -0.100440752890E+04   -0.36113E-01   -0.37394E-01  2880   0.427E+00-0.451E-01
CGA:   8    -0.100442871033E+04   -0.21181E-01   -0.22177E-01  2880   0.292E+00-0.255E-02
CGA:   9    -0.100444259670E+04   -0.13886E-01   -0.13923E-01  2880   0.191E+00-0.581E-02
CGA:  10    -0.100445867992E+04   -0.16083E-01   -0.16092E-01  2880   0.816E-01 0.239E-02
CGA:  11    -0.100446209577E+04   -0.34158E-02   -0.35852E-02  2880   0.340E-01 0.120E-02
CGA:  12    -0.100446512921E+04   -0.30334E-02   -0.30299E-02  2880   0.377E-01 0.182E-02
CGA:  13    -0.100446793346E+04   -0.28042E-02   -0.28245E-02  2880   0.263E-01 0.356E-03
CGA:  14    -0.100447044898E+04   -0.25155E-02   -0.25103E-02  2880   0.207E-01-0.343E-03
CGA:  15    -0.100447150349E+04   -0.10545E-02   -0.10347E-02  2880   0.606E-02-0.173E-03
CGA:  16    -0.100447210848E+04   -0.60499E-03   -0.60635E-03  2880   0.693E-02-0.600E-04
CGA:  17    -0.100447258033E+04   -0.47184E-03   -0.46726E-03  2880   0.321E-02-0.377E-03
CGA:  18    -0.100447292503E+04   -0.34470E-03   -0.35004E-03  2880   0.469E-02-0.184E-03
CGA:  19    -0.100447317017E+04   -0.24514E-03   -0.25565E-03  2880   0.990E-03 0.373E-03
CGA:  20    -0.100447320938E+04   -0.39214E-04   -0.46345E-04  2880   0.475E-03 0.170E-03
CGA:  21    -0.100447326816E+04   -0.58774E-04   -0.57782E-04  2880   0.671E-03 0.442E-04
CGA:  22    -0.100447333484E+04   -0.66687E-04   -0.69927E-04  2880   0.819E-03-0.268E-03
CGA:  23    -0.100447337240E+04   -0.37561E-04   -0.36186E-04  2880   0.747E-03-0.137E-03
CGA:  24    -0.100447338945E+04   -0.17046E-04   -0.20597E-04  2880   0.293E-03 0.681E-04
CGA:  25    -0.100447339471E+04   -0.52629E-05   -0.10213E-04  2880   0.192E-03 0.990E-04
CGA:  26    -0.100447340066E+04   -0.59450E-05   -0.10072E-04  2880   0.152E-03 0.106E-03
CGA:  27    -0.100447341369E+04   -0.13035E-04   -0.23039E-04  2880   0.518E-03-0.135E-03
CGA:  28    -0.100447342842E+04   -0.14726E-04   -0.18699E-04  2880   0.363E-04 0.863E-04
CGA:  29    -0.100447343097E+04   -0.25496E-05   -0.27185E-05  2880   0.358E-04 0.120E-04
CGA:  30    -0.100447343936E+04   -0.83909E-05    0.13032E-04  2880   0.333E-04 0.312E-04
   4 F= -.10044734E+04 E0= -.10044567E+04  d E =-.726174E+00  mag=     0.9972
       N       E                     dE             d eps       ncg     rms          ort
SDA:   1    -0.100127545420E+04    0.31980E+01    0.00000E+00  2880   0.146E+02 0.000E+00
CGA:   2    -0.999175033029E+03    0.21004E+01   -0.59555E+01  2880   0.384E+02-0.113E+02
CGA:   3    -0.100205176889E+04   -0.28767E+01   -0.32472E+01  2880   0.259E+02 0.770E+01
CGA:   4    -0.100389138575E+04   -0.18396E+01   -0.20937E+01  2880   0.108E+02-0.993E+00
CGA:   5    -0.100443395345E+04   -0.54257E+00   -0.45371E+00  2880   0.164E+01-0.186E+00
CGA:   6    -0.100434974967E+04    0.84204E-01   -0.27094E+00  2880   0.916E+01-0.423E+01
CGA:   7    -0.100462493139E+04   -0.27518E+00   -0.46017E+00  2880   0.298E+01-0.204E+01
CGA:   8    -0.100472695966E+04   -0.10203E+00   -0.10703E+00  2880   0.313E+00-0.106E+00
CGA:   9    -0.100476016576E+04   -0.33206E-01   -0.33517E-01  2880   0.244E+00-0.117E-01
CGA:  10    -0.100478850075E+04   -0.28335E-01   -0.27988E-01  2880   0.249E+00 0.859E-02
CGA:  11    -0.100480870102E+04   -0.20200E-01   -0.18285E-01  2880   0.319E-01-0.895E-02
CGA:  12    -0.100481371360E+04   -0.50126E-02   -0.49090E-02  2880   0.545E-01 0.140E-02
CGA:  13    -0.100481872299E+04   -0.50094E-02   -0.49954E-02  2880   0.122E-01-0.101E-02
CGA:  14    -0.100482067573E+04   -0.19527E-02   -0.20089E-02  2880   0.848E-02-0.825E-03
CGA:  15    -0.100482173472E+04   -0.10590E-02   -0.10468E-02  2880   0.380E-02 0.377E-03
CGA:  16    -0.100482217221E+04   -0.43749E-03   -0.43959E-03  2880   0.417E-02-0.266E-03
CGA:  17    -0.100482273978E+04   -0.56757E-03   -0.56830E-03  2880   0.990E-03-0.202E-04
CGA:  18    -0.100482290249E+04   -0.16271E-03   -0.20028E-03  2880   0.159E-02-0.391E-03
CGA:  19    -0.100482297518E+04   -0.72689E-04   -0.66828E-04  2880   0.104E-02-0.154E-03
CGA:  20    -0.100482303758E+04   -0.62407E-04   -0.66422E-04  2880   0.749E-03 0.104E-03
CGA:  21    -0.100482306735E+04   -0.29770E-04   -0.40217E-04  2880   0.233E-03 0.185E-03
CGA:  22    -0.100482307791E+04   -0.10555E-04   -0.14190E-04  2880   0.127E-03 0.658E-04
CGA:  23    -0.100482309558E+04   -0.17675E-04   -0.17826E-04  2880   0.225E-03-0.192E-04
CGA:  24    -0.100482311466E+04   -0.19075E-04   -0.18938E-04  2880   0.373E-03-0.740E-04
CGA:  25    -0.100482312328E+04   -0.86205E-05   -0.81741E-05  2880   0.209E-03-0.703E-05
   5 F= -.10048231E+04 E0= -.10048066E+04  d E =-.349684E+00  mag=     0.9978
       N       E                     dE             d eps       ncg     rms          ort
SDA:   1    -0.100085369666E+04    0.39694E+01    0.00000E+00  2880   0.161E+02 0.000E+00
CGA:   2    -0.100264634071E+04   -0.17926E+01   -0.20440E+01  2880   0.107E+02-0.122E+01
CGA:   3    -0.100394683702E+04   -0.13005E+01   -0.11919E+01  2880   0.106E+02 0.296E+01
CGA:   4    -0.100436525909E+04   -0.41842E+00   -0.58739E+00  2880   0.502E+01-0.402E+01
CGA:   5    -0.100461613726E+04   -0.25088E+00   -0.23897E+00  2880   0.242E+01-0.296E+00
CGA:   6    -0.100476990131E+04   -0.15376E+00   -0.15153E+00  2880   0.334E+01-0.230E-01
CGA:   7    -0.100484459151E+04   -0.74690E-01   -0.57243E-01  2880   0.160E+01 0.668E+00
CGA:   8    -0.100487423468E+04   -0.29643E-01   -0.41620E-01  2880   0.120E+01-0.522E+00
CGA:   9    -0.100488977913E+04   -0.15544E-01   -0.18732E-01  2880   0.141E+01-0.125E+00
CGA:  10    -0.100491498283E+04   -0.25204E-01   -0.26297E-01  2880   0.113E+01-0.715E-01
CGA:  11    -0.100493724175E+04   -0.22259E-01   -0.30262E-01  2880   0.896E+00-0.224E+00
CGA:  12    -0.100495373754E+04   -0.16496E-01   -0.16703E-01  2880   0.574E+00-0.206E-01
CGA:  13    -0.100496745884E+04   -0.13721E-01   -0.14272E-01  2880   0.505E+00-0.166E-01
CGA:  14    -0.100498253356E+04   -0.15075E-01   -0.15340E-01  2880   0.427E+00 0.694E-03
CGA:  15    -0.100499036974E+04   -0.78362E-02   -0.72235E-02  2880   0.216E+00 0.437E-01
CGA:  16    -0.100499478359E+04   -0.44138E-02   -0.48954E-02  2880   0.145E+00-0.120E-01
CGA:  17    -0.100499812846E+04   -0.33449E-02   -0.33296E-02  2880   0.140E+00 0.905E-03
CGA:  18    -0.100500136272E+04   -0.32343E-02   -0.30779E-02  2880   0.119E+00 0.194E-02
CGA:  19    -0.100500403141E+04   -0.26687E-02   -0.28058E-02  2880   0.971E-01-0.809E-02
CGA:  20    -0.100500607895E+04   -0.20475E-02   -0.20958E-02  2880   0.832E-01-0.350E-02
CGA:  21    -0.100500813605E+04   -0.20571E-02   -0.22020E-02  2880   0.930E-01-0.232E-02
CGA:  22    -0.100501128735E+04   -0.31513E-02   -0.34487E-02  2880   0.922E-01 0.328E-02
CGA:  23    -0.100501408077E+04   -0.27934E-02   -0.28587E-02  2880   0.380E-01 0.239E-02
CGA:  24    -0.100501538415E+04   -0.13034E-02   -0.13183E-02  2880   0.242E-01 0.441E-03
CGA:  25    -0.100501634070E+04   -0.95654E-03   -0.94500E-03  2880   0.165E-01-0.952E-03
CGA:  26    -0.100501691154E+04   -0.57085E-03   -0.55986E-03  2880   0.936E-02-0.116E-02
CGA:  27    -0.100501726388E+04   -0.35233E-03   -0.34856E-03  2880   0.882E-02-0.444E-03
CGA:  28    -0.100501768203E+04   -0.41815E-03   -0.41837E-03  2880   0.990E-02 0.590E-03
CGA:  29    -0.100501806957E+04   -0.38754E-03   -0.39990E-03  2880   0.543E-02 0.988E-03
CGA:  30    -0.100501829640E+04   -0.22683E-03   -0.23312E-03  2880   0.407E-02 0.540E-03
CGA:  31    -0.100501853526E+04   -0.23886E-03   -0.23894E-03  2880   0.386E-02-0.479E-04
SDA:  32    -0.100501870854E+04   -0.17329E-03   -0.17184E-03  2880   0.256E-02-0.417E-03
CGA:  33    -0.100501885984E+04   -0.15130E-03   -0.14941E-03  2880   0.361E-03 0.178E-03
CGA:  34    -0.100501892114E+04   -0.61297E-04   -0.49356E-04  2880   0.498E-03 0.150E-03
CGA:  35    -0.100501913366E+04   -0.21253E-03   -0.22406E-05  2880   0.687E-03-0.155E-03
CGA:  36    -0.100501915477E+04   -0.21109E-04   -0.26398E-04  2880   0.280E-03 0.125E-03
CGA:  37    -0.100501916584E+04   -0.11068E-04   -0.16260E-04  2880   0.161E-03 0.110E-03
CGA:  38    -0.100501918174E+04   -0.15902E-04   -0.17307E-04  2880   0.163E-03 0.882E-04
CGA:  39    -0.100501916042E+04    0.21319E-04   -0.50967E-04  2880   0.156E-02-0.331E-03
CGA:  40    -0.100501923350E+04   -0.73082E-04   -0.82205E-04  2880   0.404E-04 0.168E-03
CGA:  41    -0.100501923419E+04   -0.68474E-06   -0.19930E-05  2880   0.195E-04 0.230E-04
   6 F= -.10050192E+04 E0= -.10050035E+04  d E =-.196111E+00  mag=     0.9980
       N       E                     dE             d eps       ncg     rms          ort
SDA:   1    -0.999152088969E+03    0.58671E+01    0.00000E+00  2880   0.196E+02 0.000E+00
CGA:   2    -0.100144899112E+04   -0.22969E+01   -0.26927E+01  2880   0.229E+02-0.121E+01
CGA:   3    -0.100277711808E+04   -0.13281E+01   -0.14347E+01  2880   0.167E+02-0.286E+01
CGA:   4    -0.100418739550E+04   -0.14103E+01   -0.13379E+01  2880   0.496E+01-0.576E+01
CGA:   5    -0.100249273160E+04    0.16947E+01   -0.89002E+00  2880   0.220E+02-0.649E+01
CGA:   6    -0.100440171553E+04   -0.19090E+01   -0.18836E+01  2880   0.249E+01-0.339E+01
CGA:   7    -0.100493727398E+04   -0.53556E+00    0.54037E+00  2880   0.398E+00-0.569E+00
CGA:   8    -0.100498841861E+04   -0.51145E-01   -0.51639E-01  2880   0.124E+01-0.459E-02
CGA:   9    -0.100505147720E+04   -0.63059E-01   -0.57642E-01  2880   0.449E+00 0.711E-01
CGA:  10    -0.100507947899E+04   -0.28002E-01   -0.24120E-01  2880   0.229E+00 0.362E-01
CGA:  11    -0.100509229491E+04   -0.12816E-01   -0.14056E-01  2880   0.156E+00-0.104E-01
CGA:  12    -0.100510273657E+04   -0.10442E-01   -0.10221E-01  2880   0.106E+00 0.721E-02
CGA:  13    -0.100510751232E+04   -0.47757E-02   -0.51689E-02  2880   0.547E-01 0.394E-02
CGA:  14    -0.100511155714E+04   -0.40448E-02   -0.40371E-02  2880   0.576E-01 0.107E-02
CGA:  15    -0.100511526824E+04   -0.37111E-02   -0.38250E-02  2880   0.448E-01-0.489E-03
CGA:  16    -0.100511802155E+04   -0.27533E-02   -0.28485E-02  2880   0.365E-01-0.192E-03
CGA:  17    -0.100512098159E+04   -0.29600E-02   -0.29716E-02  2880   0.111E-01 0.844E-03
CGA:  18    -0.100512147460E+04   -0.49301E-03   -0.50438E-03  2880   0.375E-02-0.319E-04
CGA:  19    -0.100512199259E+04   -0.51798E-03   -0.52073E-03  2880   0.623E-02-0.595E-04
CGA:  20    -0.100512233833E+04   -0.34574E-03   -0.36683E-03  2880   0.302E-02 0.730E-03
CGA:  21    -0.100512249575E+04   -0.15742E-03   -0.18748E-03  2880   0.173E-02 0.779E-03
CGA:  22    -0.100512262820E+04   -0.13245E-03   -0.14126E-03  2880   0.117E-02 0.363E-03
CGA:  23    -0.100512279887E+04   -0.17067E-03   -0.20157E-03  2880   0.184E-02-0.561E-03
CGA:  24    -0.100512284408E+04   -0.45208E-04   -0.37299E-04  2880   0.123E-02-0.158E-03
CGA:  25    -0.100512288038E+04   -0.36305E-04   -0.41853E-04  2880   0.875E-03 0.971E-04
CGA:  26    -0.100512290585E+04   -0.25467E-04   -0.38757E-04  2880   0.698E-03 0.299E-03
CGA:  27    -0.100512292422E+04   -0.18369E-04   -0.32476E-04  2880   0.299E-03 0.292E-03
CGA:  28    -0.100512293416E+04   -0.99356E-05   -0.15618E-04  2880   0.180E-03 0.128E-03
CGA:  29    -0.100512294449E+04   -0.10330E-04   -0.12544E-04  2880   0.153E-03 0.753E-04
CGA:  30    -0.100512295155E+04   -0.70679E-05   -0.91743E-05  2880   0.105E-03 0.610E-04
   7 F= -.10051230E+04 E0= -.10051085E+04  d E =-.103717E+00  mag=     0.9991
       N       E                     dE             d eps       ncg     rms          ort
SDA:   1    -0.100108594992E+04    0.40370E+01    0.00000E+00  2880   0.167E+02 0.000E+00
CGA:   2    -0.100248852390E+04   -0.14026E+01   -0.14484E+01  2880   0.115E+02-0.913E+00
CGA:   3    -0.100445249631E+04   -0.19640E+01   -0.21284E+01  2880   0.799E+01-0.165E+01
CGA:   4    -0.100486661059E+04   -0.41411E+00   -0.40979E+00  2880   0.110E+01-0.215E+00
CGA:   5    -0.100504708706E+04   -0.18048E+00   -0.18493E+00  2880   0.887E+00-0.498E-01
CGA:   6    -0.100511530842E+04   -0.68221E-01   -0.68120E-01  2880   0.322E+00-0.210E-01
CGA:   7    -0.100513822873E+04   -0.22920E-01   -0.23132E-01  2880   0.714E-01 0.964E-02
CGA:   8    -0.100515039921E+04   -0.12170E-01   -0.11599E-01  2880   0.641E-01 0.733E-02
CGA:   9    -0.100515760530E+04   -0.72061E-02   -0.71905E-02  2880   0.117E-01-0.159E-03
CGA:  10    -0.100516001477E+04   -0.24095E-02   -0.23348E-02  2880   0.110E-01 0.659E-03
CGA:  11    -0.100516119758E+04   -0.11828E-02   -0.11885E-02  2880   0.602E-02-0.690E-03
CGA:  12    -0.100516178719E+04   -0.58960E-03   -0.58741E-03  2880   0.354E-02 0.167E-03
CGA:  13    -0.100516209381E+04   -0.30663E-03   -0.31389E-03  2880   0.990E-03 0.914E-03
CGA:  14    -0.100516235321E+04   -0.25940E-03   -0.27204E-03  2880   0.142E-02-0.990E-04
CGA:  15    -0.100516244030E+04   -0.87090E-04   -0.92182E-04  2880   0.706E-03 0.176E-03
CGA:  16    -0.100516249589E+04   -0.55585E-04   -0.60522E-04  2880   0.359E-03 0.211E-03
CGA:  17    -0.100516254641E+04   -0.50523E-04   -0.52524E-04  2880   0.392E-03-0.137E-03
CGA:  18    -0.100516257019E+04   -0.23782E-04   -0.26887E-04  2880   0.455E-03-0.249E-03
CGA:  19    -0.100516258631E+04   -0.16116E-04   -0.24404E-04  2880   0.127E-03 0.183E-03
CGA:  20    -0.100516259249E+04   -0.61808E-05   -0.96435E-05  2880   0.546E-04 0.817E-04
CGA:  21    -0.100516258741E+04    0.50806E-05   -0.20739E-04  2880   0.524E-03-0.902E-04
CGA:  22    -0.100516259609E+04   -0.86773E-05   -0.19666E-04  2880   0.569E-04 0.150E-03
   8 F= -.10051626E+04 E0= -.10051487E+04  d E =-.396445E-01  mag=     0.9995
       N       E                     dE             d eps       ncg     rms          ort
SDA:   1    -0.100409430666E+04    0.10683E+01    0.00000E+00  2880   0.455E+01 0.000E+00
CGA:   2    -0.100444553767E+04   -0.35123E+00   -0.36047E+00  2880   0.334E+01-0.144E-01
CGA:   3    -0.100498861722E+04   -0.54308E+00   -0.53761E+00  2880   0.159E+01 0.871E-01
CGA:   4    -0.100512503798E+04   -0.13642E+00   -0.13096E+00  2880   0.364E+00-0.510E-01
CGA:   5    -0.100516788276E+04   -0.42845E-01   -0.43262E-01  2880   0.360E+00-0.143E-01
CGA:   6    -0.100519449753E+04   -0.26615E-01   -0.26690E-01  2880   0.103E+00-0.176E-02
CGA:   7    -0.100520542503E+04   -0.10927E-01   -0.10931E-01  2880   0.339E-01 0.410E-03
CGA:   8    -0.100520822101E+04   -0.27960E-02   -0.28011E-02  2880   0.239E-01 0.100E-03
CGA:   9    -0.100521078625E+04   -0.25652E-02   -0.25649E-02  2880   0.161E-01-0.361E-03
CGA:  10    -0.100521232755E+04   -0.15413E-02   -0.15459E-02  2880   0.470E-02 0.106E-02
CGA:  11    -0.100521262913E+04   -0.30158E-03   -0.31404E-03  2880   0.278E-02 0.271E-03
CGA:  12    -0.100521335439E+04   -0.72526E-03   -0.86311E-03  2880   0.485E-02-0.716E-03
CGA:  13    -0.100521353777E+04   -0.18339E-03   -0.18859E-03  2880   0.148E-02 0.648E-04
CGA:  14    -0.100521359336E+04   -0.55590E-04   -0.69512E-04  2880   0.629E-03 0.237E-03
CGA:  15    -0.100521363707E+04   -0.43711E-04   -0.51147E-04  2880   0.733E-03 0.223E-03
CGA:  16    -0.100521374086E+04   -0.10378E-03   -0.10335E-03  2880   0.367E-03 0.179E-03
CGA:  17    -0.100521377226E+04   -0.31400E-04   -0.28587E-04  2880   0.174E-03-0.762E-04
CGA:  18    -0.100521380008E+04   -0.27828E-04   -0.29538E-04  2880   0.103E-03-0.149E-04
CGA:  19    -0.100521380567E+04   -0.55899E-05   -0.67097E-05  2880   0.567E-04 0.327E-04
CGA:  20    -0.100521381666E+04   -0.10986E-04   -0.11021E-04  2880   0.523E-04-0.105E-05
CGA:  21    -0.100521382250E+04   -0.58388E-05   -0.63002E-05  2880   0.448E-04-0.279E-04
   9 F= -.10052138E+04 E0= -.10051994E+04  d E =-.512264E-01  mag=     0.9992
       N       E                     dE             d eps       ncg     rms          ort
SDA:   1    -0.100494546410E+04    0.26835E+00    0.00000E+00  2880   0.687E+00 0.000E+00
CGA:   2    -0.100518372195E+04   -0.23826E+00   -0.23707E+00  2880   0.310E+00 0.504E-02
CGA:   3    -0.100521073484E+04   -0.27013E-01   -0.27396E-01  2880   0.124E+00-0.126E-02
CGA:   4    -0.100522985637E+04   -0.19122E-01   -0.19251E-01  2880   0.608E-01-0.233E-02
CGA:   5    -0.100523331481E+04   -0.34584E-02   -0.34033E-02  2880   0.138E-01 0.108E-04
CGA:   6    -0.100523559020E+04   -0.22754E-02   -0.23040E-02  2880   0.660E-02-0.533E-03
CGA:   7    -0.100523636441E+04   -0.77421E-03   -0.77296E-03  2880   0.239E-02 0.247E-03
CGA:   8    -0.100523668328E+04   -0.31888E-03   -0.32547E-03  2880   0.170E-02-0.469E-03
CGA:   9    -0.100523681855E+04   -0.13526E-03   -0.13708E-03  2880   0.118E-02 0.985E-04
CGA:  10    -0.100523692772E+04   -0.10918E-03   -0.11282E-03  2880   0.286E-03 0.123E-03
CGA:  11    -0.100523697820E+04   -0.50476E-04   -0.61848E-04  2880   0.618E-03-0.144E-03
CGA:  12    -0.100523700268E+04   -0.24482E-04   -0.31375E-04  2880   0.938E-04 0.105E-03
CGA:  13    -0.100523701424E+04   -0.11560E-04   -0.11654E-04  2880   0.871E-04 0.889E-05
CGA:  14    -0.100523683752E+04    0.17672E-03   -0.94447E-04  2880   0.272E-02-0.394E-03
CGA:  15    -0.100523699475E+04   -0.15722E-03   -0.18895E-03  2880   0.346E-03 0.126E-03
CGA:  16    -0.100523703624E+04   -0.41496E-04   -0.39912E-04  2880   0.844E-04-0.177E-04
CGA:  17    -0.100523705338E+04   -0.17141E-04   -0.17010E-04  2880   0.738E-04 0.944E-05
CGA:  18    -0.100523706027E+04   -0.68900E-05   -0.55476E-05  2880   0.155E-04-0.108E-04
  10 F= -.10052371E+04 E0= -.10052225E+04  d E =-.232378E-01  mag=     0.9992
       N       E                     dE             d eps       ncg     rms          ort
SDA:   1    -0.100045557888E+04    0.47815E+01    0.00000E+00  2880   0.207E+02 0.000E+00
CGA:   2    -0.100223528843E+04   -0.17797E+01   -0.25234E+01  2880   0.155E+02 0.100E+01
CGA:   3    -0.100381243464E+04   -0.15771E+01   -0.20777E+01  2880   0.139E+02 0.825E+00
CGA:   4    -0.100447827173E+04   -0.66584E+00   -0.10866E+01  2880   0.917E+01-0.620E+01
CGA:   5    -0.100481793822E+04   -0.33967E+00   -0.23157E+00  2880   0.344E+01 0.765E+00
CGA:   6    -0.100489206391E+04   -0.74126E-01   -0.25774E+00  2880   0.644E+01-0.214E+01
CGA:   7    -0.100497737601E+04   -0.85312E-01   -0.47732E+00  2880   0.316E+01-0.288E+01
CGA:   8    -0.100521130305E+04   -0.23393E+00   -0.16415E+00  2880   0.170E+00 0.122E+00
CGA:   9    -0.100523285909E+04   -0.21556E-01   -0.21891E-01  2880   0.188E+00 0.428E-02
CGA:  10    -0.100526378280E+04   -0.30924E-01   -0.30983E-01  2880   0.704E-01-0.665E-02
CGA:  11    -0.100526952444E+04   -0.57416E-02   -0.60939E-02  2880   0.271E-01-0.136E-03
CGA:  12    -0.100527146493E+04   -0.19405E-02   -0.19802E-02  2880   0.162E-01 0.172E-03
CGA:  13    -0.100527506440E+04   -0.35995E-02   -0.36359E-02  2880   0.177E-01-0.524E-03
CGA:  14    -0.100527633640E+04   -0.12720E-02   -0.14829E-02  2880   0.334E-02 0.611E-03
CGA:  15    -0.100527661423E+04   -0.27783E-03   -0.28672E-03  2880   0.291E-02 0.108E-03
CGA:  16    -0.100527727934E+04   -0.66511E-03   -0.69193E-03  2880   0.209E-02-0.337E-03
CGA:  17    -0.100527740664E+04   -0.12730E-03   -0.14567E-03  2880   0.509E-03 0.243E-03
CGA:  18    -0.100527745814E+04   -0.51503E-04   -0.56984E-04  2880   0.361E-03 0.117E-03
CGA:  19    -0.100527750378E+04   -0.45634E-04   -0.46978E-04  2880   0.229E-03 0.349E-04
CGA:  20    -0.100527752706E+04   -0.23280E-04   -0.26616E-04  2880   0.873E-04 0.928E-04
CGA:  21    -0.100527753992E+04   -0.12861E-04   -0.13562E-04  2880   0.735E-04 0.230E-04
CGA:  22    -0.100527756643E+04   -0.26507E-04    0.20199E-03  2880   0.732E-04 0.256E-05
CGA:  23    -0.100527724491E+04    0.32152E-03   -0.17440E-03  2880   0.419E-02-0.507E-03
CGA:  24    -0.100527742301E+04   -0.17810E-03   -0.21820E-03  2880   0.757E-03 0.841E-04
CGA:  25    -0.100527746821E+04   -0.45199E-04   -0.69921E-04  2880   0.259E-03 0.165E-03
CGA:  26    -0.100527750312E+04   -0.34908E-04   -0.37803E-04  2880   0.181E-03 0.239E-04
CGA:  27    -0.100527751970E+04   -0.16579E-04   -0.21973E-04  2880   0.104E-03 0.454E-04
CGA:  28    -0.100527753011E+04   -0.10408E-04   -0.11763E-04  2880   0.674E-04 0.104E-04
CGA:  29    -0.100527756796E+04   -0.37852E-04    0.45058E-04  2880   0.475E-04-0.124E-04
CGA:  30    -0.100527757360E+04   -0.56421E-05   -0.56343E-05  2880   0.184E-04-0.212E-06
  11 F= -.10052776E+04 E0= -.10052631E+04  d E =-.405133E-01  mag=     0.9995
       N       E                     dE             d eps       ncg     rms          ort
SDA:   1    -0.996460811375E+03    0.88168E+01    0.00000E+00  2880   0.217E+02 0.000E+00
CGA:   2    -0.100302152254E+04   -0.65607E+01   -0.62172E+01  2880   0.111E+02 0.303E+01
CGA:   3    -0.100417185115E+04   -0.11503E+01   -0.14754E+01  2880   0.536E+01-0.126E+01
CGA:   4    -0.100490625652E+04   -0.73441E+00   -0.46452E+00  2880   0.189E+01 0.126E+01
CGA:   5    -0.100499866975E+04   -0.92413E-01   -0.16432E+00  2880   0.328E+01-0.889E+00
CGA:   6    -0.100505344111E+04   -0.54771E-01   -0.43405E-01  2880   0.254E+01 0.377E+00
CGA:   7    -0.100507815264E+04   -0.24712E-01   -0.11435E+00  2880   0.296E+01-0.213E+01
CGA:   8    -0.100516455437E+04   -0.86402E-01   -0.24153E+00  2880   0.893E+00-0.890E+00
CGA:   9    -0.100520616028E+04   -0.41606E-01   -0.44637E-01  2880   0.382E+00-0.288E-01
CGA:  10    -0.100522620687E+04   -0.20047E-01   -0.18499E-01  2880   0.821E-01 0.272E-01
CGA:  11    -0.100523087164E+04   -0.46648E-02   -0.44527E-02  2880   0.462E-01 0.219E-02
CGA:  12    -0.100523918396E+04   -0.83123E-02   -0.82950E-02  2880   0.104E+00-0.529E-04
CGA:  13    -0.100524550351E+04   -0.63196E-02   -0.66177E-02  2880   0.495E-01-0.211E-02
CGA:  14    -0.100524831838E+04   -0.28149E-02   -0.28465E-02  2880   0.163E-01 0.192E-02
CGA:  15    -0.100524913204E+04   -0.81367E-03   -0.84006E-03  2880   0.662E-02-0.282E-04
CGA:  16    -0.100525015608E+04   -0.10240E-02   -0.10246E-02  2880   0.144E-01-0.115E-03
CGA:  17    -0.100525107848E+04   -0.92241E-03   -0.95165E-03  2880   0.566E-02 0.516E-04
CGA:  18    -0.100525146682E+04   -0.38833E-03   -0.39683E-03  2880   0.346E-02 0.280E-03
CGA:  19    -0.100525172433E+04   -0.25752E-03   -0.25096E-03  2880   0.193E-02-0.118E-03
CGA:  20    -0.100525196933E+04   -0.24500E-03   -0.24421E-03  2880   0.290E-02-0.484E-03
CGA:  21    -0.100525209042E+04   -0.12109E-03   -0.11731E-03  2880   0.145E-02-0.598E-04
CGA:  22    -0.100525214801E+04   -0.57585E-04   -0.75421E-04  2880   0.110E-02 0.222E-03
CGA:  23    -0.100525219850E+04   -0.50492E-04   -0.70007E-04  2880   0.537E-03 0.283E-03
CGA:  24    -0.100525222475E+04   -0.26251E-04   -0.32356E-04  2880   0.266E-03 0.884E-04
CGA:  25    -0.100525224532E+04   -0.20573E-04   -0.22263E-04  2880   0.211E-03 0.362E-04
CGA:  26    -0.100525225578E+04   -0.10463E-04   -0.12996E-04  2880   0.157E-03 0.392E-04
CGA:  27    -0.100525227067E+04   -0.14881E-04   -0.16017E-04  2880   0.230E-03 0.427E-04
CGA:  28    -0.100525229561E+04   -0.24945E-04   -0.24214E-04  2880   0.137E-03-0.271E-04
CGA:  29    -0.100525228703E+04    0.85844E-05   -0.29444E-04  2880   0.105E-02-0.287E-03
CGA:  30    -0.100525231798E+04   -0.30954E-04   -0.41560E-04  2880   0.998E-04 0.126E-03
CGA:  31    -0.100525232008E+04   -0.21033E-05   -0.59212E-05  2880   0.638E-04 0.639E-04
  12 F= -.10052523E+04 E0= -.10052376E+04  d E =0.252535E-01  mag=     0.9993
       N       E                     dE             d eps       ncg     rms          ort
SDA:   1    -0.100428170470E+04    0.97061E+00    0.00000E+00  2880   0.462E+01 0.000E+00
CGA:   2    -0.100461426708E+04   -0.33256E+00   -0.34188E+00  2880   0.282E+01-0.158E+00
CGA:   3    -0.100512584335E+04   -0.51158E+00   -0.51389E+00  2880   0.157E+01-0.276E-01
CGA:   4    -0.100522726095E+04   -0.10142E+00   -0.10708E+00  2880   0.355E+00-0.406E-01
CGA:   5    -0.100527269199E+04   -0.45431E-01   -0.45685E-01  2880   0.249E+00-0.799E-02
CGA:   6    -0.100529319832E+04   -0.20506E-01   -0.20531E-01  2880   0.824E-01 0.613E-03
CGA:   7    -0.100530231610E+04   -0.91178E-02   -0.91248E-02  2880   0.189E-01-0.366E-02
CGA:   8    -0.100530531753E+04   -0.30014E-02   -0.29801E-02  2880   0.205E-01 0.302E-03
CGA:   9    -0.100530715515E+04   -0.18376E-02   -0.18348E-02  2880   0.568E-02-0.255E-03
CGA:  10    -0.100530769042E+04   -0.53526E-03   -0.52828E-03  2880   0.359E-02-0.488E-03
CGA:  11    -0.100530832625E+04   -0.63583E-03   -0.60238E-03  2880   0.992E-03 0.447E-03
CGA:  12    -0.100530846862E+04   -0.14237E-03   -0.14518E-03  2880   0.173E-02-0.180E-03
CGA:  13    -0.100530866019E+04   -0.19157E-03   -0.19340E-03  2880   0.609E-03-0.857E-04
CGA:  14    -0.100530868163E+04   -0.21447E-04   -0.29313E-04  2880   0.201E-03 0.120E-03
CGA:  15    -0.100530869725E+04   -0.15612E-04   -0.18276E-04  2880   0.180E-03 0.714E-04
CGA:  16    -0.100530873840E+04   -0.41152E-04   -0.47917E-04  2880   0.275E-03-0.791E-04
CGA:  17    -0.100530874557E+04   -0.71688E-05   -0.52438E-05  2880   0.129E-03-0.248E-04
  13 F= -.10053087E+04 E0= -.10052943E+04  d E =-.564255E-01  mag=     0.9996
       N       E                     dE             d eps       ncg     rms          ort
SDA:   1    -0.100526217089E+04    0.46568E-01    0.00000E+00  2880   0.311E+00 0.000E+00
CGA:   2    -0.100528093832E+04   -0.18767E-01   -0.19721E-01  2880   0.113E+00-0.665E-03
CGA:   3    -0.100530046547E+04   -0.19527E-01   -0.19328E-01  2880   0.129E+00 0.265E-02
CGA:   4    -0.100531017814E+04   -0.97127E-02   -0.98062E-02  2880   0.215E-01-0.151E-02
CGA:   5    -0.100531297905E+04   -0.28009E-02   -0.28107E-02  2880   0.726E-02-0.345E-03
CGA:   6    -0.100531397507E+04   -0.99601E-03   -0.10125E-02  2880   0.776E-02-0.521E-03
CGA:   7    -0.100531447799E+04   -0.50292E-03   -0.50663E-03  2880   0.976E-03 0.708E-04
CGA:   8    -0.100531457000E+04   -0.92014E-04   -0.95213E-04  2880   0.522E-03 0.289E-03
CGA:   9    -0.100531468350E+04   -0.11349E-03   -0.11600E-03  2880   0.441E-03-0.395E-04
CGA:  10    -0.100531471218E+04   -0.28689E-04   -0.29021E-04  2880   0.230E-03 0.581E-05
CGA:  11    -0.100531474392E+04   -0.31734E-04   -0.31802E-04  2880   0.133E-03-0.330E-05
CGA:  12    -0.100531426110E+04    0.48282E-03   -0.26222E-03  2880   0.112E-01-0.952E-03
CGA:  13    -0.100531469674E+04   -0.43564E-03   -0.47922E-03  2880   0.657E-03 0.325E-03
CGA:  14    -0.100531472688E+04   -0.30144E-04   -0.47922E-04  2880   0.229E-03 0.151E-03
CGA:  15    -0.100531475147E+04   -0.24586E-04   -0.28721E-04  2880   0.816E-04 0.535E-04
CGA:  16    -0.100531476015E+04   -0.86873E-05   -0.89224E-05  2880   0.812E-04 0.165E-05
CGA:  17    -0.100531477450E+04   -0.14352E-04   -0.14388E-04  2880   0.430E-04 0.919E-05
CGA:  18    -0.100531478066E+04   -0.61591E-05   -0.55351E-05  2880   0.544E-04-0.103E-04
  14 F= -.10053148E+04 E0= -.10053005E+04  d E =-.603510E-02  mag=     0.9996
       N       E                     dE             d eps       ncg     rms          ort
SDA:   1    -0.100510176003E+04    0.21301E+00    0.00000E+00  2880   0.635E+00 0.000E+00
CGA:   2    -0.100519123368E+04   -0.89474E-01   -0.90643E-01  2880   0.792E+00 0.844E-02
CGA:   3    -0.100529614314E+04   -0.10491E+00   -0.10439E+00  2880   0.173E+00-0.527E-02
CGA:   4    -0.100530660484E+04   -0.10462E-01   -0.10322E-01  2880   0.585E-01-0.952E-03
CGA:   5    -0.100531735914E+04   -0.10754E-01   -0.10755E-01  2880   0.142E-01 0.126E-03
CGA:   6    -0.100531900232E+04   -0.16432E-02   -0.16425E-02  2880   0.767E-02-0.437E-03
CGA:   7    -0.100531965522E+04   -0.65291E-03   -0.67207E-03  2880   0.352E-02 0.244E-03
CGA:   8    -0.100532004107E+04   -0.38585E-03   -0.39388E-03  2880   0.185E-02 0.118E-03
CGA:   9    -0.100532025002E+04   -0.20895E-03   -0.19412E-03  2880   0.649E-03-0.253E-03
CGA:  10    -0.100532032975E+04   -0.79729E-04   -0.81379E-04  2880   0.222E-03 0.145E-03
CGA:  11    -0.100532036513E+04   -0.35386E-04   -0.35245E-04  2880   0.311E-03-0.679E-05
CGA:  12    -0.100532040461E+04   -0.39476E-04   -0.38407E-04  2880   0.146E-03-0.406E-04
CGA:  13    -0.100532041657E+04   -0.11962E-04   -0.12760E-04  2880   0.469E-04 0.148E-04
CGA:  14    -0.100532038029E+04    0.36283E-04   -0.31532E-04  2880   0.102E-02-0.149E-03
CGA:  15    -0.100532042047E+04   -0.40181E-04   -0.53638E-04  2880   0.160E-03 0.893E-04
CGA:  16    -0.100532042840E+04   -0.79304E-05   -0.11115E-04  2880   0.226E-04 0.308E-04
CGA:  17    -0.100532039912E+04    0.29276E-04   -0.14247E-04  2880   0.838E-03-0.120E-03
CGA:  18    -0.100532042970E+04   -0.30575E-04   -0.43475E-04  2880   0.681E-04 0.972E-04
CGA:  19    -0.100532043506E+04   -0.53628E-05   -0.57516E-05  2880   0.151E-04 0.347E-05
  15 F= -.10053204E+04 E0= -.10053062E+04  d E =-.565440E-02  mag=     0.9996
       N       E                     dE             d eps       ncg     rms          ort
SDA:   1    -0.100340756896E+04    0.19129E+01    0.00000E+00  2880   0.468E+01 0.000E+00
CGA:   2    -0.100458918709E+04   -0.11816E+01   -0.11720E+01  2880   0.857E+01 0.133E+00
CGA:   3    -0.100507372374E+04   -0.48454E+00   -0.68566E+00  2880   0.211E+01-0.208E+01
CGA:   4    -0.100519683220E+04   -0.12311E+00   -0.12919E+00  2880   0.608E+00-0.718E-01
CGA:   5    -0.100529144196E+04   -0.94610E-01   -0.94518E-01  2880   0.243E+00-0.125E-01
CGA:   6    -0.100531385738E+04   -0.22415E-01   -0.22082E-01  2880   0.666E-01-0.313E-02
CGA:   7    -0.100532465905E+04   -0.10802E-01   -0.10795E-01  2880   0.432E-01 0.134E-02
CGA:   8    -0.100532807293E+04   -0.34139E-02   -0.34715E-02  2880   0.190E-01-0.538E-03
CGA:   9    -0.100532990800E+04   -0.18351E-02   -0.18487E-02  2880   0.749E-02-0.294E-03
CGA:  10    -0.100533084538E+04   -0.93738E-03   -0.95062E-03  2880   0.364E-02 0.559E-03
CGA:  11    -0.100533150065E+04   -0.65527E-03   -0.66400E-03  2880   0.205E-02-0.508E-03
CGA:  12    -0.100533167284E+04   -0.17219E-03   -0.18482E-03  2880   0.659E-03 0.254E-03
CGA:  13    -0.100533183595E+04   -0.16310E-03   -0.16426E-03  2880   0.481E-03-0.180E-04
CGA:  14    -0.100533192497E+04   -0.89025E-04   -0.89441E-04  2880   0.190E-03-0.136E-04
CGA:  15    -0.100533193860E+04   -0.13628E-04   -0.13151E-04  2880   0.123E-03-0.741E-05
CGA:  16    -0.100533197122E+04   -0.32623E-04   -0.34101E-04  2880   0.321E-04-0.109E-04
CGA:  17    -0.100533197115E+04    0.67390E-07   -0.15977E-05  2880   0.164E-04 0.159E-04
  16 F= -.10053320E+04 E0= -.10053178E+04  d E =-.115361E-01  mag=     0.9997
       N       E                     dE             d eps       ncg     rms          ort
SDA:   1    -0.996790617672E+03    0.85414E+01    0.00000E+00  2880   0.250E+02 0.000E+00
CGA:   2    -0.100011549494E+04   -0.33249E+01   -0.34225E+01  2880   0.278E+02 0.268E+01
CGA:   3    -0.100345393589E+04   -0.33384E+01   -0.36525E+01  2880   0.195E+02 0.182E+01
CGA:   4    -0.100436348792E+04   -0.90955E+00   -0.13745E+01  2880   0.785E+01-0.693E+01
CGA:   5    -0.100474463199E+04   -0.38114E+00   -0.24575E+00  2880   0.297E+01 0.166E+01
CGA:   6    -0.100493111490E+04   -0.18648E+00   -0.21243E+00  2880   0.327E+01-0.523E+00
CGA:   7    -0.100499273729E+04   -0.61622E-01   -0.65210E-01  2880   0.273E+01-0.340E+00
CGA:   8    -0.100504775159E+04   -0.55014E-01   -0.12432E+00  2880   0.448E+01-0.904E+00
CGA:   9    -0.100510784619E+04   -0.60095E-01   -0.67249E-01  2880   0.234E+01-0.442E+00
CGA:  10    -0.100515412191E+04   -0.46276E-01   -0.72882E-01  2880   0.160E+01-0.722E+00
CGA:  11    -0.100517333905E+04   -0.19217E-01   -0.15821E-01  2880   0.967E+00 0.209E+00
CGA:  12    -0.100519041683E+04   -0.17078E-01   -0.19800E-01  2880   0.608E+00-0.130E+00
CGA:  13    -0.100519954854E+04   -0.91317E-02   -0.15449E-01  2880   0.784E+00-0.155E+00
CGA:  14    -0.100521062559E+04   -0.11077E-01   -0.12981E-01  2880   0.678E+00-0.574E-01
CGA:  15    -0.100522412782E+04   -0.13502E-01   -0.19148E-01  2880   0.733E+00-0.139E+00
CGA:  16    -0.100524257130E+04   -0.18443E-01   -0.20382E-01  2880   0.647E+00-0.457E-01
CGA:  17    -0.100525814255E+04   -0.15571E-01   -0.17067E-01  2880   0.343E+00-0.536E-01
CGA:  18    -0.100526658270E+04   -0.84402E-02   -0.85660E-02  2880   0.163E+00-0.610E-02
CGA:  19    -0.100527076036E+04   -0.41777E-02   -0.39600E-02  2880   0.104E+00 0.112E-01
CGA:  20    -0.100527453112E+04   -0.37708E-02   -0.38633E-02  2880   0.118E+00 0.156E-02
CGA:  21    -0.100527861838E+04   -0.40873E-02   -0.39503E-02  2880   0.126E+00 0.389E-02
CGA:  22    -0.100528262979E+04   -0.40114E-02   -0.40047E-02  2880   0.129E+00-0.290E-02
CGA:  23    -0.100528677424E+04   -0.41445E-02   -0.41263E-02  2880   0.120E+00-0.628E-02
CGA:  24    -0.100528987829E+04   -0.31040E-02   -0.31212E-02  2880   0.728E-01-0.779E-02
CGA:  25    -0.100529157791E+04   -0.16996E-02   -0.17063E-02  2880   0.367E-01-0.254E-02
CGA:  26    -0.100529247419E+04   -0.89628E-03   -0.91572E-03  2880   0.275E-01 0.139E-02
CGA:  27    -0.100529340891E+04   -0.93472E-03   -0.10134E-02  2880   0.341E-01 0.229E-02
CGA:  28    -0.100529461245E+04   -0.12035E-02   -0.12877E-02  2880   0.325E-01 0.335E-02
CGA:  29    -0.100529558973E+04   -0.97728E-03   -0.10647E-02  2880   0.231E-01 0.132E-02
CGA:  30    -0.100529634120E+04   -0.75147E-03   -0.77136E-03  2880   0.158E-01-0.125E-03
CGA:  31    -0.100529683550E+04   -0.49430E-03   -0.48395E-03  2880   0.939E-02-0.722E-03
SDA:  32    -0.100529711951E+04   -0.28401E-03   -0.28114E-03  2880   0.641E-02-0.321E-03
CGA:  33    -0.100529757942E+04   -0.45991E-03   -0.44855E-03  2880   0.261E-02 0.866E-03
CGA:  34    -0.100529819397E+04   -0.61455E-03   -0.18181E-04  2880   0.549E-02-0.175E-02
CGA:  35    -0.100529852111E+04   -0.32714E-03   -0.33071E-03  2880   0.180E-02 0.160E-04
CGA:  36    -0.100529875209E+04   -0.23097E-03   -0.22325E-03  2880   0.570E-03 0.403E-03
CGA:  37    -0.100529877066E+04   -0.18575E-04   -0.35523E-04  2880   0.168E-03 0.315E-03
CGA:  38    -0.100529878417E+04   -0.13505E-04   -0.14971E-04  2880   0.128E-03 0.112E-03
CGA:  39    -0.100529882836E+04   -0.44194E-04   -0.57569E-04  2880   0.114E-02-0.388E-04
CGA:  40    -0.100529887573E+04   -0.47373E-04   -0.54163E-04  2880   0.791E-03 0.150E-03
CGA:  41    -0.100529889549E+04   -0.19753E-04   -0.28833E-04  2880   0.126E-03 0.114E-03
CGA:  42    -0.100529890442E+04   -0.89297E-05   -0.92294E-05  2880   0.149E-03 0.601E-05
CGA:  43    -0.100529894033E+04   -0.35915E-04    0.18874E-03  2880   0.174E-03-0.216E-04
CGA:  44    -0.100529740740E+04    0.15329E-02   -0.88717E-03  2880   0.272E-01-0.265E-02
CGA:  45    -0.100529851526E+04   -0.11079E-02   -0.11566E-02  2880   0.219E-02 0.171E-02
CGA:  46    -0.100529876124E+04   -0.24599E-03   -0.28477E-03  2880   0.156E-02 0.629E-03
CGA:  47    -0.100529890999E+04   -0.14874E-03   -0.16468E-03  2880   0.199E-03 0.176E-03
CGA:  48    -0.100529891647E+04   -0.64853E-05   -0.11683E-04  2880   0.484E-04 0.397E-04
  17 F= -.10052989E+04 E0= -.10052855E+04  d E =0.330547E-01  mag=     0.9995
       N       E                     dE             d eps       ncg     rms          ort
SDA:   1    -0.100196695071E+04    0.33320E+01    0.00000E+00  2880   0.887E+01 0.000E+00
CGA:   2    -0.100404270017E+04   -0.20757E+01   -0.19283E+01  2880   0.448E+01 0.208E+01
CGA:   3    -0.100478345251E+04   -0.74075E+00   -0.42047E+00  2880   0.126E+01 0.255E+01
CGA:   4    -0.100503311615E+04   -0.24966E+00   -0.24104E+00  2880   0.152E+01 0.237E+00
CGA:   5    -0.100523995112E+04   -0.20683E+00   -0.20563E+00  2880   0.740E+00-0.763E-02
CGA:   6    -0.100529573836E+04   -0.55787E-01   -0.54139E-01  2880   0.233E+00 0.785E-02
CGA:   7    -0.100532127627E+04   -0.25538E-01   -0.25514E-01  2880   0.970E-01-0.488E-02
CGA:   8    -0.100532851525E+04   -0.72390E-02   -0.72916E-02  2880   0.457E-01 0.285E-03
CGA:   9    -0.100533168113E+04   -0.31659E-02   -0.33699E-02  2880   0.153E-01 0.434E-03
CGA:  10    -0.100533388686E+04   -0.22057E-02   -0.22089E-02  2880   0.177E-01-0.775E-04
CGA:  11    -0.100533533728E+04   -0.14504E-02   -0.14982E-02  2880   0.108E-01 0.291E-04
CGA:  12    -0.100533623610E+04   -0.89883E-03   -0.94446E-03  2880   0.379E-02 0.791E-03
CGA:  13    -0.100533671360E+04   -0.47750E-03   -0.46881E-03  2880   0.505E-02-0.289E-03
CGA:  14    -0.100533717342E+04   -0.45982E-03   -0.43778E-03  2880   0.190E-02-0.470E-03
CGA:  15    -0.100533726682E+04   -0.93394E-04   -0.11201E-03  2880   0.757E-03 0.252E-03
CGA:  16    -0.100533730654E+04   -0.39719E-04   -0.54472E-04  2880   0.456E-03 0.195E-03
CGA:  17    -0.100533738453E+04   -0.77993E-04   -0.77857E-04  2880   0.488E-03 0.746E-04
CGA:  18    -0.100533742185E+04   -0.37325E-04   -0.36765E-04  2880   0.208E-03-0.141E-04
CGA:  19    -0.100533745669E+04   -0.34832E-04   -0.33834E-04  2880   0.215E-03 0.268E-04
CGA:  20    -0.100533748228E+04   -0.25596E-04   -0.22055E-04  2880   0.163E-03-0.854E-04
CGA:  21    -0.100533715892E+04    0.32336E-03   -0.60628E-04  2880   0.553E-02-0.788E-03
CGA:  22    -0.100533737524E+04   -0.21632E-03   -0.25895E-03  2880   0.599E-03 0.346E-03
CGA:  23    -0.100533740435E+04   -0.29112E-04   -0.46189E-04  2880   0.272E-03 0.227E-03
CGA:  24    -0.100533743200E+04   -0.27646E-04   -0.33567E-04  2880   0.118E-03 0.111E-03
CGA:  25    -0.100533744388E+04   -0.11879E-04   -0.13337E-04  2880   0.917E-04 0.241E-04
CGA:  26    -0.100533745829E+04   -0.14415E-04   -0.14722E-04  2880   0.870E-04 0.507E-04
CGA:  27    -0.100533746879E+04   -0.10503E-04   -0.10220E-04  2880   0.990E-04-0.132E-04
CGA:  28    -0.100533739410E+04    0.74692E-04   -0.40447E-04  2880   0.183E-02-0.334E-03
CGA:  29    -0.100533747804E+04   -0.83942E-04   -0.90628E-04  2880   0.360E-03 0.482E-05
CGA:  30    -0.100533750420E+04   -0.26154E-04   -0.33301E-04  2880   0.478E-04 0.132E-03
CGA:  31    -0.100533750318E+04    0.10162E-05   -0.26752E-05  2880   0.179E-04 0.352E-04
  18 F= -.10053375E+04 E0= -.10053234E+04  d E =-.385867E-01  mag=     0.9993
       N       E                     dE             d eps       ncg     rms          ort
SDA:   1    -0.100397444918E+04    0.13631E+01    0.00000E+00  2880   0.642E+01 0.000E+00
CGA:   2    -0.100437205995E+04   -0.39761E+00   -0.54517E+00  2880   0.467E+01-0.560E+00
CGA:   3    -0.100510140276E+04   -0.72934E+00   -0.78116E+00  2880   0.242E+01-0.809E+00
CGA:   4    -0.100522479035E+04   -0.12339E+00   -0.13464E+00  2880   0.503E+00-0.127E+00
CGA:   5    -0.100528754042E+04   -0.62750E-01   -0.62760E-01  2880   0.294E+00 0.376E-02
CGA:   6    -0.100531210210E+04   -0.24562E-01   -0.25445E-01  2880   0.119E+00-0.970E-03
CGA:   7    -0.100532438537E+04   -0.12283E-01   -0.12415E-01  2880   0.293E-01 0.694E-03
CGA:   8    -0.100532729647E+04   -0.29111E-02   -0.29290E-02  2880   0.234E-01 0.101E-03
CGA:   9    -0.100533074012E+04   -0.34437E-02   -0.34509E-02  2880   0.840E-02-0.413E-03
CGA:  10    -0.100533143416E+04   -0.69404E-03   -0.71072E-03  2880   0.504E-02 0.167E-03
CGA:  11    -0.100533223591E+04   -0.80175E-03   -0.79434E-03  2880   0.215E-02 0.285E-03
CGA:  12    -0.100533248568E+04   -0.24976E-03   -0.25079E-03  2880   0.207E-02 0.353E-04
CGA:  13    -0.100533281821E+04   -0.33253E-03   -0.34101E-03  2880   0.848E-03-0.244E-03
CGA:  14    -0.100533287129E+04   -0.53090E-04   -0.54871E-04  2880   0.360E-03 0.228E-04
CGA:  15    -0.100533294714E+04   -0.75843E-04   -0.69362E-04  2880   0.952E-04 0.105E-03
CGA:  16    -0.100533296503E+04   -0.17888E-04   -0.17779E-04  2880   0.172E-03 0.617E-05
CGA:  17    -0.100533298841E+04   -0.23387E-04   -0.23359E-04  2880   0.340E-04-0.113E-04
CGA:  18    -0.100533299268E+04   -0.42672E-05   -0.42446E-05  2880   0.234E-04 0.565E-05
CGA:  19    -0.100533299980E+04   -0.71167E-05    0.18593E-02  2880   0.218E-04 0.134E-05
  19 F= -.10053330E+04 E0= -.10053186E+04  d E =0.450338E-02  mag=     0.9994
       N       E                     dE             d eps       ncg     rms          ort
SDA:   1    -0.100476938716E+04    0.56361E+00    0.00000E+00  2880   0.295E+01 0.000E+00
CGA:   2    -0.100495534953E+04   -0.18596E+00   -0.16766E+00  2880   0.121E+01 0.354E-01
CGA:   3    -0.100526717980E+04   -0.31183E+00   -0.31302E+00  2880   0.532E+00-0.114E-01
CGA:   4    -0.100531441866E+04   -0.47239E-01   -0.42492E-01  2880   0.168E+00 0.496E-02
CGA:   5    -0.100533478947E+04   -0.20371E-01   -0.20439E-01  2880   0.968E-01 0.276E-02
CGA:   6    -0.100534321828E+04   -0.84288E-02   -0.84184E-02  2880   0.489E-01 0.835E-03
CGA:   7    -0.100534746828E+04   -0.42500E-02   -0.42542E-02  2880   0.851E-02-0.338E-03
CGA:   8    -0.100534894942E+04   -0.14811E-02   -0.14804E-02  2880   0.134E-01-0.148E-04
CGA:   9    -0.100534984915E+04   -0.89973E-03   -0.91884E-03  2880   0.179E-02 0.243E-03
CGA:  10    -0.100535010187E+04   -0.25273E-03   -0.24987E-03  2880   0.178E-02 0.207E-03
CGA:  11    -0.100535037326E+04   -0.27138E-03   -0.27783E-03  2880   0.142E-02-0.438E-03
CGA:  12    -0.100535046563E+04   -0.92378E-04   -0.88637E-04  2880   0.780E-03-0.959E-04
CGA:  13    -0.100535051402E+04   -0.48387E-04   -0.55820E-04  2880   0.295E-03 0.156E-03
CGA:  14    -0.100535054100E+04   -0.26973E-04   -0.29885E-04  2880   0.256E-03 0.800E-04
CGA:  15    -0.100535057142E+04   -0.30425E-04   -0.31360E-04  2880   0.894E-04 0.411E-04
CGA:  16    -0.100535058158E+04   -0.10157E-04   -0.10627E-04  2880   0.793E-04 0.296E-04
CGA:  17    -0.100535059722E+04   -0.15646E-04   -0.21469E-04  2880   0.219E-03-0.683E-04
CGA:  18    -0.100535061372E+04   -0.16500E-04   -0.12884E-04  2880   0.546E-04-0.607E-04
CGA:  19    -0.100535061783E+04   -0.41083E-05   -0.40724E-05  2880   0.196E-04-0.262E-05
  20 F= -.10053506E+04 E0= -.10053365E+04  d E =-.176180E-01  mag=     0.9994
       N       E                     dE             d eps       ncg     rms          ort
SDA:   1    -0.100532537101E+04    0.25243E-01    0.00000E+00  2880   0.752E-01 0.000E+00
CGA:   2    -0.100533473877E+04   -0.93678E-02   -0.93827E-02  2880   0.120E+00-0.825E-03
CGA:   3    -0.100534820502E+04   -0.13466E-01   -0.13467E-01  2880   0.136E-01 0.380E-03
CGA:   4    -0.100534995623E+04   -0.17512E-02   -0.17549E-02  2880   0.968E-02-0.425E-03
CGA:   5    -0.100535090041E+04   -0.94417E-03   -0.95493E-03  2880   0.214E-02 0.790E-03
CGA:   6    -0.100535119789E+04   -0.29748E-03   -0.29972E-03  2880   0.117E-02-0.154E-03
CGA:   7    -0.100535129541E+04   -0.97517E-04   -0.93213E-04  2880   0.786E-03-0.153E-03
CGA:   8    -0.100535138107E+04   -0.85662E-04   -0.85190E-04  2880   0.150E-03 0.412E-04
CGA:   9    -0.100535138481E+04   -0.37436E-05   -0.82604E-05  2880   0.697E-04 0.727E-04
  21 F= -.10053514E+04 E0= -.10053372E+04  d E =-.766980E-03  mag=     0.9994
       N       E                     dE             d eps       ncg     rms          ort
SDA:   1    -0.100502763826E+04    0.32374E+00    0.00000E+00  2880   0.770E+00 0.000E+00
CGA:   2    -0.100524544076E+04   -0.21780E+00   -0.21899E+00  2880   0.143E+01-0.668E-02
CGA:   3    -0.100532027251E+04   -0.74832E-01   -0.80799E-01  2880   0.148E+00-0.666E-01
CGA:   4    -0.100533757273E+04   -0.17300E-01   -0.17279E-01  2880   0.103E+00 0.232E-02
CGA:   5    -0.100534949620E+04   -0.11923E-01   -0.11922E-01  2880   0.140E-01-0.187E-02
CGA:   6    -0.100535160091E+04   -0.21047E-02   -0.20658E-02  2880   0.807E-02 0.100E-02
CGA:   7    -0.100535274630E+04   -0.11454E-02   -0.11567E-02  2880   0.377E-02-0.735E-03
CGA:   8    -0.100535303533E+04   -0.28902E-03   -0.29572E-03  2880   0.124E-02 0.224E-03
CGA:   9    -0.100535314163E+04   -0.10630E-03   -0.11222E-03  2880   0.794E-03 0.187E-03
CGA:  10    -0.100535331784E+04   -0.17621E-03   -0.18370E-03  2880   0.377E-03-0.884E-04
CGA:  11    -0.100535333986E+04   -0.22016E-04   -0.25709E-04  2880   0.142E-03 0.868E-04
CGA:  12    -0.100535337791E+04   -0.38050E-04   -0.46346E-04  2880   0.429E-03-0.562E-04
CGA:  13    -0.100535340066E+04   -0.22748E-04   -0.15052E-04  2880   0.194E-03-0.117E-03
CGA:  14    -0.100535341108E+04   -0.10427E-04   -0.71427E-05  2880   0.138E-03-0.482E-04
CGA:  15    -0.100535341454E+04   -0.34573E-05   -0.53694E-05  2880   0.127E-03 0.298E-04
  22 F= -.10053534E+04 E0= -.10053392E+04  d E =-.202973E-02  mag=     0.9992
       N       E                     dE             d eps       ncg     rms          ort
SDA:   1    -0.100078934422E+04    0.45641E+01    0.00000E+00  2880   0.120E+02 0.000E+00
CGA:   2    -0.100282324861E+04   -0.20339E+01   -0.19942E+01  2880   0.189E+02 0.120E+01
CGA:   3    -0.100462454689E+04   -0.18013E+01   -0.18445E+01  2880   0.620E+01-0.259E+00
CGA:   4    -0.100499179602E+04   -0.36725E+00   -0.42455E+00  2880   0.154E+01-0.245E+00
CGA:   5    -0.100514646473E+04   -0.15467E+00   -0.15456E+00  2880   0.155E+01-0.113E-01
CGA:   6    -0.100525133652E+04   -0.10487E+00   -0.10307E+00  2880   0.384E+00-0.270E-03
CGA:   7    -0.100528209944E+04   -0.30763E-01   -0.30852E-01  2880   0.145E+00-0.553E-02
CGA:   8    -0.100529527331E+04   -0.13174E-01   -0.13103E-01  2880   0.109E+00-0.160E-02
CGA:   9    -0.100530671601E+04   -0.11443E-01   -0.11445E-01  2880   0.323E-01-0.101E-03
CGA:  10    -0.100531025540E+04   -0.35394E-02   -0.35493E-02  2880   0.169E-01-0.222E-02
CGA:  11    -0.100531195264E+04   -0.16972E-02   -0.16952E-02  2880   0.124E-01 0.838E-03
CGA:  12    -0.100531308121E+04   -0.11286E-02   -0.11411E-02  2880   0.484E-02 0.662E-03
CGA:  13    -0.100531392451E+04   -0.84330E-03   -0.90052E-03  2880   0.481E-02-0.829E-03
CGA:  14    -0.100531432421E+04   -0.39971E-03   -0.40337E-03  2880   0.134E-02 0.486E-03
CGA:  15    -0.100531443296E+04   -0.10875E-03   -0.11157E-03  2880   0.909E-03 0.848E-04
CGA:  16    -0.100531466861E+04   -0.23565E-03   -0.29562E-03  2880   0.912E-03-0.301E-03
CGA:  17    -0.100531470063E+04   -0.32018E-04   -0.39785E-04  2880   0.343E-03 0.146E-03
CGA:  18    -0.100531471765E+04   -0.17023E-04   -0.22705E-04  2880   0.139E-03 0.976E-04
CGA:  19    -0.100531473594E+04   -0.18286E-04   -0.18463E-04  2880   0.145E-03 0.225E-04
CGA:  20    -0.100531475957E+04   -0.23633E-04   -0.24757E-04  2880   0.174E-03-0.305E-04
CGA:  21    -0.100531476636E+04   -0.67887E-05   -0.71038E-05  2880   0.748E-04 0.477E-05
  23 F= -.10053148E+04 E0= -.10053005E+04  d E =0.386482E-01  mag=     0.9989
       N       E                     dE             d eps       ncg     rms          ort
SDA:   1    -0.100418518721E+04    0.11296E+01    0.00000E+00  2880   0.298E+01 0.000E+00
CGA:   2    -0.100488658689E+04   -0.70140E+00   -0.66727E+00  2880   0.341E+01 0.299E+00
CGA:   3    -0.100521509414E+04   -0.32851E+00   -0.34029E+00  2880   0.598E+00 0.132E+00
CGA:   4    -0.100528803335E+04   -0.72939E-01   -0.73238E-01  2880   0.465E+00-0.254E-01
CGA:   5    -0.100532391224E+04   -0.35879E-01   -0.35441E-01  2880   0.157E+00-0.432E-03
CGA:   6    -0.100534235872E+04   -0.18446E-01   -0.18428E-01  2880   0.572E-01 0.398E-03
CGA:   7    -0.100534619678E+04   -0.38381E-02   -0.39010E-02  2880   0.284E-01 0.104E-02
CGA:   8    -0.100534917334E+04   -0.29766E-02   -0.29845E-02  2880   0.199E-01 0.148E-02
CGA:   9    -0.100535135373E+04   -0.21804E-02   -0.21765E-02  2880   0.901E-02-0.117E-02
CGA:  10    -0.100535191901E+04   -0.56528E-03   -0.56017E-03  2880   0.479E-02-0.282E-03
CGA:  11    -0.100535244136E+04   -0.52235E-03   -0.51802E-03  2880   0.264E-02 0.646E-03
CGA:  12    -0.100535269209E+04   -0.25073E-03   -0.24880E-03  2880   0.233E-02-0.899E-04
CGA:  13    -0.100535299663E+04   -0.30453E-03   -0.32699E-03  2880   0.196E-02-0.560E-03
CGA:  14    -0.100535307207E+04   -0.75438E-04   -0.87672E-04  2880   0.631E-03 0.260E-03
CGA:  15    -0.100535309069E+04   -0.18628E-04   -0.30976E-04  2880   0.261E-03 0.196E-03
CGA:  16    -0.100535311511E+04   -0.24417E-04   -0.27318E-04  2880   0.331E-03 0.134E-03
CGA:  17    -0.100535314961E+04   -0.34501E-04   -0.37624E-04  2880   0.603E-03-0.237E-03
CGA:  18    -0.100535316645E+04   -0.16840E-04   -0.23431E-04  2880   0.696E-04 0.103E-03
CGA:  19    -0.100535316848E+04   -0.20273E-05   -0.42421E-05  2880   0.612E-04 0.482E-04
CGA:  20    -0.100535313218E+04    0.36297E-04   -0.21785E-04  2880   0.229E-02-0.149E-03
CGA:  21    -0.100535320972E+04   -0.77539E-04   -0.87951E-04  2880   0.286E-04 0.102E-03
CGA:  22    -0.100535320872E+04    0.99864E-06   -0.11233E-05  2880   0.140E-04 0.162E-04
  24 F= -.10053532E+04 E0= -.10053391E+04  d E =-.384424E-01  mag=     0.9992
       N       E                     dE             d eps       ncg     rms          ort
SDA:   1    -0.100509751528E+04    0.25569E+00    0.00000E+00  2880   0.901E+00 0.000E+00
CGA:   2    -0.100519406920E+04   -0.96554E-01   -0.98773E-01  2880   0.764E+00-0.900E-02
CGA:   3    -0.100532944266E+04   -0.13537E+00   -0.13539E+00  2880   0.120E+00 0.947E-03
CGA:   4    -0.100534071160E+04   -0.11269E-01   -0.11472E-01  2880   0.108E+00-0.137E-02
CGA:   5    -0.100535260275E+04   -0.11891E-01   -0.11810E-01  2880   0.170E-01-0.859E-03
CGA:   6    -0.100535479924E+04   -0.21965E-02   -0.22030E-02  2880   0.790E-02 0.339E-03
CGA:   7    -0.100535577581E+04   -0.97657E-03   -0.97209E-03  2880   0.475E-02-0.253E-03
CGA:   8    -0.100535626262E+04   -0.48681E-03   -0.49916E-03  2880   0.151E-02 0.301E-03
CGA:   9    -0.100535639123E+04   -0.12861E-03   -0.13453E-03  2880   0.944E-03 0.875E-04
CGA:  10    -0.100535661772E+04   -0.22649E-03   -0.29271E-03  2880   0.997E-03-0.442E-03
CGA:  11    -0.100535663915E+04   -0.21434E-04   -0.28265E-04  2880   0.467E-03 0.676E-04
CGA:  12    -0.100535666078E+04   -0.21624E-04   -0.33792E-04  2880   0.379E-03 0.157E-03
CGA:  13    -0.100535668777E+04   -0.26994E-04   -0.36076E-04  2880   0.130E-03 0.130E-03
CGA:  14    -0.100535670633E+04   -0.18556E-04   -0.17798E-04  2880   0.140E-03-0.215E-04
CGA:  15    -0.100535671588E+04   -0.95527E-05   -0.10142E-04  2880   0.133E-03 0.117E-04
  25 F= -.10053567E+04 E0= -.10053425E+04  d E =-.350716E-02  mag=     0.9991
       N       E                     dE             d eps       ncg     rms          ort
SDA:   1    -0.100529131024E+04    0.65396E-01    0.00000E+00  2880   0.232E+00 0.000E+00
CGA:   2    -0.100531310013E+04   -0.21790E-01   -0.22144E-01  2880   0.216E+00 0.311E-02
CGA:   3    -0.100534657012E+04   -0.33470E-01   -0.33370E-01  2880   0.113E+00 0.262E-02
CGA:   4    -0.100535353896E+04   -0.69688E-02   -0.71519E-02  2880   0.175E-01-0.403E-02
CGA:   5    -0.100535683810E+04   -0.32991E-02   -0.33060E-02  2880   0.786E-02-0.948E-04
CGA:   6    -0.100535763713E+04   -0.79903E-03   -0.79602E-03  2880   0.340E-02-0.239E-03
CGA:   7    -0.100535788791E+04   -0.25079E-03   -0.25732E-03  2880   0.122E-02 0.110E-03
CGA:   8    -0.100535802809E+04   -0.14018E-03   -0.14279E-03  2880   0.667E-03 0.202E-03
CGA:   9    -0.100535814685E+04   -0.11875E-03   -0.13335E-03  2880   0.665E-03-0.322E-03
CGA:  10    -0.100535816604E+04   -0.19190E-04   -0.23782E-04  2880   0.291E-03 0.772E-04
CGA:  11    -0.100535817466E+04   -0.86288E-05   -0.15717E-04  2880   0.124E-03 0.889E-04
CGA:  12    -0.100535818683E+04   -0.12170E-04   -0.13579E-04  2880   0.105E-03 0.374E-04
CGA:  13    -0.100535820380E+04   -0.16963E-04   -0.24772E-04  2880   0.282E-03-0.125E-03
CGA:  14    -0.100535821510E+04   -0.11298E-04   -0.15637E-04  2880   0.418E-04 0.632E-04
CGA:  15    -0.100535822044E+04   -0.53449E-05   -0.52856E-05  2880   0.201E-04-0.419E-05
  26 F= -.10053582E+04 E0= -.10053441E+04  d E =-.150456E-02  mag=     0.9992
