       N       E                     dE             d eps       ncg     rms          rms(c)
DAV:   1     0.309763255143E+04    0.30976E+04   -0.25779E+05 11544   0.130E+03
DAV:   2    -0.598257934759E+03   -0.36959E+04   -0.35625E+04 14088   0.297E+02
DAV:   3    -0.865235950018E+03   -0.26698E+03   -0.26525E+03 13968   0.846E+01
DAV:   4    -0.868669127857E+03   -0.34332E+01   -0.34199E+01 14040   0.103E+01
DAV:   5    -0.868730329115E+03   -0.61201E-01   -0.61045E-01 14328   0.127E+00    0.987E+01
DAV:   6    -0.770848404067E+03    0.97882E+02   -0.41065E+02 12864   0.320E+01    0.504E+01
DAV:   7    -0.780239763800E+03   -0.93914E+01   -0.22082E+01 13032   0.777E+00    0.163E+01
DAV:   8    -0.785036919180E+03   -0.47972E+01   -0.22723E+00 13620   0.274E+00    0.787E+00
DAV:   9    -0.787556421748E+03   -0.25195E+01   -0.14743E+00 14028   0.190E+00    0.384E+00
DAV:  10    -0.788082270377E+03   -0.52585E+00   -0.33234E-01 13164   0.992E-01    0.116E+00
DAV:  11    -0.788156708455E+03   -0.74438E-01   -0.43161E-02 13980   0.380E-01    0.617E-01
DAV:  12    -0.788167693902E+03   -0.10985E-01   -0.65249E-03 13332   0.158E-01    0.282E-01
DAV:  13    -0.788169866925E+03   -0.21730E-02   -0.12582E-03 13908   0.745E-02    0.105E-01
DAV:  14    -0.788170346519E+03   -0.47959E-03   -0.44882E-04 13164   0.460E-02    0.427E-02
DAV:  15    -0.788170367686E+03   -0.21167E-04   -0.77025E-05 14412   0.251E-02    0.302E-02
DAV:  16    -0.788170368918E+03   -0.12322E-05   -0.26957E-05 11388   0.171E-02
   1 F= -.78817037E+03 E0= -.78817037E+03  d E =-.788170E+03  mag=    -0.0049
       N       E                     dE             d eps       ncg     rms          rms(c)
DAV:   1    -0.788170495528E+03   -0.12784E-03   -0.16067E-05 10704   0.127E-02    0.608E-03
DAV:   2    -0.788170494339E+03    0.11898E-05   -0.80212E-06  8124   0.668E-03    0.475E-03
DAV:   3    -0.788170492982E+03    0.13561E-05   -0.11864E-06  7740   0.340E-03    0.272E-03
DAV:   4    -0.788170491256E+03    0.17268E-05   -0.20640E-06  9672   0.651E-03
   2 F= -.78817049E+03 E0= -.78817049E+03  d E =-.122338E-03  mag=     0.0005
       N       E                     dE             d eps       ncg     rms          rms(c)
DAV:   1    -0.788173545416E+03   -0.30524E-02   -0.27771E-03 12024   0.902E-02    0.275E-02
DAV:   2    -0.788173551589E+03   -0.61724E-05   -0.92200E-05 13968   0.156E-02    0.121E-02
DAV:   3    -0.788173549748E+03    0.18405E-05   -0.29831E-06  7584   0.398E-03    0.552E-03
DAV:   4    -0.788173549194E+03    0.55433E-06   -0.20522E-06  6840   0.287E-03
   3 F= -.78817355E+03 E0= -.78817355E+03  d E =-.305794E-02  mag=     0.0000
       N       E                     dE             d eps       ncg     rms          rms(c)
DAV:   1    -0.788184240407E+03   -0.10691E-01   -0.37577E-02 11904   0.332E-01    0.998E-02
DAV:   2    -0.788184320600E+03   -0.80193E-04   -0.12292E-03 14052   0.569E-02    0.444E-02
DAV:   3    -0.788184295467E+03    0.25133E-04   -0.43945E-05 14232   0.149E-02    0.200E-02
DAV:   4    -0.788184287651E+03    0.78162E-05   -0.19614E-05 12204   0.966E-03
   4 F= -.78818429E+03 E0= -.78818429E+03  d E =-.107385E-01  mag=     0.0000
       N       E                     dE             d eps       ncg     rms          rms(c)
DAV:   1    -0.788201761682E+03   -0.17466E-01   -0.12503E-01 11904   0.604E-01    0.171E-01
DAV:   2    -0.788202017462E+03   -0.25578E-03   -0.39207E-03 14064   0.102E-01    0.777E-02
DAV:   3    -0.788201940061E+03    0.77401E-04   -0.13990E-04 14280   0.265E-02    0.356E-02
DAV:   4    -0.788201915539E+03    0.24523E-04   -0.65781E-05 13944   0.175E-02    0.136E-02
DAV:   5    -0.788201911267E+03    0.42718E-05   -0.15158E-05 11388   0.124E-02
   5 F= -.78820191E+03 E0= -.78820191E+03  d E =-.176236E-01  mag=     0.0000
       N       E                     dE             d eps       ncg     rms          rms(c)
DAV:   1    -0.788221606411E+03   -0.19691E-01   -0.21926E-01 11760   0.793E-01    0.193E-01
DAV:   2    -0.788222017041E+03   -0.41063E-03   -0.61247E-03 14040   0.126E-01    0.894E-02
DAV:   3    -0.788221910462E+03    0.10658E-03   -0.20102E-04 14280   0.319E-02    0.435E-02
DAV:   4    -0.788221875068E+03    0.35394E-04   -0.10743E-04 13968   0.220E-02    0.168E-02
DAV:   5    -0.788221868797E+03    0.62701E-05   -0.23384E-05 13116   0.150E-02
   6 F= -.78822187E+03 E0= -.78822187E+03  d E =-.199575E-01  mag=     0.0000
       N       E                     dE             d eps       ncg     rms          rms(c)
DAV:   1    -0.788251510445E+03   -0.29635E-01   -0.80591E-01 11544   0.150E+00    0.263E-01
DAV:   2    -0.788252860153E+03   -0.13497E-02   -0.19152E-02 13992   0.217E-01    0.136E-01
DAV:   3    -0.788252605488E+03    0.25466E-03   -0.51685E-04 14280   0.493E-02    0.747E-02
DAV:   4    -0.788252508716E+03    0.96772E-04   -0.36613E-04 13956   0.384E-02    0.286E-02
DAV:   5    -0.788252492299E+03    0.16417E-04   -0.65979E-05 14724   0.236E-02    0.161E-02
DAV:   6    -0.788252489648E+03    0.26510E-05   -0.27064E-05 13044   0.121E-02
   7 F= -.78825249E+03 E0= -.78825249E+03  d E =-.306209E-01  mag=     0.0000
       N       E                     dE             d eps       ncg     rms          rms(c)
DAV:   1    -0.788291692129E+03   -0.39200E-01   -0.29156E+00 11520   0.282E+00    0.373E-01
DAV:   2    -0.788296474509E+03   -0.47824E-02   -0.61537E-02 13968   0.370E-01    0.193E-01
DAV:   3    -0.788295891169E+03    0.58334E-03   -0.11520E-03 14292   0.681E-02    0.119E-01
DAV:   4    -0.788295602027E+03    0.28914E-03   -0.11123E-03 13980   0.694E-02    0.427E-02
DAV:   5    -0.788295581743E+03    0.20284E-04   -0.22114E-04 14268   0.331E-02    0.290E-02
DAV:   6    -0.788295572678E+03    0.90647E-05   -0.83506E-05 13632   0.195E-02
   8 F= -.78829557E+03 E0= -.78829557E+03  d E =-.430830E-01  mag=     0.0000
       N       E                     dE             d eps       ncg     rms          rms(c)
DAV:   1    -0.788334529863E+03   -0.38948E-01   -0.77771E+00 11520   0.454E+00    0.658E-01
DAV:   2    -0.788348331104E+03   -0.13801E-01   -0.16494E-01 13848   0.584E-01    0.288E-01
DAV:   3    -0.788346920255E+03    0.14108E-02   -0.23725E-03 14208   0.981E-02    0.174E-01
DAV:   4    -0.788346253885E+03    0.66637E-03   -0.25935E-03 13956   0.110E-01    0.548E-02
DAV:   5    -0.788346254531E+03   -0.64560E-06   -0.58051E-04 14052   0.453E-02    0.427E-02
DAV:   6    -0.788346236334E+03    0.18197E-04   -0.16904E-04 13584   0.249E-02    0.211E-02
DAV:   7    -0.788346227861E+03    0.84727E-05   -0.13512E-05 11592   0.121E-02
   9 F= -.78834623E+03 E0= -.78834623E+03  d E =-.506552E-01  mag=     0.0000
       N       E                     dE             d eps       ncg     rms          rms(c)
DAV:   1    -0.788366209363E+03   -0.19973E-01   -0.67317E+00 11520   0.432E+00    0.748E-01
DAV:   2    -0.788379800194E+03   -0.13591E-01   -0.15625E-01 13800   0.591E-01    0.294E-01
DAV:   3    -0.788378421334E+03    0.13789E-02   -0.24249E-03 14232   0.104E-01    0.157E-01
DAV:   4    -0.788377919941E+03    0.50139E-03   -0.18251E-03 13944   0.892E-02    0.501E-02
DAV:   5    -0.788377905226E+03    0.14715E-04   -0.35016E-04 14184   0.414E-02    0.345E-02
DAV:   6    -0.788377899406E+03    0.58199E-05   -0.76949E-05 13680   0.182E-02
  10 F= -.78837790E+03 E0= -.78837790E+03  d E =-.316715E-01  mag=    -0.0000
       N       E                     dE             d eps       ncg     rms          rms(c)
DAV:   1    -0.788384643939E+03   -0.67387E-02   -0.27709E-01 11544   0.898E-01    0.353E-01
DAV:   2    -0.788385436896E+03   -0.79296E-03   -0.10270E-02 14016   0.156E-01    0.125E-01
DAV:   3    -0.788385212034E+03    0.22486E-03   -0.23158E-04 14352   0.359E-02    0.524E-02
DAV:   4    -0.788385154092E+03    0.57942E-04   -0.14965E-04 13896   0.278E-02    0.156E-02
DAV:   5    -0.788385153482E+03    0.61013E-06   -0.47878E-05 13776   0.155E-02
  11 F= -.78838515E+03 E0= -.78838515E+03  d E =-.725408E-02  mag=     0.0000
       N       E                     dE             d eps       ncg     rms          rms(c)
DAV:   1    -0.788386599758E+03   -0.14457E-02   -0.19869E-02 11904   0.239E-01    0.703E-02
DAV:   2    -0.788386645297E+03   -0.45539E-04   -0.55651E-04 13848   0.359E-02    0.226E-02
DAV:   3    -0.788386637020E+03    0.82774E-05   -0.86407E-06 10224   0.762E-03    0.107E-02
DAV:   4    -0.788386634267E+03    0.27527E-05   -0.75513E-06  8688   0.735E-03
  12 F= -.78838663E+03 E0= -.78838663E+03  d E =-.148078E-02  mag=    -0.0000
       N       E                     dE             d eps       ncg     rms          rms(c)
DAV:   1    -0.788390286792E+03   -0.36498E-02   -0.13592E-01 11544   0.619E-01    0.108E-01
DAV:   2    -0.788390554799E+03   -0.26801E-03   -0.30702E-03 13704   0.845E-02    0.396E-02
DAV:   3    -0.788390527325E+03    0.27474E-04   -0.42410E-05 13692   0.144E-02    0.214E-02
DAV:   4    -0.788390517975E+03    0.93499E-05   -0.34458E-05 13356   0.126E-02
  13 F= -.78839052E+03 E0= -.78839052E+03  d E =-.388371E-02  mag=    -0.0000
       N       E                     dE             d eps       ncg     rms          rms(c)
DAV:   1    -0.788392404692E+03   -0.18774E-02   -0.31772E-02 11700   0.297E-01    0.351E-02
DAV:   2    -0.788392463382E+03   -0.58690E-04   -0.67532E-04 13728   0.397E-02    0.171E-02
DAV:   3    -0.788392458788E+03    0.45940E-05   -0.85936E-06  9828   0.637E-03    0.103E-02
DAV:   4    -0.788392456663E+03    0.21255E-05   -0.87165E-06  7704   0.666E-03
  14 F= -.78839246E+03 E0= -.78839246E+03  d E =-.193869E-02  mag=    -0.0000
       N       E                     dE             d eps       ncg     rms          rms(c)
DAV:   1    -0.788399791830E+03   -0.73330E-02   -0.83849E-01 11520   0.153E+00    0.161E-01
DAV:   2    -0.788401352126E+03   -0.15603E-02   -0.17650E-02 13728   0.202E-01    0.853E-02
DAV:   3    -0.788401239635E+03    0.11249E-03   -0.22643E-04 14112   0.304E-02    0.525E-02
DAV:   4    -0.788401180105E+03    0.59529E-04   -0.19003E-04 13944   0.309E-02    0.166E-02
DAV:   5    -0.788401180283E+03   -0.17781E-06   -0.43031E-05 12504   0.128E-02
  15 F= -.78840118E+03 E0= -.78840118E+03  d E =-.872362E-02  mag=    -0.0000
       N       E                     dE             d eps       ncg     rms          rms(c)
DAV:   1    -0.788407899994E+03   -0.67199E-02   -0.39923E+00 11520   0.334E+00    0.332E-01
DAV:   2    -0.788415278717E+03   -0.73787E-02   -0.83575E-02 13728   0.443E-01    0.183E-01
DAV:   3    -0.788414784425E+03    0.49429E-03   -0.10961E-03 14088   0.659E-02    0.115E-01
DAV:   4    -0.788414507333E+03    0.27709E-03   -0.85489E-04 14136   0.667E-02    0.373E-02
DAV:   5    -0.788414507630E+03   -0.29668E-06   -0.20580E-04 13608   0.275E-02    0.238E-02
DAV:   6    -0.788414506296E+03    0.13340E-05   -0.55831E-05 13416   0.152E-02
  16 F= -.78841451E+03 E0= -.78841451E+03  d E =-.133260E-01  mag=    -0.0000
       N       E                     dE             d eps       ncg     rms          rms(c)
DAV:   1    -0.788415328057E+03   -0.82043E-03   -0.77080E-01 11520   0.154E+00    0.334E-01
DAV:   2    -0.788416894511E+03   -0.15665E-02   -0.18778E-02 13944   0.223E-01    0.114E-01
DAV:   3    -0.788416694868E+03    0.19964E-03   -0.34485E-04 14352   0.414E-02    0.590E-02
DAV:   4    -0.788416624501E+03    0.70367E-04   -0.23412E-04 13992   0.374E-02    0.191E-02
DAV:   5    -0.788416624008E+03    0.49335E-06   -0.58698E-05 13704   0.165E-02
  17 F= -.78841662E+03 E0= -.78841662E+03  d E =-.211771E-02  mag=    -0.0000
       N       E                     dE             d eps       ncg     rms          rms(c)
DAV:   1    -0.788417719268E+03   -0.10948E-02   -0.30231E-02 11640   0.301E-01    0.125E-01
DAV:   2    -0.788417807224E+03   -0.87956E-04   -0.11749E-03 14136   0.550E-02    0.457E-02
DAV:   3    -0.788417779311E+03    0.27912E-04   -0.32514E-05 12996   0.129E-02    0.181E-02
DAV:   4    -0.788417772926E+03    0.63849E-05   -0.16983E-05 10536   0.931E-03
  18 F= -.78841777E+03 E0= -.78841777E+03  d E =-.114892E-02  mag=    -0.0000
       N       E                     dE             d eps       ncg     rms          rms(c)
DAV:   1    -0.788417947057E+03   -0.16775E-03   -0.33504E-03 11904   0.101E-01    0.388E-02
DAV:   2    -0.788417956242E+03   -0.91845E-05   -0.12126E-04 14088   0.178E-02    0.155E-02
DAV:   3    -0.788417953359E+03    0.28825E-05   -0.38986E-06  7416   0.460E-03    0.613E-03
DAV:   4    -0.788417952579E+03    0.78054E-06   -0.17208E-06  6792   0.350E-03
  19 F= -.78841795E+03 E0= -.78841795E+03  d E =-.179652E-03  mag=    -0.0000
       N       E                     dE             d eps       ncg     rms          rms(c)
DAV:   1    -0.788418010453E+03   -0.57094E-04   -0.62421E-02 11544   0.426E-01    0.114E-01
DAV:   2    -0.788418152958E+03   -0.14251E-03   -0.17011E-03 14052   0.658E-02    0.409E-02
DAV:   3    -0.788418130505E+03    0.22453E-04   -0.34220E-05 12912   0.129E-02    0.188E-02
DAV:   4    -0.788418123457E+03    0.70484E-05   -0.19119E-05 10464   0.994E-03
  20 F= -.78841812E+03 E0= -.78841812E+03  d E =-.170878E-03  mag=     0.0000
       N       E                     dE             d eps       ncg     rms          rms(c)
DAV:   1    -0.788418183268E+03   -0.52763E-04   -0.21803E-03 11832   0.814E-02    0.290E-02
DAV:   2    -0.788418188878E+03   -0.56100E-05   -0.73188E-05 13488   0.138E-02    0.915E-03
DAV:   3    -0.788418187551E+03    0.13270E-05   -0.14701E-06  6384   0.291E-03    0.430E-03
DAV:   4    -0.788418187212E+03    0.33899E-06   -0.15111E-06  6336   0.259E-03
  21 F= -.78841819E+03 E0= -.78841819E+03  d E =-.637551E-04  mag=     0.0000
       N       E                     dE             d eps       ncg     rms          rms(c)
DAV:   1    -0.788418234888E+03   -0.47337E-04   -0.10361E-02 11664   0.173E-01    0.247E-02
DAV:   2    -0.788418254499E+03   -0.19611E-04   -0.22295E-04 13632   0.234E-02    0.997E-03
DAV:   3    -0.788418252902E+03    0.15966E-05   -0.26482E-06  7392   0.364E-03    0.580E-03
DAV:   4    -0.788418252200E+03    0.70206E-06   -0.30526E-06  6696   0.416E-03
  22 F= -.78841825E+03 E0= -.78841825E+03  d E =-.649883E-04  mag=     0.0000
       N       E                     dE             d eps       ncg     rms          rms(c)
DAV:   1    -0.788418301532E+03   -0.48630E-04   -0.21027E-02 11592   0.244E-01    0.266E-02
DAV:   2    -0.788418340556E+03   -0.39023E-04   -0.44056E-04 13488   0.327E-02    0.132E-02
DAV:   3    -0.788418338236E+03    0.23198E-05   -0.53030E-06  8664   0.480E-03    0.830E-03
DAV:   4    -0.788418336965E+03    0.12711E-05   -0.51403E-06  7008   0.558E-03
  23 F= -.78841834E+03 E0= -.78841834E+03  d E =-.847647E-04  mag=    -0.0000
       N       E                     dE             d eps       ncg     rms          rms(c)
DAV:   1    -0.788418378440E+03   -0.40204E-04   -0.57080E-02 11520   0.402E-01    0.410E-02
DAV:   2    -0.788418483713E+03   -0.10527E-03   -0.11870E-03 13464   0.535E-02    0.219E-02
DAV:   3    -0.788418477972E+03    0.57413E-05   -0.15139E-05 11184   0.778E-03    0.139E-02
DAV:   4    -0.788418474695E+03    0.32762E-05   -0.13044E-05  9216   0.877E-03
  24 F= -.78841847E+03 E0= -.78841847E+03  d E =-.137731E-03  mag=    -0.0000
       N       E                     dE             d eps       ncg     rms          rms(c)
DAV:   1    -0.788414640998E+03    0.38370E-02   -0.23846E+00 11520   0.260E+00    0.258E-01
DAV:   2    -0.788419063099E+03   -0.44221E-02   -0.49592E-02 13368   0.345E-01    0.142E-01
DAV:   3    -0.788418825837E+03    0.23726E-03   -0.64383E-04 14160   0.493E-02    0.908E-02
DAV:   4    -0.788418689110E+03    0.13673E-03   -0.53025E-04 13872   0.548E-02    0.315E-02
DAV:   5    -0.788418689519E+03   -0.40861E-06   -0.11940E-04 13704   0.212E-02    0.212E-02
DAV:   6    -0.788418688144E+03    0.13745E-05   -0.43726E-05 12072   0.136E-02
  25 F= -.78841869E+03 E0= -.78841869E+03  d E =-.213449E-03  mag=     0.0000
       N       E                     dE             d eps       ncg     rms          rms(c)
DAV:   1    -0.788418104006E+03    0.58551E-03   -0.48503E-01 11520   0.118E+00    0.151E-01
DAV:   2    -0.788419033839E+03   -0.92983E-03   -0.10425E-02 13416   0.158E-01    0.682E-02
DAV:   3    -0.788418978228E+03    0.55611E-04   -0.14229E-04 14064   0.230E-02    0.415E-02
DAV:   4    -0.788418952591E+03    0.25637E-04   -0.11768E-04 13608   0.249E-02    0.138E-02
DAV:   5    -0.788418952627E+03   -0.36089E-07   -0.23353E-05  9276   0.100E-02
  26 F= -.78841895E+03 E0= -.78841895E+03  d E =-.264483E-03  mag=     0.0000
       N       E                     dE             d eps       ncg     rms          rms(c)
DAV:   1    -0.788418773802E+03    0.17879E-03   -0.20234E-02 11544   0.239E-01    0.843E-02
DAV:   2    -0.788418824378E+03   -0.50577E-04   -0.65662E-04 14040   0.398E-02    0.310E-02
DAV:   3    -0.788418810880E+03    0.13498E-04   -0.15205E-05 11040   0.959E-03    0.132E-02
DAV:   4    -0.788418807291E+03    0.35889E-05   -0.10603E-05  9600   0.756E-03
  27 F= -.78841881E+03 E0= -.78841881E+03  d E =0.145336E-03  mag=     0.0000
       N       E                     dE             d eps       ncg     rms          rms(c)
DAV:   1    -0.788418461081E+03    0.34980E-03   -0.20197E-02 11544   0.236E-01    0.267E-02
DAV:   2    -0.788418499500E+03   -0.38419E-04   -0.42751E-04 13416   0.316E-02    0.133E-02
DAV:   3    -0.788418497052E+03    0.24480E-05   -0.44269E-06  8424   0.462E-03    0.813E-03
DAV:   4    -0.788418495862E+03    0.11900E-05   -0.60963E-06  7440   0.565E-03
  28 F= -.78841850E+03 E0= -.78841850E+03  d E =0.311429E-03  mag=    -0.0000
       N       E                     dE             d eps       ncg     rms          rms(c)
DAV:   1    -0.788418196734E+03    0.30032E-03   -0.19615E-02 11532   0.233E-01    0.310E-02
DAV:   2    -0.788418233965E+03   -0.37231E-04   -0.41937E-04 13416   0.315E-02    0.132E-02
DAV:   3    -0.788418231459E+03    0.25059E-05   -0.50083E-06  8328   0.465E-03    0.787E-03
DAV:   4    -0.788418230353E+03    0.11056E-05   -0.56031E-06  6792   0.540E-03
  29 F= -.78841823E+03 E0= -.78841823E+03  d E =0.265508E-03  mag=     0.0000
       N       E                     dE             d eps       ncg     rms          rms(c)
DAV:   1    -0.788418241838E+03   -0.10379E-04   -0.38095E-04 11460   0.330E-02    0.146E-02
DAV:   2    -0.788418242717E+03   -0.87855E-06   -0.13969E-05  8784   0.607E-03    0.558E-03
DAV:   3    -0.788418242355E+03    0.36153E-06   -0.93673E-07  6336   0.204E-03    0.219E-03
DAV:   4    -0.788418242257E+03    0.98014E-07   -0.33232E-07  6336   0.139E-03
  30 F= -.78841824E+03 E0= -.78841824E+03  d E =-.119039E-04  mag=    -0.0000
       N       E                     dE             d eps       ncg     rms          rms(c)
DAV:   1    -0.788418137710E+03    0.10465E-03   -0.30414E-03 11664   0.918E-02    0.953E-03
DAV:   2    -0.788418143423E+03   -0.57130E-05   -0.63252E-05 12816   0.122E-02    0.490E-03
DAV:   3    -0.788418143098E+03    0.32481E-06   -0.77117E-07  6300   0.176E-03    0.312E-03
DAV:   4    -0.788418142910E+03    0.18789E-06   -0.84561E-07  6336   0.213E-03
  31 F= -.78841814E+03 E0= -.78841814E+03  d E =0.993475E-04  mag=    -0.0000
       N       E                     dE             d eps       ncg     rms          rms(c)
DAV:   1    -0.788417735948E+03    0.40715E-03   -0.39694E-02 11520   0.331E-01    0.335E-02
DAV:   2    -0.788417810579E+03   -0.74631E-04   -0.82972E-04 13392   0.439E-02    0.179E-02
DAV:   3    -0.788417806362E+03    0.42172E-05   -0.89521E-06  9768   0.606E-03    0.114E-02
DAV:   4    -0.788417804002E+03    0.23596E-05   -0.10472E-05  8064   0.743E-03
  32 F= -.78841780E+03 E0= -.78841780E+03  d E =0.338907E-03  mag=     0.0000
       N       E                     dE             d eps       ncg     rms          rms(c)
DAV:   1    -0.788417526995E+03    0.27937E-03   -0.21801E-02 11520   0.245E-01    0.262E-02
DAV:   2    -0.788417567586E+03   -0.40590E-04   -0.45835E-04 13440   0.328E-02    0.135E-02
DAV:   3    -0.788417565358E+03    0.22279E-05   -0.55537E-06  8640   0.478E-03    0.854E-03
DAV:   4    -0.788417564168E+03    0.11891E-05   -0.55545E-06  6816   0.558E-03
  33 F= -.78841756E+03 E0= -.78841756E+03  d E =0.239834E-03  mag=     0.0000
       N       E                     dE             d eps       ncg     rms          rms(c)
DAV:   1    -0.788403843212E+03    0.13722E-01   -0.58348E+00 11520   0.402E+00    0.406E-01
DAV:   2    -0.788414886109E+03   -0.11043E-01   -0.12260E-01 13320   0.533E-01    0.220E-01
DAV:   3    -0.788414275152E+03    0.61096E-03   -0.14282E-03 14184   0.735E-02    0.140E-01
DAV:   4    -0.788413933340E+03    0.34181E-03   -0.14285E-03 13848   0.871E-02    0.468E-02
DAV:   5    -0.788413937002E+03   -0.36623E-05   -0.30563E-04 13512   0.337E-02    0.332E-02
DAV:   6    -0.788413933961E+03    0.30413E-05   -0.10609E-04 13560   0.209E-02    0.144E-02
DAV:   7    -0.788413931560E+03    0.24005E-05   -0.11698E-05  8232   0.756E-03
  34 F= -.78841393E+03 E0= -.78841393E+03  d E =0.363261E-02  mag=    -0.0000
       N       E                     dE             d eps       ncg     rms          rms(c)
DAV:   1    -0.788413566016E+03    0.36794E-03   -0.41975E-02 11520   0.342E-01    0.124E-01
DAV:   2    -0.788413668035E+03   -0.10202E-03   -0.13303E-03 14112   0.562E-02    0.426E-02
DAV:   3    -0.788413640679E+03    0.27356E-04   -0.30030E-05 12360   0.121E-02    0.183E-02
DAV:   4    -0.788413632521E+03    0.81582E-05   -0.19503E-05 11232   0.105E-02
  35 F= -.78841363E+03 E0= -.78841363E+03  d E =0.299039E-03  mag=     0.0000
       N       E                     dE             d eps       ncg     rms          rms(c)
DAV:   1    -0.788413729724E+03   -0.89045E-04   -0.68435E-03 11616   0.136E-01    0.621E-02
DAV:   2    -0.788413747692E+03   -0.17968E-04   -0.26285E-04 14040   0.248E-02    0.217E-02
DAV:   3    -0.788413740603E+03    0.70890E-05   -0.64997E-06  9120   0.600E-03    0.894E-03
DAV:   4    -0.788413738862E+03    0.17409E-05   -0.54401E-06  7992   0.504E-03
  36 F= -.78841374E+03 E0= -.78841374E+03  d E =-.106341E-03  mag=    -0.0000
       N       E                     dE             d eps       ncg     rms          rms(c)
DAV:   1    -0.788413677393E+03    0.63210E-04   -0.16071E-03 11736   0.670E-02    0.127E-02
DAV:   2    -0.788413680555E+03   -0.31614E-05   -0.37006E-05 11448   0.945E-03    0.514E-03
DAV:   3    -0.788413680182E+03    0.37237E-06   -0.88406E-07  6336   0.198E-03    0.262E-03
DAV:   4    -0.788413680025E+03    0.15712E-06   -0.54946E-07  6264   0.179E-03
  37 F= -.78841368E+03 E0= -.78841368E+03  d E =0.588370E-04  mag=    -0.0000
       N       E                     dE             d eps       ncg     rms          rms(c)
DAV:   1    -0.788413561914E+03    0.11827E-03   -0.43864E-03 11592   0.110E-01    0.128E-02
DAV:   2    -0.788413570292E+03   -0.83773E-05   -0.93235E-05 13296   0.147E-02    0.612E-03
DAV:   3    -0.788413569754E+03    0.53734E-06   -0.10352E-06  6360   0.215E-03    0.376E-03
DAV:   4    -0.788413569485E+03    0.26953E-06   -0.13016E-06  6264   0.263E-03
  38 F= -.78841357E+03 E0= -.78841357E+03  d E =0.110540E-03  mag=    -0.0000
       N       E                     dE             d eps       ncg     rms          rms(c)
DAV:   1    -0.788413341146E+03    0.22861E-03   -0.14785E-02 11520   0.200E-01    0.208E-02
DAV:   2    -0.788413369198E+03   -0.28051E-04   -0.31132E-04 13416   0.268E-02    0.110E-02
DAV:   3    -0.788413367641E+03    0.15568E-05   -0.33687E-06  7464   0.373E-03    0.696E-03
DAV:   4    -0.788413366795E+03    0.84639E-06   -0.40841E-06  6648   0.472E-03
  39 F= -.78841337E+03 E0= -.78841337E+03  d E =0.202690E-03  mag=    -0.0000
       N       E                     dE             d eps       ncg     rms          rms(c)
DAV:   1    -0.788412329975E+03    0.10377E-02   -0.19401E-01 11520   0.725E-01    0.745E-02
DAV:   2    -0.788412696802E+03   -0.36683E-03   -0.40672E-03 13320   0.966E-02    0.396E-02
DAV:   3    -0.788412676509E+03    0.20294E-04   -0.46557E-05 12912   0.133E-02    0.251E-02
DAV:   4    -0.788412665430E+03    0.11079E-04   -0.48550E-05 12816   0.160E-02    0.818E-03
DAV:   5    -0.788412665600E+03   -0.17000E-06   -0.10005E-05  7896   0.614E-03
  40 F= -.78841267E+03 E0= -.78841267E+03  d E =0.701195E-03  mag=    -0.0000
       N       E                     dE             d eps       ncg     rms          rms(c)
DAV:   1    -0.788403726249E+03    0.89392E-02   -0.36865E+00 11520   0.315E+00    0.332E-01
DAV:   2    -0.788410755250E+03   -0.70290E-02   -0.77521E-02 13272   0.420E-01    0.174E-01
DAV:   3    -0.788410364755E+03    0.39050E-03   -0.87842E-04 14208   0.573E-02    0.109E-01
DAV:   4    -0.788410156931E+03    0.20782E-03   -0.91138E-04 13872   0.686E-02    0.357E-02
DAV:   5    -0.788410159552E+03   -0.26210E-05   -0.19155E-04 13344   0.268E-02    0.261E-02
DAV:   6    -0.788410157851E+03    0.17014E-05   -0.63446E-05 12864   0.163E-02
  41 F= -.78841016E+03 E0= -.78841016E+03  d E =0.250775E-02  mag=     0.0000
       N       E                     dE             d eps       ncg     rms          rms(c)
DAV:   1    -0.788408652853E+03    0.15067E-02   -0.58037E-01 11520   0.124E+00    0.164E-01
DAV:   2    -0.788409779839E+03   -0.11270E-02   -0.12516E-02 13320   0.167E-01    0.733E-02
DAV:   3    -0.788409705311E+03    0.74528E-04   -0.14403E-04 14208   0.244E-02    0.435E-02
DAV:   4    -0.788409673451E+03    0.31860E-04   -0.14665E-04 13632   0.269E-02    0.140E-02
DAV:   5    -0.788409673633E+03   -0.18195E-06   -0.29350E-05 10440   0.111E-02
  42 F= -.78840967E+03 E0= -.78840967E+03  d E =0.484218E-03  mag=    -0.0000
       N       E                     dE             d eps       ncg     rms          rms(c)
DAV:   1    -0.788410100873E+03   -0.42742E-03   -0.13035E-01 11520   0.597E-01    0.681E-02
DAV:   2    -0.788410344319E+03   -0.24345E-03   -0.27397E-03 13272   0.797E-02    0.344E-02
DAV:   3    -0.788410327793E+03    0.16526E-04   -0.33983E-05 12456   0.113E-02    0.210E-02
DAV:   4    -0.788410319240E+03    0.85526E-05   -0.32853E-05 11928   0.129E-02
  43 F= -.78841032E+03 E0= -.78841032E+03  d E =-.645607E-03  mag=    -0.0000
       N       E                     dE             d eps       ncg     rms          rms(c)
DAV:   1    -0.788410221973E+03    0.10582E-03   -0.75500E-02 11520   0.448E-01    0.429E-02
DAV:   2    -0.788410365941E+03   -0.14397E-03   -0.15508E-03 13104   0.586E-02    0.241E-02
DAV:   3    -0.788410358067E+03    0.78745E-05   -0.14424E-05 10848   0.730E-03    0.155E-02
DAV:   4    -0.788410353350E+03    0.47162E-05   -0.18421E-05  9360   0.978E-03
  44 F= -.78841035E+03 E0= -.78841035E+03  d E =-.341103E-04  mag=    -0.0000
       N       E                     dE             d eps       ncg     rms          rms(c)
DAV:   1    -0.788408789836E+03    0.15682E-02   -0.76931E-01 11520   0.142E+00    0.145E-01
DAV:   2    -0.788410254723E+03   -0.14649E-02   -0.16048E-02 13224   0.189E-01    0.800E-02
DAV:   3    -0.788410178638E+03    0.76085E-04   -0.17779E-04 14208   0.258E-02    0.508E-02
DAV:   4    -0.788410137782E+03    0.40856E-04   -0.18352E-04 13584   0.309E-02    0.171E-02
DAV:   5    -0.788410138049E+03   -0.26697E-06   -0.38011E-05 11088   0.121E-02
  45 F= -.78841014E+03 E0= -.78841014E+03  d E =0.215302E-03  mag=    -0.0000
       N       E                     dE             d eps       ncg     rms          rms(c)
DAV:   1    -0.788359162085E+03    0.50976E-01   -0.27218E+01 11520   0.852E+00    0.915E-01
DAV:   2    -0.788412473416E+03   -0.53311E-01   -0.58231E-01 13176   0.113E+00    0.471E-01
DAV:   3    -0.788409575714E+03    0.28977E-02   -0.65667E-03 14256   0.153E-01    0.300E-01
DAV:   4    -0.788408030411E+03    0.15453E-02   -0.66723E-03 13872   0.188E-01    0.957E-02
DAV:   5    -0.788408064800E+03   -0.34389E-04   -0.14947E-03 13320   0.727E-02    0.717E-02
DAV:   6    -0.788408046785E+03    0.18015E-04   -0.44287E-04 13728   0.426E-02    0.307E-02
DAV:   7    -0.788408037407E+03    0.93783E-05   -0.47316E-05 12432   0.158E-02
  46 F= -.78840804E+03 E0= -.78840804E+03  d E =0.210064E-02  mag=     0.0000
       N       E                     dE             d eps       ncg     rms          rms(c)
DAV:   1    -0.788383738498E+03    0.24308E-01   -0.15691E+01 11520   0.649E+00    0.706E-01
DAV:   2    -0.788413822951E+03   -0.30084E-01   -0.32914E-01 13176   0.856E-01    0.354E-01
DAV:   3    -0.788412137652E+03    0.16853E-02   -0.37729E-03 14208   0.116E-01    0.223E-01
DAV:   4    -0.788411236453E+03    0.90120E-03   -0.38673E-03 13920   0.145E-01    0.705E-02
DAV:   5    -0.788411264024E+03   -0.27572E-04   -0.90508E-04 13224   0.555E-02    0.567E-02
DAV:   6    -0.788411246904E+03    0.17121E-04   -0.27087E-04 13752   0.336E-02    0.235E-02
DAV:   7    -0.788411241197E+03    0.57068E-05   -0.29785E-05 10824   0.119E-02
  47 F= -.78841124E+03 E0= -.78841124E+03  d E =-.320379E-02  mag=     0.0000
       N       E                     dE             d eps       ncg     rms          rms(c)
DAV:   1    -0.788408487414E+03    0.27595E-02   -0.17177E+00 11520   0.217E+00    0.326E-01
DAV:   2    -0.788411794264E+03   -0.33068E-02   -0.36979E-02 13392   0.292E-01    0.124E-01
DAV:   3    -0.788411534851E+03    0.25941E-03   -0.45338E-04 14208   0.424E-02    0.723E-02
DAV:   4    -0.788411421349E+03    0.11350E-03   -0.42532E-04 13848   0.473E-02    0.210E-02
DAV:   5    -0.788411425837E+03   -0.44886E-05   -0.10620E-04 13512   0.190E-02    0.176E-02
DAV:   6    -0.788411423923E+03    0.19139E-05   -0.16690E-05  9384   0.831E-03
  48 F= -.78841142E+03 E0= -.78841142E+03  d E =-.182727E-03  mag=     0.0000
       N       E                     dE             d eps       ncg     rms          rms(c)
DAV:   1    -0.788408938657E+03    0.24872E-02   -0.14652E+00 11520   0.200E+00    0.288E-01
DAV:   2    -0.788411730333E+03   -0.27917E-02   -0.31111E-02 13344   0.267E-01    0.113E-01
DAV:   3    -0.788411521193E+03    0.20914E-03   -0.38302E-04 14184   0.383E-02    0.664E-02
DAV:   4    -0.788411426733E+03    0.94459E-04   -0.35393E-04 13824   0.432E-02    0.193E-02
DAV:   5    -0.788411430350E+03   -0.36169E-05   -0.87159E-05 13128   0.171E-02
  49 F= -.78841143E+03 E0= -.78841143E+03  d E =-.642693E-05  mag=     0.0000
       N       E                     dE             d eps       ncg     rms          rms(c)
DAV:   1    -0.788411467656E+03   -0.40922E-04   -0.42410E-03 11592   0.107E-01    0.166E-02
DAV:   2    -0.788411476036E+03   -0.83804E-05   -0.98797E-05 13224   0.153E-02    0.704E-03
DAV:   3    -0.788411475420E+03    0.61604E-06   -0.10497E-06  6936   0.339E-03    0.422E-03
DAV:   4    -0.788411475240E+03    0.17977E-06   -0.17779E-06  6624   0.379E-03
  50 F= -.78841148E+03 E0= -.78841148E+03  d E =-.448900E-04  mag=     0.0000
