       N       E                     dE             d eps       ncg     rms          rms(c)
DAV:   1     0.307296061650E+04    0.30730E+04   -0.25842E+05 73620   0.131E+03
DAV:   2    -0.610433075850E+03   -0.36834E+04   -0.35506E+04 89604   0.297E+02
DAV:   3    -0.871890600495E+03   -0.26146E+03   -0.25979E+03 89052   0.838E+01
DAV:   4    -0.875163023964E+03   -0.32724E+01   -0.32603E+01 89316   0.101E+01
DAV:   5    -0.875218591500E+03   -0.55568E-01   -0.55430E-01 90960   0.121E+00    0.991E+01
DAV:   6    -0.779062336055E+03    0.96156E+02   -0.40585E+02 82308   0.319E+01    0.506E+01
DAV:   7    -0.788361842031E+03   -0.92995E+01   -0.22187E+01 82932   0.770E+00    0.163E+01
DAV:   8    -0.792516681619E+03   -0.41548E+01   -0.16876E+00 85932   0.251E+00    0.788E+00
DAV:   9    -0.794747177899E+03   -0.22305E+01   -0.10228E+00 86736   0.172E+00    0.383E+00
DAV:  10    -0.795247459117E+03   -0.50028E+00   -0.27754E-01 84192   0.921E-01    0.114E+00
DAV:  11    -0.795323871231E+03   -0.76412E-01   -0.43319E-02 87996   0.369E-01    0.611E-01
DAV:  12    -0.795334260817E+03   -0.10390E-01   -0.53656E-03 85548   0.141E-01    0.283E-01
DAV:  13    -0.795336739208E+03   -0.24784E-02   -0.14107E-03 86688   0.692E-02    0.927E-02
DAV:  14    -0.795337211931E+03   -0.47272E-03   -0.30770E-04 84132   0.314E-02    0.419E-02
DAV:  15    -0.795337256618E+03   -0.44687E-04   -0.39770E-05 83724   0.158E-02    0.270E-02
DAV:  16    -0.795337274769E+03   -0.18150E-04   -0.15402E-05 62616   0.938E-03    0.127E-02
DAV:  17    -0.795337279242E+03   -0.44728E-05   -0.53138E-06 59268   0.583E-03
   1 F= -.79533728E+03 E0= -.79533728E+03  d E =-.795337E+03  mag=    -0.0015
       N       E                     dE             d eps       ncg     rms          rms(c)
DAV:   1    -0.795359216883E+03   -0.21942E-01   -0.14824E-02 77004   0.199E-01    0.473E-02
DAV:   2    -0.795359234056E+03   -0.17174E-04   -0.31964E-04 90516   0.257E-02    0.180E-02
DAV:   3    -0.795359226633E+03    0.74238E-05   -0.99157E-06 67872   0.761E-03    0.929E-03
DAV:   4    -0.795359224879E+03    0.17537E-05   -0.78846E-06 53196   0.497E-03
   2 F= -.79535922E+03 E0= -.79535922E+03  d E =-.219456E-01  mag=    -0.0001
       N       E                     dE             d eps       ncg     rms          rms(c)
DAV:   1    -0.795776879750E+03   -0.41765E+00   -0.93072E+00 73560   0.499E+00    0.117E+00
DAV:   2    -0.795788150321E+03   -0.11271E-01   -0.19455E-01 89352   0.642E-01    0.424E-01
DAV:   3    -0.795784047254E+03    0.41031E-02   -0.62200E-03 91476   0.175E-01    0.224E-01
DAV:   4    -0.795783143100E+03    0.90415E-03   -0.38296E-03 89736   0.111E-01    0.867E-02
DAV:   5    -0.795783144676E+03   -0.15757E-05   -0.72879E-04 89652   0.526E-02    0.728E-02
DAV:   6    -0.795783138822E+03    0.58540E-05   -0.38723E-05 87600   0.138E-02
   3 F= -.79578314E+03 E0= -.79578314E+03  d E =-.423914E+00  mag=    -0.0000
       N       E                     dE             d eps       ncg     rms          rms(c)
DAV:   1    -0.796111809476E+03   -0.32866E+00   -0.16900E+01 73440   0.686E+00    0.110E+00
DAV:   2    -0.796138724185E+03   -0.26915E-01   -0.38952E-01 88680   0.953E-01    0.598E-01
DAV:   3    -0.796132185762E+03    0.65384E-02   -0.10174E-02 89568   0.219E-01    0.330E-01
DAV:   4    -0.796130024120E+03    0.21616E-02   -0.63583E-03 88596   0.148E-01    0.116E-01
DAV:   5    -0.796129894229E+03    0.12989E-03   -0.14241E-03 90432   0.853E-02    0.674E-02
DAV:   6    -0.796129902995E+03   -0.87661E-05   -0.22270E-04 88332   0.279E-02    0.527E-02
DAV:   7    -0.796129880600E+03    0.22396E-04   -0.33876E-05 83244   0.157E-02    0.261E-02
DAV:   8    -0.796129872695E+03    0.79042E-05   -0.15296E-05 72684   0.138E-02
   4 F= -.79612987E+03 E0= -.79612987E+03  d E =-.346734E+00  mag=    -0.0000
       N       E                     dE             d eps       ncg     rms          rms(c)
DAV:   1    -0.796240777364E+03   -0.11090E+00   -0.91347E+00 73464   0.505E+00    0.867E-01
DAV:   2    -0.796257522556E+03   -0.16745E-01   -0.21907E-01 88692   0.680E-01    0.418E-01
DAV:   3    -0.796254501496E+03    0.30211E-02   -0.63717E-03 89676   0.170E-01    0.227E-01
DAV:   4    -0.796253683029E+03    0.81847E-03   -0.29240E-03 88644   0.100E-01    0.936E-02
DAV:   5    -0.796253633662E+03    0.49367E-04   -0.56077E-04 89688   0.481E-02    0.479E-02
DAV:   6    -0.796253638919E+03   -0.52567E-05   -0.95016E-05 89088   0.194E-02
   5 F= -.79625364E+03 E0= -.79625364E+03  d E =-.123766E+00  mag=    -0.0000
       N       E                     dE             d eps       ncg     rms          rms(c)
DAV:   1    -0.796304238434E+03   -0.50605E-01   -0.11512E+01 73440   0.570E+00    0.933E-01
DAV:   2    -0.796322171328E+03   -0.17933E-01   -0.24968E-01 89340   0.768E-01    0.414E-01
DAV:   3    -0.796319362759E+03    0.28086E-02   -0.82678E-03 90336   0.183E-01    0.242E-01
DAV:   4    -0.796318375342E+03    0.98742E-03   -0.29664E-03 89124   0.110E-01    0.102E-01
DAV:   5    -0.796318248975E+03    0.12637E-03   -0.59538E-04 90264   0.588E-02    0.480E-02
DAV:   6    -0.796318248197E+03    0.77786E-06   -0.22879E-04 89148   0.318E-02    0.370E-02
DAV:   7    -0.796318236840E+03    0.11358E-04   -0.17358E-05 71520   0.118E-02    0.194E-02
DAV:   8    -0.796318231736E+03    0.51032E-05   -0.12470E-05 69180   0.101E-02
   6 F= -.79631823E+03 E0= -.79631823E+03  d E =-.645928E-01  mag=    -0.0000
       N       E                     dE             d eps       ncg     rms          rms(c)
DAV:   1    -0.796276846653E+03    0.41390E-01   -0.19115E+01 73440   0.741E+00    0.192E+00
DAV:   2    -0.796314772468E+03   -0.37926E-01   -0.48957E-01 89340   0.109E+00    0.640E-01
DAV:   3    -0.796308256603E+03    0.65159E-02   -0.15611E-02 90336   0.259E-01    0.326E-01
DAV:   4    -0.796306107082E+03    0.21495E-02   -0.50902E-03 89652   0.165E-01    0.131E-01
DAV:   5    -0.796305815142E+03    0.29194E-03   -0.14672E-03 90120   0.102E-01    0.675E-02
DAV:   6    -0.796305779279E+03    0.35864E-04   -0.45038E-04 89964   0.467E-02    0.495E-02
DAV:   7    -0.796305740729E+03    0.38550E-04   -0.42932E-05 86532   0.184E-02    0.266E-02
DAV:   8    -0.796305713902E+03    0.26827E-04   -0.30420E-05 82860   0.250E-02    0.662E-03
DAV:   9    -0.796305710983E+03    0.29186E-05   -0.27214E-05 80004   0.165E-02
   7 F= -.79630571E+03 E0= -.79630571E+03  d E =0.125208E-01  mag=    -0.0000
       N       E                     dE             d eps       ncg     rms          rms(c)
DAV:   1    -0.796342339306E+03   -0.36625E-01   -0.34051E+00 73440   0.314E+00    0.107E+00
DAV:   2    -0.796350115584E+03   -0.77763E-02   -0.10515E-01 89280   0.511E-01    0.367E-01
DAV:   3    -0.796348001082E+03    0.21145E-02   -0.31999E-03 90600   0.133E-01    0.165E-01
DAV:   4    -0.796347318756E+03    0.68233E-03   -0.13696E-03 89580   0.101E-01    0.608E-02
DAV:   5    -0.796347251854E+03    0.66903E-04   -0.52571E-04 91512   0.606E-02    0.402E-02
DAV:   6    -0.796347234846E+03    0.17008E-04   -0.97858E-05 90384   0.213E-02    0.260E-02
DAV:   7    -0.796347214938E+03    0.19908E-04   -0.23089E-05 73344   0.136E-02    0.110E-02
DAV:   8    -0.796347205822E+03    0.91155E-05   -0.12448E-05 67404   0.170E-02
   8 F= -.79634721E+03 E0= -.79634721E+03  d E =-.414948E-01  mag=    -0.0000
       N       E                     dE             d eps       ncg     rms          rms(c)
DAV:   1    -0.796351800161E+03   -0.45852E-02   -0.44233E-01 73752   0.108E+00    0.238E-01
DAV:   2    -0.796352706382E+03   -0.90622E-03   -0.10574E-02 88176   0.151E-01    0.817E-02
DAV:   3    -0.796352585181E+03    0.12120E-03   -0.16510E-04 90396   0.292E-02    0.415E-02
DAV:   4    -0.796352549458E+03    0.35723E-04   -0.13368E-04 88128   0.237E-02    0.130E-02
DAV:   5    -0.796352549411E+03    0.47628E-07   -0.27702E-05 71820   0.111E-02
   9 F= -.79635255E+03 E0= -.79635255E+03  d E =-.534359E-02  mag=     0.0000
       N       E                     dE             d eps       ncg     rms          rms(c)
DAV:   1    -0.796355148805E+03   -0.25993E-02   -0.49681E+00 73440   0.357E+00    0.445E-01
DAV:   2    -0.796364151435E+03   -0.90026E-02   -0.10385E-01 88032   0.462E-01    0.221E-01
DAV:   3    -0.796363386869E+03    0.76457E-03   -0.13235E-03 90612   0.731E-02    0.133E-01
DAV:   4    -0.796363033294E+03    0.35358E-03   -0.14285E-03 87588   0.776E-02    0.431E-02
DAV:   5    -0.796363031019E+03    0.22752E-05   -0.26796E-04 89328   0.323E-02    0.277E-02
DAV:   6    -0.796363030233E+03    0.78612E-06   -0.84218E-05 84360   0.172E-02
  10 F= -.79636303E+03 E0= -.79636303E+03  d E =-.104808E-01  mag=     0.0000
       N       E                     dE             d eps       ncg     rms          rms(c)
DAV:   1    -0.796354285816E+03    0.87452E-02   -0.97319E+00 73440   0.520E+00    0.700E-01
DAV:   2    -0.796372437821E+03   -0.18152E-01   -0.20764E-01 87156   0.683E-01    0.303E-01
DAV:   3    -0.796370797767E+03    0.16401E-02   -0.25778E-03 90552   0.111E-01    0.179E-01
DAV:   4    -0.796370020949E+03    0.77682E-03   -0.26444E-03 88404   0.126E-01    0.545E-02
DAV:   5    -0.796370040073E+03   -0.19124E-04   -0.74624E-04 89856   0.537E-02    0.464E-02
DAV:   6    -0.796370020592E+03    0.19481E-04   -0.12791E-04 87240   0.219E-02    0.234E-02
DAV:   7    -0.796370009490E+03    0.11102E-04   -0.61368E-06 67464   0.115E-02    0.124E-02
DAV:   8    -0.796370002482E+03    0.70085E-05   -0.10207E-05 66948   0.138E-02
  11 F= -.79637000E+03 E0= -.79637000E+03  d E =-.697225E-02  mag=     0.0000
       N       E                     dE             d eps       ncg     rms          rms(c)
DAV:   1    -0.796330518038E+03    0.39491E-01   -0.19359E+01 73440   0.742E+00    0.122E+00
DAV:   2    -0.796369875798E+03   -0.39358E-01   -0.43850E-01 86916   0.101E+00    0.484E-01
DAV:   3    -0.796366635606E+03    0.32402E-02   -0.55161E-03 90504   0.162E-01    0.263E-01
DAV:   4    -0.796365508813E+03    0.11268E-02   -0.49574E-03 87720   0.147E-01    0.833E-02
DAV:   5    -0.796365480699E+03    0.28114E-04   -0.84036E-04 90120   0.681E-02    0.553E-02
DAV:   6    -0.796365483231E+03   -0.25319E-05   -0.24894E-04 87864   0.318E-02    0.269E-02
DAV:   7    -0.796365474449E+03    0.87813E-05   -0.19884E-05 73740   0.140E-02
  12 F= -.79636547E+03 E0= -.79636547E+03  d E =0.452803E-02  mag=    -0.0000
       N       E                     dE             d eps       ncg     rms          rms(c)
DAV:   1    -0.796371434799E+03   -0.59516E-02   -0.28628E+00 73440   0.285E+00    0.850E-01
DAV:   2    -0.796378146687E+03   -0.67119E-02   -0.81328E-02 89988   0.438E-01    0.287E-01
DAV:   3    -0.796376953338E+03    0.11933E-02   -0.15926E-03 92016   0.905E-02    0.133E-01
DAV:   4    -0.796376638671E+03    0.31467E-03   -0.10816E-03 88464   0.685E-02    0.410E-02
DAV:   5    -0.796376633863E+03    0.48086E-05   -0.25273E-04 91608   0.376E-02    0.334E-02
DAV:   6    -0.796376631600E+03    0.22629E-05   -0.31548E-05 68556   0.110E-02
  13 F= -.79637663E+03 E0= -.79637663E+03  d E =-.111572E-01  mag=     0.0000
       N       E                     dE             d eps       ncg     rms          rms(c)
DAV:   1    -0.796377838732E+03   -0.12049E-02   -0.87702E-01 73440   0.156E+00    0.315E-01
DAV:   2    -0.796379533253E+03   -0.16945E-02   -0.20325E-02 88728   0.221E-01    0.117E-01
DAV:   3    -0.796379320210E+03    0.21304E-03   -0.33866E-04 91056   0.399E-02    0.628E-02
DAV:   4    -0.796379249834E+03    0.70376E-04   -0.26999E-04 88380   0.349E-02    0.200E-02
DAV:   5    -0.796379249413E+03    0.42145E-06   -0.54897E-05 86004   0.167E-02
  14 F= -.79637925E+03 E0= -.79637925E+03  d E =-.261781E-02  mag=    -0.0000
       N       E                     dE             d eps       ncg     rms          rms(c)
DAV:   1    -0.796379839524E+03   -0.58969E-03   -0.55816E-02 74112   0.422E-01    0.742E-02
DAV:   2    -0.796379949116E+03   -0.10959E-03   -0.12967E-03 88824   0.597E-02    0.302E-02
DAV:   3    -0.796379937216E+03    0.11900E-04   -0.22156E-05 78948   0.113E-02    0.160E-02
DAV:   4    -0.796379934040E+03    0.31762E-05   -0.17152E-05 63540   0.957E-03
  15 F= -.79637993E+03 E0= -.79637993E+03  d E =-.684627E-03  mag=    -0.0000
       N       E                     dE             d eps       ncg     rms          rms(c)
DAV:   1    -0.796372571452E+03    0.73658E-02   -0.50543E+00 73440   0.401E+00    0.520E-01
DAV:   2    -0.796382445792E+03   -0.98743E-02   -0.11076E-01 86136   0.545E-01    0.231E-01
DAV:   3    -0.796381728544E+03    0.71725E-03   -0.14169E-03 90624   0.852E-02    0.137E-01
DAV:   4    -0.796381429365E+03    0.29918E-03   -0.14126E-03 88968   0.911E-02    0.476E-02
DAV:   5    -0.796381424302E+03    0.50628E-05   -0.30007E-04 89208   0.381E-02    0.319E-02
DAV:   6    -0.796381418969E+03    0.53324E-05   -0.96602E-05 86700   0.198E-02
  16 F= -.79638142E+03 E0= -.79638142E+03  d E =-.148493E-02  mag=     0.0000
       N       E                     dE             d eps       ncg     rms          rms(c)
DAV:   1    -0.796369028381E+03    0.12396E-01   -0.57293E+00 73440   0.427E+00    0.720E-01
DAV:   2    -0.796380869311E+03   -0.11841E-01   -0.13435E-01 87696   0.607E-01    0.286E-01
DAV:   3    -0.796379820282E+03    0.10490E-02   -0.19757E-03 91428   0.107E-01    0.153E-01
DAV:   4    -0.796379466509E+03    0.35377E-03   -0.16268E-03 89220   0.957E-02    0.546E-02
DAV:   5    -0.796379442821E+03    0.23687E-04   -0.34619E-04 90504   0.485E-02    0.367E-02
DAV:   6    -0.796379434895E+03    0.79261E-05   -0.98102E-05 88524   0.220E-02
  17 F= -.79637943E+03 E0= -.79637943E+03  d E =0.198407E-02  mag=     0.0000
       N       E                     dE             d eps       ncg     rms          rms(c)
DAV:   1    -0.796380955968E+03   -0.15131E-02   -0.97713E-01 73440   0.184E+00    0.520E-01
DAV:   2    -0.796383203877E+03   -0.22479E-02   -0.30029E-02 90324   0.303E-01    0.190E-01
DAV:   3    -0.796382685089E+03    0.51879E-03   -0.77732E-04 91944   0.689E-02    0.891E-02
DAV:   4    -0.796382546388E+03    0.13870E-03   -0.45240E-04 90240   0.510E-02    0.339E-02
DAV:   5    -0.796382539148E+03    0.72404E-05   -0.12255E-04 91704   0.299E-02    0.229E-02
DAV:   6    -0.796382537137E+03    0.20111E-05   -0.21260E-05 60168   0.953E-03
  18 F= -.79638254E+03 E0= -.79638254E+03  d E =-.310224E-02  mag=     0.0000
       N       E                     dE             d eps       ncg     rms          rms(c)
DAV:   1    -0.796383837702E+03   -0.12986E-02   -0.13574E-01 73560   0.677E-01    0.226E-01
DAV:   2    -0.796384221497E+03   -0.38380E-03   -0.48673E-03 90240   0.119E-01    0.858E-02
DAV:   3    -0.796384127599E+03    0.93898E-04   -0.11356E-04 91308   0.269E-02    0.359E-02
DAV:   4    -0.796384102190E+03    0.25409E-04   -0.66004E-05 89784   0.202E-02    0.111E-02
DAV:   5    -0.796384100333E+03    0.18569E-05   -0.18606E-05 67308   0.128E-02
  19 F= -.79638410E+03 E0= -.79638410E+03  d E =-.156320E-02  mag=     0.0000
