       N       E                     dE             d eps       ncg     rms          ort
DAV:   1     0.102746158900E+05    0.10275E+05   -0.42433E+05 10640   0.155E+03
DAV:   2    -0.116678632378E+03   -0.10391E+05   -0.98099E+04 10640   0.474E+02
DAV:   3    -0.152239869656E+04   -0.14057E+04   -0.13119E+04 10640   0.181E+02
DAV:   4    -0.160459802620E+04   -0.82199E+02   -0.79995E+02 10640   0.462E+01
DAV:   5    -0.160690526955E+04   -0.23072E+01   -0.22999E+01 10640   0.831E+00
SDA:   6    -0.726824297170E+03    0.88008E+03   -0.22999E+01 10640   0.293E+04 0.000E+00
CGA:   7    -0.112104630385E+04   -0.39422E+03   -0.39362E+03 10640   0.145E+04-0.277E+02
CGA:   8    -0.114097295183E+04   -0.19927E+02   -0.79575E+02 10640   0.151E+04-0.952E+03
CGA:   9    -0.114795910151E+04   -0.69861E+01   -0.72573E+02 10640   0.220E+04-0.152E+04
CGA:  10    -0.112623367806E+04    0.21725E+02   -0.11986E+03 10640   0.286E+04-0.193E+04
CGA:  11    -0.113315993098E+04   -0.69263E+01   -0.14027E+03 10640   0.317E+04-0.288E+04
CGA:  12    -0.109911098482E+04    0.34049E+02   -0.17429E+03 10640   0.406E+04-0.317E+04
CGA:  13    -0.110711613032E+04   -0.80051E+01   -0.20713E+03 10640   0.419E+04-0.401E+04
CGA:  14    -0.107514673864E+04    0.31969E+02   -0.23184E+03 10640   0.497E+04-0.423E+04
CGA:  15    -0.109588227499E+04   -0.20736E+02   -0.25555E+03 10640   0.478E+04-0.487E+04
CGA:  16    -0.108846984564E+04    0.74124E+01   -0.25517E+03 10640   0.504E+04-0.476E+04
CGA:  17    -0.113129994848E+04   -0.42830E+02   -0.24680E+03 10640   0.409E+04-0.457E+04
CGA:  18    -0.117417276817E+04   -0.42873E+02   -0.18851E+03 10640   0.295E+04-0.352E+04
CGA:  19    -0.123192845007E+04   -0.57756E+02   -0.11480E+03 10640   0.116E+04-0.190E+04
CGA:  20    -0.125904359337E+04   -0.27115E+02   -0.37898E+02 10640   0.164E+03-0.380E+03
CGA:  21    -0.126431447519E+04   -0.52709E+01   -0.45623E+01 10640   0.228E+02 0.153E+02
CGA:  22    -0.126997556775E+04   -0.56611E+01   -0.53781E+01 10640   0.919E+02 0.273E+01
CGA:  23    -0.127704352030E+04   -0.70680E+01   -0.54514E+01 10640   0.125E+02 0.211E+02
CGA:  24    -0.127777970807E+04   -0.73619E+00   -0.70546E+00 10640   0.849E+01 0.274E-01
CGA:  25    -0.127859481604E+04   -0.81511E+00   -0.84103E+00 10640   0.133E+02 0.129E+00
CGA:  26    -0.127984264717E+04   -0.12478E+01   -0.12726E+01 10640   0.538E+01-0.315E+00
CGA:  27    -0.128029282507E+04   -0.45018E+00   -0.44648E+00 10640   0.292E+01-0.385E+00
CGA:  28    -0.128092488720E+04   -0.63206E+00   -0.69964E+00 10640   0.501E+01-0.497E+00
CGA:  29    -0.128139674715E+04   -0.47186E+00   -0.46614E+00 10640   0.250E+01-0.728E+00
CGA:  30    -0.128188233441E+04   -0.48559E+00   -0.66848E+00 10640   0.419E+01-0.865E+00
CGA:  31    -0.128221636967E+04   -0.33404E+00   -0.32820E+00 10640   0.186E+01-0.580E+00
CGA:  32    -0.128243177131E+04   -0.21540E+00   -0.21791E+00 10640   0.191E+01-0.340E+00
CGA:  33    -0.128268795226E+04   -0.25618E+00   -0.26340E+00 10640   0.161E+01-0.236E+00
CGA:  34    -0.128287607079E+04   -0.18812E+00   -0.18808E+00 10640   0.704E+00-0.761E-01
CGA:  35    -0.128299292802E+04   -0.11686E+00   -0.11580E+00 10640   0.479E+00 0.230E-01
CGA:  36    -0.128307595344E+04   -0.83025E-01   -0.79845E-01 10640   0.293E+00 0.117E+00
CGA:  37    -0.128312785803E+04   -0.51905E-01   -0.51281E-01 10640   0.181E+00 0.120E+00
CGA:  38    -0.128316395805E+04   -0.36100E-01   -0.35658E-01 10640   0.117E+00 0.110E+00
CGA:  39    -0.128318447246E+04   -0.20514E-01   -0.19418E-01 10640   0.518E-01 0.372E-01
CGA:  40    -0.128319548488E+04   -0.11012E-01   -0.10312E-01 10640   0.412E-01 0.512E-01
CGA:  41    -0.128320033430E+04   -0.48494E-02   -0.51934E-02 10640   0.263E-01 0.281E-01
CGA:  42    -0.128320312147E+04   -0.27872E-02   -0.31876E-02 10640   0.226E-01 0.242E-01
CGA:  43    -0.128320513656E+04   -0.20151E-02   -0.25368E-02 10640   0.199E-01 0.211E-01
CGA:  44    -0.128320663324E+04   -0.14967E-02   -0.20754E-02 10640   0.176E-01 0.186E-01
CGA:  45    -0.128320776175E+04   -0.11285E-02   -0.17291E-02 10640   0.159E-01 0.167E-01
CGA:  46    -0.128320862238E+04   -0.86063E-03   -0.14624E-02 10640   0.144E-01 0.150E-01
CGA:  47    -0.128320928547E+04   -0.66308E-03   -0.12530E-02 10640   0.131E-01 0.137E-01
CGA:  48    -0.128320980071E+04   -0.51524E-03   -0.10858E-02 10640   0.121E-01 0.126E-01
CGA:  49    -0.128321020382E+04   -0.40312E-03   -0.95010E-03 10640   0.112E-01 0.116E-01
CGA:  50    -0.128321052087E+04   -0.31705E-03   -0.83842E-03 10640   0.104E-01 0.108E-01
CGA:  51    -0.128321077113E+04   -0.25026E-03   -0.74534E-03 10640   0.971E-02 0.100E-01
CGA:  52    -0.128321096903E+04   -0.19790E-03   -0.66688E-03 10640   0.911E-02 0.940E-02
CGA:  53    -0.128321112554E+04   -0.15650E-03   -0.60009E-03 10640   0.858E-02 0.883E-02
CGA:  54    -0.128321124904E+04   -0.12351E-03   -0.54272E-03 10640   0.811E-02 0.833E-02
CGA:  55    -0.128321134606E+04   -0.97018E-04   -0.49304E-03 10640   0.768E-02 0.789E-02
CGA:  56    -0.128321142167E+04   -0.75613E-04   -0.44971E-03 10640   0.730E-02 0.748E-02
CGA:  57    -0.128321147990E+04   -0.58223E-04   -0.41168E-03 10640   0.695E-02 0.712E-02
CGA:  58    -0.128321152393E+04   -0.44034E-04   -0.37810E-03 10640   0.664E-02 0.679E-02
CGA:  59    -0.128321155634E+04   -0.32407E-04   -0.34830E-03 10640   0.635E-02 0.649E-02
CGA:  60    -0.128321157918E+04   -0.22845E-04   -0.32172E-03 10640   0.609E-02 0.622E-02
CGA:  61    -0.128321159415E+04   -0.14969E-04   -0.29792E-03 10640   0.586E-02 0.597E-02
CGA:  62    -0.128321160262E+04   -0.84675E-05   -0.27652E-03 10640   0.564E-02 0.574E-02
CGA:  63    -0.128321160572E+04   -0.30999E-05   -0.25721E-03 10640   0.543E-02 0.553E-02
CGA:  64    -0.128321160438E+04    0.13352E-05   -0.23972E-03 10640   0.525E-02 0.534E-02
CGA:  65    -0.128321159939E+04    0.49949E-05   -0.22384E-03 10640   0.507E-02 0.516E-02
CGA:  66    -0.128321159138E+04    0.80100E-05   -0.20937E-03 10640   0.491E-02 0.499E-02
CGA:  67    -0.128321158089E+04    0.10484E-04   -0.19616E-03 10640   0.477E-02 0.484E-02
CGA:  68    -0.128321156839E+04    0.12508E-04   -0.18406E-03 10640   0.463E-02 0.470E-02
CGA:  69    -0.128321155424E+04    0.14149E-04   -0.17296E-03 10640   0.450E-02 0.456E-02
CGA:  70    -0.128321153877E+04    0.15470E-04   -0.16275E-03 10640   0.438E-02 0.444E-02
CGA:  71    -0.128321152225E+04    0.16518E-04   -0.15334E-03 10640   0.427E-02 0.432E-02
CGA:  72    -0.128321150491E+04    0.17337E-04   -0.14465E-03 10640   0.416E-02 0.421E-02
CGA:  73    -0.128321148695E+04    0.17960E-04   -0.13662E-03 10640   0.406E-02 0.411E-02
CGA:  74    -0.128321146853E+04    0.18419E-04   -0.12917E-03 10640   0.397E-02 0.402E-02
CGA:  75    -0.128321144979E+04    0.18738E-04   -0.12225E-03 10640   0.388E-02 0.393E-02
CGA:  76    -0.128321143086E+04    0.18938E-04   -0.11582E-03 10640   0.380E-02 0.384E-02
CGA:  77    -0.128321141182E+04    0.19037E-04   -0.10983E-03 10640   0.372E-02 0.376E-02
CGA:  78    -0.128321139277E+04    0.19051E-04   -0.10425E-03 10640   0.365E-02 0.369E-02
CGA:  79    -0.128321137378E+04    0.18992E-04   -0.99032E-04 10640   0.358E-02 0.361E-02
CGA:  80    -0.128321135490E+04    0.18873E-04   -0.94156E-04 10640   0.352E-02 0.355E-02
CGA:  81    -0.128321133620E+04    0.18701E-04   -0.89590E-04 10640   0.345E-02 0.348E-02
CGA:  82    -0.128321131772E+04    0.18487E-04   -0.85310E-04 10640   0.340E-02 0.342E-02
CGA:  83    -0.128321129948E+04    0.18235E-04   -0.81294E-04 10640   0.334E-02 0.337E-02
CGA:  84    -0.128321128152E+04    0.17956E-04   -0.77519E-04 10640   0.329E-02 0.331E-02
CGA:  85    -0.128321126387E+04    0.17652E-04   -0.73970E-04 10640   0.324E-02 0.326E-02
CGA:  86    -0.128321124654E+04    0.17328E-04   -0.70627E-04 10640   0.319E-02 0.321E-02
CGA:  87    -0.128321122956E+04    0.16989E-04   -0.67476E-04 10640   0.315E-02 0.317E-02
CGA:  88    -0.128321121292E+04    0.16639E-04   -0.64503E-04 10640   0.310E-02 0.312E-02
CGA:  89    -0.128321119664E+04    0.16278E-04   -0.61695E-04 10640   0.306E-02 0.308E-02
CGA:  90    -0.128321118072E+04    0.15914E-04   -0.59040E-04 10640   0.302E-02 0.304E-02
CGA:  91    -0.128321116518E+04    0.15546E-04   -0.56529E-04 10640   0.299E-02 0.301E-02
CGA:  92    -0.128321115001E+04    0.15172E-04   -0.54152E-04 10640   0.295E-02 0.297E-02
CGA:  93    -0.128321113521E+04    0.14797E-04   -0.51900E-04 10640   0.292E-02 0.294E-02
CGA:  94    -0.128321112079E+04    0.14424E-04   -0.49763E-04 10640   0.289E-02 0.290E-02
CGA:  95    -0.128321110673E+04    0.14052E-04   -0.47736E-04 10640   0.286E-02 0.287E-02
CGA:  96    -0.128321109305E+04    0.13685E-04   -0.45810E-04 10640   0.283E-02 0.284E-02
CGA:  97    -0.128321107973E+04    0.13320E-04   -0.43979E-04 10640   0.280E-02 0.281E-02
CGA:  98    -0.128321106677E+04    0.12961E-04   -0.42238E-04 10640   0.277E-02 0.278E-02
CGA:  99    -0.128321105416E+04    0.12606E-04   -0.40581E-04 10640   0.275E-02 0.276E-02
CGA: 100    -0.128321104190E+04    0.12259E-04   -0.39003E-04 10640   0.272E-02 0.273E-02
CGA: 101    -0.128321102999E+04    0.11916E-04   -0.37499E-04 10640   0.270E-02 0.271E-02
CGA: 102    -0.128321101841E+04    0.11582E-04   -0.36065E-04 10640   0.267E-02 0.269E-02
CGA: 103    -0.128321100715E+04    0.11252E-04   -0.34697E-04 10640   0.265E-02 0.266E-02
CGA: 104    -0.128321099622E+04    0.10930E-04   -0.33391E-04 10640   0.263E-02 0.264E-02
CGA: 105    -0.128321098561E+04    0.10616E-04   -0.32144E-04 10640   0.261E-02 0.262E-02
CGA: 106    -0.128321097530E+04    0.10309E-04   -0.30952E-04 10640   0.259E-02 0.260E-02
CGA: 107    -0.128321096529E+04    0.10009E-04   -0.29812E-04 10640   0.257E-02 0.258E-02
CGA: 108    -0.128321095557E+04    0.97164E-05   -0.28722E-04 10640   0.256E-02 0.256E-02
CGA: 109    -0.128321094614E+04    0.94312E-05   -0.27679E-04 10640   0.254E-02 0.255E-02
CGA: 110    -0.128321093699E+04    0.91534E-05   -0.26680E-04 10640   0.252E-02 0.253E-02
CGA: 111    -0.128321092811E+04    0.88829E-05   -0.25723E-04 10640   0.251E-02 0.251E-02
CGA: 112    -0.128321091949E+04    0.86197E-05   -0.24806E-04 10640   0.249E-02 0.250E-02
CGA: 113    -0.128321091112E+04    0.83632E-05   -0.23927E-04 10640   0.248E-02 0.248E-02
CGA: 114    -0.128321090301E+04    0.81145E-05   -0.23084E-04 10640   0.246E-02 0.247E-02
CGA: 115    -0.128321089514E+04    0.78719E-05   -0.22276E-04 10640   0.245E-02 0.246E-02
CGA: 116    -0.128321088750E+04    0.76368E-05   -0.21499E-04 10640   0.244E-02 0.244E-02
CGA: 117    -0.128321088009E+04    0.74077E-05   -0.20754E-04 10640   0.242E-02 0.243E-02
CGA: 118    -0.128321087291E+04    0.71852E-05   -0.20039E-04 10640   0.241E-02 0.242E-02
CGA: 119    -0.128321086594E+04    0.69704E-05   -0.19351E-04 10640   0.240E-02 0.241E-02
CGA: 120    -0.128321085918E+04    0.67602E-05   -0.18690E-04 10640   0.239E-02 0.239E-02
CGA: 121    -0.128321085262E+04    0.65570E-05   -0.18055E-04 10640   0.238E-02 0.238E-02
CGA: 122    -0.128321084626E+04    0.63598E-05   -0.17444E-04 10640   0.237E-02 0.237E-02
CGA: 123    -0.128321084009E+04    0.61680E-05   -0.16856E-04 10640   0.236E-02 0.236E-02
CGA: 124    -0.128321083411E+04    0.59820E-05   -0.16290E-04 10640   0.235E-02 0.235E-02
CGA: 125    -0.128321082831E+04    0.58022E-05   -0.15746E-04 10640   0.234E-02 0.234E-02
CGA: 126    -0.128321082268E+04    0.56272E-05   -0.15222E-04 10640   0.233E-02 0.233E-02
CGA: 127    -0.128321081722E+04    0.54571E-05   -0.14718E-04 10640   0.232E-02 0.232E-02
CGA: 128    -0.128321081193E+04    0.52927E-05   -0.14231E-04 10640   0.231E-02 0.232E-02
CGA: 129    -0.128321080680E+04    0.51332E-05   -0.13763E-04 10640   0.230E-02 0.231E-02
CGA: 130    -0.128321080182E+04    0.49785E-05   -0.13312E-04 10640   0.229E-02 0.230E-02
CGA: 131    -0.128321079699E+04    0.48283E-05   -0.12877E-04 10640   0.229E-02 0.229E-02
CGA: 132    -0.128321079231E+04    0.46826E-05   -0.12458E-04 10640   0.228E-02 0.228E-02
CGA: 133    -0.128321078777E+04    0.45415E-05   -0.12053E-04 10640   0.227E-02 0.228E-02
CGA: 134    -0.128321078336E+04    0.44047E-05   -0.11663E-04 10640   0.227E-02 0.227E-02
CGA: 135    -0.128321077909E+04    0.42716E-05   -0.11287E-04 10640   0.226E-02 0.226E-02
CGA: 136    -0.128321077495E+04    0.41436E-05   -0.10924E-04 10640   0.225E-02 0.226E-02
CGA: 137    -0.128321077093E+04    0.40184E-05   -0.10573E-04 10640   0.225E-02 0.225E-02
CGA: 138    -0.128321076703E+04    0.38971E-05   -0.10235E-04 10640   0.224E-02 0.224E-02
   1 F= -.12832108E+04 E0= -.12832108E+04  d E =-.128321E+04  mag=    47.0000
       N       E                     dE             d eps       ncg     rms          ort
SDA:   1    -0.128321177561E+04   -0.10047E-02    0.00000E+00 10640   0.629E-02 0.000E+00
CGA:   2    -0.128321205832E+04   -0.28271E-03   -0.18040E-03 10640   0.482E-02 0.555E-02
CGA:   3    -0.128321223413E+04   -0.17581E-03   -0.11728E-03 10640   0.404E-02 0.445E-02
CGA:   4    -0.128321236060E+04   -0.12647E-03   -0.88273E-04 10640   0.354E-02 0.381E-02
CGA:   5    -0.128321245878E+04   -0.98182E-04   -0.71553E-04 10640   0.319E-02 0.338E-02
CGA:   6    -0.128321253865E+04   -0.79876E-04   -0.60622E-04 10640   0.293E-02 0.307E-02
CGA:   7    -0.128321260571E+04   -0.67052E-04   -0.52867E-04 10640   0.273E-02 0.284E-02
CGA:   8    -0.128321266325E+04   -0.57547E-04   -0.47039E-04 10640   0.256E-02 0.265E-02
CGA:   9    -0.128321271346E+04   -0.50210E-04   -0.42471E-04 10640   0.242E-02 0.250E-02
CGA:  10    -0.128321275782E+04   -0.44357E-04   -0.38768E-04 10640   0.231E-02 0.237E-02
CGA:  11    -0.128321279739E+04   -0.39575E-04   -0.35693E-04 10640   0.221E-02 0.226E-02
CGA:  12    -0.128321283298E+04   -0.35589E-04   -0.33085E-04 10640   0.212E-02 0.216E-02
CGA:  13    -0.128321286519E+04   -0.32210E-04   -0.30835E-04 10640   0.204E-02 0.208E-02
CGA:  14    -0.128321289450E+04   -0.29310E-04   -0.28868E-04 10640   0.197E-02 0.200E-02
CGA:  15    -0.128321292129E+04   -0.26790E-04   -0.27128E-04 10640   0.191E-02 0.194E-02
CGA:  16    -0.128321294588E+04   -0.24584E-04   -0.25577E-04 10640   0.185E-02 0.188E-02
CGA:  17    -0.128321296851E+04   -0.22636E-04   -0.24180E-04 10640   0.180E-02 0.182E-02
CGA:  18    -0.128321298942E+04   -0.20903E-04   -0.22915E-04 10640   0.175E-02 0.178E-02
CGA:  19    -0.128321300877E+04   -0.19354E-04   -0.21762E-04 10640   0.171E-02 0.173E-02
CGA:  20    -0.128321302673E+04   -0.17962E-04   -0.20705E-04 10640   0.167E-02 0.169E-02
CGA:  21    -0.128321304344E+04   -0.16706E-04   -0.19732E-04 10640   0.163E-02 0.165E-02
CGA:  22    -0.128321305901E+04   -0.15567E-04   -0.18833E-04 10640   0.160E-02 0.161E-02
CGA:  23    -0.128321307354E+04   -0.14532E-04   -0.18000E-04 10640   0.157E-02 0.158E-02
CGA:  24    -0.128321308713E+04   -0.13588E-04   -0.17225E-04 10640   0.154E-02 0.155E-02
CGA:  25    -0.128321309985E+04   -0.12726E-04   -0.16501E-04 10640   0.151E-02 0.152E-02
CGA:  26    -0.128321311179E+04   -0.11935E-04   -0.15824E-04 10640   0.148E-02 0.149E-02
CGA:  27    -0.128321312299E+04   -0.11206E-04   -0.15189E-04 10640   0.146E-02 0.147E-02
CGA:  28    -0.128321313353E+04   -0.10538E-04   -0.14593E-04 10640   0.143E-02 0.144E-02
CGA:  29    -0.128321314345E+04   -0.99199E-05   -0.14032E-04 10640   0.141E-02 0.142E-02
CGA:  30    -0.128321315280E+04   -0.93491E-05   -0.13502E-04 10640   0.139E-02 0.140E-02
CGA:  31    -0.128321316162E+04   -0.88207E-05   -0.13002E-04 10640   0.137E-02 0.138E-02
CGA:  32    -0.128321316995E+04   -0.83314E-05   -0.12529E-04 10640   0.135E-02 0.136E-02
CGA:  33    -0.128321317783E+04   -0.78767E-05   -0.12081E-04 10640   0.133E-02 0.134E-02
CGA:  34    -0.128321318528E+04   -0.74548E-05   -0.11656E-04 10640   0.131E-02 0.132E-02
CGA:  35    -0.128321319235E+04   -0.70620E-05   -0.11252E-04 10640   0.130E-02 0.130E-02
CGA:  36    -0.128321319904E+04   -0.66955E-05   -0.10869E-04 10640   0.128E-02 0.129E-02
CGA:  37    -0.128321320540E+04   -0.63542E-05   -0.10503E-04 10640   0.127E-02 0.127E-02
CGA:  38    -0.128321321143E+04   -0.60353E-05   -0.10155E-04 10640   0.125E-02 0.126E-02
   2 F= -.12832132E+04 E0= -.12832132E+04  d E =-.244440E-02  mag=    47.0000
       N       E                     dE             d eps       ncg     rms          ort
SDA:   1    -0.128315005753E+04    0.63148E-01    0.00000E+00 10640   0.294E+00 0.000E+00
CGA:   2    -0.128318461458E+04   -0.34557E-01   -0.32410E-01 10640   0.138E+00 0.192E+00
CGA:   3    -0.128321354363E+04   -0.28929E-01   -0.22705E-01 10640   0.620E-01 0.848E-01
CGA:   4    -0.128323564476E+04   -0.22101E-01   -0.11423E-01 10640   0.179E-01 0.314E-01
CGA:   5    -0.128324450271E+04   -0.88579E-02   -0.10805E-02 10640   0.388E-02 0.270E-02
CGA:   6    -0.128324520614E+04   -0.70343E-03   -0.69324E-03 10640   0.122E-02 0.301E-03
CGA:   7    -0.128324548718E+04   -0.28104E-03   -0.24052E-03 10640   0.620E-03 0.682E-03
CGA:   8    -0.128324563307E+04   -0.14589E-03   -0.12308E-03 10640   0.489E-03 0.314E-03
CGA:   9    -0.128324574751E+04   -0.11444E-03   -0.95932E-04 10640   0.484E-03 0.277E-03
CGA:  10    -0.128324584138E+04   -0.93873E-04   -0.84677E-04 10640   0.483E-03 0.218E-03
CGA:  11    -0.128324615393E+04   -0.31255E-03   -0.21063E-03 10640   0.366E-03 0.611E-03
CGA:  12    -0.128324623962E+04   -0.85697E-04   -0.74654E-04 10640   0.379E-03 0.182E-03
CGA:  13    -0.128324659829E+04   -0.35867E-03   -0.23644E-03 10640   0.354E-03 0.447E-03
CGA:  14    -0.128324671315E+04   -0.11486E-03   -0.20114E-03 10640   0.159E-02-0.213E-03
CGA:  15    -0.128324686007E+04   -0.14692E-03   -0.16874E-03 10640   0.295E-03 0.298E-03
CGA:  16    -0.128324695763E+04   -0.97556E-04   -0.94409E-04 10640   0.380E-03 0.329E-04
CGA:  17    -0.128324713564E+04   -0.17801E-03   -0.28532E-04 10640   0.517E-02-0.387E-03
CGA:  18    -0.128324773394E+04   -0.59829E-03   -0.68191E-03 10640   0.953E-03 0.436E-03
CGA:  19    -0.128324793695E+04   -0.20301E-03   -0.19037E-03 10640   0.182E-03-0.923E-04
CGA:  20    -0.128324799182E+04   -0.54866E-04   -0.57708E-04 10640   0.441E-03-0.766E-04
CGA:  21    -0.128324816344E+04   -0.17163E-03    0.62163E-03 10640   0.608E-03 0.151E-03
CGA:  22    -0.128324836042E+04   -0.19698E-03   -0.19215E-03 10640   0.696E-03-0.649E-04
CGA:  23    -0.128324859373E+04   -0.23331E-03   -0.25049E-03 10640   0.130E-02-0.205E-03
CGA:  24    -0.128324888246E+04   -0.28872E-03   -0.28569E-03 10640   0.118E-02-0.800E-03
CGA:  25    -0.128324900324E+04   -0.12078E-03   -0.15319E-03 10640   0.235E-03 0.178E-03
CGA:  26    -0.128324903292E+04   -0.29684E-04   -0.43109E-04 10640   0.600E-04 0.914E-04
CGA:  27    -0.128324904277E+04   -0.98497E-05   -0.12362E-04 10640   0.119E-04 0.167E-04
   3 F= -.12832490E+04 E0= -.12832490E+04  d E =-.358313E-01  mag=    47.0000
       N       E                     dE             d eps       ncg     rms          ort
SDA:   1    -0.126331420085E+04    0.19935E+02    0.00000E+00 10640   0.632E+02 0.000E+00
CGA:   2    -0.127597779167E+04   -0.12664E+02   -0.12660E+02 10640   0.241E+02 0.501E-01
CGA:   3    -0.128188260102E+04   -0.59048E+01   -0.59084E+01 10640   0.650E+01 0.436E-01
CGA:   4    -0.128287696096E+04   -0.99436E+00   -0.98982E+00 10640   0.111E+01 0.378E-01
CGA:   5    -0.128309266156E+04   -0.21570E+00   -0.21541E+00 10640   0.313E+00-0.625E-02
CGA:   6    -0.128314970913E+04   -0.57048E-01   -0.57004E-01 10640   0.999E-01 0.159E-03
CGA:   7    -0.128317019145E+04   -0.20482E-01   -0.20401E-01 10640   0.299E-01-0.118E-02
CGA:   8    -0.128317669804E+04   -0.65066E-02   -0.64580E-02 10640   0.152E-01-0.124E-02
CGA:   9    -0.128317995256E+04   -0.32545E-02   -0.32561E-02 10640   0.704E-02 0.105E-03
CGA:  10    -0.128318231334E+04   -0.23608E-02   -0.25442E-02 10640   0.622E-02-0.173E-02
CGA:  11    -0.128318343742E+04   -0.11241E-02   -0.11064E-02 10640   0.366E-02-0.755E-03
CGA:  12    -0.128318451381E+04   -0.10764E-02   -0.12067E-02 10640   0.325E-02-0.111E-02
CGA:  13    -0.128318515262E+04   -0.63881E-03   -0.64287E-03 10640   0.274E-02-0.198E-03
CGA:  14    -0.128318584063E+04   -0.68801E-03   -0.68741E-03 10640   0.169E-02 0.231E-03
CGA:  15    -0.128318643502E+04   -0.59439E-03   -0.57329E-03 10640   0.109E-02 0.431E-03
CGA:  16    -0.128318668103E+04   -0.24601E-03   -0.27982E-03 10640   0.473E-03 0.531E-03
CGA:  17    -0.128318680583E+04   -0.12480E-03   -0.14608E-03 10640   0.240E-03 0.377E-03
CGA:  18    -0.128318682958E+04   -0.23748E-04   -0.39807E-04 10640   0.151E-03 0.169E-03
CGA:  19    -0.128318683921E+04   -0.96270E-05   -0.23121E-04 10640   0.124E-03 0.130E-03
CGA:  20    -0.128318684276E+04   -0.35569E-05   -0.16725E-04 10640   0.109E-03 0.113E-03
CGA:  21    -0.128318684445E+04   -0.16918E-05   -0.13898E-04 10640   0.996E-04 0.103E-03
CGA:  22    -0.128318684503E+04   -0.57765E-06   -0.11983E-04 10640   0.925E-04 0.954E-04
CGA:  23    -0.128318684491E+04    0.12438E-06   -0.10566E-04 10640   0.869E-04 0.893E-04
   4 F= -.12831868E+04 E0= -.12831868E+04  d E =0.621979E-01  mag=    47.0000
       N       E                     dE             d eps       ncg     rms          ort
SDA:   1    -0.127998498524E+04    0.32019E+01    0.00000E+00 10640   0.108E+02 0.000E+00
CGA:   2    -0.128211788145E+04   -0.21329E+01   -0.21327E+01 10640   0.406E+01-0.570E-02
CGA:   3    -0.128312458681E+04   -0.10067E+01   -0.10065E+01 10640   0.111E+01 0.413E-02
CGA:   4    -0.128329322748E+04   -0.16864E+00   -0.16861E+00 10640   0.191E+00 0.542E-03
CGA:   5    -0.128332785845E+04   -0.34631E-01   -0.34713E-01 10640   0.552E-01 0.236E-02
CGA:   6    -0.128333781239E+04   -0.99539E-02   -0.99719E-02 10640   0.166E-01 0.551E-03
CGA:   7    -0.128334139526E+04   -0.35829E-02   -0.35825E-02 10640   0.477E-02-0.267E-03
CGA:   8    -0.128334232908E+04   -0.93383E-03   -0.93679E-03 10640   0.195E-02 0.208E-03
CGA:   9    -0.128334291136E+04   -0.58228E-03   -0.65001E-03 10640   0.186E-02-0.638E-03
CGA:  10    -0.128334307357E+04   -0.16221E-03   -0.17787E-03 10640   0.709E-03 0.206E-03
CGA:  11    -0.128334316034E+04   -0.86767E-04   -0.10602E-03 10640   0.414E-03 0.239E-03
CGA:  12    -0.128334325751E+04   -0.97173E-04   -0.98730E-04 10640   0.161E-03 0.475E-04
CGA:  13    -0.128334274331E+04    0.51420E-03   -0.27903E-03 10640   0.362E-02-0.651E-03
CGA:  14    -0.128334310658E+04   -0.36326E-03   -0.46357E-03 10640   0.832E-03 0.407E-03
CGA:  15    -0.128334337672E+04   -0.27014E-03   -0.25952E-03 10640   0.289E-03-0.118E-03
CGA:  16    -0.128334346326E+04   -0.86548E-04   -0.81596E-04 10640   0.302E-03-0.137E-03
CGA:  17    -0.128334347459E+04   -0.11328E-04   -0.17671E-04 10640   0.138E-03 0.254E-04
CGA:  18    -0.128334347656E+04   -0.19731E-05   -0.13305E-04 10640   0.691E-04 0.435E-04
CGA:  19    -0.128334348150E+04   -0.49377E-05   -0.11281E-04 10640   0.500E-04 0.297E-04
CGA:  20    -0.128334349976E+04   -0.18254E-04   -0.15460E-04 10640   0.450E-04-0.252E-04
CGA:  21    -0.128334351378E+04   -0.14022E-04   -0.12054E-04 10640   0.878E-04-0.368E-04
CGA:  22    -0.128334351968E+04   -0.58979E-05   -0.77314E-05 10640   0.626E-05 0.821E-05
CGA:  23    -0.128334352423E+04   -0.45541E-05    0.12786E-04 10640   0.119E-04 0.180E-05
   5 F= -.12833435E+04 E0= -.12833435E+04  d E =-.156679E+00  mag=    47.0000
       N       E                     dE             d eps       ncg     rms          ort
SDA:   1    -0.128257436135E+04    0.76916E+00    0.00000E+00 10640   0.250E+01 0.000E+00
CGA:   2    -0.128306825753E+04   -0.49390E+00   -0.49374E+00 10640   0.937E+00-0.106E-03
CGA:   3    -0.128330207817E+04   -0.23382E+00   -0.23389E+00 10640   0.248E+00 0.974E-03
CGA:   4    -0.128334067172E+04   -0.38594E-01   -0.38613E-01 10640   0.412E-01 0.297E-03
CGA:   5    -0.128334845073E+04   -0.77790E-02   -0.78467E-02 10640   0.115E-01 0.685E-03
CGA:   6    -0.128335056859E+04   -0.21179E-02   -0.21302E-02 10640   0.379E-02 0.135E-03
CGA:   7    -0.128335132192E+04   -0.75333E-03   -0.75737E-03 10640   0.103E-02 0.522E-04
CGA:   8    -0.128335152321E+04   -0.20129E-03   -0.21005E-03 10640   0.410E-03 0.115E-03
CGA:   9    -0.128335167244E+04   -0.14924E-03   -0.16008E-03 10640   0.491E-03-0.139E-03
CGA:  10    -0.128335168559E+04   -0.13145E-04   -0.33633E-04 10640   0.251E-03 0.118E-03
CGA:  11    -0.128335168808E+04   -0.24901E-05   -0.25918E-04 10640   0.133E-03 0.127E-03
CGA:  12    -0.128335172709E+04   -0.39008E-04   -0.38868E-04 10640   0.106E-03 0.444E-05
CGA:  13    -0.128335172910E+04   -0.20123E-05   -0.10713E-04 10640   0.375E-04 0.535E-04
   6 F= -.12833517E+04 E0= -.12833517E+04  d E =-.820487E-02  mag=    47.0000
       N       E                     dE             d eps       ncg     rms          ort
SDA:   1    -0.127597769767E+04    0.73740E+01    0.00000E+00 10640   0.223E+02 0.000E+00
CGA:   2    -0.128055261960E+04   -0.45749E+01   -0.45739E+01 10640   0.907E+01 0.229E-02
CGA:   3    -0.128267998509E+04   -0.21274E+01   -0.21279E+01 10640   0.258E+01 0.217E-01
CGA:   4    -0.128305271506E+04   -0.37273E+00   -0.36994E+00 10640   0.453E+00 0.201E-01
CGA:   5    -0.128313517629E+04   -0.82461E-01   -0.82650E-01 10640   0.127E+00 0.189E-02
CGA:   6    -0.128315871610E+04   -0.23540E-01   -0.23612E-01 10640   0.358E-01 0.168E-02
CGA:   7    -0.128316666852E+04   -0.79524E-02   -0.79502E-02 10640   0.113E-01-0.100E-03
CGA:   8    -0.128316889441E+04   -0.22259E-02   -0.22364E-02 10640   0.484E-02 0.325E-03
CGA:   9    -0.128317017488E+04   -0.12805E-02   -0.12804E-02 10640   0.262E-02 0.959E-05
CGA:  10    -0.128317064175E+04   -0.46687E-03   -0.50035E-03 10640   0.105E-02 0.799E-03
CGA:  11    -0.128317095452E+04   -0.31277E-03   -0.31370E-03 10640   0.498E-03 0.561E-03
CGA:  12    -0.128317114031E+04   -0.18579E-03   -0.17130E-03 10640   0.515E-03 0.129E-03
CGA:  13    -0.128317123507E+04   -0.94762E-04   -0.11582E-03 10640   0.296E-03 0.366E-03
CGA:  14    -0.128317130977E+04   -0.74695E-04   -0.72754E-04 10640   0.224E-03 0.157E-03
CGA:  15    -0.128317134137E+04   -0.31602E-04   -0.39528E-04 10640   0.207E-03 0.137E-03
CGA:  16    -0.128317140874E+04   -0.67371E-04   -0.62231E-04 10640   0.362E-03 0.744E-04
CGA:  17    -0.128317155166E+04   -0.14291E-03   -0.13067E-03 10640   0.140E-03 0.400E-03
CGA:  18    -0.128317159480E+04   -0.43139E-04   -0.39103E-04 10640   0.171E-03 0.935E-04
CGA:  19    -0.128317163715E+04   -0.42358E-04   -0.42159E-04 10640   0.256E-03 0.249E-04
CGA:  20    -0.128317178525E+04   -0.14810E-03   -0.11192E-03 10640   0.155E-03 0.253E-03
CGA:  21    -0.128317181840E+04   -0.33148E-04   -0.33308E-04 10640   0.182E-03 0.515E-05
CGA:  22    -0.128317210886E+04   -0.29047E-03   -0.19457E-03 10640   0.262E-03 0.119E-03
CGA:  23    -0.128317212445E+04   -0.15583E-04   -0.28342E-04 10640   0.551E-04 0.730E-04
CGA:  24    -0.128317214422E+04   -0.19773E-04   -0.19693E-04 10640   0.121E-03 0.177E-04
CGA:  25    -0.128317224177E+04   -0.97553E-04    0.20976E-03 10640   0.197E-03 0.118E-03
CGA:  26    -0.128317228342E+04   -0.41646E-04   -0.39111E-04 10640   0.837E-04-0.324E-04
CGA:  27    -0.128317233538E+04   -0.51960E-04   -0.67232E-04 10640   0.390E-03-0.225E-04
CGA:  28    -0.128317228940E+04    0.45983E-04   -0.29518E-03 10640   0.412E-02-0.465E-03
CGA:  29    -0.128317275034E+04   -0.46094E-03   -0.44320E-03 10640   0.467E-03-0.780E-04
CGA:  30    -0.128317282124E+04   -0.70898E-04   -0.84381E-04 10640   0.706E-04 0.926E-04
CGA:  31    -0.128317282961E+04   -0.83740E-05   -0.54826E-04 10640   0.341E-03-0.143E-03
CGA:  32    -0.128317284872E+04   -0.19109E-04   -0.39158E-04 10640   0.555E-04 0.902E-04
CGA:  33    -0.128317285426E+04   -0.55342E-05   -0.99194E-05 10640   0.219E-04 0.235E-04
CGA:  34    -0.128317287505E+04   -0.20798E-04    0.11538E-03 10640   0.185E-04-0.132E-04
CGA:  35    -0.128317287623E+04   -0.11714E-05   -0.23348E-05 10640   0.708E-05 0.607E-05
   7 F= -.12831729E+04 E0= -.12831729E+04  d E =0.178853E+00  mag=    47.0000
       N       E                     dE             d eps       ncg     rms          ort
SDA:   1    -0.120339307057E+04    0.79780E+02    0.00000E+00 10640   0.263E+03 0.000E+00
CGA:   2    -0.125276079888E+04   -0.49368E+02   -0.46703E+02 10640   0.869E+02 0.149E+02
CGA:   3    -0.127638771852E+04   -0.23627E+02   -0.23715E+02 10640   0.302E+02 0.535E+00
CGA:   4    -0.128055310347E+04   -0.41654E+01   -0.32940E+01 10640   0.493E+01 0.795E+01
CGA:   5    -0.128164543109E+04   -0.10923E+01   -0.10940E+01 10640   0.210E+01 0.221E-01
CGA:   6    -0.128197104105E+04   -0.32561E+00   -0.32908E+00 10640   0.836E+00-0.210E-01
CGA:   7    -0.128211124167E+04   -0.14020E+00   -0.14006E+00 10640   0.308E+00 0.317E-02
CGA:   8    -0.128216749674E+04   -0.56255E-01   -0.56043E-01 10640   0.106E+00-0.154E-02
CGA:   9    -0.128218723756E+04   -0.19741E-01   -0.19314E-01 10640   0.619E-01-0.484E-02
CGA:  10    -0.128219899071E+04   -0.11753E-01   -0.11869E-01 10640   0.305E-01 0.174E-02
CGA:  11    -0.128220617191E+04   -0.71812E-02   -0.71854E-02 10640   0.169E-01 0.178E-03
CGA:  12    -0.128221040881E+04   -0.42369E-02   -0.41716E-02 10640   0.141E-01-0.290E-02
CGA:  13    -0.128221239513E+04   -0.19863E-02   -0.20360E-02 10640   0.676E-02 0.571E-03
CGA:  14    -0.128221396413E+04   -0.15690E-02   -0.15955E-02 10640   0.617E-02 0.740E-03
CGA:  15    -0.128221557160E+04   -0.16075E-02   -0.15999E-02 10640   0.528E-02-0.285E-03
CGA:  16    -0.128221647823E+04   -0.90664E-03   -0.99793E-03 10640   0.400E-02 0.148E-02
CGA:  17    -0.128221733306E+04   -0.85483E-03   -0.97234E-03 10640   0.308E-02 0.175E-02
CGA:  18    -0.128221827978E+04   -0.94672E-03   -0.97981E-03 10640   0.217E-02 0.103E-02
CGA:  19    -0.128221867642E+04   -0.39664E-03   -0.49612E-03 10640   0.139E-02 0.123E-02
CGA:  20    -0.128221892348E+04   -0.24706E-03   -0.26873E-03 10640   0.858E-03 0.400E-03
CGA:  21    -0.128221918471E+04   -0.26123E-03   -0.26347E-03 10640   0.446E-03 0.329E-03
CGA:  22    -0.128221928020E+04   -0.95496E-04   -0.11961E-03 10640   0.380E-03 0.473E-03
CGA:  23    -0.128221936293E+04   -0.82725E-04   -0.86345E-04 10640   0.284E-03 0.246E-03
CGA:  24    -0.128221943816E+04   -0.75229E-04   -0.72713E-04 10640   0.327E-03 0.168E-03
CGA:  25    -0.128221945406E+04   -0.15902E-04   -0.39007E-04 10640   0.223E-03 0.188E-03
CGA:  26    -0.128221957493E+04   -0.12087E-03   -0.91220E-04 10640   0.306E-03 0.169E-03
CGA:  27    -0.128221957048E+04    0.44432E-05   -0.26271E-04 10640   0.188E-03 0.194E-03
CGA:  28    -0.128221962652E+04   -0.56041E-04   -0.50369E-04 10640   0.177E-03 0.181E-03
CGA:  29    -0.128221966950E+04   -0.42976E-04   -0.42583E-04 10640   0.169E-03 0.169E-03
CGA:  30    -0.128221972434E+04   -0.54835E-04   -0.47868E-04 10640   0.168E-03 0.154E-03
CGA:  31    -0.128221975157E+04   -0.27236E-04   -0.33160E-04 10640   0.165E-03 0.138E-03
CGA:  32    -0.128221979951E+04   -0.47940E-04   -0.44435E-04 10640   0.203E-03 0.112E-03
CGA:  33    -0.128221981589E+04   -0.16382E-04   -0.27468E-04 10640   0.153E-03 0.106E-03
CGA:  34    -0.128221985921E+04   -0.43313E-04   -0.40370E-04 10640   0.197E-03 0.981E-04
CGA:  35    -0.128221987168E+04   -0.12475E-04   -0.23886E-04 10640   0.136E-03 0.994E-04
CGA:  36    -0.128221991826E+04   -0.46578E-04   -0.40368E-04 10640   0.185E-03 0.936E-04
CGA:  37    -0.128221992505E+04   -0.67913E-05   -0.19564E-04 10640   0.119E-03 0.997E-04
CGA:  38    -0.128221997547E+04   -0.50421E-04   -0.39784E-04 10640   0.143E-03 0.986E-04
CGA:  39    -0.128221997715E+04   -0.16783E-05   -0.14552E-04 10640   0.106E-03 0.982E-04
CGA:  40    -0.128222002339E+04   -0.46237E-04   -0.35687E-04 10640   0.113E-03 0.961E-04
CGA:  41    -0.128222002389E+04   -0.50517E-06   -0.12040E-04 10640   0.967E-04 0.923E-04
CGA:  42    -0.128222006659E+04   -0.42698E-04   -0.32695E-04 10640   0.100E-03 0.885E-04
CGA:  43    -0.128222006584E+04    0.74846E-06   -0.10274E-04 10640   0.879E-04 0.855E-04
CGA:  44    -0.128222009938E+04   -0.33542E-04   -0.26826E-04 10640   0.864E-04 0.829E-04
CGA:  45    -0.128222010062E+04   -0.12408E-05   -0.10098E-04 10640   0.808E-04 0.791E-04
CGA:  46    -0.128222013379E+04   -0.33163E-04   -0.25844E-04 10640   0.812E-04 0.753E-04
CGA:  47    -0.128222013256E+04    0.12238E-05   -0.81165E-05 10640   0.738E-04 0.729E-04
CGA:  48    -0.128222015490E+04   -0.22336E-04   -0.19391E-04 10640   0.710E-04 0.710E-04
CGA:  49    -0.128222015776E+04   -0.28642E-05   -0.92356E-05 10640   0.683E-04 0.680E-04
CGA:  50    -0.128222018066E+04   -0.22895E-04   -0.19021E-04 10640   0.667E-04 0.650E-04
CGA:  51    -0.128222018066E+04   -0.40272E-08   -0.71807E-05 10640   0.631E-04 0.628E-04
CGA:  52    -0.128222019764E+04   -0.16974E-04   -0.15334E-04 10640   0.608E-04 0.609E-04
CGA:  53    -0.128222019951E+04   -0.18754E-05   -0.74546E-05 10640   0.587E-04 0.587E-04
CGA:  54    -0.128222021427E+04   -0.14763E-04   -0.13641E-04 10640   0.566E-04 0.567E-04
CGA:  55    -0.128222021584E+04   -0.15670E-05   -0.67504E-05 10640   0.547E-04 0.548E-04
CGA:  56    -0.128222022772E+04   -0.11877E-04   -0.11657E-04 10640   0.527E-04 0.532E-04
CGA:  57    -0.128222022977E+04   -0.20531E-05   -0.64886E-05 10640   0.511E-04 0.515E-04
   8 F= -.12822202E+04 E0= -.12822202E+04  d E =0.952646E+00  mag=    47.0000
       N       E                     dE             d eps       ncg     rms          ort
SDA:   1    -0.126049632823E+04    0.21724E+02    0.00000E+00 10640   0.744E+02 0.000E+00
CGA:   2    -0.127481708784E+04   -0.14321E+02   -0.14321E+02 10640   0.275E+02 0.196E-01
CGA:   3    -0.128168731241E+04   -0.68702E+01   -0.68643E+01 10640   0.824E+01 0.835E-01
CGA:   4    -0.128290357286E+04   -0.12163E+01   -0.12140E+01 10640   0.141E+01 0.830E-02
CGA:   5    -0.128314800666E+04   -0.24443E+00   -0.24465E+00 10640   0.416E+00 0.879E-02
CGA:   6    -0.128322543130E+04   -0.77425E-01   -0.77420E-01 10640   0.121E+00-0.433E-03
CGA:   7    -0.128325156301E+04   -0.26132E-01   -0.26157E-01 10640   0.362E-01-0.146E-02
CGA:   8    -0.128325895449E+04   -0.73915E-02   -0.74010E-02 10640   0.172E-01-0.176E-02
CGA:   9    -0.128326306087E+04   -0.41064E-02   -0.43195E-02 10640   0.112E-01-0.341E-02
CGA:  10    -0.128326514453E+04   -0.20837E-02   -0.21256E-02 10640   0.522E-02-0.126E-02
CGA:  11    -0.128326647895E+04   -0.13344E-02   -0.16004E-02 10640   0.490E-02-0.190E-02
CGA:  12    -0.128326714871E+04   -0.66976E-03   -0.67356E-03 10640   0.283E-02-0.124E-02
CGA:  13    -0.128326027414E+04    0.68746E-02   -0.37171E-02 10640   0.517E-01-0.846E-02
CGA:  14    -0.128326707336E+04   -0.67992E-02   -0.69977E-02 10640   0.133E-01 0.676E-03
CGA:  15    -0.128326926966E+04   -0.21963E-02   -0.23282E-02 10640   0.223E-02 0.670E-03
CGA:  16    -0.128326990412E+04   -0.63445E-03   -0.65480E-03 10640   0.124E-02 0.237E-03
CGA:  17    -0.128327016884E+04   -0.26473E-03   -0.29976E-03 10640   0.449E-03 0.244E-03
CGA:  18    -0.128327023392E+04   -0.65075E-04   -0.10313E-03 10640   0.217E-03 0.232E-03
CGA:  19    -0.128327030481E+04   -0.70893E-04   -0.70747E-04 10640   0.272E-03-0.703E-05
CGA:  20    -0.128327030673E+04   -0.19153E-05   -0.34773E-04 10640   0.131E-03 0.153E-03
CGA:  21    -0.128327030457E+04    0.21585E-05   -0.13916E-04 10640   0.585E-04 0.702E-04
CGA:  22    -0.128327031259E+04   -0.80236E-05   -0.12931E-04 10640   0.458E-04 0.475E-04
CGA:  23    -0.128327032000E+04   -0.74030E-05   -0.10786E-04 10640   0.402E-04 0.405E-04
   9 F= -.12832703E+04 E0= -.12832703E+04  d E =-.105009E+01  mag=    47.0000
       N       E                     dE             d eps       ncg     rms          ort
SDA:   1    -0.127923906434E+04    0.40312E+01    0.00000E+00 10640   0.130E+02 0.000E+00
CGA:   2    -0.128181148933E+04   -0.25724E+01   -0.25713E+01 10640   0.506E+01 0.406E-02
CGA:   3    -0.128303033831E+04   -0.12188E+01   -0.12195E+01 10640   0.156E+01 0.450E-02
CGA:   4    -0.128325343100E+04   -0.22309E+00   -0.22239E+00 10640   0.260E+00 0.670E-02
CGA:   5    -0.128329974772E+04   -0.46317E-01   -0.46446E-01 10640   0.736E-01 0.947E-03
CGA:   6    -0.128331355772E+04   -0.13810E-01   -0.13848E-01 10640   0.214E-01 0.501E-03
CGA:   7    -0.128331817330E+04   -0.46156E-02   -0.45881E-02 10640   0.709E-02-0.376E-03
CGA:   8    -0.128331939687E+04   -0.12236E-02   -0.12498E-02 10640   0.259E-02 0.278E-03
CGA:   9    -0.128332026061E+04   -0.86374E-03   -0.89986E-03 10640   0.210E-02-0.606E-03
CGA:  10    -0.128332054201E+04   -0.28139E-03   -0.29772E-03 10640   0.931E-03 0.179E-03
CGA:  11    -0.128332080740E+04   -0.26540E-03   -0.26644E-03 10640   0.450E-03 0.115E-03
CGA:  12    -0.128332076474E+04    0.42662E-04   -0.40529E-03 10640   0.448E-02-0.848E-03
CGA:  13    -0.128332112516E+04   -0.36041E-03   -0.45212E-03 10640   0.635E-03 0.481E-03
CGA:  14    -0.128332131306E+04   -0.18790E-03   -0.18853E-03 10640   0.311E-03 0.302E-04
CGA:  15    -0.128331731067E+04    0.40024E-02   -0.21774E-02 10640   0.403E-01-0.295E-02
CGA:  16    -0.128332097301E+04   -0.36623E-02   -0.41341E-02 10640   0.263E-02 0.159E-02
CGA:  17    -0.128332156187E+04   -0.58887E-03   -0.65415E-03 10640   0.114E-02 0.251E-03
CGA:  18    -0.128332192183E+04   -0.35996E-03   -0.27642E-03 10640   0.325E-03-0.309E-03
CGA:  19    -0.128332194190E+04   -0.20063E-04   -0.39412E-04 10640   0.123E-03 0.629E-04
CGA:  20    -0.128332196887E+04   -0.26978E-04   -0.33950E-04 10640   0.975E-04 0.305E-04
CGA:  21    -0.128332211212E+04   -0.14324E-03    0.89559E-04 10640   0.193E-03-0.732E-04
CGA:  22    -0.128332210963E+04    0.24847E-05   -0.21125E-04 10640   0.568E-04 0.697E-04
CGA:  23    -0.128332211528E+04   -0.56443E-05   -0.13367E-04 10640   0.410E-04 0.297E-04
  10 F= -.12833221E+04 E0= -.12833221E+04  d E =-.517953E-01  mag=    47.0000
       N       E                     dE             d eps       ncg     rms          ort
SDA:   1    -0.127750522220E+04    0.58169E+01    0.00000E+00 10640   0.168E+02 0.000E+00
CGA:   2    -0.128116164900E+04   -0.36564E+01   -0.36551E+01 10640   0.746E+01 0.136E-01
CGA:   3    -0.128283101508E+04   -0.16694E+01   -0.16735E+01 10640   0.216E+01-0.205E-02
CGA:   4    -0.128312739533E+04   -0.29638E+00   -0.29033E+00 10640   0.353E+00 0.451E-01
CGA:   5    -0.128319481146E+04   -0.67416E-01   -0.67624E-01 10640   0.974E-01 0.127E-03
CGA:   6    -0.128321338430E+04   -0.18573E-01   -0.18690E-01 10640   0.286E-01 0.901E-03
CGA:   7    -0.128321957636E+04   -0.61921E-02   -0.61107E-02 10640   0.988E-02-0.509E-03
CGA:   8    -0.128322129213E+04   -0.17158E-02   -0.17614E-02 10640   0.355E-02 0.284E-03
CGA:   9    -0.128322236513E+04   -0.10730E-02   -0.10564E-02 10640   0.209E-02-0.263E-03
CGA:  10    -0.128322274000E+04   -0.37487E-03   -0.40539E-03 10640   0.962E-03 0.225E-03
CGA:  11    -0.128322302299E+04   -0.28299E-03   -0.28960E-03 10640   0.443E-03 0.949E-04
CGA:  12    -0.128322317764E+04   -0.15465E-03   -0.15537E-03 10640   0.397E-03 0.400E-04
CGA:  13    -0.128322327222E+04   -0.94577E-04   -0.10275E-03 10640   0.304E-03 0.825E-04
CGA:  14    -0.128322337892E+04   -0.10670E-03   -0.11116E-03 10640   0.198E-03 0.155E-03
CGA:  15    -0.128322351367E+04   -0.13475E-03    0.10259E-02 10640   0.166E-03 0.418E-04
CGA:  16    -0.128322352330E+04   -0.96337E-05   -0.29940E-04 10640   0.786E-04 0.112E-03
CGA:  17    -0.128322356659E+04   -0.43285E-04   -0.38418E-04 10640   0.108E-03 0.288E-04
CGA:  18    -0.128322366546E+04   -0.98871E-04    0.12706E-02 10640   0.144E-03 0.575E-04
CGA:  19    -0.128322368363E+04   -0.18175E-04   -0.20540E-04 10640   0.733E-04 0.129E-04
CGA:  20    -0.128322371979E+04   -0.36157E-04   -0.33842E-04 10640   0.802E-04 0.224E-04
CGA:  21    -0.128322382905E+04   -0.10926E-03    0.28231E-04 10640   0.106E-03 0.578E-04
CGA:  22    -0.128322383183E+04   -0.27777E-05   -0.12494E-04 10640   0.445E-04 0.470E-04
CGA:  23    -0.128322384745E+04   -0.15619E-04   -0.16827E-04 10640   0.556E-04 0.225E-04
CGA:  24    -0.128322391302E+04   -0.65571E-04    0.97834E-05 10640   0.121E-03-0.246E-04
CGA:  25    -0.128322399145E+04   -0.78436E-04    0.12241E-04 10640   0.235E-03 0.385E-04
CGA:  26    -0.128322403154E+04   -0.40087E-04   -0.54044E-04 10640   0.639E-04 0.103E-03
CGA:  27    -0.128322405905E+04   -0.27515E-04   -0.27563E-04 10640   0.115E-03 0.953E-05
CGA:  28    -0.128322418812E+04   -0.12907E-03    0.34250E-04 10640   0.851E-04 0.419E-04
CGA:  29    -0.128322302335E+04    0.11648E-02   -0.62876E-03 10640   0.157E-01-0.835E-03
CGA:  30    -0.128322446535E+04   -0.14420E-02   -0.14703E-02 10640   0.221E-03 0.335E-03
CGA:  31    -0.128322449461E+04   -0.29263E-04   -0.29026E-04 10640   0.215E-04 0.148E-06
CGA:  32    -0.128322449348E+04    0.11317E-05   -0.29667E-05 10640   0.953E-05 0.109E-04
  11 F= -.12832245E+04 E0= -.12832245E+04  d E =0.976218E-01  mag=    47.0000
       N       E                     dE             d eps       ncg     rms          ort
SDA:   1    -0.122615725059E+04    0.57067E+02    0.00000E+00 10640   0.182E+03 0.000E+00
CGA:   2    -0.126124663885E+04   -0.35089E+02   -0.32443E+02 10640   0.604E+02 0.166E+02
CGA:   3    -0.127833576656E+04   -0.17089E+02   -0.17224E+02 10640   0.228E+02 0.857E-01
CGA:   4    -0.128113293403E+04   -0.27972E+01   -0.20605E+01 10640   0.459E+01 0.836E+01
CGA:   5    -0.128199434109E+04   -0.86141E+00   -0.85040E+00 10640   0.220E+01 0.114E+00
CGA:   6    -0.128230859662E+04   -0.31426E+00   -0.31782E+00 10640   0.799E+00-0.266E-01
CGA:   7    -0.128243697599E+04   -0.12838E+00   -0.12750E+00 10640   0.395E+00-0.348E-02
CGA:   8    -0.128249150413E+04   -0.54528E-01   -0.54120E-01 10640   0.147E+00 0.502E-02
CGA:   9    -0.128251608901E+04   -0.24585E-01   -0.24297E-01 10640   0.578E-01-0.126E-02
CGA:  10    -0.128252641430E+04   -0.10325E-01   -0.98981E-02 10640   0.384E-01-0.223E-02
CGA:  11    -0.128253347120E+04   -0.70569E-02   -0.70998E-02 10640   0.191E-01 0.315E-03
CGA:  12    -0.128253696557E+04   -0.34944E-02   -0.35412E-02 10640   0.112E-01 0.371E-03
CGA:  13    -0.128253959339E+04   -0.26278E-02   -0.24218E-02 10640   0.762E-02-0.151E-02
CGA:  14    -0.128254098264E+04   -0.13893E-02   -0.13430E-02 10640   0.433E-02-0.328E-03
CGA:  15    -0.128254173602E+04   -0.75338E-03   -0.83059E-03 10640   0.352E-02 0.589E-03
CGA:  16    -0.128254268131E+04   -0.94529E-03   -0.96668E-03 10640   0.276E-02 0.257E-03
CGA:  17    -0.128254331942E+04   -0.63811E-03   -0.68964E-03 10640   0.232E-02 0.573E-03
CGA:  18    -0.128254373857E+04   -0.41915E-03   -0.53925E-03 10640   0.157E-02 0.950E-03
CGA:  19    -0.128254415089E+04   -0.41232E-03   -0.48509E-03 10640   0.118E-02 0.785E-03
CGA:  20    -0.128254436592E+04   -0.21503E-03   -0.22658E-03 10640   0.850E-03 0.102E-03
CGA:  21    -0.128254451511E+04   -0.14919E-03   -0.18473E-03 10640   0.343E-03 0.349E-03
CGA:  22    -0.128254454389E+04   -0.28773E-04   -0.74606E-04 10640   0.298E-03 0.321E-03
CGA:  23    -0.128254459623E+04   -0.52344E-04   -0.63028E-04 10640   0.286E-03 0.136E-03
CGA:  24    -0.128254465298E+04   -0.56750E-04   -0.83938E-04 10640   0.196E-03 0.323E-03
CGA:  25    -0.128254466970E+04   -0.16725E-04   -0.33894E-04 10640   0.169E-03 0.157E-03
CGA:  26    -0.128254471023E+04   -0.40522E-04   -0.43248E-04 10640   0.173E-03 0.140E-03
CGA:  27    -0.128254472143E+04   -0.11204E-04   -0.26870E-04 10640   0.155E-03 0.130E-03
CGA:  28    -0.128254475669E+04   -0.35261E-04   -0.38122E-04 10640   0.168E-03 0.121E-03
CGA:  29    -0.128254476711E+04   -0.10421E-04   -0.24475E-04 10640   0.144E-03 0.115E-03
CGA:  30    -0.128254479737E+04   -0.30260E-04   -0.33493E-04 10640   0.156E-03 0.109E-03
CGA:  31    -0.128254480809E+04   -0.10722E-04   -0.22699E-04 10640   0.134E-03 0.104E-03
CGA:  32    -0.128254483306E+04   -0.24965E-04   -0.28913E-04 10640   0.142E-03 0.101E-03
CGA:  33    -0.128254484495E+04   -0.11887E-04   -0.21544E-04 10640   0.126E-03 0.952E-04
CGA:  34    -0.128254486453E+04   -0.19588E-04   -0.24555E-04 10640   0.129E-03 0.932E-04
CGA:  35    -0.128254487811E+04   -0.13576E-04   -0.20887E-04 10640   0.120E-03 0.881E-04
CGA:  36    -0.128254489277E+04   -0.14663E-04   -0.20658E-04 10640   0.116E-03 0.872E-04
CGA:  37    -0.128254490817E+04   -0.15393E-04   -0.20465E-04 10640   0.114E-03 0.832E-04
CGA:  38    -0.128254491877E+04   -0.10604E-04   -0.17375E-04 10640   0.104E-03 0.831E-04
CGA:  39    -0.128254493556E+04   -0.16788E-04   -0.19918E-04 10640   0.105E-03 0.805E-04
CGA:  40    -0.128254494312E+04   -0.75617E-05   -0.14698E-04 10640   0.939E-04 0.804E-04
CGA:  41    -0.128254496019E+04   -0.17065E-04   -0.18870E-04 10640   0.950E-04 0.789E-04
CGA:  42    -0.128254496582E+04   -0.56339E-05   -0.12633E-04 10640   0.857E-04 0.781E-04
CGA:  43    -0.128254498182E+04   -0.15999E-04   -0.17270E-04 10640   0.850E-04 0.768E-04
CGA:  44    -0.128254498657E+04   -0.47506E-05   -0.11198E-04 10640   0.790E-04 0.753E-04
CGA:  45    -0.128254500063E+04   -0.14060E-04   -0.15393E-04 10640   0.771E-04 0.737E-04
CGA:  46    -0.128254500517E+04   -0.45419E-05   -0.10247E-04 10640   0.733E-04 0.719E-04
CGA:  47    -0.128254501698E+04   -0.11805E-04   -0.13498E-04 10640   0.711E-04 0.702E-04
CGA:  48    -0.128254502162E+04   -0.46384E-05   -0.95766E-05 10640   0.685E-04 0.684E-04
CGA:  49    -0.128254503122E+04   -0.96082E-05   -0.11740E-04 10640   0.663E-04 0.666E-04
  12 F= -.12825450E+04 E0= -.12825450E+04  d E =0.679462E+00  mag=    47.0000
       N       E                     dE             d eps       ncg     rms          ort
SDA:   1    -0.125141310812E+04    0.31132E+02    0.00000E+00 10640   0.104E+03 0.000E+00
CGA:   2    -0.127135441038E+04   -0.19941E+02   -0.19941E+02 10640   0.390E+02 0.784E-02
CGA:   3    -0.128097606494E+04   -0.96217E+01   -0.96090E+01 10640   0.122E+02 0.169E+00
CGA:   4    -0.128275356474E+04   -0.17775E+01   -0.17714E+01 10640   0.203E+01 0.204E-01
CGA:   5    -0.128310775478E+04   -0.35419E+00   -0.35445E+00 10640   0.580E+00 0.113E-01
CGA:   6    -0.128321884182E+04   -0.11109E+00   -0.11109E+00 10640   0.168E+00 0.126E-03
CGA:   7    -0.128325527019E+04   -0.36428E-01   -0.36494E-01 10640   0.530E-01-0.290E-02
CGA:   8    -0.128326519559E+04   -0.99254E-02   -0.99196E-02 10640   0.222E-01-0.721E-03
CGA:   9    -0.128327094186E+04   -0.57463E-02   -0.60473E-02 10640   0.139E-01-0.377E-02
CGA:  10    -0.128327343625E+04   -0.24944E-02   -0.25026E-02 10640   0.591E-02-0.446E-03
CGA:  11    -0.128327511009E+04   -0.16738E-02   -0.18221E-02 10640   0.377E-02-0.126E-02
CGA:  12    -0.128327584631E+04   -0.73622E-03   -0.82988E-03 10640   0.367E-02-0.128E-02
CGA:  13    -0.128327638492E+04   -0.53861E-03   -0.86283E-03 10640   0.441E-02-0.223E-02
CGA:  14    -0.128327694895E+04   -0.56402E-03   -0.58878E-03 10640   0.159E-02 0.305E-03
CGA:  15    -0.128327739438E+04   -0.44544E-03   -0.44230E-03 10640   0.586E-03 0.699E-04
CGA:  16    -0.128327768389E+04   -0.28950E-03   -0.29201E-03 10640   0.462E-03-0.999E-05
CGA:  17    -0.128327784041E+04   -0.15652E-03   -0.24121E-03 10640   0.129E-02-0.281E-03
CGA:  18    -0.128327798600E+04   -0.14559E-03   -0.15887E-03 10640   0.209E-03 0.112E-03
CGA:  19    -0.128327749686E+04    0.48914E-03   -0.27324E-03 10640   0.536E-02-0.635E-03
CGA:  20    -0.128327816829E+04   -0.67143E-03   -0.67763E-03 10640   0.102E-02 0.349E-04
CGA:  21    -0.128327840094E+04   -0.23265E-03   -0.21949E-03 10640   0.357E-03-0.624E-04
CGA:  22    -0.128327851977E+04   -0.11883E-03   -0.96305E-04 10640   0.368E-03-0.184E-03
CGA:  23    -0.128327853569E+04   -0.15925E-04   -0.39384E-04 10640   0.792E-04 0.801E-04
CGA:  24    -0.128327855590E+04   -0.20203E-04   -0.23055E-04 10640   0.768E-04 0.191E-04
CGA:  25    -0.128327863608E+04   -0.80184E-04    0.17308E-03 10640   0.163E-03-0.139E-04
CGA:  26    -0.128327875467E+04   -0.11859E-03    0.15422E-03 10640   0.481E-03-0.572E-04
CGA:  27    -0.128327902836E+04   -0.27369E-03    0.39264E-03 10640   0.925E-03-0.291E-03
CGA:  28    -0.128327923119E+04   -0.20283E-03   -0.17215E-03 10640   0.622E-03-0.156E-03
CGA:  29    -0.128327932412E+04   -0.92932E-04   -0.97802E-04 10640   0.954E-04 0.280E-04
CGA:  30    -0.128327933263E+04   -0.85128E-05   -0.13168E-04 10640   0.376E-04 0.206E-04
CGA:  31    -0.128327934781E+04   -0.15173E-04   -0.26229E-04 10640   0.237E-03-0.492E-04
CGA:  32    -0.128327936328E+04   -0.15476E-04   -0.23241E-04 10640   0.161E-04 0.302E-04
CGA:  33    -0.128327936642E+04   -0.31400E-05   -0.29381E-05 10640   0.709E-05-0.105E-05
  13 F= -.12832794E+04 E0= -.12832794E+04  d E =-.734335E+00  mag=    47.0000
       N       E                     dE             d eps       ncg     rms          ort
SDA:   1    -0.128244398868E+04    0.83537E+00    0.00000E+00 10640   0.233E+01 0.000E+00
CGA:   2    -0.128297413100E+04   -0.53014E+00   -0.53036E+00 10640   0.104E+01 0.215E-02
CGA:   3    -0.128321277252E+04   -0.23864E+00   -0.23855E+00 10640   0.239E+00-0.158E-02
CGA:   4    -0.128324779572E+04   -0.35023E-01   -0.35045E-01 10640   0.448E-01 0.818E-03
CGA:   5    -0.128325611434E+04   -0.83186E-02   -0.82830E-02 10640   0.132E-01-0.275E-03
CGA:   6    -0.128325841872E+04   -0.23044E-02   -0.23287E-02 10640   0.384E-02 0.204E-03
CGA:   7    -0.128325923730E+04   -0.81858E-03   -0.82041E-03 10640   0.114E-02 0.234E-04
CGA:   8    -0.128325943210E+04   -0.19480E-03   -0.20730E-03 10640   0.443E-03 0.106E-03
CGA:   9    -0.128325956902E+04   -0.13693E-03   -0.13621E-03 10640   0.291E-03-0.510E-04
CGA:  10    -0.128325960395E+04   -0.34924E-04   -0.42896E-04 10640   0.111E-03 0.628E-04
CGA:  11    -0.128325963246E+04   -0.28516E-04   -0.30556E-04 10640   0.509E-04 0.334E-04
CGA:  12    -0.128325965253E+04   -0.20068E-04   -0.20478E-04 10640   0.937E-04-0.169E-04
CGA:  13    -0.128325965353E+04   -0.99545E-06   -0.53868E-05 10640   0.727E-04 0.220E-04
  14 F= -.12832597E+04 E0= -.12832597E+04  d E =0.197129E-01  mag=    47.0000
       N       E                     dE             d eps       ncg     rms          ort
SDA:   1    -0.125547191258E+04    0.27788E+02    0.00000E+00 10640   0.831E+02 0.000E+00
CGA:   2    -0.127284961749E+04   -0.17378E+02   -0.17376E+02 10640   0.350E+02 0.542E-01
CGA:   3    -0.128113376544E+04   -0.82841E+01   -0.82881E+01 10640   0.957E+01 0.544E-01
CGA:   4    -0.128250459719E+04   -0.13708E+01   -0.13613E+01 10640   0.165E+01 0.630E-01
CGA:   5    -0.128280148530E+04   -0.29689E+00   -0.29659E+00 10640   0.488E+00-0.132E-02
CGA:   6    -0.128289159671E+04   -0.90111E-01   -0.90085E-01 10640   0.141E+00-0.617E-03
CGA:   7    -0.128292139309E+04   -0.29796E-01   -0.29762E-01 10640   0.446E-01-0.540E-03
CGA:   8    -0.128293015744E+04   -0.87644E-02   -0.86568E-02 10640   0.199E-01-0.205E-02
CGA:   9    -0.128293438708E+04   -0.42296E-02   -0.42301E-02 10640   0.821E-02 0.649E-04
CGA:  10    -0.128293686653E+04   -0.24795E-02   -0.25776E-02 10640   0.591E-02-0.138E-02
CGA:  11    -0.128293799353E+04   -0.11270E-02   -0.11044E-02 10640   0.319E-02-0.103E-02
CGA:  12    -0.128293872808E+04   -0.73455E-03   -0.77462E-03 10640   0.205E-02-0.813E-03
CGA:  13    -0.128293909002E+04   -0.36194E-03   -0.36042E-03 10640   0.128E-02-0.132E-03
CGA:  14    -0.128293943925E+04   -0.34923E-03   -0.34510E-03 10640   0.795E-03 0.101E-03
CGA:  15    -0.128293964317E+04   -0.20392E-03   -0.20666E-03 10640   0.499E-03 0.325E-03
CGA:  16    -0.128293980637E+04   -0.16320E-03   -0.16693E-03 10640   0.233E-03 0.325E-03
CGA:  17    -0.128293986118E+04   -0.54811E-04   -0.55753E-04 10640   0.170E-03 0.107E-03
CGA:  18    -0.128293987166E+04   -0.10479E-04   -0.32278E-04 10640   0.106E-03 0.185E-03
CGA:  19    -0.128293987576E+04   -0.40967E-05   -0.14183E-04 10640   0.908E-04 0.927E-04
CGA:  20    -0.128293988306E+04   -0.72989E-05   -0.14200E-04 10640   0.837E-04 0.860E-04
CGA:  21    -0.128293988628E+04   -0.32234E-05   -0.11211E-04 10640   0.791E-04 0.809E-04
CGA:  22    -0.128293989082E+04   -0.45397E-05   -0.11170E-04 10640   0.749E-04 0.767E-04
  15 F= -.12829399E+04 E0= -.12829399E+04  d E =0.319763E+00  mag=    47.0000
       N       E                     dE             d eps       ncg     rms          ort
SDA:   1    -0.122385775174E+04    0.59082E+02    0.00000E+00 10640   0.193E+03 0.000E+00
CGA:   2    -0.126051083331E+04   -0.36653E+02   -0.36627E+02 10640   0.719E+02 0.178E-01
CGA:   3    -0.127847239355E+04   -0.17962E+02   -0.17945E+02 10640   0.216E+02 0.299E+00
CGA:   4    -0.128168546835E+04   -0.32131E+01   -0.31919E+01 10640   0.352E+01 0.990E-01
CGA:   5    -0.128231279617E+04   -0.62733E+00   -0.62849E+00 10640   0.105E+01 0.204E-01
CGA:   6    -0.128250969767E+04   -0.19690E+00   -0.19686E+00 10640   0.310E+00 0.214E-02
CGA:   7    -0.128257748885E+04   -0.67791E-01   -0.67806E-01 10640   0.917E-01-0.181E-02
CGA:   8    -0.128259563861E+04   -0.18150E-01   -0.18137E-01 10640   0.437E-01-0.602E-03
CGA:   9    -0.128260516373E+04   -0.95251E-02   -0.95268E-02 10640   0.194E-01-0.854E-04
CGA:  10    -0.128260952527E+04   -0.43615E-02   -0.43272E-02 10640   0.753E-02 0.309E-02
CGA:  11    -0.128261182934E+04   -0.23041E-02   -0.22493E-02 10640   0.373E-02 0.126E-02
CGA:  12    -0.128261263405E+04   -0.80471E-03   -0.83634E-03 10640   0.170E-02 0.139E-02
CGA:  13    -0.128261318246E+04   -0.54841E-03   -0.53310E-03 10640   0.885E-03 0.109E-02
CGA:  14    -0.128261347919E+04   -0.29673E-03   -0.26374E-03 10640   0.707E-03 0.398E-03
CGA:  15    -0.128261354408E+04   -0.64892E-04   -0.13486E-03 10640   0.480E-03 0.807E-03
CGA:  16    -0.128261360585E+04   -0.61770E-04   -0.80522E-04 10640   0.391E-03 0.404E-03
CGA:  17    -0.128261367412E+04   -0.68271E-04   -0.75315E-04 10640   0.356E-03 0.366E-03
CGA:  18    -0.128261371094E+04   -0.36816E-04   -0.55536E-04 10640   0.332E-03 0.342E-03
CGA:  19    -0.128261375747E+04   -0.46535E-04   -0.57671E-04 10640   0.311E-03 0.320E-03
CGA:  20    -0.128261379061E+04   -0.33141E-04   -0.48381E-04 10640   0.293E-03 0.301E-03
CGA:  21    -0.128261382518E+04   -0.34565E-04   -0.46933E-04 10640   0.276E-03 0.284E-03
CGA:  22    -0.128261385457E+04   -0.29391E-04   -0.42342E-04 10640   0.261E-03 0.268E-03
CGA:  23    -0.128261388231E+04   -0.27744E-04   -0.39740E-04 10640   0.248E-03 0.254E-03
CGA:  24    -0.128261390789E+04   -0.25577E-04   -0.37038E-04 10640   0.235E-03 0.241E-03
CGA:  25    -0.128261393146E+04   -0.23573E-04   -0.34566E-04 10640   0.224E-03 0.230E-03
CGA:  26    -0.128261395370E+04   -0.22239E-04   -0.32563E-04 10640   0.214E-03 0.219E-03
CGA:  27    -0.128261397430E+04   -0.20601E-04   -0.30519E-04 10640   0.205E-03 0.209E-03
CGA:  28    -0.128261399380E+04   -0.19502E-04   -0.28849E-04 10640   0.196E-03 0.200E-03
CGA:  29    -0.128261401204E+04   -0.18235E-04   -0.27182E-04 10640   0.188E-03 0.192E-03
CGA:  30    -0.128261402930E+04   -0.17269E-04   -0.25747E-04 10640   0.181E-03 0.184E-03
CGA:  31    -0.128261404558E+04   -0.16276E-04   -0.24368E-04 10640   0.174E-03 0.177E-03
CGA:  32    -0.128261406103E+04   -0.15446E-04   -0.23134E-04 10640   0.167E-03 0.170E-03
CGA:  33    -0.128261407567E+04   -0.14647E-04   -0.21973E-04 10640   0.161E-03 0.164E-03
CGA:  34    -0.128261408962E+04   -0.13947E-04   -0.20912E-04 10640   0.155E-03 0.158E-03
CGA:  35    -0.128261410292E+04   -0.13298E-04   -0.19923E-04 10640   0.150E-03 0.153E-03
CGA:  36    -0.128261411563E+04   -0.12713E-04   -0.19009E-04 10640   0.145E-03 0.147E-03
CGA:  37    -0.128261412781E+04   -0.12176E-04   -0.18158E-04 10640   0.140E-03 0.142E-03
CGA:  38    -0.128261413950E+04   -0.11691E-04   -0.17368E-04 10640   0.136E-03 0.138E-03
CGA:  39    -0.128261415075E+04   -0.11248E-04   -0.16632E-04 10640   0.131E-03 0.133E-03
CGA:  40    -0.128261416159E+04   -0.10845E-04   -0.15947E-04 10640   0.127E-03 0.129E-03
CGA:  41    -0.128261417207E+04   -0.10475E-04   -0.15306E-04 10640   0.123E-03 0.125E-03
CGA:  42    -0.128261418221E+04   -0.10136E-04   -0.14707E-04 10640   0.119E-03 0.121E-03
CGA:  43    -0.128261419203E+04   -0.98248E-05   -0.14147E-04 10640   0.116E-03 0.118E-03
CGA:  44    -0.128261420157E+04   -0.95378E-05   -0.13621E-04 10640   0.112E-03 0.114E-03
CGA:  45    -0.128261421084E+04   -0.92714E-05   -0.13127E-04 10640   0.109E-03 0.111E-03
CGA:  46    -0.128261421986E+04   -0.90252E-05   -0.12662E-04 10640   0.106E-03 0.107E-03
CGA:  47    -0.128261422866E+04   -0.87958E-05   -0.12225E-04 10640   0.103E-03 0.104E-03
CGA:  48    -0.128261423724E+04   -0.85817E-05   -0.11812E-04 10640   0.100E-03 0.101E-03
CGA:  49    -0.128261424562E+04   -0.83795E-05   -0.11421E-04 10640   0.973E-04 0.986E-04
CGA:  50    -0.128261425381E+04   -0.81903E-05   -0.11053E-04 10640   0.946E-04 0.959E-04
CGA:  51    -0.128261426182E+04   -0.80125E-05   -0.10703E-04 10640   0.920E-04 0.933E-04
CGA:  52    -0.128261426967E+04   -0.78432E-05   -0.10372E-04 10640   0.896E-04 0.908E-04
CGA:  53    -0.128261427735E+04   -0.76842E-05   -0.10058E-04 10640   0.872E-04 0.884E-04
  16 F= -.12826143E+04 E0= -.12826136E+04  d E =0.325613E+00  mag=    47.0000
       N       E                     dE             d eps       ncg     rms          ort
SDA:   1    -0.126472147619E+04    0.17893E+02    0.00000E+00 10640   0.587E+02 0.000E+00
CGA:   2    -0.127631255643E+04   -0.11591E+02   -0.11591E+02 10640   0.227E+02 0.412E-01
CGA:   3    -0.128197545834E+04   -0.56629E+01   -0.56579E+01 10640   0.637E+01 0.284E-01
CGA:   4    -0.128292120222E+04   -0.94574E+00   -0.94577E+00 10640   0.100E+01 0.203E-02
CGA:   5    -0.128310640186E+04   -0.18520E+00   -0.18543E+00 10640   0.312E+00-0.479E-02
CGA:   6    -0.128316191228E+04   -0.55510E-01   -0.55533E-01 10640   0.931E-01-0.537E-03
CGA:   7    -0.128318149643E+04   -0.19584E-01   -0.19576E-01 10640   0.238E-01 0.277E-03
CGA:   8    -0.128318708058E+04   -0.55841E-02   -0.58739E-02 10640   0.142E-01-0.305E-02
CGA:   9    -0.128318948404E+04   -0.24035E-02   -0.24201E-02 10640   0.574E-02-0.394E-03
CGA:  10    -0.128319047258E+04   -0.98854E-03   -0.27847E-02 10640   0.134E-01-0.526E-02
CGA:  11    -0.128319210497E+04   -0.16324E-02   -0.16210E-02 10640   0.272E-02-0.178E-03
CGA:  12    -0.128319269099E+04   -0.58601E-03   -0.63788E-03 10640   0.134E-02-0.793E-03
CGA:  13    -0.128319287106E+04   -0.18008E-03   -0.41837E-03 10640   0.286E-02-0.900E-03
CGA:  14    -0.128319326084E+04   -0.38978E-03   -0.35667E-03 10640   0.708E-03-0.506E-03
CGA:  15    -0.128319341278E+04   -0.15194E-03   -0.16830E-03 10640   0.406E-03-0.157E-03
CGA:  16    -0.128319202181E+04    0.13910E-02   -0.74840E-03 10640   0.188E-01-0.174E-02
CGA:  17    -0.128319377600E+04   -0.17542E-02   -0.17815E-02 10640   0.944E-03 0.130E-03
CGA:  18    -0.128319396648E+04   -0.19048E-03   -0.18791E-03 10640   0.374E-03-0.162E-04
CGA:  19    -0.128319403664E+04   -0.70155E-04   -0.76037E-04 10640   0.517E-04 0.487E-04
CGA:  20    -0.128319345759E+04    0.57905E-03   -0.31318E-03 10640   0.570E-02-0.393E-03
CGA:  21    -0.128319404100E+04   -0.58341E-03   -0.69164E-03 10640   0.262E-03 0.268E-03
CGA:  22    -0.128319411223E+04   -0.71230E-04   -0.60483E-04 10640   0.184E-03-0.307E-04
CGA:  23    -0.128319414779E+04   -0.35552E-04   -0.36167E-04 10640   0.530E-04 0.225E-05
CGA:  24    -0.128319414432E+04    0.34644E-05   -0.53302E-05 10640   0.173E-04 0.204E-04
  17 F= -.12831941E+04 E0= -.12831941E+04  d E =-.579867E+00  mag=    47.0000
       N       E                     dE             d eps       ncg     rms          ort
SDA:   1    -0.126689745223E+04    0.16297E+02    0.00000E+00 10640   0.471E+02 0.000E+00
CGA:   2    -0.127709116928E+04   -0.10194E+02   -0.10188E+02 10640   0.204E+02 0.119E+00
CGA:   3    -0.128188926306E+04   -0.47981E+01   -0.48066E+01 10640   0.519E+01-0.909E-02
CGA:   4    -0.128263811465E+04   -0.74885E+00   -0.73594E+00 10640   0.874E+00 0.106E+00
CGA:   5    -0.128280315692E+04   -0.16504E+00   -0.16473E+00 10640   0.268E+00-0.191E-02
CGA:   6    -0.128285170263E+04   -0.48546E-01   -0.48658E-01 10640   0.766E-01 0.101E-02
CGA:   7    -0.128286858767E+04   -0.16885E-01   -0.16793E-01 10640   0.219E-01-0.319E-03
CGA:   8    -0.128287327286E+04   -0.46852E-02   -0.46002E-02 10640   0.997E-02-0.426E-03
CGA:   9    -0.128287541219E+04   -0.21393E-02   -0.21656E-02 10640   0.440E-02 0.172E-03
CGA:  10    -0.128287665595E+04   -0.12438E-02   -0.12208E-02 10640   0.246E-02-0.181E-03
CGA:  11    -0.128287729555E+04   -0.63960E-03   -0.58952E-03 10640   0.167E-02-0.359E-03
CGA:  12    -0.128287755597E+04   -0.26042E-03   -0.27266E-03 10640   0.606E-03 0.687E-04
CGA:  13    -0.128287772416E+04   -0.16820E-03   -0.18051E-03 10640   0.394E-03 0.144E-03
CGA:  14    -0.128287785478E+04   -0.13062E-03   -0.13721E-03 10640   0.438E-03 0.764E-04
CGA:  15    -0.128287790307E+04   -0.48290E-04   -0.95927E-04 10640   0.257E-03 0.265E-03
CGA:  16    -0.128287795822E+04   -0.55152E-04   -0.64606E-04 10640   0.158E-03 0.917E-04
CGA:  17    -0.128287799440E+04   -0.36175E-04   -0.48092E-04 10640   0.108E-03 0.954E-04
CGA:  18    -0.128287799608E+04   -0.16791E-05   -0.15547E-04 10640   0.834E-04 0.697E-04
CGA:  19    -0.128287800638E+04   -0.10304E-04   -0.17505E-04 10640   0.859E-04 0.585E-04
CGA:  20    -0.128287800769E+04   -0.13058E-05   -0.11711E-04 10640   0.724E-04 0.546E-04
CGA:  21    -0.128287801740E+04   -0.97093E-05   -0.15238E-04 10640   0.788E-04 0.517E-04
CGA:  22    -0.128287801849E+04   -0.10915E-05   -0.10267E-04 10640   0.651E-04 0.505E-04
CGA:  23    -0.128287802736E+04   -0.88660E-05   -0.13559E-04 10640   0.692E-04 0.496E-04
  18 F= -.12828780E+04 E0= -.12828780E+04  d E =0.316117E+00  mag=    47.0000
       N       E                     dE             d eps       ncg     rms          ort
SDA:   1    -0.123123647009E+04    0.51642E+02    0.00000E+00 10640   0.161E+03 0.000E+00
CGA:   2    -0.126350781911E+04   -0.32271E+02   -0.32178E+02 10640   0.645E+02 0.423E+00
CGA:   3    -0.127920989569E+04   -0.15702E+02   -0.15719E+02 10640   0.184E+02 0.176E+00
CGA:   4    -0.128188344372E+04   -0.26735E+01   -0.26269E+01 10640   0.307E+01 0.293E+00
CGA:   5    -0.128243013729E+04   -0.54669E+00   -0.54888E+00 10640   0.944E+00 0.951E-02
CGA:   6    -0.128260561447E+04   -0.17548E+00   -0.17534E+00 10640   0.266E+00 0.160E-02
CGA:   7    -0.128266540442E+04   -0.59790E-01   -0.59686E-01 10640   0.780E-01-0.189E-02
CGA:   8    -0.128268124165E+04   -0.15837E-01   -0.15749E-01 10640   0.375E-01-0.122E-02
CGA:   9    -0.128268925700E+04   -0.80154E-02   -0.79919E-02 10640   0.170E-01-0.433E-03
CGA:  10    -0.128269294226E+04   -0.36853E-02   -0.37554E-02 10640   0.667E-02 0.206E-02
CGA:  11    -0.128269498773E+04   -0.20455E-02   -0.20413E-02 10640   0.382E-02 0.298E-03
CGA:  12    -0.128269558286E+04   -0.59513E-03   -0.67967E-03 10640   0.156E-02 0.985E-03
CGA:  13    -0.128269605003E+04   -0.46718E-03   -0.47583E-03 10640   0.854E-03 0.723E-03
CGA:  14    -0.128269639190E+04   -0.34186E-03   -0.33530E-03 10640   0.821E-03 0.432E-03
CGA:  15    -0.128269640173E+04   -0.98300E-05   -0.79273E-04 10640   0.419E-03 0.444E-03
CGA:  16    -0.128269646425E+04   -0.62528E-04   -0.80686E-04 10640   0.322E-03 0.340E-03
CGA:  17    -0.128269649403E+04   -0.29780E-04   -0.52669E-04 10640   0.289E-03 0.287E-03
CGA:  18    -0.128269653290E+04   -0.38868E-04   -0.53184E-04 10640   0.268E-03 0.258E-03
CGA:  19    -0.128269655087E+04   -0.17964E-04   -0.39397E-04 10640   0.248E-03 0.240E-03
CGA:  20    -0.128269658065E+04   -0.29780E-04   -0.42997E-04 10640   0.233E-03 0.226E-03
CGA:  21    -0.128269659468E+04   -0.14034E-04   -0.32898E-04 10640   0.218E-03 0.214E-03
CGA:  22    -0.128269661788E+04   -0.23204E-04   -0.35690E-04 10640   0.206E-03 0.204E-03
CGA:  23    -0.128269663063E+04   -0.12752E-04   -0.28776E-04 10640   0.195E-03 0.195E-03
CGA:  24    -0.128269664888E+04   -0.18248E-04   -0.30092E-04 10640   0.185E-03 0.187E-03
CGA:  25    -0.128269666095E+04   -0.12067E-04   -0.25670E-04 10640   0.177E-03 0.179E-03
CGA:  26    -0.128269667559E+04   -0.14638E-04   -0.25791E-04 10640   0.169E-03 0.172E-03
CGA:  27    -0.128269668692E+04   -0.11331E-04   -0.23059E-04 10640   0.162E-03 0.165E-03
CGA:  28    -0.128269669904E+04   -0.12120E-04   -0.22485E-04 10640   0.156E-03 0.159E-03
CGA:  29    -0.128269670947E+04   -0.10434E-04   -0.20746E-04 10640   0.150E-03 0.153E-03
CGA:  30    -0.128269671986E+04   -0.10383E-04   -0.19899E-04 10640   0.145E-03 0.147E-03
CGA:  31    -0.128269672933E+04   -0.94724E-05   -0.18685E-04 10640   0.140E-03 0.142E-03
CGA:  32    -0.128269673846E+04   -0.91294E-05   -0.17810E-04 10640   0.135E-03 0.137E-03
CGA:  33    -0.128269674701E+04   -0.85547E-05   -0.16869E-04 10640   0.131E-03 0.133E-03
CGA:  34    -0.128269675518E+04   -0.81628E-05   -0.16065E-04 10640   0.126E-03 0.128E-03
CGA:  35    -0.128269676291E+04   -0.77366E-05   -0.15285E-04 10640   0.123E-03 0.125E-03
CGA:  36    -0.128269677029E+04   -0.73765E-05   -0.14574E-04 10640   0.119E-03 0.121E-03
CGA:  37    -0.128269677732E+04   -0.70294E-05   -0.13905E-04 10640   0.116E-03 0.117E-03
CGA:  38    -0.128269678403E+04   -0.67163E-05   -0.13283E-04 10640   0.112E-03 0.114E-03
CGA:  39    -0.128269679046E+04   -0.64236E-05   -0.12700E-04 10640   0.109E-03 0.111E-03
CGA:  40    -0.128269679661E+04   -0.61537E-05   -0.12154E-04 10640   0.106E-03 0.108E-03
CGA:  41    -0.128269680251E+04   -0.59019E-05   -0.11642E-04 10640   0.104E-03 0.105E-03
CGA:  42    -0.128269680818E+04   -0.56691E-05   -0.11161E-04 10640   0.101E-03 0.102E-03
CGA:  43    -0.128269681363E+04   -0.54511E-05   -0.10709E-04 10640   0.986E-04 0.998E-04
CGA:  44    -0.128269681888E+04   -0.52490E-05   -0.10283E-04 10640   0.962E-04 0.974E-04
  19 F= -.12826968E+04 E0= -.12826964E+04  d E =0.181208E+00  mag=    47.0000
       N       E                     dE             d eps       ncg     rms          ort
SDA:   1    -0.126072328829E+04    0.21974E+02    0.00000E+00 10640   0.698E+02 0.000E+00
CGA:   2    -0.127471367322E+04   -0.13990E+02   -0.13990E+02 10640   0.276E+02 0.407E-01
CGA:   3    -0.128152747951E+04   -0.68138E+01   -0.68065E+01 10640   0.768E+01 0.506E-01
CGA:   4    -0.128265349876E+04   -0.11260E+01   -0.11258E+01 10640   0.128E+01 0.293E-02
CGA:   5    -0.128287858364E+04   -0.22508E+00   -0.22522E+00 10640   0.411E+00-0.628E-02
CGA:   6    -0.128295016606E+04   -0.71582E-01   -0.71586E-01 10640   0.117E+00-0.111E-03
CGA:   7    -0.128297523839E+04   -0.25072E-01   -0.25057E-01 10640   0.316E-01 0.456E-03
CGA:   8    -0.128298220301E+04   -0.69646E-02   -0.71459E-02 10640   0.168E-01-0.283E-02
CGA:   9    -0.128298530545E+04   -0.31024E-02   -0.31070E-02 10640   0.675E-02-0.789E-04
CGA:  10    -0.128298724838E+04   -0.19429E-02   -0.24681E-02 10640   0.711E-02-0.261E-02
CGA:  11    -0.128298804160E+04   -0.79322E-03   -0.11674E-02 10640   0.708E-02-0.412E-02
CGA:  12    -0.128298881131E+04   -0.76971E-03   -0.82211E-03 10640   0.198E-02 0.823E-03
CGA:  13    -0.128298942859E+04   -0.61728E-03   -0.63394E-03 10640   0.740E-03-0.152E-03
CGA:  14    -0.128298969442E+04   -0.26583E-03    0.10700E-02 10640   0.417E-03 0.292E-03
CGA:  15    -0.128298990051E+04   -0.20609E-03   -0.22027E-03 10640   0.481E-03-0.726E-04
CGA:  16    -0.128298871104E+04    0.11895E-02   -0.64210E-03 10640   0.112E-01-0.159E-02
CGA:  17    -0.128298987760E+04   -0.11666E-02   -0.11906E-02 10640   0.202E-02 0.689E-04
CGA:  18    -0.128299048093E+04   -0.60333E-03   -0.60986E-03 10640   0.549E-03 0.163E-03
CGA:  19    -0.128299055226E+04   -0.71335E-04   -0.10452E-03 10640   0.263E-03 0.205E-03
CGA:  20    -0.128299065497E+04   -0.10271E-03   -0.10693E-03 10640   0.150E-03 0.120E-03
CGA:  21    -0.128299067224E+04   -0.17271E-04   -0.32822E-04 10640   0.545E-04 0.871E-04
CGA:  22    -0.128299066740E+04    0.48351E-05   -0.49571E-05 10640   0.385E-04 0.428E-04
  20 F= -.12829907E+04 E0= -.12829907E+04  d E =-.293849E+00  mag=    47.0000
       N       E                     dE             d eps       ncg     rms          ort
SDA:   1    -0.126100613354E+04    0.21985E+02    0.00000E+00 10640   0.610E+02 0.000E+00
CGA:   2    -0.127486301497E+04   -0.13857E+02   -0.13859E+02 10640   0.274E+02 0.350E-01
CGA:   3    -0.128116726347E+04   -0.63042E+01   -0.63074E+01 10640   0.624E+01-0.888E-03
CGA:   4    -0.128208405256E+04   -0.91679E+00   -0.91040E+00 10640   0.122E+01 0.494E-01
CGA:   5    -0.128229652361E+04   -0.21247E+00   -0.21242E+00 10640   0.389E+00-0.474E-02
CGA:   6    -0.128236264546E+04   -0.66122E-01   -0.66221E-01 10640   0.108E+00 0.230E-02
CGA:   7    -0.128238676914E+04   -0.24124E-01   -0.24076E-01 10640   0.323E-01-0.817E-03
CGA:   8    -0.128239327017E+04   -0.65010E-02   -0.64464E-02 10640   0.149E-01-0.753E-03
CGA:   9    -0.128239633014E+04   -0.30600E-02   -0.30798E-02 10640   0.638E-02 0.380E-03
CGA:  10    -0.128239794238E+04   -0.16122E-02   -0.16161E-02 10640   0.332E-02 0.224E-03
CGA:  11    -0.128239890548E+04   -0.96310E-03   -0.99071E-03 10640   0.357E-02-0.111E-02
CGA:  12    -0.128239915450E+04   -0.24902E-03   -0.30141E-03 10640   0.128E-02 0.385E-03
CGA:  13    -0.128239922981E+04   -0.75308E-04   -0.14592E-03 10640   0.833E-03 0.457E-03
CGA:  14    -0.128239937159E+04   -0.14178E-03   -0.17893E-03 10640   0.607E-03 0.403E-03
CGA:  15    -0.128239951669E+04   -0.14510E-03   -0.15068E-03 10640   0.578E-03 0.703E-04
CGA:  16    -0.128239956567E+04   -0.48981E-04   -0.86593E-04 10640   0.585E-03 0.348E-03
CGA:  17    -0.128239958856E+04   -0.22890E-04   -0.60107E-04 10640   0.259E-03 0.279E-03
CGA:  18    -0.128239962459E+04   -0.36037E-04   -0.54961E-04 10640   0.212E-03 0.219E-03
CGA:  19    -0.128239867948E+04    0.94511E-03   -0.50968E-03 10640   0.166E-01-0.101E-02
CGA:  20    -0.128239974314E+04   -0.10637E-02   -0.13645E-02 10640   0.327E-03 0.124E-02
CGA:  21    -0.128239972765E+04    0.15490E-04   -0.28701E-04 10640   0.119E-03 0.142E-03
CGA:  22    -0.128239972021E+04    0.74385E-05   -0.18369E-04 10640   0.125E-03 0.951E-04
CGA:  23    -0.128239836769E+04    0.13525E-02   -0.73264E-03 10640   0.191E-01-0.827E-03
CGA:  24    -0.128239978290E+04   -0.14152E-02   -0.17931E-02 10640   0.297E-03 0.135E-02
CGA:  25    -0.128239979546E+04   -0.12562E-04   -0.46488E-04 10640   0.156E-03 0.696E-04
CGA:  26    -0.128239986032E+04   -0.64857E-04   -0.66832E-04 10640   0.967E-04 0.701E-05
CGA:  27    -0.128239986603E+04   -0.57143E-05   -0.17964E-04 10640   0.832E-04 0.289E-04
CGA:  28    -0.128239987242E+04   -0.63901E-05   -0.29893E-04 10640   0.118E-03 0.767E-04
CGA:  29    -0.128239989977E+04   -0.27347E-04   -0.24690E-04 10640   0.856E-04-0.724E-05
CGA:  30    -0.128239990580E+04   -0.60319E-05   -0.20682E-04 10640   0.504E-04 0.504E-04
CGA:  31    -0.128239991386E+04   -0.80547E-05   -0.11315E-04 10640   0.444E-04 0.106E-04
CGA:  32    -0.128239992828E+04   -0.14421E-04   -0.20761E-04 10640   0.426E-04 0.480E-04
CGA:  33    -0.128239993210E+04   -0.38217E-05   -0.84174E-05 10640   0.302E-04 0.147E-04
CGA:  34    -0.128239993815E+04   -0.60537E-05   -0.12777E-04 10640   0.363E-04 0.370E-04
  21 F= -.12823999E+04 E0= -.12823999E+04  d E =0.590729E+00  mag=    47.0000
       N       E                     dE             d eps       ncg     rms          ort
SDA:   1    -0.123753497002E+04    0.44865E+02    0.00000E+00 10640   0.145E+03 0.000E+00
CGA:   2    -0.126570902378E+04   -0.28174E+02   -0.27226E+02 10640   0.512E+02 0.609E+01
CGA:   3    -0.127950572380E+04   -0.13797E+02   -0.13849E+02 10640   0.162E+02 0.842E-01
CGA:   4    -0.128185083126E+04   -0.23451E+01   -0.22387E+01 10640   0.254E+01 0.816E+00
CGA:   5    -0.128232380712E+04   -0.47298E+00   -0.47626E+00 10640   0.853E+00 0.907E-04
CGA:   6    -0.128247622093E+04   -0.15241E+00   -0.15198E+00 10640   0.248E+00 0.153E-02
CGA:   7    -0.128253028815E+04   -0.54067E-01   -0.54039E-01 10640   0.735E-01 0.674E-03
CGA:   8    -0.128254528090E+04   -0.14993E-01   -0.14625E-01 10640   0.345E-01-0.168E-02
CGA:   9    -0.128255209183E+04   -0.68109E-02   -0.68820E-02 10640   0.160E-01 0.500E-03
CGA:  10    -0.128255576878E+04   -0.36769E-02   -0.37939E-02 10640   0.712E-02 0.879E-03
CGA:  11    -0.128255754953E+04   -0.17808E-02   -0.18285E-02 10640   0.394E-02 0.398E-03
CGA:  12    -0.128255837073E+04   -0.82120E-03   -0.88320E-03 10640   0.198E-02 0.432E-03
CGA:  13    -0.128255887059E+04   -0.49985E-03   -0.54930E-03 10640   0.117E-02 0.470E-03
CGA:  14    -0.128255935721E+04   -0.48663E-03   -0.48975E-03 10640   0.108E-02 0.243E-03
CGA:  15    -0.128255945698E+04   -0.99767E-04   -0.22518E-03 10640   0.631E-03 0.715E-03
CGA:  16    -0.128255968451E+04   -0.22753E-03   -0.22491E-03 10640   0.431E-03 0.193E-03
CGA:  17    -0.128255970645E+04   -0.21942E-04   -0.84891E-04 10640   0.273E-03 0.329E-03
CGA:  18    -0.128255984097E+04   -0.13452E-03   -0.12568E-03 10640   0.595E-03 0.703E-04
CGA:  19    -0.128255990664E+04   -0.65673E-04   -0.13131E-03 10640   0.268E-03 0.401E-03
CGA:  20    -0.128255996010E+04   -0.53458E-04   -0.65780E-04 10640   0.163E-03 0.143E-03
CGA:  21    -0.128255998800E+04   -0.27903E-04   -0.37636E-04 10640   0.189E-03 0.102E-03
CGA:  22    -0.128256001640E+04   -0.28395E-04   -0.35965E-04 10640   0.215E-03 0.576E-04
CGA:  23    -0.128256008564E+04   -0.69242E-04   -0.78572E-04 10640   0.159E-03 0.256E-03
CGA:  24    -0.128256011231E+04   -0.26674E-04   -0.32072E-04 10640   0.185E-03 0.483E-04
CGA:  25    -0.128256020336E+04   -0.91045E-04   -0.83285E-04 10640   0.143E-03 0.207E-03
CGA:  26    -0.128256020659E+04   -0.32296E-05   -0.18287E-04 10640   0.915E-04 0.826E-04
CGA:  27    -0.128256025735E+04   -0.50758E-04   -0.40337E-04 10640   0.122E-03 0.745E-04
CGA:  28    -0.128256025934E+04   -0.19925E-05   -0.14584E-04 10640   0.850E-04 0.667E-04
CGA:  29    -0.128256028697E+04   -0.27636E-04   -0.26678E-04 10640   0.112E-03 0.638E-04
CGA:  30    -0.128256029922E+04   -0.12246E-04   -0.18041E-04 10640   0.102E-03 0.422E-04
CGA:  31    -0.128256033026E+04   -0.31041E-04   -0.35910E-04 10640   0.101E-03 0.133E-03
CGA:  32    -0.128256035256E+04   -0.22303E-04   -0.22950E-04 10640   0.155E-03 0.105E-04
CGA:  33    -0.128256043207E+04   -0.79509E-04   -0.65209E-04 10640   0.107E-03 0.153E-03
CGA:  34    -0.128256042684E+04    0.52287E-05   -0.81051E-05 10640   0.547E-04 0.617E-04
  22 F= -.12825604E+04 E0= -.12825601E+04  d E =-.160489E+00  mag=    47.0000
       N       E                     dE             d eps       ncg     rms          ort
SDA:   1    -0.127471654931E+04    0.78439E+01    0.00000E+00 10640   0.253E+02 0.000E+00
CGA:   2    -0.127978184416E+04   -0.50653E+01   -0.50664E+01 10640   0.984E+01 0.185E-01
CGA:   3    -0.128224481428E+04   -0.24630E+01   -0.24629E+01 10640   0.264E+01-0.121E-01
CGA:   4    -0.128264184724E+04   -0.39703E+00   -0.39657E+00 10640   0.437E+00 0.247E-02
CGA:   5    -0.128272014829E+04   -0.78301E-01   -0.77941E-01 10640   0.154E+00-0.380E-02
CGA:   6    -0.128274431737E+04   -0.24169E-01   -0.24216E-01 10640   0.444E-01 0.572E-03
CGA:   7    -0.128275371847E+04   -0.94011E-02   -0.94148E-02 10640   0.115E-01 0.378E-03
CGA:   8    -0.128275627395E+04   -0.25555E-02   -0.25328E-02 10640   0.589E-02-0.655E-03
CGA:   9    -0.128275737145E+04   -0.10975E-02   -0.10956E-02 10640   0.257E-02-0.208E-04
CGA:  10    -0.128275815339E+04   -0.78194E-03   -0.86342E-03 10640   0.270E-02-0.915E-03
CGA:  11    -0.128275852658E+04   -0.37320E-03   -0.58419E-03 10640   0.510E-02-0.253E-02
CGA:  12    -0.128275890964E+04   -0.38305E-03   -0.48250E-03 10640   0.933E-03 0.638E-03
CGA:  13    -0.128275914833E+04   -0.23869E-03   -0.24229E-03 10640   0.420E-03 0.201E-03
CGA:  14    -0.128275899600E+04    0.15233E-03   -0.31752E-03 10640   0.648E-02-0.125E-02
CGA:  15    -0.128275938008E+04   -0.38408E-03   -0.52008E-03 10640   0.407E-03 0.788E-03
CGA:  16    -0.128275941609E+04   -0.36014E-04   -0.57837E-04 10640   0.233E-03 0.168E-03
CGA:  17    -0.128275946635E+04   -0.50259E-04   -0.17336E-03 10640   0.866E-03-0.444E-03
CGA:  18    -0.128275956197E+04   -0.95617E-04   -0.10799E-03 10640   0.306E-03 0.900E-04
CGA:  19    -0.128275963469E+04   -0.72719E-04   -0.74481E-04 10640   0.492E-04 0.472E-04
CGA:  20    -0.128275963942E+04   -0.47274E-05   -0.83396E-05 10640   0.364E-04 0.332E-04
CGA:  21    -0.128275966013E+04   -0.20712E-04    0.33052E-04 10640   0.409E-04 0.215E-04
CGA:  22    -0.128275966747E+04   -0.73468E-05   -0.78813E-05 10640   0.485E-04 0.931E-05
CGA:  23    -0.128275971913E+04   -0.51651E-04   -0.35000E-04 10640   0.353E-04 0.485E-04
CGA:  24    -0.128275975408E+04   -0.34959E-04    0.53329E-05 10640   0.594E-04-0.296E-05
CGA:  25    -0.128275978093E+04   -0.26841E-04   -0.21304E-04 10640   0.623E-04 0.432E-04
CGA:  26    -0.128275977536E+04    0.55648E-05   -0.32481E-05 10640   0.292E-04 0.404E-04
  23 F= -.12827598E+04 E0= -.12827598E+04  d E =-.199349E+00  mag=    47.0000
       N       E                     dE             d eps       ncg     rms          ort
SDA:   1    -0.127828986918E+04    0.44699E+01    0.00000E+00 10640   0.120E+02 0.000E+00
CGA:   2    -0.128135118422E+04   -0.30613E+01   -0.30612E+01 10640   0.549E+01 0.744E-02
CGA:   3    -0.128255381982E+04   -0.12026E+01   -0.12026E+01 10640   0.101E+01-0.253E-02
CGA:   4    -0.128272343431E+04   -0.16961E+00   -0.16945E+00 10640   0.209E+00-0.113E-02
CGA:   5    -0.128276363846E+04   -0.40204E-01   -0.40148E-01 10640   0.554E-01-0.107E-02
CGA:   6    -0.128277378464E+04   -0.10146E-01   -0.10166E-01 10640   0.215E-01 0.482E-03
CGA:   7    -0.128277797413E+04   -0.41895E-02   -0.41378E-02 10640   0.699E-02-0.105E-02
CGA:   8    -0.128277921079E+04   -0.12367E-02   -0.12486E-02 10640   0.279E-02 0.259E-03
CGA:   9    -0.128278005129E+04   -0.84050E-03   -0.87673E-03 10640   0.205E-02-0.521E-03
CGA:  10    -0.128278045350E+04   -0.40221E-03   -0.40383E-03 10640   0.129E-02-0.331E-03
CGA:  11    -0.128278074656E+04   -0.29307E-03   -0.34156E-03 10640   0.152E-02-0.621E-03
CGA:  12    -0.128278085283E+04   -0.10626E-03   -0.99832E-04 10640   0.667E-03-0.545E-04
CGA:  13    -0.128278093386E+04   -0.81035E-04   -0.92111E-04 10640   0.634E-03 0.120E-03
CGA:  14    -0.128278106262E+04   -0.12876E-03   -0.13532E-03 10640   0.352E-03 0.129E-03
CGA:  15    -0.128278114446E+04   -0.81846E-04   -0.84367E-04 10640   0.464E-03 0.851E-04
CGA:  16    -0.128278123018E+04   -0.85719E-04   -0.97867E-04 10640   0.260E-03 0.211E-03
CGA:  17    -0.128278127021E+04   -0.40027E-04   -0.51910E-04 10640   0.208E-03 0.136E-03
CGA:  18    -0.128278130994E+04   -0.39733E-04   -0.39617E-04 10640   0.196E-03-0.381E-05
CGA:  19    -0.128278132532E+04   -0.15380E-04   -0.24884E-04 10640   0.789E-04 0.106E-03
CGA:  20    -0.128278132669E+04   -0.13658E-05   -0.68448E-05 10640   0.439E-04 0.430E-04
  24 F= -.12827813E+04 E0= -.12827813E+04  d E =-.215513E-01  mag=    47.0000
       N       E                     dE             d eps       ncg     rms          ort
SDA:   1    -0.128132569822E+04    0.14556E+01    0.00000E+00 10640   0.446E+01 0.000E+00
CGA:   2    -0.128235856451E+04   -0.10329E+01   -0.10329E+01 10640   0.195E+01-0.177E-02
CGA:   3    -0.128279095513E+04   -0.43239E+00   -0.43239E+00 10640   0.494E+00-0.642E-04
CGA:   4    -0.128286320919E+04   -0.72254E-01   -0.71994E-01 10640   0.120E+00-0.463E-02
CGA:   5    -0.128288132990E+04   -0.18121E-01   -0.18212E-01 10640   0.313E-01 0.198E-02
CGA:   6    -0.128288727561E+04   -0.59457E-02   -0.59400E-02 10640   0.907E-02-0.354E-03
CGA:   7    -0.128288937930E+04   -0.21037E-02   -0.21132E-02 10640   0.335E-02-0.273E-03
CGA:   8    -0.128288999805E+04   -0.61875E-03   -0.61615E-03 10640   0.172E-02-0.187E-03
CGA:   9    -0.128289040964E+04   -0.41159E-03   -0.43024E-03 10640   0.130E-02-0.296E-03
CGA:  10    -0.128289067829E+04   -0.26865E-03   -0.41776E-03 10640   0.255E-02-0.820E-03
CGA:  11    -0.128289088592E+04   -0.20763E-03   -0.24062E-03 10640   0.476E-03 0.282E-03
CGA:  12    -0.128289104685E+04   -0.16093E-03   -0.15964E-03 10640   0.355E-03 0.136E-04
CGA:  13    -0.128289113200E+04   -0.85150E-04   -0.14226E-03 10640   0.128E-02-0.323E-03
CGA:  14    -0.128289122157E+04   -0.89573E-04   -0.11738E-03 10640   0.209E-03 0.217E-03
[...]
CGA:   3    -0.128325077485E+04   -0.91306E+00   -0.91290E+00 10640   0.651E+00-0.482E-02
CGA:   4    -0.128336311484E+04   -0.11234E+00   -0.11251E+00 10640   0.138E+00 0.170E-02
CGA:   5    -0.128339120040E+04   -0.28086E-01   -0.27968E-01 10640   0.341E-01-0.174E-02
CGA:   6    -0.128339807105E+04   -0.68706E-02   -0.68793E-02 10640   0.117E-01 0.177E-03
CGA:   7    -0.128340066704E+04   -0.25960E-02   -0.25224E-02 10640   0.426E-02-0.145E-02
CGA:   8    -0.128340151467E+04   -0.84763E-03   -0.84477E-03 10640   0.170E-02-0.714E-04
CGA:   9    -0.128340201672E+04   -0.50205E-03   -0.79700E-03 10640   0.384E-02-0.136E-02
CGA:  10    -0.128340239035E+04   -0.37363E-03   -0.40880E-03 10640   0.572E-03 0.228E-03
CGA:  11    -0.128340257665E+04   -0.18630E-03   -0.21605E-03 10640   0.485E-03-0.319E-03
CGA:  12    -0.128340268903E+04   -0.11238E-03   -0.10548E-03 10640   0.305E-03-0.136E-03
CGA:  13    -0.128340273499E+04   -0.45958E-04   -0.40003E-04 10640   0.150E-03-0.711E-04
CGA:  14    -0.128340282117E+04   -0.86183E-04    0.34874E-04 10640   0.804E-04 0.611E-04
CGA:  15    -0.128340291399E+04   -0.92820E-04    0.25937E-04 10640   0.134E-03-0.880E-05
CGA:  16    -0.128340304811E+04   -0.13412E-03    0.13600E-04 10640   0.161E-03 0.996E-05
CGA:  17    -0.128340316594E+04   -0.11783E-03    0.74005E-04 10640   0.342E-03-0.408E-04
CGA:  18    -0.128340340867E+04   -0.24273E-03    0.40771E-04 10640   0.402E-03-0.129E-03
CGA:  19    -0.128340359616E+04   -0.18749E-03    0.74950E-04 10640   0.986E-03-0.720E-03
CGA:  20    -0.128340364392E+04   -0.47769E-04   -0.83955E-04 10640   0.136E-03 0.207E-03
CGA:  21    -0.128340363637E+04    0.75580E-05   -0.12236E-04 10640   0.920E-04 0.111E-03
  51 F= -.12834036E+04 E0= -.12834036E+04  d E =-.110598E-01  mag=    47.0000
       N       E                     dE             d eps       ncg     rms          ort
SDA:   1    -0.127203196939E+04    0.11372E+02    0.00000E+00 10640   0.293E+02 0.000E+00
CGA:   2    -0.127989650169E+04   -0.78645E+01   -0.78649E+01 10640   0.140E+02-0.114E-01
CGA:   3    -0.128291013011E+04   -0.30136E+01   -0.30137E+01 10640   0.210E+01-0.350E-02
CGA:   4    -0.128327624330E+04   -0.36611E+00   -0.36619E+00 10640   0.430E+00 0.455E-03
CGA:   5    -0.128336554680E+04   -0.89304E-01   -0.89295E-01 10640   0.981E-01-0.279E-03
CGA:   6    -0.128338790026E+04   -0.22353E-01   -0.22345E-01 10640   0.368E-01-0.202E-02
CGA:   7    -0.128339432947E+04   -0.64292E-02   -0.63120E-02 10640   0.136E-01-0.203E-02
CGA:   8    -0.128339721958E+04   -0.28901E-02   -0.28861E-02 10640   0.579E-02-0.106E-02
CGA:   9    -0.128339877249E+04   -0.15529E-02   -0.16865E-02 10640   0.473E-02-0.152E-02
CGA:  10    -0.128339958764E+04   -0.81515E-03   -0.81663E-03 10640   0.275E-02-0.163E-02
CGA:  11    -0.128340005821E+04   -0.47057E-03   -0.55158E-03 10640   0.153E-02-0.110E-02
CGA:  12    -0.128339996520E+04    0.93012E-04   -0.51845E-03 10640   0.728E-02-0.187E-02
CGA:  13    -0.128340058191E+04   -0.61671E-03   -0.68403E-03 10640   0.781E-03 0.442E-03
CGA:  14    -0.128340075786E+04   -0.17595E-03   -0.18313E-03 10640   0.347E-03 0.299E-03
CGA:  15    -0.128340087121E+04   -0.11335E-03   -0.11327E-03 10640   0.357E-03-0.106E-04
CGA:  16    -0.128340089746E+04   -0.26253E-04   -0.43410E-04 10640   0.182E-03 0.146E-03
CGA:  17    -0.128340089611E+04    0.13526E-05   -0.19756E-04 10640   0.951E-04 0.132E-03
CGA:  18    -0.128340090521E+04   -0.91007E-05   -0.13980E-04 10640   0.518E-04 0.590E-04
CGA:  19    -0.128340092017E+04   -0.14958E-04   -0.13797E-04 10640   0.386E-04 0.284E-04
CGA:  20    -0.128340092088E+04   -0.70804E-06   -0.38755E-05 10640   0.256E-04 0.249E-04
  52 F= -.12834009E+04 E0= -.12834009E+04  d E =0.271549E-02  mag=    47.0000
       N       E                     dE             d eps       ncg     rms          ort
SDA:   1    -0.126129896305E+04    0.22102E+02    0.00000E+00 10640   0.574E+02 0.000E+00
CGA:   2    -0.127648596424E+04   -0.15187E+02   -0.15188E+02 10640   0.273E+02-0.229E-01
CGA:   3    -0.128242705237E+04   -0.59411E+01   -0.59411E+01 10640   0.413E+01 0.220E-02
CGA:   4    -0.128314447300E+04   -0.71742E+00   -0.71748E+00 10640   0.841E+00-0.433E-04
CGA:   5    -0.128331886217E+04   -0.17439E+00   -0.17442E+00 10640   0.194E+00 0.307E-02
CGA:   6    -0.128336339974E+04   -0.44538E-01   -0.44615E-01 10640   0.773E-01-0.620E-02
CGA:   7    -0.128337579488E+04   -0.12395E-01   -0.12272E-01 10640   0.262E-01-0.215E-02
CGA:   8    -0.128338182728E+04   -0.60324E-02   -0.60869E-02 10640   0.112E-01-0.224E-02
CGA:   9    -0.128338494149E+04   -0.31142E-02   -0.37670E-02 10640   0.111E-01-0.425E-02
CGA:  10    -0.128338621489E+04   -0.12734E-02   -0.11915E-02 10640   0.429E-02-0.160E-02
CGA:  11    -0.128338722023E+04   -0.10053E-02   -0.11635E-02 10640   0.283E-02-0.165E-02
CGA:  12    -0.128338743215E+04   -0.21193E-03   -0.69845E-03 10640   0.724E-02-0.277E-02
CGA:  13    -0.128338810368E+04   -0.67153E-03   -0.78213E-03 10640   0.112E-02 0.905E-03
CGA:  14    -0.128338834015E+04   -0.23647E-03   -0.24947E-03 10640   0.562E-03 0.423E-03
CGA:  15    -0.128338853806E+04   -0.19790E-03   -0.20213E-03 10640   0.521E-03-0.122E-03
CGA:  16    -0.128338857249E+04   -0.34438E-04   -0.52781E-04 10640   0.364E-03 0.184E-03
CGA:  17    -0.128338858877E+04   -0.16280E-04   -0.46853E-04 10640   0.197E-03 0.238E-03
CGA:  18    -0.128338865665E+04   -0.67872E-04   -0.65045E-04 10640   0.173E-03 0.249E-04
CGA:  19    -0.128338868861E+04   -0.31959E-04   -0.33523E-04 10640   0.737E-04 0.307E-04
CGA:  20    -0.128338872349E+04   -0.34885E-04   -0.28064E-04 10640   0.698E-04 0.653E-04
CGA:  21    -0.128338874793E+04   -0.24442E-04   -0.23431E-04 10640   0.104E-03 0.902E-05
CGA:  22    -0.128338879071E+04   -0.42776E-04   -0.38223E-04 10640   0.595E-04 0.467E-04
CGA:  23    -0.128338887441E+04   -0.83697E-04   -0.42825E-06 10640   0.113E-02-0.413E-04
CGA:  24    -0.128338898543E+04   -0.11102E-03   -0.12011E-03 10640   0.513E-04 0.323E-04
CGA:  25    -0.128338898627E+04   -0.84942E-06   -0.59889E-05 10640   0.179E-04 0.172E-04
  53 F= -.12833890E+04 E0= -.12833890E+04  d E =0.119346E-01  mag=    47.0000
       N       E                     dE             d eps       ncg     rms          ort
SDA:   1    -0.125781935179E+04    0.25570E+02    0.00000E+00 10640   0.681E+02 0.000E+00
CGA:   2    -0.127508902745E+04   -0.17270E+02   -0.17277E+02 10640   0.319E+02-0.492E-03
CGA:   3    -0.128222206626E+04   -0.71330E+01   -0.71345E+01 10640   0.510E+01 0.109E-01
CGA:   4    -0.128308841406E+04   -0.86635E+00   -0.86756E+00 10640   0.102E+01-0.347E-02
CGA:   5    -0.128329698462E+04   -0.20857E+00   -0.20890E+00 10640   0.251E+00 0.310E-02
CGA:   6    -0.128334949128E+04   -0.52507E-01   -0.52106E-01 10640   0.102E+00-0.236E-02
CGA:   7    -0.128336700058E+04   -0.17509E-01   -0.17113E-01 10640   0.299E-01-0.220E-02
CGA:   8    -0.128337416997E+04   -0.71694E-02   -0.70343E-02 10640   0.127E-01-0.132E-02
CGA:   9    -0.128337774051E+04   -0.35705E-02   -0.34730E-02 10640   0.866E-02-0.193E-02
CGA:  10    -0.128337942859E+04   -0.16881E-02   -0.15605E-02 10640   0.342E-02-0.105E-02
CGA:  11    -0.128338042910E+04   -0.10005E-02   -0.10170E-02 10640   0.260E-02-0.139E-02
CGA:  12    -0.128338079945E+04   -0.37035E-03   -0.28889E-03 10640   0.133E-02-0.580E-03
CGA:  13    -0.128338117893E+04   -0.37949E-03   -0.43474E-03 10640   0.119E-02-0.551E-03
CGA:  14    -0.128338142766E+04   -0.24873E-03   -0.31099E-03 10640   0.198E-02-0.520E-03
CGA:  15    -0.128338169225E+04   -0.26459E-03   -0.24211E-03 10640   0.955E-03-0.200E-03
CGA:  16    -0.128338193299E+04   -0.24074E-03   -0.23933E-03 10640   0.865E-03-0.329E-04
CGA:  17    -0.128338205007E+04   -0.11708E-03   -0.13333E-03 10640   0.278E-03 0.986E-04
CGA:  18    -0.128338205759E+04   -0.75112E-05   -0.38674E-04 10640   0.180E-03 0.164E-03
CGA:  19    -0.128338206837E+04   -0.10783E-04   -0.26291E-04 10640   0.898E-04 0.974E-04
CGA:  20    -0.128338207067E+04   -0.22982E-05   -0.12640E-04 10640   0.596E-04 0.658E-04
  54 F= -.12833821E+04 E0= -.12833821E+04  d E =0.691561E-02  mag=    47.0000
       N       E                     dE             d eps       ncg     rms          ort
SDA:   1    -0.127726081574E+04    0.61213E+01    0.00000E+00 10640   0.158E+02 0.000E+00
CGA:   2    -0.128147582179E+04   -0.42150E+01   -0.42149E+01 10640   0.763E+01-0.567E-02
CGA:   3    -0.128309862083E+04   -0.16228E+01   -0.16229E+01 10640   0.125E+01-0.355E-03
CGA:   4    -0.128330217206E+04   -0.20355E+00   -0.20355E+00 10640   0.277E+00-0.543E-03
CGA:   5    -0.128335312871E+04   -0.50957E-01   -0.51001E-01 10640   0.790E-01 0.975E-03
CGA:   6    -0.128336716504E+04   -0.14036E-01   -0.13957E-01 10640   0.263E-01-0.843E-03
CGA:   7    -0.128337265436E+04   -0.54893E-02   -0.54339E-02 10640   0.734E-02-0.104E-02
CGA:   8    -0.128337431384E+04   -0.16595E-02   -0.16492E-02 10640   0.355E-02-0.402E-03
CGA:   9    -0.128337518478E+04   -0.87093E-03   -0.87252E-03 10640   0.226E-02-0.589E-03
CGA:  10    -0.128337568620E+04   -0.50143E-03   -0.51034E-03 10640   0.149E-02-0.655E-03
CGA:  11    -0.128337594508E+04   -0.25888E-03   -0.24951E-03 10640   0.760E-03-0.407E-03
CGA:  12    -0.128337610236E+04   -0.15727E-03   -0.19894E-03 10640   0.908E-03-0.405E-03
CGA:  13    -0.128337620702E+04   -0.10467E-03   -0.11085E-03 10640   0.261E-03 0.457E-04
CGA:  14    -0.128337628048E+04   -0.73460E-04   -0.72786E-04 10640   0.119E-03 0.653E-04
CGA:  15    -0.128337632655E+04   -0.46062E-04   -0.44871E-04 10640   0.145E-03 0.263E-04
CGA:  16    -0.128337636604E+04   -0.39492E-04   -0.40946E-04 10640   0.665E-04 0.552E-04
CGA:  17    -0.128337638304E+04   -0.17003E-04   -0.19062E-04 10640   0.648E-04 0.415E-04
CGA:  18    -0.128337640271E+04   -0.19673E-04   -0.23260E-04 10640   0.187E-03-0.343E-04
CGA:  19    -0.128337641948E+04   -0.16770E-04   -0.19472E-04 10640   0.266E-04 0.178E-04
CGA:  20    -0.128337643395E+04   -0.14467E-04   -0.11861E-04 10640   0.580E-04 0.166E-04
CGA:  21    -0.128337644937E+04   -0.15414E-04   -0.17970E-04 10640   0.163E-03-0.508E-04
CGA:  22    -0.128337646058E+04   -0.11218E-04   -0.15889E-04 10640   0.208E-04 0.287E-04
CGA:  23    -0.128337646409E+04   -0.35087E-05   -0.45395E-05 10640   0.301E-04 0.150E-04
CGA:  24    -0.128337632377E+04    0.14032E-03   -0.75629E-04 10640   0.230E-02-0.139E-03
CGA:  25    -0.128337653191E+04   -0.20814E-03   -0.23272E-03 10640   0.187E-04 0.766E-04
CGA:  26    -0.128337653068E+04    0.12380E-05   -0.26549E-05 10640   0.156E-04 0.129E-04
CGA:  27    -0.128337654600E+04   -0.15325E-04    0.21120E-04 10640   0.232E-04 0.112E-04
CGA:  28    -0.128337654515E+04    0.85250E-06   -0.27859E-05 10640   0.140E-04 0.120E-04
  55 F= -.12833765E+04 E0= -.12833765E+04  d E =0.552552E-02  mag=    47.0000
       N       E                     dE             d eps       ncg     rms          ort
SDA:   1    -0.127728623387E+04    0.60903E+01    0.00000E+00 10640   0.156E+02 0.000E+00
CGA:   2    -0.128149509806E+04   -0.42089E+01   -0.42094E+01 10640   0.752E+01 0.322E-02
CGA:   3    -0.128308199679E+04   -0.15869E+01   -0.15829E+01 10640   0.125E+01 0.290E-01
CGA:   4    -0.128327959406E+04   -0.19760E+00   -0.19955E+00 10640   0.304E+00-0.110E-01
CGA:   5    -0.128333157050E+04   -0.51976E-01   -0.51571E-01 10640   0.818E-01 0.353E-02
CGA:   6    -0.128334701390E+04   -0.15443E-01   -0.15298E-01 10640   0.245E-01-0.166E-03
CGA:   7    -0.128335256173E+04   -0.55478E-02   -0.53482E-02 10640   0.723E-02-0.496E-03
CGA:   8    -0.128335411574E+04   -0.15540E-02   -0.15031E-02 10640   0.346E-02-0.116E-03
CGA:   9    -0.128335501872E+04   -0.90297E-03   -0.82589E-03 10640   0.174E-02-0.223E-03
CGA:  10    -0.128335552910E+04   -0.51038E-03   -0.43910E-03 10640   0.103E-02-0.240E-03
CGA:  11    -0.128335576337E+04   -0.23427E-03   -0.19030E-03 10640   0.431E-03-0.129E-03
CGA:  12    -0.128335590975E+04   -0.14638E-03   -0.12170E-03 10640   0.332E-03-0.117E-03
CGA:  13    -0.128335600022E+04   -0.90469E-04   -0.68924E-04 10640   0.335E-03-0.900E-04
CGA:  14    -0.128335609504E+04   -0.94824E-04   -0.85898E-04 10640   0.285E-03-0.564E-04
CGA:  15    -0.128335618501E+04   -0.89966E-04   -0.88880E-04 10640   0.307E-03-0.887E-05
CGA:  16    -0.128335626383E+04   -0.78820E-04   -0.78941E-04 10640   0.175E-03 0.288E-06
CGA:  17    -0.128335628110E+04   -0.17273E-04   -0.36196E-04 10640   0.690E-04 0.676E-04
CGA:  18    -0.128335628624E+04   -0.51385E-05   -0.19200E-04 10640   0.326E-04 0.518E-04
  56 F= -.12833563E+04 E0= -.12833563E+04  d E =0.202589E-01  mag=    47.0000
       N       E                     dE             d eps       ncg     rms          ort
SDA:   1    -0.126079701563E+04    0.22559E+02    0.00000E+00 10640   0.592E+02 0.000E+00
CGA:   2    -0.127615383215E+04   -0.15357E+02   -0.15363E+02 10640   0.281E+02-0.247E-02
CGA:   3    -0.128228307972E+04   -0.61292E+01   -0.61318E+01 10640   0.460E+01 0.232E-01
CGA:   4    -0.128304084897E+04   -0.75777E+00   -0.75869E+00 10640   0.997E+00-0.433E-02
CGA:   5    -0.128322688326E+04   -0.18603E+00   -0.18637E+00 10640   0.289E+00 0.241E-02
CGA:   6    -0.128327856352E+04   -0.51680E-01   -0.51288E-01 10640   0.984E-01-0.161E-02
CGA:   7    -0.128329922591E+04   -0.20662E-01   -0.20186E-01 10640   0.272E-01-0.264E-02
CGA:   8    -0.128330555769E+04   -0.63318E-02   -0.61984E-02 10640   0.139E-01-0.849E-03
CGA:   9    -0.128330898121E+04   -0.34235E-02   -0.32280E-02 10640   0.815E-02-0.146E-02
CGA:  10    -0.128331102013E+04   -0.20389E-02   -0.19110E-02 10640   0.414E-02-0.122E-02
CGA:  11    -0.128331206753E+04   -0.10474E-02   -0.95593E-03 10640   0.282E-02-0.103E-02
CGA:  12    -0.128331266444E+04   -0.59691E-03   -0.51726E-03 10640   0.167E-02-0.712E-03
CGA:  13    -0.128331316426E+04   -0.49982E-03   -0.61637E-03 10640   0.304E-02-0.822E-03
CGA:  14    -0.128331348635E+04   -0.32209E-03   -0.27515E-03 10640   0.164E-02-0.264E-03
CGA:  15    -0.128331396999E+04   -0.48364E-03   -0.48281E-03 10640   0.215E-02-0.407E-04
CGA:  16    -0.128331430253E+04   -0.33255E-03   -0.32446E-03 10640   0.782E-03-0.524E-04
CGA:  17    -0.128331445186E+04   -0.14932E-03   -0.17232E-03 10640   0.534E-03 0.203E-03
CGA:  18    -0.128331448592E+04   -0.34064E-04   -0.86212E-04 10640   0.200E-03 0.256E-03
CGA:  19    -0.128331448103E+04    0.48896E-05   -0.32730E-04 10640   0.130E-03 0.178E-03
CGA:  20    -0.128331448543E+04   -0.43941E-05   -0.17982E-04 10640   0.806E-04 0.787E-04
  57 F= -.12833145E+04 E0= -.12833145E+04  d E =0.418008E-01  mag=    47.0000
       N       E                     dE             d eps       ncg     rms          ort
SDA:   1    -0.128094940298E+04    0.23651E+01    0.00000E+00 10640   0.654E+01 0.000E+00
CGA:   2    -0.128248931448E+04   -0.15399E+01   -0.15398E+01 10640   0.300E+01-0.567E-03
CGA:   3    -0.128314663079E+04   -0.65732E+00   -0.65718E+00 10640   0.719E+00-0.395E-02
CGA:   4    -0.128325152101E+04   -0.10489E+00   -0.10469E+00 10640   0.139E+00-0.142E-03
CGA:   5    -0.128327697574E+04   -0.25455E-01   -0.25422E-01 10640   0.370E-01-0.468E-03
CGA:   6    -0.128328395010E+04   -0.69744E-02   -0.69808E-02 10640   0.114E-01 0.116E-03
CGA:   7    -0.128328654081E+04   -0.25907E-02   -0.25600E-02 10640   0.455E-02-0.670E-03
CGA:   8    -0.128328731619E+04   -0.77538E-03   -0.78200E-03 10640   0.193E-02 0.892E-04
CGA:   9    -0.128328795203E+04   -0.63584E-03   -0.65146E-03 10640   0.140E-02-0.230E-03
CGA:  10    -0.128328836781E+04   -0.41578E-03   -0.51142E-03 10640   0.248E-02-0.653E-03
CGA:  11    -0.128328866178E+04   -0.29396E-03   -0.25193E-03 10640   0.126E-02-0.503E-03
CGA:  12    -0.128328892944E+04   -0.26766E-03   -0.26688E-03 10640   0.158E-02-0.155E-03
CGA:  13    -0.128328921209E+04   -0.28265E-03   -0.26737E-03 10640   0.959E-03-0.205E-03
CGA:  14    -0.128328952008E+04   -0.30799E-03   -0.46125E-03 10640   0.250E-02-0.548E-03
CGA:  15    -0.128328972851E+04   -0.20844E-03   -0.27936E-03 10640   0.487E-03 0.427E-03
CGA:  16    -0.128328982192E+04   -0.93402E-04   -0.11007E-03 10640   0.249E-03 0.212E-03
CGA:  17    -0.128328990323E+04   -0.81320E-04   -0.80919E-04 10640   0.172E-03-0.975E-05
CGA:  18    -0.128328990093E+04    0.23038E-05   -0.15543E-04 10640   0.114E-03 0.104E-03
  58 F= -.12832899E+04 E0= -.12832899E+04  d E =0.245845E-01  mag=    47.0000
       N       E                     dE             d eps       ncg     rms          ort
SDA:   1    -0.128244478743E+04    0.84512E+00    0.00000E+00 10640   0.235E+01 0.000E+00
CGA:   2    -0.128301752893E+04   -0.57274E+00   -0.57272E+00 10640   0.106E+01-0.571E-02
CGA:   3    -0.128325412951E+04   -0.23660E+00   -0.23672E+00 10640   0.212E+00 0.450E-02
CGA:   4    -0.128328762280E+04   -0.33493E-01   -0.33637E-01 10640   0.434E-01 0.180E-02
CGA:   5    -0.128329528585E+04   -0.76631E-02   -0.77339E-02 10640   0.111E-01 0.105E-02
CGA:   6    -0.128329727767E+04   -0.19918E-02   -0.20464E-02 10640   0.338E-02 0.926E-03
CGA:   7    -0.128329818722E+04   -0.90955E-03   -0.91358E-03 10640   0.136E-02-0.299E-03
CGA:   8    -0.128329836417E+04   -0.17695E-03   -0.19794E-03 10640   0.558E-03 0.274E-03
CGA:   9    -0.128329850142E+04   -0.13724E-03   -0.14141E-03 10640   0.260E-03 0.191E-03
CGA:  10    -0.128329860088E+04   -0.99468E-04   -0.96355E-04 10640   0.261E-03 0.693E-04
CGA:  11    -0.128329861292E+04   -0.12042E-04   -0.36392E-04 10640   0.143E-03 0.197E-03
CGA:  12    -0.128329861544E+04   -0.25123E-05   -0.14996E-04 10640   0.859E-04 0.102E-03
CGA:  13    -0.128329862788E+04   -0.12440E-04   -0.15375E-04 10640   0.617E-04 0.691E-04
CGA:  14    -0.128329863165E+04   -0.37696E-05   -0.85018E-05 10640   0.556E-04 0.579E-04
  59 F= -.12832986E+04 E0= -.12832986E+04  d E =-.873072E-02  mag=    47.0000
       N       E                     dE             d eps       ncg     rms          ort
SDA:   1    -0.127871189980E+04    0.45867E+01    0.00000E+00 10640   0.124E+02 0.000E+00
CGA:   2    -0.128189127364E+04   -0.31794E+01   -0.31798E+01 10640   0.565E+01-0.859E-02
CGA:   3    -0.128307489327E+04   -0.11836E+01   -0.11836E+01 10640   0.125E+01 0.827E-02
CGA:   4    -0.128327035193E+04   -0.19546E+00   -0.19571E+00 10640   0.263E+00 0.532E-02
CGA:   5    -0.128331561100E+04   -0.45259E-01   -0.45440E-01 10640   0.633E-01 0.514E-02
CGA:   6    -0.128332785663E+04   -0.12246E-01   -0.12259E-01 10640   0.211E-01 0.715E-03
CGA:   7    -0.128333205539E+04   -0.41988E-02   -0.42118E-02 10640   0.633E-02 0.123E-02
CGA:   8    -0.128333357581E+04   -0.15204E-02   -0.15300E-02 10640   0.373E-02-0.455E-03
CGA:   9    -0.128333421128E+04   -0.63547E-03   -0.64672E-03 10640   0.135E-02 0.518E-03
CGA:  10    -0.128333446054E+04   -0.24926E-03   -0.27081E-03 10640   0.536E-03 0.680E-03
CGA:  11    -0.128333456287E+04   -0.10232E-03   -0.10483E-03 10640   0.308E-03 0.241E-03
CGA:  12    -0.128333457998E+04   -0.17112E-04   -0.48548E-04 10640   0.180E-03 0.324E-03
CGA:  13    -0.128333458039E+04   -0.40823E-06   -0.17095E-04 10640   0.147E-03 0.158E-03
CGA:  14    -0.128333458345E+04   -0.30617E-05   -0.15497E-04 10640   0.130E-03 0.138E-03
CGA:  15    -0.128333458422E+04   -0.76984E-06   -0.12467E-04 10640   0.117E-03 0.123E-03
CGA:  16    -0.128333458356E+04    0.65961E-06   -0.10360E-04 10640   0.108E-03 0.113E-03
  60 F= -.12833346E+04 E0= -.12833346E+04  d E =-.359519E-01  mag=    47.0000
       N       E                     dE             d eps       ncg     rms          ort
SDA:   1    -0.127978376903E+04    0.35508E+01    0.00000E+00 10640   0.957E+01 0.000E+00
CGA:   2    -0.128219390015E+04   -0.24101E+01   -0.24105E+01 10640   0.451E+01-0.403E-02
CGA:   3    -0.128318723854E+04   -0.99334E+00   -0.99330E+00 10640   0.797E+00 0.107E-04
CGA:   4    -0.128331727120E+04   -0.13003E+00   -0.13002E+00 10640   0.161E+00-0.508E-03
CGA:   5    -0.128334826472E+04   -0.30994E-01   -0.30986E-01 10640   0.439E-01 0.762E-03
