       N       E                     dE             d eps       ncg     rms          ort
DAV:   1     0.102767659235E+05    0.10277E+05   -0.42436E+05 10640   0.155E+03
DAV:   2    -0.118367323451E+03   -0.10395E+05   -0.98121E+04 10640   0.474E+02
DAV:   3    -0.152253594103E+04   -0.14042E+04   -0.13094E+04 10640   0.182E+02
DAV:   4    -0.160430039798E+04   -0.81764E+02   -0.79542E+02 10640   0.461E+01
DAV:   5    -0.160667182979E+04   -0.23714E+01   -0.23638E+01 10640   0.839E+00
SDA:   6    -0.728539925101E+03    0.87813E+03   -0.23638E+01 10640   0.290E+04 0.000E+00
CGA:   7    -0.113417038866E+04   -0.40563E+03   -0.40234E+03 10640   0.107E+04-0.157E+02
CGA:   8    -0.115304851109E+04   -0.18878E+02   -0.61139E+02 10640   0.131E+04-0.668E+03
CGA:   9    -0.115384763151E+04   -0.79912E+00   -0.65095E+02 10640   0.198E+04-0.120E+04
CGA:  10    -0.112736734918E+04    0.26480E+02   -0.10774E+03 10640   0.286E+04-0.186E+04
CGA:  11    -0.112169599519E+04    0.56714E+01   -0.14362E+03 10640   0.333E+04-0.281E+04
CGA:  12    -0.108358537487E+04    0.38111E+02   -0.18075E+03 10640   0.474E+04-0.372E+04
CGA:  13    -0.107956867479E+04    0.40167E+01   -0.24521E+03 10640   0.484E+04-0.444E+04
CGA:  14    -0.108210037184E+04   -0.25317E+01   -0.24609E+03 10640   0.515E+04-0.494E+04
CGA:  15    -0.110622727107E+04   -0.24127E+02   -0.25165E+03 10640   0.450E+04-0.465E+04
CGA:  16    -0.115307341185E+04   -0.46846E+02   -0.20473E+03 10640   0.366E+04-0.428E+04
CGA:  17    -0.121200191341E+04   -0.58929E+02   -0.14610E+03 10640   0.177E+04-0.257E+04
CGA:  18    -0.124867423076E+04   -0.36672E+02   -0.61274E+02 10640   0.389E+03-0.753E+03
CGA:  19    -0.125910654455E+04   -0.10432E+02   -0.74939E+01 10640   0.507E+02 0.791E+02
CGA:  20    -0.126120037844E+04   -0.20938E+01   -0.20692E+01 10640   0.468E+02-0.858E+00
CGA:  21    -0.126835206488E+04   -0.71517E+01   -0.69774E+01 10640   0.184E+03 0.488E+01
CGA:  22    -0.127424423977E+04   -0.58922E+01   -0.68136E+01 10640   0.863E+02-0.774E+02
CGA:  23    -0.127534417349E+04   -0.10999E+01   -0.11309E+01 10640   0.428E+02-0.257E+01
CGA:  24    -0.127594863699E+04   -0.60446E+00   -0.79448E+00 10640   0.150E+02-0.111E+02
CGA:  25    -0.127639921464E+04   -0.45058E+00   -0.50580E+00 10640   0.250E+02-0.139E+01
CGA:  26    -0.127771108283E+04   -0.13119E+01   -0.14257E+01 10640   0.265E+02-0.115E+01
CGA:  27    -0.127887792368E+04   -0.11668E+01   -0.92970E+00 10640   0.971E+01 0.358E+01
CGA:  28    -0.127949239626E+04   -0.61447E+00   -0.67512E+00 10640   0.852E+01-0.546E+00
CGA:  29    -0.128029877600E+04   -0.80638E+00   -0.80598E+00 10640   0.698E+01-0.130E+00
CGA:  30    -0.128101288215E+04   -0.71411E+00   -0.71359E+00 10640   0.400E+01-0.266E+00
CGA:  31    -0.128149019604E+04   -0.47731E+00   -0.47884E+00 10640   0.314E+01-0.242E+00
CGA:  32    -0.128217382940E+04   -0.68363E+00   -0.78202E+00 10640   0.298E+01-0.581E+00
CGA:  33    -0.128248421208E+04   -0.31038E+00   -0.31488E+00 10640   0.116E+01-0.305E+00
CGA:  34    -0.128275777909E+04   -0.27357E+00   -0.32998E+00 10640   0.137E+01-0.249E+00
CGA:  35    -0.128297969904E+04   -0.22192E+00   -0.25342E+00 10640   0.556E+00-0.274E+00
CGA:  36    -0.128309416792E+04   -0.11447E+00   -0.12289E+00 10640   0.367E+00-0.539E-01
CGA:  37    -0.128316627350E+04   -0.72106E-01   -0.68960E-01 10640   0.186E+00 0.425E-01
CGA:  38    -0.128321036106E+04   -0.44088E-01   -0.41187E-01 10640   0.836E-01 0.481E-01
CGA:  39    -0.128323003394E+04   -0.19673E-01   -0.18313E-01 10640   0.486E-01 0.406E-01
CGA:  40    -0.128324123249E+04   -0.11199E-01   -0.10866E-01 10640   0.284E-01 0.397E-01
CGA:  41    -0.128324541221E+04   -0.41797E-02   -0.41327E-02 10640   0.152E-01 0.161E-01
CGA:  42    -0.128324719855E+04   -0.17863E-02   -0.19604E-02 10640   0.119E-01 0.128E-01
CGA:  43    -0.128324825212E+04   -0.10536E-02   -0.13555E-02 10640   0.101E-01 0.108E-01
CGA:  44    -0.128324896243E+04   -0.71031E-03   -0.10529E-02 10640   0.887E-02 0.940E-02
CGA:  45    -0.128324945964E+04   -0.49722E-03   -0.85428E-03 10640   0.796E-02 0.836E-02
CGA:  46    -0.128324982000E+04   -0.36036E-03   -0.71517E-03 10640   0.723E-02 0.756E-02
CGA:  47    -0.128325008516E+04   -0.26516E-03   -0.61062E-03 10640   0.664E-02 0.690E-02
CGA:  48    -0.128325028217E+04   -0.19701E-03   -0.52934E-03 10640   0.614E-02 0.636E-02
CGA:  49    -0.128325042914E+04   -0.14697E-03   -0.46437E-03 10640   0.571E-02 0.591E-02
CGA:  50    -0.128325053872E+04   -0.10958E-03   -0.41138E-03 10640   0.535E-02 0.552E-02
CGA:  51    -0.128325062004E+04   -0.81314E-04   -0.36745E-03 10640   0.503E-02 0.518E-02
CGA:  52    -0.128325067978E+04   -0.59744E-04   -0.33055E-03 10640   0.475E-02 0.488E-02
CGA:  53    -0.128325072296E+04   -0.43178E-04   -0.29920E-03 10640   0.450E-02 0.462E-02
CGA:  54    -0.128325075335E+04   -0.30393E-04   -0.27232E-03 10640   0.428E-02 0.439E-02
CGA:  55    -0.128325077385E+04   -0.20500E-04   -0.24908E-03 10640   0.408E-02 0.418E-02
CGA:  56    -0.128325078674E+04   -0.12886E-04   -0.22889E-03 10640   0.391E-02 0.399E-02
CGA:  57    -0.128325079373E+04   -0.69899E-05   -0.21119E-03 10640   0.375E-02 0.382E-02
CGA:  58    -0.128325079614E+04   -0.24119E-05   -0.19553E-03 10640   0.360E-02 0.367E-02
CGA:  59    -0.128325079501E+04    0.11325E-05   -0.18161E-03 10640   0.347E-02 0.353E-02
CGA:  60    -0.128325079114E+04    0.38608E-05   -0.16917E-03 10640   0.335E-02 0.341E-02
CGA:  61    -0.128325078519E+04    0.59504E-05   -0.15800E-03 10640   0.324E-02 0.329E-02
CGA:  62    -0.128325077766E+04    0.75304E-05   -0.14791E-03 10640   0.313E-02 0.318E-02
CGA:  63    -0.128325076896E+04    0.87057E-05   -0.13878E-03 10640   0.304E-02 0.308E-02
CGA:  64    -0.128325075940E+04    0.95615E-05   -0.13047E-03 10640   0.295E-02 0.299E-02
CGA:  65    -0.128325074922E+04    0.10176E-04   -0.12287E-03 10640   0.287E-02 0.291E-02
CGA:  66    -0.128325073864E+04    0.10578E-04   -0.11593E-03 10640   0.279E-02 0.283E-02
CGA:  67    -0.128325072783E+04    0.10815E-04   -0.10955E-03 10640   0.272E-02 0.276E-02
CGA:  68    -0.128325071690E+04    0.10923E-04   -0.10367E-03 10640   0.266E-02 0.269E-02
CGA:  69    -0.128325070597E+04    0.10933E-04   -0.98247E-04 10640   0.260E-02 0.263E-02
CGA:  70    -0.128325069511E+04    0.10862E-04   -0.93223E-04 10640   0.254E-02 0.257E-02
CGA:  71    -0.128325068438E+04    0.10731E-04   -0.88560E-04 10640   0.249E-02 0.251E-02
CGA:  72    -0.128325067383E+04    0.10553E-04   -0.84224E-04 10640   0.243E-02 0.246E-02
CGA:  73    -0.128325066349E+04    0.10338E-04   -0.80182E-04 10640   0.239E-02 0.241E-02
CGA:  74    -0.128325065339E+04    0.10095E-04   -0.76409E-04 10640   0.234E-02 0.236E-02
CGA:  75    -0.128325064356E+04    0.98326E-05   -0.72879E-04 10640   0.230E-02 0.232E-02
CGA:  76    -0.128325063400E+04    0.95564E-05   -0.69572E-04 10640   0.226E-02 0.228E-02
CGA:  77    -0.128325062473E+04    0.92699E-05   -0.66468E-04 10640   0.222E-02 0.224E-02
CGA:  78    -0.128325061576E+04    0.89791E-05   -0.63552E-04 10640   0.218E-02 0.220E-02
CGA:  79    -0.128325060707E+04    0.86841E-05   -0.60807E-04 10640   0.215E-02 0.217E-02
CGA:  80    -0.128325059868E+04    0.83906E-05   -0.58220E-04 10640   0.212E-02 0.213E-02
CGA:  81    -0.128325059058E+04    0.80972E-05   -0.55779E-04 10640   0.209E-02 0.210E-02
CGA:  82    -0.128325058277E+04    0.78093E-05   -0.53473E-04 10640   0.206E-02 0.207E-02
CGA:  83    -0.128325057525E+04    0.75255E-05   -0.51292E-04 10640   0.203E-02 0.204E-02
CGA:  84    -0.128325056800E+04    0.72465E-05   -0.49228E-04 10640   0.200E-02 0.201E-02
CGA:  85    -0.128325056103E+04    0.69735E-05   -0.47272E-04 10640   0.197E-02 0.199E-02
CGA:  86    -0.128325055432E+04    0.67095E-05   -0.45416E-04 10640   0.195E-02 0.196E-02
CGA:  87    -0.128325054787E+04    0.64501E-05   -0.43655E-04 10640   0.193E-02 0.194E-02
CGA:  88    -0.128325054167E+04    0.61992E-05   -0.41982E-04 10640   0.190E-02 0.192E-02
CGA:  89    -0.128325053571E+04    0.59559E-05   -0.40391E-04 10640   0.188E-02 0.189E-02
CGA:  90    -0.128325052999E+04    0.57200E-05   -0.38876E-04 10640   0.186E-02 0.187E-02
CGA:  91    -0.128325052450E+04    0.54919E-05   -0.37434E-04 10640   0.184E-02 0.185E-02
CGA:  92    -0.128325051923E+04    0.52717E-05   -0.36059E-04 10640   0.182E-02 0.183E-02
CGA:  93    -0.128325051417E+04    0.50589E-05   -0.34748E-04 10640   0.181E-02 0.181E-02
CGA:  94    -0.128325050932E+04    0.48548E-05   -0.33497E-04 10640   0.179E-02 0.180E-02
CGA:  95    -0.128325050466E+04    0.46572E-05   -0.32302E-04 10640   0.177E-02 0.178E-02
CGA:  96    -0.128325050019E+04    0.44668E-05   -0.31160E-04 10640   0.176E-02 0.176E-02
CGA:  97    -0.128325049591E+04    0.42846E-05   -0.30069E-04 10640   0.174E-02 0.175E-02
CGA:  98    -0.128325049180E+04    0.41084E-05   -0.29024E-04 10640   0.173E-02 0.173E-02
CGA:  99    -0.128325048786E+04    0.39399E-05   -0.28024E-04 10640   0.171E-02 0.172E-02
CGA: 100    -0.128325048408E+04    0.37781E-05   -0.27067E-04 10640   0.170E-02 0.170E-02
CGA: 101    -0.128325048046E+04    0.36217E-05   -0.26149E-04 10640   0.168E-02 0.169E-02
CGA: 102    -0.128325047699E+04    0.34722E-05   -0.25269E-04 10640   0.167E-02 0.168E-02
CGA: 103    -0.128325047366E+04    0.33281E-05   -0.24426E-04 10640   0.166E-02 0.167E-02
CGA: 104    -0.128325047047E+04    0.31916E-05   -0.23616E-04 10640   0.165E-02 0.165E-02
CGA: 105    -0.128325046741E+04    0.30589E-05   -0.22839E-04 10640   0.164E-02 0.164E-02
CGA: 106    -0.128325046448E+04    0.29324E-05   -0.22092E-04 10640   0.163E-02 0.163E-02
CGA: 107    -0.128325046167E+04    0.28112E-05   -0.21375E-04 10640   0.162E-02 0.162E-02
CGA: 108    -0.128325045897E+04    0.26950E-05   -0.20685E-04 10640   0.161E-02 0.161E-02
CGA: 109    -0.128325045639E+04    0.25838E-05   -0.20022E-04 10640   0.160E-02 0.160E-02
CGA: 110    -0.128325045391E+04    0.24759E-05   -0.19384E-04 10640   0.159E-02 0.159E-02
CGA: 111    -0.128325045154E+04    0.23745E-05   -0.18770E-04 10640   0.158E-02 0.158E-02
CGA: 112    -0.128325044926E+04    0.22767E-05   -0.18178E-04 10640   0.157E-02 0.157E-02
CGA: 113    -0.128325044708E+04    0.21826E-05   -0.17609E-04 10640   0.156E-02 0.156E-02
CGA: 114    -0.128325044498E+04    0.20927E-05   -0.17061E-04 10640   0.155E-02 0.156E-02
CGA: 115    -0.128325044298E+04    0.20070E-05   -0.16532E-04 10640   0.154E-02 0.155E-02
CGA: 116    -0.128325044105E+04    0.19242E-05   -0.16022E-04 10640   0.154E-02 0.154E-02
CGA: 117    -0.128325043921E+04    0.18456E-05   -0.15531E-04 10640   0.153E-02 0.153E-02
CGA: 118    -0.128325043744E+04    0.17694E-05   -0.15057E-04 10640   0.152E-02 0.152E-02
CGA: 119    -0.128325043574E+04    0.16973E-05   -0.14600E-04 10640   0.151E-02 0.152E-02
CGA: 120    -0.128325043411E+04    0.16289E-05   -0.14158E-04 10640   0.151E-02 0.151E-02
CGA: 121    -0.128325043255E+04    0.15614E-05   -0.13732E-04 10640   0.150E-02 0.150E-02
CGA: 122    -0.128325043105E+04    0.14988E-05   -0.13321E-04 10640   0.149E-02 0.150E-02
CGA: 123    -0.128325042961E+04    0.14385E-05   -0.12923E-04 10640   0.149E-02 0.149E-02
CGA: 124    -0.128325042823E+04    0.13791E-05   -0.12539E-04 10640   0.148E-02 0.149E-02
CGA: 125    -0.128325042691E+04    0.13241E-05   -0.12168E-04 10640   0.148E-02 0.148E-02
CGA: 126    -0.128325042564E+04    0.12716E-05   -0.11809E-04 10640   0.147E-02 0.147E-02
CGA: 127    -0.128325042442E+04    0.12203E-05   -0.11463E-04 10640   0.147E-02 0.147E-02
CGA: 128    -0.128325042325E+04    0.11709E-05   -0.11127E-04 10640   0.146E-02 0.146E-02
CGA: 129    -0.128325042212E+04    0.11249E-05   -0.10803E-04 10640   0.146E-02 0.146E-02
CGA: 130    -0.128325042104E+04    0.10797E-05   -0.10489E-04 10640   0.145E-02 0.145E-02
CGA: 131    -0.128325042001E+04    0.10364E-05   -0.10185E-04 10640   0.145E-02 0.145E-02
   1 F= -.12832504E+04 E0= -.12832504E+04  d E =-.128325E+04  mag=    47.0000
       N       E                     dE             d eps       ncg     rms          ort
SDA:   1    -0.128324972405E+04    0.69699E-03    0.00000E+00 10640   0.385E-02 0.000E+00
CGA:   2    -0.128324993775E+04   -0.21370E-03   -0.13928E-03 10640   0.293E-02 0.336E-02
CGA:   3    -0.128325007244E+04   -0.13469E-03   -0.91406E-04 10640   0.247E-02 0.270E-02
CGA:   4    -0.128325017233E+04   -0.99895E-04   -0.70525E-04 10640   0.218E-02 0.232E-02
CGA:   5    -0.128325025232E+04   -0.79991E-04   -0.58543E-04 10640   0.197E-02 0.207E-02
CGA:   6    -0.128325031923E+04   -0.66907E-04   -0.50599E-04 10640   0.181E-02 0.189E-02
CGA:   7    -0.128325037676E+04   -0.57532E-04   -0.44844E-04 10640   0.169E-02 0.175E-02
CGA:   8    -0.128325042718E+04   -0.50418E-04   -0.40421E-04 10640   0.158E-02 0.163E-02
CGA:   9    -0.128325047197E+04   -0.44791E-04   -0.36875E-04 10640   0.149E-02 0.154E-02
CGA:  10    -0.128325051219E+04   -0.40216E-04   -0.33949E-04 10640   0.142E-02 0.145E-02
CGA:  11    -0.128325054860E+04   -0.36410E-04   -0.31479E-04 10640   0.135E-02 0.138E-02
CGA:  12    -0.128325058180E+04   -0.33198E-04   -0.29363E-04 10640   0.129E-02 0.132E-02
CGA:  13    -0.128325061225E+04   -0.30450E-04   -0.27524E-04 10640   0.124E-02 0.127E-02
CGA:  14    -0.128325064032E+04   -0.28076E-04   -0.25909E-04 10640   0.120E-02 0.122E-02
CGA:  15    -0.128325066633E+04   -0.26011E-04   -0.24482E-04 10640   0.115E-02 0.117E-02
CGA:  16    -0.128325069053E+04   -0.24200E-04   -0.23209E-04 10640   0.112E-02 0.113E-02
CGA:  17    -0.128325071314E+04   -0.22605E-04   -0.22069E-04 10640   0.108E-02 0.110E-02
CGA:  18    -0.128325073433E+04   -0.21195E-04   -0.21042E-04 10640   0.105E-02 0.107E-02
CGA:  19    -0.128325075427E+04   -0.19939E-04   -0.20113E-04 10640   0.102E-02 0.104E-02
CGA:  20    -0.128325077309E+04   -0.18822E-04   -0.19270E-04 10640   0.996E-03 0.101E-02
CGA:  21    -0.128325079092E+04   -0.17821E-04   -0.18502E-04 10640   0.971E-03 0.983E-03
CGA:  22    -0.128325080784E+04   -0.16924E-04   -0.17800E-04 10640   0.949E-03 0.960E-03
CGA:  23    -0.128325082396E+04   -0.16117E-04   -0.17156E-04 10640   0.928E-03 0.938E-03
CGA:  24    -0.128325083935E+04   -0.15391E-04   -0.16565E-04 10640   0.908E-03 0.918E-03
CGA:  25    -0.128325085408E+04   -0.14736E-04   -0.16022E-04 10640   0.890E-03 0.899E-03
CGA:  26    -0.128325086823E+04   -0.14144E-04   -0.15520E-04 10640   0.873E-03 0.881E-03
CGA:  27    -0.128325088183E+04   -0.13605E-04   -0.15056E-04 10640   0.857E-03 0.865E-03
CGA:  28    -0.128325089495E+04   -0.13121E-04   -0.14627E-04 10640   0.842E-03 0.849E-03
CGA:  29    -0.128325090763E+04   -0.12678E-04   -0.14227E-04 10640   0.828E-03 0.835E-03
CGA:  30    -0.128325091991E+04   -0.12275E-04   -0.13857E-04 10640   0.815E-03 0.822E-03
CGA:  31    -0.128325093182E+04   -0.11911E-04   -0.13513E-04 10640   0.803E-03 0.809E-03
CGA:  32    -0.128325094339E+04   -0.11577E-04   -0.13191E-04 10640   0.791E-03 0.797E-03
CGA:  33    -0.128325095467E+04   -0.11274E-04   -0.12891E-04 10640   0.780E-03 0.785E-03
CGA:  34    -0.128325096566E+04   -0.10997E-04   -0.12611E-04 10640   0.769E-03 0.775E-03
CGA:  35    -0.128325097641E+04   -0.10745E-04   -0.12350E-04 10640   0.759E-03 0.764E-03
CGA:  36    -0.128325098692E+04   -0.10514E-04   -0.12105E-04 10640   0.750E-03 0.755E-03
CGA:  37    -0.128325099723E+04   -0.10305E-04   -0.11876E-04 10640   0.741E-03 0.746E-03
CGA:  38    -0.128325100734E+04   -0.10115E-04   -0.11661E-04 10640   0.732E-03 0.737E-03
CGA:  39    -0.128325101728E+04   -0.99384E-05   -0.11459E-04 10640   0.724E-03 0.728E-03
CGA:  40    -0.128325102706E+04   -0.97793E-05   -0.11270E-04 10640   0.717E-03 0.721E-03
CGA:  41    -0.128325103669E+04   -0.96341E-05   -0.11092E-04 10640   0.709E-03 0.713E-03
CGA:  42    -0.128325104620E+04   -0.95024E-05   -0.10925E-04 10640   0.702E-03 0.706E-03
CGA:  43    -0.128325105558E+04   -0.93840E-05   -0.10769E-04 10640   0.695E-03 0.699E-03
CGA:  44    -0.128325106486E+04   -0.92741E-05   -0.10621E-04 10640   0.689E-03 0.692E-03
CGA:  45    -0.128325107403E+04   -0.91755E-05   -0.10482E-04 10640   0.683E-03 0.686E-03
CGA:  46    -0.128325108312E+04   -0.90868E-05   -0.10352E-04 10640   0.677E-03 0.680E-03
CGA:  47    -0.128325109213E+04   -0.90075E-05   -0.10231E-04 10640   0.671E-03 0.674E-03
CGA:  48    -0.128325110106E+04   -0.89365E-05   -0.10116E-04 10640   0.665E-03 0.668E-03
CGA:  49    -0.128325110994E+04   -0.88736E-05   -0.10008E-04 10640   0.660E-03 0.663E-03
   2 F= -.12832511E+04 E0= -.12832511E+04  d E =-.689929E-03  mag=    47.0000
       N       E                     dE             d eps       ncg     rms          ort
SDA:   1    -0.128325160241E+04   -0.50135E-03    0.00000E+00 10640   0.362E-02 0.000E+00
CGA:   2    -0.128325220802E+04   -0.60561E-03   -0.46330E-03 10640   0.177E-02 0.224E-02
CGA:   3    -0.128325259053E+04   -0.38251E-03   -0.24030E-03 10640   0.109E-02 0.135E-02
CGA:   4    -0.128325278468E+04   -0.19416E-03   -0.12271E-03 10640   0.805E-03 0.923E-03
CGA:   5    -0.128325292146E+04   -0.13677E-03   -0.87495E-04 10640   0.638E-03 0.710E-03
CGA:   6    -0.128325302448E+04   -0.10303E-03   -0.66959E-04 10640   0.535E-03 0.581E-03
CGA:   7    -0.128325311290E+04   -0.88413E-04   -0.57686E-04 10640   0.465E-03 0.497E-03
CGA:   8    -0.128325319381E+04   -0.80913E-04   -0.52711E-04 10640   0.416E-03 0.438E-03
CGA:   9    -0.128325327366E+04   -0.79854E-04   -0.51472E-04 10640   0.380E-03 0.396E-03
CGA:  10    -0.128325335724E+04   -0.83577E-04   -0.52979E-04 10640   0.352E-03 0.365E-03
CGA:  11    -0.128325345023E+04   -0.92987E-04   -0.57630E-04 10640   0.329E-03 0.340E-03
CGA:  12    -0.128325355979E+04   -0.10956E-03   -0.66158E-04 10640   0.309E-03 0.319E-03
CGA:  13    -0.128325369840E+04   -0.13861E-03   -0.81306E-04 10640   0.288E-03 0.298E-03
CGA:  14    -0.128325388978E+04   -0.19139E-03   -0.10904E-03 10640   0.264E-03 0.276E-03
CGA:  15    -0.128325418903E+04   -0.29925E-03   -0.22500E-02 10640   0.229E-03 0.245E-03
CGA:  16    -0.128325465612E+04   -0.46708E-03   -0.12161E-02 10640   0.326E-03 0.188E-03
CGA:  17    -0.128325473560E+04   -0.79478E-04   -0.70811E-04 10640   0.596E-03-0.840E-04
CGA:  18    -0.128325502405E+04   -0.28845E-03    0.21130E-02 10640   0.905E-03 0.378E-03
CGA:  19    -0.128325509494E+04   -0.70889E-04   -0.83066E-04 10640   0.149E-03 0.569E-04
CGA:  20    -0.128325519291E+04   -0.97967E-04    0.11993E-02 10640   0.197E-03 0.130E-03
CGA:  21    -0.128325526006E+04   -0.67154E-04   -0.85179E-04 10640   0.110E-02-0.141E-03
CGA:  22    -0.128325534560E+04   -0.85541E-04   -0.99928E-04 10640   0.132E-03 0.695E-04
CGA:  23    -0.128325528934E+04    0.56260E-04   -0.63748E-04 10640   0.364E-02-0.201E-03
CGA:  24    -0.128325587549E+04   -0.58615E-03   -0.55389E-03 10640   0.401E-03-0.833E-04
CGA:  25    -0.128325590719E+04   -0.31700E-04   -0.42851E-04 10640   0.786E-04 0.289E-04
CGA:  26    -0.128325601132E+04   -0.10413E-03   -0.13132E-03 10640   0.990E-03-0.277E-04
CGA:  27    -0.128325622198E+04   -0.21066E-03   -0.13680E-03 10640   0.142E-02-0.225E-03
CGA:  28    -0.128325654572E+04   -0.32374E-03   -0.20331E-03 10640   0.163E-02-0.341E-03
CGA:  29    -0.128325677434E+04   -0.22862E-03   -0.16057E-03 10640   0.726E-03-0.170E-03
CGA:  30    -0.128325682143E+04   -0.47093E-04   -0.51586E-04 10640   0.202E-03 0.820E-05
CGA:  31    -0.128325682998E+04   -0.85464E-05   -0.17654E-04 10640   0.965E-04 0.220E-04
CGA:  32    -0.128325683531E+04   -0.53350E-05   -0.11396E-04 10640   0.634E-04 0.166E-04
   3 F= -.12832568E+04 E0= -.12832568E+04  d E =-.572538E-02  mag=    47.0000
       N       E                     dE             d eps       ncg     rms          ort
SDA:   1    -0.127441217411E+04    0.88447E+01    0.00000E+00 10640   0.271E+02 0.000E+00
CGA:   2    -0.128001332892E+04   -0.56012E+01   -0.56089E+01 10640   0.109E+02-0.611E-03
CGA:   3    -0.128260171722E+04   -0.25884E+01   -0.25849E+01 10640   0.310E+01 0.130E-01
CGA:   4    -0.128304360548E+04   -0.44189E+00   -0.44901E+00 10640   0.589E+00-0.251E-01
CGA:   5    -0.128314002069E+04   -0.96415E-01   -0.96109E-01 10640   0.167E+00 0.708E-02
CGA:   6    -0.128317139686E+04   -0.31376E-01   -0.31287E-01 10640   0.480E-01-0.958E-03
CGA:   7    -0.128318165228E+04   -0.10255E-01   -0.10246E-01 10640   0.152E-01 0.472E-04
CGA:   8    -0.128318493466E+04   -0.32824E-02   -0.31142E-02 10640   0.725E-02-0.104E-02
CGA:   9    -0.128318645225E+04   -0.15176E-02   -0.15149E-02 10640   0.311E-02-0.402E-05
CGA:  10    -0.128318736259E+04   -0.91035E-03   -0.89998E-03 10640   0.206E-02-0.171E-03
CGA:  11    -0.128318778162E+04   -0.41903E-03   -0.41096E-03 10640   0.119E-02-0.564E-04
CGA:  12    -0.128318821438E+04   -0.43275E-03   -0.45643E-03 10640   0.142E-02-0.436E-03
CGA:  13    -0.128318847082E+04   -0.25644E-03   -0.23435E-03 10640   0.115E-02-0.269E-03
CGA:  14    -0.128318886867E+04   -0.39785E-03   -0.48308E-03 10640   0.158E-02-0.487E-03
CGA:  15    -0.128318914268E+04   -0.27401E-03   -0.26217E-03 10640   0.154E-02-0.205E-03
CGA:  16    -0.128318955067E+04   -0.40799E-03   -0.39575E-03 10640   0.828E-03-0.256E-03
CGA:  17    -0.128318970778E+04   -0.15711E-03   -0.16718E-03 10640   0.457E-03 0.964E-04
CGA:  18    -0.128318987625E+04   -0.16846E-03   -0.16797E-03 10640   0.306E-03-0.650E-04
CGA:  19    -0.128318989007E+04   -0.13821E-04   -0.36192E-04 10640   0.174E-03 0.112E-03
CGA:  20    -0.128318990444E+04   -0.14373E-04   -0.36561E-04 10640   0.122E-03 0.127E-03
CGA:  21    -0.128318994556E+04   -0.41117E-04   -0.46862E-04 10640   0.473E-03-0.853E-04
CGA:  22    -0.128318995675E+04   -0.11195E-04   -0.34770E-04 10640   0.445E-04 0.970E-04
CGA:  23    -0.128318995218E+04    0.45758E-05   -0.35670E-05 10640   0.339E-04 0.336E-04
   4 F= -.12831900E+04 E0= -.12831900E+04  d E =0.668831E-01  mag=    47.0000
       N       E                     dE             d eps       ncg     rms          ort
SDA:   1    -0.127804211404E+04    0.51478E+01    0.00000E+00 10640   0.172E+02 0.000E+00
CGA:   2    -0.128135485834E+04   -0.33127E+01   -0.33148E+01 10640   0.625E+01 0.477E-02
CGA:   3    -0.128292531956E+04   -0.15705E+01   -0.15706E+01 10640   0.189E+01 0.795E-02
CGA:   4    -0.128320032429E+04   -0.27500E+00   -0.27638E+00 10640   0.330E+00-0.555E-02
CGA:   5    -0.128325568571E+04   -0.55361E-01   -0.55244E-01 10640   0.100E+00 0.152E-02
CGA:   6    -0.128327432346E+04   -0.18638E-01   -0.18547E-01 10640   0.286E-01-0.108E-02
CGA:   7    -0.128328048223E+04   -0.61588E-02   -0.61661E-02 10640   0.770E-02 0.169E-03
CGA:   8    -0.128328211174E+04   -0.16295E-02   -0.16250E-02 10640   0.367E-02-0.692E-04
CGA:   9    -0.128328297560E+04   -0.86386E-03   -0.85639E-03 10640   0.207E-02-0.256E-03
CGA:  10    -0.128328350881E+04   -0.53321E-03   -0.53760E-03 10640   0.134E-02-0.270E-03
CGA:  11    -0.128328377718E+04   -0.26836E-03   -0.26679E-03 10640   0.689E-03-0.438E-04
CGA:  12    -0.128328395871E+04   -0.18153E-03   -0.38239E-03 10640   0.222E-02-0.646E-03
CGA:  13    -0.128328414267E+04   -0.18396E-03   -0.22980E-03 10640   0.432E-03 0.273E-03
CGA:  14    -0.128328425534E+04   -0.11267E-03   -0.11503E-03 10640   0.185E-03 0.750E-04
CGA:  15    -0.128328293914E+04    0.13162E-02   -0.71030E-03 10640   0.154E-01-0.116E-02
CGA:  16    -0.128328416421E+04   -0.12251E-02   -0.14252E-02 10640   0.106E-02 0.904E-03
CGA:  17    -0.128328438324E+04   -0.21904E-03   -0.25805E-03 10640   0.531E-03 0.165E-03
CGA:  18    -0.128328461044E+04   -0.22720E-03   -0.16561E-03 10640   0.479E-03-0.330E-03
CGA:  19    -0.128328461127E+04   -0.82564E-06   -0.43929E-04 10640   0.855E-04 0.124E-03
CGA:  20    -0.128328461452E+04   -0.32536E-05   -0.15495E-04 10640   0.680E-04 0.431E-04
CGA:  21    -0.128328469976E+04   -0.85236E-04    0.27524E-04 10640   0.309E-03-0.652E-04
CGA:  22    -0.128328468974E+04    0.10016E-04   -0.22244E-04 10640   0.411E-04 0.956E-04
CGA:  23    -0.128328468278E+04    0.69641E-05   -0.28945E-05 10640   0.213E-04 0.288E-04
   5 F= -.12832847E+04 E0= -.12832847E+04  d E =-.947306E-01  mag=    47.0000
       N       E                     dE             d eps       ncg     rms          ort
SDA:   1    -0.128295549932E+04    0.32919E+00    0.00000E+00 10640   0.110E+01 0.000E+00
CGA:   2    -0.128316767607E+04   -0.21218E+00   -0.21223E+00 10640   0.395E+00 0.617E-03
CGA:   3    -0.128327086456E+04   -0.10319E+00   -0.10302E+00 10640   0.108E+00-0.176E-02
CGA:   4    -0.128328742235E+04   -0.16558E-01   -0.16623E-01 10640   0.162E-01 0.400E-03
CGA:   5    -0.128329081129E+04   -0.33889E-02   -0.33294E-02 10640   0.510E-02-0.399E-03
CGA:   6    -0.128329160338E+04   -0.79209E-03   -0.82301E-03 10640   0.172E-02 0.184E-03
CGA:   7    -0.128329196635E+04   -0.36297E-03   -0.35297E-03 10640   0.455E-03-0.697E-04
CGA:   8    -0.128329207953E+04   -0.11318E-03   -0.10848E-03 10640   0.227E-03-0.561E-04
CGA:   9    -0.128329211645E+04   -0.36914E-04   -0.38238E-04 10640   0.892E-04 0.101E-04
CGA:  10    -0.128329201584E+04    0.10061E-03   -0.95492E-04 10640   0.133E-02-0.278E-03
CGA:  11    -0.128329218591E+04   -0.17007E-03   -0.16903E-03 10640   0.282E-03-0.292E-05
CGA:  12    -0.128329222497E+04   -0.39067E-04   -0.42892E-04 10640   0.414E-04 0.204E-04
CGA:  13    -0.128329216039E+04    0.64579E-04   -0.56494E-04 10640   0.571E-03-0.129E-03
CGA:  14    -0.128329221757E+04   -0.57180E-04   -0.82284E-04 10640   0.103E-03 0.107E-03
CGA:  15    -0.128329226335E+04   -0.45775E-04   -0.53470E-04 10640   0.167E-03-0.112E-03
CGA:  16    -0.128329226343E+04   -0.81498E-07   -0.16164E-04 10640   0.334E-04 0.584E-04
   6 F= -.12832923E+04 E0= -.12832923E+04  d E =-.758065E-02  mag=    47.0000
       N       E                     dE             d eps       ncg     rms          ort
SDA:   1    -0.128325241373E+04    0.39850E-01    0.00000E+00 10640   0.141E+00 0.000E+00
CGA:   2    -0.128328008026E+04   -0.27667E-01   -0.27820E-01 10640   0.516E-01 0.106E-02
CGA:   3    -0.128329359610E+04   -0.13516E-01   -0.13457E-01 10640   0.141E-01-0.762E-03
CGA:   4    -0.128329580416E+04   -0.22081E-02   -0.21614E-02 10640   0.240E-02-0.251E-03
CGA:   5    -0.128329635436E+04   -0.55020E-03   -0.50529E-03 10640   0.104E-02-0.398E-03
CGA:   6    -0.128329647288E+04   -0.11852E-03   -0.12245E-03 10640   0.273E-03 0.239E-04
CGA:   7    -0.128329650584E+04   -0.32961E-04   -0.43849E-04 10640   0.674E-04 0.701E-04
CGA:   8    -0.128329651569E+04   -0.98557E-05   -0.12562E-04 10640   0.324E-04 0.174E-04
   7 F= -.12832965E+04 E0= -.12832965E+04  d E =-.425226E-02  mag=    47.0000
       N       E                     dE             d eps       ncg     rms          ort
SDA:   1    -0.128284349631E+04    0.45301E+00    0.00000E+00 10640   0.139E+01 0.000E+00
CGA:   2    -0.128313627327E+04   -0.29278E+00   -0.29299E+00 10640   0.554E+00 0.281E-02
CGA:   3    -0.128327079299E+04   -0.13452E+00   -0.13449E+00 10640   0.134E+00-0.768E-03
CGA:   4    -0.128329264503E+04   -0.21852E-01   -0.21527E-01 10640   0.242E-01-0.269E-02
CGA:   5    -0.128329722516E+04   -0.45801E-02   -0.45540E-02 10640   0.674E-02-0.274E-03
CGA:   6    -0.128329850078E+04   -0.12756E-02   -0.12384E-02 10640   0.269E-02-0.424E-03
CGA:   7    -0.128329888823E+04   -0.38745E-03   -0.41252E-03 10640   0.591E-03 0.243E-03
CGA:   8    -0.128329900982E+04   -0.12159E-03   -0.12882E-03 10640   0.231E-03 0.114E-03
CGA:   9    -0.128329897932E+04    0.30502E-04   -0.20699E-03 10640   0.199E-02-0.483E-03
CGA:  10    -0.128329915807E+04   -0.17874E-03   -0.21136E-03 10640   0.270E-03 0.187E-03
CGA:  11    -0.128329925006E+04   -0.91996E-04   -0.13145E-03 10640   0.318E-03-0.232E-03
CGA:  12    -0.128329931682E+04   -0.66759E-04   -0.66185E-04 10640   0.712E-04-0.740E-05
CGA:  13    -0.128329932291E+04   -0.60891E-05   -0.83451E-05 10640   0.207E-04 0.142E-04
CGA:  14    -0.128329933293E+04   -0.10018E-04   -0.10111E-04 10640   0.417E-04-0.772E-06
CGA:  15    -0.128329937558E+04   -0.42647E-04    0.62160E-05 10640   0.686E-04 0.101E-05
CGA:  16    -0.128329946071E+04   -0.85138E-04    0.83863E-05 10640   0.809E-04 0.181E-04
CGA:  17    -0.128329952303E+04   -0.62314E-04    0.15696E-03 10640   0.748E-04-0.167E-04
CGA:  18    -0.128329957924E+04   -0.56209E-04    0.11912E-04 10640   0.996E-04-0.502E-04
CGA:  19    -0.128329960133E+04   -0.22097E-04   -0.18483E-04 10640   0.719E-04-0.383E-04
CGA:  20    -0.128329960132E+04    0.17160E-07   -0.40973E-05 10640   0.348E-04 0.226E-04
   8 F= -.12832996E+04 E0= -.12832996E+04  d E =-.308562E-02  mag=    47.0000
       N       E                     dE             d eps       ncg     rms          ort
SDA:   1    -0.128320329535E+04    0.96306E-01    0.00000E+00 10640   0.256E+00 0.000E+00
CGA:   2    -0.128326788810E+04   -0.64593E-01   -0.64594E-01 10640   0.118E+00 0.577E-03
CGA:   3    -0.128329360877E+04   -0.25721E-01   -0.25708E-01 10640   0.222E-01-0.326E-03
CGA:   4    -0.128329748713E+04   -0.38784E-02   -0.38163E-02 10640   0.463E-02-0.765E-03
CGA:   5    -0.128329836547E+04   -0.87834E-03   -0.88006E-03 10640   0.993E-03 0.356E-04
CGA:   6    -0.128329859420E+04   -0.22873E-03   -0.22754E-03 10640   0.395E-03-0.629E-04
CGA:   7    -0.128329864208E+04   -0.47881E-04   -0.54295E-04 10640   0.100E-03 0.656E-04
CGA:   8    -0.128329866915E+04   -0.27069E-04   -0.27140E-04 10640   0.541E-04 0.849E-05
CGA:   9    -0.128329870268E+04   -0.33529E-04    0.36782E-04 10640   0.403E-04 0.224E-07
CGA:  10    -0.128329871500E+04   -0.12319E-04   -0.13936E-04 10640   0.404E-04-0.153E-04
CGA:  11    -0.128329873290E+04   -0.17900E-04    0.66932E-05 10640   0.275E-04-0.670E-05
CGA:  12    -0.128329874961E+04   -0.16709E-04    0.57638E-05 10640   0.219E-04-0.148E-05
CGA:  13    -0.128329875444E+04   -0.48279E-05   -0.48719E-05 10640   0.184E-04 0.439E-05
CGA:  14    -0.128329876683E+04   -0.12394E-04    0.18093E-04 10640   0.129E-04 0.724E-05
CGA:  15    -0.128329878174E+04   -0.14906E-04    0.31773E-05 10640   0.103E-04 0.535E-05
CGA:  16    -0.128329878533E+04   -0.35906E-05   -0.35852E-05 10640   0.593E-05 0.352E-05
   9 F= -.12832988E+04 E0= -.12832988E+04  d E =0.815987E-03  mag=    47.0000
       N       E                     dE             d eps       ncg     rms          ort
SDA:   1    -0.128211436047E+04    0.11844E+01    0.00000E+00 10640   0.317E+01 0.000E+00
CGA:   2    -0.128288968036E+04   -0.77532E+00   -0.77532E+00 10640   0.155E+01 0.135E-02
CGA:   3    -0.128320892558E+04   -0.31925E+00   -0.31934E+00 10640   0.384E+00 0.503E-03
CGA:   4    -0.128326234585E+04   -0.53420E-01   -0.53322E-01 10640   0.737E-01 0.118E-02
CGA:   5    -0.128327598896E+04   -0.13643E-01   -0.13614E-01 10640   0.200E-01-0.561E-03
CGA:   6    -0.128327968493E+04   -0.36960E-02   -0.37014E-02 10640   0.571E-02 0.134E-03
CGA:   7    -0.128328094999E+04   -0.12651E-02   -0.12619E-02 10640   0.210E-02-0.242E-03
CGA:   8    -0.128328131716E+04   -0.36717E-03   -0.36928E-03 10640   0.781E-03 0.481E-04
CGA:   9    -0.128328157672E+04   -0.25956E-03   -0.34553E-03 10640   0.117E-02-0.421E-03
CGA:  10    -0.128328169452E+04   -0.11781E-03   -0.13348E-03 10640   0.266E-03 0.128E-03
CGA:  11    -0.128328178330E+04   -0.88778E-04   -0.10381E-03 10640   0.259E-03-0.127E-03
CGA:  12    -0.128328184913E+04   -0.65834E-04    0.90023E-03 10640   0.225E-03 0.280E-05
CGA:  13    -0.128328187796E+04   -0.28823E-04   -0.15763E-03 10640   0.850E-03-0.284E-03
CGA:  14    -0.128328207574E+04   -0.19778E-03   -0.19300E-03 10640   0.340E-03-0.137E-03
CGA:  15    -0.128328209593E+04   -0.20196E-04   -0.29052E-04 10640   0.750E-04 0.567E-04
CGA:  16    -0.128328210379E+04   -0.78628E-05   -0.11331E-04 10640   0.592E-04 0.283E-04
CGA:  17    -0.128328212640E+04   -0.22601E-04   -0.38573E-04 10640   0.173E-03-0.707E-04
CGA:  18    -0.128328216413E+04   -0.37733E-04   -0.36428E-04 10640   0.703E-04-0.275E-04
CGA:  19    -0.128328217871E+04   -0.14584E-04   -0.14197E-04 10640   0.570E-04-0.257E-04
CGA:  20    -0.128328201426E+04    0.16445E-03   -0.88719E-04 10640   0.230E-02-0.166E-03
CGA:  21    -0.128328226688E+04   -0.25262E-03   -0.23782E-03 10640   0.154E-03-0.380E-04
CGA:  22    -0.128328228811E+04   -0.21229E-04   -0.25298E-04 10640   0.471E-04 0.148E-04
CGA:  23    -0.128328231116E+04   -0.23047E-04   -0.23571E-04 10640   0.419E-04-0.214E-04
CGA:  24    -0.128328231507E+04   -0.39121E-05   -0.39298E-05 10640   0.199E-04 0.794E-07
  10 F= -.12832823E+04 E0= -.12832823E+04  d E =0.164703E-01  mag=    47.0000
       N       E                     dE             d eps       ncg     rms          ort
SDA:   1    -0.128129942768E+04    0.19829E+01    0.00000E+00 10640   0.557E+01 0.000E+00
CGA:   2    -0.128255626982E+04   -0.12568E+01   -0.12570E+01 10640   0.250E+01 0.311E-02
CGA:   3    -0.128311067312E+04   -0.55440E+00   -0.55472E+00 10640   0.670E+00-0.262E-02
CGA:   4    -0.128320581632E+04   -0.95143E-01   -0.94587E-01 10640   0.126E+00 0.186E-02
CGA:   5    -0.128322865685E+04   -0.22841E-01   -0.22674E-01 10640   0.344E-01-0.101E-02
CGA:   6    -0.128323522643E+04   -0.65696E-02   -0.65245E-02 10640   0.961E-02-0.189E-03
CGA:   7    -0.128323742394E+04   -0.21975E-02   -0.21589E-02 10640   0.315E-02-0.269E-03
CGA:   8    -0.128323802474E+04   -0.60081E-03   -0.59612E-03 10640   0.137E-02-0.214E-04
CGA:   9    -0.128323847991E+04   -0.45516E-03   -0.44394E-03 10640   0.129E-02-0.447E-03
CGA:  10    -0.128323872457E+04   -0.24467E-03   -0.20730E-03 10640   0.771E-03-0.330E-03
CGA:  11    -0.128323876749E+04   -0.42922E-04   -0.38799E-03 10640   0.283E-02-0.104E-02
CGA:  12    -0.128323914365E+04   -0.37615E-03   -0.38918E-03 10640   0.819E-03 0.641E-04
CGA:  13    -0.128323930043E+04   -0.15678E-03   -0.16380E-03 10640   0.221E-03 0.463E-04
CGA:  14    -0.128323937917E+04   -0.78741E-04   -0.78949E-04 10640   0.151E-03 0.513E-04
CGA:  15    -0.128323945168E+04   -0.72505E-04   -0.81740E-04 10640   0.333E-03-0.930E-04
CGA:  16    -0.128323947334E+04   -0.21665E-04   -0.34181E-04 10640   0.425E-04 0.521E-04
CGA:  17    -0.128323948741E+04   -0.14066E-04   -0.14330E-04 10640   0.512E-04 0.609E-05
CGA:  18    -0.128323939479E+04    0.92616E-04   -0.67898E-04 10640   0.131E-02-0.194E-03
CGA:  19    -0.128323953730E+04   -0.14250E-03   -0.16221E-03 10640   0.210E-03 0.826E-04
CGA:  20    -0.128323961812E+04   -0.80819E-04   -0.80943E-04 10640   0.789E-04-0.606E-04
CGA:  21    -0.128323962274E+04   -0.46226E-05   -0.83104E-05 10640   0.386E-04 0.174E-04
  11 F= -.12832396E+04 E0= -.12832396E+04  d E =0.426923E-01  mag=    47.0000
       N       E                     dE             d eps       ncg     rms          ort
SDA:   1    -0.127229589435E+04    0.10944E+02    0.00000E+00 10640   0.341E+02 0.000E+00
CGA:   2    -0.127911260356E+04   -0.68167E+01   -0.68177E+01 10640   0.130E+02 0.230E-01
CGA:   3    -0.128236443519E+04   -0.32518E+01   -0.32544E+01 10640   0.340E+01 0.107E-01
CGA:   4    -0.128289965233E+04   -0.53522E+00   -0.53661E+00 10640   0.514E+00 0.146E-01
CGA:   5    -0.128300663783E+04   -0.10699E+00   -0.10697E+00 10640   0.130E+00-0.280E-03
CGA:   6    -0.128303359173E+04   -0.26954E-01   -0.27045E-01 10640   0.454E-01 0.111E-02
CGA:   7    -0.128304261165E+04   -0.90199E-02   -0.88122E-02 10640   0.142E-01-0.170E-02
CGA:   8    -0.128304553272E+04   -0.29211E-02   -0.29021E-02 10640   0.585E-02-0.185E-03
CGA:   9    -0.128304680606E+04   -0.12733E-02   -0.12960E-02 10640   0.290E-02 0.308E-03
CGA:  10    -0.128304763834E+04   -0.83228E-03   -0.82238E-03 10640   0.212E-02-0.350E-03
CGA:  11    -0.128304795888E+04   -0.32054E-03   -0.34937E-03 10640   0.746E-03 0.269E-03
CGA:  12    -0.128304826471E+04   -0.30583E-03   -0.30808E-03 10640   0.603E-03-0.306E-04
CGA:  13    -0.128304846961E+04   -0.20490E-03   -0.24372E-03 10640   0.161E-02-0.306E-03
CGA:  14    -0.128304855775E+04   -0.88131E-04   -0.15119E-03 10640   0.314E-03 0.314E-03
CGA:  15    -0.128304859960E+04   -0.41851E-04   -0.63572E-04 10640   0.251E-03 0.179E-03
CGA:  16    -0.128304865365E+04   -0.54051E-04   -0.11725E-03 10640   0.194E-02-0.344E-03
CGA:  17    -0.128304873933E+04   -0.85686E-04   -0.15096E-03 10640   0.120E-03 0.318E-03
CGA:  18    -0.128304873285E+04    0.64794E-05   -0.10377E-04 10640   0.831E-04 0.809E-04
CGA:  19    -0.128304878590E+04   -0.53044E-04   -0.40483E-04 10640   0.124E-03 0.580E-04
CGA:  20    -0.128304879423E+04   -0.83318E-05   -0.15038E-04 10640   0.725E-04 0.415E-04
CGA:  21    -0.128304882696E+04   -0.32729E-04   -0.29949E-04 10640   0.121E-03 0.799E-04
CGA:  22    -0.128304885003E+04   -0.23069E-04   -0.21762E-04 10640   0.122E-03-0.132E-04
CGA:  23    -0.128304889531E+04   -0.45279E-04   -0.38145E-04 10640   0.115E-03 0.906E-04
CGA:  24    -0.128304890565E+04   -0.10345E-04   -0.14376E-04 10640   0.500E-04 0.269E-04
CGA:  25    -0.128304892602E+04   -0.20364E-04   -0.18784E-04 10640   0.827E-04 0.439E-04
CGA:  26    -0.128304893947E+04   -0.13453E-04   -0.14764E-04 10640   0.524E-04 0.144E-04
CGA:  27    -0.128304896276E+04   -0.23286E-04   -0.20137E-04 10640   0.653E-04 0.506E-04
CGA:  28    -0.128304897541E+04   -0.12656E-04   -0.13365E-04 10640   0.477E-04 0.112E-04
CGA:  29    -0.128304898742E+04   -0.12011E-04   -0.13345E-04 10640   0.487E-04 0.501E-04
CGA:  30    -0.128304900012E+04   -0.12695E-04   -0.12717E-04 10640   0.499E-04 0.801E-05
CGA:  31    -0.128304902100E+04   -0.20883E-04   -0.18272E-04 10640   0.440E-04 0.518E-04
CGA:  32    -0.128304902611E+04   -0.51036E-05   -0.71304E-05 10640   0.249E-04 0.194E-04
  12 F= -.12830490E+04 E0= -.12830490E+04  d E =0.190597E+00  mag=    47.0000
       N       E                     dE             d eps       ncg     rms          ort
SDA:   1    -0.128062045289E+04    0.24286E+01    0.00000E+00 10640   0.833E+01 0.000E+00
CGA:   2    -0.128223244462E+04   -0.16120E+01   -0.16122E+01 10640   0.302E+01 0.437E-02
CGA:   3    -0.128301082815E+04   -0.77838E+00   -0.77839E+00 10640   0.825E+00-0.290E-02
CGA:   4    -0.128314002592E+04   -0.12920E+00   -0.12904E+00 10640   0.119E+00-0.170E-02
CGA:   5    -0.128316485025E+04   -0.24824E-01   -0.24794E-01 10640   0.323E-01-0.669E-03
CGA:   6    -0.128317116544E+04   -0.63152E-02   -0.63105E-02 10640   0.124E-01-0.546E-04
CGA:   7    -0.128317328444E+04   -0.21190E-02   -0.21120E-02 10640   0.331E-02-0.791E-04
CGA:   8    -0.128317398326E+04   -0.69882E-03   -0.70191E-03 10640   0.114E-02 0.115E-03
CGA:   9    -0.128317432421E+04   -0.34095E-03   -0.58456E-03 10640   0.277E-02-0.943E-03
CGA:  10    -0.128317457793E+04   -0.25372E-03   -0.28997E-03 10640   0.408E-03 0.258E-03
CGA:  11    -0.128317471186E+04   -0.13393E-03   -0.15827E-03 10640   0.390E-03-0.223E-03
CGA:  12    -0.128317480338E+04   -0.91519E-04   -0.87014E-04 10640   0.278E-03-0.161E-03
CGA:  13    -0.128317483942E+04   -0.36038E-04   -0.33465E-04 10640   0.147E-03-0.577E-04
CGA:  14    -0.128317487553E+04   -0.36114E-04   -0.37996E-04 10640   0.170E-03-0.238E-04
CGA:  15    -0.128317497156E+04   -0.96025E-04    0.53095E-04 10640   0.123E-03-0.417E-04
CGA:  16    -0.128317503960E+04   -0.68044E-04    0.25577E-04 10640   0.932E-04-0.234E-05
CGA:  17    -0.128317504993E+04   -0.10329E-04   -0.13082E-04 10640   0.282E-04 0.255E-04
CGA:  18    -0.128317505133E+04   -0.13985E-05   -0.39131E-05 10640   0.148E-04 0.183E-04
CGA:  19    -0.128317499939E+04    0.51937E-04   -0.28189E-04 10640   0.763E-03-0.592E-04
CGA:  20    -0.128317503323E+04   -0.33838E-04   -0.66929E-04 10640   0.496E-04 0.101E-03
CGA:  21    -0.128317503094E+04    0.22949E-05   -0.56848E-05 10640   0.211E-04 0.252E-04
CGA:  22    -0.128317503981E+04   -0.88699E-05   -0.10188E-04 10640   0.627E-04-0.162E-04
  13 F= -.12831750E+04 E0= -.12831750E+04  d E =-.126014E+00  mag=    47.0000
       N       E                     dE             d eps       ncg     rms          ort
SDA:   1    -0.128278281433E+04    0.39222E+00    0.00000E+00 10640   0.124E+01 0.000E+00
CGA:   2    -0.128303278627E+04   -0.24997E+00   -0.25013E+00 10640   0.476E+00 0.109E-02
CGA:   3    -0.128315299241E+04   -0.12021E+00   -0.12012E+00 10640   0.120E+00-0.937E-03
CGA:   4    -0.128317205854E+04   -0.19066E-01   -0.18875E-01 10640   0.187E-01-0.884E-03
CGA:   5    -0.128317584385E+04   -0.37853E-02   -0.37759E-02 10640   0.520E-02-0.424E-04
CGA:   6    -0.128317691313E+04   -0.10693E-02   -0.10225E-02 10640   0.224E-02-0.294E-03
CGA:   7    -0.128317722507E+04   -0.31194E-03   -0.33329E-03 10640   0.481E-03 0.117E-03
CGA:   8    -0.128317734564E+04   -0.12057E-03   -0.12217E-03 10640   0.191E-03 0.167E-04
CGA:   9    -0.128317726407E+04    0.81574E-04   -0.17915E-03 10640   0.221E-02-0.455E-03
CGA:  10    -0.128317745696E+04   -0.19290E-03   -0.23886E-03 10640   0.265E-03 0.187E-03
CGA:  11    -0.128317754574E+04   -0.88774E-04   -0.85864E-04 10640   0.112E-03-0.576E-04
CGA:  12    -0.128317757640E+04   -0.30665E-04   -0.38650E-04 10640   0.218E-03-0.856E-04
CGA:  13    -0.128317758583E+04   -0.94227E-05   -0.22320E-04 10640   0.354E-04 0.524E-04
  14 F= -.12831776E+04 E0= -.12831776E+04  d E =-.254602E-02  mag=    47.0000
       N       E                     dE             d eps       ncg     rms          ort
SDA:   1    -0.128297501294E+04    0.20256E+00    0.00000E+00 10640   0.529E+00 0.000E+00
CGA:   2    -0.128310959088E+04   -0.13458E+00   -0.13465E+00 10640   0.246E+00 0.940E-03
CGA:   3    -0.128316414235E+04   -0.54551E-01   -0.54428E-01 10640   0.433E-01-0.127E-02
CGA:   4    -0.128317144655E+04   -0.73042E-02   -0.72372E-02 10640   0.875E-02-0.431E-03
CGA:   5    -0.128317321316E+04   -0.17666E-02   -0.17363E-02 10640   0.244E-02-0.267E-03
CGA:   6    -0.128317369302E+04   -0.47985E-03   -0.45559E-03 10640   0.109E-02-0.209E-03
CGA:   7    -0.128317385441E+04   -0.16140E-03   -0.16423E-03 10640   0.239E-03 0.226E-04
CGA:   8    -0.128317393298E+04   -0.78564E-04   -0.80913E-04 10640   0.166E-03-0.620E-04
CGA:   9    -0.128317394536E+04   -0.12377E-04   -0.74464E-04 10640   0.627E-03-0.200E-03
CGA:  10    -0.128317404541E+04   -0.10006E-03   -0.88240E-04 10640   0.132E-03-0.679E-04
CGA:  11    -0.128317407809E+04   -0.32683E-04   -0.32133E-04 10640   0.415E-04-0.176E-04
CGA:  12    -0.128317410396E+04   -0.25868E-04    0.28219E-04 10640   0.329E-04-0.764E-05
CGA:  13    -0.128317410583E+04   -0.18648E-05   -0.36686E-05 10640   0.123E-04 0.110E-04
  15 F= -.12831741E+04 E0= -.12831741E+04  d E =0.348000E-02  mag=    47.0000
       N       E                     dE             d eps       ncg     rms          ort
SDA:   1    -0.126931769035E+04    0.13856E+02    0.00000E+00 10640   0.355E+02 0.000E+00
CGA:   2    -0.127896391827E+04   -0.96462E+01   -0.96463E+01 10640   0.167E+02 0.726E-03
CGA:   3    -0.128252976696E+04   -0.35658E+01   -0.35654E+01 10640   0.260E+01-0.159E-01
CGA:   4    -0.128298645110E+04   -0.45668E+00   -0.45645E+00 10640   0.526E+00-0.285E-02
CGA:   5    -0.128309631254E+04   -0.10986E+00   -0.10979E+00 10640   0.113E+00-0.108E-02
CGA:   6    -0.128312524765E+04   -0.28935E-01   -0.28882E-01 10640   0.333E-01-0.310E-02
CGA:   7    -0.128313253486E+04   -0.72872E-02   -0.72155E-02 10640   0.142E-01-0.146E-02
CGA:   8    -0.128313541204E+04   -0.28772E-02   -0.28152E-02 10640   0.790E-02-0.949E-03
CGA:   9    -0.128313753610E+04   -0.21241E-02   -0.22097E-02 10640   0.594E-02-0.252E-02
CGA:  10    -0.128313860617E+04   -0.10701E-02   -0.10575E-02 10640   0.390E-02-0.193E-02
CGA:  11    -0.128313932971E+04   -0.72354E-03   -0.85152E-03 10640   0.358E-02-0.228E-02
CGA:  12    -0.128313980151E+04   -0.47179E-03   -0.49253E-03 10640   0.128E-02 0.164E-03
CGA:  13    -0.128314013813E+04   -0.33663E-03   -0.33815E-03 10640   0.553E-03 0.131E-03
CGA:  14    -0.128314034360E+04   -0.20546E-03   -0.20062E-03 10640   0.445E-03 0.729E-04
CGA:  15    -0.128314048929E+04   -0.14569E-03   -0.14878E-03 10640   0.413E-03-0.106E-03
CGA:  16    -0.128314057972E+04   -0.90433E-04   -0.90069E-04 10640   0.214E-03 0.184E-04
CGA:  17    -0.128314065663E+04   -0.76907E-04   -0.74141E-04 10640   0.250E-03 0.427E-04
CGA:  18    -0.128314075463E+04   -0.98001E-04   -0.96773E-04 10640   0.306E-03 0.226E-04
CGA:  19    -0.128314088583E+04   -0.13120E-03   -0.12589E-03 10640   0.261E-03 0.474E-04
CGA:  20    -0.128314100124E+04   -0.11542E-03   -0.14072E-03 10640   0.606E-03-0.140E-03
CGA:  21    -0.128314103908E+04   -0.37842E-04   -0.61240E-04 10640   0.105E-03 0.126E-03
CGA:  22    -0.128314104558E+04   -0.64920E-05   -0.16568E-04 10640   0.708E-04 0.677E-04
CGA:  23    -0.128314105888E+04   -0.13304E-04   -0.14463E-04 10640   0.492E-04 0.171E-04
CGA:  24    -0.128314105597E+04    0.29096E-05   -0.55294E-05 10640   0.298E-04 0.474E-04
  16 F= -.12831411E+04 E0= -.12831411E+04  d E =0.330499E-01  mag=    47.0000
       N       E                     dE             d eps       ncg     rms          ort
SDA:   1    -0.127221997269E+04    0.10921E+02    0.00000E+00 10640   0.287E+02 0.000E+00
CGA:   2    -0.127962944280E+04   -0.74095E+01   -0.74095E+01 10640   0.136E+02-0.145E-01
CGA:   3    -0.128261729933E+04   -0.29879E+01   -0.29880E+01 10640   0.219E+01 0.338E-02
CGA:   4    -0.128298737494E+04   -0.37008E+00   -0.37010E+00 10640   0.443E+00-0.215E-02
CGA:   5    -0.128307516118E+04   -0.87786E-01   -0.88009E-01 10640   0.114E+00 0.557E-02
CGA:   6    -0.128309749063E+04   -0.22329E-01   -0.22203E-01 10640   0.495E-01-0.267E-02
CGA:   7    -0.128310589640E+04   -0.84058E-02   -0.83046E-02 10640   0.128E-01-0.133E-02
CGA:   8    -0.128310905165E+04   -0.31552E-02   -0.31664E-02 10640   0.537E-02-0.629E-03
CGA:   9    -0.128311056379E+04   -0.15121E-02   -0.16200E-02 10640   0.475E-02-0.134E-02
CGA:  10    -0.128311122260E+04   -0.65880E-03   -0.63245E-03 10640   0.168E-02-0.406E-03
CGA:  11    -0.128311163249E+04   -0.40989E-03   -0.41549E-03 10640   0.779E-03-0.168E-03
CGA:  12    -0.128311075094E+04    0.88154E-03   -0.60104E-03 10640   0.129E-01-0.239E-02
CGA:  13    -0.128311186015E+04   -0.11092E-02   -0.13191E-02 10640   0.991E-03 0.136E-02
CGA:  14    -0.128311204218E+04   -0.18203E-03   -0.20830E-03 10640   0.460E-03 0.365E-03
CGA:  15    -0.128311219755E+04   -0.15537E-03   -0.15363E-03 10640   0.277E-03-0.118E-03
CGA:  16    -0.128311219758E+04   -0.28271E-07   -0.20137E-04 10640   0.182E-03 0.126E-03
CGA:  17    -0.128311219117E+04    0.64089E-05   -0.20291E-04 10640   0.104E-03 0.154E-03
CGA:  18    -0.128311221295E+04   -0.21778E-04   -0.23043E-04 10640   0.525E-04 0.635E-04
CGA:  19    -0.128311221481E+04   -0.18625E-05   -0.68959E-05 10640   0.437E-04 0.461E-04
  17 F= -.12831122E+04 E0= -.12831122E+04  d E =0.288412E-01  mag=    47.0000
       N       E                     dE             d eps       ncg     rms          ort
SDA:   1    -0.120529457618E+04    0.77818E+02    0.00000E+00 10640   0.211E+03 0.000E+00
CGA:   2    -0.125724119080E+04   -0.51947E+02   -0.51931E+02 10640   0.974E+02 0.532E+00
CGA:   3    -0.127917792370E+04   -0.21937E+02   -0.21934E+02 10640   0.175E+02-0.211E+00
CGA:   4    -0.128202972962E+04   -0.28518E+01   -0.28637E+01 10640   0.338E+01 0.205E-01
CGA:   5    -0.128270803910E+04   -0.67831E+00   -0.67821E+00 10640   0.931E+00 0.177E-01
CGA:   6    -0.128288359161E+04   -0.17555E+00   -0.17528E+00 10640   0.386E+00-0.897E-02
CGA:   7    -0.128295327752E+04   -0.69686E-01   -0.69174E-01 10640   0.114E+00-0.121E-01
CGA:   8    -0.128297794596E+04   -0.24668E-01   -0.24678E-01 10640   0.543E-01-0.443E-02
CGA:   9    -0.128299051055E+04   -0.12565E-01   -0.12718E-01 10640   0.337E-01-0.699E-02
CGA:  10    -0.128299717788E+04   -0.66673E-02   -0.66843E-02 10640   0.131E-01-0.362E-02
CGA:  11    -0.128300034479E+04   -0.31669E-02   -0.33883E-02 10640   0.815E-02-0.330E-02
CGA:  12    -0.128300153554E+04   -0.11908E-02   -0.11239E-02 10640   0.357E-02-0.157E-02
CGA:  13    -0.128300238978E+04   -0.85423E-03   -0.94641E-03 10640   0.291E-02-0.885E-03
CGA:  14    -0.128300275584E+04   -0.36607E-03   -0.37813E-03 10640   0.128E-02 0.217E-03
CGA:  15    -0.128300312766E+04   -0.37181E-03   -0.35599E-03 10640   0.779E-03 0.477E-03
CGA:  16    -0.128300332030E+04   -0.19264E-03   -0.20371E-03 10640   0.538E-03 0.290E-03
CGA:  17    -0.128300339156E+04   -0.71264E-04   -0.10724E-03 10640   0.298E-03 0.441E-03
CGA:  18    -0.128300339745E+04   -0.58906E-05   -0.30776E-04 10640   0.183E-03 0.209E-03
CGA:  19    -0.128300340515E+04   -0.76996E-05   -0.22656E-04 10640   0.148E-03 0.162E-03
CGA:  20    -0.128300340981E+04   -0.46611E-05   -0.17567E-04 10640   0.131E-03 0.138E-03
CGA:  21    -0.128300341245E+04   -0.26318E-05   -0.14627E-04 10640   0.121E-03 0.125E-03
CGA:  22    -0.128300341419E+04   -0.17405E-05   -0.12909E-04 10640   0.114E-03 0.117E-03
CGA:  23    -0.128300341559E+04   -0.14024E-05   -0.11776E-04 10640   0.108E-03 0.110E-03
CGA:  24    -0.128300341681E+04   -0.12201E-05   -0.10894E-04 10640   0.103E-03 0.105E-03
CGA:  25    -0.128300341797E+04   -0.11636E-05   -0.10194E-04 10640   0.990E-04 0.101E-03
  18 F= -.12830034E+04 E0= -.12830034E+04  d E =0.108797E+00  mag=    47.0000
       N       E                     dE             d eps       ncg     rms          ort
SDA:   1    -0.123136632312E+04    0.51637E+02    0.00000E+00 10640   0.138E+03 0.000E+00
CGA:   2    -0.126627379495E+04   -0.34907E+02   -0.34895E+02 10640   0.647E+02 0.137E+00
CGA:   3    -0.128051011461E+04   -0.14236E+02   -0.14239E+02 10640   0.112E+02-0.624E-01
CGA:   4    -0.128234759807E+04   -0.18375E+01   -0.18383E+01 10640   0.228E+01 0.114E-01
CGA:   5    -0.128279307885E+04   -0.44548E+00   -0.44536E+00 10640   0.619E+00 0.179E-01
CGA:   6    -0.128291099521E+04   -0.11792E+00   -0.11795E+00 10640   0.239E+00-0.868E-02
CGA:   7    -0.128295524069E+04   -0.44245E-01   -0.44269E-01 10640   0.753E-01-0.755E-02
CGA:   8    -0.128297037651E+04   -0.15136E-01   -0.15255E-01 10640   0.403E-01-0.486E-02
CGA:   9    -0.128297849882E+04   -0.81223E-02   -0.82684E-02 10640   0.207E-01-0.429E-02
CGA:  10    -0.128298318571E+04   -0.46869E-02   -0.50933E-02 10640   0.124E-01-0.461E-02
CGA:  11    -0.128298512009E+04   -0.19344E-02   -0.19562E-02 10640   0.479E-02-0.189E-02
CGA:  12    -0.128298617456E+04   -0.10545E-02   -0.13188E-02 10640   0.410E-02-0.199E-02
CGA:  13    -0.128298657168E+04   -0.39713E-03   -0.38511E-03 10640   0.182E-02-0.304E-03
CGA:  14    -0.128298701936E+04   -0.44768E-03   -0.43970E-03 10640   0.133E-02 0.124E-03
CGA:  15    -0.128298725064E+04   -0.23128E-03   -0.23656E-03 10640   0.780E-03 0.156E-03
CGA:  16    -0.128298740064E+04   -0.15000E-03   -0.15722E-03 10640   0.477E-03 0.389E-03
CGA:  17    -0.128298747523E+04   -0.74587E-04   -0.95539E-04 10640   0.236E-03 0.326E-03
CGA:  18    -0.128298750808E+04   -0.32851E-04   -0.37091E-04 10640   0.163E-03 0.113E-03
CGA:  19    -0.128298752135E+04   -0.13271E-04   -0.27913E-04 10640   0.112E-03 0.189E-03
CGA:  20    -0.128298752244E+04   -0.10844E-05   -0.10165E-04 10640   0.913E-04 0.921E-04
  19 F= -.12829875E+04 E0= -.12829875E+04  d E =0.158955E-01  mag=    47.0000
       N       E                     dE             d eps       ncg     rms          ort
SDA:   1    -0.124754845651E+04    0.35439E+02    0.00000E+00 10640   0.114E+03 0.000E+00
CGA:   2    -0.126968844736E+04   -0.22140E+02   -0.22146E+02 10640   0.430E+02-0.161E+00
CGA:   3    -0.128012477094E+04   -0.10436E+02   -0.10402E+02 10640   0.126E+02 0.371E+00
CGA:   4    -0.128205661132E+04   -0.19318E+01   -0.19252E+01 10640   0.213E+01-0.211E-01
CGA:   5    -0.128243703017E+04   -0.38042E+00   -0.38046E+00 10640   0.692E+00 0.216E-02
CGA:   6    -0.128255142436E+04   -0.11439E+00   -0.11433E+00 10640   0.219E+00-0.139E-02
CGA:   7    -0.128259374660E+04   -0.42322E-01   -0.42322E-01 10640   0.680E-01 0.528E-03
CGA:   8    -0.128260773428E+04   -0.13988E-01   -0.14098E-01 10640   0.299E-01-0.435E-02
CGA:   9    -0.128261393677E+04   -0.62025E-02   -0.61920E-02 10640   0.132E-01 0.340E-03
CGA:  10    -0.128261768652E+04   -0.37498E-02   -0.38841E-02 10640   0.922E-02-0.124E-02
CGA:  11    -0.128261956001E+04   -0.18735E-02   -0.19416E-02 10640   0.675E-02-0.160E-02
CGA:  12    -0.128262090722E+04   -0.13472E-02   -0.14123E-02 10640   0.402E-02-0.106E-02
CGA:  13    -0.128262187646E+04   -0.96924E-03   -0.13265E-02 10640   0.721E-02-0.182E-02
CGA:  14    -0.128262262131E+04   -0.74485E-03   -0.73363E-03 10640   0.374E-02-0.581E-03
CGA:  15    -0.128262335524E+04   -0.73393E-03   -0.73036E-03 10640   0.425E-02 0.448E-03
CGA:  16    -0.128262434252E+04   -0.98728E-03   -0.98637E-03 10640   0.211E-02 0.335E-03
CGA:  17    -0.128262490636E+04   -0.56384E-03   -0.55630E-03 10640   0.175E-02 0.187E-03
CGA:  18    -0.128262522708E+04   -0.32072E-03   -0.33783E-03 10640   0.887E-03 0.586E-03
CGA:  19    -0.128262539253E+04   -0.16545E-03   -0.18530E-03 10640   0.468E-03 0.403E-03
CGA:  20    -0.128262549945E+04   -0.10692E-03   -0.11626E-03 10640   0.315E-03 0.289E-03
CGA:  21    -0.128262553170E+04   -0.32251E-04   -0.41906E-04 10640   0.149E-03 0.141E-03
CGA:  22    -0.128262555552E+04   -0.23818E-04   -0.31666E-04 10640   0.137E-03 0.152E-03
CGA:  23    -0.128262557706E+04   -0.21546E-04   -0.23475E-04 10640   0.101E-03 0.804E-04
CGA:  24    -0.128262558397E+04   -0.69072E-05   -0.12727E-04 10640   0.860E-04 0.856E-04
CGA:  25    -0.128262559855E+04   -0.14577E-04   -0.15457E-04 10640   0.782E-04 0.798E-04
CGA:  26    -0.128262560495E+04   -0.63993E-05   -0.10529E-04 10640   0.728E-04 0.741E-04
CGA:  27    -0.128262561593E+04   -0.10978E-04   -0.12283E-04 10640   0.676E-04 0.693E-04
CGA:  28    -0.128262562283E+04   -0.69000E-05   -0.97002E-05 10640   0.636E-04 0.650E-04
CGA:  29    -0.128262563211E+04   -0.92830E-05   -0.10485E-04 10640   0.598E-04 0.612E-04
  20 F= -.12826256E+04 E0= -.12826256E+04  d E =0.361890E+00  mag=    47.0000
       N       E                     dE             d eps       ncg     rms          ort
SDA:   1    -0.127185371747E+04    0.10772E+02    0.00000E+00 10640   0.372E+02 0.000E+00
CGA:   2    -0.127894952110E+04   -0.70958E+01   -0.70958E+01 10640   0.133E+02 0.859E-02
CGA:   3    -0.128230442306E+04   -0.33549E+01   -0.33523E+01 10640   0.400E+01 0.244E-01
CGA:   4    -0.128289921481E+04   -0.59479E+00   -0.59468E+00 10640   0.691E+00 0.103E-01
CGA:   5    -0.128301428070E+04   -0.11507E+00   -0.11512E+00 10640   0.243E+00 0.103E-02
CGA:   6    -0.128305506430E+04   -0.40784E-01   -0.40765E-01 10640   0.645E-01-0.578E-03
CGA:   7    -0.128306951439E+04   -0.14450E-01   -0.14494E-01 10640   0.177E-01-0.967E-03
CGA:   8    -0.128307320532E+04   -0.36909E-02   -0.37143E-02 10640   0.916E-02-0.775E-03
CGA:   9    -0.128307506324E+04   -0.18579E-02   -0.19031E-02 10640   0.544E-02-0.142E-02
CGA:  10    -0.128307618620E+04   -0.11230E-02   -0.11961E-02 10640   0.296E-02-0.990E-03
CGA:  11    -0.128307673034E+04   -0.54414E-03   -0.90360E-03 10640   0.529E-02-0.197E-02
CGA:  12    -0.128307722466E+04   -0.49433E-03   -0.51086E-03 10640   0.812E-03 0.183E-03
CGA:  13    -0.128307747612E+04   -0.25146E-03   -0.45500E-03 10640   0.165E-02-0.587E-03
CGA:  14    -0.128307776279E+04   -0.28667E-03   -0.27923E-03 10640   0.562E-03-0.172E-03
CGA:  15    -0.128307786652E+04   -0.10373E-03   -0.10323E-03 10640   0.271E-03-0.995E-04
CGA:  16    -0.128307782525E+04    0.41275E-04   -0.17388E-03 10640   0.311E-02-0.377E-03
CGA:  17    -0.128307818159E+04   -0.35634E-03   -0.31668E-03 10640   0.284E-03-0.293E-03
CGA:  18    -0.128307824321E+04   -0.61620E-04   -0.62132E-04 10640   0.220E-03-0.504E-04
CGA:  19    -0.128307819706E+04    0.46151E-04   -0.12823E-03 10640   0.175E-02-0.364E-03
CGA:  20    -0.128307838164E+04   -0.18458E-03   -0.18257E-03 10640   0.267E-03-0.875E-05
CGA:  21    -0.128307846678E+04   -0.85139E-04   -0.92023E-04 10640   0.205E-03-0.704E-04
CGA:  22    -0.128307847921E+04   -0.12432E-04   -0.16613E-04 10640   0.597E-04 0.295E-04
CGA:  23    -0.128307849437E+04   -0.15161E-04   -0.14836E-04 10640   0.112E-03-0.113E-04
CGA:  24    -0.128307855491E+04   -0.60540E-04    0.30379E-04 10640   0.208E-03-0.850E-05
CGA:  25    -0.128307865419E+04   -0.99281E-04    0.40939E-03 10640   0.385E-03-0.170E-03
CGA:  26    -0.128307867963E+04   -0.25435E-04   -0.40674E-04 10640   0.106E-03 0.110E-03
CGA:  27    -0.128307869532E+04   -0.15695E-04   -0.20199E-04 10640   0.366E-04 0.505E-04
CGA:  28    -0.128307870730E+04   -0.11980E-04   -0.18496E-04 10640   0.132E-03-0.599E-04
CGA:  29    -0.128307871213E+04   -0.48289E-05   -0.10146E-04 10640   0.194E-04 0.331E-04
  21 F= -.12830787E+04 E0= -.12830787E+04  d E =-.453080E+00  mag=    47.0000
       N       E                     dE             d eps       ncg     rms          ort
SDA:   1    -0.128224427885E+04    0.83443E+00    0.00000E+00 10640   0.262E+01 0.000E+00
CGA:   2    -0.128278837898E+04   -0.54410E+00   -0.54408E+00 10640   0.105E+01-0.959E-03
CGA:   3    -0.128304443370E+04   -0.25605E+00   -0.25602E+00 10640   0.264E+00 0.116E-02
CGA:   4    -0.128308384878E+04   -0.39415E-01   -0.39496E-01 10640   0.490E-01 0.130E-02
CGA:   5    -0.128309232900E+04   -0.84802E-02   -0.84701E-02 10640   0.170E-01-0.217E-03
CGA:   6    -0.128309507486E+04   -0.27459E-02   -0.27511E-02 10640   0.452E-02 0.124E-03
CGA:   7    -0.128309615903E+04   -0.10842E-02   -0.10922E-02 10640   0.141E-02-0.333E-03
CGA:   8    -0.128309641043E+04   -0.25140E-03   -0.25230E-03 10640   0.604E-03 0.399E-04
CGA:   9    -0.128309657859E+04   -0.16816E-03   -0.21885E-03 10640   0.101E-02-0.370E-03
CGA:  10    -0.128309666619E+04   -0.87603E-04   -0.98454E-04 10640   0.176E-03 0.892E-04
CGA:  11    -0.128309672070E+04   -0.54509E-04   -0.83709E-04 10640   0.275E-03-0.132E-03
CGA:  12    -0.128309679301E+04   -0.72314E-04   -0.79018E-04 10640   0.161E-03-0.111E-03
CGA:  13    -0.128309680945E+04   -0.16439E-04   -0.16347E-04 10640   0.101E-03-0.142E-05
CGA:  14    -0.128309680407E+04    0.53819E-05   -0.79500E-04 10640   0.663E-03-0.151E-03
CGA:  15    -0.128309696390E+04   -0.15983E-03   -0.15242E-03 10640   0.343E-03-0.285E-03
CGA:  16    -0.128309696559E+04   -0.16895E-05   -0.14767E-04 10640   0.136E-03 0.735E-04
  22 F= -.12830970E+04 E0= -.12830970E+04  d E =-.182535E-01  mag=    47.0000
       N       E                     dE             d eps       ncg     rms          ort
SDA:   1    -0.128160328362E+04    0.14937E+01    0.00000E+00 10640   0.412E+01 0.000E+00
CGA:   2    -0.128259941682E+04   -0.99613E+00   -0.99615E+00 10640   0.189E+01-0.282E-02
CGA:   3    -0.128302844041E+04   -0.42902E+00   -0.42905E+00 10640   0.337E+00 0.218E-02
CGA:   4    -0.128308411581E+04   -0.55675E-01   -0.55645E-01 10640   0.644E-01-0.402E-03
CGA:   5    -0.128309714080E+04   -0.13025E-01   -0.13050E-01 10640   0.149E-01 0.880E-03
CGA:   6    -0.128310059145E+04   -0.34506E-02   -0.34488E-02 10640   0.566E-02-0.722E-03
CGA:   7    -0.128310152275E+04   -0.93130E-03   -0.93802E-03 10640   0.155E-02 0.126E-03
CGA:   8    -0.128310196508E+04   -0.44233E-03   -0.46726E-03 10640   0.106E-02-0.364E-03
CGA:   9    -0.128310213516E+04   -0.17008E-03   -0.16848E-03 10640   0.565E-03-0.662E-04
CGA:  10    -0.128310227822E+04   -0.14306E-03   -0.15925E-03 10640   0.496E-03-0.229E-03
CGA:  11    -0.128310234473E+04   -0.66501E-04   -0.63990E-04 10640   0.323E-03-0.153E-03
CGA:  12    -0.128310240089E+04   -0.56165E-04   -0.84494E-04 10640   0.357E-03-0.194E-03
CGA:  13    -0.128310246886E+04   -0.67972E-04   -0.68754E-04 10640   0.136E-03 0.168E-04
CGA:  14    -0.128310249723E+04   -0.28367E-04   -0.28658E-04 10640   0.684E-04 0.833E-05
CGA:  15    -0.128310251712E+04   -0.19893E-04   -0.19185E-04 10640   0.369E-04 0.247E-04
CGA:  16    -0.128310252758E+04   -0.10457E-04   -0.10751E-04 10640   0.255E-04 0.127E-04
CGA:  17    -0.128310253482E+04   -0.72431E-05   -0.75380E-05 10640   0.143E-04 0.181E-04
  23 F= -.12831025E+04 E0= -.12831025E+04  d E =-.556923E-02  mag=    47.0000
       N       E                     dE             d eps       ncg     rms          ort
SDA:   1    -0.123937518990E+04    0.43727E+02    0.00000E+00 10640   0.114E+03 0.000E+00
CGA:   2    -0.126932939388E+04   -0.29954E+02   -0.29953E+02 10640   0.541E+02 0.127E-01
CGA:   3    -0.128109959865E+04   -0.11770E+02   -0.11771E+02 10640   0.855E+01-0.171E-03
CGA:   4    -0.128255504923E+04   -0.14555E+01   -0.14560E+01 10640   0.179E+01 0.195E-02
CGA:   5    -0.128290740172E+04   -0.35235E+00   -0.35254E+00 10640   0.499E+00 0.725E-02
CGA:   6    -0.128299682148E+04   -0.89420E-01   -0.89173E-01 10640   0.211E+00-0.605E-02
CGA:   7    -0.128303457192E+04   -0.37750E-01   -0.37411E-01 10640   0.557E-01-0.619E-02
CGA:   8    -0.128304835901E+04   -0.13787E-01   -0.13940E-01 10640   0.274E-01-0.471E-02
CGA:   9    -0.128305453628E+04   -0.61773E-02   -0.62609E-02 10640   0.172E-01-0.361E-02
CGA:  10    -0.128305810019E+04   -0.35639E-02   -0.36289E-02 10640   0.947E-02-0.426E-02
CGA:  11    -0.128305971183E+04   -0.16116E-02   -0.16004E-02 10640   0.483E-02-0.254E-02
CGA:  12    -0.128306058212E+04   -0.87029E-03   -0.10286E-02 10640   0.430E-02-0.253E-02
CGA:  13    -0.128306106407E+04   -0.48195E-03   -0.50188E-03 10640   0.114E-02 0.183E-03
CGA:  14    -0.128306141980E+04   -0.35572E-03   -0.35463E-03 10640   0.615E-03 0.148E-04
CGA:  15    -0.128306159148E+04   -0.17168E-03   -0.17405E-03 10640   0.586E-03-0.469E-04
CGA:  16    -0.128306176443E+04   -0.17295E-03   -0.23867E-03 10640   0.598E-03-0.317E-03
CGA:  17    -0.128306188504E+04   -0.12061E-03   -0.12004E-03 10640   0.290E-03-0.123E-04
CGA:  18    -0.128306197303E+04   -0.87981E-04   -0.10078E-03 10640   0.303E-03-0.112E-03
CGA:  19    -0.128306123817E+04    0.73486E-03   -0.39682E-03 10640   0.617E-02-0.772E-03
CGA:  20    -0.128306195142E+04   -0.71326E-03   -0.68345E-03 10640   0.122E-02-0.125E-03
CGA:  21    -0.128306235627E+04   -0.40484E-03   -0.41142E-03 10640   0.611E-03 0.749E-04
CGA:  22    -0.128306243752E+04   -0.81257E-04   -0.91897E-04 10640   0.992E-04 0.387E-04
CGA:  23    -0.128306245115E+04   -0.13622E-04   -0.22323E-04 10640   0.348E-04 0.431E-04
CGA:  24    -0.128306245630E+04   -0.51515E-05   -0.10330E-04 10640   0.208E-04 0.263E-04
  24 F= -.12830625E+04 E0= -.12830625E+04  d E =0.400785E-01  mag=    47.0000
       N       E                     dE             d eps       ncg     rms          ort
SDA:   1    -0.123652899000E+04    0.46533E+02    0.00000E+00 10640   0.142E+03 0.000E+00
CGA:   2    -0.126594053314E+04   -0.29412E+02   -0.29386E+02 10640   0.569E+02 0.574E+00
CGA:   3    -0.127983290781E+04   -0.13892E+02   -0.13926E+02 10640   0.144E+02 0.560E-01
CGA:   4    -0.128205566509E+04   -0.22228E+01   -0.22044E+01 10640   0.235E+01 0.144E+00
CGA:   5    -0.128251416147E+04   -0.45850E+00   -0.46071E+00 10640   0.782E+00-0.364E-02
CGA:   6    -0.128264106473E+04   -0.12690E+00   -0.12564E+00 10640   0.259E+00 0.753E-02
CGA:   7    -0.128269311735E+04   -0.52053E-01   -0.51749E-01 10640   0.745E-01-0.153E-02
CGA:   8    -0.128270929119E+04   -0.16174E-01   -0.15868E-01 10640   0.342E-01-0.261E-02
CGA:   9    -0.128271655027E+04   -0.72591E-02   -0.72736E-02 10640   0.151E-01 0.269E-03
CGA:  10    -0.128272084810E+04   -0.42978E-02   -0.42579E-02 10640   0.877E-02-0.948E-03
CGA:  11    -0.128272262777E+04   -0.17797E-02   -0.17269E-02 10640   0.496E-02-0.467E-03
CGA:  12    -0.128272376351E+04   -0.11357E-02   -0.11072E-02 10640   0.249E-02-0.354E-03
CGA:  13    -0.128272456664E+04   -0.80312E-03   -0.86731E-03 10640   0.395E-02-0.962E-03
CGA:  14    -0.128272495300E+04   -0.38637E-03   -0.40494E-03 10640   0.195E-02 0.131E-03
CGA:  15    -0.128272522178E+04   -0.26878E-03   -0.33853E-03 10640   0.186E-02 0.512E-03
CGA:  16    -0.128272571221E+04   -0.49042E-03   -0.52017E-03 10640   0.112E-02 0.383E-03
CGA:  17    -0.128272606067E+04   -0.34846E-03   -0.34690E-03 10640   0.123E-02-0.469E-04
CGA:  18    -0.128272618131E+04   -0.12064E-03   -0.18043E-03 10640   0.813E-03 0.427E-03
CGA:  19    -0.128272624679E+04   -0.65486E-04   -0.13360E-03 10640   0.433E-03 0.415E-03
CGA:  20    -0.128272637784E+04   -0.13104E-03   -0.20362E-03 10640   0.178E-02-0.377E-03
CGA:  21    -0.128272644733E+04   -0.69491E-04   -0.14146E-03 10640   0.136E-03 0.356E-03
CGA:  22    -0.128272644065E+04    0.66833E-05   -0.11430E-04 10640   0.789E-04 0.877E-04
CGA:  23    -0.128272647771E+04   -0.37060E-04   -0.30574E-04 10640   0.817E-04 0.527E-04
CGA:  24    -0.128272648182E+04   -0.41157E-05   -0.10792E-04 10640   0.614E-04 0.476E-04
CGA:  25    -0.128272650513E+04   -0.23308E-04   -0.20780E-04 10640   0.105E-03 0.340E-04
CGA:  26    -0.128272651012E+04   -0.49873E-05   -0.10762E-04 10640   0.515E-04 0.348E-04
CGA:  27    -0.128272652178E+04   -0.11660E-04   -0.14461E-04 10640   0.857E-04 0.564E-04
CGA:  28    -0.128272654026E+04   -0.18482E-04   -0.17414E-04 10640   0.132E-03-0.194E-04
CGA:  29    -0.128272659381E+04   -0.53555E-04   -0.41039E-04 10640   0.173E-03 0.850E-04
CGA:  30    -0.128272659901E+04   -0.51990E-05   -0.13179E-04 10640   0.323E-04 0.431E-04
  25 F= -.12827266E+04 E0= -.12827266E+04  d E =0.335857E+00  mag=    47.0000
       N       E                     dE             d eps       ncg     rms          ort
SDA:   1    -0.127688415617E+04    0.58424E+01    0.00000E+00 10640   0.205E+02 0.000E+00
CGA:   2    -0.128079746650E+04   -0.39133E+01   -0.39132E+01 10640   0.735E+01 0.850E-03
CGA:   3    -0.128265064978E+04   -0.18532E+01   -0.18530E+01 10640   0.221E+01 0.940E-02
CGA:   4    -0.128298234019E+04   -0.33169E+00   -0.33175E+00 10640   0.363E+00 0.500E-02
CGA:   5    -0.128304459050E+04   -0.62250E-01   -0.62303E-01 10640   0.131E+00-0.838E-04
CGA:   6    -0.128306587061E+04   -0.21280E-01   -0.21254E-01 10640   0.352E-01 0.788E-04
CGA:   7    -0.128307377310E+04   -0.79025E-02   -0.78968E-02 10640   0.936E-02-0.707E-03
CGA:   8    -0.128307572275E+04   -0.19496E-02   -0.19491E-02 10640   0.431E-02-0.150E-04
CGA:   9    -0.128307676333E+04   -0.10406E-02   -0.10548E-02 10640   0.346E-02-0.991E-03
CGA:  10    -0.128307738172E+04   -0.61839E-03   -0.61896E-03 10640   0.166E-02-0.739E-03
CGA:  11    -0.128307774681E+04   -0.36509E-03   -0.52118E-03 10640   0.218E-02-0.933E-03
CGA:  12    -0.128307804685E+04   -0.30004E-03   -0.28084E-03 10640   0.681E-03-0.167E-03
CGA:  13    -0.128307823162E+04   -0.18476E-03   -0.21730E-03 10640   0.803E-03-0.291E-03
CGA:  14    -0.128307832257E+04   -0.90952E-04   -0.86960E-04 10640   0.400E-03-0.777E-04
CGA:  15    -0.128307786600E+04    0.45657E-03   -0.36796E-03 10640   0.454E-02-0.106E-02
CGA:  16    -0.128307854950E+04   -0.68350E-03   -0.69056E-03 10640   0.121E-02 0.596E-04
CGA:  17    -0.128307872303E+04   -0.17353E-03   -0.17475E-03 10640   0.161E-03 0.121E-04
CGA:  18    -0.128307876473E+04   -0.41698E-04   -0.94025E-04 10640   0.857E-03-0.165E-03
CGA:  19    -0.128307882730E+04   -0.62570E-04   -0.79180E-04 10640   0.613E-04 0.914E-04
CGA:  20    -0.128307884156E+04   -0.14262E-04   -0.14161E-04 10640   0.474E-04-0.157E-05
CGA:  21    -0.128307886769E+04   -0.26131E-04    0.10384E-03 10640   0.387E-04-0.346E-05
CGA:  22    -0.128307870210E+04    0.16559E-03   -0.89246E-04 10640   0.204E-02-0.154E-03
CGA:  23    -0.128307895942E+04   -0.25732E-03   -0.23179E-03 10640   0.182E-03-0.652E-04
CGA:  24    -0.128307898055E+04   -0.21125E-04   -0.23936E-04 10640   0.498E-04 0.891E-05
CGA:  25    -0.128307899780E+04   -0.17250E-04   -0.17633E-04 10640   0.221E-04 0.343E-05
CGA:  26    -0.128307887903E+04    0.11877E-03   -0.41224E-04 10640   0.151E-02-0.123E-03
CGA:  27    -0.128307901520E+04   -0.13617E-03   -0.15497E-03 10640   0.868E-04 0.554E-04
CGA:  28    -0.128307902667E+04   -0.11472E-04   -0.15113E-04 10640   0.378E-04 0.115E-04
CGA:  29    -0.128307903704E+04   -0.10370E-04   -0.10978E-04 10640   0.217E-04 0.286E-05
CGA:  30    -0.128307847929E+04    0.55775E-03   -0.30475E-03 10640   0.328E-02-0.246E-03
CGA:  31    -0.128307887208E+04   -0.39280E-03   -0.45750E-03 10640   0.455E-03 0.109E-03
CGA:  32    -0.128307897084E+04   -0.98752E-04   -0.11493E-03 10640   0.228E-03 0.295E-04
CGA:  33    -0.128307906892E+04   -0.98086E-04   -0.79140E-04 10640   0.957E-04-0.409E-04
CGA:  34    -0.128307906946E+04   -0.53286E-06   -0.11976E-04 10640   0.342E-04 0.190E-04
  26 F= -.12830791E+04 E0= -.12830791E+04  d E =-.352470E+00  mag=    47.0000
       N       E                     dE             d eps       ncg     rms          ort
SDA:   1    -0.128157261425E+04    0.15065E+01    0.00000E+00 10640   0.498E+01 0.000E+00
CGA:   2    -0.128254701357E+04   -0.97440E+00   -0.97430E+00 10640   0.183E+01 0.526E-02
CGA:   3    -0.128300598659E+04   -0.45897E+00   -0.45978E+00 10640   0.507E+00 0.881E-03
CGA:   4    -0.128308420488E+04   -0.78218E-01   -0.78444E-01 10640   0.803E-01 0.157E-02
CGA:   5    -0.128309950979E+04   -0.15305E-01   -0.15298E-01 10640   0.278E-01-0.276E-03
CGA:   6    -0.128310382053E+04   -0.43107E-02   -0.43163E-02 10640   0.867E-02 0.190E-03
CGA:   7    -0.128310568049E+04   -0.18600E-02   -0.18174E-02 10640   0.218E-02-0.113E-03
CGA:   8    -0.128310617957E+04   -0.49908E-03   -0.50227E-03 10640   0.945E-03 0.119E-04
CGA:   9    -0.128310647191E+04   -0.29234E-03   -0.25026E-03 10640   0.794E-03-0.145E-03
CGA:  10    -0.128310663241E+04   -0.16050E-03   -0.13924E-03 10640   0.357E-03-0.632E-04
CGA:  11    -0.128310676902E+04   -0.13661E-03   -0.12032E-03 10640   0.369E-03-0.106E-03
CGA:  12    -0.128310686635E+04   -0.97326E-04   -0.67832E-04 10640   0.298E-03-0.117E-03
CGA:  13    -0.128310696958E+04   -0.10323E-03   -0.11141E-03 10640   0.491E-03-0.173E-03
CGA:  14    -0.128310704193E+04   -0.72344E-04   -0.80660E-04 10640   0.222E-03 0.259E-04
CGA:  15    -0.128310710098E+04   -0.59054E-04   -0.54308E-04 10640   0.123E-03-0.187E-04
CGA:  16    -0.128310711894E+04   -0.17962E-04   -0.24554E-04 10640   0.580E-04 0.260E-04
CGA:  17    -0.128310713085E+04   -0.11910E-04   -0.16761E-04 10640   0.234E-04 0.219E-04
CGA:  18    -0.128310714636E+04   -0.15504E-04   -0.15676E-04 10640   0.596E-04-0.469E-05
CGA:  19    -0.128310714832E+04   -0.19685E-05   -0.57333E-05 10640   0.436E-04 0.115E-04
  27 F= -.12831071E+04 E0= -.12831071E+04  d E =-.280789E-01  mag=    47.0000
       N       E                     dE             d eps       ncg     rms          ort
SDA:   1    -0.128294512702E+04    0.16202E+00    0.00000E+00 10640   0.454E+00 0.000E+00
CGA:   2    -0.128304906705E+04   -0.10394E+00   -0.10397E+00 10640   0.201E+00 0.261E-03
CGA:   3    -0.128309340269E+04   -0.44336E-01   -0.44400E-01 10640   0.532E-01 0.210E-03
CGA:   4    -0.128310058452E+04   -0.71818E-02   -0.72736E-02 10640   0.111E-01 0.597E-03
CGA:   5    -0.128310252699E+04   -0.19425E-02   -0.19168E-02 10640   0.297E-02-0.123E-03
CGA:   6    -0.128310305476E+04   -0.52777E-03   -0.54039E-03 10640   0.781E-03 0.685E-04
CGA:   7    -0.128310322848E+04   -0.17372E-03   -0.17757E-03 10640   0.268E-03 0.274E-04
CGA:   8    -0.128310327485E+04   -0.46375E-04   -0.50090E-04 10640   0.118E-03 0.212E-04
CGA:   9    -0.128310331326E+04   -0.38412E-04   -0.37896E-04 10640   0.899E-04-0.999E-05
CGA:  10    -0.128310332827E+04   -0.15010E-04   -0.16797E-04 10640   0.473E-04 0.126E-04
CGA:  11    -0.128310335115E+04   -0.22878E-04   -0.28577E-04 10640   0.923E-04-0.301E-04
CGA:  12    -0.128310335631E+04   -0.51565E-05   -0.11420E-04 10640   0.274E-04 0.278E-04
  28 F= -.12831034E+04 E0= -.12831034E+04  d E =0.379201E-02  mag=    47.0000
       N       E                     dE             d eps       ncg     rms          ort
SDA:   1    -0.127680891911E+04    0.62944E+01    0.00000E+00 10640   0.173E+02 0.000E+00
CGA:   2    -0.128095086779E+04   -0.41419E+01   -0.41434E+01 10640   0.760E+01 0.263E-02
CGA:   3    -0.128267972143E+04   -0.17289E+01   -0.17294E+01 10640   0.159E+01 0.414E-02
CGA:   4    -0.128293286180E+04   -0.25314E+00   -0.25275E+00 10640   0.345E+00 0.580E-02
CGA:   5    -0.128299131565E+04   -0.58454E-01   -0.58582E-01 10640   0.104E+00-0.150E-02
CGA:   6    -0.128300850602E+04   -0.17190E-01   -0.17257E-01 10640   0.316E-01 0.926E-03
CGA:   7    -0.128301559780E+04   -0.70918E-02   -0.70730E-02 10640   0.920E-02-0.220E-03
CGA:   8    -0.128301763304E+04   -0.20352E-02   -0.20187E-02 10640   0.482E-02-0.212E-03
CGA:   9    -0.128301874471E+04   -0.11117E-02   -0.11007E-02 10640   0.255E-02-0.181E-03
CGA:  10    -0.128301943181E+04   -0.68710E-03   -0.68481E-03 10640   0.169E-02-0.222E-03
CGA:  11    -0.128301982931E+04   -0.39750E-03   -0.38692E-03 10640   0.130E-02-0.287E-03
CGA:  12    -0.128302004881E+04   -0.21950E-03   -0.22573E-03 10640   0.529E-03 0.806E-04
CGA:  13    -0.128302027928E+04   -0.23046E-03   -0.22283E-03 10640   0.487E-03 0.650E-04
CGA:  14    -0.128302044168E+04   -0.16240E-03   -0.16178E-03 10640   0.494E-03 0.838E-04
CGA:  15    -0.128302066251E+04   -0.22084E-03   -0.21927E-03 10640   0.484E-03 0.131E-04
CGA:  16    -0.128302079430E+04   -0.13179E-03   -0.13114E-03 10640   0.473E-03-0.262E-04
CGA:  17    -0.128302088437E+04   -0.90071E-04   -0.94798E-04 10640   0.192E-03 0.554E-04
CGA:  18    -0.128302096237E+04   -0.77992E-04   -0.13664E-03 10640   0.840E-03-0.173E-03
CGA:  19    -0.128302105579E+04   -0.93428E-04   -0.96790E-04 10640   0.134E-03 0.198E-04
CGA:  20    -0.128302109891E+04   -0.43119E-04   -0.84924E-04 10640   0.447E-03-0.129E-03
CGA:  21    -0.128302117620E+04   -0.77283E-04   -0.64246E-04 10640   0.143E-03-0.764E-04
CGA:  22    -0.128302119379E+04   -0.17599E-04   -0.19700E-04 10640   0.329E-04 0.155E-04
CGA:  23    -0.128302120012E+04   -0.63287E-05   -0.71155E-05 10640   0.206E-04 0.777E-05
  29 F= -.12830212E+04 E0= -.12830212E+04  d E =0.821562E-01  mag=    47.0000
       N       E                     dE             d eps       ncg     rms          ort
SDA:   1    -0.125941431423E+04    0.23607E+02    0.00000E+00 10640   0.773E+02 0.000E+00
CGA:   2    -0.127413109789E+04   -0.14717E+02   -0.14725E+02 10640   0.277E+02 0.134E+00
CGA:   3    -0.128110956881E+04   -0.69785E+01   -0.69808E+01 10640   0.811E+01 0.172E-01
CGA:   4    -0.128234700529E+04   -0.12374E+01   -0.12318E+01 10640   0.128E+01 0.493E-01
CGA:   5    -0.128259247586E+04   -0.24547E+00   -0.24588E+00 10640   0.413E+00-0.284E-02
CGA:   6    -0.128266135628E+04   -0.68880E-01   -0.68719E-01 10640   0.136E+00 0.330E-02
CGA:   7    -0.128268820138E+04   -0.26845E-01   -0.26840E-01 10640   0.384E-01 0.251E-03
CGA:   8    -0.128269633971E+04   -0.81383E-02   -0.80749E-02 10640   0.178E-01-0.110E-02
CGA:   9    -0.128269991527E+04   -0.35756E-02   -0.36274E-02 10640   0.746E-02 0.105E-02
CGA:  10    -0.128270222241E+04   -0.23071E-02   -0.22982E-02 10640   0.398E-02 0.300E-03
CGA:  11    -0.128270331817E+04   -0.10958E-02   -0.10954E-02 10640   0.311E-02 0.995E-04
CGA:  12    -0.128270395483E+04   -0.63665E-03   -0.65808E-03 10640   0.156E-02 0.403E-03
CGA:  13    -0.128270457219E+04   -0.61736E-03   -0.59793E-03 10640   0.149E-02 0.238E-03
CGA:  14    -0.128270494606E+04   -0.37388E-03   -0.39356E-03 10640   0.937E-03 0.578E-03
CGA:  15    -0.128270534105E+04   -0.39499E-03   -0.37527E-03 10640   0.629E-03 0.707E-03
CGA:  16    -0.128270555738E+04   -0.21632E-03   -0.21538E-03 10640   0.794E-03 0.112E-04
CGA:  17    -0.128270570607E+04   -0.14869E-03   -0.16714E-03 10640   0.395E-03 0.310E-03
CGA:  18    -0.128270580172E+04   -0.95647E-04   -0.11040E-03 10640   0.335E-03 0.237E-03
CGA:  19    -0.128270589428E+04   -0.92566E-04   -0.92841E-04 10640   0.388E-03-0.159E-04
CGA:  20    -0.128270601625E+04   -0.12197E-03   -0.11280E-03 10640   0.261E-03 0.208E-03
CGA:  21    -0.128270607688E+04   -0.60629E-04   -0.61779E-04 10640   0.202E-03 0.441E-04
CGA:  22    -0.128270618928E+04   -0.11240E-03   -0.95761E-04 10640   0.221E-03 0.115E-03
CGA:  23    -0.128270622937E+04   -0.40092E-04   -0.42673E-04 10640   0.197E-03 0.343E-04
CGA:  24    -0.128270630120E+04   -0.71835E-04   -0.68588E-04 10640   0.167E-03 0.899E-04
CGA:  25    -0.128270638422E+04   -0.83018E-04   -0.76071E-04 10640   0.173E-03 0.150E-03
CGA:  26    -0.128270644351E+04   -0.59284E-04   -0.76189E-04 10640   0.552E-03-0.985E-04
CGA:  27    -0.128270648176E+04   -0.38258E-04   -0.52379E-04 10640   0.825E-04 0.789E-04
CGA:  28    -0.128270648859E+04   -0.68273E-05   -0.13537E-04 10640   0.748E-04 0.535E-04
CGA:  29    -0.128270649692E+04   -0.83321E-05   -0.78945E-04 10640   0.143E-02-0.894E-04
CGA:  30    -0.128270659628E+04   -0.99358E-04   -0.12643E-03 10640   0.907E-04 0.133E-03
CGA:  31    -0.128270659886E+04   -0.25762E-05   -0.10917E-04 10640   0.511E-04 0.462E-04
CGA:  32    -0.128270662859E+04   -0.29729E-04    0.24051E-03 10640   0.654E-04 0.350E-04
CGA:  33    -0.128270663100E+04   -0.24165E-05   -0.79452E-05 10640   0.466E-04 0.344E-04
CGA:  34    -0.128270666218E+04   -0.31181E-04   -0.25852E-04 10640   0.161E-03 0.188E-04
CGA:  35    -0.128270676223E+04   -0.10004E-03   -0.88878E-04 10640   0.118E-03 0.107E-03
CGA:  36    -0.128270676909E+04   -0.68685E-05   -0.10589E-04 10640   0.269E-04 0.186E-04
  30 F= -.12827068E+04 E0= -.12827068E+04  d E =0.314431E+00  mag=    47.0000
       N       E                     dE             d eps       ncg     rms          ort
SDA:   1    -0.127645590729E+04    0.62509E+01    0.00000E+00 10640   0.219E+02 0.000E+00
CGA:   2    -0.128058031879E+04   -0.41244E+01   -0.41241E+01 10640   0.784E+01 0.410E-02
CGA:   3    -0.128250219303E+04   -0.19219E+01   -0.19229E+01 10640   0.272E+01 0.161E-01
CGA:   4    -0.128288155637E+04   -0.37936E+00   -0.37697E+00 10640   0.477E+00 0.215E-01
CGA:   5    -0.128295862741E+04   -0.77071E-01   -0.77443E-01 10640   0.143E+00 0.502E-03
CGA:   6    -0.128298564646E+04   -0.27019E-01   -0.27007E-01 10640   0.375E-01 0.182E-03
CGA:   7    -0.128299419323E+04   -0.85468E-02   -0.85026E-02 10640   0.128E-01-0.125E-02
CGA:   8    -0.128299630498E+04   -0.21117E-02   -0.21221E-02 10640   0.497E-02 0.152E-03
CGA:   9    -0.128299769660E+04   -0.13916E-02   -0.14191E-02 10640   0.359E-02-0.101E-02
CGA:  10    -0.128299838340E+04   -0.68680E-03   -0.67435E-03 10640   0.221E-02-0.594E-03
CGA:  11    -0.128299890192E+04   -0.51852E-03   -0.54305E-03 10640   0.153E-02-0.628E-03
CGA:  12    -0.128299920406E+04   -0.30214E-03   -0.41711E-03 10640   0.261E-02-0.935E-03
CGA:  13    -0.128299950135E+04   -0.29729E-03   -0.29198E-03 10640   0.684E-03-0.358E-04
CGA:  14    -0.128299972417E+04   -0.22282E-03   -0.22418E-03 10640   0.290E-03-0.174E-04
CGA:  15    -0.128299989365E+04   -0.16948E-03    0.23944E-03 10640   0.190E-03 0.920E-04
CGA:  16    -0.128299996271E+04   -0.69061E-04   -0.68153E-04 10640   0.869E-04 0.736E-04
CGA:  17    -0.128300005029E+04   -0.87573E-04    0.39815E-04 10640   0.732E-04 0.542E-04
CGA:  18    -0.128300007283E+04   -0.22549E-04   -0.25857E-04 10640   0.237E-03-0.356E-04
CGA:  19    -0.128300016558E+04   -0.92744E-04    0.36703E-04 10640   0.442E-03-0.406E-04
CGA:  20    -0.128300018225E+04   -0.16670E-04   -0.14854E-03 10640   0.322E-02-0.944E-03
CGA:  21    -0.128300043728E+04   -0.25503E-03   -0.29181E-03 10640   0.324E-03 0.222E-03
CGA:  22    -0.128300052129E+04   -0.84015E-04   -0.85104E-04 10640   0.103E-03 0.626E-04
CGA:  23    -0.128300054872E+04   -0.27427E-04   -0.24082E-04 10640   0.890E-04-0.498E-04
CGA:  24    -0.128300054967E+04   -0.94915E-06   -0.43029E-05 10640   0.577E-04 0.203E-04
  31 F= -.12830005E+04 E0= -.12830005E+04  d E =-.293781E+00  mag=    47.0000
       N       E                     dE             d eps       ncg     rms          ort
SDA:   1    -0.128205805868E+04    0.94249E+00    0.00000E+00 10640   0.322E+01 0.000E+00
CGA:   2    -0.128267407776E+04   -0.61602E+00   -0.61598E+00 10640   0.114E+01-0.453E-03
CGA:   3    -0.128296628710E+04   -0.29221E+00   -0.29213E+00 10640   0.320E+00 0.394E-02
CGA:   4    -0.128301530551E+04   -0.49018E-01   -0.49153E-01 10640   0.515E-01 0.175E-02
CGA:   5    -0.128302494461E+04   -0.96391E-02   -0.96397E-02 10640   0.175E-01 0.122E-05
CGA:   6    -0.128302779151E+04   -0.28469E-02   -0.28471E-02 10640   0.560E-02 0.462E-04
[...]
CGA:   5    -0.128316760071E+04   -0.25113E-02   -0.24911E-02 10640   0.452E-02-0.405E-03
CGA:   6    -0.128316843317E+04   -0.83246E-03   -0.81214E-03 10640   0.166E-02-0.544E-03
CGA:   7    -0.128316871437E+04   -0.28120E-03   -0.28172E-03 10640   0.399E-03 0.212E-04
CGA:   8    -0.128316881840E+04   -0.10403E-03   -0.10529E-03 10640   0.226E-03-0.301E-04
CGA:   9    -0.128316885306E+04   -0.34665E-04   -0.10802E-03 10640   0.933E-03-0.247E-03
CGA:  10    -0.128316895833E+04   -0.10527E-03   -0.99844E-04 10640   0.150E-03-0.404E-04
CGA:  11    -0.128316897467E+04   -0.16344E-04   -0.85853E-04 10640   0.577E-03-0.189E-03
CGA:  12    -0.128316905126E+04   -0.76588E-04   -0.72173E-04 10640   0.147E-03-0.352E-04
CGA:  13    -0.128316906622E+04   -0.14964E-04   -0.19085E-04 10640   0.248E-04 0.401E-04
CGA:  14    -0.128316907019E+04   -0.39670E-05   -0.49894E-05 10640   0.234E-04 0.130E-04
  44 F= -.12831691E+04 E0= -.12831691E+04  d E =-.211161E-01  mag=    47.0000
       N       E                     dE             d eps       ncg     rms          ort
SDA:   1    -0.127963212031E+04    0.35369E+01    0.00000E+00 10640   0.108E+02 0.000E+00
CGA:   2    -0.128194351833E+04   -0.23114E+01   -0.23116E+01 10640   0.444E+01 0.769E-02
CGA:   3    -0.128297260564E+04   -0.10291E+01   -0.10291E+01 10640   0.123E+01 0.405E-02
CGA:   4    -0.128314804470E+04   -0.17544E+00   -0.17587E+00 10640   0.248E+00-0.299E-02
CGA:   5    -0.128319001230E+04   -0.41968E-01   -0.41863E-01 10640   0.664E-01-0.784E-03
CGA:   6    -0.128320300886E+04   -0.12997E-01   -0.12930E-01 10640   0.196E-01-0.232E-02
CGA:   7    -0.128320709480E+04   -0.40859E-02   -0.40859E-02 10640   0.604E-02 0.182E-04
CGA:   8    -0.128320840723E+04   -0.13124E-02   -0.13086E-02 10640   0.348E-02-0.636E-03
CGA:   9    -0.128320913128E+04   -0.72405E-03   -0.72839E-03 10640   0.174E-02-0.357E-03
CGA:  10    -0.128320956394E+04   -0.43266E-03   -0.74037E-03 10640   0.354E-02-0.122E-02
CGA:  11    -0.128320997300E+04   -0.40906E-03   -0.40675E-03 10640   0.774E-03-0.680E-05
CGA:  12    -0.128321020714E+04   -0.23414E-03   -0.26555E-03 10640   0.661E-03-0.274E-03
CGA:  13    -0.128321032321E+04   -0.11607E-03   -0.11642E-03 10640   0.486E-03-0.905E-05
CGA:  14    -0.128320858975E+04    0.17335E-02   -0.93647E-03 10640   0.137E-01-0.188E-02
CGA:  15    -0.128321040361E+04   -0.18139E-02   -0.19412E-02 10640   0.330E-02 0.482E-03
CGA:  16    -0.128321098791E+04   -0.58430E-03   -0.55777E-03 10640   0.384E-03-0.102E-03
CGA:  17    -0.128321111487E+04   -0.12696E-03   -0.12247E-03 10640   0.485E-03-0.584E-04
CGA:  18    -0.128321117721E+04   -0.62335E-04   -0.74578E-04 10640   0.104E-03 0.562E-04
CGA:  19    -0.128321118672E+04   -0.95121E-05   -0.18658E-04 10640   0.635E-04 0.398E-04
CGA:  20    -0.128321121176E+04   -0.25040E-04   -0.25171E-04 10640   0.512E-04 0.126E-05
CGA:  21    -0.128321123167E+04   -0.19909E-04   -0.28441E-04 10640   0.261E-03-0.506E-04
CGA:  22    -0.128321123650E+04   -0.48324E-05   -0.25443E-04 10640   0.539E-04 0.728E-04
  45 F= -.12832112E+04 E0= -.12832112E+04  d E =-.421663E-01  mag=    47.0000
       N       E                     dE             d eps       ncg     rms          ort
SDA:   1    -0.128150154365E+04    0.17097E+01    0.00000E+00 10640   0.471E+01 0.000E+00
CGA:   2    -0.128268170032E+04   -0.11802E+01   -0.11801E+01 10640   0.214E+01 0.744E-03
CGA:   3    -0.128315633255E+04   -0.47463E+00   -0.47483E+00 10640   0.389E+00 0.670E-03
CGA:   4    -0.128322190589E+04   -0.65573E-01   -0.65761E-01 10640   0.760E-01 0.115E-02
CGA:   5    -0.128323722535E+04   -0.15319E-01   -0.15249E-01 10640   0.191E-01-0.510E-03
CGA:   6    -0.128324090867E+04   -0.36833E-02   -0.37045E-02 10640   0.744E-02 0.187E-03
CGA:   7    -0.128324234546E+04   -0.14368E-02   -0.13897E-02 10640   0.232E-02-0.334E-03
CGA:   8    -0.128324285161E+04   -0.50615E-03   -0.50270E-03 10640   0.103E-02-0.347E-04
CGA:   9    -0.128324312366E+04   -0.27205E-03   -0.26661E-03 10640   0.717E-03-0.109E-03
CGA:  10    -0.128324323435E+04   -0.11069E-03   -0.11944E-03 10640   0.249E-03 0.728E-04
CGA:  11    -0.128324333013E+04   -0.95777E-04   -0.96097E-04 10640   0.155E-03-0.700E-05
CGA:  12    -0.128324338089E+04   -0.50765E-04   -0.51428E-04 10640   0.208E-03-0.188E-04
CGA:  13    -0.128324341746E+04   -0.36571E-04   -0.40094E-04 10640   0.127E-03 0.402E-04
CGA:  14    -0.128324347948E+04   -0.62017E-04   -0.64338E-04 10640   0.320E-03-0.195E-04
CGA:  15    -0.128324352721E+04   -0.47734E-04   -0.50456E-04 10640   0.247E-03 0.210E-04
CGA:  16    -0.128324355065E+04   -0.23438E-04   -0.34544E-04 10640   0.192E-03 0.642E-04
CGA:  17    -0.128324359083E+04   -0.40179E-04   -0.46959E-04 10640   0.154E-03 0.666E-04
CGA:  18    -0.128324364337E+04   -0.52541E-04   -0.47435E-04 10640   0.158E-03-0.867E-04
CGA:  19    -0.128324366805E+04   -0.24673E-04   -0.24652E-04 10640   0.532E-04 0.188E-06
CGA:  20    -0.128324368630E+04   -0.18256E-04   -0.21462E-04 10640   0.628E-04-0.260E-04
CGA:  21    -0.128324328417E+04    0.40213E-03   -0.21840E-03 10640   0.412E-02-0.300E-03
CGA:  22    -0.128324368099E+04   -0.39682E-03   -0.39972E-03 10640   0.328E-03-0.563E-05
CGA:  23    -0.128324376703E+04   -0.86038E-04   -0.98372E-04 10640   0.840E-04 0.621E-04
CGA:  24    -0.128324332478E+04    0.44224E-03   -0.14731E-03 10640   0.599E-02-0.596E-03
CGA:  25    -0.128324372600E+04   -0.40122E-03   -0.59165E-03 10640   0.330E-03 0.514E-03
CGA:  26    -0.128324375740E+04   -0.31406E-04   -0.64279E-04 10640   0.167E-03 0.980E-04
CGA:  27    -0.128324384324E+04   -0.85837E-04   -0.70351E-04 10640   0.103E-03-0.882E-04
CGA:  28    -0.128324383858E+04    0.46636E-05   -0.89010E-05 10640   0.202E-04 0.338E-04
  46 F= -.12832438E+04 E0= -.12832438E+04  d E =-.326021E-01  mag=    47.0000
       N       E                     dE             d eps       ncg     rms          ort
SDA:   1    -0.125891661083E+04    0.24327E+02    0.00000E+00 10640   0.691E+02 0.000E+00
CGA:   2    -0.127489270013E+04   -0.15976E+02   -0.16002E+02 10640   0.303E+02 0.167E-01
CGA:   3    -0.128186860836E+04   -0.69759E+01   -0.69717E+01 10640   0.607E+01 0.448E-01
CGA:   4    -0.128286307792E+04   -0.99447E+00   -0.99798E+00 10640   0.109E+01 0.326E-02
CGA:   5    -0.128308897902E+04   -0.22590E+00   -0.22669E+00 10640   0.246E+00 0.612E-02
CGA:   6    -0.128314438669E+04   -0.55408E-01   -0.55458E-01 10640   0.854E-01 0.484E-04
CGA:   7    -0.128316127431E+04   -0.16888E-01   -0.16447E-01 10640   0.295E-01-0.198E-02
CGA:   8    -0.128316770097E+04   -0.64267E-02   -0.64136E-02 10640   0.125E-01-0.252E-04
CGA:   9    -0.128317127539E+04   -0.35744E-02   -0.35138E-02 10640   0.721E-02-0.595E-03
CGA:  10    -0.128317275600E+04   -0.14806E-02   -0.15217E-02 10640   0.332E-02 0.285E-03
CGA:  11    -0.128317378238E+04   -0.10264E-02   -0.10160E-02 10640   0.185E-02-0.141E-03
CGA:  12    -0.128317435576E+04   -0.57339E-03   -0.55589E-03 10640   0.236E-02-0.355E-03
CGA:  13    -0.128317478631E+04   -0.43054E-03   -0.43128E-03 10640   0.134E-02 0.485E-05
CGA:  14    -0.128317515832E+04   -0.37201E-03   -0.39261E-03 10640   0.134E-02 0.336E-03
CGA:  15    -0.128317565725E+04   -0.49893E-03   -0.49908E-03 10640   0.137E-02-0.222E-05
CGA:  16    -0.128317594924E+04   -0.29199E-03   -0.31787E-03 10640   0.943E-03 0.217E-03
CGA:  17    -0.128317612959E+04   -0.18035E-03   -0.22153E-03 10640   0.547E-03 0.290E-03
CGA:  18    -0.128317637469E+04   -0.24510E-03   -0.24621E-03 10640   0.726E-03-0.131E-03
CGA:  19    -0.128317645138E+04   -0.76692E-04   -0.82532E-04 10640   0.437E-03 0.288E-04
CGA:  20    -0.128317648878E+04   -0.37395E-04   -0.62915E-04 10640   0.368E-03 0.134E-03
CGA:  21    -0.128317657603E+04   -0.87253E-04   -0.97586E-04 10640   0.285E-03 0.874E-04
CGA:  22    -0.128317662214E+04   -0.46111E-04   -0.18105E-03 10640   0.213E-02-0.673E-03
CGA:  23    -0.128317678418E+04   -0.16204E-03   -0.21820E-03 10640   0.269E-03 0.267E-03
CGA:  24    -0.128317688086E+04   -0.96673E-04   -0.96870E-04 10640   0.177E-03-0.209E-04
CGA:  25    -0.128317699051E+04   -0.10965E-03    0.32403E-03 10640   0.428E-03-0.240E-03
CGA:  26    -0.128317698998E+04    0.52417E-06   -0.33694E-04 10640   0.788E-04 0.149E-03
  47 F= -.12831770E+04 E0= -.12831770E+04  d E =0.668486E-01  mag=    47.0000
       N       E                     dE             d eps       ncg     rms          ort
SDA:   1    -0.127816013224E+04    0.50169E+01    0.00000E+00 10640   0.162E+02 0.000E+00
CGA:   2    -0.128143924496E+04   -0.32791E+01   -0.32795E+01 10640   0.622E+01-0.565E-02
CGA:   3    -0.128299034810E+04   -0.15511E+01   -0.15516E+01 10640   0.154E+01 0.128E-01
CGA:   4    -0.128323308538E+04   -0.24274E+00   -0.24263E+00 10640   0.250E+00-0.245E-02
CGA:   5    -0.128328438528E+04   -0.51300E-01   -0.51350E-01 10640   0.633E-01 0.907E-03
CGA:   6    -0.128329803963E+04   -0.13654E-01   -0.13537E-01 10640   0.233E-01-0.194E-02
CGA:   7    -0.128330211897E+04   -0.40793E-02   -0.40698E-02 10640   0.674E-02-0.694E-04
CGA:   8    -0.128330366739E+04   -0.15484E-02   -0.15271E-02 10640   0.377E-02-0.558E-03
CGA:   9    -0.128330458334E+04   -0.91594E-03   -0.91987E-03 10640   0.326E-02-0.112E-02
CGA:  10    -0.128330509328E+04   -0.50995E-03   -0.49120E-03 10640   0.124E-02-0.374E-03
CGA:  11    -0.128330522517E+04   -0.13188E-03   -0.76023E-03 10640   0.395E-02-0.146E-02
CGA:  12    -0.128330579916E+04   -0.57400E-03   -0.59172E-03 10640   0.107E-02 0.142E-03
CGA:  13    -0.128330604120E+04   -0.24204E-03   -0.23611E-03 10640   0.343E-03-0.925E-04
CGA:  14    -0.128330611996E+04   -0.78768E-04   -0.79983E-04 10640   0.189E-03 0.726E-04
CGA:  15    -0.128330621072E+04   -0.90755E-04   -0.94809E-04 10640   0.247E-03-0.286E-04
CGA:  16    -0.128330625593E+04   -0.45210E-04   -0.45454E-04 10640   0.143E-03 0.393E-05
CGA:  17    -0.128330630262E+04   -0.46688E-04   -0.47116E-04 10640   0.136E-03-0.940E-05
CGA:  18    -0.128330634291E+04   -0.40294E-04   -0.43372E-04 10640   0.236E-03-0.484E-04
CGA:  19    -0.128330632556E+04    0.17354E-04   -0.11280E-03 10640   0.792E-03-0.287E-03
CGA:  20    -0.128330645639E+04   -0.13083E-03   -0.13855E-03 10640   0.299E-03 0.615E-04
CGA:  21    -0.128330652250E+04   -0.66118E-04   -0.67803E-04 10640   0.767E-04 0.197E-04
CGA:  22    -0.128330622637E+04    0.29614E-03   -0.10309E-03 10640   0.372E-02-0.411E-03
CGA:  23    -0.128330652477E+04   -0.29840E-03   -0.36473E-03 10640   0.234E-03 0.287E-03
CGA:  24    -0.128330654914E+04   -0.24374E-04   -0.34444E-04 10640   0.754E-04 0.527E-04
CGA:  25    -0.128330657438E+04   -0.25239E-04   -0.25318E-04 10640   0.400E-04 0.176E-05
CGA:  26    -0.128330657646E+04   -0.20748E-05   -0.39239E-05 10640   0.822E-05 0.843E-05
  48 F= -.12833066E+04 E0= -.12833066E+04  d E =-.129586E+00  mag=    47.0000
       N       E                     dE             d eps       ncg     rms          ort
SDA:   1    -0.128267795174E+04    0.62862E+00    0.00000E+00 10640   0.186E+01 0.000E+00
CGA:   2    -0.128309517506E+04   -0.41722E+00   -0.41733E+00 10640   0.794E+00 0.172E-02
CGA:   3    -0.128328338295E+04   -0.18821E+00   -0.18819E+00 10640   0.169E+00-0.657E-03
CGA:   4    -0.128331045804E+04   -0.27075E-01   -0.26957E-01 10640   0.324E-01-0.933E-03
CGA:   5    -0.128331665584E+04   -0.61978E-02   -0.61162E-02 10640   0.103E-01-0.823E-03
CGA:   6    -0.128331841105E+04   -0.17552E-02   -0.16998E-02 10640   0.360E-02-0.503E-03
CGA:   7    -0.128331907500E+04   -0.66395E-03   -0.66607E-03 10640   0.802E-03 0.323E-04
CGA:   8    -0.128331933548E+04   -0.26047E-03   -0.29828E-03 10640   0.908E-03-0.381E-03
CGA:   9    -0.128331941749E+04   -0.82016E-04   -0.72349E-04 10640   0.455E-03-0.770E-04
CGA:  10    -0.128331953129E+04   -0.11380E-03   -0.14974E-03 10640   0.831E-03-0.393E-03
CGA:  11    -0.128331970787E+04   -0.17658E-03   -0.14395E-03 10640   0.446E-03-0.325E-03
CGA:  12    -0.128331973859E+04   -0.30726E-04   -0.35621E-04 10640   0.117E-03 0.367E-04
CGA:  13    -0.128331974037E+04   -0.17790E-05   -0.10130E-04 10640   0.461E-04 0.463E-04
CGA:  14    -0.128331975049E+04   -0.10120E-04   -0.10470E-04 10640   0.396E-04 0.393E-05
CGA:  15    -0.128331979940E+04   -0.48909E-04    0.41065E-05 10640   0.704E-04-0.262E-04
CGA:  16    -0.128331981050E+04   -0.11100E-04   -0.11195E-04 10640   0.240E-04 0.118E-05
CGA:  17    -0.128331983010E+04   -0.19595E-04    0.45306E-05 10640   0.202E-04-0.771E-05
CGA:  18    -0.128331984909E+04   -0.18992E-04    0.90348E-06 10640   0.162E-04 0.839E-05
CGA:  19    -0.128331987408E+04   -0.24989E-04    0.22544E-05 10640   0.121E-04 0.123E-04
CGA:  20    -0.128331988567E+04   -0.11588E-04    0.15314E-05 10640   0.259E-04-0.759E-05
CGA:  21    -0.128331988609E+04   -0.42623E-06   -0.18162E-05 10640   0.475E-05 0.808E-05
  49 F= -.12833199E+04 E0= -.12833199E+04  d E =-.133096E-01  mag=    47.0000
       N       E                     dE             d eps       ncg     rms          ort
SDA:   1    -0.127987436283E+04    0.34455E+01    0.00000E+00 10640   0.973E+01 0.000E+00
CGA:   2    -0.128214311398E+04   -0.22688E+01   -0.22688E+01 10640   0.430E+01 0.574E-02
CGA:   3    -0.128313521929E+04   -0.99211E+00   -0.99210E+00 10640   0.879E+00-0.165E-02
CGA:   4    -0.128327527207E+04   -0.14005E+00   -0.13995E+00 10640   0.180E+00-0.376E-02
CGA:   5    -0.128330745807E+04   -0.32186E-01   -0.32091E-01 10640   0.545E-01-0.123E-02
CGA:   6    -0.128331707900E+04   -0.96209E-02   -0.95151E-02 10640   0.181E-01-0.203E-02
CGA:   7    -0.128332081755E+04   -0.37385E-02   -0.37299E-02 10640   0.478E-02-0.661E-03
CGA:   8    -0.128332202207E+04   -0.12045E-02   -0.12510E-02 10640   0.346E-02-0.998E-03
CGA:   9    -0.128332265365E+04   -0.63158E-03   -0.63564E-03 10640   0.219E-02-0.930E-03
CGA:  10    -0.128332116253E+04    0.14911E-02   -0.13448E-02 10640   0.197E-01-0.463E-02
CGA:  11    -0.128332327473E+04   -0.21122E-02   -0.21537E-02 10640   0.329E-02 0.385E-03
CGA:  12    -0.128332402244E+04   -0.74772E-03   -0.74641E-03 10640   0.827E-03-0.434E-04
CGA:  13    -0.128332429499E+04   -0.27255E-03   -0.26583E-03 10640   0.429E-03 0.893E-04
CGA:  14    -0.128332443279E+04   -0.13780E-03   -0.14329E-03 10640   0.456E-03-0.114E-03
CGA:  15    -0.128332450597E+04   -0.73181E-04   -0.72246E-04 10640   0.190E-03-0.226E-04
CGA:  16    -0.128332455095E+04   -0.44978E-04   -0.44836E-04 10640   0.166E-03-0.238E-04
CGA:  17    -0.128332440100E+04    0.14995E-03   -0.13527E-03 10640   0.203E-02-0.421E-03
CGA:  18    -0.128332465791E+04   -0.25690E-03   -0.26651E-03 10640   0.441E-03 0.667E-04
CGA:  19    -0.128332479044E+04   -0.13253E-03   -0.13431E-03 10640   0.191E-03-0.117E-03
CGA:  20    -0.128332482895E+04   -0.38514E-04   -0.37511E-04 10640   0.240E-03-0.821E-04
CGA:  21    -0.128332395576E+04    0.87319E-03   -0.47080E-03 10640   0.501E-02-0.723E-03
CGA:  22    -0.128332456817E+04   -0.61241E-03   -0.63286E-03 10640   0.144E-02 0.892E-04
CGA:  23    -0.128332496089E+04   -0.39272E-03   -0.39200E-03 10640   0.309E-03-0.206E-05
CGA:  24    -0.128332502961E+04   -0.68725E-04   -0.77768E-04 10640   0.185E-03 0.405E-04
CGA:  25    -0.128332509938E+04   -0.69772E-04   -0.68815E-04 10640   0.819E-04-0.634E-05
CGA:  26    -0.128332509560E+04    0.37830E-05   -0.93972E-05 10640   0.296E-04 0.386E-04
  50 F= -.12833251E+04 E0= -.12833251E+04  d E =-.520951E-02  mag=    47.0000
       N       E                     dE             d eps       ncg     rms          ort
SDA:   1    -0.127512613120E+04    0.81990E+01    0.00000E+00 10640   0.220E+02 0.000E+00
CGA:   2    -0.128060842980E+04   -0.54823E+01   -0.54837E+01 10640   0.106E+02 0.939E-02
CGA:   3    -0.128277024273E+04   -0.21618E+01   -0.21568E+01 10640   0.268E+01 0.165E-01
CGA:   4    -0.128314540385E+04   -0.37516E+00   -0.37704E+00 10640   0.530E+00-0.128E-01
CGA:   5    -0.128324241891E+04   -0.97015E-01   -0.96625E-01 10640   0.126E+00 0.719E-03
CGA:   6    -0.128326861051E+04   -0.26192E-01   -0.25811E-01 10640   0.389E-01-0.241E-02
CGA:   7    -0.128327684788E+04   -0.82374E-02   -0.81352E-02 10640   0.132E-01-0.537E-03
CGA:   8    -0.128327989735E+04   -0.30495E-02   -0.28304E-02 10640   0.704E-02-0.147E-02
CGA:   9    -0.128328166343E+04   -0.17661E-02   -0.16608E-02 10640   0.414E-02-0.110E-02
CGA:  10    -0.128328293446E+04   -0.12710E-02   -0.13268E-02 10640   0.579E-02-0.222E-02
CGA:  11    -0.128328364847E+04   -0.71401E-03   -0.67966E-03 10640   0.130E-02-0.131E-03
CGA:  12    -0.128328411682E+04   -0.46836E-03   -0.69694E-03 10640   0.319E-02-0.111E-02
CGA:  13    -0.128328453899E+04   -0.42217E-03   -0.42942E-03 10640   0.848E-03 0.414E-04
CGA:  14    -0.128328480854E+04   -0.26955E-03   -0.25292E-03 10640   0.694E-03-0.337E-03
CGA:  15    -0.128328513456E+04   -0.32601E-03    0.49571E-03 10640   0.789E-03-0.559E-05
CGA:  16    -0.128328581085E+04   -0.67629E-03    0.49991E-03 10640   0.386E-03 0.282E-03
CGA:  17    -0.128328628244E+04   -0.47159E-03    0.27992E-03 10640   0.174E-03 0.257E-03
CGA:  18    -0.128328636013E+04   -0.77689E-04   -0.76464E-04 10640   0.219E-03 0.122E-04
CGA:  19    -0.128328652201E+04   -0.16188E-03    0.15820E+00 10640   0.256E-03 0.704E-04
CGA:  20    -0.128328650909E+04    0.12921E-04   -0.12979E-03 10640   0.699E-02-0.425E-03
CGA:  21    -0.128328744390E+04   -0.93481E-03   -0.86160E-03 10640   0.870E-03-0.147E-03
CGA:  22    -0.128328757495E+04   -0.13105E-03   -0.15279E-03 10640   0.232E-03 0.523E-04
CGA:  23    -0.128328759951E+04   -0.24557E-04   -0.47612E-04 10640   0.624E-04 0.593E-04
CGA:  24    -0.128328763792E+04   -0.38417E-04   -0.34994E-04 10640   0.151E-03-0.290E-04
CGA:  25    -0.128328762794E+04    0.99860E-05   -0.56085E-05 10640   0.128E-03 0.318E-04
  51 F= -.12832876E+04 E0= -.12832876E+04  d E =0.374677E-01  mag=    47.0000
       N       E                     dE             d eps       ncg     rms          ort
SDA:   1    -0.126649181496E+04    0.16796E+02    0.00000E+00 10640   0.513E+02 0.000E+00
CGA:   2    -0.127727526664E+04   -0.10783E+02   -0.10806E+02 10640   0.206E+02 0.616E-01
CGA:   3    -0.128213237065E+04   -0.48571E+01   -0.48560E+01 10640   0.538E+01 0.557E-01
CGA:   4    -0.128294494586E+04   -0.81258E+00   -0.79273E+00 10640   0.996E+00 0.145E+00
CGA:   5    -0.128312811419E+04   -0.18317E+00   -0.18513E+00 10640   0.289E+00 0.140E-02
CGA:   6    -0.128317998311E+04   -0.51869E-01   -0.52047E-01 10640   0.815E-01 0.316E-02
CGA:   7    -0.128319926465E+04   -0.19282E-01   -0.19007E-01 10640   0.242E-01-0.135E-02
CGA:   8    -0.128320449289E+04   -0.52282E-02   -0.52095E-02 10640   0.121E-01-0.239E-05
CGA:   9    -0.128320734114E+04   -0.28483E-02   -0.28031E-02 10640   0.622E-02-0.231E-03
CGA:  10    -0.128320870877E+04   -0.13676E-02   -0.14608E-02 10640   0.269E-02 0.571E-03
CGA:  11    -0.128320946728E+04   -0.75851E-03   -0.80894E-03 10640   0.146E-02 0.407E-03
CGA:  12    -0.128320991266E+04   -0.44538E-03   -0.47119E-03 10640   0.115E-02 0.233E-03
CGA:  13    -0.128321029530E+04   -0.38264E-03   -0.40096E-03 10640   0.106E-02 0.207E-03
CGA:  14    -0.128321060645E+04   -0.31115E-03   -0.35528E-03 10640   0.740E-03 0.447E-03
CGA:  15    -0.128321098495E+04   -0.37851E-03   -0.38454E-03 10640   0.521E-03 0.452E-03
CGA:  16    -0.128321108193E+04   -0.96974E-04   -0.12157E-03 10640   0.337E-03 0.170E-03
CGA:  17    -0.128321127285E+04   -0.19092E-03   -0.19414E-03 10640   0.648E-03-0.521E-04
CGA:  18    -0.128321133946E+04   -0.66611E-04   -0.95210E-04 10640   0.472E-03 0.142E-03
CGA:  19    -0.128321141068E+04   -0.71213E-04   -0.10488E-03 10640   0.497E-03 0.184E-03
CGA:  20    -0.128321160661E+04   -0.19594E-03   -0.19654E-03 10640   0.489E-03 0.614E-05
CGA:  21    -0.128321179634E+04   -0.18972E-03   -0.24449E-03 10640   0.166E-02-0.385E-03
CGA:  22    -0.128321194047E+04   -0.14413E-03   -0.21395E-03 10640   0.404E-03 0.312E-03
CGA:  23    -0.128321210241E+04   -0.16194E-03   -0.16186E-03 10640   0.188E-03-0.916E-05
