       N       E                     dE             d eps       ncg     rms          ort
DAV:   1     0.102681513369E+05    0.10268E+05   -0.42439E+05 10640   0.155E+03
DAV:   2    -0.120740311547E+03   -0.10389E+05   -0.98061E+04 10640   0.474E+02
DAV:   3    -0.152250246501E+04   -0.14018E+04   -0.13069E+04 10640   0.181E+02
DAV:   4    -0.160392264281E+04   -0.81420E+02   -0.79253E+02 10640   0.461E+01
DAV:   5    -0.160629749943E+04   -0.23749E+01   -0.23669E+01 10640   0.839E+00
SDA:   6    -0.728171842923E+03    0.87813E+03   -0.23669E+01 10640   0.290E+04 0.000E+00
CGA:   7    -0.113677664010E+04   -0.40860E+03   -0.40529E+03 10640   0.945E+03-0.164E+02
CGA:   8    -0.115941431265E+04   -0.22638E+02   -0.54455E+02 10640   0.109E+04-0.507E+03
CGA:   9    -0.116681123005E+04   -0.73969E+01   -0.52700E+02 10640   0.161E+04-0.974E+03
CGA:  10    -0.115768416082E+04    0.91271E+01   -0.82257E+02 10640   0.206E+04-0.138E+04
CGA:  11    -0.115916980658E+04   -0.14856E+01   -0.97807E+02 10640   0.229E+04-0.192E+04
CGA:  12    -0.115814654394E+04    0.10233E+01   -0.10965E+03 10640   0.254E+04-0.221E+04
CGA:  13    -0.117557113491E+04   -0.17425E+02   -0.11424E+03 10640   0.223E+04-0.226E+04
CGA:  14    -0.119907271441E+04   -0.23502E+02   -0.94430E+02 10640   0.167E+04-0.187E+04
CGA:  15    -0.122986900360E+04   -0.30796E+02   -0.61085E+02 10640   0.691E+03-0.101E+04
CGA:  16    -0.124462523275E+04   -0.14756E+02   -0.22718E+02 10640   0.195E+03-0.273E+03
CGA:  17    -0.125398327008E+04   -0.93580E+01   -0.76059E+01 10640   0.595E+02 0.196E+02
CGA:  18    -0.126088424884E+04   -0.69010E+01   -0.71725E+01 10640   0.137E+03 0.241E+01
CGA:  19    -0.127303953864E+04   -0.12155E+02   -0.10567E+02 10640   0.422E+02-0.103E+01
CGA:  20    -0.127484789850E+04   -0.18084E+01   -0.19447E+01 10640   0.198E+02-0.178E+01
CGA:  21    -0.127641763749E+04   -0.15697E+01   -0.17294E+01 10640   0.253E+02 0.433E+00
CGA:  22    -0.127843596602E+04   -0.20183E+01   -0.21405E+01 10640   0.925E+01-0.225E-01
CGA:  23    -0.127916711580E+04   -0.73115E+00   -0.80002E+00 10640   0.571E+01-0.111E+00
CGA:  24    -0.128001593190E+04   -0.84882E+00   -0.83157E+00 10640   0.534E+01 0.171E+00
CGA:  25    -0.128092033100E+04   -0.90440E+00   -0.88416E+00 10640   0.269E+01 0.732E-02
CGA:  26    -0.128146422075E+04   -0.54389E+00   -0.55527E+00 10640   0.327E+01-0.231E+00
CGA:  27    -0.128211404487E+04   -0.64982E+00   -0.71883E+00 10640   0.198E+01-0.769E+00
CGA:  28    -0.128244715692E+04   -0.33311E+00   -0.35113E+00 10640   0.120E+01-0.250E+00
CGA:  29    -0.128272980350E+04   -0.28265E+00   -0.34530E+00 10640   0.136E+01-0.321E+00
CGA:  30    -0.128288004130E+04   -0.15024E+00   -0.15038E+00 10640   0.439E+00-0.141E+00
CGA:  31    -0.128298518716E+04   -0.10515E+00   -0.10390E+00 10640   0.338E+00 0.113E-01
CGA:  32    -0.128305409928E+04   -0.68912E-01   -0.66441E-01 10640   0.122E+00 0.667E-01
CGA:  33    -0.128307880336E+04   -0.24704E-01   -0.24194E-01 10640   0.718E-01 0.623E-01
CGA:  34    -0.128309092378E+04   -0.12120E-01   -0.11862E-01 10640   0.472E-01 0.324E-01
CGA:  35    -0.128310089063E+04   -0.99668E-02   -0.10314E-01 10640   0.289E-01 0.480E-01
CGA:  36    -0.128310356087E+04   -0.26702E-02   -0.34493E-02 10640   0.200E-01 0.205E-01
CGA:  37    -0.128310512614E+04   -0.15653E-02   -0.23006E-02 10640   0.172E-01 0.182E-01
CGA:  38    -0.128310623348E+04   -0.11073E-02   -0.18443E-02 10640   0.151E-01 0.160E-01
CGA:  39    -0.128310702035E+04   -0.78687E-03   -0.15113E-02 10640   0.135E-01 0.142E-01
CGA:  40    -0.128310758009E+04   -0.55973E-03   -0.12594E-02 10640   0.121E-01 0.127E-01
CGA:  41    -0.128310797938E+04   -0.39929E-03   -0.10662E-02 10640   0.110E-01 0.115E-01
CGA:  42    -0.128310826275E+04   -0.28337E-03   -0.91421E-03 10640   0.101E-01 0.105E-01
CGA:  43    -0.128310846180E+04   -0.19905E-03   -0.79290E-03 10640   0.931E-02 0.967E-02
CGA:  44    -0.128310859889E+04   -0.13709E-03   -0.69450E-03 10640   0.863E-02 0.895E-02
CGA:  45    -0.128310869012E+04   -0.91228E-04   -0.61356E-03 10640   0.805E-02 0.833E-02
CGA:  46    -0.128310874716E+04   -0.57038E-04   -0.54613E-03 10640   0.754E-02 0.778E-02
CGA:  47    -0.128310877858E+04   -0.31421E-04   -0.48931E-03 10640   0.710E-02 0.731E-02
CGA:  48    -0.128310879074E+04   -0.12164E-04   -0.44094E-03 10640   0.670E-02 0.689E-02
CGA:  49    -0.128310878841E+04    0.23307E-05   -0.39939E-03 10640   0.635E-02 0.652E-02
CGA:  50    -0.128310877518E+04    0.13230E-04   -0.36339E-03 10640   0.603E-02 0.618E-02
CGA:  51    -0.128310875379E+04    0.21398E-04   -0.33199E-03 10640   0.574E-02 0.588E-02
CGA:  52    -0.128310872631E+04    0.27474E-04   -0.30440E-03 10640   0.549E-02 0.561E-02
CGA:  53    -0.128310869437E+04    0.31940E-04   -0.28003E-03 10640   0.525E-02 0.537E-02
CGA:  54    -0.128310865921E+04    0.35159E-04   -0.25838E-03 10640   0.504E-02 0.514E-02
CGA:  55    -0.128310862180E+04    0.37414E-04   -0.23906E-03 10640   0.484E-02 0.494E-02
CGA:  56    -0.128310858288E+04    0.38915E-04   -0.22173E-03 10640   0.467E-02 0.475E-02
CGA:  57    -0.128310854305E+04    0.39830E-04   -0.20613E-03 10640   0.450E-02 0.458E-02
CGA:  58    -0.128310850276E+04    0.40291E-04   -0.19204E-03 10640   0.435E-02 0.442E-02
CGA:  59    -0.128310846237E+04    0.40394E-04   -0.17926E-03 10640   0.421E-02 0.428E-02
CGA:  60    -0.128310842215E+04    0.40219E-04   -0.16764E-03 10640   0.408E-02 0.414E-02
CGA:  61    -0.128310838232E+04    0.39829E-04   -0.15704E-03 10640   0.396E-02 0.402E-02
CGA:  62    -0.128310834304E+04    0.39275E-04   -0.14735E-03 10640   0.385E-02 0.390E-02
CGA:  63    -0.128310830445E+04    0.38596E-04   -0.13846E-03 10640   0.374E-02 0.379E-02
CGA:  64    -0.128310826663E+04    0.37823E-04   -0.13029E-03 10640   0.365E-02 0.369E-02
CGA:  65    -0.128310822964E+04    0.36983E-04   -0.12276E-03 10640   0.356E-02 0.360E-02
CGA:  66    -0.128310819355E+04    0.36091E-04   -0.11581E-03 10640   0.347E-02 0.351E-02
CGA:  67    -0.128310815839E+04    0.35167E-04   -0.10939E-03 10640   0.339E-02 0.343E-02
CGA:  68    -0.128310812416E+04    0.34221E-04   -0.10343E-03 10640   0.332E-02 0.335E-02
CGA:  69    -0.128310809090E+04    0.33264E-04   -0.97906E-04 10640   0.325E-02 0.328E-02
CGA:  70    -0.128310805860E+04    0.32302E-04   -0.92769E-04 10640   0.318E-02 0.321E-02
CGA:  71    -0.128310802725E+04    0.31344E-04   -0.87985E-04 10640   0.312E-02 0.315E-02
CGA:  72    -0.128310799686E+04    0.30394E-04   -0.83523E-04 10640   0.306E-02 0.309E-02
CGA:  73    -0.128310796740E+04    0.29458E-04   -0.79356E-04 10640   0.301E-02 0.303E-02
CGA:  74    -0.128310793887E+04    0.28536E-04   -0.75459E-04 10640   0.295E-02 0.298E-02
CGA:  75    -0.128310791123E+04    0.27632E-04   -0.71810E-04 10640   0.290E-02 0.293E-02
CGA:  76    -0.128310788449E+04    0.26745E-04   -0.68388E-04 10640   0.286E-02 0.288E-02
CGA:  77    -0.128310785861E+04    0.25881E-04   -0.65176E-04 10640   0.281E-02 0.284E-02
CGA:  78    -0.128310783357E+04    0.25036E-04   -0.62158E-04 10640   0.277E-02 0.279E-02
CGA:  79    -0.128310780936E+04    0.24214E-04   -0.59317E-04 10640   0.273E-02 0.275E-02
CGA:  80    -0.128310778594E+04    0.23414E-04   -0.56643E-04 10640   0.270E-02 0.271E-02
CGA:  81    -0.128310776331E+04    0.22638E-04   -0.54120E-04 10640   0.266E-02 0.268E-02
CGA:  82    -0.128310774142E+04    0.21883E-04   -0.51740E-04 10640   0.263E-02 0.264E-02
CGA:  83    -0.128310772027E+04    0.21153E-04   -0.49491E-04 10640   0.259E-02 0.261E-02
CGA:  84    -0.128310769983E+04    0.20443E-04   -0.47365E-04 10640   0.256E-02 0.258E-02
CGA:  85    -0.128310768007E+04    0.19757E-04   -0.45353E-04 10640   0.253E-02 0.255E-02
CGA:  86    -0.128310766098E+04    0.19093E-04   -0.43446E-04 10640   0.251E-02 0.252E-02
CGA:  87    -0.128310764253E+04    0.18448E-04   -0.41640E-04 10640   0.248E-02 0.249E-02
CGA:  88    -0.128310762470E+04    0.17826E-04   -0.39926E-04 10640   0.245E-02 0.247E-02
CGA:  89    -0.128310760748E+04    0.17223E-04   -0.38298E-04 10640   0.243E-02 0.244E-02
CGA:  90    -0.128310759084E+04    0.16642E-04   -0.36752E-04 10640   0.241E-02 0.242E-02
CGA:  91    -0.128310757476E+04    0.16079E-04   -0.35282E-04 10640   0.238E-02 0.239E-02
CGA:  92    -0.128310755923E+04    0.15534E-04   -0.33883E-04 10640   0.236E-02 0.237E-02
CGA:  93    -0.128310754422E+04    0.15010E-04   -0.32551E-04 10640   0.234E-02 0.235E-02
CGA:  94    -0.128310752971E+04    0.14502E-04   -0.31283E-04 10640   0.232E-02 0.233E-02
CGA:  95    -0.128310751570E+04    0.14012E-04   -0.30073E-04 10640   0.230E-02 0.231E-02
CGA:  96    -0.128310750216E+04    0.13539E-04   -0.28920E-04 10640   0.229E-02 0.229E-02
CGA:  97    -0.128310748908E+04    0.13081E-04   -0.27820E-04 10640   0.227E-02 0.228E-02
CGA:  98    -0.128310747644E+04    0.12640E-04   -0.26769E-04 10640   0.225E-02 0.226E-02
CGA:  99    -0.128310746423E+04    0.12214E-04   -0.25764E-04 10640   0.224E-02 0.224E-02
CGA: 100    -0.128310745243E+04    0.11803E-04   -0.24805E-04 10640   0.222E-02 0.223E-02
CGA: 101    -0.128310744102E+04    0.11406E-04   -0.23887E-04 10640   0.221E-02 0.221E-02
CGA: 102    -0.128310743000E+04    0.11022E-04   -0.23009E-04 10640   0.219E-02 0.220E-02
CGA: 103    -0.128310741934E+04    0.10653E-04   -0.22168E-04 10640   0.218E-02 0.219E-02
CGA: 104    -0.128310740905E+04    0.10296E-04   -0.21364E-04 10640   0.217E-02 0.217E-02
CGA: 105    -0.128310739910E+04    0.99509E-05   -0.20592E-04 10640   0.215E-02 0.216E-02
CGA: 106    -0.128310738948E+04    0.96194E-05   -0.19853E-04 10640   0.214E-02 0.215E-02
CGA: 107    -0.128310738018E+04    0.92985E-05   -0.19145E-04 10640   0.213E-02 0.214E-02
CGA: 108    -0.128310737119E+04    0.89881E-05   -0.18465E-04 10640   0.212E-02 0.212E-02
CGA: 109    -0.128310736250E+04    0.86893E-05   -0.17813E-04 10640   0.211E-02 0.211E-02
CGA: 110    -0.128310735410E+04    0.84017E-05   -0.17187E-04 10640   0.210E-02 0.210E-02
CGA: 111    -0.128310734598E+04    0.81225E-05   -0.16586E-04 10640   0.209E-02 0.209E-02
CGA: 112    -0.128310733812E+04    0.78537E-05   -0.16009E-04 10640   0.208E-02 0.208E-02
CGA: 113    -0.128310733053E+04    0.75953E-05   -0.15454E-04 10640   0.207E-02 0.207E-02
CGA: 114    -0.128310732318E+04    0.73442E-05   -0.14921E-04 10640   0.206E-02 0.207E-02
CGA: 115    -0.128310731608E+04    0.71022E-05   -0.14409E-04 10640   0.205E-02 0.206E-02
CGA: 116    -0.128310730921E+04    0.68694E-05   -0.13916E-04 10640   0.204E-02 0.205E-02
CGA: 117    -0.128310730257E+04    0.66438E-05   -0.13442E-04 10640   0.204E-02 0.204E-02
CGA: 118    -0.128310729614E+04    0.64272E-05   -0.12986E-04 10640   0.203E-02 0.203E-02
CGA: 119    -0.128310728993E+04    0.62157E-05   -0.12547E-04 10640   0.202E-02 0.203E-02
CGA: 120    -0.128310728391E+04    0.60144E-05   -0.12124E-04 10640   0.201E-02 0.202E-02
CGA: 121    -0.128310727809E+04    0.58170E-05   -0.11717E-04 10640   0.201E-02 0.201E-02
CGA: 122    -0.128310727247E+04    0.56289E-05   -0.11325E-04 10640   0.200E-02 0.200E-02
CGA: 123    -0.128310726702E+04    0.54459E-05   -0.10947E-04 10640   0.199E-02 0.200E-02
CGA: 124    -0.128310726175E+04    0.52699E-05   -0.10583E-04 10640   0.199E-02 0.199E-02
CGA: 125    -0.128310725665E+04    0.50995E-05   -0.10233E-04 10640   0.198E-02 0.199E-02
   1 F= -.12831073E+04 E0= -.12831073E+04  d E =-.128311E+04  mag=    47.0000
       N       E                     dE             d eps       ncg     rms          ort
SDA:   1    -0.128310700734E+04    0.25441E-03    0.00000E+00 10640   0.713E-02 0.000E+00
CGA:   2    -0.128310751453E+04   -0.50719E-03   -0.31933E-03 10640   0.468E-02 0.575E-02
CGA:   3    -0.128310776164E+04   -0.24711E-03   -0.16061E-03 10640   0.374E-02 0.420E-02
CGA:   4    -0.128310792725E+04   -0.16562E-03   -0.11247E-03 10640   0.321E-02 0.348E-02
CGA:   5    -0.128310805169E+04   -0.12443E-03   -0.88192E-04 10640   0.285E-02 0.303E-02
CGA:   6    -0.128310815099E+04   -0.99297E-04   -0.73271E-04 10640   0.259E-02 0.272E-02
CGA:   7    -0.128310823319E+04   -0.82202E-04   -0.63010E-04 10640   0.239E-02 0.249E-02
CGA:   8    -0.128310830293E+04   -0.69739E-04   -0.55428E-04 10640   0.223E-02 0.231E-02
CGA:   9    -0.128310836313E+04   -0.60205E-04   -0.49540E-04 10640   0.209E-02 0.216E-02
CGA:  10    -0.128310841578E+04   -0.52653E-04   -0.44799E-04 10640   0.198E-02 0.203E-02
CGA:  11    -0.128310846230E+04   -0.46513E-04   -0.40878E-04 10640   0.188E-02 0.193E-02
CGA:  12    -0.128310850372E+04   -0.41421E-04   -0.37567E-04 10640   0.179E-02 0.183E-02
CGA:  13    -0.128310854085E+04   -0.37129E-04   -0.34725E-04 10640   0.172E-02 0.175E-02
CGA:  14    -0.128310857432E+04   -0.33470E-04   -0.32254E-04 10640   0.165E-02 0.168E-02
CGA:  15    -0.128310860463E+04   -0.30312E-04   -0.30081E-04 10640   0.159E-02 0.162E-02
CGA:  16    -0.128310863220E+04   -0.27568E-04   -0.28155E-04 10640   0.153E-02 0.156E-02
CGA:  17    -0.128310865736E+04   -0.25167E-04   -0.26435E-04 10640   0.148E-02 0.151E-02
CGA:  18    -0.128310868042E+04   -0.23053E-04   -0.24888E-04 10640   0.144E-02 0.146E-02
CGA:  19    -0.128310870160E+04   -0.21180E-04   -0.23490E-04 10640   0.139E-02 0.141E-02
CGA:  20    -0.128310872111E+04   -0.19515E-04   -0.22220E-04 10640   0.136E-02 0.137E-02
CGA:  21    -0.128310873914E+04   -0.18030E-04   -0.21063E-04 10640   0.132E-02 0.134E-02
CGA:  22    -0.128310875584E+04   -0.16698E-04   -0.20003E-04 10640   0.129E-02 0.130E-02
CGA:  23    -0.128310877134E+04   -0.15502E-04   -0.19029E-04 10640   0.126E-02 0.127E-02
CGA:  24    -0.128310878577E+04   -0.14423E-04   -0.18132E-04 10640   0.123E-02 0.124E-02
CGA:  25    -0.128310879922E+04   -0.13449E-04   -0.17304E-04 10640   0.120E-02 0.121E-02
CGA:  26    -0.128310881178E+04   -0.12568E-04   -0.16537E-04 10640   0.118E-02 0.119E-02
CGA:  27    -0.128310882355E+04   -0.11765E-04   -0.15824E-04 10640   0.115E-02 0.116E-02
CGA:  28    -0.128310883458E+04   -0.11036E-04   -0.15161E-04 10640   0.113E-02 0.114E-02
CGA:  29    -0.128310884496E+04   -0.10372E-04   -0.14543E-04 10640   0.111E-02 0.112E-02
CGA:  30    -0.128310885472E+04   -0.97640E-05   -0.13965E-04 10640   0.109E-02 0.110E-02
CGA:  31    -0.128310886393E+04   -0.92078E-05   -0.13424E-04 10640   0.107E-02 0.108E-02
CGA:  32    -0.128310887263E+04   -0.86989E-05   -0.12917E-04 10640   0.105E-02 0.106E-02
CGA:  33    -0.128310888086E+04   -0.82308E-05   -0.12441E-04 10640   0.104E-02 0.105E-02
CGA:  34    -0.128310888866E+04   -0.77995E-05   -0.11993E-04 10640   0.102E-02 0.103E-02
CGA:  35    -0.128310889606E+04   -0.74036E-05   -0.11571E-04 10640   0.101E-02 0.101E-02
CGA:  36    -0.128310890310E+04   -0.70378E-05   -0.11173E-04 10640   0.994E-03 0.100E-02
CGA:  37    -0.128310890980E+04   -0.66984E-05   -0.10796E-04 10640   0.981E-03 0.987E-03
CGA:  38    -0.128310891618E+04   -0.63865E-05   -0.10440E-04 10640   0.968E-03 0.975E-03
CGA:  39    -0.128310892228E+04   -0.60946E-05   -0.10102E-04 10640   0.957E-03 0.962E-03
   2 F= -.12831089E+04 E0= -.12831089E+04  d E =-.166563E-02  mag=    47.0000
       N       E                     dE             d eps       ncg     rms          ort
SDA:   1    -0.128309286017E+04    0.16056E-01    0.00000E+00 10640   0.867E-01 0.000E+00
CGA:   2    -0.128310534245E+04   -0.12482E-01   -0.80217E-02 10640   0.345E-01 0.487E-01
CGA:   3    -0.128311446843E+04   -0.91260E-02   -0.63647E-02 10640   0.140E-01 0.202E-01
CGA:   4    -0.128312033214E+04   -0.58637E-02   -0.18791E-02 10640   0.307E-02 0.546E-02
CGA:   5    -0.128312157091E+04   -0.12388E-02   -0.10393E-02 10640   0.102E-02 0.126E-02
CGA:   6    -0.128312184973E+04   -0.27882E-03   -0.23202E-03 10640   0.462E-03 0.698E-03
CGA:   7    -0.128312193601E+04   -0.86286E-04   -0.67474E-04 10640   0.385E-03 0.386E-03
CGA:   8    -0.128312203775E+04   -0.10174E-03   -0.71455E-04 10640   0.350E-03 0.352E-03
CGA:   9    -0.128312212010E+04   -0.82348E-04   -0.60208E-04 10640   0.327E-03 0.324E-03
CGA:  10    -0.128312222842E+04   -0.10832E-03   -0.73408E-04 10640   0.316E-03 0.297E-03
CGA:  11    -0.128312230807E+04   -0.79651E-04   -0.59610E-04 10640   0.312E-03 0.266E-03
CGA:  12    -0.128312241453E+04   -0.10646E-03   -0.78395E-04 10640   0.394E-03 0.209E-03
CGA:  13    -0.128312247444E+04   -0.59906E-04   -0.56721E-04 10640   0.331E-03 0.158E-03
CGA:  14    -0.128312266638E+04   -0.19194E-03   -0.12752E-03 10640   0.363E-03 0.428E-03
CGA:  15    -0.128312274579E+04   -0.79410E-04   -0.79599E-04 10640   0.565E-03-0.219E-05
CGA:  16    -0.128312317809E+04   -0.43230E-03   -0.27244E-03 10640   0.522E-03 0.453E-03
CGA:  17    -0.128312322195E+04   -0.43860E-04   -0.51322E-04 10640   0.158E-03 0.134E-03
CGA:  18    -0.128312330097E+04   -0.79016E-04   -0.60907E-04 10640   0.393E-03 0.116E-03
CGA:  19    -0.128312337385E+04   -0.72879E-04   -0.98497E-04 10640   0.829E-03-0.278E-03
CGA:  20    -0.128312343608E+04   -0.62229E-04   -0.74036E-04 10640   0.133E-03 0.161E-03
CGA:  21    -0.128312347634E+04   -0.40265E-04   -0.34990E-04 10640   0.252E-03 0.863E-04
CGA:  22    -0.128312347751E+04   -0.11667E-05   -0.11714E-03 10640   0.207E-02-0.383E-03
CGA:  23    -0.128312363735E+04   -0.15984E-03   -0.18174E-03 10640   0.122E-03 0.249E-03
CGA:  24    -0.128312366225E+04   -0.24903E-04   -0.24471E-04 10640   0.165E-03 0.691E-04
CGA:  25    -0.128312334367E+04    0.31859E-03   -0.17558E-03 10640   0.696E-02-0.543E-03
CGA:  26    -0.128312392715E+04   -0.58349E-03   -0.64418E-03 10640   0.931E-04 0.304E-03
CGA:  27    -0.128312395383E+04   -0.26678E-04   -0.27571E-04 10640   0.161E-03 0.405E-04
CGA:  28    -0.128312409612E+04   -0.14229E-03    0.29762E-02 10640   0.857E-04 0.201E-03
CGA:  29    -0.128312401012E+04    0.86003E-04   -0.11339E-03 10640   0.308E-02-0.197E-03
CGA:  30    -0.128312428475E+04   -0.27463E-03   -0.30462E-03 10640   0.542E-04 0.130E-03
CGA:  31    -0.128312429303E+04   -0.82788E-05   -0.12701E-04 10640   0.620E-04 0.374E-04
CGA:  32    -0.128312433821E+04   -0.45183E-04    0.12874E-03 10640   0.122E-03 0.101E-04
CGA:  33    -0.128312472084E+04   -0.38263E-03   -0.66748E-04 10640   0.429E-03 0.254E-04
CGA:  34    -0.128312479129E+04   -0.70447E-04   -0.85868E-04 10640   0.500E-04 0.297E-04
CGA:  35    -0.128312480842E+04   -0.17125E-04   -0.12564E-04 10640   0.490E-04-0.135E-04
CGA:  36    -0.128312480852E+04   -0.10038E-06   -0.63964E-05 10640   0.189E-04 0.154E-04
   3 F= -.12831248E+04 E0= -.12831248E+04  d E =-.158862E-01  mag=    47.0000
       N       E                     dE             d eps       ncg     rms          ort
SDA:   1    -0.126140438953E+04    0.21720E+02    0.00000E+00 10640   0.687E+02 0.000E+00
CGA:   2    -0.127496799126E+04   -0.13564E+02   -0.13601E+02 10640   0.257E+02 0.211E+00
CGA:   3    -0.128144837146E+04   -0.64804E+01   -0.64950E+01 10640   0.710E+01 0.240E-01
CGA:   4    -0.128254309431E+04   -0.10947E+01   -0.10911E+01 10640   0.104E+01 0.549E-01
CGA:   5    -0.128275693901E+04   -0.21384E+00   -0.21435E+00 10640   0.287E+00 0.198E-02
CGA:   6    -0.128281343300E+04   -0.56494E-01   -0.56395E-01 10640   0.972E-01 0.577E-03
CGA:   7    -0.128283241787E+04   -0.18985E-01   -0.19012E-01 10640   0.266E-01 0.339E-03
CGA:   8    -0.128283854027E+04   -0.61224E-02   -0.60263E-02 10640   0.135E-01-0.454E-03
CGA:   9    -0.128284113209E+04   -0.25918E-02   -0.26332E-02 10640   0.712E-02 0.241E-03
CGA:  10    -0.128284273759E+04   -0.16055E-02   -0.16430E-02 10640   0.332E-02 0.198E-03
CGA:  11    -0.128284361296E+04   -0.87537E-03   -0.88373E-03 10640   0.198E-02 0.585E-04
CGA:  12    -0.128284409116E+04   -0.47820E-03   -0.49824E-03 10640   0.107E-02 0.131E-03
CGA:  13    -0.128284451858E+04   -0.42742E-03   -0.42892E-03 10640   0.915E-03 0.766E-04
CGA:  14    -0.128284479524E+04   -0.27666E-03   -0.29224E-03 10640   0.908E-03 0.160E-03
CGA:  15    -0.128284506949E+04   -0.27425E-03   -0.30247E-03 10640   0.715E-03 0.262E-03
CGA:  16    -0.128284531274E+04   -0.24326E-03   -0.26454E-03 10640   0.618E-03 0.215E-03
CGA:  17    -0.128284548047E+04   -0.16773E-03   -0.19687E-03 10640   0.353E-03 0.212E-03
CGA:  18    -0.128284564756E+04   -0.16709E-03   -0.16887E-03 10640   0.292E-03 0.105E-03
CGA:  19    -0.128284575120E+04   -0.10364E-03   -0.11071E-03 10640   0.232E-03 0.847E-04
CGA:  20    -0.128284584582E+04   -0.94624E-04   -0.97292E-04 10640   0.211E-03 0.591E-04
CGA:  21    -0.128284592010E+04   -0.74278E-04   -0.76651E-04 10640   0.207E-03 0.279E-04
CGA:  22    -0.128284599327E+04   -0.73167E-04   -0.73216E-04 10640   0.194E-03-0.225E-05
CGA:  23    -0.128284603860E+04   -0.45328E-04   -0.47062E-04 10640   0.101E-03 0.129E-04
CGA:  24    -0.128284609199E+04   -0.53395E-04   -0.71275E-04 10640   0.213E-03-0.614E-04
CGA:  25    -0.128284611048E+04   -0.18486E-04   -0.25108E-04 10640   0.571E-04 0.269E-04
CGA:  26    -0.128284612456E+04   -0.14086E-04   -0.15989E-04 10640   0.311E-04 0.176E-04
CGA:  27    -0.128284613173E+04   -0.71637E-05   -0.83609E-05 10640   0.233E-04 0.823E-05
   4 F= -.12828461E+04 E0= -.12828461E+04  d E =0.278677E+00  mag=    47.0000
       N       E                     dE             d eps       ncg     rms          ort
SDA:   1    -0.127374603976E+04    0.91001E+01    0.00000E+00 10640   0.303E+02 0.000E+00
CGA:   2    -0.127969502990E+04   -0.59490E+01   -0.59510E+01 10640   0.114E+02 0.144E-01
CGA:   3    -0.128255523512E+04   -0.28602E+01   -0.28615E+01 10640   0.316E+01 0.527E-02
CGA:   4    -0.128304066626E+04   -0.48543E+00   -0.48607E+00 10640   0.468E+00 0.472E-02
CGA:   5    -0.128313326430E+04   -0.92598E-01   -0.92586E-01 10640   0.146E+00-0.124E-03
CGA:   6    -0.128315801313E+04   -0.24749E-01   -0.24673E-01 10640   0.533E-01-0.191E-03
CGA:   7    -0.128316793836E+04   -0.99252E-02   -0.98574E-02 10640   0.146E-01-0.522E-03
CGA:   8    -0.128317090908E+04   -0.29707E-02   -0.29658E-02 10640   0.598E-02-0.306E-04
CGA:   9    -0.128317245032E+04   -0.15412E-02   -0.15232E-02 10640   0.350E-02-0.483E-03
CGA:  10    -0.128317327877E+04   -0.82845E-03   -0.81693E-03 10640   0.195E-02-0.310E-03
CGA:  11    -0.128317377809E+04   -0.49933E-03   -0.49446E-03 10640   0.172E-02-0.449E-03
CGA:  12    -0.128317410270E+04   -0.32461E-03   -0.30203E-03 10640   0.999E-03-0.377E-03
CGA:  13    -0.128317437040E+04   -0.26770E-03   -0.38659E-03 10640   0.199E-02-0.565E-03
CGA:  14    -0.128317458166E+04   -0.21126E-03   -0.23246E-03 10640   0.527E-03 0.123E-03
CGA:  15    -0.128317471902E+04   -0.13736E-03   -0.14123E-03 10640   0.263E-03 0.113E-03
CGA:  16    -0.128317479548E+04   -0.76462E-04   -0.78767E-04 10640   0.242E-03 0.602E-04
CGA:  17    -0.128317487535E+04   -0.79870E-04   -0.80775E-04 10640   0.136E-03 0.761E-04
CGA:  18    -0.128317491695E+04   -0.41600E-04   -0.43777E-04 10640   0.132E-03 0.564E-04
CGA:  19    -0.128317496597E+04   -0.49021E-04   -0.49878E-04 10640   0.107E-03 0.622E-04
CGA:  20    -0.128317502558E+04   -0.59605E-04   -0.13177E-03 10640   0.900E-03-0.133E-03
CGA:  21    -0.128317511837E+04   -0.92788E-04   -0.10929E-03 10640   0.130E-03 0.913E-04
CGA:  22    -0.128317514655E+04   -0.28188E-04   -0.31398E-04 10640   0.791E-04 0.404E-04
CGA:  23    -0.128317444485E+04    0.70170E-03   -0.37793E-03 10640   0.426E-02-0.562E-03
CGA:  24    -0.128317500419E+04   -0.55934E-03   -0.62705E-03 10640   0.852E-03 0.194E-03
CGA:  25    -0.128317521196E+04   -0.20777E-03   -0.21608E-03 10640   0.451E-03 0.316E-04
CGA:  26    -0.128317532316E+04   -0.11120E-03   -0.81543E-04 10640   0.111E-03-0.892E-04
CGA:  27    -0.128317533662E+04   -0.13453E-04   -0.17933E-04 10640   0.487E-04 0.158E-04
CGA:  28    -0.128317533930E+04   -0.26787E-05   -0.94272E-05 10640   0.166E-04 0.223E-04
   5 F= -.12831753E+04 E0= -.12831753E+04  d E =-.329208E+00  mag=    47.0000
       N       E                     dE             d eps       ncg     rms          ort
SDA:   1    -0.128307272614E+04    0.10261E+00    0.00000E+00 10640   0.323E+00 0.000E+00
CGA:   2    -0.128314528060E+04   -0.72554E-01   -0.72671E-01 10640   0.142E+00 0.614E-03
CGA:   3    -0.128317729364E+04   -0.32013E-01   -0.31985E-01 10640   0.369E-01-0.160E-03
CGA:   4    -0.128318248534E+04   -0.51917E-02   -0.52237E-02 10640   0.770E-02 0.148E-03
CGA:   5    -0.128318371756E+04   -0.12322E-02   -0.12428E-02 10640   0.215E-02 0.536E-04
CGA:   6    -0.128318413899E+04   -0.42143E-03   -0.40864E-03 10640   0.602E-03-0.586E-04
CGA:   7    -0.128318421015E+04   -0.71156E-04   -0.10050E-03 10640   0.153E-03 0.133E-03
CGA:   8    -0.128318424341E+04   -0.33263E-04   -0.38526E-04 10640   0.592E-04 0.302E-04
CGA:   9    -0.128318426129E+04   -0.17885E-04   -0.19326E-04 10640   0.347E-04 0.143E-04
CGA:  10    -0.128318426326E+04   -0.19654E-05   -0.67902E-05 10640   0.185E-04 0.229E-04
   6 F= -.12831843E+04 E0= -.12831843E+04  d E =-.892396E-02  mag=    47.0000
       N       E                     dE             d eps       ncg     rms          ort
SDA:   1    -0.127925005803E+04    0.39342E+01    0.00000E+00 10640   0.107E+02 0.000E+00
CGA:   2    -0.128193216145E+04   -0.26821E+01   -0.26824E+01 10640   0.487E+01 0.377E-02
CGA:   3    -0.128299352015E+04   -0.10614E+01   -0.10608E+01 10640   0.921E+00-0.313E-02
CGA:   4    -0.128314960396E+04   -0.15608E+00   -0.15629E+00 10640   0.179E+00 0.265E-02
CGA:   5    -0.128318553421E+04   -0.35930E-01   -0.35790E-01 10640   0.441E-01-0.115E-02
CGA:   6    -0.128319353091E+04   -0.79967E-02   -0.81239E-02 10640   0.182E-01 0.106E-02
CGA:   7    -0.128319666044E+04   -0.31295E-02   -0.31599E-02 10640   0.548E-02 0.212E-03
CGA:   8    -0.128319795687E+04   -0.12964E-02   -0.12820E-02 10640   0.288E-02-0.181E-03
CGA:   9    -0.128319857072E+04   -0.61384E-03   -0.62082E-03 10640   0.143E-02 0.906E-04
CGA:  10    -0.128319896264E+04   -0.39192E-03   -0.39372E-03 10640   0.723E-03 0.541E-04
CGA:  11    -0.128319921910E+04   -0.25646E-03   -0.26904E-03 10640   0.994E-03-0.212E-03
CGA:  12    -0.128319926993E+04   -0.50835E-04   -0.82218E-04 10640   0.436E-03 0.170E-03
CGA:  13    -0.128319928850E+04   -0.18570E-04   -0.53619E-04 10640   0.319E-03 0.187E-03
CGA:  14    -0.128319934713E+04   -0.58632E-04   -0.77314E-04 10640   0.262E-03 0.163E-03
CGA:  15    -0.128319861427E+04    0.73287E-03   -0.26851E-03 10640   0.134E-01-0.134E-02
CGA:  16    -0.128319955930E+04   -0.94504E-03   -0.11459E-02 10640   0.337E-03 0.100E-02
CGA:  17    -0.128319955199E+04    0.73138E-05   -0.27618E-04 10640   0.990E-04 0.154E-03
CGA:  18    -0.128319954730E+04    0.46863E-05   -0.11224E-04 10640   0.619E-04 0.742E-04
CGA:  19    -0.128319959860E+04   -0.51293E-04    0.18526E-04 10640   0.614E-04 0.251E-04
CGA:  20    -0.128319962412E+04   -0.25526E-04   -0.25096E-04 10640   0.480E-04 0.462E-04
CGA:  21    -0.128319965395E+04   -0.29825E-04    0.67102E-04 10640   0.570E-04 0.160E-04
CGA:  22    -0.128319969771E+04   -0.43761E-04    0.48733E-03 10640   0.457E-04 0.368E-04
CGA:  23    -0.128319971545E+04   -0.17744E-04   -0.20069E-04 10640   0.156E-03-0.148E-04
CGA:  24    -0.128319974694E+04   -0.31486E-04   -0.32634E-04 10640   0.203E-03-0.573E-04
CGA:  25    -0.128319978624E+04   -0.39300E-04   -0.55948E-04 10640   0.982E-03-0.117E-03
CGA:  26    -0.128319990482E+04   -0.11858E-03   -0.10713E-03 10640   0.170E-03-0.579E-04
CGA:  27    -0.128319974070E+04    0.16412E-03   -0.16193E-03 10640   0.195E-02-0.449E-03
CGA:  28    -0.128319990765E+04   -0.16694E-03   -0.20603E-03 10640   0.411E-03 0.185E-03
CGA:  29    -0.128319999115E+04   -0.83509E-04   -0.94485E-04 10640   0.608E-04 0.106E-03
CGA:  30    -0.128319999337E+04   -0.22122E-05   -0.37869E-04 10640   0.745E-03-0.191E-03
CGA:  31    -0.128320002720E+04   -0.33832E-04   -0.58085E-04 10640   0.378E-04 0.104E-03
CGA:  32    -0.128320002475E+04    0.24512E-05   -0.30644E-05 10640   0.192E-04 0.235E-04
   7 F= -.12832000E+04 E0= -.12832000E+04  d E =-.157615E-01  mag=    47.0000
       N       E                     dE             d eps       ncg     rms          ort
SDA:   1    -0.127148531563E+04    0.11715E+02    0.00000E+00 10640   0.316E+02 0.000E+00
CGA:   2    -0.127930268749E+04   -0.78174E+01   -0.78183E+01 10640   0.147E+02 0.148E-01
CGA:   3    -0.128246513035E+04   -0.31624E+01   -0.31621E+01 10640   0.318E+01-0.760E-02
CGA:   4    -0.128294924055E+04   -0.48411E+00   -0.48198E+00 10640   0.694E+00 0.107E-01
CGA:   5    -0.128306733411E+04   -0.11809E+00   -0.11819E+00 10640   0.208E+00 0.112E-02
CGA:   6    -0.128310264090E+04   -0.35307E-01   -0.35175E-01 10640   0.645E-01-0.162E-02
CGA:   7    -0.128311571646E+04   -0.13076E-01   -0.13117E-01 10640   0.207E-01 0.751E-03
CGA:   8    -0.128312021814E+04   -0.45017E-02   -0.44594E-02 10640   0.991E-02-0.688E-03
CGA:   9    -0.128312274805E+04   -0.25299E-02   -0.25239E-02 10640   0.624E-02-0.762E-03
CGA:  10    -0.128312417213E+04   -0.14241E-02   -0.14166E-02 10640   0.375E-02-0.293E-03
CGA:  11    -0.128312517590E+04   -0.10038E-02   -0.10142E-02 10640   0.336E-02-0.733E-03
CGA:  12    -0.128312585433E+04   -0.67843E-03   -0.66255E-03 10640   0.231E-02-0.638E-03
CGA:  13    -0.128312646322E+04   -0.60889E-03   -0.61162E-03 10640   0.176E-02-0.527E-04
CGA:  14    -0.128312701211E+04   -0.54889E-03   -0.10838E-02 10640   0.758E-02-0.150E-02
CGA:  15    -0.128312764857E+04   -0.63646E-03   -0.76015E-03 10640   0.112E-02 0.721E-03
CGA:  16    -0.128312796971E+04   -0.32114E-03   -0.32376E-03 10640   0.629E-03 0.164E-03
CGA:  17    -0.128312818006E+04   -0.21036E-03   -0.23600E-03 10640   0.150E-02-0.536E-03
CGA:  18    -0.128312825012E+04   -0.70056E-04   -0.13584E-03 10640   0.233E-03 0.350E-03
CGA:  19    -0.128312827353E+04   -0.23415E-04   -0.40135E-04 10640   0.188E-03 0.126E-03
CGA:  20    -0.128312839207E+04   -0.11854E-03    0.13166E-03 10640   0.289E-03-0.237E-04
CGA:  21    -0.128312855355E+04   -0.16148E-03   -0.18678E-03 10640   0.462E-03-0.562E-04
CGA:  22    -0.128312870045E+04   -0.14690E-03   -0.14493E-03 10640   0.720E-03 0.164E-04
CGA:  23    -0.128312914487E+04   -0.44442E-03    0.87491E-02 10640   0.233E-03 0.233E-04
CGA:  24    -0.128312922832E+04   -0.83448E-04   -0.12233E-03 10640   0.107E-02-0.186E-03
CGA:  25    -0.128312940667E+04   -0.17835E-03   -0.13563E-03 10640   0.211E-03-0.238E-03
CGA:  26    -0.128312945905E+04   -0.52381E-04   -0.77628E-04 10640   0.689E-03-0.143E-03
CGA:  27    -0.128312952420E+04   -0.65150E-04   -0.63131E-04 10640   0.362E-04-0.724E-05
CGA:  28    -0.128312955610E+04   -0.31903E-04    0.10292E-04 10640   0.362E-04 0.110E-04
CGA:  29    -0.128312960307E+04   -0.46971E-04    0.10033E-04 10640   0.181E-04 0.225E-04
CGA:  30    -0.128312962882E+04   -0.25747E-04    0.18753E-05 10640   0.254E-04 0.374E-05
CGA:  31    -0.128312966241E+04   -0.33594E-04    0.52182E-05 10640   0.132E-04 0.147E-04
CGA:  32    -0.128312967354E+04   -0.11128E-04    0.44932E-05 10640   0.882E-05 0.738E-05
CGA:  33    -0.128312968276E+04   -0.92141E-05    0.16767E-05 10640   0.105E-04 0.523E-05
   8 F= -.12831297E+04 E0= -.12831297E+04  d E =0.703420E-01  mag=    47.0000
       N       E                     dE             d eps       ncg     rms          ort
SDA:   1    -0.124380833696E+04    0.39321E+02    0.00000E+00 10640   0.130E+03 0.000E+00
CGA:   2    -0.126779349366E+04   -0.23985E+02   -0.23814E+02 10640   0.480E+02 0.574E+00
CGA:   3    -0.127911702683E+04   -0.11324E+02   -0.11400E+02 10640   0.183E+02 0.468E+00
CGA:   4    -0.128171522880E+04   -0.25982E+01   -0.24241E+01 10640   0.262E+01 0.103E+01
CGA:   5    -0.128221395656E+04   -0.49873E+00   -0.50021E+00 10640   0.751E+00 0.934E-02
CGA:   6    -0.128236686007E+04   -0.15290E+00   -0.15283E+00 10640   0.226E+00-0.235E-02
CGA:   7    -0.128241469396E+04   -0.47834E-01   -0.47749E-01 10640   0.727E-01-0.856E-03
CGA:   8    -0.128242825835E+04   -0.13564E-01   -0.13519E-01 10640   0.286E-01-0.390E-03
CGA:   9    -0.128243551130E+04   -0.72530E-02   -0.72329E-02 10640   0.172E-01-0.230E-02
CGA:  10    -0.128243892384E+04   -0.34125E-02   -0.34170E-02 10640   0.806E-02 0.158E-03
CGA:  11    -0.128244144891E+04   -0.25251E-02   -0.26401E-02 10640   0.622E-02-0.178E-02
CGA:  12    -0.128244264679E+04   -0.11979E-02   -0.11702E-02 10640   0.422E-02-0.127E-02
CGA:  13    -0.128244374117E+04   -0.10944E-02   -0.14061E-02 10640   0.542E-02-0.199E-02
CGA:  14    -0.128244441111E+04   -0.66994E-03   -0.62695E-03 10640   0.372E-02-0.855E-03
CGA:  15    -0.128244551162E+04   -0.11005E-02   -0.12274E-02 10640   0.350E-02-0.104E-02
CGA:  16    -0.128244613876E+04   -0.62714E-03   -0.62127E-03 10640   0.279E-02-0.227E-03
CGA:  17    -0.128244677756E+04   -0.63880E-03   -0.63916E-03 10640   0.131E-02 0.345E-05
CGA:  18    -0.128244712793E+04   -0.35037E-03   -0.34977E-03 10640   0.131E-02-0.152E-03
CGA:  19    -0.128244730504E+04   -0.17711E-03   -0.20246E-03 10640   0.544E-03 0.259E-03
CGA:  20    -0.128244736272E+04   -0.57679E-04   -0.92488E-04 10640   0.381E-03 0.279E-03
CGA:  21    -0.128244744583E+04   -0.83111E-04   -0.84976E-04 10640   0.327E-03 0.504E-04
CGA:  22    -0.128244747788E+04   -0.32045E-04   -0.54006E-04 10640   0.121E-03 0.196E-03
CGA:  23    -0.128244748552E+04   -0.76386E-05   -0.16503E-04 10640   0.837E-04 0.760E-04
CGA:  24    -0.128244750600E+04   -0.20487E-04   -0.20557E-04 10640   0.756E-04 0.636E-04
CGA:  25    -0.128244750833E+04   -0.23272E-05   -0.93785E-05 10640   0.611E-04 0.574E-04
CGA:  26    -0.128244751993E+04   -0.11601E-04   -0.13032E-04 10640   0.551E-04 0.526E-04
CGA:  27    -0.128244752205E+04   -0.21188E-05   -0.72384E-05 10640   0.486E-04 0.474E-04
CGA:  28    -0.128244753120E+04   -0.91485E-05   -0.10193E-04 10640   0.442E-04 0.430E-04
   9 F= -.12824475E+04 E0= -.12824475E+04  d E =0.682152E+00  mag=    47.0000
       N       E                     dE             d eps       ncg     rms          ort
SDA:   1    -0.127284172919E+04    0.96058E+01    0.00000E+00 10640   0.336E+02 0.000E+00
CGA:   2    -0.127929010905E+04   -0.64484E+01   -0.64488E+01 10640   0.122E+02 0.126E-01
CGA:   3    -0.128241634454E+04   -0.31262E+01   -0.31254E+01 10640   0.339E+01 0.141E-01
CGA:   4    -0.128294459639E+04   -0.52825E+00   -0.52913E+00 10640   0.465E+00 0.116E-01
CGA:   5    -0.128304550921E+04   -0.10091E+00   -0.10091E+00 10640   0.123E+00-0.887E-03
CGA:   6    -0.128307064721E+04   -0.25138E-01   -0.25141E-01 10640   0.475E-01 0.445E-03
CGA:   7    -0.128307861092E+04   -0.79637E-02   -0.79131E-02 10640   0.143E-01-0.891E-03
CGA:   8    -0.128308163564E+04   -0.30247E-02   -0.30240E-02 10640   0.521E-02-0.174E-03
CGA:   9    -0.128308319435E+04   -0.15587E-02   -0.16291E-02 10640   0.359E-02-0.716E-03
CGA:  10    -0.128308380176E+04   -0.60741E-03   -0.60721E-03 10640   0.159E-02 0.881E-06
CGA:  11    -0.128308428916E+04   -0.48740E-03   -0.53308E-03 10640   0.123E-02-0.408E-03
CGA:  12    -0.128308448362E+04   -0.19446E-03   -0.19276E-03 10640   0.727E-03-0.907E-04
CGA:  13    -0.128308469585E+04   -0.21223E-03   -0.33613E-03 10640   0.112E-02-0.457E-03
CGA:  14    -0.128308484500E+04   -0.14914E-03   -0.16908E-03 10640   0.320E-03 0.223E-03
CGA:  15    -0.128308491594E+04   -0.70946E-04   -0.73792E-04 10640   0.153E-03 0.649E-04
CGA:  16    -0.128308496139E+04   -0.45449E-04   -0.44743E-04 10640   0.104E-03 0.782E-04
CGA:  17    -0.128308497983E+04   -0.18432E-04   -0.20340E-04 10640   0.556E-04 0.497E-04
CGA:  18    -0.128308499825E+04   -0.18426E-04   -0.18703E-04 10640   0.456E-04 0.511E-04
CGA:  19    -0.128308502830E+04   -0.30046E-04   -0.24241E-04 10640   0.553E-04 0.191E-04
CGA:  20    -0.128308502907E+04   -0.77236E-06   -0.93460E-05 10640   0.380E-04 0.667E-04
  10 F= -.12830850E+04 E0= -.12830850E+04  d E =-.637498E+00  mag=    47.0000
       N       E                     dE             d eps       ncg     rms          ort
SDA:   1    -0.128014525350E+04    0.29398E+01    0.00000E+00 10640   0.985E+01 0.000E+00
CGA:   2    -0.128204485191E+04   -0.18996E+01   -0.18997E+01 10640   0.357E+01 0.547E-02
CGA:   3    -0.128296197280E+04   -0.91712E+00   -0.91696E+00 10640   0.990E+00 0.455E-02
CGA:   4    -0.128311560095E+04   -0.15363E+00   -0.15405E+00 10640   0.137E+00 0.543E-02
CGA:   5    -0.128314533633E+04   -0.29735E-01   -0.29728E-01 10640   0.367E-01-0.419E-03
CGA:   6    -0.128315277350E+04   -0.74372E-02   -0.74374E-02 10640   0.145E-01 0.408E-04
CGA:   7    -0.128315508361E+04   -0.23101E-02   -0.23235E-02 10640   0.404E-02 0.229E-03
CGA:   8    -0.128315607171E+04   -0.98810E-03   -0.99227E-03 10640   0.183E-02-0.271E-03
CGA:   9    -0.128315643007E+04   -0.35836E-03   -0.36325E-03 10640   0.767E-03 0.333E-03
CGA:  10    -0.128315671175E+04   -0.28168E-03   -0.28180E-03 10640   0.553E-03-0.168E-05
CGA:  11    -0.128315681190E+04   -0.10016E-03   -0.10745E-03 10640   0.285E-03 0.203E-03
CGA:  12    -0.128315690385E+04   -0.91948E-04   -0.91164E-04 10640   0.182E-03 0.136E-03
CGA:  13    -0.128315700829E+04   -0.10444E-03   -0.95196E-04 10640   0.238E-03 0.730E-04
CGA:  14    -0.128315704935E+04   -0.41058E-04   -0.54462E-04 10640   0.164E-03 0.185E-03
CGA:  15    -0.128315709149E+04   -0.42143E-04   -0.40870E-04 10640   0.793E-04 0.718E-04
CGA:  16    -0.128315712711E+04   -0.35616E-04   -0.33120E-04 10640   0.837E-04 0.426E-04
CGA:  17    -0.128315714142E+04   -0.14308E-04   -0.15449E-04 10640   0.747E-04 0.224E-04
CGA:  18    -0.128315717127E+04   -0.29853E-04   -0.26820E-04 10640   0.523E-04 0.599E-04
CGA:  19    -0.128315712584E+04    0.45428E-04   -0.31063E-04 10640   0.138E-02-0.982E-04
CGA:  20    -0.128315722988E+04   -0.10404E-03   -0.14170E-03 10640   0.114E-03 0.122E-03
CGA:  21    -0.128315724956E+04   -0.19675E-04   -0.25451E-04 10640   0.561E-04 0.277E-04
CGA:  22    -0.128315727487E+04   -0.25315E-04   -0.37760E-04 10640   0.326E-03-0.892E-04
CGA:  23    -0.128315728499E+04   -0.10111E-04   -0.34604E-04 10640   0.610E-04 0.818E-04
CGA:  24    -0.128315729205E+04   -0.70598E-05   -0.13247E-04 10640   0.408E-04 0.280E-04
CGA:  25    -0.128315731505E+04   -0.23002E-04   -0.23264E-04 10640   0.945E-04-0.342E-04
CGA:  26    -0.128315731695E+04   -0.18970E-05   -0.11838E-04 10640   0.345E-04 0.386E-04
CGA:  27    -0.128315732767E+04   -0.10729E-04   -0.12229E-04 10640   0.267E-04 0.125E-04
CGA:  28    -0.128315690587E+04    0.42180E-03   -0.22787E-03 10640   0.390E-02-0.261E-03
CGA:  29    -0.128315725139E+04   -0.34552E-03   -0.45814E-03 10640   0.457E-03 0.247E-03
CGA:  30    -0.128315739809E+04   -0.14670E-03   -0.14840E-03 10640   0.828E-04 0.520E-05
CGA:  31    -0.128315742240E+04   -0.24306E-04   -0.13187E-04 10640   0.228E-04-0.237E-04
CGA:  32    -0.128315742645E+04   -0.40531E-05   -0.47835E-05 10640   0.961E-05 0.242E-05
  11 F= -.12831574E+04 E0= -.12831574E+04  d E =-.723974E-01  mag=    47.0000
       N       E                     dE             d eps       ncg     rms          ort
SDA:   1    -0.128309797168E+04    0.59451E-01    0.00000E+00 10640   0.177E+00 0.000E+00
CGA:   2    -0.128313550472E+04   -0.37533E-01   -0.37658E-01 10640   0.727E-01 0.406E-03
CGA:   3    -0.128315328684E+04   -0.17782E-01   -0.17698E-01 10640   0.174E-01-0.301E-03
CGA:   4    -0.128315600628E+04   -0.27194E-02   -0.26839E-02 10640   0.304E-02-0.864E-04
CGA:   5    -0.128315659199E+04   -0.58571E-03   -0.57080E-03 10640   0.991E-03-0.434E-04
CGA:   6    -0.128315675570E+04   -0.16371E-03   -0.16177E-03 10640   0.320E-03-0.494E-05
CGA:   7    -0.128315679510E+04   -0.39402E-04   -0.55411E-04 10640   0.671E-04 0.532E-04
CGA:   8    -0.128315681777E+04   -0.22662E-04   -0.22402E-04 10640   0.397E-04-0.147E-05
CGA:   9    -0.128315682052E+04   -0.27497E-05   -0.66785E-05 10640   0.202E-04 0.140E-04
  12 F= -.12831568E+04 E0= -.12831568E+04  d E =0.605934E-03  mag=    47.0000
       N       E                     dE             d eps       ncg     rms          ort
SDA:   1    -0.128189343027E+04    0.12634E+01    0.00000E+00 10640   0.348E+01 0.000E+00
CGA:   2    -0.128270295824E+04   -0.80953E+00   -0.81005E+00 10640   0.155E+01 0.276E-02
CGA:   3    -0.128305846227E+04   -0.35550E+00   -0.35526E+00 10640   0.321E+00-0.156E-02
CGA:   4    -0.128310965587E+04   -0.51194E-01   -0.51175E-01 10640   0.599E-01 0.317E-03
CGA:   5    -0.128312137474E+04   -0.11719E-01   -0.11561E-01 10640   0.186E-01-0.809E-03
CGA:   6    -0.128312427866E+04   -0.29039E-02   -0.29690E-02 10640   0.610E-02 0.361E-03
CGA:   7    -0.128312554481E+04   -0.12662E-02   -0.12792E-02 10640   0.153E-02 0.801E-04
CGA:   8    -0.128312595375E+04   -0.40893E-03   -0.40371E-03 10640   0.843E-03-0.459E-04
CGA:   9    -0.128312613188E+04   -0.17814E-03   -0.18084E-03 10640   0.480E-03 0.200E-04
CGA:  10    -0.128312630630E+04   -0.17442E-03   -0.17362E-03 10640   0.471E-03-0.142E-03
CGA:  11    -0.128312640674E+04   -0.10044E-03   -0.91297E-04 10640   0.398E-03-0.109E-03
CGA:  12    -0.128312646121E+04   -0.54465E-04   -0.60857E-04 10640   0.196E-03 0.407E-04
CGA:  13    -0.128312653250E+04   -0.71287E-04   -0.71834E-04 10640   0.207E-03 0.381E-04
CGA:  14    -0.128312659259E+04   -0.60094E-04   -0.62509E-04 10640   0.213E-03 0.251E-04
CGA:  15    -0.128312666913E+04   -0.76540E-04   -0.76907E-04 10640   0.186E-03 0.170E-04
CGA:  16    -0.128312674417E+04   -0.75044E-04   -0.81824E-04 10640   0.361E-03-0.103E-03
CGA:  17    -0.128312677274E+04   -0.28563E-04   -0.39688E-04 10640   0.763E-04 0.485E-04
CGA:  18    -0.128312681234E+04   -0.39600E-04   -0.46233E-04 10640   0.120E-03-0.331E-04
CGA:  19    -0.128312682882E+04   -0.16483E-04   -0.10547E-04 10640   0.769E-04-0.316E-04
CGA:  20    -0.128312681825E+04    0.10573E-04   -0.39966E-04 10640   0.530E-03-0.136E-03
CGA:  21    -0.128312690181E+04   -0.83569E-04   -0.73040E-04 10640   0.100E-03-0.478E-04
CGA:  22    -0.128312691868E+04   -0.16869E-04   -0.19653E-04 10640   0.344E-04 0.223E-04
CGA:  23    -0.128312692027E+04   -0.15834E-05   -0.56308E-05 10640   0.150E-04 0.202E-04
CGA:  24    -0.128312693200E+04   -0.11738E-04    0.11542E-04 10640   0.134E-04 0.552E-05
CGA:  25    -0.128312694622E+04   -0.14211E-04    0.15712E-04 10640   0.107E-04 0.275E-05
CGA:  26    -0.128312695161E+04   -0.53916E-05   -0.71484E-05 10640   0.367E-04-0.765E-05
CGA:  27    -0.128312693976E+04    0.11843E-04   -0.20454E-04 10640   0.763E-03-0.145E-03
CGA:  28    -0.128312697843E+04   -0.38666E-04   -0.61342E-04 10640   0.148E-04 0.878E-04
CGA:  29    -0.128312697739E+04    0.10400E-05   -0.94257E-06 10640   0.401E-05 0.719E-05
  13 F= -.12831270E+04 E0= -.12831270E+04  d E =0.298431E-01  mag=    47.0000
       N       E                     dE             d eps       ncg     rms          ort
SDA:   1    -0.128159451655E+04    0.15325E+01    0.00000E+00 10640   0.384E+01 0.000E+00
CGA:   2    -0.128263093149E+04   -0.10364E+01   -0.10365E+01 10640   0.179E+01 0.274E-02
CGA:   3    -0.128300701380E+04   -0.37608E+00   -0.37604E+00 10640   0.312E+00-0.726E-03
CGA:   4    -0.128306116317E+04   -0.54149E-01   -0.54069E-01 10640   0.612E-01-0.481E-03
CGA:   5    -0.128307404556E+04   -0.12882E-01   -0.12828E-01 10640   0.131E-01-0.632E-03
CGA:   6    -0.128307706148E+04   -0.30159E-02   -0.30338E-02 10640   0.408E-02 0.327E-03
CGA:   7    -0.128307794923E+04   -0.88775E-03   -0.87062E-03 10640   0.185E-02-0.215E-03
CGA:   8    -0.128307827702E+04   -0.32779E-03   -0.33374E-03 10640   0.811E-03 0.677E-04
CGA:   9    -0.128307851020E+04   -0.23318E-03   -0.23317E-03 10640   0.507E-03-0.169E-04
CGA:  10    -0.128307828746E+04    0.22275E-03   -0.39816E-03 10640   0.601E-02-0.118E-02
CGA:  11    -0.128307873302E+04   -0.44556E-03   -0.56720E-03 10640   0.558E-03 0.645E-03
CGA:  12    -0.128307882008E+04   -0.87058E-04   -0.10849E-03 10640   0.284E-03 0.181E-03
CGA:  13    -0.128307892882E+04   -0.10874E-03   -0.10888E-03 10640   0.318E-03-0.109E-03
CGA:  14    -0.128307894298E+04   -0.14156E-04   -0.23193E-04 10640   0.241E-03 0.533E-04
CGA:  15    -0.128307895984E+04   -0.16867E-04   -0.31387E-04 10640   0.156E-03 0.866E-04
CGA:  16    -0.128307901666E+04   -0.56817E-04   -0.56661E-04 10640   0.214E-03-0.394E-04
CGA:  17    -0.128307828490E+04    0.73176E-03   -0.15679E-03 10640   0.547E-02-0.126E-02
CGA:  18    -0.128307885275E+04   -0.56784E-03   -0.69726E-03 10640   0.127E-02 0.758E-03
CGA:  19    -0.128307922792E+04   -0.37517E-03   -0.37747E-03 10640   0.262E-03 0.645E-04
CGA:  20    -0.128307928909E+04   -0.61169E-04   -0.12133E-03 10640   0.150E-02-0.416E-03
CGA:  21    -0.128307938199E+04   -0.92899E-04   -0.13574E-03 10640   0.845E-04 0.209E-03
CGA:  22    -0.128307938659E+04   -0.46015E-05   -0.11042E-04 10640   0.438E-04 0.364E-04
CGA:  23    -0.128307899422E+04    0.39237E-03   -0.21127E-03 10640   0.191E-02-0.332E-03
CGA:  24    -0.128307939138E+04   -0.39716E-03   -0.36339E-03 10640   0.104E-02-0.108E-03
CGA:  25    -0.128307951848E+04   -0.12710E-03   -0.16145E-03 10640   0.930E-04 0.106E-03
CGA:  26    -0.128307951662E+04    0.18571E-05   -0.10112E-04 10640   0.214E-04 0.314E-04
  14 F= -.12830795E+04 E0= -.12830795E+04  d E =0.474608E-01  mag=    47.0000
       N       E                     dE             d eps       ncg     rms          ort
SDA:   1    -0.126445177331E+04    0.18628E+02    0.00000E+00 10640   0.576E+02 0.000E+00
CGA:   2    -0.127597942947E+04   -0.11528E+02   -0.11475E+02 10640   0.230E+02 0.342E+00
CGA:   3    -0.128130398742E+04   -0.53246E+01   -0.53893E+01 10640   0.826E+01-0.508E-01
CGA:   4    -0.128240558239E+04   -0.11016E+01   -0.99453E+00 10640   0.116E+01 0.842E+00
CGA:   5    -0.128264994635E+04   -0.24436E+00   -0.24519E+00 10640   0.324E+00 0.264E-02
CGA:   6    -0.128271934458E+04   -0.69398E-01   -0.68949E-01 10640   0.980E-01-0.245E-02
CGA:   7    -0.128274136674E+04   -0.22022E-01   -0.21917E-01 10640   0.326E-01-0.384E-03
CGA:   8    -0.128274748282E+04   -0.61161E-02   -0.58835E-02 10640   0.158E-01-0.131E-02
CGA:   9    -0.128275092156E+04   -0.34387E-02   -0.34003E-02 10640   0.741E-02-0.236E-03
CGA:  10    -0.128275300698E+04   -0.20854E-02   -0.20659E-02 10640   0.396E-02-0.222E-03
CGA:  11    -0.128275437997E+04   -0.13730E-02   -0.13673E-02 10640   0.359E-02-0.996E-03
CGA:  12    -0.128275523787E+04   -0.85790E-03   -0.80386E-03 10640   0.278E-02-0.867E-03
CGA:  13    -0.128275605127E+04   -0.81340E-03   -0.83534E-03 10640   0.293E-02-0.588E-03
CGA:  14    -0.128275691442E+04   -0.86315E-03   -0.94607E-03 10640   0.645E-02-0.169E-02
CGA:  15    -0.128275744621E+04   -0.53179E-03   -0.69292E-03 10640   0.139E-02 0.713E-03
CGA:  16    -0.128275787017E+04   -0.42396E-03   -0.44025E-03 10640   0.746E-03 0.254E-03
CGA:  17    -0.128275816450E+04   -0.29433E-03   -0.28452E-03 10640   0.155E-02-0.405E-03
CGA:  18    -0.128275821459E+04   -0.50092E-04   -0.14082E-03 10640   0.265E-03 0.368E-03
CGA:  19    -0.128275823102E+04   -0.16424E-04   -0.45544E-04 10640   0.221E-03 0.150E-03
CGA:  20    -0.128275839002E+04   -0.15900E-03    0.31489E-03 10640   0.513E-03-0.652E-04
CGA:  21    -0.128275853389E+04   -0.14387E-03   -0.14343E-03 10640   0.680E-03 0.378E-05
CGA:  22    -0.128275854598E+04   -0.12091E-04   -0.68400E-04 10640   0.293E-03 0.249E-03
CGA:  23    -0.128275857264E+04   -0.26655E-04   -0.54507E-04 10640   0.270E-03 0.155E-03
CGA:  24    -0.128275876154E+04   -0.18890E-03    0.28829E-03 10640   0.488E-03-0.153E-03
CGA:  25    -0.128275875010E+04    0.11442E-04   -0.34234E-04 10640   0.994E-04 0.195E-03
CGA:  26    -0.128275873941E+04    0.10691E-04   -0.74220E-05 10640   0.513E-04 0.753E-04
CGA:  27    -0.128275880182E+04   -0.62408E-04   -0.53662E-04 10640   0.217E-03 0.106E-04
CGA:  28    -0.128275903378E+04   -0.23196E-03    0.10979E-03 10640   0.126E-03 0.413E-04
CGA:  29    -0.128275914248E+04   -0.10870E-03    0.18641E-03 10640   0.106E-03 0.663E-04
CGA:  30    -0.128275915107E+04   -0.85930E-05   -0.12434E-04 10640   0.408E-04 0.191E-04
CGA:  31    -0.128275918175E+04   -0.30678E-04    0.29166E-03 10640   0.345E-04 0.245E-04
CGA:  32    -0.128275919041E+04   -0.86606E-05   -0.78312E-05 10640   0.536E-04-0.990E-05
CGA:  33    -0.128275921903E+04   -0.28625E-04   -0.23865E-04 10640   0.106E-03 0.146E-04
CGA:  34    -0.128275926320E+04   -0.44171E-04   -0.48409E-04 10640   0.375E-03-0.111E-03
CGA:  35    -0.128275929832E+04   -0.35118E-04   -0.36004E-04 10640   0.193E-04 0.468E-05
CGA:  36    -0.128275929843E+04   -0.10915E-06   -0.24387E-05 10640   0.123E-04 0.124E-04
  15 F= -.12827593E+04 E0= -.12827593E+04  d E =0.320218E+00  mag=    47.0000
       N       E                     dE             d eps       ncg     rms          ort
SDA:   1    -0.127782829246E+04    0.49310E+01    0.00000E+00 10640   0.166E+02 0.000E+00
CGA:   2    -0.128107945833E+04   -0.32512E+01   -0.32513E+01 10640   0.616E+01 0.574E-02
CGA:   3    -0.128265521881E+04   -0.15758E+01   -0.15757E+01 10640   0.165E+01-0.706E-02
CGA:   4    -0.128291049224E+04   -0.25527E+00   -0.25496E+00 10640   0.246E+00-0.175E-02
CGA:   5    -0.128295995895E+04   -0.49467E-01   -0.49457E-01 10640   0.713E-01 0.146E-03
CGA:   6    -0.128297336702E+04   -0.13408E-01   -0.13334E-01 10640   0.269E-01-0.799E-03
CGA:   7    -0.128297815230E+04   -0.47853E-02   -0.48003E-02 10640   0.658E-02 0.250E-03
CGA:   8    -0.128297990600E+04   -0.17537E-02   -0.17448E-02 10640   0.357E-02-0.755E-03
CGA:   9    -0.128298071339E+04   -0.80739E-03   -0.79657E-03 10640   0.230E-02-0.491E-03
CGA:  10    -0.128298130104E+04   -0.58765E-03   -0.79043E-03 10640   0.374E-02-0.160E-02
CGA:  11    -0.128298170735E+04   -0.40631E-03   -0.42986E-03 10640   0.750E-03 0.159E-03
CGA:  12    -0.128298196131E+04   -0.25395E-03   -0.34336E-03 10640   0.124E-02-0.530E-03
CGA:  13    -0.128298214065E+04   -0.17934E-03   -0.18413E-03 10640   0.331E-03 0.389E-04
CGA:  14    -0.128298223393E+04   -0.93289E-04   -0.12449E-03 10640   0.869E-03-0.340E-03
CGA:  15    -0.128298232570E+04   -0.91763E-04   -0.98407E-04 10640   0.175E-03 0.436E-04
CGA:  16    -0.128298127330E+04    0.10524E-02   -0.56667E-03 10640   0.779E-02-0.944E-03
CGA:  17    -0.128298249979E+04   -0.12265E-02   -0.12730E-02 10640   0.201E-02 0.172E-03
CGA:  18    -0.128298281035E+04   -0.31056E-03   -0.28508E-03 10640   0.940E-04-0.763E-04
CGA:  19    -0.128298283157E+04   -0.21217E-04   -0.23004E-04 10640   0.594E-04 0.894E-05
CGA:  20    -0.128298272230E+04    0.10926E-03   -0.96893E-04 10640   0.240E-02-0.198E-03
CGA:  21    -0.128298291825E+04   -0.19595E-03   -0.23404E-03 10640   0.233E-03 0.116E-03
CGA:  22    -0.128298298417E+04   -0.65915E-04   -0.68530E-04 10640   0.447E-04 0.131E-04
CGA:  23    -0.128298300608E+04   -0.21917E-04   -0.22977E-04 10640   0.285E-03-0.643E-04
CGA:  24    -0.128298301594E+04   -0.98569E-05   -0.24255E-04 10640   0.207E-04 0.388E-04
  16 F= -.12829830E+04 E0= -.12829830E+04  d E =-.223718E+00  mag=    47.0000
       N       E                     dE             d eps       ncg     rms          ort
SDA:   1    -0.128245290037E+04    0.53011E+00    0.00000E+00 10640   0.175E+01 0.000E+00
CGA:   2    -0.128280293311E+04   -0.35003E+00   -0.35017E+00 10640   0.660E+00 0.881E-03
CGA:   3    -0.128297106683E+04   -0.16813E+00   -0.16792E+00 10640   0.172E+00-0.165E-02
CGA:   4    -0.128299734775E+04   -0.26281E-01   -0.26178E-01 10640   0.287E-01-0.344E-03
CGA:   5    -0.128300268100E+04   -0.53333E-02   -0.53261E-02 10640   0.894E-02 0.266E-04
CGA:   6    -0.128300431877E+04   -0.16378E-02   -0.16036E-02 10640   0.304E-02-0.160E-03
CGA:   7    -0.128300488365E+04   -0.56488E-03   -0.58391E-03 10640   0.710E-03 0.108E-03
CGA:   8    -0.128300511041E+04   -0.22676E-03   -0.21677E-03 10640   0.505E-03-0.130E-03
CGA:   9    -0.128300519039E+04   -0.79980E-04   -0.81153E-04 10640   0.245E-03 0.768E-05
CGA:  10    -0.128300528685E+04   -0.96461E-04   -0.13150E-03 10640   0.512E-03-0.207E-03
CGA:  11    -0.128300536421E+04   -0.77361E-04   -0.83450E-04 10640   0.123E-03 0.302E-04
CGA:  12    -0.128300539653E+04   -0.32315E-04   -0.28509E-04 10640   0.103E-03-0.272E-04
CGA:  13    -0.128300541619E+04   -0.19662E-04   -0.21199E-04 10640   0.569E-04 0.175E-04
CGA:  14    -0.128300544016E+04   -0.23973E-04   -0.23893E-04 10640   0.734E-04 0.598E-05
CGA:  15    -0.128300546798E+04   -0.27818E-04   -0.27616E-04 10640   0.166E-03-0.321E-04
CGA:  16    -0.128300547994E+04   -0.11960E-04   -0.14743E-04 10640   0.172E-03 0.134E-04
CGA:  17    -0.128300548999E+04   -0.10052E-04   -0.19310E-04 10640   0.922E-04 0.390E-04
CGA:  18    -0.128300550265E+04   -0.12659E-04   -0.18712E-04 10640   0.873E-04 0.370E-04
CGA:  19    -0.128300551621E+04   -0.13560E-04   -0.16971E-04 10640   0.349E-04 0.186E-04
CGA:  20    -0.128300551714E+04   -0.92814E-06   -0.52553E-05 10640   0.266E-04 0.233E-04
  17 F= -.12830055E+04 E0= -.12830055E+04  d E =-.225012E-01  mag=    47.0000
       N       E                     dE             d eps       ncg     rms          ort
SDA:   1    -0.128228393587E+04    0.72158E+00    0.00000E+00 10640   0.222E+01 0.000E+00
CGA:   2    -0.128275219691E+04   -0.46826E+00   -0.46835E+00 10640   0.894E+00 0.119E-02
CGA:   3    -0.128297295449E+04   -0.22076E+00   -0.22073E+00 10640   0.212E+00-0.110E-02
CGA:   4    -0.128300571197E+04   -0.32757E-01   -0.32778E-01 10640   0.366E-01 0.203E-03
CGA:   5    -0.128301260014E+04   -0.68882E-02   -0.68928E-02 10640   0.113E-01 0.104E-03
CGA:   6    -0.128301459993E+04   -0.19998E-02   -0.19854E-02 10640   0.392E-02-0.141E-03
CGA:   7    -0.128301531883E+04   -0.71890E-03   -0.73487E-03 10640   0.872E-03 0.211E-03
CGA:   8    -0.128301558774E+04   -0.26891E-03   -0.27331E-03 10640   0.531E-03-0.130E-03
CGA:   9    -0.128301565410E+04   -0.66364E-04   -0.75961E-04 10640   0.224E-03 0.992E-04
CGA:  10    -0.128301572283E+04   -0.68725E-04   -0.68755E-04 10640   0.114E-03 0.197E-04
CGA:  11    -0.128301576779E+04   -0.44957E-04   -0.53575E-04 10640   0.214E-03-0.500E-04
CGA:  12    -0.128301576500E+04    0.27893E-05   -0.78510E-05 10640   0.153E-03 0.523E-04
CGA:  13    -0.128301576010E+04    0.48944E-05   -0.11621E-04 10640   0.829E-04 0.836E-04
CGA:  14    -0.128301577382E+04   -0.13723E-04   -0.16019E-04 10640   0.328E-04 0.412E-04
CGA:  15    -0.128301577653E+04   -0.27067E-05   -0.64649E-05 10640   0.206E-04 0.327E-04
  18 F= -.12830158E+04 E0= -.12830158E+04  d E =-.102594E-01  mag=    47.0000
       N       E                     dE             d eps       ncg     rms          ort
SDA:   1    -0.128244000124E+04    0.57577E+00    0.00000E+00 10640   0.171E+01 0.000E+00
CGA:   2    -0.128281207559E+04   -0.37207E+00   -0.37206E+00 10640   0.710E+00-0.584E-03
CGA:   3    -0.128298654334E+04   -0.17447E+00   -0.17445E+00 10640   0.149E+00 0.137E-02
CGA:   4    -0.128301049609E+04   -0.23953E-01   -0.23989E-01 10640   0.249E-01 0.499E-03
CGA:   5    -0.128301566533E+04   -0.51692E-02   -0.51768E-02 10640   0.624E-02 0.319E-03
CGA:   6    -0.128301695919E+04   -0.12939E-02   -0.12962E-02 10640   0.257E-02 0.100E-03
CGA:   7    -0.128301736716E+04   -0.40797E-03   -0.41481E-03 10640   0.708E-03 0.103E-03
CGA:   8    -0.128301755876E+04   -0.19160E-03   -0.19313E-03 10640   0.334E-03-0.403E-04
CGA:   9    -0.128301760464E+04   -0.45877E-04   -0.53447E-04 10640   0.140E-03 0.133E-03
CGA:  10    -0.128301763698E+04   -0.32338E-04   -0.35849E-04 10640   0.719E-04 0.848E-04
CGA:  11    -0.128301765253E+04   -0.15553E-04   -0.15684E-04 10640   0.505E-04 0.346E-04
CGA:  12    -0.128301765269E+04   -0.16523E-06   -0.75739E-05 10640   0.368E-04 0.614E-04
  19 F= -.12830177E+04 E0= -.12830177E+04  d E =-.187616E-02  mag=    47.0000
       N       E                     dE             d eps       ncg     rms          ort
SDA:   1    -0.128171908020E+04    0.12986E+01    0.00000E+00 10640   0.352E+01 0.000E+00
CGA:   2    -0.128259073933E+04   -0.87166E+00   -0.87191E+00 10640   0.164E+01-0.647E-02
CGA:   3    -0.128295792068E+04   -0.36718E+00   -0.36709E+00 10640   0.276E+00 0.662E-02
CGA:   4    -0.128300482900E+04   -0.46908E-01   -0.46876E-01 10640   0.538E-01-0.783E-03
CGA:   5    -0.128301550458E+04   -0.10676E-01   -0.10694E-01 10640   0.120E-01 0.186E-02
CGA:   6    -0.128301836527E+04   -0.28607E-02   -0.28711E-02 10640   0.468E-02-0.448E-03
CGA:   7    -0.128301914178E+04   -0.77651E-03   -0.77987E-03 10640   0.141E-02 0.966E-04
CGA:   8    -0.128301945829E+04   -0.31651E-03   -0.31546E-03 10640   0.599E-03 0.960E-04
CGA:   9    -0.128301963492E+04   -0.17663E-03   -0.17915E-03 10640   0.502E-03-0.346E-04
CGA:  10    -0.128301967886E+04   -0.43945E-04   -0.59447E-04 10640   0.188E-03 0.179E-03
CGA:  11    -0.128301969503E+04   -0.16168E-04   -0.28944E-04 10640   0.127E-03 0.134E-03
CGA:  12    -0.128301972348E+04   -0.28450E-04   -0.28160E-04 10640   0.125E-03 0.154E-04
CGA:  13    -0.128301972686E+04   -0.33820E-05   -0.13947E-04 10640   0.669E-04 0.101E-03
  20 F= -.12830197E+04 E0= -.12830197E+04  d E =-.207417E-02  mag=    47.0000
       N       E                     dE             d eps       ncg     rms          ort
SDA:   1    -0.127685900378E+04    0.61607E+01    0.00000E+00 10640   0.163E+02 0.000E+00
CGA:   2    -0.128104736326E+04   -0.41884E+01   -0.41890E+01 10640   0.770E+01-0.105E-01
CGA:   3    -0.128272998796E+04   -0.16826E+01   -0.16825E+01 10640   0.137E+01 0.538E-02
CGA:   4    -0.128294501258E+04   -0.21502E+00   -0.21509E+00 10640   0.314E+00-0.297E-03
CGA:   5    -0.128299767801E+04   -0.52665E-01   -0.52750E-01 10640   0.924E-01 0.452E-02
CGA:   6    -0.128301415682E+04   -0.16479E-01   -0.16484E-01 10640   0.273E-01 0.303E-03
CGA:   7    -0.128302031727E+04   -0.61605E-02   -0.61891E-02 10640   0.797E-02-0.823E-03
CGA:   8    -0.128302196656E+04   -0.16493E-02   -0.16536E-02 10640   0.411E-02-0.209E-03
CGA:   9    -0.128302280448E+04   -0.83792E-03   -0.83764E-03 10640   0.178E-02 0.282E-04
CGA:  10    -0.128302330477E+04   -0.50028E-03   -0.50694E-03 10640   0.974E-03-0.738E-04
CGA:  11    -0.128302342938E+04   -0.12461E-03   -0.13874E-03 10640   0.342E-03 0.274E-03
CGA:  12    -0.128302351000E+04   -0.80620E-04   -0.82472E-04 10640   0.169E-03 0.191E-03
CGA:  13    -0.128302355382E+04   -0.43825E-04   -0.42017E-04 10640   0.205E-03 0.358E-04
CGA:  14    -0.128302357011E+04   -0.16290E-04   -0.30275E-04 10640   0.105E-03 0.180E-03
CGA:  15    -0.128302356820E+04    0.19141E-05   -0.77747E-05 10640   0.727E-04 0.794E-04
  21 F= -.12830236E+04 E0= -.12830236E+04  d E =-.384134E-02  mag=    47.0000
       N       E                     dE             d eps       ncg     rms          ort
SDA:   1    -0.127900092059E+04    0.40226E+01    0.00000E+00 10640   0.107E+02 0.000E+00
CGA:   2    -0.128176026808E+04   -0.27593E+01   -0.27602E+01 10640   0.508E+01-0.121E-01
CGA:   3    -0.128285395092E+04   -0.10937E+01   -0.10935E+01 10640   0.896E+00 0.590E-02
CGA:   4    -0.128300016546E+04   -0.14621E+00   -0.14617E+00 10640   0.181E+00-0.149E-02
CGA:   5    -0.128303462027E+04   -0.34455E-01   -0.34446E-01 10640   0.460E-01 0.432E-02
CGA:   6    -0.128304352190E+04   -0.89016E-02   -0.89016E-02 10640   0.169E-01 0.282E-03
CGA:   7    -0.128304685609E+04   -0.33342E-02   -0.33393E-02 10640   0.562E-02-0.692E-03
CGA:   8    -0.128304787245E+04   -0.10164E-02   -0.10164E-02 10640   0.248E-02 0.108E-03
CGA:   9    -0.128304853059E+04   -0.65814E-03   -0.69594E-03 10640   0.175E-02-0.437E-03
CGA:  10    -0.128304876929E+04   -0.23870E-03   -0.24504E-03 10640   0.610E-03 0.266E-03
CGA:  11    -0.128304891615E+04   -0.14686E-03   -0.14407E-03 10640   0.278E-03 0.221E-03
CGA:  12    -0.128304899680E+04   -0.80649E-04   -0.79927E-04 10640   0.234E-03 0.406E-04
CGA:  13    -0.128304902458E+04   -0.27780E-04   -0.36303E-04 10640   0.141E-03 0.145E-03
CGA:  14    -0.128304904165E+04   -0.17076E-04   -0.20627E-04 10640   0.838E-04 0.799E-04
CGA:  15    -0.128304909089E+04   -0.49236E-04   -0.48359E-04 10640   0.294E-03 0.189E-05
CGA:  16    -0.128304911574E+04   -0.24849E-04   -0.39035E-04 10640   0.137E-03 0.180E-03
CGA:  17    -0.128304911962E+04   -0.38847E-05   -0.12382E-04 10640   0.642E-04 0.747E-04
CGA:  18    -0.128304913388E+04   -0.14254E-04   -0.13601E-04 10640   0.429E-04 0.485E-04
CGA:  19    -0.128304914583E+04   -0.11948E-04   -0.10335E-04 10640   0.386E-04 0.384E-04
CGA:  20    -0.128304915746E+04   -0.11638E-04   -0.98294E-05 10640   0.394E-04 0.336E-04
CGA:  21    -0.128304916631E+04   -0.88443E-05   -0.85124E-05 10640   0.433E-04 0.271E-04
CGA:  22    -0.128304917755E+04   -0.11241E-04   -0.10685E-04 10640   0.669E-04 0.132E-04
CGA:  23    -0.128304920638E+04   -0.28832E-04   -0.23751E-04 10640   0.346E-04 0.774E-04
CGA:  24    -0.128304921736E+04   -0.10983E-04   -0.10292E-04 10640   0.688E-04 0.780E-05
CGA:  25    -0.128304928027E+04   -0.62909E-04   -0.43642E-04 10640   0.281E-04 0.624E-04
CGA:  26    -0.128304927881E+04    0.14582E-05   -0.19156E-05 10640   0.187E-04 0.209E-04
  22 F= -.12830493E+04 E0= -.12830493E+04  d E =-.257106E-01  mag=    47.0000
       N       E                     dE             d eps       ncg     rms          ort
SDA:   1    -0.127691373797E+04    0.61355E+01    0.00000E+00 10640   0.161E+02 0.000E+00
CGA:   2    -0.128119278731E+04   -0.42790E+01   -0.42790E+01 10640   0.761E+01-0.103E-02
CGA:   3    -0.128280882891E+04   -0.16160E+01   -0.16160E+01 10640   0.126E+01-0.409E-02
CGA:   4    -0.128302633440E+04   -0.21751E+00   -0.21742E+00 10640   0.253E+00-0.224E-02
CGA:   5    -0.128307753539E+04   -0.51201E-01   -0.51248E-01 10640   0.544E-01 0.328E-02
CGA:   6    -0.128309038685E+04   -0.12851E-01   -0.12881E-01 10640   0.207E-01-0.177E-02
CGA:   7    -0.128309392782E+04   -0.35410E-02   -0.35462E-02 10640   0.655E-02 0.159E-03
CGA:   8    -0.128309561379E+04   -0.16860E-02   -0.17155E-02 10640   0.348E-02-0.667E-03
CGA:   9    -0.128309645596E+04   -0.84217E-03   -0.88890E-03 10640   0.287E-02-0.700E-03
CGA:  10    -0.128309685030E+04   -0.39433E-03   -0.39161E-03 10640   0.108E-02-0.472E-04
CGA:  11    -0.128309717292E+04   -0.32262E-03   -0.37932E-03 10640   0.109E-02-0.413E-03
CGA:  12    -0.128309729999E+04   -0.12707E-03   -0.11974E-03 10640   0.658E-03-0.148E-03
CGA:  13    -0.128309745457E+04   -0.15457E-03   -0.15481E-03 10640   0.664E-03-0.598E-05
CGA:  14    -0.128309758930E+04   -0.13474E-03   -0.13334E-03 10640   0.481E-03-0.597E-04
CGA:  15    -0.128309774911E+04   -0.15980E-03   -0.16281E-03 10640   0.532E-03-0.225E-04
CGA:  16    -0.128309785066E+04   -0.10155E-03   -0.10300E-03 10640   0.344E-03 0.489E-04
CGA:  17    -0.128309794303E+04   -0.92371E-04   -0.91966E-04 10640   0.253E-03 0.274E-04
CGA:  18    -0.128309799586E+04   -0.52834E-04   -0.54225E-04 10640   0.117E-03 0.413E-04
CGA:  19    -0.128309804285E+04   -0.46991E-04   -0.47743E-04 10640   0.191E-03-0.730E-05
CGA:  20    -0.128309808729E+04   -0.44441E-04   -0.44834E-04 10640   0.161E-03-0.273E-04
CGA:  21    -0.128309811177E+04   -0.24473E-04   -0.25645E-04 10640   0.128E-03 0.221E-04
CGA:  22    -0.128309816004E+04   -0.48273E-04   -0.57723E-04 10640   0.286E-03-0.602E-04
CGA:  23    -0.128309819870E+04   -0.38661E-04   -0.33001E-04 10640   0.273E-03-0.237E-03
CGA:  24    -0.128309826711E+04   -0.68412E-04   -0.68046E-04 10640   0.965E-04 0.427E-04
CGA:  25    -0.128309829645E+04   -0.29332E-04   -0.30858E-04 10640   0.931E-04-0.433E-04
CGA:  26    -0.128309830297E+04   -0.65254E-05   -0.70399E-05 10640   0.468E-04 0.491E-05
  23 F= -.12830983E+04 E0= -.12830983E+04  d E =-.490242E-01  mag=    47.0000
       N       E                     dE             d eps       ncg     rms          ort
SDA:   1    -0.128030535728E+04    0.27929E+01    0.00000E+00 10640   0.821E+01 0.000E+00
CGA:   2    -0.128216566873E+04   -0.18603E+01   -0.18603E+01 10640   0.354E+01 0.239E-02
CGA:   3    -0.128299409048E+04   -0.82842E+00   -0.82843E+00 10640   0.732E+00-0.618E-02
CGA:   4    -0.128311381181E+04   -0.11972E+00   -0.11976E+00 10640   0.130E+00 0.675E-03
CGA:   5    -0.128314134352E+04   -0.27532E-01   -0.27513E-01 10640   0.304E-01-0.108E-02
CGA:   6    -0.128314789984E+04   -0.65563E-02   -0.65511E-02 10640   0.117E-01-0.470E-03
CGA:   7    -0.128314989927E+04   -0.19994E-02   -0.19828E-02 10640   0.403E-02-0.286E-03
CGA:   8    -0.128315075696E+04   -0.85769E-03   -0.85621E-03 10640   0.192E-02-0.205E-03
CGA:   9    -0.128315128169E+04   -0.52473E-03   -0.62820E-03 10640   0.253E-02-0.850E-03
CGA:  10    -0.128315149923E+04   -0.21754E-03   -0.20766E-03 10640   0.104E-02-0.115E-03
CGA:  11    -0.128315166864E+04   -0.16941E-03   -0.16794E-03 10640   0.911E-03-0.249E-04
CGA:  12    -0.128315188345E+04   -0.21481E-03   -0.26328E-03 10640   0.982E-03-0.667E-03
CGA:  13    -0.128315207802E+04   -0.19457E-03   -0.19402E-03 10640   0.455E-03-0.179E-04
CGA:  14    -0.128315216235E+04   -0.84326E-04   -0.82138E-04 10640   0.205E-03-0.519E-04
CGA:  15    -0.128315224292E+04   -0.80576E-04   -0.84536E-04 10640   0.266E-03-0.166E-04
CGA:  16    -0.128315099453E+04    0.12484E-02   -0.67478E-03 10640   0.136E-01-0.125E-02
CGA:  17    -0.128315219149E+04   -0.11970E-02   -0.12849E-02 10640   0.890E-03 0.590E-03
CGA:  18    -0.128315241234E+04   -0.22085E-03   -0.22530E-03 10640   0.635E-03 0.274E-04
CGA:  19    -0.128315258627E+04   -0.17393E-03   -0.16623E-03 10640   0.330E-03-0.502E-04
CGA:  20    -0.128315263620E+04   -0.49925E-04   -0.65148E-04 10640   0.147E-03 0.839E-04
CGA:  21    -0.128315268422E+04   -0.48019E-04   -0.44336E-04 10640   0.789E-04-0.249E-04
CGA:  22    -0.128315269881E+04   -0.14590E-04   -0.12234E-04 10640   0.387E-04-0.121E-04
CGA:  23    -0.128315270365E+04   -0.48392E-05   -0.68762E-05 10640   0.238E-04 0.126E-04
  24 F= -.12831527E+04 E0= -.12831527E+04  d E =-.544007E-01  mag=    47.0000
       N       E                     dE             d eps       ncg     rms          ort
SDA:   1    -0.127904948166E+04    0.41032E+01    0.00000E+00 10640   0.106E+02 0.000E+00
CGA:   2    -0.128193873380E+04   -0.28893E+01   -0.28895E+01 10640   0.499E+01 0.645E-02
CGA:   3    -0.128296813120E+04   -0.10294E+01   -0.10284E+01 10640   0.878E+00-0.142E-01
CGA:   4    -0.128311454970E+04   -0.14642E+00   -0.14674E+00 10640   0.181E+00 0.317E-02
CGA:   5    -0.128315164225E+04   -0.37093E-01   -0.36672E-01 10640   0.429E-01-0.325E-02
CGA:   6    -0.128316040080E+04   -0.87585E-02   -0.87497E-02 10640   0.148E-01-0.483E-05
CGA:   7    -0.128316355131E+04   -0.31505E-02   -0.30379E-02 10640   0.535E-02-0.923E-03
CGA:   8    -0.128316478521E+04   -0.12339E-02   -0.11842E-02 10640   0.325E-02-0.595E-03
CGA:   9    -0.128316549469E+04   -0.70948E-03   -0.67228E-03 10640   0.184E-02-0.442E-03
CGA:  10    -0.128316589384E+04   -0.39915E-03   -0.80891E-03 10640   0.627E-02-0.207E-02
CGA:  11    -0.128316644690E+04   -0.55306E-03   -0.61881E-03 10640   0.769E-03 0.348E-03
CGA:  12    -0.128316671054E+04   -0.26364E-03   -0.26710E-03 10640   0.492E-03-0.182E-03
CGA:  13    -0.128316634471E+04    0.36583E-03   -0.33272E-03 10640   0.746E-02-0.121E-02
CGA:  14    -0.128316701126E+04   -0.66655E-03   -0.75783E-03 10640   0.541E-03 0.414E-03
CGA:  15    -0.128316721739E+04   -0.20613E-03   -0.20928E-03 10640   0.366E-03-0.808E-04
CGA:  16    -0.128316728953E+04   -0.72134E-04   -0.57737E-04 10640   0.171E-03-0.992E-04
CGA:  17    -0.128316731471E+04   -0.25184E-04   -0.28477E-04 10640   0.984E-04 0.351E-04
CGA:  18    -0.128316619357E+04    0.11211E-02   -0.60544E-03 10640   0.103E-01-0.799E-03
CGA:  19    -0.128316744912E+04   -0.12556E-02   -0.12772E-02 10640   0.872E-03 0.867E-04
CGA:  20    -0.128316760453E+04   -0.15541E-03   -0.20343E-03 10640   0.172E-03 0.149E-03
CGA:  21    -0.128316771877E+04   -0.11424E-03   -0.91728E-04 10640   0.628E-03-0.264E-03
CGA:  22    -0.128316770081E+04    0.17965E-04   -0.56670E-04 10640   0.716E-04 0.170E-03
CGA:  23    -0.128316768848E+04    0.12326E-04   -0.67430E-05 10640   0.290E-04 0.435E-04
CGA:  24    -0.128316770373E+04   -0.15243E-04   -0.15636E-04 10640   0.341E-04-0.826E-05
CGA:  25    -0.128316770299E+04    0.73827E-06   -0.23310E-05 10640   0.155E-04 0.775E-05
  25 F= -.12831677E+04 E0= -.12831677E+04  d E =-.149993E-01  mag=    47.0000
       N       E                     dE             d eps       ncg     rms          ort
SDA:   1    -0.127543943680E+04    0.77283E+01    0.00000E+00 10640   0.197E+02 0.000E+00
CGA:   2    -0.128079077053E+04   -0.53513E+01   -0.53515E+01 10640   0.953E+01 0.277E-02
CGA:   3    -0.128275736371E+04   -0.19666E+01   -0.19669E+01 10640   0.166E+01-0.139E-03
CGA:   4    -0.128302161012E+04   -0.26425E+00   -0.26439E+00 10640   0.369E+00 0.569E-02
CGA:   5    -0.128308956528E+04   -0.67955E-01   -0.67801E-01 10640   0.105E+00-0.111E-03
CGA:   6    -0.128310824731E+04   -0.18682E-01   -0.18518E-01 10640   0.336E-01-0.974E-03
CGA:   7    -0.128311520556E+04   -0.69583E-02   -0.68918E-02 10640   0.969E-02-0.236E-03
CGA:   8    -0.128311758563E+04   -0.23801E-02   -0.22537E-02 10640   0.543E-02-0.821E-03
CGA:   9    -0.128311864603E+04   -0.10604E-02   -0.10538E-02 10640   0.225E-02-0.234E-04
CGA:  10    -0.128311944878E+04   -0.80274E-03   -0.79191E-03 10640   0.163E-02-0.541E-03
CGA:  11    -0.128311979205E+04   -0.34328E-03   -0.29786E-03 10640   0.107E-02-0.346E-03
CGA:  12    -0.128312005940E+04   -0.26735E-03   -0.23998E-03 10640   0.790E-03-0.341E-03
CGA:  13    -0.128312025401E+04   -0.19461E-03   -0.19472E-03 10640   0.981E-03-0.235E-03
CGA:  14    -0.128312051423E+04   -0.26022E-03   -0.28700E-03 10640   0.160E-02-0.490E-03
CGA:  15    -0.128312078152E+04   -0.26730E-03   -0.24948E-03 10640   0.120E-02-0.341E-03
CGA:  16    -0.128312111209E+04   -0.33056E-03   -0.32911E-03 10640   0.593E-03-0.119E-03
CGA:  17    -0.128312128194E+04   -0.16985E-03   -0.16540E-03 10640   0.502E-03-0.903E-04
CGA:  18    -0.128312131437E+04   -0.32433E-04   -0.62021E-04 10640   0.186E-03 0.138E-03
CGA:  19    -0.128312131030E+04    0.40774E-05   -0.25331E-04 10640   0.114E-03 0.122E-03
CGA:  20    -0.128312132663E+04   -0.16338E-04   -0.23573E-04 10640   0.647E-04 0.565E-04
CGA:  21    -0.128312132414E+04    0.24995E-05   -0.11873E-04 10640   0.384E-04 0.695E-04
  26 F= -.12831213E+04 E0= -.12831213E+04  d E =0.463789E-01  mag=    47.0000
       N       E                     dE             d eps       ncg     rms          ort
SDA:   1    -0.127729737091E+04    0.58240E+01    0.00000E+00 10640   0.153E+02 0.000E+00
CGA:   2    -0.128122275114E+04   -0.39254E+01   -0.39254E+01 10640   0.718E+01-0.294E-02
CGA:   3    -0.128278171165E+04   -0.15590E+01   -0.15590E+01 10640   0.127E+01 0.221E-02
CGA:   4    -0.128299226480E+04   -0.21055E+00   -0.21037E+00 10640   0.273E+00-0.680E-03
CGA:   5    -0.128304196952E+04   -0.49705E-01   -0.49786E-01 10640   0.782E-01 0.484E-03
CGA:   6    -0.128305515705E+04   -0.13188E-01   -0.13263E-01 10640   0.256E-01 0.103E-02
CGA:   7    -0.128306088050E+04   -0.57234E-02   -0.56487E-02 10640   0.710E-02-0.115E-02
CGA:   8    -0.128306242142E+04   -0.15409E-02   -0.15459E-02 10640   0.315E-02 0.111E-03
CGA:   9    -0.128306324090E+04   -0.81948E-03   -0.81214E-03 10640   0.202E-02-0.324E-03
CGA:  10    -0.128306369465E+04   -0.45375E-03   -0.44376E-03 10640   0.109E-02-0.322E-03
CGA:  11    -0.128306391905E+04   -0.22441E-03   -0.22088E-03 10640   0.491E-03-0.106E-03
CGA:  12    -0.128306402886E+04   -0.10981E-03   -0.10919E-03 10640   0.266E-03-0.235E-04
CGA:  13    -0.128306411843E+04   -0.89568E-04   -0.12079E-03 10640   0.646E-03-0.152E-03
CGA:  14    -0.128306415005E+04   -0.31614E-04   -0.59159E-04 10640   0.134E-03 0.148E-03
CGA:  15    -0.128306416713E+04   -0.17084E-04   -0.25901E-04 10640   0.107E-03 0.769E-04
CGA:  16    -0.128306405571E+04    0.11143E-03   -0.88641E-04 10640   0.321E-02-0.356E-03
CGA:  17    -0.128306424505E+04   -0.18934E-03   -0.25518E-03 10640   0.708E-04 0.331E-03
CGA:  18    -0.128306423907E+04    0.59746E-05   -0.44763E-05 10640   0.363E-04 0.464E-04
  27 F= -.12830642E+04 E0= -.12830642E+04  d E =0.570851E-01  mag=    47.0000
       N       E                     dE             d eps       ncg     rms          ort
SDA:   1    -0.127764955061E+04    0.54147E+01    0.00000E+00 10640   0.151E+02 0.000E+00
CGA:   2    -0.128118924155E+04   -0.35397E+01   -0.35399E+01 10640   0.666E+01 0.253E-02
CGA:   3    -0.128267807091E+04   -0.14888E+01   -0.14889E+01 10640   0.151E+01 0.192E-02
CGA:   4    -0.128290984100E+04   -0.23177E+00   -0.23134E+00 10640   0.326E+00 0.129E-02
CGA:   5    -0.128296654782E+04   -0.56707E-01   -0.56754E-01 10640   0.887E-01 0.133E-03
CGA:   6    -0.128298243640E+04   -0.15889E-01   -0.15933E-01 10640   0.271E-01 0.904E-03
CGA:   7    -0.128298849640E+04   -0.60600E-02   -0.60355E-02 10640   0.927E-02-0.895E-03
CGA:   8    -0.128299019551E+04   -0.16991E-02   -0.17123E-02 10640   0.382E-02 0.261E-03
CGA:   9    -0.128299132738E+04   -0.11319E-02   -0.11515E-02 10640   0.225E-02-0.388E-03
CGA:  10    -0.128299185854E+04   -0.53117E-03   -0.53466E-03 10640   0.144E-02-0.177E-03
CGA:  11    -0.128299222775E+04   -0.36921E-03   -0.39046E-03 10640   0.132E-02-0.452E-03
CGA:  12    -0.128299239821E+04   -0.17046E-03   -0.16998E-03 10640   0.593E-03-0.647E-05
CGA:  13    -0.128299259708E+04   -0.19888E-03   -0.19465E-03 10640   0.570E-03 0.484E-04
CGA:  14    -0.128299275760E+04   -0.16051E-03   -0.16172E-03 10640   0.774E-03-0.981E-04
CGA:  15    -0.128299289503E+04   -0.13743E-03   -0.14091E-03 10640   0.506E-03 0.111E-03
CGA:  16    -0.128299298349E+04   -0.88460E-04   -0.97952E-04 10640   0.407E-03 0.118E-03
CGA:  17    -0.128299311313E+04   -0.12964E-03   -0.12987E-03 10640   0.279E-03-0.181E-04
CGA:  18    -0.128299315279E+04   -0.39662E-04   -0.42887E-04 10640   0.163E-03 0.373E-04
CGA:  19    -0.128299316847E+04   -0.15677E-04   -0.25693E-04 10640   0.121E-03 0.971E-04
CGA:  20    -0.128299319114E+04   -0.22672E-04   -0.23315E-04 10640   0.765E-04 0.148E-04
CGA:  21    -0.128299321360E+04   -0.22463E-04   -0.22029E-04 10640   0.311E-04 0.193E-04
CGA:  22    -0.128299322191E+04   -0.83064E-05   -0.85922E-05 10640   0.277E-04 0.196E-04
  28 F= -.12829932E+04 E0= -.12829932E+04  d E =0.710172E-01  mag=    47.0000
       N       E                     dE             d eps       ncg     rms          ort
SDA:   1    -0.126894954787E+04    0.14044E+02    0.00000E+00 10640   0.362E+02 0.000E+00
CGA:   2    -0.127870425562E+04   -0.97547E+01   -0.97547E+01 10640   0.172E+02-0.293E-02
CGA:   3    -0.128231418059E+04   -0.36099E+01   -0.36097E+01 10640   0.281E+01-0.871E-02
CGA:   4    -0.128279732666E+04   -0.48315E+00   -0.48312E+00 10640   0.591E+00-0.243E-02
CGA:   5    -0.128291547332E+04   -0.11815E+00   -0.11823E+00 10640   0.137E+00 0.381E-02
CGA:   6    -0.128294521153E+04   -0.29738E-01   -0.29708E-01 10640   0.511E-01-0.248E-02
CGA:   7    -0.128295476806E+04   -0.95565E-02   -0.94977E-02 10640   0.173E-01-0.148E-02
CGA:   8    -0.128295858550E+04   -0.38174E-02   -0.38198E-02 10640   0.906E-02-0.690E-03
CGA:   9    -0.128296064586E+04   -0.20604E-02   -0.20749E-02 10640   0.581E-02-0.102E-02
CGA:  10    -0.128296195022E+04   -0.13044E-02   -0.13572E-02 10640   0.360E-02-0.138E-02
CGA:  11    -0.128296260314E+04   -0.65293E-03   -0.66001E-03 10640   0.171E-02-0.539E-03
CGA:  12    -0.128296291560E+04   -0.31246E-03   -0.73406E-03 10640   0.493E-02-0.152E-02
CGA:  13    -0.128296333657E+04   -0.42097E-03   -0.49991E-03 10640   0.854E-03 0.588E-03
CGA:  14    -0.128296355788E+04   -0.22131E-03   -0.22188E-03 10640   0.470E-03 0.224E-03
CGA:  15    -0.128296373667E+04   -0.17879E-03   -0.20431E-03 10640   0.117E-02-0.232E-03
CGA:  16    -0.128296377102E+04   -0.34343E-04   -0.52372E-04 10640   0.121E-02 0.118E-03
CGA:  17    -0.128296381817E+04   -0.47157E-04   -0.99484E-04 10640   0.502E-03 0.333E-03
CGA:  18    -0.128296384446E+04   -0.26286E-04   -0.56907E-04 10640   0.432E-03 0.226E-03
CGA:  19    -0.128296393199E+04   -0.87535E-04   -0.97050E-04 10640   0.514E-03 0.150E-03
CGA:  20    -0.128296406064E+04   -0.12864E-03   -0.12107E-03 10640   0.452E-03-0.193E-03
CGA:  21    -0.128296410714E+04   -0.46508E-04   -0.40319E-04 10640   0.635E-03-0.906E-04
CGA:  22    -0.128296416605E+04   -0.58901E-04   -0.65960E-04 10640   0.761E-03 0.854E-04
CGA:  23    -0.128296425490E+04   -0.88852E-04   -0.10708E-03 10640   0.553E-03 0.220E-03
CGA:  24    -0.128296436389E+04   -0.10900E-03   -0.11121E-03 10640   0.499E-03 0.445E-04
CGA:  25    -0.128296448212E+04   -0.11823E-03   -0.13029E-03 10640   0.530E-03-0.289E-03
CGA:  26    -0.128296453722E+04   -0.55094E-04   -0.64854E-04 10640   0.152E-03 0.125E-03
CGA:  27    -0.128296459929E+04   -0.62070E-04   -0.67059E-04 10640   0.110E-03-0.312E-04
CGA:  28    -0.128296461796E+04   -0.18673E-04   -0.20266E-04 10640   0.926E-04-0.577E-04
CGA:  29    -0.128296462125E+04   -0.32925E-05   -0.85607E-05 10640   0.341E-04 0.463E-04
  29 F= -.12829646E+04 E0= -.12829646E+04  d E =0.286007E-01  mag=    47.0000
       N       E                     dE             d eps       ncg     rms          ort
SDA:   1    -0.127055126258E+04    0.12413E+02    0.00000E+00 10640   0.337E+02 0.000E+00
CGA:   2    -0.127897469878E+04   -0.84234E+01   -0.84240E+01 10640   0.156E+02-0.100E-01
CGA:   3    -0.128244748751E+04   -0.34728E+01   -0.34727E+01 10640   0.281E+01-0.210E-02
CGA:   4    -0.128291043688E+04   -0.46295E+00   -0.46301E+00 10640   0.562E+00 0.103E-02
CGA:   5    -0.128302067356E+04   -0.11024E+00   -0.11026E+00 10640   0.138E+00 0.522E-02
CGA:   6    -0.128304974396E+04   -0.29070E-01   -0.29098E-01 10640   0.511E-01-0.373E-02
CGA:   7    -0.128305936471E+04   -0.96207E-02   -0.96155E-02 10640   0.137E-01-0.588E-03
CGA:   8    -0.128306316590E+04   -0.38012E-02   -0.40988E-02 10640   0.908E-02-0.289E-02
CGA:   9    -0.128306469185E+04   -0.15259E-02   -0.15315E-02 10640   0.457E-02-0.691E-03
CGA:  10    -0.128306577210E+04   -0.10803E-02   -0.11649E-02 10640   0.302E-02-0.121E-02
CGA:  11    -0.128306624570E+04   -0.47360E-03   -0.47794E-03 10640   0.184E-02-0.791E-03
CGA:  12    -0.128306657820E+04   -0.33249E-03   -0.47020E-03 10640   0.193E-02-0.101E-02
CGA:  13    -0.128306684191E+04   -0.26371E-03   -0.27248E-03 10640   0.680E-03 0.120E-03
CGA:  14    -0.128306702506E+04   -0.18315E-03   -0.18410E-03 10640   0.346E-03-0.227E-04
CGA:  15    -0.128306713423E+04   -0.10917E-03   -0.10541E-03 10640   0.325E-03 0.376E-04
CGA:  16    -0.128306722819E+04   -0.93965E-04   -0.94878E-04 10640   0.239E-03-0.212E-04
CGA:  17    -0.128306728701E+04   -0.58813E-04   -0.56550E-04 10640   0.130E-03 0.727E-04
CGA:  18    -0.128306736509E+04   -0.78078E-04    0.72470E-03 10640   0.730E-04 0.970E-04
CGA:  19    -0.128306740379E+04   -0.38709E-04   -0.40262E-04 10640   0.206E-03-0.503E-05
CGA:  20    -0.128306647447E+04    0.92932E-03   -0.50071E-03 10640   0.672E-02-0.936E-03
CGA:  21    -0.128306725362E+04   -0.77914E-03   -0.79487E-03 10640   0.122E-02 0.796E-04
CGA:  22    -0.128306763897E+04   -0.38535E-03   -0.39811E-03 10640   0.341E-03 0.130E-03
CGA:  23    -0.128306776655E+04   -0.12758E-03   -0.10572E-03 10640   0.601E-03-0.158E-03
CGA:  24    -0.128306779812E+04   -0.31567E-04   -0.43052E-04 10640   0.416E-03 0.417E-04
CGA:  25    -0.128306779341E+04    0.47108E-05   -0.28277E-04 10640   0.904E-04 0.101E-03
  30 F= -.12830678E+04 E0= -.12830678E+04  d E =-.103172E+00  mag=    47.0000
       N       E                     dE             d eps       ncg     rms          ort
SDA:   1    -0.124884358396E+04    0.34224E+02    0.00000E+00 10640   0.108E+03 0.000E+00
CGA:   2    -0.127028520977E+04   -0.21442E+02   -0.21457E+02 10640   0.418E+02 0.351E+00
CGA:   3    -0.128032225788E+04   -0.10037E+02   -0.10042E+02 10640   0.123E+02 0.725E-01
CGA:   4    -0.128215624856E+04   -0.18340E+01   -0.18424E+01 10640   0.211E+01 0.348E-01
CGA:   5    -0.128252840122E+04   -0.37215E+00   -0.37060E+00 10640   0.666E+00 0.113E-01
CGA:   6    -0.128264329696E+04   -0.11490E+00   -0.11496E+00 10640   0.204E+00-0.837E-03
CGA:   7    -0.128268537653E+04   -0.42080E-01   -0.41913E-01 10640   0.666E-01-0.119E-02
CGA:   8    -0.128269914774E+04   -0.13771E-01   -0.13549E-01 10640   0.292E-01-0.187E-02
[...]
CGA:  24    -0.128313279802E+04   -0.47760E-04   -0.11367E-03 10640   0.106E-03 0.246E-03
CGA:  25    -0.128313279241E+04    0.56073E-05   -0.10105E-04 10640   0.468E-04 0.590E-04
CGA:  26    -0.128313283291E+04   -0.40496E-04    0.26551E-04 10640   0.362E-04 0.117E-04
CGA:  27    -0.128313287867E+04   -0.45761E-04    0.14776E-04 10640   0.998E-04-0.247E-04
CGA:  28    -0.128313289115E+04   -0.12484E-04   -0.10749E-04 10640   0.198E-04-0.737E-05
CGA:  29    -0.128313291564E+04   -0.24490E-04    0.27639E-05 10640   0.840E-05 0.604E-05
CGA:  30    -0.128313293451E+04   -0.18870E-04    0.10633E-05 10640   0.111E-04 0.658E-05
CGA:  31    -0.128313295435E+04   -0.19834E-04    0.10175E-05 10640   0.320E-04-0.503E-05
CGA:  32    -0.128313299702E+04   -0.42678E-04    0.10190E-05 10640   0.717E-04 0.609E-06
CGA:  33    -0.128313304748E+04   -0.50462E-04    0.17216E-03 10640   0.242E-03-0.900E-04
CGA:  34    -0.128313309859E+04   -0.51102E-04   -0.35605E-04 10640   0.993E-04-0.874E-04
CGA:  35    -0.128313310409E+04   -0.55050E-05   -0.91947E-05 10640   0.176E-04 0.219E-04
  45 F= -.12831331E+04 E0= -.12831331E+04  d E =-.331540E+00  mag=    47.0000
       N       E                     dE             d eps       ncg     rms          ort
SDA:   1    -0.128287173318E+04    0.26137E+00    0.00000E+00 10640   0.871E+00 0.000E+00
CGA:   2    -0.128305704257E+04   -0.18531E+00   -0.18550E+00 10640   0.350E+00 0.256E-02
CGA:   3    -0.128314250243E+04   -0.85460E-01   -0.85302E-01 10640   0.848E-01-0.360E-02
CGA:   4    -0.128315603631E+04   -0.13534E-01   -0.13306E-01 10640   0.157E-01-0.177E-02
CGA:   5    -0.128315906960E+04   -0.30333E-02   -0.29619E-02 10640   0.512E-02-0.805E-03
CGA:   6    -0.128315988310E+04   -0.81350E-03   -0.78989E-03 10640   0.172E-02-0.200E-03
CGA:   7    -0.128316021584E+04   -0.33274E-03   -0.32994E-03 10640   0.442E-03-0.380E-04
CGA:   8    -0.128316029754E+04   -0.81701E-04   -0.84875E-04 10640   0.163E-03 0.456E-04
CGA:   9    -0.128316041850E+04   -0.12096E-03    0.84016E-04 10640   0.944E-04 0.196E-05
CGA:  10    -0.128316050325E+04   -0.84750E-04    0.18325E-04 10640   0.576E-04-0.299E-06
CGA:  11    -0.128316060566E+04   -0.10241E-03    0.31661E-05 10640   0.377E-04-0.309E-06
CGA:  12    -0.128316068241E+04   -0.76747E-04    0.17081E-05 10640   0.282E-04 0.176E-06
CGA:  13    -0.128316074619E+04   -0.63780E-04    0.11323E-05 10640   0.221E-04 0.392E-05
CGA:  14    -0.128316081134E+04   -0.65151E-04    0.84317E-06 10640   0.138E-04 0.919E-05
CGA:  15    -0.128316086298E+04   -0.51643E-04    0.64150E-06 10640   0.867E-05 0.101E-04
CGA:  16    -0.128316086665E+04   -0.36653E-05   -0.46553E-05 10640   0.284E-04-0.365E-05
  46 F= -.12831609E+04 E0= -.12831609E+04  d E =-.277626E-01  mag=    47.0000
       N       E                     dE             d eps       ncg     rms          ort
SDA:   1    -0.127734858365E+04    0.58123E+01    0.00000E+00 10640   0.171E+02 0.000E+00
CGA:   2    -0.128116278845E+04   -0.38142E+01   -0.38153E+01 10640   0.724E+01 0.176E-01
CGA:   3    -0.128286387798E+04   -0.17011E+01   -0.17008E+01 10640   0.158E+01-0.132E-01
CGA:   4    -0.128311921063E+04   -0.25533E+00   -0.25481E+00 10640   0.267E+00-0.514E-02
CGA:   5    -0.128317603774E+04   -0.56827E-01   -0.56681E-01 10640   0.602E-01-0.267E-02
CGA:   6    -0.128319013244E+04   -0.14095E-01   -0.14049E-01 10640   0.198E-01-0.157E-02
CGA:   7    -0.128319379068E+04   -0.36582E-02   -0.36870E-02 10640   0.602E-02 0.436E-03
CGA:   8    -0.128319547164E+04   -0.16810E-02   -0.17002E-02 10640   0.414E-02-0.109E-02
CGA:   9    -0.128319630704E+04   -0.83540E-03   -0.82056E-03 10640   0.276E-02-0.811E-03
CGA:  10    -0.128319691891E+04   -0.61187E-03   -0.72399E-03 10640   0.359E-02-0.166E-02
CGA:  11    -0.128319738726E+04   -0.46834E-03   -0.43600E-03 10640   0.931E-03-0.224E-03
CGA:  12    -0.128319764929E+04   -0.26203E-03   -0.36557E-03 10640   0.165E-02-0.632E-03
CGA:  13    -0.128319782374E+04   -0.17444E-03   -0.18488E-03 10640   0.326E-03 0.746E-04
CGA:  14    -0.128319785175E+04   -0.28018E-04   -0.19495E-03 10640   0.151E-02-0.529E-03
CGA:  15    -0.128319809436E+04   -0.24261E-03   -0.23275E-03 10640   0.494E-03-0.813E-04
CGA:  16    -0.128319819994E+04   -0.10558E-03   -0.94783E-04 10640   0.200E-03-0.171E-03
CGA:  17    -0.128319828050E+04   -0.80562E-04    0.10161E-03 10640   0.128E-03 0.456E-04
CGA:  18    -0.128319841772E+04   -0.13721E-03    0.30744E-04 10640   0.523E-04 0.785E-04
CGA:  19    -0.128319845730E+04   -0.39580E-04    0.15609E-04 10640   0.485E-04 0.340E-04
CGA:  20    -0.128319850959E+04   -0.52290E-04    0.60662E-05 10640   0.756E-04 0.158E-04
CGA:  21    -0.128319861064E+04   -0.10106E-03    0.14326E-04 10640   0.392E-04 0.843E-04
CGA:  22    -0.128319862868E+04   -0.18035E-04   -0.19773E-04 10640   0.166E-03-0.724E-05
CGA:  23    -0.128319878145E+04   -0.15278E-03    0.17712E-04 10640   0.221E-03 0.931E-04
CGA:  24    -0.128319883505E+04   -0.53600E-04   -0.71366E-04 10640   0.823E-03-0.371E-03
CGA:  25    -0.128319886899E+04   -0.33934E-04   -0.67908E-04 10640   0.539E-04 0.178E-03
CGA:  26    -0.128319886713E+04    0.18519E-05   -0.41523E-05 10640   0.197E-04 0.295E-04
CGA:  27    -0.128319887880E+04   -0.11669E-04    0.17042E-04 10640   0.200E-04 0.128E-04
CGA:  28    -0.128319890219E+04   -0.23386E-04    0.20108E-05 10640   0.238E-04 0.927E-05
CGA:  29    -0.128319893528E+04   -0.33091E-04    0.52865E-05 10640   0.172E-04 0.310E-04
CGA:  30    -0.128319894216E+04   -0.68799E-05   -0.64101E-05 10640   0.321E-04 0.400E-05
  47 F= -.12831989E+04 E0= -.12831989E+04  d E =-.380755E-01  mag=    47.0000
       N       E                     dE             d eps       ncg     rms          ort
SDA:   1    -0.128239403085E+04    0.80490E+00    0.00000E+00 10640   0.222E+01 0.000E+00
CGA:   2    -0.128293487172E+04   -0.54084E+00   -0.54086E+00 10640   0.104E+01 0.987E-03
CGA:   3    -0.128316386879E+04   -0.22900E+00   -0.22892E+00 10640   0.216E+00-0.185E-02
CGA:   4    -0.128319655040E+04   -0.32682E-01   -0.32542E-01 10640   0.443E-01-0.133E-02
CGA:   5    -0.128320427429E+04   -0.77239E-02   -0.77442E-02 10640   0.131E-01 0.357E-03
CGA:   6    -0.128320665584E+04   -0.23816E-02   -0.23517E-02 10640   0.428E-02-0.410E-03
CGA:   7    -0.128320746115E+04   -0.80531E-03   -0.80762E-03 10640   0.123E-02 0.504E-04
CGA:   8    -0.128320772878E+04   -0.26763E-03   -0.26611E-03 10640   0.544E-03-0.481E-04
CGA:   9    -0.128320788410E+04   -0.15532E-03   -0.20322E-03 10640   0.899E-03-0.327E-03
CGA:  10    -0.128320797449E+04   -0.90392E-04   -0.95802E-04 10640   0.161E-03 0.392E-04
CGA:  11    -0.128320802699E+04   -0.52497E-04   -0.56646E-04 10640   0.112E-03-0.439E-04
CGA:  12    -0.128320809153E+04   -0.64542E-04    0.16760E-04 10640   0.106E-03-0.152E-04
CGA:  13    -0.128320814072E+04   -0.49189E-04    0.13295E-03 10640   0.481E-04 0.157E-04
CGA:  14    -0.128320814298E+04   -0.22568E-05   -0.51263E-04 10640   0.386E-03-0.724E-04
CGA:  15    -0.128320824532E+04   -0.10234E-03   -0.12618E-03 10640   0.124E-02-0.530E-03
CGA:  16    -0.128320828600E+04   -0.40682E-04   -0.93606E-04 10640   0.763E-04 0.259E-03
CGA:  17    -0.128320827830E+04    0.76985E-05   -0.40265E-05 10640   0.277E-04 0.511E-04
  48 F= -.12832083E+04 E0= -.12832083E+04  d E =-.933614E-02  mag=    47.0000
       N       E                     dE             d eps       ncg     rms          ort
SDA:   1    -0.125667646389E+04    0.26532E+02    0.00000E+00 10640   0.778E+02 0.000E+00
CGA:   2    -0.127382870893E+04   -0.17152E+02   -0.17160E+02 10640   0.326E+02 0.111E+00
CGA:   3    -0.128143307434E+04   -0.76044E+01   -0.76043E+01 10640   0.754E+01 0.230E-01
CGA:   4    -0.128260964327E+04   -0.11766E+01   -0.11807E+01 10640   0.146E+01 0.246E-01
CGA:   5    -0.128286635208E+04   -0.25671E+00   -0.25683E+00 10640   0.453E+00 0.114E-01
CGA:   6    -0.128294046428E+04   -0.74112E-01   -0.74365E-01 10640   0.147E+00 0.732E-03
CGA:   7    -0.128297138846E+04   -0.30924E-01   -0.30864E-01 10640   0.443E-01-0.185E-02
CGA:   8    -0.128298128684E+04   -0.98984E-02   -0.98713E-02 10640   0.221E-01-0.271E-02
CGA:   9    -0.128298570401E+04   -0.44172E-02   -0.44312E-02 10640   0.983E-02 0.725E-03
CGA:  10    -0.128298802238E+04   -0.23184E-02   -0.23238E-02 10640   0.469E-02 0.114E-02
CGA:  11    -0.128298905755E+04   -0.10352E-02   -0.10625E-02 10640   0.224E-02 0.906E-03
CGA:  12    -0.128298967256E+04   -0.61501E-03   -0.61601E-03 10640   0.951E-03 0.762E-03
CGA:  13    -0.128299001254E+04   -0.33999E-03   -0.32548E-03 10640   0.587E-03 0.620E-03
CGA:  14    -0.128299018943E+04   -0.17689E-03   -0.16475E-03 10640   0.502E-03 0.256E-03
CGA:  15    -0.128299028577E+04   -0.96346E-04   -0.12641E-03 10640   0.324E-03 0.499E-03
CGA:  16    -0.128299035071E+04   -0.64936E-04   -0.69452E-04 10640   0.271E-03 0.245E-03
CGA:  17    -0.128299039821E+04   -0.47501E-04   -0.54089E-04 10640   0.270E-03 0.206E-03
CGA:  18    -0.128299043765E+04   -0.39435E-04   -0.48265E-04 10640   0.267E-03 0.173E-03
CGA:  19    -0.128299046810E+04   -0.30453E-04   -0.41824E-04 10640   0.243E-03 0.160E-03
CGA:  20    -0.128299050688E+04   -0.38786E-04   -0.44656E-04 10640   0.249E-03 0.146E-03
CGA:  21    -0.128299053087E+04   -0.23984E-04   -0.35391E-04 10640   0.210E-03 0.143E-03
CGA:  22    -0.128299056853E+04   -0.37661E-04   -0.40841E-04 10640   0.221E-03 0.136E-03
CGA:  23    -0.128299058866E+04   -0.20128E-04   -0.30514E-04 10640   0.184E-03 0.132E-03
CGA:  24    -0.128299062419E+04   -0.35535E-04   -0.37000E-04 10640   0.195E-03 0.126E-03
CGA:  25    -0.128299064164E+04   -0.17444E-04   -0.26644E-04 10640   0.163E-03 0.121E-03
CGA:  26    -0.128299067472E+04   -0.33082E-04   -0.33447E-04 10640   0.173E-03 0.116E-03
CGA:  27    -0.128299069002E+04   -0.15306E-04   -0.23444E-04 10640   0.145E-03 0.111E-03
CGA:  28    -0.128299072066E+04   -0.30634E-04   -0.30249E-04 10640   0.155E-03 0.106E-03
CGA:  29    -0.128299073421E+04   -0.13549E-04   -0.20752E-04 10640   0.130E-03 0.102E-03
CGA:  30    -0.128299076249E+04   -0.28284E-04   -0.27389E-04 10640   0.138E-03 0.977E-04
CGA:  31    -0.128299077455E+04   -0.12053E-04   -0.18450E-04 10640   0.117E-03 0.937E-04
CGA:  32    -0.128299080061E+04   -0.26069E-04   -0.24831E-04 10640   0.124E-03 0.897E-04
CGA:  33    -0.128299081139E+04   -0.10775E-04   -0.16470E-04 10640   0.106E-03 0.860E-04
CGA:  34    -0.128299083536E+04   -0.23972E-04   -0.22525E-04 10640   0.111E-03 0.824E-04
CGA:  35    -0.128299084503E+04   -0.96668E-05   -0.14752E-04 10640   0.956E-04 0.791E-04
CGA:  36    -0.128299086705E+04   -0.22022E-04   -0.20455E-04 10640   0.100E-03 0.758E-04
CGA:  37    -0.128299087574E+04   -0.86873E-05   -0.13245E-04 10640   0.867E-04 0.728E-04
CGA:  38    -0.128299089595E+04   -0.20209E-04   -0.18587E-04 10640   0.906E-04 0.699E-04
CGA:  39    -0.128299090378E+04   -0.78290E-05   -0.11921E-04 10640   0.788E-04 0.671E-04
CGA:  40    -0.128299092228E+04   -0.18504E-04   -0.16888E-04 10640   0.819E-04 0.645E-04
CGA:  41    -0.128299092935E+04   -0.70738E-05   -0.10755E-04 10640   0.717E-04 0.620E-04
CGA:  42    -0.128299094626E+04   -0.16901E-04   -0.15338E-04 10640   0.741E-04 0.597E-04
CGA:  43    -0.128299095266E+04   -0.64067E-05   -0.97221E-05 10640   0.654E-04 0.574E-04
CGA:  44    -0.128299096805E+04   -0.15385E-04   -0.13914E-04 10640   0.670E-04 0.553E-04
CGA:  45    -0.128299097387E+04   -0.58198E-05   -0.88062E-05 10640   0.598E-04 0.533E-04
CGA:  46    -0.128299098781E+04   -0.13945E-04   -0.12600E-04 10640   0.607E-04 0.514E-04
CGA:  47    -0.128299099312E+04   -0.53078E-05   -0.79947E-05 10640   0.547E-04 0.495E-04
CGA:  48    -0.128299100569E+04   -0.12574E-04   -0.11385E-04 10640   0.550E-04 0.479E-04
CGA:  49    -0.128299101056E+04   -0.48682E-05   -0.72785E-05 10640   0.502E-04 0.462E-04
CGA:  50    -0.128299102182E+04   -0.11263E-04   -0.10256E-04 10640   0.499E-04 0.447E-04
CGA:  51    -0.128299102632E+04   -0.44968E-05   -0.66489E-05 10640   0.461E-04 0.431E-04
  49 F= -.12829910E+04 E0= -.12829910E+04  d E =0.217252E+00  mag=    47.0000
       N       E                     dE             d eps       ncg     rms          ort
SDA:   1    -0.127378425874E+04    0.92068E+01    0.00000E+00 10640   0.302E+02 0.000E+00
CGA:   2    -0.127976794958E+04   -0.59837E+01   -0.59832E+01 10640   0.114E+02 0.357E-01
CGA:   3    -0.128257766575E+04   -0.28097E+01   -0.28098E+01 10640   0.318E+01-0.898E-02
CGA:   4    -0.128305668965E+04   -0.47902E+00   -0.47868E+00 10640   0.573E+00-0.112E-01
CGA:   5    -0.128315667617E+04   -0.99987E-01   -0.99934E-01 10640   0.185E+00-0.594E-02
CGA:   6    -0.128318717542E+04   -0.30499E-01   -0.30456E-01 10640   0.545E-01-0.211E-02
CGA:   7    -0.128319872981E+04   -0.11554E-01   -0.11604E-01 10640   0.156E-01-0.146E-02
CGA:   8    -0.128320173439E+04   -0.30046E-02   -0.29987E-02 10640   0.606E-02 0.466E-03
CGA:   9    -0.128320331938E+04   -0.15850E-02   -0.25719E-02 10640   0.123E-01-0.432E-02
CGA:  10    -0.128320457316E+04   -0.12538E-02   -0.12829E-02 10640   0.204E-02 0.382E-03
CGA:  11    -0.128320352972E+04    0.10434E-02   -0.16158E-02 10640   0.163E-01-0.461E-02
CGA:  12    -0.128320574631E+04   -0.22166E-02   -0.22141E-02 10640   0.417E-02 0.316E-05
CGA:  13    -0.128320639488E+04   -0.64857E-03   -0.64408E-03 10640   0.419E-03-0.691E-04
CGA:  14    -0.128320652917E+04   -0.13429E-03   -0.15437E-03 10640   0.526E-03-0.123E-03
CGA:  15    -0.128320684597E+04   -0.31680E-03    0.44039E-04 10640   0.387E-03-0.218E-04
CGA:  16    -0.128320719768E+04   -0.35171E-03    0.35968E-04 10640   0.270E-03 0.202E-03
CGA:  17    -0.128320722838E+04   -0.30695E-04   -0.38091E-04 10640   0.116E-03 0.930E-04
CGA:  18    -0.128320734326E+04   -0.11488E-03    0.24134E-04 10640   0.834E-04 0.801E-04
CGA:  19    -0.128320744434E+04   -0.10108E-03    0.50542E-05 10640   0.748E-04 0.305E-04
CGA:  20    -0.128320754667E+04   -0.10233E-03    0.84845E-05 10640   0.645E-04 0.913E-04
CGA:  21    -0.128320756716E+04   -0.20488E-04   -0.19213E-04 10640   0.875E-04 0.158E-04
CGA:  22    -0.128320768988E+04   -0.12272E-03    0.77834E-05 10640   0.620E-04 0.974E-04
CGA:  23    -0.128320775947E+04   -0.69588E-04    0.44575E-05 10640   0.527E-04 0.170E-04
CGA:  24    -0.128320782486E+04   -0.65390E-04    0.61796E-05 10640   0.493E-04 0.618E-04
CGA:  25    -0.128320784117E+04   -0.16312E-04   -0.15824E-04 10640   0.736E-04 0.485E-05
CGA:  26    -0.128320793150E+04   -0.90336E-04    0.62197E-05 10640   0.579E-04 0.732E-04
CGA:  27    -0.128320798336E+04   -0.51854E-04    0.66846E-05 10640   0.457E-04 0.232E-05
CGA:  28    -0.128320802768E+04   -0.44324E-04    0.50514E-05 10640   0.411E-04 0.433E-04
CGA:  29    -0.128320804178E+04   -0.14095E-04   -0.17151E-04 10640   0.109E-03-0.160E-04
CGA:  30    -0.128320812222E+04   -0.80443E-04    0.50501E-05 10640   0.169E-03 0.503E-04
CGA:  31    -0.128320831916E+04   -0.19694E-03    0.42289E-04 10640   0.685E-04 0.515E-04
CGA:  32    -0.128320837418E+04   -0.55023E-04    0.34273E-04 10640   0.223E-04 0.470E-04
CGA:  33    -0.128320839949E+04   -0.25308E-04    0.18599E-05 10640   0.165E-04 0.245E-05
CGA:  34    -0.128320841445E+04   -0.14967E-04    0.29556E-05 10640   0.158E-04 0.170E-04
CGA:  35    -0.128320841974E+04   -0.52895E-05   -0.51700E-05 10640   0.201E-04 0.128E-05
  50 F= -.12832084E+04 E0= -.12832084E+04  d E =-.217393E+00  mag=    47.0000
       N       E                     dE             d eps       ncg     rms          ort
SDA:   1    -0.128287674528E+04    0.33167E+00    0.00000E+00 10640   0.110E+01 0.000E+00
CGA:   2    -0.128308981145E+04   -0.21307E+00   -0.21302E+00 10640   0.396E+00-0.595E-03
CGA:   3    -0.128319124404E+04   -0.10143E+00   -0.10138E+00 10640   0.107E+00 0.261E-02
CGA:   4    -0.128320728278E+04   -0.16039E-01   -0.16252E-01 10640   0.169E-01 0.249E-02
CGA:   5    -0.128321050425E+04   -0.32215E-02   -0.32400E-02 10640   0.523E-02 0.406E-03
CGA:   6    -0.128321142874E+04   -0.92449E-03   -0.92796E-03 10640   0.182E-02 0.643E-04
CGA:   7    -0.128321175720E+04   -0.32846E-03   -0.33411E-03 10640   0.426E-03 0.120E-03
CGA:   8    -0.128321188464E+04   -0.12744E-03   -0.16518E-03 10640   0.646E-03-0.274E-03
CGA:   9    -0.128321190784E+04   -0.23199E-04   -0.52149E-04 10640   0.111E-03 0.191E-03
CGA:  10    -0.128321190552E+04    0.23190E-05   -0.10280E-04 10640   0.598E-04 0.818E-04
  51 F= -.12832119E+04 E0= -.12832119E+04  d E =-.348578E-02  mag=    47.0000
       N       E                     dE             d eps       ncg     rms          ort
SDA:   1    -0.128309482782E+04    0.11708E+00    0.00000E+00 10640   0.398E+00 0.000E+00
CGA:   2    -0.128317930587E+04   -0.84478E-01   -0.84484E-01 10640   0.158E+00 0.364E-02
CGA:   3    -0.128321848654E+04   -0.39181E-01   -0.39294E-01 10640   0.394E-01-0.349E-02
CGA:   4    -0.128322477983E+04   -0.62933E-02   -0.62129E-02 10640   0.756E-02-0.148E-02
CGA:   5    -0.128322623264E+04   -0.14528E-02   -0.14406E-02 10640   0.276E-02-0.823E-03
CGA:   6    -0.128322666801E+04   -0.43537E-03   -0.41851E-03 10640   0.105E-02-0.402E-03
CGA:   7    -0.128322679079E+04   -0.12278E-03   -0.13366E-03 10640   0.199E-03 0.180E-03
CGA:   8    -0.128322682387E+04   -0.33081E-04   -0.36642E-04 10640   0.912E-04 0.722E-04
CGA:   9    -0.128322681667E+04    0.72016E-05   -0.71247E-04 10640   0.703E-03-0.212E-03
CGA:  10    -0.128322689417E+04   -0.77500E-04   -0.76943E-04 10640   0.136E-03-0.303E-05
CGA:  11    -0.128322696915E+04   -0.74981E-04    0.53697E-04 10640   0.209E-04-0.720E-05
CGA:  12    -0.128322699615E+04   -0.27003E-04    0.10021E-05 10640   0.991E-05 0.557E-05
CGA:  13    -0.128322701506E+04   -0.18908E-04    0.55158E-06 10640   0.695E-05 0.603E-05
CGA:  14    -0.128322702407E+04   -0.90133E-05    0.37961E-06 10640   0.579E-05 0.352E-05
  52 F= -.12832270E+04 E0= -.12832270E+04  d E =-.151185E-01  mag=    47.0000
       N       E                     dE             d eps       ncg     rms          ort
SDA:   1    -0.128178951287E+04    0.14375E+01    0.00000E+00 10640   0.443E+01 0.000E+00
CGA:   2    -0.128273455305E+04   -0.94504E+00   -0.94509E+00 10640   0.177E+01 0.130E-01
CGA:   3    -0.128316457331E+04   -0.43002E+00   -0.43027E+00 10640   0.419E+00-0.107E-01
CGA:   4    -0.128323212492E+04   -0.67552E-01   -0.67307E-01 10640   0.752E-01-0.433E-02
CGA:   5    -0.128324702040E+04   -0.14895E-01   -0.14848E-01 10640   0.225E-01-0.293E-02
CGA:   6    -0.128325077451E+04   -0.37541E-02   -0.37099E-02 10640   0.872E-02-0.101E-02
CGA:   7    -0.128325222459E+04   -0.14501E-02   -0.14626E-02 10640   0.193E-02 0.352E-03
CGA:   8    -0.128325278978E+04   -0.56519E-03   -0.59048E-03 10640   0.117E-02-0.301E-03
CGA:   9    -0.128325300529E+04   -0.21550E-03   -0.43607E-03 10640   0.277E-02-0.967E-03
CGA:  10    -0.128325339681E+04   -0.39153E-03   -0.35615E-03 10640   0.599E-03-0.356E-03
CGA:  11    -0.128325271558E+04    0.68123E-03   -0.49937E-03 10640   0.934E-02-0.160E-02
CGA:  12    -0.128325371701E+04   -0.10014E-02   -0.98208E-03 10640   0.120E-02-0.117E-03
CGA:  13    -0.128325391984E+04   -0.20283E-03   -0.21775E-03 10640   0.174E-03 0.224E-03
CGA:  14    -0.128325396684E+04   -0.47003E-04   -0.46437E-04 10640   0.131E-03-0.255E-04
CGA:  15    -0.128325402393E+04   -0.57090E-04    0.36010E-03 10640   0.683E-04-0.182E-04
CGA:  16    -0.128325409468E+04   -0.70756E-04    0.50033E-05 10640   0.589E-04 0.364E-04
CGA:  17    -0.128325414703E+04   -0.52349E-04    0.89561E-05 10640   0.578E-04 0.502E-05
CGA:  18    -0.128325421078E+04   -0.63749E-04    0.72231E-05 10640   0.253E-04 0.150E-04
CGA:  19    -0.128325425391E+04   -0.43132E-04    0.22299E-05 10640   0.279E-04 0.220E-04
CGA:  20    -0.128325427670E+04   -0.22782E-04    0.51797E-05 10640   0.307E-04 0.463E-05
CGA:  21    -0.128325431299E+04   -0.36289E-04    0.41369E-05 10640   0.160E-04 0.217E-04
CGA:  22    -0.128325432786E+04   -0.14875E-04    0.22198E-05 10640   0.158E-04 0.818E-05
