       N       E                     dE             d eps       ncg     rms          ort
DAV:   1     0.102764503911E+05    0.10276E+05   -0.42431E+05 10640   0.155E+03
DAV:   2    -0.116426653513E+03   -0.10393E+05   -0.98105E+04 10640   0.474E+02
DAV:   3    -0.152228870798E+04   -0.14059E+04   -0.13107E+04 10640   0.181E+02
DAV:   4    -0.160447738931E+04   -0.82189E+02   -0.79921E+02 10640   0.462E+01
DAV:   5    -0.160684965693E+04   -0.23723E+01   -0.23646E+01 10640   0.839E+00
SDA:   6    -0.727125733630E+03    0.87972E+03   -0.23646E+01 10640   0.293E+04 0.000E+00
CGA:   7    -0.112082156193E+04   -0.39370E+03   -0.39313E+03 10640   0.146E+04-0.266E+02
CGA:   8    -0.114093391787E+04   -0.20112E+02   -0.80678E+02 10640   0.153E+04-0.976E+03
CGA:   9    -0.114795201276E+04   -0.70181E+01   -0.73435E+02 10640   0.223E+04-0.155E+04
CGA:  10    -0.112959333045E+04    0.18359E+02   -0.11993E+03 10640   0.278E+04-0.192E+04
CGA:  11    -0.113761439433E+04   -0.80211E+01   -0.13615E+03 10640   0.308E+04-0.281E+04
CGA:  12    -0.111900767816E+04    0.18607E+02   -0.16208E+03 10640   0.364E+04-0.300E+04
CGA:  13    -0.113280285268E+04   -0.13795E+02   -0.18021E+03 10640   0.357E+04-0.351E+04
CGA:  14    -0.112304720061E+04    0.97557E+01   -0.18694E+03 10640   0.374E+04-0.336E+04
CGA:  15    -0.115101771377E+04   -0.27971E+02   -0.18115E+03 10640   0.323E+04-0.345E+04
CGA:  16    -0.116587894999E+04   -0.14861E+02   -0.15686E+03 10640   0.291E+04-0.299E+04
CGA:  17    -0.120349673933E+04   -0.37618E+02   -0.12712E+03 10640   0.197E+04-0.240E+04
CGA:  18    -0.123395709372E+04   -0.30460E+02   -0.78753E+02 10640   0.989E+03-0.137E+04
CGA:  19    -0.125471182620E+04   -0.20755E+02   -0.33555E+02 10640   0.218E+03-0.392E+03
CGA:  20    -0.126152848561E+04   -0.68167E+01   -0.50079E+01 10640   0.308E+02 0.420E+02
CGA:  21    -0.126388897586E+04   -0.23605E+01   -0.23329E+01 10640   0.693E+02 0.990E-01
CGA:  22    -0.127355737878E+04   -0.96684E+01   -0.95098E+01 10640   0.115E+03 0.490E+01
CGA:  23    -0.127624513330E+04   -0.26878E+01   -0.30555E+01 10640   0.226E+02-0.184E+02
CGA:  24    -0.127674676256E+04   -0.50163E+00   -0.52353E+00 10640   0.115E+02-0.116E+01
CGA:  25    -0.127728995783E+04   -0.54320E+00   -0.58539E+00 10640   0.184E+02-0.950E+00
CGA:  26    -0.127867482712E+04   -0.13849E+01   -0.14141E+01 10640   0.177E+02-0.396E+00
CGA:  27    -0.127932477861E+04   -0.64995E+00   -0.47621E+00 10640   0.768E+01 0.454E+01
CGA:  28    -0.127974781253E+04   -0.42303E+00   -0.38605E+00 10640   0.658E+01 0.679E-01
CGA:  29    -0.128015478684E+04   -0.40697E+00   -0.41204E+00 10640   0.100E+02-0.541E+00
CGA:  30    -0.128072887090E+04   -0.57408E+00   -0.57947E+00 10640   0.839E+01-0.781E+00
CGA:  31    -0.128113653777E+04   -0.40767E+00   -0.39712E+00 10640   0.376E+01-0.695E+00
CGA:  32    -0.128141856382E+04   -0.28203E+00   -0.27784E+00 10640   0.382E+01-0.459E+00
CGA:  33    -0.128184294924E+04   -0.42439E+00   -0.44372E+00 10640   0.482E+01-0.592E+00
CGA:  34    -0.128228760257E+04   -0.44465E+00   -0.45162E+00 10640   0.258E+01-0.613E+00
CGA:  35    -0.128251562518E+04   -0.22802E+00   -0.22960E+00 10640   0.142E+01-0.342E+00
CGA:  36    -0.128275013647E+04   -0.23451E+00   -0.27003E+00 10640   0.182E+01-0.276E+00
CGA:  37    -0.128297242663E+04   -0.22229E+00   -0.23294E+00 10640   0.793E+00-0.222E+00
CGA:  38    -0.128307957726E+04   -0.10715E+00   -0.11008E+00 10640   0.501E+00-0.569E-01
CGA:  39    -0.128316955004E+04   -0.89973E-01   -0.85269E-01 10640   0.331E+00 0.635E-01
CGA:  40    -0.128322197643E+04   -0.52426E-01   -0.50293E-01 10640   0.166E+00 0.951E-01
CGA:  41    -0.128325144436E+04   -0.29468E-01   -0.27944E-01 10640   0.108E+00 0.869E-01
CGA:  42    -0.128327213271E+04   -0.20688E-01   -0.18420E-01 10640   0.495E-01 0.404E-01
CGA:  43    -0.128328221535E+04   -0.10083E-01   -0.91789E-02 10640   0.363E-01 0.500E-01
CGA:  44    -0.128328625922E+04   -0.40439E-02   -0.41449E-02 10640   0.248E-01 0.271E-01
CGA:  45    -0.128328865614E+04   -0.23969E-02   -0.26444E-02 10640   0.212E-01 0.227E-01
CGA:  46    -0.128329033213E+04   -0.16760E-02   -0.20671E-02 10640   0.187E-01 0.198E-01
CGA:  47    -0.128329155383E+04   -0.12217E-02   -0.16805E-02 10640   0.167E-01 0.175E-01
CGA:  48    -0.128329245894E+04   -0.90511E-03   -0.13955E-02 10640   0.150E-01 0.158E-01
CGA:  49    -0.128329313657E+04   -0.67763E-03   -0.11781E-02 10640   0.137E-01 0.143E-01
CGA:  50    -0.128329364734E+04   -0.51078E-03   -0.10081E-02 10640   0.126E-01 0.131E-01
CGA:  51    -0.128329403379E+04   -0.38645E-03   -0.87267E-03 10640   0.116E-01 0.121E-01
CGA:  52    -0.128329432639E+04   -0.29260E-03   -0.76294E-03 10640   0.108E-01 0.112E-01
CGA:  53    -0.128329454740E+04   -0.22101E-03   -0.67281E-03 10640   0.101E-01 0.104E-01
CGA:  54    -0.128329471329E+04   -0.16589E-03   -0.59784E-03 10640   0.948E-02 0.977E-02
CGA:  55    -0.128329483639E+04   -0.12310E-03   -0.53478E-03 10640   0.894E-02 0.919E-02
CGA:  56    -0.128329492603E+04   -0.89644E-04   -0.48119E-03 10640   0.845E-02 0.868E-02
CGA:  57    -0.128329498938E+04   -0.63349E-04   -0.43525E-03 10640   0.802E-02 0.823E-02
CGA:  58    -0.128329503195E+04   -0.42572E-04   -0.39554E-03 10640   0.764E-02 0.782E-02
CGA:  59    -0.128329505806E+04   -0.26105E-04   -0.36097E-03 10640   0.729E-02 0.746E-02
CGA:  60    -0.128329507107E+04   -0.13016E-04   -0.33067E-03 10640   0.698E-02 0.713E-02
CGA:  61    -0.128329507368E+04   -0.26013E-05   -0.30395E-03 10640   0.669E-02 0.683E-02
CGA:  62    -0.128329506799E+04    0.56886E-05   -0.28027E-03 10640   0.643E-02 0.656E-02
CGA:  63    -0.128329505571E+04    0.12276E-04   -0.25916E-03 10640   0.620E-02 0.631E-02
CGA:  64    -0.128329503821E+04    0.17498E-04   -0.24026E-03 10640   0.598E-02 0.608E-02
CGA:  65    -0.128329501660E+04    0.21614E-04   -0.22327E-03 10640   0.578E-02 0.587E-02
CGA:  66    -0.128329499177E+04    0.24834E-04   -0.20794E-03 10640   0.559E-02 0.568E-02
CGA:  67    -0.128329496444E+04    0.27326E-04   -0.19405E-03 10640   0.542E-02 0.551E-02
CGA:  68    -0.128329493521E+04    0.29226E-04   -0.18143E-03 10640   0.526E-02 0.534E-02
CGA:  69    -0.128329490457E+04    0.30640E-04   -0.16992E-03 10640   0.512E-02 0.519E-02
CGA:  70    -0.128329487292E+04    0.31656E-04   -0.15940E-03 10640   0.498E-02 0.505E-02
CGA:  71    -0.128329484057E+04    0.32345E-04   -0.14975E-03 10640   0.485E-02 0.492E-02
CGA:  72    -0.128329480781E+04    0.32765E-04   -0.14089E-03 10640   0.474E-02 0.479E-02
CGA:  73    -0.128329477484E+04    0.32966E-04   -0.13272E-03 10640   0.463E-02 0.468E-02
CGA:  74    -0.128329474186E+04    0.32983E-04   -0.12519E-03 10640   0.452E-02 0.457E-02
CGA:  75    -0.128329470901E+04    0.32852E-04   -0.11822E-03 10640   0.442E-02 0.447E-02
CGA:  76    -0.128329467641E+04    0.32601E-04   -0.11176E-03 10640   0.433E-02 0.438E-02
CGA:  77    -0.128329464415E+04    0.32255E-04   -0.10576E-03 10640   0.425E-02 0.429E-02
CGA:  78    -0.128329461233E+04    0.31823E-04   -0.10018E-03 10640   0.417E-02 0.420E-02
CGA:  79    -0.128329458100E+04    0.31327E-04   -0.94983E-04 10640   0.409E-02 0.413E-02
CGA:  80    -0.128329455022E+04    0.30779E-04   -0.90136E-04 10640   0.402E-02 0.405E-02
CGA:  81    -0.128329452003E+04    0.30187E-04   -0.85608E-04 10640   0.395E-02 0.398E-02
CGA:  82    -0.128329449047E+04    0.29566E-04   -0.81372E-04 10640   0.388E-02 0.392E-02
CGA:  83    -0.128329446155E+04    0.28920E-04   -0.77405E-04 10640   0.382E-02 0.385E-02
CGA:  84    -0.128329443329E+04    0.28257E-04   -0.73683E-04 10640   0.377E-02 0.379E-02
CGA:  85    -0.128329440571E+04    0.27584E-04   -0.70189E-04 10640   0.371E-02 0.374E-02
CGA:  86    -0.128329437880E+04    0.26905E-04   -0.66903E-04 10640   0.366E-02 0.368E-02
CGA:  87    -0.128329435258E+04    0.26222E-04   -0.63812E-04 10640   0.361E-02 0.363E-02
CGA:  88    -0.128329432704E+04    0.25540E-04   -0.60899E-04 10640   0.356E-02 0.359E-02
CGA:  89    -0.128329430218E+04    0.24862E-04   -0.58151E-04 10640   0.352E-02 0.354E-02
CGA:  90    -0.128329427799E+04    0.24189E-04   -0.55558E-04 10640   0.348E-02 0.350E-02
CGA:  91    -0.128329425447E+04    0.23524E-04   -0.53108E-04 10640   0.344E-02 0.346E-02
CGA:  92    -0.128329423160E+04    0.22868E-04   -0.50791E-04 10640   0.340E-02 0.342E-02
CGA:  93    -0.128329420938E+04    0.22222E-04   -0.48598E-04 10640   0.336E-02 0.338E-02
CGA:  94    -0.128329418779E+04    0.21587E-04   -0.46522E-04 10640   0.332E-02 0.334E-02
CGA:  95    -0.128329416683E+04    0.20964E-04   -0.44553E-04 10640   0.329E-02 0.331E-02
CGA:  96    -0.128329414647E+04    0.20355E-04   -0.42685E-04 10640   0.326E-02 0.328E-02
CGA:  97    -0.128329412671E+04    0.19758E-04   -0.40912E-04 10640   0.323E-02 0.324E-02
CGA:  98    -0.128329410754E+04    0.19173E-04   -0.39227E-04 10640   0.320E-02 0.321E-02
CGA:  99    -0.128329408893E+04    0.18605E-04   -0.37626E-04 10640   0.317E-02 0.319E-02
CGA: 100    -0.128329407089E+04    0.18048E-04   -0.36103E-04 10640   0.315E-02 0.316E-02
CGA: 101    -0.128329405338E+04    0.17505E-04   -0.34653E-04 10640   0.312E-02 0.313E-02
CGA: 102    -0.128329403640E+04    0.16978E-04   -0.33273E-04 10640   0.310E-02 0.311E-02
CGA: 103    -0.128329401994E+04    0.16463E-04   -0.31957E-04 10640   0.307E-02 0.308E-02
CGA: 104    -0.128329400398E+04    0.15963E-04   -0.30703E-04 10640   0.305E-02 0.306E-02
CGA: 105    -0.128329398850E+04    0.15476E-04   -0.29506E-04 10640   0.303E-02 0.304E-02
CGA: 106    -0.128329397350E+04    0.15002E-04   -0.28364E-04 10640   0.301E-02 0.302E-02
CGA: 107    -0.128329395896E+04    0.14543E-04   -0.27274E-04 10640   0.299E-02 0.300E-02
CGA: 108    -0.128329394486E+04    0.14095E-04   -0.26232E-04 10640   0.297E-02 0.298E-02
CGA: 109    -0.128329393120E+04    0.13660E-04   -0.25236E-04 10640   0.295E-02 0.296E-02
CGA: 110    -0.128329391796E+04    0.13238E-04   -0.24284E-04 10640   0.293E-02 0.294E-02
CGA: 111    -0.128329390513E+04    0.12829E-04   -0.23373E-04 10640   0.292E-02 0.292E-02
CGA: 112    -0.128329389270E+04    0.12431E-04   -0.22502E-04 10640   0.290E-02 0.291E-02
CGA: 113    -0.128329388066E+04    0.12046E-04   -0.21667E-04 10640   0.288E-02 0.289E-02
CGA: 114    -0.128329386899E+04    0.11671E-04   -0.20868E-04 10640   0.287E-02 0.288E-02
CGA: 115    -0.128329385768E+04    0.11308E-04   -0.20102E-04 10640   0.285E-02 0.286E-02
CGA: 116    -0.128329384672E+04    0.10955E-04   -0.19368E-04 10640   0.284E-02 0.285E-02
CGA: 117    -0.128329383611E+04    0.10614E-04   -0.18664E-04 10640   0.283E-02 0.283E-02
CGA: 118    -0.128329382583E+04    0.10283E-04   -0.17990E-04 10640   0.281E-02 0.282E-02
CGA: 119    -0.128329381586E+04    0.99608E-05   -0.17342E-04 10640   0.280E-02 0.281E-02
CGA: 120    -0.128329380621E+04    0.96502E-05   -0.16720E-04 10640   0.279E-02 0.280E-02
CGA: 121    -0.128329379687E+04    0.93482E-05   -0.16124E-04 10640   0.278E-02 0.278E-02
CGA: 122    -0.128329378781E+04    0.90556E-05   -0.15551E-04 10640   0.277E-02 0.277E-02
CGA: 123    -0.128329377904E+04    0.87718E-05   -0.15001E-04 10640   0.276E-02 0.276E-02
CGA: 124    -0.128329377054E+04    0.84971E-05   -0.14472E-04 10640   0.275E-02 0.275E-02
CGA: 125    -0.128329376231E+04    0.82303E-05   -0.13964E-04 10640   0.274E-02 0.274E-02
CGA: 126    -0.128329375434E+04    0.79726E-05   -0.13475E-04 10640   0.273E-02 0.273E-02
CGA: 127    -0.128329374662E+04    0.77218E-05   -0.13006E-04 10640   0.272E-02 0.272E-02
CGA: 128    -0.128329373914E+04    0.74811E-05   -0.12554E-04 10640   0.271E-02 0.271E-02
CGA: 129    -0.128329373189E+04    0.72446E-05   -0.12119E-04 10640   0.270E-02 0.271E-02
CGA: 130    -0.128329372487E+04    0.70184E-05   -0.11701E-04 10640   0.269E-02 0.270E-02
CGA: 131    -0.128329371807E+04    0.67978E-05   -0.11298E-04 10640   0.268E-02 0.269E-02
CGA: 132    -0.128329371149E+04    0.65842E-05   -0.10911E-04 10640   0.268E-02 0.268E-02
CGA: 133    -0.128329370511E+04    0.63779E-05   -0.10538E-04 10640   0.267E-02 0.267E-02
CGA: 134    -0.128329369894E+04    0.61774E-05   -0.10178E-04 10640   0.266E-02 0.267E-02
   1 F= -.12832937E+04 E0= -.12832937E+04  d E =-.128329E+04  mag=    47.0000
       N       E                     dE             d eps       ncg     rms          ort
SDA:   1    -0.128329077311E+04    0.29320E-02    0.00000E+00 10640   0.132E-01 0.000E+00
CGA:   2    -0.128329157776E+04   -0.80465E-03   -0.49575E-03 10640   0.907E-02 0.110E-01
CGA:   3    -0.128329203341E+04   -0.45566E-03   -0.28680E-03 10640   0.716E-02 0.809E-02
CGA:   4    -0.128329234676E+04   -0.31335E-03   -0.20362E-03 10640   0.602E-02 0.659E-02
CGA:   5    -0.128329258273E+04   -0.23597E-03   -0.15863E-03 10640   0.525E-02 0.564E-02
CGA:   6    -0.128329276982E+04   -0.18709E-03   -0.13012E-03 10640   0.469E-02 0.497E-02
CGA:   7    -0.128329292306E+04   -0.15324E-03   -0.11023E-03 10640   0.425E-02 0.447E-02
CGA:   8    -0.128329305135E+04   -0.12830E-03   -0.95421E-04 10640   0.390E-02 0.407E-02
CGA:   9    -0.128329316047E+04   -0.10912E-03   -0.83888E-04 10640   0.362E-02 0.375E-02
CGA:  10    -0.128329325437E+04   -0.93900E-04   -0.74608E-04 10640   0.337E-02 0.349E-02
CGA:  11    -0.128329333592E+04   -0.81546E-04   -0.66958E-04 10640   0.316E-02 0.326E-02
CGA:  12    -0.128329340725E+04   -0.71335E-04   -0.60530E-04 10640   0.298E-02 0.307E-02
CGA:  13    -0.128329347003E+04   -0.62779E-04   -0.55051E-04 10640   0.283E-02 0.290E-02
CGA:  14    -0.128329352556E+04   -0.55526E-04   -0.50324E-04 10640   0.269E-02 0.275E-02
CGA:  15    -0.128329357488E+04   -0.49326E-04   -0.46206E-04 10640   0.256E-02 0.262E-02
CGA:  16    -0.128329361886E+04   -0.43982E-04   -0.42590E-04 10640   0.245E-02 0.250E-02
CGA:  17    -0.128329365821E+04   -0.39348E-04   -0.39391E-04 10640   0.235E-02 0.239E-02
CGA:  18    -0.128329369352E+04   -0.35305E-04   -0.36544E-04 10640   0.226E-02 0.230E-02
CGA:  19    -0.128329372528E+04   -0.31762E-04   -0.33997E-04 10640   0.217E-02 0.221E-02
CGA:  20    -0.128329375392E+04   -0.28643E-04   -0.31708E-04 10640   0.210E-02 0.213E-02
CGA:  21    -0.128329377981E+04   -0.25889E-04   -0.29641E-04 10640   0.203E-02 0.206E-02
CGA:  22    -0.128329380326E+04   -0.23447E-04   -0.27769E-04 10640   0.196E-02 0.199E-02
CGA:  23    -0.128329382453E+04   -0.21275E-04   -0.26065E-04 10640   0.191E-02 0.193E-02
CGA:  24    -0.128329384387E+04   -0.19340E-04   -0.24512E-04 10640   0.185E-02 0.188E-02
CGA:  25    -0.128329386148E+04   -0.17607E-04   -0.23090E-04 10640   0.180E-02 0.182E-02
CGA:  26    -0.128329387754E+04   -0.16057E-04   -0.21787E-04 10640   0.175E-02 0.177E-02
CGA:  27    -0.128329389220E+04   -0.14663E-04   -0.20588E-04 10640   0.171E-02 0.173E-02
CGA:  28    -0.128329390561E+04   -0.13411E-04   -0.19483E-04 10640   0.167E-02 0.169E-02
CGA:  29    -0.128329391789E+04   -0.12280E-04   -0.18461E-04 10640   0.163E-02 0.165E-02
CGA:  30    -0.128329392915E+04   -0.11260E-04   -0.17515E-04 10640   0.159E-02 0.161E-02
CGA:  31    -0.128329393949E+04   -0.10336E-04   -0.16638E-04 10640   0.156E-02 0.158E-02
CGA:  32    -0.128329394899E+04   -0.94992E-05   -0.15822E-04 10640   0.153E-02 0.154E-02
CGA:  33    -0.128329395773E+04   -0.87400E-05   -0.15063E-04 10640   0.150E-02 0.151E-02
CGA:  34    -0.128329396578E+04   -0.80501E-05   -0.14355E-04 10640   0.147E-02 0.148E-02
CGA:  35    -0.128329397320E+04   -0.74216E-05   -0.13693E-04 10640   0.144E-02 0.146E-02
CGA:  36    -0.128329398005E+04   -0.68497E-05   -0.13074E-04 10640   0.142E-02 0.143E-02
CGA:  37    -0.128329398638E+04   -0.63273E-05   -0.12494E-04 10640   0.140E-02 0.141E-02
CGA:  38    -0.128329399223E+04   -0.58498E-05   -0.11949E-04 10640   0.137E-02 0.138E-02
CGA:  39    -0.128329399764E+04   -0.54146E-05   -0.11438E-04 10640   0.135E-02 0.136E-02
CGA:  40    -0.128329400265E+04   -0.50143E-05   -0.10956E-04 10640   0.133E-02 0.134E-02
CGA:  41    -0.128329400730E+04   -0.46486E-05   -0.10502E-04 10640   0.131E-02 0.132E-02
CGA:  42    -0.128329401162E+04   -0.43129E-05   -0.10074E-04 10640   0.130E-02 0.131E-02
   2 F= -.12832940E+04 E0= -.12832940E+04  d E =-.312681E-03  mag=    47.0000
       N       E                     dE             d eps       ncg     rms          ort
SDA:   1    -0.128329100932E+04    0.29980E-02    0.00000E+00 10640   0.211E-01 0.000E+00
CGA:   2    -0.128329362939E+04   -0.26201E-02   -0.27025E-02 10640   0.109E-01 0.144E-01
CGA:   3    -0.128329597822E+04   -0.23488E-02   -0.20288E-02 10640   0.523E-02 0.705E-02
CGA:   4    -0.128329730758E+04   -0.13294E-02   -0.87108E-03 10640   0.257E-02 0.358E-02
CGA:   5    -0.128329779808E+04   -0.49050E-03   -0.32521E-03 10640   0.164E-02 0.203E-02
CGA:   6    -0.128329803784E+04   -0.23975E-03   -0.16668E-03 10640   0.120E-02 0.139E-02
CGA:   7    -0.128329818153E+04   -0.14370E-03   -0.10543E-03 10640   0.944E-03 0.106E-02
CGA:   8    -0.128329827661E+04   -0.95081E-04   -0.73922E-04 10640   0.782E-03 0.855E-03
CGA:   9    -0.128329834460E+04   -0.67991E-04   -0.55930E-04 10640   0.672E-03 0.722E-03
CGA:  10    -0.128329839616E+04   -0.51554E-04   -0.44706E-04 10640   0.593E-03 0.629E-03
CGA:  11    -0.128329843712E+04   -0.40965E-04   -0.37254E-04 10640   0.534E-03 0.562E-03
CGA:  12    -0.128329847095E+04   -0.33823E-04   -0.32064E-04 10640   0.490E-03 0.511E-03
CGA:  13    -0.128329849979E+04   -0.28841E-04   -0.28316E-04 10640   0.454E-03 0.471E-03
CGA:  14    -0.128329852506E+04   -0.25274E-04   -0.25532E-04 10640   0.426E-03 0.440E-03
CGA:  15    -0.128329854773E+04   -0.22670E-04   -0.23416E-04 10640   0.403E-03 0.414E-03
CGA:  16    -0.128329856848E+04   -0.20745E-04   -0.21779E-04 10640   0.384E-03 0.393E-03
CGA:  17    -0.128329858779E+04   -0.19308E-04   -0.20492E-04 10640   0.368E-03 0.376E-03
CGA:  18    -0.128329860602E+04   -0.18234E-04   -0.19471E-04 10640   0.354E-03 0.361E-03
CGA:  19    -0.128329862345E+04   -0.17433E-04   -0.18653E-04 10640   0.342E-03 0.348E-03
CGA:  20    -0.128329864030E+04   -0.16844E-04   -0.17995E-04 10640   0.332E-03 0.337E-03
CGA:  21    -0.128329865671E+04   -0.16418E-04   -0.17463E-04 10640   0.322E-03 0.327E-03
CGA:  22    -0.128329867284E+04   -0.16127E-04   -0.17034E-04 10640   0.314E-03 0.318E-03
CGA:  23    -0.128329868878E+04   -0.15937E-04   -0.16686E-04 10640   0.306E-03 0.310E-03
CGA:  24    -0.128329870461E+04   -0.15837E-04   -0.16409E-04 10640   0.299E-03 0.303E-03
CGA:  25    -0.128329872042E+04   -0.15807E-04   -0.16189E-04 10640   0.293E-03 0.296E-03
CGA:  26    -0.128329873626E+04   -0.15839E-04   -0.16020E-04 10640   0.287E-03 0.290E-03
CGA:  27    -0.128329875218E+04   -0.15923E-04   -0.15892E-04 10640   0.281E-03 0.284E-03
CGA:  28    -0.128329876824E+04   -0.16053E-04   -0.15802E-04 10640   0.276E-03 0.279E-03
CGA:  29    -0.128329878446E+04   -0.16221E-04   -0.15744E-04 10640   0.271E-03 0.274E-03
CGA:  30    -0.128329880088E+04   -0.16425E-04   -0.15717E-04 10640   0.266E-03 0.268E-03
CGA:  31    -0.128329881755E+04   -0.16665E-04   -0.15716E-04 10640   0.261E-03 0.264E-03
CGA:  32    -0.128329883448E+04   -0.16934E-04   -0.15741E-04 10640   0.256E-03 0.259E-03
CGA:  33    -0.128329885172E+04   -0.17235E-04   -0.15791E-04 10640   0.252E-03 0.254E-03
CGA:  34    -0.128329886928E+04   -0.17568E-04   -0.15864E-04 10640   0.247E-03 0.249E-03
CGA:  35    -0.128329888721E+04   -0.17927E-04   -0.15958E-04 10640   0.243E-03 0.245E-03
CGA:  36    -0.128329890553E+04   -0.18318E-04   -0.16076E-04 10640   0.238E-03 0.240E-03
CGA:  37    -0.128329892427E+04   -0.18745E-04   -0.16218E-04 10640   0.234E-03 0.236E-03
CGA:  38    -0.128329894348E+04   -0.19204E-04   -0.16384E-04 10640   0.229E-03 0.231E-03
CGA:  39    -0.128329896318E+04   -0.19702E-04   -0.16575E-04 10640   0.225E-03 0.227E-03
CGA:  40    -0.128329898342E+04   -0.20241E-04   -0.16793E-04 10640   0.220E-03 0.222E-03
CGA:  41    -0.128329900425E+04   -0.20827E-04   -0.17040E-04 10640   0.216E-03 0.218E-03
CGA:  42    -0.128329902571E+04   -0.21462E-04   -0.17318E-04 10640   0.211E-03 0.213E-03
CGA:  43    -0.128329904787E+04   -0.22160E-04   -0.17635E-04 10640   0.207E-03 0.209E-03
CGA:  44    -0.128329907079E+04   -0.22922E-04   -0.17988E-04 10640   0.202E-03 0.204E-03
CGA:  45    -0.128329909455E+04   -0.23758E-04   -0.18387E-04 10640   0.197E-03 0.200E-03
CGA:  46    -0.128329911923E+04   -0.24685E-04   -0.18836E-04 10640   0.193E-03 0.195E-03
CGA:  47    -0.128329914494E+04   -0.25707E-04   -0.19339E-04 10640   0.188E-03 0.190E-03
CGA:  48    -0.128329917180E+04   -0.26856E-04   -0.19914E-04 10640   0.183E-03 0.185E-03
CGA:  49    -0.128329919994E+04   -0.28140E-04   -0.20562E-04 10640   0.178E-03 0.180E-03
CGA:  50    -0.128329922953E+04   -0.29592E-04   -0.21303E-04 10640   0.172E-03 0.175E-03
CGA:  51    -0.128329926077E+04   -0.31246E-04   -0.22154E-04 10640   0.167E-03 0.170E-03
CGA:  52    -0.128329929392E+04   -0.33144E-04   -0.23136E-04 10640   0.161E-03 0.164E-03
CGA:  53    -0.128329932927E+04   -0.35346E-04   -0.24280E-04 10640   0.156E-03 0.159E-03
CGA:  54    -0.128329936720E+04   -0.37937E-04   -0.25631E-04 10640   0.150E-03 0.153E-03
CGA:  55    -0.128329940822E+04   -0.41019E-04   -0.27240E-04 10640   0.143E-03 0.146E-03
CGA:  56    -0.128329945297E+04   -0.44748E-04   -0.29191E-04 10640   0.136E-03 0.140E-03
CGA:  57    -0.128329950234E+04   -0.49373E-04   -0.31614E-04 10640   0.129E-03 0.132E-03
CGA:  58    -0.128329955762E+04   -0.55275E-04   -0.34707E-04 10640   0.121E-03 0.125E-03
CGA:  59    -0.128329962068E+04   -0.63061E-04   -0.38792E-04 10640   0.112E-03 0.116E-03
CGA:  60    -0.128329969460E+04   -0.73919E-04   -0.44506E-04 10640   0.102E-03 0.107E-03
CGA:  61    -0.128329978486E+04   -0.90260E-04   -0.53162E-04 10640   0.901E-04 0.958E-04
CGA:  62    -0.128329990309E+04   -0.11823E-03   -0.68206E-04 10640   0.753E-04 0.824E-04
CGA:  63    -0.128330006425E+04   -0.16116E-03   -0.55960E-03 10640   0.565E-04 0.652E-04
CGA:  64    -0.128330028439E+04   -0.22014E-03   -0.40903E-03 10640   0.330E-04 0.430E-04
CGA:  65    -0.128330047421E+04   -0.18982E-03   -0.64409E-04 10640   0.846E-04 0.138E-04
CGA:  66    -0.128330050164E+04   -0.27429E-04   -0.42595E-04 10640   0.398E-03 0.657E-05
CGA:  67    -0.128329943824E+04    0.10634E-02   -0.28379E-04 10640   0.569E-02 0.516E-03
CGA:  68    -0.128327545967E+04    0.23979E-01   -0.70752E-03 10640   0.151E+00 0.111E-01
CGA:  69    -0.128300510684E+04    0.27035E+00   -0.25172E-01 10640   0.156E+01 0.110E+00
CGA:  70    -0.127784643140E+04    0.51587E+01   -0.19871E+00 10640   0.497E+02 0.279E+01
CGA:  71    -0.127014709088E+04    0.76993E+01   -0.14841E+02 10640   0.616E+02 0.444E+01
CGA:  72    -0.121171069249E+04    0.58436E+02   -0.11607E+02 10640   0.408E+03 0.330E+02
CGA:  73    -0.122760799494E+04   -0.15897E+02   -0.15949E+03 10640   0.190E+03 0.358E+02
CGA:  74    -0.117323549684E+04    0.54372E+02   -0.49462E+02 10640   0.487E+03 0.596E+02
CGA:  75    -0.118277650920E+04   -0.95410E+01   -0.15030E+03 10640   0.258E+03 0.590E+02
CGA:  76    -0.113275293446E+04    0.50024E+02   -0.43005E+02 10640   0.810E+03 0.809E+01
CGA:  77    -0.991386451472E+03    0.14137E+03   -0.13317E+03 10640   0.113E+04-0.126E+03
CGA:  78    -0.789517924294E+03    0.20187E+03   -0.91731E+02 10640   0.113E+04 0.320E+03
CGA:  79    -0.818818308647E+03   -0.29300E+02   -0.30811E+03 10640   0.157E+04-0.193E+03
CGA:  80    -0.447115557657E+03    0.37170E+03   -0.10130E+03 10640   0.154E+04 0.309E+03
CGA:  81    -0.537928373906E+03   -0.90813E+02   -0.34158E+03 10640   0.213E+04 0.526E+01
CGA:  82    -0.164609637500E+03    0.37332E+03   -0.29356E+03 10640   0.361E+04-0.113E+04
CGA:  83    -0.663377293689E+03   -0.49877E+03   -0.63049E+03 10640   0.240E+04 0.110E+03
CGA:  84    -0.847578379562E+03   -0.18420E+03   -0.15066E+03 10640   0.108E+04 0.125E+04
CGA:  85    -0.903718250987E+03   -0.56140E+02   -0.14642E+03 10640   0.165E+04-0.375E+03
CGA:  86    -0.962075111067E+03   -0.58357E+02   -0.56405E+02 10640   0.539E+03 0.822E+02
CGA:  87    -0.997092178909E+03   -0.35017E+02   -0.95308E+02 10640   0.118E+04-0.884E+02
CGA:  88    -0.965019416526E+03    0.32073E+02   -0.83228E+02 10640   0.500E+03 0.161E+03
CGA:  89    -0.102256983745E+04   -0.57550E+02   -0.44031E+02 10640   0.390E+03 0.189E+03
CGA:  90    -0.104077512345E+04   -0.18205E+02   -0.82920E+02 10640   0.714E+03-0.663E+02
CGA:  91    -0.100165746513E+04    0.39118E+02   -0.64844E+02 10640   0.647E+03-0.865E+02
CGA:  92    -0.101111077461E+04   -0.94533E+01   -0.65166E+02 10640   0.565E+03-0.224E+02
CGA:  93    -0.101405465687E+04   -0.29439E+01   -0.55151E+02 10640   0.410E+03 0.176E+01
CGA:  94    -0.103990065430E+04   -0.25846E+02   -0.43771E+02 10640   0.391E+03 0.132E+03
CGA:  95    -0.103602793861E+04    0.38727E+01   -0.68820E+02 10640   0.871E+03-0.576E+02
CGA:  96    -0.935223720375E+03    0.10080E+03   -0.55459E+02 10640   0.649E+03-0.952E+02
CGA:  97    -0.985293191338E+03   -0.50069E+02   -0.55579E+02 10640   0.482E+03 0.191E+03
CGA:  98    -0.991010719879E+03   -0.57175E+01   -0.62952E+02 10640   0.951E+03-0.933E+02
CGA:  99    -0.804931726580E+03    0.18608E+03   -0.58225E+02 10640   0.953E+03 0.271E+03
CGA: 100    -0.834048548828E+03   -0.29117E+02   -0.13468E+03 10640   0.102E+04 0.546E+03
CGA: 101    -0.936718394378E+03   -0.10267E+03   -0.14072E+03 10640   0.145E+04-0.113E+03
CGA: 102    -0.102428697226E+04   -0.87569E+02   -0.85850E+02 10640   0.624E+03 0.488E+01
CGA: 103    -0.106678343441E+04   -0.42496E+02   -0.58717E+02 10640   0.106E+04-0.159E+03
CGA: 104    -0.109677794903E+04   -0.29995E+02   -0.71394E+02 10640   0.599E+03 0.117E+03
CGA: 105    -0.110429536206E+04   -0.75174E+01   -0.43289E+02 10640   0.945E+03-0.362E+03
CGA: 106    -0.109161277552E+04    0.12683E+02   -0.81511E+02 10640   0.847E+03-0.353E+03
CGA: 107    -0.113165935644E+04   -0.40047E+02   -0.16653E+02 10640   0.719E+03 0.944E+03
CGA: 108    -0.112827378095E+04    0.33856E+01   -0.34886E+02 10640   0.996E+03-0.641E+03
CGA: 109    -0.111281175974E+04    0.15462E+02   -0.59121E+02 10640   0.809E+03-0.484E+03
CGA: 110    -0.115286165424E+04   -0.40050E+02   -0.99331E+01 10640   0.108E+04 0.145E+04
CGA: 111    -0.113291270030E+04    0.19949E+02   -0.56979E+02 10640   0.109E+04-0.585E+03
CGA: 112    -0.112466956810E+04    0.82431E+01   -0.54003E+02 10640   0.852E+03-0.639E+03
CGA: 113    -0.117965103266E+04   -0.54981E+02   -0.23644E+02 10640   0.557E+03-0.118E+04
CGA: 114    -0.114813847019E+04    0.31513E+02   -0.35330E+02 10640   0.118E+04-0.380E+03
CGA: 115    -0.115442226238E+04   -0.62838E+01   -0.49094E+02 10640   0.113E+04-0.105E+04
CGA: 116    -0.114038614842E+04    0.14036E+02   -0.59270E+02 10640   0.836E+03-0.609E+03
CGA: 117    -0.120166155838E+04   -0.61275E+02   -0.25239E+02 10640   0.192E+03-0.629E+03
CGA: 118    -0.120012897005E+04    0.15326E+01   -0.87099E+01 10640   0.437E+03-0.205E+03
CGA: 119    -0.119254496198E+04    0.75840E+01   -0.20692E+02 10640   0.843E+03-0.430E+03
CGA: 120    -0.117293357638E+04    0.19611E+02   -0.44533E+02 10640   0.981E+03-0.565E+03
CGA: 121    -0.117703387519E+04   -0.41003E+01   -0.43476E+02 10640   0.105E+04-0.983E+03
CGA: 122    -0.117431249414E+04    0.27214E+01   -0.50418E+02 10640   0.924E+03-0.793E+03
CGA: 123    -0.119418811614E+04   -0.19876E+02   -0.37501E+02 10640   0.102E+04-0.123E+04
CGA: 124    -0.118940845682E+04    0.47797E+01   -0.47369E+02 10640   0.944E+03-0.779E+03
CGA: 125    -0.120253828514E+04   -0.13130E+02   -0.38233E+02 10640   0.907E+03-0.103E+04
CGA: 126    -0.120388402672E+04   -0.13457E+01   -0.39551E+02 10640   0.817E+03-0.747E+03
CGA: 127    -0.121511017940E+04   -0.11226E+02   -0.31567E+02 10640   0.642E+03-0.767E+03
CGA: 128    -0.121994145902E+04   -0.48313E+01   -0.25282E+02 10640   0.445E+03-0.451E+03
CGA: 129    -0.122863943836E+04   -0.86980E+01   -0.14915E+02 10640   0.207E+03-0.295E+03
CGA: 130    -0.123196999857E+04   -0.33306E+01   -0.68814E+01 10640   0.102E+03-0.984E+02
CGA: 131    -0.123733189165E+04   -0.53619E+01   -0.57475E+01 10640   0.167E+03-0.271E+02
CGA: 132    -0.124451640079E+04   -0.71845E+01   -0.84677E+01 10640   0.133E+03-0.581E+01
CGA: 133    -0.125052701606E+04   -0.60106E+01   -0.68018E+01 10640   0.909E+02-0.272E+02
CGA: 134    -0.125467572864E+04   -0.41487E+01   -0.40414E+01 10640   0.765E+02-0.527E+01
CGA: 135    -0.125807006355E+04   -0.33943E+01   -0.35984E+01 10640   0.564E+02-0.313E+01
CGA: 136    -0.126094861879E+04   -0.28786E+01   -0.33579E+01 10640   0.691E+02 0.887E+00
CGA: 137    -0.126437988807E+04   -0.34313E+01   -0.38045E+01 10640   0.378E+02-0.213E+01
CGA: 138    -0.126635019477E+04   -0.19703E+01   -0.20459E+01 10640   0.198E+02 0.655E+00
CGA: 139    -0.126752545922E+04   -0.11753E+01   -0.11836E+01 10640   0.145E+02 0.233E+00
CGA: 140    -0.126913931258E+04   -0.16139E+01   -0.15426E+01 10640   0.179E+02 0.258E+01
CGA: 141    -0.127062667770E+04   -0.14874E+01   -0.14930E+01 10640   0.149E+02 0.659E-01
CGA: 142    -0.127233497426E+04   -0.17083E+01   -0.16085E+01 10640   0.659E+01 0.287E+01
CGA: 143    -0.127293247288E+04   -0.59750E+00   -0.60409E+00 10640   0.580E+01 0.240E+00
CGA: 144    -0.127412310481E+04   -0.11906E+01   -0.22807E+01 10640   0.431E+02-0.428E+01
CGA: 145    -0.127539824591E+04   -0.12751E+01   -0.18996E+01 10640   0.396E+01-0.510E+01
CGA: 146    -0.127573656850E+04   -0.33832E+00   -0.33829E+00 10640   0.238E+01-0.392E-01
CGA: 147    -0.127650385620E+04   -0.76729E+00   -0.68918E+00 10640   0.564E+01 0.330E+00
CGA: 148    -0.127744530639E+04   -0.94145E+00   -0.14133E+01 10640   0.150E+02-0.304E+01
CGA: 149    -0.127816646701E+04   -0.72116E+00   -0.73054E+00 10640   0.184E+01-0.264E+00
CGA: 150    -0.127861085387E+04   -0.44439E+00   -0.45114E+00 10640   0.145E+01-0.543E-01
CGA: 151    -0.127884949535E+04   -0.23864E+00   -0.24525E+00 10640   0.230E+01-0.126E+00
CGA: 152    -0.127930964567E+04   -0.46015E+00   -0.70084E+00 10640   0.926E+01-0.111E+01
CGA: 153    -0.127953876645E+04   -0.22912E+00   -0.21508E+00 10640   0.736E+01-0.560E+00
CGA: 154    -0.127983538712E+04   -0.29662E+00   -0.30835E+00 10640   0.303E+01-0.712E+00
CGA: 155    -0.128002460928E+04   -0.18922E+00   -0.18403E+00 10640   0.305E+01-0.125E+00
CGA: 156    -0.128026509415E+04   -0.24048E+00   -0.23287E+00 10640   0.312E+01-0.159E+00
CGA: 157    -0.128047610592E+04   -0.21101E+00   -0.20178E+00 10640   0.256E+01-0.171E+00
CGA: 158    -0.128063617088E+04   -0.16006E+00   -0.15218E+00 10640   0.173E+01-0.166E+00
CGA: 159    -0.128074759204E+04   -0.11142E+00   -0.10545E+00 10640   0.142E+01-0.141E+00
CGA: 160    -0.128088391478E+04   -0.13632E+00   -0.13494E+00 10640   0.234E+01-0.205E+00
CGA: 161    -0.128106367342E+04   -0.17976E+00   -0.17152E+00 10640   0.243E+01-0.274E+00
CGA: 162    -0.128119882987E+04   -0.13516E+00   -0.12305E+00 10640   0.172E+01-0.135E+00
CGA: 163    -0.128130988930E+04   -0.11106E+00   -0.10469E+00 10640   0.162E+01-0.103E+00
CGA: 164    -0.128141676282E+04   -0.10687E+00   -0.10191E+00 10640   0.169E+01-0.917E-01
CGA: 165    -0.128152649225E+04   -0.10973E+00   -0.10573E+00 10640   0.180E+01-0.928E-01
CGA: 166    -0.128164184963E+04   -0.11536E+00   -0.11094E+00 10640   0.174E+01-0.102E+00
CGA: 167    -0.128173990380E+04   -0.98054E-01   -0.93354E-01 10640   0.131E+01-0.894E-01
CGA: 168    -0.128181483778E+04   -0.74934E-01   -0.71549E-01 10640   0.107E+01-0.808E-01
CGA: 169    -0.128188902683E+04   -0.74189E-01   -0.71858E-01 10640   0.123E+01-0.898E-01
CGA: 170    -0.128197265191E+04   -0.83625E-01   -0.80908E-01 10640   0.136E+01-0.901E-01
CGA: 171    -0.128204819547E+04   -0.75544E-01   -0.72365E-01 10640   0.114E+01-0.419E-01
CGA: 172    -0.128210899152E+04   -0.60796E-01   -0.58788E-01 10640   0.930E+00-0.129E-01
CGA: 173    -0.128216356822E+04   -0.54577E-01   -0.53328E-01 10640   0.944E+00-0.113E-01
CGA: 174    -0.128222276260E+04   -0.59194E-01   -0.58194E-01 10640   0.110E+01-0.140E-01
CGA: 175    -0.128228803009E+04   -0.65267E-01   -0.64455E-01 10640   0.115E+01-0.593E-02
CGA: 176    -0.128235000142E+04   -0.61971E-01   -0.61444E-01 10640   0.973E+00 0.771E-02
CGA: 177    -0.128239977978E+04   -0.49778E-01   -0.49569E-01 10640   0.760E+00 0.135E-01
CGA: 178    -0.128244067423E+04   -0.40894E-01   -0.40818E-01 10640   0.677E+00 0.130E-01
SDA: 179    -0.128248050770E+04   -0.39833E-01   -0.39832E-01 10640   0.723E+00 0.158E-01
CGA: 180    -0.128273899995E+04   -0.25849E+00   -0.28357E+00 10640   0.110E+01-0.803E-01
CGA: 181    -0.128305362530E+04   -0.31463E+00   -0.36899E+00 10640   0.496E+00-0.175E+00
CGA: 182    -0.128313839366E+04   -0.84768E-01   -0.85261E-01 10640   0.196E+00-0.778E-03
CGA: 183    -0.128318663200E+04   -0.48238E-01   -0.47522E-01 10640   0.791E-01 0.657E-02
CGA: 184    -0.128320477247E+04   -0.18140E-01   -0.18072E-01 10640   0.363E-01 0.103E-02
CGA: 185    -0.128321532059E+04   -0.10548E-01   -0.11884E-01 10640   0.312E-01-0.655E-02
CGA: 186    -0.128322355281E+04   -0.82322E-02   -0.99782E-02 10640   0.348E-01-0.648E-02
CGA: 187    -0.128322996883E+04   -0.64160E-02   -0.63777E-02 10640   0.211E-01 0.912E-03
CGA: 188    -0.128323621343E+04   -0.62446E-02   -0.61881E-02 10640   0.227E-01 0.583E-03
CGA: 189    -0.128324396940E+04   -0.77560E-02   -0.81641E-02 10640   0.247E-01-0.203E-02
CGA: 190    -0.128325002740E+04   -0.60580E-02   -0.58678E-02 10640   0.265E-01 0.220E-02
CGA: 191    -0.128325997915E+04   -0.99518E-02   -0.94938E-02 10640   0.324E-01 0.312E-02
CGA: 192    -0.128327012853E+04   -0.10149E-01   -0.10312E-01 10640   0.279E-01-0.217E-02
CGA: 193    -0.128327743929E+04   -0.73108E-02   -0.75315E-02 10640   0.282E-01-0.266E-02
CGA: 194    -0.128328288838E+04   -0.54491E-02   -0.54124E-02 10640   0.210E-01 0.125E-02
CGA: 195    -0.128328777035E+04   -0.48820E-02   -0.48322E-02 10640   0.165E-01 0.126E-02
CGA: 196    -0.128329191711E+04   -0.41468E-02   -0.42135E-02 10640   0.986E-02-0.177E-02
CGA: 197    -0.128329372584E+04   -0.18087E-02   -0.18067E-02 10640   0.778E-02 0.129E-03
CGA: 198    -0.128329542046E+04   -0.16946E-02   -0.16684E-02 10640   0.590E-02 0.168E-02
CGA: 199    -0.128329673841E+04   -0.13179E-02   -0.13315E-02 10640   0.312E-02 0.117E-02
CGA: 200    -0.128329762802E+04   -0.88961E-03   -0.86544E-03 10640   0.274E-02 0.684E-03
   3 F= -.12832976E+04 E0= -.12832976E+04  d E =-.361640E-02  mag=    47.0000
       N       E                     dE             d eps       ncg     rms          ort
SDA:   1    -0.123921149788E+04    0.44085E+02    0.00000E+00 10640   0.144E+03 0.000E+00
CGA:   2    -0.126653751818E+04   -0.27326E+02   -0.27329E+02 10640   0.547E+02 0.270E+00
CGA:   3    -0.127936010075E+04   -0.12823E+02   -0.12804E+02 10640   0.190E+02 0.305E+00
CGA:   4    -0.128205500817E+04   -0.26949E+01   -0.26756E+01 10640   0.316E+01 0.702E-01
CGA:   5    -0.128260490351E+04   -0.54990E+00   -0.55095E+00 10640   0.883E+00 0.208E-01
CGA:   6    -0.128277378884E+04   -0.16889E+00   -0.16886E+00 10640   0.260E+00 0.109E-02
CGA:   7    -0.128283070391E+04   -0.56915E-01   -0.57152E-01 10640   0.949E-01-0.985E-02
CGA:   8    -0.128284770831E+04   -0.17004E-01   -0.16992E-01 10640   0.366E-01-0.674E-03
CGA:   9    -0.128285799431E+04   -0.10286E-01   -0.10791E-01 10640   0.262E-01-0.493E-02
CGA:  10    -0.128286298802E+04   -0.49937E-02   -0.50083E-02 10640   0.145E-01-0.647E-03
CGA:  11    -0.128286732082E+04   -0.43328E-02   -0.48357E-02 10640   0.126E-01-0.355E-02
CGA:  12    -0.128286968216E+04   -0.23613E-02   -0.24414E-02 10640   0.961E-02-0.162E-02
CGA:  13    -0.128287236911E+04   -0.26869E-02   -0.41784E-02 10640   0.177E-01-0.521E-02
CGA:  14    -0.128287454151E+04   -0.21724E-02   -0.23462E-02 10640   0.602E-02 0.199E-02
CGA:  15    -0.128287614423E+04   -0.16027E-02   -0.15907E-02 10640   0.253E-02 0.702E-03
CGA:  16    -0.128287723051E+04   -0.10863E-02   -0.97493E-03 10640   0.205E-02 0.893E-03
CGA:  17    -0.128287777543E+04   -0.54492E-03   -0.56846E-03 10640   0.113E-02 0.103E-02
CGA:  18    -0.128287813811E+04   -0.36268E-03   -0.61262E-03 10640   0.630E-02-0.800E-03
CGA:  19    -0.128287856549E+04   -0.42737E-03   -0.53976E-03 10640   0.570E-03 0.771E-03
CGA:  20    -0.128287869393E+04   -0.12844E-03   -0.13533E-03 10640   0.802E-03 0.302E-03
CGA:  21    -0.128287890659E+04   -0.21266E-03   -0.27996E-03 10640   0.323E-02-0.578E-03
CGA:  22    -0.128287910778E+04   -0.20119E-03   -0.27920E-03 10640   0.421E-03 0.533E-03
CGA:  23    -0.128287920868E+04   -0.10090E-03   -0.10515E-03 10640   0.753E-03 0.254E-03
CGA:  24    -0.128287939757E+04   -0.18889E-03   -0.25590E-03 10640   0.299E-02-0.612E-03
CGA:  25    -0.128287958188E+04   -0.18430E-03   -0.25791E-03 10640   0.374E-03 0.510E-03
CGA:  26    -0.128287966305E+04   -0.81171E-04   -0.87509E-04 10640   0.634E-03 0.220E-03
CGA:  27    -0.128287979930E+04   -0.13625E-03   -0.26030E-03 10640   0.374E-02-0.675E-03
CGA:  28    -0.128288003682E+04   -0.23752E-03   -0.31911E-03 10640   0.343E-03 0.565E-03
CGA:  29    -0.128288009926E+04   -0.62444E-04   -0.71354E-04 10640   0.505E-03 0.186E-03
CGA:  30    -0.128288012193E+04   -0.22674E-04   -0.28973E-03 10640   0.566E-02-0.766E-03
CGA:  31    -0.128288050896E+04   -0.38703E-03   -0.48647E-03 10640   0.318E-03 0.674E-03
CGA:  32    -0.128288056206E+04   -0.53103E-04   -0.62050E-04 10640   0.409E-03 0.146E-03
CGA:  33    -0.128288178971E+04   -0.12276E-02   -0.40991E-03 10640   0.333E-02 0.232E-03
CGA:  34    -0.128288207510E+04   -0.28539E-03   -0.32553E-03 10640   0.152E-03 0.140E-03
CGA:  35    -0.128288215267E+04   -0.77572E-04   -0.81360E-04 10640   0.781E-03-0.380E-04
CGA:  36    -0.128288246790E+04   -0.31523E-03   -0.29839E-03 10640   0.308E-02 0.168E-03
CGA:  37    -0.128288310094E+04   -0.63304E-03   -0.74509E-03 10640   0.525E-03 0.526E-03
CGA:  38    -0.128288320559E+04   -0.10465E-03   -0.10579E-03 10640   0.204E-03 0.110E-05
CGA:  39    -0.128288321074E+04   -0.51549E-05   -0.28481E-04 10640   0.477E-04 0.896E-04
   4 F= -.12828832E+04 E0= -.12828832E+04  d E =0.414417E+00  mag=    47.0000
       N       E                     dE             d eps       ncg     rms          ort
SDA:   1    -0.126598779347E+04    0.16895E+02    0.00000E+00 10640   0.562E+02 0.000E+00
CGA:   2    -0.127698368625E+04   -0.10996E+02   -0.10997E+02 10640   0.209E+02 0.688E-01
CGA:   3    -0.128216577411E+04   -0.51821E+01   -0.51892E+01 10640   0.600E+01 0.183E-01
CGA:   4    -0.128306461934E+04   -0.89885E+00   -0.89640E+00 10640   0.100E+01 0.265E-01
CGA:   5    -0.128324993147E+04   -0.18531E+00   -0.18487E+00 10640   0.309E+00 0.137E-02
CGA:   6    -0.128330612394E+04   -0.56192E-01   -0.55962E-01 10640   0.963E-01-0.277E-02
CGA:   7    -0.128332599174E+04   -0.19868E-01   -0.19866E-01 10640   0.268E-01 0.409E-03
CGA:   8    -0.128333262964E+04   -0.66379E-02   -0.64719E-02 10640   0.148E-01-0.209E-02
CGA:   9    -0.128333595456E+04   -0.33249E-02   -0.32676E-02 10640   0.800E-02-0.658E-03
CGA:  10    -0.128333864489E+04   -0.26903E-02   -0.28080E-02 10640   0.803E-02-0.221E-02
CGA:  11    -0.128334011520E+04   -0.14703E-02   -0.13598E-02 10640   0.542E-02-0.132E-02
CGA:  12    -0.128334177205E+04   -0.16569E-02   -0.18378E-02 10640   0.599E-02-0.195E-02
CGA:  13    -0.128334311367E+04   -0.13416E-02   -0.14538E-02 10640   0.751E-02-0.183E-02
CGA:  14    -0.128334463954E+04   -0.15259E-02   -0.14868E-02 10640   0.490E-02-0.111E-02
CGA:  15    -0.128334626788E+04   -0.16283E-02   -0.16509E-02 10640   0.323E-02-0.317E-03
CGA:  16    -0.128334700075E+04   -0.73287E-03   -0.73547E-03 10640   0.204E-02 0.232E-04
CGA:  17    -0.128334728428E+04   -0.28353E-03   -0.37238E-03 10640   0.765E-03 0.641E-03
CGA:  18    -0.128334741517E+04   -0.13089E-03   -0.18760E-03 10640   0.449E-03 0.450E-03
CGA:  19    -0.128334748992E+04   -0.74748E-04   -0.90335E-04 10640   0.329E-03 0.150E-03
CGA:  20    -0.128334749277E+04   -0.28537E-05   -0.56853E-04 10640   0.187E-03 0.316E-03
CGA:  21    -0.128334748611E+04    0.66640E-05   -0.19692E-04 10640   0.137E-03 0.141E-03
CGA:  22    -0.128334748459E+04    0.15172E-05   -0.17841E-04 10640   0.121E-03 0.127E-03
CGA:  23    -0.128334747913E+04    0.54603E-05   -0.13349E-04 10640   0.110E-03 0.114E-03
CGA:  24    -0.128334747410E+04    0.50266E-05   -0.11679E-04 10640   0.100E-03 0.104E-03
   5 F= -.12833475E+04 E0= -.12833475E+04  d E =-.464263E+00  mag=    47.0000
       N       E                     dE             d eps       ncg     rms          ort
SDA:   1    -0.128299897902E+04    0.34850E+00    0.00000E+00 10640   0.117E+01 0.000E+00
CGA:   2    -0.128322857725E+04   -0.22960E+00   -0.22969E+00 10640   0.431E+00 0.184E-02
CGA:   3    -0.128333765891E+04   -0.10908E+00   -0.10908E+00 10640   0.118E+00-0.520E-03
CGA:   4    -0.128335578213E+04   -0.18123E-01   -0.18106E-01 10640   0.189E-01-0.144E-03
CGA:   5    -0.128335956522E+04   -0.37831E-02   -0.37565E-02 10640   0.601E-02-0.587E-03
CGA:   6    -0.128336065562E+04   -0.10904E-02   -0.10704E-02 10640   0.220E-02-0.341E-03
CGA:   7    -0.128336100986E+04   -0.35425E-03   -0.36368E-03 10640   0.469E-03 0.153E-03
CGA:   8    -0.128336115890E+04   -0.14903E-03   -0.15613E-03 10640   0.331E-03-0.928E-04
CGA:   9    -0.128336120484E+04   -0.45943E-04   -0.48923E-04 10640   0.161E-03 0.546E-04
CGA:  10    -0.128336113521E+04    0.69626E-04   -0.16173E-03 10640   0.129E-02-0.370E-03
CGA:  11    -0.128336139312E+04   -0.25790E-03   -0.25599E-03 10640   0.162E-03-0.274E-04
CGA:  12    -0.128336139541E+04   -0.22968E-05   -0.15460E-04 10640   0.644E-04 0.792E-04
CGA:  13    -0.128336139820E+04   -0.27840E-05   -0.10489E-04 10640   0.456E-04 0.527E-04
CGA:  14    -0.128336142671E+04   -0.28513E-04    0.21904E-04 10640   0.589E-04 0.724E-05
CGA:  15    -0.128336143702E+04   -0.10305E-04   -0.12890E-04 10640   0.251E-04 0.433E-04
CGA:  16    -0.128336143490E+04    0.21191E-05   -0.15502E-05 10640   0.177E-04 0.200E-04
   6 F= -.12833614E+04 E0= -.12833614E+04  d E =-.139608E-01  mag=    47.0000
       N       E                     dE             d eps       ncg     rms          ort
SDA:   1    -0.128021012918E+04    0.31513E+01    0.00000E+00 10640   0.928E+01 0.000E+00
CGA:   2    -0.128223075612E+04   -0.20206E+01   -0.20207E+01 10640   0.390E+01 0.791E-02
CGA:   3    -0.128315145975E+04   -0.92070E+00   -0.92070E+00 10640   0.907E+00-0.124E-02
CGA:   4    -0.128329471314E+04   -0.14325E+00   -0.14349E+00 10640   0.155E+00 0.399E-02
CGA:   5    -0.128332662233E+04   -0.31909E-01   -0.31849E-01 10640   0.416E-01-0.293E-02
CGA:   6    -0.128333457436E+04   -0.79520E-02   -0.79329E-02 10640   0.152E-01-0.571E-03
CGA:   7    -0.128333744477E+04   -0.28704E-02   -0.28619E-02 10640   0.447E-02-0.237E-03
CGA:   8    -0.128333857524E+04   -0.11305E-02   -0.11596E-02 10640   0.297E-02-0.694E-03
CGA:   9    -0.128333907494E+04   -0.49970E-03   -0.50153E-03 10640   0.128E-02 0.851E-04
CGA:  10    -0.128333944182E+04   -0.36688E-03   -0.76161E-03 10640   0.278E-02-0.110E-02
CGA:  11    -0.128333992774E+04   -0.48592E-03   -0.48871E-03 10640   0.663E-03 0.459E-04
CGA:  12    -0.128334005785E+04   -0.13011E-03   -0.12968E-03 10640   0.332E-03-0.863E-05
CGA:  13    -0.128334018478E+04   -0.12692E-03   -0.12112E-03 10640   0.264E-03 0.429E-04
CGA:  14    -0.128334031332E+04   -0.12854E-03   -0.18034E-03 10640   0.115E-02-0.143E-03
CGA:  15    -0.128334041690E+04   -0.10358E-03   -0.11767E-03 10640   0.157E-03 0.925E-04
CGA:  16    -0.128334045531E+04   -0.38407E-04   -0.39639E-04 10640   0.108E-03 0.654E-04
CGA:  17    -0.128334049754E+04   -0.42229E-04   -0.41567E-04 10640   0.123E-03 0.334E-04
CGA:  18    -0.128334053596E+04   -0.38422E-04   -0.39067E-04 10640   0.106E-03 0.672E-04
CGA:  19    -0.128334055271E+04   -0.16748E-04   -0.19268E-04 10640   0.600E-04 0.358E-04
CGA:  20    -0.128334057210E+04   -0.19386E-04   -0.19576E-04 10640   0.428E-04 0.450E-04
CGA:  21    -0.128334059208E+04   -0.19989E-04   -0.34595E-04 10640   0.320E-03-0.263E-04
CGA:  22    -0.128334060536E+04   -0.13280E-04   -0.29550E-04 10640   0.441E-04 0.895E-04
CGA:  23    -0.128334060389E+04    0.14699E-05   -0.44522E-05 10640   0.274E-04 0.316E-04
   7 F= -.12833406E+04 E0= -.12833406E+04  d E =0.208310E-01  mag=    47.0000
       N       E                     dE             d eps       ncg     rms          ort
SDA:   1    -0.128224462330E+04    0.10960E+01    0.00000E+00 10640   0.314E+01 0.000E+00
CGA:   2    -0.128296524658E+04   -0.72062E+00   -0.72062E+00 10640   0.138E+01 0.135E-03
CGA:   3    -0.128328466465E+04   -0.31942E+00   -0.31941E+00 10640   0.285E+00-0.892E-03
CGA:   4    -0.128333079369E+04   -0.46129E-01   -0.46170E-01 10640   0.506E-01 0.506E-03
CGA:   5    -0.128334137586E+04   -0.10582E-01   -0.10572E-01 10640   0.123E-01-0.210E-03
CGA:   6    -0.128334408600E+04   -0.27101E-02   -0.26989E-02 10640   0.462E-02-0.352E-03
CGA:   7    -0.128334500902E+04   -0.92302E-03   -0.90680E-03 10640   0.168E-02-0.334E-03
CGA:   8    -0.128334540218E+04   -0.39316E-03   -0.39369E-03 10640   0.911E-03-0.105E-03
CGA:   9    -0.128334567206E+04   -0.26988E-03   -0.30035E-03 10640   0.117E-02-0.290E-03
CGA:  10    -0.128334587590E+04   -0.20384E-03   -0.20605E-03 10640   0.860E-03-0.368E-03
CGA:  11    -0.128334518368E+04    0.69221E-03   -0.62375E-03 10640   0.714E-02-0.163E-02
CGA:  12    -0.128334613564E+04   -0.95196E-03   -0.10017E-02 10640   0.182E-02 0.341E-03
CGA:  13    -0.128334651589E+04   -0.38025E-03   -0.39109E-03 10640   0.522E-03 0.136E-03
CGA:  14    -0.128334663446E+04   -0.11857E-03   -0.12996E-03 10640   0.274E-03 0.229E-03
CGA:  15    -0.128334670474E+04   -0.70272E-04   -0.80899E-04 10640   0.123E-03 0.144E-03
CGA:  16    -0.128334672651E+04   -0.21775E-04   -0.24958E-04 10640   0.846E-04 0.439E-04
CGA:  17    -0.128334672859E+04   -0.20751E-05   -0.14448E-04 10640   0.506E-04 0.848E-04
   8 F= -.12833467E+04 E0= -.12833467E+04  d E =-.612469E-02  mag=    47.0000
       N       E                     dE             d eps       ncg     rms          ort
SDA:   1    -0.126253626619E+04    0.20810E+02    0.00000E+00 10640   0.646E+02 0.000E+00
CGA:   2    -0.127560975714E+04   -0.13073E+02   -0.13079E+02 10640   0.251E+02 0.410E-01
CGA:   3    -0.128168755292E+04   -0.60778E+01   -0.60782E+01 10640   0.696E+01 0.331E-01
CGA:   4    -0.128272823229E+04   -0.10407E+01   -0.10393E+01 10640   0.121E+01 0.429E-01
CGA:   5    -0.128294537534E+04   -0.21714E+00   -0.21756E+00 10640   0.368E+00 0.444E-02
CGA:   6    -0.128300794805E+04   -0.62573E-01   -0.62738E-01 10640   0.111E+00 0.617E-02
CGA:   7    -0.128303291050E+04   -0.24962E-01   -0.24908E-01 10640   0.341E-01-0.285E-02
CGA:   8    -0.128303988772E+04   -0.69772E-02   -0.69736E-02 10640   0.151E-01 0.188E-04
CGA:   9    -0.128304351037E+04   -0.36227E-02   -0.36224E-02 10640   0.769E-02 0.169E-03
CGA:  10    -0.128304514144E+04   -0.16311E-02   -0.16662E-02 10640   0.334E-02 0.149E-02
CGA:  11    -0.128304610818E+04   -0.96674E-03   -0.96242E-03 10640   0.178E-02 0.921E-03
CGA:  12    -0.128304655936E+04   -0.45118E-03   -0.47616E-03 10640   0.932E-03 0.916E-03
CGA:  13    -0.128304692232E+04   -0.36296E-03   -0.35996E-03 10640   0.155E-02 0.202E-04
CGA:  14    -0.128304712994E+04   -0.20762E-03   -0.26084E-03 10640   0.736E-03 0.678E-03
CGA:  15    -0.128304727592E+04   -0.14598E-03   -0.18597E-03 10640   0.742E-03 0.630E-03
CGA:  16    -0.128304742432E+04   -0.14840E-03   -0.14840E-03 10640   0.696E-03 0.137E-05
CGA:  17    -0.128304751537E+04   -0.91049E-04   -0.12078E-03 10640   0.430E-03 0.485E-03
CGA:  18    -0.128304755668E+04   -0.41317E-04   -0.58560E-04 10640   0.271E-03 0.182E-03
CGA:  19    -0.128304769379E+04   -0.13711E-03   -0.11508E-03 10640   0.406E-03 0.305E-03
CGA:  20    -0.128304777244E+04   -0.78649E-04   -0.79157E-04 10640   0.384E-03 0.152E-04
CGA:  21    -0.128304787999E+04   -0.10755E-03   -0.99699E-04 10640   0.331E-03 0.356E-03
CGA:  22    -0.128304792309E+04   -0.43108E-04   -0.50311E-04 10640   0.209E-03 0.938E-04
CGA:  23    -0.128304806174E+04   -0.13865E-03   -0.10270E-03 10640   0.293E-03 0.229E-03
CGA:  24    -0.128304810437E+04   -0.42626E-04   -0.47149E-04 10640   0.187E-03 0.631E-04
CGA:  25    -0.128304818781E+04   -0.83441E-04   -0.68805E-04 10640   0.215E-03 0.202E-03
CGA:  26    -0.128304823246E+04   -0.44656E-04   -0.45452E-04 10640   0.207E-03 0.369E-04
CGA:  27    -0.128304838107E+04   -0.14860E-03   -0.10648E-03 10640   0.190E-03 0.202E-03
CGA:  28    -0.128304840901E+04   -0.27936E-04   -0.32557E-04 10640   0.115E-03 0.649E-04
CGA:  29    -0.128304847300E+04   -0.63996E-04   -0.51802E-04 10640   0.157E-03 0.125E-03
CGA:  30    -0.128304851241E+04   -0.39404E-04   -0.39270E-04 10640   0.150E-03 0.203E-04
CGA:  31    -0.128304862790E+04   -0.11549E-03   -0.83032E-04 10640   0.140E-03 0.131E-03
CGA:  32    -0.128304865743E+04   -0.29529E-04   -0.30982E-04 10640   0.881E-04 0.406E-04
CGA:  33    -0.128304869605E+04   -0.38627E-04   -0.34449E-04 10640   0.899E-04 0.865E-04
CGA:  34    -0.128304873697E+04   -0.40920E-04   -0.37905E-04 10640   0.125E-03 0.183E-04
CGA:  35    -0.128304882026E+04   -0.83291E-04   -0.66732E-04 10640   0.115E-03 0.931E-04
CGA:  36    -0.128304884699E+04   -0.26723E-04   -0.27889E-04 10640   0.654E-04 0.356E-04
CGA:  37    -0.128304886388E+04   -0.16892E-04   -0.19226E-04 10640   0.549E-04 0.485E-04
CGA:  38    -0.128304888925E+04   -0.25373E-04   -0.21851E-04 10640   0.638E-04 0.276E-04
CGA:  39    -0.128304890724E+04   -0.17988E-04   -0.18011E-04 10640   0.119E-03-0.408E-05
CGA:  40    -0.128304893534E+04   -0.28097E-04   -0.29378E-04 10640   0.113E-03 0.892E-04
CGA:  41    -0.128304895162E+04   -0.16282E-04   -0.17045E-04 10640   0.501E-04 0.640E-05
CGA:  42    -0.128304899562E+04   -0.43997E-04   -0.40238E-04 10640   0.168E-03 0.752E-05
CGA:  43    -0.128304901929E+04   -0.23678E-04   -0.37210E-04 10640   0.118E-03 0.133E-03
CGA:  44    -0.128304904939E+04   -0.30092E-04   -0.30345E-04 10640   0.404E-04 0.763E-05
CGA:  45    -0.128304905248E+04   -0.30961E-05   -0.63700E-05 10640   0.249E-04 0.235E-04
CGA:  46    -0.128304906557E+04   -0.13093E-04   -0.10676E-04 10640   0.250E-04 0.162E-04
CGA:  47    -0.128304906778E+04   -0.22091E-05   -0.43312E-05 10640   0.200E-04 0.185E-04
   9 F= -.12830491E+04 E0= -.12830491E+04  d E =0.297661E+00  mag=    47.0000
       N       E                     dE             d eps       ncg     rms          ort
SDA:   1    -0.127256309440E+04    0.10486E+02    0.00000E+00 10640   0.347E+02 0.000E+00
CGA:   2    -0.127937886989E+04   -0.68158E+01   -0.68165E+01 10640   0.131E+02 0.169E-01
CGA:   3    -0.128258906656E+04   -0.32102E+01   -0.32108E+01 10640   0.390E+01 0.537E-02
CGA:   4    -0.128316213316E+04   -0.57307E+00   -0.57269E+00 10640   0.656E+00 0.500E-02
CGA:   5    -0.128327870829E+04   -0.11658E+00   -0.11643E+00 10640   0.200E+00 0.140E-02
CGA:   6    -0.128331537193E+04   -0.36664E-01   -0.36538E-01 10640   0.596E-01-0.199E-02
CGA:   7    -0.128332747224E+04   -0.12100E-01   -0.12154E-01 10640   0.167E-01 0.107E-02
CGA:   8    -0.128333135891E+04   -0.38867E-02   -0.38498E-02 10640   0.856E-02-0.107E-02
CGA:   9    -0.128333326583E+04   -0.19069E-02   -0.18958E-02 10640   0.445E-02-0.460E-03
CGA:  10    -0.128333456096E+04   -0.12951E-02   -0.13603E-02 10640   0.361E-02-0.100E-02
CGA:  11    -0.128333529890E+04   -0.73795E-03   -0.74111E-03 10640   0.287E-02-0.107E-02
CGA:  12    -0.128333587859E+04   -0.57968E-03   -0.62107E-03 10640   0.213E-02-0.900E-03
CGA:  13    -0.128333632977E+04   -0.45118E-03   -0.48054E-03 10640   0.197E-02-0.456E-03
CGA:  14    -0.128333681665E+04   -0.48688E-03   -0.54733E-03 10640   0.237E-02-0.710E-03
CGA:  15    -0.128333714290E+04   -0.32624E-03   -0.32847E-03 10640   0.109E-02 0.403E-04
CGA:  16    -0.128333750199E+04   -0.35910E-03   -0.35501E-03 10640   0.681E-03 0.748E-04
CGA:  17    -0.128333764332E+04   -0.14133E-03   -0.14150E-03 10640   0.457E-03 0.200E-05
CGA:  18    -0.128333770867E+04   -0.65346E-04   -0.81908E-04 10640   0.210E-03 0.185E-03
CGA:  19    -0.128333773030E+04   -0.21634E-04   -0.39472E-04 10640   0.130E-03 0.137E-03
CGA:  20    -0.128333775959E+04   -0.29285E-04   -0.30031E-04 10640   0.128E-03 0.283E-04
CGA:  21    -0.128333776895E+04   -0.93680E-05   -0.21291E-04 10640   0.556E-04 0.100E-03
  10 F= -.12833378E+04 E0= -.12833378E+04  d E =-.288701E+00  mag=    47.0000
       N       E                     dE             d eps       ncg     rms          ort
SDA:   1    -0.128321842181E+04    0.11934E+00    0.00000E+00 10640   0.390E+00 0.000E+00
CGA:   2    -0.128330047483E+04   -0.82053E-01   -0.82072E-01 10640   0.157E+00 0.699E-03
CGA:   3    -0.128333824254E+04   -0.37768E-01   -0.37768E-01 10640   0.384E-01 0.464E-03
CGA:   4    -0.128334428297E+04   -0.60404E-02   -0.60246E-02 10640   0.687E-02-0.171E-03
CGA:   5    -0.128334564410E+04   -0.13611E-02   -0.13482E-02 10640   0.222E-02-0.321E-03
CGA:   6    -0.128334595581E+04   -0.31171E-03   -0.32594E-03 10640   0.598E-03 0.180E-03
CGA:   7    -0.128334609787E+04   -0.14206E-03   -0.14237E-03 10640   0.174E-03 0.314E-04
CGA:   8    -0.128334613162E+04   -0.33747E-04   -0.35564E-04 10640   0.805E-04 0.509E-04
CGA:   9    -0.128334616393E+04   -0.32308E-04   -0.31776E-04 10640   0.731E-04 0.697E-05
CGA:  10    -0.128334619355E+04   -0.29617E-04   -0.38216E-04 10640   0.142E-03-0.346E-04
CGA:  11    -0.128334619147E+04    0.20766E-05   -0.48474E-05 10640   0.113E-03 0.385E-04
  11 F= -.12833462E+04 E0= -.12833462E+04  d E =-.842252E-02  mag=    47.0000
       N       E                     dE             d eps       ncg     rms          ort
SDA:   1    -0.128248039063E+04    0.86580E+00    0.00000E+00 10640   0.261E+01 0.000E+00
CGA:   2    -0.128303955601E+04   -0.55917E+00   -0.55920E+00 10640   0.106E+01 0.278E-02
CGA:   3    -0.128329663173E+04   -0.25708E+00   -0.25703E+00 10640   0.233E+00 0.225E-02
CGA:   4    -0.128333510310E+04   -0.38471E-01   -0.38442E-01 10640   0.389E-01-0.471E-03
CGA:   5    -0.128334344625E+04   -0.83431E-02   -0.83403E-02 10640   0.863E-02-0.295E-03
CGA:   6    -0.128334542067E+04   -0.19744E-02   -0.19706E-02 10640   0.225E-02 0.592E-03
CGA:   7    -0.128334598972E+04   -0.56905E-03   -0.56954E-03 10640   0.104E-02-0.373E-04
CGA:   8    -0.128334612723E+04   -0.13751E-03   -0.15678E-03 10640   0.424E-03 0.270E-03
CGA:   9    -0.128334627084E+04   -0.14361E-03   -0.13933E-03 10640   0.265E-03 0.107E-03
CGA:  10    -0.128334636526E+04   -0.94415E-04   -0.93971E-04 10640   0.335E-03 0.751E-05
CGA:  11    -0.128334637676E+04   -0.11501E-04   -0.35590E-04 10640   0.194E-03 0.196E-03
CGA:  12    -0.128334637947E+04   -0.27153E-05   -0.17296E-04 10640   0.912E-04 0.112E-03
CGA:  13    -0.128334638872E+04   -0.92467E-05   -0.13751E-04 10640   0.615E-04 0.719E-04
  12 F= -.12833464E+04 E0= -.12833464E+04  d E =-.197249E-03  mag=    47.0000
       N       E                     dE             d eps       ncg     rms          ort
SDA:   1    -0.128285010916E+04    0.49627E+00    0.00000E+00 10640   0.130E+01 0.000E+00
CGA:   2    -0.128318347920E+04   -0.33337E+00   -0.33337E+00 10640   0.597E+00 0.207E-03
CGA:   3    -0.128331220737E+04   -0.12873E+00   -0.12871E+00 10640   0.107E+00 0.307E-02
CGA:   4    -0.128333122355E+04   -0.19016E-01   -0.18982E-01 10640   0.210E-01-0.101E-02
CGA:   5    -0.128333526055E+04   -0.40370E-02   -0.40484E-02 10640   0.419E-02 0.884E-03
CGA:   6    -0.128333626802E+04   -0.10075E-02   -0.10002E-02 10640   0.143E-02 0.329E-03
CGA:   7    -0.128333651305E+04   -0.24503E-03   -0.25694E-03 10640   0.551E-03 0.290E-03
CGA:   8    -0.128333661547E+04   -0.10242E-03   -0.11185E-03 10640   0.239E-03 0.253E-03
CGA:   9    -0.128333668690E+04   -0.71434E-04   -0.71384E-04 10640   0.171E-03 0.172E-03
CGA:  10    -0.128333669713E+04   -0.10226E-04   -0.19627E-04 10640   0.105E-03 0.105E-03
CGA:  11    -0.128333670233E+04   -0.52047E-05   -0.12545E-04 10640   0.868E-04 0.910E-04
CGA:  12    -0.128333670616E+04   -0.38288E-05   -0.10184E-04 10640   0.774E-04 0.811E-04
  13 F= -.12833367E+04 E0= -.12833367E+04  d E =0.968256E-02  mag=    47.0000
       N       E                     dE             d eps       ncg     rms          ort
SDA:   1    -0.127063014640E+04    0.12707E+02    0.00000E+00 10640   0.323E+02 0.000E+00
CGA:   2    -0.127952013345E+04   -0.88900E+01   -0.88884E+01 10640   0.151E+02 0.151E-01
CGA:   3    -0.128256772166E+04   -0.30476E+01   -0.30492E+01 10640   0.293E+01-0.692E-01
CGA:   4    -0.128306054082E+04   -0.49282E+00   -0.49271E+00 10640   0.600E+00-0.140E-01
CGA:   5    -0.128317077362E+04   -0.11023E+00   -0.11031E+00 10640   0.136E+00 0.148E-01
CGA:   6    -0.128320019821E+04   -0.29425E-01   -0.29475E-01 10640   0.586E-01-0.240E-02
CGA:   7    -0.128321024334E+04   -0.10045E-01   -0.10072E-01 10640   0.198E-01 0.175E-02
CGA:   8    -0.128321448876E+04   -0.42454E-02   -0.42137E-02 10640   0.951E-02 0.214E-02
CGA:   9    -0.128321757581E+04   -0.30871E-02   -0.31541E-02 10640   0.892E-02-0.592E-03
CGA:  10    -0.128321879721E+04   -0.12214E-02   -0.13188E-02 10640   0.378E-02 0.250E-02
CGA:  11    -0.128321958864E+04   -0.79143E-03   -0.83770E-03 10640   0.257E-02 0.208E-02
CGA:  12    -0.128322021124E+04   -0.62260E-03   -0.67805E-03 10640   0.451E-02-0.782E-03
CGA:  13    -0.128322058897E+04   -0.37773E-03   -0.45518E-03 10640   0.320E-02 0.148E-02
CGA:  14    -0.128322073349E+04   -0.14453E-03   -0.33104E-03 10640   0.106E-02 0.161E-02
CGA:  15    -0.128322091013E+04   -0.17663E-03   -0.18523E-03 10640   0.690E-03 0.580E-03
CGA:  16    -0.128322107325E+04   -0.16313E-03   -0.15223E-03 10640   0.765E-03 0.338E-03
CGA:  17    -0.128322130347E+04   -0.23022E-03   -0.22418E-03 10640   0.446E-03 0.885E-03
CGA:  18    -0.128322133503E+04   -0.31561E-04   -0.56405E-04 10640   0.387E-03 0.389E-03
CGA:  19    -0.128322142742E+04   -0.92393E-04   -0.82667E-04 10640   0.356E-03 0.364E-03
CGA:  20    -0.128322147457E+04   -0.47151E-04   -0.56908E-04 10640   0.336E-03 0.340E-03
CGA:  21    -0.128322154633E+04   -0.71754E-04   -0.67378E-04 10640   0.315E-03 0.320E-03
CGA:  22    -0.128322159254E+04   -0.46210E-04   -0.52547E-04 10640   0.299E-03 0.301E-03
CGA:  23    -0.128322164766E+04   -0.55121E-04   -0.55417E-04 10640   0.283E-03 0.283E-03
CGA:  24    -0.128322169305E+04   -0.45397E-04   -0.48978E-04 10640   0.269E-03 0.266E-03
CGA:  25    -0.128322173450E+04   -0.41449E-04   -0.45585E-04 10640   0.256E-03 0.251E-03
CGA:  26    -0.128322177874E+04   -0.44236E-04   -0.45773E-04 10640   0.246E-03 0.235E-03
CGA:  27    -0.128322180979E+04   -0.31051E-04   -0.37881E-04 10640   0.233E-03 0.223E-03
CGA:  28    -0.128322185185E+04   -0.42062E-04   -0.42387E-04 10640   0.226E-03 0.211E-03
CGA:  29    -0.128322187613E+04   -0.24280E-04   -0.32297E-04 10640   0.212E-03 0.201E-03
CGA:  30    -0.128322191488E+04   -0.38748E-04   -0.38593E-04 10640   0.206E-03 0.191E-03
CGA:  31    -0.128322193533E+04   -0.20456E-04   -0.28369E-04 10640   0.193E-03 0.183E-03
CGA:  32    -0.128322197015E+04   -0.34818E-04   -0.34669E-04 10640   0.186E-03 0.176E-03
CGA:  33    -0.128322198846E+04   -0.18303E-04   -0.25470E-04 10640   0.176E-03 0.169E-03
CGA:  34    -0.128322201944E+04   -0.30986E-04   -0.31023E-04 10640   0.169E-03 0.162E-03
CGA:  35    -0.128322203631E+04   -0.16865E-04   -0.23146E-04 10640   0.160E-03 0.156E-03
CGA:  36    -0.128322206387E+04   -0.27559E-04   -0.27800E-04 10640   0.154E-03 0.150E-03
CGA:  37    -0.128322207960E+04   -0.15739E-04   -0.21180E-04 10640   0.147E-03 0.145E-03
CGA:  38    -0.128322210417E+04   -0.24563E-04   -0.24984E-04 10640   0.141E-03 0.139E-03
CGA:  39    -0.128322211896E+04   -0.14795E-04   -0.19483E-04 10640   0.135E-03 0.134E-03
CGA:  40    -0.128322214094E+04   -0.21975E-04   -0.22537E-04 10640   0.130E-03 0.129E-03
CGA:  41    -0.128322215491E+04   -0.13974E-04   -0.17997E-04 10640   0.125E-03 0.125E-03
CGA:  42    -0.128322217466E+04   -0.19751E-04   -0.20411E-04 10640   0.120E-03 0.120E-03
CGA:  43    -0.128322218789E+04   -0.13233E-04   -0.16678E-04 10640   0.115E-03 0.116E-03
CGA:  44    -0.128322220574E+04   -0.17841E-04   -0.18561E-04 10640   0.111E-03 0.112E-03
CGA:  45    -0.128322221829E+04   -0.12556E-04   -0.15500E-04 10640   0.107E-03 0.108E-03
CGA:  46    -0.128322223449E+04   -0.16203E-04   -0.16948E-04 10640   0.103E-03 0.104E-03
CGA:  47    -0.128322224642E+04   -0.11928E-04   -0.14440E-04 10640   0.993E-04 0.100E-03
CGA:  48    -0.128322226122E+04   -0.14796E-04   -0.15537E-04 10640   0.956E-04 0.968E-04
CGA:  49    -0.128322227256E+04   -0.11342E-04   -0.13480E-04 10640   0.924E-04 0.935E-04
CGA:  50    -0.128322228615E+04   -0.13586E-04   -0.14300E-04 10640   0.891E-04 0.903E-04
CGA:  51    -0.128322229694E+04   -0.10790E-04   -0.12606E-04 10640   0.862E-04 0.873E-04
CGA:  52    -0.128322230948E+04   -0.12540E-04   -0.13208E-04 10640   0.832E-04 0.844E-04
CGA:  53    -0.128322231975E+04   -0.10270E-04   -0.11808E-04 10640   0.805E-04 0.816E-04
CGA:  54    -0.128322233138E+04   -0.11633E-04   -0.12244E-04 10640   0.777E-04 0.789E-04
CGA:  55    -0.128322234116E+04   -0.97820E-05   -0.11079E-04 10640   0.753E-04 0.764E-04
CGA:  56    -0.128322235200E+04   -0.10844E-04   -0.11387E-04 10640   0.728E-04 0.739E-04
CGA:  57    -0.128322236133E+04   -0.93215E-05   -0.10410E-04 10640   0.705E-04 0.715E-04
CGA:  58    -0.128322237148E+04   -0.10155E-04   -0.10624E-04 10640   0.682E-04 0.692E-04
CGA:  59    -0.128322238037E+04   -0.88892E-05   -0.97960E-05 10640   0.661E-04 0.671E-04
  14 F= -.12832224E+04 E0= -.12832223E+04  d E =0.114326E+00  mag=    47.0000
       N       E                     dE             d eps       ncg     rms          ort
SDA:   1    -0.127143222855E+04    0.11790E+02    0.00000E+00 10640   0.330E+02 0.000E+00
CGA:   2    -0.127903983225E+04   -0.76076E+01   -0.76033E+01 10640   0.150E+02 0.468E-01
CGA:   3    -0.128228854612E+04   -0.32487E+01   -0.32597E+01 10640   0.409E+01-0.133E+00
CGA:   4    -0.128286356220E+04   -0.57502E+00   -0.57555E+00 10640   0.805E+00-0.776E-02
CGA:   5    -0.128299229700E+04   -0.12873E+00   -0.12875E+00 10640   0.251E+00 0.157E-01
CGA:   6    -0.128303144106E+04   -0.39144E-01   -0.39167E-01 10640   0.911E-01 0.370E-02
CGA:   7    -0.128304908598E+04   -0.17645E-01   -0.17668E-01 10640   0.371E-01-0.718E-03
CGA:   8    -0.128305588350E+04   -0.67975E-02   -0.67131E-02 10640   0.145E-01 0.438E-02
CGA:   9    -0.128306048617E+04   -0.46027E-02   -0.43716E-02 10640   0.121E-01 0.220E-02
CGA:  10    -0.128306385727E+04   -0.33711E-02   -0.31787E-02 10640   0.891E-02 0.330E-02
CGA:  11    -0.128306655247E+04   -0.26952E-02   -0.24719E-02 10640   0.516E-02 0.481E-02
CGA:  12    -0.128306799833E+04   -0.14459E-02   -0.13992E-02 10640   0.673E-02 0.493E-03
CGA:  13    -0.128306919374E+04   -0.11954E-02   -0.12260E-02 10640   0.324E-02 0.239E-02
CGA:  14    -0.128307021635E+04   -0.10226E-02   -0.93612E-03 10640   0.320E-02 0.246E-02
CGA:  15    -0.128307093757E+04   -0.72123E-03   -0.74661E-03 10640   0.455E-02-0.460E-03
CGA:  16    -0.128307202800E+04   -0.10904E-02   -0.95938E-03 10640   0.337E-02 0.205E-02
CGA:  17    -0.128307262614E+04   -0.59814E-03   -0.67975E-03 10640   0.227E-02 0.173E-02
CGA:  18    -0.128307322214E+04   -0.59601E-03   -0.64422E-03 10640   0.414E-02-0.470E-03
CGA:  19    -0.128307388523E+04   -0.66308E-03   -0.64927E-03 10640   0.281E-02 0.150E-02
CGA:  20    -0.128307422858E+04   -0.34335E-03   -0.43953E-03 10640   0.170E-02 0.128E-02
CGA:  21    -0.128307508638E+04   -0.85780E-03   -0.70825E-03 10640   0.300E-02 0.145E-02
CGA:  22    -0.128307553665E+04   -0.45027E-03   -0.42203E-03 10640   0.129E-02-0.557E-03
CGA:  23    -0.128307595664E+04   -0.41999E-03   -0.33419E-03 10640   0.910E-03 0.653E-03
CGA:  24    -0.128307606783E+04   -0.11119E-03   -0.12347E-03 10640   0.722E-03 0.210E-03
CGA:  25    -0.128307654413E+04   -0.47630E-03   -0.34705E-03 10640   0.115E-02 0.640E-03
CGA:  26    -0.128307670953E+04   -0.16540E-03   -0.16928E-03 10640   0.575E-03 0.734E-04
CGA:  27    -0.128307718062E+04   -0.47108E-03   -0.31110E-03 10640   0.679E-03 0.510E-03
CGA:  28    -0.128307731036E+04   -0.12974E-03   -0.13187E-03 10640   0.532E-03 0.107E-03
CGA:  29    -0.128307766696E+04   -0.35660E-03   -0.25846E-03 10640   0.609E-03 0.469E-03
CGA:  30    -0.128307782423E+04   -0.15727E-03   -0.15705E-03 10640   0.554E-03 0.743E-05
CGA:  31    -0.128307824219E+04   -0.41797E-03   -0.30828E-03 10640   0.911E-03 0.329E-03
CGA:  32    -0.128307833733E+04   -0.95137E-04   -0.10949E-03 10640   0.431E-03 0.119E-03
CGA:  33    -0.128307845030E+04   -0.11297E-03   -0.11332E-03 10640   0.404E-03 0.129E-03
CGA:  34    -0.128307871024E+04   -0.25994E-03   -0.21410E-03 10640   0.658E-03 0.258E-03
CGA:  35    -0.128307882149E+04   -0.11125E-03   -0.11379E-03 10640   0.507E-03 0.362E-04
CGA:  36    -0.128307895390E+04   -0.13241E-03   -0.13245E-03 10640   0.474E-03-0.859E-05
CGA:  37    -0.128307908394E+04   -0.13004E-03   -0.12592E-03 10640   0.585E-03 0.136E-03
CGA:  38    -0.128307965998E+04   -0.57605E-03   -0.43152E-03 10640   0.428E-03 0.413E-03
CGA:  39    -0.128307970748E+04   -0.47498E-04   -0.57962E-04 10640   0.188E-03 0.846E-04
CGA:  40    -0.128307978107E+04   -0.73587E-04   -0.73036E-04 10640   0.219E-03 0.704E-05
CGA:  41    -0.128307984971E+04   -0.68637E-04   -0.67010E-04 10640   0.358E-03 0.406E-04
CGA:  42    -0.128307994585E+04   -0.96149E-04   -0.10099E-03 10640   0.344E-03 0.234E-03
CGA:  43    -0.128308005080E+04   -0.10495E-03   -0.11376E-03 10640   0.474E-03-0.119E-03
CGA:  44    -0.128308008057E+04   -0.29769E-04   -0.40075E-04 10640   0.252E-03 0.784E-04
CGA:  45    -0.128308009970E+04   -0.19128E-04   -0.30565E-04 10640   0.123E-03 0.767E-04
CGA:  46    -0.128308012760E+04   -0.27906E-04   -0.29540E-04 10640   0.173E-03 0.259E-04
CGA:  47    -0.128308020019E+04   -0.72588E-04   -0.69774E-04 10640   0.520E-03 0.280E-04
CGA:  48    -0.128308030025E+04   -0.10006E-03   -0.10907E-03 10640   0.549E-03 0.119E-03
CGA:  49    -0.128308038222E+04   -0.81964E-04   -0.97394E-04 10640   0.528E-03 0.141E-03
CGA:  50    -0.128308050076E+04   -0.11854E-03   -0.12523E-03 10640   0.606E-03 0.113E-03
CGA:  51    -0.128308061331E+04   -0.11256E-03   -0.11679E-03 10640   0.422E-03 0.329E-04
CGA:  52    -0.128308066252E+04   -0.49203E-04   -0.52680E-04 10640   0.174E-03 0.218E-04
CGA:  53    -0.128308068123E+04   -0.18717E-04   -0.21006E-04 10640   0.105E-03 0.184E-04
CGA:  54    -0.128308069335E+04   -0.12115E-04   -0.14333E-04 10640   0.493E-04 0.216E-04
CGA:  55    -0.128308069438E+04   -0.10282E-05   -0.40826E-05 10640   0.166E-04 0.204E-04
  15 F= -.12830807E+04 E0= -.12830795E+04  d E =0.141686E+00  mag=    47.0000
       N       E                     dE             d eps       ncg     rms          ort
SDA:   1    -0.128009372649E+04    0.29870E+01    0.00000E+00 10640   0.819E+01 0.000E+00
CGA:   2    -0.128217548340E+04   -0.20818E+01   -0.20820E+01 10640   0.388E+01 0.287E-03
CGA:   3    -0.128295212861E+04   -0.77665E+00   -0.77668E+00 10640   0.108E+01-0.495E-02
CGA:   4    -0.128309328338E+04   -0.14115E+00   -0.14154E+00 10640   0.260E+00 0.102E-01
CGA:   5    -0.128313076610E+04   -0.37483E-01   -0.37468E-01 10640   0.819E-01-0.421E-03
CGA:   6    -0.128314351958E+04   -0.12753E-01   -0.12627E-01 10640   0.267E-01-0.306E-02
CGA:   7    -0.128314834350E+04   -0.48239E-02   -0.48173E-02 10640   0.114E-01-0.814E-03
CGA:   8    -0.128315051249E+04   -0.21690E-02   -0.21712E-02 10640   0.572E-02-0.104E-02
CGA:   9    -0.128315167914E+04   -0.11666E-02   -0.18800E-02 10640   0.145E-01-0.427E-02
CGA:  10    -0.128315275210E+04   -0.10730E-02   -0.11967E-02 10640   0.232E-02 0.105E-02
CGA:  11    -0.128315334973E+04   -0.59763E-03   -0.59509E-03 10640   0.157E-02 0.621E-04
CGA:  12    -0.128315402887E+04   -0.67914E-03    0.29519E-02 10640   0.127E-02 0.446E-04
CGA:  13    -0.128315463515E+04   -0.60628E-03    0.77180E-03 10640   0.958E-03 0.574E-03
CGA:  14    -0.128315491035E+04   -0.27520E-03   -0.75192E-03 10640   0.781E-02-0.141E-02
CGA:  15    -0.128315603865E+04   -0.11283E-02   -0.94745E-03 10640   0.202E-02-0.193E-02
CGA:  16    -0.128315633235E+04   -0.29370E-03   -0.28734E-03 10640   0.109E-02-0.286E-03
CGA:  17    -0.128315639034E+04   -0.57997E-04   -0.92010E-04 10640   0.255E-03 0.305E-03
CGA:  18    -0.128315646122E+04   -0.70875E-04   -0.71227E-04 10640   0.649E-03-0.277E-04
CGA:  19    -0.128315673096E+04   -0.26974E-03    0.44148E-03 10640   0.122E-02-0.101E-05
CGA:  20    -0.128315637582E+04    0.35514E-03   -0.50281E-03 10640   0.133E-01-0.418E-02
CGA:  21    -0.128315735498E+04   -0.97916E-03   -0.10570E-02 10640   0.174E-02 0.574E-03
CGA:  22    -0.128315778574E+04   -0.43076E-03   -0.42165E-03 10640   0.739E-03 0.404E-03
CGA:  23    -0.128315799326E+04   -0.20752E-03   -0.22047E-03 10640   0.114E-02-0.403E-03
CGA:  24    -0.128315805408E+04   -0.60819E-04   -0.86246E-04 10640   0.142E-03 0.188E-03
CGA:  25    -0.128315806122E+04   -0.71427E-05   -0.16492E-04 10640   0.957E-04 0.886E-04
CGA:  26    -0.128315807810E+04   -0.16880E-04   -0.49470E-04 10640   0.704E-03-0.103E-03
CGA:  27    -0.128315811423E+04   -0.36128E-04   -0.49253E-04 10640   0.401E-04 0.906E-04
CGA:  28    -0.128315811303E+04    0.12045E-05   -0.28639E-05 10640   0.260E-04 0.281E-04
  16 F= -.12831581E+04 E0= -.12831576E+04  d E =-.774186E-01  mag=    47.0000
       N       E                     dE             d eps       ncg     rms          ort
SDA:   1    -0.127625073172E+04    0.69074E+01    0.00000E+00 10640   0.183E+02 0.000E+00
CGA:   2    -0.128100598475E+04   -0.47553E+01   -0.47572E+01 10640   0.924E+01-0.172E-01
CGA:   3    -0.128263085077E+04   -0.16249E+01   -0.16273E+01 10640   0.265E+01 0.146E-01
CGA:   4    -0.128305134933E+04   -0.42050E+00   -0.42017E+00 10640   0.439E+00 0.974E-03
CGA:   5    -0.128313662229E+04   -0.85273E-01   -0.85271E-01 10640   0.102E+00-0.169E-02
CGA:   6    -0.128315709028E+04   -0.20468E-01   -0.20481E-01 10640   0.523E-01-0.377E-02
CGA:   7    -0.128316666807E+04   -0.95778E-02   -0.95482E-02 10640   0.251E-01-0.374E-02
CGA:   8    -0.128317209289E+04   -0.54248E-02   -0.56155E-02 10640   0.219E-01-0.447E-02
CGA:   9    -0.128317657941E+04   -0.44865E-02   -0.50166E-02 10640   0.270E-01-0.671E-02
CGA:  10    -0.128318128493E+04   -0.47055E-02   -0.56071E-02 10640   0.246E-01-0.950E-02
CGA:  11    -0.128318494448E+04   -0.36596E-02   -0.60085E-02 10640   0.359E-01-0.139E-01
CGA:  12    -0.128318944616E+04   -0.45017E-02   -0.45392E-02 10640   0.117E-01 0.316E-03
CGA:  13    -0.128319293828E+04   -0.34921E-02   -0.34759E-02 10640   0.679E-02 0.212E-03
CGA:  14    -0.128319435364E+04   -0.14154E-02   -0.14181E-02 10640   0.426E-02 0.244E-03
CGA:  15    -0.128319534626E+04   -0.99261E-03   -0.98845E-03 10640   0.150E-02 0.493E-03
CGA:  16    -0.128319565145E+04   -0.30519E-03   -0.31124E-03 10640   0.861E-03 0.203E-03
CGA:  17    -0.128319594638E+04   -0.29493E-03   -0.28247E-03 10640   0.390E-03 0.169E-03
CGA:  18    -0.128319614778E+04   -0.20140E-03   -0.18586E-03 10640   0.600E-03 0.884E-04
CGA:  19    -0.128319493587E+04    0.12119E-02   -0.70177E-03 10640   0.148E-01-0.180E-02
CGA:  20    -0.128319651244E+04   -0.15766E-02   -0.16523E-02 10640   0.276E-02 0.355E-03
CGA:  21    -0.128319715677E+04   -0.64433E-03   -0.65283E-03 10640   0.148E-02 0.534E-04
CGA:  22    -0.128319752824E+04   -0.37147E-03   -0.32582E-03 10640   0.585E-03-0.259E-03
CGA:  23    -0.128319772227E+04   -0.19403E-03   -0.19725E-03 10640   0.454E-03-0.122E-03
CGA:  24    -0.128319785032E+04   -0.12805E-03   -0.10490E-03 10640   0.596E-03-0.253E-03
CGA:  25    -0.128319790771E+04   -0.57386E-04   -0.61754E-04 10640   0.115E-03 0.180E-04
CGA:  26    -0.128319793344E+04   -0.25732E-04   -0.30250E-04 10640   0.707E-04 0.414E-04
CGA:  27    -0.128319796311E+04   -0.29677E-04   -0.29410E-04 10640   0.953E-04-0.504E-05
CGA:  28    -0.128319798326E+04   -0.20151E-04   -0.20770E-04 10640   0.704E-04 0.475E-05
CGA:  29    -0.128319798417E+04   -0.90395E-06   -0.90851E-05 10640   0.534E-04 0.357E-04
CGA:  30    -0.128319799282E+04   -0.86556E-05   -0.11626E-04 10640   0.399E-04 0.244E-04
CGA:  31    -0.128319801136E+04   -0.18536E-04   -0.18709E-04 10640   0.234E-04 0.154E-04
CGA:  32    -0.128319801123E+04    0.12593E-06   -0.44562E-05 10640   0.164E-04 0.234E-04
  17 F= -.12831980E+04 E0= -.12831978E+04  d E =-.398982E-01  mag=    47.0000
       N       E                     dE             d eps       ncg     rms          ort
SDA:   1    -0.126280716756E+04    0.20391E+02    0.00000E+00 10640   0.545E+02 0.000E+00
CGA:   2    -0.127687555136E+04   -0.14068E+02   -0.14055E+02 10640   0.248E+02-0.336E-01
CGA:   3    -0.128199348270E+04   -0.51179E+01   -0.51652E+01 10640   0.547E+01-0.231E-01
CGA:   4    -0.128292303817E+04   -0.92956E+00   -0.92778E+00 10640   0.102E+01 0.875E-02
CGA:   5    -0.128311991654E+04   -0.19688E+00   -0.19654E+00 10640   0.255E+00-0.825E-02
CGA:   6    -0.128316995392E+04   -0.50037E-01   -0.49494E-01 10640   0.124E+00-0.542E-02
CGA:   7    -0.128319305795E+04   -0.23104E-01   -0.22676E-01 10640   0.389E-01-0.408E-02
CGA:   8    -0.128320479174E+04   -0.11734E-01   -0.11923E-01 10640   0.284E-01-0.622E-02
CGA:   9    -0.128321208303E+04   -0.72913E-02   -0.74431E-02 10640   0.244E-01-0.617E-02
CGA:  10    -0.128321747006E+04   -0.53870E-02   -0.53015E-02 10640   0.188E-01-0.754E-02
CGA:  11    -0.128322145282E+04   -0.39828E-02   -0.47249E-02 10640   0.227E-01-0.100E-01
CGA:  12    -0.128322419421E+04   -0.27414E-02   -0.28716E-02 10640   0.681E-02 0.864E-03
CGA:  13    -0.128322612638E+04   -0.19322E-02   -0.19399E-02 10640   0.313E-02 0.824E-03
CGA:  14    -0.128322733060E+04   -0.12042E-02   -0.12253E-02 10640   0.369E-02-0.320E-03
CGA:  15    -0.128322803207E+04   -0.70146E-03   -0.74063E-03 10640   0.130E-02 0.616E-03
CGA:  16    -0.128322824408E+04   -0.21201E-03   -0.25535E-03 10640   0.850E-03 0.372E-03
CGA:  17    -0.128322868227E+04   -0.43819E-03   -0.42045E-03 10640   0.103E-02 0.157E-03
CGA:  18    -0.128322905039E+04   -0.36813E-03   -0.36852E-03 10640   0.155E-02-0.365E-04
CGA:  19    -0.128322955359E+04   -0.50319E-03   -0.48909E-03 10640   0.196E-02 0.268E-03
CGA:  20    -0.128323005383E+04   -0.50024E-03   -0.51428E-03 10640   0.161E-02 0.159E-03
CGA:  21    -0.128323072118E+04   -0.66735E-03   -0.73057E-03 10640   0.205E-02-0.569E-03
CGA:  22    -0.128323093146E+04   -0.21028E-03   -0.17335E-03 10640   0.876E-03-0.285E-03
CGA:  23    -0.128323103319E+04   -0.10173E-03   -0.10330E-03 10640   0.645E-03-0.245E-05
CGA:  24    -0.128323112894E+04   -0.95746E-04   -0.10382E-03 10640   0.428E-03 0.621E-04
CGA:  25    -0.128323118859E+04   -0.59648E-04   -0.63119E-04 10640   0.202E-03 0.228E-04
CGA:  26    -0.128323120915E+04   -0.20560E-04   -0.28187E-04 10640   0.155E-03 0.578E-04
CGA:  27    -0.128323121000E+04   -0.85797E-06   -0.19418E-04 10640   0.125E-03 0.117E-03
CGA:  28    -0.128323120764E+04    0.23657E-05   -0.11618E-04 10640   0.776E-04 0.903E-04
  18 F= -.12832312E+04 E0= -.12832312E+04  d E =-.331964E-01  mag=    47.0000
       N       E                     dE             d eps       ncg     rms          ort
SDA:   1    -0.127205486056E+04    0.11176E+02    0.00000E+00 10640   0.305E+02 0.000E+00
CGA:   2    -0.127961264187E+04   -0.75578E+01   -0.75577E+01 10640   0.139E+02 0.907E-02
CGA:   3    -0.128260480828E+04   -0.29922E+01   -0.29919E+01 10640   0.300E+01-0.174E-01
CGA:   4    -0.128307917590E+04   -0.47437E+00   -0.47397E+00 10640   0.650E+00 0.197E-02
CGA:   5    -0.128319136734E+04   -0.11219E+00   -0.11219E+00 10640   0.174E+00-0.830E-03
CGA:   6    -0.128322358758E+04   -0.32220E-01   -0.32137E-01 10640   0.539E-01-0.181E-02
CGA:   7    -0.128323639296E+04   -0.12805E-01   -0.12854E-01 10640   0.181E-01-0.294E-02
CGA:   8    -0.128324048437E+04   -0.40914E-02   -0.41089E-02 10640   0.113E-01-0.111E-02
CGA:   9    -0.128324332449E+04   -0.28401E-02   -0.29918E-02 10640   0.895E-02-0.275E-02
CGA:  10    -0.128324519181E+04   -0.18673E-02   -0.20568E-02 10640   0.666E-02-0.251E-02
CGA:  11    -0.128324633412E+04   -0.11423E-02   -0.20969E-02 10640   0.127E-01-0.471E-02
CGA:  12    -0.128324771250E+04   -0.13784E-02   -0.14333E-02 10640   0.289E-02 0.459E-03
CGA:  13    -0.128324872408E+04   -0.10116E-02   -0.99913E-03 10640   0.135E-02 0.124E-03
CGA:  14    -0.128324924739E+04   -0.52330E-03   -0.50337E-03 10640   0.118E-02 0.171E-03
CGA:  15    -0.128324957321E+04   -0.32582E-03   -0.32590E-03 10640   0.671E-03 0.464E-04
CGA:  16    -0.128324978428E+04   -0.21107E-03   -0.20463E-03 10640   0.509E-03 0.133E-03
CGA:  17    -0.128324992401E+04   -0.13974E-03   -0.14293E-03 10640   0.376E-03 0.215E-03
CGA:  18    -0.128325022937E+04   -0.30536E-03   -0.28663E-03 10640   0.781E-03 0.558E-04
CGA:  19    -0.128325046139E+04   -0.23201E-03   -0.23266E-03 10640   0.541E-03 0.168E-03
CGA:  20    -0.128325075972E+04   -0.29833E-03   -0.29219E-03 10640   0.755E-03 0.113E-04
CGA:  21    -0.128325093267E+04   -0.17296E-03   -0.16229E-03 10640   0.397E-03-0.196E-03
CGA:  22    -0.128325096792E+04   -0.35246E-04   -0.47037E-04 10640   0.222E-03 0.103E-03
CGA:  23    -0.128325098944E+04   -0.21518E-04   -0.36796E-04 10640   0.126E-03 0.114E-03
CGA:  24    -0.128325103122E+04   -0.41786E-04   -0.45921E-04 10640   0.273E-03-0.381E-04
CGA:  25    -0.128325103146E+04   -0.23873E-06   -0.17911E-04 10640   0.182E-03 0.105E-03
CGA:  26    -0.128325102516E+04    0.63038E-05   -0.15267E-04 10640   0.559E-04 0.112E-03
  19 F= -.12832510E+04 E0= -.12832510E+04  d E =-.198175E-01  mag=    47.0000
       N       E                     dE             d eps       ncg     rms          ort
SDA:   1    -0.127801379988E+04    0.52372E+01    0.00000E+00 10640   0.139E+02 0.000E+00
CGA:   2    -0.128171228997E+04   -0.36985E+01   -0.36987E+01 10640   0.630E+01-0.514E-02
CGA:   3    -0.128295827431E+04   -0.12460E+01   -0.12460E+01 10640   0.154E+01 0.128E-02
CGA:   4    -0.128320647771E+04   -0.24820E+00   -0.24798E+00 10640   0.309E+00 0.541E-02
CGA:   5    -0.128326068850E+04   -0.54211E-01   -0.54267E-01 10640   0.755E-01 0.197E-03
CGA:   6    -0.128327427088E+04   -0.13582E-01   -0.13728E-01 10640   0.248E-01 0.332E-02
CGA:   7    -0.128328045059E+04   -0.61797E-02   -0.61936E-02 10640   0.100E-01-0.108E-02
CGA:   8    -0.128328261354E+04   -0.21630E-02   -0.21628E-02 10640   0.579E-02-0.754E-04
CGA:   9    -0.128328420749E+04   -0.15939E-02   -0.15936E-02 10640   0.338E-02 0.250E-04
CGA:  10    -0.128328529917E+04   -0.10917E-02   -0.11152E-02 10640   0.291E-02-0.232E-03
CGA:  11    -0.128328581733E+04   -0.51816E-03   -0.53947E-03 10640   0.128E-02 0.596E-03
CGA:  12    -0.128328629980E+04   -0.48247E-03   -0.45638E-03 10640   0.800E-03 0.415E-03
CGA:  13    -0.128328674416E+04   -0.44437E-03   -0.57679E-03 10640   0.293E-02-0.430E-03
CGA:  14    -0.128328693008E+04   -0.18592E-03   -0.28325E-03 10640   0.478E-03 0.652E-03
CGA:  15    -0.128328699648E+04   -0.66399E-04   -0.88819E-04 10640   0.350E-03 0.244E-03
CGA:  16    -0.128328489290E+04    0.21036E-02   -0.11360E-02 10640   0.290E-01-0.206E-02
CGA:  17    -0.128328724440E+04   -0.23515E-02   -0.26923E-02 10640   0.609E-03 0.226E-02
CGA:  18    -0.128328727380E+04   -0.29402E-04   -0.79519E-04 10640   0.233E-03 0.170E-03
CGA:  19    -0.128328737169E+04   -0.97891E-04   -0.97402E-04 10640   0.231E-03-0.661E-05
CGA:  20    -0.128328743541E+04   -0.63711E-04   -0.50218E-04 10640   0.244E-03-0.765E-04
CGA:  21    -0.128328747047E+04   -0.35066E-04   -0.42349E-04 10640   0.363E-03 0.537E-04
CGA:  22    -0.128328755639E+04   -0.85922E-04   -0.10257E-03 10640   0.281E-03 0.105E-03
CGA:  23    -0.128328770184E+04   -0.14545E-03   -0.25864E-03 10640   0.167E-02-0.348E-03
CGA:  24    -0.128328781100E+04   -0.10915E-03   -0.17700E-03 10640   0.239E-03 0.243E-03
CGA:  25    -0.128328785751E+04   -0.46512E-04   -0.53205E-04 10640   0.110E-03 0.365E-04
CGA:  26    -0.128328790491E+04   -0.47397E-04   -0.54271E-04 10640   0.215E-03-0.116E-03
[...]
  44 F= -.12828985E+04 E0= -.12828985E+04  d E =-.516590E+00  mag=    47.0000
       N       E                     dE             d eps       ncg     rms          ort
SDA:   1    -0.128214496579E+04    0.75352E+00    0.00000E+00 10640   0.249E+01 0.000E+00
CGA:   2    -0.128265071152E+04   -0.50575E+00   -0.50566E+00 10640   0.982E+00 0.246E-02
CGA:   3    -0.128288136742E+04   -0.23066E+00   -0.23072E+00 10640   0.293E+00 0.580E-03
CGA:   4    -0.128292545098E+04   -0.44084E-01   -0.43993E-01 10640   0.501E-01-0.207E-03
CGA:   5    -0.128293455993E+04   -0.91090E-02   -0.89971E-02 10640   0.149E-01-0.796E-04
CGA:   6    -0.128293712861E+04   -0.25687E-02   -0.25065E-02 10640   0.493E-02-0.164E-03
CGA:   7    -0.128293802024E+04   -0.89163E-03   -0.91065E-03 10640   0.156E-02 0.572E-04
CGA:   8    -0.128293837307E+04   -0.35283E-03   -0.32135E-03 10640   0.637E-03-0.770E-04
CGA:   9    -0.128293852602E+04   -0.15295E-03   -0.14625E-03 10640   0.318E-03-0.183E-04
CGA:  10    -0.128293868933E+04   -0.16331E-03   -0.13413E-03 10640   0.640E-03-0.216E-03
CGA:  11    -0.128293872772E+04   -0.38386E-04   -0.62708E-04 10640   0.103E-03 0.547E-04
CGA:  12    -0.128293876333E+04   -0.35609E-04   -0.33120E-04 10640   0.665E-04-0.102E-04
CGA:  13    -0.128293653989E+04    0.22234E-02   -0.12251E-02 10640   0.207E-01-0.837E-03
CGA:  14    -0.128293846244E+04   -0.19226E-02   -0.20933E-02 10640   0.139E-02 0.562E-03
CGA:  15    -0.128293889377E+04   -0.43133E-03   -0.45882E-03 10640   0.511E-03 0.472E-04
CGA:  16    -0.128293902284E+04   -0.12907E-03   -0.10108E-03 10640   0.181E-03-0.394E-04
CGA:  17    -0.128293902684E+04   -0.40019E-05   -0.31962E-04 10640   0.492E-04 0.425E-04
  45 F= -.12829390E+04 E0= -.12829390E+04  d E =-.405361E-01  mag=    47.0000
       N       E                     dE             d eps       ncg     rms          ort
SDA:   1    -0.128204426995E+04    0.89475E+00    0.00000E+00 10640   0.270E+01 0.000E+00
CGA:   2    -0.128264881634E+04   -0.60455E+00   -0.60525E+00 10640   0.113E+01 0.139E-02
CGA:   3    -0.128290936315E+04   -0.26055E+00   -0.26042E+00 10640   0.254E+00 0.506E-03
CGA:   4    -0.128295127808E+04   -0.41915E-01   -0.41811E-01 10640   0.480E-01 0.271E-04
CGA:   5    -0.128296087631E+04   -0.95982E-02   -0.93135E-02 10640   0.127E-01-0.560E-03
CGA:   6    -0.128296295924E+04   -0.20829E-02   -0.21459E-02 10640   0.464E-02 0.180E-03
CGA:   7    -0.128296389094E+04   -0.93170E-03   -0.90322E-03 10640   0.147E-02-0.641E-04
CGA:   8    -0.128296419611E+04   -0.30517E-03   -0.29641E-03 10640   0.748E-03-0.179E-04
CGA:   9    -0.128296439616E+04   -0.20005E-03   -0.17821E-03 10640   0.422E-03-0.584E-04
CGA:  10    -0.128296456933E+04   -0.17317E-03   -0.13870E-03 10640   0.433E-03-0.146E-03
CGA:  11    -0.128296465915E+04   -0.89819E-04   -0.61833E-04 10640   0.245E-03-0.778E-04
CGA:  12    -0.128296473175E+04   -0.72603E-04   -0.63260E-04 10640   0.184E-03-0.381E-04
CGA:  13    -0.128296480424E+04   -0.72492E-04   -0.56835E-04 10640   0.374E-03-0.862E-04
CGA:  14    -0.128296483728E+04   -0.33036E-04   -0.33606E-04 10640   0.235E-03 0.694E-06
CGA:  15    -0.128296485557E+04   -0.18291E-04   -0.30260E-04 10640   0.177E-03 0.303E-04
CGA:  16    -0.128296491164E+04   -0.56073E-04   -0.54933E-04 10640   0.154E-03-0.617E-05
CGA:  17    -0.128296494231E+04   -0.30673E-04   -0.21939E-04 10640   0.891E-04-0.258E-04
CGA:  18    -0.128296494408E+04   -0.17657E-05   -0.10812E-04 10640   0.697E-04 0.273E-04
  46 F= -.12829649E+04 E0= -.12829649E+04  d E =-.259172E-01  mag=    47.0000
       N       E                     dE             d eps       ncg     rms          ort
SDA:   1    -0.128199024434E+04    0.97470E+00    0.00000E+00 10640   0.281E+01 0.000E+00
CGA:   2    -0.128264559142E+04   -0.65535E+00   -0.65572E+00 10640   0.124E+01 0.189E-02
CGA:   3    -0.128291957045E+04   -0.27398E+00   -0.27395E+00 10640   0.285E+00 0.852E-03
CGA:   4    -0.128296409486E+04   -0.44524E-01   -0.44242E-01 10640   0.620E-01-0.557E-03
CGA:   5    -0.128297467948E+04   -0.10585E-01   -0.10451E-01 10640   0.183E-01-0.692E-03
CGA:   6    -0.128297767813E+04   -0.29987E-02   -0.29943E-02 10640   0.522E-02 0.374E-04
CGA:   7    -0.128297886062E+04   -0.11825E-02   -0.11590E-02 10640   0.180E-02-0.143E-03
CGA:   8    -0.128297916623E+04   -0.30561E-03   -0.32163E-03 10640   0.720E-03 0.880E-04
CGA:   9    -0.128297944913E+04   -0.28290E-03   -0.28821E-03 10640   0.878E-03-0.312E-03
CGA:  10    -0.128297954495E+04   -0.95813E-04   -0.82405E-04 10640   0.456E-03-0.654E-04
CGA:  11    -0.128297966022E+04   -0.11527E-03   -0.10667E-03 10640   0.391E-03-0.840E-04
CGA:  12    -0.128297975950E+04   -0.99279E-04   -0.72861E-04 10640   0.418E-03-0.217E-03
CGA:  13    -0.128297979416E+04   -0.34663E-04   -0.51288E-04 10640   0.139E-03 0.759E-04
CGA:  14    -0.128297983472E+04   -0.40557E-04   -0.41633E-04 10640   0.640E-04 0.136E-04
CGA:  15    -0.128297986751E+04   -0.32787E-04   -0.32939E-04 10640   0.128E-03-0.129E-05
CGA:  16    -0.128297987287E+04   -0.53618E-05   -0.15527E-04 10640   0.522E-04 0.478E-04
  47 F= -.12829799E+04 E0= -.12829799E+04  d E =-.149288E-01  mag=    47.0000
       N       E                     dE             d eps       ncg     rms          ort
SDA:   1    -0.128185984770E+04    0.11200E+01    0.00000E+00 10640   0.302E+01 0.000E+00
CGA:   2    -0.128263822795E+04   -0.77838E+00   -0.77857E+00 10640   0.139E+01 0.422E-02
CGA:   3    -0.128293208795E+04   -0.29386E+00   -0.29368E+00 10640   0.287E+00-0.288E-02
CGA:   4    -0.128297690182E+04   -0.44814E-01   -0.44786E-01 10640   0.689E-01 0.939E-03
CGA:   5    -0.128298865247E+04   -0.11751E-01   -0.11559E-01 10640   0.201E-01-0.167E-02
CGA:   6    -0.128299201955E+04   -0.33671E-02   -0.33425E-02 10640   0.556E-02-0.158E-03
CGA:   7    -0.128299328661E+04   -0.12671E-02   -0.12638E-02 10640   0.173E-02-0.524E-04
CGA:   8    -0.128299370374E+04   -0.41713E-03   -0.40830E-03 10640   0.117E-02-0.192E-03
CGA:   9    -0.128299395956E+04   -0.25582E-03   -0.24731E-03 10640   0.694E-03-0.194E-03
CGA:  10    -0.128299413837E+04   -0.17881E-03   -0.18972E-03 10640   0.629E-03-0.225E-03
CGA:  11    -0.128299418765E+04   -0.49276E-04   -0.20253E-03 10640   0.246E-02-0.787E-03
CGA:  12    -0.128299436400E+04   -0.17635E-03   -0.22179E-03 10640   0.309E-03 0.239E-03
CGA:  13    -0.128299442884E+04   -0.64840E-04   -0.72247E-04 10640   0.166E-03 0.108E-03
CGA:  14    -0.128299448571E+04   -0.56865E-04   -0.55370E-04 10640   0.230E-03-0.485E-04
CGA:  15    -0.128299449729E+04   -0.11587E-04   -0.18998E-04 10640   0.167E-03 0.463E-04
CGA:  16    -0.128299449979E+04   -0.24972E-05   -0.15265E-04 10640   0.766E-04 0.665E-04
CGA:  17    -0.128299450362E+04   -0.38276E-05   -0.11041E-04 10640   0.675E-04 0.463E-04
CGA:  18    -0.128299379452E+04    0.70910E-03   -0.38693E-03 10640   0.975E-02-0.591E-03
CGA:  19    -0.128299451459E+04   -0.72006E-03   -0.81212E-03 10640   0.185E-03 0.433E-03
CGA:  20    -0.128299452717E+04   -0.12587E-04   -0.29770E-04 10640   0.849E-04 0.605E-04
CGA:  21    -0.128299455545E+04   -0.28277E-04   -0.27156E-04 10640   0.286E-04-0.598E-05
CGA:  22    -0.128299455734E+04   -0.18860E-05   -0.33273E-05 10640   0.129E-04 0.500E-05
  48 F= -.12829946E+04 E0= -.12829946E+04  d E =-.146845E-01  mag=    47.0000
       N       E                     dE             d eps       ncg     rms          ort
SDA:   1    -0.127973729642E+04    0.32573E+01    0.00000E+00 10640   0.910E+01 0.000E+00
CGA:   2    -0.128195328913E+04   -0.22160E+01   -0.22159E+01 10640   0.409E+01 0.679E-02
CGA:   3    -0.128285982376E+04   -0.90653E+00   -0.90588E+00 10640   0.850E+00-0.104E-01
CGA:   4    -0.128299754361E+04   -0.13772E+00   -0.13755E+00 10640   0.176E+00 0.822E-03
CGA:   5    -0.128302970672E+04   -0.32163E-01   -0.31914E-01 10640   0.513E-01-0.220E-02
CGA:   6    -0.128303858461E+04   -0.88779E-02   -0.86860E-02 10640   0.173E-01-0.858E-03
CGA:   7    -0.128304238575E+04   -0.38011E-02   -0.36884E-02 10640   0.530E-02-0.852E-03
CGA:   8    -0.128304368451E+04   -0.12988E-02   -0.12339E-02 10640   0.332E-02-0.664E-03
CGA:   9    -0.128304457593E+04   -0.89142E-03   -0.83699E-03 10640   0.286E-02-0.112E-02
CGA:  10    -0.128304517580E+04   -0.59987E-03   -0.55949E-03 10640   0.208E-02-0.106E-02
CGA:  11    -0.128304376186E+04    0.14139E-02   -0.11511E-02 10640   0.247E-01-0.464E-02
CGA:  12    -0.128304602585E+04   -0.22640E-02   -0.24079E-02 10640   0.290E-02 0.981E-03
CGA:  13    -0.128304675205E+04   -0.72619E-03   -0.76210E-03 10640   0.877E-03 0.384E-03
CGA:  14    -0.128304704827E+04   -0.29623E-03   -0.29226E-03 10640   0.107E-02-0.825E-04
CGA:  15    -0.128304713235E+04   -0.84081E-04   -0.14299E-03 10640   0.421E-03 0.308E-03
CGA:  16    -0.128304713612E+04   -0.37714E-05   -0.51950E-04 10640   0.169E-03 0.206E-03
CGA:  17    -0.128304714425E+04   -0.81226E-05   -0.30480E-04 10640   0.114E-03 0.113E-03
CGA:  18    -0.128304716571E+04   -0.21465E-04   -0.60166E-04 10640   0.800E-03-0.175E-03
CGA:  19    -0.128304717718E+04   -0.11467E-04   -0.63288E-04 10640   0.742E-04 0.219E-03
CGA:  20    -0.128304716787E+04    0.93138E-05   -0.44741E-05 10640   0.315E-04 0.531E-04
  49 F= -.12830472E+04 E0= -.12830472E+04  d E =-.526105E-01  mag=    47.0000
       N       E                     dE             d eps       ncg     rms          ort
SDA:   1    -0.127937208228E+04    0.36751E+01    0.00000E+00 10640   0.980E+01 0.000E+00
CGA:   2    -0.128196062036E+04   -0.25885E+01   -0.25883E+01 10640   0.447E+01-0.741E-02
CGA:   3    -0.128291015995E+04   -0.94954E+00   -0.94950E+00 10640   0.835E+00-0.438E-02
CGA:   4    -0.128305422213E+04   -0.14406E+00   -0.14413E+00 10640   0.164E+00 0.267E-03
CGA:   5    -0.128308643701E+04   -0.32215E-01   -0.32275E-01 10640   0.360E-01 0.864E-03
CGA:   6    -0.128309497496E+04   -0.85380E-02   -0.84698E-02 10640   0.148E-01-0.195E-02
CGA:   7    -0.128309761615E+04   -0.26412E-02   -0.25860E-02 10640   0.503E-02-0.626E-03
CGA:   8    -0.128309886250E+04   -0.12464E-02   -0.12415E-02 10640   0.342E-02-0.883E-03
CGA:   9    -0.128309953906E+04   -0.67656E-03   -0.65780E-03 10640   0.205E-02-0.624E-03
CGA:  10    -0.128310004313E+04   -0.50407E-03   -0.60917E-03 10640   0.208E-02-0.102E-02
CGA:  11    -0.128310035000E+04   -0.30687E-03   -0.29676E-03 10640   0.646E-03-0.771E-04
CGA:  12    -0.128310049087E+04   -0.14087E-03   -0.29965E-03 10640   0.207E-02-0.717E-03
CGA:  13    -0.128310068867E+04   -0.19780E-03   -0.21964E-03 10640   0.329E-03 0.140E-03
CGA:  14    -0.128310078076E+04   -0.92093E-04   -0.92008E-04 10640   0.117E-03-0.547E-04
CGA:  15    -0.128310085190E+04   -0.71143E-04    0.33597E-04 10640   0.835E-04 0.596E-04
CGA:  16    -0.128310089809E+04   -0.46190E-04    0.21412E-03 10640   0.636E-04 0.275E-04
CGA:  17    -0.128310097536E+04   -0.77269E-04    0.15039E-04 10640   0.555E-04 0.438E-04
CGA:  18    -0.128310100348E+04   -0.28123E-04   -0.37876E-04 10640   0.243E-03-0.233E-04
CGA:  19    -0.128310108753E+04   -0.84050E-04    0.41293E-03 10640   0.350E-03-0.858E-04
CGA:  20    -0.128310125223E+04   -0.16469E-03    0.11467E-03 10640   0.679E-03-0.413E-04
CGA:  21    -0.128310061004E+04    0.64218E-03   -0.56428E-03 10640   0.381E-02-0.187E-02
CGA:  22    -0.128310118139E+04   -0.57135E-03   -0.55429E-03 10640   0.135E-02-0.995E-04
CGA:  23    -0.128310134297E+04   -0.16158E-03   -0.20960E-03 10640   0.188E-03 0.325E-03
CGA:  24    -0.128310132830E+04    0.14675E-04   -0.20209E-04 10640   0.138E-03 0.163E-03
CGA:  25    -0.128310131993E+04    0.83720E-05   -0.14785E-04 10640   0.122E-03 0.127E-03
CGA:  26    -0.128310131101E+04    0.89112E-05   -0.12300E-04 10640   0.114E-03 0.118E-03
CGA:  27    -0.128310130271E+04    0.83067E-05   -0.11059E-04 10640   0.108E-03 0.111E-03
  50 F= -.12831013E+04 E0= -.12831013E+04  d E =-.541348E-01  mag=    47.0000
       N       E                     dE             d eps       ncg     rms          ort
SDA:   1    -0.127749929477E+04    0.56020E+01    0.00000E+00 10640   0.145E+02 0.000E+00
CGA:   2    -0.128138805451E+04   -0.38888E+01   -0.38889E+01 10640   0.689E+01-0.119E-01
CGA:   3    -0.128281438343E+04   -0.14263E+01   -0.14257E+01 10640   0.132E+01-0.986E-03
CGA:   4    -0.128302245661E+04   -0.20807E+00   -0.20864E+00 10640   0.301E+00-0.675E-03
CGA:   5    -0.128307319071E+04   -0.50734E-01   -0.50853E-01 10640   0.837E-01 0.388E-02
CGA:   6    -0.128308833233E+04   -0.15142E-01   -0.15099E-01 10640   0.258E-01-0.650E-03
CGA:   7    -0.128309412314E+04   -0.57908E-02   -0.57726E-02 10640   0.825E-02-0.118E-02
CGA:   8    -0.128309580391E+04   -0.16808E-02   -0.16732E-02 10640   0.395E-02-0.258E-03
CGA:   9    -0.128309666660E+04   -0.86269E-03   -0.86337E-03 10640   0.174E-02 0.576E-04
CGA:  10    -0.128309717396E+04   -0.50736E-03   -0.52456E-03 10640   0.138E-02-0.286E-03
CGA:  11    -0.128309734795E+04   -0.17399E-03   -0.18234E-03 10640   0.436E-03 0.102E-03
CGA:  12    -0.128309750921E+04   -0.16126E-03   -0.17108E-03 10640   0.367E-03-0.772E-04
CGA:  13    -0.128309754802E+04   -0.38810E-04   -0.13959E-03 10640   0.195E-02-0.459E-03
CGA:  14    -0.128309766948E+04   -0.12146E-03   -0.16728E-03 10640   0.231E-03 0.282E-03
CGA:  15    -0.128309768578E+04   -0.16301E-04   -0.33498E-04 10640   0.156E-03 0.144E-03
CGA:  16    -0.128309772965E+04   -0.43868E-04   -0.46411E-04 10640   0.324E-03-0.437E-04
CGA:  17    -0.128309774496E+04   -0.15304E-04   -0.28586E-04 10640   0.206E-03 0.110E-03
CGA:  18    -0.128309774425E+04    0.70996E-06   -0.17736E-04 10640   0.580E-04 0.107E-03
  51 F= -.12830977E+04 E0= -.12830977E+04  d E =0.355846E-02  mag=    47.0000
       N       E                     dE             d eps       ncg     rms          ort
SDA:   1    -0.127387556424E+04    0.92222E+01    0.00000E+00 10640   0.239E+02 0.000E+00
CGA:   2    -0.128024032228E+04   -0.63648E+01   -0.63652E+01 10640   0.114E+02-0.106E-01
CGA:   3    -0.128262661738E+04   -0.23863E+01   -0.23860E+01 10640   0.211E+01-0.980E-02
CGA:   4    -0.128295654791E+04   -0.32993E+00   -0.33049E+00 10640   0.493E+00-0.979E-03
CGA:   5    -0.128303941457E+04   -0.82867E-01   -0.82904E-01 10640   0.142E+00 0.404E-02
CGA:   6    -0.128306471712E+04   -0.25303E-01   -0.25283E-01 10640   0.426E-01-0.498E-03
CGA:   7    -0.128307436801E+04   -0.96509E-02   -0.96777E-02 10640   0.139E-01-0.213E-02
CGA:   8    -0.128307720093E+04   -0.28329E-02   -0.28312E-02 10640   0.712E-02-0.747E-03
CGA:   9    -0.128307873637E+04   -0.15354E-02   -0.15369E-02 10640   0.329E-02-0.110E-03
CGA:  10    -0.128307970544E+04   -0.96907E-03   -0.10877E-02 10640   0.355E-02-0.996E-03
CGA:  11    -0.128308009965E+04   -0.39421E-03   -0.38687E-03 10640   0.128E-02-0.105E-03
CGA:  12    -0.128308044171E+04   -0.34207E-03   -0.34419E-03 10640   0.121E-02-0.387E-04
CGA:  13    -0.128308070784E+04   -0.26612E-03   -0.27075E-03 10640   0.152E-02-0.542E-03
CGA:  14    -0.128308094021E+04   -0.23237E-03   -0.26093E-03 10640   0.168E-02-0.332E-03
CGA:  15    -0.128308104808E+04   -0.10788E-03   -0.15449E-03 10640   0.121E-02 0.423E-03
CGA:  16    -0.128308121113E+04   -0.16305E-03   -0.21545E-03 10640   0.844E-03 0.661E-03
CGA:  17    -0.128308143016E+04   -0.21903E-03   -0.27035E-03 10640   0.192E-02-0.497E-03
CGA:  18    -0.128308150704E+04   -0.76880E-04   -0.14209E-03 10640   0.199E-03 0.447E-03
CGA:  19    -0.128308149439E+04    0.12653E-04   -0.12791E-04 10640   0.126E-03 0.156E-03
CGA:  20    -0.128308149060E+04    0.37911E-05   -0.10273E-04 10640   0.105E-03 0.112E-03
CGA:  21    -0.128308149072E+04   -0.11594E-06   -0.10201E-04 10640   0.919E-04 0.970E-04
  52 F= -.12830815E+04 E0= -.12830815E+04  d E =0.162535E-01  mag=    47.0000
       N       E                     dE             d eps       ncg     rms          ort
SDA:   1    -0.124342224430E+04    0.39659E+02    0.00000E+00 10640   0.112E+03 0.000E+00
CGA:   2    -0.126950621877E+04   -0.26084E+02   -0.26062E+02 10640   0.495E+02 0.371E+00
CGA:   3    -0.128078238308E+04   -0.11276E+02   -0.11287E+02 10640   0.108E+02-0.206E+00
CGA:   4    -0.128245992654E+04   -0.16775E+01   -0.16817E+01 10640   0.209E+01 0.306E-01
CGA:   5    -0.128284070936E+04   -0.38078E+00   -0.38080E+00 10640   0.637E+00 0.106E-01
CGA:   6    -0.128294861174E+04   -0.10790E+00   -0.10793E+00 10640   0.218E+00 0.105E-02
CGA:   7    -0.128299363725E+04   -0.45026E-01   -0.45127E-01 10640   0.685E-01-0.586E-02
CGA:   8    -0.128300816882E+04   -0.14532E-01   -0.14675E-01 10640   0.342E-01-0.505E-02
CGA:   9    -0.128301546027E+04   -0.72914E-02   -0.73387E-02 10640   0.158E-01-0.114E-02
CGA:  10    -0.128301971112E+04   -0.42509E-02   -0.45129E-02 10640   0.112E-01-0.259E-02
CGA:  11    -0.128302131444E+04   -0.16033E-02   -0.16056E-02 10640   0.438E-02 0.100E-03
CGA:  12    -0.128302256312E+04   -0.12487E-02   -0.12503E-02 10640   0.231E-02-0.213E-04
CGA:  13    -0.128302332847E+04   -0.76535E-03   -0.88812E-03 10640   0.388E-02-0.677E-03
CGA:  14    -0.128302368297E+04   -0.35450E-03   -0.41205E-03 10640   0.233E-02 0.918E-03
CGA:  15    -0.128302391357E+04   -0.23060E-03   -0.33405E-03 10640   0.154E-02 0.111E-02
CGA:  16    -0.128302424101E+04   -0.32744E-03   -0.37206E-03 10640   0.132E-02 0.111E-02
CGA:  17    -0.128302453395E+04   -0.29294E-03   -0.30685E-03 10640   0.151E-02-0.451E-03
CGA:  18    -0.128302465071E+04   -0.11677E-03   -0.14895E-03 10640   0.103E-02 0.600E-03
CGA:  19    -0.128302468220E+04   -0.31487E-04   -0.11263E-03 10640   0.292E-03 0.661E-03
CGA:  20    -0.128302468788E+04   -0.56759E-05   -0.28153E-04 10640   0.208E-03 0.227E-03
CGA:  21    -0.128302470494E+04   -0.17066E-04   -0.27880E-04 10640   0.185E-03 0.193E-03
CGA:  22    -0.128302472284E+04   -0.17901E-04   -0.26165E-04 10640   0.174E-03 0.179E-03
CGA:  23    -0.128302473887E+04   -0.16028E-04   -0.23975E-04 10640   0.165E-03 0.169E-03
CGA:  24    -0.128302475403E+04   -0.15156E-04   -0.22593E-04 10640   0.158E-03 0.161E-03
CGA:  25    -0.128302476872E+04   -0.14694E-04   -0.21552E-04 10640   0.152E-03 0.155E-03
CGA:  26    -0.128302478269E+04   -0.13971E-04   -0.20464E-04 10640   0.146E-03 0.149E-03
CGA:  27    -0.128302479623E+04   -0.13537E-04   -0.19583E-04 10640   0.141E-03 0.143E-03
CGA:  28    -0.128302480918E+04   -0.12945E-04   -0.18674E-04 10640   0.136E-03 0.138E-03
CGA:  29    -0.128302482165E+04   -0.12479E-04   -0.17874E-04 10640   0.131E-03 0.134E-03
CGA:  30    -0.128302483361E+04   -0.11955E-04   -0.17086E-04 10640   0.127E-03 0.129E-03
CGA:  31    -0.128302484509E+04   -0.11482E-04   -0.16359E-04 10640   0.123E-03 0.125E-03
CGA:  32    -0.128302485608E+04   -0.10993E-04   -0.15657E-04 10640   0.119E-03 0.121E-03
CGA:  33    -0.128302486661E+04   -0.10526E-04   -0.14995E-04 10640   0.116E-03 0.117E-03
CGA:  34    -0.128302487667E+04   -0.10060E-04   -0.14361E-04 10640   0.112E-03 0.114E-03
CGA:  35    -0.128302488628E+04   -0.96103E-05   -0.13761E-04 10640   0.109E-03 0.111E-03
CGA:  36    -0.128302489545E+04   -0.91698E-05   -0.13187E-04 10640   0.106E-03 0.107E-03
CGA:  37    -0.128302490419E+04   -0.87423E-05   -0.12639E-04 10640   0.103E-03 0.105E-03
CGA:  38    -0.128302491252E+04   -0.83276E-05   -0.12117E-04 10640   0.101E-03 0.102E-03
CGA:  39    -0.128302492045E+04   -0.79272E-05   -0.11618E-04 10640   0.980E-04 0.992E-04
CGA:  40    -0.128302492799E+04   -0.75408E-05   -0.11142E-04 10640   0.956E-04 0.968E-04
CGA:  41    -0.128302493516E+04   -0.71688E-05   -0.10686E-04 10640   0.933E-04 0.944E-04
CGA:  42    -0.128302494197E+04   -0.68107E-05   -0.10251E-04 10640   0.911E-04 0.922E-04
  53 F= -.12830249E+04 E0= -.12830249E+04  d E =0.565487E-01  mag=    47.0000
       N       E                     dE             d eps       ncg     rms          ort
SDA:   1    -0.127102222939E+04    0.12003E+02    0.00000E+00 10640   0.371E+02 0.000E+00
CGA:   2    -0.127877253748E+04   -0.77503E+01   -0.77508E+01 10640   0.148E+02 0.539E-02
