       N       E                     dE             d eps       ncg     rms          rms(c)
DAV:   1     0.307217363515E+04    0.30722E+04   -0.25838E+05 73596   0.131E+03
DAV:   2    -0.610268295402E+03   -0.36824E+04   -0.35488E+04 89688   0.297E+02
DAV:   3    -0.872105924953E+03   -0.26184E+03   -0.26016E+03 89100   0.838E+01
DAV:   4    -0.875379871186E+03   -0.32739E+01   -0.32620E+01 89400   0.101E+01
DAV:   5    -0.875435342180E+03   -0.55471E-01   -0.55337E-01 91128   0.121E+00    0.991E+01
DAV:   6    -0.779248482220E+03    0.96187E+02   -0.40695E+02 83400   0.320E+01    0.505E+01
DAV:   7    -0.788507747032E+03   -0.92593E+01   -0.22169E+01 83136   0.770E+00    0.163E+01
DAV:   8    -0.792547026838E+03   -0.40393E+01   -0.16061E+00 87348   0.246E+00    0.789E+00
DAV:   9    -0.794791832081E+03   -0.22448E+01   -0.10400E+00 88464   0.173E+00    0.386E+00
DAV:  10    -0.795298191030E+03   -0.50636E+00   -0.28087E-01 84264   0.928E-01    0.112E+00
DAV:  11    -0.795373340603E+03   -0.75150E-01   -0.43527E-02 86916   0.369E-01    0.615E-01
DAV:  12    -0.795383408819E+03   -0.10068E-01   -0.49796E-03 86016   0.137E-01    0.286E-01
DAV:  13    -0.795385961325E+03   -0.25525E-02   -0.15297E-03 86436   0.739E-02    0.938E-02
DAV:  14    -0.795386428619E+03   -0.46729E-03   -0.32948E-04 84744   0.343E-02    0.438E-02
DAV:  15    -0.795386465383E+03   -0.36764E-04   -0.46526E-05 84708   0.172E-02    0.280E-02
DAV:  16    -0.795386481874E+03   -0.16491E-04   -0.17750E-05 65748   0.102E-02    0.117E-02
DAV:  17    -0.795386484668E+03   -0.27934E-05   -0.61928E-06 60732   0.747E-03
   1 F= -.79538648E+03 E0= -.79538648E+03  d E =-.795386E+03  mag=    -0.0016
       N       E                     dE             d eps       ncg     rms          rms(c)
DAV:   1    -0.795396487578E+03   -0.10006E-01   -0.43201E-03 78084   0.103E-01    0.284E-02
DAV:   2    -0.795396493003E+03   -0.54246E-05   -0.99094E-05 88392   0.134E-02    0.992E-03
DAV:   3    -0.795396490655E+03    0.23476E-05   -0.25165E-06 48804   0.397E-03    0.529E-03
DAV:   4    -0.795396489837E+03    0.81776E-06   -0.26468E-06 46188   0.331E-03
   2 F= -.79539649E+03 E0= -.79539649E+03  d E =-.100052E-01  mag=    -0.0002
       N       E                     dE             d eps       ncg     rms          rms(c)
DAV:   1    -0.795624205055E+03   -0.22771E+00   -0.30568E+00 75084   0.274E+00    0.756E-01
DAV:   2    -0.795628421519E+03   -0.42165E-02   -0.69181E-02 89472   0.349E-01    0.249E-01
DAV:   3    -0.795627046914E+03    0.13746E-02   -0.18837E-03 91584   0.100E-01    0.128E-01
DAV:   4    -0.795626753378E+03    0.29354E-03   -0.13683E-03 90300   0.647E-02    0.466E-02
DAV:   5    -0.795626747654E+03    0.57241E-05   -0.25528E-04 89040   0.323E-02    0.369E-02
DAV:   6    -0.795626743361E+03    0.42926E-05   -0.16207E-05 69996   0.997E-03
   3 F= -.79562674E+03 E0= -.79562674E+03  d E =-.230254E+00  mag=    -0.0000
       N       E                     dE             d eps       ncg     rms          rms(c)
DAV:   1    -0.795928018323E+03   -0.30127E+00   -0.11037E+01 73440   0.530E+00    0.115E+00
DAV:   2    -0.795944509138E+03   -0.16491E-01   -0.25105E-01 88992   0.695E-01    0.469E-01
DAV:   3    -0.795939892238E+03    0.46169E-02   -0.64795E-03 91356   0.186E-01    0.248E-01
DAV:   4    -0.795938745042E+03    0.11472E-02   -0.48038E-03 90636   0.128E-01    0.872E-02
DAV:   5    -0.795938726125E+03    0.18916E-04   -0.97233E-04 89664   0.671E-02    0.658E-02
DAV:   6    -0.795938717473E+03    0.86519E-05   -0.82693E-05 90420   0.197E-02
   4 F= -.79593872E+03 E0= -.79593872E+03  d E =-.311974E+00  mag=    -0.0000
       N       E                     dE             d eps       ncg     rms          rms(c)
DAV:   1    -0.796089707618E+03   -0.15098E+00   -0.71488E+00 73452   0.448E+00    0.620E-01
DAV:   2    -0.796103235640E+03   -0.13528E-01   -0.17643E-01 88848   0.620E-01    0.414E-01
DAV:   3    -0.796100671564E+03    0.25641E-02   -0.34075E-03 89268   0.138E-01    0.228E-01
DAV:   4    -0.796099720661E+03    0.95090E-03   -0.29331E-03 87912   0.101E-01    0.756E-02
DAV:   5    -0.796099656780E+03    0.63880E-04   -0.56955E-04 92196   0.569E-02    0.323E-02
DAV:   6    -0.796099660230E+03   -0.34493E-05   -0.11050E-04 89472   0.196E-02    0.257E-02
DAV:   7    -0.796099651618E+03    0.86115E-05   -0.89622E-06 60600   0.882E-03
   5 F= -.79609965E+03 E0= -.79609965E+03  d E =-.160934E+00  mag=    -0.0000
       N       E                     dE             d eps       ncg     rms          rms(c)
DAV:   1    -0.796184026631E+03   -0.84366E-01   -0.12429E+01 73440   0.608E+00    0.107E+00
DAV:   2    -0.796207729089E+03   -0.23702E-01   -0.29145E-01 89004   0.824E-01    0.438E-01
DAV:   3    -0.796203994698E+03    0.37344E-02   -0.72907E-03 89964   0.202E-01    0.224E-01
DAV:   4    -0.796203148722E+03    0.84598E-03   -0.36375E-03 89988   0.115E-01    0.905E-02
DAV:   5    -0.796203119536E+03    0.29186E-04   -0.57161E-04 89040   0.498E-02    0.509E-02
DAV:   6    -0.796203123106E+03   -0.35697E-05   -0.69120E-05 90600   0.176E-02
   6 F= -.79620312E+03 E0= -.79620312E+03  d E =-.103471E+00  mag=    -0.0000
       N       E                     dE             d eps       ncg     rms          rms(c)
DAV:   1    -0.796232340671E+03   -0.29221E-01   -0.16743E+01 73440   0.724E+00    0.109E+00
DAV:   2    -0.796262180502E+03   -0.29840E-01   -0.36763E-01 89304   0.979E-01    0.452E-01
DAV:   3    -0.796258863043E+03    0.33175E-02   -0.95234E-03 90996   0.210E-01    0.259E-01
DAV:   4    -0.796257720946E+03    0.11421E-02   -0.38642E-03 89748   0.132E-01    0.114E-01
DAV:   5    -0.796257571803E+03    0.14914E-03   -0.72968E-04 90744   0.665E-02    0.535E-02
DAV:   6    -0.796257570883E+03    0.92002E-06   -0.27312E-04 89352   0.345E-02    0.395E-02
DAV:   7    -0.796257559143E+03    0.11740E-04   -0.17122E-05 69816   0.129E-02    0.222E-02
DAV:   8    -0.796257552024E+03    0.71188E-05   -0.15743E-05 75300   0.117E-02
   7 F= -.79625755E+03 E0= -.79625755E+03  d E =-.544289E-01  mag=    -0.0000
       N       E                     dE             d eps       ncg     rms          rms(c)
DAV:   1    -0.796240054140E+03    0.17505E-01   -0.13978E+01 73440   0.675E+00    0.143E+00
DAV:   2    -0.796267533775E+03   -0.27480E-01   -0.33179E-01 89124   0.961E-01    0.456E-01
DAV:   3    -0.796264193416E+03    0.33404E-02   -0.86159E-03 91548   0.206E-01    0.233E-01
DAV:   4    -0.796263230162E+03    0.96325E-03   -0.29894E-03 90468   0.125E-01    0.923E-02
DAV:   5    -0.796263150482E+03    0.79681E-04   -0.68246E-04 90720   0.658E-02    0.513E-02
DAV:   6    -0.796263142268E+03    0.82133E-05   -0.19829E-04 89748   0.310E-02    0.360E-02
DAV:   7    -0.796263127600E+03    0.14669E-04   -0.15833E-05 68832   0.136E-02    0.179E-02
DAV:   8    -0.796263120045E+03    0.75543E-05   -0.14613E-05 74844   0.139E-02
   8 F= -.79626312E+03 E0= -.79626312E+03  d E =-.556802E-02  mag=    -0.0000
       N       E                     dE             d eps       ncg     rms          rms(c)
DAV:   1    -0.796278849536E+03   -0.15722E-01   -0.37086E+00 73440   0.340E+00    0.121E+00
DAV:   2    -0.796288230671E+03   -0.93811E-02   -0.12244E-01 89796   0.562E-01    0.427E-01
DAV:   3    -0.796285722133E+03    0.25085E-02   -0.28052E-03 91476   0.134E-01    0.189E-01
DAV:   4    -0.796285027925E+03    0.69421E-03   -0.18283E-03 89364   0.108E-01    0.629E-02
DAV:   5    -0.796285007936E+03    0.19989E-04   -0.61025E-04 92928   0.599E-02    0.483E-02
DAV:   6    -0.796284994643E+03    0.13293E-04   -0.75664E-05 87168   0.174E-02    0.305E-02
DAV:   7    -0.796284977983E+03    0.16660E-04   -0.28283E-05 77796   0.120E-02    0.134E-02
DAV:   8    -0.796284971509E+03    0.64732E-05   -0.88969E-06 67332   0.138E-02
   9 F= -.79628497E+03 E0= -.79628497E+03  d E =-.218515E-01  mag=     0.0000
       N       E                     dE             d eps       ncg     rms          rms(c)
DAV:   1    -0.796297353696E+03   -0.12376E-01   -0.81167E-01 73548   0.148E+00    0.404E-01
DAV:   2    -0.796298906047E+03   -0.15524E-02   -0.20633E-02 88500   0.213E-01    0.129E-01
DAV:   3    -0.796298536540E+03    0.36951E-03   -0.37372E-04 91152   0.475E-02    0.636E-02
DAV:   4    -0.796298417455E+03    0.11909E-03   -0.33807E-04 88548   0.430E-02    0.168E-02
DAV:   5    -0.796298418654E+03   -0.11993E-05   -0.92334E-05 90900   0.200E-02
  10 F= -.79629842E+03 E0= -.79629842E+03  d E =-.134471E-01  mag=    -0.0000
       N       E                     dE             d eps       ncg     rms          rms(c)
DAV:   1    -0.796308155209E+03   -0.97378E-02   -0.31621E+00 73440   0.315E+00    0.436E-01
DAV:   2    -0.796313977989E+03   -0.58228E-02   -0.69660E-02 87672   0.427E-01    0.182E-01
DAV:   3    -0.796313293609E+03    0.68438E-03   -0.99913E-04 91788   0.769E-02    0.106E-01
DAV:   4    -0.796312998884E+03    0.29473E-03   -0.94218E-04 88632   0.753E-02    0.325E-02
DAV:   5    -0.796313000082E+03   -0.11986E-05   -0.24638E-04 90384   0.345E-02    0.269E-02
DAV:   6    -0.796312993291E+03    0.67913E-05   -0.51827E-05 85512   0.157E-02
  11 F= -.79631299E+03 E0= -.79631299E+03  d E =-.145746E-01  mag=    -0.0000
       N       E                     dE             d eps       ncg     rms          rms(c)
DAV:   1    -0.796311373026E+03    0.16271E-02   -0.93373E+00 73440   0.563E+00    0.542E-01
DAV:   2    -0.796328924360E+03   -0.17551E-01   -0.19810E-01 87456   0.759E-01    0.285E-01
DAV:   3    -0.796327716156E+03    0.12082E-02   -0.23616E-03 91872   0.110E-01    0.178E-01
DAV:   4    -0.796327068422E+03    0.64773E-03   -0.21433E-03 88992   0.117E-01    0.574E-02
DAV:   5    -0.796327073257E+03   -0.48351E-05   -0.53517E-04 89016   0.494E-02    0.408E-02
DAV:   6    -0.796327064863E+03    0.83934E-05   -0.16290E-04 89160   0.277E-02    0.193E-02
DAV:   7    -0.796327060117E+03    0.47464E-05   -0.13315E-05 57216   0.110E-02
  12 F= -.79632706E+03 E0= -.79632706E+03  d E =-.140668E-01  mag=     0.0000
       N       E                     dE             d eps       ncg     rms          rms(c)
DAV:   1    -0.794835149349E+03    0.14919E+01   -0.11444E+02 73440   0.188E+01    0.100E+01
DAV:   2    -0.795086723583E+03   -0.25157E+00   -0.38936E+00 90204   0.314E+00    0.258E+00
DAV:   3    -0.794983183286E+03    0.10354E+00   -0.12382E-01 90804   0.758E-01    0.109E+00
DAV:   4    -0.794949608247E+03    0.33575E-01   -0.66466E-02 89376   0.632E-01    0.462E-01
DAV:   5    -0.794948588212E+03    0.10200E-02   -0.25951E-02 91116   0.338E-01    0.344E-01
DAV:   6    -0.794947606217E+03    0.98199E-03   -0.24742E-03 90264   0.104E-01    0.137E-01
DAV:   7    -0.794946724315E+03    0.88190E-03   -0.13025E-03 90780   0.132E-01    0.550E-02
DAV:   8    -0.794946614502E+03    0.10981E-03   -0.84671E-04 93360   0.949E-02    0.416E-02
DAV:   9    -0.794946629628E+03   -0.15126E-04   -0.44147E-04 89964   0.429E-02    0.456E-02
DAV:  10    -0.794946622092E+03    0.75352E-05   -0.25075E-05 71364   0.954E-03
  13 F= -.79494662E+03 E0= -.79494662E+03  d E =0.138044E+01  mag=     0.0000
       N       E                     dE             d eps       ncg     rms          rms(c)
DAV:   1    -0.795992801333E+03   -0.10462E+01   -0.19574E+01 73440   0.714E+00    0.388E+00
DAV:   2    -0.796056397304E+03   -0.63596E-01   -0.94201E-01 89988   0.137E+00    0.207E+00
DAV:   3    -0.796033283209E+03    0.23114E-01   -0.25302E-02 91752   0.330E-01    0.140E+00
DAV:   4    -0.796021314067E+03    0.11969E-01   -0.25384E-02 88272   0.392E-01    0.172E-01
DAV:   5    -0.796021850817E+03   -0.53675E-03   -0.95508E-03 90600   0.176E-01    0.168E-01
DAV:   6    -0.796021739732E+03    0.11109E-03   -0.39322E-04 88956   0.359E-02    0.118E-01
DAV:   7    -0.796021561268E+03    0.17846E-03   -0.30066E-04 89340   0.367E-02    0.809E-02
DAV:   8    -0.796021482000E+03    0.79268E-04   -0.31231E-04 90732   0.510E-02    0.385E-02
DAV:   9    -0.796021473693E+03    0.83074E-05   -0.11712E-04 90768   0.250E-02    0.283E-02
DAV:  10    -0.796021471877E+03    0.18155E-05   -0.29426E-05 70368   0.102E-02
  14 F= -.79602147E+03 E0= -.79602147E+03  d E =-.107485E+01  mag=     0.0000
       N       E                     dE             d eps       ncg     rms          rms(c)
DAV:   1    -0.796183490224E+03   -0.16202E+00   -0.16208E+00 75888   0.223E+00    0.103E+00
DAV:   2    -0.796187589850E+03   -0.40996E-02   -0.65857E-02 89976   0.408E-01    0.424E-01
DAV:   3    -0.796185359189E+03    0.22307E-02   -0.23319E-03 90648   0.112E-01    0.185E-01
DAV:   4    -0.796184767854E+03    0.59134E-03   -0.14012E-03 88608   0.991E-02    0.566E-02
DAV:   5    -0.796184758272E+03    0.95819E-05   -0.57637E-04 93072   0.560E-02    0.407E-02
DAV:   6    -0.796184748842E+03    0.94292E-05   -0.73332E-05 87540   0.159E-02
  15 F= -.79618475E+03 E0= -.79618475E+03  d E =-.163277E+00  mag=     0.0000
       N       E                     dE             d eps       ncg     rms          rms(c)
DAV:   1    -0.796338689628E+03   -0.15393E+00   -0.85958E+00 75888   0.520E+00    0.219E+00
DAV:   2    -0.796360424214E+03   -0.21735E-01   -0.34402E-01 90036   0.942E-01    0.907E-01
DAV:   3    -0.796349410396E+03    0.11014E-01   -0.99208E-03 90828   0.237E-01    0.417E-01
DAV:   4    -0.796345847933E+03    0.35625E-02   -0.74765E-03 88344   0.236E-01    0.115E-01
DAV:   5    -0.796345801570E+03    0.46363E-04   -0.32158E-03 93204   0.134E-01    0.875E-02
DAV:   6    -0.796345758044E+03    0.43526E-04   -0.42062E-04 89100   0.378E-02    0.649E-02
DAV:   7    -0.796345707660E+03    0.50383E-04   -0.10083E-04 87864   0.178E-02    0.378E-02
DAV:   8    -0.796345665257E+03    0.42403E-04   -0.11783E-04 90552   0.334E-02    0.204E-02
DAV:   9    -0.796345664100E+03    0.11571E-05   -0.39902E-05 87384   0.144E-02
  16 F= -.79634566E+03 E0= -.79634566E+03  d E =-.160915E+00  mag=     0.0000
       N       E                     dE             d eps       ncg     rms          rms(c)
DAV:   1    -0.796347780717E+03   -0.21155E-02   -0.10946E-01 75888   0.588E-01    0.198E-01
DAV:   2    -0.796348018612E+03   -0.23789E-03   -0.34918E-03 89748   0.977E-02    0.672E-02
DAV:   3    -0.796347932944E+03    0.85668E-04   -0.85710E-05 91788   0.224E-02    0.308E-02
DAV:   4    -0.796347903485E+03    0.29459E-04   -0.69044E-05 87408   0.206E-02    0.919E-03
DAV:   5    -0.796347902596E+03    0.88911E-06   -0.21687E-05 70068   0.116E-02
  17 F= -.79634790E+03 E0= -.79634790E+03  d E =-.223850E-02  mag=    -0.0000
       N       E                     dE             d eps       ncg     rms          rms(c)
DAV:   1    -0.796350404087E+03   -0.25006E-02   -0.48238E-01 73800   0.121E+00    0.251E-01
DAV:   2    -0.796351295787E+03   -0.89170E-03   -0.11323E-02 89304   0.172E-01    0.882E-02
DAV:   3    -0.796351151682E+03    0.14410E-03   -0.21316E-04 92532   0.339E-02    0.470E-02
DAV:   4    -0.796351103757E+03    0.47926E-04   -0.18304E-04 88692   0.289E-02    0.149E-02
DAV:   5    -0.796351103026E+03    0.73084E-06   -0.35574E-05 80040   0.138E-02
  18 F= -.79635110E+03 E0= -.79635110E+03  d E =-.320043E-02  mag=    -0.0000
       N       E                     dE             d eps       ncg     rms          rms(c)
DAV:   1    -0.796352201378E+03   -0.10976E-02   -0.43057E-02 75408   0.368E-01    0.901E-02
DAV:   2    -0.796352287027E+03   -0.85649E-04   -0.11281E-03 89652   0.550E-02    0.332E-02
DAV:   3    -0.796352267229E+03    0.19798E-04   -0.23943E-05 80520   0.114E-02    0.158E-02
DAV:   4    -0.796352260620E+03    0.66088E-05   -0.18152E-05 68844   0.956E-03
  19 F= -.79635226E+03 E0= -.79635226E+03  d E =-.115759E-02  mag=     0.0000
       N       E                     dE             d eps       ncg     rms          rms(c)
DAV:   1    -0.796352729982E+03   -0.46275E-03   -0.58012E-01 73464   0.134E+00    0.223E-01
DAV:   2    -0.796353758923E+03   -0.10289E-02   -0.12959E-02 89352   0.186E-01    0.935E-02
DAV:   3    -0.796353593268E+03    0.16565E-03   -0.22191E-04 91848   0.346E-02    0.493E-02
DAV:   4    -0.796353529832E+03    0.63437E-04   -0.18909E-04 88200   0.303E-02    0.151E-02
DAV:   5    -0.796353527766E+03    0.20652E-05   -0.44404E-05 87432   0.161E-02
  20 F= -.79635353E+03 E0= -.79635353E+03  d E =-.126715E-02  mag=    -0.0000
       N       E                     dE             d eps       ncg     rms          rms(c)
DAV:   1    -0.796352958925E+03    0.57091E-03   -0.42203E-01 73488   0.116E+00    0.130E-01
DAV:   2    -0.796353719552E+03   -0.76063E-03   -0.89656E-03 88560   0.156E-01    0.623E-02
DAV:   3    -0.796353644318E+03    0.75234E-04   -0.10626E-04 91872   0.242E-02    0.379E-02
DAV:   4    -0.796353606806E+03    0.37512E-04   -0.11689E-04 88476   0.258E-02    0.110E-02
DAV:   5    -0.796353607142E+03   -0.33544E-06   -0.28753E-05 70272   0.116E-02
  21 F= -.79635361E+03 E0= -.79635361E+03  d E =-.793752E-04  mag=    -0.0000
       N       E                     dE             d eps       ncg     rms          rms(c)
DAV:   1    -0.796349747856E+03    0.38589E-02   -0.14571E+00 73440   0.222E+00    0.294E-01
DAV:   2    -0.796352646626E+03   -0.28988E-02   -0.32658E-02 88104   0.307E-01    0.126E-01
DAV:   3    -0.796352410804E+03    0.23582E-03   -0.42900E-04 91848   0.498E-02    0.722E-02
DAV:   4    -0.796352315474E+03    0.95330E-04   -0.35881E-04 88752   0.459E-02    0.237E-02
DAV:   5    -0.796352312914E+03    0.25598E-05   -0.76848E-05 89940   0.215E-02
  22 F= -.79635231E+03 E0= -.79635231E+03  d E =0.129423E-02  mag=    -0.0000
       N       E                     dE             d eps       ncg     rms          rms(c)
DAV:   1    -0.796345975062E+03    0.63404E-02   -0.28865E+00 73440   0.317E+00    0.496E-01
DAV:   2    -0.796351619911E+03   -0.56448E-02   -0.65958E-02 88392   0.448E-01    0.193E-01
DAV:   3    -0.796351010566E+03    0.60935E-03   -0.94243E-04 91872   0.734E-02    0.106E-01
DAV:   4    -0.796350740838E+03    0.26973E-03   -0.78272E-04 88728   0.724E-02    0.321E-02
DAV:   5    -0.796350735852E+03    0.49857E-05   -0.22148E-04 91632   0.346E-02    0.256E-02
DAV:   6    -0.796350728461E+03    0.73907E-05   -0.49220E-05 84336   0.151E-02
  23 F= -.79635073E+03 E0= -.79635073E+03  d E =0.158445E-02  mag=    -0.0000
       N       E                     dE             d eps       ncg     rms          rms(c)
DAV:   1    -0.796354065395E+03   -0.33295E-02   -0.41742E-01 73512   0.116E+00    0.191E-01
DAV:   2    -0.796354766282E+03   -0.70089E-03   -0.93086E-03 89688   0.164E-01    0.819E-02
DAV:   3    -0.796354637766E+03    0.12852E-03   -0.20053E-04 91920   0.330E-02    0.435E-02
DAV:   4    -0.796354589197E+03    0.48569E-04   -0.13505E-04 88800   0.262E-02    0.132E-02
DAV:   5    -0.796354587048E+03    0.21484E-05   -0.28947E-05 77952   0.136E-02
  24 F= -.79635459E+03 E0= -.79635459E+03  d E =-.385859E-02  mag=    -0.0000
       N       E                     dE             d eps       ncg     rms          rms(c)
DAV:   1    -0.796355599905E+03   -0.10107E-02   -0.29879E-01 73440   0.101E+00    0.161E-01
DAV:   2    -0.796356190802E+03   -0.59090E-03   -0.68848E-03 89076   0.142E-01    0.602E-02
DAV:   3    -0.796356124751E+03    0.66051E-04   -0.86076E-05 92076   0.225E-02    0.328E-02
DAV:   4    -0.796356098268E+03    0.26483E-04   -0.82943E-05 88704   0.220E-02    0.890E-03
DAV:   5    -0.796356098155E+03    0.11315E-06   -0.19401E-05 58536   0.103E-02
  25 F= -.79635610E+03 E0= -.79635610E+03  d E =-.151111E-02  mag=     0.0000
       N       E                     dE             d eps       ncg     rms          rms(c)
DAV:   1    -0.796351286726E+03    0.48115E-02   -0.26760E+00 73440   0.305E+00    0.278E-01
DAV:   2    -0.796356531451E+03   -0.52447E-02   -0.57039E-02 85392   0.413E-01    0.149E-01
DAV:   3    -0.796356278151E+03    0.25330E-03   -0.61152E-04 91776   0.532E-02    0.954E-02
DAV:   4    -0.796356143010E+03    0.13514E-03   -0.57106E-04 89100   0.610E-02    0.316E-02
DAV:   5    -0.796356145202E+03   -0.21921E-05   -0.12829E-04 85824   0.247E-02    0.225E-02
DAV:   6    -0.796356144587E+03    0.61486E-06   -0.50635E-05 78828   0.159E-02
  26 F= -.79635614E+03 E0= -.79635614E+03  d E =-.464319E-04  mag=     0.0000
       N       E                     dE             d eps       ncg     rms          rms(c)
DAV:   1    -0.796250438290E+03    0.10571E+00   -0.44708E+01 73440   0.125E+01    0.136E+00
DAV:   2    -0.796340648479E+03   -0.90210E-01   -0.98646E-01 84912   0.172E+00    0.663E-01
DAV:   3    -0.796335896270E+03    0.47522E-02   -0.11441E-02 91284   0.235E-01    0.405E-01
DAV:   4    -0.796333742083E+03    0.21542E-02   -0.10339E-02 88332   0.251E-01    0.137E-01
DAV:   5    -0.796333710044E+03    0.32039E-04   -0.19777E-03 87564   0.105E-01    0.916E-02
DAV:   6    -0.796333709052E+03    0.99199E-06   -0.82647E-04 87708   0.627E-02    0.422E-02
DAV:   7    -0.796333693433E+03    0.15619E-04   -0.83065E-05 87768   0.229E-02    0.256E-02
DAV:   8    -0.796333690232E+03    0.32009E-05   -0.25832E-05 75684   0.126E-02
  27 F= -.79633369E+03 E0= -.79633369E+03  d E =0.224544E-01  mag=    -0.0000
       N       E                     dE             d eps       ncg     rms          rms(c)
DAV:   1    -0.796334436086E+03   -0.74265E-03   -0.33424E+00 73440   0.337E+00    0.113E+00
DAV:   2    -0.796342755846E+03   -0.83198E-02   -0.10994E-01 89976   0.568E-01    0.397E-01
DAV:   3    -0.796340431189E+03    0.23247E-02   -0.24468E-03 91416   0.125E-01    0.168E-01
DAV:   4    -0.796339750791E+03    0.68040E-03   -0.16168E-03 89160   0.106E-01    0.521E-02
DAV:   5    -0.796339723563E+03    0.27228E-04   -0.57393E-04 93144   0.607E-02    0.422E-02
DAV:   6    -0.796339713768E+03    0.97946E-05   -0.81750E-05 88428   0.180E-02
  28 F= -.79633971E+03 E0= -.79633971E+03  d E =-.602354E-02  mag=    -0.0000
       N       E                     dE             d eps       ncg     rms          rms(c)
DAV:   1    -0.796341646730E+03   -0.19232E-02   -0.67207E+00 73440   0.485E+00    0.769E-01
DAV:   2    -0.796355437653E+03   -0.13791E-01   -0.15542E-01 87180   0.686E-01    0.292E-01
DAV:   3    -0.796354244325E+03    0.11933E-02   -0.20318E-03 91824   0.102E-01    0.161E-01
DAV:   4    -0.796353778471E+03    0.46585E-03   -0.18019E-03 88368   0.103E-01    0.497E-02
DAV:   5    -0.796353776350E+03    0.21215E-05   -0.38735E-04 90240   0.451E-02    0.379E-02
DAV:   6    -0.796353768940E+03    0.74094E-05   -0.10359E-04 87672   0.215E-02    0.180E-02
DAV:   7    -0.796353764081E+03    0.48595E-05   -0.58329E-06 53232   0.995E-03
  29 F= -.79635376E+03 E0= -.79635376E+03  d E =-.140503E-01  mag=     0.0000
       N       E                     dE             d eps       ncg     rms          rms(c)
DAV:   1    -0.796355444695E+03   -0.16758E-02   -0.13290E-01 73464   0.684E-01    0.156E-01
DAV:   2    -0.796355702925E+03   -0.25823E-03   -0.33296E-03 89592   0.102E-01    0.518E-02
DAV:   3    -0.796355661247E+03    0.41678E-04   -0.70989E-05 92040   0.198E-02    0.274E-02
DAV:   4    -0.796355644134E+03    0.17113E-04   -0.52107E-05 89640   0.185E-02    0.862E-03
DAV:   5    -0.796355643225E+03    0.90912E-06   -0.12498E-05 52416   0.899E-03
  30 F= -.79635564E+03 E0= -.79635564E+03  d E =-.187914E-02  mag=     0.0000
       N       E                     dE             d eps       ncg     rms          rms(c)
DAV:   1    -0.796356317749E+03   -0.67361E-03   -0.17221E-02 73608   0.245E-01    0.863E-02
DAV:   2    -0.796356363332E+03   -0.45583E-04   -0.63010E-04 89736   0.439E-02    0.317E-02
DAV:   3    -0.796356347568E+03    0.15765E-04   -0.14718E-05 67200   0.103E-02    0.135E-02
DAV:   4    -0.796356342680E+03    0.48880E-05   -0.11873E-05 60984   0.956E-03
  31 F= -.79635634E+03 E0= -.79635634E+03  d E =-.699455E-03  mag=    -0.0000
