       N       E                     dE             d eps       ncg     rms          rms(c)
DAV:   1     0.824908798267E+04    0.82491E+04   -0.23558E+05 34284   0.218E+03
DAV:   2     0.116429087101E+04   -0.70848E+04   -0.66393E+04 33696   0.633E+02
DAV:   3    -0.384941439207E+03   -0.15492E+04   -0.13613E+04 35976   0.272E+02
DAV:   4    -0.541592868218E+03   -0.15665E+03   -0.15395E+03 36816   0.837E+01
DAV:   5    -0.544313163811E+03   -0.27203E+01   -0.27071E+01 36720   0.124E+01    0.106E+02
DAV:   6    -0.556626348340E+03   -0.12313E+02   -0.94560E+02 44976   0.119E+02    0.127E+02
DAV:   7    -0.433943509922E+03    0.12268E+03   -0.34105E+02 37008   0.120E+02    0.354E+01
DAV:   8    -0.439520060777E+03   -0.55766E+01   -0.90425E+01 42528   0.287E+01    0.369E+01
DAV:   9    -0.447823138909E+03   -0.83031E+01   -0.48726E+01 38196   0.341E+01    0.612E+01
DAV:  10    -0.443527091741E+03    0.42960E+01   -0.12045E+01 38232   0.198E+01    0.428E+01
DAV:  11    -0.438872148588E+03    0.46549E+01   -0.26067E+01 37080   0.174E+01    0.172E+01
DAV:  12    -0.438263613398E+03    0.60854E+00   -0.20802E+01 38040   0.163E+01    0.123E+01
DAV:  13    -0.437311239425E+03    0.95237E+00   -0.24791E+00 37260   0.981E+00    0.700E+00
DAV:  14    -0.437469903939E+03   -0.15866E+00   -0.23171E+00 40884   0.671E+00    0.805E+00
DAV:  15    -0.437299323478E+03    0.17058E+00   -0.21575E+00 38304   0.406E+00    0.588E+00
DAV:  16    -0.437281022042E+03    0.18301E-01   -0.73020E-01 38760   0.357E+00    0.541E+00
DAV:  17    -0.437250226519E+03    0.30796E-01   -0.41558E-01 39420   0.258E+00    0.398E+00
DAV:  18    -0.437235467511E+03    0.14759E-01   -0.32391E-01 41100   0.268E+00    0.309E+00
DAV:  19    -0.437232358231E+03    0.31093E-02   -0.81929E-02 38232   0.172E+00    0.220E+00
DAV:  20    -0.437229928013E+03    0.24302E-02   -0.43954E-02 39648   0.149E+00    0.183E+00
DAV:  21    -0.437226995932E+03    0.29321E-02   -0.20635E-02 39612   0.843E-01    0.126E+00
DAV:  22    -0.437227369512E+03   -0.37358E-03   -0.20346E-02 39468   0.901E-01    0.105E+00
DAV:  23    -0.437227270834E+03    0.98678E-04   -0.93957E-03 37356   0.547E-01    0.803E-01
DAV:  24    -0.437227968862E+03   -0.69803E-03   -0.38030E-03 40284   0.422E-01    0.653E-01
DAV:  25    -0.437227003012E+03    0.96585E-03   -0.64189E-03 42444   0.580E-01    0.424E-01
DAV:  26    -0.437227468103E+03   -0.46509E-03   -0.34806E-03 38460   0.293E-01    0.388E-01
DAV:  27    -0.437227567890E+03   -0.99787E-04   -0.91492E-04 37608   0.205E-01    0.391E-01
DAV:  28    -0.437227395848E+03    0.17204E-03   -0.93455E-04 40476   0.173E-01    0.235E-01
DAV:  29    -0.437227445785E+03   -0.49937E-04   -0.10818E-03 42888   0.216E-01    0.200E-01
DAV:  30    -0.437227364293E+03    0.81492E-04   -0.68271E-04 41340   0.156E-01    0.136E-01
DAV:  31    -0.437227361531E+03    0.27619E-05   -0.15801E-04 35352   0.691E-02    0.831E-02
DAV:  32    -0.437227363454E+03   -0.19225E-05   -0.10895E-04 32304   0.748E-02    0.751E-02
DAV:  33    -0.437227347504E+03    0.15950E-04   -0.11390E-04 26676   0.574E-02    0.416E-02
DAV:  34    -0.437227349573E+03   -0.20695E-05   -0.26849E-05 20172   0.358E-02
   1 F= -.43722735E+03 E0= -.43721269E+03  d E =-.437227E+03  mag=     1.9678
       N       E                     dE             d eps       ncg     rms          rms(c)
DAV:   1    -0.437230016564E+03   -0.26691E-02   -0.22237E-03 50772   0.526E-01    0.379E-02
DAV:   2    -0.437230167370E+03   -0.15081E-03   -0.12983E-03 38424   0.119E-01    0.106E-01
DAV:   3    -0.437230126121E+03    0.41249E-04   -0.33441E-04 35424   0.983E-02    0.388E-02
DAV:   4    -0.437230130369E+03   -0.42475E-05   -0.93192E-05 27120   0.428E-02
   2 F= -.43723013E+03 E0= -.43721545E+03  d E =-.278080E-02  mag=     1.9676
       N       E                     dE             d eps       ncg     rms          rms(c)
DAV:   1    -0.437172546817E+03    0.57579E-01   -0.27118E+00 49836   0.184E+01    0.111E+00
DAV:   2    -0.437317530348E+03   -0.14498E+00   -0.14543E+00 36312   0.246E+00    0.163E+00
DAV:   3    -0.437318819748E+03   -0.12894E-02   -0.24202E-01 36996   0.189E+00    0.172E+00
DAV:   4    -0.437314910552E+03    0.39092E-02   -0.84328E-02 39252   0.108E+00    0.897E-01
DAV:   5    -0.437312368271E+03    0.25423E-02   -0.14083E-02 37620   0.833E-01    0.391E-01
DAV:   6    -0.437313540744E+03   -0.11725E-02   -0.58589E-03 41100   0.542E-01    0.536E-01
DAV:   7    -0.437312439132E+03    0.11016E-02   -0.57478E-03 40248   0.496E-01    0.225E-01
DAV:   8    -0.437312691030E+03   -0.25190E-03   -0.25877E-03 39840   0.322E-01    0.296E-01
DAV:   9    -0.437312455022E+03    0.23601E-03   -0.10247E-03 38136   0.222E-01    0.198E-01
DAV:  10    -0.437312365956E+03    0.89066E-04   -0.73137E-04 43404   0.972E-02    0.608E-02
DAV:  11    -0.437312405871E+03   -0.39915E-04   -0.37363E-04 36864   0.920E-02    0.829E-02
DAV:  12    -0.437312402455E+03    0.34157E-05   -0.71325E-05 26088   0.627E-02
   3 F= -.43731240E+03 E0= -.43729770E+03  d E =-.822721E-01  mag=     1.9682
       N       E                     dE             d eps       ncg     rms          rms(c)
DAV:   1    -0.437048327471E+03    0.26408E+00   -0.72257E+00 49260   0.288E+01    0.195E+00
DAV:   2    -0.437446776030E+03   -0.39845E+00   -0.39208E+00 38280   0.480E+00    0.366E+00
DAV:   3    -0.437412432268E+03    0.34344E-01   -0.78917E-01 37056   0.346E+00    0.249E+00
DAV:   4    -0.437411488094E+03    0.94417E-03   -0.24846E-01 38544   0.192E+00    0.164E+00
DAV:   5    -0.437401912105E+03    0.95760E-02   -0.51075E-02 37404   0.135E+00    0.704E-01
DAV:   6    -0.437403633886E+03   -0.17218E-02   -0.14176E-02 39144   0.810E-01    0.777E-01
DAV:   7    -0.437402216614E+03    0.14173E-02   -0.18358E-02 40440   0.721E-01    0.551E-01
DAV:   8    -0.437403253076E+03   -0.10365E-02   -0.78749E-03 40296   0.546E-01    0.721E-01
DAV:   9    -0.437402216098E+03    0.10370E-02   -0.32516E-03 38448   0.385E-01    0.542E-01
DAV:  10    -0.437401490968E+03    0.72513E-03   -0.56654E-03 49260   0.219E-01    0.128E-01
DAV:  11    -0.437401810300E+03   -0.31933E-03   -0.19002E-03 42756   0.193E-01    0.189E-01
DAV:  12    -0.437401804862E+03    0.54379E-05   -0.34515E-04 35652   0.137E-01    0.162E-01
DAV:  13    -0.437401760703E+03    0.44159E-04   -0.11913E-04 30924   0.545E-02    0.100E-01
DAV:  14    -0.437401754286E+03    0.64179E-05   -0.16022E-04 29268   0.587E-02    0.486E-02
DAV:  15    -0.437401757621E+03   -0.33358E-05   -0.18527E-04 28752   0.548E-02    0.609E-02
DAV:  16    -0.437401760902E+03   -0.32805E-05   -0.33571E-05 22908   0.406E-02
   4 F= -.43740176E+03 E0= -.43738679E+03  d E =-.893584E-01  mag=     1.9671
       N       E                     dE             d eps       ncg     rms          rms(c)
DAV:   1    -0.437388520743E+03    0.13237E-01   -0.26108E+00 43356   0.110E+01    0.797E-01
DAV:   2    -0.437460103532E+03   -0.71583E-01   -0.71205E-01 40296   0.249E+00    0.289E+00
DAV:   3    -0.437434916434E+03    0.25187E-01   -0.23298E-01 36864   0.181E+00    0.753E-01
DAV:   4    -0.437437999295E+03   -0.30829E-02   -0.26808E-02 37800   0.926E-01    0.605E-01
DAV:   5    -0.437436516214E+03    0.14831E-02   -0.89933E-03 37524   0.610E-01    0.283E-01
DAV:   6    -0.437436550195E+03   -0.33981E-04   -0.19149E-03 38376   0.313E-01    0.250E-01
DAV:   7    -0.437436351499E+03    0.19870E-03   -0.13535E-03 37332   0.234E-01    0.154E-01
DAV:   8    -0.437436658767E+03   -0.30727E-03   -0.25985E-03 42264   0.275E-01    0.304E-01
DAV:   9    -0.437436411713E+03    0.24705E-03   -0.10084E-03 39768   0.219E-01    0.223E-01
DAV:  10    -0.437436314451E+03    0.97262E-04   -0.47112E-04 36888   0.772E-02    0.102E-01
DAV:  11    -0.437436319107E+03   -0.46561E-05   -0.22808E-04 31848   0.671E-02    0.316E-02
DAV:  12    -0.437436336007E+03   -0.16900E-04   -0.10568E-04 24684   0.387E-02    0.502E-02
DAV:  13    -0.437436333079E+03    0.29282E-05   -0.33362E-05 21000   0.390E-02
   5 F= -.43743633E+03 E0= -.43742122E+03  d E =-.345722E-01  mag=     1.9675
       N       E                     dE             d eps       ncg     rms          rms(c)
DAV:   1    -0.437400686804E+03    0.35649E-01   -0.61732E+00 39252   0.130E+01    0.773E-01
DAV:   2    -0.437474385299E+03   -0.73698E-01   -0.75158E-01 37752   0.241E+00    0.215E+00
DAV:   3    -0.437463185831E+03    0.11199E-01   -0.18131E-01 37212   0.157E+00    0.889E-01
DAV:   4    -0.437464992127E+03   -0.18063E-02   -0.30193E-02 38436   0.918E-01    0.692E-01
DAV:   5    -0.437462651892E+03    0.23402E-02   -0.93093E-03 37284   0.647E-01    0.270E-01
DAV:   6    -0.437463002948E+03   -0.35106E-03   -0.27078E-03 40344   0.370E-01    0.344E-01
DAV:   7    -0.437462371651E+03    0.63130E-03   -0.27223E-03 39744   0.361E-01    0.175E-01
DAV:   8    -0.437462545284E+03   -0.17363E-03   -0.15687E-03 41352   0.240E-01    0.209E-01
DAV:   9    -0.437462396572E+03    0.14871E-03   -0.73299E-04 37812   0.181E-01    0.100E-01
DAV:  10    -0.437462390229E+03    0.63435E-05   -0.35032E-04 35448   0.722E-02    0.499E-02
DAV:  11    -0.437462398849E+03   -0.86205E-05   -0.12355E-04 29376   0.688E-02    0.687E-02
DAV:  12    -0.437462388794E+03    0.10055E-04   -0.32334E-05 22824   0.380E-02    0.436E-02
DAV:  13    -0.437462385755E+03    0.30394E-05   -0.50649E-05 20292   0.345E-02
   6 F= -.43746239E+03 E0= -.43744712E+03  d E =-.260527E-01  mag=     1.9679
       N       E                     dE             d eps       ncg     rms          rms(c)
DAV:   1    -0.437410752268E+03    0.51637E-01   -0.40761E+00 41448   0.130E+01    0.681E-01
DAV:   2    -0.437475740114E+03   -0.64988E-01   -0.65928E-01 37344   0.186E+00    0.911E-01
DAV:   3    -0.437477591327E+03   -0.18512E-02   -0.87379E-02 38124   0.121E+00    0.113E+00
DAV:   4    -0.437474866778E+03    0.27245E-02   -0.30448E-02 38472   0.651E-01    0.549E-01
DAV:   5    -0.437473915539E+03    0.95124E-03   -0.50843E-03 38616   0.506E-01    0.238E-01
DAV:   6    -0.437474515401E+03   -0.59986E-03   -0.28094E-03 41124   0.378E-01    0.370E-01
DAV:   7    -0.437473836245E+03    0.67916E-03   -0.29048E-03 42348   0.391E-01    0.169E-01
DAV:   8    -0.437473864726E+03   -0.28481E-04   -0.71445E-04 41844   0.162E-01    0.136E-01
DAV:   9    -0.437473811569E+03    0.53157E-04   -0.35042E-04 37320   0.127E-01    0.817E-02
DAV:  10    -0.437473799521E+03    0.12048E-04   -0.12022E-04 32304   0.601E-02    0.479E-02
DAV:  11    -0.437473795272E+03    0.42492E-05   -0.79743E-05 26808   0.568E-02
   7 F= -.43747380E+03 E0= -.43745847E+03  d E =-.114095E-01  mag=     1.9688
       N       E                     dE             d eps       ncg     rms          rms(c)
DAV:   1    -0.437405460676E+03    0.68339E-01   -0.46201E+00 42432   0.144E+01    0.727E-01
DAV:   2    -0.437483485249E+03   -0.78025E-01   -0.78948E-01 36828   0.202E+00    0.761E-01
DAV:   3    -0.437486364678E+03   -0.28794E-02   -0.61461E-02 37008   0.135E+00    0.949E-01
DAV:   4    -0.437482540043E+03    0.38246E-02   -0.19389E-02 38964   0.773E-01    0.431E-01
DAV:   5    -0.437482371193E+03    0.16885E-03   -0.64340E-03 43716   0.362E-01    0.329E-01
DAV:   6    -0.437482854728E+03   -0.48354E-03   -0.44187E-03 41172   0.378E-01    0.393E-01
DAV:   7    -0.437482127392E+03    0.72734E-03   -0.31717E-03 42288   0.418E-01    0.165E-01
DAV:   8    -0.437482157868E+03   -0.30476E-04   -0.79336E-04 41388   0.182E-01    0.134E-01
DAV:   9    -0.437482093987E+03    0.63881E-04   -0.39247E-04 38340   0.137E-01    0.669E-02
DAV:  10    -0.437482091292E+03    0.26947E-05   -0.10322E-04 33060   0.584E-02    0.448E-02
DAV:  11    -0.437482086401E+03    0.48911E-05   -0.80284E-05 27240   0.572E-02
   8 F= -.43748209E+03 E0= -.43746669E+03  d E =-.829113E-02  mag=     1.9690
       N       E                     dE             d eps       ncg     rms          rms(c)
DAV:   1    -0.437361927263E+03    0.12016E+00   -0.60741E+00 45336   0.189E+01    0.943E-01
DAV:   2    -0.437491503023E+03   -0.12958E+00   -0.13118E+00 36720   0.258E+00    0.892E-01
DAV:   3    -0.437496878270E+03   -0.53752E-02   -0.85438E-02 37164   0.174E+00    0.114E+00
DAV:   4    -0.437490075765E+03    0.68025E-02   -0.20738E-02 38760   0.105E+00    0.342E-01
DAV:   5    -0.437491162952E+03   -0.10872E-02   -0.57799E-03 42888   0.542E-01    0.505E-01
DAV:   6    -0.437490148762E+03    0.10142E-02   -0.60246E-03 41748   0.533E-01    0.284E-01
DAV:   7    -0.437490258117E+03   -0.10936E-03   -0.45340E-03 43188   0.314E-01    0.324E-01
DAV:   8    -0.437490054639E+03    0.20348E-03   -0.24048E-03 38532   0.190E-01    0.150E-01
DAV:   9    -0.437490010973E+03    0.43666E-04   -0.51827E-04 37224   0.155E-01    0.701E-02
DAV:  10    -0.437490008832E+03    0.21407E-05   -0.15666E-04 34848   0.750E-02    0.463E-02
DAV:  11    -0.437490008096E+03    0.73659E-06   -0.96918E-05 28800   0.747E-02
   9 F= -.43749001E+03 E0= -.43747455E+03  d E =-.792170E-02  mag=     1.9690
       N       E                     dE             d eps       ncg     rms          rms(c)
DAV:   1    -0.437477307096E+03    0.12702E-01   -0.81342E-01 44988   0.688E+00    0.336E-01
DAV:   2    -0.437493931403E+03   -0.16624E-01   -0.16984E-01 37332   0.931E-01    0.458E-01
DAV:   3    -0.437494569318E+03   -0.63792E-03   -0.23050E-02 38328   0.600E-01    0.634E-01
DAV:   4    -0.437493614084E+03    0.95523E-03   -0.63477E-03 38784   0.320E-01    0.231E-01
DAV:   5    -0.437493526887E+03    0.87197E-04   -0.81263E-04 41196   0.196E-01    0.122E-01
DAV:   6    -0.437493624115E+03   -0.97228E-04   -0.10431E-03 40932   0.160E-01    0.187E-01
DAV:   7    -0.437493547576E+03    0.76539E-04   -0.65004E-04 41316   0.166E-01    0.148E-01
DAV:   8    -0.437493507013E+03    0.40563E-04   -0.23910E-04 35736   0.776E-02    0.719E-02
DAV:   9    -0.437493501721E+03    0.52919E-05   -0.10994E-04 28500   0.607E-02    0.416E-02
DAV:  10    -0.437493500516E+03    0.12052E-05   -0.46933E-05 21732   0.395E-02
  10 F= -.43749350E+03 E0= -.43747810E+03  d E =-.349242E-02  mag=     1.9685
       N       E                     dE             d eps       ncg     rms          rms(c)
DAV:   1    -0.437492104498E+03    0.13972E-02   -0.11700E-01 46080   0.291E+00    0.148E-01
DAV:   2    -0.437495189212E+03   -0.30847E-02   -0.31192E-02 36276   0.406E-01    0.329E-01
DAV:   3    -0.437495035256E+03    0.15396E-03   -0.54731E-03 37368   0.282E-01    0.185E-01
DAV:   4    -0.437495030391E+03    0.48648E-05   -0.64835E-04 36948   0.126E-01    0.104E-01
DAV:   5    -0.437494995873E+03    0.34518E-04   -0.17587E-04 31380   0.879E-02    0.560E-02
DAV:   6    -0.437495002770E+03   -0.68975E-05   -0.12546E-04 28188   0.597E-02    0.594E-02
DAV:   7    -0.437495006277E+03   -0.35067E-05   -0.12408E-04 33792   0.767E-02    0.754E-02
DAV:   8    -0.437495000527E+03    0.57494E-05   -0.24057E-05 20304   0.379E-02
  11 F= -.43749500E+03 E0= -.43747958E+03  d E =-.150001E-02  mag=     1.9680
       N       E                     dE             d eps       ncg     rms          rms(c)
DAV:   1    -0.437489963712E+03    0.50426E-02   -0.36345E-01 45180   0.460E+00    0.229E-01
DAV:   2    -0.437497662800E+03   -0.76991E-02   -0.77911E-02 36840   0.630E-01    0.362E-01
DAV:   3    -0.437497782289E+03   -0.11949E-03   -0.11145E-02 37332   0.421E-01    0.372E-01
DAV:   4    -0.437497553539E+03    0.22875E-03   -0.27792E-03 39648   0.220E-01    0.161E-01
DAV:   5    -0.437497478901E+03    0.74637E-04   -0.48881E-04 36024   0.169E-01    0.791E-02
DAV:   6    -0.437497514879E+03   -0.35977E-04   -0.36015E-04 40068   0.994E-02    0.111E-01
DAV:   7    -0.437497491600E+03    0.23279E-04   -0.22873E-04 36660   0.109E-01    0.941E-02
DAV:   8    -0.437497476785E+03    0.14815E-04   -0.70688E-05 27228   0.475E-02    0.497E-02
DAV:   9    -0.437497474709E+03    0.20767E-05   -0.48222E-05 19296   0.381E-02
  12 F= -.43749747E+03 E0= -.43748207E+03  d E =-.247418E-02  mag=     1.9677
       N       E                     dE             d eps       ncg     rms          rms(c)
DAV:   1    -0.437474992814E+03    0.22484E-01   -0.91209E-01 47112   0.883E+00    0.433E-01
DAV:   2    -0.437501482995E+03   -0.26490E-01   -0.26809E-01 36516   0.117E+00    0.696E-01
DAV:   3    -0.437502093657E+03   -0.61066E-03   -0.42627E-02 37260   0.791E-01    0.735E-01
DAV:   4    -0.437501068504E+03    0.10252E-02   -0.86684E-03 39720   0.401E-01    0.279E-01
DAV:   5    -0.437500913209E+03    0.15529E-03   -0.13958E-03 40056   0.284E-01    0.156E-01
DAV:   6    -0.437501085150E+03   -0.17194E-03   -0.17733E-03 42324   0.204E-01    0.240E-01
DAV:   7    -0.437500990322E+03    0.94827E-04   -0.85224E-04 41184   0.203E-01    0.223E-01
DAV:   8    -0.437500922085E+03    0.68237E-04   -0.28508E-04 36480   0.851E-02    0.141E-01
DAV:   9    -0.437500897413E+03    0.24672E-04   -0.16786E-04 29904   0.670E-02    0.768E-02
DAV:  10    -0.437500896693E+03    0.71964E-06   -0.28634E-04 26904   0.531E-02    0.441E-02
DAV:  11    -0.437500905213E+03   -0.85200E-05   -0.32811E-05 23196   0.409E-02
  13 F= -.43750091E+03 E0= -.43748550E+03  d E =-.343050E-02  mag=     1.9673
       N       E                     dE             d eps       ncg     rms          rms(c)
DAV:   1    -0.437483968074E+03    0.16929E-01   -0.91891E-01 45120   0.757E+00    0.377E-01
DAV:   2    -0.437504488599E+03   -0.20521E-01   -0.20921E-01 36804   0.107E+00    0.834E-01
DAV:   3    -0.437503666423E+03    0.82218E-03   -0.36939E-02 37044   0.719E-01    0.501E-01
DAV:   4    -0.437503417512E+03    0.24891E-03   -0.39052E-03 38904   0.315E-01    0.221E-01
DAV:   5    -0.437503314632E+03    0.10288E-03   -0.94290E-04 39000   0.235E-01    0.150E-01
DAV:   6    -0.437503311030E+03    0.36023E-05   -0.10621E-03 41484   0.158E-01    0.163E-01
DAV:   7    -0.437503357888E+03   -0.46858E-04   -0.75789E-04 41952   0.175E-01    0.209E-01
DAV:   8    -0.437503303032E+03    0.54856E-04   -0.20952E-04 35940   0.941E-02    0.168E-01
DAV:   9    -0.437503265302E+03    0.37729E-04   -0.10087E-04 28356   0.498E-02    0.115E-01
DAV:  10    -0.437503244905E+03    0.20397E-04   -0.28027E-04 23712   0.461E-02    0.206E-02
DAV:  11    -0.437503261746E+03   -0.16841E-04   -0.48523E-05 21348   0.300E-02    0.327E-02
DAV:  12    -0.437503260250E+03    0.14964E-05   -0.16599E-05 19044   0.288E-02
  14 F= -.43750326E+03 E0= -.43748787E+03  d E =-.235504E-02  mag=     1.9677
       N       E                     dE             d eps       ncg     rms          rms(c)
DAV:   1    -0.437498107775E+03    0.51540E-02   -0.13434E-01 47220   0.370E+00    0.189E-01
DAV:   2    -0.437502909886E+03   -0.48021E-02   -0.49206E-02 36468   0.513E-01    0.489E-01
DAV:   3    -0.437502502951E+03    0.40694E-03   -0.99997E-03 37500   0.382E-01    0.214E-01
DAV:   4    -0.437502538475E+03   -0.35524E-04   -0.88136E-04 38352   0.150E-01    0.127E-01
DAV:   5    -0.437502494358E+03    0.44117E-04   -0.26851E-04 34440   0.106E-01    0.768E-02
DAV:   6    -0.437502489860E+03    0.44977E-05   -0.17777E-04 31980   0.591E-02    0.648E-02
DAV:   7    -0.437502515471E+03   -0.25610E-04   -0.25074E-04 35160   0.934E-02    0.109E-01
DAV:   8    -0.437502500142E+03    0.15329E-04   -0.63876E-05 27324   0.609E-02    0.951E-02
DAV:   9    -0.437502486584E+03    0.13558E-04   -0.30600E-05 19752   0.271E-02    0.655E-02
DAV:  10    -0.437502480518E+03    0.60661E-05   -0.48128E-05 19848   0.216E-02
  15 F= -.43750248E+03 E0= -.43748708E+03  d E =0.779732E-03  mag=     1.9679
       N       E                     dE             d eps       ncg     rms          rms(c)
DAV:   1    -0.437501284803E+03    0.12018E-02   -0.20374E-02 50244   0.178E+00    0.874E-02
DAV:   2    -0.437502341997E+03   -0.10572E-02   -0.10760E-02 36588   0.206E-01    0.102E-01
DAV:   3    -0.437502418452E+03   -0.76455E-04   -0.14497E-03 37260   0.161E-01    0.175E-01
DAV:   4    -0.437502340709E+03    0.77743E-04   -0.49347E-04 34092   0.860E-02    0.646E-02
DAV:   5    -0.437502335646E+03    0.50632E-05   -0.68096E-05 25260   0.507E-02
  16 F= -.43750234E+03 E0= -.43748693E+03  d E =0.144873E-03  mag=     1.9679
