 vasp.6.1.2 22Jul20 (build Apr 14 2021 21:39:43) complex                        
  
 executed on             LinuxIFC date 2022.04.25  09:26:19
 running on   64 total cores
 distrk:  each k-point on   64 cores,    1 groups
 distr:  one band on NCORE=  16 cores,    4 groups


--------------------------------------------------------------------------------------------------------


 INCAR:
 POTCAR:    PAW_PBE Li 17Jan2003                  
 POTCAR:    PAW_PBE Mn_pv 02Aug2007               
 POTCAR:    PAW_PBE O 08Apr2002                   
 POTCAR:    PAW_PBE Li 17Jan2003                  
   SHA256 =  3d9d9bfd1dd25b20a3b919cb3191e6ef627605783dc2e149b9290ff31c32aa6e Li/POTCAR             
   COPYR  = (c) Copyright 17Jan2003 Georg Kresse                                                    
   COPYR  = This file is part of the software VASP. Any use, copying, and all other rights are regul
   COPYR  = If you do not have a valid VASP license, you may not use, copy or distribute this file. 
   VRHFIN =Li: s1p0                                                                                 
   LEXCH  = PE                                                                                      
   EATOM  =     5.3001 eV,    0.3895 Ry                                                             
                                                                                                    
   TITEL  = PAW_PBE Li 17Jan2003                                                                    
   LULTRA =        F    use ultrasoft PP ?                                                          
   IUNSCR =        1    unscreen: 0-lin 1-nonlin 2-no                                               
   RPACOR =    1.500    partial core radius                                                         
   POMASS =    7.010; ZVAL   =    1.000    mass and valenz                                          
   RCORE  =    2.050    outmost cutoff radius                                                       
   RWIGS  =    2.600; RWIGS  =    1.376    wigner-seitz radius (au A)                               
   ENMAX  =  140.000; ENMIN  =  100.000 eV                                                          
   ICORE  =        2    local potential                                                             
   LCOR   =        T    correct aug charges                                                         
   LPAW   =        T    paw PP                                                                      
   EAUG   =  331.638                                                                                
   DEXC   =    0.000                                                                                
   RMAX   =    2.098    core radius for proj-oper                                                   
   RAUG   =    1.300    factor for augmentation sphere                                              
   RDEP   =    2.094    radius for radial grids                                                     
   RDEPT  =    1.810    core radius for aug-charge                                                  
                                                                                                    
   Atomic configuration                                                                             
    4 entries                                                                                       
     n  l   j            E        occ.                                                              
     1  0  0.50       -51.8549   2.0000                                                             
     2  0  0.50        -2.8742   1.0000                                                             
     2  1  0.50        -1.3606   0.0000                                                             
     3  2  1.50        -1.3606   0.0000                                                             
   Description                                                                                      
     l       E           TYP  RCUT    TYP  RCUT                                                     
     0     -2.8742052     23  2.050                                                                 
     0     27.2116520     23  2.050                                                                 
     1     -1.3605826     23  2.050                                                                 
     2     -1.3605826     23  2.050                                                                 
  local pseudopotential read in
  partial core-charges read in
  partial kinetic energy density read in
  atomic valenz-charges read in
  non local Contribution for L=           0  read in
    real space projection operators read in
  non local Contribution for L=           0  read in
    real space projection operators read in
  non local Contribution for L=           1  read in
    real space projection operators read in
    PAW grid and wavefunctions read in
 
   number of l-projection  operators is LMAX  =           3
   number of lm-projection operators is LMMAX =           5
 
 POTCAR:    PAW_PBE Mn_pv 02Aug2007               
   SHA256 =  c79df11ab18a0e3347296df6ded47bb5f18b2e4fbd621d0b5280d2eae24c30a0 Mn_pv/POTCAR          
   COPYR  = (c) Copyright 02Aug2007 Georg Kresse                                                    
   COPYR  = This file is part of the software VASP. Any use, copying, and all other rights are regul
   COPYR  = If you do not have a valid VASP license, you may not use, copy or distribute this file. 
   VRHFIN =Mn: 3p4s3d                                                                               
   LEXCH  = PE                                                                                      
   EATOM  =  2025.2664 eV,  148.8529 Ry                                                             
                                                                                                    
   TITEL  = PAW_PBE Mn_pv 02Aug2007                                                                 
   LULTRA =        F    use ultrasoft PP ?                                                          
   IUNSCR =        1    unscreen: 0-lin 1-nonlin 2-no                                               
   RPACOR =    2.080    partial core radius                                                         
   POMASS =   54.938; ZVAL   =   13.000    mass and valenz                                          
   RCORE  =    2.300    outmost cutoff radius                                                       
   RWIGS  =    2.500; RWIGS  =    1.323    wigner-seitz radius (au A)                               
   ENMAX  =  269.864; ENMIN  =  202.398 eV                                                          
   ICORE  =        3    local potential                                                             
   LCOR   =        T    correct aug charges                                                         
   LPAW   =        T    paw PP                                                                      
   EAUG   =  569.085                                                                                
   DEXC   =    0.000                                                                                
   RMAX   =    2.343    core radius for proj-oper                                                   
   RAUG   =    1.300    factor for augmentation sphere                                              
   RDEP   =    2.338    radius for radial grids                                                     
   RDEPT  =    1.798    core radius for aug-charge                                                  
                                                                                                    
   Atomic configuration                                                                             
    8 entries                                                                                       
     n  l   j            E        occ.                                                              
     1  0  0.50     -6424.8287   2.0000                                                             
     2  0  0.50      -739.1154   2.0000                                                             
     2  1  1.50      -625.3949   6.0000                                                             
     3  0  0.50       -81.6100   2.0000                                                             
     3  1  1.50       -50.4667   6.0000                                                             
     3  2  2.50        -3.3745   6.0000                                                             
     4  0  0.50        -4.1331   1.0000                                                             
     4  3  2.50        -1.3606   0.0000                                                             
   Description                                                                                      
     l       E           TYP  RCUT    TYP  RCUT                                                     
     1    -50.4666628     23  2.000                                                                 
     1     -1.3605826     23  2.000                                                                 
     2     -3.3744729     23  2.300                                                                 
     2     -4.7350555     23  2.300                                                                 
     0     -4.1331431     23  2.300                                                                 
     0      7.6656591     23  2.300                                                                 
     3      9.5240782     23  2.300                                                                 
  local pseudopotential read in
  partial core-charges read in
  partial kinetic energy density read in
  atomic valenz-charges read in
  non local Contribution for L=           1  read in
    real space projection operators read in
  non local Contribution for L=           1  read in
    real space projection operators read in
  non local Contribution for L=           2  read in
    real space projection operators read in
  non local Contribution for L=           2  read in
    real space projection operators read in
  non local Contribution for L=           0  read in
    real space projection operators read in
  non local Contribution for L=           0  read in
    real space projection operators read in
    PAW grid and wavefunctions read in
 
   number of l-projection  operators is LMAX  =           6
   number of lm-projection operators is LMMAX =          18
 
 POTCAR:    PAW_PBE O 08Apr2002                   
   SHA256 =  818f92134a0a090dccd8ba1447fa70422a3b330e708bb4f08108d8ae51209ddf O/POTCAR              
   COPYR  = (c) Copyright 08Apr2002 Georg Kresse                                                    
   COPYR  = This file is part of the software VASP. Any use, copying, and all other rights are regul
   COPYR  = If you do not have a valid VASP license, you may not use, copy or distribute this file. 
   VRHFIN =O: s2p4                                                                                  
   LEXCH  = PE                                                                                      
   EATOM  =   432.3788 eV,   31.7789 Ry                                                             
                                                                                                    
   TITEL  = PAW_PBE O 08Apr2002                                                                     
   LULTRA =        F    use ultrasoft PP ?                                                          
   IUNSCR =        1    unscreen: 0-lin 1-nonlin 2-no                                               
   RPACOR =    1.200    partial core radius                                                         
   POMASS =   16.000; ZVAL   =    6.000    mass and valenz                                          
   RCORE  =    1.520    outmost cutoff radius                                                       
   RWIGS  =    1.550; RWIGS  =    0.820    wigner-seitz radius (au A)                               
   ENMAX  =  400.000; ENMIN  =  300.000 eV                                                          
   ICORE  =        2    local potential                                                             
   LCOR   =        T    correct aug charges                                                         
   LPAW   =        T    paw PP                                                                      
   EAUG   =  605.392                                                                                
   DEXC   =    0.000                                                                                
   RMAX   =    1.553    core radius for proj-oper                                                   
   RAUG   =    1.300    factor for augmentation sphere                                              
   RDEP   =    1.550    radius for radial grids                                                     
   RDEPT  =    1.329    core radius for aug-charge                                                  
                                                                                                    
   Atomic configuration                                                                             
    4 entries                                                                                       
     n  l   j            E        occ.                                                              
     1  0  0.50      -514.6923   2.0000                                                             
     2  0  0.50       -23.9615   2.0000                                                             
     2  1  0.50        -9.0305   4.0000                                                             
     3  2  1.50        -9.5241   0.0000                                                             
   Description                                                                                      
     l       E           TYP  RCUT    TYP  RCUT                                                     
     0    -23.9615318     23  1.200                                                                 
     0     -9.5240782     23  1.200                                                                 
     1     -9.0304911     23  1.520                                                                 
     1      8.1634956     23  1.520                                                                 
     2     -9.5240782      7  1.500                                                                 
  local pseudopotential read in
  partial core-charges read in
  partial kinetic energy density read in
  kinetic energy density of atom read in
  atomic valenz-charges read in
  non local Contribution for L=           0  read in
    real space projection operators read in
  non local Contribution for L=           0  read in
    real space projection operators read in
  non local Contribution for L=           1  read in
    real space projection operators read in
  non local Contribution for L=           1  read in
    real space projection operators read in
    PAW grid and wavefunctions read in
 
   number of l-projection  operators is LMAX  =           4
   number of lm-projection operators is LMMAX =           8
 
 Optimization of the real space projectors (new method)

 maximal supplied QI-value         = 18.33
 optimisation between [QCUT,QGAM] = [ 11.55, 23.28] = [ 37.34,151.76] Ry 
 Optimized for a Real-space Cutoff    1.14 Angstroem

   l    n(q)    QCUT    max X(q) W(low)/X(q) W(high)/X(q)  e(spline) 
   0      8    11.548    33.825    0.19E-03    0.87E-04    0.75E-07
   0      8    11.548     8.944    0.15E-03    0.55E-04    0.54E-07
   1      7    11.548     4.214    0.21E-03    0.27E-03    0.42E-07
 Optimization of the real space projectors (new method)

 maximal supplied QI-value         = 16.25
 optimisation between [QCUT,QGAM] = [ 11.54, 23.24] = [ 37.28,151.24] Ry 
 Optimized for a Real-space Cutoff    1.45 Angstroem

   l    n(q)    QCUT    max X(q) W(low)/X(q) W(high)/X(q)  e(spline) 
   1     10    11.539     3.658    0.56E-04    0.12E-03    0.13E-06
   1     10    11.539     5.612    0.11E-03    0.23E-03    0.24E-06
   2      9    11.539    55.373    0.45E-04    0.92E-04    0.22E-06
   2      9    11.539    50.863    0.47E-04    0.95E-04    0.22E-06
   0     10    11.539    79.536    0.46E-04    0.27E-04    0.11E-06
   0     10    11.539    38.668    0.38E-04    0.25E-04    0.10E-06
 Optimization of the real space projectors (new method)

 maximal supplied QI-value         = 24.76
 optimisation between [QCUT,QGAM] = [ 11.64, 23.27] = [ 37.91,151.63] Ry 
 Optimized for a Real-space Cutoff    1.14 Angstroem

   l    n(q)    QCUT    max X(q) W(low)/X(q) W(high)/X(q)  e(spline) 
   0      8    11.635    20.381    0.10E-03    0.33E-03    0.24E-06
   0      8    11.635    15.268    0.11E-03    0.35E-03    0.26E-06
   1      7    11.635     5.964    0.24E-03    0.31E-03    0.30E-06
   1      7    11.635     5.382    0.22E-03    0.25E-03    0.26E-06
  PAW_PBE Li 17Jan2003                  :
 energy of atom  1       EATOM=   -5.3001
 kinetic energy error for atom=    0.0000 (will be added to EATOM!!)
  PAW_PBE Mn_pv 02Aug2007               :
 energy of atom  2       EATOM=-2025.2664
 kinetic energy error for atom=    0.0058 (will be added to EATOM!!)
  PAW_PBE O 08Apr2002                   :
 energy of atom  3       EATOM= -432.3788
 kinetic energy error for atom=    0.0208 (will be added to EATOM!!)
 
 
 POSCAR: Li8 Mn16 O32
  positions in direct lattice
  velocities in cartesian coordinates

 METAGGA = SCAN     LMAXTAU =  6    LMIXTAU =  T

 exchange correlation table for  LEXCH =        8
   RHO(1)=    0.500       N(1)  =     2000
   RHO(2)=  100.500       N(2)  =     4000
 


--------------------------------------------------------------------------------------------------------


 ion  position               nearest neighbor table
   1  0.121  0.623  0.619-  39 1.97  36 1.97  38 1.98  37 2.00
   2  0.879  0.876  0.880-  24 1.95  27 1.96  25 1.97  26 1.98
   3  0.120  0.129  0.123-  28 1.94  29 1.95  31 1.96  30 2.00
   4  0.883  0.370  0.380-  32 1.93  33 1.93  35 1.97  34 2.00
   5  0.379  0.875  0.380-  40 1.96  41 1.98  42 2.00  43 2.08
   6  0.615  0.130  0.627-  45 1.96  44 1.97  47 2.01  46 2.06
   7  0.619  0.624  0.119-  53 1.96  54 1.98  52 2.02  55 2.04
   8  0.502  0.253  0.249-  49 1.89  31 1.90  35 1.90  54 1.92  42 1.94  45 1.94   9 2.86  18 2.87
                            17 2.88  11 2.90  19 2.93  10 2.97
   9  0.251  0.494  0.240-  31 1.89  36 1.90  34 1.92  48 1.92  43 1.94  54 1.94   8 2.86  21 2.88
                            16 2.89  10 2.95  22 2.97  11 3.01
  10  0.253  0.251  0.504-  36 1.94  40 1.95  45 1.96  33 1.97  51 2.15  31 2.19  20 2.93  15 2.94
                             9 2.95  11 2.96  23 2.96   8 2.97
  11  0.504  0.501  0.500-  41 1.93  45 1.93  50 1.98  54 2.02  36 2.16  32 2.18   8 2.90  12 2.90
                            14 2.95  13 2.96  10 2.96   9 3.01
  12  0.503  0.749  0.752-  50 1.92  46 1.96  53 2.00  41 2.01  27 2.17  39 2.17  11 2.90  17 2.93
                            13 2.94  16 2.97  15 2.97  14 2.98
  13  0.762  0.504  0.744-  50 1.88  32 1.90  47 1.91  27 1.92  52 1.95  38 1.95  14 2.87  20 2.90
                            21 2.91  12 2.94  11 2.96  19 2.98
  14  0.753  0.752  0.498-  44 1.88  32 1.90  27 1.91  41 1.93  37 1.93  55 1.94  13 2.87  18 2.88
                            22 2.92  23 2.93  11 2.95  12 2.98
  15  0.241  0.997  0.755-  51 1.87  40 1.89  28 1.92  39 1.93  26 1.94  46 1.94  20 2.84  16 2.86
                            10 2.94  23 2.94  17 2.95  12 2.97
  16  0.244  0.746  0.996-  28 1.87  39 1.90  53 1.91  48 1.92  25 1.95  43 1.95  15 2.86   9 2.89
                            21 2.89  22 2.93  12 2.97  17 2.97
  17  0.493  0.002  0.004-  46 1.95  42 1.95  49 1.96  53 1.99  28 2.17  24 2.18   8 2.88  12 2.93
                            15 2.95  18 2.96  16 2.97  19 2.99
  18  0.745  0.004  0.255-  24 1.89  35 1.90  30 1.90  44 1.92  55 1.95  42 1.95   8 2.87  14 2.88
                            19 2.90  23 2.90  22 2.95  17 2.96
  19  0.752  0.250  0.002-  49 1.91  24 1.96  29 1.96  52 2.03  47 2.15  35 2.17  18 2.90   8 2.93
                            21 2.94  20 2.95  13 2.98  17 2.99
  20  0.002  0.247  0.752-  51 1.86  33 1.90  26 1.91  29 1.92  47 1.93  38 1.94  15 2.84  23 2.86
                            21 2.87  13 2.90  10 2.93  19 2.95
  21  0.004  0.496  0.997-  34 1.89  29 1.92  25 1.92  48 1.92  38 1.92  52 1.94  20 2.87   9 2.88
                            16 2.89  13 2.91  22 2.93  19 2.94
  22  0.998  0.750  0.247-  37 1.93  25 1.95  43 2.01  55 2.02  30 2.14  34 2.15  14 2.92  21 2.93
                            16 2.93  23 2.95  18 2.95   9 2.97
  23  0.995  0.007  0.499-  30 1.91  33 1.95  26 1.97  37 1.98  44 2.15  40 2.16  20 2.86  18 2.90
                            14 2.93  15 2.94  22 2.95  10 2.96
  24  0.752  0.012  0.027-  18 1.89   2 1.95  19 1.96  17 2.18
  25  0.013  0.729  0.013-  21 1.92  22 1.95  16 1.95   2 1.97
  26  0.011  0.013  0.737-  20 1.91  15 1.94  23 1.97   2 1.98
  27  0.760  0.738  0.729-  14 1.91  13 1.92   2 1.96  12 2.17
  28  0.236  0.975  0.987-  16 1.87  15 1.92   3 1.94  17 2.17
  29  0.984  0.263  0.983-  21 1.92  20 1.92   3 1.95  19 1.96
  30  0.971  0.010  0.269-  18 1.90  23 1.91   3 2.00  22 2.14
  31  0.275  0.263  0.240-   9 1.89   8 1.90   3 1.96  10 2.19
  32  0.762  0.520  0.514-  13 1.90  14 1.90   4 1.93  11 2.18
  33  0.018  0.242  0.522-  20 1.90   4 1.93  23 1.95  10 1.97
  34  0.023  0.489  0.225-  21 1.89   9 1.92   4 2.00  22 2.15
  35  0.727  0.236  0.262-  18 1.90   8 1.90   4 1.97  19 2.17
  36  0.249  0.486  0.470-   9 1.90  10 1.94   1 1.97  11 2.16
  37  0.982  0.766  0.480-  22 1.93  14 1.93  23 1.98   1 2.00
  38  0.994  0.483  0.764-  21 1.92  20 1.94  13 1.95   1 1.98
  39  0.244  0.761  0.767-  16 1.90  15 1.93   1 1.97  12 2.17
  40  0.252  0.014  0.526-  15 1.89  10 1.95   5 1.96  23 2.16
  41  0.525  0.736  0.510-  14 1.93  11 1.93   5 1.98  12 2.01
  42  0.513  0.016  0.240-   8 1.94  18 1.95  17 1.95   5 2.00
  43  0.237  0.731  0.232-   9 1.94  16 1.95  22 2.01   5 2.08
  44  0.740  0.982  0.486-  14 1.88  18 1.92   6 1.97  23 2.15
  45  0.485  0.267  0.483-  11 1.93   8 1.94   6 1.96  10 1.96
  46  0.472  0.987  0.770-  15 1.94  17 1.95  12 1.96   6 2.06
  47  0.774  0.271  0.744-  13 1.91  20 1.93   6 2.01  19 2.15
  48  0.232  0.512  0.008-  21 1.92  16 1.92   9 1.92
  49  0.525  0.239  0.021-   8 1.89  19 1.91  17 1.96
  50  0.538  0.517  0.737-  13 1.88  12 1.92  11 1.98
  51  0.223  0.225  0.762-  20 1.86  15 1.87  10 2.15
  52  0.774  0.495  0.980-  21 1.94  13 1.95   7 2.02  19 2.03
  53  0.471  0.760  0.992-  16 1.91   7 1.96  17 1.99  12 2.00
  54  0.482  0.487  0.256-   8 1.92   9 1.94   7 1.98  11 2.02
  55  0.759  0.767  0.263-  14 1.94  18 1.95  22 2.02   7 2.04
 

IMPORTANT INFORMATION: All symmetrisations will be switched off!
NOSYMM: (Re-)initialisation of all symmetry stuff for point group C_1.


----------------------------------------------------------------------------------------

                                     Primitive cell                                     

  volume of cell :     566.2675

  direct lattice vectors                    reciprocal lattice vectors
     8.391659121  0.067071794 -0.007592802     0.119170994 -0.000602812  0.000254244
     0.041352355  8.179557181  0.010752646    -0.000976833  0.122260430  0.000392160
    -0.017735725 -0.026604647  8.250126140     0.000110949 -0.000159901  0.121209991

  length of vectors
     8.391930593  8.179668778  8.250188100     0.119172790  0.122264961  0.121210147

  position of ions in fractional coordinates (direct lattice)
     0.120680920  0.622706878  0.618670087
     0.879320377  0.876380845  0.879857065
     0.119876339  0.128944288  0.123228068
     0.882625843  0.370006336  0.379608869
     0.378896351  0.874949497  0.380168371
     0.615285003  0.129971385  0.627155578
     0.619355593  0.624151666  0.119276104
     0.501564274  0.253274048  0.248529966
     0.251226228  0.493548622  0.239894055
     0.252532371  0.251326236  0.504266281
     0.503774075  0.501425119  0.499800603
     0.502569665  0.749453846  0.752011978
     0.762411592  0.504204981  0.743969575
     0.753180961  0.752091881  0.497588228
     0.240738723  0.996604277  0.754530912
     0.243963645  0.746363576  0.996112004
     0.492677139  0.001809733  0.004337831
     0.745234726  0.004324611  0.255258895
     0.751951827  0.249512639  0.001623370
     0.002297092  0.246717383  0.751534909
     0.003953074  0.495847390  0.997240321
     0.998076564  0.750143776  0.247446801
     0.995473983  0.006786322  0.499024725
     0.751521193  0.011715610  0.026805238
     0.013123135  0.729486660  0.013039511
     0.010833162  0.013313297  0.737135732
     0.759712676  0.738344792  0.729149886
     0.236074300  0.975216442  0.986712810
     0.984214181  0.263114376  0.983172690
     0.971018188  0.010228678  0.269009941
     0.275280435  0.263490062  0.239662255
     0.762203549  0.520135035  0.514439459
     0.018473534  0.242153834  0.522169654
     0.022595969  0.489092987  0.225106525
     0.727302296  0.235651143  0.262361228
     0.248732349  0.486304688  0.469809249
     0.981802877  0.766216198  0.479866865
     0.993636335  0.483496230  0.764437889
     0.244294729  0.761207476  0.766810902
     0.251625425  0.013639591  0.525919883
     0.524696833  0.735770075  0.510054784
     0.513485793  0.016400057  0.239702164
     0.236698327  0.730690666  0.232023689
     0.740460693  0.981979851  0.486332752
     0.484630566  0.267201470  0.483026603
     0.471756782  0.986803899  0.769671174
     0.773535182  0.271011955  0.743547185
     0.231646861  0.512457359  0.008235178
     0.525200940  0.238505123  0.021134130
     0.538245360  0.517351600  0.736940881
     0.223380440  0.224828240  0.762040161
     0.773869783  0.495484089  0.980195502
     0.470795830  0.759759613  0.991500834
     0.482312922  0.486754087  0.255826241
     0.758741358  0.766768021  0.263184047

  ion indices of the primitive-cell ions
   primitive index   ion index
                 1           1
                 2           2
                 3           3
                 4           4
                 5           5
                 6           6
                 7           7
                 8           8
                 9           9
                10          10
                11          11
                12          12
                13          13
                14          14
                15          15
                16          16
                17          17
                18          18
                19          19
                20          20
                21          21
                22          22
                23          23
                24          24
                25          25
                26          26
                27          27
                28          28
                29          29
                30          30
                31          31
                32          32
                33          33
                34          34
                35          35
                36          36
                37          37
                38          38
                39          39
                40          40
                41          41
                42          42
                43          43
                44          44
                45          45
                46          46
                47          47
                48          48
                49          49
                50          50
                51          51
                52          52
                53          53
                54          54
                55          55

----------------------------------------------------------------------------------------

 
 
 KPOINTS: Fully automatic kpoint scheme           

Automatic generation of k-mesh.
 generate k-points for:    6    6    6
Space group operators:
 irot       det(A)        alpha          n_x          n_y          n_z        tau_x        tau_y        tau_z
    1     1.000000     0.000000     1.000000     0.000000     0.000000     0.000000     0.000000     0.000000
 
 Subroutine IBZKPT returns following result:
 ===========================================
 
 Found    112 irreducible k-points:
 
 Following reciprocal coordinates:
            Coordinates               Weight
  0.000000  0.000000  0.000000      1.000000
  0.166667  0.000000 -0.000000      2.000000
  0.333333  0.000000  0.000000      2.000000
  0.500000 -0.000000 -0.000000      1.000000
 -0.000000  0.166667 -0.000000      2.000000
  0.166667  0.166667  0.000000      2.000000
  0.333333  0.166667  0.000000      2.000000
  0.500000  0.166667  0.000000      2.000000
 -0.333333  0.166667  0.000000      2.000000
 -0.166667  0.166667 -0.000000      2.000000
 -0.000000  0.333333 -0.000000      2.000000
  0.166667  0.333333 -0.000000      2.000000
  0.333333  0.333333  0.000000      2.000000
  0.500000  0.333333  0.000000      2.000000
 -0.333333  0.333333 -0.000000      2.000000
 -0.166667  0.333333  0.000000      2.000000
 -0.000000  0.500000 -0.000000      1.000000
  0.166667  0.500000 -0.000000      2.000000
  0.333333  0.500000 -0.000000      2.000000
  0.500000  0.500000  0.000000      1.000000
  0.000000  0.000000  0.166667      2.000000
  0.166667 -0.000000  0.166667      2.000000
  0.333333  0.000000  0.166667      2.000000
  0.500000  0.000000  0.166667      2.000000
 -0.333333 -0.000000  0.166667      2.000000
 -0.166667 -0.000000  0.166667      2.000000
 -0.000000  0.166667  0.166667      2.000000
  0.166667  0.166667  0.166667      2.000000
  0.333333  0.166667  0.166667      2.000000
  0.500000  0.166667  0.166667      2.000000
 -0.333333  0.166667  0.166667      2.000000
 -0.166667  0.166667  0.166667      2.000000
  0.000000  0.333333  0.166667      2.000000
  0.166667  0.333333  0.166667      2.000000
  0.333333  0.333333  0.166667      2.000000
  0.500000  0.333333  0.166667      2.000000
 -0.333333  0.333333  0.166667      2.000000
 -0.166667  0.333333  0.166667      2.000000
  0.000000  0.500000  0.166667      2.000000
  0.166667  0.500000  0.166667      2.000000
  0.333333  0.500000  0.166667      2.000000
  0.500000  0.500000  0.166667      2.000000
 -0.333333  0.500000  0.166667      2.000000
 -0.166667  0.500000  0.166667      2.000000
  0.000000 -0.333333  0.166667      2.000000
  0.166667 -0.333333  0.166667      2.000000
  0.333333 -0.333333  0.166667      2.000000
  0.500000 -0.333333  0.166667      2.000000
 -0.333333 -0.333333  0.166667      2.000000
 -0.166667 -0.333333  0.166667      2.000000
 -0.000000 -0.166667  0.166667      2.000000
  0.166667 -0.166667  0.166667      2.000000
  0.333333 -0.166667  0.166667      2.000000
  0.500000 -0.166667  0.166667      2.000000
 -0.333333 -0.166667  0.166667      2.000000
 -0.166667 -0.166667  0.166667      2.000000
  0.000000  0.000000  0.333333      2.000000
  0.166667  0.000000  0.333333      2.000000
  0.333333  0.000000  0.333333      2.000000
  0.500000 -0.000000  0.333333      2.000000
 -0.333333  0.000000  0.333333      2.000000
 -0.166667  0.000000  0.333333      2.000000
  0.000000  0.166667  0.333333      2.000000
  0.166667  0.166667  0.333333      2.000000
  0.333333  0.166667  0.333333      2.000000
  0.500000  0.166667  0.333333      2.000000
 -0.333333  0.166667  0.333333      2.000000
 -0.166667  0.166667  0.333333      2.000000
 -0.000000  0.333333  0.333333      2.000000
  0.166667  0.333333  0.333333      2.000000
  0.333333  0.333333  0.333333      2.000000
  0.500000  0.333333  0.333333      2.000000
 -0.333333  0.333333  0.333333      2.000000
 -0.166667  0.333333  0.333333      2.000000
 -0.000000  0.500000  0.333333      2.000000
  0.166667  0.500000  0.333333      2.000000
  0.333333  0.500000  0.333333      2.000000
  0.500000  0.500000  0.333333      2.000000
 -0.333333  0.500000  0.333333      2.000000
 -0.166667  0.500000  0.333333      2.000000
 -0.000000 -0.333333  0.333333      2.000000
  0.166667 -0.333333  0.333333      2.000000
  0.333333 -0.333333  0.333333      2.000000
  0.500000 -0.333333  0.333333      2.000000
 -0.333333 -0.333333  0.333333      2.000000
 -0.166667 -0.333333  0.333333      2.000000
  0.000000 -0.166667  0.333333      2.000000
  0.166667 -0.166667  0.333333      2.000000
  0.333333 -0.166667  0.333333      2.000000
  0.500000 -0.166667  0.333333      2.000000
 -0.333333 -0.166667  0.333333      2.000000
 -0.166667 -0.166667  0.333333      2.000000
  0.000000  0.000000  0.500000      1.000000
  0.166667  0.000000  0.500000      2.000000
  0.333333  0.000000  0.500000      2.000000
  0.500000 -0.000000  0.500000      1.000000
 -0.000000  0.166667  0.500000      2.000000
  0.166667  0.166667  0.500000      2.000000
  0.333333  0.166667  0.500000      2.000000
  0.500000  0.166667  0.500000      2.000000
 -0.333333  0.166667  0.500000      2.000000
 -0.166667  0.166667  0.500000      2.000000
 -0.000000  0.333333  0.500000      2.000000
  0.166667  0.333333  0.500000      2.000000
  0.333333  0.333333  0.500000      2.000000
  0.500000  0.333333  0.500000      2.000000
 -0.333333  0.333333  0.500000      2.000000
 -0.166667  0.333333  0.500000      2.000000
 -0.000000  0.500000  0.500000      1.000000
  0.166667  0.500000  0.500000      2.000000
  0.333333  0.500000  0.500000      2.000000
  0.500000  0.500000  0.500000      1.000000
 
 Following cartesian coordinates:
            Coordinates               Weight
  0.000000  0.000000  0.000000      1.000000
  0.019862 -0.000100  0.000042      2.000000
  0.039724 -0.000201  0.000085      2.000000
  0.059585 -0.000301  0.000127      1.000000
 -0.000163  0.020377  0.000065      2.000000
  0.019699  0.020276  0.000108      2.000000
  0.039561  0.020176  0.000150      2.000000
  0.059423  0.020075  0.000192      2.000000
 -0.039886  0.020578 -0.000019      2.000000
 -0.020025  0.020477  0.000023      2.000000
 -0.000326  0.040753  0.000131      2.000000
  0.019536  0.040653  0.000173      2.000000
  0.039398  0.040553  0.000215      2.000000
  0.059260  0.040452  0.000258      2.000000
 -0.040049  0.040954  0.000046      2.000000
 -0.020187  0.040854  0.000088      2.000000
 -0.000488  0.061130  0.000196      1.000000
  0.019373  0.061030  0.000238      2.000000
  0.039235  0.060929  0.000281      2.000000
  0.059097  0.060829  0.000323      1.000000
  0.000018 -0.000027  0.020202      2.000000
  0.019880 -0.000127  0.020244      2.000000
  0.039742 -0.000228  0.020286      2.000000
  0.059604 -0.000328  0.020329      2.000000
 -0.039705  0.000174  0.020117      2.000000
 -0.019843  0.000074  0.020159      2.000000
 -0.000144  0.020350  0.020267      2.000000
  0.019718  0.020250  0.020309      2.000000
  0.039579  0.020149  0.020352      2.000000
  0.059441  0.020049  0.020394      2.000000
 -0.039868  0.020551  0.020182      2.000000
 -0.020006  0.020451  0.020225      2.000000
 -0.000307  0.040727  0.020332      2.000000
  0.019555  0.040626  0.020375      2.000000
  0.039417  0.040526  0.020417      2.000000
  0.059278  0.040425  0.020460      2.000000
 -0.040031  0.040928  0.020248      2.000000
 -0.020169  0.040827  0.020290      2.000000
 -0.000470  0.061104  0.020398      2.000000
  0.019392  0.061003  0.020440      2.000000
  0.039254  0.060903  0.020482      2.000000
  0.059116  0.060802  0.020525      2.000000
 -0.040194  0.061305  0.020313      2.000000
 -0.020332  0.061204  0.020355      2.000000
  0.000344 -0.040780  0.020071      2.000000
  0.020206 -0.040881  0.020113      2.000000
  0.040068 -0.040981  0.020156      2.000000
  0.059930 -0.041082  0.020198      2.000000
 -0.039380 -0.040579  0.019986      2.000000
 -0.019518 -0.040680  0.020029      2.000000
  0.000181 -0.020403  0.020136      2.000000
  0.020043 -0.020504  0.020179      2.000000
  0.039905 -0.020604  0.020221      2.000000
  0.059767 -0.020705  0.020263      2.000000
 -0.039542 -0.020202  0.020052      2.000000
 -0.019681 -0.020303  0.020094      2.000000
  0.000037 -0.000053  0.040403      2.000000
  0.019899 -0.000154  0.040446      2.000000
  0.039761 -0.000254  0.040488      2.000000
  0.059622 -0.000355  0.040530      2.000000
 -0.039687  0.000148  0.040319      2.000000
 -0.019825  0.000047  0.040361      2.000000
 -0.000126  0.020323  0.040469      2.000000
  0.019736  0.020223  0.040511      2.000000
  0.039598  0.020123  0.040553      2.000000
  0.059460  0.020022  0.040596      2.000000
 -0.039849  0.020524  0.040384      2.000000
 -0.019988  0.020424  0.040426      2.000000
 -0.000289  0.040700  0.040534      2.000000
  0.019573  0.040600  0.040576      2.000000
  0.039435  0.040499  0.040619      2.000000
  0.059297  0.040399  0.040661      2.000000
 -0.040012  0.040901  0.040449      2.000000
 -0.020150  0.040801  0.040492      2.000000
 -0.000451  0.061077  0.040599      2.000000
  0.019410  0.060976  0.040642      2.000000
  0.039272  0.060876  0.040684      2.000000
  0.059134  0.060776  0.040727      2.000000
 -0.040175  0.061278  0.040515      2.000000
 -0.020313  0.061177  0.040557      2.000000
  0.000363 -0.040807  0.040273      2.000000
  0.020224 -0.040907  0.040315      2.000000
  0.040086 -0.041008  0.040357      2.000000
  0.059948 -0.041108  0.040400      2.000000
 -0.039361 -0.040606  0.040188      2.000000
 -0.019499 -0.040706  0.040230      2.000000
  0.000200 -0.020430  0.040338      2.000000
  0.020062 -0.020531  0.040380      2.000000
  0.039923 -0.020631  0.040423      2.000000
  0.059785 -0.020731  0.040465      2.000000
 -0.039524 -0.020229  0.040253      2.000000
 -0.019662 -0.020330  0.040296      2.000000
  0.000055 -0.000080  0.060605      1.000000
  0.019917 -0.000180  0.060647      2.000000
  0.039779 -0.000281  0.060690      2.000000
  0.059641 -0.000381  0.060732      1.000000
 -0.000107  0.020297  0.060670      2.000000
  0.019755  0.020196  0.060713      2.000000
  0.039616  0.020096  0.060755      2.000000
  0.059478  0.019995  0.060797      2.000000
 -0.039831  0.020498  0.060586      2.000000
 -0.019969  0.020397  0.060628      2.000000
 -0.000270  0.040674  0.060736      2.000000
  0.019592  0.040573  0.060778      2.000000
  0.039454  0.040473  0.060820      2.000000
  0.059315  0.040372  0.060863      2.000000
 -0.039994  0.040874  0.060651      2.000000
 -0.020132  0.040774  0.060693      2.000000
 -0.000433  0.061050  0.060801      1.000000
  0.019429  0.060950  0.060843      2.000000
  0.039291  0.060849  0.060886      2.000000
  0.059153  0.060749  0.060928      1.000000
 


--------------------------------------------------------------------------------------------------------




 Dimension of arrays:
   k-points           NKPTS =    112   k-points in BZ     NKDIM =    112   number of bands    NBANDS=    296
   number of dos      NEDOS =    301   number of ions     NIONS =     55
   non local maximal  LDIM  =      6   non local SUM 2l+1 LMDIM =     18
   total plane-waves  NPLWV = 262144
   max r-space proj   IRMAX =   5910   max aug-charges    IRDMAX= 118691
   dimension x,y,z NGX =    64 NGY =   64 NGZ =   64
   dimension x,y,z NGXF=   128 NGYF=  128 NGZF=  128
   support grid    NGXF=   256 NGYF=  256 NGZF=  256
   ions per type =               7  16  32
   NGX,Y,Z   is equivalent  to a cutoff of  12.68, 13.01, 12.90 a.u.
   NGXF,Y,Z  is equivalent  to a cutoff of  25.36, 26.02, 25.79 a.u.

 SYSTEM =  unknown system                          
 POSCAR =  Li8 Mn16 O32                            

 Startparameter for this run:
   NWRITE =      2    write-flag & timer
   PREC   = accura    normal or accurate (medium, high low for compatibility)
   ISTART =      0    job   : 0-new  1-cont  2-samecut
   ICHARG =      1    charge: 1-file 2-atom 10-const
   ISPIN  =      2    spin polarized calculation?
   LNONCOLLINEAR =      F non collinear calculations
   LSORBIT =      F    spin-orbit coupling
   INIWAV =      1    electr: 0-lowe 1-rand  2-diag
   LASPH  =      T    aspherical Exc in radial PAW
   METAGGA=      F    non-selfconsistent MetaGGA calc.

 Electronic Relaxation 1
   ENCUT  =  520.0 eV  38.22 Ry    6.18 a.u.  15.60 15.21 15.34*2*pi/ulx,y,z
   ENINI  =  520.0     initial cutoff
   ENAUG  =  605.4 eV  augmentation charge cutoff
   NELM   =    200;   NELMIN=  4; NELMDL= -5     # of ELM steps 
   EDIFF  = 0.1E-04   stopping-criterion for ELM
   LREAL  =      T    real-space projection
   NLSPLINE    = F    spline interpolate recip. space projectors
   LCOMPAT=      F    compatible to vasp.4.4
   GGA_COMPAT  = T    GGA compatible to vasp.4.4-vasp.4.6
   LMAXPAW     = -100 max onsite density
   LMAXMIX     =    4 max onsite mixed and CHGCAR
   VOSKOWN=      0    Vosko Wilk Nusair interpolation
   ROPT   =   -0.00025  -0.00025  -0.00025
 Ionic relaxation
   EDIFFG = -.1E-01   stopping-criterion for IOM
   NSW    =    150    number of steps for IOM
   NBLOCK =      1;   KBLOCK =    150    inner block; outer block 
   IBRION =      2    ionic relax: 0-MD 1-quasi-New 2-CG
   NFREE  =      1    steps in history (QN), initial steepest desc. (CG)
   ISIF   =      3    stress and relaxation
   IWAVPR =     11    prediction:  0-non 1-charg 2-wave 3-comb
   ISYM   =      0    0-nonsym 1-usesym 2-fastsym
   LCORR  =      T    Harris-Foulkes like correction to forces

   POTIM  = 0.5000    time-step for ionic-motion
   TEIN   =    0.0    initial temperature
   TEBEG  =    0.0;   TEEND  =   0.0 temperature during run
   SMASS  =  -3.00    Nose mass-parameter (am)
   estimated Nose-frequenzy (Omega)   =  0.10E-29 period in steps = 0.13E+47 mass=  -0.161E-26a.u.
   SCALEE = 1.0000    scale energy and forces
   NPACO  =    256;   APACO  = 16.0  distance and # of slots for P.C.
   PSTRESS=    0.0 pullay stress

  Mass of Ions in am
   POMASS =   7.01 54.94 16.00
  Ionic Valenz
   ZVAL   =   1.00 13.00  6.00
  Atomic Wigner-Seitz radii
   RWIGS  =  -1.00 -1.00 -1.00
  virtual crystal weights 
   VCA    =   1.00  1.00  1.00
   NELECT =     407.0000    total number of electrons
   NUPDOWN=      -1.0000    fix difference up-down

 DOS related values:
   EMIN   =  10.00;   EMAX   =-10.00  energy-range for DOS
   EFERMI =   0.00
   ISMEAR =     0;   SIGMA  =   0.05  broadening in eV -4-tet -1-fermi 0-gaus

 Electronic relaxation 2 (details)
   IALGO  =     58    algorithm
   LDIAG  =      T    sub-space diagonalisation (order eigenvalues)
   LSUBROT=      F    optimize rotation matrix (better conditioning)
   TURBO    =      0    0=normal 1=particle mesh
   IRESTART =      0    0=no restart 2=restart with 2 vectors
   NREBOOT  =      0    no. of reboots
   NMIN     =      0    reboot dimension
   EREF     =   0.00    reference energy to select bands
   IMIX   =      4    mixing-type and parameters
     AMIX     =   0.40;   BMIX     =  1.00
     AMIX_MAG =   1.60;   BMIX_MAG =  1.00
     AMIN     =   0.10
     WC   =   100.;   INIMIX=   1;  MIXPRE=   1;  MAXMIX= -45

 Intra band minimization:
   WEIMIN = 0.0010     energy-eigenvalue tresh-hold
   EBREAK =  0.84E-08  absolut break condition
   DEPER  =   0.30     relativ break condition  

   TIME   =   0.40     timestep for ELM

  volume/ion in A,a.u.               =      10.30        69.48
  Fermi-wavevector in a.u.,A,eV,Ry     =   1.466445  2.771179 29.258793  2.150461
  Thomas-Fermi vector in A             =   2.582182
 
 Write flags
   LWAVE        =      F    write WAVECAR
   LDOWNSAMPLE  =      F    k-point downsampling of WAVECAR
   LCHARG       =      T    write CHGCAR
   LVTOT        =      F    write LOCPOT, total local potential
   LVHAR        =      F    write LOCPOT, Hartree potential only
   LELF         =      F    write electronic localiz. function (ELF)
   LORBIT       =     11    0 simple, 1 ext, 2 COOP (PROOUT), +10 PAW based schemes


 Dipole corrections
   LMONO  =      F    monopole corrections only (constant potential shift)
   LDIPOL =      F    correct potential (dipole corrections)
   IDIPOL =      0    1-x, 2-y, 3-z, 4-all directions 
   EPSILON=  1.0000000 bulk dielectric constant

 LDA+U is selected, type is set to LDAUTYPE =  2
   angular momentum for each species LDAUL =     0    2    0
   U (eV)           for each species LDAUU =   0.0  3.9  0.0
   J (eV)           for each species LDAUJ =   0.0  0.0  0.0
 Exchange correlation treatment:
   GGA     =    --    GGA type
   LEXCH   =     8    internal setting for exchange type
   VOSKOWN=      0    Vosko Wilk Nusair interpolation
   LHFCALC =     F    Hartree Fock is set to
   LHFONE  =     F    Hartree Fock one center treatment
   AEXX    =    0.0000 exact exchange contribution

 Linear response parameters
   LEPSILON=     F    determine dielectric tensor
   LRPA    =     F    only Hartree local field effects (RPA)
   LNABLA  =     F    use nabla operator in PAW spheres
   LVEL    =     F    velocity operator in full k-point grid
   LINTERFAST=   F  fast interpolation
   KINTER  =     0    interpolate to denser k-point grid
   CSHIFT  =0.1000    complex shift for real part using Kramers Kronig
   OMEGAMAX=  -1.0    maximum frequency
   DEG_THRESHOLD= 0.2000000E-02 threshold for treating states as degnerate
   RTIME   =   -0.100 relaxation time in fs
  (WPLASMAI=    0.000 imaginary part of plasma frequency in eV, 0.658/RTIME)
   DFIELD  = 0.0000000 0.0000000 0.0000000 field for delta impulse in time
 
 Orbital magnetization related:
   ORBITALMAG=     F  switch on orbital magnetization
   LCHIMAG   =     F  perturbation theory with respect to B field
   DQ        =  0.001000  dq finite difference perturbation B field
   LLRAUG    =     F  two centre corrections for induced B field



--------------------------------------------------------------------------------------------------------


 conjugate gradient relaxation of ions
 charge density and potential will be updated during run
 spin polarized calculation
 Conjugate gradient for all bands (Freysoldt, et al. PRB 79, 241103 (2009))
 preconditioned conjugated gradient                                        
 perform sub-space diagonalisation
    before iterative eigenvector-optimisation
 modified Broyden-mixing scheme, WC =      100.0
 initial mixing is a Kerker type mixing with AMIX =  0.4000 and BMIX =      1.0000
 Hartree-type preconditioning will be used
 using additional bands           92
 real space projection scheme for non local part
 use partial core corrections
 no Harris-corrections to forces 
 use gradient corrections 
 use of overlap-Matrix (Vanderbilt PP)
 Gauss-broadening in eV      SIGMA  =   0.05


--------------------------------------------------------------------------------------------------------


  energy-cutoff  :      520.00
  volume of cell :      566.27
      direct lattice vectors                 reciprocal lattice vectors
     8.391659121  0.067071794 -0.007592802     0.119170994 -0.000602812  0.000254244
     0.041352355  8.179557181  0.010752646    -0.000976833  0.122260430  0.000392160
    -0.017735725 -0.026604647  8.250126140     0.000110949 -0.000159901  0.121209991

  length of vectors
     8.391930593  8.179668778  8.250188100     0.119172790  0.122264961  0.121210147


 
 k-points in units of 2pi/SCALE and weight: Fully automatic kpoint scheme           
   0.00000000  0.00000000  0.00000000       0.005
   0.01986183 -0.00010047  0.00004237       0.009
   0.03972366 -0.00020094  0.00008475       0.009
   0.05958550 -0.00030141  0.00012712       0.005
  -0.00016281  0.02037674  0.00006536       0.009
   0.01969903  0.02027627  0.00010773       0.009
   0.03956086  0.02017580  0.00015011       0.009
   0.05942269  0.02007533  0.00019248       0.009
  -0.03988647  0.02057768 -0.00001939       0.009
  -0.02002464  0.02047721  0.00002299       0.009
  -0.00032561  0.04075348  0.00013072       0.009
   0.01953622  0.04065301  0.00017309       0.009
   0.03939805  0.04055254  0.00021547       0.009
   0.05925989  0.04045207  0.00025784       0.009
  -0.04004928  0.04095441  0.00004597       0.009
  -0.02018744  0.04085395  0.00008835       0.009
  -0.00048842  0.06113021  0.00019608       0.005
   0.01937342  0.06102975  0.00023845       0.009
   0.03923525  0.06092928  0.00028083       0.009
   0.05909708  0.06082881  0.00032320       0.005
   0.00001849 -0.00002665  0.02020167       0.009
   0.01988032 -0.00012712  0.02024404       0.009
   0.03974216 -0.00022759  0.02028641       0.009
   0.05960399 -0.00032806  0.02032879       0.009
  -0.03970517  0.00017429  0.02011692       0.009
  -0.01984334  0.00007382  0.02015929       0.009
  -0.00014431  0.02035009  0.02026703       0.009
   0.01971752  0.02024962  0.02030940       0.009
   0.03957935  0.02014915  0.02035177       0.009
   0.05944118  0.02004868  0.02039415       0.009
  -0.03986798  0.02055103  0.02018228       0.009
  -0.02000615  0.02045056  0.02022465       0.009
  -0.00030712  0.04072683  0.02033239       0.009
   0.01955471  0.04062636  0.02037476       0.009
   0.03941655  0.04052589  0.02041713       0.009
   0.05927838  0.04042542  0.02045951       0.009
  -0.04003078  0.04092776  0.02024764       0.009
  -0.02016895  0.04082730  0.02029001       0.009
  -0.00046992  0.06110356  0.02039775       0.009
   0.01939191  0.06100310  0.02044012       0.009
   0.03925374  0.06090263  0.02048249       0.009
   0.05911557  0.06080216  0.02052487       0.009
  -0.04019359  0.06130450  0.02031300       0.009
  -0.02033176  0.06120403  0.02035537       0.009
   0.00034410 -0.04078013  0.02007095       0.009
   0.02020593 -0.04088060  0.02011332       0.009
   0.04006777 -0.04098106  0.02015569       0.009
   0.05992960 -0.04108153  0.02019807       0.009
  -0.03937956 -0.04057919  0.01998620       0.009
  -0.01951773 -0.04067966  0.02002857       0.009
   0.00018130 -0.02040339  0.02013631       0.009
   0.02004313 -0.02050386  0.02017868       0.009
   0.03990496 -0.02060433  0.02022105       0.009
   0.05976679 -0.02070479  0.02026343       0.009
  -0.03954237 -0.02020245  0.02005156       0.009
  -0.01968054 -0.02030292  0.02009393       0.009
   0.00003698 -0.00005330  0.04040333       0.009
   0.01989882 -0.00015377  0.04044570       0.009
   0.03976065 -0.00025424  0.04048808       0.009
   0.05962248 -0.00035471  0.04053045       0.009
  -0.03968668  0.00014764  0.04031858       0.009
  -0.01982485  0.00004717  0.04036096       0.009
  -0.00012582  0.02032344  0.04046869       0.009
   0.01973601  0.02022297  0.04051106       0.009
   0.03959784  0.02012250  0.04055344       0.009
   0.05945967  0.02002203  0.04059581       0.009
  -0.03984949  0.02052438  0.04038394       0.009
  -0.01998765  0.02042391  0.04042632       0.009
  -0.00028863  0.04070018  0.04053405       0.009
   0.01957320  0.04059971  0.04057642       0.009
   0.03943504  0.04049924  0.04061880       0.009
   0.05929687  0.04039877  0.04066117       0.009
  -0.04001229  0.04090111  0.04044930       0.009
  -0.02015046  0.04080065  0.04049168       0.009
  -0.00045143  0.06107691  0.04059941       0.009
   0.01941040  0.06097645  0.04064178       0.009
   0.03927223  0.06087598  0.04068416       0.009
   0.05913406  0.06077551  0.04072653       0.009
  -0.04017510  0.06127785  0.04051466       0.009
  -0.02031327  0.06117738  0.04055704       0.009
   0.00036259 -0.04080678  0.04027261       0.009
   0.02022443 -0.04090725  0.04031498       0.009
   0.04008626 -0.04100771  0.04035736       0.009
   0.05994809 -0.04110818  0.04039973       0.009
  -0.03936107 -0.04060584  0.04018786       0.009
  -0.01949924 -0.04070631  0.04023024       0.009
   0.00019979 -0.02043004  0.04033797       0.009
   0.02006162 -0.02053051  0.04038034       0.009
   0.03992345 -0.02063098  0.04042272       0.009
   0.05978529 -0.02073144  0.04046509       0.009
  -0.03952388 -0.02022910  0.04025322       0.009
  -0.01966204 -0.02032957  0.04029560       0.009
   0.00005547 -0.00007995  0.06060500       0.005
   0.01991731 -0.00018042  0.06064737       0.009
   0.03977914 -0.00028089  0.06068974       0.009
   0.05964097 -0.00038136  0.06073212       0.005
  -0.00010733  0.02029679  0.06067036       0.009
   0.01975450  0.02019632  0.06071273       0.009
   0.03961633  0.02009585  0.06075510       0.009
   0.05947817  0.01999538  0.06079748       0.009
  -0.03983100  0.02049773  0.06058561       0.009
  -0.01996916  0.02039726  0.06062798       0.009
  -0.00027014  0.04067353  0.06073572       0.009
   0.01959170  0.04057306  0.06077809       0.009
   0.03945353  0.04047259  0.06082046       0.009
   0.05931536  0.04037212  0.06086284       0.009
  -0.03999380  0.04087446  0.06065097       0.009
  -0.02013197  0.04077400  0.06069334       0.009
  -0.00043294  0.06105026  0.06080108       0.005
   0.01942889  0.06094980  0.06084345       0.009
   0.03929072  0.06084933  0.06088582       0.009
   0.05915256  0.06074886  0.06092820       0.005
 
 k-points in reciprocal lattice and weights: Fully automatic kpoint scheme           
   0.00000000  0.00000000  0.00000000       0.005
   0.16666667  0.00000000 -0.00000000       0.009
   0.33333333  0.00000000  0.00000000       0.009
   0.50000000 -0.00000000 -0.00000000       0.005
  -0.00000000  0.16666667 -0.00000000       0.009
   0.16666667  0.16666667  0.00000000       0.009
   0.33333333  0.16666667  0.00000000       0.009
   0.50000000  0.16666667  0.00000000       0.009
  -0.33333333  0.16666667  0.00000000       0.009
  -0.16666667  0.16666667 -0.00000000       0.009
  -0.00000000  0.33333333 -0.00000000       0.009
   0.16666667  0.33333333 -0.00000000       0.009
   0.33333333  0.33333333  0.00000000       0.009
   0.50000000  0.33333333  0.00000000       0.009
  -0.33333333  0.33333333 -0.00000000       0.009
  -0.16666667  0.33333333  0.00000000       0.009
  -0.00000000  0.50000000 -0.00000000       0.005
   0.16666667  0.50000000 -0.00000000       0.009
   0.33333333  0.50000000 -0.00000000       0.009
   0.50000000  0.50000000  0.00000000       0.005
   0.00000000  0.00000000  0.16666667       0.009
   0.16666667 -0.00000000  0.16666667       0.009
   0.33333333  0.00000000  0.16666667       0.009
   0.50000000  0.00000000  0.16666667       0.009
  -0.33333333 -0.00000000  0.16666667       0.009
  -0.16666667 -0.00000000  0.16666667       0.009
  -0.00000000  0.16666667  0.16666667       0.009
   0.16666667  0.16666667  0.16666667       0.009
   0.33333333  0.16666667  0.16666667       0.009
   0.50000000  0.16666667  0.16666667       0.009
  -0.33333333  0.16666667  0.16666667       0.009
  -0.16666667  0.16666667  0.16666667       0.009
   0.00000000  0.33333333  0.16666667       0.009
   0.16666667  0.33333333  0.16666667       0.009
   0.33333333  0.33333333  0.16666667       0.009
   0.50000000  0.33333333  0.16666667       0.009
  -0.33333333  0.33333333  0.16666667       0.009
  -0.16666667  0.33333333  0.16666667       0.009
   0.00000000  0.50000000  0.16666667       0.009
   0.16666667  0.50000000  0.16666667       0.009
   0.33333333  0.50000000  0.16666667       0.009
   0.50000000  0.50000000  0.16666667       0.009
  -0.33333333  0.50000000  0.16666667       0.009
  -0.16666667  0.50000000  0.16666667       0.009
   0.00000000 -0.33333333  0.16666667       0.009
   0.16666667 -0.33333333  0.16666667       0.009
   0.33333333 -0.33333333  0.16666667       0.009
   0.50000000 -0.33333333  0.16666667       0.009
  -0.33333333 -0.33333333  0.16666667       0.009
  -0.16666667 -0.33333333  0.16666667       0.009
  -0.00000000 -0.16666667  0.16666667       0.009
   0.16666667 -0.16666667  0.16666667       0.009
   0.33333333 -0.16666667  0.16666667       0.009
   0.50000000 -0.16666667  0.16666667       0.009
  -0.33333333 -0.16666667  0.16666667       0.009
  -0.16666667 -0.16666667  0.16666667       0.009
   0.00000000  0.00000000  0.33333333       0.009
   0.16666667  0.00000000  0.33333333       0.009
   0.33333333  0.00000000  0.33333333       0.009
   0.50000000 -0.00000000  0.33333333       0.009
  -0.33333333  0.00000000  0.33333333       0.009
  -0.16666667  0.00000000  0.33333333       0.009
   0.00000000  0.16666667  0.33333333       0.009
   0.16666667  0.16666667  0.33333333       0.009
   0.33333333  0.16666667  0.33333333       0.009
   0.50000000  0.16666667  0.33333333       0.009
  -0.33333333  0.16666667  0.33333333       0.009
  -0.16666667  0.16666667  0.33333333       0.009
  -0.00000000  0.33333333  0.33333333       0.009
   0.16666667  0.33333333  0.33333333       0.009
   0.33333333  0.33333333  0.33333333       0.009
   0.50000000  0.33333333  0.33333333       0.009
  -0.33333333  0.33333333  0.33333333       0.009
  -0.16666667  0.33333333  0.33333333       0.009
  -0.00000000  0.50000000  0.33333333       0.009
   0.16666667  0.50000000  0.33333333       0.009
   0.33333333  0.50000000  0.33333333       0.009
   0.50000000  0.50000000  0.33333333       0.009
  -0.33333333  0.50000000  0.33333333       0.009
  -0.16666667  0.50000000  0.33333333       0.009
  -0.00000000 -0.33333333  0.33333333       0.009
   0.16666667 -0.33333333  0.33333333       0.009
   0.33333333 -0.33333333  0.33333333       0.009
   0.50000000 -0.33333333  0.33333333       0.009
  -0.33333333 -0.33333333  0.33333333       0.009
  -0.16666667 -0.33333333  0.33333333       0.009
   0.00000000 -0.16666667  0.33333333       0.009
   0.16666667 -0.16666667  0.33333333       0.009
   0.33333333 -0.16666667  0.33333333       0.009
   0.50000000 -0.16666667  0.33333333       0.009
  -0.33333333 -0.16666667  0.33333333       0.009
  -0.16666667 -0.16666667  0.33333333       0.009
   0.00000000  0.00000000  0.50000000       0.005
   0.16666667  0.00000000  0.50000000       0.009
   0.33333333  0.00000000  0.50000000       0.009
   0.50000000 -0.00000000  0.50000000       0.005
  -0.00000000  0.16666667  0.50000000       0.009
   0.16666667  0.16666667  0.50000000       0.009
   0.33333333  0.16666667  0.50000000       0.009
   0.50000000  0.16666667  0.50000000       0.009
  -0.33333333  0.16666667  0.50000000       0.009
  -0.16666667  0.16666667  0.50000000       0.009
  -0.00000000  0.33333333  0.50000000       0.009
   0.16666667  0.33333333  0.50000000       0.009
   0.33333333  0.33333333  0.50000000       0.009
   0.50000000  0.33333333  0.50000000       0.009
  -0.33333333  0.33333333  0.50000000       0.009
  -0.16666667  0.33333333  0.50000000       0.009
  -0.00000000  0.50000000  0.50000000       0.005
   0.16666667  0.50000000  0.50000000       0.009
   0.33333333  0.50000000  0.50000000       0.009
   0.50000000  0.50000000  0.50000000       0.005
 
 position of ions in fractional coordinates (direct lattice) 
   0.12068092  0.62270688  0.61867009
   0.87932038  0.87638085  0.87985707
   0.11987634  0.12894429  0.12322807
   0.88262584  0.37000634  0.37960887
   0.37889635  0.87494950  0.38016837
   0.61528500  0.12997138  0.62715558
   0.61935559  0.62415167  0.11927610
   0.50156427  0.25327405  0.24852997
   0.25122623  0.49354862  0.23989405
   0.25253237  0.25132624  0.50426628
   0.50377407  0.50142512  0.49980060
   0.50256967  0.74945385  0.75201198
   0.76241159  0.50420498  0.74396957
   0.75318096  0.75209188  0.49758823
   0.24073872  0.99660428  0.75453091
   0.24396365  0.74636358  0.99611200
   0.49267714  0.00180973  0.00433783
   0.74523473  0.00432461  0.25525889
   0.75195183  0.24951264  0.00162337
   0.00229709  0.24671738  0.75153491
   0.00395307  0.49584739  0.99724032
   0.99807656  0.75014378  0.24744680
   0.99547398  0.00678632  0.49902473
   0.75152119  0.01171561  0.02680524
   0.01312314  0.72948666  0.01303951
   0.01083316  0.01331330  0.73713573
   0.75971268  0.73834479  0.72914989
   0.23607430  0.97521644  0.98671281
   0.98421418  0.26311438  0.98317269
   0.97101819  0.01022868  0.26900994
   0.27528043  0.26349006  0.23966225
   0.76220355  0.52013503  0.51443946
   0.01847353  0.24215383  0.52216965
   0.02259597  0.48909299  0.22510653
   0.72730230  0.23565114  0.26236123
   0.24873235  0.48630469  0.46980925
   0.98180288  0.76621620  0.47986686
   0.99363633  0.48349623  0.76443789
   0.24429473  0.76120748  0.76681090
   0.25162542  0.01363959  0.52591988
   0.52469683  0.73577007  0.51005478
   0.51348579  0.01640006  0.23970216
   0.23669833  0.73069067  0.23202369
   0.74046069  0.98197985  0.48633275
   0.48463057  0.26720147  0.48302660
   0.47175678  0.98680390  0.76967117
   0.77353518  0.27101195  0.74354719
   0.23164686  0.51245736  0.00823518
   0.52520094  0.23850512  0.02113413
   0.53824536  0.51735160  0.73694088
   0.22338044  0.22482824  0.76204016
   0.77386978  0.49548409  0.98019550
   0.47079583  0.75975961  0.99150083
   0.48231292  0.48675409  0.25582624
   0.75874136  0.76676802  0.26318405
 
 position of ions in cartesian coordinates  (Angst):
   1.02749098  5.08510130  5.10988570
   7.39959237  7.20397655  7.26167868
   1.00910798  1.05946906  1.01712340
   7.41526320  3.07558792  3.12909800
   3.20900768  7.17199845  3.14296815
   5.15751357  1.08769139  5.17083843
   5.22111570  5.14365223  0.98605154
   4.21502204  2.09869833  2.04931865
   2.12435957  4.04747707  1.98255566
   2.12061498  2.05925929  4.16104542
   4.23937109  4.12192745  4.12498461
   4.23504752  6.14390182  6.20843638
   6.40555341  4.15551674  6.13747553
   6.34271356  6.18905759  4.10753387
   2.04802708  8.14785442  6.23386345
   2.06045687  6.09478542  8.22422270
   4.13437651  0.04773215  0.03206631
   6.24940741  0.07856656  2.10030616
   6.32041255  2.09129447  0.01036651
   0.01614974  1.99819869  6.20289322
   0.03599053  4.02954599  8.23266010
   8.40214986  6.19620346  2.04195515
   8.34510839  0.10900096  4.10953147
   6.30651873  0.14552123  0.21556642
   0.14005960  5.96741113  0.11532188
   0.07838510  0.09001224  6.08152367
   6.39285010  6.07088996  6.01774935
   2.00388248  7.96642144  8.14919884
   8.25263303  2.19201513  8.10665495
   8.14410553  0.14163708  2.21210318
   2.31670492  2.16731945  1.97798690
   6.40853721  4.29191014  4.24399600
   0.15577618  1.96805804  4.31042904
   0.20585039  3.99609073  1.86224471
   6.10836450  1.96932344  2.16152483
   2.09905452  3.98194082  3.87932605
   8.26212913  6.32039379  3.95974638
   8.34469326  4.00109243  6.30436339
   2.06791586  6.22232463  6.33261678
   2.10279125  0.11445087  4.33714149
   4.42445660  6.03989593  4.21194386
   4.30542463  0.16220842  1.97385063
   2.01239235  5.98642896  1.92028436
   6.24567544  8.06888566  4.01724326
   4.06933709  2.20524399  3.98422382
   3.98597809  8.08278366  6.35691307
   6.48926320  2.24885836  6.13139887
   1.96494675  4.20699214  0.07169268
   4.41679518  1.98553019  0.17293605
   4.52509511  4.24820202  6.08133134
   1.87031435  1.83370416  6.28764887
   6.49715638  4.07866752  8.08618846
   3.96459099  6.21969579  8.18460172
   4.06299680  4.00697632  2.11217054
   6.39413874  6.31571109  2.17378540
 


--------------------------------------------------------------------------------------------------------


 k-point   1 :   0.0000 0.0000 0.0000  plane waves:   15271
 k-point   2 :   0.1667 0.0000-0.0000  plane waves:   15263
 k-point   3 :   0.3333 0.0000 0.0000  plane waves:   15251
 k-point   4 :   0.5000-0.0000-0.0000  plane waves:   15250
 k-point   5 :  -0.0000 0.1667-0.0000  plane waves:   15261
 k-point   6 :   0.1667 0.1667 0.0000  plane waves:   15278
 k-point   7 :   0.3333 0.1667 0.0000  plane waves:   15259
 k-point   8 :   0.5000 0.1667 0.0000  plane waves:   15248
 k-point   9 :  -0.3333 0.1667 0.0000  plane waves:   15236
 k-point  10 :  -0.1667 0.1667-0.0000  plane waves:   15262
 k-point  11 :  -0.0000 0.3333-0.0000  plane waves:   15256
 k-point  12 :   0.1667 0.3333-0.0000  plane waves:   15277
 k-point  13 :   0.3333 0.3333 0.0000  plane waves:   15263
 k-point  14 :   0.5000 0.3333 0.0000  plane waves:   15254
 k-point  15 :  -0.3333 0.3333-0.0000  plane waves:   15226
 k-point  16 :  -0.1667 0.3333 0.0000  plane waves:   15212
 k-point  17 :  -0.0000 0.5000-0.0000  plane waves:   15248
 k-point  18 :   0.1667 0.5000-0.0000  plane waves:   15251
 k-point  19 :   0.3333 0.5000-0.0000  plane waves:   15246
 k-point  20 :   0.5000 0.5000 0.0000  plane waves:   15236
 k-point  21 :   0.0000 0.0000 0.1667  plane waves:   15252
 k-point  22 :   0.1667-0.0000 0.1667  plane waves:   15253
 k-point  23 :   0.3333 0.0000 0.1667  plane waves:   15248
 k-point  24 :   0.5000 0.0000 0.1667  plane waves:   15233
 k-point  25 :  -0.3333-0.0000 0.1667  plane waves:   15259
 k-point  26 :  -0.1667-0.0000 0.1667  plane waves:   15279
 k-point  27 :  -0.0000 0.1667 0.1667  plane waves:   15249
 k-point  28 :   0.1667 0.1667 0.1667  plane waves:   15258
 k-point  29 :   0.3333 0.1667 0.1667  plane waves:   15244
 k-point  30 :   0.5000 0.1667 0.1667  plane waves:   15241
 k-point  31 :  -0.3333 0.1667 0.1667  plane waves:   15254
 k-point  32 :  -0.1667 0.1667 0.1667  plane waves:   15240
 k-point  33 :   0.0000 0.3333 0.1667  plane waves:   15237
 k-point  34 :   0.1667 0.3333 0.1667  plane waves:   15261
 k-point  35 :   0.3333 0.3333 0.1667  plane waves:   15255
 k-point  36 :   0.5000 0.3333 0.1667  plane waves:   15248
 k-point  37 :  -0.3333 0.3333 0.1667  plane waves:   15242
 k-point  38 :  -0.1667 0.3333 0.1667  plane waves:   15245
 k-point  39 :   0.0000 0.5000 0.1667  plane waves:   15249
 k-point  40 :   0.1667 0.5000 0.1667  plane waves:   15250
 k-point  41 :   0.3333 0.5000 0.1667  plane waves:   15254
 k-point  42 :   0.5000 0.5000 0.1667  plane waves:   15252
 k-point  43 :  -0.3333 0.5000 0.1667  plane waves:   15249
 k-point  44 :  -0.1667 0.5000 0.1667  plane waves:   15245
 k-point  45 :   0.0000-0.3333 0.1667  plane waves:   15239
 k-point  46 :   0.1667-0.3333 0.1667  plane waves:   15253
 k-point  47 :   0.3333-0.3333 0.1667  plane waves:   15244
 k-point  48 :   0.5000-0.3333 0.1667  plane waves:   15261
 k-point  49 :  -0.3333-0.3333 0.1667  plane waves:   15253
 k-point  50 :  -0.1667-0.3333 0.1667  plane waves:   15262
 k-point  51 :  -0.0000-0.1667 0.1667  plane waves:   15244
 k-point  52 :   0.1667-0.1667 0.1667  plane waves:   15233
 k-point  53 :   0.3333-0.1667 0.1667  plane waves:   15261
 k-point  54 :   0.5000-0.1667 0.1667  plane waves:   15236
 k-point  55 :  -0.3333-0.1667 0.1667  plane waves:   15245
 k-point  56 :  -0.1667-0.1667 0.1667  plane waves:   15273
 k-point  57 :   0.0000 0.0000 0.3333  plane waves:   15253
 k-point  58 :   0.1667 0.0000 0.3333  plane waves:   15239
 k-point  59 :   0.3333 0.0000 0.3333  plane waves:   15238
 k-point  60 :   0.5000-0.0000 0.3333  plane waves:   15236
 k-point  61 :  -0.3333 0.0000 0.3333  plane waves:   15240
 k-point  62 :  -0.1667 0.0000 0.3333  plane waves:   15249
 k-point  63 :   0.0000 0.1667 0.3333  plane waves:   15253
 k-point  64 :   0.1667 0.1667 0.3333  plane waves:   15253
 k-point  65 :   0.3333 0.1667 0.3333  plane waves:   15217
 k-point  66 :   0.5000 0.1667 0.3333  plane waves:   15235
 k-point  67 :  -0.3333 0.1667 0.3333  plane waves:   15248
 k-point  68 :  -0.1667 0.1667 0.3333  plane waves:   15231
 k-point  69 :  -0.0000 0.3333 0.3333  plane waves:   15261
 k-point  70 :   0.1667 0.3333 0.3333  plane waves:   15262
 k-point  71 :   0.3333 0.3333 0.3333  plane waves:   15238
 k-point  72 :   0.5000 0.3333 0.3333  plane waves:   15237
 k-point  73 :  -0.3333 0.3333 0.3333  plane waves:   15226
 k-point  74 :  -0.1667 0.3333 0.3333  plane waves:   15251
 k-point  75 :  -0.0000 0.5000 0.3333  plane waves:   15262
 k-point  76 :   0.1667 0.5000 0.3333  plane waves:   15252
 k-point  77 :   0.3333 0.5000 0.3333  plane waves:   15234
 k-point  78 :   0.5000 0.5000 0.3333  plane waves:   15224
 k-point  79 :  -0.3333 0.5000 0.3333  plane waves:   15243
 k-point  80 :  -0.1667 0.5000 0.3333  plane waves:   15259
 k-point  81 :  -0.0000-0.3333 0.3333  plane waves:   15265
 k-point  82 :   0.1667-0.3333 0.3333  plane waves:   15242
 k-point  83 :   0.3333-0.3333 0.3333  plane waves:   15227
 k-point  84 :   0.5000-0.3333 0.3333  plane waves:   15228
 k-point  85 :  -0.3333-0.3333 0.3333  plane waves:   15244
 k-point  86 :  -0.1667-0.3333 0.3333  plane waves:   15260
 k-point  87 :   0.0000-0.1667 0.3333  plane waves:   15245
 k-point  88 :   0.1667-0.1667 0.3333  plane waves:   15227
 k-point  89 :   0.3333-0.1667 0.3333  plane waves:   15254
 k-point  90 :   0.5000-0.1667 0.3333  plane waves:   15237
 k-point  91 :  -0.3333-0.1667 0.3333  plane waves:   15216
 k-point  92 :  -0.1667-0.1667 0.3333  plane waves:   15244
 k-point  93 :   0.0000 0.0000 0.5000  plane waves:   15242
 k-point  94 :   0.1667 0.0000 0.5000  plane waves:   15233
 k-point  95 :   0.3333 0.0000 0.5000  plane waves:   15230
 k-point  96 :   0.5000-0.0000 0.5000  plane waves:   15248
 k-point  97 :  -0.0000 0.1667 0.5000  plane waves:   15258
 k-point  98 :   0.1667 0.1667 0.5000  plane waves:   15243
 k-point  99 :   0.3333 0.1667 0.5000  plane waves:   15208
 k-point 100 :   0.5000 0.1667 0.5000  plane waves:   15218
 k-point 101 :  -0.3333 0.1667 0.5000  plane waves:   15223
 k-point 102 :  -0.1667 0.1667 0.5000  plane waves:   15255
 k-point 103 :  -0.0000 0.3333 0.5000  plane waves:   15256
 k-point 104 :   0.1667 0.3333 0.5000  plane waves:   15266
 k-point 105 :   0.3333 0.3333 0.5000  plane waves:   15253
 k-point 106 :   0.5000 0.3333 0.5000  plane waves:   15226
 k-point 107 :  -0.3333 0.3333 0.5000  plane waves:   15240
 k-point 108 :  -0.1667 0.3333 0.5000  plane waves:   15262
 k-point 109 :  -0.0000 0.5000 0.5000  plane waves:   15272
 k-point 110 :   0.1667 0.5000 0.5000  plane waves:   15268
 k-point 111 :   0.3333 0.5000 0.5000  plane waves:   15267
 k-point 112 :   0.5000 0.5000 0.5000  plane waves:   15234

 maximum and minimum number of plane-waves per node :       978      912

 maximum number of plane-waves:     15279
 maximum index in each direction: 
   IXMAX=   15   IYMAX=   15   IZMAX=   15
   IXMIN=  -16   IYMIN=  -15   IZMIN=  -15


 real space projection operators:
  total allocation   :      19145.38 KBytes
  max/ min on nodes  :       1371.65       1058.38


 parallel 3D FFT for wavefunctions:
    minimum data exchange during FFTs selected (reduces bandwidth)
 parallel 3D FFT for charge:
    minimum data exchange during FFTs selected (reduces bandwidth)


 total amount of memory used by VASP MPI-rank0   840926. kBytes
=======================================================================

   base      :      30000. kBytes
   nonlr-proj:       7208. kBytes
   fftplans  :       5309. kBytes
   grid      :       5820. kBytes
   one-center:        124. kBytes
   wavefun   :     792465. kBytes
 
     INWAV:  cpu time    0.0001: real time    0.0001
 Broyden mixing: mesh for mixing (old mesh)
   NGX = 31   NGY = 31   NGZ = 31
  (NGX  =128   NGY  =128   NGZ  =128)
  gives a total of  29791 points

 initial charge density was supplied:
 charge density of overlapping atoms calculated
 number of electron     407.0000000 magnetization     103.4000000
 keeping initial charge density in first step


--------------------------------------------------------------------------------------------------------


 Maximum index for non-local projection operator          394
 Maximum index for augmentation-charges         2802 (set IRDMAX)


--------------------------------------------------------------------------------------------------------


 First call to EWALD:  gamma=   0.214
 Maximum number of real-space cells 3x 3x 3
 Maximum number of reciprocal cells 3x 3x 3

    FEWALD:  cpu time    0.0018: real time    0.0023


--------------------------------------- Iteration      1(   1)  ---------------------------------------


    POTLOK:  cpu time    0.0959: real time    0.0970
atom =   1  type =  1  l = 0
 
 onsite density matrix
 
spin component  1
 
  0.0933
 
spin component  2
 
  0.0233
 
 occupancies and eigenvectors
 
  o =  0.0233  v =  0.0000  1.0000      0.0000  0.0000
  o =  0.0933  v =  1.0000  0.0000      0.0000  0.0000
atom =   2  type =  1  l = 0
 
 onsite density matrix
 
spin component  1
 
  0.0933
 
spin component  2
 
  0.0233
 
 occupancies and eigenvectors
 
  o =  0.0233  v =  0.0000  1.0000      0.0000  0.0000
  o =  0.0933  v =  1.0000  0.0000      0.0000  0.0000
atom =   3  type =  1  l = 0
 
 onsite density matrix
 
spin component  1
 
  0.0933
 
spin component  2
 
  0.0233
 
 occupancies and eigenvectors
 
  o =  0.0233  v =  0.0000  1.0000      0.0000  0.0000
  o =  0.0933  v =  1.0000  0.0000      0.0000  0.0000
atom =   4  type =  1  l = 0
 
 onsite density matrix
 
spin component  1
 
  0.0933
 
spin component  2
 
  0.0233
 
 occupancies and eigenvectors
 
  o =  0.0233  v =  0.0000  1.0000      0.0000  0.0000
  o =  0.0933  v =  1.0000  0.0000      0.0000  0.0000
atom =   5  type =  1  l = 0
 
 onsite density matrix
 
spin component  1
 
  0.0933
 
spin component  2
 
  0.0233
 
 occupancies and eigenvectors
 
  o =  0.0233  v =  0.0000  1.0000      0.0000  0.0000
  o =  0.0933  v =  1.0000  0.0000      0.0000  0.0000
atom =   6  type =  1  l = 0
 
 onsite density matrix
 
spin component  1
 
  0.0933
 
spin component  2
 
  0.0233
 
 occupancies and eigenvectors
 
  o =  0.0233  v =  0.0000  1.0000      0.0000  0.0000
  o =  0.0933  v =  1.0000  0.0000      0.0000  0.0000
atom =   7  type =  1  l = 0
 
 onsite density matrix
 
spin component  1
 
  0.0933
 
spin component  2
 
  0.0233
 
 occupancies and eigenvectors
 
  o =  0.0233  v =  0.0000  1.0000      0.0000  0.0000
  o =  0.0933  v =  1.0000  0.0000      0.0000  0.0000
atom =   8  type =  2  l = 2
 
 onsite density matrix
 
spin component  1
 
  0.7289  0.0000  0.0000  0.0000  0.0000
  0.0000  0.7289  0.0000  0.0000  0.0000
  0.0000  0.0000  0.7289  0.0000  0.0000
  0.0000  0.0000  0.0000  0.7289  0.0000
  0.0000  0.0000  0.0000  0.0000  0.7289
 
spin component  2
 
  0.3239  0.0000  0.0000  0.0000  0.0000
  0.0000  0.3239  0.0000  0.0000  0.0000
  0.0000  0.0000  0.3239  0.0000  0.0000
  0.0000  0.0000  0.0000  0.3239  0.0000
  0.0000  0.0000  0.0000  0.0000  0.3239
 
 occupancies and eigenvectors
 
  o =  0.3239  v =  0.0000  0.0000  0.0000  0.0000  0.0000  1.0000  0.0000  0.0000  0.0000  0.0000      0.0000  0.0000  0.0000  0.0000  0.0000  0.0000  0.0000  0.0000  0.0000  0.0000
  o =  0.3239  v =  0.0000  0.0000  0.0000  0.0000  0.0000  0.0000  1.0000  0.0000  0.0000  0.0000      0.0000  0.0000  0.0000  0.0000  0.0000  0.0000  0.0000  0.0000  0.0000  0.0000
  o =  0.3239  v =  0.0000  0.0000  0.0000  0.0000  0.0000  0.0000  0.0000  1.0000  0.0000  0.0000      0.0000  0.0000  0.0000  0.0000  0.0000  0.0000  0.0000  0.0000  0.0000  0.0000
  o =  0.3239  v =  0.0000  0.0000  0.0000  0.0000  0.0000  0.0000  0.0000  0.0000  0.0000 -1.0000      0.0000  0.0000  0.0000  0.0000  0.0000  0.0000  0.0000  0.0000  0.0000  0.0000
  o =  0.3239  v =  0.0000  0.0000  0.0000  0.0000  0.0000  0.0000  0.0000  0.0000 -1.0000  0.0000      0.0000  0.0000  0.0000  0.0000  0.0000  0.0000  0.0000  0.0000  0.0000  0.0000
  o =  0.7289  v =  1.0000  0.0000  0.0000  0.0000  0.0000  0.0000  0.0000  0.0000  0.0000  0.0000      0.0000  0.0000  0.0000  0.0000  0.0000  0.0000  0.0000  0.0000  0.0000  0.0000
  o =  0.7289  v =  0.0000  1.0000  0.0000  0.0000  0.0000  0.0000  0.0000  0.0000  0.0000  0.0000      0.0000  0.0000  0.0000  0.0000  0.0000  0.0000  0.0000  0.0000  0.0000  0.0000
  o =  0.7289  v =  0.0000  0.0000  1.0000  0.0000  0.0000  0.0000  0.0000  0.0000  0.0000  0.0000      0.0000  0.0000  0.0000  0.0000  0.0000  0.0000  0.0000  0.0000  0.0000  0.0000
  o =  0.7289  v =  0.0000  0.0000  0.0000  0.0000 -1.0000  0.0000  0.0000  0.0000  0.0000  0.0000      0.0000  0.0000  0.0000  0.0000  0.0000  0.0000  0.0000  0.0000  0.0000  0.0000
  o =  0.7289  v =  0.0000  0.0000  0.0000 -1.0000  0.0000  0.0000  0.0000  0.0000  0.0000  0.0000      0.0000  0.0000  0.0000  0.0000  0.0000  0.0000  0.0000  0.0000  0.0000  0.0000
atom =   9  type =  2  l = 2
 
 onsite density matrix
 
spin component  1
 
  0.7289  0.0000  0.0000  0.0000  0.0000
  0.0000  0.7289  0.0000  0.0000  0.0000
  0.0000  0.0000  0.7289  0.0000  0.0000
  0.0000  0.0000  0.0000  0.7289  0.0000
  0.0000  0.0000  0.0000  0.0000  0.7289
 
spin component  2
 
  0.3239  0.0000  0.0000  0.0000  0.0000
  0.0000  0.3239  0.0000  0.0000  0.0000
  0.0000  0.0000  0.3239  0.0000  0.0000
  0.0000  0.0000  0.0000  0.3239  0.0000
  0.0000  0.0000  0.0000  0.0000  0.3239
 
 occupancies and eigenvectors
 
  o =  0.3239  v =  0.0000  0.0000  0.0000  0.0000  0.0000  1.0000  0.0000  0.0000  0.0000  0.0000      0.0000  0.0000  0.0000  0.0000  0.0000  0.0000  0.0000  0.0000  0.0000  0.0000
  o =  0.3239  v =  0.0000  0.0000  0.0000  0.0000  0.0000  0.0000  1.0000  0.0000  0.0000  0.0000      0.0000  0.0000  0.0000  0.0000  0.0000  0.0000  0.0000  0.0000  0.0000  0.0000
  o =  0.3239  v =  0.0000  0.0000  0.0000  0.0000  0.0000  0.0000  0.0000  1.0000  0.0000  0.0000      0.0000  0.0000  0.0000  0.0000  0.0000  0.0000  0.0000  0.0000  0.0000  0.0000
  o =  0.3239  v =  0.0000  0.0000  0.0000  0.0000  0.0000  0.0000  0.0000  0.0000  0.0000 -1.0000      0.0000  0.0000  0.0000  0.0000  0.0000  0.0000  0.0000  0.0000  0.0000  0.0000
  o =  0.3239  v =  0.0000  0.0000  0.0000  0.0000  0.0000  0.0000  0.0000  0.0000 -1.0000  0.0000      0.0000  0.0000  0.0000  0.0000  0.0000  0.0000  0.0000  0.0000  0.0000  0.0000
  o =  0.7289  v =  1.0000  0.0000  0.0000  0.0000  0.0000  0.0000  0.0000  0.0000  0.0000  0.0000      0.0000  0.0000  0.0000  0.0000  0.0000  0.0000  0.0000  0.0000  0.0000  0.0000
  o =  0.7289  v =  0.0000  1.0000  0.0000  0.0000  0.0000  0.0000  0.0000  0.0000  0.0000  0.0000      0.0000  0.0000  0.0000  0.0000  0.0000  0.0000  0.0000  0.0000  0.0000  0.0000
  o =  0.7289  v =  0.0000  0.0000  1.0000  0.0000  0.0000  0.0000  0.0000  0.0000  0.0000  0.0000      0.0000  0.0000  0.0000  0.0000  0.0000  0.0000  0.0000  0.0000  0.0000  0.0000
  o =  0.7289  v =  0.0000  0.0000  0.0000  0.0000 -1.0000  0.0000  0.0000  0.0000  0.0000  0.0000      0.0000  0.0000  0.0000  0.0000  0.0000  0.0000  0.0000  0.0000  0.0000  0.0000
  o =  0.7289  v =  0.0000  0.0000  0.0000 -1.0000  0.0000  0.0000  0.0000  0.0000  0.0000  0.0000      0.0000  0.0000  0.0000  0.0000  0.0000  0.0000  0.0000  0.0000  0.0000  0.0000
atom =  10  type =  2  l = 2
 
 onsite density matrix
 
spin component  1
 
  0.7289  0.0000  0.0000  0.0000  0.0000
  0.0000  0.7289  0.0000  0.0000  0.0000
  0.0000  0.0000  0.7289  0.0000  0.0000
  0.0000  0.0000  0.0000  0.7289  0.0000
  0.0000  0.0000  0.0000  0.0000  0.7289
 
spin component  2
 
  0.3239  0.0000  0.0000  0.0000  0.0000
  0.0000  0.3239  0.0000  0.0000  0.0000
  0.0000  0.0000  0.3239  0.0000  0.0000
  0.0000  0.0000  0.0000  0.3239  0.0000
  0.0000  0.0000  0.0000  0.0000  0.3239
 
 occupancies and eigenvectors
 
  o =  0.3239  v =  0.0000  0.0000  0.0000  0.0000  0.0000  1.0000  0.0000  0.0000  0.0000  0.0000      0.0000  0.0000  0.0000  0.0000  0.0000  0.0000  0.0000  0.0000  0.0000  0.0000
  o =  0.3239  v =  0.0000  0.0000  0.0000  0.0000  0.0000  0.0000  1.0000  0.0000  0.0000  0.0000      0.0000  0.0000  0.0000  0.0000  0.0000  0.0000  0.0000  0.0000  0.0000  0.0000
  o =  0.3239  v =  0.0000  0.0000  0.0000  0.0000  0.0000  0.0000  0.0000  1.0000  0.0000  0.0000      0.0000  0.0000  0.0000  0.0000  0.0000  0.0000  0.0000  0.0000  0.0000  0.0000
  o =  0.3239  v =  0.0000  0.0000  0.0000  0.0000  0.0000  0.0000  0.0000  0.0000  0.0000 -1.0000      0.0000  0.0000  0.0000  0.0000  0.0000  0.0000  0.0000  0.0000  0.0000  0.0000
[...]
tot          0.537  -0.994  54.469  54.012
 
    FORLOC:  cpu time    0.0060: real time    0.0060
    FORNL :  cpu time   16.9096: real time   16.9126
    STRESS:  cpu time  513.1003: real time  513.2060
    FORCOR:  cpu time    0.0927: real time    0.0931
    OFIELD:  cpu time    0.0002: real time    0.0002

  FORCE on cell =-STRESS in cart. coord.  units (eV):
  Direction    XX          YY          ZZ          XY          YZ          ZX
  --------------------------------------------------------------------------------------
  Alpha Z  1612.55195  1612.55195  1612.55195
  Ewald   -9248.63247 -8798.60126 -8997.18582  -476.07770  -413.10009   196.01571
  Hartree  5654.66502  5816.16201  5724.66772  -385.06940  -342.72420   160.69871
  E(xc)   -2402.51631 -2403.28848 -2402.98277     0.06685    -0.04117    -0.02100
  Local   -2794.16867 -3350.84720 -3082.28990   859.37812   753.41998  -355.12795
  n-local -1220.76047 -1205.34558 -1210.77885    -0.46057    -0.20298     0.22639
  augment  1940.10096  1913.95838  1923.98738     0.36415     1.63072    -0.62450
  Kinetic  6458.80101  6415.47117  6432.08478     1.79807     1.01082    -1.15934
  Fock        0.00000     0.00000     0.00000     0.00000     0.00000     0.00000
  -------------------------------------------------------------------------------------
  Total       0.04102     0.06098     0.05448    -0.00047    -0.00693     0.00802
  in kB       0.11607     0.17252     0.15416    -0.00134    -0.01960     0.02269
  external pressure =        0.15 kB  Pullay stress =        0.00 kB


 VOLUME and BASIS-vectors are now :
 -----------------------------------------------------------------------------
  energy-cutoff  :      520.00
  volume of cell :      566.27
      direct lattice vectors                 reciprocal lattice vectors
     8.391659121  0.067071794 -0.007592802     0.119170994 -0.000602812  0.000254244
     0.041352355  8.179557181  0.010752646    -0.000976833  0.122260430  0.000392160
    -0.017735725 -0.026604647  8.250126140     0.000110949 -0.000159901  0.121209991

  length of vectors
     8.391930593  8.179668778  8.250188100     0.119172790  0.122264961  0.121210147


 FORCES acting on ions:
    Electron-Ion                     Ewald-Force                    Non-Local-Force
 -----------------------------------------------------------------------------------------------
   -.759E+01 -.892E+00 0.264E+01   0.769E+01 0.884E+00 -.262E+01   -.102E+00 0.144E-01 -.437E-01
   0.761E+01 -.154E+01 0.174E+00   -.767E+01 0.153E+01 -.166E+00   0.633E-01 0.281E-01 -.273E-01
   -.255E+01 0.399E+01 -.709E+01   0.261E+01 -.398E+01 0.684E+01   -.577E-01 -.715E-02 0.279E+00
   0.101E+01 -.289E+01 0.544E+01   -.109E+01 0.287E+01 -.513E+01   0.958E-01 0.331E-01 -.390E+00
   0.548E+01 0.263E+01 0.217E+01   -.533E+01 -.242E+01 -.184E+01   -.179E+00 -.243E+00 -.408E+00
   0.303E+01 0.979E+00 -.948E+01   -.291E+01 -.882E+00 0.903E+01   -.140E+00 -.105E+00 0.524E+00
   -.238E+01 -.252E+00 0.367E+00   0.212E+01 0.290E+00 -.416E+00   0.320E+00 -.426E-01 0.297E-01
   0.898E+01 -.173E+02 -.754E+01   -.915E+01 0.175E+02 0.676E+01   0.171E+00 -.207E+00 0.757E+00
   -.453E+02 -.240E+02 -.332E+02   0.446E+02 0.225E+02 0.348E+02   0.712E+00 0.156E+01 -.157E+01
   -.556E+02 -.109E+02 -.267E+02   0.557E+02 0.108E+02 0.270E+02   -.152E+00 0.521E-01 -.328E+00
   0.568E+02 -.309E+01 -.348E+02   -.569E+02 0.294E+01 0.354E+02   0.117E+00 0.164E+00 -.552E+00
   0.314E+01 -.768E+01 -.132E+02   -.335E+01 0.666E+01 0.136E+02   0.218E+00 0.103E+01 -.411E+00
   0.546E+02 -.341E+01 -.304E+02   -.561E+02 0.301E+01 0.289E+02   0.146E+01 0.404E+00 0.148E+01
   0.384E+02 0.126E+02 0.586E+01   -.386E+02 -.124E+02 -.468E+01   0.175E+00 -.207E+00 -.120E+01
   -.674E+02 0.374E+02 0.327E+02   0.680E+02 -.363E+02 -.331E+02   -.538E+00 -.115E+01 0.342E+00
   -.624E+02 0.860E+01 -.388E+01   0.634E+02 -.724E+01 0.265E+01   -.989E+00 -.137E+01 0.120E+01
   -.702E+01 0.414E+01 0.364E+02   0.741E+01 -.356E+01 -.366E+02   -.381E+00 -.580E+00 0.206E+00
   0.258E+02 0.382E+02 0.187E+02   -.243E+02 -.370E+02 -.191E+02   -.146E+01 -.120E+01 0.386E+00
   0.556E+02 -.157E+02 0.368E+02   -.570E+02 0.137E+02 -.371E+02   0.140E+01 0.200E+01 0.246E+00
   0.278E+02 0.769E+01 -.122E+01   -.267E+02 -.759E+01 0.516E+00   -.102E+01 -.100E+00 0.697E+00
   0.267E+02 -.380E+01 -.125E+02   -.266E+02 0.335E+01 0.136E+02   -.102E+00 0.456E+00 -.116E+01
   -.142E+02 -.182E+02 -.155E+02   0.142E+02 0.185E+02 0.165E+02   0.314E-01 -.286E+00 -.996E+00
   -.397E+02 0.140E+02 0.263E+02   0.399E+02 -.135E+02 -.279E+02   -.173E+00 -.490E+00 0.161E+01
   -.167E+03 0.234E+03 0.273E+03   0.172E+03 -.244E+03 -.284E+03   -.523E+01 0.986E+01 0.110E+02
   0.245E+03 -.243E+03 0.201E+03   -.256E+03 0.254E+03 -.211E+03   0.106E+02 -.110E+02 0.104E+02
   0.250E+03 0.254E+03 -.198E+03   -.261E+03 -.267E+03 0.207E+03   0.109E+02 0.125E+02 -.900E+01
   -.161E+03 -.263E+03 -.258E+03   0.167E+03 0.275E+03 0.269E+03   -.570E+01 -.116E+02 -.110E+02
   0.170E+03 -.246E+03 -.260E+03   -.175E+03 0.258E+03 0.271E+03   0.582E+01 -.124E+02 -.110E+02
   -.188E+03 0.246E+03 -.246E+03   0.197E+03 -.258E+03 0.256E+03   -.927E+01 0.118E+02 -.110E+02
   -.263E+03 -.196E+03 0.223E+03   0.273E+03 0.203E+03 -.234E+03   -.107E+02 -.695E+01 0.118E+02
   0.233E+03 0.272E+03 0.174E+03   -.244E+03 -.285E+03 -.180E+03   0.109E+02 0.129E+02 0.569E+01
   -.171E+03 0.242E+03 0.261E+03   0.176E+03 -.254E+03 -.273E+03   -.538E+01 0.118E+02 0.118E+02
   0.184E+03 -.226E+03 0.255E+03   -.192E+03 0.237E+03 -.267E+03   0.789E+01 -.111E+02 0.111E+02
   0.244E+03 0.198E+03 -.263E+03   -.255E+03 -.205E+03 0.276E+03   0.107E+02 0.689E+01 -.130E+02
   -.236E+03 -.264E+03 -.193E+03   0.247E+03 0.276E+03 0.200E+03   -.114E+02 -.119E+02 -.705E+01
   0.174E+03 -.238E+03 -.258E+03   -.180E+03 0.249E+03 0.269E+03   0.596E+01 -.105E+02 -.101E+02
   -.261E+03 0.207E+03 -.209E+03   0.272E+03 -.216E+03 0.220E+03   -.108E+02 0.871E+01 -.111E+02
   -.247E+03 -.237E+03 0.240E+03   0.258E+03 0.247E+03 -.251E+03   -.112E+02 -.107E+02 0.111E+02
   0.152E+03 0.257E+03 0.279E+03   -.157E+03 -.268E+03 -.291E+03   0.491E+01 0.112E+02 0.122E+02
   -.210E+03 0.232E+03 0.264E+03   0.216E+03 -.241E+03 -.275E+03   -.594E+01 0.955E+01 0.110E+02
   0.258E+03 -.217E+03 0.202E+03   -.268E+03 0.229E+03 -.211E+03   0.968E+01 -.112E+02 0.844E+01
   0.249E+03 0.255E+03 -.211E+03   -.259E+03 -.266E+03 0.221E+03   0.996E+01 0.111E+02 -.106E+02
   -.219E+03 -.252E+03 -.263E+03   0.228E+03 0.263E+03 0.274E+03   -.897E+01 -.105E+02 -.112E+02
   0.212E+03 -.238E+03 -.266E+03   -.219E+03 0.250E+03 0.278E+03   0.662E+01 -.120E+02 -.116E+02
   -.191E+03 0.216E+03 -.263E+03   0.200E+03 -.227E+03 0.273E+03   -.889E+01 0.110E+02 -.960E+01
   -.242E+03 -.231E+03 0.213E+03   0.251E+03 0.242E+03 -.224E+03   -.903E+01 -.109E+02 0.107E+02
   0.283E+03 0.254E+03 0.187E+03   -.294E+03 -.266E+03 -.193E+03   0.111E+02 0.111E+02 0.668E+01
   -.272E+03 0.232E+03 0.261E+03   0.287E+03 -.247E+03 -.276E+03   -.154E+02 0.150E+02 0.156E+02
   0.207E+03 -.224E+03 0.288E+03   -.220E+03 0.238E+03 -.303E+03   0.135E+02 -.135E+02 0.156E+02
   0.260E+03 0.244E+03 -.224E+03   -.273E+03 -.259E+03 0.237E+03   0.135E+02 0.151E+02 -.131E+02
   -.302E+03 -.267E+03 -.193E+03   0.318E+03 0.282E+03 0.204E+03   -.164E+02 -.158E+02 -.107E+02
   0.269E+03 -.215E+03 -.239E+03   -.280E+03 0.223E+03 0.248E+03   0.111E+02 -.859E+01 -.968E+01
   -.251E+03 0.214E+03 -.208E+03   0.261E+03 -.223E+03 0.217E+03   -.977E+01 0.904E+01 -.926E+01
   -.236E+03 -.265E+03 0.200E+03   0.245E+03 0.278E+03 -.208E+03   -.957E+01 -.123E+02 0.784E+01
   0.217E+03 0.249E+03 0.254E+03   -.226E+03 -.260E+03 -.265E+03   0.866E+01 0.102E+02 0.115E+02
 -----------------------------------------------------------------------------------------------
   0.261E+01 0.361E+01 -.517E+01   -.682E-12 0.512E-12 0.171E-12   -.223E+01 -.335E+01 0.409E+01
 
 
 POSITION                                       TOTAL-FORCE (eV/Angst)
 -----------------------------------------------------------------------------------
      1.02749      5.08510      5.10989        -0.000185      0.000556      0.000032
      7.39959      7.20398      7.26168        -0.000809     -0.000330     -0.000687
      1.00911      1.05947      1.01712        -0.000313     -0.000774      0.001831
      7.41526      3.07559      3.12910         0.000285     -0.001832      0.001451
      3.20901      7.17200      3.14297        -0.001212      0.001808      0.000254
      5.15751      1.08769      5.17084        -0.000497      0.000433     -0.000348
      5.22112      5.14365      0.98605         0.000609      0.000030     -0.000967
      4.21502      2.09870      2.04932        -0.002598      0.008573     -0.002978
      2.12436      4.04748      1.98256        -0.004070     -0.002527      0.003678
      2.12061      2.05926      4.16105        -0.003747      0.003541      0.002360
      4.23937      4.12193      4.12498         0.004306      0.006476      0.001795
      4.23505      6.14390      6.20844         0.000291      0.001969      0.001206
      6.40555      4.15552      6.13748         0.001558      0.003270      0.000007
      6.34271      6.18906      4.10753         0.000480      0.001241     -0.000511
      2.04803      8.14785      6.23386         0.006888     -0.005200      0.001734
      2.06046      6.09479      8.22422        -0.000276     -0.001695     -0.003404
      4.13438      0.04773      0.03207         0.001375     -0.000124      0.001708
      6.24941      0.07857      2.10031         0.001456      0.000582     -0.002167
      6.32041      2.09129      0.01037         0.000023     -0.002144      0.001213
      0.01615      1.99820      6.20289        -0.001243     -0.001428      0.004436
      0.03599      4.02955      8.23266        -0.001524      0.000573     -0.002479
      8.40215      6.19620      2.04196        -0.003886     -0.007210     -0.005392
      8.34511      0.10900      4.10953        -0.000463     -0.001344     -0.002084
      6.30652      0.14552      0.21557         0.001467      0.000717     -0.000257
      0.14006      5.96741      0.11532        -0.000576     -0.002533     -0.003901
      0.07839      0.09001      6.08152        -0.002019     -0.002415      0.002043
      6.39285      6.07089      6.01775        -0.000503      0.000824     -0.000292
      2.00388      7.96642      8.14920        -0.001857     -0.000102      0.000633
      8.25263      2.19202      8.10665         0.000190     -0.001915      0.002704
      8.14411      0.14164      2.21210         0.001814     -0.001609     -0.000341
      2.31670      2.16732      1.97799         0.000513      0.000334      0.001885
      6.40854      4.29191      4.24400         0.001144     -0.000030     -0.001514
      0.15578      1.96806      4.31043        -0.000416      0.000048      0.002659
      0.20585      3.99609      1.86224         0.000539     -0.005499     -0.000794
      6.10836      1.96932      2.16152         0.001801      0.000683      0.000635
      2.09905      3.98194      3.87933         0.000140      0.001523      0.000497
      8.26213      6.32039      3.95975         0.001384      0.000567      0.000490
      8.34469      4.00109      6.30436         0.001011     -0.002254     -0.001284
      2.06792      6.22232      6.33262        -0.000446     -0.000153     -0.001155
      2.10279      0.11445      4.33714         0.000829      0.001206     -0.000923
      4.42446      6.03990      4.21194        -0.000276      0.002214     -0.003287
      4.30542      0.16221      1.97385        -0.000767      0.000132      0.001398
      2.01239      5.98643      1.92028        -0.003481      0.000425      0.000611
      6.24568      8.06889      4.01724        -0.000227      0.001162      0.000426
      4.06934      2.20524      3.98422         0.001097      0.002413      0.001660
      3.98598      8.08278      6.35691         0.000082     -0.000404     -0.001695
      6.48926      2.24886      6.13140        -0.001434     -0.001171      0.000423
      1.96495      4.20699      0.07169         0.001985     -0.000843     -0.001276
      4.41680      1.98553      0.17294        -0.000703      0.000097      0.000481
      4.52510      4.24820      6.08133        -0.001790      0.000416     -0.001336
      1.87031      1.83370      6.28765         0.000251     -0.000045      0.002873
      6.49716      4.07867      8.08619         0.000039      0.000613     -0.000234
      3.96459      6.21970      8.18460         0.000021     -0.000264      0.001365
      4.06300      4.00698      2.11217         0.001831      0.002261     -0.001291
      6.39414      6.31571      2.17379         0.001910     -0.000840     -0.001892
 -----------------------------------------------------------------------------------
    total drift:                                0.379732      0.259726     -1.082453


--------------------------------------------------------------------------------------------------------



  FREE ENERGIE OF THE ION-ELECTRON SYSTEM (eV)
  ---------------------------------------------------
  free  energy   TOTEN  =      -595.83686719 eV

  energy  without entropy=     -595.83686719  energy(sigma->0) =     -595.83686719
 


--------------------------------------------------------------------------------------------------------


    POTLOK:  cpu time    1.0258: real time    1.0259


--------------------------------------------------------------------------------------------------------




--------------------------------------------------------------------------------------------------------


  
 reached required accuracy - stopping structural energy minimisation
     LOOP+:  cpu time 8393.1518: real time 8397.8306
    4ORBIT:  cpu time    0.0000: real time    0.0000
 


 total charge     
 
# of ion       s       p       d       tot
------------------------------------------
    1        0.099   0.186   0.000   0.285
    2        0.103   0.196   0.000   0.300
    3        0.103   0.196   0.000   0.299
    4        0.105   0.201   0.000   0.305
    5        0.094   0.175   0.000   0.269
    6        0.093   0.175   0.000   0.268
    7        0.094   0.176   0.000   0.270
    8        0.386   6.470   4.775  11.631
    9        0.382   6.462   4.760  11.604
   10        0.317   6.334   4.796  11.447
   11        0.315   6.330   4.795  11.441
   12        0.312   6.324   4.790  11.426
   13        0.384   6.464   4.765  11.613
   14        0.385   6.470   4.769  11.624
   15        0.385   6.469   4.772  11.626
   16        0.386   6.468   4.772  11.625
   17        0.314   6.327   4.792  11.434
   18        0.386   6.471   4.769  11.627
   19        0.317   6.332   4.802  11.451
   20        0.389   6.477   4.788  11.654
   21        0.385   6.466   4.775  11.626
   22        0.313   6.327   4.790  11.431
   23        0.323   6.344   4.813  11.481
   24        1.574   3.501   0.000   5.075
   25        1.578   3.511   0.000   5.088
   26        1.577   3.507   0.000   5.084
   27        1.576   3.491   0.000   5.068
   28        1.578   3.501   0.000   5.079
   29        1.578   3.515   0.000   5.094
   30        1.576   3.503   0.000   5.079
   31        1.578   3.495   0.000   5.073
   32        1.578   3.499   0.000   5.077
   33        1.576   3.523   0.000   5.100
   34        1.578   3.491   0.000   5.069
   35        1.578   3.498   0.000   5.076
   36        1.574   3.500   0.000   5.074
   37        1.576   3.511   0.000   5.087
   38        1.579   3.503   0.000   5.082
   39        1.576   3.494   0.000   5.070
   40        1.573   3.503   0.000   5.076
   41        1.574   3.511   0.000   5.085
   42        1.576   3.503   0.000   5.079
   43        1.575   3.489   0.000   5.064
   44        1.578   3.501   0.000   5.079
   45        1.575   3.518   0.000   5.093
   46        1.574   3.504   0.000   5.077
   47        1.576   3.494   0.000   5.070
   48        1.589   3.456   0.000   5.045
   49        1.585   3.473   0.000   5.058
   50        1.584   3.471   0.000   5.055
   51        1.589   3.458   0.000   5.046
   52        1.575   3.491   0.000   5.066
   53        1.573   3.506   0.000   5.080
   54        1.576   3.499   0.000   5.075
   55        1.575   3.492   0.000   5.067
--------------------------------------------------
tot         56.847 215.753  76.524 349.124
 


 magnetization (x)
 
# of ion       s       p       d       tot
------------------------------------------
    1        0.002   0.003   0.000   0.005
    2        0.002   0.003   0.000   0.005
    3        0.002   0.003   0.000   0.005
    4        0.002   0.003   0.000   0.005
    5        0.002   0.003   0.000   0.005
    6        0.002   0.003   0.000   0.005
    7        0.002   0.003   0.000   0.005
    8        0.023   0.038   3.074   3.135
    9        0.023   0.039   3.065   3.127
   10        0.032   0.035   3.837   3.904
   11        0.033   0.035   3.849   3.916
   12        0.033   0.034   3.856   3.923
   13        0.023   0.038   3.062   3.124
   14        0.022   0.038   3.064   3.124
   15        0.023   0.038   3.045   3.106
   16        0.023   0.038   3.056   3.117
   17        0.033   0.034   3.853   3.921
   18        0.021   0.037   3.039   3.097
   19        0.032   0.035   3.846   3.912
   20        0.023   0.038   3.054   3.115
   21        0.024   0.039   3.093   3.156
   22        0.031   0.034   3.849   3.915
   23        0.030   0.034   3.825   3.889
   24        0.006   0.001   0.000   0.007
   25       -0.000  -0.092   0.000  -0.092
   26        0.000  -0.082   0.000  -0.082
   27        0.005  -0.013   0.000  -0.008
   28        0.006   0.002   0.000   0.008
   29        0.000  -0.081   0.000  -0.081
   30        0.005  -0.026   0.000  -0.021
   31        0.005  -0.007   0.000  -0.001
   32        0.005  -0.010   0.000  -0.005
   33        0.002  -0.070   0.000  -0.069
   34        0.005  -0.021   0.000  -0.017
   35        0.005  -0.006   0.000  -0.001
   36        0.005  -0.023   0.000  -0.018
   37        0.001  -0.093   0.000  -0.092
   38        0.000  -0.069   0.000  -0.069
   39        0.005   0.002   0.000   0.007
   40        0.006  -0.007   0.000  -0.001
   41        0.001  -0.085   0.000  -0.084
   42        0.000  -0.086   0.000  -0.086
   43        0.002  -0.066   0.000  -0.065
   44        0.006   0.007   0.000   0.013
   45        0.001  -0.082   0.000  -0.081
   46       -0.000  -0.099   0.000  -0.099
   47        0.005   0.006   0.000   0.012
   48        0.002  -0.088   0.000  -0.087
   49        0.002  -0.120   0.000  -0.118
   50        0.002  -0.113   0.000  -0.111
   51        0.007  -0.009   0.000  -0.002
   52        0.002  -0.067   0.000  -0.065
   53        0.002  -0.071   0.000  -0.069
   54        0.001  -0.067   0.000  -0.065
   55        0.002  -0.063   0.000  -0.062
--------------------------------------------------
tot          0.537  -0.994  54.469  54.012
 

 total amount of memory used by VASP MPI-rank0   840926. kBytes
=======================================================================

   base      :      30000. kBytes
   nonlr-proj:       7208. kBytes
   fftplans  :       5309. kBytes
   grid      :       5820. kBytes
   one-center:        124. kBytes
   wavefun   :     792465. kBytes
 
  
  
 General timing and accounting informations for this job:
 ========================================================
  
                  Total CPU time used (sec):     8521.562
                            User time (sec):     8452.998
                          System time (sec):       68.564
                         Elapsed time (sec):     8527.364
  
                   Maximum memory used (kb):     1799556.
                   Average memory used (kb):           0.
  
                          Minor page faults:       668455
                          Major page faults:            0
                 Voluntary context switches:         3640
