       N       E                     dE             d eps       ncg     rms          rms(c)
DAV:   1     0.310023181287E+04    0.31002E+04   -0.25781E+05 11532   0.130E+03
DAV:   2    -0.596887431910E+03   -0.36971E+04   -0.35628E+04 14076   0.297E+02
DAV:   3    -0.863966433271E+03   -0.26708E+03   -0.26536E+03 13944   0.846E+01
DAV:   4    -0.867402422265E+03   -0.34360E+01   -0.34227E+01 14100   0.103E+01
DAV:   5    -0.867464071263E+03   -0.61649E-01   -0.61494E-01 14244   0.127E+00    0.989E+01
DAV:   6    -0.768464616462E+03    0.98999E+02   -0.41350E+02 12948   0.322E+01    0.510E+01
DAV:   7    -0.777799572483E+03   -0.93350E+01   -0.22635E+01 13152   0.788E+00    0.163E+01
DAV:   8    -0.782581448861E+03   -0.47819E+01   -0.23507E+00 13536   0.274E+00    0.803E+00
DAV:   9    -0.785295181081E+03   -0.27137E+01   -0.17590E+00 14064   0.203E+00    0.385E+00
DAV:  10    -0.785781615405E+03   -0.48643E+00   -0.30113E-01 13260   0.963E-01    0.117E+00
DAV:  11    -0.785859577540E+03   -0.77962E-01   -0.47554E-02 13956   0.406E-01    0.619E-01
DAV:  12    -0.785872300348E+03   -0.12723E-01   -0.71718E-03 13404   0.164E-01    0.298E-01
DAV:  13    -0.785874817785E+03   -0.25174E-02   -0.16233E-03 13848   0.821E-02    0.119E-01
DAV:  14    -0.785875366105E+03   -0.54832E-03   -0.48562E-04 13236   0.460E-02    0.405E-02
DAV:  15    -0.785875393050E+03   -0.26945E-04   -0.89309E-05 14736   0.275E-02    0.284E-02
DAV:  16    -0.785875395127E+03   -0.20778E-05   -0.33209E-05 12552   0.181E-02
   1 F= -.78587540E+03 E0= -.78587540E+03  d E =-.785875E+03  mag=    -0.0055
       N       E                     dE             d eps       ncg     rms          rms(c)
DAV:   1    -0.785879486812E+03   -0.40938E-02   -0.37811E-04 12876   0.317E-02    0.114E-02
DAV:   2    -0.785879485681E+03    0.11313E-05   -0.12982E-05 10824   0.712E-03    0.620E-03
DAV:   3    -0.785879483862E+03    0.18188E-05   -0.10991E-06  7512   0.371E-03    0.334E-03
DAV:   4    -0.785879482267E+03    0.15949E-05   -0.15558E-06  9228   0.508E-03
   2 F= -.78587948E+03 E0= -.78587948E+03  d E =-.408714E-02  mag=     0.0000
       N       E                     dE             d eps       ncg     rms          rms(c)
DAV:   1    -0.785974315527E+03   -0.94832E-01   -0.20680E-01 11904   0.674E-01    0.170E-01
DAV:   2    -0.785974577035E+03   -0.26151E-03   -0.41984E-03 13992   0.790E-02    0.588E-02
DAV:   3    -0.785974499541E+03    0.77493E-04   -0.91533E-05 14184   0.202E-02    0.305E-02
DAV:   4    -0.785974481162E+03    0.18380E-04   -0.83420E-05 13920   0.152E-02    0.939E-03
DAV:   5    -0.785974481114E+03    0.47472E-07   -0.15162E-05 10296   0.661E-03
   3 F= -.78597448E+03 E0= -.78597448E+03  d E =-.949988E-01  mag=     0.0000
       N       E                     dE             d eps       ncg     rms          rms(c)
DAV:   1    -0.786315045871E+03   -0.34056E+00   -0.28864E+00 11604   0.251E+00    0.628E-01
DAV:   2    -0.786318690653E+03   -0.36448E-02   -0.58076E-02 13944   0.294E-01    0.219E-01
DAV:   3    -0.786317617556E+03    0.10731E-02   -0.12947E-03 14340   0.753E-02    0.115E-01
DAV:   4    -0.786317366798E+03    0.25076E-03   -0.11581E-03 14064   0.568E-02    0.358E-02
DAV:   5    -0.786317372420E+03   -0.56220E-05   -0.22082E-04 13752   0.247E-02    0.349E-02
DAV:   6    -0.786317368085E+03    0.43353E-05   -0.10615E-05 10824   0.711E-03
   4 F= -.78631737E+03 E0= -.78631737E+03  d E =-.342887E+00  mag=     0.0000
       N       E                     dE             d eps       ncg     rms          rms(c)
DAV:   1    -0.786845897357E+03   -0.52852E+00   -0.87503E+00 11520   0.437E+00    0.100E+00
DAV:   2    -0.786857373745E+03   -0.11476E-01   -0.17858E-01 13812   0.511E-01    0.383E-01
DAV:   3    -0.786854091711E+03    0.32820E-02   -0.41446E-03 14364   0.131E-01    0.206E-01
DAV:   4    -0.786853258054E+03    0.83366E-03   -0.34708E-03 14052   0.989E-02    0.664E-02
DAV:   5    -0.786853279048E+03   -0.20994E-04   -0.68788E-04 14088   0.440E-02    0.607E-02
DAV:   6    -0.786853266329E+03    0.12719E-04   -0.27503E-05 13116   0.129E-02    0.290E-02
DAV:   7    -0.786853253591E+03    0.12738E-04   -0.88997E-06 11100   0.109E-02    0.116E-02
DAV:   8    -0.786853248493E+03    0.50986E-05   -0.90168E-06 11076   0.122E-02
   5 F= -.78685325E+03 E0= -.78685325E+03  d E =-.535880E+00  mag=    -0.0000
       N       E                     dE             d eps       ncg     rms          rms(c)
DAV:   1    -0.787288031851E+03   -0.43478E+00   -0.96456E+00 11520   0.455E+00    0.768E-01
DAV:   2    -0.787301341245E+03   -0.13309E-01   -0.19718E-01 13848   0.550E-01    0.410E-01
DAV:   3    -0.787297931922E+03    0.34093E-02   -0.43241E-03 14376   0.135E-01    0.231E-01
DAV:   4    -0.787296898235E+03    0.10337E-02   -0.38340E-03 13968   0.105E-01    0.719E-02
DAV:   5    -0.787296917702E+03   -0.19468E-04   -0.84124E-04 14208   0.514E-02    0.628E-02
DAV:   6    -0.787296913873E+03    0.38293E-05   -0.52878E-05 13584   0.145E-02
   6 F= -.78729691E+03 E0= -.78729691E+03  d E =-.443665E+00  mag=    -0.0000
       N       E                     dE             d eps       ncg     rms          rms(c)
DAV:   1    -0.787662925786E+03   -0.36601E+00   -0.15807E+01 11520   0.589E+00    0.926E-01
DAV:   2    -0.787690828268E+03   -0.27902E-01   -0.36055E-01 13704   0.800E-01    0.551E-01
DAV:   3    -0.787685779365E+03    0.50489E-02   -0.59943E-03 14328   0.165E-01    0.314E-01
DAV:   4    -0.787683824992E+03    0.19544E-02   -0.51965E-03 13944   0.126E-01    0.952E-02
DAV:   5    -0.787683773678E+03    0.51314E-04   -0.12903E-03 14280   0.709E-02    0.466E-02
DAV:   6    -0.787683772656E+03    0.10220E-05   -0.13753E-04 14208   0.221E-02    0.335E-02
DAV:   7    -0.787683755556E+03    0.17100E-04   -0.23592E-05 12888   0.117E-02    0.154E-02
DAV:   8    -0.787683747628E+03    0.79279E-05   -0.77510E-06 11292   0.126E-02
   7 F= -.78768375E+03 E0= -.78768375E+03  d E =-.386834E+00  mag=     0.0000
       N       E                     dE             d eps       ncg     rms          rms(c)
DAV:   1    -0.787879563436E+03   -0.19581E+00   -0.24312E+01 11520   0.743E+00    0.112E+00
DAV:   2    -0.787927035717E+03   -0.47472E-01   -0.57368E-01 13740   0.917E-01    0.641E-01
DAV:   3    -0.787920242192E+03    0.67935E-02   -0.99452E-03 14208   0.201E-01    0.365E-01
DAV:   4    -0.787917948976E+03    0.22932E-02   -0.93092E-03 13824   0.162E-01    0.128E-01
DAV:   5    -0.787917918107E+03    0.30869E-04   -0.16945E-03 13872   0.747E-02    0.727E-02
DAV:   6    -0.787917931500E+03   -0.13394E-04   -0.25103E-04 13884   0.255E-02    0.430E-02
DAV:   7    -0.787917913565E+03    0.17935E-04   -0.25333E-05 12708   0.139E-02    0.244E-02
DAV:   8    -0.787917906376E+03    0.71894E-05   -0.16507E-05 12372   0.122E-02
   8 F= -.78791791E+03 E0= -.78791791E+03  d E =-.234159E+00  mag=     0.0000
       N       E                     dE             d eps       ncg     rms          rms(c)
DAV:   1    -0.787975423940E+03   -0.57510E-01   -0.31696E+01 11520   0.848E+00    0.123E+00
DAV:   2    -0.788033434004E+03   -0.58010E-01   -0.73555E-01 14148   0.111E+00    0.730E-01
DAV:   3    -0.788026723389E+03    0.67106E-02   -0.16244E-02 14292   0.231E-01    0.468E-01
DAV:   4    -0.788023445240E+03    0.32781E-02   -0.12174E-02 13848   0.196E-01    0.197E-01
DAV:   5    -0.788023031430E+03    0.41381E-03   -0.20203E-03 14472   0.107E-01    0.981E-02
DAV:   6    -0.788023032626E+03   -0.11962E-05   -0.95685E-04 13920   0.610E-02    0.538E-02
DAV:   7    -0.788022991830E+03    0.40795E-04   -0.12111E-04 14256   0.289E-02    0.255E-02
DAV:   8    -0.788022981283E+03    0.10548E-04   -0.28938E-05 12444   0.145E-02    0.889E-03
DAV:   9    -0.788022976814E+03    0.44693E-05   -0.52254E-06  9888   0.104E-02
   9 F= -.78802298E+03 E0= -.78802298E+03  d E =-.105070E+00  mag=    -0.0000
       N       E                     dE             d eps       ncg     rms          rms(c)
DAV:   1    -0.787549665542E+03    0.47332E+00   -0.68112E+01 11712   0.123E+01    0.548E+00
DAV:   2    -0.787744678899E+03   -0.19501E+00   -0.23486E+00 13944   0.191E+00    0.167E+00
DAV:   3    -0.787705639171E+03    0.39040E-01   -0.46029E-02 14112   0.417E-01    0.924E-01
DAV:   4    -0.787690058730E+03    0.15580E-01   -0.32599E-02 13824   0.398E-01    0.254E-01
DAV:   5    -0.787690085605E+03   -0.26876E-04   -0.11948E-02 14352   0.210E-01    0.196E-01
DAV:   6    -0.787689789964E+03    0.29564E-03   -0.87820E-04 14136   0.584E-02    0.111E-01
DAV:   7    -0.787689555335E+03    0.23463E-03   -0.35854E-04 14064   0.432E-02    0.518E-02
DAV:   8    -0.787689457138E+03    0.98198E-04   -0.20408E-04 14208   0.549E-02    0.292E-02
DAV:   9    -0.787689452593E+03    0.45445E-05   -0.16585E-04 14184   0.286E-02    0.251E-02
DAV:  10    -0.787689449249E+03    0.33438E-05   -0.16374E-05 10380   0.902E-03
  10 F= -.78768945E+03 E0= -.78768945E+03  d E =0.333528E+00  mag=     0.0000
       N       E                     dE             d eps       ncg     rms          rms(c)
DAV:   1    -0.788046025315E+03   -0.35657E+00   -0.16239E+01 11520   0.572E+00    0.289E+00
DAV:   2    -0.788089568762E+03   -0.43543E-01   -0.62048E-01 13968   0.973E-01    0.111E+00
DAV:   3    -0.788076522921E+03    0.13046E-01   -0.11464E-02 14352   0.226E-01    0.727E-01
DAV:   4    -0.788069803625E+03    0.67193E-02   -0.13812E-02 13800   0.285E-01    0.992E-02
DAV:   5    -0.788069993330E+03   -0.18971E-03   -0.55597E-03 14208   0.135E-01    0.124E-01
DAV:   6    -0.788069867871E+03    0.12546E-03   -0.24740E-04 13992   0.309E-02    0.758E-02
DAV:   7    -0.788069732130E+03    0.13574E-03   -0.22906E-04 14112   0.357E-02    0.332E-02
DAV:   8    -0.788069690900E+03    0.41230E-04   -0.98112E-05 13908   0.383E-02    0.217E-02
DAV:   9    -0.788069687397E+03    0.35028E-05   -0.75891E-05 13608   0.208E-02
  11 F= -.78806969E+03 E0= -.78806969E+03  d E =-.380238E+00  mag=     0.0000
       N       E                     dE             d eps       ncg     rms          rms(c)
DAV:   1    -0.788097198041E+03   -0.27507E-01   -0.76253E-01 11556   0.117E+00    0.619E-01
DAV:   2    -0.788099134555E+03   -0.19365E-02   -0.27245E-02 13980   0.199E-01    0.209E-01
DAV:   3    -0.788098475356E+03    0.65920E-03   -0.57268E-04 14172   0.515E-02    0.943E-02
DAV:   4    -0.788098270279E+03    0.20508E-03   -0.46749E-04 13668   0.496E-02    0.243E-02
DAV:   5    -0.788098269354E+03    0.92515E-06   -0.17541E-04 14520   0.275E-02    0.231E-02
DAV:   6    -0.788098266093E+03    0.32607E-05   -0.13531E-05  9168   0.652E-03
  12 F= -.78809827E+03 E0= -.78809827E+03  d E =-.285787E-01  mag=    -0.0000
       N       E                     dE             d eps       ncg     rms          rms(c)
DAV:   1    -0.788105127785E+03   -0.68584E-02   -0.15593E+00 11520   0.186E+00    0.897E-01
DAV:   2    -0.788109304162E+03   -0.41764E-02   -0.55021E-02 13932   0.305E-01    0.295E-01
DAV:   3    -0.788108096945E+03    0.12072E-02   -0.11832E-03 14256   0.722E-02    0.122E-01
DAV:   4    -0.788107781921E+03    0.31502E-03   -0.84256E-04 13980   0.580E-02    0.359E-02
DAV:   5    -0.788107780297E+03    0.16241E-05   -0.25934E-04 14544   0.321E-02    0.317E-02
DAV:   6    -0.788107775862E+03    0.44341E-05   -0.23725E-05 10464   0.868E-03
  13 F= -.78810778E+03 E0= -.78810778E+03  d E =-.950977E-02  mag=    -0.0000
       N       E                     dE             d eps       ncg     rms          rms(c)
DAV:   1    -0.788112415325E+03   -0.46350E-02   -0.10621E-01 11712   0.572E-01    0.136E-01
DAV:   2    -0.788112656435E+03   -0.24111E-03   -0.29094E-03 14064   0.835E-02    0.549E-02
DAV:   3    -0.788112612594E+03    0.43840E-04   -0.67344E-05 13632   0.178E-02    0.251E-02
DAV:   4    -0.788112600068E+03    0.12526E-04   -0.36028E-05 13464   0.134E-02    0.914E-03
DAV:   5    -0.788112599562E+03    0.50634E-06   -0.97223E-06  8784   0.659E-03
  14 F= -.78811260E+03 E0= -.78811260E+03  d E =-.482370E-02  mag=    -0.0000
       N       E                     dE             d eps       ncg     rms          rms(c)
DAV:   1    -0.788119774589E+03   -0.71745E-02   -0.21877E+00 11520   0.264E+00    0.445E-01
DAV:   2    -0.788124318687E+03   -0.45441E-02   -0.52495E-02 13896   0.370E-01    0.190E-01
DAV:   3    -0.788123794601E+03    0.52409E-03   -0.92672E-04 14256   0.700E-02    0.979E-02
DAV:   4    -0.788123615246E+03    0.17936E-03   -0.59890E-04 14136   0.585E-02    0.341E-02
DAV:   5    -0.788123607328E+03    0.79181E-05   -0.14742E-04 14304   0.283E-02    0.213E-02
DAV:   6    -0.788123604196E+03    0.31311E-05   -0.26032E-05 11616   0.102E-02
  15 F= -.78812360E+03 E0= -.78812360E+03  d E =-.110046E-01  mag=     0.0000
       N       E                     dE             d eps       ncg     rms          rms(c)
DAV:   1    -0.788113284946E+03    0.10322E-01   -0.10966E+01 11520   0.592E+00    0.779E-01
DAV:   2    -0.788134277100E+03   -0.20992E-01   -0.23687E-01 13704   0.795E-01    0.318E-01
DAV:   3    -0.788132652863E+03    0.16242E-02   -0.34491E-03 14208   0.130E-01    0.186E-01
DAV:   4    -0.788131947603E+03    0.70526E-03   -0.22895E-03 13980   0.120E-01    0.650E-02
DAV:   5    -0.788131945714E+03    0.18888E-05   -0.56656E-04 14136   0.469E-02    0.410E-02
DAV:   6    -0.788131933565E+03    0.12149E-04   -0.14232E-04 13752   0.232E-02    0.185E-02
DAV:   7    -0.788131928434E+03    0.51311E-05   -0.61194E-06  9600   0.103E-02
  16 F= -.78813193E+03 E0= -.78813193E+03  d E =-.832424E-02  mag=     0.0000
       N       E                     dE             d eps       ncg     rms          rms(c)
DAV:   1    -0.787806205588E+03    0.32573E+00   -0.23328E+01 11520   0.715E+00    0.422E+00
DAV:   2    -0.787866650191E+03   -0.60445E-01   -0.91614E-01 14232   0.132E+00    0.146E+00
DAV:   3    -0.787841813821E+03    0.24836E-01   -0.25466E-02 14220   0.322E-01    0.637E-01
DAV:   4    -0.787834496886E+03    0.73169E-02   -0.16292E-02 13992   0.273E-01    0.219E-01
DAV:   5    -0.787834465129E+03    0.31757E-04   -0.56102E-03 14532   0.149E-01    0.174E-01
DAV:   6    -0.787834355598E+03    0.10953E-03   -0.54836E-04 13920   0.453E-02    0.767E-02
DAV:   7    -0.787834247354E+03    0.10824E-03   -0.28479E-04 13920   0.440E-02    0.228E-02
DAV:   8    -0.787834232236E+03    0.15118E-04   -0.93775E-05 14208   0.324E-02    0.224E-02
DAV:   9    -0.787834233992E+03   -0.17564E-05   -0.72193E-05 13848   0.170E-02
  17 F= -.78783423E+03 E0= -.78783423E+03  d E =0.297694E+00  mag=    -0.0000
       N       E                     dE             d eps       ncg     rms          rms(c)
DAV:   1    -0.788115469843E+03   -0.28124E+00   -0.72471E+00 11904   0.399E+00    0.233E+00
DAV:   2    -0.788137760515E+03   -0.22291E-01   -0.30760E-01 14016   0.664E-01    0.888E-01
DAV:   3    -0.788128785430E+03    0.89751E-02   -0.11345E-02 14040   0.202E-01    0.326E-01
DAV:   4    -0.788127048997E+03    0.17364E-02   -0.47299E-03 14136   0.140E-01    0.129E-01
DAV:   5    -0.788127030607E+03    0.18391E-04   -0.16316E-03 14388   0.738E-02    0.754E-02
DAV:   6    -0.788126993088E+03    0.37519E-04   -0.16233E-04 14052   0.227E-02    0.436E-02
DAV:   7    -0.788126958073E+03    0.35014E-04   -0.13597E-04 13584   0.233E-02    0.160E-02
DAV:   8    -0.788126954537E+03    0.35365E-05   -0.24191E-05 12696   0.146E-02
  18 F= -.78812695E+03 E0= -.78812695E+03  d E =-.292721E+00  mag=     0.0000
       N       E                     dE             d eps       ncg     rms          rms(c)
DAV:   1    -0.788160388948E+03   -0.33431E-01   -0.57388E-01 11952   0.106E+00    0.589E-01
DAV:   2    -0.788161876587E+03   -0.14876E-02   -0.22128E-02 14064   0.187E-01    0.220E-01
DAV:   3    -0.788161220562E+03    0.65603E-03   -0.65388E-04 14184   0.515E-02    0.892E-02
DAV:   4    -0.788161051725E+03    0.16884E-03   -0.39567E-04 13896   0.446E-02    0.288E-02
DAV:   5    -0.788161050528E+03    0.11972E-05   -0.15127E-04 14496   0.252E-02    0.215E-02
DAV:   6    -0.788161047963E+03    0.25652E-05   -0.15476E-05  9624   0.686E-03
  19 F= -.78816105E+03 E0= -.78816105E+03  d E =-.340934E-01  mag=     0.0000
       N       E                     dE             d eps       ncg     rms          rms(c)
DAV:   1    -0.788160170036E+03    0.88049E-03   -0.36356E+00 11856   0.277E+00    0.140E+00
DAV:   2    -0.788169488503E+03   -0.93185E-02   -0.13486E-01 14112   0.482E-01    0.508E-01
DAV:   3    -0.788165869913E+03    0.36186E-02   -0.38164E-03 14184   0.122E-01    0.209E-01
DAV:   4    -0.788164886363E+03    0.98355E-03   -0.21942E-03 13848   0.993E-02    0.645E-02
DAV:   5    -0.788164871970E+03    0.14393E-04   -0.78953E-04 14544   0.549E-02    0.493E-02
DAV:   6    -0.788164857559E+03    0.14410E-04   -0.70852E-05 13728   0.152E-02    0.292E-02
DAV:   7    -0.788164840992E+03    0.16567E-04   -0.54854E-05 13248   0.141E-02    0.123E-02
DAV:   8    -0.788164838546E+03    0.24462E-05   -0.84806E-06 11232   0.106E-02
  20 F= -.78816484E+03 E0= -.78816484E+03  d E =-.379058E-02  mag=    -0.0000
       N       E                     dE             d eps       ncg     rms          rms(c)
DAV:   1    -0.788175716689E+03   -0.10876E-01   -0.29053E-01 11532   0.755E-01    0.413E-01
DAV:   2    -0.788176459461E+03   -0.74277E-03   -0.11053E-02 14088   0.135E-01    0.148E-01
DAV:   3    -0.788176151664E+03    0.30780E-03   -0.29644E-04 14208   0.343E-02    0.595E-02
DAV:   4    -0.788176072243E+03    0.79421E-04   -0.18272E-04 13512   0.289E-02    0.179E-02
DAV:   5    -0.788176072141E+03    0.10240E-06   -0.64502E-05 13800   0.154E-02
  21 F= -.78817607E+03 E0= -.78817607E+03  d E =-.112336E-01  mag=    -0.0000
       N       E                     dE             d eps       ncg     rms          rms(c)
DAV:   1    -0.788178189006E+03   -0.21168E-02   -0.12609E-01 11580   0.549E-01    0.244E-01
DAV:   2    -0.788178504389E+03   -0.31538E-03   -0.43910E-03 14040   0.907E-02    0.862E-02
DAV:   3    -0.788178398884E+03    0.10550E-03   -0.12218E-04 13704   0.233E-02    0.355E-02
DAV:   4    -0.788178369759E+03    0.29125E-04   -0.66549E-05 13152   0.193E-02    0.124E-02
DAV:   5    -0.788178368309E+03    0.14500E-05   -0.24553E-05 12168   0.116E-02
  22 F= -.78817837E+03 E0= -.78817837E+03  d E =-.229617E-02  mag=    -0.0000
       N       E                     dE             d eps       ncg     rms          rms(c)
DAV:   1    -0.788178270032E+03    0.99727E-04   -0.10655E-01 11520   0.563E-01    0.144E-01
DAV:   2    -0.788178499377E+03   -0.22934E-03   -0.27332E-03 14040   0.803E-02    0.498E-02
DAV:   3    -0.788178466453E+03    0.32925E-04   -0.59160E-05 13848   0.164E-02    0.248E-02
DAV:   4    -0.788178457763E+03    0.86897E-05   -0.34385E-05 12360   0.126E-02
  23 F= -.78817846E+03 E0= -.78817846E+03  d E =-.894535E-04  mag=    -0.0000
       N       E                     dE             d eps       ncg     rms          rms(c)
DAV:   1    -0.788177548798E+03    0.91766E-03   -0.21806E-01 11544   0.832E-01    0.110E-01
DAV:   2    -0.788177965249E+03   -0.41645E-03   -0.46612E-03 13824   0.112E-01    0.476E-02
DAV:   3    -0.788177936301E+03    0.28948E-04   -0.66003E-05 14400   0.177E-02    0.281E-02
DAV:   4    -0.788177926671E+03    0.96298E-05   -0.59383E-05 13776   0.175E-02
  24 F= -.78817793E+03 E0= -.78817793E+03  d E =0.531091E-03  mag=    -0.0000
       N       E                     dE             d eps       ncg     rms          rms(c)
DAV:   1    -0.788159554961E+03    0.18381E-01   -0.82124E+00 11520   0.515E+00    0.492E-01
DAV:   2    -0.788175124542E+03   -0.15570E-01   -0.17210E-01 13584   0.686E-01    0.270E-01
DAV:   3    -0.788174284087E+03    0.84045E-03   -0.20805E-03 14364   0.959E-02    0.172E-01
DAV:   4    -0.788173837181E+03    0.44691E-03   -0.19689E-03 13920   0.108E-01    0.590E-02
DAV:   5    -0.788173837524E+03   -0.34283E-06   -0.41252E-04 13560   0.424E-02    0.403E-02
DAV:   6    -0.788173833703E+03    0.38208E-05   -0.17014E-04 13632   0.273E-02    0.178E-02
DAV:   7    -0.788173829820E+03    0.38837E-05   -0.17415E-05  9408   0.987E-03
  25 F= -.78817383E+03 E0= -.78817383E+03  d E =0.409685E-02  mag=    -0.0000
       N       E                     dE             d eps       ncg     rms          rms(c)
DAV:   1    -0.788156953812E+03    0.16880E-01   -0.53410E+00 11520   0.363E+00    0.134E+00
DAV:   2    -0.788168890757E+03   -0.11937E-01   -0.15813E-01 14232   0.532E-01    0.413E-01
DAV:   3    -0.788166221454E+03    0.26693E-02   -0.46154E-03 14376   0.129E-01    0.208E-01
DAV:   4    -0.788165614494E+03    0.60696E-03   -0.21868E-03 13944   0.905E-02    0.828E-02
DAV:   5    -0.788165626266E+03   -0.11772E-04   -0.58116E-04 14352   0.458E-02    0.609E-02
DAV:   6    -0.788165613027E+03    0.13238E-04   -0.42288E-05 13008   0.133E-02    0.296E-02
DAV:   7    -0.788165602886E+03    0.10141E-04   -0.19342E-05 12024   0.988E-03    0.131E-02
DAV:   8    -0.788165600779E+03    0.21075E-05   -0.66786E-06 10248   0.871E-03
  26 F= -.78816560E+03 E0= -.78816560E+03  d E =0.822904E-02  mag=     0.0000
       N       E                     dE             d eps       ncg     rms          rms(c)
DAV:   1    -0.788173850298E+03   -0.82474E-02   -0.16597E+00 11520   0.203E+00    0.974E-01
DAV:   2    -0.788178493891E+03   -0.46436E-02   -0.63811E-02 14040   0.364E-01    0.345E-01
DAV:   3    -0.788176917840E+03    0.15761E-02   -0.16884E-03 14160   0.884E-02    0.136E-01
DAV:   4    -0.788176534483E+03    0.38336E-03   -0.91572E-04 13896   0.681E-02    0.439E-02
DAV:   5    -0.788176532360E+03    0.21224E-05   -0.31907E-04 14664   0.367E-02    0.321E-02
DAV:   6    -0.788176526814E+03    0.55467E-05   -0.30464E-05 11664   0.110E-02
  27 F= -.78817653E+03 E0= -.78817653E+03  d E =-.109260E-01  mag=    -0.0000
       N       E                     dE             d eps       ncg     rms          rms(c)
DAV:   1    -0.788175530783E+03    0.10016E-02   -0.50714E-01 11520   0.105E+00    0.515E-01
DAV:   2    -0.788176599144E+03   -0.10684E-02   -0.15701E-02 14160   0.163E-01    0.142E-01
DAV:   3    -0.788176278789E+03    0.32035E-03   -0.58744E-04 14400   0.465E-02    0.640E-02
DAV:   4    -0.788176209756E+03    0.69033E-04   -0.24491E-04 13440   0.289E-02    0.265E-02
DAV:   5    -0.788176205164E+03    0.45923E-05   -0.58682E-05 13440   0.176E-02
  28 F= -.78817621E+03 E0= -.78817621E+03  d E =0.321650E-03  mag=    -0.0000
       N       E                     dE             d eps       ncg     rms          rms(c)
DAV:   1    -0.788177998455E+03   -0.17887E-02   -0.16702E-01 11520   0.664E-01    0.258E-01
DAV:   2    -0.788178342263E+03   -0.34381E-03   -0.46418E-03 14232   0.102E-01    0.690E-02
DAV:   3    -0.788178266736E+03    0.75527E-04   -0.14974E-04 14292   0.244E-02    0.333E-02
DAV:   4    -0.788178252205E+03    0.14531E-04   -0.67915E-05 13656   0.148E-02    0.142E-02
DAV:   5    -0.788178251663E+03    0.54164E-06   -0.13433E-05  9996   0.774E-03
  29 F= -.78817825E+03 E0= -.78817825E+03  d E =-.204650E-02  mag=     0.0000
       N       E                     dE             d eps       ncg     rms          rms(c)
DAV:   1    -0.788180492866E+03   -0.22407E-02   -0.67417E-02 11544   0.396E-01    0.193E-01
DAV:   2    -0.788180671604E+03   -0.17874E-03   -0.25487E-03 14064   0.695E-02    0.677E-02
DAV:   3    -0.788180606394E+03    0.65210E-04   -0.79341E-05 13416   0.185E-02    0.281E-02
DAV:   4    -0.788180590437E+03    0.15957E-04   -0.39183E-05 12600   0.143E-02    0.105E-02
DAV:   5    -0.788180590169E+03    0.26802E-06   -0.14260E-05 10440   0.843E-03
  30 F= -.78818059E+03 E0= -.78818059E+03  d E =-.233851E-02  mag=     0.0000
       N       E                     dE             d eps       ncg     rms          rms(c)
DAV:   1    -0.788181366524E+03   -0.77609E-03   -0.12651E-02 11760   0.184E-01    0.584E-02
DAV:   2    -0.788181391761E+03   -0.25237E-04   -0.32512E-04 14184   0.266E-02    0.169E-02
DAV:   3    -0.788181387203E+03    0.45587E-05   -0.91235E-06 10968   0.606E-03    0.850E-03
DAV:   4    -0.788181386258E+03    0.94505E-06   -0.53958E-06  8832   0.419E-03
  31 F= -.78818139E+03 E0= -.78818139E+03  d E =-.796088E-03  mag=     0.0000
       N       E                     dE             d eps       ncg     rms          rms(c)
DAV:   1    -0.788184636794E+03   -0.32496E-02   -0.97137E-02 11544   0.541E-01    0.893E-02
DAV:   2    -0.788184822083E+03   -0.18529E-03   -0.21170E-03 14160   0.736E-02    0.339E-02
DAV:   3    -0.788184807062E+03    0.15021E-04   -0.37109E-05 13512   0.131E-02    0.191E-02
DAV:   4    -0.788184803054E+03    0.40085E-05   -0.24899E-05 11652   0.106E-02
  32 F= -.78818480E+03 E0= -.78818480E+03  d E =-.341680E-02  mag=    -0.0000
       N       E                     dE             d eps       ncg     rms          rms(c)
DAV:   1    -0.788187167510E+03   -0.23604E-02   -0.49486E-02 11688   0.386E-01    0.420E-02
DAV:   2    -0.788187259534E+03   -0.92024E-04   -0.10232E-03 13680   0.516E-02    0.206E-02
DAV:   3    -0.788187254350E+03    0.51845E-05   -0.12617E-05 10680   0.802E-03    0.127E-02
DAV:   4    -0.788187251977E+03    0.23724E-05   -0.11910E-05  9288   0.845E-03
  33 F= -.78818725E+03 E0= -.78818725E+03  d E =-.244892E-02  mag=     0.0000
       N       E                     dE             d eps       ncg     rms          rms(c)
DAV:   1    -0.788171178238E+03    0.16076E-01   -0.14889E+01 11520   0.665E+00    0.108E+00
DAV:   2    -0.788200618368E+03   -0.29440E-01   -0.33306E-01 13896   0.901E-01    0.437E-01
DAV:   3    -0.788198061564E+03    0.25568E-02   -0.49671E-03 14376   0.152E-01    0.245E-01
DAV:   4    -0.788197188661E+03    0.87290E-03   -0.36866E-03 13968   0.137E-01    0.786E-02
DAV:   5    -0.788197194345E+03   -0.56832E-05   -0.81367E-04 13992   0.599E-02    0.602E-02
DAV:   6    -0.788197186183E+03    0.81617E-05   -0.17380E-04 13668   0.243E-02    0.300E-02
DAV:   7    -0.788197175451E+03    0.10732E-04   -0.11839E-05 11508   0.126E-02    0.162E-02
DAV:   8    -0.788197172391E+03    0.30594E-05   -0.14579E-05 11484   0.112E-02
  34 F= -.78819717E+03 E0= -.78819717E+03  d E =-.992041E-02  mag=    -0.0000
       N       E                     dE             d eps       ncg     rms          rms(c)
DAV:   1    -0.788160941750E+03    0.36234E-01   -0.55642E+00 11520   0.357E+00    0.186E+00
DAV:   2    -0.788175875635E+03   -0.14934E-01   -0.21474E-01 14016   0.640E-01    0.611E-01
DAV:   3    -0.788170333197E+03    0.55424E-02   -0.53820E-03 14316   0.157E-01    0.265E-01
DAV:   4    -0.788168597140E+03    0.17361E-02   -0.35134E-03 14040   0.140E-01    0.790E-02
DAV:   5    -0.788168557389E+03    0.39751E-04   -0.13574E-03 14544   0.807E-02    0.632E-02
DAV:   6    -0.788168533348E+03    0.24041E-04   -0.15356E-04 14184   0.229E-02    0.395E-02
DAV:   7    -0.788168501382E+03    0.31965E-04   -0.88640E-05 13692   0.173E-02    0.167E-02
DAV:   8    -0.788168493714E+03    0.76686E-05   -0.21553E-05 12312   0.174E-02
  35 F= -.78816849E+03 E0= -.78816849E+03  d E =0.286787E-01  mag=    -0.0000
       N       E                     dE             d eps       ncg     rms          rms(c)
DAV:   1    -0.788198432263E+03   -0.29931E-01   -0.13256E+00 11856   0.180E+00    0.860E-01
DAV:   2    -0.788201903378E+03   -0.34711E-02   -0.51686E-02 14160   0.328E-01    0.320E-01
DAV:   3    -0.788200430365E+03    0.14730E-02   -0.13637E-03 14304   0.829E-02    0.133E-01
DAV:   4    -0.788200001709E+03    0.42866E-03   -0.90224E-04 13968   0.739E-02    0.377E-02
DAV:   5    -0.788199992240E+03    0.94691E-05   -0.35542E-04 14448   0.412E-02    0.308E-02
DAV:   6    -0.788199986623E+03    0.56164E-05   -0.37581E-05 11856   0.111E-02
  36 F= -.78819999E+03 E0= -.78819999E+03  d E =-.314929E-01  mag=     0.0000
       N       E                     dE             d eps       ncg     rms          rms(c)
DAV:   1    -0.788200338645E+03   -0.34640E-03   -0.47092E-02 11712   0.338E-01    0.147E-01
DAV:   2    -0.788200441398E+03   -0.10275E-03   -0.16029E-03 14208   0.567E-02    0.471E-02
DAV:   3    -0.788200401211E+03    0.40187E-04   -0.51188E-05 13440   0.174E-02    0.215E-02
DAV:   4    -0.788200386537E+03    0.14674E-04   -0.25389E-05 12192   0.142E-02    0.773E-03
DAV:   5    -0.788200384833E+03    0.17037E-05   -0.11156E-05 10152   0.874E-03
  37 F= -.78820038E+03 E0= -.78820038E+03  d E =-.398210E-03  mag=     0.0000
       N       E                     dE             d eps       ncg     rms          rms(c)
DAV:   1    -0.788200182001E+03    0.20454E-03   -0.70608E-02 11616   0.393E-01    0.173E-01
DAV:   2    -0.788200329890E+03   -0.14789E-03   -0.21112E-03 14424   0.586E-02    0.474E-02
DAV:   3    -0.788200292208E+03    0.37683E-04   -0.73801E-05 13608   0.162E-02    0.229E-02
DAV:   4    -0.788200283402E+03    0.88057E-05   -0.29457E-05 12312   0.994E-03
  38 F= -.78820028E+03 E0= -.78820028E+03  d E =0.101431E-03  mag=     0.0000
       N       E                     dE             d eps       ncg     rms          rms(c)
DAV:   1    -0.788199111438E+03    0.11808E-02   -0.87550E-02 11664   0.468E-01    0.173E-01
DAV:   2    -0.788199268988E+03   -0.15755E-03   -0.22001E-03 14376   0.669E-02    0.445E-02
DAV:   3    -0.788199235898E+03    0.33090E-04   -0.83167E-05 13728   0.174E-02    0.222E-02
DAV:   4    -0.788199230672E+03    0.52262E-05   -0.32760E-05 12432   0.971E-03
  39 F= -.78819923E+03 E0= -.78819923E+03  d E =0.105273E-02  mag=     0.0000
       N       E                     dE             d eps       ncg     rms          rms(c)
DAV:   1    -0.788195506218E+03    0.37297E-02   -0.36224E-01 11520   0.107E+00    0.112E-01
DAV:   2    -0.788196205075E+03   -0.69886E-03   -0.77035E-03 13488   0.144E-01    0.564E-02
DAV:   3    -0.788196164044E+03    0.41031E-04   -0.93350E-05 14232   0.202E-02    0.350E-02
DAV:   4    -0.788196144209E+03    0.19834E-04   -0.91110E-05 14064   0.228E-02    0.116E-02
DAV:   5    -0.788196144233E+03   -0.23258E-07   -0.18811E-05  9600   0.929E-03
  40 F= -.78819614E+03 E0= -.78819614E+03  d E =0.308644E-02  mag=    -0.0000
       N       E                     dE             d eps       ncg     rms          rms(c)
DAV:   1    -0.788160429117E+03    0.35715E-01   -0.75771E+00 11520   0.483E+00    0.871E-01
DAV:   2    -0.788175656312E+03   -0.15227E-01   -0.17282E-01 13896   0.667E-01    0.305E-01
DAV:   3    -0.788174143863E+03    0.15124E-02   -0.25531E-03 14352   0.111E-01    0.166E-01
DAV:   4    -0.788173637031E+03    0.50683E-03   -0.20006E-03 14076   0.102E-01    0.483E-02
DAV:   5    -0.788173646833E+03   -0.98015E-05   -0.45844E-04 13884   0.425E-02    0.464E-02
DAV:   6    -0.788173639500E+03    0.73332E-05   -0.71849E-05 13872   0.160E-02
  41 F= -.78817364E+03 E0= -.78817364E+03  d E =0.225047E-01  mag=    -0.0000
       N       E                     dE             d eps       ncg     rms          rms(c)
DAV:   1    -0.788173892080E+03   -0.24525E-03   -0.15808E+00 11520   0.208E+00    0.688E-01
DAV:   2    -0.788177399916E+03   -0.35078E-02   -0.42898E-02 14184   0.308E-01    0.198E-01
DAV:   3    -0.788176787010E+03    0.61291E-03   -0.95240E-04 14376   0.631E-02    0.932E-02
DAV:   4    -0.788176624864E+03    0.16215E-03   -0.56234E-04 13920   0.471E-02    0.311E-02
DAV:   5    -0.788176621255E+03    0.36091E-05   -0.13982E-04 14508   0.260E-02    0.284E-02
DAV:   6    -0.788176618379E+03    0.28756E-05   -0.15827E-05  9420   0.802E-03
  42 F= -.78817662E+03 E0= -.78817662E+03  d E =-.297888E-02  mag=     0.0000
       N       E                     dE             d eps       ncg     rms          rms(c)
DAV:   1    -0.788186301361E+03   -0.96801E-02   -0.11358E+00 11520   0.163E+00    0.719E-01
DAV:   2    -0.788188203541E+03   -0.19022E-02   -0.29078E-02 14616   0.239E-01    0.155E-01
DAV:   3    -0.788187720480E+03    0.48306E-03   -0.11714E-03 14448   0.634E-02    0.750E-02
DAV:   4    -0.788187659510E+03    0.60970E-04   -0.48092E-04 14160   0.334E-02    0.354E-02
DAV:   5    -0.788187659960E+03   -0.45060E-06   -0.73618E-05 13104   0.161E-02
  43 F= -.78818766E+03 E0= -.78818766E+03  d E =-.110416E-01  mag=    -0.0000
       N       E                     dE             d eps       ncg     rms          rms(c)
DAV:   1    -0.788188533903E+03   -0.87439E-03   -0.37845E-01 11712   0.932E-01    0.406E-01
DAV:   2    -0.788189136627E+03   -0.60272E-03   -0.90655E-03 14472   0.133E-01    0.879E-02
DAV:   3    -0.788188992985E+03    0.14364E-03   -0.40059E-04 14112   0.362E-02    0.420E-02
DAV:   4    -0.788188980341E+03    0.12644E-04   -0.14813E-04 13368   0.186E-02    0.234E-02
DAV:   5    -0.788188980321E+03    0.19769E-07   -0.17388E-05 11592   0.841E-03
  44 F= -.78818898E+03 E0= -.78818898E+03  d E =-.132036E-02  mag=    -0.0000
       N       E                     dE             d eps       ncg     rms          rms(c)
DAV:   1    -0.788186474016E+03    0.25063E-02   -0.12378E+00 11520   0.196E+00    0.218E-01
DAV:   2    -0.788188857959E+03   -0.23839E-02   -0.25989E-02 13368   0.262E-01    0.102E-01
DAV:   3    -0.788188720315E+03    0.13764E-03   -0.29089E-04 14328   0.361E-02    0.618E-02
DAV:   4    -0.788188656230E+03    0.64085E-04   -0.26931E-04 13944   0.381E-02    0.198E-02
DAV:   5    -0.788188656328E+03   -0.98473E-07   -0.55823E-05 13032   0.163E-02
  45 F= -.78818866E+03 E0= -.78818866E+03  d E =0.323993E-03  mag=    -0.0000
       N       E                     dE             d eps       ncg     rms          rms(c)
DAV:   1    -0.788058033641E+03    0.13062E+00   -0.48281E+01 11520   0.122E+01    0.219E+00
DAV:   2    -0.788151519472E+03   -0.93486E-01   -0.10692E+00 14112   0.168E+00    0.736E-01
DAV:   3    -0.788142180791E+03    0.93387E-02   -0.17864E-02 14400   0.302E-01    0.399E-01
DAV:   4    -0.788139086567E+03    0.30942E-02   -0.12431E-02 14088   0.271E-01    0.129E-01
DAV:   5    -0.788139116431E+03   -0.29863E-04   -0.30727E-03 14064   0.116E-01    0.115E-01
DAV:   6    -0.788139031353E+03    0.85078E-04   -0.55252E-04 13800   0.459E-02    0.601E-02
DAV:   7    -0.788138970336E+03    0.61017E-04   -0.34112E-05 12960   0.257E-02    0.319E-02
DAV:   8    -0.788138939703E+03    0.30633E-04   -0.61899E-05 13416   0.283E-02    0.938E-03
DAV:   9    -0.788138935765E+03    0.39385E-05   -0.29814E-05 12888   0.170E-02
  46 F= -.78813894E+03 E0= -.78813894E+03  d E =0.497206E-01  mag=     0.0000
       N       E                     dE             d eps       ncg     rms          rms(c)
DAV:   1    -0.788139095094E+03   -0.15539E-03   -0.31612E+01 11520   0.973E+00    0.203E+00
DAV:   2    -0.788200576393E+03   -0.61481E-01   -0.73718E-01 14232   0.137E+00    0.664E-01
DAV:   3    -0.788192956907E+03    0.76195E-02   -0.13821E-02 14472   0.254E-01    0.364E-01
DAV:   4    -0.788190669821E+03    0.22871E-02   -0.97736E-03 14064   0.229E-01    0.133E-01
DAV:   5    -0.788190646848E+03    0.22973E-04   -0.25489E-03 14064   0.107E-01    0.117E-01
DAV:   6    -0.788190584912E+03    0.61936E-04   -0.41714E-04 13776   0.396E-02    0.618E-02
DAV:   7    -0.788190530133E+03    0.54779E-04   -0.37774E-05 12840   0.242E-02    0.317E-02
DAV:   8    -0.788190508972E+03    0.21162E-04   -0.56828E-05 13632   0.230E-02    0.106E-02
DAV:   9    -0.788190504547E+03    0.44251E-05   -0.17998E-05 11412   0.125E-02
  47 F= -.78819050E+03 E0= -.78819050E+03  d E =-.515688E-01  mag=    -0.0000
       N       E                     dE             d eps       ncg     rms          rms(c)
DAV:   1    -0.788145485524E+03    0.45023E-01   -0.57531E+00 11520   0.413E+00    0.147E+00
DAV:   2    -0.788159480023E+03   -0.13994E-01   -0.17972E-01 14124   0.666E-01    0.492E-01
DAV:   3    -0.788156132172E+03    0.33479E-02   -0.42003E-03 14232   0.139E-01    0.217E-01
DAV:   4    -0.788155244921E+03    0.88725E-03   -0.25496E-03 13920   0.112E-01    0.657E-02
DAV:   5    -0.788155248068E+03   -0.31469E-05   -0.69551E-04 14352   0.552E-02    0.524E-02
DAV:   6    -0.788155234924E+03    0.13144E-04   -0.63958E-05 13224   0.157E-02    0.297E-02
DAV:   7    -0.788155221309E+03    0.13615E-04   -0.31951E-05 12480   0.128E-02    0.111E-02
DAV:   8    -0.788155219685E+03    0.16237E-05   -0.93791E-06 10152   0.926E-03
  48 F= -.78815522E+03 E0= -.78815522E+03  d E =0.352849E-01  mag=    -0.0000
       N       E                     dE             d eps       ncg     rms          rms(c)
DAV:   1    -0.788184067217E+03   -0.28846E-01   -0.45200E+00 11520   0.368E+00    0.129E+00
DAV:   2    -0.788194988946E+03   -0.10922E-01   -0.13901E-01 14136   0.590E-01    0.429E-01
DAV:   3    -0.788192482656E+03    0.25063E-02   -0.29896E-03 14208   0.118E-01    0.192E-01
DAV:   4    -0.788191770133E+03    0.71252E-03   -0.18862E-03 13896   0.981E-02    0.574E-02
DAV:   5    -0.788191771020E+03   -0.88705E-06   -0.53535E-04 14568   0.494E-02    0.444E-02
DAV:   6    -0.788191762106E+03    0.89144E-05   -0.55153E-05 12840   0.143E-02
  49 F= -.78819176E+03 E0= -.78819176E+03  d E =-.365424E-01  mag=    -0.0000
       N       E                     dE             d eps       ncg     rms          rms(c)
DAV:   1    -0.788191521883E+03    0.24914E-03   -0.68262E-03 11904   0.150E-01    0.323E-02
DAV:   2    -0.788191536051E+03   -0.14168E-04   -0.17622E-04 14232   0.232E-02    0.112E-02
DAV:   3    -0.788191534263E+03    0.17883E-05   -0.43857E-06  7632   0.558E-03    0.608E-03
DAV:   4    -0.788191533283E+03    0.97929E-06   -0.22585E-06  7872   0.473E-03
  50 F= -.78819153E+03 E0= -.78819153E+03  d E =0.228823E-03  mag=    -0.0000
