       N       E                     dE             d eps       ncg     rms          rms(c)
DAV:   1     0.462020942297E+04    0.46202E+04   -0.17727E+05 26844   0.181E+03
DAV:   2     0.557735425181E+03   -0.40625E+04   -0.38047E+04 27072   0.485E+02
DAV:   3    -0.321406845216E+03   -0.87914E+03   -0.76102E+03 27978   0.216E+02
DAV:   4    -0.404533328109E+03   -0.83126E+02   -0.81413E+02 29952   0.717E+01
DAV:   5    -0.406514015552E+03   -0.19807E+01   -0.19720E+01 29556   0.119E+01    0.605E-01
DAV:   6    -0.406590083002E+03   -0.76067E-01   -0.77117E-01 39852   0.215E+00    0.615E-01
DAV:   7    -0.406587749464E+03    0.23335E-02   -0.28301E-02 40554   0.106E+00    0.243E-01
DAV:   8    -0.406587795572E+03   -0.46108E-04   -0.41522E-03 37776   0.287E-01    0.156E-01
DAV:   9    -0.406587819554E+03   -0.23982E-04   -0.20779E-04 34494   0.632E-02    0.136E-01
DAV:  10    -0.406587820025E+03   -0.47126E-06   -0.24657E-05 20580   0.294E-02
   1 F= -.40658782E+03 E0= -.40657692E+03  d E =-.406588E+03  mag=    -0.1070
