       N       E                     dE             d eps       ncg     rms          rms(c)
DAV:   1     0.429776784940E+04    0.42978E+04   -0.15660E+05  7592   0.149E+03
DAV:   2     0.360878450216E+03   -0.39369E+04   -0.37960E+04  7296   0.436E+02
DAV:   3    -0.324935215287E+03   -0.68581E+03   -0.64767E+03  9876   0.155E+02
DAV:   4    -0.379535586388E+03   -0.54600E+02   -0.54129E+02  9360   0.453E+01
DAV:   5    -0.380834655595E+03   -0.12991E+01   -0.12958E+01  9704   0.837E+00    0.713E+01
DAV:   6    -0.331200559547E+03    0.49634E+02   -0.42833E+02  9756   0.531E+01    0.430E+01
DAV:   7    -0.327309216991E+03    0.38913E+01   -0.20041E+02  9768   0.410E+01    0.282E+01
DAV:   8    -0.321592416009E+03    0.57168E+01   -0.35423E+01  9744   0.167E+01    0.861E+00
DAV:   9    -0.322075420127E+03   -0.48300E+00   -0.73272E+00  9836   0.711E+00    0.794E+00
DAV:  10    -0.321641402336E+03    0.43402E+00   -0.19330E+00  9664   0.434E+00    0.421E+00
DAV:  11    -0.321580470510E+03    0.60932E-01   -0.50119E-01  9932   0.200E+00    0.200E+00
DAV:  12    -0.321583379378E+03   -0.29089E-02   -0.10657E-01  9696   0.109E+00    0.114E+00
DAV:  13    -0.321582523262E+03    0.85612E-03   -0.39200E-02  9692   0.861E-01    0.529E-01
DAV:  14    -0.321582072861E+03    0.45040E-03   -0.74721E-03  9656   0.358E-01    0.208E-01
DAV:  15    -0.321582095606E+03   -0.22745E-04   -0.22223E-03  9740   0.131E-01    0.717E-02
DAV:  16    -0.321582190660E+03   -0.95054E-04   -0.28301E-04  9272   0.598E-02    0.484E-02
DAV:  17    -0.321582228681E+03   -0.38021E-04   -0.69573E-05  8036   0.375E-02    0.289E-02
DAV:  18    -0.321582247528E+03   -0.18847E-04   -0.33710E-05  7168   0.271E-02    0.166E-02
DAV:  19    -0.321582257749E+03   -0.10221E-04   -0.15548E-05  4836   0.156E-02    0.101E-02
DAV:  20    -0.321582260491E+03   -0.27424E-05   -0.61460E-06  3872   0.860E-03
   1 F= -.32158226E+03 E0= -.32158031E+03  d E =-.321582E+03  mag=     0.0007
