       N       E                     dE             d eps       ncg     rms          ort
DAV:   1     0.113016354924E+05    0.11302E+05   -0.46662E+05  8540   0.170E+03
DAV:   2     0.819129706346E+02   -0.11220E+05   -0.10213E+05  8540   0.487E+02
DAV:   3    -0.154358378405E+04   -0.16255E+04   -0.15400E+04  8540   0.197E+02
DAV:   4    -0.162692063573E+04   -0.83337E+02   -0.82203E+02  8540   0.455E+01
DAV:   5    -0.162796501338E+04   -0.10444E+01   -0.10415E+01  8540   0.554E+00
SDA:   6    -0.792754010989E+03    0.83521E+03   -0.10415E+01  8540   0.285E+04 0.000E+00
CGA:   7    -0.119808552234E+04   -0.40533E+03   -0.40131E+03  8540   0.298E+03 0.386E+02
CGA:   8    -0.125223865180E+04   -0.54153E+02   -0.54391E+02  8540   0.649E+02 0.762E+01
CGA:   9    -0.127350370906E+04   -0.21265E+02   -0.21339E+02  8540   0.374E+02-0.480E+00
CGA:  10    -0.128193164068E+04   -0.84279E+01   -0.84169E+01  8540   0.100E+02 0.723E-03
CGA:  11    -0.128443144286E+04   -0.24998E+01   -0.25275E+01  8540   0.263E+01-0.576E+00
CGA:  12    -0.128503683148E+04   -0.60539E+00   -0.61203E+00  8540   0.748E+00-0.164E+00
CGA:  13    -0.128522824399E+04   -0.19141E+00   -0.19081E+00  8540   0.238E+00 0.868E-02
CGA:  14    -0.128530255824E+04   -0.74314E-01   -0.75134E-01  8540   0.932E-01-0.869E-02
CGA:  15    -0.128532266573E+04   -0.20107E-01   -0.57899E-01  8540   0.159E+00-0.889E-01
CGA:  16    -0.128535741160E+04   -0.34746E-01   -0.34895E-01  8540   0.235E-01 0.839E-02
CGA:  17    -0.128536100188E+04   -0.35903E-02   -0.17161E-01  8540   0.645E-01-0.298E-01
CGA:  18    -0.128537186830E+04   -0.10866E-01   -0.11269E-01  8540   0.771E-02 0.497E-02
CGA:  19    -0.128537476770E+04   -0.28994E-02   -0.34126E-02  8540   0.313E-02-0.330E-02
CGA:  20    -0.128537611875E+04   -0.13510E-02    0.54526E-03  8540   0.146E-02 0.593E-03
CGA:  21    -0.128537718507E+04   -0.10663E-02    0.13866E-02  8540   0.560E-03 0.423E-03
CGA:  22    -0.128537786427E+04   -0.67919E-03    0.12072E-03  8540   0.300E-03 0.224E-03
CGA:  23    -0.128537862293E+04   -0.75866E-03    0.22682E-04  8540   0.210E-03 0.223E-03
CGA:  24    -0.128537901808E+04   -0.39514E-03    0.10667E-04  8540   0.991E-04 0.914E-04
CGA:  25    -0.128537938645E+04   -0.36838E-03    0.47794E-05  8540   0.719E-04 0.918E-04
CGA:  26    -0.128537951421E+04   -0.12775E-03    0.39779E-05  8540   0.517E-04 0.553E-04
CGA:  27    -0.128537968048E+04   -0.16627E-03    0.13326E-05  8540   0.426E-04 0.460E-04
CGA:  28    -0.128537980731E+04   -0.12683E-03    0.12058E-05  8540   0.356E-04 0.385E-04
CGA:  29    -0.128537993093E+04   -0.12362E-03    0.83508E-06  8540   0.297E-04 0.322E-04
CGA:  30    -0.128538003901E+04   -0.10808E-03    0.66134E-06  8540   0.249E-04 0.268E-04
CGA:  31    -0.128538013666E+04   -0.97654E-04    0.50675E-06  8540   0.209E-04 0.224E-04
CGA:  32    -0.128538022567E+04   -0.89012E-04    0.38615E-06  8540   0.176E-04 0.186E-04
CGA:  33    -0.128538030274E+04   -0.77063E-04    0.31612E-06  8540   0.150E-04 0.153E-04
CGA:  34    -0.128538037675E+04   -0.74011E-04    0.23427E-06  8540   0.129E-04 0.125E-04
CGA:  35    -0.128538043671E+04   -0.59963E-04    0.21654E-06  8540   0.113E-04 0.998E-05
CGA:  36    -0.128538049941E+04   -0.62696E-04    0.15682E-06  8540   0.102E-04 0.773E-05
CGA:  37    -0.128538054501E+04   -0.45606E-04    0.17827E-06  8540   0.938E-05 0.569E-05
CGA:  38    -0.128538059927E+04   -0.54263E-04    0.12339E-06  8540   0.880E-05 0.388E-05
CGA:  39    -0.128538068355E+04   -0.84275E-04    0.13777E-06  8540   0.537E-05 0.102E-04
CGA:  40    -0.128538071223E+04   -0.28677E-04    0.77167E-07  8540   0.494E-05 0.231E-05
CGA:  41    -0.128538077556E+04   -0.63331E-04    0.57978E-07  8540   0.308E-05 0.584E-05
CGA:  42    -0.128538080433E+04   -0.28777E-04    0.24259E-07  8540   0.272E-05 0.142E-05
CGA:  43    -0.128538084789E+04   -0.43553E-04    0.26354E-07  8540   0.179E-05 0.331E-05
CGA:  44    -0.128538086394E+04   -0.16054E-04    0.14735E-07  8540   0.158E-05 0.847E-06
CGA:  45    -0.128538089776E+04   -0.33814E-04    0.11427E-07  8540   0.104E-05 0.193E-05
CGA:  46    -0.128538091309E+04   -0.15335E-04    0.51070E-08  8540   0.884E-06 0.523E-06
CGA:  47    -0.128538092359E+04   -0.10502E-04    0.53879E-08  8540   0.752E-06 0.428E-06
CGA:  48    -0.128538094611E+04   -0.22517E-04    0.39285E-08  8540   0.523E-06 0.936E-06
CGA:  49    -0.128538095688E+04   -0.10768E-04    0.18063E-08  8540   0.432E-06 0.261E-06
CGA:  50    -0.128538097266E+04   -0.15782E-04    0.18777E-08  8540   0.313E-06 0.545E-06
CGA:  51    -0.128538097894E+04   -0.62797E-05    0.11111E-08  8540   0.262E-06 0.153E-06
   1 F= -.12853810E+04 E0= -.12853810E+04  d E =-.128538E+04  mag=   126.0000
       N       E                     dE             d eps       ncg     rms          ort
SDA:   1    -0.128538286351E+04   -0.18909E-02    0.00000E+00  8540   0.213E-02 0.000E+00
CGA:   2    -0.128538335250E+04   -0.48899E-03   -0.48994E-03  8540   0.963E-03 0.274E-04
CGA:   3    -0.128538359990E+04   -0.24740E-03   -0.24650E-03  8540   0.265E-03-0.103E-03
CGA:   4    -0.128538366035E+04   -0.60454E-04   -0.59746E-04  8540   0.955E-04-0.866E-04
CGA:   5    -0.128538367313E+04   -0.12782E-04   -0.12369E-04  8540   0.232E-04-0.610E-05
CGA:   6    -0.128538367866E+04   -0.55274E-05   -0.55211E-05  8540   0.939E-05-0.212E-05
   2 F= -.12853837E+04 E0= -.12853837E+04  d E =-.269972E-02  mag=   126.0000
       N       E                     dE             d eps       ncg     rms          ort
SDA:   1    -0.128496477079E+04    0.41890E+00    0.00000E+00  8540   0.130E+01 0.000E+00
CGA:   2    -0.128526605090E+04   -0.30128E+00   -0.30132E+00  8540   0.601E+00 0.815E-03
CGA:   3    -0.128540249943E+04   -0.13645E+00   -0.13640E+00  8540   0.130E+00-0.199E-02
CGA:   4    -0.128542897095E+04   -0.26472E-01   -0.26397E-01  8540   0.239E-01-0.151E-02
CGA:   5    -0.128543392164E+04   -0.49507E-02   -0.49538E-02  8540   0.546E-02 0.657E-04
CGA:   6    -0.128543521573E+04   -0.12941E-02   -0.12945E-02  8540   0.151E-02 0.314E-04
CGA:   7    -0.128543569435E+04   -0.47861E-03   -0.52861E-03  8540   0.921E-03-0.506E-03
CGA:   8    -0.128543581072E+04   -0.11637E-03   -0.31506E-03  8540   0.134E-02-0.763E-03
CGA:   9    -0.128543607903E+04   -0.26832E-03   -0.26430E-03  8540   0.261E-03-0.574E-04
CGA:  10    -0.128543616442E+04   -0.85384E-04   -0.88740E-04  8540   0.753E-04-0.365E-04
CGA:  11    -0.128543621870E+04   -0.54287E-04    0.15394E-04  8540   0.162E-04 0.886E-05
CGA:  12    -0.128543625006E+04   -0.31353E-04    0.10833E-05  8540   0.585E-05 0.539E-05
CGA:  13    -0.128543627922E+04   -0.29159E-04    0.17493E-06  8540   0.342E-05 0.341E-05
CGA:  14    -0.128543629409E+04   -0.14874E-04    0.64444E-07  8540   0.180E-05 0.186E-05
CGA:  15    -0.128543630700E+04   -0.12914E-04    0.19593E-07  8540   0.139E-05 0.147E-05
CGA:  16    -0.128543632015E+04   -0.13150E-04    0.11166E-07  8540   0.112E-05 0.120E-05
CGA:  17    -0.128543633069E+04   -0.10535E-04    0.90611E-08  8540   0.916E-06 0.974E-06
CGA:  18    -0.128543634182E+04   -0.11135E-04    0.56654E-08  8540   0.755E-06 0.792E-06
CGA:  19    -0.128543635022E+04   -0.83999E-05    0.51284E-08  8540   0.627E-06 0.642E-06
   3 F= -.12854364E+04 E0= -.12854364E+04  d E =-.526716E-01  mag=   126.0000
       N       E                     dE             d eps       ncg     rms          ort
SDA:   1    -0.128063543072E+04    0.48009E+01    0.00000E+00  8540   0.125E+02 0.000E+00
CGA:   2    -0.128394764828E+04   -0.33122E+01   -0.33122E+01  8540   0.609E+01-0.398E-02
CGA:   3    -0.128519080806E+04   -0.12432E+01   -0.12431E+01  8540   0.118E+01-0.332E-02
CGA:   4    -0.128543423094E+04   -0.24342E+00   -0.24341E+00  8540   0.213E+00-0.660E-03
CGA:   5    -0.128547929891E+04   -0.45068E-01   -0.45099E-01  8540   0.498E-01 0.525E-03
CGA:   6    -0.128549142367E+04   -0.12125E-01   -0.12118E-01  8540   0.147E-01-0.434E-03
CGA:   7    -0.128549560589E+04   -0.41822E-02   -0.42232E-02  8540   0.566E-02-0.135E-02
CGA:   8    -0.128549732592E+04   -0.17200E-02   -0.18248E-02  8540   0.278E-02-0.111E-02
CGA:   9    -0.128549811402E+04   -0.78809E-03   -0.10113E-02  8540   0.202E-02-0.119E-02
CGA:  10    -0.128549831584E+04   -0.20182E-03   -0.69596E-03  8540   0.269E-02-0.151E-02
CGA:  11    -0.128549897531E+04   -0.65947E-03   -0.65364E-03  8540   0.616E-03-0.123E-03
CGA:  12    -0.128549922874E+04   -0.25342E-03   -0.31533E-03  8540   0.484E-03-0.250E-03
CGA:  13    -0.128549871552E+04    0.51322E-03   -0.37997E-03  8540   0.280E-02-0.876E-03
CGA:  14    -0.128549929595E+04   -0.58043E-03   -0.60815E-03  8540   0.384E-03 0.206E-03
CGA:  15    -0.128549948475E+04   -0.18880E-03   -0.35986E-03  8540   0.742E-03-0.324E-03
CGA:  16    -0.128549955606E+04   -0.71308E-04   -0.11935E-03  8540   0.131E-03 0.228E-03
CGA:  17    -0.128549958889E+04   -0.32831E-04   -0.37117E-04  8540   0.292E-04 0.298E-04
CGA:  18    -0.128549963391E+04   -0.45017E-04    0.81576E-05  8540   0.240E-04-0.164E-04
CGA:  19    -0.128549962953E+04    0.43825E-05   -0.11387E-05  8540   0.135E-04 0.180E-04
   4 F= -.12854996E+04 E0= -.12854996E+04  d E =-.632793E-01  mag=   126.0000
       N       E                     dE             d eps       ncg     rms          ort
SDA:   1    -0.128512872027E+04    0.37091E+00    0.00000E+00  8540   0.103E+01 0.000E+00
CGA:   2    -0.128537289480E+04   -0.24417E+00   -0.24414E+00  8540   0.496E+00-0.952E-03
CGA:   3    -0.128548221803E+04   -0.10932E+00   -0.10938E+00  8540   0.103E+00 0.343E-03
CGA:   4    -0.128550276234E+04   -0.20544E-01   -0.20611E-01  8540   0.183E-01 0.564E-03
CGA:   5    -0.128550669208E+04   -0.39297E-02   -0.39381E-02  8540   0.434E-02 0.826E-04
CGA:   6    -0.128550778184E+04   -0.10898E-02   -0.10773E-02  8540   0.128E-02-0.222E-03
CGA:   7    -0.128550813388E+04   -0.35204E-03   -0.35001E-03  8540   0.464E-03-0.163E-03
CGA:   8    -0.128550824233E+04   -0.10845E-03   -0.10842E-03  8540   0.133E-03-0.819E-06
CGA:   9    -0.128550828529E+04   -0.42962E-04   -0.43051E-04  8540   0.472E-04-0.348E-05
CGA:  10    -0.128550825298E+04    0.32308E-04   -0.50024E-04  8540   0.338E-03-0.104E-03
CGA:  11    -0.128550832294E+04   -0.69956E-04   -0.71077E-04  8540   0.360E-04 0.863E-05
CGA:  12    -0.128550833824E+04   -0.15297E-04   -0.20719E-04  8540   0.333E-04-0.238E-04
CGA:  13    -0.128550834696E+04   -0.87280E-05   -0.84808E-05  8540   0.457E-05-0.276E-05
   5 F= -.12855083E+04 E0= -.12855083E+04  d E =-.871744E-02  mag=   126.0000
       N       E                     dE             d eps       ncg     rms          ort
SDA:   1    -0.128442081674E+04    0.10875E+01    0.00000E+00  8540   0.279E+01 0.000E+00
CGA:   2    -0.128518849537E+04   -0.76768E+00   -0.76764E+00  8540   0.134E+01-0.157E-02
CGA:   3    -0.128545546052E+04   -0.26697E+00   -0.26709E+00  8540   0.242E+00 0.662E-03
CGA:   4    -0.128550512600E+04   -0.49665E-01   -0.49831E-01  8540   0.441E-01 0.129E-02
CGA:   5    -0.128551452846E+04   -0.94025E-02   -0.94070E-02  8540   0.103E-01 0.289E-04
CGA:   6    -0.128551711742E+04   -0.25890E-02   -0.25611E-02  8540   0.309E-02-0.407E-03
CGA:   7    -0.128551790093E+04   -0.78351E-03   -0.77967E-03  8540   0.981E-03-0.754E-04
CGA:   8    -0.128551816755E+04   -0.26663E-03   -0.26838E-03  8540   0.307E-03 0.555E-04
CGA:   9    -0.128551827920E+04   -0.11165E-03   -0.11172E-03  8540   0.120E-03-0.226E-05
CGA:  10    -0.128551832650E+04   -0.47294E-04   -0.49951E-04  8540   0.648E-04-0.251E-04
CGA:  11    -0.128551829868E+04    0.27817E-04   -0.53221E-04  8540   0.336E-03-0.113E-03
CGA:  12    -0.128551836099E+04   -0.62310E-04   -0.67652E-04  8540   0.392E-04 0.351E-04
CGA:  13    -0.128551837591E+04   -0.14923E-04   -0.32874E-04  8540   0.884E-04-0.435E-04
CGA:  14    -0.128551838403E+04   -0.81125E-05   -0.14214E-04  8540   0.161E-04 0.297E-04
CGA:  15    -0.128551839080E+04   -0.67733E-05   -0.11783E-04  8540   0.304E-04-0.261E-04
CGA:  16    -0.128551840286E+04   -0.12066E-04   -0.13702E-04  8540   0.195E-04-0.191E-04
CGA:  17    -0.128551840150E+04    0.13621E-05   -0.16687E-05  8540   0.601E-05 0.107E-04
   6 F= -.12855184E+04 E0= -.12855184E+04  d E =-.100545E-01  mag=   126.0000
       N       E                     dE             d eps       ncg     rms          ort
SDA:   1    -0.128505477510E+04    0.46363E+00    0.00000E+00  8540   0.120E+01 0.000E+00
CGA:   2    -0.128538347147E+04   -0.32870E+00   -0.32878E+00  8540   0.572E+00 0.766E-03
CGA:   3    -0.128549524967E+04   -0.11178E+00   -0.11164E+00  8540   0.103E+00-0.108E-02
CGA:   4    -0.128551686734E+04   -0.21618E-01   -0.21581E-01  8540   0.192E-01-0.310E-03
CGA:   5    -0.128552089782E+04   -0.40305E-02   -0.40408E-02  8540   0.431E-02 0.856E-04
CGA:   6    -0.128552193258E+04   -0.10348E-02   -0.10353E-02  8540   0.122E-02 0.616E-05
CGA:   7    -0.128552226866E+04   -0.33608E-03   -0.33454E-03  8540   0.412E-03-0.364E-04
CGA:   8    -0.128552240130E+04   -0.13264E-03   -0.13368E-03  8540   0.178E-03-0.507E-04
CGA:   9    -0.128552245865E+04   -0.57344E-04   -0.60313E-04  8540   0.814E-04-0.422E-04
CGA:  10    -0.128552247879E+04   -0.20147E-04   -0.20202E-04  8540   0.260E-04-0.817E-05
CGA:  11    -0.128552248814E+04   -0.93483E-05   -0.99295E-05  8540   0.137E-04-0.554E-05
   7 F= -.12855225E+04 E0= -.12855225E+04  d E =-.408664E-02  mag=   126.0000
       N       E                     dE             d eps       ncg     rms          ort
SDA:   1    -0.128465156230E+04    0.87092E+00    0.00000E+00  8540   0.232E+01 0.000E+00
CGA:   2    -0.128523715573E+04   -0.58559E+00   -0.58582E+00  8540   0.108E+01 0.160E-02
CGA:   3    -0.128546635383E+04   -0.22920E+00   -0.22915E+00  8540   0.213E+00-0.580E-03
CGA:   4    -0.128551016261E+04   -0.43809E-01   -0.43784E-01  8540   0.385E-01-0.245E-03
CGA:   5    -0.128551842977E+04   -0.82672E-02   -0.82684E-02  8540   0.900E-02 0.320E-05
CGA:   6    -0.128552056893E+04   -0.21392E-02   -0.21430E-02  8540   0.245E-02 0.558E-04
CGA:   7    -0.128552118276E+04   -0.61383E-03   -0.61799E-03  8540   0.724E-03 0.810E-04
CGA:   8    -0.128552140915E+04   -0.22639E-03   -0.22637E-03  8540   0.258E-03 0.522E-05
CGA:   9    -0.128552150529E+04   -0.96144E-04   -0.99651E-04  8540   0.125E-03-0.413E-04
CGA:  10    -0.128552153296E+04   -0.27664E-04   -0.28170E-04  8540   0.380E-04 0.148E-04
CGA:  11    -0.128552154330E+04   -0.10345E-04   -0.10809E-04  8540   0.143E-04 0.967E-05
CGA:  12    -0.128552154941E+04   -0.61111E-05   -0.60409E-05  8540   0.824E-05 0.182E-05
   8 F= -.12855215E+04 E0= -.12855215E+04  d E =0.938730E-03  mag=   126.0000
       N       E                     dE             d eps       ncg     rms          ort
SDA:   1    -0.128296913509E+04    0.25524E+01    0.00000E+00  8540   0.652E+01 0.000E+00
CGA:   2    -0.128474081351E+04   -0.17717E+01   -0.17719E+01  8540   0.311E+01 0.338E-02
CGA:   3    -0.128535315774E+04   -0.61234E+00   -0.61209E+00  8540   0.579E+00-0.331E-02
CGA:   4    -0.128547241747E+04   -0.11926E+00   -0.11911E+00  8540   0.105E+00-0.173E-02
CGA:   5    -0.128549476469E+04   -0.22347E-01   -0.22361E-01  8540   0.242E-01 0.157E-03
CGA:   6    -0.128550059779E+04   -0.58331E-02   -0.58363E-02  8540   0.662E-02 0.653E-04
CGA:   7    -0.128550239984E+04   -0.18021E-02   -0.17993E-02  8540   0.223E-02-0.223E-03
CGA:   8    -0.128550311456E+04   -0.71472E-03   -0.73141E-03  8540   0.987E-03-0.294E-03
CGA:   9    -0.128550342595E+04   -0.31138E-03   -0.36013E-03  8540   0.604E-03-0.362E-03
CGA:  10    -0.128550355606E+04   -0.13011E-03   -0.16324E-03  8540   0.351E-03-0.247E-03
CGA:  11    -0.128550361632E+04   -0.60259E-04   -0.12531E-03  8540   0.398E-03-0.214E-03
CGA:  12    -0.128550374025E+04   -0.12393E-03   -0.12371E-03  8540   0.125E-03-0.686E-04
CGA:  13    -0.128550377121E+04   -0.30961E-04   -0.31204E-04  8540   0.313E-04 0.212E-04
CGA:  14    -0.128550378818E+04   -0.16972E-04   -0.22136E-04  8540   0.397E-04-0.178E-04
CGA:  15    -0.128550380083E+04   -0.12645E-04   -0.12502E-04  8540   0.626E-05-0.108E-04
CGA:  16    -0.128550380451E+04   -0.36798E-05    0.32341E-05  8540   0.124E-05 0.849E-06
   9 F= -.12855038E+04 E0= -.12855038E+04  d E =0.177449E-01  mag=   126.0000
       N       E                     dE             d eps       ncg     rms          ort
SDA:   1    -0.128025934156E+04    0.52445E+01    0.00000E+00  8540   0.133E+02 0.000E+00
CGA:   2    -0.128392917931E+04   -0.36698E+01   -0.36706E+01  8540   0.617E+01 0.241E-02
CGA:   3    -0.128516296235E+04   -0.12338E+01   -0.12339E+01  8540   0.110E+01 0.265E-02
CGA:   4    -0.128539270444E+04   -0.22974E+00   -0.22992E+00  8540   0.199E+00 0.162E-02
CGA:   5    -0.128543590066E+04   -0.43196E-01   -0.43184E-01  8540   0.473E-01-0.176E-03
CGA:   6    -0.128544750972E+04   -0.11609E-01   -0.11589E-01  8540   0.131E-01-0.329E-03
CGA:   7    -0.128545081112E+04   -0.33014E-02   -0.33145E-02  8540   0.408E-02 0.258E-03
CGA:   8    -0.128545204395E+04   -0.12328E-02   -0.12341E-02  8540   0.138E-02 0.214E-03
CGA:   9    -0.128545254936E+04   -0.50542E-03   -0.50664E-03  8540   0.540E-03-0.268E-04
CGA:  10    -0.128545272776E+04   -0.17839E-03   -0.17818E-03  8540   0.185E-03 0.633E-05
CGA:  11    -0.128545278991E+04   -0.62150E-04   -0.61636E-04  8540   0.691E-04 0.222E-04
CGA:  12    -0.128545281041E+04   -0.20505E-04   -0.21437E-04  8540   0.322E-04 0.307E-04
CGA:  13    -0.128545281971E+04   -0.92995E-05   -0.11055E-04  8540   0.193E-04 0.256E-04
  10 F= -.12854528E+04 E0= -.12854528E+04  d E =0.509848E-01  mag=   126.0000
       N       E                     dE             d eps       ncg     rms          ort
SDA:   1    -0.128407082146E+04    0.13820E+01    0.00000E+00  8540   0.385E+01 0.000E+00
CGA:   2    -0.128498174224E+04   -0.91092E+00   -0.91116E+00  8540   0.173E+01 0.157E-02
CGA:   3    -0.128536421387E+04   -0.38247E+00   -0.38251E+00  8540   0.360E+00-0.343E-03
CGA:   4    -0.128543868012E+04   -0.74466E-01   -0.74430E-01  8540   0.681E-01-0.462E-03
CGA:   5    -0.128545320634E+04   -0.14526E-01   -0.14516E-01  8540   0.156E-01-0.151E-03
CGA:   6    -0.128545697954E+04   -0.37732E-02   -0.37634E-02  8540   0.448E-02-0.218E-03
CGA:   7    -0.128545818344E+04   -0.12039E-02   -0.12012E-02  8540   0.144E-02-0.200E-03
CGA:   8    -0.128545860247E+04   -0.41903E-03   -0.42102E-03  8540   0.510E-03-0.962E-04
CGA:   9    -0.128545877661E+04   -0.17413E-03   -0.18724E-03  8540   0.259E-03-0.122E-03
CGA:  10    -0.128545880333E+04   -0.26723E-04   -0.13922E-03  8540   0.572E-03-0.270E-03
CGA:  11    -0.128545892831E+04   -0.12498E-03   -0.12335E-03  8540   0.788E-04-0.170E-04
CGA:  12    -0.128545892425E+04    0.40584E-05   -0.70059E-04  8540   0.331E-03-0.122E-03
CGA:  13    -0.128545899600E+04   -0.71751E-04   -0.72210E-04  8540   0.305E-04 0.378E-05
CGA:  14    -0.128545893901E+04    0.56985E-04   -0.41101E-04  8540   0.341E-03-0.981E-04
CGA:  15    -0.128545901304E+04   -0.74023E-04   -0.79735E-04  8540   0.378E-04 0.385E-04
CGA:  16    -0.128545847951E+04    0.53352E-03   -0.28873E-03  8540   0.237E-02-0.312E-03
CGA:  17    -0.128545888981E+04   -0.41030E-03   -0.49389E-03  8540   0.429E-03 0.182E-03
CGA:  18    -0.128545906175E+04   -0.17194E-03   -0.14999E-03  8540   0.337E-04-0.655E-04
CGA:  19    -0.128545905926E+04    0.24907E-05   -0.42842E-05  8540   0.101E-04 0.138E-04
  11 F= -.12854591E+04 E0= -.12854591E+04  d E =-.623955E-02  mag=   126.0000
       N       E                     dE             d eps       ncg     rms          ort
SDA:   1    -0.127938760887E+04    0.60715E+01    0.00000E+00  8540   0.178E+02 0.000E+00
CGA:   2    -0.128314174489E+04   -0.37541E+01   -0.37683E+01  8540   0.729E+01 0.261E-02
CGA:   3    -0.128487831091E+04   -0.17366E+01   -0.17376E+01  8540   0.177E+01 0.103E-01
CGA:   4    -0.128524355421E+04   -0.36524E+00   -0.36540E+00  8540   0.329E+00 0.794E-03
CGA:   5    -0.128531411149E+04   -0.70557E-01   -0.70663E-01  8540   0.764E-01 0.129E-03
CGA:   6    -0.128533215106E+04   -0.18040E-01   -0.18072E-01  8540   0.207E-01 0.964E-04
CGA:   7    -0.128533744762E+04   -0.52966E-02   -0.53904E-02  8540   0.597E-02 0.373E-03
CGA:   8    -0.128533908635E+04   -0.16387E-02   -0.16965E-02  8540   0.187E-02 0.264E-03
CGA:   9    -0.128533965680E+04   -0.57045E-03   -0.60337E-03  8540   0.631E-03 0.185E-03
CGA:  10    -0.128533980615E+04   -0.14935E-03   -0.18882E-03  8540   0.217E-03 0.193E-03
CGA:  11    -0.128533983591E+04   -0.29752E-04   -0.61781E-04  8540   0.918E-04 0.129E-03
CGA:  12    -0.128533983903E+04   -0.31233E-05   -0.18144E-04  8540   0.489E-04 0.585E-04
  12 F= -.12853398E+04 E0= -.12853398E+04  d E =0.119220E+00  mag=   126.0000
       N       E                     dE             d eps       ncg     rms          ort
SDA:   1    -0.128230994921E+04    0.30299E+01    0.00000E+00  8540   0.962E+01 0.000E+00
CGA:   2    -0.128427654281E+04   -0.19666E+01   -0.19703E+01  8540   0.377E+01 0.408E-02
CGA:   3    -0.128520248185E+04   -0.92594E+00   -0.92631E+00  8540   0.973E+00-0.814E-03
CGA:   4    -0.128540454163E+04   -0.20206E+00   -0.20171E+00  8540   0.183E+00-0.203E-02
CGA:   5    -0.128544351507E+04   -0.38973E-01   -0.38938E-01  8540   0.417E-01-0.262E-03
CGA:   6    -0.128545334330E+04   -0.98282E-02   -0.98068E-02  8540   0.113E-01-0.155E-03
CGA:   7    -0.128545641410E+04   -0.30708E-02   -0.30404E-02  8540   0.345E-02-0.277E-03
CGA:   8    -0.128545744236E+04   -0.10283E-02   -0.10085E-02  8540   0.121E-02-0.265E-03
CGA:   9    -0.128545787397E+04   -0.43161E-03   -0.43772E-03  8540   0.617E-03-0.302E-03
CGA:  10    -0.128545806273E+04   -0.18875E-03   -0.20854E-03  8540   0.402E-03-0.253E-03
CGA:  11    -0.128545810851E+04   -0.45779E-04   -0.16208E-03  8540   0.686E-03-0.380E-03
CGA:  12    -0.128545829206E+04   -0.18356E-03   -0.17500E-03  8540   0.145E-03-0.632E-04
CGA:  13    -0.128545835185E+04   -0.59790E-04   -0.63397E-04  8540   0.749E-04-0.376E-04
CGA:  14    -0.128545787142E+04    0.48043E-03   -0.25870E-03  8540   0.211E-02-0.294E-03
CGA:  15    -0.128545830687E+04   -0.43545E-03   -0.46813E-03  8540   0.216E-03 0.668E-04
CGA:  16    -0.128545841203E+04   -0.10515E-03   -0.96946E-04  8540   0.168E-03-0.327E-04
CGA:  17    -0.128545845434E+04   -0.42311E-04   -0.43592E-04  8540   0.499E-04 0.351E-05
CGA:  18    -0.128545845534E+04   -0.10039E-05   -0.10339E-04  8540   0.155E-04 0.207E-04
  13 F= -.12854585E+04 E0= -.12854585E+04  d E =-.118616E+00  mag=   126.0000
       N       E                     dE             d eps       ncg     rms          ort
SDA:   1    -0.128542327227E+04    0.35182E-01    0.00000E+00  8540   0.102E+00 0.000E+00
CGA:   2    -0.128544434664E+04   -0.21074E-01   -0.21095E-01  8540   0.418E-01 0.619E-05
CGA:   3    -0.128545460171E+04   -0.10255E-01   -0.10284E-01  8540   0.102E-01 0.573E-04
CGA:   4    -0.128545669119E+04   -0.20895E-02   -0.21000E-02  8540   0.178E-02 0.266E-04
CGA:   5    -0.128545708583E+04   -0.39464E-03   -0.39307E-03  8540   0.428E-03-0.534E-05
CGA:   6    -0.128545718932E+04   -0.10349E-03   -0.10177E-03  8540   0.113E-03-0.588E-05
CGA:   7    -0.128545722015E+04   -0.30835E-04   -0.29945E-04  8540   0.355E-04-0.351E-05
CGA:   8    -0.128545723016E+04   -0.10011E-04   -0.97574E-05  8540   0.112E-04-0.113E-05
CGA:   9    -0.128545723364E+04   -0.34805E-05   -0.34775E-05  8540   0.376E-05-0.228E-07
  14 F= -.12854572E+04 E0= -.12854572E+04  d E =0.122170E-02  mag=   126.0000
       N       E                     dE             d eps       ncg     rms          ort
SDA:   1    -0.128523309510E+04    0.22414E+00    0.00000E+00  8540   0.583E+00 0.000E+00
CGA:   2    -0.128536976375E+04   -0.13667E+00   -0.13663E+00  8540   0.262E+00-0.350E-03
CGA:   3    -0.128542717574E+04   -0.57412E-01   -0.57513E-01  8540   0.554E-01 0.304E-03
CGA:   4    -0.128543859630E+04   -0.11421E-01   -0.11495E-01  8540   0.995E-02 0.268E-03
CGA:   5    -0.128544073329E+04   -0.21370E-02   -0.21379E-02  8540   0.229E-02 0.183E-06
CGA:   6    -0.128544129803E+04   -0.56474E-03   -0.56251E-03  8540   0.635E-03-0.115E-04
CGA:   7    -0.128544145508E+04   -0.15705E-03   -0.16039E-03  8540   0.181E-03 0.180E-04
CGA:   8    -0.128544150226E+04   -0.47180E-04   -0.50256E-04  8540   0.545E-04 0.194E-04
CGA:   9    -0.128544151577E+04   -0.13513E-04   -0.15880E-04  8540   0.173E-04 0.149E-04
CGA:  10    -0.128544152082E+04   -0.50516E-05   -0.59764E-05  8540   0.698E-05 0.652E-05
  15 F= -.12854415E+04 E0= -.12854415E+04  d E =0.157128E-01  mag=   126.0000
       N       E                     dE             d eps       ncg     rms          ort
SDA:   1    -0.128532947700E+04    0.11204E+00    0.00000E+00  8540   0.265E+00 0.000E+00
CGA:   2    -0.128539478807E+04   -0.65311E-01   -0.65293E-01  8540   0.121E+00-0.219E-03
CGA:   3    -0.128542039816E+04   -0.25610E-01   -0.25639E-01  8540   0.244E-01 0.125E-03
CGA:   4    -0.128542549408E+04   -0.50959E-02   -0.51186E-02  8540   0.427E-02 0.125E-03
CGA:   5    -0.128542639746E+04   -0.90338E-03   -0.91210E-03  8540   0.976E-03 0.518E-04
CGA:   6    -0.128542662885E+04   -0.23139E-03   -0.23677E-03  8540   0.254E-03 0.416E-04
CGA:   7    -0.128542669443E+04   -0.65580E-04   -0.67334E-04  8540   0.757E-04 0.163E-04
CGA:   8    -0.128542671796E+04   -0.23522E-04   -0.23889E-04  8540   0.271E-04 0.608E-05
CGA:   9    -0.128542672364E+04   -0.56815E-05   -0.68705E-05  8540   0.889E-05 0.996E-05
  16 F= -.12854267E+04 E0= -.12854267E+04  d E =0.147972E-01  mag=   126.0000
       N       E                     dE             d eps       ncg     rms          ort
SDA:   1    -0.128479323354E+04    0.63348E+00    0.00000E+00  8540   0.157E+01 0.000E+00
CGA:   2    -0.128521138276E+04   -0.41815E+00   -0.41809E+00  8540   0.717E+00-0.114E-02
CGA:   3    -0.128535410697E+04   -0.14272E+00   -0.14277E+00  8540   0.137E+00 0.220E-03
CGA:   4    -0.128538296863E+04   -0.28862E-01   -0.28926E-01  8540   0.243E-01 0.522E-03
CGA:   5    -0.128538817681E+04   -0.52082E-02   -0.52343E-02  8540   0.550E-02 0.233E-03
CGA:   6    -0.128538948645E+04   -0.13096E-02   -0.13249E-02  8540   0.145E-02 0.191E-03
CGA:   7    -0.128538986377E+04   -0.37731E-03   -0.38298E-03  8540   0.435E-03 0.958E-04
CGA:   8    -0.128538999895E+04   -0.13518E-03   -0.13597E-03  8540   0.154E-03 0.447E-04
CGA:   9    -0.128539003971E+04   -0.40762E-04   -0.43409E-04  8540   0.497E-04 0.484E-04
CGA:  10    -0.128539004937E+04   -0.96610E-05   -0.13052E-04  8540   0.215E-04 0.315E-04
  17 F= -.12853900E+04 E0= -.12853900E+04  d E =0.366743E-01  mag=   126.0000
       N       E                     dE             d eps       ncg     rms          ort
SDA:   1    -0.128477826987E+04    0.61177E+00    0.00000E+00  8540   0.157E+01 0.000E+00
CGA:   2    -0.128516955240E+04   -0.39128E+00   -0.39131E+00  8540   0.739E+00-0.933E-04
CGA:   3    -0.128532448778E+04   -0.15494E+00   -0.15492E+00  8540   0.142E+00-0.328E-03
CGA:   4    -0.128535435018E+04   -0.29862E-01   -0.29855E-01  8540   0.251E-01-0.100E-03
CGA:   5    -0.128535966216E+04   -0.53120E-02   -0.53450E-02  8540   0.573E-02 0.439E-03
CGA:   6    -0.128536099255E+04   -0.13304E-02   -0.13512E-02  8540   0.144E-02 0.406E-03
CGA:   7    -0.128536141240E+04   -0.41985E-03   -0.42011E-03  8540   0.478E-03 0.290E-04
CGA:   8    -0.128536158322E+04   -0.17082E-03   -0.17732E-03  8540   0.238E-03-0.783E-04
CGA:   9    -0.128536163527E+04   -0.52058E-04   -0.52492E-04  8540   0.701E-04 0.206E-04
CGA:  10    -0.128536164695E+04   -0.11680E-04   -0.14514E-04  8540   0.267E-04 0.305E-04
CGA:  11    -0.128536165077E+04   -0.38154E-05   -0.60844E-05  8540   0.122E-04 0.189E-04
  18 F= -.12853617E+04 E0= -.12853617E+04  d E =0.283986E-01  mag=   126.0000
       N       E                     dE             d eps       ncg     rms          ort
SDA:   1    -0.128517701434E+04    0.18463E+00    0.00000E+00  8540   0.548E+00 0.000E+00
CGA:   2    -0.128529723198E+04   -0.12022E+00   -0.12024E+00  8540   0.245E+00 0.444E-04
CGA:   3    -0.128535438439E+04   -0.57152E-01   -0.57170E-01  8540   0.538E-01 0.302E-03
CGA:   4    -0.128536524915E+04   -0.10865E-01   -0.10880E-01  8540   0.945E-02 0.213E-03
CGA:   5    -0.128536732700E+04   -0.20778E-02   -0.20809E-02  8540   0.227E-02 0.586E-04
CGA:   6    -0.128536788512E+04   -0.55812E-03   -0.55673E-03  8540   0.619E-03-0.623E-04
CGA:   7    -0.128536804993E+04   -0.16481E-03   -0.16510E-03  8540   0.199E-03-0.339E-04
CGA:   8    -0.128536809565E+04   -0.45720E-04   -0.46150E-04  8540   0.520E-04 0.210E-04
CGA:   9    -0.128536810741E+04   -0.11762E-04   -0.12664E-04  8540   0.171E-04 0.202E-04
CGA:  10    -0.128536811096E+04   -0.35483E-05   -0.44164E-05  8540   0.776E-05 0.113E-04
  19 F= -.12853681E+04 E0= -.12853681E+04  d E =-.646019E-02  mag=   126.0000
       N       E                     dE             d eps       ncg     rms          ort
SDA:   1    -0.128533005699E+04    0.38050E-01    0.00000E+00  8540   0.113E+00 0.000E+00
CGA:   2    -0.128535785129E+04   -0.27794E-01   -0.27792E-01  8540   0.545E-01-0.257E-03
CGA:   3    -0.128536951952E+04   -0.11668E-01   -0.11677E-01  8540   0.104E-01 0.202E-03
CGA:   4    -0.128537159793E+04   -0.20784E-02   -0.20887E-02  8540   0.180E-02 0.194E-03
CGA:   5    -0.128537200945E+04   -0.41153E-03   -0.41093E-03  8540   0.447E-03-0.228E-04
CGA:   6    -0.128537213035E+04   -0.12090E-03   -0.12301E-03  8540   0.162E-03-0.732E-04
CGA:   7    -0.128537216366E+04   -0.33308E-04   -0.33280E-04  8540   0.460E-04-0.543E-05
CGA:   8    -0.128537216825E+04   -0.45892E-05   -0.66641E-05  8540   0.157E-04 0.206E-04
  20 F= -.12853722E+04 E0= -.12853722E+04  d E =-.405729E-02  mag=   126.0000
       N       E                     dE             d eps       ncg     rms          ort
SDA:   1    -0.128510854078E+04    0.26362E+00    0.00000E+00  8540   0.687E+00 0.000E+00
CGA:   2    -0.128528322922E+04   -0.17469E+00   -0.17469E+00  8540   0.344E+00-0.565E-03
CGA:   3    -0.128535537565E+04   -0.72146E-01   -0.72162E-01  8540   0.620E-01 0.430E-03
CGA:   4    -0.128536773727E+04   -0.12362E-01   -0.12379E-01  8540   0.109E-01 0.439E-03
CGA:   5    -0.128537016387E+04   -0.24266E-02   -0.24280E-02  8540   0.261E-02 0.869E-04
CGA:   6    -0.128537079361E+04   -0.62974E-03   -0.62981E-03  8540   0.682E-03-0.181E-04
CGA:   7    -0.128537097984E+04   -0.18624E-03   -0.18754E-03  8540   0.226E-03-0.314E-04
CGA:   8    -0.128537103295E+04   -0.53107E-04   -0.52847E-04  8540   0.620E-04 0.353E-04
CGA:   9    -0.128537104480E+04   -0.11852E-04   -0.13486E-04  8540   0.234E-04 0.329E-04
CGA:  10    -0.128537104877E+04   -0.39702E-05   -0.45381E-05  8540   0.109E-04 0.138E-04
  21 F= -.12853710E+04 E0= -.12853710E+04  d E =0.111948E-02  mag=   126.0000
       N       E                     dE             d eps       ncg     rms          ort
SDA:   1    -0.128116253600E+04    0.42085E+01    0.00000E+00  8540   0.105E+02 0.000E+00
CGA:   2    -0.128407493530E+04   -0.29124E+01   -0.29122E+01  8540   0.535E+01 0.467E-03
CGA:   3    -0.128512608057E+04   -0.10511E+01   -0.10512E+01  8540   0.859E+00 0.788E-03
CGA:   4    -0.128530061765E+04   -0.17454E+00   -0.17460E+00  8540   0.158E+00 0.242E-02
CGA:   5    -0.128533562215E+04   -0.35005E-01   -0.35012E-01  8540   0.369E-01 0.984E-03
CGA:   6    -0.128534432676E+04   -0.87046E-02   -0.87031E-02  8540   0.949E-02 0.214E-03
CGA:   7    -0.128534688030E+04   -0.25535E-02   -0.25520E-02  8540   0.302E-02 0.384E-04
CGA:   8    -0.128534777456E+04   -0.89426E-03   -0.88470E-03  8540   0.100E-02 0.154E-03
CGA:   9    -0.128534810725E+04   -0.33269E-03   -0.32279E-03  8540   0.313E-03 0.134E-03
CGA:  10    -0.128534821008E+04   -0.10283E-03   -0.99263E-04  8540   0.100E-03 0.826E-04
CGA:  11    -0.128534824052E+04   -0.30439E-04   -0.30395E-04  8540   0.410E-04 0.510E-04
CGA:  12    -0.128534825378E+04   -0.13262E-04   -0.12156E-04  8540   0.196E-04 0.192E-04
CGA:  13    -0.128534825848E+04   -0.46970E-05   -0.56821E-05  8540   0.148E-04 0.223E-04
  22 F= -.12853483E+04 E0= -.12853483E+04  d E =0.227903E-01  mag=   126.0000
       N       E                     dE             d eps       ncg     rms          ort
SDA:   1    -0.127964605207E+04    0.57022E+01    0.00000E+00  8540   0.146E+02 0.000E+00
CGA:   2    -0.128345996028E+04   -0.38139E+01   -0.38135E+01  8540   0.748E+01 0.754E-02
CGA:   3    -0.128499158149E+04   -0.15316E+01   -0.15316E+01  8540   0.124E+01-0.139E-02
CGA:   4    -0.128524386567E+04   -0.25228E+00   -0.25229E+00  8540   0.229E+00 0.460E-04
CGA:   5    -0.128529474649E+04   -0.50881E-01   -0.50896E-01  8540   0.539E-01 0.121E-02
CGA:   6    -0.128530736551E+04   -0.12619E-01   -0.12620E-01  8540   0.136E-01 0.558E-03
CGA:   7    -0.128531109937E+04   -0.37339E-02   -0.37369E-02  8540   0.434E-02-0.827E-04
CGA:   8    -0.128531241115E+04   -0.13118E-02   -0.13169E-02  8540   0.157E-02-0.750E-04
CGA:   9    -0.128531294691E+04   -0.53575E-03   -0.54741E-03  8540   0.581E-03-0.101E-03
CGA:  10    -0.128531312791E+04   -0.18100E-03   -0.18234E-03  8540   0.189E-03-0.151E-04
CGA:  11    -0.128531319948E+04   -0.71575E-04   -0.76927E-04  8540   0.892E-04-0.320E-04
CGA:  12    -0.128531324095E+04   -0.41473E-04    0.11374E-03  8540   0.369E-04 0.265E-04
CGA:  13    -0.128531326984E+04   -0.28882E-04    0.36610E-04  8540   0.188E-04 0.170E-04
CGA:  14    -0.128531328978E+04   -0.19940E-04    0.86746E-05  8540   0.113E-04 0.133E-04
CGA:  15    -0.128531329809E+04   -0.83100E-05    0.35105E-05  8540   0.562E-05 0.664E-05
  23 F= -.12853133E+04 E0= -.12853133E+04  d E =0.349604E-01  mag=   126.0000
       N       E                     dE             d eps       ncg     rms          ort
SDA:   1    -0.128046808704E+04    0.48452E+01    0.00000E+00  8540   0.131E+02 0.000E+00
CGA:   2    -0.128358856121E+04   -0.31205E+01   -0.31209E+01  8540   0.628E+01 0.123E-01
CGA:   3    -0.128497298238E+04   -0.13844E+01   -0.13845E+01  8540   0.121E+01-0.118E-02
CGA:   4    -0.128521672031E+04   -0.24374E+00   -0.24370E+00  8540   0.220E+00-0.902E-03
CGA:   5    -0.128526512639E+04   -0.48406E-01   -0.48408E-01  8540   0.529E-01-0.124E-04
CGA:   6    -0.128527753999E+04   -0.12414E-01   -0.12413E-01  8540   0.138E-01-0.661E-04
CGA:   7    -0.128528111326E+04   -0.35733E-02   -0.35715E-02  8540   0.406E-02 0.197E-03
CGA:   8    -0.128528231562E+04   -0.12024E-02   -0.11992E-02  8540   0.134E-02 0.776E-04
CGA:   9    -0.128528279678E+04   -0.48116E-03   -0.48779E-03  8540   0.529E-03-0.635E-04
CGA:  10    -0.128528297132E+04   -0.17454E-03   -0.17608E-03  8540   0.190E-03-0.172E-04
CGA:  11    -0.128528304200E+04   -0.70677E-04   -0.73939E-04  8540   0.845E-04-0.236E-04
CGA:  12    -0.128528307352E+04   -0.31517E-04   -0.32350E-04  8540   0.466E-04-0.517E-05
CGA:  13    -0.128528310053E+04   -0.27012E-04    0.55561E-04  8540   0.215E-04 0.195E-04
CGA:  14    -0.128528308345E+04    0.17080E-04   -0.39794E-04  8540   0.203E-03-0.559E-04
CGA:  15    -0.128528313606E+04   -0.52616E-04   -0.53239E-04  8540   0.180E-04 0.922E-05
CGA:  16    -0.128528301611E+04    0.11996E-03   -0.64601E-04  8540   0.488E-03-0.888E-04
CGA:  17    -0.128528311105E+04   -0.94941E-04   -0.11804E-03  8540   0.597E-04 0.655E-04
CGA:  18    -0.128528314903E+04   -0.37980E-04   -0.47899E-04  8540   0.103E-03-0.762E-04
CGA:  19    -0.128528314149E+04    0.75347E-05   -0.13928E-04  8540   0.273E-04 0.480E-04
  24 F= -.12852831E+04 E0= -.12852831E+04  d E =0.301566E-01  mag=   126.0000
       N       E                     dE             d eps       ncg     rms          ort
SDA:   1    -0.128247982072E+04    0.28033E+01    0.00000E+00  8540   0.770E+01 0.000E+00
CGA:   2    -0.128433507247E+04   -0.18553E+01   -0.18576E+01  8540   0.374E+01-0.125E-02
CGA:   3    -0.128514700626E+04   -0.81193E+00   -0.81214E+00  8540   0.708E+00 0.153E-02
CGA:   4    -0.128529057845E+04   -0.14357E+00   -0.14365E+00  8540   0.128E+00 0.513E-03
CGA:   5    -0.128531882604E+04   -0.28248E-01   -0.28212E-01  8540   0.307E-01-0.181E-03
CGA:   6    -0.128532619806E+04   -0.73720E-02   -0.72978E-02  8540   0.805E-02-0.315E-03
CGA:   7    -0.128532825847E+04   -0.20604E-02   -0.20779E-02  8540   0.238E-02 0.830E-04
CGA:   8    -0.128532890980E+04   -0.65133E-03   -0.67399E-03  8540   0.733E-03 0.127E-03
CGA:   9    -0.128532916716E+04   -0.25736E-03   -0.25989E-03  8540   0.262E-03 0.224E-04
CGA:  10    -0.128532925775E+04   -0.90587E-04   -0.91666E-04  8540   0.926E-04 0.103E-04
CGA:  11    -0.128532929384E+04   -0.36092E-04   -0.35977E-04  8540   0.364E-04-0.193E-05
CGA:  12    -0.128532930325E+04   -0.94132E-05   -0.10700E-04  8540   0.140E-04 0.956E-05
  25 F= -.12853293E+04 E0= -.12853293E+04  d E =-.461618E-01  mag=   126.0000
       N       E                     dE             d eps       ncg     rms          ort
SDA:   1    -0.128328386232E+04    0.20454E+01    0.00000E+00  8540   0.568E+01 0.000E+00
CGA:   2    -0.128461253928E+04   -0.13287E+01   -0.13298E+01  8540   0.265E+01 0.966E-03
CGA:   3    -0.128519669739E+04   -0.58416E+00   -0.58453E+00  8540   0.529E+00 0.127E-02
CGA:   4    -0.128530457112E+04   -0.10787E+00   -0.10793E+00  8540   0.994E-01 0.324E-03
CGA:   5    -0.128532634988E+04   -0.21779E-01   -0.21741E-01  8540   0.235E-01-0.253E-03
CGA:   6    -0.128533195839E+04   -0.56085E-02   -0.55698E-02  8540   0.641E-02-0.273E-03
CGA:   7    -0.128533360455E+04   -0.16462E-02   -0.16564E-02  8540   0.188E-02 0.891E-04
CGA:   8    -0.128533412377E+04   -0.51922E-03   -0.52992E-03  8540   0.574E-03 0.116E-03
CGA:   9    -0.128533433200E+04   -0.20823E-03   -0.20850E-03  8540   0.215E-03 0.116E-04
CGA:  10    -0.128533440444E+04   -0.72436E-04   -0.72825E-04  8540   0.760E-04 0.123E-04
CGA:  11    -0.128533443251E+04   -0.28076E-04   -0.28120E-04  8540   0.280E-04 0.348E-05
CGA:  12    -0.128533444072E+04   -0.82069E-05   -0.87525E-05  8540   0.112E-04 0.874E-05
  26 F= -.12853344E+04 E0= -.12853344E+04  d E =-.513747E-02  mag=   126.0000
       N       E                     dE             d eps       ncg     rms          ort
SDA:   1    -0.128466308741E+04    0.67135E+00    0.00000E+00  8540   0.187E+01 0.000E+00
CGA:   2    -0.128510701894E+04   -0.44393E+00   -0.44418E+00  8540   0.892E+00 0.113E-02
CGA:   3    -0.128530385146E+04   -0.19683E+00   -0.19672E+00  8540   0.173E+00-0.124E-02
CGA:   4    -0.128533913744E+04   -0.35286E-01   -0.35196E-01  8540   0.322E-01-0.683E-03
CGA:   5    -0.128534614450E+04   -0.70071E-02   -0.70168E-02  8540   0.754E-02 0.760E-04
CGA:   6    -0.128534789315E+04   -0.17487E-02   -0.17589E-02  8540   0.194E-02 0.105E-03
CGA:   7    -0.128534843715E+04   -0.54399E-03   -0.54116E-03  8540   0.620E-03-0.591E-04
CGA:   8    -0.128534863750E+04   -0.20035E-03   -0.20193E-03  8540   0.273E-03-0.105E-03
CGA:   9    -0.128534872174E+04   -0.84235E-04   -0.91022E-04  8540   0.141E-03-0.851E-04
CGA:  10    -0.128534875715E+04   -0.35413E-04   -0.39200E-04  8540   0.697E-04-0.484E-04
CGA:  11    -0.128534876670E+04   -0.95568E-05   -0.31027E-04  8540   0.118E-03-0.617E-04
CGA:  12    -0.128534880095E+04   -0.34245E-04   -0.32800E-04  8540   0.283E-04-0.206E-04
CGA:  13    -0.128534880950E+04   -0.85488E-05   -0.86084E-05  8540   0.761E-05-0.243E-05
  27 F= -.12853488E+04 E0= -.12853488E+04  d E =-.143688E-01  mag=   126.0000
       N       E                     dE             d eps       ncg     rms          ort
SDA:   1    -0.128517688544E+04    0.17192E+00    0.00000E+00  8540   0.478E+00 0.000E+00
CGA:   2    -0.128529753747E+04   -0.12065E+00   -0.12071E+00  8540   0.236E+00 0.419E-03
CGA:   3    -0.128534758915E+04   -0.50052E-01   -0.49972E-01  8540   0.430E-01-0.666E-03
CGA:   4    -0.128535637554E+04   -0.87864E-02   -0.87423E-02  8540   0.782E-02-0.343E-03
CGA:   5    -0.128535810059E+04   -0.17251E-02   -0.17153E-02  8540   0.188E-02-0.940E-04
CGA:   6    -0.128535854463E+04   -0.44404E-03   -0.44121E-03  8540   0.499E-03-0.342E-04
CGA:   7    -0.128535867027E+04   -0.12564E-03   -0.12593E-03  8540   0.148E-03 0.462E-05
CGA:   8    -0.128535871808E+04   -0.47808E-04   -0.47858E-04  8540   0.574E-04-0.100E-04
CGA:   9    -0.128535871233E+04    0.57461E-05   -0.47905E-04  8540   0.252E-03-0.927E-04
CGA:  10    -0.128535876062E+04   -0.48285E-04   -0.49541E-04  8540   0.270E-04 0.846E-05
CGA:  11    -0.128535877114E+04   -0.10524E-04   -0.10753E-04  8540   0.982E-05-0.469E-05
CGA:  12    -0.128535877016E+04    0.98703E-06   -0.79234E-05  8540   0.408E-04-0.140E-04
CGA:  13    -0.128535878182E+04   -0.11668E-04   -0.10804E-04  8540   0.693E-05-0.814E-05
CGA:  14    -0.128535878200E+04   -0.17382E-06   -0.82743E-06  8540   0.224E-05 0.302E-05
  28 F= -.12853588E+04 E0= -.12853588E+04  d E =-.997250E-02  mag=   126.0000
       N       E                     dE             d eps       ncg     rms          ort
SDA:   1    -0.127804340171E+04    0.73154E+01    0.00000E+00  8540   0.188E+02 0.000E+00
CGA:   2    -0.128303549000E+04   -0.49921E+01   -0.49936E+01  8540   0.947E+01 0.418E-02
CGA:   3    -0.128496160204E+04   -0.19261E+01   -0.19261E+01  8540   0.161E+01-0.160E-02
CGA:   4    -0.128528928164E+04   -0.32768E+00   -0.32763E+00  8540   0.298E+00-0.340E-03
CGA:   5    -0.128535438279E+04   -0.65101E-01   -0.65093E-01  8540   0.711E-01-0.148E-03
CGA:   6    -0.128537111948E+04   -0.16737E-01   -0.16721E-01  8540   0.188E-01-0.193E-03
CGA:   7    -0.128537601940E+04   -0.48999E-02   -0.49080E-02  8540   0.585E-02 0.141E-03
CGA:   8    -0.128537778783E+04   -0.17684E-02   -0.17699E-02  8540   0.202E-02 0.962E-04
CGA:   9    -0.128537854673E+04   -0.75890E-03   -0.76810E-03  8540   0.836E-03-0.157E-03
CGA:  10    -0.128537882598E+04   -0.27925E-03   -0.28322E-03  8540   0.317E-03-0.803E-04
CGA:  11    -0.128537894082E+04   -0.11484E-03   -0.12062E-03  8540   0.154E-03-0.580E-04
CGA:  12    -0.128537899922E+04   -0.58397E-04   -0.76975E-04  8540   0.161E-03-0.652E-04
CGA:  13    -0.128537903884E+04   -0.39627E-04   -0.56817E-04  8540   0.133E-03-0.632E-04
CGA:  14    -0.128537907096E+04   -0.32114E-04   -0.48943E-04  8540   0.933E-04-0.672E-04
CGA:  15    -0.128537909719E+04   -0.26229E-04   -0.27228E-04  8540   0.193E-04 0.135E-04
CGA:  16    -0.128537911010E+04   -0.12914E-04   -0.14607E-04  8540   0.242E-04-0.565E-05
CGA:  17    -0.128537910875E+04    0.13536E-05   -0.17147E-05  8540   0.165E-04 0.111E-04
  29 F= -.12853791E+04 E0= -.12853791E+04  d E =-.203267E-01  mag=   126.0000
       N       E                     dE             d eps       ncg     rms          ort
SDA:   1    -0.127512438312E+04    0.10255E+02    0.00000E+00  8540   0.260E+02 0.000E+00
CGA:   2    -0.128207150548E+04   -0.69471E+01   -0.69491E+01  8540   0.135E+02 0.272E-02
CGA:   3    -0.128481229881E+04   -0.27408E+01   -0.27415E+01  8540   0.215E+01 0.376E-02
CGA:   4    -0.128524786377E+04   -0.43556E+00   -0.43591E+00  8540   0.400E+00 0.219E-02
CGA:   5    -0.128533707751E+04   -0.89214E-01   -0.89322E-01  8540   0.954E-01 0.893E-03
CGA:   6    -0.128535947639E+04   -0.22399E-01   -0.22401E-01  8540   0.243E-01 0.335E-05
CGA:   7    -0.128536594937E+04   -0.64730E-02   -0.64771E-02  8540   0.762E-02 0.708E-04
CGA:   8    -0.128536817574E+04   -0.22264E-02   -0.22318E-02  8540   0.254E-02 0.203E-03
CGA:   9    -0.128536904953E+04   -0.87378E-03   -0.87293E-03  8540   0.829E-03 0.490E-04
CGA:  10    -0.128536931790E+04   -0.26838E-03   -0.26839E-03  8540   0.240E-03 0.470E-04
CGA:  11    -0.128536939576E+04   -0.77854E-04   -0.78162E-04  8540   0.688E-04 0.313E-04
CGA:  12    -0.128536942699E+04   -0.31235E-04   -0.31309E-04  8540   0.344E-04-0.981E-06
CGA:  13    -0.128536943656E+04   -0.95729E-05   -0.99494E-05  8540   0.163E-04 0.133E-04
  30 F= -.12853694E+04 E0= -.12853694E+04  d E =0.967218E-02  mag=   126.0000
       N       E                     dE             d eps       ncg     rms          ort
SDA:   1    -0.127472313584E+04    0.10646E+02    0.00000E+00  8540   0.271E+02 0.000E+00
CGA:   2    -0.128192136382E+04   -0.71982E+01   -0.72003E+01  8540   0.139E+02 0.938E-02
CGA:   3    -0.128474870279E+04   -0.28273E+01   -0.28277E+01  8540   0.227E+01 0.383E-03
CGA:   4    -0.128520822650E+04   -0.45952E+00   -0.45969E+00  8540   0.429E+00 0.113E-02
CGA:   5    -0.128530258604E+04   -0.94360E-01   -0.94458E-01  8540   0.102E+00 0.960E-03
CGA:   6    -0.128532653781E+04   -0.23952E-01   -0.23960E-01  8540   0.264E-01 0.995E-04
CGA:   7    -0.128533355227E+04   -0.70145E-02   -0.70199E-02  8540   0.823E-02 0.140E-03
CGA:   8    -0.128533598470E+04   -0.24324E-02   -0.24340E-02  8540   0.279E-02 0.230E-03
CGA:   9    -0.128533693313E+04   -0.94844E-03   -0.94505E-03  8540   0.900E-03 0.117E-03
CGA:  10    -0.128533721953E+04   -0.28640E-03   -0.28608E-03  8540   0.264E-03 0.101E-03
CGA:  11    -0.128533730456E+04   -0.85031E-04   -0.85648E-04  8540   0.832E-04 0.596E-04
CGA:  12    -0.128533733726E+04   -0.32703E-04   -0.32318E-04  8540   0.376E-04 0.257E-04
CGA:  13    -0.128533734919E+04   -0.11927E-04   -0.12935E-04  8540   0.214E-04 0.254E-04
CGA:  14    -0.128533735495E+04   -0.57548E-05   -0.60139E-05  8540   0.113E-04 0.129E-04
  31 F= -.12853374E+04 E0= -.12853374E+04  d E =0.320816E-01  mag=   126.0000
       N       E                     dE             d eps       ncg     rms          ort
SDA:   1    -0.127983098172E+04    0.55064E+01    0.00000E+00  8540   0.145E+02 0.000E+00
CGA:   2    -0.128352793062E+04   -0.36969E+01   -0.36976E+01  8540   0.735E+01 0.493E-02
CGA:   3    -0.128506192433E+04   -0.15340E+01   -0.15340E+01  8540   0.126E+01-0.146E-02
CGA:   4    -0.128531699503E+04   -0.25507E+00   -0.25507E+00  8540   0.235E+00-0.606E-04
CGA:   5    -0.128536860479E+04   -0.51610E-01   -0.51618E-01  8540   0.565E-01 0.605E-04
CGA:   6    -0.128538171275E+04   -0.13108E-01   -0.13107E-01  8540   0.145E-01-0.210E-04
CGA:   7    -0.128538546066E+04   -0.37479E-02   -0.37525E-02  8540   0.432E-02 0.188E-03
CGA:   8    -0.128538671382E+04   -0.12532E-02   -0.12525E-02  8540   0.138E-02 0.179E-03
CGA:   9    -0.128538721752E+04   -0.50370E-03   -0.50492E-03  8540   0.499E-03-0.181E-04
CGA:  10    -0.128538737261E+04   -0.15509E-03   -0.15429E-03  8540   0.149E-03 0.291E-04
CGA:  11    -0.128538741894E+04   -0.46334E-04   -0.46187E-04  8540   0.430E-04 0.247E-04
CGA:  12    -0.128538743797E+04   -0.19030E-04   -0.18854E-04  8540   0.209E-04 0.191E-05
CGA:  13    -0.128538744387E+04   -0.58965E-05   -0.60457E-05  8540   0.106E-04 0.961E-05
  32 F= -.12853874E+04 E0= -.12853874E+04  d E =-.500889E-01  mag=   126.0000
       N       E                     dE             d eps       ncg     rms          ort
SDA:   1    -0.125927845461E+04    0.26109E+02    0.00000E+00  8540   0.734E+02 0.000E+00
CGA:   2    -0.127572654376E+04   -0.16448E+02   -0.16471E+02  8540   0.332E+02 0.118E+00
CGA:   3    -0.128341338942E+04   -0.76868E+01   -0.76883E+01  8540   0.710E+01 0.134E-01
CGA:   4    -0.128485108442E+04   -0.14377E+01   -0.14376E+01  8540   0.128E+01-0.331E-02
CGA:   5    -0.128512884852E+04   -0.27776E+00   -0.27785E+00  8540   0.311E+00 0.797E-03
CGA:   6    -0.128520287029E+04   -0.74022E-01   -0.74023E-01  8540   0.820E-01-0.814E-04
CGA:   7    -0.128522421556E+04   -0.21345E-01   -0.21356E-01  8540   0.248E-01 0.703E-03
CGA:   8    -0.128523130206E+04   -0.70865E-02   -0.70800E-02  8540   0.777E-02 0.770E-03
CGA:   9    -0.128523399790E+04   -0.26958E-02   -0.26885E-02  8540   0.280E-02 0.118E-03
CGA:  10    -0.128523492039E+04   -0.92249E-03   -0.91189E-03  8540   0.913E-03 0.247E-03
CGA:  11    -0.128523522426E+04   -0.30387E-03   -0.30014E-03  8540   0.288E-03 0.175E-03
CGA:  12    -0.128523533899E+04   -0.11474E-03   -0.11140E-03  8540   0.129E-03 0.763E-04
CGA:  13    -0.128523539156E+04   -0.52569E-04   -0.50723E-04  8540   0.697E-04 0.679E-04
CGA:  14    -0.128523541920E+04   -0.27642E-04   -0.25392E-04  8540   0.337E-04 0.283E-04
CGA:  15    -0.128523544641E+04   -0.27206E-04   -0.22388E-04  8540   0.237E-04 0.259E-04
CGA:  16    -0.128523545466E+04   -0.82457E-05   -0.78038E-05  8540   0.131E-04 0.142E-04
CGA:  17    -0.128523547427E+04   -0.19613E-04   -0.13826E-04  8540   0.950E-05 0.746E-05
CGA:  18    -0.128523547283E+04    0.14359E-05   -0.70267E-06  8540   0.710E-05 0.810E-05
  33 F= -.12852355E+04 E0= -.12852355E+04  d E =0.151971E+00  mag=   126.0000
       N       E                     dE             d eps       ncg     rms          ort
SDA:   1    -0.127911787078E+04    0.61176E+01    0.00000E+00  8540   0.192E+02 0.000E+00
CGA:   2    -0.128307947612E+04   -0.39616E+01   -0.39670E+01  8540   0.789E+01 0.147E-01
CGA:   3    -0.128499900122E+04   -0.19195E+01   -0.19202E+01  8540   0.190E+01 0.572E-02
CGA:   4    -0.128539095050E+04   -0.39195E+00   -0.39205E+00  8540   0.351E+00 0.364E-03
CGA:   5    -0.128546706206E+04   -0.76112E-01   -0.76092E-01  8540   0.831E-01-0.395E-03
CGA:   6    -0.128548686341E+04   -0.19801E-01   -0.19751E-01  8540   0.223E-01-0.892E-03
CGA:   7    -0.128549268649E+04   -0.58231E-02   -0.58238E-02  8540   0.675E-02 0.205E-04
CGA:   8    -0.128549452664E+04   -0.18401E-02   -0.18433E-02  8540   0.200E-02 0.172E-03
CGA:   9    -0.128549520613E+04   -0.67949E-03   -0.67943E-03  8540   0.717E-03 0.442E-06
CGA:  10    -0.128549544714E+04   -0.24101E-03   -0.24005E-03  8540   0.244E-03 0.223E-04
CGA:  11    -0.128549554597E+04   -0.98824E-04   -0.10456E-03  8540   0.106E-03-0.477E-04
CGA:  12    -0.128549557242E+04   -0.26449E-04   -0.26386E-04  8540   0.352E-04 0.658E-05
CGA:  13    -0.128549558228E+04   -0.98683E-05   -0.29845E-04  8540   0.874E-04-0.403E-04
CGA:  14    -0.128549559946E+04   -0.17173E-04   -0.19128E-04  8540   0.107E-04 0.183E-04
CGA:  15    -0.128549561159E+04   -0.12129E-04    0.44283E-05  8540   0.370E-05 0.383E-06
CGA:  16    -0.128549561219E+04   -0.60356E-06   -0.82893E-06  8540   0.211E-05 0.216E-05
  34 F= -.12854956E+04 E0= -.12854956E+04  d E =-.260139E+00  mag=   126.0000
       N       E                     dE             d eps       ncg     rms          ort
SDA:   1    -0.128529423506E+04    0.20138E+00    0.00000E+00  8540   0.643E+00 0.000E+00
CGA:   2    -0.128543304454E+04   -0.13881E+00   -0.13890E+00  8540   0.281E+00 0.612E-03
CGA:   3    -0.128549943886E+04   -0.66394E-01   -0.66373E-01  8540   0.646E-01-0.422E-03
CGA:   4    -0.128551265800E+04   -0.13219E-01   -0.13193E-01  8540   0.118E-01-0.267E-03
CGA:   5    -0.128551518144E+04   -0.25234E-02   -0.25220E-02  8540   0.277E-02-0.209E-04
CGA:   6    -0.128551584998E+04   -0.66854E-03   -0.66571E-03  8540   0.758E-03-0.507E-04
CGA:   7    -0.128551605036E+04   -0.20038E-03   -0.19959E-03  8540   0.237E-03-0.305E-04
CGA:   8    -0.128551612282E+04   -0.72464E-04   -0.73809E-04  8540   0.100E-03-0.421E-04
CGA:   9    -0.128551615028E+04   -0.27459E-04   -0.43741E-04  8540   0.121E-03-0.690E-04
CGA:  10    -0.128551617363E+04   -0.23350E-04   -0.23552E-04  8540   0.166E-04 0.178E-05
CGA:  11    -0.128551606868E+04    0.10495E-03   -0.56519E-04  8540   0.527E-03-0.852E-04
CGA:  12    -0.128551618373E+04   -0.11504E-03   -0.11821E-03  8540   0.659E-04 0.955E-05
CGA:  13    -0.128551620855E+04   -0.24821E-04   -0.22657E-04  8540   0.890E-05-0.111E-04
CGA:  14    -0.128551620859E+04   -0.43750E-07   -0.13494E-05  8540   0.278E-05 0.383E-05
  35 F= -.12855162E+04 E0= -.12855162E+04  d E =-.205964E-01  mag=   126.0000
       N       E                     dE             d eps       ncg     rms          ort
SDA:   1    -0.128432155977E+04    0.11946E+01    0.00000E+00  8540   0.343E+01 0.000E+00
CGA:   2    -0.128509567706E+04   -0.77412E+00   -0.77488E+00  8540   0.160E+01 0.872E-03
CGA:   3    -0.128546116287E+04   -0.36549E+00   -0.36547E+00  8540   0.336E+00-0.406E-03
CGA:   4    -0.128552902697E+04   -0.67864E-01   -0.67767E-01  8540   0.596E-01-0.403E-03
CGA:   5    -0.128554202433E+04   -0.12997E-01   -0.12999E-01  8540   0.143E-01-0.154E-04
CGA:   6    -0.128554542458E+04   -0.34003E-02   -0.33941E-02  8540   0.375E-02-0.338E-04
CGA:   7    -0.128554640315E+04   -0.97857E-03   -0.97600E-03  8540   0.112E-02-0.158E-04
CGA:   8    -0.128554673565E+04   -0.33250E-03   -0.32865E-03  8540   0.379E-03-0.303E-04
CGA:   9    -0.128554687502E+04   -0.13937E-03   -0.13709E-03  8540   0.165E-03-0.521E-04
CGA:  10    -0.128554692945E+04   -0.54428E-04   -0.53506E-04  8540   0.677E-04-0.248E-04
CGA:  11    -0.128554694665E+04   -0.17201E-04   -0.43874E-04  8540   0.159E-03-0.763E-04
CGA:  12    -0.128554698663E+04   -0.39983E-04   -0.39135E-04  8540   0.232E-04-0.465E-05
CGA:  13    -0.128554699476E+04   -0.81270E-05   -0.17298E-04  8540   0.631E-04-0.265E-04
CGA:  14    -0.128554701000E+04   -0.15239E-04   -0.14687E-04  8540   0.676E-05-0.271E-05
CGA:  15    -0.128554701269E+04   -0.26911E-05   -0.26661E-05  8540   0.295E-05-0.164E-05
  36 F= -.12855470E+04 E0= -.12855470E+04  d E =-.308041E-01  mag=   126.0000
       N       E                     dE             d eps       ncg     rms          ort
SDA:   1    -0.128465026463E+04    0.89675E+00    0.00000E+00  8540   0.241E+01 0.000E+00
CGA:   2    -0.128524876385E+04   -0.59850E+00   -0.59876E+00  8540   0.122E+01 0.213E-03
CGA:   3    -0.128550973072E+04   -0.26097E+00   -0.26103E+00  8540   0.218E+00 0.176E-03
CGA:   4    -0.128555332040E+04   -0.43590E-01   -0.43629E-01  8540   0.392E-01 0.185E-03
CGA:   5    -0.128556199210E+04   -0.86717E-02   -0.86815E-02  8540   0.959E-02 0.429E-04
CGA:   6    -0.128556423650E+04   -0.22444E-02   -0.22395E-02  8540   0.243E-02-0.337E-04
CGA:   7    -0.128556484986E+04   -0.61336E-03   -0.61831E-03  8540   0.721E-03 0.394E-04
CGA:   8    -0.128556505467E+04   -0.20481E-03   -0.20773E-03  8540   0.230E-03 0.320E-04
CGA:   9    -0.128556513593E+04   -0.81263E-04   -0.81412E-04  8540   0.858E-04 0.478E-05
CGA:  10    -0.128556516363E+04   -0.27698E-04   -0.28103E-04  8540   0.298E-04 0.853E-05
CGA:  11    -0.128556517669E+04   -0.13061E-04   -0.13107E-04  8540   0.148E-04-0.137E-05
CGA:  12    -0.128556518355E+04   -0.68623E-05   -0.10557E-04  8540   0.266E-04-0.973E-05
  37 F= -.12855652E+04 E0= -.12855652E+04  d E =-.181709E-01  mag=   126.0000
       N       E                     dE             d eps       ncg     rms          ort
SDA:   1    -0.125964328302E+04    0.25922E+02    0.00000E+00  8540   0.655E+02 0.000E+00
CGA:   2    -0.127739491502E+04   -0.17752E+02   -0.17764E+02  8540   0.338E+02 0.192E-01
CGA:   3    -0.128418004763E+04   -0.67851E+01   -0.67901E+01  8540   0.541E+01 0.366E-01
CGA:   4    -0.128527678338E+04   -0.10967E+01   -0.10978E+01  8540   0.102E+01 0.803E-02
CGA:   5    -0.128550274538E+04   -0.22596E+00   -0.22628E+00  8540   0.250E+00 0.188E-02
CGA:   6    -0.128556102142E+04   -0.58276E-01   -0.58240E-01  8540   0.653E-01-0.394E-03
CGA:   7    -0.128557818596E+04   -0.17165E-01   -0.17207E-01  8540   0.208E-01 0.514E-03
CGA:   8    -0.128558433922E+04   -0.61533E-02   -0.61823E-02  8540   0.707E-02 0.629E-03
CGA:   9    -0.128558681666E+04   -0.24774E-02   -0.24772E-02  8540   0.243E-02 0.879E-04
CGA:  10    -0.128558761004E+04   -0.79338E-03   -0.79500E-03  8540   0.754E-03 0.110E-03
CGA:  11    -0.128558789597E+04   -0.28593E-03   -0.28597E-03  8540   0.285E-03-0.221E-05
CGA:  12    -0.128558803352E+04   -0.13755E-03   -0.15103E-03  8540   0.240E-03-0.710E-04
CGA:  13    -0.128558812561E+04   -0.92084E-04   -0.10259E-03  8540   0.196E-03-0.489E-04
CGA:  14    -0.128558820239E+04   -0.76788E-04   -0.99793E-04  8540   0.180E-03-0.834E-04
CGA:  15    -0.128558824178E+04   -0.39383E-04   -0.39873E-04  8540   0.990E-04-0.440E-04
CGA:  16    -0.128558826862E+04   -0.26841E-04   -0.26480E-04  8540   0.465E-04-0.181E-04
CGA:  17    -0.128558828649E+04   -0.17867E-04   -0.22444E-04  8540   0.438E-04-0.211E-04
CGA:  18    -0.128558828690E+04   -0.41665E-06   -0.36032E-05  8540   0.325E-04 0.136E-04
  38 F= -.12855883E+04 E0= -.12855883E+04  d E =-.231034E-01  mag=   126.0000
       N       E                     dE             d eps       ncg     rms          ort
SDA:   1    -0.125777229611E+04    0.27816E+02    0.00000E+00  8540   0.814E+02 0.000E+00
CGA:   2    -0.127503201456E+04   -0.17260E+02   -0.17332E+02  8540   0.342E+02 0.373E-01
CGA:   3    -0.128317494565E+04   -0.81429E+01   -0.81490E+01  8540   0.780E+01 0.426E-01
CGA:   4    -0.128479336436E+04   -0.16184E+01   -0.16185E+01  8540   0.145E+01-0.956E-03
CGA:   5    -0.128510360093E+04   -0.31024E+00   -0.31037E+00  8540   0.345E+00-0.142E-04
CGA:   6    -0.128518539376E+04   -0.81793E-01   -0.81786E-01  8540   0.950E-01-0.186E-03
CGA:   7    -0.128520993934E+04   -0.24546E-01   -0.24596E-01  8540   0.285E-01 0.695E-03
CGA:   8    -0.128521801063E+04   -0.80713E-02   -0.81041E-02  8540   0.911E-02 0.747E-03
CGA:   9    -0.128522110946E+04   -0.30988E-02   -0.30967E-02  8540   0.318E-02 0.287E-03
CGA:  10    -0.128522212893E+04   -0.10195E-02   -0.10244E-02  8540   0.106E-02 0.426E-03
CGA:  11    -0.128522246208E+04   -0.33315E-03   -0.34380E-03  8540   0.358E-03 0.294E-03
CGA:  12    -0.128522258354E+04   -0.12146E-03   -0.12821E-03  8540   0.168E-03 0.163E-03
CGA:  13    -0.128522262850E+04   -0.44961E-04   -0.57199E-04  8540   0.104E-03 0.141E-03
CGA:  14    -0.128522265378E+04   -0.25279E-04   -0.28254E-04  8540   0.605E-04 0.670E-04
CGA:  15    -0.128522267268E+04   -0.18901E-04   -0.18921E-04  8540   0.472E-04 0.518E-04
CGA:  16    -0.128522268119E+04   -0.85098E-05   -0.11503E-04  8540   0.402E-04 0.431E-04
CGA:  17    -0.128522268924E+04   -0.80554E-05   -0.10165E-04  8540   0.345E-04 0.371E-04
  39 F= -.12852227E+04 E0= -.12852227E+04  d E =0.365598E+00  mag=   126.0000
       N       E                     dE             d eps       ncg     rms          ort
SDA:   1    -0.127903623193E+04    0.61864E+01    0.00000E+00  8540   0.203E+02 0.000E+00
CGA:   2    -0.128310292455E+04   -0.40667E+01   -0.40732E+01  8540   0.774E+01 0.197E-01
CGA:   3    -0.128500669329E+04   -0.19038E+01   -0.19041E+01  8540   0.199E+01 0.506E-03
CGA:   4    -0.128542806465E+04   -0.42137E+00   -0.42106E+00  8540   0.389E+00-0.423E-02
CGA:   5    -0.128550948923E+04   -0.81425E-01   -0.81378E-01  8540   0.881E-01-0.733E-03
CGA:   6    -0.128553025807E+04   -0.20769E-01   -0.20757E-01  8540   0.243E-01-0.266E-03
CGA:   7    -0.128553669298E+04   -0.64349E-02   -0.64294E-02  8540   0.737E-02-0.292E-03
CGA:   8    -0.128553877515E+04   -0.20822E-02   -0.20826E-02  8540   0.238E-02-0.167E-03
CGA:   9    -0.128553957571E+04   -0.80056E-03   -0.81200E-03  8540   0.901E-03-0.175E-03
CGA:  10    -0.128553985984E+04   -0.28412E-03   -0.28563E-03  8540   0.315E-03-0.279E-04
CGA:  11    -0.128553997423E+04   -0.11439E-03   -0.11852E-03  8540   0.116E-03-0.424E-04
CGA:  12    -0.128553950541E+04    0.46882E-03   -0.25382E-03  8540   0.245E-02-0.427E-03
CGA:  13    -0.128554002830E+04   -0.52289E-03   -0.55536E-03  8540   0.229E-03 0.104E-03
CGA:  14    -0.128554013193E+04   -0.10363E-03   -0.10041E-03  8540   0.751E-04-0.318E-04
CGA:  15    -0.128554014154E+04   -0.96165E-05   -0.16321E-04  8540   0.239E-04 0.253E-04
CGA:  16    -0.128554015584E+04   -0.14297E-04   -0.13779E-04  8540   0.165E-04-0.725E-05
CGA:  17    -0.128554017310E+04   -0.17258E-04    0.57696E-05  8540   0.131E-04-0.665E-05
CGA:  18    -0.128554017178E+04    0.13195E-05   -0.70609E-06  8540   0.945E-05 0.494E-05
  40 F= -.12855402E+04 E0= -.12855402E+04  d E =-.317483E+00  mag=   126.0000
       N       E                     dE             d eps       ncg     rms          ort
SDA:   1    -0.128462974715E+04    0.91043E+00    0.00000E+00  8540   0.278E+01 0.000E+00
CGA:   2    -0.128520941234E+04   -0.57967E+00   -0.58062E+00  8540   0.114E+01 0.145E-02
CGA:   3    -0.128548438573E+04   -0.27497E+00   -0.27486E+00  8540   0.274E+00-0.119E-02
CGA:   4    -0.128554158535E+04   -0.57200E-01   -0.56996E-01  8540   0.516E-01-0.933E-03
CGA:   5    -0.128555260282E+04   -0.11017E-01   -0.11018E-01  8540   0.120E-01-0.169E-04
CGA:   6    -0.128555537813E+04   -0.27753E-02   -0.27917E-02  8540   0.317E-02 0.874E-04
CGA:   7    -0.128555623574E+04   -0.85760E-03   -0.85180E-03  8540   0.979E-03-0.426E-04
CGA:   8    -0.128555654357E+04   -0.30783E-03   -0.29878E-03  8540   0.365E-03-0.102E-03
CGA:   9    -0.128555667500E+04   -0.13143E-03   -0.13261E-03  8540   0.196E-03-0.105E-03
CGA:  10    -0.128555672757E+04   -0.52568E-04   -0.51474E-04  8540   0.798E-04-0.426E-04
CGA:  11    -0.128555675433E+04   -0.26756E-04   -0.29971E-04  8540   0.526E-04-0.370E-04
CGA:  12    -0.128555678434E+04   -0.30016E-04    0.16500E-04  8540   0.266E-04-0.786E-05
CGA:  13    -0.128555680822E+04   -0.23878E-04    0.13826E-04  8540   0.115E-04-0.139E-05
CGA:  14    -0.128555681721E+04   -0.89926E-05    0.59956E-04  8540   0.517E-05-0.849E-06
  41 F= -.12855568E+04 E0= -.12855568E+04  d E =-.166454E-01  mag=   126.0000
       N       E                     dE             d eps       ncg     rms          ort
SDA:   1    -0.128525026642E+04    0.30654E+00    0.00000E+00  8540   0.855E+00 0.000E+00
CGA:   2    -0.128544294335E+04   -0.19268E+00   -0.19281E+00  8540   0.391E+00 0.316E-03
CGA:   3    -0.128553234719E+04   -0.89404E-01   -0.89431E-01  8540   0.833E-01 0.404E-04
CGA:   4    -0.128554934238E+04   -0.16995E-01   -0.16982E-01  8540   0.151E-01-0.843E-04
CGA:   5    -0.128555258251E+04   -0.32401E-02   -0.32515E-02  8540   0.358E-02 0.679E-04
CGA:   6    -0.128555340656E+04   -0.82405E-03   -0.83274E-03  8540   0.930E-03 0.647E-04
CGA:   7    -0.128555364958E+04   -0.24302E-03   -0.24455E-03  8540   0.274E-03 0.153E-04
CGA:   8    -0.128555374506E+04   -0.95485E-04   -0.94943E-04  8540   0.125E-03-0.468E-04
CGA:   9    -0.128555378631E+04   -0.41248E-04   -0.47806E-04  8540   0.959E-04-0.597E-04
CGA:  10    -0.128555380280E+04   -0.16487E-04   -0.15709E-04  8540   0.391E-04-0.179E-04
CGA:  11    -0.128555381485E+04   -0.12052E-04   -0.12582E-04  8540   0.251E-04-0.131E-04
CGA:  12    -0.128555362842E+04    0.18643E-03   -0.10072E-03  8540   0.844E-03-0.116E-03
CGA:  13    -0.128555382321E+04   -0.19480E-03   -0.19695E-03  8540   0.968E-04 0.497E-05
CGA:  14    -0.128555385933E+04   -0.36121E-04   -0.36393E-04  8540   0.157E-04 0.103E-05
CGA:  15    -0.128555386234E+04   -0.30100E-05   -0.44698E-05  8540   0.375E-05 0.433E-05
  42 F= -.12855539E+04 E0= -.12855539E+04  d E =0.295487E-02  mag=   126.0000
       N       E                     dE             d eps       ncg     rms          ort
SDA:   1    -0.128492224637E+04    0.63161E+00    0.00000E+00  8540   0.162E+01 0.000E+00
CGA:   2    -0.128532670243E+04   -0.40446E+00   -0.40456E+00  8540   0.802E+00-0.355E-03
CGA:   3    -0.128549590714E+04   -0.16920E+00   -0.16936E+00  8540   0.145E+00 0.361E-03
CGA:   4    -0.128552534377E+04   -0.29437E-01   -0.29507E-01  8540   0.265E-01 0.197E-03
CGA:   5    -0.128553105432E+04   -0.57106E-02   -0.57432E-02  8540   0.639E-02 0.959E-04
CGA:   6    -0.128553252654E+04   -0.14722E-02   -0.14907E-02  8540   0.166E-02 0.649E-04
CGA:   7    -0.128553293900E+04   -0.41246E-03   -0.42321E-03  8540   0.484E-03 0.434E-04
CGA:   8    -0.128553308762E+04   -0.14861E-03   -0.14892E-03  8540   0.166E-03 0.151E-05
CGA:   9    -0.128553314562E+04   -0.58003E-04   -0.57265E-04  8540   0.588E-04-0.556E-05
CGA:  10    -0.128553315991E+04   -0.14292E-04   -0.15932E-04  8540   0.164E-04 0.861E-05
CGA:  11    -0.128553316521E+04   -0.52957E-05   -0.56863E-05  8540   0.547E-05 0.244E-05
  43 F= -.12855332E+04 E0= -.12855332E+04  d E =0.206971E-01  mag=   126.0000
       N       E                     dE             d eps       ncg     rms          ort
SDA:   1    -0.128486417481E+04    0.66899E+00    0.00000E+00  8540   0.161E+01 0.000E+00
CGA:   2    -0.128530494377E+04   -0.44077E+00   -0.44075E+00  8540   0.823E+00-0.705E-03
CGA:   3    -0.128546748002E+04   -0.16254E+00   -0.16266E+00  8540   0.134E+00 0.438E-03
CGA:   4    -0.128549458944E+04   -0.27109E-01   -0.27194E-01  8540   0.251E-01 0.356E-03
CGA:   5    -0.128550003605E+04   -0.54466E-02   -0.54697E-02  8540   0.598E-02 0.107E-03
CGA:   6    -0.128550140356E+04   -0.13675E-02   -0.13778E-02  8540   0.153E-02 0.556E-04
CGA:   7    -0.128550178896E+04   -0.38540E-03   -0.39163E-03  8540   0.457E-03 0.416E-04
CGA:   8    -0.128550192932E+04   -0.14036E-03   -0.14142E-03  8540   0.159E-03 0.111E-04
CGA:   9    -0.128550198145E+04   -0.52131E-04   -0.52708E-04  8540   0.519E-04 0.864E-05
CGA:  10    -0.128550199544E+04   -0.13992E-04   -0.15187E-04  8540   0.151E-04 0.109E-04
CGA:  11    -0.128550200026E+04   -0.48162E-05   -0.52275E-05  8540   0.557E-05 0.427E-05
  44 F= -.12855020E+04 E0= -.12855020E+04  d E =0.311649E-01  mag=   126.0000
       N       E                     dE             d eps       ncg     rms          ort
SDA:   1    -0.127440645204E+04    0.11096E+02    0.00000E+00  8540   0.275E+02 0.000E+00
CGA:   2    -0.128199490328E+04   -0.75885E+01   -0.75898E+01  8540   0.142E+02-0.234E-02
CGA:   3    -0.128478408554E+04   -0.27892E+01   -0.27905E+01  8540   0.226E+01 0.585E-02
CGA:   4    -0.128524212146E+04   -0.45804E+00   -0.45865E+00  8540   0.429E+00 0.369E-02
CGA:   5    -0.128533610775E+04   -0.93986E-01   -0.94146E-01  8540   0.103E+00 0.104E-02
CGA:   6    -0.128535990447E+04   -0.23797E-01   -0.23823E-01  8540   0.265E-01 0.202E-03
CGA:   7    -0.128536681505E+04   -0.69106E-02   -0.69333E-02  8540   0.817E-02 0.277E-03
CGA:   8    -0.128536928326E+04   -0.24682E-02   -0.24759E-02  8540   0.279E-02 0.201E-03
CGA:   9    -0.128537023343E+04   -0.95016E-03   -0.95038E-03  8540   0.913E-03 0.835E-04
CGA:  10    -0.128537052468E+04   -0.29126E-03   -0.29300E-03  8540   0.266E-03 0.725E-04
CGA:  11    -0.128537061770E+04   -0.93015E-04   -0.93277E-04  8540   0.856E-04 0.260E-04
CGA:  12    -0.128537066180E+04   -0.44105E-04   -0.47446E-04  8540   0.658E-04-0.198E-04
CGA:  13    -0.128537068635E+04   -0.24548E-04   -0.34531E-04  8540   0.750E-04-0.297E-04
CGA:  14    -0.128537069438E+04   -0.80302E-05   -0.31327E-04  8540   0.951E-04-0.584E-04
CGA:  15    -0.128537071599E+04   -0.21609E-04   -0.24544E-04  8540   0.233E-04 0.242E-04
CGA:  16    -0.128537073960E+04   -0.23605E-04    0.66836E-04  8540   0.121E-04 0.528E-05
CGA:  17    -0.128537074021E+04   -0.61316E-06   -0.25507E-05  8540   0.653E-05 0.960E-05
  45 F= -.12853707E+04 E0= -.12853707E+04  d E =0.131260E+00  mag=   126.0000
       N       E                     dE             d eps       ncg     rms          ort
SDA:   1    -0.128156901673E+04    0.38017E+01    0.00000E+00  8540   0.101E+02 0.000E+00
CGA:   2    -0.128401640391E+04   -0.24474E+01   -0.24497E+01  8540   0.489E+01 0.516E-02
CGA:   3    -0.128508639884E+04   -0.10700E+01   -0.10699E+01  8540   0.950E+00-0.807E-03
CGA:   4    -0.128527717349E+04   -0.19077E+00   -0.19083E+00  8540   0.173E+00 0.173E-03
CGA:   5    -0.128531534434E+04   -0.38171E-01   -0.38263E-01  8540   0.415E-01 0.744E-03
CGA:   6    -0.128532493595E+04   -0.95916E-02   -0.96185E-02  8540   0.107E-01 0.265E-03
CGA:   7    -0.128532773099E+04   -0.27950E-02   -0.28045E-02  8540   0.317E-02 0.147E-03
CGA:   8    -0.128532867430E+04   -0.94331E-03   -0.94405E-03  8540   0.105E-02 0.259E-04
CGA:   9    -0.128532902882E+04   -0.35452E-03   -0.35430E-03  8540   0.370E-03 0.133E-04
CGA:  10    -0.128532912563E+04   -0.96809E-04   -0.10110E-03  8540   0.111E-03 0.839E-04
CGA:  11    -0.128532915497E+04   -0.29349E-04   -0.32841E-04  8540   0.406E-04 0.460E-04
CGA:  12    -0.128532916551E+04   -0.10540E-04   -0.12863E-04  8540   0.195E-04 0.256E-04
CGA:  13    -0.128532917037E+04   -0.48515E-05   -0.52880E-05  8540   0.105E-04 0.114E-04
  46 F= -.12853292E+04 E0= -.12853292E+04  d E =0.415698E-01  mag=   126.0000
       N       E                     dE             d eps       ncg     rms          ort
SDA:   1    -0.128430854555E+04    0.10206E+01    0.00000E+00  8540   0.285E+01 0.000E+00
CGA:   2    -0.128499867946E+04   -0.69013E+00   -0.69024E+00  8540   0.138E+01 0.365E-03
CGA:   3    -0.128529456208E+04   -0.29588E+00   -0.29585E+00  8540   0.264E+00-0.531E-03
CGA:   4    -0.128534791785E+04   -0.53356E-01   -0.53372E-01  8540   0.485E-01 0.161E-03
CGA:   5    -0.128535843194E+04   -0.10514E-01   -0.10513E-01  8540   0.116E-01-0.277E-04
CGA:   6    -0.128536118949E+04   -0.27575E-02   -0.27491E-02  8540   0.311E-02-0.163E-03
CGA:   7    -0.128536200008E+04   -0.81059E-03   -0.80907E-03  8540   0.943E-03-0.683E-04
CGA:   8    -0.128536224444E+04   -0.24436E-03   -0.24577E-03  8540   0.264E-03 0.746E-04
CGA:   9    -0.128536232433E+04   -0.79889E-04   -0.80046E-04  8540   0.788E-04 0.497E-04
CGA:  10    -0.128536235135E+04   -0.27020E-04   -0.26955E-04  8540   0.278E-04 0.193E-04
CGA:  11    -0.128536235836E+04   -0.70034E-05   -0.78398E-05  8540   0.106E-04 0.143E-04
  47 F= -.12853624E+04 E0= -.12853624E+04  d E =-.331880E-01  mag=   126.0000
       N       E                     dE             d eps       ncg     rms          ort
SDA:   1    -0.128460278958E+04    0.75956E+00    0.00000E+00  8540   0.211E+01 0.000E+00
CGA:   2    -0.128511485439E+04   -0.51206E+00   -0.51218E+00  8540   0.101E+01 0.206E-02
CGA:   3    -0.128533513539E+04   -0.22028E+00   -0.22026E+00  8540   0.199E+00-0.559E-03
CGA:   4    -0.128537516744E+04   -0.40032E-01   -0.40036E-01  8540   0.362E-01 0.266E-04
CGA:   5    -0.128538313329E+04   -0.79659E-02   -0.79670E-02  8540   0.859E-02 0.130E-04
CGA:   6    -0.128538518015E+04   -0.20469E-02   -0.20422E-02  8540   0.232E-02-0.158E-03
CGA:   7    -0.128538578624E+04   -0.60609E-03   -0.60611E-03  8540   0.711E-03-0.623E-04
CGA:   8    -0.128538598291E+04   -0.19667E-03   -0.19650E-03  8540   0.218E-03 0.909E-05
CGA:   9    -0.128538605831E+04   -0.75401E-04   -0.75958E-04  8540   0.809E-04-0.733E-05
CGA:  10    -0.128538608817E+04   -0.29865E-04   -0.32320E-04  8540   0.418E-04-0.173E-04
CGA:  11    -0.128538608011E+04    0.80676E-05   -0.29691E-04  8540   0.157E-03-0.605E-04
CGA:  12    -0.128538611037E+04   -0.30265E-04   -0.31781E-04  8540   0.187E-04 0.142E-04
CGA:  13    -0.128538611887E+04   -0.85013E-05   -0.87586E-05  8540   0.821E-05-0.206E-05
  48 F= -.12853861E+04 E0= -.12853861E+04  d E =-.237605E-01  mag=   126.0000
       N       E                     dE             d eps       ncg     rms          ort
SDA:   1    -0.128318082831E+04    0.22053E+01    0.00000E+00  8540   0.582E+01 0.000E+00
CGA:   2    -0.128465112780E+04   -0.14703E+01   -0.14707E+01  8540   0.287E+01 0.387E-02
CGA:   3    -0.128525983830E+04   -0.60871E+00   -0.60867E+00  8540   0.529E+00-0.991E-03
CGA:   4    -0.128536639934E+04   -0.10656E+00   -0.10655E+00  8540   0.950E-01-0.174E-03
CGA:   5    -0.128538748008E+04   -0.21081E-01   -0.21101E-01  8540   0.226E-01 0.239E-03
CGA:   6    -0.128539281479E+04   -0.53347E-02   -0.53323E-02  8540   0.587E-02-0.457E-04
CGA:   7    -0.128539438099E+04   -0.15662E-02   -0.15640E-02  8540   0.182E-02-0.921E-04
CGA:   8    -0.128539491821E+04   -0.53722E-03   -0.53765E-03  8540   0.621E-03-0.425E-04
CGA:   9    -0.128539513291E+04   -0.21470E-03   -0.21916E-03  8540   0.247E-03-0.634E-04
CGA:  10    -0.128539521421E+04   -0.81302E-04   -0.85249E-04  8540   0.105E-03-0.441E-04
CGA:  11    -0.128539523199E+04   -0.17785E-04   -0.61914E-04  8540   0.219E-03-0.106E-03
CGA:  12    -0.128539528413E+04   -0.52139E-04   -0.51527E-04  8540   0.331E-04-0.733E-05
CGA:  13    -0.128539529419E+04   -0.10059E-04   -0.23592E-04  8540   0.727E-04-0.321E-04
CGA:  14    -0.128539531396E+04   -0.19763E-04   -0.18940E-04  8540   0.122E-04-0.108E-04
CGA:  15    -0.128539527660E+04    0.37357E-04   -0.16605E-04  8540   0.257E-03-0.426E-04
CGA:  16    -0.128539532519E+04   -0.48596E-04   -0.49793E-04  8540   0.213E-04 0.605E-05
CGA:  17    -0.128539528097E+04    0.44228E-04   -0.29571E-04  8540   0.321E-03-0.761E-04
CGA:  18    -0.128539531873E+04   -0.37765E-04   -0.54210E-04  8540   0.437E-04 0.622E-04
CGA:  19    -0.128539533747E+04   -0.18742E-04   -0.18057E-04  8540   0.969E-05-0.912E-05
CGA:  20    -0.128539513666E+04    0.20082E-03   -0.11022E-03  8540   0.129E-02-0.966E-04
CGA:  21    -0.128539530841E+04   -0.17175E-03   -0.20741E-03  8540   0.692E-04 0.641E-04
CGA:  22    -0.128539534984E+04   -0.41433E-04   -0.33067E-04  8540   0.257E-04-0.303E-04
CGA:  23    -0.128539534644E+04    0.33997E-05   -0.17179E-05  8540   0.140E-04 0.855E-05
  49 F= -.12853953E+04 E0= -.12853953E+04  d E =-.922757E-02  mag=   126.0000
       N       E                     dE             d eps       ncg     rms          ort
SDA:   1    -0.122774000124E+04    0.57655E+02    0.00000E+00  8540   0.195E+03 0.000E+00
CGA:   2    -0.126075887257E+04   -0.33019E+02   -0.33835E+02  8540   0.573E+02 0.665E+02
CGA:   3    -0.127707147635E+04   -0.16313E+02   -0.17612E+02  8540   0.248E+02 0.492E+01
CGA:   4    -0.128208876342E+04   -0.50173E+01   -0.51998E+01  8540   0.752E+01 0.116E+01
CGA:   5    -0.128348671884E+04   -0.13980E+01   -0.14274E+01  8540   0.223E+01 0.250E+00
CGA:   6    -0.128392719752E+04   -0.44048E+00   -0.44428E+00  8540   0.793E+00 0.997E-02
CGA:   7    -0.128410376233E+04   -0.17656E+00   -0.17680E+00  8540   0.302E+00 0.831E-03
CGA:   8    -0.128417137646E+04   -0.67614E-01   -0.67556E-01  8540   0.120E+00 0.163E-03
CGA:   9    -0.128419824991E+04   -0.26873E-01   -0.27206E-01  8540   0.437E-01 0.119E-02
CGA:  10    -0.128420967689E+04   -0.11427E-01   -0.11442E-01  8540   0.185E-01 0.454E-04
CGA:  11    -0.128421463062E+04   -0.49537E-02   -0.48414E-02  8540   0.830E-02-0.481E-03
CGA:  12    -0.128421666215E+04   -0.20315E-02   -0.21089E-02  8540   0.311E-02 0.347E-03
CGA:  13    -0.128421742674E+04   -0.76459E-03   -0.82018E-03  8540   0.125E-02 0.255E-03
CGA:  14    -0.128421782384E+04   -0.39710E-03   -0.38741E-03  8540   0.544E-03-0.564E-04
CGA:  15    -0.128421794118E+04   -0.11734E-03   -0.13660E-03  8540   0.244E-03 0.102E-03
CGA:  16    -0.128421797431E+04   -0.33122E-04   -0.58696E-04  8540   0.116E-03 0.107E-03
CGA:  17    -0.128421799238E+04   -0.18078E-04   -0.33597E-04  8540   0.576E-04 0.678E-04
CGA:  18    -0.128421800912E+04   -0.16735E-04   -0.18827E-04  8540   0.266E-04 0.227E-04
CGA:  19    -0.128421800423E+04    0.48927E-05   -0.42898E-05  8540   0.201E-04 0.307E-04
  50 F= -.12842180E+04 E0= -.12842180E+04  d E =0.117734E+01  mag=   126.0000
       N       E                     dE             d eps       ncg     rms          ort
SDA:   1    -0.125592593767E+04    0.28292E+02    0.00000E+00  8540   0.105E+03 0.000E+00
CGA:   2    -0.127447693822E+04   -0.18551E+02   -0.19368E+02  8540   0.329E+02-0.268E+00
CGA:   3    -0.128297238474E+04   -0.84954E+01   -0.85060E+01  8540   0.840E+01 0.163E+00
CGA:   4    -0.128474303443E+04   -0.17706E+01   -0.17768E+01  8540   0.167E+01 0.200E-01
CGA:   5    -0.128510758715E+04   -0.36455E+00   -0.36544E+00  8540   0.406E+00 0.176E-02
CGA:   6    -0.128520503402E+04   -0.97447E-01   -0.97275E-01  8540   0.111E+00-0.145E-02
CGA:   7    -0.128523452599E+04   -0.29492E-01   -0.29525E-01  8540   0.354E-01 0.412E-03
CGA:   8    -0.128524483987E+04   -0.10314E-01   -0.10339E-01  8540   0.121E-01 0.499E-03
CGA:   9    -0.128524887355E+04   -0.40337E-02   -0.40342E-02  8540   0.467E-02 0.490E-04
CGA:  10    -0.128525026419E+04   -0.13906E-02   -0.14088E-02  8540   0.148E-02 0.459E-03
CGA:  11    -0.128525078680E+04   -0.52261E-03   -0.52413E-03  8540   0.492E-03 0.952E-04
CGA:  12    -0.128525088755E+04   -0.10075E-03   -0.12160E-03  8540   0.175E-03 0.197E-03
CGA:  13    -0.128525091689E+04   -0.29342E-04   -0.47558E-04  8540   0.926E-04 0.132E-03
CGA:  14    -0.128525093356E+04   -0.16669E-04   -0.21921E-04  8540   0.539E-04 0.590E-04
CGA:  15    -0.128525093069E+04    0.28679E-05   -0.67248E-05  8540   0.454E-04 0.488E-04
  51 F= -.12852509E+04 E0= -.12852509E+04  d E =-.103293E+01  mag=   126.0000
       N       E                     dE             d eps       ncg     rms          ort
SDA:   1    -0.128484079224E+04    0.41014E+00    0.00000E+00  8540   0.133E+01 0.000E+00
CGA:   2    -0.128512533795E+04   -0.28455E+00   -0.28488E+00  8540   0.561E+00 0.237E-02
CGA:   3    -0.128525917084E+04   -0.13383E+00   -0.13380E+00  8540   0.136E+00-0.748E-03
CGA:   4    -0.128528688004E+04   -0.27709E-01   -0.27693E-01  8540   0.244E-01-0.199E-03
CGA:   5    -0.128529226033E+04   -0.53803E-02   -0.53808E-02  8540   0.572E-02-0.266E-05
CGA:   6    -0.128529363627E+04   -0.13759E-02   -0.13694E-02  8540   0.156E-02-0.139E-03
CGA:   7    -0.128529403976E+04   -0.40348E-03   -0.40327E-03  8540   0.468E-03-0.113E-04
CGA:   8    -0.128529418150E+04   -0.14174E-03   -0.14263E-03  8540   0.168E-03-0.378E-04
CGA:   9    -0.128529423957E+04   -0.58068E-04   -0.78358E-04  8540   0.172E-03-0.910E-04
CGA:  10    -0.128529427237E+04   -0.32801E-04   -0.33764E-04  8540   0.247E-04 0.965E-05
CGA:  11    -0.128529428765E+04   -0.15281E-04    0.64094E-03  8540   0.713E-05 0.457E-05
CGA:  12    -0.128529429615E+04   -0.85007E-05    0.16837E-05  8540   0.392E-05 0.379E-05
  52 F= -.12852943E+04 E0= -.12852943E+04  d E =-.433655E-01  mag=   126.0000
       N       E                     dE             d eps       ncg     rms          ort
SDA:   1    -0.128302042346E+04    0.22739E+01    0.00000E+00  8540   0.668E+01 0.000E+00
CGA:   2    -0.128447996060E+04   -0.14595E+01   -0.14610E+01  8540   0.288E+01 0.972E-02
CGA:   3    -0.128515831877E+04   -0.67836E+00   -0.67830E+00  8540   0.681E+00-0.193E-02
CGA:   4    -0.128529758338E+04   -0.13926E+00   -0.13916E+00  8540   0.121E+00-0.138E-02
CGA:   5    -0.128532403955E+04   -0.26456E-01   -0.26461E-01  8540   0.283E-01 0.278E-04
CGA:   6    -0.128533069728E+04   -0.66577E-02   -0.66538E-02  8540   0.751E-02-0.102E-03
CGA:   7    -0.128533266124E+04   -0.19640E-02   -0.19651E-02  8540   0.221E-02 0.852E-04
CGA:   8    -0.128533330875E+04   -0.64751E-03   -0.64754E-03  8540   0.707E-03-0.330E-05
CGA:   9    -0.128533356492E+04   -0.25617E-03   -0.26547E-03  8540   0.323E-03-0.928E-04
CGA:  10    -0.128533364935E+04   -0.84430E-04   -0.84046E-04  8540   0.101E-03 0.205E-04
CGA:  11    -0.128533368481E+04   -0.35462E-04   -0.35396E-04  8540   0.346E-04 0.122E-05
CGA:  12    -0.128533369923E+04   -0.14418E-04   -0.21168E-04  8540   0.467E-04-0.211E-04
CGA:  13    -0.128533371076E+04   -0.11536E-04   -0.11669E-04  8540   0.749E-05 0.261E-05
CGA:  14    -0.128533371454E+04   -0.37748E-05   -0.37192E-05  8540   0.383E-05 0.307E-06
  53 F= -.12853337E+04 E0= -.12853337E+04  d E =-.394184E-01  mag=   126.0000
       N       E                     dE             d eps       ncg     rms          ort
SDA:   1    -0.128505707388E+04    0.27664E+00    0.00000E+00  8540   0.802E+00 0.000E+00
CGA:   2    -0.128524901728E+04   -0.19194E+00   -0.19204E+00  8540   0.381E+00 0.109E-02
CGA:   3    -0.128533319385E+04   -0.84177E-01   -0.84128E-01  8540   0.767E-01-0.670E-03
CGA:   4    -0.128534883908E+04   -0.15645E-01   -0.15610E-01  8540   0.135E-01-0.386E-03
CGA:   5    -0.128535178041E+04   -0.29413E-02   -0.29369E-02  8540   0.319E-02-0.630E-04
CGA:   6    -0.128535254784E+04   -0.76743E-03   -0.76411E-03  8540   0.880E-03-0.678E-04
CGA:   7    -0.128535277073E+04   -0.22289E-03   -0.22284E-03  8540   0.258E-03-0.198E-05
CGA:   8    -0.128535284800E+04   -0.77267E-04   -0.77384E-04  8540   0.878E-04-0.834E-05
CGA:   9    -0.128535288039E+04   -0.32394E-04   -0.44505E-04  8540   0.919E-04-0.512E-04
CGA:  10    -0.128535289895E+04   -0.18559E-04   -0.18828E-04  8540   0.119E-04 0.284E-05
CGA:  11    -0.128535290709E+04   -0.81406E-05    0.14266E-04  8540   0.304E-05 0.152E-05
  54 F= -.12853529E+04 E0= -.12853529E+04  d E =-.191926E-01  mag=   126.0000
       N       E                     dE             d eps       ncg     rms          ort
SDA:   1    -0.127926192759E+04    0.60910E+01    0.00000E+00  8540   0.160E+02 0.000E+00
CGA:   2    -0.128334935687E+04   -0.40874E+01   -0.40883E+01  8540   0.785E+01 0.102E-01
CGA:   3    -0.128500502063E+04   -0.16557E+01   -0.16556E+01  8540   0.146E+01-0.131E-02
[...]
CGA:  17    -0.128585311540E+04   -0.76897E-05    0.46951E-06  8540   0.211E-05 0.116E-05
  85 F= -.12858531E+04 E0= -.12858531E+04  d E =0.338718E-03  mag=   126.0000
       N       E                     dE             d eps       ncg     rms          ort
SDA:   1    -0.126142461215E+04    0.24428E+02    0.00000E+00  8540   0.677E+02 0.000E+00
CGA:   2    -0.127708441414E+04   -0.15660E+02   -0.15686E+02  8540   0.308E+02 0.731E-01
CGA:   3    -0.128394352542E+04   -0.68591E+01   -0.68604E+01  8540   0.628E+01 0.236E-01
CGA:   4    -0.128524050508E+04   -0.12970E+01   -0.12986E+01  8540   0.117E+01 0.107E-01
CGA:   5    -0.128549567460E+04   -0.25517E+00   -0.25514E+00  8540   0.287E+00-0.111E-02
CGA:   6    -0.128556379415E+04   -0.68120E-01   -0.67834E-01  8540   0.813E-01-0.449E-02
CGA:   7    -0.128558455654E+04   -0.20762E-01   -0.20772E-01  8540   0.248E-01 0.226E-03
CGA:   8    -0.128559104907E+04   -0.64925E-02   -0.65593E-02  8540   0.722E-02 0.206E-02
CGA:   9    -0.128559334106E+04   -0.22920E-02   -0.22935E-02  8540   0.230E-02 0.114E-02
CGA:  10    -0.128559414457E+04   -0.80351E-03   -0.80075E-03  8540   0.831E-03 0.447E-03
CGA:  11    -0.128559440449E+04   -0.25992E-03   -0.26726E-03  8540   0.289E-03 0.285E-03
CGA:  12    -0.128559444853E+04   -0.44040E-04   -0.69251E-04  8540   0.139E-03 0.219E-03
CGA:  13    -0.128559445180E+04   -0.32655E-05   -0.19352E-04  8540   0.902E-04 0.108E-03
CGA:  14    -0.128559444910E+04    0.26928E-05   -0.10525E-04  8540   0.734E-04 0.806E-04
  86 F= -.12855944E+04 E0= -.12855944E+04  d E =0.258666E+00  mag=   126.0000
       N       E                     dE             d eps       ncg     rms          ort
SDA:   1    -0.127965558493E+04    0.59389E+01    0.00000E+00  8540   0.180E+02 0.000E+00
CGA:   2    -0.128353782317E+04   -0.38822E+01   -0.38848E+01  8540   0.771E+01 0.270E-01
CGA:   3    -0.128535945509E+04   -0.18216E+01   -0.18217E+01  8540   0.176E+01-0.212E-02
CGA:   4    -0.128572213694E+04   -0.36268E+00   -0.36240E+00  8540   0.331E+00-0.560E-02
CGA:   5    -0.128579267766E+04   -0.70541E-01   -0.70596E-01  8540   0.794E-01 0.114E-02
CGA:   6    -0.128581050778E+04   -0.17830E-01   -0.17886E-01  8540   0.206E-01 0.181E-02
CGA:   7    -0.128581598953E+04   -0.54817E-02   -0.54788E-02  8540   0.631E-02 0.468E-03
CGA:   8    -0.128581798972E+04   -0.20002E-02   -0.20420E-02  8540   0.251E-02-0.672E-03
CGA:   9    -0.128581878294E+04   -0.79322E-03   -0.89996E-03  8540   0.141E-02-0.739E-03
CGA:  10    -0.128581903761E+04   -0.25467E-03   -0.25501E-03  8540   0.432E-03 0.442E-04
CGA:  11    -0.128581913277E+04   -0.95161E-04   -0.99131E-04  8540   0.149E-03 0.951E-04
CGA:  12    -0.128581919363E+04   -0.60858E-04   -0.64322E-04  8540   0.920E-04-0.376E-04
CGA:  13    -0.128581923529E+04   -0.41658E-04    0.67204E-04  8540   0.528E-04 0.105E-04
CGA:  14    -0.128581927821E+04   -0.42918E-04    0.21194E-04  8540   0.254E-04 0.531E-05
CGA:  15    -0.128581930719E+04   -0.28985E-04    0.39407E-05  8540   0.122E-04 0.512E-05
CGA:  16    -0.128581932141E+04   -0.14224E-04    0.23537E-05  8540   0.622E-05 0.242E-05
CGA:  17    -0.128581932769E+04   -0.62749E-05    0.17129E-05  8540   0.311E-05 0.145E-05
  87 F= -.12858193E+04 E0= -.12858193E+04  d E =-.224879E+00  mag=   126.0000
       N       E                     dE             d eps       ncg     rms          ort
SDA:   1    -0.128486961043E+04    0.94971E+00    0.00000E+00  8540   0.264E+01 0.000E+00
CGA:   2    -0.128547961033E+04   -0.61000E+00   -0.61020E+00  8540   0.122E+01 0.419E-02
CGA:   3    -0.128575427004E+04   -0.27466E+00   -0.27459E+00  8540   0.250E+00-0.222E-02
CGA:   4    -0.128580593657E+04   -0.51667E-01   -0.51518E-01  8540   0.470E-01-0.267E-02
CGA:   5    -0.128581569531E+04   -0.97587E-02   -0.97928E-02  8540   0.109E-01 0.679E-03
CGA:   6    -0.128581804417E+04   -0.23489E-02   -0.23892E-02  8540   0.267E-02 0.954E-03
CGA:   7    -0.128581881536E+04   -0.77119E-03   -0.77014E-03  8540   0.855E-03 0.105E-03
CGA:   8    -0.128581903914E+04   -0.22378E-03   -0.53569E-03  8540   0.184E-02-0.900E-03
CGA:   9    -0.128581937114E+04   -0.33200E-03   -0.33691E-03  8540   0.202E-03 0.543E-04
CGA:  10    -0.128581943221E+04   -0.61067E-04   -0.61001E-04  8540   0.467E-04 0.259E-05
CGA:  11    -0.128581947674E+04   -0.44539E-04    0.85570E-05  8540   0.128E-04 0.973E-05
CGA:  12    -0.128581951098E+04   -0.34237E-04    0.67090E-06  8540   0.535E-05 0.592E-05
CGA:  13    -0.128581954055E+04   -0.29572E-04    0.17633E-06  8540   0.352E-05 0.379E-05
CGA:  14    -0.128581955283E+04   -0.12277E-04    0.86932E-07  8540   0.190E-05 0.197E-05
CGA:  15    -0.128581956393E+04   -0.11097E-04    0.26147E-07  8540   0.144E-05 0.155E-05
CGA:  16    -0.128581957485E+04   -0.10922E-04    0.14903E-07  8540   0.115E-05 0.125E-05
CGA:  17    -0.128581958381E+04   -0.89545E-05    0.11482E-07  8540   0.928E-06 0.102E-05
  88 F= -.12858196E+04 E0= -.12858196E+04  d E =-.256117E-03  mag=   126.0000
       N       E                     dE             d eps       ncg     rms          ort
SDA:   1    -0.128164010154E+04    0.41795E+01    0.00000E+00  8540   0.107E+02 0.000E+00
CGA:   2    -0.128438738564E+04   -0.27473E+01   -0.27475E+01  8540   0.537E+01 0.905E-02
CGA:   3    -0.128551431580E+04   -0.11269E+01   -0.11268E+01  8540   0.941E+00-0.446E-02
CGA:   4    -0.128570587087E+04   -0.19156E+00   -0.19132E+00  8540   0.177E+00-0.377E-02
CGA:   5    -0.128574332632E+04   -0.37455E-01   -0.37538E-01  8540   0.420E-01 0.163E-02
CGA:   6    -0.128575282971E+04   -0.95034E-02   -0.95637E-02  8540   0.106E-01 0.170E-02
CGA:   7    -0.128575574469E+04   -0.29150E-02   -0.29151E-02  8540   0.338E-02-0.189E-04
CGA:   8    -0.128575692203E+04   -0.11773E-02   -0.13038E-02  8540   0.207E-02-0.992E-03
CGA:   9    -0.128575740510E+04   -0.48308E-03   -0.58246E-03  8540   0.112E-02-0.752E-03
CGA:  10    -0.128575760216E+04   -0.19706E-03   -0.19731E-03  8540   0.381E-03-0.519E-04
CGA:  11    -0.128575772491E+04   -0.12276E-03   -0.12756E-03  8540   0.208E-03-0.613E-04
CGA:  12    -0.128575783611E+04   -0.11119E-03    0.15798E-03  8540   0.971E-04 0.219E-04
CGA:  13    -0.128575792873E+04   -0.92624E-04    0.26444E-04  8540   0.450E-04 0.207E-04
CGA:  14    -0.128575798097E+04   -0.52233E-04    0.10324E-04  8540   0.181E-04 0.107E-04
CGA:  15    -0.128575800236E+04   -0.21392E-04    0.42667E-05  8540   0.703E-05 0.463E-05
CGA:  16    -0.128575801299E+04   -0.10631E-04    0.10347E-05  8540   0.234E-05 0.137E-05
CGA:  17    -0.128575801925E+04   -0.62636E-05    0.12589E-06  8540   0.960E-06 0.555E-06
  89 F= -.12857580E+04 E0= -.12857580E+04  d E =0.615646E-01  mag=   126.0000
       N       E                     dE             d eps       ncg     rms          ort
SDA:   1    -0.126939458531E+04    0.16363E+02    0.00000E+00  8540   0.469E+02 0.000E+00
CGA:   2    -0.127964473481E+04   -0.10250E+02   -0.10266E+02  8540   0.203E+02 0.974E-01
CGA:   3    -0.128437573939E+04   -0.47310E+01   -0.47313E+01  8540   0.450E+01 0.943E-02
CGA:   4    -0.128530236573E+04   -0.92663E+00   -0.92730E+00  8540   0.839E+00 0.691E-02
CGA:   5    -0.128548481069E+04   -0.18244E+00   -0.18244E+00  8540   0.204E+00-0.663E-03
CGA:   6    -0.128553280665E+04   -0.47996E-01   -0.47884E-01  8540   0.567E-01-0.370E-02
CGA:   7    -0.128554715485E+04   -0.14348E-01   -0.14350E-01  8540   0.169E-01 0.232E-03
CGA:   8    -0.128555151320E+04   -0.43584E-02   -0.43693E-02  8540   0.474E-02 0.158E-02
CGA:   9    -0.128555298884E+04   -0.14756E-02   -0.14587E-02  8540   0.155E-02 0.951E-03
CGA:  10    -0.128555351623E+04   -0.52739E-03   -0.52060E-03  8540   0.581E-03 0.462E-03
CGA:  11    -0.128555369643E+04   -0.18020E-03   -0.18554E-03  8540   0.225E-03 0.282E-03
CGA:  12    -0.128555373049E+04   -0.34061E-04   -0.54376E-04  8540   0.115E-03 0.200E-03
CGA:  13    -0.128555373096E+04   -0.47299E-06   -0.13694E-04  8540   0.809E-04 0.941E-04
  90 F= -.12855537E+04 E0= -.12855537E+04  d E =0.204288E+00  mag=   126.0000
       N       E                     dE             d eps       ncg     rms          ort
SDA:   1    -0.127748649850E+04    0.80672E+01    0.00000E+00  8540   0.244E+02 0.000E+00
CGA:   2    -0.128263789110E+04   -0.51514E+01   -0.51555E+01  8540   0.101E+02 0.626E-01
CGA:   3    -0.128506684334E+04   -0.24290E+01   -0.24290E+01  8540   0.241E+01-0.255E-02
CGA:   4    -0.128556000277E+04   -0.49316E+00   -0.49296E+00  8540   0.455E+00-0.613E-02
CGA:   5    -0.128565713123E+04   -0.97128E-01   -0.97152E-01  8540   0.109E+00 0.711E-03
CGA:   6    -0.128568174139E+04   -0.24610E-01   -0.24629E-01  8540   0.284E-01 0.123E-02
CGA:   7    -0.128568917614E+04   -0.74348E-02   -0.74280E-02  8540   0.871E-02 0.331E-03
CGA:   8    -0.128569181118E+04   -0.26350E-02   -0.26837E-02  8540   0.324E-02-0.750E-03
CGA:   9    -0.128569284695E+04   -0.10358E-02   -0.12013E-02  8540   0.198E-02-0.102E-02
CGA:  10    -0.128569323296E+04   -0.38601E-03   -0.39079E-03  8540   0.652E-03-0.134E-03
CGA:  11    -0.128569341272E+04   -0.17976E-03   -0.18049E-03  8540   0.224E-03-0.171E-04
CGA:  12    -0.128569319890E+04    0.21382E-03   -0.23237E-03  8540   0.179E-02-0.552E-03
CGA:  13    -0.128569358790E+04   -0.38900E-03   -0.39306E-03  8540   0.191E-03 0.527E-04
CGA:  14    -0.128569251381E+04    0.10741E-02   -0.57851E-03  8540   0.446E-02-0.892E-03
CGA:  15    -0.128569350004E+04   -0.98622E-03   -0.10935E-02  8540   0.575E-03 0.373E-03
CGA:  16    -0.128569375579E+04   -0.25575E-03   -0.23665E-03  8540   0.126E-03-0.139E-03
CGA:  17    -0.128569374363E+04    0.12154E-04   -0.97819E-05  8540   0.550E-04 0.537E-04
CGA:  18    -0.128569373293E+04    0.10700E-04   -0.62275E-05  8540   0.227E-04 0.412E-04
CGA:  19    -0.128569373972E+04   -0.67816E-05   -0.73767E-05  8540   0.249E-05 0.410E-05
  91 F= -.12856937E+04 E0= -.12856937E+04  d E =-.140009E+00  mag=   126.0000
       N       E                     dE             d eps       ncg     rms          ort
SDA:   1    -0.128509235907E+04    0.60137E+00    0.00000E+00  8540   0.156E+01 0.000E+00
CGA:   2    -0.128546529505E+04   -0.37294E+00   -0.37331E+00  8540   0.737E+00 0.733E-03
CGA:   3    -0.128562718346E+04   -0.16189E+00   -0.16179E+00  8540   0.144E+00-0.669E-03
CGA:   4    -0.128565691493E+04   -0.29731E-01   -0.29535E-01  8540   0.268E-01-0.854E-03
CGA:   5    -0.128566252876E+04   -0.56138E-02   -0.56821E-02  8540   0.627E-02 0.311E-03
CGA:   6    -0.128566386218E+04   -0.13334E-02   -0.14133E-02  8540   0.157E-02 0.409E-03
CGA:   7    -0.128566430263E+04   -0.44045E-03   -0.44509E-03  8540   0.501E-03 0.327E-04
CGA:   8    -0.128566452361E+04   -0.22099E-03   -0.24611E-03  8540   0.567E-03-0.311E-03
CGA:   9    -0.128566462852E+04   -0.10491E-03   -0.10735E-03  8540   0.738E-04 0.113E-04
CGA:  10    -0.128566465781E+04   -0.29294E-04   -0.29188E-04  8540   0.361E-04-0.180E-04
CGA:  11    -0.128566470021E+04   -0.42392E-04    0.55223E-05  8540   0.175E-04-0.563E-05
CGA:  12    -0.128566473894E+04   -0.38736E-04    0.12469E-05  8540   0.671E-05-0.624E-06
CGA:  13    -0.128566476175E+04   -0.22812E-04    0.36578E-06  8540   0.255E-05 0.809E-06
CGA:  14    -0.128566477291E+04   -0.11151E-04    0.14154E-06  8540   0.127E-05 0.128E-06
CGA:  15    -0.128566478419E+04   -0.11281E-04    0.27004E-07  8540   0.731E-06 0.506E-06
CGA:  16    -0.128566479403E+04   -0.98409E-05    0.17927E-07  8540   0.394E-06 0.352E-06
  92 F= -.12856648E+04 E0= -.12856648E+04  d E =0.289457E-01  mag=   126.0000
       N       E                     dE             d eps       ncg     rms          ort
SDA:   1    -0.127700169267E+04    0.86631E+01    0.00000E+00  8540   0.254E+02 0.000E+00
CGA:   2    -0.128234628166E+04   -0.53446E+01   -0.53671E+01  8540   0.105E+02-0.254E-03
CGA:   3    -0.128485690303E+04   -0.25106E+01   -0.25108E+01  8540   0.250E+01 0.646E-02
CGA:   4    -0.128537069729E+04   -0.51379E+00   -0.51385E+00  8540   0.470E+00-0.699E-03
CGA:   5    -0.128547237311E+04   -0.10168E+00   -0.10176E+00  8540   0.112E+00 0.225E-03
CGA:   6    -0.128549816057E+04   -0.25787E-01   -0.25751E-01  8540   0.296E-01-0.301E-03
CGA:   7    -0.128550577540E+04   -0.76148E-02   -0.76421E-02  8540   0.889E-02 0.280E-03
CGA:   8    -0.128550819221E+04   -0.24168E-02   -0.24399E-02  8540   0.265E-02 0.293E-03
CGA:   9    -0.128550906202E+04   -0.86981E-03   -0.87295E-03  8540   0.955E-03 0.114E-03
CGA:  10    -0.128550934136E+04   -0.27934E-03   -0.28843E-03  8540   0.308E-03 0.165E-03
CGA:  11    -0.128550942709E+04   -0.85731E-04   -0.94221E-04  8540   0.999E-04 0.104E-03
CGA:  12    -0.128550944419E+04   -0.17095E-04   -0.26340E-04  8540   0.431E-04 0.657E-04
CGA:  13    -0.128550944576E+04   -0.15768E-05   -0.69564E-05  8540   0.262E-04 0.318E-04
  93 F= -.12855094E+04 E0= -.12855094E+04  d E =0.155348E+00  mag=   126.0000
       N       E                     dE             d eps       ncg     rms          ort
SDA:   1    -0.126902398471E+04    0.16485E+02    0.00000E+00  8540   0.506E+02 0.000E+00
CGA:   2    -0.127925607269E+04   -0.10232E+02   -0.10281E+02  8540   0.198E+02 0.758E-01
CGA:   3    -0.128411949854E+04   -0.48634E+01   -0.48640E+01  8540   0.495E+01 0.843E-02
CGA:   4    -0.128514141173E+04   -0.10219E+01   -0.10216E+01  8540   0.930E+00-0.616E-02
CGA:   5    -0.128534087044E+04   -0.19946E+00   -0.19947E+00  8540   0.224E+00-0.511E-03
CGA:   6    -0.128539211162E+04   -0.51241E-01   -0.51220E-01  8540   0.593E-01-0.390E-03
CGA:   7    -0.128540748589E+04   -0.15374E-01   -0.15378E-01  8540   0.183E-01 0.100E-03
CGA:   8    -0.128541269764E+04   -0.52117E-02   -0.52102E-02  8540   0.597E-02-0.248E-03
CGA:   9    -0.128541470789E+04   -0.20102E-02   -0.20378E-02  8540   0.252E-02-0.491E-03
CGA:  10    -0.128541543367E+04   -0.72578E-03   -0.72555E-03  8540   0.833E-03 0.943E-05
CGA:  11    -0.128541572637E+04   -0.29270E-03   -0.29649E-03  8540   0.283E-03-0.627E-04
CGA:  12    -0.128541583380E+04   -0.10743E-03   -0.13469E-03  8540   0.241E-03-0.125E-03
CGA:  13    -0.128541483784E+04    0.99596E-03   -0.53648E-03  8540   0.416E-02-0.753E-03
CGA:  14    -0.128541568904E+04   -0.85120E-03   -0.90803E-03  8540   0.646E-03 0.166E-03
CGA:  15    -0.128541594733E+04   -0.25829E-03   -0.25405E-03  8540   0.289E-03-0.257E-04
CGA:  16    -0.128541598478E+04   -0.37447E-04   -0.64198E-04  8540   0.885E-04 0.880E-04
CGA:  17    -0.128541602537E+04   -0.40591E-04   -0.42267E-04  8540   0.595E-04 0.108E-04
CGA:  18    -0.128541605974E+04   -0.34373E-04   -0.36774E-04  8540   0.132E-03-0.635E-04
CGA:  19    -0.128541605117E+04    0.85690E-05   -0.14126E-04  8540   0.295E-04 0.558E-04
  94 F= -.12854161E+04 E0= -.12854161E+04  d E =0.933946E-01  mag=   126.0000
       N       E                     dE             d eps       ncg     rms          ort
SDA:   1    -0.128483584446E+04    0.58022E+00    0.00000E+00  8540   0.192E+01 0.000E+00
CGA:   2    -0.128525089294E+04   -0.41505E+00   -0.41552E+00  8540   0.803E+00-0.367E-03
CGA:   3    -0.128543926620E+04   -0.18837E+00   -0.18866E+00  8540   0.189E+00 0.928E-03
CGA:   4    -0.128547824849E+04   -0.38982E-01   -0.39166E-01  8540   0.359E-01 0.686E-03
CGA:   5    -0.128548590971E+04   -0.76612E-02   -0.77037E-02  8540   0.821E-02 0.178E-03
CGA:   6    -0.128548784518E+04   -0.19355E-02   -0.19365E-02  8540   0.226E-02 0.332E-05
CGA:   7    -0.128548841159E+04   -0.56641E-03   -0.57714E-03  8540   0.651E-03 0.659E-04
CGA:   8    -0.128548858244E+04   -0.17084E-03   -0.17842E-03  8540   0.189E-03 0.531E-04
CGA:   9    -0.128548863865E+04   -0.56211E-04   -0.59495E-04  8540   0.617E-04 0.296E-04
CGA:  10    -0.128548865135E+04   -0.12698E-04   -0.16880E-04  8540   0.221E-04 0.262E-04
CGA:  11    -0.128548865417E+04   -0.28209E-05   -0.59497E-05  8540   0.994E-05 0.158E-04
  95 F= -.12854887E+04 E0= -.12854887E+04  d E =-.726030E-01  mag=   126.0000
       N       E                     dE             d eps       ncg     rms          ort
SDA:   1    -0.127341024966E+04    0.12078E+02    0.00000E+00  8540   0.368E+02 0.000E+00
CGA:   2    -0.128090870942E+04   -0.74985E+01   -0.75415E+01  8540   0.145E+02 0.324E-02
CGA:   3    -0.128445157070E+04   -0.35429E+01   -0.35431E+01  8540   0.360E+01 0.111E-01
CGA:   4    -0.128519774763E+04   -0.74618E+00   -0.74612E+00  8540   0.679E+00-0.249E-02
CGA:   5    -0.128534369105E+04   -0.14594E+00   -0.14604E+00  8540   0.162E+00 0.223E-03
CGA:   6    -0.128538087529E+04   -0.37184E-01   -0.37174E-01  8540   0.425E-01-0.126E-03
CGA:   7    -0.128539193291E+04   -0.11058E-01   -0.11089E-01  8540   0.129E-01 0.409E-03
CGA:   8    -0.128539552039E+04   -0.35875E-02   -0.36031E-02  8540   0.394E-02 0.285E-03
CGA:   9    -0.128539683973E+04   -0.13193E-02   -0.13194E-02  8540   0.147E-02 0.459E-04
CGA:  10    -0.128539726166E+04   -0.42193E-03   -0.43077E-03  8540   0.467E-03 0.230E-03
CGA:  11    -0.128539739251E+04   -0.13085E-03   -0.14072E-03  8540   0.148E-03 0.150E-03
CGA:  12    -0.128539742415E+04   -0.31639E-04   -0.41419E-04  8540   0.618E-04 0.878E-04
CGA:  13    -0.128539743007E+04   -0.59270E-05   -0.11543E-04  8540   0.355E-04 0.428E-04
  96 F= -.12853974E+04 E0= -.12853974E+04  d E =0.912241E-01  mag=   126.0000
       N       E                     dE             d eps       ncg     rms          ort
SDA:   1    -0.127966042042E+04    0.57370E+01    0.00000E+00  8540   0.177E+02 0.000E+00
CGA:   2    -0.128331224064E+04   -0.36518E+01   -0.36600E+01  8540   0.704E+01 0.243E-01
CGA:   3    -0.128503527149E+04   -0.17230E+01   -0.17231E+01  8540   0.178E+01-0.566E-03
CGA:   4    -0.128540086592E+04   -0.36559E+00   -0.36547E+00  8540   0.333E+00-0.225E-02
CGA:   5    -0.128547233842E+04   -0.71472E-01   -0.71469E-01  8540   0.785E-01-0.206E-03
CGA:   6    -0.128549040700E+04   -0.18069E-01   -0.18055E-01  8540   0.208E-01-0.257E-03
CGA:   7    -0.128549577981E+04   -0.53728E-02   -0.53737E-02  8540   0.626E-02 0.310E-04
CGA:   8    -0.128549756534E+04   -0.17855E-02   -0.17858E-02  8540   0.201E-02-0.142E-03
CGA:   9    -0.128549823444E+04   -0.66910E-03   -0.68139E-03  8540   0.838E-03-0.196E-03
CGA:  10    -0.128549847109E+04   -0.23665E-03   -0.23665E-03  8540   0.273E-03-0.447E-06
CGA:  11    -0.128549857156E+04   -0.10048E-03   -0.10522E-03  8540   0.109E-03-0.485E-04
CGA:  12    -0.128549860643E+04   -0.34871E-04   -0.43333E-04  8540   0.776E-04-0.440E-04
CGA:  13    -0.128549863843E+04   -0.31997E-04    0.47843E-04  8540   0.312E-04 0.216E-05
CGA:  14    -0.128549864644E+04   -0.80100E-05   -0.21701E-04  8540   0.751E-04-0.366E-04
CGA:  15    -0.128549866743E+04   -0.20991E-04   -0.20670E-04  8540   0.821E-05-0.702E-05
CGA:  16    -0.128549866845E+04   -0.10212E-05   -0.14650E-05  8540   0.254E-05 0.364E-05
  97 F= -.12854987E+04 E0= -.12854987E+04  d E =-.101238E+00  mag=   126.0000
       N       E                     dE             d eps       ncg     rms          ort
SDA:   1    -0.128262001850E+04    0.28786E+01    0.00000E+00  8540   0.805E+01 0.000E+00
CGA:   2    -0.128441393269E+04   -0.17939E+01   -0.17952E+01  8540   0.352E+01 0.439E-02
CGA:   3    -0.128522160371E+04   -0.80767E+00   -0.80782E+00  8540   0.774E+00-0.262E-04
CGA:   4    -0.128538184851E+04   -0.16024E+00   -0.16019E+00  8540   0.147E+00-0.587E-03
CGA:   5    -0.128541290709E+04   -0.31059E-01   -0.31121E-01  8540   0.341E-01 0.549E-03
CGA:   6    -0.128542083818E+04   -0.79311E-02   -0.79642E-02  8540   0.932E-02 0.407E-03
CGA:   7    -0.128542325956E+04   -0.24214E-02   -0.24339E-02  8540   0.274E-02 0.247E-03
CGA:   8    -0.128542403678E+04   -0.77722E-03   -0.78170E-03  8540   0.845E-03 0.160E-03
CGA:   9    -0.128542431031E+04   -0.27353E-03   -0.27341E-03  8540   0.275E-03 0.957E-04
CGA:  10    -0.128542437679E+04   -0.66474E-04   -0.73473E-04  8540   0.945E-04 0.108E-03
CGA:  11    -0.128542438832E+04   -0.11533E-04   -0.21664E-04  8540   0.455E-04 0.742E-04
CGA:  12    -0.128542439055E+04   -0.22343E-05   -0.70028E-05  8540   0.284E-04 0.339E-04
