       N       E                     dE             d eps       ncg     rms          ort
DAV:   1     0.286609146153E+04    0.28661E+04   -0.29215E+05  2880   0.140E+03
DAV:   2    -0.959062070782E+03   -0.38252E+04   -0.36868E+04  2880   0.312E+02
DAV:   3    -0.122355532512E+04   -0.26449E+03   -0.26281E+03  2880   0.859E+01
DAV:   4    -0.122670902084E+04   -0.31537E+01   -0.31426E+01  2880   0.995E+00
DAV:   5    -0.122676209241E+04   -0.53072E-01   -0.52955E-01  2880   0.119E+00
SDA:   6    -0.863245614460E+03    0.36352E+03   -0.52955E-01  2880   0.626E+03 0.000E+00
CGA:   7    -0.976813348314E+03   -0.11357E+03   -0.11336E+03  2880   0.440E+02-0.266E+01
CGA:   8    -0.989958159259E+03   -0.13145E+02   -0.13116E+02  2880   0.106E+02 0.240E+00
CGA:   9    -0.993841385505E+03   -0.38832E+01   -0.38844E+01  2880   0.408E+01-0.126E-01
CGA:  10    -0.995137818586E+03   -0.12964E+01   -0.13003E+01  2880   0.893E+00-0.335E-01
CGA:  11    -0.995477749254E+03   -0.33993E+00   -0.34010E+00  2880   0.197E+00-0.963E-03
CGA:  12    -0.995545258062E+03   -0.67509E-01   -0.67476E-01  2880   0.446E-01 0.244E-03
CGA:  13    -0.995562100730E+03   -0.16843E-01   -0.16967E-01  2880   0.103E-01-0.862E-03
CGA:  14    -0.995565977124E+03   -0.38764E-02   -0.38022E-02  2880   0.228E-02 0.540E-03
CGA:  15    -0.995566968880E+03   -0.99176E-03   -0.96058E-03  2880   0.566E-03 0.199E-03
CGA:  16    -0.995567261951E+03   -0.29307E-03   -0.39270E-03  2880   0.413E-03-0.260E-03
CGA:  17    -0.995567330673E+03   -0.68722E-04   -0.68723E-04  2880   0.162E-03-0.560E-06
CGA:  18    -0.995567360309E+03   -0.29636E-04   -0.32868E-04  2880   0.657E-04 0.453E-04
CGA:  19    -0.995567374339E+03   -0.14030E-04   -0.16456E-04  2880   0.338E-04 0.322E-04
CGA:  20    -0.995567384524E+03   -0.10186E-04   -0.10919E-04  2880   0.148E-04 0.145E-04
CGA:  21    -0.995567391543E+03   -0.70190E-05   -0.72854E-05  2880   0.810E-05-0.333E-05
   1 F= -.99556739E+03 E0= -.99556739E+03  d E =-.995567E+03  mag=    -0.0000
       N       E                     dE             d eps       ncg     rms          ort
SDA:   1    -0.995567537601E+03   -0.15308E-03    0.00000E+00  2880   0.886E-05 0.000E+00
CGA:   2    -0.995567539487E+03   -0.18862E-05   -0.19438E-05  2880   0.225E-05 0.125E-05
CGA:   3    -0.995567537861E+03    0.16259E-05   -0.25130E-05  2880   0.143E-04-0.577E-05
CGA:   4    -0.995567540367E+03   -0.25065E-05   -0.27178E-05  2880   0.241E-05 0.193E-05
   2 F= -.99556754E+03 E0= -.99556754E+03  d E =-.148824E-03  mag=     0.0000
       N       E                     dE             d eps       ncg     rms          ort
SDA:   1    -0.995570182077E+03   -0.26442E-02    0.00000E+00  2880   0.618E-03 0.000E+00
CGA:   2    -0.995570397995E+03   -0.21592E-03   -0.21520E-03  2880   0.133E-03 0.132E-04
CGA:   3    -0.995570434578E+03   -0.36583E-04   -0.36477E-04  2880   0.233E-04-0.367E-05
CGA:   4    -0.995570441938E+03   -0.73595E-05   -0.76087E-05  2880   0.691E-05-0.620E-05
   3 F= -.99557044E+03 E0= -.99557044E+03  d E =-.290157E-02  mag=     0.0000
       N       E                     dE             d eps       ncg     rms          ort
SDA:   1    -0.995577127308E+03   -0.66927E-02    0.00000E+00  2880   0.836E-02 0.000E+00
CGA:   2    -0.995580103298E+03   -0.29760E-02   -0.29735E-02  2880   0.184E-02 0.394E-04
CGA:   3    -0.995580582934E+03   -0.47964E-03   -0.47928E-03  2880   0.300E-03-0.950E-05
CGA:   4    -0.995580667302E+03   -0.84368E-04   -0.84168E-04  2880   0.512E-04-0.164E-04
CGA:   5    -0.995580682239E+03   -0.14937E-04   -0.14921E-04  2880   0.106E-04 0.107E-05
CGA:   6    -0.995580685470E+03   -0.32310E-05   -0.32246E-05  2880   0.266E-05 0.250E-05
   4 F= -.99558069E+03 E0= -.99558069E+03  d E =-.102435E-01  mag=     0.0000
       N       E                     dE             d eps       ncg     rms          ort
SDA:   1    -0.995583267624E+03   -0.25854E-02    0.00000E+00  2880   0.449E-01 0.000E+00
CGA:   2    -0.995599416740E+03   -0.16149E-01   -0.16146E-01  2880   0.997E-02 0.753E-04
CGA:   3    -0.995601974534E+03   -0.25578E-02   -0.25565E-02  2880   0.154E-02-0.207E-04
CGA:   4    -0.995602395670E+03   -0.42114E-03   -0.41969E-03  2880   0.248E-03-0.328E-04
CGA:   5    -0.995602473710E+03   -0.78041E-04   -0.78033E-04  2880   0.551E-04 0.120E-05
CGA:   6    -0.995602492829E+03   -0.19118E-04   -0.18959E-04  2880   0.146E-04 0.581E-05
CGA:   7    -0.995602500513E+03   -0.76840E-05   -0.91819E-05  2880   0.108E-04-0.593E-05
   5 F= -.99560250E+03 E0= -.99560250E+03  d E =-.218150E-01  mag=    -0.0000
       N       E                     dE             d eps       ncg     rms          ort
SDA:   1    -0.995596656900E+03    0.58359E-02    0.00000E+00  2880   0.678E-01 0.000E+00
CGA:   2    -0.995621164787E+03   -0.24508E-01   -0.24505E-01  2880   0.148E-01 0.749E-04
CGA:   3    -0.995624922113E+03   -0.37573E-02   -0.37559E-02  2880   0.228E-02-0.195E-04
CGA:   4    -0.995625531352E+03   -0.60924E-03   -0.60717E-03  2880   0.352E-03-0.361E-04
CGA:   5    -0.995625642836E+03   -0.11148E-03   -0.11148E-03  2880   0.765E-04 0.286E-06
CGA:   6    -0.995625669672E+03   -0.26835E-04   -0.26646E-04  2880   0.206E-04 0.704E-05
CGA:   7    -0.995625680364E+03   -0.10692E-04   -0.12106E-04  2880   0.129E-04-0.656E-05
CGA:   8    -0.995625682828E+03   -0.24642E-05   -0.24690E-05  2880   0.308E-05 0.943E-07
   6 F= -.99562568E+03 E0= -.99562568E+03  d E =-.231823E-01  mag=    -0.0000
       N       E                     dE             d eps       ncg     rms          ort
SDA:   1    -0.995559952212E+03    0.65728E-01    0.00000E+00  2880   0.235E+00 0.000E+00
CGA:   2    -0.995646078507E+03   -0.86126E-01   -0.86120E-01  2880   0.495E-01 0.100E-03
CGA:   3    -0.995658550983E+03   -0.12472E-01   -0.12471E-01  2880   0.751E-02-0.189E-04
CGA:   4    -0.995660505200E+03   -0.19542E-02   -0.19508E-02  2880   0.111E-02-0.540E-04
CGA:   5    -0.995660859318E+03   -0.35412E-03   -0.35412E-03  2880   0.236E-03-0.186E-05
CGA:   6    -0.995660945291E+03   -0.85974E-04   -0.85385E-04  2880   0.670E-04 0.135E-04
CGA:   7    -0.995660977562E+03   -0.32271E-04   -0.34008E-04  2880   0.293E-04-0.110E-04
CGA:   8    -0.995660985238E+03   -0.76761E-05   -0.76875E-05  2880   0.482E-05 0.723E-06
   7 F= -.99566099E+03 E0= -.99566099E+03  d E =-.353024E-01  mag=    -0.0000
       N       E                     dE             d eps       ncg     rms          ort
SDA:   1    -0.995335186932E+03    0.32579E+00    0.00000E+00  2880   0.873E+00 0.000E+00
CGA:   2    -0.995659206820E+03   -0.32402E+00   -0.32399E+00  2880   0.177E+00 0.281E-03
CGA:   3    -0.995703616176E+03   -0.44409E-01   -0.44408E-01  2880   0.264E-01-0.189E-05
CGA:   4    -0.995710391837E+03   -0.67757E-02   -0.67722E-02  2880   0.388E-02-0.473E-04
CGA:   5    -0.995711621730E+03   -0.12299E-02   -0.12298E-02  2880   0.806E-03-0.988E-05
CGA:   6    -0.995711922714E+03   -0.30098E-03   -0.29975E-03  2880   0.245E-03 0.240E-04
CGA:   7    -0.995712031838E+03   -0.10912E-03   -0.11066E-03  2880   0.821E-04-0.134E-04
CGA:   8    -0.995712059066E+03   -0.27227E-04   -0.27222E-04  2880   0.130E-04 0.274E-06
CGA:   9    -0.995712064080E+03   -0.50142E-05   -0.50575E-05  2880   0.253E-05-0.751E-06
   8 F= -.99571206E+03 E0= -.99571206E+03  d E =-.510788E-01  mag=    -0.0000
       N       E                     dE             d eps       ncg     rms          ort
SDA:   1    -0.994748216003E+03    0.96384E+00    0.00000E+00  2880   0.237E+01 0.000E+00
CGA:   2    -0.995630288535E+03   -0.88207E+00   -0.88206E+00  2880   0.480E+00-0.303E-03
CGA:   3    -0.995749315037E+03   -0.11903E+00   -0.11905E+00  2880   0.707E-01 0.296E-04
CGA:   4    -0.995767460564E+03   -0.18146E-01   -0.18150E-01  2880   0.103E-01 0.642E-04
CGA:   5    -0.995770722880E+03   -0.32623E-02   -0.32620E-02  2880   0.208E-02-0.209E-04
CGA:   6    -0.995771501899E+03   -0.77902E-03   -0.77825E-03  2880   0.664E-03 0.167E-04
CGA:   7    -0.995771774003E+03   -0.27210E-03   -0.27172E-03  2880   0.198E-03 0.520E-05
CGA:   8    -0.995771850326E+03   -0.76323E-04   -0.76622E-04  2880   0.373E-04-0.621E-05
CGA:   9    -0.995771863425E+03   -0.13099E-04   -0.13111E-04  2880   0.589E-05-0.496E-06
CGA:  10    -0.995771865593E+03   -0.21684E-05   -0.21714E-05  2880   0.105E-05-0.840E-07
   9 F= -.99577187E+03 E0= -.99577187E+03  d E =-.598015E-01  mag=    -0.0000
       N       E                     dE             d eps       ncg     rms          ort
SDA:   1    -0.994658566660E+03    0.11133E+01    0.00000E+00  2880   0.273E+01 0.000E+00
CGA:   2    -0.995644943522E+03   -0.98638E+00   -0.98638E+00  2880   0.568E+00-0.175E-03
CGA:   3    -0.995785384739E+03   -0.14044E+00   -0.14048E+00  2880   0.867E-01-0.192E-03
CGA:   4    -0.995807671354E+03   -0.22287E-01   -0.22290E-01  2880   0.120E-01 0.423E-04
CGA:   5    -0.995811443586E+03   -0.37722E-02   -0.37720E-02  2880   0.233E-02-0.761E-05
CGA:   6    -0.995812332576E+03   -0.88899E-03   -0.88905E-03  2880   0.753E-03-0.185E-05
CGA:   7    -0.995812631551E+03   -0.29897E-03   -0.29846E-03  2880   0.227E-03 0.106E-04
CGA:   8    -0.995812723266E+03   -0.91715E-04   -0.92176E-04  2880   0.445E-04-0.908E-05
CGA:   9    -0.995812738676E+03   -0.15410E-04   -0.15413E-04  2880   0.684E-05-0.380E-06
CGA:  10    -0.995812741231E+03   -0.25544E-05   -0.25578E-05  2880   0.121E-05-0.135E-06
  10 F= -.99581274E+03 E0= -.99581274E+03  d E =-.408756E-01  mag=     0.0000
       N       E                     dE             d eps       ncg     rms          ort
SDA:   1    -0.995750212894E+03    0.62526E-01    0.00000E+00  2880   0.171E+00 0.000E+00
CGA:   2    -0.995811468880E+03   -0.61256E-01   -0.61252E-01  2880   0.410E-01-0.139E-03
CGA:   3    -0.995821832992E+03   -0.10364E-01   -0.10373E-01  2880   0.591E-02 0.540E-04
CGA:   4    -0.995823599281E+03   -0.17663E-02   -0.17677E-02  2880   0.988E-03 0.190E-04
CGA:   5    -0.995823932807E+03   -0.33353E-03   -0.33350E-03  2880   0.261E-03-0.878E-06
CGA:   6    -0.995824030077E+03   -0.97270E-04   -0.97265E-04  2880   0.786E-04 0.153E-05
CGA:   7    -0.995824060143E+03   -0.30066E-04   -0.30042E-04  2880   0.196E-04 0.219E-05
CGA:   8    -0.995824067634E+03   -0.74906E-05   -0.74903E-05  2880   0.392E-05 0.123E-06
  11 F= -.99582407E+03 E0= -.99582407E+03  d E =-.113264E-01  mag=    -0.0000
       N       E                     dE             d eps       ncg     rms          ort
SDA:   1    -0.995824158925E+03   -0.98781E-04    0.00000E+00  2880   0.299E-02 0.000E+00
CGA:   2    -0.995825242544E+03   -0.10836E-02   -0.10837E-02  2880   0.604E-03 0.755E-05
CGA:   3    -0.995825396108E+03   -0.15356E-03   -0.15321E-03  2880   0.920E-04-0.312E-05
CGA:   4    -0.995825418805E+03   -0.22697E-04   -0.22844E-04  2880   0.123E-04 0.128E-05
CGA:   5    -0.995825422590E+03   -0.37846E-05   -0.38065E-05  2880   0.229E-05 0.418E-06
  12 F= -.99582542E+03 E0= -.99582542E+03  d E =-.135496E-02  mag=    -0.0000
       N       E                     dE             d eps       ncg     rms          ort
SDA:   1    -0.995810765952E+03    0.14653E-01    0.00000E+00  2880   0.464E-01 0.000E+00
CGA:   2    -0.995827675344E+03   -0.16909E-01   -0.16909E-01  2880   0.941E-02 0.166E-04
CGA:   3    -0.995830028906E+03   -0.23536E-02   -0.23529E-02  2880   0.140E-02-0.724E-05
CGA:   4    -0.995830381702E+03   -0.35280E-03   -0.35316E-03  2880   0.190E-03 0.365E-05
CGA:   5    -0.995830440663E+03   -0.58962E-04   -0.59001E-04  2880   0.346E-04 0.106E-05
CGA:   6    -0.995830453365E+03   -0.12702E-04   -0.12680E-04  2880   0.103E-04 0.105E-05
CGA:   7    -0.995830457688E+03   -0.43230E-05   -0.42954E-05  2880   0.321E-05 0.470E-06
  13 F= -.99583046E+03 E0= -.99583046E+03  d E =-.503510E-02  mag=    -0.0000
       N       E                     dE             d eps       ncg     rms          ort
SDA:   1    -0.995829459709E+03    0.99366E-03    0.00000E+00  2880   0.660E-02 0.000E+00
CGA:   2    -0.995831873240E+03   -0.24135E-02   -0.24134E-02  2880   0.134E-02 0.849E-05
CGA:   3    -0.995832206159E+03   -0.33292E-03   -0.33281E-03  2880   0.199E-03-0.119E-05
CGA:   4    -0.995832255648E+03   -0.49489E-04   -0.49625E-04  2880   0.267E-04 0.141E-05
CGA:   5    -0.995832263958E+03   -0.83099E-05   -0.83190E-05  2880   0.479E-05 0.294E-06
  14 F= -.99583226E+03 E0= -.99583226E+03  d E =-.180627E-02  mag=    -0.0000
       N       E                     dE             d eps       ncg     rms          ort
SDA:   1    -0.995544363412E+03    0.28789E+00    0.00000E+00  2880   0.712E+00 0.000E+00
CGA:   2    -0.995804563733E+03   -0.26020E+00   -0.26020E+00  2880   0.144E+00-0.593E-04
CGA:   3    -0.995840531846E+03   -0.35968E-01   -0.35968E-01  2880   0.214E-01-0.489E-04
CGA:   4    -0.995845917053E+03   -0.53852E-02   -0.53861E-02  2880   0.292E-02 0.117E-04
CGA:   5    -0.995846820756E+03   -0.90370E-03   -0.90379E-03  2880   0.524E-03 0.397E-05
CGA:   6    -0.995847015111E+03   -0.19435E-03   -0.19418E-03  2880   0.161E-03 0.458E-05
CGA:   7    -0.995847082664E+03   -0.67554E-04   -0.67586E-04  2880   0.522E-04-0.376E-06
CGA:   8    -0.995847102567E+03   -0.19903E-04   -0.19905E-04  2880   0.966E-05-0.470E-07
CGA:   9    -0.995847105810E+03   -0.32427E-05   -0.32452E-05  2880   0.141E-05 0.791E-06
  15 F= -.99584711E+03 E0= -.99584711E+03  d E =-.148419E-01  mag=    -0.0000
       N       E                     dE             d eps       ncg     rms          ort
SDA:   1    -0.995506018629E+03    0.34108E+00    0.00000E+00  2880   0.815E+00 0.000E+00
CGA:   2    -0.995805151472E+03   -0.29913E+00   -0.29913E+00  2880   0.165E+00-0.298E-04
CGA:   3    -0.995846674641E+03   -0.41523E-01   -0.41521E-01  2880   0.241E-01-0.547E-04
CGA:   4    -0.995852694524E+03   -0.60199E-02   -0.60213E-02  2880   0.342E-02 0.164E-04
CGA:   5    -0.995853753012E+03   -0.10585E-02   -0.10586E-02  2880   0.620E-03 0.326E-05
CGA:   6    -0.995853984957E+03   -0.23195E-03   -0.23173E-03  2880   0.195E-03 0.579E-05
CGA:   7    -0.995854067432E+03   -0.82475E-04   -0.82925E-04  2880   0.646E-04-0.536E-05
CGA:   8    -0.995854090342E+03   -0.22910E-04   -0.22884E-04  2880   0.111E-04 0.121E-05
CGA:   9    -0.995854094148E+03   -0.38058E-05   -0.38132E-05  2880   0.173E-05 0.996E-06
  16 F= -.99585409E+03 E0= -.99585409E+03  d E =-.698834E-02  mag=    -0.0000
       N       E                     dE             d eps       ncg     rms          ort
SDA:   1    -0.995853456203E+03    0.63414E-03    0.00000E+00  2880   0.256E-02 0.000E+00
CGA:   2    -0.995854343937E+03   -0.88773E-03   -0.88770E-03  2880   0.615E-03-0.892E-05
CGA:   3    -0.995854499829E+03   -0.15589E-03   -0.15651E-03  2880   0.921E-04 0.643E-05
CGA:   4    -0.995854526678E+03   -0.26849E-04   -0.26930E-04  2880   0.150E-04 0.142E-05
CGA:   5    -0.995854531845E+03   -0.51670E-05   -0.51666E-05  2880   0.406E-05-0.111E-06
  17 F= -.99585453E+03 E0= -.99585453E+03  d E =-.437697E-03  mag=    -0.0000
       N       E                     dE             d eps       ncg     rms          ort
SDA:   1    -0.995854494795E+03    0.31883E-04    0.00000E+00  2880   0.305E-03 0.000E+00
CGA:   2    -0.995854601573E+03   -0.10678E-03   -0.10680E-03  2880   0.658E-04-0.252E-05
CGA:   3    -0.995854617830E+03   -0.16257E-04   -0.16412E-04  2880   0.991E-05 0.168E-05
CGA:   4    -0.995854620556E+03   -0.27269E-05   -0.27668E-05  2880   0.148E-05 0.601E-06
  18 F= -.99585462E+03 E0= -.99585462E+03  d E =-.887117E-04  mag=    -0.0000
       N       E                     dE             d eps       ncg     rms          ort
SDA:   1    -0.995849754242E+03    0.48636E-02    0.00000E+00  2880   0.123E-01 0.000E+00
CGA:   2    -0.995854108375E+03   -0.43541E-02   -0.43543E-02  2880   0.255E-02-0.996E-05
CGA:   3    -0.995854769318E+03   -0.66094E-03   -0.66134E-03  2880   0.392E-03 0.510E-05
CGA:   4    -0.995854869503E+03   -0.10018E-03   -0.10045E-03  2880   0.555E-04 0.349E-05
CGA:   5    -0.995854887156E+03   -0.17653E-04   -0.17674E-04  2880   0.113E-04 0.167E-05
CGA:   6    -0.995854891521E+03   -0.43657E-05   -0.43402E-05  2880   0.358E-05 0.553E-06
  19 F= -.99585489E+03 E0= -.99585489E+03  d E =-.270965E-03  mag=    -0.0000
       N       E                     dE             d eps       ncg     rms          ort
SDA:   1    -0.995854041171E+03    0.84599E-03    0.00000E+00  2880   0.215E-02 0.000E+00
CGA:   2    -0.995854824664E+03   -0.78349E-03   -0.78346E-03  2880   0.419E-03 0.144E-05
CGA:   3    -0.995854934007E+03   -0.10934E-03   -0.10930E-03  2880   0.600E-04-0.532E-06
CGA:   4    -0.995854948759E+03   -0.14752E-04   -0.14784E-04  2880   0.897E-05 0.359E-06
CGA:   5    -0.995854951322E+03   -0.25627E-05   -0.25906E-05  2880   0.151E-05 0.647E-06
  20 F= -.99585495E+03 E0= -.99585495E+03  d E =-.598002E-04  mag=    -0.0000
       N       E                     dE             d eps       ncg     rms          ort
SDA:   1    -0.995840893272E+03    0.14055E-01    0.00000E+00  2880   0.335E-01 0.000E+00
CGA:   2    -0.995853087723E+03   -0.12194E-01   -0.12194E-01  2880   0.661E-02 0.776E-05
CGA:   3    -0.995854788414E+03   -0.17007E-02   -0.17005E-02  2880   0.968E-03-0.301E-05
CGA:   4    -0.995855030881E+03   -0.24247E-03   -0.24223E-03  2880   0.137E-03-0.311E-05
CGA:   5    -0.995855072447E+03   -0.41566E-04   -0.41608E-04  2880   0.243E-04 0.237E-05
CGA:   6    -0.995855081366E+03   -0.89188E-05   -0.88504E-05  2880   0.719E-05 0.189E-05
  21 F= -.99585508E+03 E0= -.99585508E+03  d E =-.130044E-03  mag=    -0.0000
       N       E                     dE             d eps       ncg     rms          ort
SDA:   1    -0.995834956529E+03    0.20116E-01    0.00000E+00  2880   0.472E-01 0.000E+00
CGA:   2    -0.995852295332E+03   -0.17339E-01   -0.17339E-01  2880   0.915E-02-0.781E-05
CGA:   3    -0.995854651633E+03   -0.23563E-02   -0.23564E-02  2880   0.132E-02 0.523E-06
CGA:   4    -0.995854978333E+03   -0.32670E-03   -0.32711E-03  2880   0.191E-03 0.451E-05
CGA:   5    -0.995855036766E+03   -0.58433E-04   -0.58488E-04  2880   0.340E-04 0.196E-05
CGA:   6    -0.995855049529E+03   -0.12764E-04   -0.12715E-04  2880   0.105E-04 0.126E-05
CGA:   7    -0.995855054677E+03   -0.51476E-05   -0.55281E-05  2880   0.530E-05-0.220E-05
  22 F= -.99585505E+03 E0= -.99585505E+03  d E =0.266885E-04  mag=    -0.0000
       N       E                     dE             d eps       ncg     rms          ort
SDA:   1    -0.995589274273E+03    0.26578E+00    0.00000E+00  2880   0.622E+00 0.000E+00
CGA:   2    -0.995815917452E+03   -0.22664E+00   -0.22664E+00  2880   0.124E+00-0.297E-04
CGA:   3    -0.995847632567E+03   -0.31715E-01   -0.31714E-01  2880   0.181E-01-0.101E-04
CGA:   4    -0.995852184648E+03   -0.45521E-02   -0.45504E-02  2880   0.257E-02-0.207E-04
CGA:   5    -0.995852978946E+03   -0.79430E-03   -0.79437E-03  2880   0.470E-03 0.343E-05
CGA:   6    -0.995853154115E+03   -0.17517E-03   -0.17473E-03  2880   0.148E-03 0.105E-04
CGA:   7    -0.995853221057E+03   -0.66942E-04   -0.68748E-04  2880   0.583E-04-0.147E-04
CGA:   8    -0.995853237948E+03   -0.16891E-04   -0.16951E-04  2880   0.949E-05 0.403E-05
CGA:   9    -0.995853241053E+03   -0.31052E-05   -0.31413E-05  2880   0.182E-05 0.132E-05
  23 F= -.99585324E+03 E0= -.99585324E+03  d E =0.181362E-02  mag=    -0.0000
       N       E                     dE             d eps       ncg     rms          ort
SDA:   1    -0.995848743739E+03    0.44942E-02    0.00000E+00  2880   0.112E-01 0.000E+00
CGA:   2    -0.995852735179E+03   -0.39914E-02   -0.39915E-02  2880   0.268E-02-0.772E-05
CGA:   3    -0.995853411001E+03   -0.67582E-03   -0.67438E-03  2880   0.400E-03-0.155E-04
CGA:   4    -0.995853522613E+03   -0.11161E-03   -0.11270E-03  2880   0.595E-04 0.179E-04
CGA:   5    -0.995853542932E+03   -0.20319E-04   -0.20358E-04  2880   0.156E-04 0.295E-05
CGA:   6    -0.995853550311E+03   -0.73789E-05   -0.80603E-05  2880   0.956E-05-0.447E-05
  24 F= -.99585355E+03 E0= -.99585355E+03  d E =-.309257E-03  mag=     0.0000
       N       E                     dE             d eps       ncg     rms          ort
SDA:   1    -0.995853298048E+03    0.24488E-03    0.00000E+00  2880   0.467E-03 0.000E+00
CGA:   2    -0.995853471197E+03   -0.17315E-03   -0.17331E-03  2880   0.928E-04-0.539E-05
CGA:   3    -0.995853493771E+03   -0.22573E-04   -0.22690E-04  2880   0.128E-04 0.122E-05
CGA:   4    -0.995853496455E+03   -0.26847E-05   -0.29185E-05  2880   0.176E-05 0.205E-05
  25 F= -.99585350E+03 E0= -.99585350E+03  d E =0.538555E-04  mag=    -0.0000
       N       E                     dE             d eps       ncg     rms          ort
SDA:   1    -0.995846583852E+03    0.69099E-02    0.00000E+00  2880   0.152E-01 0.000E+00
CGA:   2    -0.995852204696E+03   -0.56208E-02   -0.56217E-02  2880   0.295E-02-0.192E-04
CGA:   3    -0.995852953387E+03   -0.74869E-03   -0.74923E-03  2880   0.438E-03 0.694E-05
CGA:   4    -0.995853062298E+03   -0.10891E-03   -0.10922E-03  2880   0.603E-04 0.389E-05
CGA:   5    -0.995853081118E+03   -0.18820E-04   -0.18831E-04  2880   0.111E-04 0.789E-06
CGA:   6    -0.995853085359E+03   -0.42413E-05   -0.42258E-05  2880   0.357E-05 0.285E-06
  26 F= -.99585309E+03 E0= -.99585309E+03  d E =0.411096E-03  mag=    -0.0000
       N       E                     dE             d eps       ncg     rms          ort
SDA:   1    -0.995852939613E+03    0.14151E-03    0.00000E+00  2880   0.503E-03 0.000E+00
CGA:   2    -0.995853124128E+03   -0.18451E-03   -0.18440E-03  2880   0.104E-03 0.327E-05
CGA:   3    -0.995853150078E+03   -0.25950E-04   -0.25840E-04  2880   0.168E-04-0.127E-05
CGA:   4    -0.995853154841E+03   -0.47633E-05   -0.46888E-05  2880   0.239E-05-0.155E-05
  27 F= -.99585315E+03 E0= -.99585315E+03  d E =-.694816E-04  mag=     0.0000
       N       E                     dE             d eps       ncg     rms          ort
SDA:   1    -0.995852773783E+03    0.37629E-03    0.00000E+00  2880   0.661E-03 0.000E+00
CGA:   2    -0.995853018464E+03   -0.24468E-03   -0.24472E-03  2880   0.129E-03-0.755E-06
CGA:   3    -0.995853051188E+03   -0.32724E-04   -0.32766E-04  2880   0.178E-04 0.558E-06
CGA:   4    -0.995853055595E+03   -0.44063E-05   -0.44381E-05  2880   0.246E-05 0.412E-06
  28 F= -.99585306E+03 E0= -.99585306E+03  d E =0.992461E-04  mag=    -0.0000
       N       E                     dE             d eps       ncg     rms          ort
SDA:   1    -0.995851326234E+03    0.17250E-02    0.00000E+00  2880   0.354E-02 0.000E+00
CGA:   2    -0.995852630450E+03   -0.13042E-02   -0.13043E-02  2880   0.685E-03-0.118E-05
CGA:   3    -0.995852805379E+03   -0.17493E-03   -0.17498E-03  2880   0.103E-03 0.665E-06
CGA:   4    -0.995852830996E+03   -0.25617E-04   -0.25630E-04  2880   0.143E-04 0.190E-06
CGA:   5    -0.995852835303E+03   -0.43068E-05   -0.43131E-05  2880   0.250E-05 0.460E-06
  29 F= -.99585284E+03 E0= -.99585284E+03  d E =0.220292E-03  mag=    -0.0000
       N       E                     dE             d eps       ncg     rms          ort
SDA:   1    -0.995842189290E+03    0.10642E-01    0.00000E+00  2880   0.237E-01 0.000E+00
CGA:   2    -0.995850849560E+03   -0.86603E-02   -0.86605E-02  2880   0.463E-02-0.461E-05
CGA:   3    -0.995852031366E+03   -0.11818E-02   -0.11819E-02  2880   0.686E-03 0.160E-05
CGA:   4    -0.995852203729E+03   -0.17236E-03   -0.17228E-03  2880   0.954E-04-0.141E-05
CGA:   5    -0.995852232913E+03   -0.29183E-04   -0.29190E-04  2880   0.170E-04 0.122E-05
CGA:   6    -0.995852239104E+03   -0.61911E-05   -0.61321E-05  2880   0.506E-05 0.134E-05
  30 F= -.99585224E+03 E0= -.99585224E+03  d E =0.596199E-03  mag=    -0.0000
       N       E                     dE             d eps       ncg     rms          ort
SDA:   1    -0.995556493988E+03    0.29574E+00    0.00000E+00  2880   0.679E+00 0.000E+00
CGA:   2    -0.995809792132E+03   -0.25330E+00   -0.25331E+00  2880   0.131E+00-0.196E-03
CGA:   3    -0.995842647673E+03   -0.32856E-01   -0.32855E-01  2880   0.194E-01-0.218E-05
CGA:   4    -0.995847532513E+03   -0.48848E-02   -0.48872E-02  2880   0.272E-02 0.302E-04
CGA:   5    -0.995848370950E+03   -0.83844E-03   -0.83846E-03  2880   0.490E-03 0.110E-05
CGA:   6    -0.995848556100E+03   -0.18515E-03   -0.18504E-03  2880   0.160E-03 0.206E-05
CGA:   7    -0.995848623931E+03   -0.67832E-04   -0.68331E-04  2880   0.532E-04-0.513E-05
CGA:   8    -0.995848642279E+03   -0.18347E-04   -0.18287E-04  2880   0.887E-05 0.259E-05
CGA:   9    -0.995848645587E+03   -0.33086E-05   -0.33019E-05  2880   0.147E-05 0.303E-06
  31 F= -.99584865E+03 E0= -.99584865E+03  d E =0.359352E-02  mag=    -0.0000
       N       E                     dE             d eps       ncg     rms          ort
SDA:   1    -0.995739640988E+03    0.10900E+00    0.00000E+00  2880   0.253E+00 0.000E+00
CGA:   2    -0.995825640360E+03   -0.85999E-01   -0.85999E-01  2880   0.531E-01 0.213E-03
CGA:   3    -0.995840124376E+03   -0.14484E-01   -0.14482E-01  2880   0.860E-02-0.217E-04
CGA:   4    -0.995842439671E+03   -0.23153E-02   -0.23044E-02  2880   0.133E-02-0.158E-03
CGA:   5    -0.995842869413E+03   -0.42974E-03   -0.42974E-03  2880   0.318E-03-0.961E-07
CGA:   6    -0.995842981916E+03   -0.11250E-03   -0.11195E-03  2880   0.876E-04 0.290E-04
CGA:   7    -0.995843028436E+03   -0.46520E-04   -0.54471E-04  2880   0.622E-04-0.338E-04
CGA:   8    -0.995843036999E+03   -0.85637E-05   -0.90282E-05  2880   0.191E-04 0.424E-05
  32 F= -.99584304E+03 E0= -.99584304E+03  d E =0.560859E-02  mag=     0.0000
       N       E                     dE             d eps       ncg     rms          ort
SDA:   1    -0.995781443597E+03    0.61585E-01    0.00000E+00  2880   0.152E+00 0.000E+00
CGA:   2    -0.995834792938E+03   -0.53349E-01   -0.53354E-01  2880   0.365E-01-0.224E-03
CGA:   3    -0.995844319267E+03   -0.95263E-02   -0.95270E-02  2880   0.559E-02-0.399E-05
CGA:   4    -0.995845947292E+03   -0.16280E-02   -0.16329E-02  2880   0.883E-03 0.133E-03
CGA:   5    -0.995846265238E+03   -0.31795E-03   -0.31803E-03  2880   0.259E-03-0.327E-05
CGA:   6    -0.995846370496E+03   -0.10526E-03   -0.10784E-03  2880   0.968E-04-0.287E-04
CGA:   7    -0.995846394364E+03   -0.23868E-04   -0.24636E-04  2880   0.199E-04 0.165E-04
CGA:   8    -0.995846400235E+03   -0.58707E-05   -0.62310E-05  2880   0.536E-05 0.574E-05
  33 F= -.99584640E+03 E0= -.99584640E+03  d E =-.336324E-02  mag=     0.0000
       N       E                     dE             d eps       ncg     rms          ort
SDA:   1    -0.995843376526E+03    0.30178E-02    0.00000E+00  2880   0.595E-02 0.000E+00
CGA:   2    -0.995845543886E+03   -0.21674E-02   -0.21698E-02  2880   0.135E-02-0.828E-04
CGA:   3    -0.995845887090E+03   -0.34320E-03   -0.34433E-03  2880   0.195E-03 0.141E-04
CGA:   4    -0.995845927312E+03   -0.40222E-04   -0.44471E-04  2880   0.272E-04 0.395E-04
CGA:   5    -0.995845935435E+03   -0.81229E-05   -0.86112E-05  2880   0.842E-05 0.760E-05
CGA:   6    -0.995845935519E+03   -0.83659E-07   -0.10240E-04  2880   0.352E-04-0.162E-04
  34 F= -.99584594E+03 E0= -.99584594E+03  d E =0.464716E-03  mag=     0.0000
       N       E                     dE             d eps       ncg     rms          ort
SDA:   1    -0.995836007019E+03    0.99284E-02    0.00000E+00  2880   0.248E-01 0.000E+00
CGA:   2    -0.995844864866E+03   -0.88578E-02   -0.88591E-02  2880   0.541E-02-0.118E-03
CGA:   3    -0.995846246383E+03   -0.13815E-02   -0.13851E-02  2880   0.864E-03 0.386E-04
CGA:   4    -0.995846472310E+03   -0.22593E-03   -0.22941E-03  2880   0.124E-03 0.440E-04
CGA:   5    -0.995846517876E+03   -0.45566E-04   -0.45574E-04  2880   0.356E-04-0.677E-06
CGA:   6    -0.995846532711E+03   -0.14835E-04   -0.15357E-04  2880   0.151E-04-0.553E-05
CGA:   7    -0.995846535246E+03   -0.25352E-05   -0.29836E-05  2880   0.394E-05 0.405E-05
  35 F= -.99584654E+03 E0= -.99584654E+03  d E =-.599727E-03  mag=    -0.0000
       N       E                     dE             d eps       ncg     rms          ort
SDA:   1    -0.995841675245E+03    0.48575E-02    0.00000E+00  2880   0.121E-01 0.000E+00
CGA:   2    -0.995846035882E+03   -0.43606E-02   -0.43571E-02  2880   0.252E-02 0.122E-03
CGA:   3    -0.995846727677E+03   -0.69179E-03   -0.69001E-03  2880   0.402E-03-0.296E-04
CGA:   4    -0.995846854861E+03   -0.12718E-03   -0.12639E-03  2880   0.981E-04-0.801E-04
CGA:   5    -0.995846873285E+03   -0.18425E-04   -0.19286E-04  2880   0.173E-04 0.105E-04
CGA:   6    -0.995846875103E+03   -0.18178E-05   -0.32432E-05  2880   0.688E-05 0.924E-05
  36 F= -.99584688E+03 E0= -.99584688E+03  d E =-.339857E-03  mag=     0.0000
       N       E                     dE             d eps       ncg     rms          ort
SDA:   1    -0.995846527784E+03    0.34550E-03    0.00000E+00  2880   0.651E-03 0.000E+00
CGA:   2    -0.995846751829E+03   -0.22404E-03   -0.22383E-03  2880   0.144E-03 0.887E-05
CGA:   3    -0.995846789181E+03   -0.37353E-04   -0.37404E-04  2880   0.247E-04 0.783E-06
CGA:   4    -0.995846796659E+03   -0.74778E-05   -0.74284E-05  2880   0.489E-05-0.269E-05
  37 F= -.99584680E+03 E0= -.99584680E+03  d E =0.784440E-04  mag=    -0.0000
       N       E                     dE             d eps       ncg     rms          ort
SDA:   1    -0.995841133960E+03    0.56552E-02    0.00000E+00  2880   0.126E-01 0.000E+00
CGA:   2    -0.995845912383E+03   -0.47784E-02   -0.47787E-02  2880   0.248E-02-0.439E-05
CGA:   3    -0.995846513525E+03   -0.60114E-03   -0.60106E-03  2880   0.372E-03-0.123E-05
CGA:   4    -0.995846608250E+03   -0.94725E-04   -0.94999E-04  2880   0.508E-04 0.460E-05
CGA:   5    -0.995846624332E+03   -0.16082E-04   -0.16082E-04  2880   0.980E-05-0.368E-06
CGA:   6    -0.995846627943E+03   -0.36117E-05   -0.36142E-05  2880   0.325E-05-0.426E-07
  38 F= -.99584663E+03 E0= -.99584663E+03  d E =0.168716E-03  mag=    -0.0000
       N       E                     dE             d eps       ncg     rms          ort
SDA:   1    -0.995846497206E+03    0.12713E-03    0.00000E+00  2880   0.341E-03 0.000E+00
CGA:   2    -0.995846621491E+03   -0.12429E-03   -0.12379E-03  2880   0.678E-04 0.115E-04
CGA:   3    -0.995846639916E+03   -0.18425E-04   -0.18294E-04  2880   0.121E-04-0.218E-05
CGA:   4    -0.995846640723E+03   -0.80728E-06   -0.80498E-05  2880   0.410E-04-0.196E-04
  39 F= -.99584664E+03 E0= -.99584664E+03  d E =-.127800E-04  mag=     0.0000
       N       E                     dE             d eps       ncg     rms          ort
SDA:   1    -0.995846459423E+03    0.18049E-03    0.00000E+00  2880   0.298E-03 0.000E+00
CGA:   2    -0.995846566828E+03   -0.10741E-03   -0.10712E-03  2880   0.609E-04 0.908E-05
CGA:   3    -0.995846583249E+03   -0.16420E-04   -0.16298E-04  2880   0.959E-05-0.176E-05
CGA:   4    -0.995846586543E+03   -0.32940E-05   -0.37066E-05  2880   0.628E-05-0.572E-05
  40 F= -.99584659E+03 E0= -.99584659E+03  d E =0.541809E-04  mag=     0.0000
       N       E                     dE             d eps       ncg     rms          ort
SDA:   1    -0.995834236848E+03    0.12346E-01    0.00000E+00  2880   0.275E-01 0.000E+00
CGA:   2    -0.995844805313E+03   -0.10568E-01   -0.10569E-01  2880   0.522E-02-0.466E-05
CGA:   3    -0.995846066070E+03   -0.12608E-02   -0.12606E-02  2880   0.778E-03-0.185E-05
CGA:   4    -0.995846265669E+03   -0.19960E-03   -0.19971E-03  2880   0.109E-03 0.172E-05
CGA:   5    -0.995846299312E+03   -0.33642E-04   -0.33637E-04  2880   0.199E-04-0.728E-06
CGA:   6    -0.995846306421E+03   -0.71091E-05   -0.70724E-05  2880   0.612E-05 0.880E-06
  41 F= -.99584631E+03 E0= -.99584631E+03  d E =0.280122E-03  mag=    -0.0000
       N       E                     dE             d eps       ncg     rms          ort
SDA:   1    -0.995820881125E+03    0.25418E-01    0.00000E+00  2880   0.594E-01 0.000E+00
CGA:   2    -0.995840354175E+03   -0.19473E-01   -0.19473E-01  2880   0.123E-01 0.200E-04
CGA:   3    -0.995843662707E+03   -0.33085E-02   -0.33105E-02  2880   0.212E-02 0.331E-04
CGA:   4    -0.995844252583E+03   -0.58988E-03   -0.58732E-03  2880   0.327E-03-0.534E-04
CGA:   5    -0.995844356860E+03   -0.10428E-03   -0.10430E-03  2880   0.772E-04-0.531E-05
CGA:   6    -0.995844381878E+03   -0.25017E-04   -0.24951E-04  2880   0.199E-04 0.101E-04
CGA:   7    -0.995844392788E+03   -0.10910E-04   -0.12714E-04  2880   0.144E-04-0.747E-05
CGA:   8    -0.995844394952E+03   -0.21639E-05   -0.22337E-05  2880   0.465E-05 0.810E-06
  42 F= -.99584439E+03 E0= -.99584439E+03  d E =0.191147E-02  mag=    -0.0000
       N       E                     dE             d eps       ncg     rms          ort
SDA:   1    -0.994443877886E+03    0.14005E+01    0.00000E+00  2880   0.299E+01 0.000E+00
CGA:   2    -0.995567081468E+03   -0.11232E+01   -0.11234E+01  2880   0.680E+00-0.217E-02
CGA:   3    -0.995733292489E+03   -0.16621E+00   -0.16623E+00  2880   0.933E-01-0.293E-03
CGA:   4    -0.995760297798E+03   -0.27005E-01   -0.27013E-01  2880   0.153E-01 0.264E-03
CGA:   5    -0.995765312061E+03   -0.50143E-02   -0.50141E-02  2880   0.382E-02 0.267E-04
CGA:   6    -0.995766753476E+03   -0.14414E-02   -0.14443E-02  2880   0.126E-02-0.500E-04
CGA:   7    -0.995767230352E+03   -0.47688E-03   -0.47609E-03  2880   0.327E-03 0.131E-04
CGA:   8    -0.995767354788E+03   -0.12444E-03   -0.12469E-03  2880   0.647E-04-0.484E-05
CGA:   9    -0.995767375438E+03   -0.20650E-04   -0.20665E-04  2880   0.108E-04 0.394E-05
CGA:  10    -0.995767380649E+03   -0.52116E-05   -0.64032E-05  2880   0.609E-05-0.513E-05
  43 F= -.99576738E+03 E0= -.99576738E+03  d E =0.770143E-01  mag=    -0.0000
       N       E                     dE             d eps       ncg     rms          ort
SDA:   1    -0.995228901493E+03    0.53847E+00    0.00000E+00  2880   0.140E+01 0.000E+00
CGA:   2    -0.995724932515E+03   -0.49603E+00   -0.49601E+00  2880   0.354E+00 0.297E-03
CGA:   3    -0.995814253744E+03   -0.89321E-01   -0.89337E-01  2880   0.511E-01 0.296E-03
CGA:   4    -0.995829869251E+03   -0.15616E-01   -0.15617E-01  2880   0.869E-02 0.494E-04
CGA:   5    -0.995832809198E+03   -0.29399E-02   -0.29403E-02  2880   0.239E-02-0.415E-04
CGA:   6    -0.995833701221E+03   -0.89202E-03   -0.89196E-03  2880   0.707E-03 0.152E-05
CGA:   7    -0.995833966658E+03   -0.26544E-03   -0.26463E-03  2880   0.174E-03 0.196E-04
CGA:   8    -0.995834031881E+03   -0.65223E-04   -0.65119E-04  2880   0.342E-04 0.361E-05
CGA:   9    -0.995834046468E+03   -0.14587E-04   -0.15488E-04  2880   0.123E-04-0.834E-05
CGA:  10    -0.995834048171E+03   -0.17029E-05   -0.20578E-05  2880   0.318E-05 0.295E-05
  44 F= -.99583405E+03 E0= -.99583405E+03  d E =-.666675E-01  mag=    -0.0000
       N       E                     dE             d eps       ncg     rms          ort
SDA:   1    -0.995752451489E+03    0.81595E-01    0.00000E+00  2880   0.204E+00 0.000E+00
CGA:   2    -0.995826571276E+03   -0.74120E-01   -0.74112E-01  2880   0.496E-01 0.212E-03
CGA:   3    -0.995839069554E+03   -0.12498E-01   -0.12495E-01  2880   0.715E-02-0.537E-04
CGA:   4    -0.995841260172E+03   -0.21906E-02   -0.21886E-02  2880   0.127E-02-0.116E-03
CGA:   5    -0.995841660852E+03   -0.40068E-03   -0.40070E-03  2880   0.323E-03 0.159E-04
CGA:   6    -0.995841776840E+03   -0.11599E-03   -0.11529E-03  2880   0.892E-04 0.238E-04
CGA:   7    -0.995841821001E+03   -0.44160E-04   -0.48196E-04  2880   0.450E-04-0.226E-04
CGA:   8    -0.995841831442E+03   -0.10441E-04   -0.10403E-04  2880   0.939E-05-0.158E-05
CGA:   9    -0.995841832975E+03   -0.15331E-05   -0.19037E-05  2880   0.283E-05 0.303E-05
  45 F= -.99584183E+03 E0= -.99584183E+03  d E =-.778480E-02  mag=     0.0000
       N       E                     dE             d eps       ncg     rms          ort
SDA:   1    -0.995836389939E+03    0.54415E-02    0.00000E+00  2880   0.130E-01 0.000E+00
CGA:   2    -0.995840936617E+03   -0.45467E-02   -0.45434E-02  2880   0.284E-02 0.117E-03
CGA:   3    -0.995841699750E+03   -0.76313E-03   -0.76226E-03  2880   0.447E-03-0.158E-04
CGA:   4    -0.995841841306E+03   -0.14156E-03   -0.14152E-03  2880   0.108E-03-0.868E-04
CGA:   5    -0.995841863599E+03   -0.22293E-04   -0.22719E-04  2880   0.190E-04 0.727E-05
CGA:   6    -0.995841865789E+03   -0.21895E-05   -0.35748E-05  2880   0.724E-05 0.989E-05
  46 F= -.99584187E+03 E0= -.99584187E+03  d E =-.328142E-04  mag=     0.0000
       N       E                     dE             d eps       ncg     rms          ort
SDA:   1    -0.995251859773E+03    0.59000E+00    0.00000E+00  2880   0.132E+01 0.000E+00
CGA:   2    -0.995753417171E+03   -0.50156E+00   -0.50159E+00  2880   0.266E+00-0.400E-03
CGA:   3    -0.995818096975E+03   -0.64680E-01   -0.64681E-01  2880   0.389E-01-0.101E-03
CGA:   4    -0.995828327643E+03   -0.10231E-01   -0.10229E-01  2880   0.573E-02-0.281E-04
CGA:   5    -0.995830126524E+03   -0.17989E-02   -0.17989E-02  2880   0.116E-02-0.209E-06
CGA:   6    -0.995830555357E+03   -0.42883E-03   -0.42784E-03  2880   0.374E-03 0.168E-04
CGA:   7    -0.995830716294E+03   -0.16094E-03   -0.16337E-03  2880   0.126E-03-0.207E-04
CGA:   8    -0.995830760580E+03   -0.44287E-04   -0.44503E-04  2880   0.224E-04-0.393E-05
CGA:   9    -0.995830767392E+03   -0.68115E-05   -0.68280E-05  2880   0.348E-05 0.243E-05
  47 F= -.99583077E+03 E0= -.99583077E+03  d E =0.110984E-01  mag=    -0.0000
       N       E                     dE             d eps       ncg     rms          ort
SDA:   1    -0.992715636994E+03    0.31151E+01    0.00000E+00  2880   0.724E+01 0.000E+00
CGA:   2    -0.995265045295E+03   -0.25494E+01   -0.25492E+01  2880   0.160E+01 0.756E-02
CGA:   3    -0.995663354799E+03   -0.39831E+00   -0.39823E+00  2880   0.256E+00 0.315E-03
CGA:   4    -0.995733585158E+03   -0.70230E-01   -0.70271E-01  2880   0.384E-01 0.610E-03
CGA:   5    -0.995745900458E+03   -0.12315E-01   -0.12315E-01  2880   0.922E-02-0.634E-04
CGA:   6    -0.995749365403E+03   -0.34649E-02   -0.34675E-02  2880   0.307E-02-0.545E-04
CGA:   7    -0.995750521361E+03   -0.11560E-02   -0.11529E-02  2880   0.805E-03 0.688E-04
CGA:   8    -0.995750836955E+03   -0.31559E-03   -0.31510E-03  2880   0.152E-03 0.107E-04
CGA:   9    -0.995750897881E+03   -0.60926E-04   -0.61763E-04  2880   0.341E-04-0.135E-04
CGA:  10    -0.995750907771E+03   -0.98899E-05   -0.99640E-05  2880   0.517E-05 0.360E-05
  48 F= -.99575091E+03 E0= -.99575091E+03  d E =0.798596E-01  mag=    -0.0000
       N       E                     dE             d eps       ncg     rms          ort
SDA:   1    -0.993783409624E+03    0.19675E+01    0.00000E+00  2880   0.491E+01 0.000E+00
CGA:   2    -0.995519470456E+03   -0.17361E+01   -0.17361E+01  2880   0.104E+01-0.335E-03
CGA:   3    -0.995780965217E+03   -0.26149E+00   -0.26155E+00  2880   0.167E+00-0.351E-03
CGA:   4    -0.995826136511E+03   -0.45171E-01   -0.45140E-01  2880   0.243E-01-0.473E-03
CGA:   5    -0.995833913125E+03   -0.77766E-02   -0.77774E-02  2880   0.547E-02 0.713E-04
CGA:   6    -0.995836016145E+03   -0.21030E-02   -0.20999E-02  2880   0.181E-02 0.611E-04
CGA:   7    -0.995836767393E+03   -0.75125E-03   -0.75815E-03  2880   0.565E-03-0.858E-04
CGA:   8    -0.995836970815E+03   -0.20342E-03   -0.20426E-03  2880   0.100E-03-0.202E-04
CGA:   9    -0.995837002767E+03   -0.31952E-04   -0.32017E-04  2880   0.165E-04 0.790E-05
CGA:  10    -0.995837011091E+03   -0.83241E-05   -0.94468E-05  2880   0.736E-05-0.591E-05
  49 F= -.99583701E+03 E0= -.99583701E+03  d E =-.861033E-01  mag=    -0.0000
       N       E                     dE             d eps       ncg     rms          ort
SDA:   1    -0.992751163432E+03    0.30858E+01    0.00000E+00  2880   0.671E+01 0.000E+00
CGA:   2    -0.995111782263E+03   -0.23606E+01   -0.23606E+01  2880   0.158E+01 0.139E-02
CGA:   3    -0.995515707345E+03   -0.40393E+00   -0.40392E+00  2880   0.247E+00-0.220E-03
CGA:   4    -0.995588631352E+03   -0.72924E-01   -0.72912E-01  2880   0.398E-01-0.282E-03
CGA:   5    -0.995601974916E+03   -0.13344E-01   -0.13344E-01  2880   0.108E-01 0.926E-04
CGA:   6    -0.995606024089E+03   -0.40492E-02   -0.40486E-02  2880   0.336E-02 0.182E-04
CGA:   7    -0.995607340564E+03   -0.13165E-02   -0.13187E-02  2880   0.898E-03-0.449E-04
CGA:   8    -0.995607668436E+03   -0.32787E-03   -0.32826E-03  2880   0.171E-03-0.148E-04
CGA:   9    -0.995607727325E+03   -0.58889E-04   -0.58877E-04  2880   0.305E-04 0.294E-05
CGA:  10    -0.995607741245E+03   -0.13920E-04   -0.14615E-04  2880   0.874E-05-0.554E-05
CGA:  11    -0.995607743540E+03   -0.22947E-05   -0.23236E-05  2880   0.174E-05 0.106E-05
  50 F= -.99560774E+03 E0= -.99560774E+03  d E =0.229268E+00  mag=    -0.0000
       N       E                     dE             d eps       ncg     rms          ort
SDA:   1    -0.993554182649E+03    0.20536E+01    0.00000E+00  2880   0.538E+01 0.000E+00
CGA:   2    -0.995449369359E+03   -0.18952E+01   -0.18952E+01  2880   0.126E+01-0.212E-02
CGA:   3    -0.995769210202E+03   -0.31984E+00   -0.31994E+00  2880   0.196E+00 0.272E-03
CGA:   4    -0.995826768662E+03   -0.57558E-01   -0.57580E-01  2880   0.310E-01 0.451E-03
CGA:   5    -0.995837271532E+03   -0.10503E-01   -0.10503E-01  2880   0.847E-02-0.466E-04
CGA:   6    -0.995840434443E+03   -0.31629E-02   -0.31642E-02  2880   0.264E-02-0.369E-04
CGA:   7    -0.995841428983E+03   -0.99454E-03   -0.99259E-03  2880   0.658E-03 0.558E-04
CGA:   8    -0.995841682502E+03   -0.25352E-03   -0.25361E-03  2880   0.130E-03-0.257E-05
CGA:   9    -0.995841730277E+03   -0.47775E-04   -0.47871E-04  2880   0.254E-04-0.390E-05
CGA:  10    -0.995841738777E+03   -0.84997E-05   -0.85036E-05  2880   0.410E-05 0.249E-05
  51 F= -.99584174E+03 E0= -.99584174E+03  d E =-.233995E+00  mag=     0.0000
       N       E                     dE             d eps       ncg     rms          ort
SDA:   1    -0.995840336061E+03    0.13942E-02    0.00000E+00  2880   0.373E-02 0.000E+00
CGA:   2    -0.995841642182E+03   -0.13061E-02   -0.13061E-02  2880   0.837E-03 0.101E-04
CGA:   3    -0.995841854913E+03   -0.21273E-03   -0.21347E-03  2880   0.131E-03 0.750E-05
CGA:   4    -0.995841897139E+03   -0.42226E-04   -0.41798E-04  2880   0.267E-04-0.139E-04
CGA:   5    -0.995841904634E+03   -0.74952E-05   -0.74686E-05  2880   0.595E-05-0.833E-06
  52 F= -.99584190E+03 E0= -.99584190E+03  d E =-.165857E-03  mag=    -0.0000
       N       E                     dE             d eps       ncg     rms          ort
SDA:   1    -0.995827461530E+03    0.14436E-01    0.00000E+00  2880   0.343E-01 0.000E+00
CGA:   2    -0.995840058773E+03   -0.12597E-01   -0.12596E-01  2880   0.694E-02 0.388E-04
CGA:   3    -0.995841769363E+03   -0.17106E-02   -0.17115E-02  2880   0.104E-02 0.105E-04
CGA:   4    -0.995842052520E+03   -0.28316E-03   -0.28106E-03  2880   0.155E-03-0.320E-04
CGA:   5    -0.995842098974E+03   -0.46454E-04   -0.46389E-04  2880   0.302E-04-0.286E-05
CGA:   6    -0.995842107507E+03   -0.85335E-05   -0.87471E-05  2880   0.763E-05 0.613E-05
  53 F= -.99584211E+03 E0= -.99584211E+03  d E =-.202873E-03  mag=    -0.0000
       N       E                     dE             d eps       ncg     rms          ort
SDA:   1    -0.995784685509E+03    0.57413E-01    0.00000E+00  2880   0.133E+00 0.000E+00
CGA:   2    -0.995835406506E+03   -0.50721E-01   -0.50729E-01  2880   0.263E-01-0.201E-03
CGA:   3    -0.995841788121E+03   -0.63816E-02   -0.63868E-02  2880   0.387E-02 0.418E-04
CGA:   4    -0.995842777728E+03   -0.98961E-03   -0.99691E-03  2880   0.548E-03 0.877E-04
CGA:   5    -0.995842954758E+03   -0.17703E-03   -0.17694E-03  2880   0.114E-03-0.458E-05
CGA:   6    -0.995843002138E+03   -0.47381E-04   -0.48865E-04  2880   0.494E-04-0.156E-04
CGA:   7    -0.995843012346E+03   -0.10208E-04   -0.11146E-04  2880   0.125E-04 0.119E-04
CGA:   8    -0.995843015191E+03   -0.28446E-05   -0.34316E-05  2880   0.387E-05 0.512E-05
  54 F= -.99584302E+03 E0= -.99584302E+03  d E =-.907684E-03  mag=     0.0000
       N       E                     dE             d eps       ncg     rms          ort
SDA:   1    -0.995168602079E+03    0.67441E+00    0.00000E+00  2880   0.153E+01 0.000E+00
CGA:   2    -0.995754689041E+03   -0.58609E+00   -0.58607E+00  2880   0.306E+00 0.114E-03
CGA:   3    -0.995827723977E+03   -0.73035E-01   -0.73031E-01  2880   0.453E-01 0.935E-04
CGA:   4    -0.995839641009E+03   -0.11917E-01   -0.11922E-01  2880   0.647E-02 0.664E-04
CGA:   5    -0.995841648922E+03   -0.20079E-02   -0.20074E-02  2880   0.128E-02-0.313E-04
CGA:   6    -0.995842125575E+03   -0.47665E-03   -0.47642E-03  2880   0.421E-03 0.492E-05
CGA:   7    -0.995842292039E+03   -0.16646E-03   -0.16606E-03  2880   0.126E-03 0.613E-05
CGA:   8    -0.995842341341E+03   -0.49302E-04   -0.49264E-04  2880   0.237E-04 0.713E-06
CGA:   9    -0.995842350738E+03   -0.93968E-05   -0.96044E-05  2880   0.529E-05-0.300E-05
  55 F= -.99584235E+03 E0= -.99584235E+03  d E =0.664453E-03  mag=    -0.0000
       N       E                     dE             d eps       ncg     rms          ort
SDA:   1    -0.995594409489E+03    0.24793E+00    0.00000E+00  2880   0.588E+00 0.000E+00
CGA:   2    -0.995799642895E+03   -0.20523E+00   -0.20521E+00  2880   0.127E+00 0.135E-02
CGA:   3    -0.995834487434E+03   -0.34845E-01   -0.34822E-01  2880   0.205E-01-0.300E-03
CGA:   4    -0.995840179292E+03   -0.56919E-02   -0.56626E-02  2880   0.331E-02-0.541E-03
CGA:   5    -0.995841224602E+03   -0.10453E-02   -0.10454E-02  2880   0.838E-03 0.331E-04
CGA:   6    -0.995841525437E+03   -0.30083E-03   -0.29877E-03  2880   0.236E-03 0.838E-04
CGA:   7    -0.995841651809E+03   -0.12637E-03   -0.16277E-03  2880   0.211E-03-0.122E-03
CGA:   8    -0.995841688376E+03   -0.36567E-04   -0.42045E-04  2880   0.173E-04 0.376E-04
CGA:   9    -0.995841692912E+03   -0.45367E-05   -0.50046E-05  2880   0.417E-05 0.510E-05
  56 F= -.99584169E+03 E0= -.99584169E+03  d E =0.657826E-03  mag=     0.0000
       N       E                     dE             d eps       ncg     rms          ort
SDA:   1    -0.995609527661E+03    0.23216E+00    0.00000E+00  2880   0.550E+00 0.000E+00
CGA:   2    -0.995810316404E+03   -0.20079E+00   -0.20083E+00  2880   0.117E+00-0.115E-02
CGA:   3    -0.995839648279E+03   -0.29332E-01   -0.29352E-01  2880   0.174E-01 0.153E-03
CGA:   4    -0.995844160873E+03   -0.45126E-02   -0.45369E-02  2880   0.246E-02 0.349E-03
CGA:   5    -0.995844966832E+03   -0.80596E-03   -0.80600E-03  2880   0.559E-03 0.716E-05
CGA:   6    -0.995845197270E+03   -0.23044E-03   -0.23707E-03  2880   0.237E-03-0.689E-04
CGA:   7    -0.995845254459E+03   -0.57188E-04   -0.59259E-04  2880   0.553E-04 0.453E-04
CGA:   8    -0.995845269326E+03   -0.14867E-04   -0.16423E-04  2880   0.159E-04 0.196E-04
CGA:   9    -0.995845277362E+03   -0.80366E-05   -0.81495E-05  2880   0.522E-05-0.211E-05
  57 F= -.99584528E+03 E0= -.99584528E+03  d E =-.358445E-02  mag=    -0.0000
       N       E                     dE             d eps       ncg     rms          ort
SDA:   1    -0.995830773622E+03    0.14496E-01    0.00000E+00  2880   0.348E-01 0.000E+00
CGA:   2    -0.995842793499E+03   -0.12020E-01   -0.12026E-01  2880   0.765E-02-0.317E-03
CGA:   3    -0.995844896163E+03   -0.21027E-02   -0.21059E-02  2880   0.124E-02 0.622E-04
CGA:   4    -0.995845189363E+03   -0.29320E-03   -0.30586E-03  2880   0.164E-03 0.155E-03
CGA:   5    -0.995845253605E+03   -0.64243E-04   -0.63945E-04  2880   0.537E-04 0.127E-04
CGA:   6    -0.995845277935E+03   -0.24329E-04   -0.39680E-04  2880   0.774E-04-0.423E-04
CGA:   7    -0.995845284938E+03   -0.70034E-05   -0.12040E-04  2880   0.130E-04 0.271E-04
  58 F= -.99584528E+03 E0= -.99584528E+03  d E =-.757588E-05  mag=    -0.0000
       N       E                     dE             d eps       ncg     rms          ort
SDA:   1    -0.995841385857E+03    0.38921E-02    0.00000E+00  2880   0.102E-01 0.000E+00
CGA:   2    -0.995844808242E+03   -0.34224E-02   -0.34203E-02  2880   0.219E-02 0.171E-03
CGA:   3    -0.995845472681E+03   -0.66444E-03   -0.66372E-03  2880   0.391E-03-0.294E-04
CGA:   4    -0.995845607982E+03   -0.13530E-03   -0.14163E-03  2880   0.143E-03-0.136E-03
CGA:   5    -0.995845627002E+03   -0.19020E-04   -0.20891E-04  2880   0.349E-04 0.190E-04
CGA:   6    -0.995845629198E+03   -0.21961E-05   -0.54619E-05  2880   0.141E-04 0.181E-04
  59 F= -.99584563E+03 E0= -.99584563E+03  d E =-.344260E-03  mag=     0.0000
