       N       E                     dE             d eps       ncg     rms          ort
DAV:   1     0.112923202986E+05    0.11292E+05   -0.46682E+05  8540   0.170E+03
DAV:   2     0.798067847772E+02   -0.11213E+05   -0.10206E+05  8540   0.487E+02
DAV:   3    -0.154377115500E+04   -0.16236E+04   -0.15381E+04  8540   0.197E+02
DAV:   4    -0.162694320258E+04   -0.83172E+02   -0.82053E+02  8540   0.454E+01
DAV:   5    -0.162798557545E+04   -0.10424E+01   -0.10395E+01  8540   0.554E+00
SDA:   6    -0.792690604522E+03    0.83529E+03   -0.10395E+01  8540   0.285E+04 0.000E+00
CGA:   7    -0.119813703432E+04   -0.40545E+03   -0.40144E+03  8540   0.296E+03 0.405E+02
CGA:   8    -0.125230742028E+04   -0.54170E+02   -0.54352E+02  8540   0.650E+02 0.645E+01
CGA:   9    -0.127364553924E+04   -0.21338E+02   -0.21394E+02  8540   0.366E+02-0.356E+00
CGA:  10    -0.128200143089E+04   -0.83559E+01   -0.83552E+01  8540   0.991E+01-0.249E+00
CGA:  11    -0.128444849589E+04   -0.24471E+01   -0.24738E+01  8540   0.259E+01-0.565E+00
CGA:  12    -0.128504188761E+04   -0.59339E+00   -0.59944E+00  8540   0.741E+00-0.155E+00
CGA:  13    -0.128523151887E+04   -0.18963E+00   -0.18915E+00  8540   0.235E+00 0.694E-02
CGA:  14    -0.128530567731E+04   -0.74158E-01   -0.75363E-01  8540   0.929E-01-0.119E-01
CGA:  15    -0.128532415331E+04   -0.18476E-01   -0.58193E-01  8540   0.163E+00-0.905E-01
CGA:  16    -0.128536032221E+04   -0.36169E-01   -0.36297E-01  8540   0.239E-01 0.809E-02
CGA:  17    -0.128536579743E+04   -0.54752E-02   -0.16400E-01  8540   0.523E-01-0.263E-01
CGA:  18    -0.128537474550E+04   -0.89481E-02   -0.92890E-02  8540   0.625E-02 0.433E-02
CGA:  19    -0.128537700202E+04   -0.22565E-02   -0.33055E-02  8540   0.526E-02-0.449E-02
CGA:  20    -0.128537863625E+04   -0.16342E-02   -0.17467E-02  8540   0.241E-02-0.171E-02
CGA:  21    -0.128536628423E+04    0.12352E-01   -0.67303E-02  8540   0.950E-01-0.103E-01
CGA:  22    -0.128538125825E+04   -0.14974E-01   -0.14678E-01  8540   0.462E-02 0.126E-02
CGA:  23    -0.128538352028E+04   -0.22620E-02   -0.23088E-02  8540   0.183E-02-0.261E-02
CGA:  24    -0.128538348500E+04    0.35284E-04   -0.25318E-03  8540   0.452E-03 0.855E-03
CGA:  25    -0.128538343323E+04    0.51762E-04   -0.68586E-04  8540   0.143E-03 0.338E-03
CGA:  26    -0.128538346989E+04   -0.36659E-04   -0.40969E-04  8540   0.143E-04 0.279E-04
CGA:  27    -0.128538346400E+04    0.58882E-05   -0.45530E-06  8540   0.120E-04 0.156E-04
   1 F= -.12853835E+04 E0= -.12853835E+04  d E =-.128538E+04  mag=   126.0000
       N       E                     dE             d eps       ncg     rms          ort
SDA:   1    -0.128538522456E+04   -0.17547E-02    0.00000E+00  8540   0.216E-02 0.000E+00
CGA:   2    -0.128538571727E+04   -0.49270E-03   -0.49320E-03  8540   0.100E-02 0.211E-05
CGA:   3    -0.128538594333E+04   -0.22606E-03   -0.22718E-03  8540   0.213E-03 0.654E-05
CGA:   4    -0.128538601514E+04   -0.71813E-04   -0.64005E-04  8540   0.120E-03-0.989E-04
CGA:   5    -0.128538603361E+04   -0.18474E-04   -0.14533E-04  8540   0.448E-04-0.267E-04
CGA:   6    -0.128538603683E+04   -0.32150E-05   -0.52750E-05  8540   0.165E-04 0.957E-05
   2 F= -.12853860E+04 E0= -.12853860E+04  d E =-.257282E-02  mag=   126.0000
       N       E                     dE             d eps       ncg     rms          ort
SDA:   1    -0.128495523999E+04    0.43079E+00    0.00000E+00  8540   0.132E+01 0.000E+00
CGA:   2    -0.128526615941E+04   -0.31092E+00   -0.31105E+00  8540   0.619E+00 0.523E-03
CGA:   3    -0.128540526556E+04   -0.13911E+00   -0.13897E+00  8540   0.131E+00-0.151E-02
CGA:   4    -0.128543219373E+04   -0.26928E-01   -0.26776E-01  8540   0.241E-01-0.120E-02
CGA:   5    -0.128543718917E+04   -0.49954E-02   -0.50059E-02  8540   0.550E-02 0.809E-04
CGA:   6    -0.128543848528E+04   -0.12961E-02   -0.13016E-02  8540   0.150E-02 0.617E-04
CGA:   7    -0.128543897874E+04   -0.49346E-03   -0.49726E-03  8540   0.766E-03-0.371E-03
CGA:   8    -0.128543916199E+04   -0.18325E-03   -0.28759E-03  8540   0.102E-02-0.577E-03
CGA:   9    -0.128543936730E+04   -0.20531E-03   -0.19829E-03  8540   0.180E-03-0.537E-04
CGA:  10    -0.128543943226E+04   -0.64962E-04   -0.70330E-04  8540   0.901E-04-0.586E-04
CGA:  11    -0.128543950350E+04   -0.71244E-04    0.12239E-04  8540   0.276E-04-0.869E-05
CGA:  12    -0.128543955045E+04   -0.46949E-04    0.21252E-05  8540   0.932E-05 0.301E-05
CGA:  13    -0.128543958978E+04   -0.39328E-04    0.34476E-06  8540   0.412E-05 0.205E-05
CGA:  14    -0.128543961867E+04   -0.28886E-04    0.10408E-06  8540   0.180E-05 0.139E-05
CGA:  15    -0.128543964371E+04   -0.25042E-04    0.25967E-07  8540   0.119E-05 0.113E-05
CGA:  16    -0.128543965573E+04   -0.12023E-04    0.13309E-07  8540   0.531E-06 0.501E-06
CGA:  17    -0.128543966859E+04   -0.12864E-04    0.48390E-08  8540   0.377E-06 0.478E-06
CGA:  18    -0.128543967642E+04   -0.78233E-05    0.19771E-08  8540   0.252E-06 0.257E-06
   3 F= -.12854397E+04 E0= -.12854397E+04  d E =-.536396E-01  mag=   126.0000
       N       E                     dE             d eps       ncg     rms          ort
SDA:   1    -0.128040950517E+04    0.50302E+01    0.00000E+00  8540   0.133E+02 0.000E+00
CGA:   2    -0.128382034145E+04   -0.34108E+01   -0.34113E+01  8540   0.651E+01-0.308E-03
CGA:   3    -0.128517575720E+04   -0.13554E+01   -0.13555E+01  8540   0.128E+01-0.828E-03
CGA:   4    -0.128543722283E+04   -0.26147E+00   -0.26147E+00  8540   0.230E+00-0.565E-03
CGA:   5    -0.128548600847E+04   -0.48786E-01   -0.48848E-01  8540   0.536E-01 0.534E-03
CGA:   6    -0.128549894980E+04   -0.12941E-01   -0.12931E-01  8540   0.154E-01-0.188E-03
CGA:   7    -0.128550330649E+04   -0.43567E-02   -0.43371E-02  8540   0.557E-02-0.104E-02
CGA:   8    -0.128550506348E+04   -0.17570E-02   -0.17979E-02  8540   0.258E-02-0.902E-03
CGA:   9    -0.128550587678E+04   -0.81330E-03   -0.93377E-03  8540   0.167E-02-0.937E-03
CGA:  10    -0.128550621167E+04   -0.33489E-03   -0.58601E-03  8540   0.177E-02-0.105E-02
CGA:  11    -0.128550667178E+04   -0.46011E-03   -0.45012E-03  8540   0.446E-03-0.148E-03
CGA:  12    -0.128550680604E+04   -0.13426E-03   -0.29350E-03  8540   0.888E-03-0.399E-03
CGA:  13    -0.128550702167E+04   -0.21563E-03   -0.20823E-03  8540   0.107E-03-0.716E-04
CGA:  14    -0.128550706062E+04   -0.38950E-04   -0.52206E-04  8540   0.824E-04-0.664E-04
CGA:  15    -0.128550713478E+04   -0.74162E-04    0.45422E-04  8540   0.391E-04-0.366E-04
CGA:  16    -0.128550715277E+04   -0.17985E-04    0.18189E-04  8540   0.146E-04-0.321E-05
CGA:  17    -0.128550718865E+04   -0.35879E-04    0.79350E-06  8540   0.638E-05-0.114E-05
CGA:  18    -0.128550721978E+04   -0.31128E-04    0.15010E-06  8540   0.235E-05 0.138E-05
CGA:  19    -0.128550723608E+04   -0.16309E-04    0.66931E-07  8540   0.137E-05 0.206E-06
CGA:  20    -0.128550725817E+04   -0.22083E-04    0.12364E-07  8540   0.827E-06 0.665E-06
CGA:  21    -0.128550727935E+04   -0.21186E-04    0.87447E-08  8540   0.325E-06 0.320E-06
CGA:  22    -0.128550728852E+04   -0.91641E-05    0.26984E-08  8540   0.208E-06 0.122E-06
   4 F= -.12855073E+04 E0= -.12855073E+04  d E =-.676121E-01  mag=   126.0000
       N       E                     dE             d eps       ncg     rms          ort
SDA:   1    -0.128512890011E+04    0.37838E+00    0.00000E+00  8540   0.104E+01 0.000E+00
CGA:   2    -0.128537920628E+04   -0.25031E+00   -0.25027E+00  8540   0.506E+00-0.866E-03
CGA:   3    -0.128548908986E+04   -0.10988E+00   -0.10992E+00  8540   0.102E+00 0.116E-03
CGA:   4    -0.128550937355E+04   -0.20284E-01   -0.20349E-01  8540   0.182E-01 0.474E-03
CGA:   5    -0.128551328443E+04   -0.39109E-02   -0.39222E-02  8540   0.428E-02 0.965E-04
CGA:   6    -0.128551435767E+04   -0.10732E-02   -0.10588E-02  8540   0.125E-02-0.197E-03
CGA:   7    -0.128551471238E+04   -0.35471E-03   -0.35096E-03  8540   0.469E-03-0.170E-03
CGA:   8    -0.128551482571E+04   -0.11333E-03   -0.11274E-03  8540   0.143E-03-0.161E-04
CGA:   9    -0.128551487322E+04   -0.47506E-04   -0.48016E-04  8540   0.557E-04-0.148E-04
CGA:  10    -0.128551484212E+04    0.31098E-04   -0.52583E-04  8540   0.360E-03-0.113E-03
CGA:  11    -0.128551491951E+04   -0.77392E-04   -0.77118E-04  8540   0.398E-04-0.205E-05
CGA:  12    -0.128551493631E+04   -0.16795E-04   -0.19650E-04  8540   0.269E-04-0.189E-04
CGA:  13    -0.128551494849E+04   -0.12182E-04    0.11080E-04  8540   0.107E-04-0.428E-05
CGA:  14    -0.128551493518E+04    0.13305E-04   -0.11975E-04  8540   0.890E-04-0.260E-04
CGA:  15    -0.128551496833E+04   -0.33147E-04   -0.31838E-04  8540   0.284E-04-0.301E-04
CGA:  16    -0.128551496662E+04    0.17098E-05   -0.17118E-05  8540   0.132E-04 0.111E-04
   5 F= -.12855150E+04 E0= -.12855150E+04  d E =-.767810E-02  mag=   126.0000
       N       E                     dE             d eps       ncg     rms          ort
SDA:   1    -0.128442454056E+04    0.10904E+01    0.00000E+00  8540   0.277E+01 0.000E+00
CGA:   2    -0.128519698705E+04   -0.77245E+00   -0.77235E+00  8540   0.135E+01-0.205E-02
CGA:   3    -0.128546195299E+04   -0.26497E+00   -0.26517E+00  8540   0.236E+00 0.943E-03
CGA:   4    -0.128551032963E+04   -0.48377E-01   -0.48595E-01  8540   0.438E-01 0.141E-02
CGA:   5    -0.128551967332E+04   -0.93437E-02   -0.93501E-02  8540   0.101E-01 0.353E-04
CGA:   6    -0.128552221235E+04   -0.25390E-02   -0.25051E-02  8540   0.301E-02-0.364E-03
CGA:   7    -0.128552298190E+04   -0.76955E-03   -0.76625E-03  8540   0.944E-03-0.462E-04
CGA:   8    -0.128552323058E+04   -0.24869E-03   -0.25394E-03  8540   0.288E-03 0.882E-04
CGA:   9    -0.128552332796E+04   -0.97380E-04   -0.98028E-04  8540   0.100E-03 0.352E-04
CGA:  10    -0.128552336941E+04   -0.41443E-04   -0.41465E-04  8540   0.451E-04-0.660E-06
CGA:  11    -0.128552338887E+04   -0.19460E-04   -0.21733E-04  8540   0.335E-04-0.149E-04
CGA:  12    -0.128552339548E+04   -0.66130E-05   -0.66956E-05  8540   0.154E-04 0.197E-05
   6 F= -.12855234E+04 E0= -.12855234E+04  d E =-.842886E-02  mag=   126.0000
       N       E                     dE             d eps       ncg     rms          ort
SDA:   1    -0.128509190393E+04    0.43148E+00    0.00000E+00  8540   0.111E+01 0.000E+00
CGA:   2    -0.128539772251E+04   -0.30582E+00   -0.30589E+00  8540   0.538E+00 0.594E-03
CGA:   3    -0.128550247082E+04   -0.10475E+00   -0.10469E+00  8540   0.950E-01-0.498E-03
CGA:   4    -0.128552218891E+04   -0.19718E-01   -0.19725E-01  8540   0.179E-01 0.424E-04
CGA:   5    -0.128552596153E+04   -0.37726E-02   -0.37779E-02  8540   0.407E-02 0.425E-04
CGA:   6    -0.128552694192E+04   -0.98038E-03   -0.97707E-03  8540   0.117E-02-0.419E-04
CGA:   7    -0.128552724368E+04   -0.30176E-03   -0.30221E-03  8540   0.364E-03 0.829E-05
CGA:   8    -0.128552735598E+04   -0.11230E-03   -0.11228E-03  8540   0.132E-03-0.305E-05
CGA:   9    -0.128552740325E+04   -0.47266E-04   -0.47925E-04  8540   0.523E-04-0.122E-04
CGA:  10    -0.128552741621E+04   -0.12958E-04   -0.13199E-04  8540   0.147E-04 0.641E-05
CGA:  11    -0.128552742177E+04   -0.55652E-05   -0.55437E-05  8540   0.629E-05 0.942E-06
   7 F= -.12855274E+04 E0= -.12855274E+04  d E =-.402629E-02  mag=   126.0000
       N       E                     dE             d eps       ncg     rms          ort
SDA:   1    -0.128474738790E+04    0.78003E+00    0.00000E+00  8540   0.201E+01 0.000E+00
CGA:   2    -0.128529123790E+04   -0.54385E+00   -0.54398E+00  8540   0.953E+00 0.747E-03
CGA:   3    -0.128548218965E+04   -0.19095E+00   -0.19094E+00  8540   0.175E+00-0.133E-03
CGA:   4    -0.128551823297E+04   -0.36043E-01   -0.36042E-01  8540   0.323E-01-0.353E-04
CGA:   5    -0.128552513322E+04   -0.69002E-02   -0.69037E-02  8540   0.751E-02 0.243E-04
CGA:   6    -0.128552690637E+04   -0.17732E-02   -0.17767E-02  8540   0.207E-02 0.427E-04
CGA:   7    -0.128552743323E+04   -0.52686E-03   -0.52999E-03  8540   0.628E-03 0.540E-04
CGA:   8    -0.128552763596E+04   -0.20273E-03   -0.20278E-03  8540   0.240E-03-0.100E-04
CGA:   9    -0.128552772478E+04   -0.88818E-04   -0.92219E-04  8540   0.116E-03-0.422E-04
CGA:  10    -0.128552775323E+04   -0.28449E-04   -0.28493E-04  8540   0.360E-04 0.263E-05
CGA:  11    -0.128552776679E+04   -0.13566E-04   -0.13739E-04  8540   0.175E-04-0.294E-05
CGA:  12    -0.128552777320E+04   -0.64051E-05   -0.11405E-04  8540   0.317E-04-0.127E-04
   8 F= -.12855278E+04 E0= -.12855278E+04  d E =-.351429E-03  mag=   126.0000
       N       E                     dE             d eps       ncg     rms          ort
SDA:   1    -0.128323154294E+04    0.22962E+01    0.00000E+00  8540   0.569E+01 0.000E+00
CGA:   2    -0.128487463955E+04   -0.16431E+01   -0.16432E+01  8540   0.272E+01 0.434E-03
CGA:   3    -0.128539015901E+04   -0.51552E+00   -0.51535E+00  8540   0.474E+00-0.172E-02
CGA:   4    -0.128548886721E+04   -0.98708E-01   -0.98632E-01  8540   0.865E-01-0.685E-03
CGA:   5    -0.128550723291E+04   -0.18366E-01   -0.18388E-01  8540   0.201E-01 0.197E-03
CGA:   6    -0.128551202542E+04   -0.47925E-02   -0.48015E-02  8540   0.539E-02 0.119E-03
CGA:   7    -0.128551348412E+04   -0.14587E-02   -0.14559E-02  8540   0.180E-02-0.711E-04
CGA:   8    -0.128551407601E+04   -0.59189E-03   -0.59655E-03  8540   0.770E-03-0.162E-03
CGA:   9    -0.128551433381E+04   -0.25779E-03   -0.27109E-03  8540   0.355E-03-0.169E-03
CGA:  10    -0.128551443350E+04   -0.99693E-04   -0.10521E-03  8540   0.148E-03-0.820E-04
CGA:  11    -0.128551447981E+04   -0.46307E-04   -0.58903E-04  8540   0.117E-03-0.625E-04
CGA:  12    -0.128551452655E+04   -0.46747E-04    0.18713E-03  8540   0.531E-04 0.547E-05
CGA:  13    -0.128551454708E+04   -0.20529E-04   -0.36288E-04  8540   0.980E-04-0.483E-04
CGA:  14    -0.128551457273E+04   -0.25653E-04   -0.25516E-04  8540   0.844E-05-0.168E-05
CGA:  15    -0.128551457519E+04   -0.24562E-05   -0.25037E-05  8540   0.192E-05 0.130E-05
   9 F= -.12855146E+04 E0= -.12855146E+04  d E =0.131980E-01  mag=   126.0000
       N       E                     dE             d eps       ncg     rms          ort
SDA:   1    -0.128080949582E+04    0.47051E+01    0.00000E+00  8540   0.116E+02 0.000E+00
CGA:   2    -0.128419440190E+04   -0.33849E+01   -0.33851E+01  8540   0.541E+01-0.195E-02
CGA:   3    -0.128522689410E+04   -0.10325E+01   -0.10327E+01  8540   0.916E+00 0.184E-02
CGA:   4    -0.128541873537E+04   -0.19184E+00   -0.19198E+00  8540   0.166E+00 0.122E-02
CGA:   5    -0.128545473848E+04   -0.36003E-01   -0.35990E-01  8540   0.394E-01-0.170E-03
CGA:   6    -0.128546430315E+04   -0.95647E-02   -0.95519E-02  8540   0.107E-01-0.195E-03
CGA:   7    -0.128546705351E+04   -0.27504E-02   -0.27596E-02  8540   0.345E-02 0.184E-03
CGA:   8    -0.128546811598E+04   -0.10625E-02   -0.10627E-02  8540   0.122E-02 0.149E-03
CGA:   9    -0.128546856838E+04   -0.45240E-03   -0.45440E-03  8540   0.482E-03-0.389E-04
CGA:  10    -0.128546872650E+04   -0.15812E-03   -0.15809E-03  8540   0.166E-03 0.625E-06
CGA:  11    -0.128546878025E+04   -0.53748E-04   -0.53429E-04  8540   0.637E-04 0.262E-04
CGA:  12    -0.128546880480E+04   -0.24547E-04   -0.24128E-04  8540   0.337E-04 0.238E-04
CGA:  13    -0.128546881561E+04   -0.10813E-04   -0.12083E-04  8540   0.204E-04 0.258E-04
CGA:  14    -0.128546882191E+04   -0.63056E-05   -0.62945E-05  8540   0.107E-04 0.113E-04
  10 F= -.12854688E+04 E0= -.12854688E+04  d E =0.457533E-01  mag=   126.0000
       N       E                     dE             d eps       ncg     rms          ort
SDA:   1    -0.128437443772E+04    0.10944E+01    0.00000E+00  8540   0.289E+01 0.000E+00
CGA:   2    -0.128512191885E+04   -0.74748E+00   -0.74754E+00  8540   0.138E+01-0.736E-04
CGA:   3    -0.128540613200E+04   -0.28421E+00   -0.28413E+00  8540   0.254E+00-0.115E-02
CGA:   4    -0.128545890716E+04   -0.52775E-01   -0.52756E-01  8540   0.480E-01-0.214E-03
CGA:   5    -0.128546921006E+04   -0.10303E-01   -0.10290E-01  8540   0.110E-01-0.160E-03
CGA:   6    -0.128547188130E+04   -0.26712E-02   -0.26578E-02  8540   0.317E-02-0.250E-03
CGA:   7    -0.128547273528E+04   -0.85398E-03   -0.85124E-03  8540   0.106E-02-0.141E-03
CGA:   8    -0.128547303478E+04   -0.29949E-03   -0.29959E-03  8540   0.358E-03-0.283E-04
CGA:   9    -0.128547316259E+04   -0.12782E-03   -0.13286E-03  8540   0.160E-03-0.572E-04
CGA:  10    -0.128547318226E+04   -0.19667E-04   -0.99481E-04  8540   0.393E-03-0.181E-03
CGA:  11    -0.128547326474E+04   -0.82483E-04   -0.83099E-04  8540   0.474E-04 0.559E-05
CGA:  12    -0.128547327906E+04   -0.14319E-04   -0.36150E-04  8540   0.106E-03-0.500E-04
CGA:  13    -0.128547330374E+04   -0.24677E-04   -0.24770E-04  8540   0.118E-04 0.890E-06
CGA:  14    -0.128547331619E+04   -0.12449E-04    0.33665E-05  8540   0.257E-05-0.319E-06
CGA:  15    -0.128547331674E+04   -0.55628E-06   -0.64950E-06  8540   0.136E-05 0.129E-05
  11 F= -.12854733E+04 E0= -.12854733E+04  d E =-.449483E-02  mag=   126.0000
       N       E                     dE             d eps       ncg     rms          ort
SDA:   1    -0.128136140510E+04    0.41119E+01    0.00000E+00  8540   0.115E+02 0.000E+00
CGA:   2    -0.128395613004E+04   -0.25947E+01   -0.25965E+01  8540   0.515E+01 0.510E-02
CGA:   3    -0.128512659115E+04   -0.11705E+01   -0.11708E+01  8540   0.110E+01 0.271E-02
CGA:   4    -0.128535319415E+04   -0.22660E+00   -0.22675E+00  8540   0.201E+00 0.105E-02
CGA:   5    -0.128539658813E+04   -0.43394E-01   -0.43439E-01  8540   0.474E-01 0.383E-03
CGA:   6    -0.128540789822E+04   -0.11310E-01   -0.11322E-01  8540   0.127E-01 0.166E-03
CGA:   7    -0.128541117824E+04   -0.32800E-02   -0.32953E-02  8540   0.376E-02 0.327E-03
CGA:   8    -0.128541224914E+04   -0.10709E-02   -0.10760E-02  8540   0.117E-02 0.221E-03
CGA:   9    -0.128541263419E+04   -0.38505E-03   -0.38397E-03  8540   0.393E-03 0.126E-03
CGA:  10    -0.128541274360E+04   -0.10941E-03   -0.11436E-03  8540   0.133E-03 0.130E-03
CGA:  11    -0.128541277397E+04   -0.30364E-04   -0.37526E-04  8540   0.575E-04 0.816E-04
CGA:  12    -0.128541278415E+04   -0.10181E-04   -0.12751E-04  8540   0.301E-04 0.351E-04
CGA:  13    -0.128541278450E+04   -0.35178E-06   -0.43229E-05  8540   0.247E-04 0.269E-04
  12 F= -.12854128E+04 E0= -.12854128E+04  d E =0.605322E-01  mag=   126.0000
       N       E                     dE             d eps       ncg     rms          ort
SDA:   1    -0.128400722792E+04    0.14056E+01    0.00000E+00  8540   0.443E+01 0.000E+00
CGA:   2    -0.128490827168E+04   -0.90104E+00   -0.90170E+00  8540   0.178E+01 0.546E-02
CGA:   3    -0.128535010800E+04   -0.44184E+00   -0.44183E+00  8540   0.446E+00-0.147E-02
CGA:   4    -0.128544245392E+04   -0.92346E-01   -0.92216E-01  8540   0.818E-01-0.211E-02
CGA:   5    -0.128546004350E+04   -0.17590E-01   -0.17581E-01  8540   0.192E-01-0.195E-03
CGA:   6    -0.128546453132E+04   -0.44878E-02   -0.44868E-02  8540   0.505E-02-0.403E-04
CGA:   7    -0.128546590465E+04   -0.13733E-02   -0.13750E-02  8540   0.162E-02-0.194E-03
CGA:   8    -0.128546637921E+04   -0.47456E-03   -0.48451E-03  8540   0.618E-03-0.218E-03
CGA:   9    -0.128546656986E+04   -0.19064E-03   -0.22668E-03  8540   0.395E-03-0.231E-03
CGA:  10    -0.128546665033E+04   -0.80478E-04   -0.11021E-03  8540   0.257E-03-0.174E-03
CGA:  11    -0.128546668660E+04   -0.36270E-04   -0.79563E-04  8540   0.242E-03-0.160E-03
CGA:  12    -0.128546676534E+04   -0.78735E-04   -0.81246E-04  8540   0.107E-03-0.650E-04
CGA:  13    -0.128546679320E+04   -0.27862E-04   -0.27851E-04  8540   0.295E-04 0.166E-06
CGA:  14    -0.128546679728E+04   -0.40776E-05   -0.24991E-04  8540   0.836E-04-0.385E-04
CGA:  15    -0.128546681142E+04   -0.14145E-04   -0.16535E-04  8540   0.594E-05 0.183E-04
CGA:  16    -0.128546681909E+04   -0.76714E-05    0.18035E-05  8540   0.149E-05-0.176E-05
  13 F= -.12854668E+04 E0= -.12854668E+04  d E =-.540346E-01  mag=   126.0000
       N       E                     dE             d eps       ncg     rms          ort
SDA:   1    -0.128543866278E+04    0.28149E-01    0.00000E+00  8540   0.792E-01 0.000E+00
CGA:   2    -0.128545543987E+04   -0.16777E-01   -0.16781E-01  8540   0.339E-01 0.746E-06
CGA:   3    -0.128546366455E+04   -0.82247E-02   -0.82160E-02  8540   0.792E-02-0.137E-03
CGA:   4    -0.128546529202E+04   -0.16275E-02   -0.16219E-02  8540   0.141E-02-0.535E-04
CGA:   5    -0.128546560175E+04   -0.30972E-03   -0.30844E-03  8540   0.343E-03-0.153E-04
CGA:   6    -0.128546568254E+04   -0.80794E-04   -0.80390E-04  8540   0.906E-04-0.621E-05
CGA:   7    -0.128546570877E+04   -0.26227E-04   -0.26157E-04  8540   0.344E-04-0.120E-04
CGA:   8    -0.128546571863E+04   -0.98645E-05   -0.10406E-04  8540   0.183E-04-0.110E-04
  14 F= -.12854657E+04 E0= -.12854657E+04  d E =0.110046E-02  mag=   126.0000
       N       E                     dE             d eps       ncg     rms          ort
SDA:   1    -0.128530924532E+04    0.15646E+00    0.00000E+00  8540   0.387E+00 0.000E+00
CGA:   2    -0.128540320786E+04   -0.93963E-01   -0.93947E-01  8540   0.184E+00-0.360E-03
CGA:   3    -0.128544303105E+04   -0.39823E-01   -0.39816E-01  8540   0.355E-01-0.138E-03
CGA:   4    -0.128545026095E+04   -0.72299E-02   -0.72372E-02  8540   0.655E-02 0.602E-04
CGA:   5    -0.128545165559E+04   -0.13946E-02   -0.13945E-02  8540   0.163E-02-0.362E-05
CGA:   6    -0.128545203106E+04   -0.37547E-03   -0.37521E-03  8540   0.446E-03-0.404E-05
CGA:   7    -0.128545214680E+04   -0.11574E-03   -0.11557E-03  8540   0.137E-03-0.435E-05
CGA:   8    -0.128545218853E+04   -0.41731E-04   -0.41785E-04  8540   0.471E-04-0.450E-05
CGA:   9    -0.128545220410E+04   -0.15566E-04   -0.15631E-04  8540   0.171E-04-0.147E-05
CGA:  10    -0.128545221060E+04   -0.65043E-05   -0.94515E-05  8540   0.196E-04-0.109E-04
  15 F= -.12854522E+04 E0= -.12854522E+04  d E =0.135080E-01  mag=   126.0000
       N       E                     dE             d eps       ncg     rms          ort
SDA:   1    -0.128536731627E+04    0.84888E-01    0.00000E+00  8540   0.194E+00 0.000E+00
CGA:   2    -0.128541735508E+04   -0.50039E-01   -0.50032E-01  8540   0.902E-01-0.200E-03
CGA:   3    -0.128543597953E+04   -0.18624E-01   -0.18626E-01  8540   0.171E-01-0.109E-04
CGA:   4    -0.128543956323E+04   -0.35837E-02   -0.35942E-02  8540   0.295E-02 0.110E-03
CGA:   5    -0.128544020116E+04   -0.63793E-03   -0.64003E-03  8540   0.681E-03 0.243E-04
CGA:   6    -0.128544036780E+04   -0.16664E-03   -0.16743E-03  8540   0.183E-03 0.154E-04
CGA:   7    -0.128544041630E+04   -0.48501E-04   -0.48666E-04  8540   0.575E-04 0.518E-05
CGA:   8    -0.128544043295E+04   -0.16652E-04   -0.16700E-04  8540   0.193E-04 0.580E-05
CGA:   9    -0.128544043757E+04   -0.46158E-05   -0.50114E-05  8540   0.630E-05 0.726E-05
  16 F= -.12854404E+04 E0= -.12854404E+04  d E =0.117730E-01  mag=   126.0000
       N       E                     dE             d eps       ncg     rms          ort
SDA:   1    -0.128497043688E+04    0.47000E+00    0.00000E+00  8540   0.113E+01 0.000E+00
CGA:   2    -0.128528492510E+04   -0.31449E+00   -0.31448E+00  8540   0.522E+00-0.113E-02
CGA:   3    -0.128538714031E+04   -0.10222E+00   -0.10222E+00  8540   0.953E-01-0.523E-04
CGA:   4    -0.128540723463E+04   -0.20094E-01   -0.20121E-01  8540   0.167E-01 0.389E-03
CGA:   5    -0.128541081947E+04   -0.35848E-02   -0.35963E-02  8540   0.384E-02 0.184E-03
CGA:   6    -0.128541173534E+04   -0.91587E-03   -0.92054E-03  8540   0.101E-02 0.129E-03
CGA:   7    -0.128541200666E+04   -0.27131E-03   -0.27179E-03  8540   0.321E-03 0.418E-04
CGA:   8    -0.128541210733E+04   -0.10067E-03   -0.99978E-04  8540   0.114E-03 0.246E-04
CGA:   9    -0.128541213952E+04   -0.32192E-04   -0.32449E-04  8540   0.358E-04 0.316E-04
CGA:  10    -0.128541214939E+04   -0.98703E-05   -0.10592E-04  8540   0.143E-04 0.181E-04
  17 F= -.12854121E+04 E0= -.12854121E+04  d E =0.282882E-01  mag=   126.0000
       N       E                     dE             d eps       ncg     rms          ort
SDA:   1    -0.128497332701E+04    0.43881E+00    0.00000E+00  8540   0.112E+01 0.000E+00
CGA:   2    -0.128525015323E+04   -0.27683E+00   -0.27683E+00  8540   0.524E+00-0.132E-03
CGA:   3    -0.128536166242E+04   -0.11151E+00   -0.11153E+00  8540   0.102E+00 0.220E-03
CGA:   4    -0.128538287005E+04   -0.21208E-01   -0.21228E-01  8540   0.180E-01 0.339E-03
CGA:   5    -0.128538675582E+04   -0.38858E-02   -0.38965E-02  8540   0.413E-02 0.221E-03
CGA:   6    -0.128538773632E+04   -0.98050E-03   -0.98507E-03  8540   0.107E-02 0.176E-03
CGA:   7    -0.128538802206E+04   -0.28574E-03   -0.28606E-03  8540   0.319E-03 0.692E-04
CGA:   8    -0.128538812670E+04   -0.10464E-03   -0.10408E-03  8540   0.120E-03 0.117E-04
CGA:   9    -0.128538816127E+04   -0.34572E-04   -0.34236E-04  8540   0.372E-04 0.253E-04
CGA:  10    -0.128538816918E+04   -0.79031E-05   -0.91520E-05  8540   0.151E-04 0.209E-04
  18 F= -.12853882E+04 E0= -.12853882E+04  d E =0.239802E-01  mag=   126.0000
       N       E                     dE             d eps       ncg     rms          ort
SDA:   1    -0.128527203630E+04    0.11612E+00    0.00000E+00  8540   0.352E+00 0.000E+00
CGA:   2    -0.128534922287E+04   -0.77187E-01   -0.77213E-01  8540   0.157E+00 0.513E-03
CGA:   3    -0.128538612979E+04   -0.36907E-01   -0.36902E-01  8540   0.340E-01-0.297E-03
CGA:   4    -0.128539311378E+04   -0.69840E-02   -0.69701E-02  8540   0.608E-02-0.286E-03
CGA:   5    -0.128539441344E+04   -0.12997E-02   -0.13038E-02  8540   0.141E-02 0.113E-03
CGA:   6    -0.128539473320E+04   -0.31976E-03   -0.32202E-03  8540   0.341E-03 0.872E-04
CGA:   7    -0.128539483928E+04   -0.10608E-03   -0.10740E-03  8540   0.128E-03-0.280E-04
CGA:   8    -0.128539487775E+04   -0.38473E-04   -0.51191E-04  8540   0.116E-03-0.693E-04
CGA:   9    -0.128539489970E+04   -0.21947E-04   -0.22018E-04  8540   0.177E-04 0.983E-06
CGA:  10    -0.128539490419E+04   -0.44922E-05   -0.45130E-05  8540   0.413E-05 0.416E-05
CGA:  11    -0.128539490684E+04   -0.26494E-05    0.63947E-04  8540   0.175E-05 0.183E-05
  19 F= -.12853949E+04 E0= -.12853949E+04  d E =-.673767E-02  mag=   126.0000
       N       E                     dE             d eps       ncg     rms          ort
SDA:   1    -0.128535453026E+04    0.40374E-01    0.00000E+00  8540   0.115E+00 0.000E+00
CGA:   2    -0.128538442134E+04   -0.29891E-01   -0.29891E-01  8540   0.573E-01-0.118E-03
CGA:   3    -0.128539619905E+04   -0.11778E-01   -0.11783E-01  8540   0.987E-02 0.809E-04
CGA:   4    -0.128539824166E+04   -0.20426E-02   -0.20436E-02  8540   0.179E-02 0.202E-04
CGA:   5    -0.128539862745E+04   -0.38578E-03   -0.38735E-03  8540   0.408E-03 0.431E-04
CGA:   6    -0.128539872618E+04   -0.98739E-04   -0.98881E-04  8540   0.107E-03 0.104E-04
CGA:   7    -0.128539876196E+04   -0.35774E-04   -0.39862E-04  8540   0.683E-04-0.359E-04
CGA:   8    -0.128539877506E+04   -0.13101E-04   -0.13804E-04  8540   0.295E-04-0.144E-04
CGA:   9    -0.128539878103E+04   -0.59747E-05   -0.59764E-05  8540   0.994E-05 0.154E-05
  20 F= -.12853988E+04 E0= -.12853988E+04  d E =-.387419E-02  mag=   126.0000
       N       E                     dE             d eps       ncg     rms          ort
SDA:   1    -0.128513908012E+04    0.25969E+00    0.00000E+00  8540   0.670E+00 0.000E+00
CGA:   2    -0.128531284043E+04   -0.17376E+00   -0.17376E+00  8540   0.342E+00-0.654E-03
CGA:   3    -0.128538296352E+04   -0.70123E-01   -0.70149E-01  8540   0.586E-01 0.451E-03
CGA:   4    -0.128539476467E+04   -0.11801E-01   -0.11819E-01  8540   0.105E-01 0.341E-03
CGA:   5    -0.128539705694E+04   -0.22923E-02   -0.22990E-02  8540   0.246E-02 0.203E-03
CGA:   6    -0.128539763080E+04   -0.57386E-03   -0.57582E-03  8540   0.611E-03 0.983E-04
CGA:   7    -0.128539781253E+04   -0.18173E-03   -0.18312E-03  8540   0.224E-03-0.349E-04
CGA:   8    -0.128539787512E+04   -0.62592E-04   -0.62723E-04  8540   0.774E-04-0.287E-05
CGA:   9    -0.128539789112E+04   -0.15999E-04   -0.16825E-04  8540   0.234E-04 0.256E-04
CGA:  10    -0.128539789465E+04   -0.35333E-05   -0.49948E-05  8540   0.104E-04 0.161E-04
  21 F= -.12853979E+04 E0= -.12853979E+04  d E =0.886381E-03  mag=   126.0000
       N       E                     dE             d eps       ncg     rms          ort
SDA:   1    -0.127999809254E+04    0.53998E+01    0.00000E+00  8540   0.135E+02 0.000E+00
CGA:   2    -0.128369504232E+04   -0.36969E+01   -0.36969E+01  8540   0.698E+01-0.221E-02
CGA:   3    -0.128507120435E+04   -0.13762E+01   -0.13763E+01  8540   0.112E+01 0.206E-02
CGA:   4    -0.128529983518E+04   -0.22863E+00   -0.22877E+00  8540   0.206E+00 0.335E-02
CGA:   5    -0.128534545498E+04   -0.45620E-01   -0.45647E-01  8540   0.488E-01 0.130E-02
CGA:   6    -0.128535693849E+04   -0.11484E-01   -0.11486E-01  8540   0.126E-01 0.380E-03
CGA:   7    -0.128536036065E+04   -0.34222E-02   -0.34221E-02  8540   0.412E-02 0.298E-06
CGA:   8    -0.128536158124E+04   -0.12206E-02   -0.12112E-02  8540   0.140E-02 0.176E-03
CGA:   9    -0.128536202827E+04   -0.44703E-03   -0.43524E-03  8540   0.434E-03 0.215E-03
CGA:  10    -0.128536217587E+04   -0.14760E-03   -0.14293E-03  8540   0.150E-03 0.120E-03
CGA:  11    -0.128536222687E+04   -0.50997E-04   -0.50072E-04  8540   0.659E-04 0.715E-04
CGA:  12    -0.128536225136E+04   -0.24484E-04   -0.24392E-04  8540   0.378E-04 0.463E-04
CGA:  13    -0.128536226574E+04   -0.14383E-04   -0.12703E-04  8540   0.215E-04 0.193E-04
CGA:  14    -0.128536227065E+04   -0.49163E-05   -0.51583E-05  8540   0.166E-04 0.175E-04
  22 F= -.12853623E+04 E0= -.12853623E+04  d E =0.356240E-01  mag=   126.0000
       N       E                     dE             d eps       ncg     rms          ort
SDA:   1    -0.127655406530E+04    0.88082E+01    0.00000E+00  8540   0.221E+02 0.000E+00
CGA:   2    -0.128255252639E+04   -0.59985E+01   -0.59983E+01  8540   0.114E+02-0.828E-03
CGA:   3    -0.128481100698E+04   -0.22585E+01   -0.22590E+01  8540   0.183E+01 0.521E-02
CGA:   4    -0.128518553193E+04   -0.37452E+00   -0.37477E+00  8540   0.338E+00 0.477E-02
CGA:   5    -0.128526129109E+04   -0.75759E-01   -0.75807E-01  8540   0.792E-01 0.161E-02
CGA:   6    -0.128528002955E+04   -0.18738E-01   -0.18746E-01  8540   0.206E-01 0.532E-03
CGA:   7    -0.128528558106E+04   -0.55515E-02   -0.55446E-02  8540   0.650E-02 0.372E-03
CGA:   8    -0.128528750421E+04   -0.19232E-02   -0.19060E-02  8540   0.222E-02 0.456E-03
CGA:   9    -0.128528824387E+04   -0.73966E-03   -0.72141E-03  8540   0.708E-03 0.355E-03
CGA:  10    -0.128528847660E+04   -0.23273E-03   -0.22781E-03  8540   0.245E-03 0.220E-03
CGA:  11    -0.128528854944E+04   -0.72836E-04   -0.75673E-04  8540   0.110E-03 0.140E-03
CGA:  12    -0.128528858108E+04   -0.31645E-04   -0.30415E-04  8540   0.569E-04 0.596E-04
CGA:  13    -0.128528859095E+04   -0.98722E-05   -0.12045E-04  8540   0.449E-04 0.488E-04
  23 F= -.12852886E+04 E0= -.12852886E+04  d E =0.736797E-01  mag=   126.0000
       N       E                     dE             d eps       ncg     rms          ort
SDA:   1    -0.127883143127E+04    0.64571E+01    0.00000E+00  8540   0.170E+02 0.000E+00
CGA:   2    -0.128303073687E+04   -0.41993E+01   -0.41995E+01  8540   0.843E+01 0.171E-01
CGA:   3    -0.128485040111E+04   -0.18197E+01   -0.18199E+01  8540   0.151E+01 0.305E-02
CGA:   4    -0.128515783256E+04   -0.30743E+00   -0.30747E+00  8540   0.272E+00 0.732E-03
CGA:   5    -0.128521828631E+04   -0.60454E-01   -0.60468E-01  8540   0.650E-01 0.473E-03
CGA:   6    -0.128523371203E+04   -0.15426E-01   -0.15429E-01  8540   0.167E-01 0.352E-03
CGA:   7    -0.128523811516E+04   -0.44031E-02   -0.43988E-02  8540   0.507E-02 0.275E-03
CGA:   8    -0.128523964155E+04   -0.15264E-02   -0.15211E-02  8540   0.174E-02 0.108E-03
CGA:   9    -0.128524024136E+04   -0.59981E-03   -0.59613E-03  8540   0.609E-03 0.422E-04
CGA:  10    -0.128524044402E+04   -0.20267E-03   -0.19811E-03  8540   0.198E-03 0.704E-04
CGA:  11    -0.128524051301E+04   -0.68984E-04   -0.66726E-04  8540   0.715E-04 0.493E-04
CGA:  12    -0.128524054441E+04   -0.31399E-04   -0.29554E-04  8540   0.379E-04 0.254E-04
CGA:  13    -0.128524056276E+04   -0.18350E-04   -0.16832E-04  8540   0.238E-04 0.231E-04
CGA:  14    -0.128524057214E+04   -0.93805E-05   -0.84587E-05  8540   0.115E-04 0.103E-04
  24 F= -.12852406E+04 E0= -.12852406E+04  d E =0.480188E-01  mag=   126.0000
       N       E                     dE             d eps       ncg     rms          ort
SDA:   1    -0.128109665691E+04    0.41439E+01    0.00000E+00  8540   0.109E+02 0.000E+00
CGA:   2    -0.128392716536E+04   -0.28305E+01   -0.28307E+01  8540   0.549E+01 0.560E-02
CGA:   3    -0.128505751943E+04   -0.11304E+01   -0.11302E+01  8540   0.943E+00-0.349E-02
CGA:   4    -0.128525047506E+04   -0.19296E+00   -0.19294E+00  8540   0.172E+00-0.160E-03
CGA:   5    -0.128528868558E+04   -0.38211E-01   -0.38202E-01  8540   0.404E-01-0.243E-03
CGA:   6    -0.128529838368E+04   -0.96981E-02   -0.96889E-02  8540   0.107E-01-0.408E-03
CGA:   7    -0.128530115747E+04   -0.27738E-02   -0.27740E-02  8540   0.322E-02 0.256E-03
CGA:   8    -0.128530211959E+04   -0.96212E-03   -0.95763E-03  8540   0.107E-02 0.157E-03
CGA:   9    -0.128530253897E+04   -0.41938E-03   -0.43283E-03  8540   0.481E-03-0.111E-03
CGA:  10    -0.128530268408E+04   -0.14511E-03   -0.14623E-03  8540   0.167E-03-0.163E-04
CGA:  11    -0.128530274975E+04   -0.65673E-04   -0.78360E-04  8540   0.116E-03-0.596E-04
CGA:  12    -0.128530278080E+04   -0.31049E-04   -0.39510E-04  8540   0.946E-04-0.348E-04
CGA:  13    -0.128530249534E+04    0.28546E-03   -0.15467E-03  8540   0.120E-02-0.257E-03
CGA:  14    -0.128530278008E+04   -0.28474E-03   -0.31085E-03  8540   0.133E-03 0.931E-04
CGA:  15    -0.128530285615E+04   -0.76068E-04   -0.93709E-04  8540   0.279E-03-0.137E-03
CGA:  16    -0.128530285660E+04   -0.44947E-06   -0.38078E-04  8540   0.511E-04 0.952E-04
  25 F= -.12853029E+04 E0= -.12853029E+04  d E =-.622845E-01  mag=   126.0000
       N       E                     dE             d eps       ncg     rms          ort
SDA:   1    -0.128205770004E+04    0.32452E+01    0.00000E+00  8540   0.876E+01 0.000E+00
CGA:   2    -0.128421942822E+04   -0.21617E+01   -0.21644E+01  8540   0.428E+01 0.111E-02
CGA:   3    -0.128512386854E+04   -0.90444E+00   -0.90427E+00  8540   0.790E+00 0.662E-03
CGA:   4    -0.128528631547E+04   -0.16245E+00   -0.16238E+00  8540   0.146E+00-0.124E-03
CGA:   5    -0.128531846301E+04   -0.32148E-01   -0.32083E-01  8540   0.341E-01-0.331E-03
CGA:   6    -0.128532679089E+04   -0.83279E-02   -0.82319E-02  8540   0.929E-02-0.487E-03
CGA:   7    -0.128532922642E+04   -0.24355E-02   -0.24393E-02  8540   0.281E-02 0.207E-04
CGA:   8    -0.128533001817E+04   -0.79174E-03   -0.80494E-03  8540   0.909E-03 0.940E-04
CGA:   9    -0.128533035924E+04   -0.34107E-03   -0.33815E-03  8540   0.352E-03-0.508E-04
CGA:  10    -0.128533048796E+04   -0.12873E-03   -0.12721E-03  8540   0.145E-03-0.476E-04
CGA:  11    -0.128533054556E+04   -0.57599E-04   -0.71728E-04  8540   0.151E-03-0.893E-04
CGA:  12    -0.128533057169E+04   -0.26131E-04   -0.31431E-04  8540   0.233E-04 0.248E-04
CGA:  13    -0.128533053141E+04    0.40280E-04   -0.42410E-04  8540   0.284E-03-0.718E-04
CGA:  14    -0.128533058367E+04   -0.52260E-04   -0.65712E-04  8540   0.385E-04 0.568E-04
CGA:  15    -0.128533063118E+04   -0.47501E-04    0.83891E-04  8540   0.315E-04-0.288E-04
CGA:  16    -0.128533062648E+04    0.46935E-05   -0.25671E-05  8540   0.125E-04 0.194E-04
  26 F= -.12853306E+04 E0= -.12853306E+04  d E =-.277699E-01  mag=   126.0000
       N       E                     dE             d eps       ncg     rms          ort
SDA:   1    -0.128446841287E+04    0.86222E+00    0.00000E+00  8540   0.240E+01 0.000E+00
CGA:   2    -0.128502660006E+04   -0.55819E+00   -0.55842E+00  8540   0.115E+01-0.200E-03
CGA:   3    -0.128528172091E+04   -0.25512E+00   -0.25523E+00  8540   0.222E+00 0.740E-05
CGA:   4    -0.128532691821E+04   -0.45197E-01   -0.45205E-01  8540   0.403E-01 0.504E-05
CGA:   5    -0.128533576769E+04   -0.88495E-02   -0.88706E-02  8540   0.954E-02 0.112E-03
CGA:   6    -0.128533800067E+04   -0.22330E-02   -0.22477E-02  8540   0.242E-02 0.981E-04
CGA:   7    -0.128533865105E+04   -0.65038E-03   -0.65137E-03  8540   0.732E-03 0.862E-05
CGA:   8    -0.128533886836E+04   -0.21731E-03   -0.21668E-03  8540   0.249E-03-0.862E-05
CGA:   9    -0.128533894619E+04   -0.77824E-04   -0.78315E-04  8540   0.790E-04 0.101E-04
CGA:  10    -0.128533896850E+04   -0.22316E-04   -0.23467E-04  8540   0.232E-04 0.147E-04
CGA:  11    -0.128533897453E+04   -0.60249E-05   -0.69504E-05  8540   0.776E-05 0.865E-05
  27 F= -.12853390E+04 E0= -.12853390E+04  d E =-.834804E-02  mag=   126.0000
       N       E                     dE             d eps       ncg     rms          ort
SDA:   1    -0.128514366782E+04    0.19530E+00    0.00000E+00  8540   0.539E+00 0.000E+00
CGA:   2    -0.128528002032E+04   -0.13635E+00   -0.13642E+00  8540   0.266E+00 0.426E-03
CGA:   3    -0.128533634154E+04   -0.56321E-01   -0.56252E-01  8540   0.489E-01-0.576E-03
CGA:   4    -0.128534634224E+04   -0.10001E-01   -0.99541E-02  8540   0.878E-02-0.352E-03
CGA:   5    -0.128534828704E+04   -0.19448E-02   -0.19291E-02  8540   0.215E-02-0.145E-03
CGA:   6    -0.128534879283E+04   -0.50579E-03   -0.50260E-03  8540   0.567E-03-0.370E-04
CGA:   7    -0.128534892864E+04   -0.13581E-03   -0.13765E-03  8540   0.161E-03 0.246E-04
CGA:   8    -0.128534897982E+04   -0.51185E-04   -0.51192E-04  8540   0.577E-04 0.588E-06
CGA:   9    -0.128534899294E+04   -0.13116E-04   -0.43754E-04  8540   0.159E-03-0.700E-04
CGA:  10    -0.128534902470E+04   -0.31757E-04   -0.32406E-04  8540   0.175E-04 0.476E-05
CGA:  11    -0.128534903183E+04   -0.71354E-05   -0.10153E-04  8540   0.210E-04-0.131E-04
  28 F= -.12853490E+04 E0= -.12853490E+04  d E =-.100573E-01  mag=   126.0000
       N       E                     dE             d eps       ncg     rms          ort
SDA:   1    -0.127649191059E+04    0.88571E+01    0.00000E+00  8540   0.233E+02 0.000E+00
CGA:   2    -0.128246116964E+04   -0.59693E+01   -0.59723E+01  8540   0.115E+02 0.114E-01
CGA:   3    -0.128486155337E+04   -0.24004E+01   -0.24005E+01  8540   0.208E+01 0.364E-03
CGA:   4    -0.128528391735E+04   -0.42236E+00   -0.42234E+00  8540   0.374E+00 0.594E-04
CGA:   5    -0.128536592937E+04   -0.82012E-01   -0.81995E-01  8540   0.906E-01-0.286E-03
CGA:   6    -0.128538745084E+04   -0.21521E-01   -0.21491E-01  8540   0.242E-01-0.412E-03
CGA:   7    -0.128539368111E+04   -0.62303E-02   -0.62463E-02  8540   0.745E-02 0.297E-03
CGA:   8    -0.128539593375E+04   -0.22526E-02   -0.22545E-02  8540   0.254E-02 0.163E-03
CGA:   9    -0.128539690264E+04   -0.96889E-03   -0.98825E-03  8540   0.112E-02-0.275E-03
CGA:  10    -0.128539726662E+04   -0.36398E-03   -0.37156E-03  8540   0.441E-03-0.131E-03
CGA:  11    -0.128539742647E+04   -0.15985E-03   -0.18073E-03  8540   0.273E-03-0.142E-03
CGA:  12    -0.128539750540E+04   -0.78932E-04   -0.87382E-04  8540   0.171E-03-0.577E-04
CGA:  13    -0.128539759510E+04   -0.89701E-04    0.73471E-02  8540   0.698E-04 0.250E-04
CGA:  14    -0.128539763192E+04   -0.36811E-04   -0.43472E-04  8540   0.647E-04-0.315E-04
CGA:  15    -0.128539765858E+04   -0.26662E-04    0.60821E-04  8540   0.379E-04-0.119E-04
CGA:  16    -0.128539768056E+04   -0.21979E-04    0.12405E-03  8540   0.204E-04-0.107E-04
CGA:  17    -0.128539768501E+04   -0.44559E-05   -0.43829E-05  8540   0.108E-04-0.177E-05
  29 F= -.12853977E+04 E0= -.12853977E+04  d E =-.486532E-01  mag=   126.0000
       N       E                     dE             d eps       ncg     rms          ort
SDA:   1    -0.127475073755E+04    0.10647E+02    0.00000E+00  8540   0.270E+02 0.000E+00
CGA:   2    -0.128198446578E+04   -0.72337E+01   -0.72353E+01  8540   0.140E+02 0.371E-02
CGA:   3    -0.128479272145E+04   -0.28083E+01   -0.28090E+01  8540   0.225E+01 0.412E-02
CGA:   4    -0.128525083076E+04   -0.45811E+00   -0.45846E+00  8540   0.416E+00 0.272E-02
CGA:   5    -0.128534350876E+04   -0.92678E-01   -0.92805E-01  8540   0.993E-01 0.121E-02
CGA:   6    -0.128536692322E+04   -0.23414E-01   -0.23439E-01  8540   0.254E-01 0.294E-03
CGA:   7    -0.128537375233E+04   -0.68291E-02   -0.68338E-02  8540   0.812E-02 0.109E-03
CGA:   8    -0.128537616208E+04   -0.24098E-02   -0.24123E-02  8540   0.280E-02 0.210E-03
CGA:   9    -0.128537709611E+04   -0.93403E-03   -0.93151E-03  8540   0.907E-03 0.143E-03
CGA:  10    -0.128537739717E+04   -0.30106E-03   -0.30036E-03  8540   0.282E-03 0.969E-04
CGA:  11    -0.128537749504E+04   -0.97864E-04   -0.97630E-04  8540   0.101E-03 0.570E-04
CGA:  12    -0.128537754659E+04   -0.51556E-04   -0.50382E-04  8540   0.629E-04 0.106E-04
CGA:  13    -0.128537757616E+04   -0.29572E-04   -0.27818E-04  8540   0.389E-04 0.199E-04
CGA:  14    -0.128537760009E+04   -0.23920E-04   -0.22501E-04  8540   0.243E-04 0.115E-04
CGA:  15    -0.128537761494E+04   -0.14856E-04   -0.14213E-04  8540   0.131E-04 0.479E-05
CGA:  16    -0.128537762051E+04   -0.55691E-05   -0.54832E-05  8540   0.547E-05 0.461E-05
CGA:  17    -0.128537762555E+04   -0.50435E-05    0.43193E-04  8540   0.246E-05 0.238E-05
  30 F= -.12853776E+04 E0= -.12853776E+04  d E =0.200595E-01  mag=   126.0000
       N       E                     dE             d eps       ncg     rms          ort
SDA:   1    -0.127421610771E+04    0.11162E+02    0.00000E+00  8540   0.280E+02 0.000E+00
CGA:   2    -0.128195483174E+04   -0.77387E+01   -0.77394E+01  8540   0.143E+02-0.732E-03
CGA:   3    -0.128475123833E+04   -0.27964E+01   -0.27973E+01  8540   0.225E+01 0.428E-02
CGA:   4    -0.128521470471E+04   -0.46347E+00   -0.46388E+00  8540   0.421E+00 0.323E-02
CGA:   5    -0.128530870011E+04   -0.93995E-01   -0.94096E-01  8540   0.101E+00 0.960E-03
CGA:   6    -0.128533244780E+04   -0.23748E-01   -0.23748E-01  8540   0.266E-01-0.211E-04
CGA:   7    -0.128533953914E+04   -0.70913E-02   -0.70970E-02  8540   0.856E-02 0.137E-03
CGA:   8    -0.128534208390E+04   -0.25448E-02   -0.25475E-02  8540   0.298E-02 0.275E-03
CGA:   9    -0.128534310776E+04   -0.10239E-02   -0.10208E-02  8540   0.972E-03 0.115E-03
CGA:  10    -0.128534344240E+04   -0.33464E-03   -0.33339E-03  8540   0.314E-03 0.525E-04
CGA:  11    -0.128534356389E+04   -0.12149E-03   -0.12087E-03  8540   0.127E-03 0.105E-04
CGA:  12    -0.128534362847E+04   -0.64585E-04   -0.69665E-04  8540   0.104E-03-0.235E-04
CGA:  13    -0.128534366751E+04   -0.39038E-04   -0.38777E-04  8540   0.618E-04 0.148E-05
CGA:  14    -0.128534338089E+04    0.28662E-03   -0.15543E-03  8540   0.110E-02-0.234E-03
CGA:  15    -0.128534364894E+04   -0.26804E-03   -0.30023E-03  8540   0.117E-03 0.984E-04
CGA:  16    -0.128534371640E+04   -0.67464E-04   -0.98229E-04  8540   0.424E-03-0.161E-03
CGA:  17    -0.128534372675E+04   -0.10350E-04   -0.59764E-04  8540   0.605E-04 0.110E-03
CGA:  18    -0.128534372680E+04   -0.54963E-07   -0.12288E-04  8540   0.254E-04 0.299E-04
CGA:  19    -0.128534374344E+04   -0.16634E-04   -0.13869E-04  8540   0.175E-04-0.151E-04
CGA:  20    -0.128534375192E+04   -0.84792E-05   -0.82369E-05  8540   0.954E-05-0.346E-05
  31 F= -.12853438E+04 E0= -.12853438E+04  d E =0.338736E-01  mag=   126.0000
       N       E                     dE             d eps       ncg     rms          ort
SDA:   1    -0.127999330627E+04    0.53504E+01    0.00000E+00  8540   0.138E+02 0.000E+00
CGA:   2    -0.128364527355E+04   -0.36520E+01   -0.36542E+01  8540   0.707E+01-0.983E-04
CGA:   3    -0.128508177039E+04   -0.14365E+01   -0.14365E+01  8540   0.116E+01 0.205E-02
CGA:   4    -0.128531806720E+04   -0.23630E+00   -0.23629E+00  8540   0.219E+00 0.153E-03
CGA:   5    -0.128536614672E+04   -0.48080E-01   -0.48048E-01  8540   0.525E-01-0.172E-03
CGA:   6    -0.128537835495E+04   -0.12208E-01   -0.12182E-01  8540   0.136E-01-0.124E-03
CGA:   7    -0.128538186259E+04   -0.35076E-02   -0.35230E-02  8540   0.410E-02 0.761E-04
CGA:   8    -0.128538304575E+04   -0.11832E-02   -0.12010E-02  8540   0.135E-02 0.114E-03
CGA:   9    -0.128538351866E+04   -0.47291E-03   -0.47315E-03  8540   0.459E-03 0.213E-05
CGA:  10    -0.128538367303E+04   -0.15437E-03   -0.15417E-03  8540   0.146E-03-0.222E-05
CGA:  11    -0.128538371779E+04   -0.44766E-04   -0.45884E-04  8540   0.426E-04 0.992E-05
CGA:  12    -0.128538373594E+04   -0.18151E-04   -0.18131E-04  8540   0.203E-04-0.884E-06
CGA:  13    -0.128538374116E+04   -0.52158E-05   -0.60987E-05  8540   0.978E-05 0.761E-05
  32 F= -.12853837E+04 E0= -.12853837E+04  d E =-.399892E-01  mag=   126.0000
       N       E                     dE             d eps       ncg     rms          ort
SDA:   1    -0.125804666902E+04    0.27337E+02    0.00000E+00  8540   0.789E+02 0.000E+00
CGA:   2    -0.127506616850E+04   -0.17019E+02   -0.17102E+02  8540   0.344E+02 0.152E-02
CGA:   3    -0.128318474985E+04   -0.81186E+01   -0.81248E+01  8540   0.769E+01 0.430E-01
CGA:   4    -0.128474296856E+04   -0.15582E+01   -0.15574E+01  8540   0.142E+01-0.155E-02
CGA:   5    -0.128504662596E+04   -0.30366E+00   -0.30375E+00  8540   0.346E+00-0.209E-03
CGA:   6    -0.128512727580E+04   -0.80650E-01   -0.80687E-01  8540   0.929E-01 0.123E-03
CGA:   7    -0.128515119566E+04   -0.23920E-01   -0.23994E-01  8540   0.279E-01 0.635E-03
CGA:   8    -0.128515918465E+04   -0.79890E-02   -0.80329E-02  8540   0.885E-02 0.544E-03
CGA:   9    -0.128516224461E+04   -0.30600E-02   -0.30603E-02  8540   0.323E-02 0.101E-04
CGA:  10    -0.128516325746E+04   -0.10129E-02   -0.10250E-02  8540   0.104E-02 0.283E-03
CGA:  11    -0.128516355955E+04   -0.30209E-03   -0.32044E-03  8540   0.319E-03 0.245E-03
CGA:  12    -0.128516365834E+04   -0.98792E-04   -0.10871E-03  8540   0.136E-03 0.126E-03
CGA:  13    -0.128516368741E+04   -0.29065E-04   -0.42477E-04  8540   0.790E-04 0.106E-03
CGA:  14    -0.128516369758E+04   -0.10175E-04   -0.17206E-04  8540   0.476E-04 0.557E-04
CGA:  15    -0.128516370235E+04   -0.47662E-05   -0.10080E-04  8540   0.383E-04 0.422E-04
  33 F= -.12851637E+04 E0= -.12851637E+04  d E =0.220039E+00  mag=   126.0000
       N       E                     dE             d eps       ncg     rms          ort
SDA:   1    -0.127771577103E+04    0.74479E+01    0.00000E+00  8540   0.237E+02 0.000E+00
CGA:   2    -0.128256659503E+04   -0.48508E+01   -0.48606E+01  8540   0.936E+01 0.197E-01
CGA:   3    -0.128484652181E+04   -0.22799E+01   -0.22804E+01  8540   0.235E+01 0.190E-02
CGA:   4    -0.128533747631E+04   -0.49095E+00   -0.49086E+00  8540   0.454E+00-0.197E-02
CGA:   5    -0.128543428792E+04   -0.96812E-01   -0.96755E-01  8540   0.106E+00-0.807E-03
CGA:   6    -0.128545895504E+04   -0.24667E-01   -0.24593E-01  8540   0.290E-01-0.105E-02
CGA:   7    -0.128546649566E+04   -0.75406E-02   -0.75261E-02  8540   0.877E-02-0.384E-03
CGA:   8    -0.128546893570E+04   -0.24400E-02   -0.24378E-02  8540   0.272E-02-0.136E-03
CGA:   9    -0.128546986722E+04   -0.93152E-03   -0.94252E-03  8540   0.107E-02-0.206E-03
CGA:  10    -0.128547022465E+04   -0.35743E-03   -0.36534E-03  8540   0.434E-03-0.116E-03
CGA:  11    -0.128547033098E+04   -0.10633E-03   -0.25932E-03  8540   0.761E-03-0.418E-03
CGA:  12    -0.128547048870E+04   -0.15772E-03   -0.16232E-03  8540   0.921E-04 0.421E-04
CGA:  13    -0.128547055195E+04   -0.63248E-04    0.56579E-03  8540   0.257E-04 0.130E-04
CGA:  14    -0.128547057404E+04   -0.22093E-04    0.24999E-04  8540   0.125E-04 0.109E-04
CGA:  15    -0.128547060345E+04   -0.29408E-04    0.17338E-05  8540   0.563E-05 0.704E-05
CGA:  16    -0.128547061557E+04   -0.12128E-04    0.37217E-06  8540   0.289E-05 0.283E-05
CGA:  17    -0.128547062510E+04   -0.95301E-05    0.10854E-06  8540   0.213E-05 0.228E-05
  34 F= -.12854706E+04 E0= -.12854706E+04  d E =-.306923E+00  mag=   126.0000
       N       E                     dE             d eps       ncg     rms          ort
SDA:   1    -0.128521784181E+04    0.25277E+00    0.00000E+00  8540   0.816E+00 0.000E+00
CGA:   2    -0.128539002707E+04   -0.17219E+00   -0.17224E+00  8540   0.349E+00 0.127E-03
CGA:   3    -0.128547328442E+04   -0.83257E-01   -0.83286E-01  8540   0.813E-01 0.234E-03
CGA:   4    -0.128548984218E+04   -0.16558E-01   -0.16576E-01  8540   0.150E-01 0.158E-03
CGA:   5    -0.128549308590E+04   -0.32437E-02   -0.32367E-02  8540   0.366E-02-0.851E-04
CGA:   6    -0.128549395690E+04   -0.87100E-03   -0.86363E-03  8540   0.102E-02-0.122E-03
CGA:   7    -0.128549421077E+04   -0.25387E-03   -0.25337E-03  8540   0.299E-03-0.129E-04
CGA:   8    -0.128549428627E+04   -0.75495E-04   -0.76245E-04  8540   0.797E-04 0.212E-04
CGA:   9    -0.128549431518E+04   -0.28912E-04   -0.28834E-04  8540   0.301E-04 0.165E-05
CGA:  10    -0.128549432775E+04   -0.12572E-04   -0.14354E-04  8540   0.219E-04-0.103E-04
CGA:  11    -0.128549420167E+04    0.12608E-03   -0.68081E-04  8540   0.523E-03-0.928E-04
CGA:  12    -0.128549430739E+04   -0.10573E-03   -0.11171E-03  8540   0.675E-04 0.176E-04
CGA:  13    -0.128549433711E+04   -0.29717E-04   -0.29882E-04  8540   0.240E-04 0.152E-05
CGA:  14    -0.128549434390E+04   -0.67878E-05   -0.83012E-05  8540   0.730E-05 0.792E-05
  35 F= -.12854943E+04 E0= -.12854943E+04  d E =-.237188E-01  mag=   126.0000
       N       E                     dE             d eps       ncg     rms          ort
SDA:   1    -0.128401129472E+04    0.14830E+01    0.00000E+00  8540   0.439E+01 0.000E+00
CGA:   2    -0.128495332612E+04   -0.94203E+00   -0.94339E+00  8540   0.193E+01 0.272E-03
CGA:   3    -0.128541286980E+04   -0.45954E+00   -0.45987E+00  8540   0.441E+00 0.672E-03
CGA:   4    -0.128550200342E+04   -0.89134E-01   -0.89163E-01  8540   0.790E-01 0.102E-03
CGA:   5    -0.128551901556E+04   -0.17012E-01   -0.16990E-01  8540   0.193E-01-0.109E-03
CGA:   6    -0.128552356155E+04   -0.45460E-02   -0.45126E-02  8540   0.514E-02-0.141E-03
CGA:   7    -0.128552485507E+04   -0.12935E-02   -0.13004E-02  8540   0.148E-02 0.317E-04
CGA:   8    -0.128552525760E+04   -0.40253E-03   -0.41273E-03  8540   0.444E-03 0.561E-04
CGA:   9    -0.128552541627E+04   -0.15868E-03   -0.15871E-03  8540   0.169E-03 0.269E-07
CGA:  10    -0.128552547386E+04   -0.57587E-04   -0.58241E-04  8540   0.638E-04 0.642E-05
CGA:  11    -0.128552549916E+04   -0.25297E-04   -0.25171E-04  8540   0.257E-04-0.225E-05
CGA:  12    -0.128552550831E+04   -0.91497E-05   -0.92913E-05  8540   0.117E-04 0.228E-05
  36 F= -.12855255E+04 E0= -.12855255E+04  d E =-.311644E-01  mag=   126.0000
       N       E                     dE             d eps       ncg     rms          ort
SDA:   1    -0.128445395886E+04    0.10715E+01    0.00000E+00  8540   0.285E+01 0.000E+00
CGA:   2    -0.128517161002E+04   -0.71765E+00   -0.71802E+00  8540   0.145E+01 0.286E-03
CGA:   3    -0.128548024146E+04   -0.30863E+00   -0.30864E+00  8540   0.253E+00-0.130E-03
CGA:   4    -0.128553129913E+04   -0.51058E-01   -0.51081E-01  8540   0.456E-01 0.112E-03
CGA:   5    -0.128554142723E+04   -0.10128E-01   -0.10133E-01  8540   0.113E-01 0.157E-04
CGA:   6    -0.128554407651E+04   -0.26493E-02   -0.26350E-02  8540   0.292E-02-0.918E-04
CGA:   7    -0.128554482769E+04   -0.75118E-03   -0.75281E-03  8540   0.897E-03 0.125E-04
CGA:   8    -0.128554509307E+04   -0.26538E-03   -0.26564E-03  8540   0.308E-03 0.281E-05
CGA:   9    -0.128554521720E+04   -0.12413E-03   -0.12605E-03  8540   0.161E-03-0.595E-04
CGA:  10    -0.128554526462E+04   -0.47421E-04   -0.47109E-04  8540   0.653E-04-0.204E-04
CGA:  11    -0.128554528611E+04   -0.21491E-04   -0.38575E-04  8540   0.109E-03-0.570E-04
CGA:  12    -0.128554531160E+04   -0.25487E-04   -0.26472E-04  8540   0.158E-04 0.658E-05
CGA:  13    -0.128554532524E+04   -0.13648E-04    0.53769E-04  8540   0.695E-05 0.103E-05
CGA:  14    -0.128554532699E+04   -0.17450E-05   -0.21203E-05  8540   0.329E-05 0.386E-05
  37 F= -.12855453E+04 E0= -.12855453E+04  d E =-.198187E-01  mag=   126.0000
       N       E                     dE             d eps       ncg     rms          ort
SDA:   1    -0.125365772241E+04    0.31888E+02    0.00000E+00  8540   0.801E+02 0.000E+00
CGA:   2    -0.127559081729E+04   -0.21933E+02   -0.21944E+02  8540   0.412E+02 0.176E-01
CGA:   3    -0.128383365127E+04   -0.82428E+01   -0.82514E+01  8540   0.655E+01 0.499E-01
CGA:   4    -0.128516740266E+04   -0.13338E+01   -0.13348E+01  8540   0.124E+01 0.953E-02
CGA:   5    -0.128544400604E+04   -0.27660E+00   -0.27701E+00  8540   0.308E+00 0.243E-02
CGA:   6    -0.128551639311E+04   -0.72387E-01   -0.72375E-01  8540   0.827E-01-0.287E-03
CGA:   7    -0.128553849302E+04   -0.22100E-01   -0.22130E-01  8540   0.275E-01 0.369E-03
CGA:   8    -0.128554675608E+04   -0.82631E-02   -0.82831E-02  8540   0.979E-02 0.491E-03
CGA:   9    -0.128555024333E+04   -0.34872E-02   -0.34888E-02  8540   0.354E-02-0.136E-03
CGA:  10    -0.128555141407E+04   -0.11707E-02   -0.11709E-02  8540   0.117E-02 0.409E-04
CGA:  11    -0.128555187318E+04   -0.45911E-03   -0.46199E-03  8540   0.512E-03-0.571E-04
CGA:  12    -0.128555211867E+04   -0.24549E-03   -0.33445E-03  8540   0.741E-03-0.261E-03
CGA:  13    -0.128555230592E+04   -0.18725E-03   -0.19310E-03  8540   0.143E-03 0.593E-04
CGA:  14    -0.128555228305E+04    0.22868E-04   -0.20123E-03  8540   0.835E-03-0.237E-03
CGA:  15    -0.128555244450E+04   -0.16145E-03   -0.18660E-03  8540   0.135E-03 0.141E-03
CGA:  16    -0.128555249878E+04   -0.54280E-04   -0.11515E-03  8540   0.301E-03-0.180E-03
CGA:  17    -0.128555252195E+04   -0.23175E-04   -0.48943E-04  8540   0.665E-04 0.105E-03
CGA:  18    -0.128555253758E+04   -0.15625E-04   -0.19562E-04  8540   0.195E-04 0.220E-04
CGA:  19    -0.128555256665E+04   -0.29072E-04    0.11241E-04  8540   0.242E-04-0.124E-04
CGA:  20    -0.128555256350E+04    0.31475E-05   -0.19134E-05  8540   0.120E-04 0.164E-04
  38 F= -.12855526E+04 E0= -.12855526E+04  d E =-.723651E-02  mag=   126.0000
       N       E                     dE             d eps       ncg     rms          ort
SDA:   1    -0.124582318308E+04    0.39729E+02    0.00000E+00  8540   0.122E+03 0.000E+00
CGA:   2    -0.127026747070E+04   -0.24444E+02   -0.24717E+02  8540   0.481E+02 0.141E-01
CGA:   3    -0.128204682114E+04   -0.11779E+02   -0.11794E+02  8540   0.114E+02 0.133E+00
CGA:   4    -0.128443684834E+04   -0.23900E+01   -0.23915E+01  8540   0.208E+01 0.692E-02
CGA:   5    -0.128489218013E+04   -0.45533E+00   -0.45560E+00  8540   0.509E+00-0.356E-03
CGA:   6    -0.128501203736E+04   -0.11986E+00   -0.11988E+00  8540   0.138E+00 0.233E-04
CGA:   7    -0.128504834563E+04   -0.36308E-01   -0.36373E-01  8540   0.433E-01 0.970E-03
CGA:   8    -0.128506057116E+04   -0.12226E-01   -0.12263E-01  8540   0.140E-01 0.848E-03
CGA:   9    -0.128506535028E+04   -0.47791E-02   -0.47765E-02  8540   0.492E-02 0.206E-03
CGA:  10    -0.128506695725E+04   -0.16070E-02   -0.16075E-02  8540   0.161E-02 0.466E-03
CGA:  11    -0.128506745189E+04   -0.49464E-03   -0.50730E-03  8540   0.489E-03 0.361E-03
CGA:  12    -0.128506763730E+04   -0.18540E-03   -0.18675E-03  8540   0.210E-03 0.142E-03
CGA:  13    -0.128506771003E+04   -0.72733E-04   -0.77232E-04  8540   0.112E-03 0.123E-03
CGA:  14    -0.128506774834E+04   -0.38309E-04   -0.37516E-04  8540   0.566E-04 0.548E-04
CGA:  15    -0.128506777866E+04   -0.30319E-04   -0.28935E-04  8540   0.427E-04 0.570E-04
CGA:  16    -0.128506779461E+04   -0.15951E-04   -0.15044E-04  8540   0.281E-04 0.291E-04
CGA:  17    -0.128506780338E+04   -0.87679E-05   -0.89027E-05  8540   0.228E-04 0.247E-04
  39 F= -.12850678E+04 E0= -.12850678E+04  d E =0.484760E+00  mag=   126.0000
       N       E                     dE             d eps       ncg     rms          ort
SDA:   1    -0.127863803400E+04    0.64298E+01    0.00000E+00  8540   0.207E+02 0.000E+00
CGA:   2    -0.128284214102E+04   -0.42041E+01   -0.42134E+01  8540   0.839E+01 0.137E-01
CGA:   3    -0.128490407768E+04   -0.20619E+01   -0.20625E+01  8540   0.202E+01 0.470E-02
CGA:   4    -0.128532275182E+04   -0.41867E+00   -0.41859E+00  8540   0.370E+00-0.135E-02
CGA:   5    -0.128540401060E+04   -0.81259E-01   -0.81241E-01  8540   0.894E-01-0.372E-03
CGA:   6    -0.128542480265E+04   -0.20792E-01   -0.20756E-01  8540   0.234E-01-0.518E-03
CGA:   7    -0.128543098603E+04   -0.61834E-02   -0.61763E-02  8540   0.725E-02-0.202E-03
CGA:   8    -0.128543301389E+04   -0.20279E-02   -0.20261E-02  8540   0.225E-02-0.101E-03
CGA:   9    -0.128543379260E+04   -0.77872E-03   -0.78868E-03  8540   0.890E-03-0.179E-03
CGA:  10    -0.128543407379E+04   -0.28119E-03   -0.28236E-03  8540   0.308E-03-0.277E-04
CGA:  11    -0.128543419242E+04   -0.11863E-03   -0.13089E-03  8540   0.157E-03-0.912E-04
CGA:  12    -0.128543344613E+04    0.74630E-03   -0.40190E-03  8540   0.349E-02-0.565E-03
CGA:  13    -0.128543420538E+04   -0.75926E-03   -0.78180E-03  8540   0.358E-03 0.652E-04
CGA:  14    -0.128543435819E+04   -0.15281E-03   -0.14996E-03  8540   0.107E-03-0.208E-04
CGA:  15    -0.128543437623E+04   -0.18040E-04   -0.27915E-04  8540   0.317E-04 0.371E-04
CGA:  16    -0.128543439691E+04   -0.20677E-04   -0.20345E-04  8540   0.232E-04-0.646E-05
CGA:  17    -0.128543440084E+04   -0.39325E-05   -0.49109E-05  8540   0.109E-04 0.373E-05
  40 F= -.12854344E+04 E0= -.12854344E+04  d E =-.366597E+00  mag=   126.0000
       N       E                     dE             d eps       ncg     rms          ort
SDA:   1    -0.128376321530E+04    0.16712E+01    0.00000E+00  8540   0.530E+01 0.000E+00
CGA:   2    -0.128484653816E+04   -0.10833E+01   -0.10854E+01  8540   0.215E+01-0.885E-04
CGA:   3    -0.128537145081E+04   -0.52491E+00   -0.52524E+00  8540   0.517E+00 0.607E-03
CGA:   4    -0.128547937851E+04   -0.10793E+00   -0.10779E+00  8540   0.957E-01-0.535E-03
CGA:   5    -0.128550025022E+04   -0.20872E-01   -0.20862E-01  8540   0.228E-01-0.741E-04
CGA:   6    -0.128550551604E+04   -0.52658E-02   -0.52758E-02  8540   0.597E-02 0.406E-04
CGA:   7    -0.128550710389E+04   -0.15879E-02   -0.15875E-02  8540   0.184E-02-0.277E-05
CGA:   8    -0.128550764410E+04   -0.54020E-03   -0.53273E-03  8540   0.606E-03-0.559E-04
CGA:   9    -0.128550786367E+04   -0.21957E-03   -0.21603E-03  8540   0.255E-03-0.709E-04
CGA:  10    -0.128550794129E+04   -0.77625E-04   -0.76835E-04  8540   0.875E-04-0.109E-04
CGA:  11    -0.128550797680E+04   -0.35506E-04   -0.35914E-04  8540   0.425E-04-0.237E-04
CGA:  12    -0.128550800270E+04   -0.25898E-04    0.46155E-03  8540   0.208E-04-0.555E-05
CGA:  13    -0.128550802009E+04   -0.17389E-04    0.22101E-04  8540   0.896E-05 0.174E-06
CGA:  14    -0.128550803241E+04   -0.12321E-04    0.28427E-05  8540   0.419E-05 0.897E-06
CGA:  15    -0.128550803687E+04   -0.44662E-05    0.54647E-05  8540   0.182E-05 0.445E-06
  41 F= -.12855080E+04 E0= -.12855080E+04  d E =-.736360E-01  mag=   126.0000
       N       E                     dE             d eps       ncg     rms          ort
SDA:   1    -0.128503307783E+04    0.47495E+00    0.00000E+00  8540   0.145E+01 0.000E+00
CGA:   2    -0.128533359584E+04   -0.30052E+00   -0.30081E+00  8540   0.604E+00 0.454E-03
CGA:   3    -0.128547937956E+04   -0.14578E+00   -0.14588E+00  8540   0.145E+00 0.319E-03
CGA:   4    -0.128550950771E+04   -0.30128E-01   -0.30082E-01  8540   0.265E-01-0.263E-03
CGA:   5    -0.128551519228E+04   -0.56846E-02   -0.56900E-02  8540   0.623E-02 0.244E-04
CGA:   6    -0.128551659577E+04   -0.14035E-02   -0.14252E-02  8540   0.160E-02 0.145E-03
CGA:   7    -0.128551701150E+04   -0.41573E-03   -0.42154E-03  8540   0.467E-03 0.521E-04
CGA:   8    -0.128551715856E+04   -0.14706E-03   -0.14573E-03  8540   0.168E-03-0.217E-04
CGA:   9    -0.128551721794E+04   -0.59377E-04   -0.59668E-04  8540   0.728E-04-0.242E-04
CGA:  10    -0.128551723344E+04   -0.15501E-04   -0.16437E-04  8540   0.210E-04 0.961E-05
CGA:  11    -0.128551723813E+04   -0.46957E-05   -0.55117E-05  8540   0.672E-05 0.654E-05
  42 F= -.12855172E+04 E0= -.12855172E+04  d E =-.920126E-02  mag=   126.0000
       N       E                     dE             d eps       ncg     rms          ort
SDA:   1    -0.128490479275E+04    0.61244E+00    0.00000E+00  8540   0.169E+01 0.000E+00
CGA:   2    -0.128529189982E+04   -0.38711E+00   -0.38733E+00  8540   0.791E+00 0.835E-03
CGA:   3    -0.128547012978E+04   -0.17823E+00   -0.17831E+00  8540   0.165E+00 0.463E-03
CGA:   4    -0.128550360505E+04   -0.33475E-01   -0.33453E-01  8540   0.299E-01-0.181E-03
CGA:   5    -0.128551001226E+04   -0.64072E-02   -0.64177E-02  8540   0.724E-02 0.798E-04
CGA:   6    -0.128551164039E+04   -0.16281E-02   -0.16482E-02  8540   0.187E-02 0.197E-03
CGA:   7    -0.128551211662E+04   -0.47623E-03   -0.48170E-03  8540   0.535E-03 0.769E-04
CGA:   8    -0.128551229109E+04   -0.17447E-03   -0.17433E-03  8540   0.200E-03-0.250E-04
CGA:   9    -0.128551236131E+04   -0.70220E-04   -0.71993E-04  8540   0.872E-04-0.302E-04
CGA:  10    -0.128551237971E+04   -0.18403E-04   -0.19194E-04  8540   0.256E-04 0.127E-04
CGA:  11    -0.128551238619E+04   -0.64807E-05   -0.70479E-05  8540   0.888E-05 0.726E-05
  43 F= -.12855124E+04 E0= -.12855124E+04  d E =0.485194E-02  mag=   126.0000
       N       E                     dE             d eps       ncg     rms          ort
SDA:   1    -0.128481469298E+04    0.69769E+00    0.00000E+00  8540   0.178E+01 0.000E+00
CGA:   2    -0.128527456786E+04   -0.45987E+00   -0.45996E+00  8540   0.903E+00 0.513E-03
CGA:   3    -0.128546168158E+04   -0.18711E+00   -0.18717E+00  8540   0.155E+00 0.365E-03
CGA:   4    -0.128549305432E+04   -0.31373E-01   -0.31388E-01  8540   0.285E-01 0.125E-03
CGA:   5    -0.128549933542E+04   -0.62811E-02   -0.62902E-02  8540   0.692E-02 0.940E-04
CGA:   6    -0.128550091111E+04   -0.15757E-02   -0.15829E-02  8540   0.176E-02 0.925E-04
CGA:   7    -0.128550136270E+04   -0.45159E-03   -0.45401E-03  8540   0.522E-03 0.517E-04
CGA:   8    -0.128550152800E+04   -0.16531E-03   -0.16535E-03  8540   0.187E-03-0.532E-05
CGA:   9    -0.128550159467E+04   -0.66672E-04   -0.67716E-04  8540   0.747E-04-0.159E-04
CGA:  10    -0.128550161507E+04   -0.20393E-04   -0.20412E-04  8540   0.220E-04 0.467E-05
CGA:  11    -0.128550162448E+04   -0.94122E-05   -0.10187E-04  8540   0.129E-04-0.583E-05
CGA:  12    -0.128550157089E+04    0.53586E-04   -0.28897E-04  8540   0.249E-03-0.441E-04
CGA:  13    -0.128550163600E+04   -0.65109E-04   -0.63185E-04  8540   0.329E-04-0.624E-05
CGA:  14    -0.128550164027E+04   -0.42704E-05   -0.78397E-05  8540   0.789E-05 0.117E-04
  44 F= -.12855016E+04 E0= -.12855016E+04  d E =0.107459E-01  mag=   126.0000
       N       E                     dE             d eps       ncg     rms          ort
SDA:   1    -0.127238065737E+04    0.13121E+02    0.00000E+00  8540   0.334E+02 0.000E+00
CGA:   2    -0.128118550133E+04   -0.88048E+01   -0.88178E+01  8540   0.170E+02 0.201E-04
CGA:   3    -0.128468405417E+04   -0.34986E+01   -0.35012E+01  8540   0.283E+01 0.318E-01
CGA:   4    -0.128525525928E+04   -0.57121E+00   -0.57208E+00  8540   0.527E+00 0.349E-02
CGA:   5    -0.128537233434E+04   -0.11708E+00   -0.11733E+00  8540   0.130E+00 0.713E-03
CGA:   6    -0.128540229636E+04   -0.29962E-01   -0.29957E-01  8540   0.334E-01-0.503E-04
CGA:   7    -0.128541092887E+04   -0.86325E-02   -0.86917E-02  8540   0.102E-01 0.286E-03
CGA:   8    -0.128541392537E+04   -0.29965E-02   -0.30384E-02  8540   0.337E-02 0.264E-03
CGA:   9    -0.128541507758E+04   -0.11522E-02   -0.11609E-02  8540   0.115E-02 0.788E-04
CGA:  10    -0.128541542887E+04   -0.35129E-03   -0.36415E-03  8540   0.347E-03 0.995E-04
CGA:  11    -0.128541554307E+04   -0.11420E-03   -0.11943E-03  8540   0.113E-03 0.450E-04
CGA:  12    -0.128541557723E+04   -0.34161E-04   -0.38524E-04  8540   0.460E-04 0.350E-04
CGA:  13    -0.128541559397E+04   -0.16745E-04   -0.19233E-04  8540   0.268E-04 0.242E-04
CGA:  14    -0.128541560150E+04   -0.75291E-05   -0.86948E-05  8540   0.138E-04 0.127E-04
  45 F= -.12854156E+04 E0= -.12854156E+04  d E =0.860388E-01  mag=   126.0000
       N       E                     dE             d eps       ncg     rms          ort
SDA:   1    -0.127849056214E+04    0.69250E+01    0.00000E+00  8540   0.174E+02 0.000E+00
CGA:   2    -0.128321619900E+04   -0.47256E+01   -0.47268E+01  8540   0.896E+01-0.148E-02
CGA:   3    -0.128500529920E+04   -0.17891E+01   -0.17894E+01  8540   0.143E+01 0.144E-02
CGA:   4    -0.128529760436E+04   -0.29231E+00   -0.29265E+00  8540   0.268E+00 0.162E-02
CGA:   5    -0.128535712308E+04   -0.59519E-01   -0.59609E-01  8540   0.633E-01 0.502E-03
CGA:   6    -0.128537198978E+04   -0.14867E-01   -0.14843E-01  8540   0.165E-01-0.183E-03
CGA:   7    -0.128537633212E+04   -0.43423E-02   -0.43447E-02  8540   0.512E-02 0.214E-04
CGA:   8    -0.128537783271E+04   -0.15006E-02   -0.15057E-02  8540   0.173E-02 0.777E-04
CGA:   9    -0.128537844020E+04   -0.60749E-03   -0.60709E-03  8540   0.593E-03-0.424E-04
CGA:  10    -0.128537863664E+04   -0.19644E-03   -0.19609E-03  8540   0.184E-03-0.226E-04
CGA:  11    -0.128537870839E+04   -0.71745E-04   -0.75207E-04  8540   0.861E-04-0.487E-04
CGA:  12    -0.128537870172E+04    0.66685E-05   -0.60260E-04  8540   0.303E-03-0.113E-03
CGA:  13    -0.128537877826E+04   -0.76541E-04   -0.75355E-04  8540   0.404E-04-0.861E-05
CGA:  14    -0.128537879480E+04   -0.16535E-04   -0.16716E-04  8540   0.121E-04-0.395E-05
CGA:  15    -0.128537880881E+04   -0.14011E-04    0.30830E-05  8540   0.392E-05 0.853E-06
CGA:  16    -0.128537880896E+04   -0.15442E-06   -0.68987E-06  8540   0.165E-05 0.245E-05
  46 F= -.12853788E+04 E0= -.12853788E+04  d E =0.367925E-01  mag=   126.0000
       N       E                     dE             d eps       ncg     rms          ort
SDA:   1    -0.128401183556E+04    0.13670E+01    0.00000E+00  8540   0.370E+01 0.000E+00
CGA:   2    -0.128492778230E+04   -0.91595E+00   -0.91637E+00  8540   0.182E+01 0.152E-02
CGA:   3    -0.128531740331E+04   -0.38962E+00   -0.38944E+00  8540   0.338E+00-0.146E-02
CGA:   4    -0.128538650538E+04   -0.69102E-01   -0.69008E-01  8540   0.608E-01-0.635E-03
CGA:   5    -0.128539973141E+04   -0.13226E-01   -0.13260E-01  8540   0.145E-01 0.241E-03
CGA:   6    -0.128540313169E+04   -0.34003E-02   -0.34176E-02  8540   0.381E-02 0.155E-03
CGA:   7    -0.128540418105E+04   -0.10494E-02   -0.10435E-02  8540   0.124E-02-0.883E-04
CGA:   8    -0.128540457154E+04   -0.39048E-03   -0.38890E-03  8540   0.486E-03-0.121E-03
CGA:   9    -0.128540472830E+04   -0.15677E-03   -0.15882E-03  8540   0.195E-03-0.735E-04
CGA:  10    -0.128540478473E+04   -0.56425E-04   -0.56525E-04  8540   0.655E-04-0.150E-04
CGA:  11    -0.128540481038E+04   -0.25651E-04   -0.31156E-04  8540   0.547E-04-0.307E-04
CGA:  12    -0.128540483803E+04   -0.27649E-04    0.13112E-04  8540   0.293E-04-0.264E-05
CGA:  13    -0.128540486032E+04   -0.22294E-04    0.29760E-04  8540   0.149E-04-0.614E-06
CGA:  14    -0.128540487367E+04   -0.13344E-04    0.76745E-05  8540   0.675E-05-0.164E-07
CGA:  15    -0.128540488189E+04   -0.82217E-05    0.15154E-05  8540   0.279E-05 0.279E-06
  47 F= -.12854049E+04 E0= -.12854049E+04  d E =-.260729E-01  mag=   126.0000
       N       E                     dE             d eps       ncg     rms          ort
SDA:   1    -0.128436960081E+04    0.10353E+01    0.00000E+00  8540   0.264E+01 0.000E+00
CGA:   2    -0.128509506236E+04   -0.72546E+00   -0.72553E+00  8540   0.134E+01-0.215E-03
CGA:   3    -0.128535866925E+04   -0.26361E+00   -0.26355E+00  8540   0.220E+00-0.455E-03
CGA:   4    -0.128540384732E+04   -0.45178E-01   -0.45192E-01  8540   0.408E-01 0.829E-04
CGA:   5    -0.128541273891E+04   -0.88916E-02   -0.89181E-02  8540   0.947E-02 0.188E-03
CGA:   6    -0.128541495323E+04   -0.22143E-02   -0.22220E-02  8540   0.249E-02 0.667E-04
CGA:   7    -0.128541563429E+04   -0.68106E-03   -0.67887E-03  8540   0.804E-03-0.318E-04
CGA:   8    -0.128541587707E+04   -0.24278E-03   -0.24229E-03  8540   0.285E-03-0.154E-04
CGA:   9    -0.128541596638E+04   -0.89309E-04   -0.89419E-04  8540   0.865E-04 0.714E-05
CGA:  10    -0.128541599359E+04   -0.27213E-04   -0.27407E-04  8540   0.248E-04 0.761E-05
CGA:  11    -0.128541600266E+04   -0.90612E-05   -0.90548E-05  8540   0.878E-05 0.227E-05
CGA:  12    -0.128541599364E+04    0.90118E-05   -0.13474E-04  8540   0.799E-04-0.211E-04
CGA:  13    -0.128541601126E+04   -0.17617E-04   -0.18840E-04  8540   0.868E-05 0.808E-05
CGA:  14    -0.128541592613E+04    0.85131E-04   -0.45853E-04  8540   0.315E-03-0.523E-04
CGA:  15    -0.128541599172E+04   -0.65586E-04   -0.82617E-04  8540   0.401E-04 0.396E-04
CGA:  16    -0.128541599320E+04   -0.14872E-05   -0.50091E-04  8540   0.319E-03-0.110E-03
CGA:  17    -0.128541599392E+04   -0.71631E-06   -0.50529E-04  8540   0.580E-04 0.934E-04
CGA:  18    -0.128541600199E+04   -0.80722E-05   -0.15976E-04  8540   0.154E-04 0.175E-04
CGA:  19    -0.128541604049E+04   -0.38501E-04    0.13043E-04  8540   0.720E-04-0.384E-04
CGA:  20    -0.128541602755E+04    0.12942E-04   -0.67950E-05  8540   0.203E-04 0.360E-04
CGA:  21    -0.128541602003E+04    0.75172E-05   -0.20198E-05  8540   0.867E-05 0.174E-04
  48 F= -.12854160E+04 E0= -.12854160E+04  d E =-.111381E-01  mag=   126.0000
       N       E                     dE             d eps       ncg     rms          ort
SDA:   1    -0.128234629569E+04    0.30697E+01    0.00000E+00  8540   0.787E+01 0.000E+00
CGA:   2    -0.128442142920E+04   -0.20751E+01   -0.20758E+01  8540   0.399E+01 0.124E-03
CGA:   3    -0.128523386504E+04   -0.81244E+00   -0.81257E+00  8540   0.678E+00 0.133E-02
CGA:   4    -0.128537236459E+04   -0.13850E+00   -0.13864E+00  8540   0.122E+00 0.314E-03
CGA:   5    -0.128539952717E+04   -0.27163E-01   -0.27246E-01  8540   0.290E-01 0.258E-03
CGA:   6    -0.128540635839E+04   -0.68312E-02   -0.68525E-02  8540   0.755E-02 0.739E-04
CGA:   7    -0.128540837424E+04   -0.20158E-02   -0.20145E-02  8540   0.236E-02-0.746E-05
CGA:   8    -0.128540906408E+04   -0.68984E-03   -0.69616E-03  8540   0.798E-03 0.339E-04
CGA:   9    -0.128540931231E+04   -0.24823E-03   -0.25589E-03  8540   0.247E-03 0.498E-04
CGA:  10    -0.128540938685E+04   -0.74538E-04   -0.80052E-04  8540   0.746E-04 0.351E-04
CGA:  11    -0.128540940680E+04   -0.19953E-04   -0.23821E-04  8540   0.252E-04 0.222E-04
CGA:  12    -0.128540941384E+04   -0.70379E-05   -0.90093E-05  8540   0.114E-04 0.116E-04
  49 F= -.12854094E+04 E0= -.12854094E+04  d E =0.660620E-02  mag=   126.0000
       N       E                     dE             d eps       ncg     rms          ort
SDA:   1    -0.124836644519E+04    0.37043E+02    0.00000E+00  8540   0.105E+03 0.000E+00
CGA:   2    -0.127153124343E+04   -0.23165E+02   -0.23368E+02  8540   0.463E+02-0.372E-01
CGA:   3    -0.128237458513E+04   -0.10843E+02   -0.10860E+02  8540   0.969E+01 0.143E+00
CGA:   4    -0.128435839806E+04   -0.19838E+01   -0.19856E+01  8540   0.176E+01 0.106E-01
CGA:   5    -0.128474459480E+04   -0.38620E+00   -0.38665E+00  8540   0.427E+00 0.962E-03
CGA:   6    -0.128484770930E+04   -0.10311E+00   -0.10316E+00  8540   0.114E+00 0.134E-03
CGA:   7    -0.128487760453E+04   -0.29895E-01   -0.30042E-01  8540   0.355E-01 0.121E-02
CGA:   8    -0.128488771123E+04   -0.10107E-01   -0.10211E-01  8540   0.115E-01 0.114E-02
CGA:   9    -0.128489152708E+04   -0.38159E-02   -0.38428E-02  8540   0.385E-02 0.584E-03
CGA:  10    -0.128489272443E+04   -0.11973E-02   -0.12334E-02  8540   0.118E-02 0.572E-03
CGA:  11    -0.128489304411E+04   -0.31968E-03   -0.35840E-03  8540   0.374E-03 0.385E-03
CGA:  12    -0.128489311726E+04   -0.73149E-04   -0.10671E-03  8540   0.164E-03 0.231E-03
CGA:  13    -0.128489312993E+04   -0.12671E-04   -0.31424E-04  8540   0.968E-04 0.116E-03
CGA:  14    -0.128489312785E+04    0.20758E-05   -0.14670E-04  8540   0.788E-04 0.867E-04
CGA:  15    -0.128489312330E+04    0.45582E-05   -0.10327E-04  8540   0.681E-04 0.730E-04
  50 F= -.12848931E+04 E0= -.12848931E+04  d E =0.516291E+00  mag=   126.0000
       N       E                     dE             d eps       ncg     rms          ort
SDA:   1    -0.127531596089E+04    0.95772E+01    0.00000E+00  8540   0.314E+02 0.000E+00
CGA:   2    -0.128150264362E+04   -0.61867E+01   -0.62128E+01  8540   0.120E+02 0.324E-01
CGA:   3    -0.128450058676E+04   -0.29979E+01   -0.29991E+01  8540   0.302E+01 0.986E-02
CGA:   4    -0.128514308521E+04   -0.64250E+00   -0.64220E+00  8540   0.574E+00-0.516E-02
CGA:   5    -0.128526653222E+04   -0.12345E+00   -0.12339E+00  8540   0.131E+00-0.105E-02
CGA:   6    -0.128529789418E+04   -0.31362E-01   -0.31333E-01  8540   0.352E-01-0.564E-03
CGA:   7    -0.128530729499E+04   -0.94008E-02   -0.93915E-02  8540   0.109E-01-0.369E-03
CGA:   8    -0.128531041502E+04   -0.31200E-02   -0.31183E-02  8540   0.364E-02-0.427E-03
CGA:   9    -0.128531165702E+04   -0.12420E-02   -0.12746E-02  8540   0.150E-02-0.452E-03
CGA:  10    -0.128531212036E+04   -0.46334E-03   -0.47359E-03  8540   0.552E-03-0.158E-03
CGA:  11    -0.128531231315E+04   -0.19279E-03   -0.25194E-03  8540   0.407E-03-0.281E-03
CGA:  12    -0.128531243201E+04   -0.11885E-03   -0.11759E-03  8540   0.996E-04-0.613E-04
CGA:  13    -0.128531249381E+04   -0.61806E-04    0.71080E-04  8540   0.252E-04 0.128E-04
CGA:  14    -0.128531252653E+04   -0.32713E-04    0.50662E-05  8540   0.119E-04 0.119E-04
CGA:  15    -0.128531255671E+04   -0.30188E-04    0.14901E-05  8540   0.642E-05 0.775E-05
CGA:  16    -0.128531257416E+04   -0.17442E-04    0.29123E-06  8540   0.350E-05 0.341E-05
CGA:  17    -0.128531258615E+04   -0.11994E-04    0.11859E-06  8540   0.270E-05 0.290E-05
CGA:  18    -0.128531259900E+04   -0.12848E-04    0.62320E-07  8540   0.218E-05 0.237E-05
CGA:  19    -0.128531260842E+04   -0.94243E-05    0.56194E-07  8540   0.178E-05 0.193E-05
  51 F= -.12853126E+04 E0= -.12853126E+04  d E =-.419485E+00  mag=   126.0000
       N       E                     dE             d eps       ncg     rms          ort
SDA:   1    -0.128500307822E+04    0.30952E+00    0.00000E+00  8540   0.100E+01 0.000E+00
CGA:   2    -0.128521389947E+04   -0.21082E+00   -0.21106E+00  8540   0.420E+00 0.176E-02
CGA:   3    -0.128531638533E+04   -0.10249E+00   -0.10241E+00  8540   0.101E+00-0.151E-02
CGA:   4    -0.128533725757E+04   -0.20872E-01   -0.20770E-01  8540   0.185E-01-0.111E-02
CGA:   5    -0.128534121666E+04   -0.39591E-02   -0.39546E-02  8540   0.435E-02-0.626E-04
CGA:   6    -0.128534222786E+04   -0.10112E-02   -0.10124E-02  8540   0.113E-02 0.190E-04
CGA:   7    -0.128534255265E+04   -0.32479E-03   -0.32450E-03  8540   0.402E-03-0.952E-04
CGA:   8    -0.128534267925E+04   -0.12660E-03   -0.16089E-03  8540   0.390E-03-0.232E-03
CGA:   9    -0.128534275981E+04   -0.80560E-04   -0.77737E-04  8540   0.669E-04-0.292E-04
CGA:  10    -0.128534235161E+04    0.40819E-03   -0.21986E-03  8540   0.238E-02-0.325E-03
CGA:  11    -0.128534281410E+04   -0.46249E-03   -0.45304E-03  8540   0.236E-03-0.283E-04
CGA:  12    -0.128534289859E+04   -0.84489E-04   -0.81117E-04  8540   0.273E-04-0.202E-04
CGA:  13    -0.128534291055E+04   -0.11956E-04   -0.11662E-04  8540   0.931E-05-0.758E-05
CGA:  14    -0.128534291331E+04   -0.27651E-05   -0.25151E-05  8540   0.340E-05-0.192E-05
  52 F= -.12853429E+04 E0= -.12853429E+04  d E =-.303049E-01  mag=   126.0000
       N       E                     dE             d eps       ncg     rms          ort
SDA:   1    -0.128371299586E+04    0.16299E+01    0.00000E+00  8540   0.473E+01 0.000E+00
CGA:   2    -0.128475485822E+04   -0.10419E+01   -0.10437E+01  8540   0.209E+01 0.207E-02
CGA:   3    -0.128524759453E+04   -0.49274E+00   -0.49249E+00  8540   0.474E+00-0.171E-02
CGA:   4    -0.128534436054E+04   -0.96766E-01   -0.96382E-01  8540   0.840E-01-0.142E-02
CGA:   5    -0.128536264252E+04   -0.18282E-01   -0.18286E-01  8540   0.199E-01-0.118E-04
CGA:   6    -0.128536731905E+04   -0.46765E-02   -0.46931E-02  8540   0.523E-02 0.730E-04
CGA:   7    -0.128536871627E+04   -0.13972E-02   -0.13886E-02  8540   0.159E-02-0.514E-04
CGA:   8    -0.128536922393E+04   -0.50766E-03   -0.49176E-03  8540   0.588E-03-0.138E-03
CGA:   9    -0.128536944595E+04   -0.22202E-03   -0.22004E-03  8540   0.337E-03-0.169E-03
CGA:  10    -0.128536954265E+04   -0.96696E-04   -0.94228E-04  8540   0.159E-03-0.884E-04
CGA:  11    -0.128536958658E+04   -0.43930E-04   -0.76753E-04  8540   0.255E-03-0.140E-03
CGA:  12    -0.128536965429E+04   -0.67717E-04   -0.64907E-04  8540   0.458E-04-0.160E-04
CGA:  13    -0.128536943998E+04    0.21432E-03   -0.84641E-04  8540   0.130E-02-0.193E-03
CGA:  14    -0.128536967825E+04   -0.23827E-03   -0.26193E-03  8540   0.941E-04 0.789E-04
CGA:  15    -0.128536972600E+04   -0.47751E-04   -0.47460E-04  8540   0.362E-04-0.310E-04
CGA:  16    -0.128536972298E+04    0.30160E-05   -0.24789E-05  8540   0.196E-04 0.144E-04
  53 F= -.12853697E+04 E0= -.12853697E+04  d E =-.268097E-01  mag=   126.0000
       N       E                     dE             d eps       ncg     rms          ort
SDA:   1    -0.128509774765E+04    0.27198E+00    0.00000E+00  8540   0.750E+00 0.000E+00
CGA:   2    -0.128528252727E+04   -0.18478E+00   -0.18490E+00  8540   0.370E+00 0.285E-03
CGA:   3    -0.128536252289E+04   -0.79996E-01   -0.79857E-01  8540   0.692E-01-0.699E-03
CGA:   4    -0.128537655175E+04   -0.14029E-01   -0.13979E-01  8540   0.124E-01-0.229E-03
CGA:   5    -0.128537925843E+04   -0.27067E-02   -0.27077E-02  8540   0.294E-02 0.145E-05
CGA:   6    -0.128537996220E+04   -0.70377E-03   -0.69917E-03  8540   0.778E-03-0.282E-04
CGA:   7    -0.128538016457E+04   -0.20237E-03   -0.20158E-03  8540   0.233E-03-0.599E-05
CGA:   8    -0.128538023177E+04   -0.67201E-04   -0.67331E-04  8540   0.757E-04 0.127E-05
CGA:   9    -0.128538026141E+04   -0.29636E-04   -0.29713E-04  8540   0.354E-04-0.133E-04
CGA:  10    -0.128538027349E+04   -0.12076E-04   -0.12659E-04  8540   0.199E-04-0.120E-04
CGA:  11    -0.128538027304E+04    0.45083E-06   -0.10916E-04  8540   0.591E-04-0.256E-04
CGA:  12    -0.128538028458E+04   -0.11548E-04   -0.12466E-04  8540   0.765E-05 0.461E-05
CGA:  13    -0.128538028858E+04   -0.39957E-05   -0.56375E-05  8540   0.106E-04-0.578E-05
  54 F= -.12853803E+04 E0= -.12853803E+04  d E =-.105656E-01  mag=   126.0000
       N       E                     dE             d eps       ncg     rms          ort
SDA:   1    -0.127822136875E+04    0.71589E+01    0.00000E+00  8540   0.184E+02 0.000E+00
CGA:   2    -0.128306122902E+04   -0.48399E+01   -0.48418E+01  8540   0.938E+01 0.194E-02
CGA:   3    -0.128498766541E+04   -0.19264E+01   -0.19264E+01  8540   0.159E+01-0.842E-03
CGA:   4    -0.128530974420E+04   -0.32208E+00   -0.32212E+00  8540   0.288E+00 0.256E-03
CGA:   5    -0.128537327441E+04   -0.63530E-01   -0.63576E-01  8540   0.691E-01 0.209E-03
CGA:   6    -0.128538955207E+04   -0.16278E-01   -0.16252E-01  8540   0.180E-01-0.209E-03
CGA:   7    -0.128539423952E+04   -0.46874E-02   -0.46958E-02  8540   0.551E-02 0.799E-04
CGA:   8    -0.128539583177E+04   -0.15922E-02   -0.16046E-02  8540   0.181E-02 0.183E-03
CGA:   9    -0.128539647260E+04   -0.64083E-03   -0.64086E-03  8540   0.628E-03 0.241E-05
CGA:  10    -0.128539668985E+04   -0.21724E-03   -0.21714E-03  8540   0.212E-03-0.132E-04
CGA:  11    -0.128539676388E+04   -0.74035E-04   -0.74062E-04  8540   0.723E-04-0.740E-05
CGA:  12    -0.128539679569E+04   -0.31812E-04   -0.33971E-04  8540   0.476E-04-0.163E-04
CGA:  13    -0.128539681232E+04   -0.16631E-04   -0.16657E-04  8540   0.259E-04-0.432E-06
CGA:  14    -0.128539683318E+04   -0.20857E-04    0.39847E-04  8540   0.109E-04 0.566E-05
CGA:  15    -0.128539674600E+04    0.87182E-04   -0.46972E-04  8540   0.318E-03-0.590E-04
CGA:  16    -0.128539685133E+04   -0.10533E-03   -0.10079E-03  8540   0.472E-04-0.131E-04
CGA:  17    -0.128539685750E+04   -0.61687E-05   -0.10784E-04  8540   0.103E-04 0.113E-04
  55 F= -.12853969E+04 E0= -.12853969E+04  d E =-.165689E-01  mag=   126.0000
       N       E                     dE             d eps       ncg     rms          ort
SDA:   1    -0.126227783265E+04    0.23119E+02    0.00000E+00  8540   0.573E+02 0.000E+00
[...]
CGA:   6    -0.128587678198E+04   -0.10202E-01   -0.10270E-01  8540   0.114E-01 0.968E-03
CGA:   7    -0.128587979775E+04   -0.30158E-02   -0.30187E-02  8540   0.356E-02 0.835E-04
CGA:   8    -0.128588098200E+04   -0.11843E-02   -0.12023E-02  8540   0.152E-02-0.412E-03
CGA:   9    -0.128588147532E+04   -0.49332E-03   -0.53365E-03  8540   0.747E-03-0.394E-03
CGA:  10    -0.128588164719E+04   -0.17188E-03   -0.17275E-03  8540   0.236E-03-0.672E-04
CGA:  11    -0.128588173000E+04   -0.82806E-04   -0.10565E-03  8540   0.189E-03-0.119E-03
CGA:  12    -0.128588178558E+04   -0.55585E-04   -0.10503E-03  8540   0.346E-03-0.201E-03
CGA:  13    -0.128588185740E+04   -0.71813E-04   -0.72430E-04  8540   0.170E-04 0.543E-05
CGA:  14    -0.128588186934E+04   -0.11943E-04    0.28685E-04  8540   0.658E-05 0.290E-05
CGA:  15    -0.128588188870E+04   -0.19360E-04    0.40850E-06  8540   0.412E-05 0.459E-05
CGA:  16    -0.128588189846E+04   -0.97601E-05    0.23703E-06  8540   0.226E-05 0.212E-05
  85 F= -.12858819E+04 E0= -.12858819E+04  d E =0.248125E-01  mag=   126.0000
       N       E                     dE             d eps       ncg     rms          ort
SDA:   1    -0.126914233755E+04    0.16740E+02    0.00000E+00  8540   0.480E+02 0.000E+00
CGA:   2    -0.127965387553E+04   -0.10512E+02   -0.10532E+02  8540   0.206E+02 0.512E-01
CGA:   3    -0.128444454639E+04   -0.47907E+01   -0.47916E+01  8540   0.462E+01 0.104E-01
CGA:   4    -0.128539869154E+04   -0.95415E+00   -0.95492E+00  8540   0.876E+00 0.480E-02
CGA:   5    -0.128558583468E+04   -0.18714E+00   -0.18711E+00  8540   0.211E+00-0.969E-03
CGA:   6    -0.128563605958E+04   -0.50225E-01   -0.50032E-01  8540   0.592E-01-0.329E-02
CGA:   7    -0.128565109393E+04   -0.15034E-01   -0.15038E-01  8540   0.176E-01 0.904E-04
CGA:   8    -0.128565565753E+04   -0.45636E-02   -0.46116E-02  8540   0.500E-02 0.150E-02
CGA:   9    -0.128565716581E+04   -0.15083E-02   -0.15192E-02  8540   0.159E-02 0.999E-03
CGA:  10    -0.128565767344E+04   -0.50763E-03   -0.51749E-03  8540   0.585E-03 0.517E-03
CGA:  11    -0.128565782415E+04   -0.15071E-03   -0.17312E-03  8540   0.240E-03 0.337E-03
CGA:  12    -0.128565784474E+04   -0.20590E-04   -0.40098E-04  8540   0.132E-03 0.163E-03
CGA:  13    -0.128565784284E+04    0.18981E-05   -0.16345E-04  8540   0.106E-03 0.116E-03
CGA:  14    -0.128565783780E+04    0.50439E-05   -0.11174E-04  8540   0.909E-04 0.970E-04
  86 F= -.12856578E+04 E0= -.12856578E+04  d E =0.224061E+00  mag=   126.0000
       N       E                     dE             d eps       ncg     rms          ort
SDA:   1    -0.128084201612E+04    0.48158E+01    0.00000E+00  8540   0.152E+02 0.000E+00
CGA:   2    -0.128398207667E+04   -0.31401E+01   -0.31429E+01  8540   0.606E+01 0.301E-01
CGA:   3    -0.128544293760E+04   -0.14609E+01   -0.14609E+01  8540   0.152E+01 0.242E-02
CGA:   4    -0.128575725530E+04   -0.31432E+00   -0.31414E+00  8540   0.299E+00-0.454E-02
CGA:   5    -0.128582017802E+04   -0.62923E-01   -0.62946E-01  8540   0.697E-01 0.467E-03
CGA:   6    -0.128583590240E+04   -0.15724E-01   -0.15748E-01  8540   0.179E-01 0.104E-02
CGA:   7    -0.128584066060E+04   -0.47582E-02   -0.47543E-02  8540   0.544E-02 0.276E-03
CGA:   8    -0.128584237291E+04   -0.17123E-02   -0.17601E-02  8540   0.217E-02-0.676E-03
CGA:   9    -0.128584303773E+04   -0.66482E-03   -0.84059E-03  8540   0.160E-02-0.921E-03
CGA:  10    -0.128584329103E+04   -0.25329E-03   -0.25575E-03  8540   0.576E-03-0.147E-03
CGA:  11    -0.128584343102E+04   -0.13999E-03   -0.14001E-03  8540   0.231E-03-0.456E-05
CGA:  12    -0.128584348561E+04   -0.54590E-04   -0.13507E-03  8540   0.452E-03-0.247E-03
CGA:  13    -0.128584359718E+04   -0.11158E-03   -0.11143E-03  8540   0.689E-04-0.478E-05
CGA:  14    -0.128584365119E+04   -0.54003E-04    0.21880E-04  8540   0.125E-04 0.118E-04
CGA:  15    -0.128584366332E+04   -0.12134E-04    0.40524E-05  8540   0.651E-05 0.692E-05
CGA:  16    -0.128584367189E+04   -0.85707E-05    0.65434E-06  8540   0.336E-05 0.331E-05
  87 F= -.12858437E+04 E0= -.12858437E+04  d E =-.185834E+00  mag=   126.0000
       N       E                     dE             d eps       ncg     rms          ort
SDA:   1    -0.128521128666E+04    0.63238E+00    0.00000E+00  8540   0.180E+01 0.000E+00
CGA:   2    -0.128561139390E+04   -0.40011E+00   -0.40037E+00  8540   0.790E+00 0.368E-02
CGA:   3    -0.128579375726E+04   -0.18236E+00   -0.18233E+00  8540   0.177E+00-0.128E-02
CGA:   4    -0.128583045803E+04   -0.36701E-01   -0.36563E-01  8540   0.344E-01-0.214E-02
CGA:   5    -0.128583754143E+04   -0.70834E-02   -0.71026E-02  8540   0.798E-02 0.311E-03
CGA:   6    -0.128583924032E+04   -0.16989E-02   -0.17307E-02  8540   0.196E-02 0.626E-03
CGA:   7    -0.128583980153E+04   -0.56121E-03   -0.56108E-03  8540   0.630E-03 0.548E-04
CGA:   8    -0.128583984592E+04   -0.44392E-04   -0.46407E-03  8540   0.222E-02-0.927E-03
CGA:   9    -0.128584024110E+04   -0.39518E-03   -0.40147E-03  8540   0.236E-03 0.592E-04
CGA:  10    -0.128584031428E+04   -0.73177E-04   -0.73339E-04  8540   0.580E-04-0.764E-05
CGA:  11    -0.128584036315E+04   -0.48866E-04    0.14532E-04  8540   0.145E-04 0.624E-05
CGA:  12    -0.128584039754E+04   -0.34394E-04    0.80976E-06  8540   0.466E-05 0.452E-05
CGA:  13    -0.128584042437E+04   -0.26830E-04    0.12667E-06  8540   0.286E-05 0.274E-05
CGA:  14    -0.128584043739E+04   -0.13020E-04    0.56701E-07  8540   0.153E-05 0.145E-05
CGA:  15    -0.128584044919E+04   -0.11806E-04    0.16874E-07  8540   0.113E-05 0.116E-05
CGA:  16    -0.128584046051E+04   -0.11319E-04    0.94766E-08  8540   0.883E-06 0.946E-06
CGA:  17    -0.128584047007E+04   -0.95526E-05    0.68327E-08  8540   0.708E-06 0.768E-06
  88 F= -.12858405E+04 E0= -.12858405E+04  d E =0.320183E-02  mag=   126.0000
       N       E                     dE             d eps       ncg     rms          ort
SDA:   1    -0.128349645407E+04    0.23440E+01    0.00000E+00  8540   0.614E+01 0.000E+00
CGA:   2    -0.128500117871E+04   -0.15047E+01   -0.15051E+01  8540   0.298E+01 0.628E-02
CGA:   3    -0.128564038820E+04   -0.63921E+00   -0.63914E+00  8540   0.562E+00-0.198E-02
CGA:   4    -0.128575512350E+04   -0.11474E+00   -0.11454E+00  8540   0.106E+00-0.276E-02
CGA:   5    -0.128577733622E+04   -0.22213E-01   -0.22276E-01  8540   0.251E-01 0.998E-03
CGA:   6    -0.128578293378E+04   -0.55976E-02   -0.56577E-02  8540   0.631E-02 0.128E-02
CGA:   7    -0.128578465721E+04   -0.17234E-02   -0.17245E-02  8540   0.195E-02 0.143E-03
CGA:   8    -0.128578536136E+04   -0.70415E-03   -0.77331E-03  8540   0.119E-02-0.573E-03
CGA:   9    -0.128578563983E+04   -0.27847E-03   -0.31289E-03  8540   0.562E-03-0.351E-03
CGA:  10    -0.128578574519E+04   -0.10536E-03   -0.10544E-03  8540   0.187E-03 0.591E-05
CGA:  11    -0.128578580436E+04   -0.59163E-04   -0.59619E-04  8540   0.875E-04-0.121E-04
CGA:  12    -0.128578585970E+04   -0.55346E-04    0.54563E-04  8540   0.388E-04 0.120E-04
CGA:  13    -0.128578590871E+04   -0.49006E-04    0.62467E-05  8540   0.177E-04 0.936E-05
CGA:  14    -0.128578594017E+04   -0.31464E-04    0.19652E-05  8540   0.760E-05 0.501E-05
CGA:  15    -0.128578595516E+04   -0.14993E-04    0.77732E-06  8540   0.314E-05 0.235E-05
CGA:  16    -0.128578596311E+04   -0.79475E-05    0.23340E-06  8540   0.118E-05 0.820E-06
  89 F= -.12857860E+04 E0= -.12857860E+04  d E =0.545070E-01  mag=   126.0000
       N       E                     dE             d eps       ncg     rms          ort
SDA:   1    -0.127458400025E+04    0.11202E+02    0.00000E+00  8540   0.327E+02 0.000E+00
CGA:   2    -0.128154599756E+04   -0.69620E+01   -0.69730E+01  8540   0.136E+02 0.580E-01
CGA:   3    -0.128476788810E+04   -0.32219E+01   -0.32223E+01  8540   0.317E+01 0.627E-02
CGA:   4    -0.128542402914E+04   -0.65614E+00   -0.65655E+00  8540   0.606E+00 0.405E-02
CGA:   5    -0.128555385499E+04   -0.12983E+00   -0.12983E+00  8540   0.144E+00-0.328E-03
CGA:   6    -0.128558802885E+04   -0.34174E-01   -0.34103E-01  8540   0.400E-01-0.232E-02
CGA:   7    -0.128559815035E+04   -0.10121E-01   -0.10124E-01  8540   0.118E-01 0.283E-03
CGA:   8    -0.128560116543E+04   -0.30151E-02   -0.30302E-02  8540   0.324E-02 0.126E-02
CGA:   9    -0.128560209801E+04   -0.93258E-03   -0.93638E-03  8540   0.105E-02 0.889E-03
CGA:  10    -0.128560239541E+04   -0.29741E-03   -0.31367E-03  8540   0.424E-03 0.516E-03
CGA:  11    -0.128560248401E+04   -0.88597E-04   -0.11589E-03  8540   0.207E-03 0.341E-03
CGA:  12    -0.128560249717E+04   -0.13163E-04   -0.30542E-04  8540   0.130E-03 0.155E-03
CGA:  13    -0.128560249464E+04    0.25309E-05   -0.14228E-04  8540   0.107E-03 0.116E-03
  90 F= -.12856025E+04 E0= -.12856025E+04  d E =0.183468E+00  mag=   126.0000
       N       E                     dE             d eps       ncg     rms          ort
SDA:   1    -0.127943082273E+04    0.61717E+01    0.00000E+00  8540   0.192E+02 0.000E+00
CGA:   2    -0.128336398947E+04   -0.39332E+01   -0.39363E+01  8540   0.756E+01 0.493E-01
CGA:   3    -0.128520786663E+04   -0.18439E+01   -0.18438E+01  8540   0.192E+01 0.401E-02
CGA:   4    -0.128560563797E+04   -0.39777E+00   -0.39762E+00  8540   0.376E+00-0.577E-02
CGA:   5    -0.128568507960E+04   -0.79442E-01   -0.79447E-01  8540   0.878E-01 0.401E-04
CGA:   6    -0.128570503544E+04   -0.19956E-01   -0.19961E-01  8540   0.227E-01 0.703E-03
CGA:   7    -0.128571105355E+04   -0.60181E-02   -0.60157E-02  8540   0.700E-02 0.783E-04
CGA:   8    -0.128571320259E+04   -0.21490E-02   -0.22185E-02  8540   0.276E-02-0.873E-03
CGA:   9    -0.128571403082E+04   -0.82822E-03   -0.11013E-02  8540   0.221E-02-0.126E-02
CGA:  10    -0.128571438502E+04   -0.35420E-03   -0.38677E-03  8540   0.921E-03-0.455E-03
CGA:  11    -0.128571462932E+04   -0.24430E-03   -0.27804E-03  8540   0.513E-03-0.269E-03
CGA:  12    -0.128571266606E+04    0.19633E-02   -0.10571E-02  8540   0.975E-02-0.179E-02
CGA:  13    -0.128571480966E+04   -0.21436E-02   -0.21796E-02  8540   0.102E-02 0.140E-03
CGA:  14    -0.128571523136E+04   -0.42170E-03   -0.41579E-03  8540   0.200E-03-0.993E-04
CGA:  15    -0.128571525224E+04   -0.20877E-04   -0.38916E-04  8540   0.565E-04 0.739E-04
CGA:  16    -0.128571525517E+04   -0.29300E-05   -0.13321E-04  8540   0.237E-04 0.377E-04
  91 F= -.12857153E+04 E0= -.12857153E+04  d E =-.112761E+00  mag=   126.0000
       N       E                     dE             d eps       ncg     rms          ort
SDA:   1    -0.128540211722E+04    0.31314E+00    0.00000E+00  8540   0.791E+00 0.000E+00
CGA:   2    -0.128558455348E+04   -0.18244E+00   -0.18271E+00  8540   0.357E+00 0.107E-02
CGA:   3    -0.128566431008E+04   -0.79757E-01   -0.79686E-01  8540   0.752E-01-0.510E-03
CGA:   4    -0.128568019434E+04   -0.15884E-01   -0.15722E-01  8540   0.145E-01-0.840E-03
CGA:   5    -0.128568313914E+04   -0.29448E-02   -0.29873E-02  8540   0.330E-02 0.224E-03
CGA:   6    -0.128568379472E+04   -0.65559E-03   -0.71424E-03  8540   0.808E-03 0.340E-03
CGA:   7    -0.128568401849E+04   -0.22377E-03   -0.23064E-03  8540   0.253E-03 0.581E-04
CGA:   8    -0.128568412062E+04   -0.10213E-03   -0.16363E-03  8540   0.535E-03-0.265E-03
CGA:   9    -0.128568420975E+04   -0.89130E-04   -0.95987E-04  8540   0.570E-04 0.337E-04
CGA:  10    -0.128568422734E+04   -0.17588E-04   -0.17757E-04  8540   0.139E-04 0.211E-05
CGA:  11    -0.128568424817E+04   -0.20828E-04    0.27679E-05  8540   0.603E-05-0.770E-06
CGA:  12    -0.128568426622E+04   -0.18054E-04    0.31772E-06  8540   0.266E-05 0.429E-06
CGA:  13    -0.128568428085E+04   -0.14628E-04    0.88172E-07  8540   0.148E-05 0.111E-05
CGA:  14    -0.128568429195E+04   -0.11100E-04    0.62355E-07  8540   0.755E-06 0.623E-06
CGA:  15    -0.128568429993E+04   -0.79775E-05    0.21743E-07  8540   0.475E-06 0.482E-06
  92 F= -.12856843E+04 E0= -.12856843E+04  d E =0.309552E-01  mag=   126.0000
       N       E                     dE             d eps       ncg     rms          ort
SDA:   1    -0.127920076986E+04    0.64835E+01    0.00000E+00  8540   0.194E+02 0.000E+00
CGA:   2    -0.128317580091E+04   -0.39750E+01   -0.39904E+01  8540   0.766E+01 0.853E-02
CGA:   3    -0.128502279460E+04   -0.18470E+01   -0.18472E+01  8540   0.193E+01 0.349E-02
CGA:   4    -0.128542399244E+04   -0.40120E+00   -0.40125E+00  8540   0.377E+00-0.403E-03
CGA:   5    -0.128550374478E+04   -0.79752E-01   -0.79839E-01  8540   0.872E-01 0.387E-03
CGA:   6    -0.128552389592E+04   -0.20151E-01   -0.20147E-01  8540   0.233E-01-0.615E-04
CGA:   7    -0.128552983549E+04   -0.59396E-02   -0.59774E-02  8540   0.686E-02 0.480E-03
CGA:   8    -0.128553165650E+04   -0.18210E-02   -0.18543E-02  8540   0.198E-02 0.500E-03
CGA:   9    -0.128553224503E+04   -0.58853E-03   -0.60465E-03  8540   0.661E-03 0.374E-03
CGA:  10    -0.128553239866E+04   -0.15363E-03   -0.18260E-03  8540   0.253E-03 0.310E-03
CGA:  11    -0.128553242906E+04   -0.30409E-04   -0.62558E-04  8540   0.127E-03 0.211E-03
CGA:  12    -0.128553243105E+04   -0.19836E-05   -0.18381E-04  8540   0.825E-04 0.970E-04
  93 F= -.12855324E+04 E0= -.12855324E+04  d E =0.151869E+00  mag=   126.0000
       N       E                     dE             d eps       ncg     rms          ort
SDA:   1    -0.127218077472E+04    0.13352E+02    0.00000E+00  8540   0.416E+02 0.000E+00
CGA:   2    -0.128050306213E+04   -0.83223E+01   -0.83546E+01  8540   0.157E+02 0.853E-01
CGA:   3    -0.128437512549E+04   -0.38721E+01   -0.38732E+01  8540   0.413E+01 0.124E-01
CGA:   4    -0.128523479219E+04   -0.85967E+00   -0.85936E+00  8540   0.813E+00-0.773E-02
CGA:   5    -0.128540647231E+04   -0.17168E+00   -0.17167E+00  8540   0.188E+00-0.702E-03
CGA:   6    -0.128544977966E+04   -0.43307E-01   -0.43295E-01  8540   0.497E-01-0.301E-03
CGA:   7    -0.128546288655E+04   -0.13107E-01   -0.13105E-01  8540   0.153E-01-0.153E-03
CGA:   8    -0.128546734815E+04   -0.44616E-02   -0.44722E-02  8540   0.519E-02-0.677E-03
CGA:   9    -0.128546912284E+04   -0.17747E-02   -0.18633E-02  8540   0.249E-02-0.910E-03
CGA:  10    -0.128546979922E+04   -0.67638E-03   -0.68879E-03  8540   0.879E-03-0.238E-03
CGA:  11    -0.128547009938E+04   -0.30016E-03   -0.37287E-03  8540   0.577E-03-0.397E-03
CGA:  12    -0.128546965219E+04    0.44719E-03   -0.35094E-03  8540   0.323E-02-0.981E-03
CGA:  13    -0.128547043505E+04   -0.78286E-03   -0.76674E-03  8540   0.508E-03-0.164E-03
CGA:  14    -0.128547054408E+04   -0.10904E-03   -0.11946E-03  8540   0.120E-03 0.126E-03
CGA:  15    -0.128547060971E+04   -0.65630E-04   -0.84583E-04  8540   0.171E-03-0.797E-04
CGA:  16    -0.128547062572E+04   -0.16008E-04   -0.26516E-04  8540   0.264E-04 0.574E-04
CGA:  17    -0.128547063043E+04   -0.47070E-05   -0.62516E-05  8540   0.953E-05 0.101E-04
CGA:  18    -0.128547064021E+04   -0.97843E-05    0.13835E-04  8540   0.741E-05 0.197E-05
  94 F= -.12854706E+04 E0= -.12854706E+04  d E =0.617908E-01  mag=   126.0000
       N       E                     dE             d eps       ncg     rms          ort
SDA:   1    -0.128508584688E+04    0.38478E+00    0.00000E+00  8540   0.127E+01 0.000E+00
CGA:   2    -0.128535633893E+04   -0.27049E+00   -0.27064E+00  8540   0.514E+00 0.229E-03
CGA:   3    -0.128547810485E+04   -0.12177E+00   -0.12187E+00  8540   0.128E+00 0.103E-02
CGA:   4    -0.128550434266E+04   -0.26238E-01   -0.26357E-01  8540   0.250E-01 0.107E-02
CGA:   5    -0.128550956318E+04   -0.52205E-02   -0.52438E-02  8540   0.558E-02 0.226E-03
CGA:   6    -0.128551087771E+04   -0.13145E-02   -0.13149E-02  8540   0.157E-02 0.452E-05
CGA:   7    -0.128551124190E+04   -0.36419E-03   -0.37314E-03  8540   0.408E-03 0.144E-03
CGA:   8    -0.128551133324E+04   -0.91335E-04   -0.99566E-04  8540   0.115E-03 0.114E-03
CGA:   9    -0.128551135447E+04   -0.21234E-04   -0.28181E-04  8540   0.484E-04 0.685E-04
CGA:  10    -0.128551135784E+04   -0.33704E-05   -0.76462E-05  8540   0.271E-04 0.331E-04
  95 F= -.12855114E+04 E0= -.12855114E+04  d E =-.407176E-01  mag=   126.0000
       N       E                     dE             d eps       ncg     rms          ort
SDA:   1    -0.127553860247E+04    0.99728E+01    0.00000E+00  8540   0.310E+02 0.000E+00
CGA:   2    -0.128172748015E+04   -0.61889E+01   -0.62045E+01  8540   0.118E+02 0.734E-01
CGA:   3    -0.128462808877E+04   -0.29006E+01   -0.29008E+01  8540   0.306E+01 0.540E-02
CGA:   4    -0.128526919327E+04   -0.64110E+00   -0.64112E+00  8540   0.601E+00-0.154E-02
CGA:   5    -0.128539592525E+04   -0.12673E+00   -0.12678E+00  8540   0.138E+00 0.573E-03
CGA:   6    -0.128542771106E+04   -0.31786E-01   -0.31785E-01  8540   0.366E-01-0.605E-04
CGA:   7    -0.128543709690E+04   -0.93858E-02   -0.93890E-02  8540   0.108E-01 0.788E-03
CGA:   8    -0.128544003433E+04   -0.29374E-02   -0.29334E-02  8540   0.312E-02 0.689E-03
CGA:   9    -0.128544103092E+04   -0.99659E-03   -0.98096E-03  8540   0.106E-02 0.454E-03
CGA:  10    -0.128544130845E+04   -0.27753E-03   -0.28832E-03  8540   0.377E-03 0.440E-03
CGA:  11    -0.128544137577E+04   -0.67313E-04   -0.92694E-04  8540   0.178E-03 0.290E-03
CGA:  12    -0.128544138905E+04   -0.13279E-04   -0.27052E-04  8540   0.109E-03 0.131E-03
CGA:  13    -0.128544138722E+04    0.18298E-05   -0.11950E-04  8540   0.891E-04 0.969E-04
  96 F= -.12854414E+04 E0= -.12854414E+04  d E =0.699706E-01  mag=   126.0000
       N       E                     dE             d eps       ncg     rms          ort
SDA:   1    -0.128134447557E+04    0.40969E+01    0.00000E+00  8540   0.127E+02 0.000E+00
CGA:   2    -0.128397225873E+04   -0.26278E+01   -0.26292E+01  8540   0.497E+01 0.285E-01
CGA:   3    -0.128518691010E+04   -0.12147E+01   -0.12146E+01  8540   0.128E+01-0.393E-03
CGA:   4    -0.128545264652E+04   -0.26574E+00   -0.26563E+00  8540   0.252E+00-0.416E-02
CGA:   5    -0.128550555960E+04   -0.52913E-01   -0.52909E-01  8540   0.572E-01-0.266E-03
CGA:   6    -0.128551878661E+04   -0.13227E-01   -0.13227E-01  8540   0.152E-01-0.130E-03
CGA:   7    -0.128552281153E+04   -0.40249E-02   -0.40348E-02  8540   0.466E-02-0.304E-03
CGA:   8    -0.128552420018E+04   -0.13887E-02   -0.14403E-02  8540   0.183E-02-0.646E-03
CGA:   9    -0.128552473718E+04   -0.53700E-03   -0.70149E-03  8540   0.139E-02-0.798E-03
CGA:  10    -0.128552497391E+04   -0.23673E-03   -0.30395E-03  8540   0.730E-03-0.480E-03
CGA:  11    -0.128552500872E+04   -0.34811E-04   -0.32424E-03  8540   0.129E-02-0.684E-03
CGA:  12    -0.128552533266E+04   -0.32393E-03   -0.32282E-03  8540   0.221E-03-0.421E-04
CGA:  13    -0.128552539877E+04   -0.66110E-04   -0.15679E-03  8540   0.491E-03-0.198E-03
CGA:  14    -0.128552547369E+04   -0.74922E-04   -0.86062E-04  8540   0.469E-04 0.900E-04
CGA:  15    -0.128552549301E+04   -0.19319E-04   -0.20470E-04  8540   0.206E-04-0.152E-04
CGA:  16    -0.128552549692E+04   -0.39133E-05   -0.38979E-05  8540   0.881E-05-0.963E-06
  97 F= -.12855255E+04 E0= -.12855255E+04  d E =-.841097E-01  mag=   126.0000
       N       E                     dE             d eps       ncg     rms          ort
SDA:   1    -0.128352938742E+04    0.19961E+01    0.00000E+00  8540   0.570E+01 0.000E+00
CGA:   2    -0.128475553282E+04   -0.12261E+01   -0.12269E+01  8540   0.241E+01 0.341E-02
CGA:   3    -0.128532726468E+04   -0.57173E+00   -0.57184E+00  8540   0.560E+00 0.600E-03
CGA:   4    -0.128544268136E+04   -0.11542E+00   -0.11544E+00  8540   0.105E+00 0.104E-03
CGA:   5    -0.128546490717E+04   -0.22226E-01   -0.22256E-01  8540   0.243E-01 0.378E-03
CGA:   6    -0.128547054670E+04   -0.56395E-02   -0.56579E-02  8540   0.652E-02 0.365E-03
CGA:   7    -0.128547218068E+04   -0.16340E-02   -0.16442E-02  8540   0.180E-02 0.333E-03
CGA:   8    -0.128547266334E+04   -0.48266E-03   -0.48729E-03  8540   0.527E-03 0.239E-03
CGA:   9    -0.128547281464E+04   -0.15129E-03   -0.15431E-03  8540   0.177E-03 0.167E-03
CGA:  10    -0.128547284613E+04   -0.31489E-04   -0.42627E-04  8540   0.785E-04 0.121E-03
CGA:  11    -0.128547284910E+04   -0.29753E-05   -0.10806E-04  8540   0.487E-04 0.588E-04
