       N       E                     dE             d eps       ncg     rms          ort
DAV:   1     0.413226857344E+04    0.41323E+04   -0.16921E+05  1824   0.159E+03
DAV:   2     0.301451088906E+01   -0.41293E+04   -0.39848E+04  1824   0.455E+02
DAV:   3    -0.716204152848E+03   -0.71922E+03   -0.67998E+03  1824   0.163E+02
DAV:   4    -0.771896219179E+03   -0.55692E+02   -0.55224E+02  1824   0.474E+01
DAV:   5    -0.773182540781E+03   -0.12863E+01   -0.12833E+01  1824   0.849E+00
SDA:   6    -0.485693893130E+03    0.28749E+03   -0.12833E+01  1824   0.871E+03 0.000E+00
CGA:   7    -0.607834866000E+03   -0.12214E+03   -0.11648E+03  1824   0.104E+03-0.182E+01
CGA:   8    -0.628327378125E+03   -0.20493E+02   -0.20501E+02  1824   0.458E+02-0.261E+01
CGA:   9    -0.637363587827E+03   -0.90362E+01   -0.90366E+01  1824   0.168E+02 0.153E-01
CGA:  10    -0.640695415965E+03   -0.33318E+01   -0.33319E+01  1824   0.500E+01 0.452E-02
CGA:  11    -0.641633446970E+03   -0.93803E+00   -0.93784E+00  1824   0.161E+01-0.217E-01
CGA:  12    -0.641986301279E+03   -0.35285E+00   -0.35318E+00  1824   0.663E+00-0.173E-01
CGA:  13    -0.642141842405E+03   -0.15554E+00   -0.15581E+00  1824   0.247E+00-0.124E-01
CGA:  14    -0.642199815119E+03   -0.57973E-01   -0.58305E-01  1824   0.109E+00-0.856E-02
CGA:  15    -0.642224192602E+03   -0.24377E-01   -0.24208E-01  1824   0.460E-01 0.569E-02
CGA:  16    -0.642237466415E+03   -0.13274E-01   -0.13143E-01  1824   0.184E-01 0.189E-02
CGA:  17    -0.642243127865E+03   -0.56615E-02   -0.60636E-02  1824   0.120E-01-0.367E-02
CGA:  18    -0.642245374415E+03   -0.22465E-02   -0.22616E-02  1824   0.531E-02-0.673E-03
CGA:  19    -0.642246934158E+03   -0.15597E-02   -0.17318E-02  1824   0.335E-02-0.131E-02
CGA:  20    -0.642247576472E+03   -0.64231E-03   -0.84825E-03  1824   0.358E-02-0.175E-02
CGA:  21    -0.642247955813E+03   -0.37934E-03   -0.46353E-03  1824   0.893E-03 0.873E-03
CGA:  22    -0.642248143975E+03   -0.18816E-03   -0.20256E-03  1824   0.372E-03 0.374E-03
CGA:  23    -0.642248286899E+03   -0.14292E-03   -0.15308E-03  1824   0.379E-03-0.142E-03
CGA:  24    -0.642248292325E+03   -0.54252E-05   -0.20048E-04  1824   0.292E-03 0.106E-03
CGA:  25    -0.642248294682E+03   -0.23578E-05   -0.27477E-04  1824   0.149E-03 0.176E-03
CGA:  26    -0.642248328615E+03   -0.33933E-04   -0.33286E-04  1824   0.602E-04 0.426E-04
CGA:  27    -0.642248366589E+03   -0.37973E-04    0.47314E-04  1824   0.232E-04 0.112E-04
CGA:  28    -0.642248381252E+03   -0.14664E-04    0.10591E-04  1824   0.140E-04 0.101E-04
CGA:  29    -0.642248380438E+03    0.81423E-06   -0.15017E-05  1824   0.111E-04 0.171E-04
   1 F= -.64224838E+03 E0= -.64224732E+03  d E =-.642248E+03  mag=    -0.0007
       N       E                     dE             d eps       ncg     rms          ort
SDA:   1    -0.642249329081E+03   -0.94783E-03    0.00000E+00  1824   0.146E-03 0.000E+00
CGA:   2    -0.642249344308E+03   -0.15227E-04   -0.17699E-04  1824   0.402E-04 0.335E-04
CGA:   3    -0.642249348551E+03   -0.42436E-05   -0.60265E-05  1824   0.196E-04 0.260E-04
CGA:   4    -0.642249353513E+03   -0.49613E-05   -0.47559E-05  1824   0.131E-04 0.365E-05
   2 F= -.64224935E+03 E0= -.64224831E+03  d E =-.973075E-03  mag=    -0.0001
       N       E                     dE             d eps       ncg     rms          ort
SDA:   1    -0.642080882187E+03    0.16847E+00    0.00000E+00  1824   0.863E+00 0.000E+00
CGA:   2    -0.642221595216E+03   -0.14071E+00   -0.14081E+00  1824   0.306E+00 0.178E-02
CGA:   3    -0.642292179242E+03   -0.70584E-01   -0.70570E-01  1824   0.873E-01-0.309E-04
CGA:   4    -0.642312675739E+03   -0.20496E-01   -0.20534E-01  1824   0.295E-01-0.997E-03
CGA:   5    -0.642318060204E+03   -0.53845E-02   -0.53775E-02  1824   0.102E-01-0.638E-03
CGA:   6    -0.642320087376E+03   -0.20272E-02   -0.20267E-02  1824   0.361E-02 0.493E-04
CGA:   7    -0.642320922909E+03   -0.83553E-03   -0.82981E-03  1824   0.112E-02 0.168E-03
CGA:   8    -0.642321226678E+03   -0.30377E-03   -0.30059E-03  1824   0.371E-03 0.511E-04
CGA:   9    -0.642321332163E+03   -0.10548E-03   -0.10487E-03  1824   0.188E-03 0.866E-05
CGA:  10    -0.642321372243E+03   -0.40080E-04   -0.40058E-04  1824   0.799E-04 0.440E-05
CGA:  11    -0.642321396496E+03   -0.24253E-04   -0.27751E-04  1824   0.634E-04-0.257E-04
CGA:  12    -0.642321404910E+03   -0.84145E-05   -0.83739E-05  1824   0.232E-04-0.267E-05
   3 F= -.64232140E+03 E0= -.64232042E+03  d E =-.720514E-01  mag=    -0.0000
       N       E                     dE             d eps       ncg     rms          ort
SDA:   1    -0.641837796259E+03    0.48360E+00    0.00000E+00  1824   0.203E+01 0.000E+00
CGA:   2    -0.642171606690E+03   -0.33381E+00   -0.33413E+00  1824   0.739E+00 0.202E-02
CGA:   3    -0.642341277034E+03   -0.16967E+00   -0.16966E+00  1824   0.208E+00-0.152E-03
CGA:   4    -0.642389424002E+03   -0.48147E-01   -0.48159E-01  1824   0.733E-01-0.880E-03
CGA:   5    -0.642402538649E+03   -0.13115E-01   -0.13085E-01  1824   0.241E-01-0.807E-03
CGA:   6    -0.642407562866E+03   -0.50242E-02   -0.50243E-02  1824   0.882E-02 0.425E-04
CGA:   7    -0.642409672539E+03   -0.21097E-02   -0.21053E-02  1824   0.287E-02 0.157E-03
CGA:   8    -0.642410406639E+03   -0.73410E-03   -0.73014E-03  1824   0.996E-03 0.103E-03
CGA:   9    -0.642410665952E+03   -0.25931E-03   -0.25943E-03  1824   0.527E-03-0.358E-05
CGA:  10    -0.642410774045E+03   -0.10809E-03   -0.10823E-03  1824   0.195E-03 0.130E-04
CGA:  11    -0.642410833796E+03   -0.59751E-04   -0.62377E-04  1824   0.106E-03-0.275E-04
CGA:  12    -0.642410856896E+03   -0.23099E-04   -0.23410E-04  1824   0.479E-04-0.876E-05
CGA:  13    -0.642410868333E+03   -0.11437E-04   -0.12396E-04  1824   0.300E-04-0.161E-04
CGA:  14    -0.642410871422E+03   -0.30894E-05   -0.32450E-05  1824   0.108E-04 0.248E-05
   4 F= -.64241087E+03 E0= -.64240994E+03  d E =-.894665E-01  mag=    -0.0000
       N       E                     dE             d eps       ncg     rms          ort
SDA:   1    -0.641798462681E+03    0.61241E+00    0.00000E+00  1824   0.253E+01 0.000E+00
CGA:   2    -0.642186774733E+03   -0.38831E+00   -0.38879E+00  1824   0.864E+00 0.104E-02
CGA:   3    -0.642398448168E+03   -0.21167E+00   -0.21165E+00  1824   0.237E+00-0.939E-04
CGA:   4    -0.642451408707E+03   -0.52961E-01   -0.52959E-01  1824   0.865E-01-0.188E-03
CGA:   5    -0.642466868975E+03   -0.15460E-01   -0.15435E-01  1824   0.268E-01-0.559E-03
CGA:   6    -0.642472456699E+03   -0.55877E-02   -0.55881E-02  1824   0.102E-01 0.524E-04
CGA:   7    -0.642474944073E+03   -0.24874E-02   -0.24864E-02  1824   0.335E-02 0.293E-04
CGA:   8    -0.642475767022E+03   -0.82295E-03   -0.81954E-03  1824   0.122E-02 0.118E-03
CGA:   9    -0.642476064515E+03   -0.29749E-03   -0.29763E-03  1824   0.627E-03-0.740E-05
CGA:  10    -0.642476196515E+03   -0.13200E-03   -0.13214E-03  1824   0.223E-03 0.206E-04
CGA:  11    -0.642476262449E+03   -0.65933E-04   -0.66515E-04  1824   0.102E-03-0.835E-05
CGA:  12    -0.642476289761E+03   -0.27313E-04   -0.28042E-04  1824   0.573E-04-0.113E-04
CGA:  13    -0.642476301562E+03   -0.11801E-04   -0.11903E-04  1824   0.268E-04-0.119E-04
CGA:  14    -0.642476304975E+03   -0.34132E-05   -0.36635E-05  1824   0.800E-05 0.471E-05
   5 F= -.64247630E+03 E0= -.64247539E+03  d E =-.654336E-01  mag=     0.0000
       N       E                     dE             d eps       ncg     rms          ort
SDA:   1    -0.640765798507E+03    0.17105E+01    0.00000E+00  1824   0.783E+01 0.000E+00
CGA:   2    -0.641792398849E+03   -0.10266E+01   -0.10294E+01  1824   0.193E+01-0.824E-03
CGA:   3    -0.642352776572E+03   -0.56038E+00   -0.56017E+00  1824   0.600E+00 0.128E-02
CGA:   4    -0.642466257794E+03   -0.11348E+00   -0.11354E+00  1824   0.187E+00 0.592E-03
CGA:   5    -0.642501516297E+03   -0.35259E-01   -0.35254E-01  1824   0.588E-01 0.714E-04
CGA:   6    -0.642513378456E+03   -0.11862E-01   -0.11868E-01  1824   0.207E-01 0.369E-03
CGA:   7    -0.642518732321E+03   -0.53539E-02   -0.53609E-02  1824   0.732E-02-0.176E-03
CGA:   8    -0.642520392818E+03   -0.16605E-02   -0.16584E-02  1824   0.280E-02 0.169E-03
CGA:   9    -0.642521015049E+03   -0.62223E-03   -0.62224E-03  1824   0.124E-02 0.163E-04
CGA:  10    -0.642521318001E+03   -0.30295E-03   -0.30221E-03  1824   0.468E-03 0.304E-04
CGA:  11    -0.642521432016E+03   -0.11402E-03   -0.11346E-03  1824   0.206E-03 0.308E-04
CGA:  12    -0.642521486734E+03   -0.54718E-04   -0.54378E-04  1824   0.850E-04 0.120E-04
CGA:  13    -0.642521511741E+03   -0.25007E-04   -0.25401E-04  1824   0.447E-04-0.651E-05
CGA:  14    -0.642521517084E+03   -0.53430E-05   -0.61852E-05  1824   0.139E-04 0.113E-04
   6 F= -.64252152E+03 E0= -.64252055E+03  d E =-.452121E-01  mag=     0.0000
       N       E                     dE             d eps       ncg     rms          ort
SDA:   1    -0.639985041739E+03    0.25365E+01    0.00000E+00  1824   0.118E+02 0.000E+00
CGA:   2    -0.641490442916E+03   -0.15054E+01   -0.15097E+01  1824   0.273E+01-0.148E-02
CGA:   3    -0.642292931890E+03   -0.80249E+00   -0.80224E+00  1824   0.904E+00 0.138E-02
CGA:   4    -0.642458711131E+03   -0.16578E+00   -0.16587E+00  1824   0.265E+00 0.782E-03
CGA:   5    -0.642508751796E+03   -0.50041E-01   -0.50062E-01  1824   0.854E-01 0.933E-03
CGA:   6    -0.642526264264E+03   -0.17512E-01   -0.17520E-01  1824   0.284E-01 0.772E-03
CGA:   7    -0.642533637515E+03   -0.73733E-02   -0.73875E-02  1824   0.109E-01-0.335E-03
CGA:   8    -0.642536053185E+03   -0.24157E-02   -0.24142E-02  1824   0.413E-02 0.145E-03
CGA:   9    -0.642536940422E+03   -0.88724E-03   -0.88742E-03  1824   0.176E-02 0.433E-04
CGA:  10    -0.642537399022E+03   -0.45860E-03   -0.45741E-03  1824   0.708E-03 0.286E-04
CGA:  11    -0.642537554704E+03   -0.15568E-03   -0.15579E-03  1824   0.292E-03 0.714E-04
CGA:  12    -0.642537638622E+03   -0.83917E-04   -0.82687E-04  1824   0.115E-03 0.308E-04
CGA:  13    -0.642537673593E+03   -0.34972E-04   -0.34681E-04  1824   0.539E-04 0.531E-05
CGA:  14    -0.642537681131E+03   -0.75380E-05   -0.87870E-05  1824   0.182E-04 0.187E-04
   7 F= -.64253768E+03 E0= -.64253660E+03  d E =-.161640E-01  mag=     0.0000
       N       E                     dE             d eps       ncg     rms          ort
SDA:   1    -0.640280107746E+03    0.22576E+01    0.00000E+00  1824   0.102E+02 0.000E+00
CGA:   2    -0.641637040950E+03   -0.13569E+01   -0.13576E+01  1824   0.253E+01-0.124E-01
CGA:   3    -0.642327417606E+03   -0.69038E+00   -0.68970E+00  1824   0.780E+00 0.848E-02
CGA:   4    -0.642485011058E+03   -0.15759E+00   -0.15763E+00  1824   0.252E+00 0.147E-02
CGA:   5    -0.642531553467E+03   -0.46542E-01   -0.46563E-01  1824   0.781E-01 0.769E-03
CGA:   6    -0.642547968636E+03   -0.16415E-01   -0.16415E-01  1824   0.277E-01-0.855E-04
CGA:   7    -0.642554855665E+03   -0.68870E-02   -0.68916E-02  1824   0.952E-02-0.141E-03
CGA:   8    -0.642557191460E+03   -0.23358E-02   -0.23364E-02  1824   0.371E-02-0.255E-04
CGA:   9    -0.642557992254E+03   -0.80079E-03   -0.80082E-03  1824   0.168E-02 0.718E-04
CGA:  10    -0.642558420831E+03   -0.42858E-03   -0.43033E-03  1824   0.665E-03-0.523E-04
CGA:  11    -0.642558586245E+03   -0.16541E-03   -0.16423E-03  1824   0.301E-03 0.323E-04
CGA:  12    -0.642558669771E+03   -0.83525E-04   -0.84364E-04  1824   0.154E-03-0.180E-04
CGA:  13    -0.642558698920E+03   -0.29149E-04   -0.29463E-04  1824   0.515E-04 0.160E-04
CGA:  14    -0.642558714105E+03   -0.15185E-04   -0.14924E-04  1824   0.163E-04 0.641E-05
CGA:  15    -0.642558720649E+03   -0.65441E-05   -0.66328E-05  1824   0.119E-04-0.653E-06
   8 F= -.64255872E+03 E0= -.64255763E+03  d E =-.210395E-01  mag=     0.0000
       N       E                     dE             d eps       ncg     rms          ort
SDA:   1    -0.642244326394E+03    0.31439E+00    0.00000E+00  1824   0.175E+01 0.000E+00
CGA:   2    -0.642453052580E+03   -0.20873E+00   -0.20896E+00  1824   0.313E+00-0.529E-03
CGA:   3    -0.642544023542E+03   -0.90971E-01   -0.90885E-01  1824   0.108E+00 0.677E-03
CGA:   4    -0.642565343685E+03   -0.21320E-01   -0.21309E-01  1824   0.293E-01-0.507E-03
CGA:   5    -0.642571058241E+03   -0.57146E-02   -0.56985E-02  1824   0.103E-01-0.549E-03
CGA:   6    -0.642573101631E+03   -0.20434E-02   -0.20422E-02  1824   0.348E-02-0.623E-04
CGA:   7    -0.642573896977E+03   -0.79535E-03   -0.79482E-03  1824   0.112E-02 0.652E-04
CGA:   8    -0.642574194848E+03   -0.29787E-03   -0.29563E-03  1824   0.371E-03 0.606E-04
CGA:   9    -0.642574303651E+03   -0.10880E-03   -0.11078E-03  1824   0.256E-03-0.336E-04
CGA:  10    -0.642574347843E+03   -0.44192E-04   -0.44336E-04  1824   0.854E-04 0.382E-05
CGA:  11    -0.642574370161E+03   -0.22317E-04   -0.22142E-04  1824   0.293E-04 0.574E-05
CGA:  12    -0.642574380770E+03   -0.10610E-04   -0.17018E-04  1824   0.546E-04-0.203E-04
CGA:  13    -0.642574388257E+03   -0.74872E-05   -0.76181E-05  1824   0.105E-04 0.127E-05
   9 F= -.64257439E+03 E0= -.64257336E+03  d E =-.156676E-01  mag=    -0.0000
       N       E                     dE             d eps       ncg     rms          ort
SDA:   1    -0.642552468054E+03    0.21913E-01    0.00000E+00  1824   0.111E+00 0.000E+00
CGA:   2    -0.642568079973E+03   -0.15612E-01   -0.15620E-01  1824   0.316E-01-0.770E-04
CGA:   3    -0.642576492810E+03   -0.84128E-02   -0.84051E-02  1824   0.942E-02 0.187E-03
CGA:   4    -0.642578360152E+03   -0.18673E-02   -0.18678E-02  1824   0.314E-02 0.234E-05
CGA:   5    -0.642578998740E+03   -0.63859E-03   -0.63325E-03  1824   0.118E-02-0.177E-03
CGA:   6    -0.642579223320E+03   -0.22458E-03   -0.22355E-03  1824   0.374E-03-0.362E-04
CGA:   7    -0.642579301683E+03   -0.78362E-04   -0.78773E-04  1824   0.110E-03 0.344E-04
CGA:   8    -0.642579332729E+03   -0.31046E-04   -0.30796E-04  1824   0.358E-04 0.849E-05
CGA:   9    -0.642579345631E+03   -0.12902E-04   -0.14808E-04  1824   0.393E-04-0.125E-04
CGA:  10    -0.642579349093E+03   -0.34620E-05   -0.35291E-05  1824   0.162E-04 0.656E-06
  10 F= -.64257935E+03 E0= -.64257834E+03  d E =-.496084E-02  mag=    -0.0000
       N       E                     dE             d eps       ncg     rms          ort
SDA:   1    -0.641733438096E+03    0.84591E+00    0.00000E+00  1824   0.384E+01 0.000E+00
CGA:   2    -0.642235022669E+03   -0.50158E+00   -0.50180E+00  1824   0.938E+00-0.534E-02
CGA:   3    -0.642515998368E+03   -0.28098E+00   -0.28067E+00  1824   0.272E+00 0.292E-02
CGA:   4    -0.642566334643E+03   -0.50336E-01   -0.50371E-01  1824   0.818E-01 0.463E-03
CGA:   5    -0.642583118219E+03   -0.16784E-01   -0.16784E-01  1824   0.283E-01 0.476E-04
CGA:   6    -0.642588593581E+03   -0.54754E-02   -0.54737E-02  1824   0.922E-02-0.668E-04
CGA:   7    -0.642590933832E+03   -0.23403E-02   -0.23430E-02  1824   0.331E-02-0.881E-04
CGA:   8    -0.642591712307E+03   -0.77848E-03   -0.77808E-03  1824   0.117E-02 0.283E-04
CGA:   9    -0.642591974224E+03   -0.26192E-03   -0.26195E-03  1824   0.558E-03 0.113E-04
CGA:  10    -0.642592113569E+03   -0.13935E-03   -0.13931E-03  1824   0.210E-03 0.159E-05
CGA:  11    -0.642592171025E+03   -0.57455E-04   -0.57822E-04  1824   0.117E-03-0.755E-05
CGA:  12    -0.642592198621E+03   -0.27596E-04   -0.27682E-04  1824   0.538E-04-0.534E-05
CGA:  13    -0.642592211710E+03   -0.13089E-04   -0.13177E-04  1824   0.201E-04-0.329E-05
CGA:  14    -0.642592215719E+03   -0.40087E-05   -0.40545E-05  1824   0.745E-05 0.281E-05
  11 F= -.64259222E+03 E0= -.64259123E+03  d E =-.128666E-01  mag=    -0.0000
       N       E                     dE             d eps       ncg     rms          ort
SDA:   1    -0.641789244868E+03    0.80297E+00    0.00000E+00  1824   0.431E+01 0.000E+00
CGA:   2    -0.642302092273E+03   -0.51285E+00   -0.51292E+00  1824   0.750E+00-0.540E-02
CGA:   3    -0.642526740164E+03   -0.22465E+00   -0.22433E+00  1824   0.237E+00 0.281E-02
CGA:   4    -0.642573777835E+03   -0.47038E-01   -0.47049E-01  1824   0.602E-01 0.105E-03
CGA:   5    -0.642586383414E+03   -0.12606E-01   -0.12621E-01  1824   0.192E-01 0.798E-03
CGA:   6    -0.642590246901E+03   -0.38635E-02   -0.38644E-02  1824   0.745E-02 0.416E-04
CGA:   7    -0.642591879668E+03   -0.16328E-02   -0.16324E-02  1824   0.257E-02-0.624E-04
CGA:   8    -0.642592538625E+03   -0.65896E-03   -0.66010E-03  1824   0.870E-03-0.336E-04
CGA:   9    -0.642592756447E+03   -0.21782E-03   -0.21763E-03  1824   0.446E-03 0.677E-05
CGA:  10    -0.642592849818E+03   -0.93371E-04   -0.93634E-04  1824   0.166E-03 0.131E-04
CGA:  11    -0.642592892936E+03   -0.43119E-04   -0.42641E-04  1824   0.652E-04 0.208E-04
CGA:  12    -0.642592914136E+03   -0.21200E-04   -0.20665E-04  1824   0.302E-04 0.998E-05
CGA:  13    -0.642592921445E+03   -0.73089E-05   -0.74447E-05  1824   0.125E-04 0.775E-05
  12 F= -.64259292E+03 E0= -.64259188E+03  d E =-.705727E-03  mag=     0.0000
       N       E                     dE             d eps       ncg     rms          ort
SDA:   1    -0.642450959650E+03    0.14195E+00    0.00000E+00  1824   0.800E+00 0.000E+00
CGA:   2    -0.642546256894E+03   -0.95297E-01   -0.95322E-01  1824   0.138E+00-0.110E-02
CGA:   3    -0.642587256465E+03   -0.41000E-01   -0.40919E-01  1824   0.432E-01 0.800E-03
CGA:   4    -0.642595975132E+03   -0.87187E-02   -0.87190E-02  1824   0.105E-01-0.263E-04
CGA:   5    -0.642598373464E+03   -0.23983E-02   -0.23997E-02  1824   0.334E-02-0.369E-03
CGA:   6    -0.642599060180E+03   -0.68672E-03   -0.68607E-03  1824   0.130E-02-0.496E-04
CGA:   7    -0.642599298869E+03   -0.23869E-03   -0.24045E-03  1824   0.414E-03 0.463E-04
CGA:   8    -0.642599402692E+03   -0.10382E-03   -0.10336E-03  1824   0.121E-03 0.269E-04
CGA:   9    -0.642599441252E+03   -0.38560E-04   -0.37772E-04  1824   0.493E-04 0.112E-04
CGA:  10    -0.642599457218E+03   -0.15966E-04   -0.16567E-04  1824   0.364E-04-0.761E-05
CGA:  11    -0.642599464261E+03   -0.70427E-05   -0.70270E-05  1824   0.172E-04-0.455E-05
  13 F= -.64259946E+03 E0= -.64259845E+03  d E =-.654282E-02  mag=    -0.0000
       N       E                     dE             d eps       ncg     rms          ort
SDA:   1    -0.642583206283E+03    0.16251E-01    0.00000E+00  1824   0.861E-01 0.000E+00
CGA:   2    -0.642593897017E+03   -0.10691E-01   -0.10648E-01  1824   0.166E-01-0.530E-03
CGA:   3    -0.642598895114E+03   -0.49981E-02   -0.49566E-02  1824   0.526E-02 0.554E-03
CGA:   4    -0.642599885718E+03   -0.99060E-03   -0.99550E-03  1824   0.121E-02 0.940E-04
CGA:   5    -0.642600167905E+03   -0.28219E-03   -0.28210E-03  1824   0.561E-03-0.111E-03
CGA:   6    -0.642600270243E+03   -0.10234E-03   -0.10069E-03  1824   0.199E-03-0.517E-04
CGA:   7    -0.642600301637E+03   -0.31394E-04   -0.32513E-04  1824   0.446E-04 0.230E-04
CGA:   8    -0.642600313572E+03   -0.11935E-04   -0.11834E-04  1824   0.164E-04 0.841E-05
CGA:   9    -0.642600319597E+03   -0.60257E-05   -0.72856E-05  1824   0.288E-04-0.854E-05
  14 F= -.64260032E+03 E0= -.64259932E+03  d E =-.855337E-03  mag=    -0.0000
       N       E                     dE             d eps       ncg     rms          ort
SDA:   1    -0.641714721778E+03    0.88559E+00    0.00000E+00  1824   0.437E+01 0.000E+00
CGA:   2    -0.642253953638E+03   -0.53923E+00   -0.54002E+00  1824   0.862E+00-0.736E-02
CGA:   3    -0.642522968062E+03   -0.26901E+00   -0.26840E+00  1824   0.329E+00 0.551E-02
CGA:   4    -0.642575471408E+03   -0.52503E-01   -0.52497E-01  1824   0.743E-01 0.506E-04
CGA:   5    -0.642589956622E+03   -0.14485E-01   -0.14482E-01  1824   0.265E-01-0.210E-03
CGA:   6    -0.642595689755E+03   -0.57331E-02   -0.57318E-02  1824   0.801E-02-0.253E-03
CGA:   7    -0.642597609431E+03   -0.19197E-02   -0.19188E-02  1824   0.286E-02 0.400E-04
CGA:   8    -0.642598265787E+03   -0.65636E-03   -0.65642E-03  1824   0.121E-02-0.121E-04
CGA:   9    -0.642598519953E+03   -0.25417E-03   -0.25421E-03  1824   0.486E-03 0.289E-05
CGA:  10    -0.642598656308E+03   -0.13636E-03   -0.13735E-03  1824   0.211E-03-0.167E-04
CGA:  11    -0.642598704962E+03   -0.48655E-04   -0.48805E-04  1824   0.115E-03-0.111E-04
CGA:  12    -0.642598734585E+03   -0.29623E-04   -0.30829E-04  1824   0.632E-04-0.209E-04
CGA:  13    -0.642598747057E+03   -0.12472E-04   -0.12584E-04  1824   0.270E-04-0.768E-05
CGA:  14    -0.642598752205E+03   -0.51482E-05   -0.51522E-05  1824   0.921E-05 0.325E-06
  15 F= -.64259875E+03 E0= -.64259781E+03  d E =0.156739E-02  mag=    -0.0000
       N       E                     dE             d eps       ncg     rms          ort
SDA:   1    -0.637684780442E+03    0.49140E+01    0.00000E+00  1824   0.253E+02 0.000E+00
CGA:   2    -0.640735010452E+03   -0.30502E+01   -0.30559E+01  1824   0.458E+01-0.312E-02
CGA:   3    -0.642090535935E+03   -0.13555E+01   -0.13548E+01  1824   0.150E+01 0.123E-02
CGA:   4    -0.642385341572E+03   -0.29481E+00   -0.29474E+00  1824   0.382E+00-0.413E-02
CGA:   5    -0.642463498093E+03   -0.78157E-01   -0.78202E-01  1824   0.121E+00 0.256E-02
CGA:   6    -0.642487887287E+03   -0.24389E-01   -0.24410E-01  1824   0.450E-01 0.806E-03
CGA:   7    -0.642498251140E+03   -0.10364E-01   -0.10369E-01  1824   0.161E-01-0.597E-03
CGA:   8    -0.642502172879E+03   -0.39217E-02   -0.39191E-02  1824   0.562E-02 0.994E-04
CGA:   9    -0.642503529675E+03   -0.13568E-02   -0.13542E-02  1824   0.267E-02 0.154E-03
CGA:  10    -0.642504163840E+03   -0.63416E-03   -0.63343E-03  1824   0.105E-02 0.103E-03
CGA:  11    -0.642504430284E+03   -0.26644E-03   -0.26430E-03  1824   0.464E-03 0.119E-03
CGA:  12    -0.642504573377E+03   -0.14309E-03   -0.14136E-03  1824   0.234E-03 0.353E-04
CGA:  13    -0.642504625113E+03   -0.51736E-04   -0.52558E-04  1824   0.856E-04 0.452E-04
CGA:  14    -0.642504650300E+03   -0.25187E-04   -0.24786E-04  1824   0.292E-04 0.246E-04
CGA:  15    -0.642504662554E+03   -0.12254E-04   -0.11895E-04  1824   0.171E-04 0.399E-05
CGA:  16    -0.642504665946E+03   -0.33921E-05   -0.36288E-05  1824   0.662E-05 0.525E-05
  16 F= -.64250467E+03 E0= -.64250360E+03  d E =0.940863E-01  mag=     0.0000
       N       E                     dE             d eps       ncg     rms          ort
SDA:   1    -0.641483895402E+03    0.10208E+01    0.00000E+00  1824   0.597E+01 0.000E+00
CGA:   2    -0.642190091058E+03   -0.70620E+00   -0.70643E+00  1824   0.101E+01-0.112E-01
CGA:   3    -0.642488663416E+03   -0.29857E+00   -0.29781E+00  1824   0.329E+00 0.798E-02
CGA:   4    -0.642552151720E+03   -0.63488E-01   -0.63530E-01  1824   0.849E-01 0.102E-02
CGA:   5    -0.642569632418E+03   -0.17481E-01   -0.17469E-01  1824   0.280E-01-0.773E-03
CGA:   6    -0.642575216991E+03   -0.55846E-02   -0.55769E-02  1824   0.983E-02-0.384E-03
CGA:   7    -0.642577353223E+03   -0.21362E-02   -0.21360E-02  1824   0.298E-02 0.269E-03
CGA:   8    -0.642578160643E+03   -0.80742E-03   -0.80464E-03  1824   0.103E-02 0.634E-04
CGA:   9    -0.642578434800E+03   -0.27416E-03   -0.27237E-03  1824   0.519E-03 0.465E-04
CGA:  10    -0.642578560450E+03   -0.12565E-03   -0.12578E-03  1824   0.236E-03-0.166E-04
CGA:  11    -0.642578621673E+03   -0.61223E-04   -0.61835E-04  1824   0.117E-03-0.131E-04
CGA:  12    -0.642578652064E+03   -0.30391E-04   -0.30727E-04  1824   0.562E-04-0.639E-05
CGA:  13    -0.642578664422E+03   -0.12358E-04   -0.12362E-04  1824   0.239E-04-0.113E-05
CGA:  14    -0.642578670226E+03   -0.58038E-05   -0.57701E-05  1824   0.848E-05 0.188E-05
  17 F= -.64257867E+03 E0= -.64257763E+03  d E =-.740043E-01  mag=    -0.0000
       N       E                     dE             d eps       ncg     rms          ort
SDA:   1    -0.642192062575E+03    0.38660E+00    0.00000E+00  1824   0.215E+01 0.000E+00
CGA:   2    -0.642450288044E+03   -0.25823E+00   -0.25819E+00  1824   0.380E+00-0.421E-02
CGA:   3    -0.642560735832E+03   -0.11045E+00   -0.11017E+00  1824   0.125E+00 0.324E-02
CGA:   4    -0.642584922813E+03   -0.24187E-01   -0.24198E-01  1824   0.333E-01 0.226E-03
CGA:   5    -0.642591599328E+03   -0.66765E-02   -0.66660E-02  1824   0.111E-01-0.477E-03
CGA:   6    -0.642593812875E+03   -0.22135E-02   -0.22083E-02  1824   0.386E-02-0.277E-03
CGA:   7    -0.642594644516E+03   -0.83164E-03   -0.83156E-03  1824   0.114E-02 0.142E-03
CGA:   8    -0.642594953060E+03   -0.30854E-03   -0.30716E-03  1824   0.412E-03 0.346E-04
CGA:   9    -0.642595058221E+03   -0.10516E-03   -0.10450E-03  1824   0.208E-03 0.275E-04
CGA:  10    -0.642595111627E+03   -0.53406E-04   -0.53551E-04  1824   0.986E-04-0.846E-05
CGA:  11    -0.642595137776E+03   -0.26148E-04   -0.27036E-04  1824   0.611E-04-0.145E-04
CGA:  12    -0.642595151597E+03   -0.13821E-04   -0.14342E-04  1824   0.324E-04-0.109E-04
CGA:  13    -0.642595157609E+03   -0.60124E-05   -0.60028E-05  1824   0.119E-04-0.239E-05
  18 F= -.64259516E+03 E0= -.64259416E+03  d E =-.164874E-01  mag=    -0.0000
       N       E                     dE             d eps       ncg     rms          ort
SDA:   1    -0.642564912904E+03    0.30239E-01    0.00000E+00  1824   0.165E+00 0.000E+00
CGA:   2    -0.642584755503E+03   -0.19843E-01   -0.19820E-01  1824   0.284E-01-0.448E-03
CGA:   3    -0.642593303490E+03   -0.85480E-02   -0.85153E-02  1824   0.105E-01 0.390E-03
CGA:   4    -0.642595124353E+03   -0.18209E-02   -0.18224E-02  1824   0.247E-02 0.189E-04
CGA:   5    -0.642595614720E+03   -0.49037E-03   -0.48743E-03  1824   0.882E-03-0.981E-04
CGA:   6    -0.642595802222E+03   -0.18750E-03   -0.18713E-03  1824   0.311E-03-0.798E-04
CGA:   7    -0.642595856546E+03   -0.54324E-04   -0.55171E-04  1824   0.789E-04 0.278E-04
CGA:   8    -0.642595874535E+03   -0.17989E-04   -0.18206E-04  1824   0.248E-04 0.179E-04
CGA:   9    -0.642595883534E+03   -0.89996E-05   -0.87470E-05  1824   0.127E-04 0.390E-05
  19 F= -.64259588E+03 E0= -.64259491E+03  d E =-.725925E-03  mag=    -0.0000
       N       E                     dE             d eps       ncg     rms          ort
SDA:   1    -0.642441878648E+03    0.15400E+00    0.00000E+00  1824   0.782E+00 0.000E+00
CGA:   2    -0.642536431110E+03   -0.94552E-01   -0.94588E-01  1824   0.137E+00-0.106E-02
CGA:   3    -0.642579752630E+03   -0.43322E-01   -0.43246E-01  1824   0.504E-01 0.590E-03
CGA:   4    -0.642588220441E+03   -0.84678E-02   -0.84625E-02  1824   0.112E-01-0.108E-03
CGA:   5    -0.642590386970E+03   -0.21665E-02   -0.21626E-02  1824   0.413E-02-0.130E-03
CGA:   6    -0.642591250386E+03   -0.86342E-03   -0.86203E-03  1824   0.131E-02-0.116E-03
CGA:   7    -0.642591536165E+03   -0.28578E-03   -0.28569E-03  1824   0.406E-03 0.444E-04
CGA:   8    -0.642591638109E+03   -0.10194E-03   -0.10144E-03  1824   0.160E-03 0.265E-04
CGA:   9    -0.642591677162E+03   -0.39053E-04   -0.39006E-04  1824   0.820E-04 0.905E-05
CGA:  10    -0.642591700672E+03   -0.23511E-04   -0.23699E-04  1824   0.410E-04-0.384E-05
CGA:  11    -0.642591710209E+03   -0.95360E-05   -0.95820E-05  1824   0.209E-04-0.246E-05
  20 F= -.64259171E+03 E0= -.64259075E+03  d E =0.417333E-02  mag=    -0.0000
       N       E                     dE             d eps       ncg     rms          ort
SDA:   1    -0.642499046555E+03    0.92654E-01    0.00000E+00  1824   0.417E+00 0.000E+00
CGA:   2    -0.642550897930E+03   -0.51851E-01   -0.51852E-01  1824   0.844E-01-0.807E-03
CGA:   3    -0.642577404145E+03   -0.26506E-01   -0.26432E-01  1824   0.275E-01 0.734E-03
CGA:   4    -0.642582188672E+03   -0.47845E-02   -0.47867E-02  1824   0.702E-02 0.106E-04
CGA:   5    -0.642583588273E+03   -0.13996E-02   -0.13977E-02  1824   0.266E-02-0.707E-04
CGA:   6    -0.642584112030E+03   -0.52376E-03   -0.52208E-03  1824   0.833E-03-0.631E-04
CGA:   7    -0.642584305981E+03   -0.19395E-03   -0.19365E-03  1824   0.275E-03 0.207E-04
CGA:   8    -0.642584375163E+03   -0.69182E-04   -0.69017E-04  1824   0.102E-03 0.789E-05
CGA:   9    -0.642584398491E+03   -0.23327E-04   -0.23329E-04  1824   0.546E-04 0.652E-06
CGA:  10    -0.642584413424E+03   -0.14934E-04   -0.15308E-04  1824   0.268E-04-0.704E-05
CGA:  11    -0.642584418330E+03   -0.49059E-05   -0.49157E-05  1824   0.104E-04 0.579E-06
  21 F= -.64258442E+03 E0= -.64258347E+03  d E =0.729188E-02  mag=    -0.0000
       N       E                     dE             d eps       ncg     rms          ort
SDA:   1    -0.640746461079E+03    0.18380E+01    0.00000E+00  1824   0.860E+01 0.000E+00
CGA:   2    -0.641821559942E+03   -0.10751E+01   -0.10775E+01  1824   0.182E+01-0.663E-02
CGA:   3    -0.642396763363E+03   -0.57520E+00   -0.57471E+00  1824   0.566E+00 0.343E-02
CGA:   4    -0.642499641770E+03   -0.10288E+00   -0.10288E+00  1824   0.141E+00-0.740E-03
CGA:   5    -0.642529194662E+03   -0.29553E-01   -0.29563E-01  1824   0.525E-01 0.448E-03
CGA:   6    -0.642539053706E+03   -0.98590E-02   -0.98592E-02  1824   0.179E-01 0.538E-04
CGA:   7    -0.642543301541E+03   -0.42478E-02   -0.42477E-02  1824   0.631E-02 0.164E-05
CGA:   8    -0.642544835246E+03   -0.15337E-02   -0.15329E-02  1824   0.213E-02 0.441E-04
CGA:   9    -0.642545325388E+03   -0.49014E-03   -0.49012E-03  1824   0.108E-02 0.226E-04
CGA:  10    -0.642545585724E+03   -0.26034E-03   -0.26015E-03  1824   0.395E-03 0.149E-04
CGA:  11    -0.642545677003E+03   -0.91279E-04   -0.91279E-04  1824   0.177E-03 0.371E-04
CGA:  12    -0.642545729074E+03   -0.52072E-04   -0.52110E-04  1824   0.876E-04-0.104E-05
CGA:  13    -0.642545749545E+03   -0.20470E-04   -0.20452E-04  1824   0.334E-04 0.371E-05
CGA:  14    -0.642545757143E+03   -0.75979E-05   -0.76592E-05  1824   0.114E-04 0.586E-05
  22 F= -.64254576E+03 E0= -.64254482E+03  d E =0.386612E-01  mag=     0.0000
       N       E                     dE             d eps       ncg     rms          ort
SDA:   1    -0.641515264767E+03    0.10305E+01    0.00000E+00  1824   0.492E+01 0.000E+00
CGA:   2    -0.642128963161E+03   -0.61370E+00   -0.61384E+00  1824   0.105E+01-0.704E-02
CGA:   3    -0.642448715577E+03   -0.31975E+00   -0.31924E+00  1824   0.302E+00 0.482E-02
CGA:   4    -0.642508140773E+03   -0.59425E-01   -0.59447E-01  1824   0.836E-01 0.422E-03
CGA:   5    -0.642526407994E+03   -0.18267E-01   -0.18268E-01  1824   0.279E-01 0.127E-03
CGA:   6    -0.642531720204E+03   -0.53122E-02   -0.53087E-02  1824   0.105E-01-0.108E-03
CGA:   7    -0.642534113612E+03   -0.23934E-02   -0.23937E-02  1824   0.376E-02-0.680E-04
CGA:   8    -0.642535039133E+03   -0.92552E-03   -0.92552E-03  1824   0.116E-02-0.260E-05
CGA:   9    -0.642535335806E+03   -0.29667E-03   -0.29695E-03  1824   0.651E-03-0.968E-05
CGA:  10    -0.642535476449E+03   -0.14064E-03   -0.14063E-03  1824   0.240E-03-0.191E-05
CGA:  11    -0.642535540590E+03   -0.64141E-04   -0.64077E-04  1824   0.112E-03 0.148E-05
CGA:  12    -0.642535572892E+03   -0.32302E-04   -0.33448E-04  1824   0.775E-04-0.166E-04
CGA:  13    -0.642535585610E+03   -0.12718E-04   -0.12677E-04  1824   0.232E-04-0.106E-05
CGA:  14    -0.642535591519E+03   -0.59089E-05   -0.58186E-05  1824   0.705E-05 0.364E-05
  23 F= -.64253559E+03 E0= -.64253467E+03  d E =0.101656E-01  mag=     0.0000
       N       E                     dE             d eps       ncg     rms          ort
SDA:   1    -0.641732570666E+03    0.80301E+00    0.00000E+00  1824   0.382E+01 0.000E+00
CGA:   2    -0.642221106893E+03   -0.48854E+00   -0.48915E+00  1824   0.886E+00-0.241E-02
CGA:   3    -0.642491581567E+03   -0.27047E+00   -0.27035E+00  1824   0.250E+00 0.619E-03
CGA:   4    -0.642541033108E+03   -0.49452E-01   -0.49435E-01  1824   0.681E-01-0.829E-03
CGA:   5    -0.642556136484E+03   -0.15103E-01   -0.15103E-01  1824   0.217E-01-0.208E-04
CGA:   6    -0.642560381675E+03   -0.42452E-02   -0.42413E-02  1824   0.899E-02-0.108E-03
CGA:   7    -0.642562275105E+03   -0.18934E-02   -0.18952E-02  1824   0.309E-02 0.110E-03
CGA:   8    -0.642563031451E+03   -0.75635E-03   -0.75557E-03  1824   0.904E-03 0.501E-04
CGA:   9    -0.642563272993E+03   -0.24154E-03   -0.24048E-03  1824   0.477E-03 0.303E-04
CGA:  10    -0.642563387645E+03   -0.11465E-03   -0.11468E-03  1824   0.199E-03-0.783E-05
CGA:  11    -0.642563436044E+03   -0.48399E-04   -0.48380E-04  1824   0.962E-04 0.103E-05
CGA:  12    -0.642563459484E+03   -0.23440E-04   -0.23439E-04  1824   0.432E-04 0.919E-07
CGA:  13    -0.642563468229E+03   -0.87448E-05   -0.88808E-05  1824   0.126E-04 0.537E-05
  24 F= -.64256347E+03 E0= -.64256252E+03  d E =-.278767E-01  mag=    -0.0000
       N       E                     dE             d eps       ncg     rms          ort
SDA:   1    -0.642415893866E+03    0.14757E+00    0.00000E+00  1824   0.792E+00 0.000E+00
CGA:   2    -0.642508619274E+03   -0.92725E-01   -0.92841E-01  1824   0.133E+00-0.348E-03
CGA:   3    -0.642550377042E+03   -0.41758E-01   -0.41765E-01  1824   0.460E-01-0.329E-03
CGA:   4    -0.642558555836E+03   -0.81788E-02   -0.81664E-02  1824   0.112E-01-0.281E-03
CGA:   5    -0.642560851189E+03   -0.22954E-02   -0.22923E-02  1824   0.396E-02-0.143E-03
CGA:   6    -0.642561605615E+03   -0.75443E-03   -0.75528E-03  1824   0.122E-02 0.242E-04
CGA:   7    -0.642561897214E+03   -0.29160E-03   -0.29133E-03  1824   0.416E-03 0.209E-04
CGA:   8    -0.642562003827E+03   -0.10661E-03   -0.10616E-03  1824   0.145E-03 0.175E-04
CGA:   9    -0.642562042060E+03   -0.38232E-04   -0.38211E-04  1824   0.828E-04 0.732E-06
CGA:  10    -0.642562059475E+03   -0.17415E-04   -0.17546E-04  1824   0.279E-04 0.744E-05
CGA:  11    -0.642562068593E+03   -0.91182E-05   -0.90932E-05  1824   0.147E-04 0.330E-06
  25 F= -.64256207E+03 E0= -.64256115E+03  d E =0.139964E-02  mag=    -0.0000
       N       E                     dE             d eps       ncg     rms          ort
SDA:   1    -0.642510379794E+03    0.51680E-01    0.00000E+00  1824   0.244E+00 0.000E+00
CGA:   2    -0.642541304380E+03   -0.30925E-01   -0.30903E-01  1824   0.524E-01-0.576E-03
CGA:   3    -0.642556966794E+03   -0.15662E-01   -0.15619E-01  1824   0.154E-01 0.508E-03
CGA:   4    -0.642559914614E+03   -0.29478E-02   -0.29535E-02  1824   0.427E-02 0.127E-03
CGA:   5    -0.642560796469E+03   -0.88185E-03   -0.88491E-03  1824   0.140E-02 0.136E-03
CGA:   6    -0.642561078699E+03   -0.28223E-03   -0.28210E-03  1824   0.510E-03-0.457E-05
CGA:   7    -0.642561203885E+03   -0.12519E-03   -0.12566E-03  1824   0.194E-03-0.219E-04
CGA:   8    -0.642561247482E+03   -0.43597E-04   -0.43626E-04  1824   0.664E-04-0.347E-05
CGA:   9    -0.642561261569E+03   -0.14087E-04   -0.14113E-04  1824   0.281E-04 0.239E-05
CGA:  10    -0.642561269700E+03   -0.81310E-05   -0.83133E-05  1824   0.141E-04-0.308E-05
  26 F= -.64256127E+03 E0= -.64256033E+03  d E =0.798893E-03  mag=     0.0000
