       N       E                     dE             d eps       ncg     rms          ort
DAV:   1     0.282844704461E+04    0.28284E+04   -0.29343E+05  2880   0.140E+03
DAV:   2    -0.969945349748E+03   -0.37984E+04   -0.36666E+04  2880   0.314E+02
DAV:   3    -0.122947181146E+04   -0.25953E+03   -0.25747E+03  2880   0.851E+01
DAV:   4    -0.123255472142E+04   -0.30829E+01   -0.30718E+01  2880   0.986E+00
DAV:   5    -0.123260654185E+04   -0.51820E-01   -0.51705E-01  2880   0.117E+00
SDA:   6    -0.877317090913E+03    0.35529E+03   -0.51705E-01  2880   0.604E+03 0.000E+00
CGA:   7    -0.986245317739E+03   -0.10893E+03   -0.10906E+03  2880   0.498E+02 0.508E+01
CGA:   8    -0.997171471412E+03   -0.10926E+02   -0.10806E+02  2880   0.319E+02 0.442E+01
CGA:   9    -0.999819631257E+03   -0.26482E+01   -0.43377E+01  2880   0.230E+02 0.391E+01
CGA:  10    -0.100266955412E+04   -0.28499E+01   -0.29855E+01  2880   0.108E+02-0.476E+01
CGA:  11    -0.100422547979E+04   -0.15559E+01   -0.15641E+01  2880   0.687E+01 0.355E+00
CGA:  12    -0.100495083884E+04   -0.72536E+00   -0.65392E+00  2880   0.394E+01-0.287E+01
CGA:  13    -0.100534705177E+04   -0.39621E+00   -0.39719E+00  2880   0.276E+01 0.245E-01
CGA:  14    -0.100556521159E+04   -0.21816E+00   -0.20290E+00  2880   0.101E+01-0.122E+01
CGA:  15    -0.100566083350E+04   -0.95622E-01   -0.95301E-01  2880   0.134E+01-0.158E-01
CGA:  16    -0.100574738886E+04   -0.86555E-01   -0.89413E-01  2880   0.441E+00-0.975E-01
CGA:  17    -0.100578988302E+04   -0.42494E-01   -0.44431E-01  2880   0.203E+00-0.564E-02
CGA:  18    -0.100581016114E+04   -0.20278E-01   -0.20935E-01  2880   0.219E+00-0.306E-03
CGA:  19    -0.100583564029E+04   -0.25479E-01   -0.25468E-01  2880   0.992E-01 0.296E-02
CGA:  20    -0.100584467437E+04   -0.90341E-02   -0.91759E-02  2880   0.598E-01 0.397E-03
CGA:  21    -0.100585109619E+04   -0.64218E-02   -0.64295E-02  2880   0.490E-01 0.352E-03
CGA:  22    -0.100585778508E+04   -0.66889E-02   -0.67480E-02  2880   0.297E-01 0.163E-02
CGA:  23    -0.100586096544E+04   -0.31804E-02   -0.31848E-02  2880   0.167E-01 0.123E-03
CGA:  24    -0.100586258106E+04   -0.16156E-02   -0.15898E-02  2880   0.908E-02-0.522E-03
CGA:  25    -0.100586455117E+04   -0.19701E-02   -0.19728E-02  2880   0.795E-02-0.105E-03
CGA:  26    -0.100586512670E+04   -0.57553E-03   -0.55076E-03  2880   0.404E-02 0.682E-03
CGA:  27    -0.100586567045E+04   -0.54375E-03   -0.54890E-03  2880   0.360E-02 0.284E-03
CGA:  28    -0.100586609136E+04   -0.42091E-03   -0.43960E-03  2880   0.419E-02 0.368E-03
CGA:  29    -0.100586648252E+04   -0.39117E-03   -0.32280E-03  2880   0.183E-02 0.144E-02
CGA:  30    -0.100586661512E+04   -0.13260E-03   -0.14595E-03  2880   0.119E-02 0.332E-03
CGA:  31    -0.100586672656E+04   -0.11144E-03   -0.12190E-03  2880   0.138E-02 0.148E-03
CGA:  32    -0.100586686607E+04   -0.13951E-03   -0.13450E-03  2880   0.109E-02 0.900E-05
CGA:  33    -0.100586692124E+04   -0.55167E-04   -0.47909E-04  2880   0.390E-03 0.321E-04
CGA:  34    -0.100586694701E+04   -0.25774E-04   -0.22372E-04  2880   0.418E-03-0.454E-04
CGA:  35    -0.100586700270E+04   -0.55689E-04   -0.82261E-04  2880   0.230E-02-0.271E-03
CGA:  36    -0.100586711837E+04   -0.11567E-03   -0.11109E-03  2880   0.339E-03-0.704E-04
CGA:  37    -0.100586721560E+04   -0.97227E-04   -0.84986E-04  2880   0.688E-03 0.927E-04
CGA:  38    -0.100586738648E+04   -0.17089E-03   -0.27003E-03  2880   0.231E-02-0.714E-03
CGA:  39    -0.100586748789E+04   -0.10141E-03   -0.10954E-03  2880   0.185E-03 0.745E-04
CGA:  40    -0.100586751715E+04   -0.29252E-04   -0.33030E-04  2880   0.468E-03-0.108E-03
CGA:  41    -0.100586754032E+04   -0.23175E-04   -0.23436E-04  2880   0.413E-04 0.209E-05
CGA:  42    -0.100586753652E+04    0.38035E-05   -0.12989E-04  2880   0.532E-03-0.954E-04
CGA:  43    -0.100586755505E+04   -0.18529E-04   -0.22760E-04  2880   0.286E-04 0.385E-04
CGA:  44    -0.100586755694E+04   -0.18984E-05   -0.18617E-05  2880   0.228E-05-0.532E-06
   1 F= -.10058676E+04 E0= -.10058517E+04  d E =-.100587E+04  mag=     1.0000
