       N       E                     dE             d eps       ncg     rms          ort
DAV:   1     0.829561280899E+04    0.82956E+04   -0.24657E+05  8424   0.238E+03
DAV:   2     0.920729900751E+03   -0.73749E+04   -0.69219E+04  8424   0.659E+02
DAV:   3    -0.677712056070E+03   -0.15984E+04   -0.14068E+04  8424   0.283E+02
DAV:   4    -0.834157867750E+03   -0.15645E+03   -0.15373E+03  8424   0.858E+01
DAV:   5    -0.836686998477E+03   -0.25291E+01   -0.25174E+01  8424   0.122E+01
SDA:   6    -0.255421912405E+03    0.58127E+03   -0.25174E+01  8424   0.662E+04 0.000E+00
CGA:   7    -0.211374925944E+03    0.44047E+02   -0.41928E+03  8424   0.277E+05-0.393E+04
CGA:   8     0.128727036570E+04    0.14986E+04   -0.17374E+04  8424   0.146E+06-0.547E+05
CGA:   9     0.506923484032E+04    0.37820E+04   -0.11482E+05  8424   0.200E+05-0.106E+05
CGA:  10     0.946635972122E+03   -0.41226E+04   -0.75056E+03  8424   0.310E+05-0.346E+05
CGA:  11     0.281940182850E+04    0.18728E+04   -0.15228E+04  8424   0.120E+06-0.718E+05
CGA:  12     0.499422693982E+04    0.21748E+04   -0.82145E+04  8424   0.235E+05-0.177E+05
CGA:  13    -0.612420181183E+03   -0.56066E+04   -0.78585E+03  8424   0.570E+03-0.290E+04
CGA:  14    -0.640531469932E+03   -0.28111E+02   -0.35259E+02  8424   0.958E+02 0.103E+03
CGA:  15    -0.656411928737E+03   -0.15880E+02   -0.16174E+02  8424   0.504E+02 0.141E+02
CGA:  16    -0.664931296494E+03   -0.85194E+01   -0.85619E+01  8424   0.422E+02 0.507E+01
CGA:  17    -0.671092782815E+03   -0.61615E+01   -0.62316E+01  8424   0.148E+02 0.996E+00
CGA:  18    -0.673069074181E+03   -0.19763E+01   -0.12008E+01  8424   0.543E+01 0.535E+01
CGA:  19    -0.673540302951E+03   -0.47123E+00   -0.38771E+00  8424   0.926E+01 0.682E+00
CGA:  20    -0.673779178496E+03   -0.23888E+00   -0.73296E+00  8424   0.213E+02 0.179E+01
CGA:  21    -0.674058678460E+03   -0.27950E+00   -0.74612E+00  8424   0.773E+01-0.103E+02
CGA:  22    -0.674206807492E+03   -0.14813E+00   -0.10694E+00  8424   0.677E+01 0.161E+01
CGA:  23    -0.674522158317E+03   -0.31535E+00   -0.18339E+00  8424   0.428E+01 0.497E+01
CGA:  24    -0.675066195480E+03   -0.54404E+00   -0.54519E+00  8424   0.447E+01-0.132E+00
CGA:  25    -0.675340761768E+03   -0.27457E+00   -0.33466E+00  8424   0.176E+01 0.651E-01
CGA:  26    -0.675561859782E+03   -0.22110E+00   -0.22192E+00  8424   0.134E+01-0.103E+00
CGA:  27    -0.675661996734E+03   -0.10014E+00   -0.10985E+00  8424   0.599E+00 0.576E-01
CGA:  28    -0.675726351632E+03   -0.64355E-01   -0.65422E-01  8424   0.349E+00 0.322E-01
CGA:  29    -0.675768156449E+03   -0.41805E-01   -0.41920E-01  8424   0.164E+00 0.135E-01
CGA:  30    -0.675791132129E+03   -0.22976E-01   -0.22838E-01  8424   0.642E-01 0.277E-02
CGA:  31    -0.675803791593E+03   -0.12659E-01   -0.12570E-01  8424   0.583E-01 0.799E-04
CGA:  32    -0.675810994078E+03   -0.72025E-02   -0.72034E-02  8424   0.215E-01-0.103E-02
CGA:  33    -0.675815551115E+03   -0.45570E-02   -0.45480E-02  8424   0.141E-01 0.220E-04
CGA:  34    -0.675818738474E+03   -0.31874E-02   -0.31801E-02  8424   0.111E-01-0.248E-04
CGA:  35    -0.675820525853E+03   -0.17874E-02   -0.17913E-02  8424   0.867E-02-0.107E-04
CGA:  36    -0.675822574989E+03   -0.20491E-02   -0.23084E-02  8424   0.103E-01-0.200E-02
CGA:  37    -0.675803159511E+03    0.19415E-01   -0.78463E-02  8424   0.173E+00-0.415E-01
CGA:  38    -0.675820724045E+03   -0.17565E-01   -0.17021E-01  8424   0.449E-01-0.787E-02
CGA:  39    -0.675829465729E+03   -0.87417E-02   -0.85848E-02  8424   0.217E-01-0.222E-02
CGA:  40    -0.675836110756E+03   -0.66450E-02   -0.68493E-02  8424   0.113E-01-0.237E-02
CGA:  41    -0.675839684033E+03   -0.35733E-02   -0.37855E-02  8424   0.124E-01-0.160E-02
CGA:  42    -0.675841751427E+03   -0.20674E-02   -0.17947E-02  8424   0.115E-01-0.284E-02
CGA:  43    -0.675844845504E+03   -0.30941E-02   -0.35571E-02  8424   0.174E-01-0.319E-02
CGA:  44    -0.675840058650E+03    0.47869E-02   -0.45784E-02  8424   0.316E+00-0.153E-01
CGA:  45    -0.675887450742E+03   -0.47392E-01   -0.44158E-01  8424   0.687E-01 0.185E-01
CGA:  46    -0.675906902351E+03   -0.19452E-01   -0.18738E-01  8424   0.730E-01-0.692E-02
CGA:  47    -0.675924228188E+03   -0.17326E-01   -0.15938E-01  8424   0.449E-01-0.466E-02
CGA:  48    -0.675945336758E+03   -0.21109E-01   -0.39910E-01  8424   0.260E+00-0.382E-01
CGA:  49    -0.675991367658E+03   -0.46031E-01   -0.46318E-01  8424   0.884E-01-0.141E-01
CGA:  50    -0.676014148491E+03   -0.22781E-01   -0.22341E-01  8424   0.513E-01-0.112E-02
CGA:  51    -0.676039673567E+03   -0.25525E-01   -0.26332E-01  8424   0.664E-01-0.100E-01
CGA:  52    -0.676064544463E+03   -0.24871E-01   -0.26319E-01  8424   0.730E-01-0.253E-01
CGA:  53    -0.676085814373E+03   -0.21270E-01   -0.22961E-01  8424   0.516E-01-0.247E-01
CGA:  54    -0.676095413337E+03   -0.95990E-02   -0.82209E-02  8424   0.241E-01-0.801E-02
CGA:  55    -0.676103874340E+03   -0.84610E-02   -0.83185E-02  8424   0.177E-01-0.490E-02
CGA:  56    -0.676108963130E+03   -0.50888E-02   -0.50276E-02  8424   0.149E-01-0.806E-03
CGA:  57    -0.676113005565E+03   -0.40424E-02   -0.42229E-02  8424   0.843E-02 0.113E-02
CGA:  58    -0.676115633585E+03   -0.26280E-02   -0.29102E-02  8424   0.485E-02 0.268E-02
CGA:  59    -0.676116823914E+03   -0.11903E-02   -0.15281E-02  8424   0.215E-02 0.190E-02
CGA:  60    -0.676117443796E+03   -0.61988E-03   -0.78530E-03  8424   0.113E-02 0.110E-02
CGA:  61    -0.676117868309E+03   -0.42451E-03   -0.43144E-03  8424   0.873E-03 0.305E-03
CGA:  62    -0.676118430021E+03   -0.56171E-03   -0.53764E-03  8424   0.624E-03 0.288E-03
CGA:  63    -0.676118745189E+03   -0.31517E-03   -0.32238E-03  8424   0.460E-03 0.378E-03
CGA:  64    -0.676118820710E+03   -0.75521E-04   -0.11249E-03  8424   0.341E-03 0.228E-03
CGA:  65    -0.676119148773E+03   -0.32806E-03   -0.28560E-03  8424   0.365E-03 0.255E-03
CGA:  66    -0.676117834662E+03    0.13141E-02   -0.74278E-03  8424   0.131E-01-0.109E-02
CGA:  67    -0.676120515658E+03   -0.26810E-02   -0.28492E-02  8424   0.858E-03 0.330E-03
CGA:  68    -0.676120896760E+03   -0.38110E-03   -0.34710E-03  8424   0.736E-03-0.108E-03
CGA:  69    -0.676121257313E+03   -0.36055E-03   -0.35021E-03  8424   0.726E-03-0.719E-04
CGA:  70    -0.676116473019E+03    0.47843E-02   -0.26306E-02  8424   0.597E-01-0.219E-02
CGA:  71    -0.676127621312E+03   -0.11148E-01   -0.10561E-01  8424   0.700E-02-0.216E-02
CGA:  72    -0.676129114809E+03   -0.14935E-02   -0.15125E-02  8424   0.117E-02 0.707E-04
CGA:  73    -0.676129798167E+03   -0.68336E-03   -0.59192E-03  8424   0.822E-03-0.143E-03
CGA:  74    -0.676130339784E+03   -0.54162E-03   -0.33078E-03  8424   0.918E-03-0.323E-03
CGA:  75    -0.676112587099E+03    0.17753E-01   -0.92550E-02  8424   0.911E-01-0.388E-02
CGA:  76    -0.676133063112E+03   -0.20476E-01   -0.20203E-01  8424   0.200E-01 0.953E-03
CGA:  77    -0.676139286800E+03   -0.62237E-02   -0.63777E-02  8424   0.564E-02-0.197E-04
CGA:  78    -0.676140633672E+03   -0.13469E-02   -0.15841E-02  8424   0.171E-02 0.185E-03
CGA:  79    -0.676141237805E+03   -0.60413E-03   -0.51604E-03  8424   0.449E-03-0.657E-04
CGA:  80    -0.676141339743E+03   -0.10194E-03   -0.12611E-03  8424   0.161E-03 0.165E-04
CGA:  81    -0.676141543412E+03   -0.20367E-03   -0.17971E-03  8424   0.425E-03-0.497E-04
CGA:  82    -0.676141968491E+03   -0.42508E-03   -0.22606E-03  8424   0.901E-03-0.276E-03
CGA:  83    -0.676142190010E+03   -0.22152E-03   -0.26857E-03  8424   0.394E-03 0.383E-04
CGA:  84    -0.676142584580E+03   -0.39457E-03   -0.24204E-03  8424   0.385E-03-0.173E-03
CGA:  85    -0.676142851628E+03   -0.26705E-03   -0.12317E-03  8424   0.405E-03-0.169E-03
CGA:  86    -0.676106178256E+03    0.36673E-01   -0.20302E-01  8424   0.173E+00-0.515E-02
CGA:  87    -0.676137665196E+03   -0.31487E-01   -0.32660E-01  8424   0.361E-01-0.607E-02
CGA:  88    -0.676142059998E+03   -0.43948E-02   -0.10121E-01  8424   0.213E-01 0.807E-03
CGA:  89    -0.675990085346E+03    0.15197E+00   -0.58525E-02  8424   0.456E+00 0.274E-01
CGA:  90    -0.674778270589E+03    0.12118E+01   -0.24467E+00  8424   0.338E+01 0.301E+00
CGA:  91    -0.668101191258E+03    0.66771E+01   -0.18944E+01  8424   0.129E+02 0.157E+01
CGA:  92    -0.656877913022E+03    0.11223E+02   -0.11603E+02  8424   0.263E+02 0.230E+01
CGA:  93    -0.598806584785E+03    0.58071E+02   -0.16292E+02  8424   0.631E+02-0.629E-01
CGA:  94    -0.538762031630E+03    0.60045E+02   -0.21372E+02  8424   0.112E+03-0.652E+01
CGA:  95    -0.478378001344E+03    0.60384E+02   -0.42542E+02  8424   0.245E+03-0.267E+02
CGA:  96    -0.430287282942E+03    0.48091E+02   -0.20057E+02  8424   0.251E+03-0.126E+03
CGA:  97    -0.467818082501E+03   -0.37531E+02   -0.13924E+03  8424   0.253E+04-0.347E+03
CGA:  98     0.530706194031E+03    0.99852E+03   -0.99557E+03  8424   0.419E+05-0.806E+04
CGA:  99     0.107241281722E+05    0.10193E+05   -0.27613E+05  8424   0.889E+05-0.932E+04
CGA: 100     0.147613465087E+05    0.40372E+04   -0.49456E+05  8424   0.806E+05-0.287E+03
CGA: 101     0.163504046469E+05    0.15891E+04   -0.58530E+05  8424   0.653E+05 0.246E+04
CGA: 102     0.164070625549E+05    0.56658E+02   -0.48760E+05  8424   0.538E+05 0.211E+04
CGA: 103     0.226332292250E+05    0.62262E+04   -0.38642E+05  8424   0.110E+06 0.281E+04
CGA: 104     0.310103040083E+05    0.83771E+04   -0.77645E+05  8424   0.127E+06 0.158E+03
CGA: 105     0.406640474260E+05    0.96537E+04   -0.84095E+05  8424   0.190E+06 0.364E+04
CGA: 106     0.467210939966E+05    0.60570E+04   -0.12662E+06  8424   0.181E+06 0.129E+04
CGA: 107     0.486136729009E+05    0.18926E+04   -0.11598E+06  8424   0.220E+06 0.134E+04
CGA: 108     0.579289657669E+05    0.93153E+04   -0.13549E+06  8424   0.182E+06 0.400E+03
CGA: 109     0.543397378302E+05   -0.35892E+04   -0.11193E+06  8424   0.237E+06-0.979E+03
CGA: 110     0.695370499959E+05    0.15197E+05   -0.13537E+06  8424   0.150E+06 0.151E+04
CGA: 111     0.569879223525E+05   -0.12549E+05   -0.92300E+05  8424   0.253E+06-0.191E+04
CGA: 112     0.770128776744E+05    0.20025E+05   -0.13478E+06  8424   0.118E+06 0.168E+04
CGA: 113     0.642657075835E+05   -0.12747E+05   -0.73007E+05  8424   0.261E+06-0.306E+04
CGA: 114     0.838589551046E+05    0.19593E+05   -0.13060E+06  8424   0.104E+06 0.103E+04
CGA: 115     0.710927487582E+05   -0.12766E+05   -0.64813E+05  8424   0.227E+06-0.408E+04
CGA: 116     0.871267898306E+05    0.16034E+05   -0.10693E+06  8424   0.104E+06 0.113E+04
CGA: 117     0.766499305952E+05   -0.10477E+05   -0.63135E+05  8424   0.191E+06-0.169E+04
CGA: 118     0.897492783588E+05    0.13099E+05   -0.88954E+05  8424   0.103E+06 0.110E+04
CGA: 119     0.804715011842E+05   -0.92778E+04   -0.60304E+05  8424   0.162E+06 0.155E+04
CGA: 120     0.909360189373E+05    0.10465E+05   -0.75832E+05  8424   0.974E+05-0.904E+03
CGA: 121     0.824872549431E+05   -0.84488E+04   -0.54072E+05  8424   0.132E+06 0.116E+05
CGA: 122     0.918015466584E+05    0.93143E+04   -0.67839E+05  8424   0.924E+05-0.287E+04
CGA: 123     0.737988450909E+05   -0.18003E+05   -0.49962E+05  8424   0.964E+05 0.265E+05
CGA: 124     0.816768353325E+05    0.78780E+04   -0.57396E+05  8424   0.101E+06 0.111E+05
CGA: 125     0.749175293011E+05   -0.67593E+04   -0.55256E+05  8424   0.735E+05 0.255E+05
CGA: 126     0.374002824655E+05   -0.37517E+05   -0.49191E+05  8424   0.378E+05 0.242E+05
CGA: 127     0.219857530243E+05   -0.15415E+05   -0.23740E+05  8424   0.956E+04 0.468E+04
CGA: 128     0.143136787299E+05   -0.76721E+04   -0.78463E+04  8424   0.291E+04 0.189E+04
SDA: 129     0.104266310129E+05   -0.38870E+04   -0.37662E+04  8424   0.176E+04 0.269E+03
CGA: 130     0.889476110258E+04   -0.15319E+04   -0.16938E+04  8424   0.249E+04-0.753E+03
CGA: 131     0.307824288703E+05    0.21888E+05   -0.50248E+04  8424   0.576E+05-0.332E+04
CGA: 132     0.791017016583E+04   -0.22872E+05   -0.32554E+05  8424   0.486E+04-0.490E+04
CGA: 133     0.629063635591E+04   -0.16195E+04   -0.85629E+03  8424   0.325E+04 0.421E+04
CGA: 134     0.542929413768E+04   -0.86134E+03   -0.45706E+03  8424   0.226E+04 0.297E+04
CGA: 135     0.495697604540E+04   -0.47232E+03   -0.24941E+03  8424   0.171E+04 0.208E+04
CGA: 136     0.463085694887E+04   -0.32612E+03   -0.16934E+03  8424   0.138E+04 0.161E+04
CGA: 137     0.436155381868E+04   -0.26930E+03   -0.14035E+03  8424   0.113E+04 0.130E+04
CGA: 138     0.411035792588E+04   -0.25120E+03   -0.12997E+03  8424   0.927E+03 0.107E+04
CGA: 139     0.385884879568E+04   -0.25151E+03   -0.12892E+03  8424   0.760E+03 0.887E+03
CGA: 140     0.357749695196E+04   -0.28135E+03   -0.14463E+03  8424   0.598E+03 0.717E+03
CGA: 141     0.316311423966E+04   -0.41438E+03   -0.22838E+03  8424   0.474E+03 0.385E+03
CGA: 142     0.262913410808E+04   -0.53398E+03   -0.64452E+03  8424   0.208E+04-0.200E+03
CGA: 143     0.242689029683E+04   -0.20224E+03   -0.10131E+03  8424   0.192E+04 0.165E+04
CGA: 144     0.215287054745E+04   -0.27402E+03   -0.17792E+03  8424   0.354E+03 0.477E+03
CGA: 145     0.197534395964E+04   -0.17753E+03   -0.20706E+03  8424   0.104E+04 0.499E+02
CGA: 146     0.137394336075E+04   -0.60140E+03   -0.64711E+03  8424   0.313E+03 0.275E+03
CGA: 147     0.378797272205E+04    0.24140E+04   -0.57302E+03  8424   0.313E+05-0.284E+04
CGA: 148     0.230587023982E+04   -0.14821E+04   -0.10253E+05  8424   0.791E+04-0.228E+04
CGA: 149     0.722854221684E+03   -0.15830E+04   -0.13078E+04  8424   0.839E+03 0.101E+04
CGA: 150     0.542888957239E+03   -0.17997E+03   -0.16351E+03  8424   0.187E+03 0.224E+03
CGA: 151     0.441906854763E+03   -0.10098E+03   -0.70558E+02  8424   0.132E+03 0.821E+02
CGA: 152     0.373356996150E+03   -0.68550E+02   -0.71500E+02  8424   0.236E+03-0.263E+01
CGA: 153     0.322047170728E+03   -0.51310E+02   -0.54702E+02  8424   0.312E+03-0.136E+02
CGA: 154     0.240800703965E+03   -0.81246E+02   -0.10274E+03  8424   0.687E+03 0.545E+01
CGA: 155     0.114730158653E+03   -0.12607E+03   -0.15073E+03  8424   0.572E+03-0.367E+02
CGA: 156    -0.707688014502E+01   -0.12181E+03   -0.14402E+03  8424   0.376E+03-0.249E+02
CGA: 157    -0.900023186872E+02   -0.82925E+02   -0.10726E+03  8424   0.186E+03-0.479E+01
CGA: 158    -0.197363338305E+03   -0.10736E+03   -0.10653E+03  8424   0.143E+03 0.468E+01
CGA: 159    -0.265531977786E+03   -0.68169E+02   -0.68240E+02  8424   0.146E+03-0.293E+00
CGA: 160    -0.318114075779E+03   -0.52582E+02   -0.55781E+02  8424   0.113E+03 0.493E+01
CGA: 161    -0.365947719117E+03   -0.47834E+02   -0.47901E+02  8424   0.118E+03-0.104E+01
CGA: 162    -0.416663629246E+03   -0.50716E+02   -0.48946E+02  8424   0.867E+02-0.829E+01
CGA: 163    -0.447617078588E+03   -0.30953E+02   -0.30313E+02  8424   0.816E+02-0.135E+01
CGA: 164    -0.473608541543E+03   -0.25991E+02   -0.26442E+02  8424   0.621E+02 0.559E+00
CGA: 165    -0.496445560096E+03   -0.22837E+02   -0.22768E+02  8424   0.556E+02-0.509E+00
CGA: 166    -0.512992302508E+03   -0.16547E+02   -0.15446E+02  8424   0.539E+02 0.713E+00
CGA: 167    -0.530971794558E+03   -0.17979E+02   -0.17852E+02  8424   0.486E+02-0.680E+00
CGA: 168    -0.546327542984E+03   -0.15356E+02   -0.15175E+02  8424   0.442E+02 0.171E+00
CGA: 169    -0.558272642468E+03   -0.11945E+02   -0.11318E+02  8424   0.467E+02 0.530E+00
CGA: 170    -0.571114707324E+03   -0.12842E+02   -0.13017E+02  8424   0.322E+02-0.943E+00
CGA: 171    -0.582142743852E+03   -0.11028E+02   -0.10977E+02  8424   0.270E+02-0.237E+00
CGA: 172    -0.591869633173E+03   -0.97269E+01   -0.97337E+01  8424   0.316E+02-0.199E+00
CGA: 173    -0.598712601741E+03   -0.68430E+01   -0.71743E+01  8424   0.243E+02 0.182E+00
CGA: 174    -0.605904421106E+03   -0.71918E+01   -0.73444E+01  8424   0.255E+02 0.339E+00
CGA: 175    -0.612175003888E+03   -0.62706E+01   -0.63680E+01  8424   0.208E+02-0.711E-01
CGA: 176    -0.617569939847E+03   -0.53949E+01   -0.55035E+01  8424   0.192E+02-0.933E-01
CGA: 177    -0.622874413282E+03   -0.53045E+01   -0.52887E+01  8424   0.170E+02-0.117E+00
SDA: 178    -0.626930006423E+03   -0.40556E+01   -0.41348E+01  8424   0.159E+02 0.404E-01
CGA: 179    -0.633835870109E+03   -0.69059E+01   -0.69861E+01  8424   0.241E+02-0.170E+01
CGA: 180    -0.640161601391E+03   -0.63257E+01   -0.40264E+01  8424   0.814E+01 0.106E+01
CGA: 181    -0.642605902541E+03   -0.24443E+01   -0.24328E+01  8424   0.137E+02 0.100E-01
CGA: 182    -0.646200990553E+03   -0.35951E+01   -0.38012E+01  8424   0.204E+02 0.942E+00
CGA: 183    -0.648212192792E+03   -0.20112E+01   -0.23837E+01  8424   0.885E+01 0.296E+00
CGA: 184    -0.649753550611E+03   -0.15414E+01   -0.17480E+01  8424   0.152E+02 0.110E+00
CGA: 185    -0.651472563657E+03   -0.17190E+01   -0.20859E+01  8424   0.150E+02-0.173E+01
CGA: 186    -0.652969703722E+03   -0.14971E+01   -0.15456E+01  8424   0.134E+02 0.496E+00
CGA: 187    -0.653816458071E+03   -0.84675E+00   -0.11449E+01  8424   0.164E+02-0.270E+01
CGA: 188    -0.654390000575E+03   -0.57354E+00   -0.10052E+01  8424   0.267E+02-0.188E+01
CGA: 189    -0.654766763325E+03   -0.37676E+00   -0.13022E+01  8424   0.165E+02-0.416E+01
CGA: 190    -0.655644519718E+03   -0.87776E+00   -0.13972E+01  8424   0.172E+02-0.543E+00
CGA: 191    -0.656804628045E+03   -0.11601E+01   -0.14625E+01  8424   0.943E+01 0.339E+00
CGA: 192    -0.657685373530E+03   -0.88075E+00   -0.10086E+01  8424   0.871E+01-0.197E+00
CGA: 193    -0.659103483546E+03   -0.14181E+01   -0.12078E+01  8424   0.130E+02-0.431E+00
CGA: 194    -0.660080938247E+03   -0.97745E+00   -0.10767E+01  8424   0.118E+02 0.225E+00
CGA: 195    -0.661085490130E+03   -0.10046E+01   -0.95311E+00  8424   0.105E+02 0.446E+00
CGA: 196    -0.661747857978E+03   -0.66237E+00   -0.84507E+00  8424   0.990E+01-0.294E+00
CGA: 197    -0.662465835157E+03   -0.71798E+00   -0.69935E+00  8424   0.942E+01 0.762E+00
CGA: 198    -0.662976191509E+03   -0.51036E+00   -0.78852E+00  8424   0.961E+01-0.893E+00
CGA: 199    -0.663973075731E+03   -0.99688E+00   -0.84820E+00  8424   0.109E+02 0.978E+00
CGA: 200    -0.664467225047E+03   -0.49415E+00   -0.78668E+00  8424   0.683E+01-0.141E+01
   1 F= -.66446723E+03 E0= -.66446551E+03  d E =-.664467E+03  mag=     1.7402
       N       E                     dE             d eps       ncg     rms          ort
SDA:   1    -0.669661931697E+03   -0.56889E+01    0.00000E+00  8424   0.176E+02 0.000E+00
CGA:   2    -0.672217783518E+03   -0.25559E+01   -0.26161E+01  8424   0.496E+01 0.378E+00
CGA:   3    -0.673677341609E+03   -0.14596E+01   -0.14694E+01  8424   0.267E+01-0.264E+00
CGA:   4    -0.674276190620E+03   -0.59885E+00   -0.61197E+00  8424   0.153E+01-0.357E+00
CGA:   5    -0.674627131350E+03   -0.35094E+00   -0.37726E+00  8424   0.132E+01-0.320E+00
CGA:   6    -0.674942548064E+03   -0.31542E+00   -0.36898E+00  8424   0.964E+00-0.338E+00
CGA:   7    -0.675120218973E+03   -0.17767E+00   -0.18184E+00  8424   0.505E+00-0.759E-01
CGA:   8    -0.675233222666E+03   -0.11300E+00   -0.11323E+00  8424   0.258E+00 0.359E-02
CGA:   9    -0.675296769291E+03   -0.63547E-01   -0.63240E-01  8424   0.137E+00 0.126E-01
CGA:  10    -0.675341377092E+03   -0.44608E-01   -0.43792E-01  8424   0.107E+00 0.868E-02
CGA:  11    -0.675388271770E+03   -0.46895E-01   -0.45998E-01  8424   0.131E+00 0.325E-02
CGA:  12    -0.675427783220E+03   -0.39511E-01   -0.41021E-01  8424   0.131E+00-0.145E-01
CGA:  13    -0.675450672398E+03   -0.22889E-01   -0.22377E-01  8424   0.115E+00-0.428E-02
CGA:  14    -0.675471283237E+03   -0.20611E-01   -0.19921E-01  8424   0.103E+00-0.540E-02
CGA:  15    -0.675488989968E+03   -0.17707E-01   -0.17399E-01  8424   0.108E+00-0.431E-02
CGA:  16    -0.675506910770E+03   -0.17921E-01   -0.14616E-01  8424   0.111E+00-0.663E-02
CGA:  17    -0.675517031175E+03   -0.10120E-01   -0.11016E-01  8424   0.111E+00-0.444E-02
CGA:  18    -0.675535288161E+03   -0.18257E-01   -0.15211E-01  8424   0.140E+00-0.198E-02
CGA:  19    -0.675544755260E+03   -0.94671E-02   -0.87300E-02  8424   0.141E+00-0.774E-02
CGA:  20    -0.675551277536E+03   -0.65223E-02   -0.79260E-02  8424   0.130E+00-0.178E-01
CGA:  21    -0.675560648365E+03   -0.93708E-02   -0.76364E-02  8424   0.144E+00 0.206E-01
CGA:  22    -0.675571275441E+03   -0.10627E-01   -0.97098E-02  8424   0.138E+00-0.535E-02
CGA:  23    -0.675575998989E+03   -0.47235E-02   -0.61373E-02  8424   0.119E+00-0.228E-01
CGA:  24    -0.675580142432E+03   -0.41434E-02   -0.49094E-02  8424   0.106E+00-0.817E-02
CGA:  25    -0.675586512980E+03   -0.63705E-02   -0.64680E-02  8424   0.103E+00 0.405E-02
CGA:  26    -0.675595345657E+03   -0.88327E-02   -0.72729E-02  8424   0.109E+00 0.149E-01
CGA:  27    -0.675602070383E+03   -0.67247E-02   -0.64506E-02  8424   0.106E+00 0.128E-02
CGA:  28    -0.675606359189E+03   -0.42888E-02   -0.48256E-02  8424   0.101E+00-0.814E-02
CGA:  29    -0.675610200266E+03   -0.38411E-02   -0.42962E-02  8424   0.980E-01-0.591E-02
CGA:  30    -0.675614964563E+03   -0.47643E-02   -0.48199E-02  8424   0.993E-01 0.164E-02
CGA:  31    -0.675620795391E+03   -0.58308E-02   -0.51486E-02  8424   0.101E+00 0.561E-02
SDA:  32    -0.675625356137E+03   -0.45607E-02   -0.48795E-02  8424   0.985E-01-0.791E-02
CGA:  33    -0.675753563950E+03   -0.12821E+00   -0.12709E-01  8424   0.528E+00-0.812E-02
CGA:  34    -0.675780245471E+03   -0.26682E-01   -0.32819E-01  8424   0.198E+00-0.240E-01
CGA:  35    -0.675791041705E+03   -0.10796E-01   -0.10572E-01  8424   0.933E-01 0.681E-02
CGA:  36    -0.675799058037E+03   -0.80163E-02   -0.79672E-02  8424   0.841E-01 0.152E-02
CGA:  37    -0.675806059630E+03   -0.70016E-02   -0.69568E-02  8424   0.596E-01-0.156E-02
CGA:  38    -0.675810588653E+03   -0.45290E-02   -0.43144E-02  8424   0.447E-01-0.186E-02
CGA:  39    -0.675814747046E+03   -0.41584E-02   -0.40201E-02  8424   0.441E-01-0.209E-02
CGA:  40    -0.675817888807E+03   -0.31418E-02   -0.30334E-02  8424   0.269E-01-0.106E-03
CGA:  41    -0.675819754903E+03   -0.18661E-02   -0.18554E-02  8424   0.219E-01 0.831E-03
CGA:  42    -0.675821965096E+03   -0.22102E-02   -0.22135E-02  8424   0.285E-01 0.376E-03
CGA:  43    -0.675824443343E+03   -0.24782E-02   -0.24148E-02  8424   0.213E-01-0.845E-03
CGA:  44    -0.675826132096E+03   -0.16888E-02   -0.15417E-02  8424   0.173E-01-0.179E-02
CGA:  45    -0.675828103134E+03   -0.19710E-02   -0.18494E-02  8424   0.251E-01-0.274E-02
CGA:  46    -0.675829921554E+03   -0.18184E-02   -0.16074E-02  8424   0.168E-01-0.218E-02
CGA:  47    -0.675831048845E+03   -0.11273E-02   -0.99592E-03  8424   0.123E-01-0.117E-02
CGA:  48    -0.675832605091E+03   -0.15562E-02   -0.14628E-02  8424   0.230E-01-0.322E-02
CGA:  49    -0.675834616134E+03   -0.20110E-02   -0.16166E-02  8424   0.227E-01-0.708E-02
CGA:  50    -0.675836067108E+03   -0.14510E-02   -0.86471E-03  8424   0.169E-01-0.409E-02
CGA:  51    -0.675837719867E+03   -0.16528E-02   -0.12033E-02  8424   0.296E-01-0.658E-02
CGA:  52    -0.675839610399E+03   -0.18905E-02   -0.14065E-02  8424   0.557E-01-0.107E-01
CGA:  53    -0.675842709417E+03   -0.30990E-02   -0.19949E-02  8424   0.550E-01-0.947E-02
CGA:  54    -0.675845954328E+03   -0.32449E-02   -0.21000E-02  8424   0.560E-01-0.438E-02
CGA:  55    -0.675850665415E+03   -0.47111E-02   -0.32430E-02  8424   0.108E+00-0.117E-01
CGA:  56    -0.675855583035E+03   -0.49176E-02   -0.24206E-02  8424   0.161E+00 0.865E-02
CGA:  57    -0.675864110600E+03   -0.85276E-02   -0.44536E-02  8424   0.217E+00 0.248E-01
CGA:  58    -0.675873555118E+03   -0.94445E-02   -0.46011E-02  8424   0.264E+00 0.684E-01
CGA:  59    -0.675885599461E+03   -0.12044E-01   -0.58938E-02  8424   0.309E+00 0.102E+00
CGA:  60    -0.675900032339E+03   -0.14433E-01   -0.70268E-02  8424   0.357E+00 0.127E+00
CGA:  61    -0.675916485962E+03   -0.16454E-01   -0.75817E-02  8424   0.402E+00 0.184E+00
CGA:  62    -0.675977527034E+03   -0.61041E-01   -0.61572E-01  8424   0.955E-01-0.126E-01
CGA:  63    -0.676005412548E+03   -0.27886E-01   -0.32263E-01  8424   0.878E-01-0.182E-01
CGA:  64    -0.675998452972E+03    0.69596E-02   -0.11379E-01  8424   0.300E+00-0.898E-01
CGA:  65    -0.676050788041E+03   -0.52335E-01   -0.52472E-01  8424   0.627E-01 0.511E-02
CGA:  66    -0.676077010603E+03   -0.26223E-01   -0.28995E-01  8424   0.313E-01-0.111E-01
CGA:  67    -0.676084323885E+03   -0.73133E-02   -0.79307E-02  8424   0.273E-01-0.697E-02
CGA:  68    -0.676083339362E+03    0.98452E-03   -0.17422E-01  8424   0.835E-01-0.297E-01
CGA:  69    -0.676100789672E+03   -0.17450E-01   -0.17509E-01  8424   0.194E-01 0.155E-02
CGA:  70    -0.676105766347E+03   -0.49767E-02   -0.49760E-02  8424   0.544E-02-0.168E-02
CGA:  71    -0.676107732654E+03   -0.19663E-02   -0.21901E-02  8424   0.414E-02-0.120E-02
CGA:  72    -0.676107507171E+03    0.22548E-03   -0.21984E-02  8424   0.175E-01-0.580E-02
CGA:  73    -0.676109824701E+03   -0.23175E-02   -0.24683E-02  8424   0.228E-02 0.115E-02
CGA:  74    -0.676110966813E+03   -0.11421E-02   -0.12900E-02  8424   0.216E-02-0.585E-03
CGA:  75    -0.676111159381E+03   -0.19257E-03   -0.10123E-02  8424   0.679E-02-0.241E-02
CGA:  76    -0.676112278452E+03   -0.11191E-02   -0.11482E-02  8424   0.128E-02 0.210E-03
CGA:  77    -0.676109585693E+03    0.26928E-02   -0.15748E-02  8424   0.137E-01-0.327E-02
CGA:  78    -0.676113223515E+03   -0.36378E-02   -0.37642E-02  8424   0.548E-02 0.496E-03
CGA:  79    -0.676114733979E+03   -0.15105E-02   -0.14329E-02  8424   0.146E-02-0.277E-03
CGA:  80    -0.676115236596E+03   -0.50262E-03   -0.49424E-03  8424   0.631E-03-0.518E-04
CGA:  81    -0.676115200447E+03    0.36149E-04   -0.65202E-03  8424   0.845E-02-0.123E-02
CGA:  82    -0.676116263222E+03   -0.10628E-02   -0.11920E-02  8424   0.921E-03 0.359E-03
CGA:  83    -0.676116726515E+03   -0.46329E-03   -0.45246E-03  8424   0.844E-03-0.234E-03
CGA:  84    -0.676117013349E+03   -0.28683E-03   -0.58438E-03  8424   0.427E-02-0.734E-03
CGA:  85    -0.676117893453E+03   -0.88010E-03   -0.84064E-03  8424   0.987E-03-0.115E-03
CGA:  86    -0.676118375719E+03   -0.48227E-03   -0.47791E-03  8424   0.806E-03-0.200E-03
CGA:  87    -0.676117136103E+03    0.12396E-02   -0.12305E-02  8424   0.184E-01-0.179E-02
CGA:  88    -0.676119830949E+03   -0.26948E-02   -0.28458E-02  8424   0.238E-02 0.406E-03
CGA:  89    -0.676120917055E+03   -0.10861E-02   -0.10298E-02  8424   0.199E-02-0.396E-03
CGA:  90    -0.676121502562E+03   -0.58551E-03   -0.55033E-03  8424   0.609E-03-0.160E-03
CGA:  91    -0.676121838768E+03   -0.33621E-03   -0.37894E-03  8424   0.220E-02-0.336E-03
CGA:  92    -0.676122313526E+03   -0.47476E-03   -0.45565E-03  8424   0.474E-03-0.534E-04
CGA:  93    -0.676122320143E+03   -0.66164E-05   -0.66837E-03  8424   0.707E-02-0.735E-03
CGA:  94    -0.676123377750E+03   -0.10576E-02   -0.11006E-02  8424   0.595E-03 0.104E-03
CGA:  95    -0.676123726660E+03   -0.34891E-03   -0.35880E-03  8424   0.137E-02-0.303E-03
CGA:  96    -0.676123995655E+03   -0.26899E-03   -0.28029E-03  8424   0.331E-03 0.322E-04
CGA:  97    -0.676124368067E+03   -0.37241E-03    0.95937E-02  8424   0.873E-03-0.197E-04
CGA:  98    -0.676125615189E+03   -0.12471E-02    0.56652E-03  8424   0.113E-02 0.656E-03
CGA:  99    -0.676125866934E+03   -0.25175E-03   -0.27043E-03  8424   0.424E-03 0.592E-04
CGA: 100    -0.676125992940E+03   -0.12601E-03   -0.45112E-03  8424   0.446E-02-0.682E-03
CGA: 101    -0.676126626342E+03   -0.63340E-03   -0.70287E-03  8424   0.739E-03 0.194E-03
CGA: 102    -0.676127019579E+03   -0.39324E-03   -0.37686E-03  8424   0.813E-03-0.363E-03
CGA: 103    -0.676127492411E+03   -0.47283E-03    0.14768E-02  8424   0.117E-02 0.108E-03
CGA: 104    -0.676122952536E+03    0.45399E-02   -0.26730E-02  8424   0.464E-01-0.352E-02
CGA: 105    -0.676135483120E+03   -0.12531E-01   -0.12334E-01  8424   0.364E-02-0.236E-03
CGA: 106    -0.676136225366E+03   -0.74225E-03   -0.76227E-03  8424   0.553E-03 0.307E-04
CGA: 107    -0.676136491954E+03   -0.26659E-03   -0.20078E-03  8424   0.443E-03-0.124E-03
CGA: 108    -0.676136798201E+03   -0.30625E-03   -0.30889E-03  8424   0.159E-02-0.108E-03
CGA: 109    -0.676137431002E+03   -0.63280E-03   -0.18204E-02  8424   0.134E-01-0.201E-02
CGA: 110    -0.676140005129E+03   -0.25741E-02   -0.26850E-02  8424   0.309E-02 0.196E-03
CGA: 111    -0.676141228090E+03   -0.12230E-02   -0.10916E-02  8424   0.156E-02-0.256E-03
CGA: 112    -0.676141721103E+03   -0.49301E-03   -0.45288E-03  8424   0.458E-03-0.780E-04
CGA: 113    -0.676142004768E+03   -0.28367E-03   -0.20393E-03  8424   0.637E-03-0.231E-03
CGA: 114    -0.676142141271E+03   -0.13650E-03   -0.12329E-03  8424   0.151E-03-0.219E-04
CGA: 115    -0.676142465076E+03   -0.32380E-03    0.12817E-03  8424   0.452E-03-0.585E-04
CGA: 116    -0.676143221129E+03   -0.75605E-03    0.13864E-03  8424   0.117E-02-0.289E-03
CGA: 117    -0.676143663593E+03   -0.44246E-03   -0.37417E-03  8424   0.839E-03-0.154E-03
CGA: 118    -0.676143853507E+03   -0.18991E-03   -0.18247E-03  8424   0.180E-03-0.163E-04
CGA: 119    -0.676143975703E+03   -0.12220E-03   -0.14617E-03  8424   0.880E-03-0.224E-03
CGA: 120    -0.676144178599E+03   -0.20290E-03   -0.17342E-03  8424   0.167E-03-0.557E-04
CGA: 121    -0.676144288371E+03   -0.10977E-03   -0.10798E-03  8424   0.513E-03-0.147E-03
CGA: 122    -0.676144436014E+03   -0.14764E-03   -0.11094E-03  8424   0.141E-03-0.760E-04
CGA: 123    -0.676144329696E+03    0.10632E-03   -0.16596E-03  8424   0.302E-02-0.389E-03
CGA: 124    -0.676144862675E+03   -0.53298E-03   -0.48833E-03  8424   0.294E-03-0.810E-04
CGA: 125    -0.676144972212E+03   -0.10954E-03   -0.90027E-04  8424   0.866E-04-0.535E-04
CGA: 126    -0.676145189389E+03   -0.21718E-03    0.18071E-04  8424   0.182E-03 0.137E-06
CGA: 127    -0.676145730684E+03   -0.54130E-03    0.49146E-04  8424   0.333E-03 0.229E-04
CGA: 128    -0.676147016084E+03   -0.12854E-02    0.79272E-04  8424   0.497E-03 0.676E-04
CGA: 129    -0.676148893505E+03   -0.18774E-02    0.14590E-03  8424   0.119E-02-0.708E-04
CGA: 130    -0.676153909195E+03   -0.50157E-02    0.12492E-03  8424   0.171E-02-0.369E-03
CGA: 131    -0.676161666173E+03   -0.77570E-02    0.99300E-04  8424   0.143E-02-0.131E-02
CGA: 132    -0.676161986291E+03   -0.32012E-03   -0.31459E-03  8424   0.254E-03-0.125E-04
CGA: 133    -0.676161992590E+03   -0.62996E-05   -0.46397E-04  8424   0.878E-04 0.882E-04
CGA: 134    -0.676161987435E+03    0.51552E-05   -0.22914E-04  8424   0.623E-04 0.663E-04
CGA: 135    -0.676162001920E+03   -0.14485E-04   -0.19366E-04  8424   0.651E-04 0.173E-04
CGA: 136    -0.676161992800E+03    0.91204E-05   -0.16694E-04  8424   0.423E-04 0.676E-04
   2 F= -.67616199E+03 E0= -.67616199E+03  d E =-.116948E+02  mag=     1.0000
       N       E                     dE             d eps       ncg     rms          ort
SDA:   1    -0.676161997123E+03    0.47970E-05    0.00000E+00  8424   0.480E-04 0.000E+00
CGA:   2    -0.676161998294E+03   -0.11708E-05   -0.83419E-05  8424   0.331E-04 0.193E-04
CGA:   3    -0.676162019595E+03   -0.21301E-04   -0.22217E-04  8424   0.516E-04 0.188E-04
CGA:   4    -0.676162046709E+03   -0.27114E-04   -0.28596E-04  8424   0.225E-03-0.497E-04
CGA:   5    -0.676162072504E+03   -0.25795E-04   -0.28673E-04  8424   0.436E-04 0.714E-05
CGA:   6    -0.676162084976E+03   -0.12471E-04   -0.12202E-04  8424   0.443E-04-0.129E-05
CGA:   7    -0.676162147908E+03   -0.62932E-04    0.22015E-04  8424   0.685E-04 0.260E-04
CGA:   8    -0.676162179230E+03   -0.31323E-04   -0.27995E-04  8424   0.105E-03-0.394E-04
CGA:   9    -0.676162208382E+03   -0.29152E-04   -0.22321E-04  8424   0.453E-04-0.248E-04
CGA:  10    -0.676162250898E+03   -0.42516E-04    0.28391E-04  8424   0.429E-04 0.107E-04
CGA:  11    -0.676162345142E+03   -0.94243E-04    0.14543E-04  8424   0.395E-04 0.284E-04
CGA:  12    -0.676162362157E+03   -0.17015E-04   -0.25325E-04  8424   0.205E-03-0.506E-04
CGA:  13    -0.676162424389E+03   -0.62232E-04   -0.46103E-04  8424   0.655E-04-0.624E-04
CGA:  14    -0.676162440253E+03   -0.15864E-04   -0.14556E-04  8424   0.664E-04-0.876E-05
CGA:  15    -0.676162545916E+03   -0.10566E-03    0.13602E-04  8424   0.325E-04 0.212E-04
CGA:  16    -0.676162634935E+03   -0.89019E-04    0.80064E-05  8424   0.283E-04 0.226E-04
CGA:  17    -0.676162341431E+03    0.29350E-03   -0.64640E-04  8424   0.339E-02-0.198E-03
CGA:  18    -0.676162832380E+03   -0.49095E-03   -0.44353E-03  8424   0.150E-03-0.118E-03
CGA:  19    -0.676162860827E+03   -0.28447E-04   -0.29430E-04  8424   0.224E-04 0.293E-05
CGA:  20    -0.676162924884E+03   -0.64056E-04    0.34384E-05  8424   0.641E-04-0.664E-05
CGA:  21    -0.676163097341E+03   -0.17246E-03    0.43078E-05  8424   0.122E-03 0.147E-04
CGA:  22    -0.676163454116E+03   -0.35678E-03    0.30045E-04  8424   0.363E-03 0.158E-05
CGA:  23    -0.676164685624E+03   -0.12315E-02    0.42410E-04  8424   0.521E-03-0.670E-04
CGA:  24    -0.676166450000E+03   -0.17644E-02    0.36382E-04  8424   0.141E-02-0.466E-03
CGA:  25    -0.676166594333E+03   -0.14433E-03   -0.19121E-03  8424   0.128E-03 0.124E-03
CGA:  26    -0.676166654938E+03   -0.60605E-04   -0.55890E-04  8424   0.711E-04-0.491E-04
CGA:  27    -0.676166074008E+03    0.58093E-03   -0.85388E-04  8424   0.468E-02-0.457E-03
CGA:  28    -0.676166760731E+03   -0.68672E-03   -0.72033E-03  8424   0.287E-03 0.818E-04
CGA:  29    -0.676166876956E+03   -0.11623E-03   -0.10750E-03  8424   0.102E-03-0.496E-04
CGA:  30    -0.676166905045E+03   -0.28089E-04   -0.60329E-04  8424   0.462E-03-0.183E-03
CGA:  31    -0.676166966683E+03   -0.61637E-04   -0.75459E-04  8424   0.534E-04 0.366E-04
CGA:  32    -0.676167027340E+03   -0.60658E-04    0.17850E-01  8424   0.938E-04-0.507E-04
CGA:  33    -0.676167041638E+03   -0.14298E-04   -0.16206E-04  8424   0.935E-05 0.543E-05
CGA:  34    -0.676167089797E+03   -0.48159E-04    0.66262E-06  8424   0.279E-04-0.949E-05
CGA:  35    -0.676167096928E+03   -0.71307E-05   -0.58129E-05  8424   0.742E-05-0.440E-05
   3 F= -.67616710E+03 E0= -.67616710E+03  d E =-.510413E-02  mag=     1.0000
       N       E                     dE             d eps       ncg     rms          ort
SDA:   1    -0.675929568962E+03    0.23752E+00    0.00000E+00  8424   0.725E+00 0.000E+00
CGA:   2    -0.676077088821E+03   -0.14752E+00   -0.14763E+00  8424   0.278E+00 0.168E-03
CGA:   3    -0.676135799512E+03   -0.58711E-01   -0.58679E-01  8424   0.947E-01-0.171E-03
CGA:   4    -0.676151984351E+03   -0.16185E-01   -0.16149E-01  8424   0.241E-01-0.144E-03
CGA:   5    -0.676156092639E+03   -0.41083E-02   -0.40970E-02  8424   0.449E-02-0.451E-04
CGA:   6    -0.676157032873E+03   -0.94023E-03   -0.93139E-03  8424   0.103E-02-0.398E-04
CGA:   7    -0.676157280004E+03   -0.24713E-03   -0.24143E-03  8424   0.328E-03-0.304E-04
CGA:   8    -0.676157371380E+03   -0.91376E-04   -0.86018E-04  8424   0.108E-03-0.368E-04
CGA:   9    -0.676157410572E+03   -0.39192E-04   -0.39022E-04  8424   0.906E-04-0.559E-04
CGA:  10    -0.676157429934E+03   -0.19361E-04   -0.18143E-04  8424   0.176E-04-0.588E-05
CGA:  11    -0.676157450538E+03   -0.20604E-04    0.57399E-05  8424   0.116E-04-0.508E-05
CGA:  12    -0.676157472164E+03   -0.21626E-04    0.71393E-06  8424   0.666E-05-0.110E-06
CGA:  13    -0.676157505981E+03   -0.33817E-04    0.24119E-06  8424   0.578E-05 0.120E-05
CGA:  14    -0.676157541035E+03   -0.35054E-04    0.24926E-06  8424   0.589E-05 0.141E-05
CGA:  15    -0.676157598190E+03   -0.57156E-04    0.16572E-06  8424   0.482E-05 0.314E-05
CGA:  16    -0.676157610357E+03   -0.12166E-04    0.44123E-06  8424   0.571E-05-0.743E-06
CGA:  17    -0.676157643671E+03   -0.33314E-04    0.12519E-06  8424   0.849E-05-0.188E-05
CGA:  18    -0.676157701437E+03   -0.57766E-04    0.96578E-07  8424   0.782E-05 0.190E-05
CGA:  19    -0.676157770221E+03   -0.68784E-04    0.23704E-06  8424   0.130E-04 0.253E-05
CGA:  20    -0.676157905430E+03   -0.13521E-03    0.38721E-06  8424   0.118E-04 0.202E-06
CGA:  21    -0.676158030824E+03   -0.12539E-03    0.19507E-06  8424   0.109E-04 0.584E-05
CGA:  22    -0.676158171444E+03   -0.14062E-03    0.32944E-06  8424   0.639E-05 0.806E-05
CGA:  23    -0.676158178496E+03   -0.70526E-05    0.32762E-05  8424   0.124E-04-0.366E-05
   4 F= -.67615818E+03 E0= -.67615818E+03  d E =0.891843E-02  mag=     1.0000
       N       E                     dE             d eps       ncg     rms          ort
SDA:   1    -0.675981508811E+03    0.17666E+00    0.00000E+00  8424   0.608E+00 0.000E+00
CGA:   2    -0.676097383924E+03   -0.11588E+00   -0.11598E+00  8424   0.223E+00 0.328E-03
CGA:   3    -0.676146286787E+03   -0.48903E-01   -0.48891E-01  8424   0.810E-01-0.124E-03
CGA:   4    -0.676159890793E+03   -0.13604E-01   -0.13602E-01  8424   0.201E-01-0.246E-04
CGA:   5    -0.676163345414E+03   -0.34546E-02   -0.34525E-02  8424   0.378E-02-0.142E-04
CGA:   6    -0.676164133513E+03   -0.78810E-03   -0.78101E-03  8424   0.862E-03-0.477E-04
CGA:   7    -0.676164326128E+03   -0.19262E-03   -0.19133E-03  8424   0.250E-03-0.103E-04
CGA:   8    -0.676164399606E+03   -0.73477E-04   -0.70874E-04  8424   0.913E-04-0.450E-04
CGA:   9    -0.676164426299E+03   -0.26694E-04   -0.32882E-04  8424   0.105E-03-0.636E-04
CGA:  10    -0.676164454304E+03   -0.28005E-04   -0.24137E-04  8424   0.350E-04-0.329E-04
CGA:  11    -0.676164472259E+03   -0.17955E-04    0.43679E-04  8424   0.124E-04-0.826E-05
CGA:  12    -0.676164496848E+03   -0.24589E-04    0.57720E-06  8424   0.758E-05-0.241E-05
CGA:  13    -0.676164515926E+03   -0.19078E-04    0.29112E-06  8424   0.775E-05-0.222E-05
CGA:  14    -0.676164556577E+03   -0.40651E-04    0.94747E-07  8424   0.426E-05 0.104E-05
CGA:  15    -0.676164590619E+03   -0.34041E-04    0.88167E-07  8424   0.285E-05 0.151E-05
CGA:  16    -0.676164623257E+03   -0.32638E-04    0.57440E-07  8424   0.380E-05 0.851E-06
CGA:  17    -0.676164683382E+03   -0.60125E-04    0.49897E-07  8424   0.325E-05 0.266E-05
CGA:  18    -0.676164695166E+03   -0.11784E-04    0.12813E-06  8424   0.223E-05 0.213E-07
CGA:  19    -0.676164716826E+03   -0.21660E-04    0.29133E-07  8424   0.246E-05 0.187E-06
CGA:  20    -0.676164751148E+03   -0.34323E-04    0.25460E-07  8424   0.195E-05 0.201E-05
CGA:  21    -0.676164763058E+03   -0.11910E-04    0.41667E-07  8424   0.171E-05 0.481E-06
CGA:  22    -0.676164786040E+03   -0.22982E-04    0.24686E-07  8424   0.134E-05 0.888E-06
CGA:  23    -0.676164797497E+03   -0.11457E-04    0.19652E-07  8424   0.133E-05 0.557E-06
CGA:  24    -0.676164821752E+03   -0.24256E-04    0.17996E-07  8424   0.115E-05 0.124E-05
CGA:  25    -0.676164833101E+03   -0.11348E-04    0.14611E-07  8424   0.102E-05 0.677E-06
CGA:  26    -0.676164845688E+03   -0.12587E-04    0.10077E-07  8424   0.146E-05 0.440E-06
CGA:  27    -0.676164874106E+03   -0.28418E-04    0.18819E-07  8424   0.951E-06 0.193E-05
CGA:  28    -0.676164885108E+03   -0.11002E-04    0.10149E-07  8424   0.103E-05 0.607E-06
CGA:  29    -0.676164897613E+03   -0.12506E-04    0.10376E-07  8424   0.136E-05 0.424E-06
CGA:  30    -0.676164924197E+03   -0.26583E-04    0.16880E-07  8424   0.104E-05 0.178E-05
CGA:  31    -0.676164935112E+03   -0.10916E-04    0.12303E-07  8424   0.103E-05 0.512E-06
CGA:  32    -0.676164958160E+03   -0.23048E-04    0.12544E-07  8424   0.104E-05 0.149E-05
CGA:  33    -0.676164969666E+03   -0.11506E-04    0.11663E-07  8424   0.895E-06 0.568E-06
CGA:  34    -0.676164980959E+03   -0.11293E-04    0.87137E-08  8424   0.818E-06 0.664E-06
CGA:  35    -0.676164992253E+03   -0.11293E-04    0.72458E-08  8424   0.780E-06 0.711E-06
CGA:  36    -0.676165003498E+03   -0.11245E-04    0.66048E-08  8424   0.764E-06 0.730E-06
CGA:  37    -0.676165014729E+03   -0.11231E-04    0.63405E-08  8424   0.760E-06 0.734E-06
CGA:  38    -0.676165025911E+03   -0.11183E-04    0.63002E-08  8424   0.765E-06 0.728E-06
CGA:  39    -0.676165037133E+03   -0.11222E-04    0.63641E-08  8424   0.788E-06 0.711E-06
CGA:  40    -0.676165048161E+03   -0.11027E-04    0.68751E-08  8424   0.856E-06 0.666E-06
CGA:  41    -0.676165059467E+03   -0.11307E-04    0.79405E-08  8424   0.106E-05 0.543E-06
CGA:  42    -0.676165070058E+03   -0.10590E-04    0.13187E-07  8424   0.167E-05 0.186E-06
CGA:  43    -0.676165098829E+03   -0.28771E-04    0.16434E-07  8424   0.131E-05 0.193E-05
CGA:  44    -0.676165110162E+03   -0.11334E-04    0.19032E-07  8424   0.238E-05-0.251E-06
CGA:  45    -0.676165140968E+03   -0.30806E-04    0.14585E-07  8424   0.308E-05 0.184E-05
CGA:  46    -0.676165150348E+03   -0.93801E-05    0.15140E-06  8424   0.714E-05-0.315E-05
   5 F= -.67616515E+03 E0= -.67616515E+03  d E =-.697185E-02  mag=     1.0000
       N       E                     dE             d eps       ncg     rms          ort
SDA:   1    -0.676162495146E+03    0.26458E-02    0.00000E+00  8424   0.956E-02 0.000E+00
CGA:   2    -0.676164508453E+03   -0.20133E-02   -0.20116E-02  8424   0.397E-02-0.144E-04
CGA:   3    -0.676165354388E+03   -0.84593E-03   -0.84405E-03  8424   0.124E-02-0.165E-04
CGA:   4    -0.676165563314E+03   -0.20893E-03   -0.20573E-03  8424   0.313E-03-0.199E-04
CGA:   5    -0.676165624427E+03   -0.61114E-04   -0.57554E-04  8424   0.718E-04-0.268E-04
CGA:   6    -0.676165644913E+03   -0.20486E-04   -0.20336E-04  8424   0.552E-04-0.387E-04
CGA:   7    -0.676165658859E+03   -0.13946E-04   -0.11103E-04  8424   0.263E-04-0.253E-04
CGA:   8    -0.676165678977E+03   -0.20117E-04    0.16866E-05  8424   0.113E-04-0.625E-05
CGA:   9    -0.676165698638E+03   -0.19661E-04    0.48525E-06  8424   0.552E-05-0.198E-05
CGA:  10    -0.676165720870E+03   -0.22233E-04    0.10073E-06  8424   0.262E-05 0.238E-06
CGA:  11    -0.676165742840E+03   -0.21970E-04    0.34735E-07  8424   0.194E-05 0.731E-06
CGA:  12    -0.676165770273E+03   -0.27432E-04    0.22540E-07  8424   0.155E-05 0.162E-05
CGA:  13    -0.676165782244E+03   -0.11971E-04    0.20750E-07  8424   0.113E-05 0.454E-06
CGA:  14    -0.676165801550E+03   -0.19306E-04    0.10889E-07  8424   0.112E-05 0.121E-05
CGA:  15    -0.676165812843E+03   -0.11293E-04    0.11200E-07  8424   0.835E-06 0.716E-06
CGA:  16    -0.676165824238E+03   -0.11395E-04    0.60680E-08  8424   0.804E-06 0.764E-06
CGA:  17    -0.676165835294E+03   -0.11056E-04    0.58001E-08  8424   0.798E-06 0.771E-06
CGA:  18    -0.676165846713E+03   -0.11419E-04    0.55209E-08  8424   0.803E-06 0.765E-06
CGA:  19    -0.676165857528E+03   -0.10815E-04    0.59203E-08  8424   0.820E-06 0.749E-06
CGA:  20    -0.676165869074E+03   -0.11546E-04    0.57614E-08  8424   0.855E-06 0.718E-06
CGA:  21    -0.676165879545E+03   -0.10471E-04    0.69555E-08  8424   0.925E-06 0.663E-06
CGA:  22    -0.676165891299E+03   -0.11754E-04    0.72488E-08  8424   0.107E-05 0.557E-06
CGA:  23    -0.676165901371E+03   -0.10072E-04    0.11455E-07  8424   0.137E-05 0.347E-06
CGA:  24    -0.676165926352E+03   -0.24980E-04    0.13011E-07  8424   0.112E-05 0.177E-05
CGA:  25    -0.676165938482E+03   -0.12130E-04    0.10307E-07  8424   0.135E-05 0.300E-06
CGA:  26    -0.676165962746E+03   -0.24264E-04    0.11981E-07  8424   0.120E-05 0.168E-05
CGA:  27    -0.676165971828E+03   -0.90819E-05    0.16244E-07  8424   0.134E-05 0.236E-06
   6 F= -.67616597E+03 E0= -.67616597E+03  d E =-.821480E-03  mag=     1.0000
       N       E                     dE             d eps       ncg     rms          ort
SDA:   1    -0.676155614619E+03    0.10348E-01    0.00000E+00  8424   0.289E-01 0.000E+00
CGA:   2    -0.676162196798E+03   -0.65822E-02   -0.65751E-02  8424   0.128E-01-0.919E-04
CGA:   3    -0.676164770692E+03   -0.25739E-02   -0.25728E-02  8424   0.372E-02-0.136E-04
CGA:   4    -0.676165395230E+03   -0.62454E-03   -0.62252E-03  8424   0.919E-03-0.160E-04
CGA:   5    -0.676165555761E+03   -0.16053E-03   -0.15890E-03  8424   0.183E-03-0.140E-04
CGA:   6    -0.676165599571E+03   -0.43810E-04   -0.42474E-04  8424   0.562E-04-0.266E-04
CGA:   7    -0.676165132935E+03    0.46664E-03   -0.25236E-03  8424   0.350E-02-0.364E-03
CGA:   8    -0.676165625155E+03   -0.49222E-03   -0.49142E-03  8424   0.334E-03-0.255E-05
CGA:   9    -0.676165728964E+03   -0.10381E-03   -0.94932E-04  8424   0.101E-03-0.415E-04
CGA:  10    -0.676165767155E+03   -0.38190E-04   -0.33193E-04  8424   0.626E-04-0.441E-04
CGA:  11    -0.676165813303E+03   -0.46149E-04    0.24144E-04  8424   0.658E-04-0.380E-04
CGA:  12    -0.676165826157E+03   -0.12854E-04   -0.13010E-04  8424   0.147E-04 0.545E-06
CGA:  13    -0.676165858831E+03   -0.32673E-04    0.25607E-05  8424   0.264E-04-0.111E-04
CGA:  14    -0.676165860570E+03   -0.17392E-05   -0.30476E-05  8424   0.295E-05 0.372E-05
   7 F= -.67616586E+03 E0= -.67616586E+03  d E =0.111258E-03  mag=     1.0000
       N       E                     dE             d eps       ncg     rms          ort
SDA:   1    -0.676162154755E+03    0.37041E-02    0.00000E+00  8424   0.571E-02 0.000E+00
CGA:   2    -0.676163545224E+03   -0.13905E-02   -0.13944E-02  8424   0.249E-02 0.187E-04
CGA:   3    -0.676164064229E+03   -0.51901E-03   -0.50633E-03  8424   0.747E-03-0.536E-04
CGA:   4    -0.676164186923E+03   -0.12269E-03   -0.12182E-03  8424   0.173E-03-0.346E-05
CGA:   5    -0.676164221310E+03   -0.34388E-04   -0.31339E-04  8424   0.410E-04-0.131E-04
CGA:   6    -0.676164211079E+03    0.10231E-04   -0.29030E-04  8424   0.414E-03-0.108E-03
CGA:   7    -0.676164265428E+03   -0.54349E-04   -0.54854E-04  8424   0.424E-04 0.166E-05
CGA:   8    -0.676164103091E+03    0.16234E-03   -0.58923E-04  8424   0.145E-02-0.227E-03
CGA:   9    -0.676164317066E+03   -0.21398E-03   -0.22262E-03  8424   0.163E-03 0.283E-04
CGA:  10    -0.676164366182E+03   -0.49116E-04   -0.44412E-04  8424   0.252E-04-0.271E-04
CGA:  11    -0.676164302321E+03    0.63861E-04   -0.28596E-04  8424   0.613E-03-0.996E-04
CGA:  12    -0.676164441307E+03   -0.13899E-03   -0.11599E-03  8424   0.772E-04-0.797E-04
CGA:  13    -0.676164448630E+03   -0.73236E-05   -0.10359E-04  8424   0.109E-04 0.983E-05
   8 F= -.67616445E+03 E0= -.67616445E+03  d E =0.141194E-02  mag=     1.0000
       N       E                     dE             d eps       ncg     rms          ort
SDA:   1    -0.676153102527E+03    0.11339E-01    0.00000E+00  8424   0.177E-01 0.000E+00
CGA:   2    -0.676158079093E+03   -0.49766E-02   -0.49921E-02  8424   0.909E-02 0.905E-04
CGA:   3    -0.676159713831E+03   -0.16347E-02   -0.16074E-02  8424   0.223E-02-0.104E-03
CGA:   4    -0.676160057683E+03   -0.34385E-03   -0.34535E-03  8424   0.542E-03 0.509E-05
CGA:   5    -0.676160148465E+03   -0.90782E-04   -0.91716E-04  8424   0.108E-03 0.371E-05
CGA:   6    -0.676160186399E+03   -0.37934E-04   -0.33078E-04  8424   0.738E-04-0.495E-04
CGA:   7    -0.676160202446E+03   -0.16047E-04   -0.13335E-04  8424   0.674E-04-0.423E-04
CGA:   8    -0.676160228055E+03   -0.25608E-04   -0.28787E-04  8424   0.221E-03-0.930E-04
CGA:   9    -0.676160246390E+03   -0.18335E-04   -0.24337E-04  8424   0.750E-05 0.211E-04
CGA:  10    -0.676160262313E+03   -0.15923E-04    0.10116E-05  8424   0.137E-04-0.749E-05
CGA:  11    -0.676160277675E+03   -0.15362E-04    0.55018E-05  8424   0.256E-04-0.165E-04
CGA:  12    -0.676160287322E+03   -0.96474E-05   -0.99907E-05  8424   0.500E-04-0.343E-04
CGA:  13    -0.676160306248E+03   -0.18926E-04   -0.16534E-04  8424   0.490E-04-0.477E-04
CGA:  14    -0.676160316158E+03   -0.99095E-05   -0.90337E-05  8424   0.351E-05-0.452E-05
   9 F= -.67616032E+03 E0= -.67616032E+03  d E =0.413247E-02  mag=     1.0000
       N       E                     dE             d eps       ncg     rms          ort
SDA:   1    -0.676151031321E+03    0.92749E-02    0.00000E+00  8424   0.134E-01 0.000E+00
CGA:   2    -0.676154268093E+03   -0.32368E-02   -0.32109E-02  8424   0.648E-02-0.204E-03
CGA:   3    -0.676155524375E+03   -0.12563E-02   -0.12596E-02  8424   0.172E-02 0.189E-04
CGA:   4    -0.676155823761E+03   -0.29939E-03   -0.29230E-03  8424   0.412E-03-0.386E-04
CGA:   5    -0.676155896579E+03   -0.72818E-04   -0.69525E-04  8424   0.922E-04-0.192E-04
CGA:   6    -0.676155918115E+03   -0.21536E-04   -0.20089E-04  8424   0.309E-04-0.135E-04
CGA:   7    -0.676155945327E+03   -0.27212E-04    0.78245E-05  8424   0.255E-04-0.145E-04
CGA:   8    -0.676155973466E+03   -0.28139E-04    0.10542E-05  8424   0.177E-04-0.902E-05
CGA:   9    -0.676156011577E+03   -0.38111E-04    0.46711E-06  8424   0.101E-04-0.152E-05
CGA:  10    -0.676156048023E+03   -0.36446E-04    0.30782E-06  8424   0.662E-05 0.405E-06
CGA:  11    -0.676156082919E+03   -0.34896E-04    0.17125E-06  8424   0.441E-05 0.781E-06
CGA:  12    -0.676156122077E+03   -0.39159E-04    0.74079E-07  8424   0.332E-05 0.164E-05
CGA:  13    -0.676156163041E+03   -0.40964E-04    0.59881E-07  8424   0.274E-05 0.213E-05
CGA:  14    -0.676156176077E+03   -0.13035E-04    0.73535E-07  8424   0.170E-05 0.566E-06
CGA:  15    -0.676156196802E+03   -0.20725E-04    0.23868E-07  8424   0.136E-05 0.130E-05
CGA:  16    -0.676156210342E+03   -0.13541E-04    0.16130E-07  8424   0.106E-05 0.861E-06
CGA:  17    -0.676156222641E+03   -0.12299E-04    0.10694E-07  8424   0.109E-05 0.857E-06
CGA:  18    -0.676156236290E+03   -0.13649E-04    0.99830E-08  8424   0.117E-05 0.790E-06
CGA:  19    -0.676156247730E+03   -0.11440E-04    0.14045E-07  8424   0.132E-05 0.665E-06
CGA:  20    -0.676156262389E+03   -0.14659E-04    0.13876E-07  8424   0.158E-05 0.460E-06
CGA:  21    -0.676156289782E+03   -0.27393E-04    0.19028E-07  8424   0.136E-05 0.209E-05
CGA:  22    -0.676156300802E+03   -0.11020E-04    0.20034E-07  8424   0.154E-05 0.420E-06
CGA:  23    -0.676156328121E+03   -0.27319E-04    0.17228E-07  8424   0.141E-05 0.200E-05
CGA:  24    -0.676156341799E+03   -0.13678E-04    0.17108E-07  8424   0.151E-05 0.383E-06
CGA:  25    -0.676156367301E+03   -0.25502E-04    0.16589E-07  8424   0.144E-05 0.190E-05
CGA:  26    -0.676156378749E+03   -0.11448E-04    0.21752E-07  8424   0.145E-05 0.370E-06
CGA:  27    -0.676156403662E+03   -0.24913E-04    0.15309E-07  8424   0.143E-05 0.180E-05
CGA:  28    -0.676156416506E+03   -0.12845E-04    0.18957E-07  8424   0.136E-05 0.398E-06
CGA:  29    -0.676156440126E+03   -0.23620E-04    0.14719E-07  8424   0.138E-05 0.172E-05
CGA:  30    -0.676156451875E+03   -0.11749E-04    0.19362E-07  8424   0.126E-05 0.456E-06
CGA:  31    -0.676156475031E+03   -0.23156E-04    0.13899E-07  8424   0.131E-05 0.165E-05
CGA:  32    -0.676156487203E+03   -0.12172E-04    0.16721E-07  8424   0.117E-05 0.519E-06
CGA:  33    -0.676156509645E+03   -0.22442E-04    0.13567E-07  8424   0.125E-05 0.160E-05
CGA:  34    -0.676156521489E+03   -0.11844E-04    0.15446E-07  8424   0.110E-05 0.569E-06
CGA:  35    -0.676156543823E+03   -0.22333E-04    0.13119E-07  8424   0.119E-05 0.157E-05
CGA:  36    -0.676156555534E+03   -0.11712E-04    0.14255E-07  8424   0.105E-05 0.602E-06
CGA:  37    -0.676156567213E+03   -0.11678E-04    0.10969E-07  8424   0.981E-06 0.691E-06
CGA:  38    -0.676156579062E+03   -0.11849E-04    0.94172E-08  8424   0.944E-06 0.737E-06
CGA:  39    -0.676156590560E+03   -0.11498E-04    0.89687E-08  8424   0.921E-06 0.763E-06
CGA:  40    -0.676156602484E+03   -0.11924E-04    0.82175E-08  8424   0.909E-06 0.777E-06
CGA:  41    -0.676156613851E+03   -0.11367E-04    0.84019E-08  8424   0.903E-06 0.783E-06
CGA:  42    -0.676156625860E+03   -0.12009E-04    0.78181E-08  8424   0.901E-06 0.784E-06
CGA:  43    -0.676156637046E+03   -0.11186E-04    0.84038E-08  8424   0.905E-06 0.779E-06
CGA:  44    -0.676156649200E+03   -0.12154E-04    0.77622E-08  8424   0.914E-06 0.768E-06
CGA:  45    -0.676156660097E+03   -0.10897E-04    0.88879E-08  8424   0.930E-06 0.751E-06
CGA:  46    -0.676156672509E+03   -0.12412E-04    0.80332E-08  8424   0.957E-06 0.725E-06
CGA:  47    -0.676156682942E+03   -0.10433E-04    0.10242E-07  8424   0.100E-05 0.685E-06
CGA:  48    -0.676156695814E+03   -0.12872E-04    0.90014E-08  8424   0.108E-05 0.622E-06
CGA:  49    -0.676156705484E+03   -0.96697E-05    0.14154E-07  8424   0.120E-05 0.519E-06
  10 F= -.67615671E+03 E0= -.67615671E+03  d E =0.361067E-02  mag=     1.0000
       N       E                     dE             d eps       ncg     rms          ort
SDA:   1    -0.676147071865E+03    0.96239E-02    0.00000E+00  8424   0.128E-01 0.000E+00
CGA:   2    -0.676150838370E+03   -0.37665E-02   -0.37663E-02  8424   0.602E-02-0.869E-05
CGA:   3    -0.676151940785E+03   -0.11024E-02   -0.10849E-02  8424   0.145E-02-0.118E-03
CGA:   4    -0.676152186719E+03   -0.24593E-03   -0.24377E-03  8424   0.362E-03-0.147E-04
CGA:   5    -0.676152248831E+03   -0.62112E-04   -0.61060E-04  8424   0.742E-04-0.742E-05
CGA:   6    -0.676152271924E+03   -0.23093E-04   -0.27877E-04  8424   0.104E-03-0.623E-04
CGA:   7    -0.676152290049E+03   -0.18125E-04   -0.16224E-04  8424   0.167E-04-0.123E-04
CGA:   8    -0.676152307920E+03   -0.17870E-04    0.22298E-05  8424   0.113E-04-0.703E-05
CGA:   9    -0.676152329094E+03   -0.21174E-04    0.22927E-06  8424   0.505E-05-0.833E-06
CGA:  10    -0.676152348874E+03   -0.19780E-04    0.11840E-06  8424   0.238E-05 0.122E-05
CGA:  11    -0.676152370004E+03   -0.21130E-04    0.41459E-07  8424   0.193E-05 0.682E-06
CGA:  12    -0.676152397841E+03   -0.27837E-04    0.21616E-07  8424   0.179E-05 0.175E-05
CGA:  13    -0.676152409016E+03   -0.11175E-04    0.29018E-07  8424   0.109E-05 0.646E-06
CGA:  14    -0.676152427088E+03   -0.18072E-04    0.11843E-07  8424   0.108E-05 0.117E-05
CGA:  15    -0.676152437698E+03   -0.10610E-04    0.10665E-07  8424   0.867E-06 0.794E-06
CGA:  16    -0.676152448649E+03   -0.10951E-04    0.66202E-08  8424   0.850E-06 0.804E-06
CGA:  17    -0.676152459275E+03   -0.10626E-04    0.65607E-08  8424   0.867E-06 0.794E-06
CGA:  18    -0.676152470307E+03   -0.11032E-04    0.65633E-08  8424   0.934E-06 0.750E-06
CGA:  19    -0.676152480600E+03   -0.10293E-04    0.82453E-08  8424   0.115E-05 0.623E-06
CGA:  20    -0.676152491935E+03   -0.11335E-04    0.11331E-07  8424   0.180E-05 0.247E-06
CGA:  21    -0.676152519507E+03   -0.27572E-04    0.16725E-07  8424   0.134E-05 0.215E-05
CGA:  22    -0.676152528904E+03   -0.93971E-05    0.19217E-07  8424   0.242E-05-0.118E-06
  11 F= -.67615253E+03 E0= -.67615253E+03  d E =0.417658E-02  mag=     1.0000
       N       E                     dE             d eps       ncg     rms          ort
SDA:   1    -0.676138934299E+03    0.13585E-01    0.00000E+00  8424   0.254E-01 0.000E+00
CGA:   2    -0.676146061612E+03   -0.71273E-02   -0.71278E-02  8424   0.121E-01 0.179E-04
CGA:   3    -0.676148315575E+03   -0.22540E-02   -0.22339E-02  8424   0.292E-02-0.173E-03
CGA:   4    -0.676148809478E+03   -0.49390E-03   -0.48890E-03  8424   0.728E-03-0.402E-04
CGA:   5    -0.676148932499E+03   -0.12302E-03   -0.12188E-03  8424   0.146E-03-0.970E-05
CGA:   6    -0.676148971574E+03   -0.39075E-04   -0.38310E-04  8424   0.638E-04-0.416E-04
CGA:   7    -0.676148804741E+03    0.16683E-03   -0.55989E-04  8424   0.149E-02-0.236E-03
CGA:   8    -0.676149018880E+03   -0.21414E-03   -0.20855E-03  8424   0.143E-03-0.296E-04
CGA:   9    -0.676149060682E+03   -0.41802E-04   -0.41367E-04  8424   0.469E-04-0.179E-04
CGA:  10    -0.676148997631E+03    0.63052E-04   -0.43730E-04  8424   0.620E-03-0.143E-03
CGA:  11    -0.676149103874E+03   -0.10624E-03   -0.10487E-03  8424   0.533E-04-0.740E-05
CGA:  12    -0.676148619442E+03    0.48443E-03   -0.26129E-03  8424   0.240E-02-0.314E-03
CGA:  13    -0.676149093527E+03   -0.47408E-03   -0.48792E-03  8424   0.367E-03 0.315E-04
CGA:  14    -0.676149222069E+03   -0.12854E-03   -0.11289E-03  8424   0.132E-03-0.508E-04
CGA:  15    -0.676149232728E+03   -0.10659E-04   -0.16075E-04  8424   0.181E-04 0.120E-04
CGA:  16    -0.676149242257E+03   -0.95290E-05   -0.71417E-05  8424   0.249E-04-0.113E-04
CGA:  17    -0.676149259758E+03   -0.17500E-04   -0.12098E-04  8424   0.230E-03-0.695E-04
CGA:  18    -0.676149272004E+03   -0.12247E-04   -0.23093E-04  8424   0.386E-05 0.239E-04
CGA:  19    -0.676149159704E+03    0.11230E-03   -0.10022E-04  8424   0.129E-02-0.675E-04
CGA:  20    -0.676149350157E+03   -0.19045E-03   -0.15571E-03  8424   0.280E-04-0.707E-04
CGA:  21    -0.676149355882E+03   -0.57254E-05   -0.53650E-05  8424   0.532E-05-0.908E-06
  12 F= -.67614936E+03 E0= -.67614936E+03  d E =0.317302E-02  mag=     1.0000
       N       E                     dE             d eps       ncg     rms          ort
SDA:   1    -0.676143996618E+03    0.53535E-02    0.00000E+00  8424   0.219E-01 0.000E+00
CGA:   2    -0.676148970508E+03   -0.49739E-02   -0.49111E-02  8424   0.101E-01-0.183E-03
CGA:   3    -0.676150942745E+03   -0.19722E-02   -0.19919E-02  8424   0.272E-02 0.518E-04
CGA:   4    -0.676151433876E+03   -0.49113E-03   -0.47218E-03  8424   0.686E-03-0.513E-04
CGA:   5    -0.676151562726E+03   -0.12885E-03   -0.11797E-03  8424   0.150E-03-0.311E-04
CGA:   6    -0.676151591822E+03   -0.29096E-04   -0.27973E-04  8424   0.375E-04-0.362E-05
CGA:   7    -0.676151602100E+03   -0.10277E-04   -0.25420E-04  8424   0.236E-03-0.756E-04
CGA:   8    -0.676151630067E+03   -0.27967E-04   -0.32194E-04  8424   0.233E-04 0.115E-04
CGA:   9    -0.676151337710E+03    0.29236E-03   -0.53843E-04  8424   0.187E-02-0.201E-03
CGA:  10    -0.676151632558E+03   -0.29485E-03   -0.32036E-03  8424   0.293E-03 0.636E-04
CGA:  11    -0.676151720827E+03   -0.88269E-04   -0.70898E-04  8424   0.598E-04-0.547E-04
CGA:  12    -0.676151727596E+03   -0.67685E-05   -0.85310E-05  8424   0.108E-04 0.491E-05
  13 F= -.67615173E+03 E0= -.67615173E+03  d E =-.237171E-02  mag=     1.0000
       N       E                     dE             d eps       ncg     rms          ort
SDA:   1    -0.676152720502E+03   -0.99967E-03    0.00000E+00  8424   0.144E-01 0.000E+00
CGA:   2    -0.676156306788E+03   -0.35863E-02   -0.35925E-02  8424   0.654E-02 0.208E-04
CGA:   3    -0.676157575394E+03   -0.12686E-02   -0.12617E-02  8424   0.175E-02-0.231E-04
CGA:   4    -0.676157876131E+03   -0.30074E-03   -0.29532E-03  8424   0.472E-03-0.173E-04
CGA:   5    -0.676157966223E+03   -0.90092E-04   -0.81854E-04  8424   0.970E-04-0.278E-04
CGA:   6    -0.676157999343E+03   -0.33120E-04   -0.26349E-04  8424   0.593E-04-0.401E-04
CGA:   7    -0.676158015444E+03   -0.16100E-04   -0.13332E-04  8424   0.738E-04-0.419E-04
CGA:   8    -0.676158032953E+03   -0.17509E-04   -0.13566E-04  8424   0.219E-04-0.151E-04
CGA:   9    -0.676158048065E+03   -0.15112E-04    0.19515E-01  8424   0.229E-04-0.149E-04
CGA:  10    -0.676158051126E+03   -0.30619E-05   -0.13981E-04  8424   0.197E-03-0.616E-04
CGA:  11    -0.676158077716E+03   -0.26589E-04   -0.27529E-04  8424   0.428E-05 0.307E-05
CGA:  12    -0.676158094667E+03   -0.16952E-04    0.25943E-06  8424   0.482E-05-0.232E-05
CGA:  13    -0.676158098977E+03   -0.43096E-05    0.21933E-04  8424   0.188E-04-0.697E-05
  14 F= -.67615810E+03 E0= -.67615810E+03  d E =-.637138E-02  mag=     1.0000
       N       E                     dE             d eps       ncg     rms          ort
SDA:   1    -0.676155205063E+03    0.28896E-02    0.00000E+00  8424   0.274E-01 0.000E+00
CGA:   2    -0.676161160667E+03   -0.59556E-02   -0.58339E-02  8424   0.130E-01-0.621E-03
CGA:   3    -0.676163456352E+03   -0.22957E-02   -0.23480E-02  8424   0.281E-02 0.226E-03
CGA:   4    -0.676164030016E+03   -0.57366E-03   -0.57408E-03  8424   0.667E-03 0.133E-05
CGA:   5    -0.676164164097E+03   -0.13408E-03   -0.12019E-03  8424   0.189E-03-0.650E-04
CGA:   6    -0.676164196281E+03   -0.32184E-04   -0.31103E-04  8424   0.403E-04-0.542E-05
CGA:   7    -0.676164211107E+03   -0.14827E-04   -0.15323E-04  8424   0.497E-04-0.273E-04
CGA:   8    -0.676164227621E+03   -0.16514E-04   -0.12687E-04  8424   0.347E-04-0.321E-04
CGA:   9    -0.676164233755E+03   -0.61340E-05   -0.52824E-05  8424   0.303E-05-0.395E-05
  15 F= -.67616423E+03 E0= -.67616423E+03  d E =-.613478E-02  mag=     1.0000
       N       E                     dE             d eps       ncg     rms          ort
SDA:   1    -0.676162672696E+03    0.15549E-02    0.00000E+00  8424   0.558E-02 0.000E+00
CGA:   2    -0.676163864334E+03   -0.11916E-02   -0.11956E-02  8424   0.236E-02 0.270E-04
CGA:   3    -0.676164380011E+03   -0.51568E-03   -0.50733E-03  8424   0.802E-03-0.618E-04
CGA:   4    -0.676164517581E+03   -0.13757E-03   -0.13158E-03  8424   0.204E-03-0.344E-04
CGA:   5    -0.676164559150E+03   -0.41569E-04   -0.36874E-04  8424   0.518E-04-0.323E-04
CGA:   6    -0.676164553197E+03    0.59530E-05   -0.28157E-04  8424   0.351E-03-0.107E-03
CGA:   7    -0.676164596575E+03   -0.43378E-04   -0.44408E-04  8424   0.331E-04 0.469E-05
CGA:   8    -0.676164606845E+03   -0.10270E-04   -0.16080E-04  8424   0.712E-04-0.397E-04
CGA:   9    -0.676164623436E+03   -0.16591E-04   -0.14126E-04  8424   0.150E-04-0.174E-04
CGA:  10    -0.676164637370E+03   -0.13934E-04    0.22262E-05  8424   0.990E-05-0.791E-05
CGA:  11    -0.676164645993E+03   -0.86233E-05    0.53306E-05  8424   0.129E-04-0.920E-05
  16 F= -.67616465E+03 E0= -.67616465E+03  d E =-.412238E-03  mag=     1.0000
       N       E                     dE             d eps       ncg     rms          ort
SDA:   1    -0.676158807948E+03    0.58294E-02    0.00000E+00  8424   0.165E-01 0.000E+00
CGA:   2    -0.676163544087E+03   -0.47361E-02   -0.47386E-02  8424   0.768E-02 0.517E-04
CGA:   3    -0.676164965408E+03   -0.14213E-02   -0.13959E-02  8424   0.219E-02-0.171E-03
CGA:   4    -0.676165319633E+03   -0.35422E-03   -0.34208E-03  8424   0.573E-03-0.746E-04
CGA:   5    -0.676165418178E+03   -0.98545E-04   -0.94968E-04  8424   0.112E-03-0.251E-04
CGA:   6    -0.676165450317E+03   -0.32140E-04   -0.31542E-04  8424   0.709E-04-0.487E-04
CGA:   7    -0.676165445035E+03    0.52828E-05   -0.24017E-04  8424   0.282E-03-0.998E-04
CGA:   8    -0.676165493115E+03   -0.48080E-04   -0.43640E-04  8424   0.443E-04-0.266E-04
CGA:   9    -0.676165506438E+03   -0.13323E-04   -0.19985E-04  8424   0.641E-04-0.362E-04
CGA:  10    -0.676165523498E+03   -0.17061E-04   -0.14267E-04  8424   0.241E-04-0.279E-04
CGA:  11    -0.676165535757E+03   -0.12258E-04    0.50963E-05  8424   0.535E-05-0.392E-05
CGA:  12    -0.676165552531E+03   -0.16774E-04    0.14538E-06  8424   0.233E-05 0.230E-06
CGA:  13    -0.676165566131E+03   -0.13600E-04    0.49265E-07  8424   0.204E-05 0.193E-06
CGA:  14    -0.676165591062E+03   -0.24931E-04    0.21041E-07  8424   0.165E-05 0.141E-05
CGA:  15    -0.676165601336E+03   -0.10274E-04    0.29791E-07  8424   0.982E-06 0.487E-06
CGA:  16    -0.676165617122E+03   -0.15786E-04    0.10895E-07  8424   0.990E-06 0.104E-05
CGA:  17    -0.676165627488E+03   -0.10365E-04    0.10150E-07  8424   0.794E-06 0.675E-06
CGA:  18    -0.676165637365E+03   -0.98776E-05    0.67783E-08  8424   0.802E-06 0.689E-06
  17 F= -.67616564E+03 E0= -.67616564E+03  d E =-.991373E-03  mag=     1.0000
       N       E                     dE             d eps       ncg     rms          ort
SDA:   1    -0.676162934262E+03    0.26932E-02    0.00000E+00  8424   0.201E-01 0.000E+00
CGA:   2    -0.676168151553E+03   -0.52173E-02   -0.52180E-02  8424   0.965E-02 0.916E-05
CGA:   3    -0.676170025218E+03   -0.18737E-02   -0.18692E-02  8424   0.242E-02-0.380E-04
CGA:   4    -0.676170436807E+03   -0.41159E-03   -0.40256E-03  8424   0.623E-03-0.642E-04
CGA:   5    -0.676170551618E+03   -0.11481E-03   -0.10928E-03  8424   0.136E-03-0.457E-04
CGA:   6    -0.676170583646E+03   -0.32028E-04   -0.30627E-04  8424   0.499E-04-0.271E-04
CGA:   7    -0.676170575127E+03    0.85192E-05   -0.26703E-04  8424   0.309E-03-0.937E-04
CGA:   8    -0.676170619658E+03   -0.44531E-04   -0.42796E-04  8424   0.284E-04-0.101E-04
CGA:   9    -0.676170508845E+03    0.11081E-03   -0.40089E-04  8424   0.830E-03-0.131E-03
CGA:  10    -0.676170649674E+03   -0.14083E-03   -0.13786E-03  8424   0.973E-04-0.154E-04
CGA:  11    -0.676170679105E+03   -0.29431E-04   -0.28442E-04  8424   0.165E-04-0.187E-04
CGA:  12    -0.676170697147E+03   -0.18042E-04    0.24713E-05  8424   0.442E-05-0.256E-05
CGA:  13    -0.676170708819E+03   -0.11672E-04    0.18713E-06  8424   0.297E-05-0.353E-06
CGA:  14    -0.676170730158E+03   -0.21339E-04    0.46522E-07  8424   0.261E-05 0.166E-06
CGA:  15    -0.676170754416E+03   -0.24258E-04    0.41394E-07  8424   0.193E-05 0.115E-05
CGA:  16    -0.676170784140E+03   -0.29723E-04    0.33796E-07  8424   0.143E-05 0.209E-05
CGA:  17    -0.676170795539E+03   -0.11400E-04    0.23785E-07  8424   0.176E-05 0.165E-06
CGA:  18    -0.676170815856E+03   -0.20317E-04    0.24675E-07  8424   0.151E-05 0.941E-06
CGA:  19    -0.676170827033E+03   -0.11177E-04    0.27292E-07  8424   0.103E-05 0.382E-06
CGA:  20    -0.676170841482E+03   -0.14449E-04    0.14982E-07  8424   0.126E-05 0.839E-06
CGA:  21    -0.676170853668E+03   -0.12185E-04    0.17142E-07  8424   0.155E-05 0.200E-06
CGA:  22    -0.676170873376E+03   -0.19708E-04    0.21104E-07  8424   0.146E-05 0.949E-06
CGA:  23    -0.676170883788E+03   -0.10412E-04    0.27538E-07  8424   0.954E-06 0.402E-06
CGA:  24    -0.676170898114E+03   -0.14326E-04    0.13322E-07  8424   0.124E-05 0.777E-06
CGA:  25    -0.676170909836E+03   -0.11722E-04    0.17296E-07  8424   0.158E-05 0.172E-06
CGA:  26    -0.676170929926E+03   -0.20090E-04    0.20727E-07  8424   0.145E-05 0.930E-06
CGA:  27    -0.676170940085E+03   -0.10159E-04    0.28096E-07  8424   0.849E-06 0.411E-06
CGA:  28    -0.676170953584E+03   -0.13499E-04    0.11293E-07  8424   0.110E-05 0.805E-06
CGA:  29    -0.676170965022E+03   -0.11438E-04    0.13719E-07  8424   0.123E-05 0.316E-06
CGA:  30    -0.676170983506E+03   -0.18484E-04    0.17675E-07  8424   0.124E-05 0.957E-06
CGA:  31    -0.676170993778E+03   -0.10272E-04    0.19857E-07  8424   0.996E-06 0.363E-06
CGA:  32    -0.676171008756E+03   -0.14979E-04    0.14293E-07  8424   0.129E-05 0.766E-06
CGA:  33    -0.676171020370E+03   -0.11613E-04    0.18743E-07  8424   0.155E-05 0.104E-06
CGA:  34    -0.676171039200E+03   -0.18830E-04    0.19341E-07  8424   0.159E-05 0.744E-06
CGA:  35    -0.676171068629E+03   -0.29430E-04    0.24212E-07  8424   0.142E-05 0.210E-05
CGA:  36    -0.676171080419E+03   -0.11790E-04    0.22727E-07  8424   0.278E-05-0.444E-06
CGA:  37    -0.676171106078E+03   -0.25659E-04    0.18219E-07  8424   0.352E-05 0.771E-06
CGA:  38    -0.676171143102E+03   -0.37023E-04    0.72422E-07  8424   0.993E-05-0.568E-06
CGA:  39    -0.676171269999E+03   -0.12690E-03    0.69503E-07  8424   0.280E-04 0.375E-05
CGA:  40    -0.676171663956E+03   -0.39396E-03    0.49137E-06  8424   0.484E-04-0.720E-05
CGA:  41    -0.676172359522E+03   -0.69557E-03    0.23366E-06  8424   0.752E-04 0.260E-04
CGA:  42    -0.676172362036E+03   -0.25132E-05   -0.77699E-05  8424   0.119E-04 0.215E-04
  18 F= -.67617236E+03 E0= -.67617236E+03  d E =-.672467E-02  mag=     1.0000
       N       E                     dE             d eps       ncg     rms          ort
SDA:   1    -0.676154590688E+03    0.17769E-01    0.00000E+00  8424   0.802E-01 0.000E+00
CGA:   2    -0.676177011313E+03   -0.22421E-01   -0.22428E-01  8424   0.392E-01 0.146E-03
CGA:   3    -0.676184281968E+03   -0.72707E-02   -0.72720E-02  8424   0.931E-02 0.407E-05
CGA:   4    -0.676185824373E+03   -0.15424E-02   -0.15300E-02  8424   0.231E-02-0.831E-04
CGA:   5    -0.676186232266E+03   -0.40789E-03   -0.39741E-03  8424   0.485E-03-0.770E-04
CGA:   6    -0.676186337800E+03   -0.10553E-03   -0.10325E-03  8424   0.135E-03-0.274E-04
CGA:   7    -0.676186368142E+03   -0.30342E-04   -0.29560E-04  8424   0.448E-04-0.115E-04
CGA:   8    -0.676186374523E+03   -0.63809E-05   -0.25013E-04  8424   0.148E-03-0.593E-04
CGA:   9    -0.676186397761E+03   -0.23238E-04   -0.23128E-04  8424   0.166E-04-0.739E-06
CGA:  10    -0.676186412619E+03   -0.14858E-04    0.52779E-05  8424   0.567E-05-0.282E-05
CGA:  11    -0.676186420595E+03   -0.79758E-05    0.40208E-06  8424   0.230E-05-0.782E-07
  19 F= -.67618642E+03 E0= -.67618642E+03  d E =-.140586E-01  mag=     1.0000
       N       E                     dE             d eps       ncg     rms          ort
SDA:   1    -0.676172058712E+03    0.14354E-01    0.00000E+00  8424   0.744E-01 0.000E+00
CGA:   2    -0.676189242133E+03   -0.17183E-01   -0.17182E-01  8424   0.332E-01-0.342E-04
CGA:   3    -0.676195908673E+03   -0.66665E-02   -0.66829E-02  8424   0.929E-02 0.158E-03
CGA:   4    -0.676197493769E+03   -0.15851E-02   -0.15775E-02  8424   0.236E-02-0.618E-04
CGA:   5    -0.676197913257E+03   -0.41949E-03   -0.41009E-03  8424   0.462E-03-0.830E-04
CGA:   6    -0.676198009477E+03   -0.96219E-04   -0.94758E-04  8424   0.120E-03-0.206E-04
CGA:   7    -0.676198042092E+03   -0.32615E-04   -0.32810E-04  8424   0.585E-04-0.307E-04
CGA:   8    -0.676198054554E+03   -0.12462E-04   -0.18455E-04  8424   0.718E-04-0.418E-04
CGA:   9    -0.676198072506E+03   -0.17952E-04   -0.16209E-04  8424   0.311E-04-0.282E-04
CGA:  10    -0.676198087811E+03   -0.15305E-04    0.63766E-05  8424   0.675E-05-0.259E-05
CGA:  11    -0.676198098388E+03   -0.10577E-04    0.43937E-06  8424   0.302E-05-0.712E-06
CGA:  12    -0.676198108735E+03   -0.10347E-04    0.66816E-07  8424   0.165E-05 0.535E-06
CGA:  13    -0.676198122062E+03   -0.13327E-04    0.24978E-07  8424   0.130E-05 0.974E-06
CGA:  14    -0.676198129402E+03   -0.73399E-05    0.20734E-07  8424   0.785E-06 0.501E-06
  20 F= -.67619813E+03 E0= -.67619813E+03  d E =-.117088E-01  mag=     1.0000
       N       E                     dE             d eps       ncg     rms          ort
SDA:   1    -0.676170125060E+03    0.27997E-01    0.00000E+00  8424   0.488E-01 0.000E+00
CGA:   2    -0.676183127341E+03   -0.13002E-01   -0.13001E-01  8424   0.228E-01-0.962E-04
CGA:   3    -0.676187457127E+03   -0.43298E-02   -0.43219E-02  8424   0.576E-02-0.880E-04
CGA:   4    -0.676188398314E+03   -0.94119E-03   -0.94765E-03  8424   0.141E-02 0.559E-04
CGA:   5    -0.676188627089E+03   -0.22877E-03   -0.23350E-03  8424   0.259E-03 0.431E-04
CGA:   6    -0.676188688130E+03   -0.61041E-04   -0.60573E-04  8424   0.766E-04-0.116E-04
CGA:   7    -0.676188709595E+03   -0.21465E-04   -0.22725E-04  8424   0.489E-04-0.280E-04
CGA:   8    -0.676188415579E+03    0.29402E-03   -0.15934E-03  8424   0.184E-02-0.236E-03
CGA:   9    -0.676188695805E+03   -0.28023E-03   -0.28042E-03  8424   0.206E-03 0.319E-06
CGA:  10    -0.676188759785E+03   -0.63980E-04   -0.64370E-04  8424   0.582E-04 0.241E-05
CGA:  11    -0.676188786478E+03   -0.26694E-04   -0.26265E-04  8424   0.461E-04-0.237E-04
CGA:  12    -0.676188799179E+03   -0.12700E-04   -0.12366E-04  8424   0.356E-04-0.291E-04
CGA:  13    -0.676188815713E+03   -0.16535E-04   -0.17067E-04  8424   0.639E-04-0.309E-04
CGA:  14    -0.676188821794E+03   -0.60805E-05   -0.89767E-05  8424   0.344E-05 0.897E-05
  21 F= -.67618882E+03 E0= -.67618882E+03  d E =0.930761E-02  mag=     1.0000
       N       E                     dE             d eps       ncg     rms          ort
SDA:   1    -0.676178406089E+03    0.10410E-01    0.00000E+00  8424   0.136E-01 0.000E+00
CGA:   2    -0.676182079761E+03   -0.36737E-02   -0.36633E-02  8424   0.664E-02-0.611E-04
CGA:   3    -0.676183305614E+03   -0.12259E-02   -0.12184E-02  8424   0.167E-02-0.303E-04
CGA:   4    -0.676183578176E+03   -0.27256E-03   -0.27310E-03  8424   0.413E-03 0.175E-05
CGA:   5    -0.676183644219E+03   -0.66043E-04   -0.68260E-04  8424   0.792E-04 0.888E-05
CGA:   6    -0.676183663803E+03   -0.19584E-04   -0.18515E-04  8424   0.243E-04-0.627E-05
CGA:   7    -0.676183594387E+03    0.69416E-04   -0.28700E-04  8424   0.698E-03-0.110E-03
CGA:   8    -0.676183691089E+03   -0.96702E-04   -0.98353E-04  8424   0.675E-04 0.547E-05
CGA:   9    -0.676183716437E+03   -0.25348E-04   -0.23657E-04  8424   0.345E-04-0.230E-04
CGA:  10    -0.676183725896E+03   -0.94582E-05   -0.91158E-05  8424   0.300E-04-0.199E-04
CGA:  11    -0.676183731204E+03   -0.53080E-05   -0.18082E-04  8424   0.209E-03-0.685E-04
CGA:  12    -0.676183748758E+03   -0.17555E-04   -0.25695E-04  8424   0.867E-05 0.269E-04
CGA:  13    -0.676183458152E+03    0.29061E-03   -0.15986E-03  8424   0.189E-02-0.141E-03
CGA:  14    -0.676183787415E+03   -0.32926E-03   -0.33670E-03  8424   0.719E-04 0.120E-04
CGA:  15    -0.676183820505E+03   -0.33090E-04   -0.18279E-04  8424   0.440E-04-0.316E-04
CGA:  16    -0.676183823932E+03   -0.34268E-05   -0.40449E-05  8424   0.104E-04 0.117E-05
  22 F= -.67618382E+03 E0= -.67618382E+03  d E =0.499786E-02  mag=     1.0000
       N       E                     dE             d eps       ncg     rms          ort
SDA:   1    -0.676184856854E+03   -0.10363E-02    0.00000E+00  8424   0.839E-02 0.000E+00
CGA:   2    -0.676186614417E+03   -0.17576E-02   -0.17657E-02  8424   0.353E-02 0.178E-04
CGA:   3    -0.676187401918E+03   -0.78750E-03   -0.78837E-03  8424   0.109E-02 0.113E-05
CGA:   4    -0.676187582513E+03   -0.18059E-03   -0.17399E-03  8424   0.262E-03-0.151E-04
CGA:   5    -0.676187636717E+03   -0.54204E-04   -0.47534E-04  8424   0.574E-04-0.169E-04
CGA:   6    -0.676187651910E+03   -0.15193E-04   -0.12425E-04  8424   0.189E-04-0.845E-05
CGA:   7    -0.676187660016E+03   -0.81060E-05   -0.58859E-05  8424   0.208E-04-0.124E-04
  23 F= -.67618766E+03 E0= -.67618766E+03  d E =-.383608E-02  mag=     1.0000
       N       E                     dE             d eps       ncg     rms          ort
SDA:   1    -0.676187095035E+03    0.55687E-03    0.00000E+00  8424   0.189E-01 0.000E+00
CGA:   2    -0.676191697187E+03   -0.46022E-02   -0.46079E-02  8424   0.903E-02 0.184E-04
CGA:   3    -0.676193459474E+03   -0.17623E-02   -0.17666E-02  8424   0.242E-02 0.122E-04
CGA:   4    -0.676193863251E+03   -0.40378E-03   -0.39712E-03  8424   0.604E-03-0.210E-04
CGA:   5    -0.676193979930E+03   -0.11668E-03   -0.10656E-03  8424   0.128E-03-0.345E-04
CGA:   6    -0.676194018110E+03   -0.38179E-04   -0.31521E-04  8424   0.557E-04-0.340E-04
CGA:   7    -0.676194031751E+03   -0.13641E-04   -0.10689E-04  8424   0.250E-04-0.159E-04
CGA:   8    -0.676194029692E+03    0.20591E-05   -0.14273E-04  8424   0.158E-03-0.456E-04
CGA:   9    -0.676194060613E+03   -0.30922E-04   -0.26741E-04  8424   0.211E-04-0.146E-04
CGA:  10    -0.676193584880E+03    0.47573E-03   -0.26001E-03  8424   0.318E-02-0.222E-03
CGA:  11    -0.676194072750E+03   -0.48787E-03   -0.50731E-03  8424   0.246E-03 0.289E-04
CGA:  12    -0.676194140169E+03   -0.67419E-04   -0.68582E-04  8424   0.260E-04 0.229E-05
CGA:  13    -0.676194145966E+03   -0.57965E-05   -0.63977E-05  8424   0.108E-04 0.119E-05
  24 F= -.67619415E+03 E0= -.67619415E+03  d E =-.648595E-02  mag=     1.0000
       N       E                     dE             d eps       ncg     rms          ort
SDA:   1    -0.676189495003E+03    0.46452E-02    0.00000E+00  8424   0.138E-01 0.000E+00
CGA:   2    -0.676192632441E+03   -0.31374E-02   -0.30285E-02  8424   0.654E-02-0.235E-03
CGA:   3    -0.676193826364E+03   -0.11939E-02   -0.12188E-02  8424   0.161E-02 0.490E-04
CGA:   4    -0.676194127052E+03   -0.30069E-03   -0.29965E-03  8424   0.374E-03-0.245E-05
CGA:   5    -0.676194187991E+03   -0.60939E-04   -0.60306E-04  8424   0.868E-04-0.134E-05
CGA:   6    -0.676194200918E+03   -0.12927E-04   -0.15622E-04  8424   0.181E-04 0.605E-05
CGA:   7    -0.676194212864E+03   -0.11946E-04   -0.10694E-04  8424   0.575E-04-0.247E-04
CGA:   8    -0.676194222253E+03   -0.93893E-05   -0.89754E-05  8424   0.683E-05-0.949E-06
  25 F= -.67619422E+03 E0= -.67619422E+03  d E =-.762876E-04  mag=     1.0000
       N       E                     dE             d eps       ncg     rms          ort
SDA:   1    -0.676186828931E+03    0.73839E-02    0.00000E+00  8424   0.116E-01 0.000E+00
CGA:   2    -0.676190291241E+03   -0.34623E-02   -0.34284E-02  8424   0.603E-02-0.121E-03
CGA:   3    -0.676191291752E+03   -0.10005E-02   -0.10101E-02  8424   0.141E-02 0.230E-04
CGA:   4    -0.676191514245E+03   -0.22249E-03   -0.22374E-03  8424   0.344E-03 0.299E-05
CGA:   5    -0.676191572239E+03   -0.57994E-04   -0.57757E-04  8424   0.731E-04-0.715E-06
CGA:   6    -0.676191587869E+03   -0.15630E-04   -0.15254E-04  8424   0.193E-04-0.129E-05
CGA:   7    -0.676190967618E+03    0.62025E-03   -0.34087E-03  8424   0.413E-02-0.252E-03
CGA:   8    -0.676191529337E+03   -0.56172E-03   -0.59495E-03  8424   0.466E-03 0.422E-04
CGA:   9    -0.676191658897E+03   -0.12956E-03   -0.11906E-03  8424   0.114E-03-0.174E-04
CGA:  10    -0.676191685480E+03   -0.26583E-04   -0.27745E-04  8424   0.317E-04 0.202E-05
CGA:  11    -0.676191714056E+03   -0.28576E-04   -0.18147E-04  8424   0.117E-03-0.439E-04
CGA:  12    -0.676191717371E+03   -0.33151E-05   -0.13827E-04  8424   0.114E-04 0.158E-04
  26 F= -.67619172E+03 E0= -.67619172E+03  d E =0.250488E-02  mag=     1.0000
