       N       E                     dE             d eps       ncg     rms          rms(c)
DAV:   1     0.103773113124E+05    0.10377E+05   -0.37722E+05 32040   0.141E+03
DAV:   2     0.523934416252E+03   -0.98534E+04   -0.92989E+04 31400   0.452E+02
DAV:   3    -0.853586078503E+03   -0.13775E+04   -0.12747E+04 34740   0.173E+02
DAV:   4    -0.937816960436E+03   -0.84231E+02   -0.81911E+02 39230   0.447E+01
DAV:   5    -0.940360102020E+03   -0.25431E+01   -0.25351E+01 38380   0.840E+00    0.189E+02
DAV:   6    -0.424345197986E+03    0.51601E+03   -0.12077E+03 38830   0.767E+01    0.900E+01
DAV:   7    -0.653159958999E+03   -0.22881E+03   -0.38252E+02 39710   0.593E+01    0.755E+01
DAV:   8    -0.685794983480E+03   -0.32635E+02   -0.49659E+01 41210   0.186E+01    0.502E+01
DAV:   9    -0.737878824271E+03   -0.52084E+02   -0.45544E+01 39300   0.138E+01    0.298E+01
DAV:  10    -0.781453415269E+03   -0.43575E+02   -0.49133E+01 39610   0.150E+01    0.268E+01
DAV:  11    -0.792493521887E+03   -0.11040E+02   -0.21948E+01 41120   0.106E+01    0.139E+01
DAV:  12    -0.795434776575E+03   -0.29413E+01   -0.54842E+00 38970   0.588E+00    0.781E+00
DAV:  13    -0.796190987856E+03   -0.75621E+00   -0.12998E+00 36280   0.306E+00    0.406E+00
DAV:  14    -0.796489037014E+03   -0.29805E+00   -0.34510E-01 35770   0.166E+00    0.251E+00
DAV:  15    -0.796579222554E+03   -0.90186E-01   -0.13345E-01 36700   0.960E-01    0.130E+00
DAV:  16    -0.796596700518E+03   -0.17478E-01   -0.37303E-02 35550   0.592E-01    0.813E-01
DAV:  17    -0.796602528196E+03   -0.58277E-02   -0.10267E-02 36620   0.301E-01    0.532E-01
DAV:  18    -0.796606585999E+03   -0.40578E-02   -0.38158E-03 37450   0.188E-01    0.403E-01
DAV:  19    -0.796609912631E+03   -0.33266E-02   -0.25751E-03 38870   0.141E-01    0.317E-01
DAV:  20    -0.796612413612E+03   -0.25010E-02   -0.18229E-03 38250   0.111E-01    0.272E-01
DAV:  21    -0.796614681964E+03   -0.22684E-02   -0.15059E-03 39280   0.101E-01    0.238E-01
DAV:  22    -0.796616934749E+03   -0.22528E-02   -0.16978E-03 40280   0.110E-01    0.205E-01
DAV:  23    -0.796618952576E+03   -0.20178E-02   -0.22432E-03 40600   0.126E-01    0.168E-01
DAV:  24    -0.796620479865E+03   -0.15273E-02   -0.29507E-03 40590   0.145E-01    0.124E-01
DAV:  25    -0.796621447893E+03   -0.96803E-03   -0.27090E-03 38900   0.111E-01    0.897E-02
DAV:  26    -0.796621945818E+03   -0.49793E-03   -0.84042E-04 34370   0.530E-02    0.679E-02
DAV:  27    -0.796622058916E+03   -0.11310E-03   -0.64547E-05 27350   0.174E-02    0.574E-02
DAV:  28    -0.796622201662E+03   -0.14275E-03   -0.87752E-05 33510   0.357E-02    0.467E-02
DAV:  29    -0.796622320690E+03   -0.11903E-03   -0.37416E-04 38650   0.411E-02    0.411E-02
DAV:  30    -0.796622400252E+03   -0.79562E-04   -0.11923E-04 31880   0.217E-02    0.356E-02
DAV:  31    -0.796622447665E+03   -0.47413E-04   -0.42630E-05 30530   0.183E-02    0.306E-02
DAV:  32    -0.796622493173E+03   -0.45508E-04   -0.92869E-05 35690   0.256E-02    0.221E-02
DAV:  33    -0.796622526015E+03   -0.32842E-04   -0.10210E-04 34360   0.232E-02    0.200E-02
DAV:  34    -0.796622546492E+03   -0.20478E-04   -0.40719E-05 24500   0.117E-02    0.149E-02
DAV:  35    -0.796622549322E+03   -0.28301E-05   -0.28575E-06 17800   0.483E-03
   1 F= -.79662255E+03 E0= -.79662255E+03  d E =-.796623E+03  mag=    47.0001
       N       E                     dE             d eps       ncg     rms          rms(c)
DAV:   1    -0.796622544726E+03    0.17663E-05   -0.12176E-05 18810   0.142E-02    0.951E-03
DAV:   2    -0.796622546812E+03   -0.20854E-05   -0.62875E-06 17980   0.536E-03    0.876E-03
DAV:   3    -0.796622547642E+03   -0.83048E-06   -0.93761E-07 16520   0.270E-03    0.771E-03
DAV:   4    -0.796622549216E+03   -0.15742E-05   -0.67732E-07 16520   0.226E-03
   2 F= -.79662255E+03 E0= -.79662255E+03  d E =0.106200E-06  mag=    47.0000
       N       E                     dE             d eps       ncg     rms          rms(c)
DAV:   1    -0.796619301770E+03    0.32459E-02   -0.14023E-01 35780   0.127E+00    0.160E-01
DAV:   2    -0.796621153268E+03   -0.18515E-02   -0.19735E-02 33540   0.252E-01    0.105E-01
DAV:   3    -0.796621260140E+03   -0.10687E-03   -0.72153E-04 39240   0.629E-02    0.609E-02
DAV:   4    -0.796621249539E+03    0.10601E-04   -0.61484E-05 36690   0.226E-02    0.420E-02
DAV:   5    -0.796621247006E+03    0.25332E-05   -0.53514E-05 33190   0.186E-02
   3 F= -.79662125E+03 E0= -.79662125E+03  d E =0.130221E-02  mag=    47.0000
       N       E                     dE             d eps       ncg     rms          rms(c)
DAV:   1    -0.796616822424E+03    0.44271E-02   -0.11757E-01 35110   0.109E+00    0.132E-01
DAV:   2    -0.796618099455E+03   -0.12770E-02   -0.13534E-02 33490   0.216E-01    0.856E-02
DAV:   3    -0.796618170337E+03   -0.70882E-04   -0.45012E-04 39170   0.490E-02    0.490E-02
DAV:   4    -0.796618163461E+03    0.68760E-05   -0.33094E-05 28660   0.170E-02
   4 F= -.79661816E+03 E0= -.79661816E+03  d E =0.308355E-02  mag=    47.0000
       N       E                     dE             d eps       ncg     rms          rms(c)
DAV:   1    -0.796614624583E+03    0.35458E-02   -0.70916E-02 35320   0.801E-01    0.947E-02
DAV:   2    -0.796615309301E+03   -0.68472E-03   -0.70644E-03 33220   0.154E-01    0.608E-02
DAV:   3    -0.796615340304E+03   -0.31003E-04   -0.18727E-04 37780   0.338E-02    0.339E-02
DAV:   4    -0.796615338448E+03    0.18560E-05   -0.14392E-05 22300   0.125E-02
   5 F= -.79661534E+03 E0= -.79661534E+03  d E =0.282501E-02  mag=    47.0000
       N       E                     dE             d eps       ncg     rms          rms(c)
DAV:   1    -0.796611606012E+03    0.37343E-02   -0.60307E-02 34850   0.714E-01    0.833E-02
DAV:   2    -0.796612127773E+03   -0.52176E-03   -0.53349E-03 33220   0.136E-01    0.492E-02
DAV:   3    -0.796612154245E+03   -0.26472E-04   -0.12767E-04 37530   0.267E-02    0.288E-02
DAV:   4    -0.796612154418E+03   -0.17326E-06   -0.93140E-06 20020   0.958E-03
   6 F= -.79661215E+03 E0= -.79661215E+03  d E =0.318403E-02  mag=    47.0000
       N       E                     dE             d eps       ncg     rms          rms(c)
DAV:   1    -0.796607907133E+03    0.42471E-02   -0.62609E-02 34690   0.718E-01    0.801E-02
DAV:   2    -0.796608409061E+03   -0.50193E-03   -0.51064E-03 33230   0.134E-01    0.465E-02
DAV:   3    -0.796608431969E+03   -0.22908E-04   -0.10874E-04 36630   0.262E-02    0.283E-02
DAV:   4    -0.796608432340E+03   -0.37129E-06   -0.90396E-06 19980   0.106E-02
   7 F= -.79660843E+03 E0= -.79660843E+03  d E =0.372208E-02  mag=    47.0000
       N       E                     dE             d eps       ncg     rms          rms(c)
DAV:   1    -0.796603529646E+03    0.49023E-02   -0.78226E-02 34900   0.815E-01    0.932E-02
DAV:   2    -0.796604200960E+03   -0.67131E-03   -0.68333E-03 33220   0.154E-01    0.522E-02
DAV:   3    -0.796604234207E+03   -0.33246E-04   -0.15121E-04 37890   0.286E-02    0.315E-02
DAV:   4    -0.796604234888E+03   -0.68102E-06   -0.11491E-05 21010   0.109E-02
   8 F= -.79660423E+03 E0= -.79660423E+03  d E =0.419745E-02  mag=    47.0000
       N       E                     dE             d eps       ncg     rms          rms(c)
DAV:   1    -0.796599305829E+03    0.49284E-02   -0.99524E-02 35180   0.934E-01    0.105E-01
DAV:   2    -0.796600164865E+03   -0.85904E-03   -0.87284E-03 33230   0.176E-01    0.593E-02
DAV:   3    -0.796600204779E+03   -0.39913E-04   -0.17864E-04 37870   0.317E-02    0.353E-02
DAV:   4    -0.796600204907E+03   -0.12848E-06   -0.14413E-05 21630   0.126E-02
   9 F= -.79660020E+03 E0= -.79660020E+03  d E =0.402998E-02  mag=    47.0000
       N       E                     dE             d eps       ncg     rms          rms(c)
DAV:   1    -0.796597807132E+03    0.23976E-02   -0.10491E-01 35120   0.998E-01    0.121E-01
DAV:   2    -0.796598906006E+03   -0.10989E-02   -0.11285E-02 33310   0.196E-01    0.844E-02
DAV:   3    -0.796598960433E+03   -0.54426E-04   -0.32125E-04 37580   0.447E-02    0.450E-02
DAV:   4    -0.796598959070E+03    0.13623E-05   -0.24990E-05 26930   0.169E-02
  10 F= -.79659896E+03 E0= -.79659896E+03  d E =0.124584E-02  mag=    47.0000
       N       E                     dE             d eps       ncg     rms          rms(c)
DAV:   1    -0.796600901411E+03   -0.19410E-02   -0.86988E-02 34710   0.965E-01    0.122E-01
DAV:   2    -0.796602023212E+03   -0.11218E-02   -0.11657E-02 33340   0.193E-01    0.789E-02
DAV:   3    -0.796602081013E+03   -0.57801E-04   -0.33758E-04 38470   0.421E-02    0.442E-02
DAV:   4    -0.796602076870E+03    0.41428E-05   -0.26404E-05 26600   0.150E-02
  11 F= -.79660208E+03 E0= -.79660208E+03  d E =-.311780E-02  mag=    47.0000
       N       E                     dE             d eps       ncg     rms          rms(c)
DAV:   1    -0.796604813506E+03   -0.27325E-02   -0.22573E-02 33820   0.411E-01    0.496E-02
DAV:   2    -0.796604985783E+03   -0.17228E-03   -0.17730E-03 33410   0.811E-02    0.387E-02
DAV:   3    -0.796604993014E+03   -0.72315E-05   -0.47690E-05 29530   0.199E-02    0.202E-02
DAV:   4    -0.796604993591E+03   -0.57650E-06   -0.56086E-06 17880   0.828E-03
  12 F= -.79660499E+03 E0= -.79660499E+03  d E =-.291672E-02  mag=    47.0000
       N       E                     dE             d eps       ncg     rms          rms(c)
DAV:   1    -0.796611623605E+03   -0.66306E-02   -0.28022E-01 34010   0.160E+00    0.193E-01
DAV:   2    -0.796614516766E+03   -0.28932E-02   -0.30441E-02 33430   0.320E-01    0.133E-01
DAV:   3    -0.796614650827E+03   -0.13406E-03   -0.98638E-04 37620   0.782E-02    0.763E-02
DAV:   4    -0.796614635861E+03    0.14966E-04   -0.94201E-05 40170   0.298E-02    0.548E-02
DAV:   5    -0.796614632593E+03    0.32683E-05   -0.78177E-05 34970   0.229E-02
  13 F= -.79661463E+03 E0= -.79661463E+03  d E =-.963900E-02  mag=    47.0000
       N       E                     dE             d eps       ncg     rms          rms(c)
DAV:   1    -0.796617813366E+03   -0.31775E-02   -0.10858E-01 34850   0.115E+00    0.153E-01
DAV:   2    -0.796619468640E+03   -0.16553E-02   -0.17554E-02 33360   0.231E-01    0.981E-02
DAV:   3    -0.796619568769E+03   -0.10013E-03   -0.61992E-04 39110   0.558E-02    0.567E-02
DAV:   4    -0.796619563010E+03    0.57582E-05   -0.53116E-05 35600   0.205E-02
  14 F= -.79661956E+03 E0= -.79661956E+03  d E =-.493042E-02  mag=    47.0000
       N       E                     dE             d eps       ncg     rms          rms(c)
DAV:   1    -0.796621815125E+03   -0.22464E-02   -0.77372E-03 33770   0.249E-01    0.344E-02
DAV:   2    -0.796621879572E+03   -0.64447E-04   -0.66703E-04 33430   0.494E-02    0.236E-02
DAV:   3    -0.796621884208E+03   -0.46359E-05   -0.22690E-05 26900   0.128E-02    0.168E-02
DAV:   4    -0.796621885742E+03   -0.15342E-05   -0.35975E-06 16830   0.629E-03
  15 F= -.79662189E+03 E0= -.79662189E+03  d E =-.232273E-02  mag=    47.0000
       N       E                     dE             d eps       ncg     rms          rms(c)
DAV:   1    -0.796636813971E+03   -0.14930E-01   -0.65650E-01 33880   0.216E+00    0.244E-01
DAV:   2    -0.796641338485E+03   -0.45245E-02   -0.47223E-02 33430   0.412E-01    0.156E-01
DAV:   3    -0.796641528750E+03   -0.19026E-03   -0.12330E-03 38900   0.933E-02    0.892E-02
DAV:   4    -0.796641512514E+03    0.16236E-04   -0.11963E-04 41200   0.360E-02    0.628E-02
DAV:   5    -0.796641515969E+03   -0.34553E-05   -0.97743E-05 36670   0.270E-02
  16 F= -.79664152E+03 E0= -.79664152E+03  d E =-.196302E-01  mag=    47.0000
       N       E                     dE             d eps       ncg     rms          rms(c)
DAV:   1    -0.796648488664E+03   -0.69762E-02   -0.41524E-01 34210   0.219E+00    0.284E-01
DAV:   2    -0.796654065045E+03   -0.55764E-02   -0.58437E-02 33290   0.436E-01    0.178E-01
DAV:   3    -0.796654416830E+03   -0.35178E-03   -0.18840E-03 40160   0.101E-01    0.101E-01
DAV:   4    -0.796654410629E+03    0.62004E-05   -0.17135E-04 42750   0.384E-02    0.715E-02
DAV:   5    -0.796654428212E+03   -0.17582E-04   -0.11288E-04 38930   0.285E-02    0.336E-02
DAV:   6    -0.796654437457E+03   -0.92453E-05   -0.22745E-05 26470   0.168E-02
  17 F= -.79665444E+03 E0= -.79665444E+03  d E =-.129215E-01  mag=    47.0000
       N       E                     dE             d eps       ncg     rms          rms(c)
DAV:   1    -0.796653085094E+03    0.13431E-02   -0.32396E-02 35030   0.629E-01    0.845E-02
DAV:   2    -0.796653577414E+03   -0.49232E-03   -0.52795E-03 33620   0.128E-01    0.579E-02
DAV:   3    -0.796653607847E+03   -0.30433E-04   -0.20301E-04 37610   0.322E-02    0.344E-02
DAV:   4    -0.796653606183E+03    0.16636E-05   -0.15963E-05 23150   0.123E-02
  18 F= -.79665361E+03 E0= -.79665361E+03  d E =0.831274E-03  mag=    47.0000
       N       E                     dE             d eps       ncg     rms          rms(c)
DAV:   1    -0.796655925203E+03   -0.23174E-02   -0.21220E-02 34130   0.393E-01    0.463E-02
DAV:   2    -0.796656074840E+03   -0.14964E-03   -0.15985E-03 33520   0.763E-02    0.321E-02
DAV:   3    -0.796656083053E+03   -0.82130E-05   -0.55523E-05 32770   0.179E-02    0.219E-02
DAV:   4    -0.796656083257E+03   -0.20464E-06   -0.51284E-06 17750   0.789E-03
  19 F= -.79665608E+03 E0= -.79665608E+03  d E =-.247707E-02  mag=    47.0000
       N       E                     dE             d eps       ncg     rms          rms(c)
DAV:   1    -0.796663783526E+03   -0.77005E-02   -0.16820E-01 33880   0.105E+00    0.122E-01
DAV:   2    -0.796664912368E+03   -0.11288E-02   -0.11676E-02 33370   0.198E-01    0.736E-02
DAV:   3    -0.796664963252E+03   -0.50884E-04   -0.27315E-04 39510   0.400E-02    0.435E-02
DAV:   4    -0.796664961836E+03    0.14156E-05   -0.22354E-05 26800   0.165E-02
  20 F= -.79666496E+03 E0= -.79666496E+03  d E =-.887858E-02  mag=    47.0000
       N       E                     dE             d eps       ncg     rms          rms(c)
DAV:   1    -0.796671481131E+03   -0.65179E-02   -0.14108E+00 34470   0.347E+00    0.431E-01
DAV:   2    -0.796684695059E+03   -0.13214E-01   -0.13699E-01 33250   0.661E-01    0.256E-01
DAV:   3    -0.796685418481E+03   -0.72342E-03   -0.38318E-03 39740   0.143E-01    0.146E-01
DAV:   4    -0.796685401536E+03    0.16946E-04   -0.33675E-04 42820   0.555E-02    0.104E-01
DAV:   5    -0.796685430251E+03   -0.28715E-04   -0.21887E-04 41230   0.410E-02    0.462E-02
DAV:   6    -0.796685449120E+03   -0.18869E-04   -0.53327E-05 35750   0.235E-02    0.302E-02
DAV:   7    -0.796685455401E+03   -0.62814E-05   -0.20764E-05 22220   0.120E-02
  21 F= -.79668546E+03 E0= -.79668546E+03  d E =-.204936E-01  mag=    47.0000
       N       E                     dE             d eps       ncg     rms          rms(c)
DAV:   1    -0.796686394250E+03   -0.94513E-03   -0.17836E-01 34390   0.143E+00    0.190E-01
DAV:   2    -0.796689071172E+03   -0.26769E-02   -0.28848E-02 33850   0.303E-01    0.134E-01
DAV:   3    -0.796689222425E+03   -0.15125E-03   -0.11592E-03 39380   0.777E-02    0.777E-02
DAV:   4    -0.796689204122E+03    0.18303E-04   -0.10423E-04 42800   0.280E-02    0.548E-02
DAV:   5    -0.796689199666E+03    0.44563E-05   -0.85262E-05 36390   0.238E-02
  22 F= -.79668920E+03 E0= -.79668920E+03  d E =-.374426E-02  mag=    47.0000
       N       E                     dE             d eps       ncg     rms          rms(c)
DAV:   1    -0.796689963842E+03   -0.75972E-03   -0.39468E-03 35130   0.208E-01    0.302E-02
DAV:   2    -0.796690018437E+03   -0.54595E-04   -0.55284E-04 33220   0.418E-02    0.228E-02
DAV:   3    -0.796690022222E+03   -0.37847E-05   -0.18159E-05 24240   0.116E-02    0.147E-02
DAV:   4    -0.796690023804E+03   -0.15822E-05   -0.23440E-06 16520   0.522E-03
  23 F= -.79669002E+03 E0= -.79669002E+03  d E =-.824138E-03  mag=    47.0000
       N       E                     dE             d eps       ncg     rms          rms(c)
DAV:   1    -0.796693266389E+03   -0.32442E-02   -0.56605E-02 34340   0.694E-01    0.867E-02
DAV:   2    -0.796693835480E+03   -0.56909E-03   -0.58674E-03 33250   0.134E-01    0.526E-02
DAV:   3    -0.796693867865E+03   -0.32385E-04   -0.16217E-04 37070   0.286E-02    0.310E-02
DAV:   4    -0.796693868587E+03   -0.72223E-06   -0.12076E-05 21620   0.113E-02
  24 F= -.79669387E+03 E0= -.79669387E+03  d E =-.384478E-02  mag=    47.0000
       N       E                     dE             d eps       ncg     rms          rms(c)
DAV:   1    -0.796702830003E+03   -0.89621E-02   -0.64802E-01 33690   0.205E+00    0.247E-01
DAV:   2    -0.796707642127E+03   -0.48121E-02   -0.49318E-02 33270   0.389E-01    0.143E-01
DAV:   3    -0.796707856056E+03   -0.21393E-03   -0.10836E-03 38730   0.758E-02    0.820E-02
DAV:   4    -0.796707852262E+03    0.37939E-05   -0.95351E-05 38460   0.309E-02
  25 F= -.79670785E+03 E0= -.79670785E+03  d E =-.139837E-01  mag=    47.0000
       N       E                     dE             d eps       ncg     rms          rms(c)
DAV:   1    -0.796718103335E+03   -0.10247E-01   -0.55518E-01 33600   0.188E+00    0.216E-01
DAV:   2    -0.796721637274E+03   -0.35339E-02   -0.37513E-02 33500   0.378E-01    0.183E-01
DAV:   3    -0.796721764807E+03   -0.12753E-03   -0.12642E-03 37900   0.981E-02    0.930E-02
DAV:   4    -0.796721753237E+03    0.11571E-04   -0.12077E-04 40780   0.370E-02    0.765E-02
DAV:   5    -0.796721755843E+03   -0.26057E-05   -0.11818E-04 36130   0.285E-02    0.305E-02
DAV:   6    -0.796721766252E+03   -0.10409E-04   -0.31409E-05 30150   0.148E-02    0.218E-02
DAV:   7    -0.796721769836E+03   -0.35839E-05   -0.91725E-06 18110   0.773E-03
  26 F= -.79672177E+03 E0= -.79672177E+03  d E =-.139176E-01  mag=    47.0000
       N       E                     dE             d eps       ncg     rms          rms(c)
DAV:   1    -0.796721798137E+03   -0.31885E-04   -0.41130E-02 35050   0.677E-01    0.905E-02
DAV:   2    -0.796722388749E+03   -0.59061E-03   -0.63461E-03 34260   0.146E-01    0.769E-02
DAV:   3    -0.796722423575E+03   -0.34825E-04   -0.27564E-04 40950   0.403E-02    0.414E-02
DAV:   4    -0.796722421838E+03    0.17366E-05   -0.20947E-05 24800   0.152E-02
  27 F= -.79672242E+03 E0= -.79672242E+03  d E =-.652002E-03  mag=    47.0000
       N       E                     dE             d eps       ncg     rms          rms(c)
DAV:   1    -0.796722395447E+03    0.28128E-04   -0.36575E-02 35120   0.590E-01    0.733E-02
DAV:   2    -0.796722774316E+03   -0.37887E-03   -0.40876E-03 33570   0.121E-01    0.599E-02
DAV:   3    -0.796722797625E+03   -0.23310E-04   -0.18457E-04 35310   0.328E-02    0.351E-02
DAV:   4    -0.796722797112E+03    0.51346E-06   -0.13491E-05 22970   0.135E-02
  28 F= -.79672280E+03 E0= -.79672280E+03  d E =-.375274E-03  mag=    47.0000
       N       E                     dE             d eps       ncg     rms          rms(c)
DAV:   1    -0.796722900880E+03   -0.10325E-03   -0.74744E-03 35290   0.234E-01    0.299E-02
DAV:   2    -0.796722952937E+03   -0.52057E-04   -0.52622E-04 33320   0.435E-02    0.203E-02
DAV:   3    -0.796722956157E+03   -0.32199E-05   -0.12876E-05 19670   0.880E-03    0.138E-02
DAV:   4    -0.796722957697E+03   -0.15403E-05   -0.22711E-06 16520   0.504E-03
  29 F= -.79672296E+03 E0= -.79672296E+03  d E =-.160586E-03  mag=    47.0000
       N       E                     dE             d eps       ncg     rms          rms(c)
DAV:   1    -0.796720223726E+03    0.27324E-02   -0.60699E-01 34800   0.211E+00    0.231E-01
DAV:   2    -0.796724442481E+03   -0.42188E-02   -0.43060E-02 32530   0.388E-01    0.132E-01
DAV:   3    -0.796724613052E+03   -0.17057E-03   -0.83290E-04 39240   0.673E-02    0.740E-02
DAV:   4    -0.796724598955E+03    0.14096E-04   -0.77918E-05 38450   0.264E-02    0.530E-02
DAV:   5    -0.796724606034E+03   -0.70784E-05   -0.51111E-05 34090   0.215E-02
  30 F= -.79672461E+03 E0= -.79672461E+03  d E =-.164834E-02  mag=    47.0000
       N       E                     dE             d eps       ncg     rms          rms(c)
DAV:   1    -0.796716149956E+03    0.84490E-02   -0.99316E-01 35360   0.319E+00    0.373E-01
DAV:   2    -0.796726446861E+03   -0.10297E-01   -0.10501E-01 32900   0.592E-01    0.212E-01
DAV:   3    -0.796727003597E+03   -0.55674E-03   -0.23309E-03 39150   0.110E-01    0.117E-01
DAV:   4    -0.796726990447E+03    0.13150E-04   -0.18886E-04 43220   0.398E-02    0.801E-02
DAV:   5    -0.796727007122E+03   -0.16675E-04   -0.98132E-05 39730   0.319E-02    0.315E-02
DAV:   6    -0.796727017561E+03   -0.10439E-04   -0.27781E-05 26180   0.182E-02    0.230E-02
DAV:   7    -0.796727020825E+03   -0.32642E-05   -0.93801E-06 17530   0.936E-03
  31 F= -.79672702E+03 E0= -.79672702E+03  d E =-.241479E-02  mag=    47.0000
       N       E                     dE             d eps       ncg     rms          rms(c)
DAV:   1    -0.796589874366E+03    0.13714E+00   -0.10265E+01 35500   0.101E+01    0.122E+00
DAV:   2    -0.796703109811E+03   -0.11324E+00   -0.12273E+00 34120   0.208E+00    0.915E-01
DAV:   3    -0.796709504139E+03   -0.63943E-02   -0.48801E-02 39880   0.524E-01    0.504E-01
DAV:   4    -0.796708610472E+03    0.89367E-03   -0.43973E-03 43730   0.192E-01    0.374E-01
DAV:   5    -0.796708223970E+03    0.38650E-03   -0.34620E-03 37880   0.154E-01    0.141E-01
DAV:   6    -0.796708291012E+03   -0.67042E-04   -0.64276E-04 38520   0.838E-02    0.850E-02
DAV:   7    -0.796708313438E+03   -0.22426E-04   -0.31907E-04 40300   0.381E-02    0.487E-02
DAV:   8    -0.796708326530E+03   -0.13092E-04   -0.28322E-05 27930   0.170E-02    0.353E-02
DAV:   9    -0.796708342010E+03   -0.15480E-04   -0.21618E-05 22660   0.130E-02    0.253E-02
DAV:  10    -0.796708351380E+03   -0.93699E-05   -0.12025E-05 20170   0.940E-03
  32 F= -.79670835E+03 E0= -.79670835E+03  d E =0.186694E-01  mag=    47.0000
       N       E                     dE             d eps       ncg     rms          rms(c)
DAV:   1    -0.796490670023E+03    0.21767E+00   -0.13892E+01 35380   0.133E+01    0.172E+00
DAV:   2    -0.796705112074E+03   -0.21444E+00   -0.23514E+00 34490   0.284E+00    0.135E+00
DAV:   3    -0.796718351977E+03   -0.13240E-01   -0.10482E-01 41350   0.770E-01    0.728E-01
DAV:   4    -0.796716619856E+03    0.17321E-02   -0.95671E-03 43710   0.284E-01    0.545E-01
DAV:   5    -0.796715786851E+03    0.83300E-03   -0.79698E-03 37820   0.223E-01    0.207E-01
DAV:   6    -0.796715892522E+03   -0.10567E-03   -0.11512E-03 37210   0.118E-01    0.121E-01
DAV:   7    -0.796715931137E+03   -0.38615E-04   -0.72475E-04 37890   0.561E-02    0.678E-02
DAV:   8    -0.796715954435E+03   -0.23298E-04   -0.66168E-05 33120   0.249E-02    0.472E-02
DAV:   9    -0.796715978297E+03   -0.23863E-04   -0.35335E-05 29290   0.181E-02    0.324E-02
DAV:  10    -0.796715992519E+03   -0.14221E-04   -0.18190E-05 21460   0.123E-02    0.255E-02
DAV:  11    -0.796716003334E+03   -0.10816E-04   -0.88191E-06 19090   0.813E-03    0.216E-02
DAV:  12    -0.796716017455E+03   -0.14120E-04   -0.94720E-06 19960   0.883E-03    0.184E-02
DAV:  13    -0.796716033822E+03   -0.16367E-04   -0.24944E-05 28050   0.129E-02    0.145E-02
DAV:  14    -0.796716043766E+03   -0.99439E-05   -0.22952E-05 24640   0.109E-02
  33 F= -.79671604E+03 E0= -.79671604E+03  d E =-.769239E-02  mag=    47.0000
       N       E                     dE             d eps       ncg     rms          rms(c)
DAV:   1    -0.796705585710E+03    0.10448E-01   -0.11366E+00 35420   0.384E+00    0.495E-01
DAV:   2    -0.796723454788E+03   -0.17869E-01   -0.19604E-01 34250   0.800E-01    0.348E-01
DAV:   3    -0.796724615367E+03   -0.11606E-02   -0.84634E-03 40050   0.210E-01    0.201E-01
DAV:   4    -0.796724472410E+03    0.14296E-03   -0.74342E-04 43460   0.753E-02    0.138E-01
DAV:   5    -0.796724416919E+03    0.55491E-04   -0.58637E-04 37890   0.614E-02    0.578E-02
DAV:   6    -0.796724421763E+03   -0.48439E-05   -0.86720E-05 35930   0.340E-02
  34 F= -.79672442E+03 E0= -.79672442E+03  d E =-.837800E-02  mag=    47.0000
       N       E                     dE             d eps       ncg     rms          rms(c)
DAV:   1    -0.796714932865E+03    0.94841E-02   -0.53556E-01 35620   0.258E+00    0.326E-01
DAV:   2    -0.796722701758E+03   -0.77689E-02   -0.83945E-02 34050   0.526E-01    0.220E-01
DAV:   3    -0.796723202004E+03   -0.50025E-03   -0.33286E-03 39440   0.133E-01    0.130E-01
DAV:   4    -0.796723155147E+03    0.46857E-04   -0.28379E-04 43610   0.469E-02    0.872E-02
DAV:   5    -0.796723144183E+03    0.10964E-04   -0.22366E-04 37950   0.387E-02    0.387E-02
DAV:   6    -0.796723149554E+03   -0.53712E-05   -0.36612E-05 29840   0.223E-02
  35 F= -.79672315E+03 E0= -.79672315E+03  d E =0.127221E-02  mag=    47.0000
       N       E                     dE             d eps       ncg     rms          rms(c)
DAV:   1    -0.796717043753E+03    0.61004E-02   -0.32134E-01 35280   0.182E+00    0.207E-01
DAV:   2    -0.796720189400E+03   -0.31456E-02   -0.32074E-02 32690   0.328E-01    0.113E-01
DAV:   3    -0.796720356461E+03   -0.16706E-03   -0.62243E-04 39620   0.562E-02    0.627E-02
DAV:   4    -0.796720351635E+03    0.48262E-05   -0.47504E-05 28750   0.202E-02
  36 F= -.79672035E+03 E0= -.79672035E+03  d E =0.279792E-02  mag=    47.0000
       N       E                     dE             d eps       ncg     rms          rms(c)
DAV:   1    -0.796709526971E+03    0.10829E-01   -0.89269E-01 35120   0.294E+00    0.323E-01
DAV:   2    -0.796717469328E+03   -0.79424E-02   -0.81121E-02 32190   0.527E-01    0.174E-01
DAV:   3    -0.796717841804E+03   -0.37248E-03   -0.15116E-03 39570   0.859E-02    0.974E-02
DAV:   4    -0.796717822761E+03    0.19043E-04   -0.12984E-04 40110   0.295E-02    0.604E-02
DAV:   5    -0.796717836248E+03   -0.13487E-04   -0.53592E-05 34150   0.227E-02    0.199E-02
DAV:   6    -0.796717840272E+03   -0.40245E-05   -0.16189E-05 18750   0.145E-02
  37 F= -.79671784E+03 E0= -.79671784E+03  d E =0.251136E-02  mag=    47.0000
       N       E                     dE             d eps       ncg     rms          rms(c)
DAV:   1    -0.796681719013E+03    0.36117E-01   -0.35111E+00 35030   0.588E+00    0.650E-01
DAV:   2    -0.796712825601E+03   -0.31107E-01   -0.31702E-01 31650   0.104E+00    0.345E-01
DAV:   3    -0.796714387709E+03   -0.15621E-02   -0.58038E-03 39010   0.167E-01    0.189E-01
DAV:   4    -0.796714307084E+03    0.80626E-04   -0.49072E-04 43530   0.545E-02    0.114E-01
DAV:   5    -0.796714358274E+03   -0.51191E-04   -0.18632E-04 42930   0.399E-02    0.354E-02
DAV:   6    -0.796714371974E+03   -0.13700E-04   -0.58468E-05 34690   0.242E-02    0.227E-02
DAV:   7    -0.796714371731E+03    0.24292E-06   -0.58843E-06 17180   0.109E-02
  38 F= -.79671437E+03 E0= -.79671437E+03  d E =0.346854E-02  mag=    47.0000
       N       E                     dE             d eps       ncg     rms          rms(c)
DAV:   1    -0.796665327925E+03    0.49044E-01   -0.50876E+00 35120   0.694E+00    0.755E-01
DAV:   2    -0.796708048990E+03   -0.42721E-01   -0.43651E-01 31460   0.122E+00    0.396E-01
DAV:   3    -0.796710094090E+03   -0.20451E-02   -0.77564E-03 38830   0.191E-01    0.217E-01
DAV:   4    -0.796709961421E+03    0.13267E-03   -0.68742E-04 40970   0.631E-02    0.130E-01
DAV:   5    -0.796710035729E+03   -0.74308E-04   -0.25223E-04 41790   0.437E-02    0.392E-02
DAV:   6    -0.796710053381E+03   -0.17652E-04   -0.73760E-05 36090   0.259E-02    0.250E-02
DAV:   7    -0.796710053224E+03    0.15683E-06   -0.63336E-06 17790   0.119E-02
  39 F= -.79671005E+03 E0= -.79671005E+03  d E =0.431851E-02  mag=    47.0000
       N       E                     dE             d eps       ncg     rms          rms(c)
DAV:   1    -0.796696587066E+03    0.13466E-01   -0.15538E+00 34930   0.379E+00    0.414E-01
DAV:   2    -0.796709371830E+03   -0.12785E-01   -0.13074E-01 31840   0.672E-01    0.222E-01
DAV:   3    -0.796709979685E+03   -0.60786E-03   -0.23911E-03 39470   0.110E-01    0.121E-01
DAV:   4    -0.796709938868E+03    0.40817E-04   -0.21382E-04 44200   0.384E-02    0.759E-02
DAV:   5    -0.796709955321E+03   -0.16454E-04   -0.91630E-05 39420   0.291E-02    0.244E-02
DAV:   6    -0.796709961427E+03   -0.61059E-05   -0.26646E-05 23770   0.181E-02
  40 F= -.79670996E+03 E0= -.79670996E+03  d E =0.917971E-04  mag=    47.0000
       N       E                     dE             d eps       ncg     rms          rms(c)
DAV:   1    -0.796695525897E+03    0.14429E-01   -0.20087E+00 34840   0.437E+00    0.487E-01
DAV:   2    -0.796712919989E+03   -0.17394E-01   -0.17756E-01 32130   0.779E-01    0.263E-01
DAV:   3    -0.796713793805E+03   -0.87382E-03   -0.33374E-03 39190   0.132E-01    0.144E-01
DAV:   4    -0.796713750141E+03    0.43663E-04   -0.28894E-04 44610   0.461E-02    0.912E-02
DAV:   5    -0.796713773536E+03   -0.23395E-04   -0.12706E-04 43550   0.357E-02    0.305E-02
DAV:   6    -0.796713782552E+03   -0.90162E-05   -0.37350E-05 29280   0.210E-02
  41 F= -.79671378E+03 E0= -.79671378E+03  d E =-.382113E-02  mag=    47.0000
       N       E                     dE             d eps       ncg     rms          rms(c)
DAV:   1    -0.796675340259E+03    0.38433E-01   -0.51450E+00 34990   0.707E+00    0.783E-01
DAV:   2    -0.796720618782E+03   -0.45279E-01   -0.46196E-01 32120   0.125E+00    0.414E-01
DAV:   3    -0.796722868216E+03   -0.22494E-02   -0.82196E-03 38990   0.199E-01    0.226E-01
DAV:   4    -0.796722749984E+03    0.11823E-03   -0.70553E-04 41610   0.648E-02    0.136E-01
DAV:   5    -0.796722835236E+03   -0.85252E-04   -0.26756E-04 42190   0.459E-02    0.421E-02
DAV:   6    -0.796722854908E+03   -0.19672E-04   -0.80544E-05 37800   0.276E-02    0.271E-02
DAV:   7    -0.796722855120E+03   -0.21180E-06   -0.84795E-06 18560   0.131E-02
  42 F= -.79672286E+03 E0= -.79672286E+03  d E =-.907257E-02  mag=    47.0000
       N       E                     dE             d eps       ncg     rms          rms(c)
DAV:   1    -0.796638025968E+03    0.84829E-01   -0.11001E+01 34850   0.101E+01    0.111E+00
DAV:   2    -0.796729600476E+03   -0.91575E-01   -0.93628E-01 32280   0.179E+00    0.595E-01
DAV:   3    -0.796734086839E+03   -0.44864E-02   -0.17131E-02 39440   0.296E-01    0.328E-01
DAV:   4    -0.796733812566E+03    0.27427E-03   -0.15321E-03 45620   0.105E-01    0.203E-01
DAV:   5    -0.796733929117E+03   -0.11655E-03   -0.67336E-04 45320   0.799E-02    0.681E-02
DAV:   6    -0.796733975618E+03   -0.46501E-04   -0.21782E-04 43000   0.473E-02    0.427E-02
DAV:   7    -0.796733975060E+03    0.55831E-06   -0.20979E-05 24700   0.195E-02
  43 F= -.79673398E+03 E0= -.79673398E+03  d E =-.111199E-01  mag=    47.0000
       N       E                     dE             d eps       ncg     rms          rms(c)
DAV:   1    -0.796578149646E+03    0.15583E+00   -0.17893E+01 34990   0.129E+01    0.145E+00
DAV:   2    -0.796733699964E+03   -0.15555E+00   -0.15879E+00 32360   0.232E+00    0.794E-01
DAV:   3    -0.796741195242E+03   -0.74953E-02   -0.31637E-02 39520   0.407E-01    0.434E-01
DAV:   4    -0.796740767440E+03    0.42780E-03   -0.26869E-03 44940   0.144E-01    0.283E-01
DAV:   5    -0.796740888374E+03   -0.12093E-03   -0.13014E-03 45080   0.116E-01    0.985E-02
DAV:   6    -0.796740983760E+03   -0.95386E-04   -0.41782E-04 42590   0.647E-02    0.600E-02
DAV:   7    -0.796740985882E+03   -0.21217E-05   -0.57431E-05 35580   0.258E-02
  44 F= -.79674099E+03 E0= -.79674099E+03  d E =-.701082E-02  mag=    47.0000
       N       E                     dE             d eps       ncg     rms          rms(c)
DAV:   1    -0.796717499850E+03    0.23484E-01   -0.14368E+00 34240   0.356E+00    0.408E-01
DAV:   2    -0.796730576376E+03   -0.13077E-01   -0.13590E-01 33270   0.690E-01    0.254E-01
DAV:   3    -0.796731204355E+03   -0.62798E-03   -0.37704E-03 39730   0.145E-01    0.143E-01
DAV:   4    -0.796731146707E+03    0.57648E-04   -0.31761E-04 44280   0.526E-02    0.998E-02
DAV:   5    -0.796731136598E+03    0.10109E-04   -0.21756E-04 40350   0.427E-02    0.408E-02
DAV:   6    -0.796731148357E+03   -0.11759E-04   -0.54489E-05 35870   0.238E-02    0.246E-02
DAV:   7    -0.796731150556E+03   -0.21985E-05   -0.15675E-05 18780   0.110E-02
  45 F= -.79673115E+03 E0= -.79673115E+03  d E =0.983533E-02  mag=    47.0000
       N       E                     dE             d eps       ncg     rms          rms(c)
DAV:   1    -0.796531755583E+03    0.19939E+00   -0.21167E+01 34700   0.137E+01    0.150E+00
DAV:   2    -0.796698380744E+03   -0.16663E+00   -0.17018E+00 32640   0.243E+00    0.794E-01
DAV:   3    -0.796706144794E+03   -0.77640E-02   -0.30239E-02 39230   0.389E-01    0.436E-01
DAV:   4    -0.796705591835E+03    0.55296E-03   -0.27273E-03 44070   0.135E-01    0.270E-01
DAV:   5    -0.796705835961E+03   -0.24413E-03   -0.12230E-03 44640   0.102E-01    0.905E-02
DAV:   6    -0.796705918701E+03   -0.82739E-04   -0.37034E-04 43030   0.612E-02    0.569E-02
DAV:   7    -0.796705917933E+03    0.76782E-06   -0.39054E-05 31500   0.261E-02
  46 F= -.79670592E+03 E0= -.79670592E+03  d E =0.252326E-01  mag=    47.0000
       N       E                     dE             d eps       ncg     rms          rms(c)
DAV:   1    -0.796595399340E+03    0.11052E+00   -0.12394E+01 34830   0.108E+01    0.121E+00
DAV:   2    -0.796704769558E+03   -0.10937E+00   -0.11281E+00 33000   0.195E+00    0.689E-01
DAV:   3    -0.796710332618E+03   -0.55631E-02   -0.24860E-02 39070   0.374E-01    0.380E-01
DAV:   4    -0.796709978510E+03    0.35411E-03   -0.21718E-03 44970   0.135E-01    0.251E-01
DAV:   5    -0.796709992013E+03   -0.13502E-04   -0.11623E-03 42830   0.105E-01    0.917E-02
DAV:   6    -0.796710069699E+03   -0.77687E-04   -0.33596E-04 42540   0.561E-02    0.546E-02
DAV:   7    -0.796710076732E+03   -0.70324E-05   -0.65733E-05 36250   0.225E-02
  47 F= -.79671008E+03 E0= -.79671008E+03  d E =-.415880E-02  mag=    47.0000
       N       E                     dE             d eps       ncg     rms          rms(c)
DAV:   1    -0.796616852628E+03    0.93217E-01   -0.10545E+01 34810   0.997E+00    0.115E+00
DAV:   2    -0.796716415643E+03   -0.99563E-01   -0.10266E+00 33190   0.185E+00    0.677E-01
DAV:   3    -0.796721354687E+03   -0.49390E-02   -0.24906E-02 39360   0.372E-01    0.372E-01
DAV:   4    -0.796721023543E+03    0.33114E-03   -0.20775E-03 43450   0.133E-01    0.252E-01
DAV:   5    -0.796720993301E+03    0.30242E-04   -0.12205E-03 42410   0.105E-01    0.910E-02
DAV:   6    -0.796721061415E+03   -0.68114E-04   -0.33199E-04 42460   0.572E-02    0.526E-02
DAV:   7    -0.796721064440E+03   -0.30245E-05   -0.78585E-05 38100   0.230E-02
  48 F= -.79672106E+03 E0= -.79672106E+03  d E =-.109877E-01  mag=    47.0000
       N       E                     dE             d eps       ncg     rms          rms(c)
DAV:   1    -0.796674771507E+03    0.46290E-01   -0.49161E+00 34990   0.685E+00    0.766E-01
DAV:   2    -0.796718541784E+03   -0.43770E-01   -0.44897E-01 32810   0.123E+00    0.418E-01
DAV:   3    -0.796720738929E+03   -0.21971E-02   -0.90855E-03 38770   0.214E-01    0.233E-01
DAV:   4    -0.796720603686E+03    0.13524E-03   -0.77072E-04 45860   0.693E-02    0.145E-01
DAV:   5    -0.796720648647E+03   -0.44960E-04   -0.33848E-04 41130   0.552E-02    0.473E-02
DAV:   6    -0.796720670826E+03   -0.22179E-04   -0.11086E-04 42290   0.323E-02    0.299E-02
DAV:   7    -0.796720670563E+03    0.26256E-06   -0.13760E-05 21030   0.138E-02
  49 F= -.79672067E+03 E0= -.79672067E+03  d E =0.393876E-03  mag=    47.0000
       N       E                     dE             d eps       ncg     rms          rms(c)
DAV:   1    -0.796687036965E+03    0.33634E-01   -0.35622E+00 35160   0.592E+00    0.656E-01
DAV:   2    -0.796718468358E+03   -0.31431E-01   -0.32048E-01 31540   0.104E+00    0.348E-01
DAV:   3    -0.796720046681E+03   -0.15783E-02   -0.57607E-03 39340   0.168E-01    0.189E-01
DAV:   4    -0.796719963288E+03    0.83394E-04   -0.50722E-04 44380   0.572E-02    0.116E-01
DAV:   5    -0.796720016535E+03   -0.53247E-04   -0.19205E-04 44850   0.415E-02    0.361E-02
DAV:   6    -0.796720030090E+03   -0.13555E-04   -0.59571E-05 35360   0.254E-02    0.237E-02
DAV:   7    -0.796720029622E+03    0.46793E-06   -0.60992E-06 17570   0.113E-02
  50 F= -.79672003E+03 E0= -.79672003E+03  d E =0.640941E-03  mag=    47.0000
       N       E                     dE             d eps       ncg     rms          rms(c)
DAV:   1    -0.795653839637E+03    0.10662E+01   -0.80699E+01 34600   0.291E+01    0.356E+00
DAV:   2    -0.796607010279E+03   -0.95317E+00   -0.99048E+00 33350   0.569E+00    0.212E+00
DAV:   3    -0.796655058929E+03   -0.48049E-01   -0.28054E-01 38630   0.120E+00    0.123E+00
DAV:   4    -0.796651151890E+03    0.39070E-02   -0.23811E-02 45230   0.413E-01    0.808E-01
DAV:   5    -0.796650419672E+03    0.73222E-03   -0.13921E-02 40090   0.340E-01    0.336E-01
DAV:   6    -0.796651044244E+03   -0.62457E-03   -0.33674E-03 40860   0.192E-01    0.202E-01
DAV:   7    -0.796651173232E+03   -0.12899E-03   -0.12483E-03 41770   0.909E-02    0.130E-01
DAV:   8    -0.796651321207E+03   -0.14797E-03   -0.20464E-04 41940   0.451E-02    0.942E-02
DAV:   9    -0.796651480935E+03   -0.15973E-03   -0.13930E-04 40480   0.330E-02    0.743E-02
DAV:  10    -0.796651592896E+03   -0.11196E-03   -0.87004E-05 33050   0.240E-02    0.652E-02
DAV:  11    -0.796651687204E+03   -0.94308E-04   -0.55532E-05 29840   0.211E-02    0.582E-02
DAV:  12    -0.796651841864E+03   -0.15466E-03   -0.13351E-04 39120   0.371E-02    0.451E-02
DAV:  13    -0.796651967004E+03   -0.12514E-03   -0.37902E-04 41680   0.512E-02    0.345E-02
DAV:  14    -0.796652042240E+03   -0.75236E-04   -0.19199E-04 37690   0.284E-02    0.274E-02
DAV:  15    -0.796652070198E+03   -0.27958E-04   -0.38568E-05 24030   0.134E-02    0.196E-02
DAV:  16    -0.796652082449E+03   -0.12251E-04   -0.16422E-05 20900   0.795E-03    0.163E-02
DAV:  17    -0.796652090891E+03   -0.84416E-05   -0.59306E-06 18540   0.686E-03
  51 F= -.79665209E+03 E0= -.79665209E+03  d E =0.679387E-01  mag=    47.0000
       N       E                     dE             d eps       ncg     rms          rms(c)
DAV:   1    -0.796118480680E+03    0.53360E+00   -0.35228E+01 34090   0.202E+01    0.278E+00
DAV:   2    -0.796716817546E+03   -0.59834E+00   -0.64276E+00 33740   0.434E+00    0.192E+00
DAV:   3    -0.796748917860E+03   -0.32100E-01   -0.24102E-01 38680   0.105E+00    0.113E+00
DAV:   4    -0.796744665846E+03    0.42520E-02   -0.20755E-02 43870   0.377E-01    0.812E-01
DAV:   5    -0.796742989742E+03    0.16761E-02   -0.16198E-02 37970   0.330E-01    0.336E-01
DAV:   6    -0.796743253554E+03   -0.26381E-03   -0.28326E-03 39510   0.188E-01    0.200E-01
DAV:   7    -0.796743368606E+03   -0.11505E-03   -0.16031E-03 41740   0.909E-02    0.120E-01
DAV:   8    -0.796743472931E+03   -0.10432E-03   -0.19298E-04 39330   0.413E-02    0.862E-02
DAV:   9    -0.796743581511E+03   -0.10858E-03   -0.11042E-04 39370   0.294E-02    0.631E-02
DAV:  10    -0.796743659038E+03   -0.77527E-04   -0.63823E-05 32250   0.218E-02    0.541E-02
DAV:  11    -0.796743719835E+03   -0.60797E-04   -0.40839E-05 27470   0.179E-02    0.475E-02
DAV:  12    -0.796743813772E+03   -0.93937E-04   -0.78911E-05 35340   0.266E-02    0.372E-02
DAV:  13    -0.796743894950E+03   -0.81178E-04   -0.20374E-04 40120   0.383E-02    0.277E-02
DAV:  14    -0.796743940846E+03   -0.45896E-04   -0.11989E-04 35620   0.236E-02    0.222E-02
DAV:  15    -0.796743959483E+03   -0.18637E-04   -0.30993E-05 23170   0.117E-02    0.144E-02
DAV:  16    -0.796743967071E+03   -0.75881E-05   -0.11973E-05 19520   0.717E-03
  52 F= -.79674397E+03 E0= -.79674397E+03  d E =-.918762E-01  mag=    47.0000
       N       E                     dE             d eps       ncg     rms          rms(c)
DAV:   1    -0.796739121205E+03    0.48383E-02   -0.53977E-01 34760   0.249E+00    0.340E-01
DAV:   2    -0.796748056749E+03   -0.89355E-02   -0.95701E-02 33900   0.543E-01    0.269E-01
DAV:   3    -0.796748525697E+03   -0.46895E-03   -0.38925E-03 40780   0.148E-01    0.143E-01
DAV:   4    -0.796748471134E+03    0.54563E-04   -0.36112E-04 43710   0.549E-02    0.111E-01
DAV:   5    -0.796748444629E+03    0.26505E-04   -0.28284E-04 38320   0.428E-02    0.401E-02
DAV:   6    -0.796748450225E+03   -0.55960E-05   -0.41500E-05 31080   0.216E-02
  53 F= -.79674845E+03 E0= -.79674845E+03  d E =-.448315E-02  mag=    47.0000
       N       E                     dE             d eps       ncg     rms          rms(c)
DAV:   1    -0.796730276146E+03    0.18168E-01   -0.12475E+00 34670   0.344E+00    0.437E-01
DAV:   2    -0.796745029438E+03   -0.14753E-01   -0.15507E-01 33460   0.723E-01    0.366E-01
DAV:   3    -0.796745706304E+03   -0.67687E-03   -0.56169E-03 39840   0.191E-01    0.188E-01
DAV:   4    -0.796745645372E+03    0.60932E-04   -0.52325E-04 43260   0.718E-02    0.155E-01
DAV:   5    -0.796745616932E+03    0.28440E-04   -0.43223E-04 39540   0.554E-02    0.540E-02
DAV:   6    -0.796745634645E+03   -0.17713E-04   -0.83299E-05 36610   0.274E-02    0.330E-02
DAV:   7    -0.796745640323E+03   -0.56778E-05   -0.36208E-05 27940   0.128E-02
  54 F= -.79674564E+03 E0= -.79674564E+03  d E =0.280990E-02  mag=    47.0000
       N       E                     dE             d eps       ncg     rms          rms(c)
DAV:   1    -0.796742400529E+03    0.32341E-02   -0.10244E-01 34320   0.911E-01    0.105E-01
DAV:   2    -0.796743217894E+03   -0.81737E-03   -0.82893E-03 33220   0.172E-01    0.652E-02
DAV:   3    -0.796743258226E+03   -0.40332E-04   -0.18049E-04 38210   0.326E-02    0.385E-02
DAV:   4    -0.796743259149E+03   -0.92309E-06   -0.15853E-05 22500   0.135E-02
  55 F= -.79674326E+03 E0= -.79674326E+03  d E =0.238117E-02  mag=    47.0000
       N       E                     dE             d eps       ncg     rms          rms(c)
DAV:   1    -0.796727142919E+03    0.16115E-01   -0.94507E-01 34520   0.278E+00    0.311E-01
DAV:   2    -0.796734577123E+03   -0.74342E-02   -0.75745E-02 33150   0.516E-01    0.185E-01
DAV:   3    -0.796734906081E+03   -0.32896E-03   -0.15231E-03 40450   0.936E-02    0.104E-01
DAV:   4    -0.796734888565E+03    0.17516E-04   -0.14712E-04 42440   0.389E-02    0.768E-02
DAV:   5    -0.796734904204E+03   -0.15639E-04   -0.98439E-05 41520   0.315E-02    0.307E-02
DAV:   6    -0.796734917300E+03   -0.13096E-04   -0.31625E-05 28080   0.177E-02    0.247E-02
DAV:   7    -0.796734922441E+03   -0.51409E-05   -0.81145E-06 17420   0.838E-03
  56 F= -.79673492E+03 E0= -.79673492E+03  d E =0.833671E-02  mag=    47.0000
       N       E                     dE             d eps       ncg     rms          rms(c)
DAV:   1    -0.796730717443E+03    0.41999E-02   -0.21510E-01 35070   0.146E+00    0.166E-01
DAV:   2    -0.796732790238E+03   -0.20728E-02   -0.21247E-02 33050   0.271E-01    0.976E-02
DAV:   3    -0.796732896521E+03   -0.10628E-03   -0.46564E-04 39690   0.515E-02    0.543E-02
DAV:   4    -0.796732893212E+03    0.33091E-05   -0.36563E-05 28460   0.193E-02
  57 F= -.79673289E+03 E0= -.79673289E+03  d E =0.202923E-02  mag=    47.0000
