       N       E                     dE             d eps       ncg     rms          rms(c)
DAV:   1     0.307050406086E+04    0.30705E+04   -0.25839E+05 73560   0.131E+03
DAV:   2    -0.610921191768E+03   -0.36814E+04   -0.35479E+04 89652   0.297E+02
DAV:   3    -0.872528287618E+03   -0.26161E+03   -0.25993E+03 89064   0.837E+01
DAV:   4    -0.875802101346E+03   -0.32738E+01   -0.32617E+01 89376   0.101E+01
DAV:   5    -0.875857743359E+03   -0.55642E-01   -0.55504E-01 90972   0.121E+00    0.990E+01
DAV:   6    -0.780339495103E+03    0.95518E+02   -0.40555E+02 83316   0.319E+01    0.501E+01
DAV:   7    -0.789432691430E+03   -0.90932E+01   -0.21936E+01 83268   0.767E+00    0.163E+01
DAV:   8    -0.793539363160E+03   -0.41067E+01   -0.16672E+00 86976   0.245E+00    0.777E+00
DAV:   9    -0.795757255443E+03   -0.22179E+01   -0.10723E+00 88560   0.171E+00    0.383E+00
DAV:  10    -0.796262365784E+03   -0.50511E+00   -0.28926E-01 84672   0.931E-01    0.110E+00
DAV:  11    -0.796332670034E+03   -0.70304E-01   -0.39197E-02 87180   0.349E-01    0.607E-01
DAV:  12    -0.796342043660E+03   -0.93736E-02   -0.49082E-03 86076   0.135E-01    0.271E-01
DAV:  13    -0.796344276924E+03   -0.22333E-02   -0.11733E-03 87012   0.651E-02    0.810E-02
DAV:  14    -0.796344681395E+03   -0.40447E-03   -0.29485E-04 84396   0.342E-02    0.438E-02
DAV:  15    -0.796344716187E+03   -0.34792E-04   -0.40363E-05 81744   0.169E-02    0.270E-02
DAV:  16    -0.796344727776E+03   -0.11589E-04   -0.15399E-05 60768   0.121E-02    0.916E-03
DAV:  17    -0.796344728381E+03   -0.60466E-06   -0.82759E-06 62568   0.904E-03
   1 F= -.79634473E+03 E0= -.79634473E+03  d E =-.796345E+03  mag=    -0.0017
