       N       E                     dE             d eps       ncg     rms          ort
DAV:   1     0.281376999148E+04    0.28138E+04   -0.29355E+05  2880   0.140E+03
DAV:   2    -0.972514787671E+03   -0.37863E+04   -0.36544E+04  2880   0.312E+02
DAV:   3    -0.122896185465E+04   -0.25645E+03   -0.25435E+03  2880   0.848E+01
DAV:   4    -0.123195332222E+04   -0.29915E+01   -0.29813E+01  2880   0.974E+00
DAV:   5    -0.123200164337E+04   -0.48321E-01   -0.48219E-01  2880   0.114E+00
SDA:   6    -0.876549139974E+03    0.35545E+03   -0.48219E-01  2880   0.614E+03 0.000E+00
CGA:   7    -0.985696437143E+03   -0.10915E+03   -0.10957E+03  2880   0.491E+02 0.108E+02
CGA:   8    -0.997007907164E+03   -0.11311E+02   -0.11142E+02  2880   0.188E+02 0.359E+01
CGA:   9    -0.100103400879E+04   -0.40261E+01   -0.40929E+01  2880   0.304E+02-0.106E+02
CGA:  10    -0.100269573515E+04   -0.16617E+01   -0.33837E+01  2880   0.477E+01 0.377E-01
CGA:  11    -0.100352031823E+04   -0.82458E+00   -0.42695E+00  2880   0.416E+01 0.574E+01
CGA:  12    -0.100391012007E+04   -0.38980E+00   -0.21688E+00  2880   0.164E+01 0.800E+00
CGA:  13    -0.100409166751E+04   -0.18155E+00   -0.19591E+00  2880   0.795E+01-0.131E+00
CGA:  14    -0.100452490167E+04   -0.43323E+00   -0.46216E+00  2880   0.137E+02-0.333E+00
CGA:  15    -0.100485581017E+04   -0.33091E+00   -0.38529E+00  2880   0.394E+01-0.215E+01
CGA:  16    -0.100485490040E+04    0.90977E-03   -0.13828E+00  2880   0.243E+01-0.289E+01
CGA:  17    -0.100503407553E+04   -0.17918E+00   -0.20279E+00  2880   0.212E+01-0.258E+00
CGA:  18    -0.100522417612E+04   -0.19010E+00   -0.18826E+00  2880   0.789E+00-0.127E-01
CGA:  19    -0.100530218698E+04   -0.78011E-01   -0.71292E-01  2880   0.251E+00 0.299E-01
CGA:  20    -0.100532549598E+04   -0.23309E-01   -0.23552E-01  2880   0.146E+00 0.266E-02
CGA:  21    -0.100533711716E+04   -0.11621E-01   -0.11023E-01  2880   0.343E-01 0.526E-02
CGA:  22    -0.100534925129E+04   -0.12134E-01   -0.12200E-01  2880   0.695E-01-0.571E-03
CGA:  23    -0.100535326099E+04   -0.40097E-02   -0.39111E-02  2880   0.113E-01 0.114E-02
CGA:  24    -0.100535570666E+04   -0.24457E-02   -0.25090E-02  2880   0.105E-01-0.870E-03
CGA:  25    -0.100535638338E+04   -0.67672E-03   -0.66894E-03  2880   0.610E-02-0.414E-03
CGA:  26    -0.100535735441E+04   -0.97103E-03   -0.98583E-03  2880   0.389E-02-0.782E-03
CGA:  27    -0.100535762417E+04   -0.26976E-03   -0.23620E-03  2880   0.182E-02-0.458E-03
CGA:  28    -0.100535786286E+04   -0.23869E-03   -0.23978E-03  2880   0.263E-02-0.279E-03
CGA:  29    -0.100535804291E+04   -0.18005E-03   -0.20153E-03  2880   0.105E-02 0.386E-03
CGA:  30    -0.100535808250E+04   -0.39592E-04   -0.62796E-04  2880   0.433E-03 0.251E-03
CGA:  31    -0.100535812168E+04   -0.39174E-04   -0.49787E-04  2880   0.390E-03 0.233E-03
CGA:  32    -0.100535815357E+04   -0.31895E-04   -0.29987E-04  2880   0.224E-03-0.342E-04
CGA:  33    -0.100535816916E+04   -0.15591E-04   -0.19955E-04  2880   0.150E-03 0.125E-03
CGA:  34    -0.100535817025E+04   -0.10861E-05   -0.74983E-05  2880   0.705E-04 0.792E-04
   1 F= -.10053582E+04 E0= -.10053441E+04  d E =-.100536E+04  mag=     1.0000
       N       E                     dE             d eps       ncg     rms          ort
SDA:   1    -0.100535748769E+04    0.68147E-03    0.00000E+00  2880   0.364E-02 0.000E+00
CGA:   2    -0.100535774815E+04   -0.26046E-03   -0.27376E-03  2880   0.171E-02 0.267E-03
CGA:   3    -0.100535815606E+04   -0.40791E-03   -0.47268E-03  2880   0.204E-02-0.488E-03
CGA:   4    -0.100535824188E+04   -0.85815E-04   -0.73638E-04  2880   0.528E-03-0.169E-03
CGA:   5    -0.100535828203E+04   -0.40155E-04   -0.41588E-04  2880   0.416E-03 0.336E-04
CGA:   6    -0.100535829826E+04   -0.16227E-04   -0.23385E-04  2880   0.155E-03 0.988E-04
CGA:   7    -0.100535830368E+04   -0.54216E-05   -0.10859E-04  2880   0.105E-03 0.849E-04
   2 F= -.10053583E+04 E0= -.10053442E+04  d E =-.133430E-03  mag=     0.9992
       N       E                     dE             d eps       ncg     rms          ort
SDA:   1    -0.100535673690E+04    0.15614E-02    0.00000E+00  2880   0.197E-01 0.000E+00
CGA:   2    -0.100535753885E+04   -0.80195E-03   -0.83044E-03  2880   0.212E-02-0.470E-03
CGA:   3    -0.100535818138E+04   -0.64253E-03   -0.60947E-03  2880   0.100E-02 0.180E-03
CGA:   4    -0.100535828998E+04   -0.10860E-03   -0.10231E-03  2880   0.781E-03-0.249E-03
CGA:   5    -0.100535835911E+04   -0.69131E-04   -0.69095E-04  2880   0.286E-03-0.272E-04
CGA:   6    -0.100535836897E+04   -0.98592E-05   -0.14184E-04  2880   0.503E-04 0.642E-04
   3 F= -.10053584E+04 E0= -.10053443E+04  d E =-.652864E-04  mag=     0.9992
