       N       E                     dE             d eps       ncg     rms          ort
DAV:   1     0.283360375491E+04    0.28336E+04   -0.29356E+05  2880   0.141E+03
DAV:   2    -0.968760271257E+03   -0.38024E+04   -0.36688E+04  2880   0.313E+02
DAV:   3    -0.122718754767E+04   -0.25843E+03   -0.25632E+03  2880   0.851E+01
DAV:   4    -0.123020205207E+04   -0.30145E+01   -0.30043E+01  2880   0.978E+00
DAV:   5    -0.123025069100E+04   -0.48639E-01   -0.48538E-01  2880   0.114E+00
SDA:   6    -0.873406568847E+03    0.35684E+03   -0.48538E-01  2880   0.622E+03 0.000E+00
CGA:   7    -0.983803410407E+03   -0.11040E+03   -0.11093E+03  2880   0.482E+02 0.131E+02
CGA:   8    -0.994513962181E+03   -0.10711E+02   -0.10931E+02  2880   0.341E+02-0.302E+01
CGA:   9    -0.999095675555E+03   -0.45817E+01   -0.47680E+01  2880   0.984E+01 0.437E+00
CGA:  10    -0.100124334823E+04   -0.21477E+01   -0.20929E+01  2880   0.764E+01 0.238E+01
CGA:  11    -0.100195016136E+04   -0.70681E+00   -0.99863E+00  2880   0.770E+01-0.189E+01
CGA:  12    -0.100242178364E+04   -0.47162E+00   -0.40586E+00  2880   0.413E+01 0.850E-01
CGA:  13    -0.100268470351E+04   -0.26292E+00   -0.31386E+00  2880   0.248E+01-0.104E+01
CGA:  14    -0.100277376371E+04   -0.89060E-01   -0.12565E+00  2880   0.283E+01-0.468E+00
CGA:  15    -0.100291521173E+04   -0.14145E+00   -0.13360E+00  2880   0.116E+01 0.156E-01
CGA:  16    -0.100298610455E+04   -0.70893E-01   -0.74117E-01  2880   0.857E+00-0.919E-01
CGA:  17    -0.100302161221E+04   -0.35508E-01   -0.35927E-01  2880   0.606E+00-0.229E-01
CGA:  18    -0.100305101897E+04   -0.29407E-01   -0.36710E-01  2880   0.493E+00-0.768E-01
CGA:  19    -0.100307202864E+04   -0.21010E-01   -0.20739E-01  2880   0.415E+00 0.788E-02
CGA:  20    -0.100309693036E+04   -0.24902E-01   -0.24912E-01  2880   0.242E+00-0.278E-02
CGA:  21    -0.100310593470E+04   -0.90043E-02   -0.88000E-02  2880   0.116E+00 0.316E-02
CGA:  22    -0.100311190706E+04   -0.59724E-02   -0.59038E-02  2880   0.105E+00 0.177E-02
CGA:  23    -0.100311730003E+04   -0.53930E-02   -0.56343E-02  2880   0.103E+00-0.111E-02
CGA:  24    -0.100312246298E+04   -0.51630E-02   -0.53901E-02  2880   0.847E-01-0.153E-02
CGA:  25    -0.100312694753E+04   -0.44846E-02   -0.43685E-02  2880   0.878E-01 0.638E-03
CGA:  26    -0.100313173635E+04   -0.47888E-02   -0.46650E-02  2880   0.585E-01-0.115E-02
CGA:  27    -0.100313393853E+04   -0.22022E-02   -0.21769E-02  2880   0.313E-01-0.153E-02
CGA:  28    -0.100313547845E+04   -0.15399E-02   -0.15317E-02  2880   0.294E-01-0.414E-04
CGA:  29    -0.100313687965E+04   -0.14012E-02   -0.14341E-02  2880   0.222E-01 0.249E-03
CGA:  30    -0.100313780091E+04   -0.92125E-03   -0.89239E-03  2880   0.145E-01 0.994E-03
CGA:  31    -0.100313859024E+04   -0.78934E-03   -0.75642E-03  2880   0.171E-01 0.150E-03
CGA:  32    -0.100313949348E+04   -0.90324E-03   -0.88524E-03  2880   0.166E-01-0.421E-03
CGA:  33    -0.100314008584E+04   -0.59236E-03   -0.61263E-03  2880   0.105E-01-0.655E-03
CGA:  34    -0.100314050265E+04   -0.41681E-03   -0.45119E-03  2880   0.952E-02 0.187E-03
CGA:  35    -0.100314089942E+04   -0.39677E-03   -0.43949E-03  2880   0.661E-02 0.761E-03
CGA:  36    -0.100314112964E+04   -0.23022E-03   -0.25390E-03  2880   0.343E-02 0.697E-03
SDA:  37    -0.100314129310E+04   -0.16346E-03   -0.17306E-03  2880   0.384E-02 0.359E-03
CGA:  38    -0.100314153790E+04   -0.24480E-03   -0.24188E-03  2880   0.126E-02-0.132E-03
CGA:  39    -0.100314180941E+04   -0.27151E-03   -0.25021E-03  2880   0.216E-02 0.164E-03
CGA:  40    -0.100314218355E+04   -0.37415E-03   -0.34278E-03  2880   0.365E-03 0.636E-03
CGA:  41    -0.100314229155E+04   -0.10800E-03   -0.20605E-03  2880   0.466E-02-0.257E-03
CGA:  42    -0.100314248545E+04   -0.19390E-03   -0.19738E-03  2880   0.261E-03 0.967E-04
CGA:  43    -0.100314252555E+04   -0.40094E-04   -0.38955E-04  2880   0.176E-03 0.305E-04
CGA:  44    -0.100314256968E+04   -0.44137E-04    0.50434E-03  2880   0.164E-03 0.116E-03
CGA:  45    -0.100314259529E+04   -0.25612E-04   -0.32405E-04  2880   0.516E-03-0.801E-04
CGA:  46    -0.100314262407E+04   -0.28773E-04   -0.27320E-04  2880   0.821E-03-0.141E-03
CGA:  47    -0.100314269217E+04   -0.68106E-04   -0.45176E-04  2880   0.103E-02 0.819E-04
CGA:  48    -0.100314270366E+04   -0.11486E-04   -0.66668E-05  2880   0.938E-03 0.961E-03
CGA:  49    -0.100314277455E+04   -0.70893E-04   -0.73588E-04  2880   0.224E-03 0.906E-04
CGA:  50    -0.100314278588E+04   -0.11331E-04   -0.12899E-04  2880   0.203E-04 0.307E-04
CGA:  51    -0.100314278735E+04   -0.14686E-05   -0.18428E-05  2880   0.156E-04 0.167E-04
   1 F= -.10031428E+04 E0= -.10031271E+04  d E =-.100314E+04  mag=     1.0000
       N       E                     dE             d eps       ncg     rms          ort
SDA:   1    -0.100318295060E+04   -0.40165E-01    0.00000E+00  2880   0.102E-01 0.000E+00
CGA:   2    -0.100318356371E+04   -0.61311E-03   -0.61245E-03  2880   0.601E-02 0.335E-04
CGA:   3    -0.100318500559E+04   -0.14419E-02   -0.14322E-02  2880   0.924E-03 0.680E-04
CGA:   4    -0.100318514240E+04   -0.13681E-03   -0.13513E-03  2880   0.590E-03 0.421E-04
CGA:   5    -0.100318521507E+04   -0.72672E-04   -0.73618E-04  2880   0.405E-03-0.905E-04
CGA:   6    -0.100318523681E+04   -0.21733E-04   -0.22056E-04  2880   0.950E-04 0.639E-05
CGA:   7    -0.100318524070E+04   -0.38952E-05   -0.54615E-05  2880   0.382E-04 0.309E-04
   2 F= -.10031852E+04 E0= -.10031695E+04  d E =-.424533E-01  mag=     0.9993
       N       E                     dE             d eps       ncg     rms          ort
SDA:   1    -0.100235939363E+04    0.82584E+00    0.00000E+00  2880   0.455E+01 0.000E+00
CGA:   2    -0.100346545249E+04   -0.11061E+01   -0.95801E+00  2880   0.195E+01 0.123E+01
CGA:   3    -0.100380101137E+04   -0.33556E+00   -0.34605E+00  2880   0.250E+01-0.258E+00
CGA:   4    -0.100394466850E+04   -0.14366E+00   -0.14904E+00  2880   0.161E+01-0.322E-01
CGA:   5    -0.100400370756E+04   -0.59039E-01   -0.62722E-01  2880   0.644E+00-0.948E-01
CGA:   6    -0.100404438114E+04   -0.40674E-01   -0.41138E-01  2880   0.247E+00-0.312E-02
CGA:   7    -0.100405752107E+04   -0.13140E-01   -0.11965E-01  2880   0.136E+00 0.152E-01
CGA:   8    -0.100406800099E+04   -0.10480E-01   -0.10655E-01  2880   0.156E+00 0.187E-02
CGA:   9    -0.100407837990E+04   -0.10379E-01   -0.10518E-01  2880   0.113E+00-0.565E-03
CGA:  10    -0.100408525263E+04   -0.68727E-02   -0.69480E-02  2880   0.347E-01-0.170E-02
CGA:  11    -0.100408704466E+04   -0.17920E-02   -0.17743E-02  2880   0.222E-01-0.254E-03
CGA:  12    -0.100408920451E+04   -0.21598E-02   -0.21592E-02  2880   0.238E-01 0.352E-03
CGA:  13    -0.100409051949E+04   -0.13150E-02   -0.13423E-02  2880   0.137E-01 0.509E-03
CGA:  14    -0.100409187131E+04   -0.13518E-02   -0.13503E-02  2880   0.151E-01 0.183E-03
CGA:  15    -0.100409259481E+04   -0.72349E-03   -0.71786E-03  2880   0.300E-02-0.188E-03
CGA:  16    -0.100409282125E+04   -0.22644E-03   -0.22454E-03  2880   0.382E-02-0.154E-03
CGA:  17    -0.100409318416E+04   -0.36292E-03   -0.36401E-03  2880   0.269E-02-0.123E-03
CGA:  18    -0.100409330208E+04   -0.11791E-03   -0.12051E-03  2880   0.115E-02 0.465E-04
CGA:  19    -0.100409339092E+04   -0.88841E-04   -0.89664E-04  2880   0.857E-03 0.724E-04
CGA:  20    -0.100409344710E+04   -0.56180E-04   -0.55366E-04  2880   0.484E-03-0.358E-04
CGA:  21    -0.100409349432E+04   -0.47218E-04   -0.49373E-04  2880   0.593E-03-0.106E-03
CGA:  22    -0.100409352026E+04   -0.25947E-04   -0.27248E-04  2880   0.399E-03 0.449E-04
CGA:  23    -0.100409353397E+04   -0.13710E-04   -0.18076E-04  2880   0.136E-03 0.100E-03
CGA:  24    -0.100409353839E+04   -0.44150E-05   -0.63393E-05  2880   0.579E-04 0.416E-04
   3 F= -.10040935E+04 E0= -.10040778E+04  d E =-.908298E+00  mag=     0.9991
       N       E                     dE             d eps       ncg     rms          ort
SDA:   1    -0.100078696956E+04    0.33066E+01    0.00000E+00  2880   0.324E+02 0.000E+00
CGA:   2    -0.100302077740E+04   -0.22338E+01   -0.23093E+01  2880   0.439E+01 0.104E+01
CGA:   3    -0.100404841185E+04   -0.10276E+01   -0.89560E+00  2880   0.236E+01 0.118E+01
CGA:   4    -0.100429641667E+04   -0.24800E+00   -0.48429E+00  2880   0.645E+01-0.268E+01
CGA:   5    -0.100457256976E+04   -0.27615E+00   -0.31455E+00  2880   0.577E+00-0.711E+00
CGA:   6    -0.100461457215E+04   -0.42002E-01   -0.41957E-01  2880   0.285E+00-0.468E-02
CGA:   7    -0.100466346672E+04   -0.48895E-01   -0.48972E-01  2880   0.249E+00-0.109E-02
CGA:   8    -0.100469391069E+04   -0.30444E-01   -0.30613E-01  2880   0.108E+00-0.369E-02
CGA:   9    -0.100470361003E+04   -0.96993E-02   -0.97030E-02  2880   0.537E-01 0.815E-03
CGA:  10    -0.100470947253E+04   -0.58625E-02   -0.58490E-02  2880   0.231E-01 0.614E-03
CGA:  11    -0.100471259514E+04   -0.31226E-02   -0.30806E-02  2880   0.108E-01 0.955E-03
CGA:  12    -0.100471398666E+04   -0.13915E-02   -0.14157E-02  2880   0.779E-02-0.876E-03
CGA:  13    -0.100471468736E+04   -0.70070E-03   -0.70046E-03  2880   0.416E-02-0.527E-03
CGA:  14    -0.100471530821E+04   -0.62085E-03   -0.60475E-03  2880   0.206E-02 0.280E-03
CGA:  15    -0.100471558317E+04   -0.27496E-03   -0.27570E-03  2880   0.126E-02-0.484E-04
CGA:  16    -0.100471571188E+04   -0.12871E-03   -0.12843E-03  2880   0.578E-03 0.148E-03
CGA:  17    -0.100471576927E+04   -0.57389E-04   -0.58219E-04  2880   0.231E-03 0.621E-04
CGA:  18    -0.100471577871E+04   -0.94404E-05   -0.99921E-04  2880   0.145E-02-0.315E-03
CGA:  19    -0.100471583993E+04   -0.61220E-04   -0.70726E-04  2880   0.166E-03 0.118E-03
CGA:  20    -0.100471584791E+04   -0.79810E-05   -0.11123E-04  2880   0.607E-04 0.619E-04
   4 F= -.10047158E+04 E0= -.10046999E+04  d E =-.622310E+00  mag=     0.9992
       N       E                     dE             d eps       ncg     rms          ort
SDA:   1    -0.100167362757E+04    0.30422E+01    0.00000E+00  2880   0.154E+02 0.000E+00
CGA:   2    -0.100347222489E+04   -0.17986E+01   -0.19613E+01  2880   0.893E+01-0.356E+01
CGA:   3    -0.100402560995E+04   -0.55339E+00   -0.60434E+00  2880   0.640E+01 0.455E+00
CGA:   4    -0.100463124801E+04   -0.60564E+00   -0.32482E+00  2880   0.160E+01 0.279E+01
CGA:   5    -0.100471207454E+04   -0.80827E-01   -0.84123E-01  2880   0.147E+01-0.196E+00
CGA:   6    -0.100476403543E+04   -0.51961E-01   -0.59562E-01  2880   0.203E+01-0.105E+00
CGA:   7    -0.100481742839E+04   -0.53393E-01   -0.55405E-01  2880   0.158E+01-0.112E+00
CGA:   8    -0.100486611040E+04   -0.48682E-01   -0.59510E-01  2880   0.156E+01-0.214E+00
CGA:   9    -0.100491572902E+04   -0.49619E-01   -0.48591E-01  2880   0.150E+01 0.140E-01
CGA:  10    -0.100495276429E+04   -0.37035E-01   -0.31672E-01  2880   0.805E+00 0.174E+00
CGA:  11    -0.100497097023E+04   -0.18206E-01   -0.17806E-01  2880   0.464E+00 0.961E-02
CGA:  12    -0.100497997313E+04   -0.90029E-02   -0.90823E-02  2880   0.314E+00-0.112E-01
CGA:  13    -0.100498561053E+04   -0.56374E-02   -0.75675E-02  2880   0.235E+00-0.653E-01
CGA:  14    -0.100499009562E+04   -0.44851E-02   -0.62460E-02  2880   0.150E+00-0.338E-01
CGA:  15    -0.100499406692E+04   -0.39713E-02   -0.40935E-02  2880   0.919E-01-0.346E-02
CGA:  16    -0.100499901053E+04   -0.49436E-02   -0.50442E-02  2880   0.133E+00 0.235E-02
CGA:  17    -0.100500517612E+04   -0.61656E-02   -0.54673E-02  2880   0.871E-01 0.120E-01
CGA:  18    -0.100500783528E+04   -0.26592E-02   -0.26786E-02  2880   0.584E-01 0.275E-02
CGA:  19    -0.100501002958E+04   -0.21943E-02   -0.22160E-02  2880   0.573E-01 0.365E-04
CGA:  20    -0.100501194538E+04   -0.19158E-02   -0.18806E-02  2880   0.484E-01-0.103E-02
CGA:  21    -0.100501355007E+04   -0.16047E-02   -0.16696E-02  2880   0.377E-01-0.272E-02
CGA:  22    -0.100501483041E+04   -0.12803E-02   -0.12855E-02  2880   0.277E-01-0.130E-02
CGA:  23    -0.100501588243E+04   -0.10520E-02   -0.10888E-02  2880   0.214E-01-0.263E-03
CGA:  24    -0.100501671431E+04   -0.83188E-03   -0.84652E-03  2880   0.117E-01 0.612E-03
CGA:  25    -0.100501713278E+04   -0.41847E-03   -0.42982E-03  2880   0.686E-02 0.703E-03
CGA:  26    -0.100501743708E+04   -0.30429E-03   -0.31188E-03  2880   0.569E-02 0.388E-03
CGA:  27    -0.100501774530E+04   -0.30822E-03   -0.30767E-03  2880   0.577E-02-0.782E-04
CGA:  28    -0.100501804208E+04   -0.29678E-03   -0.29488E-03  2880   0.542E-02-0.384E-03
CGA:  29    -0.100501826350E+04   -0.22142E-03   -0.21667E-03  2880   0.405E-02-0.326E-03
CGA:  30    -0.100501843334E+04   -0.16984E-03   -0.17038E-03  2880   0.384E-02-0.102E-04
CGA:  31    -0.100501859744E+04   -0.16410E-03   -0.16737E-03  2880   0.260E-02 0.222E-03
SDA:  32    -0.100501868749E+04   -0.90052E-04   -0.93315E-04  2880   0.108E-02 0.116E-03
CGA:  33    -0.100501878780E+04   -0.10031E-03   -0.11984E-03  2880   0.806E-03-0.352E-03
CGA:  34    -0.100501885725E+04   -0.69457E-04   -0.84917E-04  2880   0.119E-02-0.159E-03
CGA:  35    -0.100501895697E+04   -0.99720E-04   -0.95379E-04  2880   0.161E-03 0.113E-03
CGA:  36    -0.100501896703E+04   -0.10057E-04   -0.10264E-04  2880   0.742E-04 0.335E-04
CGA:  37    -0.100501898125E+04   -0.14218E-04   -0.12171E-04  2880   0.681E-04 0.281E-04
CGA:  38    -0.100501899369E+04   -0.12442E-04   -0.13891E-04  2880   0.115E-03-0.186E-04
CGA:  39    -0.100501899869E+04   -0.49935E-05   -0.51263E-05  2880   0.827E-04 0.128E-04
   5 F= -.10050190E+04 E0= -.10050030E+04  d E =-.303151E+00  mag=     0.9996
       N       E                     dE             d eps       ncg     rms          ort
SDA:   1    -0.100139401848E+04    0.36250E+01    0.00000E+00  2880   0.171E+02 0.000E+00
CGA:   2    -0.100275879964E+04   -0.13648E+01   -0.31025E+01  2880   0.172E+02-0.370E+01
CGA:   3    -0.100361003813E+04   -0.85124E+00   -0.86988E+00  2880   0.103E+02 0.320E+00
CGA:   4    -0.100450732587E+04   -0.89729E+00   -0.88971E+00  2880   0.819E+01 0.449E+00
CGA:   5    -0.100473797865E+04   -0.23065E+00   -0.22068E+00  2880   0.404E+01-0.805E+00
CGA:   6    -0.100484973755E+04   -0.11176E+00   -0.14593E+00  2880   0.434E+01-0.352E+00
CGA:   7    -0.100499324608E+04   -0.14351E+00   -0.13802E+00  2880   0.121E+01-0.139E+00
CGA:   8    -0.100503392448E+04   -0.40678E-01   -0.42487E-01  2880   0.824E+00-0.268E-01
CGA:   9    -0.100508519032E+04   -0.51266E-01   -0.65718E-01  2880   0.133E+01-0.709E+00
CGA:  10    -0.100514289400E+04   -0.57704E-01   -0.57596E-01  2880   0.870E-01-0.196E-01
CGA:  11    -0.100515065470E+04   -0.77607E-02   -0.78343E-02  2880   0.617E-01-0.345E-02
CGA:  12    -0.100516782664E+04   -0.17172E-01   -0.16858E-01  2880   0.543E-01 0.188E-02
CGA:  13    -0.100517335308E+04   -0.55264E-02   -0.56160E-02  2880   0.110E-01-0.216E-02
CGA:  14    -0.100517486902E+04   -0.15159E-02   -0.14534E-02  2880   0.134E-01 0.995E-03
CGA:  15    -0.100517712238E+04   -0.22534E-02   -0.22108E-02  2880   0.862E-02 0.576E-03
CGA:  16    -0.100517798110E+04   -0.85872E-03   -0.85667E-03  2880   0.300E-02 0.116E-03
CGA:  17    -0.100517839316E+04   -0.41206E-03   -0.40210E-03  2880   0.130E-02 0.175E-03
CGA:  18    -0.100517864160E+04   -0.24844E-03   -0.28460E-03  2880   0.301E-02-0.314E-03
CGA:  19    -0.100517883193E+04   -0.19033E-03   -0.18968E-03  2880   0.723E-03-0.599E-04
CGA:  20    -0.100517886311E+04   -0.31184E-04   -0.37045E-04  2880   0.382E-03 0.138E-03
CGA:  21    -0.100517889033E+04   -0.27214E-04   -0.31297E-04  2880   0.275E-03 0.172E-03
CGA:  22    -0.100517892044E+04   -0.30109E-04   -0.31302E-04  2880   0.254E-03 0.920E-04
CGA:  23    -0.100517895858E+04   -0.38149E-04   -0.37637E-04  2880   0.128E-03 0.249E-04
CGA:  24    -0.100517896712E+04   -0.85332E-05   -0.87822E-05  2880   0.874E-04 0.776E-05
CGA:  25    -0.100517898466E+04   -0.17543E-04   -0.17551E-04  2880   0.161E-03 0.958E-07
CGA:  26    -0.100517899920E+04   -0.14542E-04   -0.14066E-04  2880   0.981E-04-0.646E-04
CGA:  27    -0.100517901088E+04   -0.11679E-04    0.52623E-04  2880   0.622E-04-0.292E-04
CGA:  28    -0.100517887025E+04    0.14063E-03   -0.75682E-04  2880   0.262E-02-0.331E-03
CGA:  29    -0.100517899203E+04   -0.12177E-03   -0.12913E-03  2880   0.277E-03 0.566E-04
CGA:  30    -0.100517900355E+04   -0.11526E-04   -0.19256E-04  2880   0.589E-04 0.800E-04
CGA:  31    -0.100517900489E+04   -0.13335E-05   -0.47375E-05  2880   0.327E-04 0.343E-04
   6 F= -.10051790E+04 E0= -.10051635E+04  d E =-.160006E+00  mag=     0.9997
       N       E                     dE             d eps       ncg     rms          ort
SDA:   1    -0.999982844413E+03    0.51962E+01    0.00000E+00  2880   0.177E+02 0.000E+00
CGA:   2    -0.100245593172E+04   -0.24731E+01   -0.24642E+01  2880   0.109E+02-0.139E+01
CGA:   3    -0.100372546772E+04   -0.12695E+01   -0.21910E+01  2880   0.126E+02-0.698E+01
CGA:   4    -0.100428112880E+04   -0.55566E+00   -0.10549E+01  2880   0.713E+01-0.424E+01
CGA:   5    -0.100458549428E+04   -0.30437E+00   -0.41013E+00  2880   0.103E+02-0.369E+00
CGA:   6    -0.100478221862E+04   -0.19672E+00   -0.42213E+00  2880   0.782E+01-0.127E+02
CGA:   7    -0.100485522090E+04   -0.73002E-01   -0.50443E+00  2880   0.747E+01-0.466E+01
CGA:   8    -0.100505534615E+04   -0.20013E+00   -0.38781E+00  2880   0.317E+01-0.444E+01
CGA:   9    -0.100514173567E+04   -0.86390E-01   -0.14840E+00  2880   0.745E+00-0.130E+01
CGA:  10    -0.100517818308E+04   -0.36447E-01   -0.36155E-01  2880   0.122E+00-0.115E-01
CGA:  11    -0.100519296952E+04   -0.14786E-01   -0.14938E-01  2880   0.163E+00 0.107E-01
CGA:  12    -0.100522334695E+04   -0.30377E-01   -0.30636E-01  2880   0.154E+00-0.534E-02
CGA:  13    -0.100523638689E+04   -0.13040E-01   -0.14734E-01  2880   0.265E-01 0.129E-01
CGA:  14    -0.100523904995E+04   -0.26631E-02   -0.26634E-02  2880   0.165E-01-0.604E-03
CGA:  15    -0.100524138646E+04   -0.23365E-02   -0.23296E-02  2880   0.897E-02 0.169E-03
CGA:  16    -0.100524250674E+04   -0.11203E-02   -0.11264E-02  2880   0.467E-02 0.885E-03
CGA:  17    -0.100524305104E+04   -0.54430E-03   -0.54889E-03  2880   0.136E-02 0.196E-03
CGA:  18    -0.100524341821E+04   -0.36717E-03   -0.33033E-03  2880   0.162E-02 0.346E-03
CGA:  19    -0.100524368810E+04   -0.26989E-03   -0.26950E-03  2880   0.119E-02-0.198E-03
CGA:  20    -0.100524379405E+04   -0.10595E-03   -0.10962E-03  2880   0.358E-03 0.114E-03
CGA:  21    -0.100524381653E+04   -0.22481E-04   -0.32007E-04  2880   0.155E-03 0.183E-03
CGA:  22    -0.100524384945E+04   -0.32914E-04   -0.36499E-04  2880   0.420E-03-0.346E-04
CGA:  23    -0.100524386585E+04   -0.16399E-04   -0.24375E-04  2880   0.213E-03 0.129E-03
CGA:  24    -0.100524387080E+04   -0.49517E-05   -0.12422E-04  2880   0.674E-04 0.814E-04
   7 F= -.10052439E+04 E0= -.10052296E+04  d E =-.648659E-01  mag=     0.9997
       N       E                     dE             d eps       ncg     rms          ort
SDA:   1    -0.100281464170E+04    0.24292E+01    0.00000E+00  2880   0.638E+01 0.000E+00
CGA:   2    -0.100410412415E+04   -0.12895E+01   -0.12785E+01  2880   0.113E+02 0.259E+00
CGA:   3    -0.100491490361E+04   -0.81078E+00   -0.91208E+00  2880   0.258E+01-0.645E+00
CGA:   4    -0.100511473758E+04   -0.19983E+00   -0.18926E+00  2880   0.721E+00-0.246E-01
CGA:   5    -0.100523177772E+04   -0.11704E+00   -0.11768E+00  2880   0.349E+00-0.122E-01
CGA:   6    -0.100526848828E+04   -0.36711E-01   -0.35945E-01  2880   0.821E-01-0.946E-02
CGA:   7    -0.100527677320E+04   -0.82849E-02   -0.82940E-02  2880   0.599E-01 0.916E-03
CGA:   8    -0.100528496233E+04   -0.81891E-02   -0.81896E-02  2880   0.245E-01-0.130E-03
CGA:   9    -0.100528686808E+04   -0.19057E-02   -0.18946E-02  2880   0.744E-02-0.660E-03
CGA:  10    -0.100528875990E+04   -0.18918E-02   -0.17776E-02  2880   0.295E-02 0.927E-03
CGA:  11    -0.100528925546E+04   -0.49555E-03   -0.50581E-03  2880   0.391E-02-0.470E-03
CGA:  12    -0.100528964944E+04   -0.39399E-03   -0.39362E-03  2880   0.139E-02-0.387E-04
CGA:  13    -0.100528973910E+04   -0.89654E-04   -0.10507E-03  2880   0.688E-03 0.275E-03
CGA:  14    -0.100528983181E+04   -0.92709E-04   -0.95204E-04  2880   0.343E-03 0.222E-03
CGA:  15    -0.100528988652E+04   -0.54719E-04   -0.54493E-04  2880   0.455E-03-0.376E-04
CGA:  16    -0.100528992991E+04   -0.43382E-04   -0.42894E-04  2880   0.211E-03-0.244E-04
CGA:  17    -0.100528993784E+04   -0.79347E-05   -0.10380E-04  2880   0.105E-03 0.316E-04
   8 F= -.10052899E+04 E0= -.10052757E+04  d E =-.460670E-01  mag=     0.9994
       N       E                     dE             d eps       ncg     rms          ort
SDA:   1    -0.100457465269E+04    0.71528E+00    0.00000E+00  2880   0.232E+01 0.000E+00
CGA:   2    -0.100488341774E+04   -0.30877E+00   -0.30390E+00  2880   0.225E+01 0.243E+00
CGA:   3    -0.100520868737E+04   -0.32527E+00   -0.33490E+00  2880   0.119E+01-0.391E+00
CGA:   4    -0.100527866698E+04   -0.69980E-01   -0.71714E-01  2880   0.235E+00-0.918E-02
CGA:   5    -0.100530939263E+04   -0.30726E-01   -0.30561E-01  2880   0.143E+00 0.727E-02
CGA:   6    -0.100532791063E+04   -0.18518E-01   -0.18529E-01  2880   0.283E-01-0.867E-03
CGA:   7    -0.100533133915E+04   -0.34285E-02   -0.34301E-02  2880   0.188E-01-0.374E-03
CGA:   8    -0.100533372877E+04   -0.23896E-02   -0.23872E-02  2880   0.117E-01 0.277E-03
CGA:   9    -0.100533454460E+04   -0.81583E-03   -0.83361E-03  2880   0.278E-02 0.297E-03
CGA:  10    -0.100533515841E+04   -0.61381E-03   -0.64064E-03  2880   0.368E-02-0.264E-03
CGA:  11    -0.100533554995E+04   -0.39153E-03   -0.39126E-03  2880   0.741E-03-0.609E-04
CGA:  12    -0.100533566778E+04   -0.11783E-03   -0.11328E-03  2880   0.521E-03 0.137E-03
CGA:  13    -0.100533573041E+04   -0.62632E-04   -0.64210E-04  2880   0.413E-03 0.773E-04
CGA:  14    -0.100533578535E+04   -0.54933E-04   -0.55332E-04  2880   0.111E-03 0.607E-04
CGA:  15    -0.100533556243E+04    0.22292E-03   -0.12416E-03  2880   0.364E-02-0.478E-03
CGA:  16    -0.100533575164E+04   -0.18922E-03   -0.21235E-03  2880   0.615E-03 0.270E-03
CGA:  17    -0.100533578464E+04   -0.33001E-04   -0.46977E-04  2880   0.138E-03 0.120E-03
CGA:  18    -0.100533579461E+04   -0.99643E-05   -0.13948E-04  2880   0.667E-04 0.333E-04
CGA:  19    -0.100533581006E+04   -0.15451E-04   -0.15381E-04  2880   0.107E-03-0.458E-05
CGA:  20    -0.100533582229E+04   -0.12233E-04   -0.91930E-05  2880   0.550E-04-0.281E-04
CGA:  21    -0.100533582959E+04   -0.72987E-05   -0.54078E-05  2880   0.212E-04-0.305E-04
   9 F= -.10053358E+04 E0= -.10053214E+04  d E =-.458918E-01  mag=     0.9994
       N       E                     dE             d eps       ncg     rms          ort
SDA:   1    -0.100509917100E+04    0.23665E+00    0.00000E+00  2880   0.718E+00 0.000E+00
CGA:   2    -0.100523375463E+04   -0.13458E+00   -0.13469E+00  2880   0.784E+00 0.512E-01
CGA:   3    -0.100532975581E+04   -0.96001E-01   -0.95560E-01  2880   0.170E+00-0.484E-02
CGA:   4    -0.100534873154E+04   -0.18976E-01   -0.19840E-01  2880   0.507E-01-0.177E-02
CGA:   5    -0.100535736775E+04   -0.86362E-02   -0.86245E-02  2880   0.285E-01-0.334E-03
CGA:   6    -0.100535914427E+04   -0.17765E-02   -0.16825E-02  2880   0.617E-02 0.888E-03
CGA:   7    -0.100536029102E+04   -0.11467E-02   -0.11486E-02  2880   0.430E-02-0.377E-03
CGA:   8    -0.100536076910E+04   -0.47809E-03   -0.48002E-03  2880   0.164E-02 0.154E-04
CGA:   9    -0.100536089800E+04   -0.12889E-03   -0.14453E-03  2880   0.487E-03 0.179E-03
CGA:  10    -0.100536097876E+04   -0.80758E-04   -0.81743E-04  2880   0.674E-03 0.576E-04
CGA:  11    -0.100536107223E+04   -0.93471E-04   -0.90700E-04  2880   0.239E-03-0.613E-04
CGA:  12    -0.100536110822E+04   -0.35997E-04   -0.36023E-04  2880   0.129E-03-0.248E-04
CGA:  13    -0.100536112343E+04   -0.15204E-04   -0.14313E-04  2880   0.161E-03-0.218E-04
CGA:  14    -0.100536114196E+04   -0.18535E-04   -0.18275E-04  2880   0.235E-04-0.104E-04
CGA:  15    -0.100536114234E+04   -0.37304E-06   -0.15459E-05  2880   0.115E-04 0.129E-04
  10 F= -.10053611E+04 E0= -.10053467E+04  d E =-.253127E-01  mag=     0.9995
       N       E                     dE             d eps       ncg     rms          ort
SDA:   1    -0.100199752280E+04    0.33636E+01    0.00000E+00  2880   0.132E+02 0.000E+00
CGA:   2    -0.100344800858E+04   -0.14505E+01   -0.16616E+01  2880   0.691E+01 0.217E+01
CGA:   3    -0.100468832886E+04   -0.12403E+01   -0.12409E+01  2880   0.634E+01-0.469E+00
CGA:   4    -0.100508554124E+04   -0.39721E+00   -0.43899E+00  2880   0.327E+01-0.572E+00
CGA:   5    -0.100523720908E+04   -0.15167E+00   -0.18160E+00  2880   0.120E+01-0.567E+00
CGA:   6    -0.100529029192E+04   -0.53083E-01   -0.57711E-01  2880   0.779E+00-0.678E-01
CGA:   7    -0.100534003669E+04   -0.49745E-01   -0.46706E-01  2880   0.369E+00 0.180E-01
CGA:   8    -0.100536367826E+04   -0.23642E-01   -0.24257E-01  2880   0.177E+00-0.958E-02
CGA:   9    -0.100538057929E+04   -0.16901E-01   -0.17159E-01  2880   0.120E+00 0.739E-03
CGA:  10    -0.100538634815E+04   -0.57689E-02   -0.60921E-02  2880   0.442E-01-0.433E-02
CGA:  11    -0.100539031397E+04   -0.39658E-02   -0.39546E-02  2880   0.340E-01 0.904E-05
CGA:  12    -0.100539268302E+04   -0.23690E-02   -0.24065E-02  2880   0.179E-01 0.206E-03
CGA:  13    -0.100539439622E+04   -0.17132E-02   -0.17320E-02  2880   0.116E-01 0.389E-03
CGA:  14    -0.100539522616E+04   -0.82994E-03   -0.83087E-03  2880   0.616E-02-0.228E-03
CGA:  15    -0.100539574696E+04   -0.52080E-03   -0.51245E-03  2880   0.372E-02-0.281E-03
CGA:  16    -0.100539606528E+04   -0.31832E-03   -0.32488E-03  2880   0.307E-02 0.201E-03
CGA:  17    -0.100539628357E+04   -0.21829E-03   -0.23226E-03  2880   0.947E-03 0.258E-03
CGA:  18    -0.100539640449E+04   -0.12092E-03   -0.12127E-03  2880   0.131E-02-0.954E-04
CGA:  19    -0.100539651592E+04   -0.11143E-03   -0.10876E-03  2880   0.742E-03-0.124E-03
CGA:  20    -0.100539655196E+04   -0.36033E-04   -0.41028E-04  2880   0.324E-03 0.858E-04
CGA:  21    -0.100539656507E+04   -0.13109E-04   -0.18061E-04  2880   0.113E-03 0.778E-04
CGA:  22    -0.100539657507E+04   -0.10006E-04   -0.10825E-04  2880   0.123E-03 0.260E-04
CGA:  23    -0.100539659484E+04   -0.19764E-04   -0.20197E-04  2880   0.196E-03-0.165E-04
CGA:  24    -0.100539660731E+04   -0.12477E-04   -0.12193E-04  2880   0.127E-03-0.853E-05
CGA:  25    -0.100539661172E+04   -0.44020E-05   -0.47861E-05  2880   0.297E-04 0.527E-05
  11 F= -.10053966E+04 E0= -.10053824E+04  d E =-.354694E-01  mag=     0.9994
       N       E                     dE             d eps       ncg     rms          ort
SDA:   1    -0.998134476133E+03    0.72621E+01    0.00000E+00  2880   0.245E+02 0.000E+00
CGA:   2    -0.100133196977E+04   -0.31975E+01   -0.29975E+01  2880   0.123E+02 0.636E+01
CGA:   3    -0.100415595580E+04   -0.28240E+01   -0.32848E+01  2880   0.678E+01-0.174E+01
CGA:   4    -0.100452983216E+04   -0.37388E+00   -0.82387E+00  2880   0.133E+02-0.718E+01
CGA:   5    -0.100501092353E+04   -0.48109E+00   -0.80885E+00  2880   0.242E+01-0.183E+01
CGA:   6    -0.100522108937E+04   -0.21017E+00   -0.19982E+00  2880   0.856E+00-0.435E+00
CGA:   7    -0.100531483782E+04   -0.93748E-01   -0.10232E+00  2880   0.531E+00-0.163E+00
CGA:   8    -0.100534629801E+04   -0.31460E-01   -0.31718E-01  2880   0.656E-01-0.315E-02
CGA:   9    -0.100535484894E+04   -0.85509E-02   -0.84073E-02  2880   0.366E-01 0.509E-02
CGA:  10    -0.100536382429E+04   -0.89753E-02   -0.91769E-02  2880   0.315E-01-0.170E-02
CGA:  11    -0.100536632949E+04   -0.25052E-02   -0.25834E-02  2880   0.117E-01 0.114E-02
CGA:  12    -0.100536799248E+04   -0.16630E-02   -0.16646E-02  2880   0.790E-02-0.171E-03
CGA:  13    -0.100536916776E+04   -0.11753E-02   -0.11953E-02  2880   0.757E-02-0.516E-03
CGA:  14    -0.100536980741E+04   -0.63965E-03   -0.64742E-03  2880   0.133E-02 0.322E-03
CGA:  15    -0.100536997069E+04   -0.16328E-03   -0.16183E-03  2880   0.456E-03 0.487E-03
CGA:  16    -0.100537010907E+04   -0.13838E-03   -0.12585E-03  2880   0.631E-03 0.141E-03
CGA:  17    -0.100537019327E+04   -0.84205E-04   -0.85254E-04  2880   0.186E-03 0.682E-04
CGA:  18    -0.100537022986E+04   -0.36587E-04   -0.53727E-04  2880   0.718E-03-0.120E-03
CGA:  19    -0.100537026423E+04   -0.34374E-04   -0.35847E-04  2880   0.798E-04 0.877E-05
CGA:  20    -0.100537026899E+04   -0.47597E-05   -0.64518E-05  2880   0.380E-04 0.416E-04
  12 F= -.10053703E+04 E0= -.10053564E+04  d E =0.263427E-01  mag=     0.9993
       N       E                     dE             d eps       ncg     rms          ort
SDA:   1    -0.100454131075E+04    0.82895E+00    0.00000E+00  2880   0.215E+01 0.000E+00
CGA:   2    -0.100509051519E+04   -0.54920E+00   -0.57648E+00  2880   0.453E+01-0.175E+00
CGA:   3    -0.100530880650E+04   -0.21829E+00   -0.25384E+00  2880   0.536E+00-0.368E+00
CGA:   4    -0.100536793181E+04   -0.59125E-01   -0.59166E-01  2880   0.419E+00 0.255E-02
CGA:   5    -0.100541292474E+04   -0.44993E-01   -0.45066E-01  2880   0.706E-01 0.260E-02
CGA:   6    -0.100541868308E+04   -0.57583E-02   -0.58763E-02  2880   0.506E-01 0.145E-03
CGA:   7    -0.100542636380E+04   -0.76807E-02   -0.76652E-02  2880   0.133E-01 0.249E-03
CGA:   8    -0.100542760937E+04   -0.12456E-02   -0.12505E-02  2880   0.617E-02 0.132E-03
CGA:   9    -0.100542873170E+04   -0.11223E-02   -0.11566E-02  2880   0.718E-02-0.549E-03
CGA:  10    -0.100542922513E+04   -0.49343E-03   -0.49588E-03  2880   0.204E-02 0.472E-04
CGA:  11    -0.100542939693E+04   -0.17180E-03   -0.18426E-03  2880   0.979E-03 0.387E-03
CGA:  12    -0.100542954900E+04   -0.15207E-03   -0.15055E-03  2880   0.116E-02 0.158E-03
CGA:  13    -0.100542968867E+04   -0.13968E-03   -0.13898E-03  2880   0.383E-03-0.447E-04
CGA:  14    -0.100542974200E+04   -0.53328E-04   -0.56129E-04  2880   0.330E-03-0.856E-04
CGA:  15    -0.100542977449E+04   -0.32485E-04   -0.49235E-04  2880   0.476E-03-0.237E-03
CGA:  16    -0.100542979260E+04   -0.18113E-04   -0.24395E-04  2880   0.105E-03 0.840E-04
CGA:  17    -0.100542979709E+04   -0.44863E-05   -0.81405E-05  2880   0.551E-04 0.673E-04
  13 F= -.10054298E+04 E0= -.10054161E+04  d E =-.595281E-01  mag=     0.9993
       N       E                     dE             d eps       ncg     rms          ort
SDA:   1    -0.100537988013E+04    0.49912E-01    0.00000E+00  2880   0.270E+00 0.000E+00
CGA:   2    -0.100539692258E+04   -0.17042E-01   -0.18495E-01  2880   0.153E+00-0.759E-02
CGA:   3    -0.100542832165E+04   -0.31399E-01   -0.31363E-01  2880   0.607E-01 0.199E-03
CGA:   4    -0.100543245494E+04   -0.41333E-02   -0.40828E-02  2880   0.130E-01 0.126E-02
CGA:   5    -0.100543552759E+04   -0.30727E-02   -0.31216E-02  2880   0.507E-02-0.428E-03
CGA:   6    -0.100543588483E+04   -0.35724E-03   -0.35705E-03  2880   0.217E-02-0.857E-04
CGA:   7    -0.100543619519E+04   -0.31035E-03   -0.31007E-03  2880   0.100E-02 0.110E-05
CGA:   8    -0.100543631841E+04   -0.12322E-03   -0.12320E-03  2880   0.271E-03 0.389E-04
CGA:   9    -0.100543635448E+04   -0.36072E-04   -0.36031E-04  2880   0.259E-03 0.611E-05
CGA:  10    -0.100543639877E+04   -0.44289E-04   -0.60767E-04  2880   0.443E-03-0.155E-03
CGA:  11    -0.100543641591E+04   -0.17145E-04   -0.20663E-04  2880   0.690E-04 0.427E-04
CGA:  12    -0.100543641758E+04   -0.16688E-05   -0.45409E-05  2880   0.342E-04 0.457E-04
  14 F= -.10054364E+04 E0= -.10054227E+04  d E =-.662049E-02  mag=     0.9994
       N       E                     dE             d eps       ncg     rms          ort
SDA:   1    -0.100525615915E+04    0.18026E+00    0.00000E+00  2880   0.443E+00 0.000E+00
CGA:   2    -0.100538637863E+04   -0.13022E+00   -0.12883E+00  2880   0.597E+00 0.837E-02
CGA:   3    -0.100542309645E+04   -0.36718E-01   -0.35511E-01  2880   0.649E-01 0.816E-02
CGA:   4    -0.100543633257E+04   -0.13236E-01   -0.13406E-01  2880   0.414E-01-0.217E-02
CGA:   5    -0.100543953427E+04   -0.32017E-02   -0.32717E-02  2880   0.967E-02 0.727E-03
CGA:   6    -0.100544063926E+04   -0.11050E-02   -0.11040E-02  2880   0.488E-02 0.918E-05
CGA:   7    -0.100544138031E+04   -0.74105E-03   -0.74790E-03  2880   0.293E-02-0.246E-03
CGA:   8    -0.100544155755E+04   -0.17724E-03   -0.17797E-03  2880   0.541E-03 0.104E-04
CGA:   9    -0.100544171168E+04   -0.15413E-03   -0.13890E-03  2880   0.199E-03 0.114E-03
CGA:  10    -0.100544174721E+04   -0.35522E-04   -0.39236E-04  2880   0.466E-03-0.113E-03
CGA:  11    -0.100544176580E+04   -0.18594E-04   -0.22743E-04  2880   0.503E-04 0.512E-04
CGA:  12    -0.100544177492E+04   -0.91174E-05   -0.87810E-05  2880   0.899E-04 0.108E-04
CGA:  13    -0.100544179102E+04   -0.16102E-04   -0.34504E-04  2880   0.189E-03-0.985E-04
CGA:  14    -0.100544179716E+04   -0.61362E-05   -0.10643E-04  2880   0.465E-04 0.542E-04
  15 F= -.10054418E+04 E0= -.10054281E+04  d E =-.537957E-02  mag=     0.9994
       N       E                     dE             d eps       ncg     rms          ort
SDA:   1    -0.100361334053E+04    0.18285E+01    0.00000E+00  2880   0.452E+01 0.000E+00
CGA:   2    -0.100463958709E+04   -0.10262E+01   -0.10302E+01  2880   0.886E+01 0.647E-01
CGA:   3    -0.100522053599E+04   -0.58095E+00   -0.67792E+00  2880   0.204E+01-0.676E+00
CGA:   4    -0.100532433702E+04   -0.10380E+00   -0.12852E+00  2880   0.631E+00-0.194E+00
CGA:   5    -0.100540443405E+04   -0.80097E-01   -0.80173E-01  2880   0.458E+00-0.418E-02
CGA:   6    -0.100542993917E+04   -0.25505E-01   -0.27592E-01  2880   0.100E+00-0.211E-01
CGA:   7    -0.100543980490E+04   -0.98657E-02   -0.99153E-02  2880   0.542E-01-0.543E-03
CGA:   8    -0.100544679533E+04   -0.69904E-02   -0.69848E-02  2880   0.271E-01 0.114E-02
CGA:   9    -0.100544865459E+04   -0.18593E-02   -0.19041E-02  2880   0.893E-02-0.206E-03
CGA:  10    -0.100544980373E+04   -0.11491E-02   -0.11505E-02  2880   0.643E-02-0.311E-03
CGA:  11    -0.100545054126E+04   -0.73754E-03   -0.73907E-03  2880   0.207E-02 0.335E-03
CGA:  12    -0.100545074965E+04   -0.20839E-03   -0.20784E-03  2880   0.176E-02-0.495E-04
CGA:  13    -0.100545101012E+04   -0.26046E-03   -0.26351E-03  2880   0.114E-02-0.104E-03
CGA:  14    -0.100545108928E+04   -0.79162E-04   -0.85035E-04  2880   0.250E-03 0.129E-03
CGA:  15    -0.100545113605E+04   -0.46772E-04   -0.46807E-04  2880   0.560E-03-0.213E-05
CGA:  16    -0.100545120006E+04   -0.64015E-04   -0.63675E-04  2880   0.822E-04-0.398E-04
CGA:  17    -0.100545120259E+04   -0.25237E-05   -0.40980E-05  2880   0.434E-04 0.224E-04
  16 F= -.10054512E+04 E0= -.10054377E+04  d E =-.940543E-02  mag=     0.9993
       N       E                     dE             d eps       ncg     rms          ort
SDA:   1    -0.997853453766E+03    0.75977E+01    0.00000E+00  2880   0.187E+02 0.000E+00
CGA:   2    -0.100246078445E+04   -0.46073E+01   -0.42490E+01  2880   0.215E+02 0.352E+01
CGA:   3    -0.100424298686E+04   -0.17822E+01   -0.22161E+01  2880   0.121E+02 0.138E+01
CGA:   4    -0.100477666412E+04   -0.53368E+00   -0.80966E+00  2880   0.503E+01-0.268E+01
CGA:   5    -0.100510373316E+04   -0.32707E+00   -0.20188E+00  2880   0.162E+01 0.149E+01
CGA:   6    -0.100521727958E+04   -0.11355E+00   -0.12171E+00  2880   0.155E+01-0.156E+00
CGA:   7    -0.100526546291E+04   -0.48183E-01   -0.43754E-01  2880   0.118E+01 0.872E-01
CGA:   8    -0.100532418051E+04   -0.58718E-01   -0.70472E-01  2880   0.142E+01-0.972E-01
CGA:   9    -0.100536547604E+04   -0.41296E-01   -0.43983E-01  2880   0.648E+00-0.822E-01
CGA:  10    -0.100538623245E+04   -0.20756E-01   -0.20998E-01  2880   0.263E+00-0.987E-02
CGA:  11    -0.100539403833E+04   -0.78059E-02   -0.69106E-02  2880   0.145E+00 0.300E-01
CGA:  12    -0.100540031107E+04   -0.62727E-02   -0.66410E-02  2880   0.150E+00-0.303E-02
CGA:  13    -0.100540578221E+04   -0.54711E-02   -0.54353E-02  2880   0.134E+00 0.298E-02
CGA:  14    -0.100541109221E+04   -0.53100E-02   -0.56771E-02  2880   0.143E+00-0.423E-02
CGA:  15    -0.100541657365E+04   -0.54814E-02   -0.55317E-02  2880   0.969E-01-0.140E-02
CGA:  16    -0.100541942780E+04   -0.28541E-02   -0.29852E-02  2880   0.370E-01-0.418E-02
CGA:  17    -0.100542051567E+04   -0.10879E-02   -0.10506E-02  2880   0.187E-01 0.599E-03
CGA:  18    -0.100542130250E+04   -0.78683E-03   -0.78859E-03  2880   0.194E-01 0.369E-04
CGA:  19    -0.100542224634E+04   -0.94385E-03   -0.94238E-03  2880   0.212E-01-0.196E-04
CGA:  20    -0.100542314172E+04   -0.89538E-03   -0.88867E-03  2880   0.205E-01-0.307E-03
CGA:  21    -0.100542404673E+04   -0.90501E-03   -0.89562E-03  2880   0.174E-01-0.577E-03
CGA:  22    -0.100542461083E+04   -0.56410E-03   -0.56428E-03  2880   0.783E-02-0.516E-03
CGA:  23    -0.100542482803E+04   -0.21720E-03   -0.22229E-03  2880   0.357E-02 0.728E-04
CGA:  24    -0.100542494570E+04   -0.11767E-03   -0.12921E-03  2880   0.312E-02 0.344E-03
CGA:  25    -0.100542507901E+04   -0.13331E-03   -0.14811E-03  2880   0.311E-02 0.586E-03
CGA:  26    -0.100542521226E+04   -0.13325E-03   -0.14738E-03  2880   0.239E-02 0.524E-03
CGA:  27    -0.100542533430E+04   -0.12204E-03   -0.12767E-03  2880   0.227E-02 0.258E-03
CGA:  28    -0.100542544883E+04   -0.11453E-03   -0.11535E-03  2880   0.165E-02 0.282E-04
CGA:  29    -0.100542551441E+04   -0.65579E-04   -0.64691E-04  2880   0.102E-02-0.516E-04
CGA:  30    -0.100542556038E+04   -0.45974E-04   -0.45382E-04  2880   0.970E-03-0.384E-04
CGA:  31    -0.100542560723E+04   -0.46844E-04   -0.46155E-04  2880   0.786E-03-0.668E-04
SDA:  32    -0.100542564078E+04   -0.33557E-04   -0.31156E-04  2880   0.515E-03-0.138E-03
CGA:  33    -0.100542568376E+04   -0.42973E-04   -0.50459E-04  2880   0.325E-03-0.200E-03
CGA:  34    -0.100542572225E+04   -0.38490E-04   -0.31462E-04  2880   0.718E-04 0.726E-04
CGA:  35    -0.100542572762E+04   -0.53736E-05   -0.54930E-05  2880   0.322E-04 0.322E-04
  17 F= -.10054257E+04 E0= -.10054122E+04  d E =0.254750E-01  mag=     0.9995
       N       E                     dE             d eps       ncg     rms          ort
SDA:   1    -0.100268908574E+04    0.27366E+01    0.00000E+00  2880   0.649E+01 0.000E+00
CGA:   2    -0.100479958309E+04   -0.21105E+01   -0.20079E+01  2880   0.533E+01 0.569E+00
CGA:   3    -0.100515634303E+04   -0.35676E+00   -0.46053E+00  2880   0.204E+01-0.191E+00
CGA:   4    -0.100533268635E+04   -0.17634E+00   -0.17823E+00  2880   0.724E+00-0.352E-01
CGA:   5    -0.100538998974E+04   -0.57303E-01   -0.57252E-01  2880   0.562E+00-0.391E-02
CGA:   6    -0.100542797737E+04   -0.37988E-01   -0.37177E-01  2880   0.193E+00-0.363E-04
CGA:   7    -0.100544254108E+04   -0.14564E-01   -0.14339E-01  2880   0.782E-01-0.175E-02
CGA:   8    -0.100544985701E+04   -0.73159E-02   -0.73269E-02  2880   0.543E-01 0.364E-03
CGA:   9    -0.100545469171E+04   -0.48347E-02   -0.48914E-02  2880   0.179E-01 0.117E-02
CGA:  10    -0.100545673555E+04   -0.20438E-02   -0.20421E-02  2880   0.150E-01-0.600E-03
CGA:  11    -0.100545782125E+04   -0.10857E-02   -0.10732E-02  2880   0.575E-02-0.374E-03
CGA:  12    -0.100545846147E+04   -0.64022E-03   -0.63981E-03  2880   0.490E-02 0.476E-03
CGA:  13    -0.100545883842E+04   -0.37695E-03   -0.38476E-03  2880   0.190E-02 0.153E-03
CGA:  14    -0.100545913689E+04   -0.29847E-03   -0.31493E-03  2880   0.250E-02-0.346E-03
CGA:  15    -0.100545932342E+04   -0.18653E-03   -0.18691E-03  2880   0.110E-02 0.443E-05
CGA:  16    -0.100545937991E+04   -0.56485E-04   -0.63081E-04  2880   0.350E-03 0.114E-03
CGA:  17    -0.100545941698E+04   -0.37071E-04   -0.37926E-04  2880   0.335E-03 0.723E-04
CGA:  18    -0.100545945721E+04   -0.40236E-04   -0.40288E-04  2880   0.265E-03 0.278E-05
CGA:  19    -0.100545949886E+04   -0.41643E-04   -0.47266E-04  2880   0.205E-03-0.832E-04
CGA:  20    -0.100545950557E+04   -0.67081E-05   -0.60136E-05  2880   0.621E-04-0.111E-04
  18 F= -.10054595E+04 E0= -.10054458E+04  d E =-.337779E-01  mag=     0.9994
       N       E                     dE             d eps       ncg     rms          ort
SDA:   1    -0.100471571611E+04    0.74378E+00    0.00000E+00  2880   0.180E+01 0.000E+00
CGA:   2    -0.100519218838E+04   -0.47647E+00   -0.45909E+00  2880   0.207E+01 0.139E+00
CGA:   3    -0.100539075060E+04   -0.19856E+00   -0.19225E+00  2880   0.291E+00-0.746E-01
CGA:   4    -0.100543154195E+04   -0.40791E-01   -0.40940E-01  2880   0.224E+00-0.353E-02
CGA:   5    -0.100544974516E+04   -0.18203E-01   -0.18566E-01  2880   0.597E-01 0.118E-02
CGA:   6    -0.100545509988E+04   -0.53547E-02   -0.54190E-02  2880   0.197E-01 0.786E-03
CGA:   7    -0.100545818936E+04   -0.30895E-02   -0.30530E-02  2880   0.107E-01 0.831E-03
CGA:   8    -0.100545956445E+04   -0.13751E-02   -0.13849E-02  2880   0.369E-02-0.930E-03
CGA:   9    -0.100546000466E+04   -0.44020E-03   -0.43642E-03  2880   0.179E-02 0.226E-03
CGA:  10    -0.100546027216E+04   -0.26751E-03   -0.26980E-03  2880   0.160E-02-0.936E-04
CGA:  11    -0.100546043368E+04   -0.16152E-03   -0.16166E-03  2880   0.685E-03 0.101E-04
CGA:  12    -0.100546050058E+04   -0.66902E-04   -0.67725E-04  2880   0.251E-03 0.443E-04
CGA:  13    -0.100546056444E+04   -0.63856E-04   -0.80120E-04  2880   0.627E-03-0.896E-04
CGA:  14    -0.100546058511E+04   -0.20677E-04   -0.24275E-04  2880   0.212E-03 0.547E-04
CGA:  15    -0.100546059097E+04   -0.58553E-05   -0.88127E-05  2880   0.501E-04 0.336E-04
  19 F= -.10054606E+04 E0= -.10054470E+04  d E =-.108540E-02  mag=     0.9993
       N       E                     dE             d eps       ncg     rms          ort
SDA:   1    -0.100509616398E+04    0.36442E+00    0.00000E+00  2880   0.847E+00 0.000E+00
CGA:   2    -0.100536921613E+04   -0.27305E+00   -0.27690E+00  2880   0.115E+01-0.209E-01
CGA:   3    -0.100542994271E+04   -0.60727E-01   -0.66301E-01  2880   0.138E+00-0.616E-01
CGA:   4    -0.100545200471E+04   -0.22062E-01   -0.21903E-01  2880   0.101E+00 0.240E-02
CGA:   5    -0.100545956658E+04   -0.75619E-02   -0.74268E-02  2880   0.134E-01 0.130E-02
CGA:   6    -0.100546255628E+04   -0.29897E-02   -0.30169E-02  2880   0.119E-01-0.305E-03
CGA:   7    -0.100546331593E+04   -0.75965E-03   -0.76237E-03  2880   0.202E-02 0.210E-03
CGA:   8    -0.100546361333E+04   -0.29740E-03   -0.29179E-03  2880   0.116E-02 0.309E-03
CGA:   9    -0.100546387660E+04   -0.26327E-03   -0.27679E-03  2880   0.846E-03-0.168E-03
CGA:  10    -0.100546392885E+04   -0.52253E-04   -0.54386E-04  2880   0.237E-03 0.384E-04
CGA:  11    -0.100546397797E+04   -0.49122E-04   -0.46809E-04  2880   0.293E-03 0.362E-04
CGA:  12    -0.100546402251E+04   -0.44532E-04   -0.44835E-04  2880   0.208E-03-0.938E-04
CGA:  13    -0.100546403390E+04   -0.11395E-04   -0.12064E-04  2880   0.580E-04 0.144E-04
CGA:  14    -0.100546403481E+04   -0.91369E-06   -0.30071E-05  2880   0.319E-04 0.262E-04
  20 F= -.10054640E+04 E0= -.10054504E+04  d E =-.344385E-02  mag=     0.9993
       N       E                     dE             d eps       ncg     rms          ort
SDA:   1    -0.100545000031E+04    0.14034E-01    0.00000E+00  2880   0.391E-01 0.000E+00
CGA:   2    -0.100545690007E+04   -0.68998E-02   -0.69511E-02  2880   0.758E-01-0.861E-03
CGA:   3    -0.100546350600E+04   -0.66059E-02   -0.66439E-02  2880   0.580E-02 0.619E-04
CGA:   4    -0.100546445080E+04   -0.94480E-03   -0.93235E-03  2880   0.300E-02 0.309E-03
CGA:   5    -0.100546482822E+04   -0.37743E-03   -0.37683E-03  2880   0.161E-02-0.159E-03
CGA:   6    -0.100546493545E+04   -0.10722E-03   -0.10289E-03  2880   0.356E-03-0.932E-04
CGA:   7    -0.100546499753E+04   -0.62084E-04   -0.57837E-04  2880   0.763E-04 0.818E-04
CGA:   8    -0.100546501356E+04   -0.16023E-04   -0.17536E-04  2880   0.190E-03-0.241E-04
CGA:   9    -0.100546502249E+04   -0.89336E-05   -0.81130E-05  2880   0.892E-04-0.131E-04
  21 F= -.10054650E+04 E0= -.10054514E+04  d E =-.987675E-03  mag=     0.9993
       N       E                     dE             d eps       ncg     rms          ort
SDA:   1    -0.100521493050E+04    0.25008E+00    0.00000E+00  2880   0.685E+00 0.000E+00
CGA:   2    -0.100532924622E+04   -0.11432E+00   -0.11186E+00  2880   0.973E+00 0.413E-01
CGA:   3    -0.100544019506E+04   -0.11095E+00   -0.11091E+00  2880   0.168E+00-0.204E-02
CGA:   4    -0.100545329490E+04   -0.13100E-01   -0.12707E-01  2880   0.622E-01 0.162E-02
CGA:   5    -0.100546524146E+04   -0.11947E-01   -0.11974E-01  2880   0.139E-01-0.481E-03
CGA:   6    -0.100546657356E+04   -0.13321E-02   -0.13381E-02  2880   0.610E-02 0.135E-03
CGA:   7    -0.100546773674E+04   -0.11632E-02   -0.11843E-02  2880   0.246E-02-0.310E-03
CGA:   8    -0.100546792813E+04   -0.19139E-03   -0.20209E-03  2880   0.530E-03 0.251E-03
CGA:   9    -0.100546807264E+04   -0.14451E-03   -0.13708E-03  2880   0.478E-03 0.650E-04
CGA:  10    -0.100546814001E+04   -0.67368E-04   -0.67177E-04  2880   0.281E-03-0.765E-04
CGA:  11    -0.100546816120E+04   -0.21189E-04   -0.20590E-04  2880   0.152E-03-0.157E-04
CGA:  12    -0.100546818567E+04   -0.24471E-04   -0.23365E-04  2880   0.638E-04 0.291E-04
CGA:  13    -0.100546819215E+04   -0.64796E-05   -0.68246E-05  2880   0.400E-04 0.880E-05
CGA:  14    -0.100546820016E+04   -0.80097E-05   -0.10514E-04  2880   0.878E-04-0.240E-04
  22 F= -.10054682E+04 E0= -.10054544E+04  d E =-.317767E-02  mag=     0.9993
       N       E                     dE             d eps       ncg     rms          ort
SDA:   1    -0.100174927338E+04    0.37189E+01    0.00000E+00  2880   0.106E+02 0.000E+00
CGA:   2    -0.100342899733E+04   -0.16797E+01   -0.15927E+01  2880   0.101E+02 0.242E+01
CGA:   3    -0.100491042422E+04   -0.14814E+01   -0.14985E+01  2880   0.292E+01 0.112E+01
CGA:   4    -0.100523215162E+04   -0.32173E+00   -0.29798E+00  2880   0.123E+01-0.159E+00
CGA:   5    -0.100532758405E+04   -0.95432E-01   -0.10064E+00  2880   0.143E+01-0.782E-03
CGA:   6    -0.100540459772E+04   -0.77014E-01   -0.84224E-01  2880   0.506E+00-0.850E-01
CGA:   7    -0.100543312411E+04   -0.28526E-01   -0.27410E-01  2880   0.160E+00 0.965E-02
CGA:   8    -0.100544357458E+04   -0.10450E-01   -0.10284E-01  2880   0.665E-01 0.195E-02
CGA:   9    -0.100545008743E+04   -0.65129E-02   -0.65439E-02  2880   0.839E-01 0.542E-03
CGA:  10    -0.100545618654E+04   -0.60991E-02   -0.61508E-02  2880   0.359E-01-0.690E-03
CGA:  11    -0.100545831757E+04   -0.21310E-02   -0.21289E-02  2880   0.146E-01 0.148E-03
CGA:  12    -0.100545928437E+04   -0.96680E-03   -0.98280E-03  2880   0.683E-02 0.325E-03
CGA:  13    -0.100545998781E+04   -0.70344E-03   -0.70477E-03  2880   0.876E-02 0.100E-03
CGA:  14    -0.100546079077E+04   -0.80296E-03   -0.79973E-03  2880   0.526E-02-0.289E-03
CGA:  15    -0.100546115319E+04   -0.36242E-03   -0.36106E-03  2880   0.238E-02-0.315E-04
CGA:  16    -0.100546128557E+04   -0.13238E-03   -0.13902E-03  2880   0.930E-03 0.142E-03
CGA:  17    -0.100546138020E+04   -0.94633E-04   -0.95345E-04  2880   0.114E-02 0.128E-03
CGA:  18    -0.100546150259E+04   -0.12239E-03   -0.12273E-03  2880   0.756E-03 0.391E-04
CGA:  19    -0.100546157205E+04   -0.69454E-04   -0.69048E-04  2880   0.453E-03-0.346E-04
CGA:  20    -0.100546160167E+04   -0.29624E-04   -0.28605E-04  2880   0.174E-03-0.299E-04
CGA:  21    -0.100546162153E+04   -0.19860E-04   -0.24130E-04  2880   0.342E-03-0.882E-04
CGA:  22    -0.100546163634E+04   -0.14811E-04   -0.16256E-04  2880   0.363E-04 0.251E-04
CGA:  23    -0.100546163727E+04   -0.93211E-06   -0.21455E-05  2880   0.250E-04 0.277E-04
  23 F= -.10054616E+04 E0= -.10054476E+04  d E =0.656289E-02  mag=     0.9992
       N       E                     dE             d eps       ncg     rms          ort
SDA:   1    -0.100457908217E+04    0.88255E+00    0.00000E+00  2880   0.384E+01 0.000E+00
CGA:   2    -0.100489206381E+04   -0.31298E+00   -0.31789E+00  2880   0.216E+01 0.922E-01
CGA:   3    -0.100535692333E+04   -0.46486E+00   -0.45544E+00  2880   0.676E+00 0.896E-01
CGA:   4    -0.100541739731E+04   -0.60474E-01   -0.60457E-01  2880   0.255E+00-0.633E-02
CGA:   5    -0.100544702176E+04   -0.29624E-01   -0.29800E-01  2880   0.144E+00-0.703E-02
CGA:   6    -0.100546366436E+04   -0.16643E-01   -0.16689E-01  2880   0.204E-01-0.129E-02
CGA:   7    -0.100546588540E+04   -0.22210E-02   -0.22206E-02  2880   0.185E-01-0.344E-04
CGA:   8    -0.100546861127E+04   -0.27259E-02   -0.27411E-02  2880   0.302E-02-0.369E-03
CGA:   9    -0.100546890842E+04   -0.29715E-03   -0.29832E-03  2880   0.225E-02 0.272E-03
CGA:  10    -0.100546932100E+04   -0.41257E-03   -0.39970E-03  2880   0.935E-03 0.221E-03
CGA:  11    -0.100546947972E+04   -0.15872E-03   -0.17261E-03  2880   0.121E-02-0.232E-03
CGA:  12    -0.100546957277E+04   -0.93051E-04   -0.91416E-04  2880   0.455E-03-0.165E-03
CGA:  13    -0.100546960487E+04   -0.32099E-04   -0.34957E-04  2880   0.175E-03 0.134E-03
CGA:  14    -0.100546961667E+04   -0.11806E-04   -0.15618E-04  2880   0.107E-03 0.950E-04
CGA:  15    -0.100546963483E+04   -0.18155E-04   -0.23214E-04  2880   0.304E-03-0.469E-04
CGA:  16    -0.100546964549E+04   -0.10666E-04   -0.11043E-04  2880   0.203E-03 0.738E-05
CGA:  17    -0.100546965160E+04   -0.61047E-05   -0.84281E-05  2880   0.774E-04 0.322E-04
  24 F= -.10054697E+04 E0= -.10054559E+04  d E =-.801432E-02  mag=     0.9992
       N       E                     dE             d eps       ncg     rms          ort
SDA:   1    -0.100530051522E+04    0.16913E+00    0.00000E+00  2880   0.436E+00 0.000E+00
CGA:   2    -0.100539076027E+04   -0.90245E-01   -0.86233E-01  2880   0.586E+00 0.407E-01
CGA:   3    -0.100544931748E+04   -0.58557E-01   -0.57110E-01  2880   0.110E+00-0.204E-01
CGA:   4    -0.100546012772E+04   -0.10810E-01   -0.10821E-01  2880   0.456E-01 0.121E-02
CGA:   5    -0.100546617638E+04   -0.60487E-02   -0.60327E-02  2880   0.223E-01 0.294E-03
CGA:   6    -0.100546830736E+04   -0.21310E-02   -0.21234E-02  2880   0.506E-02-0.480E-03
CGA:   7    -0.100546885872E+04   -0.55136E-03   -0.55107E-03  2880   0.353E-02 0.864E-04
CGA:   8    -0.100546933283E+04   -0.47411E-03   -0.47240E-03  2880   0.983E-03 0.565E-04
CGA:   9    -0.100546943303E+04   -0.10020E-03   -0.10046E-03  2880   0.516E-03 0.304E-04
CGA:  10    -0.100546953421E+04   -0.10118E-03   -0.11745E-03  2880   0.845E-03-0.147E-03
CGA:  11    -0.100546957509E+04   -0.40883E-04   -0.42715E-04  2880   0.163E-03 0.406E-04
CGA:  12    -0.100546957971E+04   -0.46249E-05   -0.85370E-05  2880   0.867E-04 0.627E-04
  25 F= -.10054696E+04 E0= -.10054558E+04  d E =0.718853E-04  mag=     0.9992
       N       E                     dE             d eps       ncg     rms          ort
SDA:   1    -0.100542909105E+04    0.40484E-01    0.00000E+00  2880   0.133E+00 0.000E+00
CGA:   2    -0.100544268094E+04   -0.13590E-01   -0.13568E-01  2880   0.153E+00-0.221E-02
CGA:   3    -0.100546585904E+04   -0.23178E-01   -0.23125E-01  2880   0.198E-01 0.871E-03
CGA:   4    -0.100546866122E+04   -0.28022E-02   -0.28238E-02  2880   0.105E-01-0.827E-03
CGA:   5    -0.100546983073E+04   -0.11695E-02   -0.11680E-02  2880   0.534E-02 0.239E-03
CGA:   6    -0.100547017675E+04   -0.34602E-03   -0.35690E-03  2880   0.742E-03 0.219E-03
CGA:   7    -0.100547034468E+04   -0.16794E-03   -0.15645E-03  2880   0.499E-03 0.121E-03
CGA:   8    -0.100547040622E+04   -0.61538E-04   -0.60576E-04  2880   0.245E-03-0.115E-03
CGA:   9    -0.100547043393E+04   -0.27712E-04   -0.28478E-04  2880   0.125E-03-0.209E-04
CGA:  10    -0.100547044117E+04   -0.72358E-05   -0.80872E-05  2880   0.474E-04 0.191E-04
  26 F= -.10054704E+04 E0= -.10054566E+04  d E =-.861455E-03  mag=     0.9992
