       N       E                     dE             d eps       ncg     rms          ort
DAV:   1     0.572727610946E+04    0.57273E+04   -0.23034E+05  4144   0.175E+03
DAV:   2     0.922140989644E+02   -0.56351E+04   -0.51187E+04  4144   0.503E+02
DAV:   3    -0.748851319817E+03   -0.84107E+03   -0.79018E+03  4144   0.204E+02
DAV:   4    -0.792531343122E+03   -0.43680E+02   -0.43174E+02  4144   0.476E+01
DAV:   5    -0.793059069676E+03   -0.52773E+00   -0.52668E+00  4144   0.569E+00
SDA:   6    -0.274250356921E+03    0.51881E+03   -0.52668E+00  4144   0.187E+04 0.000E+00
CGA:   7    -0.541805901189E+03   -0.26756E+03   -0.26435E+03  4144   0.207E+03 0.887E+01
CGA:   8    -0.581690378615E+03   -0.39884E+02   -0.39865E+02  4144   0.599E+02-0.109E+01
CGA:   9    -0.596459404589E+03   -0.14769E+02   -0.14721E+02  4144   0.291E+02 0.717E+00
CGA:  10    -0.603191596232E+03   -0.67322E+01   -0.67360E+01  4144   0.779E+01-0.169E+00
CGA:  11    -0.604999300668E+03   -0.18077E+01   -0.18158E+01  4144   0.203E+01-0.246E+00
CGA:  12    -0.605496763482E+03   -0.49746E+00   -0.50512E+00  4144   0.639E+00-0.143E+00
CGA:  13    -0.605679324149E+03   -0.18256E+00   -0.19082E+00  4144   0.272E+00-0.724E-01
CGA:  14    -0.605765255566E+03   -0.85931E-01   -0.10305E+00  4144   0.205E+00-0.806E-01
CGA:  15    -0.605776866844E+03   -0.11611E-01   -0.10339E+00  4144   0.402E+00-0.187E+00
CGA:  16    -0.605872289973E+03   -0.95423E-01   -0.95548E-01  4144   0.733E-01 0.140E-01
CGA:  17    -0.605896862891E+03   -0.24573E-01   -0.24912E-01  4144   0.203E-01-0.415E-02
CGA:  18    -0.605902304436E+03   -0.54415E-02   -0.53284E-02  4144   0.478E-02 0.401E-02
CGA:  19    -0.605904310214E+03   -0.20058E-02   -0.19029E-02  4144   0.195E-02 0.129E-02
CGA:  20    -0.605905588561E+03   -0.12783E-02   -0.13821E-02  4144   0.192E-02-0.331E-03
CGA:  21    -0.605906080578E+03   -0.49202E-03   -0.49252E-03  4144   0.103E-02-0.106E-04
CGA:  22    -0.605906945861E+03   -0.86528E-03    0.25597E-03  4144   0.493E-03 0.188E-03
CGA:  23    -0.605907933969E+03   -0.98811E-03    0.37784E-04  4144   0.283E-03 0.731E-04
CGA:  24    -0.605908766165E+03   -0.83220E-03    0.12029E-04  4144   0.152E-03 0.944E-04
CGA:  25    -0.605909417304E+03   -0.65114E-03    0.56253E-05  4144   0.946E-04 0.490E-04
CGA:  26    -0.605910041402E+03   -0.62410E-03    0.20962E-05  4144   0.331E-04 0.320E-04
CGA:  27    -0.605910341033E+03   -0.29963E-03    0.53015E-06  4144   0.148E-04 0.530E-05
CGA:  28    -0.605910451442E+03   -0.11041E-03    0.21798E-06  4144   0.482E-05 0.210E-05
CGA:  29    -0.605910481393E+03   -0.29951E-04    0.83531E-07  4144   0.242E-05 0.108E-05
CGA:  30    -0.605910516810E+03   -0.35417E-04    0.19371E-07  4144   0.108E-05 0.425E-06
CGA:  31    -0.605910541505E+03   -0.24695E-04    0.49754E-08  4144   0.648E-06 0.504E-06
CGA:  32    -0.605910553655E+03   -0.12150E-04    0.57822E-08  4144   0.335E-06 0.305E-06
CGA:  33    -0.605910555219E+03   -0.15638E-05    0.13921E-07  4144   0.224E-06 0.232E-06
   1 F= -.60591056E+03 E0= -.60591056E+03  d E =-.605911E+03  mag=    55.0000
       N       E                     dE             d eps       ncg     rms          ort
SDA:   1    -0.605909630134E+03    0.92352E-03    0.00000E+00  4144   0.279E-02 0.000E+00
CGA:   2    -0.605910233132E+03   -0.60300E-03   -0.60588E-03  4144   0.116E-02 0.667E-04
CGA:   3    -0.605910502658E+03   -0.26953E-03   -0.27067E-03  4144   0.313E-03 0.390E-04
CGA:   4    -0.605910565921E+03   -0.63263E-04   -0.62829E-04  4144   0.666E-04-0.715E-05
CGA:   5    -0.605910580418E+03   -0.14498E-04   -0.14305E-04  4144   0.187E-04-0.588E-05
CGA:   6    -0.605910583715E+03   -0.32965E-05   -0.33410E-05  4144   0.406E-05 0.805E-06
   2 F= -.60591058E+03 E0= -.60591058E+03  d E =-.284959E-04  mag=    55.0000
       N       E                     dE             d eps       ncg     rms          ort
SDA:   1    -0.605910490989E+03    0.89429E-04    0.00000E+00  4144   0.197E-03 0.000E+00
CGA:   2    -0.605910541790E+03   -0.50801E-04   -0.50792E-04  4144   0.918E-04 0.558E-06
CGA:   3    -0.605910562530E+03   -0.20739E-04   -0.20581E-04  4144   0.256E-04-0.786E-05
CGA:   4    -0.605910566307E+03   -0.37775E-05   -0.37868E-05  4144   0.459E-05 0.109E-06
   3 F= -.60591057E+03 E0= -.60591057E+03  d E =0.174076E-04  mag=    55.0000
       N       E                     dE             d eps       ncg     rms          ort
SDA:   1    -0.605910558948E+03    0.35818E-05    0.00000E+00  4144   0.694E-05 0.000E+00
CGA:   2    -0.605910560063E+03   -0.11144E-05   -0.12492E-05  4144   0.252E-05 0.253E-05
CGA:   3    -0.605910560546E+03   -0.48385E-06   -0.57328E-06  4144   0.735E-06 0.140E-05
CGA:   4    -0.605910560907E+03   -0.36111E-06    0.10332E-05  4144   0.256E-06 0.239E-06
   4 F= -.60591056E+03 E0= -.60591056E+03  d E =0.539987E-05  mag=    55.0000
       N       E                     dE             d eps       ncg     rms          ort
SDA:   1    -0.605910531396E+03    0.29150E-04    0.00000E+00  4144   0.381E-04 0.000E+00
CGA:   2    -0.605910542737E+03   -0.11341E-04   -0.11109E-04  4144   0.146E-04 0.330E-05
CGA:   3    -0.605910546687E+03   -0.39500E-05   -0.40840E-05  4144   0.651E-05-0.416E-05
CGA:   4    -0.605910547210E+03   -0.52330E-06   -0.59048E-06  4144   0.134E-05 0.674E-06
   5 F= -.60591055E+03 E0= -.60591055E+03  d E =0.136974E-04  mag=    55.0000
       N       E                     dE             d eps       ncg     rms          ort
SDA:   1    -0.599945520190E+03    0.59650E+01    0.00000E+00  4144   0.135E+02 0.000E+00
CGA:   2    -0.604957621775E+03   -0.50121E+01   -0.50202E+01  4144   0.369E+01-0.404E-01
CGA:   3    -0.605650287645E+03   -0.69267E+00   -0.69316E+00  4144   0.823E+00 0.112E-01
CGA:   4    -0.605814635546E+03   -0.16435E+00   -0.16437E+00  4144   0.155E+00 0.103E-02
CGA:   5    -0.605847154489E+03   -0.32519E-01   -0.32515E-01  4144   0.390E-01-0.400E-03
CGA:   6    -0.605856184773E+03   -0.90303E-02   -0.90164E-02  4144   0.118E-01 0.103E-02
CGA:   7    -0.605859772683E+03   -0.35879E-02   -0.36146E-02  4144   0.513E-02-0.342E-03
CGA:   8    -0.605861702465E+03   -0.19298E-02   -0.21484E-02  4144   0.382E-02-0.105E-02
CGA:   9    -0.605862592896E+03   -0.89043E-03   -0.88481E-03  4144   0.145E-02 0.906E-04
CGA:  10    -0.605863138803E+03   -0.54591E-03   -0.57402E-03  4144   0.942E-03-0.193E-03
CGA:  11    -0.605863404661E+03   -0.26586E-03   -0.53905E-03  4144   0.176E-02-0.666E-03
CGA:  12    -0.605863768629E+03   -0.36397E-03   -0.37861E-03  4144   0.299E-03 0.293E-03
CGA:  13    -0.605863928671E+03   -0.16004E-03   -0.19483E-03  4144   0.206E-03-0.118E-03
CGA:  14    -0.605863973613E+03   -0.44942E-04   -0.44551E-04  4144   0.128E-03 0.463E-05
CGA:  15    -0.605864004500E+03   -0.30887E-04   -0.32338E-04  4144   0.550E-04 0.420E-04
CGA:  16    -0.605864024763E+03   -0.20263E-04   -0.20286E-04  4144   0.233E-04 0.158E-04
CGA:  17    -0.605864042210E+03   -0.17447E-04    0.98044E-04  4144   0.140E-04 0.111E-04
CGA:  18    -0.605864058831E+03   -0.16621E-04    0.66472E-05  4144   0.874E-05 0.848E-05
CGA:  19    -0.605864064355E+03   -0.55240E-05    0.92630E-05  4144   0.411E-05 0.514E-05
   6 F= -.60586406E+03 E0= -.60586406E+03  d E =0.464829E-01  mag=    55.0000
       N       E                     dE             d eps       ncg     rms          ort
SDA:   1    -0.600910051781E+03    0.49540E+01    0.00000E+00  4144   0.113E+02 0.000E+00
CGA:   2    -0.605158661675E+03   -0.42486E+01   -0.42519E+01  4144   0.306E+01-0.283E-01
CGA:   3    -0.605729975704E+03   -0.57131E+00   -0.57265E+00  4144   0.694E+00 0.960E-02
CGA:   4    -0.605868282427E+03   -0.13831E+00   -0.13837E+00  4144   0.130E+00 0.828E-03
CGA:   5    -0.605895736729E+03   -0.27454E-01   -0.27347E-01  4144   0.335E-01-0.169E-02
CGA:   6    -0.605903546419E+03   -0.78097E-02   -0.78070E-02  4144   0.102E-01-0.798E-04
CGA:   7    -0.605906470605E+03   -0.29242E-02   -0.29292E-02  4144   0.407E-02-0.270E-03
CGA:   8    -0.605907895697E+03   -0.14251E-02   -0.14490E-02  4144   0.215E-02-0.255E-03
CGA:   9    -0.605908511745E+03   -0.61605E-03   -0.61166E-03  4144   0.755E-03 0.157E-03
CGA:  10    -0.605908849283E+03   -0.33754E-03   -0.46616E-03  4144   0.101E-02-0.434E-03
CGA:  11    -0.605909060223E+03   -0.21094E-03   -0.22005E-03  4144   0.179E-03 0.124E-03
CGA:  12    -0.605909175653E+03   -0.11543E-03   -0.13427E-03  4144   0.267E-03-0.505E-04
CGA:  13    -0.605909215580E+03   -0.39926E-04   -0.45887E-04  4144   0.200E-03 0.873E-04
CGA:  14    -0.605909278884E+03   -0.63305E-04   -0.66817E-04  4144   0.838E-04 0.655E-04
CGA:  15    -0.605909352632E+03   -0.73747E-04    0.16627E-03  4144   0.453E-04 0.255E-04
CGA:  16    -0.605909370495E+03   -0.17863E-04   -0.17855E-04  4144   0.288E-04 0.211E-04
CGA:  17    -0.605909369350E+03    0.11452E-05   -0.48034E-05  4144   0.197E-04 0.316E-04
   7 F= -.60590937E+03 E0= -.60590937E+03  d E =-.453050E-01  mag=    55.0000
       N       E                     dE             d eps       ncg     rms          ort
SDA:   1    -0.605886323061E+03    0.23047E-01    0.00000E+00  4144   0.557E-01 0.000E+00
CGA:   2    -0.605903776490E+03   -0.17453E-01   -0.17457E-01  4144   0.241E-01-0.146E-03
CGA:   3    -0.605908153247E+03   -0.43768E-02   -0.43809E-02  4144   0.452E-02 0.307E-04
CGA:   4    -0.605909047510E+03   -0.89426E-03   -0.89398E-03  4144   0.959E-03-0.429E-05
CGA:   5    -0.605909252479E+03   -0.20497E-03   -0.20173E-03  4144   0.231E-03-0.479E-04
CGA:   6    -0.605909311910E+03   -0.59431E-04   -0.59184E-04  4144   0.951E-04-0.427E-04
CGA:   7    -0.605909334976E+03   -0.23066E-04   -0.23693E-04  4144   0.419E-04-0.204E-04
CGA:   8    -0.605909342693E+03   -0.77165E-05   -0.78956E-05  4144   0.130E-04 0.487E-05
   8 F= -.60590934E+03 E0= -.60590934E+03  d E =0.266570E-04  mag=    55.0000
       N       E                     dE             d eps       ncg     rms          ort
SDA:   1    -0.605901938414E+03    0.73966E-02    0.00000E+00  4144   0.179E-01 0.000E+00
CGA:   2    -0.605907602711E+03   -0.56643E-02   -0.56613E-02  4144   0.768E-02 0.620E-04
CGA:   3    -0.605909014889E+03   -0.14122E-02   -0.14110E-02  4144   0.148E-02-0.162E-04
CGA:   4    -0.605909294785E+03   -0.27990E-03   -0.28035E-03  4144   0.327E-03 0.541E-05
CGA:   5    -0.605909352188E+03   -0.57403E-04   -0.59442E-04  4144   0.620E-04 0.242E-04
CGA:   6    -0.605909363025E+03   -0.10837E-04   -0.12146E-04  4144   0.158E-04 0.166E-04
CGA:   7    -0.605909365745E+03   -0.27200E-05   -0.34141E-05  4144   0.592E-05 0.799E-05
   9 F= -.60590937E+03 E0= -.60590937E+03  d E =-.230519E-04  mag=    55.0000
