       N       E                     dE             d eps       ncg     rms          ort
DAV:   1     0.282293216806E+04    0.28229E+04   -0.29316E+05  2880   0.140E+03
DAV:   2    -0.962810443893E+03   -0.37857E+04   -0.36566E+04  2880   0.312E+02
DAV:   3    -0.122028293653E+04   -0.25747E+03   -0.25495E+03  2880   0.850E+01
DAV:   4    -0.122331834045E+04   -0.30354E+01   -0.30248E+01  2880   0.979E+00
DAV:   5    -0.122336847335E+04   -0.50133E-01   -0.50026E-01  2880   0.116E+00
SDA:   6    -0.869299931444E+03    0.35407E+03   -0.50026E-01  2880   0.617E+03 0.000E+00
CGA:   7    -0.976472902499E+03   -0.10717E+03   -0.10775E+03  2880   0.599E+02 0.126E+02
CGA:   8    -0.986319379671E+03   -0.98465E+01   -0.10239E+02  2880   0.300E+02 0.188E+01
CGA:   9    -0.991946879970E+03   -0.56275E+01   -0.52768E+01  2880   0.319E+02-0.737E+01
CGA:  10    -0.993538467589E+03   -0.15916E+01   -0.22099E+01  2880   0.136E+02-0.390E+01
CGA:  11    -0.995058547510E+03   -0.15201E+01   -0.17296E+01  2880   0.104E+02 0.109E+01
CGA:  12    -0.995637506145E+03   -0.57896E+00   -0.77914E+00  2880   0.147E+02-0.764E+01
CGA:  13    -0.996145707473E+03   -0.50820E+00   -0.14460E+01  2880   0.298E+01-0.302E+00
CGA:  14    -0.996465761138E+03   -0.32005E+00   -0.14015E+00  2880   0.341E+01 0.435E+01
CGA:  15    -0.996706095914E+03   -0.24033E+00   -0.14136E+00  2880   0.863E+00 0.726E+00
CGA:  16    -0.996784171699E+03   -0.78076E-01   -0.68513E-01  2880   0.262E+01 0.487E-01
CGA:  17    -0.996926331155E+03   -0.14216E+00   -0.17396E+00  2880   0.797E+01-0.618E+00
CGA:  18    -0.997020888997E+03   -0.94558E-01   -0.10012E+00  2880   0.556E+01-0.414E+00
CGA:  19    -0.997060488836E+03   -0.39600E-01   -0.10308E+00  2880   0.871E+00-0.296E+01
CGA:  20    -0.997128383573E+03   -0.67895E-01   -0.72032E-01  2880   0.109E+01-0.181E-01
CGA:  21    -0.997276955104E+03   -0.14857E+00   -0.14856E+00  2880   0.146E+00 0.330E-01
CGA:  22    -0.997293281442E+03   -0.16326E-01   -0.14717E-01  2880   0.779E-01 0.108E-01
CGA:  23    -0.997299566633E+03   -0.62852E-02   -0.61824E-02  2880   0.570E-01 0.964E-02
CGA:  24    -0.997307943407E+03   -0.83768E-02   -0.83719E-02  2880   0.881E-01-0.117E-02
CGA:  25    -0.997312661335E+03   -0.47179E-02   -0.48289E-02  2880   0.290E-01-0.531E-02
CGA:  26    -0.997315417615E+03   -0.27563E-02   -0.28116E-02  2880   0.378E-01 0.149E-02
CGA:  27    -0.997317878633E+03   -0.24610E-02   -0.25418E-02  2880   0.160E-01 0.346E-02
CGA:  28    -0.997320091608E+03   -0.22130E-02   -0.22156E-02  2880   0.330E-01-0.117E-02
CGA:  29    -0.997322151175E+03   -0.20596E-02   -0.19220E-02  2880   0.137E-01-0.324E-02
CGA:  30    -0.997322985156E+03   -0.83398E-03   -0.74155E-03  2880   0.146E-01-0.198E-02
CGA:  31    -0.997324498609E+03   -0.15135E-02   -0.15193E-02  2880   0.124E-01-0.205E-02
CGA:  32    -0.997324848851E+03   -0.35024E-03   -0.30835E-03  2880   0.324E-02 0.520E-03
CGA:  33    -0.997325082315E+03   -0.23346E-03   -0.18983E-03  2880   0.431E-02-0.684E-03
CGA:  34    -0.997325451856E+03   -0.36954E-03   -0.32719E-03  2880   0.784E-02-0.275E-02
CGA:  35    -0.997325772094E+03   -0.32024E-03   -0.37429E-03  2880   0.179E-02 0.957E-03
CGA:  36    -0.997325795976E+03   -0.23882E-04   -0.85697E-04  2880   0.696E-03 0.983E-03
CGA:  37    -0.997325848182E+03   -0.52206E-04   -0.59446E-04  2880   0.675E-03 0.380E-03
CGA:  38    -0.997325932216E+03   -0.84034E-04   -0.93430E-04  2880   0.241E-02-0.279E-03
CGA:  39    -0.997326059083E+03   -0.12687E-03   -0.13152E-03  2880   0.424E-02 0.385E-03
CGA:  40    -0.997326187534E+03   -0.12845E-03   -0.18192E-03  2880   0.373E-03 0.835E-03
CGA:  41    -0.997326210322E+03   -0.22788E-04   -0.26873E-04  2880   0.322E-03 0.964E-04
CGA:  42    -0.997325345793E+03    0.86453E-03   -0.42549E-03  2880   0.162E-01-0.227E-02
CGA:  43    -0.997326009578E+03   -0.66378E-03   -0.75033E-03  2880   0.299E-02 0.390E-03
CGA:  44    -0.997326295805E+03   -0.28623E-03   -0.29185E-03  2880   0.158E-02 0.178E-03
CGA:  45    -0.997326350344E+03   -0.54539E-04   -0.88164E-04  2880   0.831E-04 0.316E-03
CGA:  46    -0.997326350371E+03   -0.26506E-07   -0.43551E-05  2880   0.419E-04 0.359E-04
   1 F= -.99732635E+03 E0= -.99731112E+03  d E =-.997326E+03  mag=     2.0000
       N       E                     dE             d eps       ncg     rms          ort
SDA:   1    -0.997328794542E+03   -0.24442E-02    0.00000E+00  2880   0.468E-01 0.000E+00
CGA:   2    -0.997330725733E+03   -0.19312E-02   -0.19927E-02  2880   0.454E-02 0.348E-02
CGA:   3    -0.997331218988E+03   -0.49326E-03   -0.51577E-03  2880   0.594E-02 0.560E-03
CGA:   4    -0.997331867240E+03   -0.64825E-03   -0.67844E-03  2880   0.223E-02 0.650E-03
CGA:   5    -0.997332241798E+03   -0.37456E-03   -0.38982E-03  2880   0.221E-02-0.149E-02
CGA:   6    -0.997332288076E+03   -0.46278E-04   -0.10509E-03  2880   0.369E-03 0.681E-03
CGA:   7    -0.997332282021E+03    0.60559E-05   -0.18952E-04  2880   0.172E-03 0.251E-03
CGA:   8    -0.997332321392E+03   -0.39372E-04   -0.39466E-04  2880   0.249E-03-0.162E-05
CGA:   9    -0.997332341508E+03   -0.20116E-04   -0.19490E-04  2880   0.428E-04-0.112E-04
CGA:  10    -0.997332346375E+03   -0.48669E-05   -0.47589E-05  2880   0.378E-04-0.472E-05
   2 F= -.99733235E+03 E0= -.99731719E+03  d E =-.599600E-02  mag=     2.0000
       N       E                     dE             d eps       ncg     rms          ort
SDA:   1    -0.997291603244E+03    0.40738E-01    0.00000E+00  2880   0.402E+00 0.000E+00
CGA:   2    -0.997310436358E+03   -0.18833E-01   -0.21192E-01  2880   0.204E+00-0.345E-01
CGA:   3    -0.997335821760E+03   -0.25385E-01   -0.25422E-01  2880   0.128E+00-0.331E-03
CGA:   4    -0.997351851150E+03   -0.16029E-01   -0.15999E-01  2880   0.350E-01-0.537E-02
CGA:   5    -0.997354249400E+03   -0.23982E-02   -0.23829E-02  2880   0.234E-01-0.164E-02
CGA:   6    -0.997355937476E+03   -0.16881E-02   -0.17966E-02  2880   0.761E-02 0.222E-02
CGA:   7    -0.997356783972E+03   -0.84650E-03   -0.84649E-03  2880   0.503E-02 0.596E-04
CGA:   8    -0.997357339367E+03   -0.55539E-03   -0.53558E-03  2880   0.308E-02-0.978E-03
CGA:   9    -0.997357445710E+03   -0.10634E-03   -0.13330E-03  2880   0.127E-02 0.379E-03
CGA:  10    -0.997357519371E+03   -0.73661E-04   -0.91697E-04  2880   0.515E-03 0.309E-03
CGA:  11    -0.997357589338E+03   -0.69966E-04   -0.65655E-04  2880   0.129E-02-0.272E-03
CGA:  12    -0.997357624605E+03   -0.35268E-04   -0.46491E-04  2880   0.188E-03 0.135E-03
CGA:  13    -0.997357638910E+03   -0.14305E-04   -0.60853E-04  2880   0.134E-02-0.263E-03
CGA:  14    -0.997357692532E+03   -0.53622E-04   -0.67194E-04  2880   0.163E-03 0.179E-03
CGA:  15    -0.997357692946E+03   -0.41341E-06   -0.69535E-05  2880   0.520E-04 0.801E-04
   3 F= -.99735769E+03 E0= -.99734265E+03  d E =-.253466E-01  mag=     1.9999
       N       E                     dE             d eps       ncg     rms          ort
SDA:   1    -0.997214128782E+03    0.14356E+00    0.00000E+00  2880   0.420E+00 0.000E+00
CGA:   2    -0.997293422148E+03   -0.79293E-01   -0.77911E-01  2880   0.669E+00 0.169E-01
CGA:   3    -0.997342949156E+03   -0.49527E-01   -0.48323E-01  2880   0.226E+00 0.146E-01
CGA:   4    -0.997361840007E+03   -0.18891E-01   -0.18759E-01  2880   0.616E-01-0.923E-02
CGA:   5    -0.997369341938E+03   -0.75019E-02   -0.74943E-02  2880   0.498E-01-0.299E-03
CGA:   6    -0.997373562335E+03   -0.42204E-02   -0.43068E-02  2880   0.662E-02 0.309E-02
CGA:   7    -0.997374516828E+03   -0.95449E-03   -0.97086E-03  2880   0.103E-01-0.629E-03
CGA:   8    -0.997375042372E+03   -0.52554E-03   -0.55959E-03  2880   0.303E-02 0.660E-03
CGA:   9    -0.997375327824E+03   -0.28545E-03   -0.29174E-03  2880   0.246E-02 0.328E-03
CGA:  10    -0.997375531773E+03   -0.20395E-03   -0.17870E-03  2880   0.129E-02-0.604E-03
CGA:  11    -0.997374520191E+03    0.10116E-02   -0.56730E-03  2880   0.158E-01-0.281E-02
CGA:  12    -0.997375254133E+03   -0.73394E-03   -0.84291E-03  2880   0.337E-02 0.918E-03
CGA:  13    -0.997375333119E+03   -0.78986E-04   -0.18835E-03  2880   0.111E-02 0.911E-03
CGA:  14    -0.997375448383E+03   -0.11526E-03   -0.14612E-03  2880   0.123E-02 0.406E-03
CGA:  15    -0.997375690308E+03   -0.24193E-03   -0.22158E-03  2880   0.163E-02-0.456E-03
CGA:  16    -0.997375735028E+03   -0.44720E-04   -0.36808E-04  2880   0.640E-03-0.570E-04
CGA:  17    -0.997375745516E+03   -0.10489E-04   -0.18098E-04  2880   0.336E-03 0.550E-04
CGA:  18    -0.997375758715E+03   -0.13199E-04   -0.19168E-04  2880   0.392E-03 0.558E-04
CGA:  19    -0.997375789214E+03   -0.30499E-04   -0.25414E-04  2880   0.287E-03-0.509E-04
CGA:  20    -0.997375824390E+03   -0.35176E-04   -0.26789E-04  2880   0.733E-03-0.194E-03
CGA:  21    -0.997375834240E+03   -0.98498E-05   -0.24355E-04  2880   0.953E-04 0.125E-03
   4 F= -.99737583E+03 E0= -.99736086E+03  d E =-.181413E-01  mag=     1.9996
       N       E                     dE             d eps       ncg     rms          ort
SDA:   1    -0.997354130932E+03    0.21693E-01    0.00000E+00  2880   0.813E-01 0.000E+00
CGA:   2    -0.997361486133E+03   -0.73552E-02   -0.73289E-02  2880   0.104E+00 0.232E-03
CGA:   3    -0.997374091432E+03   -0.12605E-01   -0.12576E-01  2880   0.372E-01-0.277E-02
CGA:   4    -0.997376338836E+03   -0.22474E-02   -0.23431E-02  2880   0.113E-01 0.275E-02
CGA:   5    -0.997377476416E+03   -0.11376E-02   -0.11663E-02  2880   0.342E-02 0.170E-02
CGA:   6    -0.997378213244E+03   -0.73683E-03   -0.78280E-03  2880   0.477E-02-0.674E-03
CGA:   7    -0.997378445718E+03   -0.23247E-03   -0.20179E-03  2880   0.834E-03-0.405E-03
CGA:   8    -0.997378481224E+03   -0.35506E-04   -0.44935E-04  2880   0.641E-03 0.130E-03
CGA:   9    -0.997378537110E+03   -0.55886E-04   -0.65509E-04  2880   0.414E-03 0.257E-03
CGA:  10    -0.997378583951E+03   -0.46841E-04   -0.42613E-04  2880   0.183E-03-0.889E-04
CGA:  11    -0.997378577646E+03    0.63049E-05   -0.45054E-04  2880   0.689E-03-0.267E-03
CGA:  12    -0.997378605821E+03   -0.28175E-04   -0.34347E-04  2880   0.192E-03 0.686E-04
CGA:  13    -0.997378603952E+03    0.18694E-05   -0.90044E-05  2880   0.956E-04 0.129E-03
   5 F= -.99737860E+03 E0= -.99736349E+03  d E =-.276971E-02  mag=     1.9996
       N       E                     dE             d eps       ncg     rms          ort
SDA:   1    -0.995360920690E+03    0.20177E+01    0.00000E+00  2880   0.370E+02 0.000E+00
CGA:   2    -0.996378848223E+03   -0.10179E+01   -0.25292E+01  2880   0.308E+01 0.618E+00
CGA:   3    -0.996782444432E+03   -0.40360E+00   -0.40027E+00  2880   0.380E+01 0.191E+00
CGA:   4    -0.996997879451E+03   -0.21544E+00   -0.14813E+00  2880   0.230E+01 0.162E+01
CGA:   5    -0.997123498053E+03   -0.12562E+00   -0.11739E+00  2880   0.164E+01 0.566E-01
CGA:   6    -0.997215834415E+03   -0.92336E-01   -0.10264E+00  2880   0.258E+01-0.881E-01
CGA:   7    -0.997296166203E+03   -0.80332E-01   -0.86363E-01  2880   0.803E+00-0.197E+00
CGA:   8    -0.997328209566E+03   -0.32043E-01   -0.33967E-01  2880   0.556E+00-0.177E-01
CGA:   9    -0.997348640706E+03   -0.20431E-01   -0.18394E-01  2880   0.223E+00 0.893E-01
CGA:  10    -0.997355402492E+03   -0.67618E-02   -0.68082E-02  2880   0.779E-01 0.272E-01
CGA:  11    -0.997359047464E+03   -0.36450E-02   -0.37704E-02  2880   0.946E-01 0.281E-02
CGA:  12    -0.997364914870E+03   -0.58674E-02   -0.57998E-02  2880   0.143E+00-0.315E-02
CGA:  13    -0.997370477265E+03   -0.55624E-02   -0.53661E-02  2880   0.103E+00-0.669E-02
CGA:  14    -0.997373445968E+03   -0.29687E-02   -0.28412E-02  2880   0.441E-01-0.145E-03
CGA:  15    -0.997374464376E+03   -0.10184E-02   -0.11075E-02  2880   0.189E-01 0.149E-02
CGA:  16    -0.997374932526E+03   -0.46815E-03   -0.58206E-03  2880   0.148E-01 0.226E-02
CGA:  17    -0.997375434264E+03   -0.50174E-03   -0.59492E-03  2880   0.136E-01 0.234E-02
CGA:  18    -0.997375983375E+03   -0.54911E-03   -0.58125E-03  2880   0.112E-01 0.466E-03
CGA:  19    -0.997376638967E+03   -0.65559E-03   -0.61107E-03  2880   0.174E-01-0.210E-02
CGA:  20    -0.997377308712E+03   -0.66975E-03   -0.58477E-03  2880   0.167E-01-0.272E-02
CGA:  21    -0.997377623951E+03   -0.31524E-03   -0.29931E-03  2880   0.646E-02-0.200E-03
CGA:  22    -0.997377697851E+03   -0.73900E-04   -0.11567E-03  2880   0.325E-02 0.833E-03
CGA:  23    -0.997377718157E+03   -0.20306E-04   -0.74665E-04  2880   0.286E-02 0.116E-02
CGA:  24    -0.997377745895E+03   -0.27738E-04   -0.90114E-04  2880   0.263E-02 0.153E-02
CGA:  25    -0.997377938431E+03   -0.19254E-03   -0.20640E-03  2880   0.326E-02-0.929E-03
CGA:  26    -0.997378196413E+03   -0.25798E-03   -0.25796E-03  2880   0.202E-02 0.729E-06
CGA:  27    -0.997378260628E+03   -0.64215E-04   -0.75740E-04  2880   0.507E-03 0.388E-03
CGA:  28    -0.997378286453E+03   -0.25825E-04   -0.28234E-04  2880   0.251E-03 0.132E-03
CGA:  29    -0.997378312026E+03   -0.25573E-04   -0.25927E-04  2880   0.280E-03-0.169E-04
CGA:  30    -0.997378326064E+03   -0.14039E-04   -0.14078E-04  2880   0.196E-03 0.341E-05
CGA:  31    -0.997378342084E+03   -0.16020E-04   -0.18205E-04  2880   0.427E-03-0.806E-04
CGA:  32    -0.997378358304E+03   -0.16220E-04   -0.15021E-04  2880   0.433E-03-0.191E-03
CGA:  33    -0.997378362618E+03   -0.43146E-05   -0.45465E-05  2880   0.269E-03 0.331E-05
   6 F= -.99737836E+03 E0= -.99736212E+03  d E =0.241333E-03  mag=     2.0000
       N       E                     dE             d eps       ncg     rms          ort
SDA:   1    -0.997255832785E+03    0.12253E+00    0.00000E+00  2880   0.439E+00 0.000E+00
CGA:   2    -0.997302318677E+03   -0.46486E-01   -0.45563E-01  2880   0.459E+00 0.159E-01
CGA:   3    -0.997350638443E+03   -0.48320E-01   -0.48643E-01  2880   0.267E+00-0.766E-02
CGA:   4    -0.997369032291E+03   -0.18394E-01   -0.18401E-01  2880   0.641E-01 0.194E-02
CGA:   5    -0.997374100385E+03   -0.50681E-02   -0.50112E-02  2880   0.290E-01 0.485E-02
CGA:   6    -0.997378830018E+03   -0.47296E-02   -0.55214E-02  2880   0.358E-01-0.716E-02
CGA:   7    -0.997379991223E+03   -0.11612E-02   -0.12103E-02  2880   0.792E-02 0.189E-02
CGA:   8    -0.997380300898E+03   -0.30967E-03   -0.36832E-03  2880   0.394E-02 0.228E-02
CGA:   9    -0.997380535317E+03   -0.23442E-03   -0.25677E-03  2880   0.218E-02 0.124E-02
CGA:  10    -0.997380872953E+03   -0.33764E-03   -0.39018E-03  2880   0.475E-02-0.777E-03
CGA:  11    -0.997380971296E+03   -0.98344E-04   -0.85778E-04  2880   0.246E-02-0.294E-03
CGA:  12    -0.997381026112E+03   -0.54816E-04   -0.52790E-04  2880   0.107E-02-0.480E-04
CGA:  13    -0.997381069188E+03   -0.43076E-04   -0.42676E-04  2880   0.142E-02-0.195E-04
CGA:  14    -0.997381140796E+03   -0.71608E-04   -0.70078E-04  2880   0.159E-02-0.941E-04
CGA:  15    -0.997381182344E+03   -0.41548E-04   -0.42069E-04  2880   0.926E-03 0.116E-04
CGA:  16    -0.997381200996E+03   -0.18652E-04   -0.25476E-04  2880   0.740E-03 0.186E-03
CGA:  17    -0.997381214014E+03   -0.13018E-04   -0.23798E-04  2880   0.542E-03 0.312E-03
CGA:  18    -0.997381225765E+03   -0.11750E-04   -0.19892E-04  2880   0.288E-03 0.241E-03
CGA:  19    -0.997381246235E+03   -0.20470E-04   -0.19985E-04  2880   0.332E-03-0.519E-04
CGA:  20    -0.997381284039E+03   -0.37804E-04    0.37180E-04  2880   0.442E-03-0.237E-03
CGA:  21    -0.997381312212E+03   -0.28173E-04   -0.29114E-04  2880   0.240E-03-0.114E-03
CGA:  22    -0.997381312640E+03   -0.42780E-06   -0.42674E-05  2880   0.121E-03 0.113E-03
   7 F= -.99738131E+03 E0= -.99736519E+03  d E =-.295002E-02  mag=     1.9999
       N       E                     dE             d eps       ncg     rms          ort
SDA:   1    -0.997344916844E+03    0.36395E-01    0.00000E+00  2880   0.189E+00 0.000E+00
CGA:   2    -0.997359776301E+03   -0.14859E-01   -0.14833E-01  2880   0.948E-01-0.431E-02
CGA:   3    -0.997372705063E+03   -0.12929E-01   -0.12637E-01  2880   0.113E+00 0.320E-02
CGA:   4    -0.997379867323E+03   -0.71623E-02   -0.71552E-02  2880   0.134E-01 0.342E-02
CGA:   5    -0.997381206201E+03   -0.13389E-02   -0.13134E-02  2880   0.104E-01 0.641E-03
CGA:   6    -0.997382572678E+03   -0.13665E-02   -0.16777E-02  2880   0.116E-01-0.340E-02
CGA:   7    -0.997382873625E+03   -0.30095E-03   -0.32697E-03  2880   0.288E-02 0.107E-02
CGA:   8    -0.997382946319E+03   -0.72694E-04   -0.10227E-03  2880   0.120E-02 0.908E-03
CGA:   9    -0.997382995371E+03   -0.49052E-04   -0.62482E-04  2880   0.707E-03 0.567E-03
CGA:  10    -0.997383057660E+03   -0.62289E-04   -0.62539E-04  2880   0.704E-03 0.132E-03
CGA:  11    -0.997383122096E+03   -0.64437E-04   -0.67851E-04  2880   0.611E-03-0.176E-03
CGA:  12    -0.997383143709E+03   -0.21613E-04   -0.19747E-04  2880   0.407E-03-0.971E-04
CGA:  13    -0.997383165267E+03   -0.21558E-04   -0.21839E-04  2880   0.385E-03-0.140E-03
CGA:  14    -0.997383176815E+03   -0.11548E-04   -0.10554E-04  2880   0.298E-03-0.465E-04
CGA:  15    -0.997383183863E+03   -0.70476E-05   -0.88994E-05  2880   0.232E-03 0.695E-04
   8 F= -.99738318E+03 E0= -.99736699E+03  d E =-.187122E-02  mag=     1.9999
       N       E                     dE             d eps       ncg     rms          ort
SDA:   1    -0.997335845792E+03    0.47331E-01    0.00000E+00  2880   0.265E+00 0.000E+00
CGA:   2    -0.997351832846E+03   -0.15987E-01   -0.15992E-01  2880   0.130E+00-0.129E-01
CGA:   3    -0.997367373282E+03   -0.15540E-01   -0.15812E-01  2880   0.145E+00-0.389E-02
CGA:   4    -0.997379140227E+03   -0.11767E-01   -0.11660E-01  2880   0.173E-01 0.537E-02
CGA:   5    -0.997380122772E+03   -0.98255E-03   -0.10064E-02  2880   0.731E-02 0.358E-02
CGA:   6    -0.997381745887E+03   -0.16231E-02   -0.16227E-02  2880   0.511E-02 0.657E-05
CGA:   7    -0.997382192114E+03   -0.44623E-03   -0.49249E-03  2880   0.334E-02-0.166E-02
CGA:   8    -0.997382333615E+03   -0.14150E-03   -0.13858E-03  2880   0.131E-02-0.373E-03
CGA:   9    -0.997382362822E+03   -0.29207E-04   -0.48322E-04  2880   0.724E-03 0.685E-03
CGA:  10    -0.997382390483E+03   -0.27661E-04   -0.34895E-04  2880   0.364E-03 0.363E-03
CGA:  11    -0.997382447058E+03   -0.56575E-04   -0.83844E-04  2880   0.155E-02-0.168E-03
CGA:  12    -0.997382466103E+03   -0.19045E-04   -0.24220E-04  2880   0.882E-03 0.111E-03
CGA:  13    -0.997382479572E+03   -0.13469E-04   -0.19418E-04  2880   0.201E-03 0.111E-03
CGA:  14    -0.997382487535E+03   -0.79632E-05   -0.79040E-05  2880   0.168E-03-0.224E-05
CGA:  15    -0.997382049289E+03    0.43825E-03   -0.23949E-03  2880   0.724E-02-0.135E-02
CGA:  16    -0.997382505180E+03   -0.45589E-03   -0.47960E-03  2880   0.825E-03 0.567E-03
CGA:  17    -0.997382519893E+03   -0.14714E-04   -0.29862E-04  2880   0.546E-04 0.169E-03
CGA:  18    -0.997382523220E+03   -0.33268E-05   -0.40476E-05  2880   0.361E-04 0.125E-04
CGA:  19    -0.997382330975E+03    0.19225E-03   -0.10457E-03  2880   0.371E-02-0.356E-03
CGA:  20    -0.997382442215E+03   -0.11124E-03   -0.14913E-03  2880   0.650E-03 0.263E-03
CGA:  21    -0.997382496498E+03   -0.54284E-04   -0.56527E-04  2880   0.124E-03 0.215E-04
CGA:  22    -0.997382551463E+03   -0.54965E-04    0.12682E-03  2880   0.309E-03-0.765E-04
CGA:  23    -0.997382545801E+03    0.56624E-05   -0.81786E-05  2880   0.306E-04 0.813E-04
   9 F= -.99738255E+03 E0= -.99736623E+03  d E =0.638062E-03  mag=     2.0000
       N       E                     dE             d eps       ncg     rms          ort
SDA:   1    -0.990796718001E+03    0.65858E+01    0.00000E+00  2880   0.104E+03 0.000E+00
CGA:   2    -0.993991432893E+03   -0.31947E+01   -0.98313E+01  2880   0.137E+02-0.368E+01
CGA:   3    -0.995236359771E+03   -0.12449E+01   -0.11237E+01  2880   0.133E+02-0.221E+01
CGA:   4    -0.995981381027E+03   -0.74502E+00   -0.48414E+00  2880   0.106E+02-0.351E+00
CGA:   5    -0.995310427760E+03    0.67095E+00   -0.45430E+00  2880   0.338E+02-0.168E+02
CGA:   6    -0.996494342689E+03   -0.11839E+01   -0.27075E+01  2880   0.626E+01-0.481E+01
CGA:   7    -0.996698899219E+03   -0.20456E+00   -0.39285E+00  2880   0.446E+01-0.150E+01
CGA:   8    -0.996862840358E+03   -0.16394E+00   -0.82840E-01  2880   0.297E+01 0.336E+01
CGA:   9    -0.996997399572E+03   -0.13456E+00   -0.10534E+00  2880   0.602E+00 0.641E+00
CGA:  10    -0.997039306679E+03   -0.41907E-01   -0.30907E-01  2880   0.492E+00 0.238E+00
CGA:  11    -0.997081051060E+03   -0.41744E-01   -0.36660E-01  2880   0.110E+01 0.739E-01
CGA:  12    -0.997147774637E+03   -0.66724E-01   -0.64694E-01  2880   0.275E+01 0.159E-01
CGA:  13    -0.997216549272E+03   -0.68775E-01   -0.71537E-01  2880   0.193E+01-0.149E+00
CGA:  14    -0.997242790139E+03   -0.26241E-01   -0.40135E-01  2880   0.579E+00-0.585E+00
CGA:  15    -0.997250930032E+03   -0.81399E-02   -0.85776E-02  2880   0.355E+00-0.106E-01
CGA:  16    -0.997259469701E+03   -0.85397E-02   -0.77588E-02  2880   0.212E+00 0.520E-01
CGA:  17    -0.997264276052E+03   -0.48064E-02   -0.47385E-02  2880   0.978E-01 0.250E-01
CGA:  18    -0.997266471097E+03   -0.21950E-02   -0.24646E-02  2880   0.805E-01 0.115E-02
CGA:  19    -0.997268990496E+03   -0.25194E-02   -0.27409E-02  2880   0.154E+00 0.142E-02
CGA:  20    -0.997274595402E+03   -0.56049E-02   -0.56994E-02  2880   0.279E+00 0.550E-02
CGA:  21    -0.997281834076E+03   -0.72387E-02   -0.72794E-02  2880   0.245E+00 0.669E-02
CGA:  22    -0.997286932112E+03   -0.50980E-02   -0.51409E-02  2880   0.144E+00-0.412E-02
CGA:  23    -0.997290226978E+03   -0.32949E-02   -0.31100E-02  2880   0.111E+00-0.375E-02
CGA:  24    -0.997293327271E+03   -0.31003E-02   -0.29216E-02  2880   0.103E+00-0.818E-02
CGA:  25    -0.997295807648E+03   -0.24804E-02   -0.22652E-02  2880   0.734E-01-0.453E-02
CGA:  26    -0.997297411005E+03   -0.16034E-02   -0.14840E-02  2880   0.519E-01 0.116E-02
CGA:  27    -0.997298562273E+03   -0.11513E-02   -0.11707E-02  2880   0.414E-01 0.211E-02
CGA:  28    -0.997299433509E+03   -0.87124E-03   -0.94295E-03  2880   0.322E-01 0.193E-02
CGA:  29    -0.997300165308E+03   -0.73180E-03   -0.76646E-03  2880   0.291E-01 0.775E-03
CGA:  30    -0.997301033333E+03   -0.86803E-03   -0.84347E-03  2880   0.372E-01-0.109E-02
CGA:  31    -0.997302198747E+03   -0.11654E-02   -0.10925E-02  2880   0.468E-01-0.314E-02
CGA:  32    -0.997303381132E+03   -0.11824E-02   -0.10943E-02  2880   0.449E-01-0.278E-02
CGA:  33    -0.997304386109E+03   -0.10050E-02   -0.99029E-03  2880   0.375E-01-0.124E-03
CGA:  34    -0.997305066137E+03   -0.68003E-03   -0.74940E-03  2880   0.225E-01 0.266E-02
CGA:  35    -0.997305376285E+03   -0.31015E-03   -0.40529E-03  2880   0.104E-01 0.253E-02
CGA:  36    -0.997305520869E+03   -0.14458E-03   -0.20676E-03  2880   0.723E-02 0.160E-02
CGA:  37    -0.997305710963E+03   -0.19009E-03   -0.22765E-03  2880   0.112E-01 0.138E-02
CGA:  38    -0.997306211429E+03   -0.50047E-03   -0.52086E-03  2880   0.219E-01 0.157E-02
SDA:  39    -0.997306870460E+03   -0.65903E-03   -0.67712E-03  2880   0.172E-01 0.815E-03
CGA:  40    -0.997307752516E+03   -0.88206E-03   -0.88426E-03  2880   0.682E-02-0.190E-02
CGA:  41    -0.997308305428E+03   -0.55291E-03   -0.57071E-03  2880   0.299E-02-0.420E-03
CGA:  42    -0.997308765269E+03   -0.45984E-03   -0.64260E-03  2880   0.616E-02-0.103E-02
CGA:  43    -0.997309060862E+03   -0.29559E-03   -0.49017E-03  2880   0.597E-02-0.326E-02
CGA:  44    -0.997309324293E+03   -0.26343E-03   -0.28646E-03  2880   0.171E-02 0.138E-02
CGA:  45    -0.997309402387E+03   -0.78095E-04   -0.95351E-04  2880   0.616E-03 0.957E-03
CGA:  46    -0.997309463687E+03   -0.61300E-04   -0.56740E-04  2880   0.424E-03 0.153E-03
CGA:  47    -0.997309480338E+03   -0.16651E-04   -0.23052E-04  2880   0.173E-03 0.315E-03
CGA:  48    -0.997309482131E+03   -0.17927E-05   -0.57690E-05  2880   0.129E-03 0.134E-03
  10 F= -.99730948E+03 E0= -.99729206E+03  d E =0.730637E-01  mag=     2.0000
       N       E                     dE             d eps       ncg     rms          ort
SDA:   1    -0.995725858699E+03    0.15836E+01    0.00000E+00  2880   0.679E+01 0.000E+00
CGA:   2    -0.996181890687E+03   -0.45603E+00   -0.45670E+00  2880   0.556E+01-0.511E-01
CGA:   3    -0.996672588115E+03   -0.49070E+00   -0.56229E+00  2880   0.823E+01-0.155E+01
CGA:   4    -0.996979217090E+03   -0.30663E+00   -0.30348E+00  2880   0.692E+01-0.750E-01
CGA:   5    -0.997183499876E+03   -0.20428E+00   -0.22380E+00  2880   0.145E+01-0.457E+00
CGA:   6    -0.997228689380E+03   -0.45190E-01   -0.47792E-01  2880   0.695E+00-0.584E-01
CGA:   7    -0.997285032623E+03   -0.56343E-01   -0.55781E-01  2880   0.757E+00 0.175E-01
CGA:   8    -0.997327271202E+03   -0.42239E-01   -0.42210E-01  2880   0.390E+00 0.825E-02
CGA:   9    -0.997347795117E+03   -0.20524E-01   -0.20474E-01  2880   0.132E+00 0.172E-02
CGA:  10    -0.997353731062E+03   -0.59359E-02   -0.58744E-02  2880   0.678E-01-0.578E-02
CGA:  11    -0.997359171938E+03   -0.54409E-02   -0.56850E-02  2880   0.728E-01-0.909E-02
CGA:  12    -0.997362723780E+03   -0.35518E-02   -0.35564E-02  2880   0.551E-01 0.106E-02
CGA:  13    -0.997365482351E+03   -0.27586E-02   -0.28170E-02  2880   0.201E-01 0.485E-02
CGA:  14    -0.997366355962E+03   -0.87361E-03   -0.89181E-03  2880   0.971E-02 0.471E-03
CGA:  15    -0.997367532119E+03   -0.11762E-02   -0.12344E-02  2880   0.164E-01-0.899E-03
CGA:  16    -0.997368139366E+03   -0.60725E-03   -0.62695E-03  2880   0.624E-02 0.850E-03
CGA:  17    -0.997368396056E+03   -0.25669E-03   -0.27636E-03  2880   0.359E-02 0.985E-03
CGA:  18    -0.997368606608E+03   -0.21055E-03   -0.21391E-03  2880   0.270E-02 0.384E-03
CGA:  19    -0.997368862434E+03   -0.25583E-03   -0.28753E-03  2880   0.469E-02-0.891E-03
CGA:  20    -0.997368991171E+03   -0.12874E-03   -0.11192E-03  2880   0.259E-02-0.660E-03
CGA:  21    -0.997369061316E+03   -0.70145E-04   -0.63574E-04  2880   0.152E-02-0.215E-03
CGA:  22    -0.997369125681E+03   -0.64365E-04   -0.64237E-04  2880   0.186E-02-0.160E-04
CGA:  23    -0.997369186835E+03   -0.61154E-04   -0.65828E-04  2880   0.116E-02 0.205E-03
CGA:  24    -0.997369209800E+03   -0.22966E-04   -0.33321E-04  2880   0.612E-03 0.325E-03
CGA:  25    -0.997369216675E+03   -0.68750E-05   -0.17793E-04  2880   0.362E-03 0.330E-03
CGA:  26    -0.997369228608E+03   -0.11932E-04   -0.13973E-04  2880   0.135E-03 0.129E-03
CGA:  27    -0.997369248168E+03   -0.19561E-04   -0.17486E-04  2880   0.171E-03 0.492E-04
CGA:  28    -0.997369138242E+03    0.10993E-03   -0.62276E-04  2880   0.405E-02-0.649E-03
CGA:  29    -0.997369256558E+03   -0.11832E-03   -0.13760E-03  2880   0.389E-03 0.270E-03
CGA:  30    -0.997369284135E+03   -0.27577E-04   -0.29748E-04  2880   0.108E-03 0.814E-04
CGA:  31    -0.997369294616E+03   -0.10481E-04   -0.10486E-04  2880   0.123E-03-0.738E-06
CGA:  32    -0.997369299949E+03   -0.53333E-05   -0.70910E-05  2880   0.579E-04 0.465E-04
  11 F= -.99736930E+03 E0= -.99735230E+03  d E =-.598178E-01  mag=     2.0000
       N       E                     dE             d eps       ncg     rms          ort
SDA:   1    -0.997195075106E+03    0.17422E+00    0.00000E+00  2880   0.155E+01 0.000E+00
CGA:   2    -0.997267465404E+03   -0.72390E-01   -0.64951E-01  2880   0.331E+00 0.989E-01
CGA:   3    -0.997302016872E+03   -0.34551E-01   -0.35580E-01  2880   0.457E+00-0.456E-01
CGA:   4    -0.997338383324E+03   -0.36366E-01   -0.36379E-01  2880   0.564E+00-0.160E-02
CGA:   5    -0.997360360870E+03   -0.21978E-01   -0.23041E-01  2880   0.105E+00-0.351E-01
CGA:   6    -0.997365412903E+03   -0.50520E-02   -0.50684E-02  2880   0.483E-01-0.636E-02
CGA:   7    -0.997369367796E+03   -0.39549E-02   -0.39545E-02  2880   0.523E-01-0.129E-03
CGA:   8    -0.997372727748E+03   -0.33600E-02   -0.34402E-02  2880   0.118E-01 0.437E-02
CGA:   9    -0.997373363781E+03   -0.63603E-03   -0.63980E-03  2880   0.670E-02 0.179E-03
CGA:  10    -0.997374194981E+03   -0.83120E-03   -0.12480E-02  2880   0.919E-02-0.414E-02
CGA:  11    -0.997374616898E+03   -0.42192E-03   -0.49323E-03  2880   0.170E-02 0.206E-02
CGA:  12    -0.997374740668E+03   -0.12377E-03   -0.13792E-03  2880   0.741E-03 0.710E-03
CGA:  13    -0.997374881597E+03   -0.14093E-03   -0.17802E-03  2880   0.144E-02-0.430E-03
CGA:  14    -0.997374943681E+03   -0.62084E-04   -0.73912E-04  2880   0.323E-03 0.320E-03
CGA:  15    -0.997374988272E+03   -0.44591E-04   -0.45719E-04  2880   0.241E-03-0.351E-04
CGA:  16    -0.997375032185E+03   -0.43912E-04    0.62960E-04  2880   0.229E-03 0.148E-05
CGA:  17    -0.997375079053E+03   -0.46868E-04    0.72597E-04  2880   0.159E-03 0.703E-04
CGA:  18    -0.997375081820E+03   -0.27667E-05   -0.87112E-05  2880   0.856E-04 0.126E-03
  12 F= -.99737508E+03 E0= -.99735835E+03  d E =-.578187E-02  mag=     2.0000
       N       E                     dE             d eps       ncg     rms          ort
SDA:   1    -0.997362146560E+03    0.12932E-01    0.00000E+00  2880   0.637E-01 0.000E+00
CGA:   2    -0.997365775673E+03   -0.36291E-02   -0.35482E-02  2880   0.399E-01-0.467E-02
CGA:   3    -0.997371489868E+03   -0.57142E-02   -0.59316E-02  2880   0.268E-01-0.273E-02
CGA:   4    -0.997373333918E+03   -0.18441E-02   -0.18713E-02  2880   0.473E-02 0.344E-02
CGA:   5    -0.997373820166E+03   -0.48625E-03   -0.48232E-03  2880   0.240E-02 0.775E-03
CGA:   6    -0.997374128259E+03   -0.30809E-03   -0.53172E-03  2880   0.729E-02-0.213E-02
CGA:   7    -0.997374317094E+03   -0.18884E-03   -0.25067E-03  2880   0.100E-02 0.112E-02
CGA:   8    -0.997374350673E+03   -0.33579E-04   -0.53018E-04  2880   0.373E-03 0.467E-03
CGA:   9    -0.997374390885E+03   -0.40212E-04   -0.39568E-04  2880   0.308E-03-0.484E-04
CGA:  10    -0.997374436801E+03   -0.45916E-04    0.19754E-02  2880   0.209E-03-0.117E-03
CGA:  11    -0.997374467152E+03   -0.30351E-04    0.14999E-04  2880   0.267E-03-0.919E-05
CGA:  12    -0.997374484600E+03   -0.17448E-04   -0.17988E-04  2880   0.145E-03 0.368E-04
CGA:  13    -0.997374480663E+03    0.39369E-05   -0.35932E-05  2880   0.941E-04 0.120E-03
  13 F= -.99737448E+03 E0= -.99735776E+03  d E =0.601157E-03  mag=     2.0000
       N       E                     dE             d eps       ncg     rms          ort
SDA:   1    -0.997068973219E+03    0.30551E+00    0.00000E+00  2880   0.264E+01 0.000E+00
CGA:   2    -0.997163480699E+03   -0.94507E-01   -0.10475E+00  2880   0.655E+00-0.194E+00
CGA:   3    -0.997300909458E+03   -0.13743E+00   -0.13842E+00  2880   0.775E+00-0.628E-02
CGA:   4    -0.997342374130E+03   -0.41465E-01   -0.42250E-01  2880   0.120E+00 0.346E-02
CGA:   5    -0.997350525217E+03   -0.81511E-02   -0.82322E-02  2880   0.537E-01 0.877E-02
CGA:   6    -0.997359417212E+03   -0.88920E-02   -0.90807E-02  2880   0.519E-01-0.268E-02
CGA:   7    -0.997362316346E+03   -0.28991E-02   -0.28517E-02  2880   0.668E-02-0.209E-02
CGA:   8    -0.997362984077E+03   -0.66773E-03   -0.66005E-03  2880   0.765E-02 0.358E-03
CGA:   9    -0.997363739398E+03   -0.75532E-03   -0.74659E-03  2880   0.108E-02 0.116E-02
CGA:  10    -0.997361950039E+03    0.17894E-02   -0.98062E-03  2880   0.643E-01-0.541E-02
CGA:  11    -0.997363964645E+03   -0.20146E-02   -0.22063E-02  2880   0.418E-02 0.430E-02
CGA:  12    -0.997364053209E+03   -0.88564E-04   -0.18504E-03  2880   0.647E-03 0.104E-02
CGA:  13    -0.997364069720E+03   -0.16512E-04   -0.40665E-04  2880   0.444E-03 0.255E-03
CGA:  14    -0.997364135571E+03   -0.65851E-04   -0.68369E-04  2880   0.389E-03 0.850E-04
CGA:  15    -0.997364196091E+03   -0.60520E-04   -0.74204E-04  2880   0.104E-02-0.632E-03
CGA:  16    -0.997364212920E+03   -0.16829E-04   -0.36577E-04  2880   0.173E-03 0.192E-03
CGA:  17    -0.997364206865E+03    0.60554E-05   -0.67739E-05  2880   0.107E-03 0.128E-03
  14 F= -.99736421E+03 E0= -.99734749E+03  d E =0.102738E-01  mag=     2.0000
       N       E                     dE             d eps       ncg     rms          ort
SDA:   1    -0.996976879753E+03    0.38733E+00    0.00000E+00  2880   0.996E+00 0.000E+00
CGA:   2    -0.997116420869E+03   -0.13954E+00   -0.13968E+00  2880   0.209E+01-0.850E-02
CGA:   3    -0.997293903900E+03   -0.17748E+00   -0.17915E+00  2880   0.511E+00-0.726E-02
CGA:   4    -0.997320555531E+03   -0.26652E-01   -0.26475E-01  2880   0.112E+00 0.420E-02
CGA:   5    -0.997339217713E+03   -0.18662E-01   -0.18578E-01  2880   0.619E-01 0.191E-02
CGA:   6    -0.997345121527E+03   -0.59038E-02   -0.58297E-02  2880   0.326E-01-0.376E-02
CGA:   7    -0.997346614534E+03   -0.14930E-02   -0.15235E-02  2880   0.888E-02 0.657E-03
CGA:   8    -0.997347662402E+03   -0.10479E-02   -0.10532E-02  2880   0.500E-02 0.232E-02
CGA:   9    -0.997348351747E+03   -0.68934E-03   -0.67501E-03  2880   0.691E-02-0.131E-02
CGA:  10    -0.997348659373E+03   -0.30763E-03   -0.27515E-03  2880   0.258E-02-0.552E-03
CGA:  11    -0.997348724041E+03   -0.64668E-04   -0.96628E-04  2880   0.167E-02 0.442E-03
CGA:  12    -0.997348778275E+03   -0.54234E-04   -0.88650E-04  2880   0.864E-03 0.593E-03
CGA:  13    -0.997348836176E+03   -0.57901E-04   -0.61244E-04  2880   0.831E-03 0.632E-04
CGA:  14    -0.997348915869E+03   -0.79692E-04   -0.19412E-03  2880   0.297E-02-0.102E-02
CGA:  15    -0.997348994361E+03   -0.78493E-04   -0.10766E-03  2880   0.484E-03 0.377E-03
CGA:  16    -0.997349017860E+03   -0.23499E-04   -0.33721E-04  2880   0.245E-03 0.226E-03
CGA:  17    -0.997349046306E+03   -0.28446E-04   -0.29286E-04  2880   0.214E-03 0.350E-04
CGA:  18    -0.997349064011E+03   -0.17705E-04   -0.17899E-04  2880   0.876E-04 0.569E-05
CGA:  19    -0.997349073585E+03   -0.95736E-05   -0.98768E-05  2880   0.787E-04-0.389E-04
  15 F= -.99734907E+03 E0= -.99733253E+03  d E =0.151333E-01  mag=     2.0000
       N       E                     dE             d eps       ncg     rms          ort
SDA:   1    -0.997182291549E+03    0.16677E+00    0.00000E+00  2880   0.106E+01 0.000E+00
CGA:   2    -0.997239367132E+03   -0.57076E-01   -0.59827E-01  2880   0.445E+00-0.793E-02
CGA:   3    -0.997284325553E+03   -0.44958E-01   -0.45022E-01  2880   0.498E+00-0.254E-01
CGA:   4    -0.997326860249E+03   -0.42535E-01   -0.42340E-01  2880   0.309E+00-0.114E-01
CGA:   5    -0.997344367889E+03   -0.17508E-01   -0.18066E-01  2880   0.699E-01-0.165E-01
CGA:   6    -0.997347921398E+03   -0.35535E-02   -0.36572E-02  2880   0.348E-01 0.165E-02
CGA:   7    -0.997351638942E+03   -0.37175E-02   -0.36829E-02  2880   0.166E-01 0.507E-02
CGA:   8    -0.997353321856E+03   -0.16829E-02   -0.16621E-02  2880   0.155E-01-0.243E-02
CGA:   9    -0.997354256462E+03   -0.93461E-03   -0.88744E-03  2880   0.516E-02-0.168E-02
CGA:  10    -0.997354486042E+03   -0.22958E-03   -0.26113E-03  2880   0.270E-02 0.800E-03
CGA:  11    -0.997354631182E+03   -0.14514E-03   -0.17496E-03  2880   0.140E-02 0.815E-03
CGA:  12    -0.997354773317E+03   -0.14213E-03   -0.14422E-03  2880   0.124E-02 0.159E-03
CGA:  13    -0.997354902735E+03   -0.12942E-03   -0.27936E-03  2880   0.369E-02-0.134E-02
CGA:  14    -0.997355017708E+03   -0.11497E-03   -0.13552E-03  2880   0.531E-03 0.315E-03
CGA:  15    -0.997355023336E+03   -0.56285E-05   -0.24193E-04  2880   0.310E-03 0.365E-03
CGA:  16    -0.997355049390E+03   -0.26054E-04   -0.26590E-04  2880   0.276E-03 0.111E-03
CGA:  17    -0.997355100979E+03   -0.51589E-04   -0.54588E-04  2880   0.238E-03-0.551E-04
CGA:  18    -0.997355106239E+03   -0.52600E-05   -0.70067E-05  2880   0.468E-04 0.302E-04
  16 F= -.99735511E+03 E0= -.99733889E+03  d E =-.603265E-02  mag=     2.0000
       N       E                     dE             d eps       ncg     rms          ort
SDA:   1    -0.997329321749E+03    0.25779E-01    0.00000E+00  2880   0.715E-01 0.000E+00
CGA:   2    -0.997337658114E+03   -0.83364E-02   -0.83150E-02  2880   0.136E+00-0.109E-03
CGA:   3    -0.997350834834E+03   -0.13177E-01   -0.13165E-01  2880   0.142E-01 0.165E-02
CGA:   4    -0.997352816784E+03   -0.19820E-02   -0.20838E-02  2880   0.131E-01-0.191E-02
CGA:   5    -0.997353696146E+03   -0.87936E-03   -0.89260E-03  2880   0.428E-02 0.837E-03
CGA:   6    -0.997354042624E+03   -0.34648E-03   -0.35380E-03  2880   0.868E-03 0.504E-03
CGA:   7    -0.997354141912E+03   -0.99289E-04   -0.18225E-03  2880   0.376E-02-0.865E-03
CGA:   8    -0.997354277506E+03   -0.13559E-03   -0.15380E-03  2880   0.285E-03 0.309E-03
CGA:   9    -0.997354280028E+03   -0.25221E-05   -0.11503E-04  2880   0.127E-03 0.160E-03
CGA:  10    -0.997354290322E+03   -0.10294E-04   -0.10724E-04  2880   0.800E-04 0.620E-04
CGA:  11    -0.997354313149E+03   -0.22827E-04   -0.19750E-04  2880   0.768E-04 0.411E-04
CGA:  12    -0.997354329408E+03   -0.16259E-04    0.30262E-04  2880   0.476E-04 0.207E-05
CGA:  13    -0.997354339011E+03   -0.96035E-05    0.60094E-04  2880   0.592E-04 0.328E-05
  17 F= -.99735434E+03 E0= -.99733820E+03  d E =0.767228E-03  mag=     1.9999
       N       E                     dE             d eps       ncg     rms          ort
SDA:   1    -0.997314806943E+03    0.39522E-01    0.00000E+00  2880   0.171E+00 0.000E+00
CGA:   2    -0.997324350649E+03   -0.95437E-02   -0.98177E-02  2880   0.106E+00 0.703E-03
CGA:   3    -0.997341564430E+03   -0.17214E-01   -0.16784E-01  2880   0.941E-01 0.632E-02
CGA:   4    -0.997348428025E+03   -0.68636E-02   -0.67394E-02  2880   0.167E-01-0.518E-02
CGA:   5    -0.997350014508E+03   -0.15865E-02   -0.16039E-02  2880   0.104E-01-0.221E-02
CGA:   6    -0.997350966593E+03   -0.95209E-03   -0.94548E-03  2880   0.454E-02 0.597E-03
CGA:   7    -0.997351136909E+03   -0.17032E-03   -0.20861E-03  2880   0.655E-03 0.735E-03
CGA:   8    -0.997351284576E+03   -0.14767E-03   -0.13749E-03  2880   0.773E-03 0.113E-03
CGA:   9    -0.997351382114E+03   -0.97538E-04   -0.11643E-03  2880   0.148E-02-0.592E-03
CGA:  10    -0.997351411175E+03   -0.29061E-04   -0.44167E-04  2880   0.110E-03 0.219E-03
CGA:  11    -0.997351410541E+03    0.63361E-06   -0.39217E-05  2880   0.689E-04 0.720E-04
  18 F= -.99735141E+03 E0= -.99733539E+03  d E =0.292847E-02  mag=     1.9999
       N       E                     dE             d eps       ncg     rms          ort
SDA:   1    -0.997096983574E+03    0.25443E+00    0.00000E+00  2880   0.129E+01 0.000E+00
CGA:   2    -0.997157379620E+03   -0.60396E-01   -0.64902E-01  2880   0.713E+00-0.470E-01
CGA:   3    -0.997303334886E+03   -0.14596E+00   -0.14614E+00  2880   0.341E+00-0.386E-02
CGA:   4    -0.997329836710E+03   -0.26502E-01   -0.27161E-01  2880   0.597E-01 0.787E-03
CGA:   5    -0.997336938984E+03   -0.71023E-02   -0.70637E-02  2880   0.608E-01 0.146E-02
CGA:   6    -0.997341647859E+03   -0.47089E-02   -0.47350E-02  2880   0.161E-01 0.108E-02
CGA:   7    -0.997342694957E+03   -0.10471E-02   -0.10465E-02  2880   0.608E-02 0.274E-04
CGA:   8    -0.997343506846E+03   -0.81189E-03   -0.86492E-03  2880   0.551E-02-0.113E-02
CGA:   9    -0.997343886677E+03   -0.37983E-03   -0.38675E-03  2880   0.147E-02 0.692E-03
CGA:  10    -0.997343980487E+03   -0.93810E-04   -0.10107E-03  2880   0.518E-03 0.204E-03
CGA:  11    -0.997344064120E+03   -0.83633E-04   -0.84032E-04  2880   0.650E-03-0.935E-05
CGA:  12    -0.997342984823E+03    0.10793E-02   -0.58342E-03  2880   0.156E-01-0.285E-02
CGA:  13    -0.997343491521E+03   -0.50670E-03   -0.63859E-03  2880   0.344E-02 0.108E-02
CGA:  14    -0.997343721909E+03   -0.23039E-03   -0.30790E-03  2880   0.151E-02 0.929E-03
CGA:  15    -0.997344009252E+03   -0.28734E-03   -0.28191E-03  2880   0.240E-02-0.310E-03
CGA:  16    -0.997344105727E+03   -0.96476E-04   -0.85072E-04  2880   0.723E-03-0.104E-03
CGA:  17    -0.997344131176E+03   -0.25449E-04   -0.30278E-04  2880   0.479E-03 0.411E-04
CGA:  18    -0.997344162273E+03   -0.31097E-04   -0.34234E-04  2880   0.417E-03 0.425E-04
CGA:  19    -0.997344193978E+03   -0.31705E-04   -0.27375E-04  2880   0.221E-03-0.472E-04
CGA:  20    -0.997344212966E+03   -0.18988E-04   -0.12568E-04  2880   0.195E-03-0.831E-04
CGA:  21    -0.997344250637E+03   -0.37671E-04    0.75022E-04  2880   0.375E-03-0.602E-04
CGA:  22    -0.997344264236E+03   -0.13599E-04   -0.10164E-04  2880   0.126E-03-0.361E-04
CGA:  23    -0.997344259689E+03    0.45476E-05   -0.24476E-05  2880   0.873E-04 0.619E-04
  19 F= -.99734426E+03 E0= -.99732856E+03  d E =0.715085E-02  mag=     1.9998
       N       E                     dE             d eps       ncg     rms          ort
SDA:   1    -0.995112101868E+03    0.22322E+01    0.00000E+00  2880   0.776E+01 0.000E+00
CGA:   2    -0.995703530359E+03   -0.59143E+00   -0.68122E+00  2880   0.905E+01 0.783E-01
CGA:   3    -0.996961509432E+03   -0.12580E+01   -0.12713E+01  2880   0.324E+01-0.440E+00
CGA:   4    -0.997162188420E+03   -0.20068E+00   -0.21302E+00  2880   0.904E+00-0.217E+00
CGA:   5    -0.997235972709E+03   -0.73784E-01   -0.71699E-01  2880   0.527E+00-0.150E-01
CGA:   6    -0.997287154057E+03   -0.51181E-01   -0.51445E-01  2880   0.243E+00 0.480E-02
CGA:   7    -0.997302178487E+03   -0.15024E-01   -0.15334E-01  2880   0.467E-01 0.408E-02
CGA:   8    -0.997309507239E+03   -0.73288E-02   -0.72889E-02  2880   0.615E-01 0.756E-03
CGA:   9    -0.997313550622E+03   -0.40434E-02   -0.40579E-02  2880   0.118E-01 0.580E-03
CGA:  10    -0.997315078600E+03   -0.15280E-02   -0.15421E-02  2880   0.111E-01-0.954E-03
CGA:  11    -0.997315859879E+03   -0.78128E-03   -0.77900E-03  2880   0.447E-02-0.439E-04
CGA:  12    -0.997316415321E+03   -0.55544E-03   -0.55621E-03  2880   0.382E-02-0.727E-04
CGA:  13    -0.997316649849E+03   -0.23453E-03   -0.25520E-03  2880   0.100E-02 0.456E-03
CGA:  14    -0.997316768357E+03   -0.11851E-03   -0.12014E-03  2880   0.529E-03 0.425E-03
CGA:  15    -0.997316901914E+03   -0.13356E-03   -0.15547E-03  2880   0.169E-02-0.228E-03
CGA:  16    -0.997316974376E+03   -0.72461E-04   -0.51985E-04  2880   0.128E-02-0.333E-03
CGA:  17    -0.997317013094E+03   -0.38719E-04   -0.31805E-04  2880   0.541E-03-0.874E-04
CGA:  18    -0.997317019931E+03   -0.68366E-05   -0.15605E-04  2880   0.399E-03 0.121E-03
CGA:  19    -0.997317017257E+03    0.26737E-05   -0.13507E-04  2880   0.287E-03 0.227E-03
CGA:  20    -0.997317023009E+03   -0.57521E-05   -0.13031E-04  2880   0.117E-03 0.131E-03
  20 F= -.99731702E+03 E0= -.99730216E+03  d E =0.272367E-01  mag=     1.9996
       N       E                     dE             d eps       ncg     rms          ort
SDA:   1    -0.995981419183E+03    0.13356E+01    0.00000E+00  2880   0.797E+01 0.000E+00
CGA:   2    -0.996356020186E+03   -0.37460E+00   -0.43219E+00  2880   0.394E+01-0.333E+00
CGA:   3    -0.997028247526E+03   -0.67223E+00   -0.65511E+00  2880   0.295E+01 0.223E+00
CGA:   4    -0.997218464773E+03   -0.19022E+00   -0.17658E+00  2880   0.612E+00 0.316E-01
CGA:   5    -0.997280497370E+03   -0.62033E-01   -0.62858E-01  2880   0.382E+00-0.670E-01
CGA:   6    -0.997312280221E+03   -0.31783E-01   -0.31768E-01  2880   0.257E+00-0.235E-02
CGA:   7    -0.997333329158E+03   -0.21049E-01   -0.21158E-01  2880   0.416E-01-0.654E-02
CGA:   8    -0.997336880677E+03   -0.35515E-02   -0.35766E-02  2880   0.236E-01 0.366E-02
CGA:   9    -0.997338950281E+03   -0.20696E-02   -0.20981E-02  2880   0.135E-01 0.199E-02
CGA:  10    -0.997340858079E+03   -0.19078E-02   -0.19061E-02  2880   0.878E-02-0.773E-05
CGA:  11    -0.997341525065E+03   -0.66699E-03   -0.64965E-03  2880   0.393E-02-0.879E-03
CGA:  12    -0.997341917528E+03   -0.39246E-03   -0.38571E-03  2880   0.196E-02 0.464E-03
CGA:  13    -0.997342083537E+03   -0.16601E-03   -0.16813E-03  2880   0.116E-02 0.945E-04
CGA:  14    -0.997342246125E+03   -0.16259E-03   -0.15127E-03  2880   0.412E-03 0.382E-03
CGA:  15    -0.997342308881E+03   -0.62756E-04   -0.10581E-03  2880   0.275E-02-0.448E-03
CGA:  16    -0.997342374149E+03   -0.65268E-04   -0.84476E-04  2880   0.149E-03 0.264E-03
CGA:  17    -0.997342374776E+03   -0.62623E-06   -0.62333E-05  2880   0.992E-04 0.945E-04
CGA:  18    -0.997342385911E+03   -0.11135E-04   -0.10683E-04  2880   0.124E-03 0.338E-04
CGA:  19    -0.997342399255E+03   -0.13344E-04   -0.14075E-04  2880   0.549E-04 0.712E-04
CGA:  20    -0.997342415800E+03   -0.16545E-04    0.43588E-05  2880   0.608E-04 0.107E-04
CGA:  21    -0.997342424089E+03   -0.82891E-05   -0.79477E-05  2880   0.591E-04 0.227E-04
  21 F= -.99734242E+03 E0= -.99732684E+03  d E =-.254011E-01  mag=     1.9998
       N       E                     dE             d eps       ncg     rms          ort
SDA:   1    -0.993671277796E+03    0.36711E+01    0.00000E+00  2880   0.160E+02 0.000E+00
CGA:   2    -0.994690776314E+03   -0.10195E+01   -0.10778E+01  2880   0.117E+02-0.170E+00
CGA:   3    -0.996706800163E+03   -0.20160E+01   -0.19324E+01  2880   0.404E+01 0.120E+01
CGA:   4    -0.997046373829E+03   -0.33957E+00   -0.26369E+00  2880   0.128E+01 0.553E-01
CGA:   5    -0.997148176007E+03   -0.10180E+00   -0.91186E-01  2880   0.132E+01-0.412E-01
CGA:   6    -0.997255084991E+03   -0.10691E+00   -0.10699E+00  2880   0.132E+01-0.117E-01
CGA:   7    -0.997308642968E+03   -0.53558E-01   -0.62375E-01  2880   0.229E+00-0.893E-01
CGA:   8    -0.997320076117E+03   -0.11433E-01   -0.11858E-01  2880   0.122E+00 0.341E-02
CGA:   9    -0.997329559234E+03   -0.94831E-02   -0.95405E-02  2880   0.911E-01 0.582E-02
CGA:  10    -0.997336656730E+03   -0.70975E-02   -0.71061E-02  2880   0.341E-01 0.161E-02
CGA:  11    -0.997339600491E+03   -0.29438E-02   -0.29360E-02  2880   0.314E-01-0.400E-02
CGA:  12    -0.997341607646E+03   -0.20072E-02   -0.19529E-02  2880   0.180E-01-0.343E-02
CGA:  13    -0.997342912237E+03   -0.13046E-02   -0.13121E-02  2880   0.104E-01 0.282E-02
CGA:  14    -0.997343428441E+03   -0.51620E-03   -0.58297E-03  2880   0.554E-02 0.196E-02
CGA:  15    -0.997344704119E+03   -0.12757E-02   -0.13236E-02  2880   0.976E-02 0.108E-03
CGA:  16    -0.997345127714E+03   -0.42360E-03   -0.39652E-03  2880   0.178E-02-0.786E-04
CGA:  17    -0.997345322170E+03   -0.19446E-03   -0.41191E-03  2880   0.864E-02-0.130E-02
CGA:  18    -0.997345606703E+03   -0.28453E-03   -0.31998E-03  2880   0.133E-02 0.620E-03
CGA:  19    -0.997345753941E+03   -0.14724E-03   -0.14637E-03  2880   0.708E-03 0.106E-03
CGA:  20    -0.997345670665E+03    0.83277E-04   -0.31148E-03  2880   0.125E-01-0.114E-02
CGA:  21    -0.997346013522E+03   -0.34286E-03   -0.38618E-03  2880   0.293E-03 0.727E-03
CGA:  22    -0.997346028439E+03   -0.14917E-04   -0.20002E-04  2880   0.227E-03 0.130E-03
CGA:  23    -0.997346061247E+03   -0.32808E-04   -0.32901E-04  2880   0.165E-03 0.693E-04
CGA:  24    -0.997346080776E+03   -0.19529E-04   -0.20062E-04  2880   0.820E-04 0.670E-04
CGA:  25    -0.997346096791E+03   -0.16015E-04   -0.18640E-04  2880   0.111E-03-0.374E-04
CGA:  26    -0.997346098946E+03   -0.21551E-05   -0.31029E-05  2880   0.107E-03 0.206E-04
  22 F= -.99734610E+03 E0= -.99733008E+03  d E =-.367486E-02  mag=     1.9997
       N       E                     dE             d eps       ncg     rms          ort
SDA:   1    -0.995973788824E+03    0.13723E+01    0.00000E+00  2880   0.860E+01 0.000E+00
CGA:   2    -0.996332734316E+03   -0.35895E+00   -0.45032E+00  2880   0.450E+01-0.134E+01
CGA:   3    -0.997079261181E+03   -0.74653E+00   -0.77406E+00  2880   0.327E+01-0.224E+00
CGA:   4    -0.997249761822E+03   -0.17050E+00   -0.17701E+00  2880   0.551E+00-0.175E+00
CGA:   5    -0.997292518660E+03   -0.42757E-01   -0.42370E-01  2880   0.366E+00-0.125E-01
CGA:   6    -0.997329711211E+03   -0.37193E-01   -0.37160E-01  2880   0.171E+00 0.116E-02
CGA:   7    -0.997341823299E+03   -0.12112E-01   -0.12297E-01  2880   0.317E-01 0.723E-02
CGA:   8    -0.997345323611E+03   -0.35003E-02   -0.34905E-02  2880   0.410E-01 0.865E-03
CGA:   9    -0.997349912259E+03   -0.45886E-02   -0.45861E-02  2880   0.112E-01 0.148E-03
CGA:  10    -0.997350782940E+03   -0.87068E-03   -0.84742E-03  2880   0.593E-02-0.114E-02
CGA:  11    -0.997351488102E+03   -0.70516E-03   -0.69924E-03  2880   0.494E-02 0.156E-03
CGA:  12    -0.997351853112E+03   -0.36501E-03   -0.36732E-03  2880   0.198E-02 0.392E-04
CGA:  13    -0.997352029647E+03   -0.17653E-03   -0.17968E-03  2880   0.573E-03 0.393E-03
CGA:  14    -0.997352159503E+03   -0.12986E-03   -0.15116E-03  2880   0.256E-02-0.179E-03
CGA:  15    -0.997352240643E+03   -0.81141E-04   -0.85998E-04  2880   0.137E-02 0.872E-04
CGA:  16    -0.997352263319E+03   -0.22676E-04   -0.33170E-04  2880   0.289E-03 0.131E-03
CGA:  17    -0.997352268247E+03   -0.49280E-05   -0.10759E-04  2880   0.260E-03 0.911E-04
CGA:  18    -0.997352285018E+03   -0.16771E-04   -0.20474E-04  2880   0.278E-03 0.109E-03
CGA:  19    -0.997352309710E+03   -0.24692E-04   -0.22984E-04  2880   0.163E-03-0.525E-04
CGA:  20    -0.997352281611E+03    0.28099E-04   -0.28664E-04  2880   0.116E-02-0.452E-03
CGA:  21    -0.997352322564E+03   -0.40954E-04   -0.50515E-04  2880   0.145E-03 0.171E-03
CGA:  22    -0.997352322714E+03   -0.14994E-06   -0.64579E-05  2880   0.946E-04 0.114E-03
  23 F= -.99735232E+03 E0= -.99733659E+03  d E =-.622377E-02  mag=     1.9998
       N       E                     dE             d eps       ncg     rms          ort
SDA:   1    -0.996828069784E+03    0.52425E+00    0.00000E+00  2880   0.181E+01 0.000E+00
CGA:   2    -0.996966875603E+03   -0.13881E+00   -0.13828E+00  2880   0.191E+01-0.236E-01
CGA:   3    -0.997248719166E+03   -0.28184E+00   -0.27912E+00  2880   0.896E+00 0.397E-01
CGA:   4    -0.997304580578E+03   -0.55861E-01   -0.51218E-01  2880   0.147E+00 0.130E-01
CGA:   5    -0.997327164766E+03   -0.22584E-01   -0.22784E-01  2880   0.108E+00-0.288E-02
CGA:   6    -0.997334724355E+03   -0.75596E-02   -0.76025E-02  2880   0.581E-01 0.252E-02
CGA:   7    -0.997339187966E+03   -0.44636E-02   -0.44488E-02  2880   0.876E-02-0.591E-03
CGA:   8    -0.997340810117E+03   -0.16222E-02   -0.20646E-02  2880   0.219E-01-0.301E-02
CGA:   9    -0.997341506729E+03   -0.69661E-03   -0.70669E-03  2880   0.721E-02 0.143E-03
CGA:  10    -0.997341684099E+03   -0.17737E-03   -0.25501E-03  2880   0.272E-02 0.140E-02
CGA:  11    -0.997341730769E+03   -0.46671E-04   -0.11220E-03  2880   0.156E-02 0.121E-02
CGA:  12    -0.997341783499E+03   -0.52730E-04   -0.92277E-04  2880   0.126E-02 0.822E-03
CGA:  13    -0.997342022515E+03   -0.23902E-03    0.68796E-03  2880   0.868E-03 0.169E-03
CGA:  14    -0.997342153559E+03   -0.13104E-03   -0.19378E-03  2880   0.326E-02-0.581E-03
CGA:  15    -0.997342240861E+03   -0.87302E-04   -0.10777E-03  2880   0.281E-03 0.310E-03
CGA:  16    -0.997342233148E+03    0.77129E-05   -0.70183E-05  2880   0.170E-03 0.220E-03
  24 F= -.99734223E+03 E0= -.99732647E+03  d E =0.100896E-01  mag=     1.9998
       N       E                     dE             d eps       ncg     rms          ort
SDA:   1    -0.997312686285E+03    0.29555E-01    0.00000E+00  2880   0.956E-01 0.000E+00
CGA:   2    -0.997326558131E+03   -0.13872E-01   -0.14334E-01  2880   0.115E+00-0.734E-02
CGA:   3    -0.997336393086E+03   -0.98350E-02   -0.98275E-02  2880   0.764E-01 0.448E-03
CGA:   4    -0.997340439140E+03   -0.40461E-02   -0.42183E-02  2880   0.926E-02 0.618E-02
CGA:   5    -0.997341621388E+03   -0.11822E-02   -0.11585E-02  2880   0.972E-02 0.729E-03
CGA:   6    -0.997342814517E+03   -0.11931E-02   -0.12779E-02  2880   0.620E-02-0.248E-02
CGA:   7    -0.997342997244E+03   -0.18273E-03   -0.19160E-03  2880   0.182E-02 0.173E-03
CGA:   8    -0.997343072472E+03   -0.75228E-04   -0.96194E-04  2880   0.127E-02 0.603E-03
CGA:   9    -0.997343148488E+03   -0.76015E-04   -0.90558E-04  2880   0.654E-03 0.475E-03
CGA:  10    -0.997343237914E+03   -0.89426E-04   -0.89487E-04  2880   0.717E-03-0.674E-05
CGA:  11    -0.997343282785E+03   -0.44871E-04   -0.40443E-04  2880   0.285E-03-0.165E-03
CGA:  12    -0.997343320411E+03   -0.37626E-04    0.23801E-03  2880   0.274E-03-0.103E-03
CGA:  13    -0.997343355834E+03   -0.35423E-04    0.31782E-04  2880   0.346E-03-0.300E-04
CGA:  14    -0.997343372911E+03   -0.17077E-04   -0.18285E-04  2880   0.136E-03 0.510E-04
CGA:  15    -0.997343370394E+03    0.25169E-05   -0.32646E-05  2880   0.728E-04 0.953E-04
  25 F= -.99734337E+03 E0= -.99732776E+03  d E =-.113725E-02  mag=     1.9998
       N       E                     dE             d eps       ncg     rms          ort
SDA:   1    -0.997302896317E+03    0.40477E-01    0.00000E+00  2880   0.202E+00 0.000E+00
CGA:   2    -0.997314518589E+03   -0.11622E-01   -0.11657E-01  2880   0.130E+00-0.416E-02
CGA:   3    -0.997337270473E+03   -0.22752E-01   -0.23074E-01  2880   0.128E+00-0.324E-02
CGA:   4    -0.997343801948E+03   -0.65315E-02   -0.66464E-02  2880   0.128E-01 0.150E-02
CGA:   5    -0.997345329336E+03   -0.15274E-02   -0.14262E-02  2880   0.479E-02 0.338E-02
CGA:   6    -0.997346326034E+03   -0.99670E-03   -0.12326E-02  2880   0.796E-02-0.190E-02
CGA:   7    -0.997346506749E+03   -0.18072E-03   -0.17101E-03  2880   0.288E-02-0.241E-03
CGA:   8    -0.997346576164E+03   -0.69415E-04   -0.88091E-04  2880   0.144E-02 0.320E-03
CGA:   9    -0.997346616996E+03   -0.40831E-04   -0.64030E-04  2880   0.128E-02 0.568E-03
CGA:  10    -0.997346683848E+03   -0.66852E-04   -0.84236E-04  2880   0.896E-03 0.550E-03
CGA:  11    -0.997346778494E+03   -0.94646E-04   -0.93117E-04  2880   0.667E-03-0.316E-03
CGA:  12    -0.997344688350E+03    0.20901E-02   -0.11533E-02  2880   0.298E-01-0.545E-02
CGA:  13    -0.997345758608E+03   -0.10703E-02   -0.12606E-02  2880   0.650E-02 0.222E-02
CGA:  14    -0.997346153911E+03   -0.39530E-03   -0.49204E-03  2880   0.235E-02 0.156E-02
CGA:  15    -0.997346650447E+03   -0.49654E-03   -0.51395E-03  2880   0.419E-02-0.412E-03
CGA:  16    -0.997346783944E+03   -0.13350E-03   -0.12098E-03  2880   0.562E-03-0.131E-03
CGA:  17    -0.997346799443E+03   -0.15499E-04   -0.16053E-04  2880   0.212E-03 0.339E-05
CGA:  18    -0.997346824872E+03   -0.25429E-04   -0.25123E-04  2880   0.624E-03-0.430E-04
CGA:  19    -0.997346856673E+03   -0.31801E-04   -0.23708E-04  2880   0.379E-03-0.971E-04
CGA:  20    -0.997346869970E+03   -0.13297E-04   -0.97179E-05  2880   0.186E-03-0.433E-04
CGA:  21    -0.997346876188E+03   -0.62180E-05   -0.67792E-05  2880   0.178E-03 0.600E-05
  26 F= -.99734688E+03 E0= -.99733119E+03  d E =-.350579E-02  mag=     1.9998
       N       E                     dE             d eps       ncg     rms          ort
SDA:   1    -0.996290554277E+03    0.10563E+01    0.00000E+00  2880   0.466E+01 0.000E+00
CGA:   2    -0.996561719757E+03   -0.27117E+00   -0.32319E+00  2880   0.384E+01-0.277E+00
CGA:   3    -0.997127527895E+03   -0.56581E+00   -0.58101E+00  2880   0.320E+01-0.222E+00
CGA:   4    -0.997274334401E+03   -0.14681E+00   -0.16502E+00  2880   0.368E+00-0.200E+00
CGA:   5    -0.997315671115E+03   -0.41337E-01   -0.41144E-01  2880   0.219E+00 0.136E-01
CGA:   6    -0.997343446332E+03   -0.27775E-01   -0.27840E-01  2880   0.520E-01-0.577E-02
CGA:   7    -0.997347500543E+03   -0.40542E-02   -0.40350E-02  2880   0.225E-01-0.177E-04
CGA:   8    -0.997350972620E+03   -0.34721E-02   -0.33772E-02  2880   0.129E-01 0.221E-02
CGA:   9    -0.997351952302E+03   -0.97968E-03   -0.95402E-03  2880   0.737E-02-0.643E-03
CGA:  10    -0.997352732891E+03   -0.78059E-03   -0.79319E-03  2880   0.612E-02-0.202E-02
CGA:  11    -0.997353046613E+03   -0.31372E-03   -0.34278E-03  2880   0.127E-02 0.959E-03
CGA:  12    -0.997353084513E+03   -0.37899E-04   -0.77698E-04  2880   0.616E-03 0.778E-03
CGA:  13    -0.997353231722E+03   -0.14721E-03   -0.14594E-03  2880   0.161E-02 0.704E-05
CGA:  14    -0.997353322082E+03   -0.90360E-04   -0.98602E-04  2880   0.300E-03 0.162E-03
CGA:  15    -0.997353354324E+03   -0.32242E-04   -0.32009E-04  2880   0.354E-03-0.259E-04
CGA:  16    -0.997353408991E+03   -0.54667E-04   -0.55727E-04  2880   0.271E-03-0.159E-04
CGA:  17    -0.997353418643E+03   -0.96519E-05   -0.14067E-04  2880   0.123E-03 0.792E-04
  27 F= -.99735342E+03 E0= -.99733751E+03  d E =-.654245E-02  mag=     1.9999
       N       E                     dE             d eps       ncg     rms          ort
SDA:   1    -0.997106822586E+03    0.24659E+00    0.00000E+00  2880   0.889E+00 0.000E+00
CGA:   2    -0.997167484576E+03   -0.60662E-01   -0.62594E-01  2880   0.915E+00-0.973E-02
CGA:   3    -0.997313847578E+03   -0.14636E+00   -0.14665E+00  2880   0.221E+00-0.524E-02
CGA:   4    -0.997332966278E+03   -0.19119E-01   -0.19065E-01  2880   0.844E-01 0.622E-03
CGA:   5    -0.997340293011E+03   -0.73267E-02   -0.73321E-02  2880   0.570E-01-0.174E-03
CGA:   6    -0.997345977306E+03   -0.56843E-02   -0.56720E-02  2880   0.285E-01-0.347E-02
CGA:   7    -0.997347398786E+03   -0.14215E-02   -0.14634E-02  2880   0.549E-02 0.120E-02
CGA:   8    -0.997347891074E+03   -0.49229E-03   -0.51467E-03  2880   0.241E-02 0.206E-02
CGA:   9    -0.997348426908E+03   -0.53583E-03   -0.55300E-03  2880   0.407E-02-0.269E-03
CGA:  10    -0.997348655389E+03   -0.22848E-03   -0.20738E-03  2880   0.125E-02-0.465E-03
CGA:  11    -0.997348748057E+03   -0.92668E-04   -0.86386E-04  2880   0.129E-02-0.268E-03
CGA:  12    -0.997348839781E+03   -0.91723E-04   -0.91493E-04  2880   0.116E-02-0.104E-04
CGA:  13    -0.997348880121E+03   -0.40340E-04   -0.50175E-04  2880   0.386E-03 0.170E-03
CGA:  14    -0.997348907165E+03   -0.27044E-04   -0.29270E-04  2880   0.387E-03 0.712E-04
CGA:  15    -0.997348953444E+03   -0.46278E-04   -0.47955E-04  2880   0.288E-03-0.179E-03
CGA:  16    -0.997348950730E+03    0.27134E-05   -0.31559E-04  2880   0.636E-03-0.316E-03
CGA:  17    -0.997348963423E+03   -0.12693E-04   -0.26151E-04  2880   0.189E-03 0.224E-03
CGA:  18    -0.997348968531E+03   -0.51081E-05   -0.12068E-04  2880   0.121E-03 0.139E-03
CGA:  19    -0.997348759499E+03    0.20903E-03   -0.11223E-03  2880   0.711E-02-0.564E-03
CGA:  20    -0.997348991233E+03   -0.23173E-03   -0.26979E-03  2880   0.319E-03 0.182E-03
CGA:  21    -0.997349001464E+03   -0.10231E-04   -0.15687E-04  2880   0.877E-04 0.423E-04
CGA:  22    -0.997349003585E+03   -0.21212E-05   -0.66460E-05  2880   0.330E-04 0.485E-04
  28 F= -.99734900E+03 E0= -.99733325E+03  d E =0.441506E-02  mag=     1.9998
       N       E                     dE             d eps       ncg     rms          ort
SDA:   1    -0.996111278585E+03    0.12377E+01    0.00000E+00  2880   0.302E+01 0.000E+00
CGA:   2    -0.996865454435E+03   -0.75418E+00   -0.71019E+00  2880   0.302E+01 0.440E+00
CGA:   3    -0.997197333147E+03   -0.33188E+00   -0.26505E+00  2880   0.435E+00 0.317E+00
CGA:   4    -0.997286726353E+03   -0.89393E-01   -0.89723E-01  2880   0.389E+00-0.993E-02
CGA:   5    -0.997317463872E+03   -0.30738E-01   -0.31139E-01  2880   0.153E+00 0.507E-02
CGA:   6    -0.997325690971E+03   -0.82271E-02   -0.84836E-02  2880   0.379E-01-0.830E-03
CGA:   7    -0.997330074652E+03   -0.43837E-02   -0.43896E-02  2880   0.295E-01-0.697E-03
CGA:   8    -0.997333317530E+03   -0.32429E-02   -0.31777E-02  2880   0.105E-01-0.187E-02
CGA:   9    -0.997334049000E+03   -0.73147E-03   -0.81151E-03  2880   0.365E-02 0.170E-02
CGA:  10    -0.997334348532E+03   -0.29953E-03   -0.33304E-03  2880   0.291E-02 0.619E-03
CGA:  11    -0.997334863801E+03   -0.51527E-03   -0.51542E-03  2880   0.211E-02-0.182E-04
CGA:  12    -0.997335151496E+03   -0.28770E-03   -0.28491E-03  2880   0.263E-02-0.140E-02
CGA:  13    -0.997335216233E+03   -0.64737E-04   -0.10730E-03  2880   0.590E-03 0.426E-03
CGA:  14    -0.997335229613E+03   -0.13380E-04   -0.38829E-04  2880   0.336E-03 0.336E-03
CGA:  15    -0.997335275649E+03   -0.46036E-04   -0.46811E-04  2880   0.720E-03-0.790E-04
CGA:  16    -0.997335324792E+03   -0.49143E-04   -0.50071E-04  2880   0.368E-03 0.232E-04
CGA:  17    -0.997335338336E+03   -0.13544E-04   -0.16830E-04  2880   0.998E-04 0.366E-04
CGA:  18    -0.997335343492E+03   -0.51556E-05   -0.71628E-05  2880   0.974E-04 0.343E-04
CGA:  19    -0.997335353739E+03   -0.10247E-04   -0.11508E-04  2880   0.586E-04 0.391E-04
CGA:  20    -0.997335377662E+03   -0.23923E-04    0.21807E-04  2880   0.141E-03-0.254E-04
CGA:  21    -0.997335413560E+03   -0.35898E-04    0.53459E-05  2880   0.259E-03-0.201E-03
CGA:  22    -0.997335408138E+03    0.54221E-05   -0.79184E-05  2880   0.100E-03 0.151E-03
  29 F= -.99733541E+03 E0= -.99732002E+03  d E =0.135954E-01  mag=     1.9997
       N       E                     dE             d eps       ncg     rms          ort
SDA:   1    -0.997141427004E+03    0.19399E+00    0.00000E+00  2880   0.629E+00 0.000E+00
CGA:   2    -0.997195204586E+03   -0.53778E-01   -0.53281E-01  2880   0.875E+00-0.844E-02
CGA:   3    -0.997307336347E+03   -0.11213E+00   -0.11215E+00  2880   0.159E+00-0.348E-02
CGA:   4    -0.997320801434E+03   -0.13465E-01   -0.13348E-01  2880   0.700E-01 0.886E-02
CGA:   5    -0.997328516911E+03   -0.77155E-02   -0.77268E-02  2880   0.488E-01 0.370E-02
CGA:   6    -0.997333781914E+03   -0.52650E-02   -0.52343E-02  2880   0.195E-01-0.554E-02
CGA:   7    -0.997334672457E+03   -0.89054E-03   -0.89436E-03  2880   0.662E-02 0.715E-04
CGA:   8    -0.997335306064E+03   -0.63361E-03   -0.64618E-03  2880   0.332E-02 0.163E-02
CGA:   9    -0.997335685790E+03   -0.37973E-03   -0.37730E-03  2880   0.358E-02-0.197E-03
CGA:  10    -0.997335985936E+03   -0.30015E-03   -0.29244E-03  2880   0.170E-02-0.458E-03
CGA:  11    -0.997336064904E+03   -0.78969E-04   -0.81527E-04  2880   0.762E-03 0.355E-04
CGA:  12    -0.997336117270E+03   -0.52365E-04   -0.58894E-04  2880   0.728E-03 0.257E-03
CGA:  13    -0.997336169148E+03   -0.51878E-04   -0.61807E-04  2880   0.236E-03 0.271E-03
CGA:  14    -0.997336213147E+03   -0.43999E-04   -0.80177E-04  2880   0.132E-02-0.243E-03
CGA:  15    -0.997336254692E+03   -0.41545E-04   -0.46416E-04  2880   0.108E-03 0.508E-04
CGA:  16    -0.997336252971E+03    0.17210E-05   -0.36509E-05  2880   0.607E-04 0.777E-04
  30 F= -.99733625E+03 E0= -.99732055E+03  d E =-.844833E-03  mag=     1.9998
       N       E                     dE             d eps       ncg     rms          ort
SDA:   1    -0.997146404129E+03    0.18985E+00    0.00000E+00  2880   0.513E+00 0.000E+00
CGA:   2    -0.997230996033E+03   -0.84592E-01   -0.86261E-01  2880   0.125E+01-0.230E-01
CGA:   3    -0.997319285955E+03   -0.88290E-01   -0.88488E-01  2880   0.186E+00-0.391E-02
CGA:   4    -0.997330393386E+03   -0.11107E-01   -0.11483E-01  2880   0.706E-01 0.586E-02
CGA:   5    -0.997340096565E+03   -0.97032E-02   -0.95293E-02  2880   0.372E-01 0.480E-02
CGA:   6    -0.997343597688E+03   -0.35011E-02   -0.34478E-02  2880   0.204E-01-0.523E-02
CGA:   7    -0.997344544854E+03   -0.94717E-03   -0.91891E-03  2880   0.619E-02-0.609E-03
CGA:   8    -0.997345133580E+03   -0.58873E-03   -0.58467E-03  2880   0.336E-02 0.207E-02
CGA:   9    -0.997345404587E+03   -0.27101E-03   -0.27975E-03  2880   0.212E-02 0.226E-03
CGA:  10    -0.997345727262E+03   -0.32267E-03   -0.38619E-03  2880   0.193E-02-0.827E-03
CGA:  11    -0.997345789215E+03   -0.61953E-04   -0.57370E-04  2880   0.682E-03-0.105E-03
CGA:  12    -0.997345818800E+03   -0.29586E-04   -0.38368E-04  2880   0.664E-03 0.247E-03
CGA:  13    -0.997345863446E+03   -0.44646E-04   -0.56673E-04  2880   0.289E-03 0.393E-03
CGA:  14    -0.997345926535E+03   -0.63089E-04    0.69795E-04  2880   0.205E-03 0.311E-04
CGA:  15    -0.997345756737E+03    0.16980E-03   -0.97511E-04  2880   0.395E-02-0.635E-03
CGA:  16    -0.997345890143E+03   -0.13341E-03   -0.17158E-03  2880   0.603E-03 0.360E-03
CGA:  17    -0.997345911601E+03   -0.21458E-04   -0.40910E-04  2880   0.282E-03 0.209E-03
CGA:  18    -0.997345930943E+03   -0.19341E-04   -0.28911E-04  2880   0.148E-03 0.121E-03
CGA:  19    -0.997345963903E+03   -0.32961E-04   -0.46551E-04  2880   0.684E-03-0.202E-03
CGA:  20    -0.997345988382E+03   -0.24479E-04   -0.23959E-04  2880   0.363E-04-0.157E-04
CGA:  21    -0.997345985998E+03    0.23837E-05   -0.93996E-06  2880   0.219E-04 0.269E-04
  31 F= -.99734599E+03 E0= -.99733029E+03  d E =-.973303E-02  mag=     1.9998
       N       E                     dE             d eps       ncg     rms          ort
SDA:   1    -0.997305464309E+03    0.40524E-01    0.00000E+00  2880   0.203E+00 0.000E+00
CGA:   2    -0.997314988757E+03   -0.95244E-02   -0.99952E-02  2880   0.107E+00-0.122E-01
CGA:   3    -0.997338508819E+03   -0.23520E-01   -0.23758E-01  2880   0.300E-01-0.235E-02
CGA:   4    -0.997340359345E+03   -0.18505E-02   -0.19540E-02  2880   0.129E-01 0.147E-02
CGA:   5    -0.997341546541E+03   -0.11872E-02   -0.12508E-02  2880   0.779E-02 0.153E-02
CGA:   6    -0.997342537855E+03   -0.99131E-03   -0.95416E-03  2880   0.462E-02-0.164E-02
CGA:   7    -0.997342778652E+03   -0.24080E-03   -0.21354E-03  2880   0.108E-02-0.382E-03
CGA:   8    -0.997342839076E+03   -0.60424E-04   -0.78723E-04  2880   0.581E-03 0.376E-03
CGA:   9    -0.997342880324E+03   -0.41248E-04   -0.55815E-04  2880   0.258E-03 0.267E-03
CGA:  10    -0.997342936627E+03   -0.56303E-04   -0.77663E-04  2880   0.900E-03-0.258E-03
CGA:  11    -0.997342971138E+03   -0.34512E-04   -0.34042E-04  2880   0.111E-03-0.181E-04
CGA:  12    -0.997342972609E+03   -0.14705E-05   -0.57648E-05  2880   0.504E-04 0.615E-04
CGA:  13    -0.997342982482E+03   -0.98730E-05   -0.11326E-04  2880   0.163E-03-0.141E-04
CGA:  14    -0.997342997030E+03   -0.14548E-04   -0.13638E-04  2880   0.103E-03-0.117E-03
CGA:  15    -0.997342997684E+03   -0.65436E-06   -0.38797E-05  2880   0.392E-04 0.369E-04
  32 F= -.99734300E+03 E0= -.99732741E+03  d E =0.298831E-02  mag=     1.9998
       N       E                     dE             d eps       ncg     rms          ort
SDA:   1    -0.996493876900E+03    0.84912E+00    0.00000E+00  2880   0.362E+01 0.000E+00
CGA:   2    -0.996689785248E+03   -0.19591E+00   -0.23170E+00  2880   0.316E+01-0.321E+00
CGA:   3    -0.997233979975E+03   -0.54419E+00   -0.54737E+00  2880   0.470E+00-0.385E-01
CGA:   4    -0.997268155780E+03   -0.34176E-01   -0.34654E-01  2880   0.337E+00-0.406E-02
CGA:   5    -0.997306204105E+03   -0.38048E-01   -0.38040E-01  2880   0.144E+00-0.597E-03
CGA:   6    -0.997314391490E+03   -0.81874E-02   -0.82838E-02  2880   0.367E-01-0.414E-02
CGA:   7    -0.997319451619E+03   -0.50601E-02   -0.50864E-02  2880   0.227E-01-0.148E-02
CGA:   8    -0.997321002605E+03   -0.15510E-02   -0.15850E-02  2880   0.127E-01 0.513E-03
CGA:   9    -0.997321929140E+03   -0.92654E-03   -0.98879E-03  2880   0.256E-02 0.211E-02
CGA:  10    -0.997322324321E+03   -0.39518E-03   -0.39757E-03  2880   0.318E-02-0.940E-04
CGA:  11    -0.997322753133E+03   -0.42881E-03   -0.44548E-03  2880   0.141E-02-0.499E-03
CGA:  12    -0.997322915325E+03   -0.16219E-03   -0.16909E-03  2880   0.762E-03-0.230E-03
CGA:  13    -0.997322996673E+03   -0.81348E-04   -0.81368E-04  2880   0.711E-03-0.172E-05
CGA:  14    -0.997323045559E+03   -0.48885E-04   -0.48491E-04  2880   0.296E-03-0.115E-04
CGA:  15    -0.997323063736E+03   -0.18177E-04   -0.22359E-04  2880   0.132E-03 0.117E-03
CGA:  16    -0.997323086579E+03   -0.22843E-04   -0.22355E-04  2880   0.789E-04 0.503E-04
CGA:  17    -0.997323117599E+03   -0.31020E-04    0.21865E-04  2880   0.177E-03-0.374E-04
CGA:  18    -0.997323150453E+03   -0.32854E-04    0.88750E-05  2880   0.253E-03-0.180E-03
CGA:  19    -0.997323146573E+03    0.38799E-05   -0.72900E-05  2880   0.989E-04 0.134E-03
  33 F= -.99732315E+03 E0= -.99730809E+03  d E =0.198511E-01  mag=     1.9997
       N       E                     dE             d eps       ncg     rms          ort
SDA:   1    -0.996935678864E+03    0.38747E+00    0.00000E+00  2880   0.181E+01 0.000E+00
CGA:   2    -0.997035899812E+03   -0.10022E+00   -0.96699E-01  2880   0.115E+01-0.257E-02
CGA:   3    -0.997265510071E+03   -0.22961E+00   -0.23071E+00  2880   0.792E+00-0.116E-01
CGA:   4    -0.997305917572E+03   -0.40408E-01   -0.43094E-01  2880   0.137E+00-0.174E-01
CGA:   5    -0.997321506908E+03   -0.15589E-01   -0.15585E-01  2880   0.126E+00 0.467E-02
CGA:   6    -0.997329410506E+03   -0.79036E-02   -0.79844E-02  2880   0.518E-01-0.291E-03
CGA:   7    -0.997334899704E+03   -0.54892E-02   -0.55005E-02  2880   0.110E-01-0.446E-02
CGA:   8    -0.997335791383E+03   -0.89168E-03   -0.91494E-03  2880   0.721E-02 0.212E-02
CGA:   9    -0.997336353733E+03   -0.56235E-03   -0.59707E-03  2880   0.380E-02 0.113E-02
CGA:  10    -0.997336977261E+03   -0.62353E-03   -0.63826E-03  2880   0.164E-02-0.336E-03
CGA:  11    -0.997337148984E+03   -0.17172E-03   -0.18840E-03  2880   0.277E-02-0.705E-03
CGA:  12    -0.997337237967E+03   -0.88983E-04   -0.89483E-04  2880   0.121E-02 0.889E-05
CGA:  13    -0.997337260254E+03   -0.22287E-04   -0.42709E-04  2880   0.611E-03 0.303E-03
CGA:  14    -0.997337271147E+03   -0.10893E-04   -0.31028E-04  2880   0.458E-03 0.360E-03
CGA:  15    -0.997337303858E+03   -0.32711E-04   -0.33050E-04  2880   0.358E-03 0.123E-04
CGA:  16    -0.997337335832E+03   -0.31974E-04   -0.32644E-04  2880   0.162E-03 0.138E-03
CGA:  17    -0.997337360713E+03   -0.24881E-04   -0.25200E-04  2880   0.200E-03-0.191E-04
CGA:  18    -0.997337380432E+03   -0.19719E-04   -0.21057E-04  2880   0.149E-03-0.546E-04
CGA:  19    -0.997337382056E+03   -0.16238E-05   -0.33073E-05  2880   0.625E-04 0.252E-04
  34 F= -.99733738E+03 E0= -.99732192E+03  d E =-.142355E-01  mag=     1.9997
       N       E                     dE             d eps       ncg     rms          ort
SDA:   1    -0.996687585639E+03    0.64979E+00    0.00000E+00  2880   0.297E+01 0.000E+00
CGA:   2    -0.996849199422E+03   -0.16161E+00   -0.15155E+00  2880   0.178E+01 0.710E-02
CGA:   3    -0.997261709735E+03   -0.41251E+00   -0.41066E+00  2880   0.655E+00 0.151E-01
CGA:   4    -0.997301420004E+03   -0.39710E-01   -0.38795E-01  2880   0.270E+00-0.120E-03
CGA:   5    -0.997321881607E+03   -0.20462E-01   -0.20251E-01  2880   0.169E+00 0.535E-02
CGA:   6    -0.997333920604E+03   -0.12039E-01   -0.12112E-01  2880   0.903E-01 0.240E-02
CGA:   7    -0.997341512889E+03   -0.75923E-02   -0.75665E-02  2880   0.535E-01-0.607E-02
CGA:   8    -0.997343882029E+03   -0.23691E-02   -0.23605E-02  2880   0.110E-01-0.880E-03
CGA:   9    -0.997344958509E+03   -0.10765E-02   -0.10497E-02  2880   0.988E-02 0.324E-02
CGA:  10    -0.997345762487E+03   -0.80398E-03   -0.82718E-03  2880   0.469E-02 0.102E-02
CGA:  11    -0.997346419266E+03   -0.65678E-03   -0.93297E-03  2880   0.550E-02-0.297E-02
CGA:  12    -0.997346644644E+03   -0.22538E-03   -0.26816E-03  2880   0.133E-02 0.983E-03
CGA:  13    -0.997346690952E+03   -0.46308E-04   -0.74176E-04  2880   0.527E-03 0.656E-03
CGA:  14    -0.997346762395E+03   -0.71443E-04   -0.70910E-04  2880   0.703E-03 0.245E-03
CGA:  15    -0.997346873302E+03   -0.11091E-03   -0.15349E-03  2880   0.101E-02-0.699E-03
CGA:  16    -0.997346899181E+03   -0.25879E-04   -0.38735E-04  2880   0.297E-03 0.240E-03
CGA:  17    -0.997346918151E+03   -0.18970E-04   -0.23539E-04  2880   0.216E-03 0.188E-03
CGA:  18    -0.997346926931E+03   -0.87803E-05   -0.40249E-04  2880   0.186E-02-0.321E-03
CGA:  19    -0.997346970980E+03   -0.44048E-04   -0.55562E-04  2880   0.618E-04 0.177E-03
CGA:  20    -0.997346971424E+03   -0.44423E-06   -0.23600E-05  2880   0.401E-04 0.351E-04
  35 F= -.99734697E+03 E0= -.99733122E+03  d E =-.958937E-02  mag=     1.9999
       N       E                     dE             d eps       ncg     rms          ort
SDA:   1    -0.997178014006E+03    0.16896E+00    0.00000E+00  2880   0.245E+01 0.000E+00
CGA:   2    -0.997258147801E+03   -0.80134E-01   -0.92009E-01  2880   0.314E+00-0.280E+00
CGA:   3    -0.997292395122E+03   -0.34247E-01   -0.34505E-01  2880   0.398E+00-0.704E-02
CGA:   4    -0.997332440667E+03   -0.40046E-01   -0.39897E-01  2880   0.830E-01 0.519E-02
CGA:   5    -0.997337488013E+03   -0.50473E-02   -0.51145E-02  2880   0.328E-01 0.285E-02
CGA:   6    -0.997341653445E+03   -0.41654E-02   -0.41339E-02  2880   0.298E-01 0.764E-03
CGA:   7    -0.997344241961E+03   -0.25885E-02   -0.25866E-02  2880   0.680E-02-0.549E-03
CGA:   8    -0.997344846155E+03   -0.60419E-03   -0.60744E-03  2880   0.617E-02-0.141E-02
CGA:   9    -0.997345298766E+03   -0.45261E-03   -0.45184E-03  2880   0.213E-02 0.193E-03
CGA:  10    -0.997345408751E+03   -0.10999E-03   -0.12814E-03  2880   0.419E-03 0.595E-03
CGA:  11    -0.997345450761E+03   -0.42010E-04   -0.43733E-04  2880   0.291E-03 0.298E-03
CGA:  12    -0.997345501641E+03   -0.50880E-04    0.37389E-02  2880   0.340E-03 0.813E-04
CGA:  13    -0.997345584590E+03   -0.82949E-04    0.19710E-03  2880   0.155E-03 0.243E-03
CGA:  14    -0.997345581942E+03    0.26484E-05   -0.44826E-05  2880   0.110E-03 0.123E-03
  36 F= -.99734558E+03 E0= -.99732987E+03  d E =0.138948E-02  mag=     1.9999
       N       E                     dE             d eps       ncg     rms          ort
SDA:   1    -0.997223298222E+03    0.12229E+00    0.00000E+00  2880   0.381E+00 0.000E+00
CGA:   2    -0.997258596028E+03   -0.35298E-01   -0.35219E-01  2880   0.450E+00 0.600E-02
CGA:   3    -0.997320063784E+03   -0.61468E-01   -0.61155E-01  2880   0.261E+00 0.499E-02
CGA:   4    -0.997332954131E+03   -0.12890E-01   -0.12631E-01  2880   0.316E-01-0.150E-02
CGA:   5    -0.997338871444E+03   -0.59173E-02   -0.68516E-02  2880   0.307E-01-0.657E-02
CGA:   6    -0.997340308974E+03   -0.14375E-02   -0.15161E-02  2880   0.989E-02 0.300E-02
CGA:   7    -0.997340772859E+03   -0.46389E-03   -0.54094E-03  2880   0.260E-02 0.274E-02
CGA:   8    -0.997340954250E+03   -0.18139E-03   -0.20560E-03  2880   0.183E-02 0.104E-02
CGA:   9    -0.997341224405E+03   -0.27016E-03   -0.26938E-03  2880   0.186E-02 0.326E-04
CGA:  10    -0.997341398606E+03   -0.17420E-03   -0.21635E-03  2880   0.136E-02-0.150E-02
CGA:  11    -0.997341450340E+03   -0.51735E-04   -0.71058E-04  2880   0.485E-03 0.538E-03
CGA:  12    -0.997341493293E+03   -0.42952E-04   -0.47550E-04  2880   0.269E-03 0.292E-03
CGA:  13    -0.997341553323E+03   -0.60030E-04    0.37008E-04  2880   0.142E-03 0.656E-04
CGA:  14    -0.997341463150E+03    0.90173E-04   -0.53652E-04  2880   0.192E-02-0.398E-03
CGA:  15    -0.997341534619E+03   -0.71469E-04   -0.92228E-04  2880   0.292E-03 0.177E-03
CGA:  16    -0.997341552598E+03   -0.17979E-04   -0.26832E-04  2880   0.174E-03 0.134E-03
CGA:  17    -0.997341578905E+03   -0.26307E-04   -0.27029E-04  2880   0.106E-03 0.168E-04
CGA:  18    -0.997341101312E+03    0.47759E-03   -0.82083E-04  2880   0.812E-02-0.100E-02
CGA:  19    -0.997341372774E+03   -0.27146E-03   -0.35539E-03  2880   0.110E-02 0.564E-03
CGA:  20    -0.997341426348E+03   -0.53574E-04   -0.82285E-04  2880   0.616E-03 0.294E-03
CGA:  21    -0.997341522308E+03   -0.95959E-04   -0.98228E-04  2880   0.459E-03 0.601E-04
CGA:  22    -0.997341602778E+03   -0.80470E-04   -0.86137E-04  2880   0.605E-03-0.510E-03
CGA:  23    -0.997341610852E+03   -0.80738E-05   -0.22073E-04  2880   0.942E-04 0.109E-03
  37 F= -.99734161E+03 E0= -.99732604E+03  d E =0.397109E-02  mag=     1.9998
