       N       E                     dE             d eps       ncg     rms          ort
DAV:   1     0.289872711580E+04    0.28987E+04   -0.21049E+05  2592   0.138E+03
DAV:   2    -0.723845571485E+03   -0.36226E+04   -0.34733E+04  2592   0.243E+02
DAV:   3    -0.120144547220E+04   -0.47760E+03   -0.47245E+03  2592   0.952E+01
DAV:   4    -0.122441205258E+04   -0.22967E+02   -0.22785E+02  2592   0.231E+01
DAV:   5    -0.122567782856E+04   -0.12658E+01   -0.12639E+01  2592   0.529E+00
SDA:   6    -0.109627989099E+04    0.12940E+03   -0.12639E+01  2592   0.671E+02 0.000E+00
CGA:   7    -0.111129850126E+04   -0.15019E+02   -0.15020E+02  2592   0.634E+01 0.114E+00
CGA:   8    -0.111315675297E+04   -0.18583E+01   -0.18486E+01  2592   0.149E+01 0.922E-01
CGA:   9    -0.111364426259E+04   -0.48751E+00   -0.48718E+00  2592   0.399E+00 0.264E-02
CGA:  10    -0.111379300460E+04   -0.14874E+00   -0.15029E+00  2592   0.111E+00-0.102E-01
CGA:  11    -0.111383139299E+04   -0.38388E-01   -0.38541E-01  2592   0.331E-01-0.118E-02
CGA:  12    -0.111384118563E+04   -0.97926E-02   -0.97743E-02  2592   0.766E-02 0.249E-03
CGA:  13    -0.111384399695E+04   -0.28113E-02   -0.28942E-02  2592   0.258E-02-0.577E-03
CGA:  14    -0.111384487989E+04   -0.88294E-03   -0.91595E-03  2592   0.701E-03-0.227E-03
CGA:  15    -0.111384507563E+04   -0.19574E-03   -0.18912E-03  2592   0.177E-03 0.130E-03
CGA:  16    -0.111384511362E+04   -0.37991E-04   -0.42460E-04  2592   0.631E-04 0.101E-03
CGA:  17    -0.111384512469E+04   -0.11072E-04   -0.12744E-04  2592   0.306E-04 0.387E-04
CGA:  18    -0.111384512918E+04   -0.44827E-05   -0.57582E-05  2592   0.190E-04 0.229E-04
   1 F= -.11138451E+04 E0= -.11138372E+04  d E =-.111385E+04  mag=     0.0081
       N       E                     dE             d eps       ncg     rms          ort
SDA:   1    -0.111384713403E+04   -0.20093E-02    0.00000E+00  2592   0.214E-02 0.000E+00
CGA:   2    -0.111384766726E+04   -0.53323E-03   -0.53290E-03  2592   0.507E-03 0.255E-04
CGA:   3    -0.111384781619E+04   -0.14893E-03   -0.14752E-03  2592   0.123E-03 0.278E-04
CGA:   4    -0.111384785812E+04   -0.41933E-04   -0.42221E-04  2592   0.371E-04-0.346E-05
CGA:   5    -0.111384786840E+04   -0.10281E-04   -0.10206E-04  2592   0.824E-05 0.190E-05
CGA:   6    -0.111384787139E+04   -0.29936E-05   -0.29164E-05  2592   0.221E-05 0.844E-06
   2 F= -.11138479E+04 E0= -.11138399E+04  d E =-.274221E-02  mag=     0.0007
       N       E                     dE             d eps       ncg     rms          ort
SDA:   1    -0.111371260651E+04    0.13526E+00    0.00000E+00  2592   0.478E+00 0.000E+00
CGA:   2    -0.111383224009E+04   -0.11963E+00   -0.11963E+00  2592   0.114E+00-0.445E-05
CGA:   3    -0.111386652605E+04   -0.34286E-01   -0.34288E-01  2592   0.298E-01-0.437E-04
CGA:   4    -0.111387552864E+04   -0.90026E-02   -0.90109E-02  2592   0.768E-02-0.195E-03
CGA:   5    -0.111387785649E+04   -0.23279E-02   -0.23273E-02  2592   0.188E-02 0.976E-05
CGA:   6    -0.111387853397E+04   -0.67747E-03   -0.67651E-03  2592   0.513E-03 0.935E-05
CGA:   7    -0.111387869670E+04   -0.16273E-03   -0.16234E-03  2592   0.139E-03 0.815E-05
CGA:   8    -0.111387874630E+04   -0.49599E-04   -0.50007E-04  2592   0.406E-04-0.484E-05
CGA:   9    -0.111387876020E+04   -0.13907E-04   -0.14001E-04  2592   0.115E-04-0.115E-05
CGA:  10    -0.111387876409E+04   -0.38899E-05   -0.39012E-05  2592   0.315E-05-0.158E-06
   3 F= -.11138788E+04 E0= -.11138709E+04  d E =-.308927E-01  mag=     0.0000
       N       E                     dE             d eps       ncg     rms          ort
SDA:   1    -0.111321289514E+04    0.66587E+00    0.00000E+00  2592   0.210E+01 0.000E+00
CGA:   2    -0.111371594720E+04   -0.50305E+00   -0.50322E+00  2592   0.481E+00 0.428E-03
CGA:   3    -0.111385969878E+04   -0.14375E+00   -0.14376E+00  2592   0.127E+00-0.169E-03
CGA:   4    -0.111389828157E+04   -0.38583E-01   -0.38590E-01  2592   0.325E-01-0.334E-03
CGA:   5    -0.111390817312E+04   -0.98915E-02   -0.98891E-02  2592   0.771E-02 0.888E-04
CGA:   6    -0.111391095970E+04   -0.27866E-02   -0.27849E-02  2592   0.212E-02 0.185E-04
CGA:   7    -0.111391162202E+04   -0.66232E-03   -0.66209E-03  2592   0.572E-03 0.845E-05
CGA:   8    -0.111391181822E+04   -0.19619E-03   -0.19638E-03  2592   0.153E-03-0.349E-05
CGA:   9    -0.111391187318E+04   -0.54965E-04   -0.55025E-04  2592   0.443E-04-0.913E-06
CGA:  10    -0.111391188955E+04   -0.16366E-04   -0.16580E-04  2592   0.136E-04-0.259E-05
CGA:  11    -0.111391189298E+04   -0.34269E-05   -0.34646E-05  2592   0.248E-05 0.136E-05
   4 F= -.11139119E+04 E0= -.11139040E+04  d E =-.331289E-01  mag=     0.0000
       N       E                     dE             d eps       ncg     rms          ort
SDA:   1    -0.111363656219E+04    0.27533E+00    0.00000E+00  2592   0.815E+00 0.000E+00
CGA:   2    -0.111384237530E+04   -0.20581E+00   -0.20580E+00  2592   0.211E+00-0.263E-03
CGA:   3    -0.111390233556E+04   -0.59960E-01   -0.59965E-01  2592   0.534E-01 0.367E-03
CGA:   4    -0.111391923229E+04   -0.16897E-01   -0.16898E-01  2592   0.136E-01-0.941E-04
CGA:   5    -0.111392336485E+04   -0.41326E-02   -0.41318E-02  2592   0.345E-02 0.588E-04
CGA:   6    -0.111392454157E+04   -0.11767E-02   -0.11762E-02  2592   0.102E-02 0.899E-05
CGA:   7    -0.111392485461E+04   -0.31304E-03   -0.31296E-03  2592   0.258E-03 0.859E-05
CGA:   8    -0.111392494756E+04   -0.92958E-04   -0.93199E-04  2592   0.715E-04-0.396E-05
CGA:   9    -0.111392497327E+04   -0.25705E-04   -0.25749E-04  2592   0.211E-04-0.677E-06
CGA:  10    -0.111392498048E+04   -0.72117E-05   -0.72079E-05  2592   0.600E-05 0.900E-07
   5 F= -.11139250E+04 E0= -.11139171E+04  d E =-.130875E-01  mag=     0.0000
       N       E                     dE             d eps       ncg     rms          ort
SDA:   1    -0.111276552773E+04    0.11594E+01    0.00000E+00  2592   0.321E+01 0.000E+00
CGA:   2    -0.111359821486E+04   -0.83269E+00   -0.83275E+00  2592   0.834E+00 0.287E-03
CGA:   3    -0.111383440100E+04   -0.23619E+00   -0.23620E+00  2592   0.216E+00 0.464E-03
CGA:   4    -0.111390155007E+04   -0.67149E-01   -0.67153E-01  2592   0.531E-01-0.432E-03
CGA:   5    -0.111391783221E+04   -0.16282E-01   -0.16282E-01  2592   0.142E-01 0.628E-04
CGA:   6    -0.111392251624E+04   -0.46840E-02   -0.46837E-02  2592   0.424E-02 0.883E-05
CGA:   7    -0.111392382637E+04   -0.13101E-02   -0.13100E-02  2592   0.107E-02 0.199E-04
CGA:   8    -0.111392420796E+04   -0.38160E-03   -0.38206E-03  2592   0.281E-03-0.956E-05
CGA:   9    -0.111392431276E+04   -0.10480E-03   -0.10495E-03  2592   0.825E-04-0.219E-05
CGA:  10    -0.111392434054E+04   -0.27774E-04   -0.27781E-04  2592   0.249E-04-0.270E-06
CGA:  11    -0.111392434820E+04   -0.76612E-05   -0.76620E-05  2592   0.516E-05 0.608E-06
   6 F= -.11139243E+04 E0= -.11139164E+04  d E =0.632281E-03  mag=    -0.0000
       N       E                     dE             d eps       ncg     rms          ort
SDA:   1    -0.111363374103E+04    0.29060E+00    0.00000E+00  2592   0.806E+00 0.000E+00
CGA:   2    -0.111385592733E+04   -0.22219E+00   -0.22218E+00  2592   0.194E+00-0.140E-03
CGA:   3    -0.111391241187E+04   -0.56485E-01   -0.56491E-01  2592   0.567E-01 0.144E-03
CGA:   4    -0.111392906636E+04   -0.16654E-01   -0.16654E-01  2592   0.148E-01-0.349E-04
CGA:   5    -0.111393358903E+04   -0.45227E-02   -0.45227E-02  2592   0.406E-02-0.118E-05
CGA:   6    -0.111393503313E+04   -0.14441E-02   -0.14437E-02  2592   0.109E-02 0.735E-05
CGA:   7    -0.111393539845E+04   -0.36532E-03   -0.36493E-03  2592   0.305E-03 0.167E-04
CGA:   8    -0.111393550140E+04   -0.10295E-03   -0.10314E-03  2592   0.975E-04-0.101E-04
CGA:   9    -0.111393553155E+04   -0.30155E-04   -0.30145E-04  2592   0.236E-04 0.198E-05
CGA:  10    -0.111393553993E+04   -0.83797E-05   -0.83210E-05  2592   0.560E-05 0.196E-05
   7 F= -.11139355E+04 E0= -.11139276E+04  d E =-.111917E-01  mag=    -0.0000
       N       E                     dE             d eps       ncg     rms          ort
SDA:   1    -0.111383337033E+04    0.10216E+00    0.00000E+00  2592   0.294E+00 0.000E+00
CGA:   2    -0.111391107232E+04   -0.77702E-01   -0.77699E-01  2592   0.747E-01 0.321E-04
CGA:   3    -0.111393252669E+04   -0.21454E-01   -0.21456E-01  2592   0.197E-01 0.110E-04
CGA:   4    -0.111393856747E+04   -0.60408E-02   -0.60414E-02  2592   0.496E-02 0.655E-04
CGA:   5    -0.111394010222E+04   -0.15347E-02   -0.15345E-02  2592   0.132E-02-0.339E-04
CGA:   6    -0.111394054267E+04   -0.44045E-03   -0.44016E-03  2592   0.379E-03 0.140E-04
CGA:   7    -0.111394066134E+04   -0.11866E-03   -0.11866E-03  2592   0.103E-03-0.466E-06
CGA:   8    -0.111394069667E+04   -0.35338E-04   -0.35334E-04  2592   0.270E-04 0.108E-06
CGA:   9    -0.111394070636E+04   -0.96869E-05   -0.96428E-05  2592   0.732E-05 0.110E-05
   8 F= -.11139407E+04 E0= -.11139328E+04  d E =-.516643E-02  mag=    -0.0000
       N       E                     dE             d eps       ncg     rms          ort
SDA:   1    -0.111389570276E+04    0.44994E-01    0.00000E+00  2592   0.130E+00 0.000E+00
CGA:   2    -0.111393028536E+04   -0.34583E-01   -0.34575E-01  2592   0.322E-01-0.942E-04
CGA:   3    -0.111393978786E+04   -0.95025E-02   -0.95058E-02  2592   0.876E-02 0.115E-03
CGA:   4    -0.111394240130E+04   -0.26134E-02   -0.26137E-02  2592   0.231E-02 0.108E-04
CGA:   5    -0.111394309761E+04   -0.69631E-03   -0.69641E-03  2592   0.598E-03 0.556E-05
CGA:   6    -0.111394330531E+04   -0.20770E-03   -0.20775E-03  2592   0.162E-03-0.178E-05
CGA:   7    -0.111394335625E+04   -0.50940E-04   -0.50943E-04  2592   0.403E-04 0.662E-05
CGA:   8    -0.111394337139E+04   -0.15142E-04   -0.15228E-04  2592   0.130E-04-0.180E-05
CGA:   9    -0.111394337558E+04   -0.41907E-05   -0.41837E-05  2592   0.331E-05 0.376E-06
   9 F= -.11139434E+04 E0= -.11139355E+04  d E =-.266922E-02  mag=    -0.0000
       N       E                     dE             d eps       ncg     rms          ort
SDA:   1    -0.111323599597E+04    0.70738E+00    0.00000E+00  2592   0.187E+01 0.000E+00
CGA:   2    -0.111375958581E+04   -0.52359E+00   -0.52360E+00  2592   0.465E+00-0.121E-03
CGA:   3    -0.111389240626E+04   -0.13282E+00   -0.13284E+00  2592   0.130E+00 0.313E-03
CGA:   4    -0.111393058346E+04   -0.38177E-01   -0.38175E-01  2592   0.318E-01-0.151E-03
CGA:   5    -0.111394032002E+04   -0.97366E-02   -0.97369E-02  2592   0.824E-02 0.669E-05
CGA:   6    -0.111394305486E+04   -0.27348E-02   -0.27345E-02  2592   0.230E-02 0.153E-04
CGA:   7    -0.111394377080E+04   -0.71594E-03   -0.71609E-03  2592   0.597E-03 0.268E-04
CGA:   8    -0.111394398428E+04   -0.21348E-03   -0.21397E-03  2592   0.167E-03-0.128E-04
CGA:   9    -0.111394404546E+04   -0.61174E-04   -0.61098E-04  2592   0.447E-04 0.123E-05
CGA:  10    -0.111394406131E+04   -0.15854E-04   -0.15813E-04  2592   0.125E-04 0.129E-05
CGA:  11    -0.111394406541E+04   -0.41002E-05   -0.41006E-05  2592   0.298E-05 0.480E-07
  10 F= -.11139441E+04 E0= -.11139362E+04  d E =-.689830E-03  mag=     0.0000
       N       E                     dE             d eps       ncg     rms          ort
SDA:   1    -0.111311914137E+04    0.82492E+00    0.00000E+00  2592   0.218E+01 0.000E+00
CGA:   2    -0.111372668415E+04   -0.60754E+00   -0.60764E+00  2592   0.511E+00 0.366E-03
CGA:   3    -0.111388085743E+04   -0.15417E+00   -0.15417E+00  2592   0.141E+00-0.108E-03
CGA:   4    -0.111392232102E+04   -0.41464E-01   -0.41462E-01  2592   0.357E-01-0.146E-03
CGA:   5    -0.111393314195E+04   -0.10821E-01   -0.10822E-01  2592   0.956E-02 0.207E-04
CGA:   6    -0.111393633881E+04   -0.31969E-02   -0.31969E-02  2592   0.265E-02-0.101E-04
CGA:   7    -0.111393719048E+04   -0.85167E-03   -0.85182E-03  2592   0.706E-03 0.249E-04
CGA:   8    -0.111393743488E+04   -0.24440E-03   -0.24450E-03  2592   0.199E-03-0.631E-05
CGA:   9    -0.111393750800E+04   -0.73120E-04   -0.73120E-04  2592   0.520E-04-0.979E-07
CGA:  10    -0.111393752743E+04   -0.19433E-04   -0.19457E-04  2592   0.146E-04-0.566E-06
CGA:  11    -0.111393753179E+04   -0.43538E-05   -0.43698E-05  2592   0.328E-05 0.530E-06
  11 F= -.11139375E+04 E0= -.11139297E+04  d E =0.653362E-02  mag=     0.0000
       N       E                     dE             d eps       ncg     rms          ort
SDA:   1    -0.111343152330E+04    0.50600E+00    0.00000E+00  2592   0.139E+01 0.000E+00
CGA:   2    -0.111381493422E+04   -0.38341E+00   -0.38338E+00  2592   0.333E+00 0.198E-04
CGA:   3    -0.111391314502E+04   -0.98211E-01   -0.98221E-01  2592   0.922E-01 0.433E-04
CGA:   4    -0.111394067240E+04   -0.27527E-01   -0.27527E-01  2592   0.230E-01-0.449E-04
CGA:   5    -0.111394764568E+04   -0.69733E-02   -0.69733E-02  2592   0.627E-02-0.380E-05
CGA:   6    -0.111394972786E+04   -0.20822E-02   -0.20820E-02  2592   0.169E-02 0.423E-04
CGA:   7    -0.111395028493E+04   -0.55707E-03   -0.55708E-03  2592   0.465E-03-0.837E-05
CGA:   8    -0.111395044260E+04   -0.15767E-03   -0.15766E-03  2592   0.125E-03 0.766E-06
CGA:   9    -0.111395048930E+04   -0.46697E-04   -0.46708E-04  2592   0.341E-04-0.305E-06
CGA:  10    -0.111395050108E+04   -0.11782E-04   -0.11753E-04  2592   0.836E-05 0.193E-05
CGA:  11    -0.111395050429E+04   -0.32075E-05   -0.32315E-05  2592   0.257E-05-0.702E-06
  12 F= -.11139505E+04 E0= -.11139427E+04  d E =-.129725E-01  mag=     0.0000
       N       E                     dE             d eps       ncg     rms          ort
SDA:   1    -0.111392918397E+04    0.21317E-01    0.00000E+00  2592   0.620E-01 0.000E+00
CGA:   2    -0.111394486436E+04   -0.15680E-01   -0.15685E-01  2592   0.151E-01 0.457E-04
CGA:   3    -0.111394934964E+04   -0.44853E-02   -0.44832E-02  2592   0.446E-02-0.689E-04
CGA:   4    -0.111395064805E+04   -0.12984E-02   -0.12982E-02  2592   0.114E-02-0.815E-05
CGA:   5    -0.111395101236E+04   -0.36431E-03   -0.36431E-03  2592   0.302E-03 0.577E-06
CGA:   6    -0.111395112402E+04   -0.11166E-03   -0.11168E-03  2592   0.830E-04-0.449E-06
CGA:   7    -0.111395115315E+04   -0.29130E-04   -0.29239E-04  2592   0.263E-04-0.404E-05
CGA:   8    -0.111395116032E+04   -0.71784E-05   -0.72396E-05  2592   0.587E-05 0.164E-05
  13 F= -.11139512E+04 E0= -.11139433E+04  d E =-.656034E-03  mag=     0.0000
       N       E                     dE             d eps       ncg     rms          ort
SDA:   1    -0.111394434507E+04    0.68081E-02    0.00000E+00  2592   0.202E-01 0.000E+00
CGA:   2    -0.111394980948E+04   -0.54644E-02   -0.54640E-02  2592   0.463E-02-0.109E-04
CGA:   3    -0.111395124173E+04   -0.14323E-02   -0.14323E-02  2592   0.126E-02 0.716E-06
CGA:   4    -0.111395161628E+04   -0.37455E-03   -0.37423E-03  2592   0.336E-03-0.128E-04
CGA:   5    -0.111395171359E+04   -0.97310E-04   -0.97410E-04  2592   0.886E-04 0.334E-05
CGA:   6    -0.111395174432E+04   -0.30722E-04   -0.30765E-04  2592   0.254E-04-0.184E-05
CGA:   7    -0.111395175196E+04   -0.76385E-05   -0.76582E-05  2592   0.616E-05 0.138E-05
  14 F= -.11139518E+04 E0= -.11139439E+04  d E =-.591632E-03  mag=     0.0000
