       N       E                     dE             d eps       ncg     rms          rms(c)
DAV:   1     0.828121907391E+04    0.82812E+04   -0.23626E+05 34320   0.219E+03
DAV:   2     0.121575392866E+04   -0.70655E+04   -0.66367E+04 33696   0.633E+02
DAV:   3    -0.315691001373E+03   -0.15314E+04   -0.13399E+04 35952   0.271E+02
DAV:   4    -0.468553447132E+03   -0.15286E+03   -0.15030E+03 36816   0.832E+01
DAV:   5    -0.471056230188E+03   -0.25028E+01   -0.24929E+01 36744   0.120E+01    0.108E+02
DAV:   6    -0.490148128494E+03   -0.19092E+02   -0.81903E+02 45660   0.115E+02    0.117E+02
DAV:   7    -0.393624542354E+03    0.96524E+02   -0.31623E+02 37068   0.113E+02    0.389E+01
DAV:   8    -0.398446291706E+03   -0.48217E+01   -0.65205E+01 41388   0.287E+01    0.150E+01
DAV:   9    -0.402015242080E+03   -0.35690E+01   -0.25063E+01 37764   0.283E+01    0.191E+01
DAV:  10    -0.400153464221E+03    0.18618E+01   -0.86537E+00 37332   0.166E+01    0.730E+00
DAV:  11    -0.400376295084E+03   -0.22283E+00   -0.19091E+00 37056   0.758E+00    0.644E+00
DAV:  12    -0.400409815003E+03   -0.33520E-01   -0.83727E-01 37488   0.630E+00    0.281E+00
DAV:  13    -0.400466069637E+03   -0.56255E-01   -0.31080E-01 36996   0.308E+00    0.211E+00
DAV:  14    -0.400485381796E+03   -0.19312E-01   -0.13264E-01 36696   0.249E+00    0.181E+00
DAV:  15    -0.400498667241E+03   -0.13285E-01   -0.56246E-02 36804   0.152E+00    0.135E+00
DAV:  16    -0.400524062059E+03   -0.25395E-01   -0.39884E-02 38316   0.135E+00    0.105E+00
DAV:  17    -0.400548877646E+03   -0.24816E-01   -0.39779E-02 42804   0.133E+00    0.735E-01
DAV:  18    -0.400566815057E+03   -0.17937E-01   -0.38546E-02 42144   0.993E-01    0.459E-01
DAV:  19    -0.400572826513E+03   -0.60115E-02   -0.22413E-02 37512   0.577E-01    0.334E-01
DAV:  20    -0.400574556288E+03   -0.17298E-02   -0.53614E-03 36336   0.432E-01    0.237E-01
DAV:  21    -0.400575594932E+03   -0.10386E-02   -0.27994E-03 39180   0.319E-01    0.132E-01
DAV:  22    -0.400575904699E+03   -0.30977E-03   -0.11415E-03 39624   0.141E-01    0.969E-02
DAV:  23    -0.400576068623E+03   -0.16392E-03   -0.41382E-04 41316   0.123E-01    0.720E-02
DAV:  24    -0.400576157841E+03   -0.89218E-04   -0.19614E-04 39804   0.990E-02    0.474E-02
DAV:  25    -0.400576207060E+03   -0.49219E-04   -0.98368E-05 32676   0.442E-02    0.408E-02
DAV:  26    -0.400576272405E+03   -0.65344E-04   -0.36998E-05 30996   0.525E-02    0.352E-02
DAV:  27    -0.400576348925E+03   -0.76520E-04   -0.72318E-05 34152   0.565E-02    0.301E-02
DAV:  28    -0.400576395401E+03   -0.46476E-04   -0.65273E-05 34788   0.479E-02    0.254E-02
DAV:  29    -0.400576431278E+03   -0.35877E-04   -0.43386E-05 30012   0.348E-02    0.214E-02
DAV:  30    -0.400576467201E+03   -0.35923E-04   -0.65520E-05 32436   0.638E-02    0.163E-02
DAV:  31    -0.400576489139E+03   -0.21938E-04   -0.75776E-05 33600   0.354E-02    0.108E-02
DAV:  32    -0.400576497298E+03   -0.81585E-05   -0.20107E-05 23028   0.302E-02
   1 F= -.40057650E+03 E0= -.40057650E+03  d E =-.923780E-28  mag=     1.9995
