       N       E                     dE             d eps       ncg     rms          rms(c)
DAV:   1     0.307114976466E+04    0.30711E+04   -0.25842E+05 73632   0.131E+03
DAV:   2    -0.611475310779E+03   -0.36826E+04   -0.35494E+04 89676   0.297E+02
DAV:   3    -0.872810425148E+03   -0.26134E+03   -0.25967E+03 89040   0.837E+01
DAV:   4    -0.876082967102E+03   -0.32725E+01   -0.32604E+01 89400   0.101E+01
DAV:   5    -0.876138756589E+03   -0.55789E-01   -0.55650E-01 91008   0.122E+00    0.990E+01
DAV:   6    -0.780313904735E+03    0.95825E+02   -0.40550E+02 81948   0.319E+01    0.501E+01
DAV:   7    -0.789413617614E+03   -0.90997E+01   -0.21774E+01 83124   0.766E+00    0.164E+01
DAV:   8    -0.793685611009E+03   -0.42720E+01   -0.17088E+00 85944   0.250E+00    0.781E+00
DAV:   9    -0.795987358746E+03   -0.23017E+01   -0.11578E+00 89016   0.174E+00    0.385E+00
DAV:  10    -0.796508860588E+03   -0.52150E+00   -0.30716E-01 83352   0.950E-01    0.113E+00
DAV:  11    -0.796581893984E+03   -0.73033E-01   -0.40091E-02 89052   0.352E-01    0.615E-01
DAV:  12    -0.796591889243E+03   -0.99953E-02   -0.54522E-03 84420   0.139E-01    0.272E-01
DAV:  13    -0.796594059821E+03   -0.21706E-02   -0.11105E-03 87912   0.635E-02    0.842E-02
DAV:  14    -0.796594468597E+03   -0.40878E-03   -0.31199E-04 82896   0.340E-02    0.433E-02
DAV:  15    -0.796594500779E+03   -0.32182E-04   -0.34174E-05 79356   0.164E-02    0.272E-02
DAV:  16    -0.796594512986E+03   -0.12207E-04   -0.19162E-05 62316   0.128E-02    0.900E-03
DAV:  17    -0.796594513866E+03   -0.87996E-06   -0.69875E-06 63576   0.802E-03
   1 F= -.79659451E+03 E0= -.79659451E+03  d E =-.796595E+03  mag=    -0.0016
