       N       E                     dE             d eps       ncg     rms          ort
DAV:   1     0.273808415050E+04    0.27381E+04   -0.20800E+05  2592   0.137E+03
DAV:   2    -0.743365938740E+03   -0.34815E+04   -0.33384E+04  2592   0.235E+02
DAV:   3    -0.119793617351E+04   -0.45457E+03   -0.44919E+03  2592   0.922E+01
DAV:   4    -0.121921149213E+04   -0.21275E+02   -0.21089E+02  2592   0.219E+01
DAV:   5    -0.122035631445E+04   -0.11448E+01   -0.11426E+01  2592   0.499E+00
SDA:   6    -0.111188623616E+04    0.10847E+03   -0.11426E+01  2592   0.504E+01 0.000E+00
CGA:   7    -0.111371761422E+04   -0.18314E+01   -0.18315E+01  2592   0.701E+00-0.314E-03
CGA:   8    -0.111392953868E+04   -0.21192E+00   -0.21097E+00  2592   0.177E+00 0.102E-01
CGA:   9    -0.111399303019E+04   -0.63492E-01   -0.63242E-01  2592   0.592E-01 0.167E-02
CGA:  10    -0.111401528584E+04   -0.22256E-01   -0.22434E-01  2592   0.201E-01-0.121E-02
CGA:  11    -0.111402258345E+04   -0.72976E-02   -0.74530E-02  2592   0.443E-02-0.104E-02
CGA:  12    -0.111402400192E+04   -0.14185E-02   -0.14408E-02  2592   0.110E-02-0.209E-03
CGA:  13    -0.111402433065E+04   -0.32873E-03   -0.32142E-03  2592   0.239E-03 0.109E-03
CGA:  14    -0.111402440284E+04   -0.72189E-04   -0.70721E-04  2592   0.633E-04 0.588E-04
CGA:  15    -0.111402443298E+04   -0.30142E-04   -0.29271E-04  2592   0.199E-04 0.685E-05
CGA:  16    -0.111402443655E+04   -0.35692E-05   -0.42276E-05  2592   0.743E-05 0.110E-04
   1 F= -.11140244E+04 E0= -.11140169E+04  d E =-.111402E+04  mag=    -0.0000
