       N       E                     dE             d eps       ncg     rms          rms(c)
DAV:   1     0.573724207332E+04    0.57372E+04   -0.20937E+05 43384   0.159E+03
DAV:   2     0.361873392672E+03   -0.53754E+04   -0.48742E+04 42712   0.482E+02
DAV:   3    -0.441499243384E+03   -0.80337E+03   -0.75451E+03 45432   0.195E+02
DAV:   4    -0.483447413892E+03   -0.41948E+02   -0.41466E+02 48056   0.455E+01
DAV:   5    -0.483968512930E+03   -0.52110E+00   -0.52003E+00 46448   0.556E+00    0.116E+02
DAV:   6    -0.408633298500E+03    0.75335E+02   -0.53754E+02 52728   0.906E+01    0.112E+02
DAV:   7    -0.398530807247E+03    0.10102E+02   -0.29262E+02 47592   0.930E+01    0.714E+01
DAV:   8    -0.394139296145E+03    0.43915E+01   -0.61908E+01 51464   0.328E+01    0.550E+01
DAV:   9    -0.394303322585E+03   -0.16403E+00   -0.96729E+01 46016   0.372E+01    0.471E+01
DAV:  10    -0.387658248439E+03    0.66451E+01   -0.19709E+01 47920   0.181E+01    0.287E+01
DAV:  11    -0.386812513363E+03    0.84574E+00   -0.97860E+00 46472   0.116E+01    0.226E+01
DAV:  12    -0.388646447312E+03   -0.18339E+01   -0.18546E+00 47504   0.513E+00    0.151E+01
DAV:  13    -0.389199643395E+03   -0.55320E+00   -0.93773E-01 52568   0.459E+00    0.896E+00
DAV:  14    -0.389207056578E+03   -0.74132E-02   -0.39413E-01 47344   0.333E+00    0.490E+00
DAV:  15    -0.389146449611E+03    0.60607E-01   -0.15847E-01 48928   0.206E+00    0.365E+00
DAV:  16    -0.389108015298E+03    0.38434E-01   -0.61848E-02 51256   0.150E+00    0.211E+00
DAV:  17    -0.389100595181E+03    0.74201E-02   -0.25834E-02 49384   0.724E-01    0.127E+00
DAV:  18    -0.389095918466E+03    0.46767E-02   -0.76023E-03 47968   0.472E-01    0.754E-01
DAV:  19    -0.389094912759E+03    0.10057E-02   -0.47947E-03 48680   0.286E-01    0.454E-01
DAV:  20    -0.389095214692E+03   -0.30193E-03   -0.27265E-03 47784   0.205E-01    0.372E-01
DAV:  21    -0.389095073700E+03    0.14099E-03   -0.51644E-04 47408   0.108E-01    0.238E-01
DAV:  22    -0.389094884464E+03    0.18924E-03   -0.18692E-04 47400   0.101E-01    0.121E-01
DAV:  23    -0.389094822036E+03    0.62428E-04   -0.15257E-04 49096   0.613E-02    0.534E-02
DAV:  24    -0.389094821770E+03    0.26597E-06   -0.90000E-05 44400   0.297E-02
   1 F= -.38909482E+03 E0= -.38909482E+03  d E =-.389095E+03  mag=    48.9984
       N       E                     dE             d eps       ncg     rms          rms(c)
DAV:   1    -0.389098598587E+03   -0.37766E-02   -0.22684E-02 59448   0.958E-01    0.102E-01
DAV:   2    -0.389099105575E+03   -0.50699E-03   -0.48780E-03 46144   0.163E-01    0.684E-02
DAV:   3    -0.389099136341E+03   -0.30766E-04   -0.20946E-04 43064   0.534E-02    0.431E-02
DAV:   4    -0.389099134891E+03    0.14496E-05   -0.14075E-05 30312   0.158E-02
   2 F= -.38909913E+03 E0= -.38909913E+03  d E =-.431312E-02  mag=    48.9999
       N       E                     dE             d eps       ncg     rms          rms(c)
DAV:   1    -0.389004654505E+03    0.94482E-01   -0.62937E+00 58200   0.158E+01    0.165E+00
DAV:   2    -0.389143367355E+03   -0.13871E+00   -0.13352E+00 46264   0.262E+00    0.978E-01
DAV:   3    -0.389151045967E+03   -0.76786E-02   -0.46923E-02 44056   0.655E-01    0.531E-01
DAV:   4    -0.389150757358E+03    0.28861E-03   -0.33428E-03 51960   0.197E-01    0.323E-01
DAV:   5    -0.389150278032E+03    0.47933E-03   -0.97330E-04 48360   0.156E-01    0.194E-01
DAV:   6    -0.389150255451E+03    0.22581E-04   -0.57044E-04 51856   0.109E-01    0.861E-02
DAV:   7    -0.389150280899E+03   -0.25447E-04   -0.21925E-04 45800   0.466E-02    0.331E-02
DAV:   8    -0.389150281309E+03   -0.41029E-06   -0.93670E-06 26096   0.131E-02
   3 F= -.38915028E+03 E0= -.38915028E+03  d E =-.511464E-01  mag=    49.0000
       N       E                     dE             d eps       ncg     rms          rms(c)
DAV:   1    -0.389054734022E+03    0.95547E-01   -0.88104E+00 53064   0.143E+01    0.149E+00
DAV:   2    -0.389174416618E+03   -0.11968E+00   -0.11568E+00 46832   0.254E+00    0.914E-01
DAV:   3    -0.389179241670E+03   -0.48251E-02   -0.33548E-02 44736   0.581E-01    0.524E-01
DAV:   4    -0.389178828911E+03    0.41276E-03   -0.26233E-03 49944   0.186E-01    0.322E-01
DAV:   5    -0.389178284088E+03    0.54482E-03   -0.11394E-03 50968   0.162E-01    0.190E-01
DAV:   6    -0.389178291567E+03   -0.74785E-05   -0.62959E-04 49912   0.104E-01    0.850E-02
DAV:   7    -0.389178311667E+03   -0.20101E-04   -0.19910E-04 45720   0.485E-02    0.352E-02
DAV:   8    -0.389178310415E+03    0.12524E-05   -0.11802E-05 28200   0.167E-02
   4 F= -.38917831E+03 E0= -.38917831E+03  d E =-.280291E-01  mag=    49.0000
       N       E                     dE             d eps       ncg     rms          rms(c)
DAV:   1    -0.389151636897E+03    0.26675E-01   -0.88578E+00 47464   0.908E+00    0.909E-01
DAV:   2    -0.389198619689E+03   -0.46983E-01   -0.45827E-01 46528   0.167E+00    0.633E-01
DAV:   3    -0.389199349141E+03   -0.72945E-03   -0.10100E-02 45904   0.360E-01    0.397E-01
DAV:   4    -0.389198981258E+03    0.36788E-03   -0.10481E-03 48856   0.131E-01    0.251E-01
DAV:   5    -0.389198651454E+03    0.32980E-03   -0.77229E-04 48544   0.116E-01    0.138E-01
DAV:   6    -0.389198685379E+03   -0.33924E-04   -0.40724E-04 48912   0.717E-02    0.670E-02
DAV:   7    -0.389198689435E+03   -0.40562E-05   -0.74847E-05 44872   0.345E-02
   5 F= -.38919869E+03 E0= -.38919869E+03  d E =-.203790E-01  mag=    49.0000
       N       E                     dE             d eps       ncg     rms          rms(c)
DAV:   1    -0.389113175362E+03    0.85510E-01   -0.22074E+01 46048   0.132E+01    0.134E+00
DAV:   2    -0.389219784756E+03   -0.10661E+00   -0.10403E+00 46136   0.250E+00    0.934E-01
DAV:   3    -0.389221037259E+03   -0.12525E-02   -0.22148E-02 45440   0.528E-01    0.596E-01
DAV:   4    -0.389220189546E+03    0.84771E-03   -0.25430E-03 49240   0.219E-01    0.414E-01
DAV:   5    -0.389219361253E+03    0.82829E-03   -0.18416E-03 47808   0.174E-01    0.195E-01
DAV:   6    -0.389219472270E+03   -0.11102E-03   -0.99801E-04 49128   0.951E-02    0.958E-02
DAV:   7    -0.389219476318E+03   -0.40478E-05   -0.16672E-04 45672   0.463E-02    0.437E-02
DAV:   8    -0.389219469926E+03    0.63926E-05   -0.12327E-05 26840   0.169E-02
   6 F= -.38921947E+03 E0= -.38921947E+03  d E =-.207805E-01  mag=    49.0000
       N       E                     dE             d eps       ncg     rms          rms(c)
DAV:   1    -0.389110105042E+03    0.10937E+00   -0.14853E+01 46696   0.138E+01    0.142E+00
DAV:   2    -0.389225009575E+03   -0.11490E+00   -0.11053E+00 46168   0.261E+00    0.915E-01
DAV:   3    -0.389228278690E+03   -0.32691E-02   -0.27870E-02 44712   0.563E-01    0.558E-01
DAV:   4    -0.389227707404E+03    0.57129E-03   -0.26207E-03 49608   0.209E-01    0.385E-01
DAV:   5    -0.389227027283E+03    0.68012E-03   -0.12751E-03 49392   0.169E-01    0.201E-01
DAV:   6    -0.389227090681E+03   -0.63399E-04   -0.82621E-04 50144   0.104E-01    0.985E-02
DAV:   7    -0.389227106957E+03   -0.16276E-04   -0.18195E-04 45800   0.493E-02    0.393E-02
DAV:   8    -0.389227102770E+03    0.41873E-05   -0.11140E-05 27688   0.185E-02
   7 F= -.38922710E+03 E0= -.38922710E+03  d E =-.763284E-02  mag=    49.0000
       N       E                     dE             d eps       ncg     rms          rms(c)
DAV:   1    -0.389037769254E+03    0.18934E+00   -0.19127E+01 48016   0.176E+01    0.191E+00
DAV:   2    -0.389225880047E+03   -0.18811E+00   -0.17992E+00 46032   0.332E+00    0.111E+00
DAV:   3    -0.389231950999E+03   -0.60710E-02   -0.45844E-02 44672   0.692E-01    0.620E-01
DAV:   4    -0.389231128489E+03    0.82251E-03   -0.39602E-03 49912   0.237E-01    0.442E-01
DAV:   5    -0.389230195910E+03    0.93258E-03   -0.14665E-03 49552   0.196E-01    0.236E-01
DAV:   6    -0.389230226365E+03   -0.30456E-04   -0.11026E-03 49792   0.131E-01    0.110E-01
DAV:   7    -0.389230250834E+03   -0.24469E-04   -0.29049E-04 45848   0.637E-02    0.433E-02
DAV:   8    -0.389230248343E+03    0.24905E-05   -0.17075E-05 31936   0.197E-02
   8 F= -.38923025E+03 E0= -.38923025E+03  d E =-.314557E-02  mag=    49.0000
       N       E                     dE             d eps       ncg     rms          rms(c)
DAV:   1    -0.389183240982E+03    0.47010E-01   -0.34470E+00 53288   0.928E+00    0.100E+00
DAV:   2    -0.389234145424E+03   -0.50904E-01   -0.48848E-01 46240   0.169E+00    0.566E-01
DAV:   3    -0.389236278765E+03   -0.21333E-02   -0.13933E-02 44384   0.390E-01    0.322E-01
DAV:   4    -0.389236110444E+03    0.16832E-03   -0.11826E-03 49720   0.125E-01    0.209E-01
DAV:   5    -0.389235861671E+03    0.24877E-03   -0.32648E-04 51224   0.915E-02    0.120E-01
DAV:   6    -0.389235843041E+03    0.18631E-04   -0.24589E-04 52344   0.640E-02    0.417E-02
DAV:   7    -0.389235850295E+03   -0.72540E-05   -0.74950E-05 45760   0.307E-02
   9 F= -.38923585E+03 E0= -.38923585E+03  d E =-.560195E-02  mag=    49.0000
       N       E                     dE             d eps       ncg     rms          rms(c)
DAV:   1    -0.389228704349E+03    0.71387E-02   -0.59263E-01 53928   0.389E+00    0.407E-01
DAV:   2    -0.389237335949E+03   -0.86316E-02   -0.82047E-02 45912   0.692E-01    0.231E-01
DAV:   3    -0.389237700786E+03   -0.36484E-03   -0.23700E-03 44240   0.158E-01    0.133E-01
DAV:   4    -0.389237676395E+03    0.24390E-04   -0.19217E-04 49976   0.492E-02    0.881E-02
DAV:   5    -0.389237637468E+03    0.38927E-04   -0.54307E-05 43848   0.392E-02    0.513E-02
DAV:   6    -0.389237636802E+03    0.66587E-06   -0.44279E-05 46416   0.289E-02
  10 F= -.38923764E+03 E0= -.38923764E+03  d E =-.178651E-02  mag=    49.0000
       N       E                     dE             d eps       ncg     rms          rms(c)
DAV:   1    -0.389224186881E+03    0.13451E-01   -0.15860E+00 47032   0.492E+00    0.529E-01
DAV:   2    -0.389238997425E+03   -0.14811E-01   -0.14058E-01 46008   0.920E-01    0.309E-01
DAV:   3    -0.389239432362E+03   -0.43494E-03   -0.32864E-03 44792   0.174E-01    0.173E-01
DAV:   4    -0.389239365622E+03    0.66741E-04   -0.26242E-04 49960   0.553E-02    0.127E-01
DAV:   5    -0.389239303089E+03    0.62532E-04   -0.11437E-04 49368   0.575E-02    0.605E-02
DAV:   6    -0.389239313325E+03   -0.10235E-04   -0.83804E-05 48384   0.356E-02    0.335E-02
DAV:   7    -0.389239314049E+03   -0.72388E-06   -0.17093E-05 28440   0.190E-02
  11 F= -.38923931E+03 E0= -.38923931E+03  d E =-.167725E-02  mag=    49.0000
