       N       E                     dE             d eps       ncg     rms          rms(c)
DAV:   1     0.845209873787E+04    0.84521E+04   -0.36699E+05 27040   0.176E+03
DAV:   2    -0.860773853301E+02   -0.85382E+04   -0.78533E+04 26224   0.479E+02
DAV:   3    -0.134238440660E+04   -0.12563E+04   -0.12248E+04 27672   0.205E+02
DAV:   4    -0.140840489464E+04   -0.66020E+02   -0.62551E+02 31096   0.466E+01
DAV:   5    -0.141071160585E+04   -0.23067E+01   -0.22514E+01 31504   0.724E+00    0.117E+02
DAV:   6    -0.109516787193E+04    0.31554E+03   -0.71989E+02 33536   0.669E+01    0.118E+02
DAV:   7    -0.111920692785E+04   -0.24039E+02   -0.12967E+02 30480   0.373E+01    0.678E+01
DAV:   8    -0.111945512005E+04   -0.24819E+00   -0.49623E+01 30824   0.343E+01    0.453E+01
DAV:   9    -0.112516923131E+04   -0.57141E+01   -0.21917E+01 30008   0.159E+01    0.287E+01
DAV:  10    -0.112413100529E+04    0.10382E+01   -0.16561E+01 30912   0.180E+01    0.225E+01
DAV:  11    -0.112588151387E+04   -0.17505E+01   -0.49344E+00 30728   0.116E+01    0.108E+01
DAV:  12    -0.112569862441E+04    0.18289E+00   -0.53246E+00 31592   0.587E+00    0.111E+01
DAV:  13    -0.112645285502E+04   -0.75423E+00   -0.10641E+00 30808   0.522E+00    0.787E+00
DAV:  14    -0.112652174465E+04   -0.68890E-01   -0.18267E-01 30640   0.212E+00    0.670E+00
DAV:  15    -0.112656856100E+04   -0.46816E-01   -0.12850E-01 32984   0.225E+00    0.520E+00
DAV:  16    -0.112659947394E+04   -0.30913E-01   -0.16995E-01 32664   0.261E+00    0.367E+00
DAV:  17    -0.112663162557E+04   -0.32152E-01   -0.15789E-01 33944   0.194E+00    0.264E+00
DAV:  18    -0.112666571374E+04   -0.34088E-01   -0.86466E-02 33960   0.841E-01    0.227E+00
DAV:  19    -0.112669079566E+04   -0.25082E-01   -0.12283E-02 36624   0.943E-01    0.181E+00
DAV:  20    -0.112673444874E+04   -0.43653E-01   -0.37886E-02 34312   0.123E+00    0.146E+00
DAV:  21    -0.112679305652E+04   -0.58608E-01   -0.56189E-02 35368   0.117E+00    0.124E+00
DAV:  22    -0.112685390833E+04   -0.60852E-01   -0.55385E-02 34736   0.941E-01    0.114E+00
DAV:  23    -0.112688927837E+04   -0.35370E-01   -0.32175E-02 30080   0.472E-01    0.942E-01
DAV:  24    -0.112694687534E+04   -0.57597E-01   -0.18348E-02 34560   0.830E-01    0.816E-01
DAV:  25    -0.112698802335E+04   -0.41148E-01   -0.37699E-02 32832   0.703E-01    0.822E-01
DAV:  26    -0.112704044775E+04   -0.52424E-01   -0.26458E-02 32296   0.623E-01    0.780E-01
DAV:  27    -0.112705996787E+04   -0.19520E-01   -0.15369E-02 29520   0.369E-01    0.735E-01
DAV:  28    -0.112711880406E+04   -0.58836E-01   -0.22341E-02 34432   0.723E-01    0.728E-01
DAV:  29    -0.112717753020E+04   -0.58726E-01   -0.45794E-02 33960   0.761E-01    0.713E-01
DAV:  30    -0.112719507772E+04   -0.17548E-01   -0.23923E-02 31088   0.417E-01    0.715E-01
DAV:  31    -0.112726202387E+04   -0.66946E-01   -0.24503E-02 33712   0.765E-01    0.689E-01
DAV:  32    -0.112724272299E+04    0.19301E-01   -0.17693E-02 29344   0.431E-01    0.703E-01
DAV:  33    -0.112729151785E+04   -0.48795E-01   -0.17124E-02 33072   0.598E-01    0.640E-01
DAV:  34    -0.112733218664E+04   -0.40669E-01   -0.29764E-02 34136   0.636E-01    0.621E-01
DAV:  35    -0.112736826073E+04   -0.36074E-01   -0.25551E-02 33336   0.555E-01    0.621E-01
DAV:  36    -0.112737760219E+04   -0.93415E-02   -0.10287E-02 27912   0.188E-01    0.607E-01
DAV:  37    -0.112737380879E+04    0.37934E-02   -0.12685E-03 27984   0.115E-01    0.606E-01
DAV:  38    -0.112736370486E+04    0.10104E-01   -0.27918E-03 36072   0.243E-01    0.715E-01
DAV:  39    -0.112735683391E+04    0.68710E-02   -0.16432E-03 29968   0.170E-01    0.690E-01
DAV:  40    -0.112734224161E+04    0.14592E-01   -0.54822E-03 33080   0.339E-01    0.648E-01
DAV:  41    -0.112732350149E+04    0.18740E-01   -0.88519E-03 34176   0.346E-01    0.639E-01
DAV:  42    -0.112732469698E+04   -0.11955E-02   -0.29059E-03 26168   0.125E-01    0.643E-01
DAV:  43    -0.112732160612E+04    0.30909E-02   -0.50862E-04 34040   0.112E-01    0.612E-01
DAV:  44    -0.112731424772E+04    0.73584E-02   -0.38006E-03 32696   0.289E-01    0.781E-01
DAV:  45    -0.112727315328E+04    0.41094E-01   -0.19331E-02 31000   0.719E-01    0.697E-01
DAV:  46    -0.112725291022E+04    0.20243E-01   -0.19970E-02 34800   0.474E-01    0.679E-01
DAV:  47    -0.112724472309E+04    0.81871E-02   -0.65206E-03 30784   0.184E-01    0.676E-01
DAV:  48    -0.112723820144E+04    0.65216E-02   -0.70910E-04 30256   0.108E-01    0.667E-01
DAV:  49    -0.112721292659E+04    0.25275E-01   -0.56875E-03 36648   0.347E-01    0.689E-01
DAV:  50    -0.112720049136E+04    0.12435E-01   -0.23603E-02 31440   0.747E-01    0.694E-01
DAV:  51    -0.112721724494E+04   -0.16754E-01   -0.37523E-02 34272   0.764E-01    0.620E-01
DAV:  52    -0.112721054370E+04    0.67012E-02   -0.36159E-02 33704   0.777E-01    0.621E-01
DAV:  53    -0.112723239335E+04   -0.21850E-01   -0.23268E-02 27072   0.653E-01    0.604E-01
DAV:  54    -0.112724441307E+04   -0.12020E-01   -0.73599E-03 33784   0.338E-01    0.753E-01
DAV:  55    -0.112726145564E+04   -0.17043E-01   -0.11327E-02 32728   0.486E-01    0.726E-01
DAV:  56    -0.112734224116E+04   -0.80786E-01   -0.10372E-01 32288   0.162E+00    0.617E-01
DAV:  57    -0.112738555606E+04   -0.43315E-01   -0.16409E-01 34256   0.157E+00    0.873E-01
DAV:  58    -0.112744252962E+04   -0.56974E-01   -0.33712E-01 32072   0.264E+00    0.172E+00
DAV:  59    -0.112746185940E+04   -0.19330E-01   -0.30526E-01 33632   0.151E+00    0.222E+00
DAV:  60    -0.112755521357E+04   -0.93354E-01   -0.11695E-01 27592   0.136E+00    0.141E+00
DAV:  61    -0.112754499847E+04    0.10215E-01   -0.56559E-02 34888   0.884E-01    0.840E-01
DAV:  62    -0.112755612779E+04   -0.11129E-01   -0.17966E-02 27192   0.451E-01    0.767E-01
DAV:  63    -0.112756993761E+04   -0.13810E-01   -0.58486E-03 32856   0.304E-01    0.796E-01
DAV:  64    -0.112757267535E+04   -0.27377E-02   -0.24263E-03 28432   0.110E-01    0.760E-01
DAV:  65    -0.112757878440E+04   -0.61091E-02   -0.95243E-04 32632   0.147E-01    0.789E-01
DAV:  66    -0.112760639718E+04   -0.27613E-01   -0.20985E-02 32568   0.686E-01    0.981E-01
DAV:  67    -0.112761378891E+04   -0.73917E-02   -0.93378E-03 28336   0.233E-01    0.827E-01
DAV:  68    -0.112762289804E+04   -0.91091E-02   -0.28059E-03 33256   0.232E-01    0.812E-01
DAV:  69    -0.112764500188E+04   -0.22104E-01   -0.16734E-02 33192   0.560E-01    0.931E-01
DAV:  70    -0.112764309797E+04    0.19039E-02   -0.11321E-02 30488   0.460E-01    0.521E-01
DAV:  71    -0.112764989240E+04   -0.67944E-02   -0.43005E-03 29896   0.298E-01    0.615E-01
DAV:  72    -0.112766963330E+04   -0.19741E-01   -0.10141E-02 32824   0.421E-01    0.751E-01
DAV:  73    -0.112766732431E+04    0.23090E-02   -0.56996E-03 29480   0.307E-01    0.518E-01
DAV:  74    -0.112767527732E+04   -0.79530E-02   -0.20438E-03 29824   0.165E-01    0.562E-01
DAV:  75    -0.112766895910E+04    0.63182E-02   -0.23549E-03 31968   0.213E-01    0.439E-01
DAV:  76    -0.112767890586E+04   -0.99468E-02   -0.16136E-03 30824   0.178E-01    0.466E-01
DAV:  77    -0.112767800299E+04    0.90287E-03   -0.48899E-04 26976   0.529E-02    0.458E-01
DAV:  78    -0.112767776652E+04    0.23647E-03   -0.25688E-05 21672   0.180E-02    0.451E-01
DAV:  79    -0.112767845774E+04   -0.69122E-03   -0.59614E-05 23528   0.389E-02    0.463E-01
DAV:  80    -0.112767855852E+04   -0.10078E-03   -0.28722E-05 18368   0.115E-02    0.465E-01
DAV:  81    -0.112766545445E+04    0.13104E-01   -0.18054E-03 32088   0.199E-01    0.415E-01
DAV:  82    -0.112766217836E+04    0.32761E-02   -0.90701E-04 29256   0.876E-02    0.399E-01
DAV:  83    -0.112765911348E+04    0.30649E-02   -0.41640E-04 34784   0.701E-02    0.396E-01
DAV:  84    -0.112765777525E+04    0.13382E-02   -0.20477E-04 29152   0.308E-02    0.398E-01
DAV:  85    -0.112765227229E+04    0.55030E-02   -0.21829E-04 30520   0.711E-02    0.402E-01
DAV:  86    -0.112763639859E+04    0.15874E-01   -0.19436E-03 31696   0.192E-01    0.432E-01
DAV:  87    -0.112763419481E+04    0.22038E-02   -0.76553E-04 29440   0.535E-02    0.447E-01
DAV:  88    -0.112763356449E+04    0.63032E-03   -0.54655E-05 22368   0.223E-02    0.450E-01
DAV:  89    -0.112763166673E+04    0.18978E-02   -0.30758E-05 18488   0.202E-02    0.457E-01
DAV:  90    -0.112762643348E+04    0.52332E-02   -0.18350E-04 31512   0.579E-02    0.481E-01
DAV:  91    -0.112765998266E+04   -0.33549E-01   -0.54307E-03 31808   0.361E-01    0.374E-01
DAV:  92    -0.112766059652E+04   -0.61386E-03   -0.16100E-03 27056   0.702E-02    0.375E-01
DAV:  93    -0.112765957487E+04    0.10216E-02   -0.40830E-05 23936   0.246E-02    0.379E-01
DAV:  94    -0.112765082287E+04    0.87520E-02   -0.98644E-04 33384   0.146E-01    0.393E-01
DAV:  95    -0.112760764043E+04    0.43182E-01   -0.15026E-02 31904   0.547E-01    0.521E-01
DAV:  96    -0.112752338573E+04    0.84255E-01   -0.24553E-02 32576   0.569E-01    0.946E-01
DAV:  97    -0.112752325548E+04    0.13025E-03   -0.68687E-03 27096   0.161E-01    0.936E-01
DAV:  98    -0.112753243493E+04   -0.91794E-02   -0.30978E-04 33272   0.714E-02    0.891E-01
DAV:  99    -0.112753240112E+04    0.33811E-04   -0.28293E-04 31552   0.634E-02    0.885E-01
DAV: 100    -0.112753742672E+04   -0.50256E-02   -0.10269E-03 35176   0.127E-01    0.851E-01
DAV: 101    -0.112764653777E+04   -0.10911E+00   -0.52561E-02 31920   0.107E+00    0.522E-01
DAV: 102    -0.112763791691E+04    0.86209E-02   -0.13315E-02 26696   0.318E-01    0.554E-01
DAV: 103    -0.112763299876E+04    0.49182E-02   -0.10221E-03 32400   0.953E-02    0.590E-01
DAV: 104    -0.112762748162E+04    0.55171E-02   -0.88471E-04 32896   0.113E-01    0.625E-01
DAV: 105    -0.112762323754E+04    0.42441E-02   -0.10829E-03 32272   0.104E-01    0.653E-01
DAV: 106    -0.112761870848E+04    0.45291E-02   -0.73018E-04 31632   0.101E-01    0.682E-01
DAV: 107    -0.112761428049E+04    0.44280E-02   -0.98585E-04 31552   0.117E-01    0.693E-01
DAV: 108    -0.112761069441E+04    0.35861E-02   -0.79590E-04 31688   0.785E-02    0.698E-01
DAV: 109    -0.112759979774E+04    0.10897E-01   -0.26421E-03 33624   0.243E-01    0.736E-01
DAV: 110    -0.112759608687E+04    0.37109E-02   -0.19196E-03 29488   0.868E-02    0.738E-01
DAV: 111    -0.112757773190E+04    0.18355E-01   -0.59867E-03 33696   0.382E-01    0.838E-01
DAV: 112    -0.112757296304E+04    0.47689E-02   -0.38590E-03 28856   0.117E-01    0.831E-01
DAV: 113    -0.112756842622E+04    0.45368E-02   -0.33421E-04 32160   0.819E-02    0.836E-01
DAV: 114    -0.112755816434E+04    0.10262E-01   -0.21006E-03 33360   0.204E-01    0.843E-01
DAV: 115    -0.112754091749E+04    0.17247E-01   -0.61882E-03 33784   0.316E-01    0.859E-01
DAV: 116    -0.112753176903E+04    0.91485E-02   -0.52887E-03 32616   0.222E-01    0.892E-01
DAV: 117    -0.112753229879E+04   -0.52976E-03   -0.14625E-03 26536   0.882E-02    0.874E-01
DAV: 118    -0.112753265311E+04   -0.35432E-03   -0.29073E-05 22512   0.127E-02    0.872E-01
DAV: 119    -0.112753303941E+04   -0.38630E-03   -0.59394E-06 15688   0.698E-03    0.872E-01
DAV: 120    -0.112753288125E+04    0.15816E-03   -0.11226E-05 16256   0.153E-02    0.873E-01
DAV: 121    -0.112754447564E+04   -0.11594E-01   -0.23028E-03 34376   0.227E-01    0.844E-01
DAV: 122    -0.112754869307E+04   -0.42174E-02   -0.14220E-03 31128   0.112E-01    0.822E-01
DAV: 123    -0.112755684311E+04   -0.81500E-02   -0.18218E-03 33432   0.187E-01    0.780E-01
DAV: 124    -0.112756120282E+04   -0.43597E-02   -0.15837E-03 32952   0.930E-02    0.765E-01
DAV: 125    -0.112756397557E+04   -0.27727E-02   -0.26766E-04 33152   0.515E-02    0.751E-01
DAV: 126    -0.112756864980E+04   -0.46742E-02   -0.20214E-03 32816   0.239E-01    0.796E-01
DAV: 127    -0.112756561404E+04    0.30358E-02   -0.23669E-03 35680   0.153E-01    0.827E-01
DAV: 128    -0.112756124379E+04    0.43702E-02   -0.10552E-03 33056   0.113E-01    0.856E-01
DAV: 129    -0.112755779998E+04    0.34438E-02   -0.51863E-04 30904   0.728E-02    0.873E-01
DAV: 130    -0.112755748873E+04    0.31126E-03   -0.16760E-04 24392   0.245E-02    0.870E-01
DAV: 131    -0.112755257570E+04    0.49130E-02   -0.10992E-03 34376   0.153E-01    0.907E-01
DAV: 132    -0.112755260193E+04   -0.26230E-04   -0.41816E-04 27320   0.360E-02    0.902E-01
DAV: 133    -0.112755187558E+04    0.72636E-03   -0.18066E-05 20352   0.203E-02    0.908E-01
DAV: 134    -0.112755443222E+04   -0.25566E-02   -0.16926E-04 29168   0.674E-02    0.887E-01
DAV: 135    -0.112756226398E+04   -0.78318E-02   -0.18032E-03 34328   0.185E-01    0.842E-01
DAV: 136    -0.112766500601E+04   -0.10274E+00   -0.36040E-01 32816   0.289E+00    0.749E-01
DAV: 137    -0.112769234652E+04   -0.27341E-01   -0.12732E-01 26336   0.663E-01    0.513E-01
DAV: 138    -0.112769261566E+04   -0.26915E-03   -0.23328E-03 30664   0.101E-01    0.507E-01
DAV: 139    -0.112769278281E+04   -0.16715E-03   -0.76708E-05 26872   0.250E-02    0.497E-01
DAV: 140    -0.112769066641E+04    0.21164E-02   -0.16517E-04 30376   0.581E-02    0.475E-01
DAV: 141    -0.112770129311E+04   -0.10627E-01   -0.33487E-03 32816   0.277E-01    0.576E-01
DAV: 142    -0.112771255235E+04   -0.11259E-01   -0.64058E-03 32496   0.297E-01    0.587E-01
DAV: 143    -0.112772418462E+04   -0.11632E-01   -0.78196E-03 32536   0.322E-01    0.632E-01
DAV: 144    -0.112772896789E+04   -0.47833E-02   -0.42610E-03 32000   0.162E-01    0.648E-01
DAV: 145    -0.112772717807E+04    0.17898E-02   -0.10986E-03 27040   0.103E-01    0.626E-01
DAV: 146    -0.112773901331E+04   -0.11835E-01   -0.17888E-02 32096   0.644E-01    0.925E-01
DAV: 147    -0.112773549100E+04    0.35223E-02   -0.44499E-03 27296   0.237E-01    0.858E-01
DAV: 148    -0.112773737889E+04   -0.18879E-02   -0.52517E-04 28744   0.816E-02    0.865E-01
DAV: 149    -0.112774363211E+04   -0.62532E-02   -0.22258E-03 31928   0.196E-01    0.893E-01
DAV: 150    -0.112774713832E+04   -0.35062E-02   -0.32801E-03 34448   0.193E-01    0.968E-01
DAV: 151    -0.112774659863E+04    0.53970E-03   -0.98590E-04 26744   0.808E-02    0.956E-01
DAV: 152    -0.112774788449E+04   -0.12859E-02   -0.11088E-04 27864   0.399E-02    0.950E-01
DAV: 153    -0.112774991009E+04   -0.20256E-02   -0.27659E-04 31792   0.780E-02    0.896E-01
DAV: 154    -0.112775362408E+04   -0.37140E-02   -0.56015E-04 31608   0.102E-01    0.811E-01
DAV: 155    -0.112775809870E+04   -0.44746E-02   -0.10009E-03 32280   0.135E-01    0.777E-01
DAV: 156    -0.112776346790E+04   -0.53692E-02   -0.22691E-03 33312   0.193E-01    0.780E-01
DAV: 157    -0.112776695461E+04   -0.34867E-02   -0.20189E-03 32248   0.141E-01    0.783E-01
DAV: 158    -0.112776855622E+04   -0.16016E-02   -0.12752E-03 31560   0.137E-01    0.703E-01
DAV: 159    -0.112777103263E+04   -0.24764E-02   -0.13639E-03 32920   0.131E-01    0.626E-01
DAV: 160    -0.112777742210E+04   -0.63895E-02   -0.22504E-03 31504   0.183E-01    0.617E-01
DAV: 161    -0.112778319741E+04   -0.57753E-02   -0.25560E-03 32712   0.195E-01    0.677E-01
DAV: 162    -0.112778357799E+04   -0.38058E-03   -0.82485E-04 28856   0.721E-02    0.696E-01
DAV: 163    -0.112778594210E+04   -0.23641E-02   -0.26693E-04 31440   0.621E-02    0.702E-01
DAV: 164    -0.112778805228E+04   -0.21102E-02   -0.38752E-04 32168   0.692E-02    0.727E-01
DAV: 165    -0.112778980288E+04   -0.17506E-02   -0.46749E-04 32792   0.783E-02    0.748E-01
DAV: 166    -0.112779766715E+04   -0.78643E-02   -0.30128E-03 32504   0.271E-01    0.547E-01
DAV: 167    -0.112780004070E+04   -0.23735E-02   -0.15382E-03 28880   0.802E-02    0.558E-01
DAV: 168    -0.112780077613E+04   -0.73543E-03   -0.11983E-04 25744   0.215E-02    0.562E-01
DAV: 169    -0.112779598100E+04    0.47951E-02   -0.87710E-04 30656   0.128E-01    0.556E-01
DAV: 170    -0.112779275134E+04    0.32297E-02   -0.97898E-04 34680   0.100E-01    0.571E-01
DAV: 171    -0.112779543317E+04   -0.26818E-02   -0.79613E-04 34984   0.117E-01    0.577E-01
DAV: 172    -0.112779649299E+04   -0.10598E-02   -0.20218E-04 30912   0.479E-02    0.576E-01
DAV: 173    -0.112779730244E+04   -0.80945E-03   -0.12613E-04 30488   0.409E-02    0.565E-01
DAV: 174    -0.112779886185E+04   -0.15594E-02   -0.35302E-04 34864   0.770E-02    0.549E-01
DAV: 175    -0.112780409756E+04   -0.52357E-02   -0.16379E-03 32856   0.171E-01    0.551E-01
DAV: 176    -0.112781307205E+04   -0.89745E-02   -0.18009E-02 32440   0.632E-01    0.375E-01
DAV: 177    -0.112781391562E+04   -0.84357E-03   -0.73126E-03 27632   0.149E-01    0.398E-01
DAV: 178    -0.112781380970E+04    0.10592E-03   -0.12220E-04 27960   0.218E-02    0.399E-01
DAV: 179    -0.112781376866E+04    0.41039E-04   -0.70827E-06 18280   0.108E-02    0.397E-01
DAV: 180    -0.112781379201E+04   -0.23348E-04   -0.60380E-05 27768   0.263E-02    0.400E-01
DAV: 181    -0.112780190076E+04    0.11891E-01   -0.19251E-03 31672   0.190E-01    0.364E-01
DAV: 182    -0.112780692808E+04   -0.50273E-02   -0.10932E-03 30856   0.138E-01    0.366E-01
DAV: 183    -0.112780874127E+04   -0.18132E-02   -0.51474E-04 33536   0.644E-02    0.367E-01
DAV: 184    -0.112781094157E+04   -0.22003E-02   -0.32591E-04 31272   0.678E-02    0.372E-01
DAV: 185    -0.112781018440E+04    0.75718E-03   -0.36562E-04 31752   0.705E-02    0.381E-01
DAV: 186    -0.112783594728E+04   -0.25763E-01   -0.18801E-02 32840   0.620E-01    0.543E-01
DAV: 187    -0.112783523996E+04    0.70732E-03   -0.64244E-03 28680   0.250E-01    0.521E-01
DAV: 188    -0.112784144775E+04   -0.62078E-02   -0.22841E-03 35088   0.177E-01    0.536E-01
DAV: 189    -0.112784414936E+04   -0.27016E-02   -0.18087E-03 33624   0.144E-01    0.514E-01
DAV: 190    -0.112784714734E+04   -0.29980E-02   -0.16674E-03 34128   0.158E-01    0.467E-01
DAV: 191    -0.112785865977E+04   -0.11512E-01   -0.95854E-03 33048   0.417E-01    0.431E-01
DAV: 192    -0.112785840212E+04    0.25765E-03   -0.52249E-03 28856   0.137E-01    0.396E-01
DAV: 193    -0.112785989713E+04   -0.14950E-02   -0.73515E-04 35704   0.109E-01    0.348E-01
DAV: 194    -0.112786220218E+04   -0.23051E-02   -0.26668E-03 35640   0.183E-01    0.270E-01
DAV: 195    -0.112786902255E+04   -0.68204E-02   -0.71371E-03 34368   0.312E-01    0.214E-01
DAV: 196    -0.112786912783E+04   -0.10528E-03   -0.52434E-03 32448   0.166E-01    0.179E-01
DAV: 197    -0.112787357571E+04   -0.44479E-02   -0.17087E-03 32600   0.164E-01    0.177E-01
DAV: 198    -0.112787404207E+04   -0.46636E-03   -0.13244E-03 28800   0.698E-02    0.163E-01
DAV: 199    -0.112787484542E+04   -0.80335E-03   -0.33761E-04 33608   0.911E-02    0.140E-01
DAV: 200    -0.112787485258E+04   -0.71627E-05   -0.80125E-04 33768   0.102E-01
   1 F= -.11278749E+04 E0= -.11278749E+04  d E =-.112787E+04  mag=    65.0000
       N       E                     dE             d eps       ncg     rms          rms(c)
DAV:   1    -0.112787816870E+04   -0.33233E-02   -0.60403E-03 29312   0.238E-01    0.100E-01
DAV:   2    -0.112787837023E+04   -0.20153E-03   -0.13631E-03 28816   0.834E-02    0.611E-02
DAV:   3    -0.112787842037E+04   -0.50140E-04   -0.13937E-04 29664   0.306E-02    0.492E-02
DAV:   4    -0.112787849050E+04   -0.70135E-04   -0.17927E-05 17584   0.142E-02    0.426E-02
DAV:   5    -0.112787858933E+04   -0.98828E-04   -0.22594E-05 19912   0.216E-02    0.382E-02
DAV:   6    -0.112787869344E+04   -0.10411E-03   -0.56973E-05 24704   0.267E-02    0.345E-02
DAV:   7    -0.112787886237E+04   -0.16893E-03   -0.93188E-05 26144   0.403E-02    0.302E-02
DAV:   8    -0.112787912474E+04   -0.26237E-03   -0.32143E-04 31600   0.766E-02    0.263E-02
DAV:   9    -0.112787921133E+04   -0.86586E-04   -0.32021E-04 31464   0.488E-02    0.196E-02
DAV:  10    -0.112787925854E+04   -0.47208E-04   -0.10556E-04 28720   0.313E-02    0.143E-02
DAV:  11    -0.112787929727E+04   -0.38728E-04   -0.33730E-05 20992   0.218E-02    0.118E-02
DAV:  12    -0.112787930534E+04   -0.80751E-05   -0.33890E-05 20184   0.177E-02
   2 F= -.11278793E+04 E0= -.11278793E+04  d E =-.445276E-02  mag=    65.0000
       N       E                     dE             d eps       ncg     rms          rms(c)
DAV:   1    -0.112788859376E+04   -0.92965E-02   -0.92334E-02 27976   0.795E-01    0.211E-01
DAV:   2    -0.112788924025E+04   -0.64649E-03   -0.76972E-03 29376   0.166E-01    0.919E-02
DAV:   3    -0.112788923177E+04    0.84764E-05   -0.29802E-04 29864   0.429E-02    0.641E-02
DAV:   4    -0.112788921241E+04    0.19367E-04   -0.36036E-05 25736   0.166E-02    0.298E-02
DAV:   5    -0.112788920924E+04    0.31675E-05   -0.17536E-05 20296   0.156E-02
   3 F= -.11278892E+04 E0= -.11278892E+04  d E =-.990390E-02  mag=    65.0000
       N       E                     dE             d eps       ncg     rms          rms(c)
DAV:   1    -0.112790123673E+04   -0.12024E-01   -0.28318E+00 28264   0.462E+00    0.109E+00
DAV:   2    -0.112792229656E+04   -0.21060E-01   -0.25552E-01 29248   0.942E-01    0.480E-01
DAV:   3    -0.112792207412E+04    0.22244E-03   -0.94172E-03 29808   0.233E-01    0.314E-01
DAV:   4    -0.112792167905E+04    0.39507E-03   -0.98280E-04 31560   0.842E-02    0.157E-01
DAV:   5    -0.112792147914E+04    0.19991E-03   -0.45392E-04 31360   0.810E-02    0.554E-02
DAV:   6    -0.112792144749E+04    0.31649E-04   -0.35230E-04 29608   0.473E-02    0.351E-02
DAV:   7    -0.112792146255E+04   -0.15060E-04   -0.10345E-04 28424   0.223E-02    0.299E-02
DAV:   8    -0.112792145175E+04    0.10800E-04   -0.79389E-06 16216   0.864E-03    0.210E-02
DAV:   9    -0.112792144952E+04    0.22380E-05   -0.39952E-06 17464   0.100E-02
   4 F= -.11279214E+04 E0= -.11279214E+04  d E =-.322403E-01  mag=    65.0000
       N       E                     dE             d eps       ncg     rms          rms(c)
DAV:   1    -0.112792758657E+04   -0.61348E-02   -0.14232E-01 28552   0.113E+00    0.206E-01
DAV:   2    -0.112792898512E+04   -0.13986E-02   -0.15302E-02 28648   0.220E-01    0.995E-02
DAV:   3    -0.112792897163E+04    0.13492E-04   -0.49927E-04 29560   0.501E-02    0.515E-02
DAV:   4    -0.112792897729E+04   -0.56632E-05   -0.45977E-05 26456   0.162E-02
   5 F= -.11279290E+04 E0= -.11279290E+04  d E =-.752778E-02  mag=    65.0000
       N       E                     dE             d eps       ncg     rms          rms(c)
DAV:   1    -0.112791317886E+04    0.15793E-01   -0.53045E+00 28504   0.696E+00    0.110E+00
DAV:   2    -0.112796536728E+04   -0.52188E-01   -0.57148E-01 28480   0.132E+00    0.564E-01
DAV:   3    -0.112796597520E+04   -0.60792E-03   -0.17933E-02 29392   0.290E-01    0.266E-01
DAV:   4    -0.112796585659E+04    0.11860E-03   -0.12714E-03 30608   0.736E-02    0.172E-01
DAV:   5    -0.112796560001E+04    0.25659E-03   -0.68259E-04 31592   0.798E-02    0.743E-02
DAV:   6    -0.112796561505E+04   -0.15038E-04   -0.23990E-04 30232   0.348E-02    0.346E-02
DAV:   7    -0.112796567917E+04   -0.64121E-04   -0.64905E-05 28208   0.190E-02    0.233E-02
DAV:   8    -0.112796566519E+04    0.13980E-04   -0.63645E-06 15864   0.725E-03    0.166E-02
DAV:   9    -0.112796566429E+04    0.89596E-06   -0.22292E-06 14832   0.551E-03
   6 F= -.11279657E+04 E0= -.11279657E+04  d E =-.366870E-01  mag=    65.0000
       N       E                     dE             d eps       ncg     rms          rms(c)
DAV:   1    -0.112781002395E+04    0.15564E+00   -0.19507E+01 28304   0.132E+01    0.208E+00
DAV:   2    -0.112800777410E+04   -0.19775E+00   -0.20758E+00 28280   0.253E+00    0.109E+00
DAV:   3    -0.112801069240E+04   -0.29183E-02   -0.64084E-02 29256   0.547E-01    0.496E-01
DAV:   4    -0.112801007392E+04    0.61849E-03   -0.44256E-03 30640   0.133E-01    0.326E-01
DAV:   5    -0.112800931318E+04    0.76073E-03   -0.23501E-03 31744   0.149E-01    0.136E-01
DAV:   6    -0.112800929607E+04    0.17113E-04   -0.83929E-04 30016   0.614E-02    0.610E-02
DAV:   7    -0.112800946282E+04   -0.16676E-03   -0.19513E-04 30264   0.320E-02    0.396E-02
DAV:   8    -0.112800941114E+04    0.51685E-04   -0.17444E-05 19488   0.125E-02    0.278E-02
DAV:   9    -0.112800943789E+04   -0.26749E-04   -0.70716E-06 16136   0.103E-02    0.211E-02
DAV:  10    -0.112800945859E+04   -0.20706E-04   -0.81543E-06 18072   0.114E-02    0.159E-02
DAV:  11    -0.112800948438E+04   -0.25788E-04   -0.86402E-06 17320   0.101E-02    0.144E-02
DAV:  12    -0.112800949945E+04   -0.15065E-04   -0.67450E-06 16312   0.999E-03    0.133E-02
DAV:  13    -0.112800955746E+04   -0.58015E-04   -0.20800E-05 20592   0.228E-02    0.111E-02
DAV:  14    -0.112800957476E+04   -0.17299E-04   -0.45727E-05 24160   0.220E-02    0.926E-03
DAV:  15    -0.112800958475E+04   -0.99917E-05   -0.19739E-05 17528   0.108E-02
   7 F= -.11280096E+04 E0= -.11280096E+04  d E =-.439205E-01  mag=    65.0000
       N       E                     dE             d eps       ncg     rms          rms(c)
DAV:   1    -0.112771944790E+04    0.29013E+00   -0.40194E+01 27872   0.175E+01    0.259E+00
DAV:   2    -0.112802687288E+04   -0.30742E+00   -0.34131E+00 28128   0.332E+00    0.139E+00
DAV:   3    -0.112802969024E+04   -0.28174E-02   -0.10342E-01 29216   0.711E-01    0.701E-01
DAV:   4    -0.112802795264E+04    0.17376E-02   -0.67780E-03 30576   0.172E-01    0.447E-01
DAV:   5    -0.112802658277E+04    0.13699E-02   -0.42458E-03 31304   0.203E-01    0.170E-01
DAV:   6    -0.112802657025E+04    0.12527E-04   -0.18387E-03 30184   0.871E-02    0.804E-02
DAV:   7    -0.112802677457E+04   -0.20433E-03   -0.29068E-04 29912   0.389E-02    0.489E-02
DAV:   8    -0.112802671995E+04    0.54626E-04   -0.28356E-05 22160   0.151E-02    0.347E-02
DAV:   9    -0.112802675857E+04   -0.38623E-04   -0.11607E-05 17168   0.131E-02    0.259E-02
DAV:  10    -0.112802678605E+04   -0.27482E-04   -0.13386E-05 18936   0.133E-02    0.201E-02
DAV:  11    -0.112802682008E+04   -0.34031E-04   -0.10989E-05 17592   0.110E-02    0.181E-02
DAV:  12    -0.112802684753E+04   -0.27444E-04   -0.98981E-06 16688   0.145E-02    0.164E-02
DAV:  13    -0.112802694158E+04   -0.94058E-04   -0.63462E-05 25360   0.366E-02    0.131E-02
DAV:  14    -0.112802696868E+04   -0.27091E-04   -0.99054E-05 28760   0.322E-02    0.105E-02
DAV:  15    -0.112802698395E+04   -0.15278E-04   -0.34899E-05 19496   0.129E-02    0.913E-03
DAV:  16    -0.112802699060E+04   -0.66445E-05   -0.49305E-06 14136   0.105E-02
   8 F= -.11280270E+04 E0= -.11280270E+04  d E =-.174058E-01  mag=    65.0000
       N       E                     dE             d eps       ncg     rms          rms(c)
DAV:   1    -0.112799062160E+04    0.36362E-01   -0.24636E+00 32160   0.597E+00    0.120E+00
DAV:   2    -0.112804443075E+04   -0.53809E-01   -0.50583E-01 28680   0.116E+00    0.556E-01
DAV:   3    -0.112804575552E+04   -0.13248E-02   -0.16953E-02 29672   0.269E-01    0.250E-01
DAV:   4    -0.112804572697E+04    0.28545E-04   -0.13405E-03 30688   0.714E-02    0.154E-01
DAV:   5    -0.112804550950E+04    0.21747E-03   -0.40871E-04 32192   0.672E-02    0.614E-02
DAV:   6    -0.112804546611E+04    0.43392E-04   -0.20813E-04 30016   0.383E-02    0.325E-02
DAV:   7    -0.112804548237E+04   -0.16261E-04   -0.74198E-05 28336   0.193E-02    0.219E-02
DAV:   8    -0.112804548365E+04   -0.12802E-05   -0.55728E-06 15696   0.767E-03
   9 F= -.11280455E+04 E0= -.11280455E+04  d E =-.184931E-01  mag=    65.0000
       N       E                     dE             d eps       ncg     rms          rms(c)
DAV:   1    -0.112804127642E+04    0.42059E-02   -0.74682E-01 29560   0.289E+00    0.479E-01
DAV:   2    -0.112805104360E+04   -0.97672E-02   -0.10255E-01 28704   0.542E-01    0.230E-01
DAV:   3    -0.112805131222E+04   -0.26862E-03   -0.31891E-03 29688   0.120E-01    0.104E-01
DAV:   4    -0.112805123932E+04    0.72905E-04   -0.24170E-04 30488   0.315E-02    0.668E-02
DAV:   5    -0.112805123419E+04    0.51263E-05   -0.10342E-04 30608   0.311E-02    0.291E-02
DAV:   6    -0.112805124153E+04   -0.73422E-05   -0.32545E-05 24992   0.135E-02
  10 F= -.11280512E+04 E0= -.11280512E+04  d E =-.575788E-02  mag=    65.0000
       N       E                     dE             d eps       ncg     rms          rms(c)
DAV:   1    -0.112803990128E+04    0.11333E-01   -0.14597E+00 30408   0.405E+00    0.608E-01
DAV:   2    -0.112805779350E+04   -0.17892E-01   -0.19006E-01 28152   0.768E-01    0.303E-01
DAV:   3    -0.112805809637E+04   -0.30287E-03   -0.59121E-03 29632   0.164E-01    0.141E-01
DAV:   4    -0.112805804953E+04    0.46845E-04   -0.39500E-04 30856   0.392E-02    0.941E-02
DAV:   5    -0.112805795694E+04    0.92583E-04   -0.14730E-04 32312   0.407E-02    0.435E-02
DAV:   6    -0.112805795734E+04   -0.40194E-06   -0.73525E-05 29664   0.208E-02
  11 F= -.11280580E+04 E0= -.11280580E+04  d E =-.671581E-02  mag=    65.0000
       N       E                     dE             d eps       ncg     rms          rms(c)
DAV:   1    -0.112793990901E+04    0.11805E+00   -0.97330E+00 30616   0.104E+01    0.157E+00
DAV:   2    -0.112806329208E+04   -0.12338E+00   -0.12881E+00 27760   0.197E+00    0.822E-01
DAV:   3    -0.112806555869E+04   -0.22666E-02   -0.38713E-02 29624   0.425E-01    0.381E-01
DAV:   4    -0.112806528449E+04    0.27420E-03   -0.24862E-03 30424   0.924E-02    0.251E-01
DAV:   5    -0.112806482084E+04    0.46365E-03   -0.83537E-04 32776   0.106E-01    0.114E-01
DAV:   6    -0.112806483178E+04   -0.10948E-04   -0.58769E-04 31304   0.608E-02    0.408E-02
DAV:   7    -0.112806490215E+04   -0.70370E-04   -0.11541E-04 29008   0.257E-02    0.298E-02
DAV:   8    -0.112806490115E+04    0.10064E-05   -0.11255E-05 16352   0.121E-02
  12 F= -.11280649E+04 E0= -.11280649E+04  d E =-.694380E-02  mag=    65.0000
       N       E                     dE             d eps       ncg     rms          rms(c)
DAV:   1    -0.112779771783E+04    0.26718E+00   -0.19394E+01 30648   0.146E+01    0.231E+00
DAV:   2    -0.112804696858E+04   -0.24925E+00   -0.25681E+00 27528   0.276E+00    0.119E+00
DAV:   3    -0.112805267851E+04   -0.57099E-02   -0.82382E-02 29416   0.605E-01    0.556E-01
DAV:   4    -0.112805204889E+04    0.62962E-03   -0.51934E-03 30744   0.138E-01    0.359E-01
DAV:   5    -0.112805128348E+04    0.76541E-03   -0.17105E-03 32648   0.145E-01    0.158E-01
DAV:   6    -0.112805136167E+04   -0.78194E-04   -0.11125E-03 31464   0.838E-02    0.611E-02
DAV:   7    -0.112805150371E+04   -0.14204E-03   -0.23604E-04 29728   0.365E-02    0.450E-02
DAV:   8    -0.112805150394E+04   -0.23076E-06   -0.20081E-05 18928   0.164E-02
  13 F= -.11280515E+04 E0= -.11280515E+04  d E =0.133972E-01  mag=    65.0000
       N       E                     dE             d eps       ncg     rms          rms(c)
DAV:   1    -0.112792502090E+04    0.12648E+00   -0.95505E+00 30952   0.109E+01    0.172E+00
DAV:   2    -0.112806594293E+04   -0.14092E+00   -0.14231E+00 27736   0.206E+00    0.868E-01
DAV:   3    -0.112806890162E+04   -0.29587E-02   -0.45882E-02 29512   0.454E-01    0.386E-01
DAV:   4    -0.112806853109E+04    0.37053E-03   -0.29981E-03 30704   0.106E-01    0.252E-01
DAV:   5    -0.112806812350E+04    0.40760E-03   -0.95026E-04 32128   0.107E-01    0.107E-01
DAV:   6    -0.112806810027E+04    0.23230E-04   -0.50898E-04 30784   0.536E-02    0.400E-02
DAV:   7    -0.112806814223E+04   -0.41961E-04   -0.10093E-04 29496   0.232E-02    0.263E-02
DAV:   8    -0.112806812690E+04    0.15332E-04   -0.86893E-06 15160   0.833E-03    0.180E-02
DAV:   9    -0.112806813709E+04   -0.10197E-04   -0.53743E-06 15144   0.821E-03    0.128E-02
DAV:  10    -0.112806814523E+04   -0.81422E-05   -0.38832E-06 15528   0.615E-03
  14 F= -.11280681E+04 E0= -.11280681E+04  d E =-.166413E-01  mag=    65.0000
       N       E                     dE             d eps       ncg     rms          rms(c)
DAV:   1    -0.112806078472E+04    0.73524E-02   -0.37547E-01 31600   0.239E+00    0.461E-01
DAV:   2    -0.112806835881E+04   -0.75741E-02   -0.73658E-02 28376   0.452E-01    0.214E-01
DAV:   3    -0.112806851354E+04   -0.15472E-03   -0.25082E-03 29504   0.110E-01    0.115E-01
DAV:   4    -0.112806852515E+04   -0.11612E-04   -0.20937E-04 30952   0.311E-02    0.640E-02
DAV:   5    -0.112806855512E+04   -0.29974E-04   -0.62463E-05 29472   0.305E-02    0.272E-02
DAV:   6    -0.112806855248E+04    0.26403E-05   -0.47060E-05 28864   0.197E-02
  15 F= -.11280686E+04 E0= -.11280686E+04  d E =-.407248E-03  mag=    65.0000
       N       E                     dE             d eps       ncg     rms          rms(c)
DAV:   1    -0.112806640997E+04    0.21452E-02   -0.14211E-01 31592   0.143E+00    0.264E-01
DAV:   2    -0.112806899175E+04   -0.25818E-02   -0.25347E-02 28488   0.279E-01    0.134E-01
DAV:   3    -0.112806902318E+04   -0.31423E-04   -0.84666E-04 29808   0.665E-02    0.780E-02
DAV:   4    -0.112806901553E+04    0.76422E-05   -0.63154E-05 27112   0.160E-02
  16 F= -.11280690E+04 E0= -.11280690E+04  d E =-.463051E-03  mag=    65.0000
       N       E                     dE             d eps       ncg     rms          rms(c)
DAV:   1    -0.112806798619E+04    0.10370E-02   -0.64616E-02 31792   0.897E-01    0.153E-01
DAV:   2    -0.112806909922E+04   -0.11130E-02   -0.11233E-02 27544   0.165E-01    0.812E-02
DAV:   3    -0.112806910659E+04   -0.73684E-05   -0.36605E-04 28808   0.375E-02    0.409E-02
DAV:   4    -0.112806912410E+04   -0.17514E-04   -0.21116E-05 20480   0.837E-03    0.273E-02
DAV:   5    -0.112806913307E+04   -0.89686E-05   -0.97014E-06 17968   0.137E-02
  17 F= -.11280691E+04 E0= -.11280691E+04  d E =-.117539E-03  mag=    65.0000
       N       E                     dE             d eps       ncg     rms          rms(c)
DAV:   1    -0.112783609904E+04    0.23303E+00   -0.15058E+01 31072   0.125E+01    0.213E+00
DAV:   2    -0.112805795685E+04   -0.22186E+00   -0.22356E+00 27016   0.231E+00    0.108E+00
DAV:   3    -0.112806344708E+04   -0.54902E-02   -0.71383E-02 29136   0.499E-01    0.468E-01
DAV:   4    -0.112806316394E+04    0.28314E-03   -0.43518E-03 31424   0.119E-01    0.314E-01
DAV:   5    -0.112806268345E+04    0.48049E-03   -0.16221E-03 33016   0.141E-01    0.125E-01
DAV:   6    -0.112806275978E+04   -0.76328E-04   -0.80388E-04 30904   0.641E-02    0.542E-02
DAV:   7    -0.112806286834E+04   -0.10856E-03   -0.15509E-04 29512   0.290E-02    0.385E-02
DAV:   8    -0.112806288177E+04   -0.13432E-04   -0.12897E-05 17712   0.116E-02    0.287E-02
DAV:   9    -0.112806289123E+04   -0.94660E-05   -0.95338E-06 18496   0.130E-02
  18 F= -.11280629E+04 E0= -.11280629E+04  d E =0.624184E-02  mag=    65.0000
       N       E                     dE             d eps       ncg     rms          rms(c)
DAV:   1    -0.112801017717E+04    0.52705E-01   -0.51440E+00 29936   0.623E+00    0.152E+00
DAV:   2    -0.112805023521E+04   -0.40058E-01   -0.48133E-01 29128   0.128E+00    0.755E-01
DAV:   3    -0.112804874214E+04    0.14931E-02   -0.18634E-02 29608   0.337E-01    0.585E-01
DAV:   4    -0.112804798899E+04    0.75315E-03   -0.19444E-03 30800   0.110E-01    0.234E-01
DAV:   5    -0.112804739138E+04    0.59761E-03   -0.13046E-03 31272   0.130E-01    0.914E-02
DAV:   6    -0.112804724391E+04    0.14747E-03   -0.93461E-04 30080   0.785E-02    0.705E-02
DAV:   7    -0.112804723484E+04    0.90664E-05   -0.33350E-04 29440   0.393E-02    0.518E-02
DAV:   8    -0.112804720470E+04    0.30142E-04   -0.22019E-05 20824   0.176E-02    0.382E-02
DAV:   9    -0.112804724307E+04   -0.38373E-04   -0.24783E-05 21648   0.229E-02    0.249E-02
DAV:  10    -0.112804725460E+04   -0.11525E-04   -0.33556E-05 24184   0.188E-02    0.204E-02
DAV:  11    -0.112804725650E+04   -0.19008E-05   -0.17799E-05 17584   0.122E-02
  19 F= -.11280473E+04 E0= -.11280473E+04  d E =0.156347E-01  mag=    65.0000
       N       E                     dE             d eps       ncg     rms          rms(c)
DAV:   1    -0.112793696465E+04    0.11029E+00   -0.10722E+01 30632   0.999E+00    0.185E+00
DAV:   2    -0.112806887108E+04   -0.13191E+00   -0.13666E+00 27928   0.188E+00    0.961E-01
DAV:   3    -0.112807138814E+04   -0.25171E-02   -0.45784E-02 29472   0.436E-01    0.539E-01
DAV:   4    -0.112807054129E+04    0.84685E-03   -0.24919E-03 30760   0.101E-01    0.287E-01
DAV:   5    -0.112806969454E+04    0.84674E-03   -0.14830E-03 32336   0.133E-01    0.112E-01
DAV:   6    -0.112806970179E+04   -0.72436E-05   -0.98283E-04 30544   0.755E-02    0.538E-02
DAV:   7    -0.112806974528E+04   -0.43493E-04   -0.26281E-04 29328   0.327E-02    0.366E-02
DAV:   8    -0.112806976400E+04   -0.18715E-04   -0.14570E-05 17560   0.125E-02    0.243E-02
DAV:   9    -0.112806974996E+04    0.14032E-04   -0.13395E-05 18056   0.118E-02    0.141E-02
DAV:  10    -0.112806976629E+04   -0.16330E-04   -0.99862E-06 17888   0.920E-03    0.900E-03
DAV:  11    -0.112806977303E+04   -0.67384E-05   -0.53268E-06 15192   0.549E-03
  20 F= -.11280698E+04 E0= -.11280698E+04  d E =-.225165E-01  mag=    65.0000
       N       E                     dE             d eps       ncg     rms          rms(c)
DAV:   1    -0.112806271229E+04    0.70540E-02   -0.36804E-01 31560   0.214E+00    0.464E-01
DAV:   2    -0.112806827453E+04   -0.55622E-02   -0.54958E-02 28912   0.429E-01    0.218E-01
DAV:   3    -0.112806830454E+04   -0.30014E-04   -0.20830E-03 30144   0.111E-01    0.140E-01
DAV:   4    -0.112806822092E+04    0.83620E-04   -0.19314E-04 30768   0.375E-02    0.676E-02
DAV:   5    -0.112806815909E+04    0.61835E-04   -0.89961E-05 30360   0.424E-02    0.256E-02
DAV:   6    -0.112806814559E+04    0.13500E-04   -0.86211E-05 28392   0.256E-02    0.163E-02
DAV:   7    -0.112806815275E+04   -0.71610E-05   -0.34943E-05 23832   0.123E-02
  21 F= -.11280682E+04 E0= -.11280682E+04  d E =0.162028E-02  mag=    65.0000
       N       E                     dE             d eps       ncg     rms          rms(c)
DAV:   1    -0.112806747259E+04    0.67300E-03   -0.18793E-01 30816   0.140E+00    0.312E-01
DAV:   2    -0.112806979033E+04   -0.23177E-02   -0.25145E-02 28984   0.281E-01    0.149E-01
DAV:   3    -0.112806980364E+04   -0.13310E-04   -0.90004E-04 29576   0.706E-02    0.942E-02
DAV:   4    -0.112806980141E+04    0.22334E-05   -0.96457E-05 30664   0.262E-02
  22 F= -.11280698E+04 E0= -.11280698E+04  d E =-.164866E-02  mag=    65.0000
       N       E                     dE             d eps       ncg     rms          rms(c)
DAV:   1    -0.112806948660E+04    0.31704E-03   -0.35152E-02 30184   0.591E-01    0.109E-01
DAV:   2    -0.112806980059E+04   -0.31398E-03   -0.39138E-03 28928   0.118E-01    0.517E-02
DAV:   3    -0.112806980863E+04   -0.80480E-05   -0.16189E-04 30064   0.304E-02    0.307E-02
DAV:   4    -0.112806978578E+04    0.22852E-04   -0.13397E-05 19728   0.140E-02    0.184E-02
DAV:   5    -0.112806978146E+04    0.43242E-05   -0.12507E-05 19152   0.147E-02
  23 F= -.11280698E+04 E0= -.11280698E+04  d E =0.199531E-04  mag=    65.0000
