       N       E                     dE             d eps       ncg     rms          rms(c)
DAV:   1     0.573662749409E+04    0.57366E+04   -0.20930E+05 43384   0.159E+03
DAV:   2     0.362212173760E+03   -0.53744E+04   -0.48726E+04 42672   0.482E+02
DAV:   3    -0.441820198682E+03   -0.80403E+03   -0.75508E+03 45472   0.195E+02
DAV:   4    -0.483836120392E+03   -0.42016E+02   -0.41531E+02 47896   0.455E+01
DAV:   5    -0.484357708630E+03   -0.52159E+00   -0.52049E+00 46528   0.556E+00    0.116E+02
DAV:   6    -0.408621869587E+03    0.75736E+02   -0.53800E+02 52672   0.910E+01    0.112E+02
DAV:   7    -0.398612892867E+03    0.10009E+02   -0.29361E+02 47672   0.932E+01    0.708E+01
DAV:   8    -0.392136920981E+03    0.64760E+01   -0.59455E+01 51392   0.327E+01    0.520E+01
DAV:   9    -0.395158559871E+03   -0.30216E+01   -0.10125E+02 46000   0.358E+01    0.476E+01
DAV:  10    -0.387575108701E+03    0.75835E+01   -0.21710E+01 47760   0.183E+01    0.279E+01
DAV:  11    -0.387060467263E+03    0.51464E+00   -0.11011E+01 46880   0.121E+01    0.228E+01
DAV:  12    -0.388816637980E+03   -0.17562E+01   -0.18559E+00 46944   0.503E+00    0.146E+01
DAV:  13    -0.389300979041E+03   -0.48434E+00   -0.78569E-01 51744   0.417E+00    0.813E+00
DAV:  14    -0.389254972842E+03    0.46006E-01   -0.34920E-01 47184   0.273E+00    0.472E+00
DAV:  15    -0.389172797205E+03    0.82176E-01   -0.11580E-01 49120   0.223E+00    0.321E+00
DAV:  16    -0.389148867906E+03    0.23929E-01   -0.53427E-02 51928   0.122E+00    0.186E+00
DAV:  17    -0.389142693663E+03    0.61742E-02   -0.23814E-02 50264   0.682E-01    0.121E+00
DAV:  18    -0.389139466772E+03    0.32269E-02   -0.65121E-03 47928   0.461E-01    0.715E-01
DAV:  19    -0.389138566367E+03    0.90040E-03   -0.45545E-03 49104   0.261E-01    0.441E-01
DAV:  20    -0.389138698464E+03   -0.13210E-03   -0.24162E-03 47616   0.185E-01    0.385E-01
DAV:  21    -0.389138467543E+03    0.23092E-03   -0.42597E-04 47752   0.120E-01    0.224E-01
DAV:  22    -0.389138289535E+03    0.17801E-03   -0.21948E-04 48560   0.105E-01    0.109E-01
DAV:  23    -0.389138251584E+03    0.37951E-04   -0.19184E-04 49280   0.595E-02    0.520E-02
DAV:  24    -0.389138252814E+03   -0.12298E-05   -0.70970E-05 41952   0.246E-02
   1 F= -.38913825E+03 E0= -.38913825E+03  d E =-.389138E+03  mag=    48.9970
       N       E                     dE             d eps       ncg     rms          rms(c)
DAV:   1    -0.389140465325E+03   -0.22137E-02   -0.12788E-02 61872   0.786E-01    0.838E-02
DAV:   2    -0.389140787290E+03   -0.32196E-03   -0.30875E-03 45704   0.132E-01    0.602E-02
DAV:   3    -0.389140807846E+03   -0.20556E-04   -0.15988E-04 42896   0.500E-02    0.396E-02
DAV:   4    -0.389140806914E+03    0.93212E-06   -0.10333E-05 27672   0.143E-02
   2 F= -.38914081E+03 E0= -.38914081E+03  d E =-.255410E-02  mag=    48.9997
       N       E                     dE             d eps       ncg     rms          rms(c)
DAV:   1    -0.389077885178E+03    0.62923E-01   -0.35463E+00 61248   0.130E+01    0.133E+00
DAV:   2    -0.389166158220E+03   -0.88273E-01   -0.84604E-01 45760   0.209E+00    0.807E-01
DAV:   3    -0.389171601432E+03   -0.54432E-02   -0.31416E-02 43888   0.544E-01    0.430E-01
DAV:   4    -0.389171468663E+03    0.13277E-03   -0.22171E-03 50056   0.171E-01    0.253E-01
DAV:   5    -0.389171217830E+03    0.25083E-03   -0.59139E-04 48448   0.123E-01    0.153E-01
DAV:   6    -0.389171209559E+03    0.82704E-05   -0.30697E-04 52608   0.855E-02    0.665E-02
DAV:   7    -0.389171224650E+03   -0.15090E-04   -0.12810E-04 46080   0.382E-02    0.282E-02
DAV:   8    -0.389171225570E+03   -0.92087E-06   -0.86987E-06 24312   0.130E-02
   3 F= -.38917123E+03 E0= -.38917123E+03  d E =-.304187E-01  mag=    49.0000
       N       E                     dE             d eps       ncg     rms          rms(c)
DAV:   1    -0.389099388227E+03    0.71836E-01   -0.49177E+00 56416   0.124E+01    0.126E+00
DAV:   2    -0.389184285429E+03   -0.84897E-01   -0.81297E-01 45936   0.211E+00    0.786E-01
DAV:   3    -0.389188558614E+03   -0.42732E-02   -0.26885E-02 44048   0.524E-01    0.437E-01
DAV:   4    -0.389188348018E+03    0.21060E-03   -0.20294E-03 49264   0.173E-01    0.261E-01
DAV:   5    -0.389188036188E+03    0.31183E-03   -0.64938E-04 50480   0.127E-01    0.155E-01
DAV:   6    -0.389188034669E+03    0.15196E-05   -0.38029E-04 50688   0.847E-02    0.647E-02
DAV:   7    -0.389188049328E+03   -0.14659E-04   -0.13424E-04 45712   0.401E-02    0.282E-02
DAV:   8    -0.389188049495E+03   -0.16696E-06   -0.74077E-06 25400   0.126E-02
   4 F= -.38918805E+03 E0= -.38918805E+03  d E =-.168239E-01  mag=    49.0000
       N       E                     dE             d eps       ncg     rms          rms(c)
DAV:   1    -0.389158729885E+03    0.29319E-01   -0.48590E+00 50288   0.840E+00    0.826E-01
DAV:   2    -0.389198845717E+03   -0.40116E-01   -0.38664E-01 46288   0.154E+00    0.548E-01
DAV:   3    -0.389200024681E+03   -0.11790E-02   -0.10192E-02 44816   0.355E-01    0.324E-01
DAV:   4    -0.389199808532E+03    0.21615E-03   -0.90298E-04 48768   0.121E-01    0.196E-01
DAV:   5    -0.389199562343E+03    0.24619E-03   -0.45716E-04 51088   0.974E-02    0.109E-01
DAV:   6    -0.389199574139E+03   -0.11796E-04   -0.28356E-04 48888   0.589E-02    0.500E-02
DAV:   7    -0.389199578773E+03   -0.46342E-05   -0.60274E-05 44960   0.291E-02
   5 F= -.38919958E+03 E0= -.38919958E+03  d E =-.115293E-01  mag=    49.0000
       N       E                     dE             d eps       ncg     rms          rms(c)
DAV:   1    -0.389122804473E+03    0.76770E-01   -0.12343E+01 46296   0.119E+01    0.120E+00
DAV:   2    -0.389209727802E+03   -0.86923E-01   -0.84623E-01 45952   0.229E+00    0.771E-01
DAV:   3    -0.389211692092E+03   -0.19643E-02   -0.20076E-02 44792   0.495E-01    0.477E-01
DAV:   4    -0.389211186477E+03    0.50562E-03   -0.19522E-03 49728   0.180E-01    0.309E-01
DAV:   5    -0.389210577412E+03    0.60907E-03   -0.10299E-03 49312   0.143E-01    0.154E-01
DAV:   6    -0.389210620878E+03   -0.43466E-04   -0.67418E-04 49408   0.808E-02    0.670E-02
DAV:   7    -0.389210629238E+03   -0.83600E-05   -0.12195E-04 45536   0.399E-02    0.341E-02
DAV:   8    -0.389210627237E+03    0.20001E-05   -0.82140E-06 24576   0.147E-02
   6 F= -.38921063E+03 E0= -.38921063E+03  d E =-.110485E-01  mag=    49.0000
       N       E                     dE             d eps       ncg     rms          rms(c)
DAV:   1    -0.389133514251E+03    0.77115E-01   -0.80764E+00 50080   0.115E+01    0.116E+00
DAV:   2    -0.389210308927E+03   -0.76795E-01   -0.74065E-01 45904   0.215E+00    0.737E-01
DAV:   3    -0.389212967947E+03   -0.26590E-02   -0.20750E-02 44656   0.497E-01    0.452E-01
DAV:   4    -0.389212628447E+03    0.33950E-03   -0.17805E-03 49344   0.170E-01    0.281E-01
DAV:   5    -0.389212182086E+03    0.44636E-03   -0.77412E-04 50016   0.130E-01    0.156E-01
DAV:   6    -0.389212190758E+03   -0.86714E-05   -0.48338E-04 50664   0.831E-02    0.735E-02
DAV:   7    -0.389212204999E+03   -0.14241E-04   -0.13053E-04 45752   0.402E-02    0.330E-02
DAV:   8    -0.389212204068E+03    0.93089E-06   -0.88911E-06 25208   0.155E-02
   7 F= -.38921220E+03 E0= -.38921220E+03  d E =-.157683E-02  mag=    49.0000
       N       E                     dE             d eps       ncg     rms          rms(c)
DAV:   1    -0.389089757266E+03    0.12245E+00   -0.10122E+01 53488   0.146E+01    0.150E+00
DAV:   2    -0.389208004915E+03   -0.11825E+00   -0.11292E+00 45432   0.264E+00    0.877E-01
DAV:   3    -0.389212995871E+03   -0.49910E-02   -0.34067E-02 44464   0.591E-01    0.495E-01
DAV:   4    -0.389212562083E+03    0.43379E-03   -0.26346E-03 49536   0.191E-01    0.320E-01
DAV:   5    -0.389212033401E+03    0.52868E-03   -0.88782E-04 49208   0.147E-01    0.182E-01
DAV:   6    -0.389212024509E+03    0.88927E-05   -0.58935E-04 50760   0.101E-01    0.810E-02
DAV:   7    -0.389212042359E+03   -0.17850E-04   -0.18489E-04 46160   0.485E-02    0.345E-02
DAV:   8    -0.389212042397E+03   -0.37719E-07   -0.14178E-05 27368   0.163E-02
   8 F= -.38921204E+03 E0= -.38921204E+03  d E =0.161671E-03  mag=    49.0000
       N       E                     dE             d eps       ncg     rms          rms(c)
DAV:   1    -0.389173989483E+03    0.38053E-01   -0.23519E+00 55944   0.845E+00    0.914E-01
DAV:   2    -0.389214906787E+03   -0.40917E-01   -0.39057E-01 45600   0.149E+00    0.512E-01
DAV:   3    -0.389216894939E+03   -0.19882E-02   -0.12116E-02 44456   0.360E-01    0.287E-01
DAV:   4    -0.389216776356E+03    0.11858E-03   -0.95780E-04 49576   0.111E-01    0.179E-01
DAV:   5    -0.389216595199E+03    0.18116E-03   -0.24331E-04 50512   0.789E-02    0.105E-01
DAV:   6    -0.389216576574E+03    0.18624E-04   -0.17994E-04 52688   0.574E-02    0.371E-02
DAV:   7    -0.389216582542E+03   -0.59673E-05   -0.61276E-05 45176   0.270E-02
   9 F= -.38921658E+03 E0= -.38921658E+03  d E =-.454015E-02  mag=    49.0000
       N       E                     dE             d eps       ncg     rms          rms(c)
DAV:   1    -0.389211951347E+03    0.46252E-02   -0.35953E-01 56808   0.319E+00    0.332E-01
DAV:   2    -0.389217527686E+03   -0.55763E-02   -0.53052E-02 45952   0.549E-01    0.187E-01
DAV:   3    -0.389217794437E+03   -0.26675E-03   -0.15632E-03 44120   0.131E-01    0.106E-01
DAV:   4    -0.389217779344E+03    0.15092E-04   -0.11906E-04 48176   0.399E-02    0.646E-02
DAV:   5    -0.389217755796E+03    0.23548E-04   -0.36853E-05 41568   0.314E-02    0.378E-02
DAV:   6    -0.389217755319E+03    0.47754E-06   -0.23745E-05 31240   0.214E-02
  10 F= -.38921776E+03 E0= -.38921776E+03  d E =-.117278E-02  mag=    49.0000
       N       E                     dE             d eps       ncg     rms          rms(c)
DAV:   1    -0.389211128875E+03    0.66269E-02   -0.74555E-01 48600   0.348E+00    0.369E-01
DAV:   2    -0.389218294794E+03   -0.71659E-02   -0.68146E-02 45656   0.645E-01    0.221E-01
DAV:   3    -0.389218525350E+03   -0.23056E-03   -0.17331E-03 44816   0.130E-01    0.125E-01
DAV:   4    -0.389218496842E+03    0.28508E-04   -0.14329E-04 49216   0.420E-02    0.889E-02
DAV:   5    -0.389218465021E+03    0.31821E-04   -0.57667E-05 45528   0.414E-02    0.466E-02
DAV:   6    -0.389218469253E+03   -0.42316E-05   -0.43096E-05 44856   0.269E-02
  11 F= -.38921847E+03 E0= -.38921847E+03  d E =-.713934E-03  mag=    49.0000
