       N       E                     dE             d eps       ncg     rms          ort
DAV:   1     0.282789434916E+04    0.28279E+04   -0.29376E+05  2880   0.141E+03
DAV:   2    -0.972386964816E+03   -0.38003E+04   -0.36668E+04  2880   0.313E+02
DAV:   3    -0.122947231741E+04   -0.25709E+03   -0.25501E+03  2880   0.849E+01
DAV:   4    -0.123247602747E+04   -0.30037E+01   -0.29934E+01  2880   0.975E+00
DAV:   5    -0.123252473354E+04   -0.48706E-01   -0.48597E-01  2880   0.114E+00
SDA:   6    -0.876668524236E+03    0.35586E+03   -0.48597E-01  2880   0.614E+03 0.000E+00
CGA:   7    -0.985685704135E+03   -0.10902E+03   -0.10931E+03  2880   0.585E+02 0.710E+01
CGA:   8    -0.996775939346E+03   -0.11090E+02   -0.11303E+02  2880   0.314E+02 0.133E+02
CGA:   9    -0.999325617867E+03   -0.25497E+01   -0.46651E+01  2880   0.236E+02 0.535E+01
CGA:  10    -0.100195174854E+04   -0.26261E+01   -0.32062E+01  2880   0.211E+02-0.285E+01
CGA:  11    -0.100321081594E+04   -0.12591E+01   -0.16896E+01  2880   0.811E+01-0.387E+01
CGA:  12    -0.100444443197E+04   -0.12336E+01   -0.11644E+01  2880   0.682E+01-0.361E+01
CGA:  13    -0.100495874683E+04   -0.51431E+00   -0.48039E+00  2880   0.355E+01-0.473E-01
CGA:  14    -0.100514557973E+04   -0.18683E+00   -0.26044E+00  2880   0.326E+01-0.147E+01
CGA:  15    -0.100523187575E+04   -0.86296E-01   -0.93443E-01  2880   0.271E+01-0.264E+00
CGA:  16    -0.100531933390E+04   -0.87458E-01   -0.19624E+00  2880   0.245E+01-0.738E+00
CGA:  17    -0.100541607940E+04   -0.96746E-01   -0.11929E+00  2880   0.140E+01-0.264E+00
CGA:  18    -0.100553482845E+04   -0.11875E+00   -0.84751E-01  2880   0.523E+00 0.269E+00
CGA:  19    -0.100556845927E+04   -0.33631E-01   -0.30721E-01  2880   0.427E+00 0.322E-01
CGA:  20    -0.100560838950E+04   -0.39930E-01   -0.42042E-01  2880   0.648E+00-0.268E-02
CGA:  21    -0.100563500995E+04   -0.26620E-01   -0.28556E-01  2880   0.306E+00-0.282E-01
CGA:  22    -0.100564982151E+04   -0.14812E-01   -0.16700E-01  2880   0.281E+00-0.218E-01
CGA:  23    -0.100567182784E+04   -0.22006E-01   -0.22268E-01  2880   0.341E+00-0.146E-03
CGA:  24    -0.100568839871E+04   -0.16571E-01   -0.15671E-01  2880   0.125E+00 0.162E-01
CGA:  25    -0.100569391734E+04   -0.55186E-02   -0.57699E-02  2880   0.769E-01-0.135E-02
CGA:  26    -0.100570033339E+04   -0.64161E-02   -0.64246E-02  2880   0.135E+00 0.248E-02
CGA:  27    -0.100570789153E+04   -0.75581E-02   -0.69538E-02  2880   0.107E+00 0.143E-01
CGA:  28    -0.100571238321E+04   -0.44917E-02   -0.43668E-02  2880   0.522E-01 0.643E-02
CGA:  29    -0.100571460990E+04   -0.22267E-02   -0.19301E-02  2880   0.383E-01 0.562E-02
CGA:  30    -0.100571680161E+04   -0.21917E-02   -0.20766E-02  2880   0.513E-01-0.837E-03
CGA:  31    -0.100571938147E+04   -0.25799E-02   -0.27861E-02  2880   0.579E-01-0.388E-02
CGA:  32    -0.100572142436E+04   -0.20429E-02   -0.20999E-02  2880   0.285E-01-0.116E-02
CGA:  33    -0.100572241494E+04   -0.99059E-03   -0.98913E-03  2880   0.156E-01 0.141E-02
CGA:  34    -0.100572306371E+04   -0.64877E-03   -0.67174E-03  2880   0.131E-01 0.884E-03
CGA:  35    -0.100572376927E+04   -0.70556E-03   -0.73432E-03  2880   0.173E-01 0.719E-03
CGA:  36    -0.100572471584E+04   -0.94657E-03   -0.96433E-03  2880   0.203E-01 0.952E-03
SDA:  37    -0.100572551174E+04   -0.79590E-03   -0.83157E-03  2880   0.130E-01 0.804E-03
CGA:  38    -0.100572646814E+04   -0.95640E-03   -0.95290E-03  2880   0.392E-02-0.148E-03
CGA:  39    -0.100572700474E+04   -0.53661E-03   -0.57916E-03  2880   0.295E-02-0.728E-03
CGA:  40    -0.100572781655E+04   -0.81180E-03   -0.85381E-03  2880   0.350E-02-0.219E-03
CGA:  41    -0.100572815373E+04   -0.33718E-03   -0.33673E-03  2880   0.100E-02-0.288E-03
CGA:  42    -0.100572831060E+04   -0.15687E-03   -0.14551E-03  2880   0.486E-03 0.233E-03
CGA:  43    -0.100572838495E+04   -0.74352E-04   -0.74427E-04  2880   0.470E-03-0.707E-06
CGA:  44    -0.100572836865E+04    0.16305E-04   -0.19367E-03  2880   0.228E-02-0.774E-03
CGA:  45    -0.100572856456E+04   -0.19592E-03   -0.18638E-03  2880   0.921E-03-0.207E-03
CGA:  46    -0.100572864621E+04   -0.81642E-04   -0.79216E-04  2880   0.222E-03-0.877E-04
CGA:  47    -0.100572869261E+04   -0.46407E-04   -0.61527E-04  2880   0.310E-03-0.802E-04
CGA:  48    -0.100572870878E+04   -0.16163E-04   -0.19624E-04  2880   0.190E-03 0.140E-03
CGA:  49    -0.100572872304E+04   -0.14260E-04   -0.19718E-04  2880   0.662E-04 0.134E-03
CGA:  50    -0.100572873715E+04   -0.14118E-04   -0.14684E-04  2880   0.156E-03-0.484E-05
CGA:  51    -0.100572874537E+04   -0.82204E-05   -0.11168E-04  2880   0.675E-04 0.672E-04
   1 F= -.10057287E+04 E0= -.10057127E+04  d E =-.100573E+04  mag=     1.0000
       N       E                     dE             d eps       ncg     rms          ort
SDA:   1    -0.100572935113E+04   -0.61398E-03    0.00000E+00  2880   0.575E-02 0.000E+00
CGA:   2    -0.100572955532E+04   -0.20419E-03   -0.22840E-03  2880   0.268E-03 0.175E-03
CGA:   3    -0.100572956949E+04   -0.14173E-04   -0.20088E-04  2880   0.115E-03 0.127E-03
CGA:   4    -0.100572957817E+04   -0.86763E-05   -0.12186E-04  2880   0.794E-04 0.777E-04
CGA:   5    -0.100572958921E+04   -0.11037E-04   -0.10830E-04  2880   0.951E-04 0.942E-05
CGA:   6    -0.100572960096E+04   -0.11750E-04   -0.11815E-04  2880   0.500E-04 0.126E-04
CGA:   7    -0.100572960166E+04   -0.70687E-06   -0.28668E-05  2880   0.147E-04 0.330E-04
   2 F= -.10057296E+04 E0= -.10057133E+04  d E =-.856288E-03  mag=     0.9975
       N       E                     dE             d eps       ncg     rms          ort
SDA:   1    -0.100570807408E+04    0.21527E-01    0.00000E+00  2880   0.128E+00 0.000E+00
CGA:   2    -0.100572379181E+04   -0.15718E-01   -0.15733E-01  2880   0.152E+00-0.111E-02
CGA:   3    -0.100574289659E+04   -0.19105E-01   -0.19026E-01  2880   0.486E-01 0.296E-02
CGA:   4    -0.100574632531E+04   -0.34287E-02   -0.34393E-02  2880   0.135E-01 0.421E-03
CGA:   5    -0.100574836247E+04   -0.20372E-02   -0.20833E-02  2880   0.641E-02-0.110E-02
CGA:   6    -0.100574911227E+04   -0.74980E-03   -0.74387E-03  2880   0.132E-02 0.364E-03
CGA:   7    -0.100574924176E+04   -0.12949E-03   -0.13169E-03  2880   0.874E-03 0.123E-03
CGA:   8    -0.100574933135E+04   -0.89593E-04   -0.91930E-04  2880   0.282E-03 0.167E-03
CGA:   9    -0.100574932131E+04    0.10040E-04   -0.15831E-03  2880   0.113E-02-0.463E-03
CGA:  10    -0.100574941796E+04   -0.96642E-04   -0.10356E-03  2880   0.202E-03 0.190E-03
CGA:  11    -0.100574943053E+04   -0.12571E-04   -0.17458E-04  2880   0.720E-04 0.943E-04
CGA:  12    -0.100574944394E+04   -0.13409E-04   -0.13326E-04  2880   0.391E-04 0.291E-04
CGA:  13    -0.100574925693E+04    0.18701E-03   -0.10104E-03  2880   0.253E-02-0.342E-03
CGA:  14    -0.100574938222E+04   -0.12529E-03   -0.14834E-03  2880   0.302E-03 0.112E-03
CGA:  15    -0.100574942617E+04   -0.43954E-04   -0.48837E-04  2880   0.100E-03 0.808E-04
CGA:  16    -0.100574945268E+04   -0.26506E-04   -0.25692E-04  2880   0.246E-03-0.718E-04
CGA:  17    -0.100574945907E+04   -0.63981E-05   -0.11064E-04  2880   0.114E-04 0.246E-04
   3 F= -.10057495E+04 E0= -.10057332E+04  d E =-.198574E-01  mag=     0.9972
       N       E                     dE             d eps       ncg     rms          ort
SDA:   1    -0.100552725187E+04    0.22220E+00    0.00000E+00  2880   0.114E+01 0.000E+00
CGA:   2    -0.100561755854E+04   -0.90307E-01   -0.10637E+00  2880   0.825E+00-0.112E+00
CGA:   3    -0.100574704722E+04   -0.12949E+00   -0.13043E+00  2880   0.277E+00 0.221E-01
CGA:   4    -0.100576996473E+04   -0.22918E-01   -0.22375E-01  2880   0.102E+00 0.105E-02
CGA:   5    -0.100578062051E+04   -0.10656E-01   -0.10509E-01  2880   0.347E-01-0.184E-02
CGA:   6    -0.100578619522E+04   -0.55747E-02   -0.55868E-02  2880   0.121E-01 0.542E-03
CGA:   7    -0.100578721062E+04   -0.10154E-02   -0.10289E-02  2880   0.626E-02-0.490E-05
CGA:   8    -0.100578788543E+04   -0.67482E-03   -0.69239E-03  2880   0.196E-02 0.305E-03
CGA:   9    -0.100578840035E+04   -0.51492E-03   -0.54541E-03  2880   0.126E-02-0.333E-03
CGA:  10    -0.100578846377E+04   -0.63418E-04   -0.69998E-04  2880   0.565E-03 0.565E-04
CGA:  11    -0.100578854873E+04   -0.84962E-04   -0.87677E-04  2880   0.256E-03 0.118E-03
CGA:  12    -0.100578858311E+04   -0.34376E-04   -0.34335E-04  2880   0.291E-03-0.382E-05
CGA:  13    -0.100578861513E+04   -0.32025E-04   -0.31604E-04  2880   0.119E-03-0.824E-05
CGA:  14    -0.100578863309E+04   -0.17959E-04   -0.16436E-04  2880   0.196E-03-0.681E-04
CGA:  15    -0.100578864184E+04   -0.87440E-05   -0.10493E-04  2880   0.286E-04 0.134E-04
   4 F= -.10057886E+04 E0= -.10057725E+04  d E =-.391828E-01  mag=     0.9969
       N       E                     dE             d eps       ncg     rms          ort
SDA:   1    -0.100541435855E+04    0.37427E+00    0.00000E+00  2880   0.292E+01 0.000E+00
CGA:   2    -0.100557027027E+04   -0.15591E+00   -0.21229E+00  2880   0.114E+01-0.539E+00
CGA:   3    -0.100575278446E+04   -0.18251E+00   -0.18109E+00  2880   0.393E+00 0.247E-01
CGA:   4    -0.100579566749E+04   -0.42883E-01   -0.41905E-01  2880   0.133E+00-0.538E-02
CGA:   5    -0.100580878854E+04   -0.13121E-01   -0.13198E-01  2880   0.753E-01-0.444E-03
CGA:   6    -0.100581702033E+04   -0.82318E-02   -0.83129E-02  2880   0.373E-01-0.194E-03
CGA:   7    -0.100582008371E+04   -0.30634E-02   -0.30935E-02  2880   0.762E-02 0.720E-03
CGA:   8    -0.100582124671E+04   -0.11630E-02   -0.11618E-02  2880   0.422E-02 0.147E-03
CGA:   9    -0.100582183951E+04   -0.59280E-03   -0.59238E-03  2880   0.282E-02-0.114E-03
CGA:  10    -0.100582214427E+04   -0.30476E-03   -0.30628E-03  2880   0.866E-03 0.250E-04
CGA:  11    -0.100582223656E+04   -0.92294E-04   -0.87351E-04  2880   0.820E-03-0.126E-03
CGA:  12    -0.100582235652E+04   -0.11996E-03   -0.11872E-03  2880   0.244E-03 0.395E-04
CGA:  13    -0.100582237559E+04   -0.19070E-04   -0.21107E-04  2880   0.866E-04 0.331E-04
CGA:  14    -0.100582239436E+04   -0.18765E-04   -0.18963E-04  2880   0.149E-03-0.427E-05
CGA:  15    -0.100582240671E+04   -0.12349E-04   -0.13170E-04  2880   0.704E-04 0.168E-04
CGA:  16    -0.100582241801E+04   -0.11309E-04   -0.12148E-04  2880   0.855E-04-0.513E-04
CGA:  17    -0.100582242316E+04   -0.51447E-05   -0.51398E-05  2880   0.125E-04-0.101E-05
   5 F= -.10058224E+04 E0= -.10058064E+04  d E =-.337813E-01  mag=     0.9970
       N       E                     dE             d eps       ncg     rms          ort
SDA:   1    -0.100514845433E+04    0.67396E+00    0.00000E+00  2880   0.599E+01 0.000E+00
CGA:   2    -0.100544742151E+04   -0.29897E+00   -0.38932E+00  2880   0.182E+01-0.125E+01
CGA:   3    -0.100569724703E+04   -0.24983E+00   -0.24281E+00  2880   0.833E+00 0.128E+00
CGA:   4    -0.100577721836E+04   -0.79971E-01   -0.69241E-01  2880   0.277E+00 0.222E-01
CGA:   5    -0.100581584258E+04   -0.38624E-01   -0.39118E-01  2880   0.221E+00-0.279E-01
CGA:   6    -0.100583723629E+04   -0.21394E-01   -0.21549E-01  2880   0.515E-01 0.165E-02
CGA:   7    -0.100584177165E+04   -0.45354E-02   -0.46464E-02  2880   0.114E-01 0.152E-02
CGA:   8    -0.100584317297E+04   -0.14013E-02   -0.14057E-02  2880   0.903E-02 0.779E-03
CGA:   9    -0.100584440674E+04   -0.12338E-02   -0.12346E-02  2880   0.585E-02-0.240E-03
CGA:  10    -0.100584493410E+04   -0.52736E-03   -0.52623E-03  2880   0.190E-02 0.362E-04
CGA:  11    -0.100584521367E+04   -0.27957E-03   -0.29074E-03  2880   0.120E-02-0.387E-03
CGA:  12    -0.100584532249E+04   -0.10882E-03   -0.10938E-03  2880   0.601E-03 0.524E-04
CGA:  13    -0.100584541019E+04   -0.87707E-04   -0.85866E-04  2880   0.143E-03 0.147E-03
CGA:  14    -0.100584543396E+04   -0.23765E-04   -0.23563E-04  2880   0.204E-03 0.237E-04
CGA:  15    -0.100584545436E+04   -0.20402E-04   -0.22766E-04  2880   0.644E-04 0.802E-04
CGA:  16    -0.100584546154E+04   -0.71796E-05   -0.28150E-04  2880   0.592E-03-0.110E-03
CGA:  17    -0.100584549214E+04   -0.30601E-04   -0.27652E-04  2880   0.373E-04-0.429E-04
CGA:  18    -0.100584549113E+04    0.10126E-05   -0.12207E-05  2880   0.172E-04 0.239E-04
   6 F= -.10058455E+04 E0= -.10058296E+04  d E =-.230680E-01  mag=     0.9971
       N       E                     dE             d eps       ncg     rms          ort
SDA:   1    -0.100531009717E+04    0.53539E+00    0.00000E+00  2880   0.298E+01 0.000E+00
CGA:   2    -0.100549968421E+04   -0.18959E+00   -0.20491E+00  2880   0.125E+01-0.152E+00
CGA:   3    -0.100577502266E+04   -0.27534E+00   -0.27178E+00  2880   0.584E+00 0.302E-01
CGA:   4    -0.100581561620E+04   -0.40594E-01   -0.36375E-01  2880   0.137E+00 0.245E-01
CGA:   5    -0.100583910940E+04   -0.23493E-01   -0.23820E-01  2880   0.857E-01-0.590E-02
CGA:   6    -0.100584657804E+04   -0.74686E-02   -0.75206E-02  2880   0.272E-01 0.165E-04
CGA:   7    -0.100584922947E+04   -0.26514E-02   -0.26857E-02  2880   0.849E-02 0.133E-02
CGA:   8    -0.100585023685E+04   -0.10074E-02   -0.10114E-02  2880   0.639E-02 0.739E-03
CGA:   9    -0.100585096762E+04   -0.73077E-03   -0.72590E-03  2880   0.242E-02-0.386E-03
CGA:  10    -0.100585133131E+04   -0.36368E-03   -0.36779E-03  2880   0.124E-02-0.932E-04
CGA:  11    -0.100585147172E+04   -0.14042E-03   -0.13971E-03  2880   0.854E-03-0.206E-03
CGA:  12    -0.100585156181E+04   -0.90093E-04   -0.89138E-04  2880   0.273E-03 0.194E-03
CGA:  13    -0.100585159706E+04   -0.35247E-04   -0.35873E-04  2880   0.172E-03 0.453E-04
CGA:  14    -0.100585161433E+04   -0.17272E-04   -0.18754E-04  2880   0.740E-04 0.563E-04
CGA:  15    -0.100585163507E+04   -0.20736E-04   -0.19059E-04  2880   0.538E-04 0.220E-04
CGA:  16    -0.100585164347E+04   -0.84024E-05   -0.14685E-04  2880   0.276E-03-0.721E-04
CGA:  17    -0.100585165299E+04   -0.95183E-05   -0.11722E-04  2880   0.150E-04 0.234E-04
   7 F= -.10058517E+04 E0= -.10058360E+04  d E =-.616186E-02  mag=     0.9968
       N       E                     dE             d eps       ncg     rms          ort
SDA:   1    -0.100572147050E+04    0.13017E+00    0.00000E+00  2880   0.731E+00 0.000E+00
CGA:   2    -0.100576780179E+04   -0.46331E-01   -0.48652E-01  2880   0.278E+00-0.137E-01
CGA:   3    -0.100583460986E+04   -0.66808E-01   -0.66173E-01  2880   0.125E+00 0.484E-02
CGA:   4    -0.100584388496E+04   -0.92751E-02   -0.88253E-02  2880   0.419E-01-0.480E-03
CGA:   5    -0.100584899016E+04   -0.51052E-02   -0.51062E-02  2880   0.183E-01-0.700E-03
CGA:   6    -0.100585162541E+04   -0.26353E-02   -0.26367E-02  2880   0.532E-02-0.145E-03
CGA:   7    -0.100585197818E+04   -0.35277E-03   -0.37730E-03  2880   0.163E-02 0.495E-03
CGA:   8    -0.100585238901E+04   -0.41084E-03   -0.41108E-03  2880   0.949E-03-0.246E-05
CGA:   9    -0.100585246638E+04   -0.77372E-04   -0.76048E-04  2880   0.494E-03-0.376E-04
CGA:  10    -0.100585255364E+04   -0.87255E-04   -0.11802E-03  2880   0.535E-03-0.243E-03
CGA:  11    -0.100585257248E+04   -0.18842E-04   -0.20261E-04  2880   0.282E-03 0.245E-04
CGA:  12    -0.100585259449E+04   -0.22004E-04   -0.24510E-04  2880   0.126E-03 0.583E-04
CGA:  13    -0.100585260138E+04   -0.68974E-05   -0.94414E-05  2880   0.594E-04 0.411E-04
   8 F= -.10058526E+04 E0= -.10058371E+04  d E =-.948395E-03  mag=     0.9973
       N       E                     dE             d eps       ncg     rms          ort
SDA:   1    -0.100583830923E+04    0.14285E-01    0.00000E+00  2880   0.416E-01 0.000E+00
CGA:   2    -0.100584607424E+04   -0.77650E-02   -0.78454E-02  2880   0.615E-01-0.135E-02
CGA:   3    -0.100585174357E+04   -0.56693E-02   -0.56672E-02  2880   0.898E-02 0.773E-03
CGA:   4    -0.100585275750E+04   -0.10139E-02   -0.10157E-02  2880   0.348E-02 0.274E-03
CGA:   5    -0.100585312741E+04   -0.36991E-03   -0.37280E-03  2880   0.244E-02 0.151E-03
CGA:   6    -0.100585341093E+04   -0.28352E-03   -0.28242E-03  2880   0.347E-03-0.142E-03
CGA:   7    -0.100585345080E+04   -0.39873E-04   -0.39634E-04  2880   0.220E-03 0.941E-04
CGA:   8    -0.100585348967E+04   -0.38875E-04   -0.41150E-04  2880   0.233E-03-0.826E-04
CGA:   9    -0.100585349547E+04   -0.57933E-05   -0.76913E-05  2880   0.829E-04 0.277E-04
   9 F= -.10058535E+04 E0= -.10058380E+04  d E =-.894084E-03  mag=     0.9972
       N       E                     dE             d eps       ncg     rms          ort
SDA:   1    -0.100579628112E+04    0.57209E-01    0.00000E+00  2880   0.145E+00 0.000E+00
CGA:   2    -0.100582908262E+04   -0.32801E-01   -0.32572E-01  2880   0.259E+00 0.172E-02
CGA:   3    -0.100584787663E+04   -0.18794E-01   -0.18632E-01  2880   0.212E-01-0.177E-02
CGA:   4    -0.100585216617E+04   -0.42895E-02   -0.42122E-02  2880   0.119E-01 0.899E-03
CGA:   5    -0.100585309810E+04   -0.93193E-03   -0.93002E-03  2880   0.402E-02-0.589E-04
CGA:   6    -0.100585353253E+04   -0.43443E-03   -0.43686E-03  2880   0.124E-02 0.253E-03
CGA:   7    -0.100585377100E+04   -0.23847E-03   -0.28584E-03  2880   0.193E-02-0.486E-03
CGA:   8    -0.100585381809E+04   -0.47097E-04   -0.54714E-04  2880   0.613E-03 0.103E-03
CGA:   9    -0.100585382923E+04   -0.11134E-04   -0.22921E-04  2880   0.270E-03 0.140E-03
CGA:  10    -0.100585383712E+04   -0.78914E-05   -0.16386E-04  2880   0.233E-03 0.130E-03
CGA:  11    -0.100585385207E+04   -0.14953E-04   -0.19594E-04  2880   0.117E-03 0.849E-04
CGA:  12    -0.100585386828E+04   -0.16206E-04   -0.15892E-04  2880   0.177E-03-0.367E-04
CGA:  13    -0.100585387527E+04   -0.69942E-05   -0.61685E-05  2880   0.158E-03-0.146E-04
  10 F= -.10058539E+04 E0= -.10058384E+04  d E =-.379805E-03  mag=     0.9970
       N       E                     dE             d eps       ncg     rms          ort
SDA:   1    -0.100548083108E+04    0.37304E+00    0.00000E+00  2880   0.101E+01 0.000E+00
CGA:   2    -0.100565654662E+04   -0.17572E+00   -0.17558E+00  2880   0.153E+01 0.513E-02
CGA:   3    -0.100580982036E+04   -0.15327E+00   -0.15385E+00  2880   0.193E+00 0.476E-01
CGA:   4    -0.100582990283E+04   -0.20082E-01   -0.20094E-01  2880   0.143E+00 0.436E-03
CGA:   5    -0.100584435188E+04   -0.14449E-01   -0.14431E-01  2880   0.433E-01-0.288E-02
CGA:   6    -0.100584960379E+04   -0.52519E-02   -0.52526E-02  2880   0.710E-02 0.392E-03
CGA:   7    -0.100585101628E+04   -0.14125E-02   -0.13536E-02  2880   0.605E-02 0.697E-03
CGA:   8    -0.100585164379E+04   -0.62751E-03   -0.61902E-03  2880   0.170E-02-0.594E-03
CGA:   9    -0.100585181866E+04   -0.17487E-03   -0.17427E-03  2880   0.106E-02 0.124E-03
CGA:  10    -0.100585197074E+04   -0.15208E-03   -0.15668E-03  2880   0.989E-03-0.167E-03
CGA:  11    -0.100585205488E+04   -0.84133E-04   -0.84448E-04  2880   0.220E-03 0.289E-04
CGA:  12    -0.100585207913E+04   -0.24257E-04   -0.24457E-04  2880   0.956E-04 0.994E-04
CGA:  13    -0.100585209812E+04   -0.18988E-04   -0.18341E-04  2880   0.104E-03 0.292E-04
CGA:  14    -0.100585210736E+04   -0.92356E-05   -0.10875E-04  2880   0.381E-04 0.519E-04
CGA:  15    -0.100585211735E+04   -0.99926E-05   -0.10891E-04  2880   0.782E-04-0.110E-04
  11 F= -.10058521E+04 E0= -.10058368E+04  d E =0.175792E-02  mag=     0.9972
       N       E                     dE             d eps       ncg     rms          ort
SDA:   1    -0.100514677921E+04    0.70533E+00    0.00000E+00  2880   0.169E+01 0.000E+00
CGA:   2    -0.100561660888E+04   -0.46983E+00   -0.47476E+00  2880   0.271E+01-0.285E-01
CGA:   3    -0.100576759984E+04   -0.15099E+00   -0.16547E+00  2880   0.374E+00-0.138E+00
CGA:   4    -0.100580610768E+04   -0.38508E-01   -0.38967E-01  2880   0.261E+00 0.149E-01
CGA:   5    -0.100583619207E+04   -0.30084E-01   -0.30017E-01  2880   0.389E-01-0.125E-02
CGA:   6    -0.100584100567E+04   -0.48136E-02   -0.48207E-02  2880   0.310E-01-0.131E-02
CGA:   7    -0.100584454189E+04   -0.35362E-02   -0.35355E-02  2880   0.100E-01-0.476E-03
CGA:   8    -0.100584516130E+04   -0.61941E-03   -0.65339E-03  2880   0.330E-02 0.537E-03
CGA:   9    -0.100584587596E+04   -0.71465E-03   -0.71986E-03  2880   0.296E-02-0.692E-04
CGA:  10    -0.100584610829E+04   -0.23233E-03   -0.23827E-03  2880   0.744E-03 0.138E-03
CGA:  11    -0.100584623745E+04   -0.12916E-03   -0.13321E-03  2880   0.128E-02-0.811E-04
CGA:  12    -0.100584637477E+04   -0.13732E-03   -0.13642E-03  2880   0.692E-03-0.397E-03
CGA:  13    -0.100584640013E+04   -0.25358E-04   -0.33061E-04  2880   0.266E-03 0.145E-03
CGA:  14    -0.100584640673E+04   -0.66044E-05   -0.16082E-04  2880   0.141E-03 0.137E-03
CGA:  15    -0.100584643217E+04   -0.25442E-04   -0.24639E-04  2880   0.149E-03 0.136E-04
CGA:  16    -0.100584643674E+04   -0.45682E-05   -0.90628E-05  2880   0.369E-04 0.707E-04
  12 F= -.10058464E+04 E0= -.10058311E+04  d E =0.568061E-02  mag=     0.9978
       N       E                     dE             d eps       ncg     rms          ort
SDA:   1    -0.100559099095E+04    0.25544E+00    0.00000E+00  2880   0.646E+00 0.000E+00
CGA:   2    -0.100576547868E+04   -0.17449E+00   -0.17544E+00  2880   0.104E+01-0.612E-02
CGA:   3    -0.100582375036E+04   -0.58272E-01   -0.63314E-01  2880   0.130E+00-0.408E-01
CGA:   4    -0.100584321734E+04   -0.19467E-01   -0.19404E-01  2880   0.801E-01 0.218E-03
CGA:   5    -0.100585035481E+04   -0.71375E-02   -0.71144E-02  2880   0.219E-01 0.140E-02
CGA:   6    -0.100585299486E+04   -0.26401E-02   -0.26401E-02  2880   0.616E-02-0.805E-04
CGA:   7    -0.100585417756E+04   -0.11827E-02   -0.11730E-02  2880   0.438E-02 0.124E-03
CGA:   8    -0.100585450644E+04   -0.32887E-03   -0.31038E-03  2880   0.113E-02-0.337E-03
CGA:   9    -0.100585467661E+04   -0.17018E-03   -0.16216E-03  2880   0.580E-03 0.219E-03
CGA:  10    -0.100585475621E+04   -0.79599E-04   -0.79877E-04  2880   0.402E-03 0.414E-04
CGA:  11    -0.100585482720E+04   -0.70987E-04   -0.71929E-04  2880   0.227E-03-0.224E-04
CGA:  12    -0.100585485493E+04   -0.27727E-04   -0.29042E-04  2880   0.339E-03-0.112E-03
CGA:  13    -0.100585486696E+04   -0.12037E-04   -0.13593E-04  2880   0.147E-03 0.346E-04
CGA:  14    -0.100585486940E+04   -0.24357E-05   -0.58355E-05  2880   0.425E-04 0.381E-04
  13 F= -.10058549E+04 E0= -.10058395E+04  d E =-.843266E-02  mag=     0.9969
       N       E                     dE             d eps       ncg     rms          ort
SDA:   1    -0.100582094326E+04    0.33924E-01    0.00000E+00  2880   0.949E-01 0.000E+00
CGA:   2    -0.100583754772E+04   -0.16604E-01   -0.16414E-01  2880   0.152E+00 0.291E-02
CGA:   3    -0.100585136015E+04   -0.13812E-01   -0.13815E-01  2880   0.194E-01-0.128E-02
CGA:   4    -0.100585405960E+04   -0.26995E-02   -0.27115E-02  2880   0.147E-01-0.563E-03
CGA:   5    -0.100585539052E+04   -0.13309E-02   -0.13232E-02  2880   0.495E-02-0.310E-03
CGA:   6    -0.100585586643E+04   -0.47591E-03   -0.48350E-03  2880   0.973E-03 0.455E-03
CGA:   7    -0.100585603962E+04   -0.17318E-03   -0.18015E-03  2880   0.160E-02-0.134E-03
CGA:   8    -0.100585614057E+04   -0.10095E-03   -0.10689E-03  2880   0.291E-03 0.146E-03
CGA:   9    -0.100585616193E+04   -0.21363E-04   -0.22214E-04  2880   0.214E-03 0.191E-04
CGA:  10    -0.100585571779E+04    0.44414E-03   -0.24222E-03  2880   0.554E-02-0.988E-03
CGA:  11    -0.100585606807E+04   -0.35028E-03   -0.40296E-03  2880   0.159E-02 0.292E-03
CGA:  12    -0.100585616847E+04   -0.10040E-03   -0.12160E-03  2880   0.255E-03 0.164E-03
CGA:  13    -0.100585619205E+04   -0.23583E-04   -0.30083E-04  2880   0.112E-03 0.756E-04
CGA:  14    -0.100585621797E+04   -0.25912E-04   -0.25056E-04  2880   0.179E-03-0.491E-04
CGA:  15    -0.100585622943E+04   -0.11466E-04   -0.86323E-05  2880   0.125E-03-0.276E-04
CGA:  16    -0.100585623312E+04   -0.36860E-05   -0.50946E-05  2880   0.575E-04 0.102E-04
  14 F= -.10058562E+04 E0= -.10058409E+04  d E =-.136372E-02  mag=     0.9974
       N       E                     dE             d eps       ncg     rms          ort
SDA:   1    -0.100584656793E+04    0.96615E-02    0.00000E+00  2880   0.290E-01 0.000E+00
CGA:   2    -0.100585089456E+04   -0.43266E-02   -0.43300E-02  2880   0.376E-01 0.356E-03
CGA:   3    -0.100585553938E+04   -0.46448E-02   -0.46296E-02  2880   0.385E-02-0.586E-03
CGA:   4    -0.100585619467E+04   -0.65529E-03   -0.65308E-03  2880   0.277E-02 0.427E-03
CGA:   5    -0.100585645258E+04   -0.25791E-03   -0.24314E-03  2880   0.885E-03-0.189E-03
CGA:   6    -0.100585654338E+04   -0.90802E-04   -0.91724E-04  2880   0.372E-03 0.129E-04
CGA:   7    -0.100585659068E+04   -0.47301E-04   -0.46338E-04  2880   0.229E-03-0.274E-04
CGA:   8    -0.100585661085E+04   -0.20169E-04   -0.21028E-04  2880   0.412E-04 0.130E-04
CGA:   9    -0.100585661925E+04   -0.84016E-05   -0.83640E-05  2880   0.633E-04 0.856E-06
  15 F= -.10058566E+04 E0= -.10058413E+04  d E =-.386133E-03  mag=     0.9973
       N       E                     dE             d eps       ncg     rms          ort
SDA:   1    -0.100583497767E+04    0.21633E-01    0.00000E+00  2880   0.535E-01 0.000E+00
CGA:   2    -0.100584968557E+04   -0.14708E-01   -0.14714E-01  2880   0.813E-01-0.183E-03
CGA:   3    -0.100585462315E+04   -0.49376E-02   -0.50850E-02  2880   0.897E-02-0.111E-02
CGA:   4    -0.100585593894E+04   -0.13158E-02   -0.13142E-02  2880   0.977E-02-0.396E-03
CGA:   5    -0.100585666804E+04   -0.72910E-03   -0.75744E-03  2880   0.710E-03 0.498E-03
CGA:   6    -0.100585682414E+04   -0.15610E-03   -0.15056E-03  2880   0.659E-03 0.106E-03
CGA:   7    -0.100585690242E+04   -0.78280E-04   -0.67995E-04  2880   0.298E-03-0.174E-03
CGA:   8    -0.100585691904E+04   -0.16624E-04   -0.18663E-04  2880   0.813E-04 0.308E-04
CGA:   9    -0.100585692442E+04   -0.53760E-05   -0.74337E-05  2880   0.519E-04 0.322E-04
CGA:  10    -0.100585693780E+04   -0.13376E-04   -0.13847E-04  2880   0.612E-04-0.993E-05
CGA:  11    -0.100585693861E+04   -0.81507E-06   -0.19471E-05  2880   0.208E-04 0.104E-04
  16 F= -.10058569E+04 E0= -.10058417E+04  d E =-.319360E-03  mag=     0.9973
       N       E                     dE             d eps       ncg     rms          ort
SDA:   1    -0.100553382176E+04    0.32312E+00    0.00000E+00  2880   0.893E+00 0.000E+00
CGA:   2    -0.100567130558E+04   -0.13748E+00   -0.13664E+00  2880   0.145E+01 0.254E-01
CGA:   3    -0.100582072265E+04   -0.14942E+00   -0.15100E+00  2880   0.192E+00 0.848E-02
CGA:   4    -0.100583726333E+04   -0.16541E-01   -0.16731E-01  2880   0.106E+00 0.364E-03
CGA:   5    -0.100585359470E+04   -0.16331E-01   -0.16319E-01  2880   0.209E-01 0.101E-03
CGA:   6    -0.100585531968E+04   -0.17250E-02   -0.17682E-02  2880   0.113E-01 0.918E-03
CGA:   7    -0.100585673107E+04   -0.14114E-02   -0.14098E-02  2880   0.640E-02-0.165E-03
CGA:   8    -0.100585743141E+04   -0.70034E-03   -0.69502E-03  2880   0.237E-02-0.282E-03
CGA:   9    -0.100585763204E+04   -0.20063E-03   -0.20357E-03  2880   0.696E-03 0.681E-04
CGA:  10    -0.100585782659E+04   -0.19455E-03   -0.18472E-03  2880   0.410E-03 0.745E-04
CGA:  11    -0.100585784977E+04   -0.23175E-04   -0.29456E-04  2880   0.151E-03 0.900E-04
CGA:  12    -0.100585788352E+04   -0.33751E-04   -0.84147E-04  2880   0.852E-03-0.153E-03
CGA:  13    -0.100585792894E+04   -0.45422E-04   -0.46605E-04  2880   0.112E-03 0.741E-05
CGA:  14    -0.100585793478E+04   -0.58344E-05   -0.88899E-05  2880   0.343E-04 0.487E-04
  17 F= -.10058579E+04 E0= -.10058426E+04  d E =-.996166E-03  mag=     0.9976
       N       E                     dE             d eps       ncg     rms          ort
SDA:   1    -0.100559738491E+04    0.26054E+00    0.00000E+00  2880   0.611E+00 0.000E+00
CGA:   2    -0.100580838722E+04   -0.21100E+00   -0.21093E+00  2880   0.301E+00 0.368E-03
CGA:   3    -0.100583372472E+04   -0.25338E-01   -0.26605E-01  2880   0.171E+00-0.399E-02
CGA:   4    -0.100584745899E+04   -0.13734E-01   -0.14166E-01  2880   0.512E-01 0.187E-02
CGA:   5    -0.100585443042E+04   -0.69714E-02   -0.69765E-02  2880   0.183E-01 0.596E-03
CGA:   6    -0.100585594267E+04   -0.15122E-02   -0.14871E-02  2880   0.799E-02-0.992E-03
CGA:   7    -0.100585701853E+04   -0.10759E-02   -0.10740E-02  2880   0.438E-02 0.258E-03
CGA:   8    -0.100585732706E+04   -0.30853E-03   -0.31094E-03  2880   0.126E-02 0.408E-05
CGA:   9    -0.100585757748E+04   -0.25041E-03   -0.24826E-03  2880   0.546E-03 0.316E-04
CGA:  10    -0.100585762330E+04   -0.45823E-04   -0.52021E-04  2880   0.275E-03 0.143E-03
CGA:  11    -0.100585768731E+04   -0.64011E-04   -0.70138E-04  2880   0.490E-03-0.902E-04
CGA:  12    -0.100585770932E+04   -0.22013E-04   -0.22094E-04  2880   0.259E-03-0.351E-06
CGA:  13    -0.100585772293E+04   -0.13614E-04   -0.15577E-04  2880   0.157E-03 0.252E-04
CGA:  14    -0.100585773457E+04   -0.11639E-04   -0.11912E-04  2880   0.698E-04 0.342E-05
CGA:  15    -0.100585773962E+04   -0.50444E-05   -0.56103E-05  2880   0.716E-04 0.116E-04
  18 F= -.10058577E+04 E0= -.10058424E+04  d E =0.195159E-03  mag=     0.9974
       N       E                     dE             d eps       ncg     rms          ort
SDA:   1    -0.100571361847E+04    0.14412E+00    0.00000E+00  2880   0.344E+00 0.000E+00
CGA:   2    -0.100583371642E+04   -0.12010E+00   -0.11945E+00  2880   0.136E+00 0.278E-02
CGA:   3    -0.100584514615E+04   -0.11430E-01   -0.11177E-01  2880   0.875E-01-0.279E-02
CGA:   4    -0.100585633531E+04   -0.11189E-01   -0.11190E-01  2880   0.142E-01-0.945E-03
CGA:   5    -0.100585804033E+04   -0.17050E-02   -0.17121E-02  2880   0.959E-02 0.727E-03
CGA:   6    -0.100585897224E+04   -0.93191E-03   -0.94502E-03  2880   0.196E-02 0.358E-03
CGA:   7    -0.100585935361E+04   -0.38137E-03   -0.42099E-03  2880   0.303E-02-0.503E-03
CGA:   8    -0.100585948735E+04   -0.13374E-03   -0.13655E-03  2880   0.746E-03 0.373E-04
CGA:   9    -0.100585953338E+04   -0.46022E-04   -0.52797E-04  2880   0.532E-03 0.112E-03
CGA:  10    -0.100585958163E+04   -0.48255E-04   -0.50362E-04  2880   0.266E-03 0.485E-04
CGA:  11    -0.100585962233E+04   -0.40698E-04   -0.40954E-04  2880   0.388E-03-0.150E-04
CGA:  12    -0.100585964265E+04   -0.20326E-04   -0.21359E-04  2880   0.923E-04 0.142E-04
CGA:  13    -0.100585965093E+04   -0.82805E-05   -0.76572E-05  2880   0.118E-03-0.163E-04
CGA:  14    -0.100585938386E+04    0.26708E-03   -0.14444E-03  2880   0.227E-02-0.526E-03
CGA:  15    -0.100585950435E+04   -0.12049E-03   -0.15234E-03  2880   0.653E-03 0.172E-03
CGA:  16    -0.100585958777E+04   -0.83425E-04   -0.94332E-04  2880   0.155E-03 0.158E-03
CGA:  17    -0.100585962882E+04   -0.41040E-04   -0.43156E-04  2880   0.586E-03-0.116E-03
CGA:  18    -0.100585964535E+04   -0.16538E-04   -0.26450E-04  2880   0.436E-04 0.705E-04
CGA:  19    -0.100585965139E+04   -0.60381E-05   -0.62150E-05  2880   0.647E-04 0.242E-05
CGA:  20    -0.100585951110E+04    0.14029E-03   -0.55212E-04  2880   0.175E-02-0.314E-03
CGA:  21    -0.100585960728E+04   -0.96182E-04   -0.12121E-03  2880   0.488E-03 0.206E-03
CGA:  22    -0.100585965354E+04   -0.46266E-04   -0.52970E-04  2880   0.955E-04 0.683E-04
CGA:  23    -0.100585965875E+04   -0.52051E-05   -0.88667E-05  2880   0.443E-04 0.283E-04
  19 F= -.10058597E+04 E0= -.10058443E+04  d E =-.191913E-02  mag=     0.9974
       N       E                     dE             d eps       ncg     rms          ort
SDA:   1    -0.100583338860E+04    0.26265E-01    0.00000E+00  2880   0.945E-01 0.000E+00
CGA:   2    -0.100584187283E+04   -0.84842E-02   -0.88827E-02  2880   0.936E-01-0.348E-02
CGA:   3    -0.100585447258E+04   -0.12600E-01   -0.12726E-01  2880   0.272E-01 0.129E-02
CGA:   4    -0.100585757123E+04   -0.30986E-02   -0.31010E-02  2880   0.833E-02-0.558E-03
CGA:   5    -0.100585846246E+04   -0.89123E-03   -0.85213E-03  2880   0.538E-02-0.563E-03
CGA:   6    -0.100585906390E+04   -0.60144E-03   -0.61527E-03  2880   0.933E-03 0.249E-03
CGA:   7    -0.100585914146E+04   -0.77551E-04   -0.80015E-04  2880   0.640E-03 0.209E-04
CGA:   8    -0.100585923341E+04   -0.91950E-04   -0.94653E-04  2880   0.112E-03 0.890E-04
CGA:   9    -0.100585925786E+04   -0.24454E-04   -0.61925E-04  2880   0.672E-03-0.119E-03
CGA:  10    -0.100585929449E+04   -0.36629E-04   -0.33916E-04  2880   0.105E-03-0.191E-04
CGA:  11    -0.100585929760E+04   -0.31111E-05   -0.79155E-05  2880   0.248E-04 0.467E-04
  20 F= -.10058593E+04 E0= -.10058440E+04  d E =0.361151E-03  mag=     0.9977
       N       E                     dE             d eps       ncg     rms          ort
SDA:   1    -0.100583202245E+04    0.27272E-01    0.00000E+00  2880   0.730E-01 0.000E+00
CGA:   2    -0.100584549003E+04   -0.13468E-01   -0.13469E-01  2880   0.129E+00-0.115E-03
CGA:   3    -0.100585659048E+04   -0.11100E-01   -0.10805E-01  2880   0.156E-01 0.338E-03
CGA:   4    -0.100585870059E+04   -0.21101E-02   -0.21288E-02  2880   0.531E-02 0.750E-03
CGA:   5    -0.100585957000E+04   -0.86941E-03   -0.86946E-03  2880   0.322E-02-0.312E-05
CGA:   6    -0.100585977904E+04   -0.20904E-03   -0.21119E-03  2880   0.635E-03-0.117E-04
CGA:   7    -0.100585992527E+04   -0.14623E-03   -0.17515E-03  2880   0.113E-02-0.249E-03
CGA:   8    -0.100585994687E+04   -0.21597E-04   -0.29557E-04  2880   0.359E-03 0.672E-04
CGA:   9    -0.100585995169E+04   -0.48174E-05   -0.13966E-04  2880   0.173E-03 0.758E-04
CGA:  10    -0.100585995693E+04   -0.52417E-05   -0.11921E-04  2880   0.161E-03 0.699E-04
CGA:  11    -0.100585996709E+04   -0.10163E-04   -0.13116E-04  2880   0.616E-04 0.332E-04
CGA:  12    -0.100585997434E+04   -0.72504E-05   -0.66295E-05  2880   0.794E-04-0.118E-04
  21 F= -.10058600E+04 E0= -.10058447E+04  d E =-.676744E-03  mag=     0.9975
