       N       E                     dE             d eps       ncg     rms          rms(c)
DAV:   1     0.827891783782E+04    0.82789E+04   -0.23629E+05 34332   0.219E+03
DAV:   2     0.121533767299E+04   -0.70636E+04   -0.66374E+04 33696   0.633E+02
DAV:   3    -0.315592847261E+03   -0.15309E+04   -0.13397E+04 35940   0.271E+02
DAV:   4    -0.468682690877E+03   -0.15309E+03   -0.15050E+03 36816   0.832E+01
DAV:   5    -0.471188981326E+03   -0.25063E+01   -0.24964E+01 36744   0.120E+01    0.107E+02
DAV:   6    -0.491126281807E+03   -0.19937E+02   -0.83568E+02 45744   0.115E+02    0.118E+02
DAV:   7    -0.393419482237E+03    0.97707E+02   -0.31770E+02 37152   0.114E+02    0.389E+01
DAV:   8    -0.400132545034E+03   -0.67131E+01   -0.77733E+01 43176   0.323E+01    0.235E+01
DAV:   9    -0.402787441818E+03   -0.26549E+01   -0.67570E+01 37776   0.342E+01    0.220E+01
DAV:  10    -0.399961816767E+03    0.28256E+01   -0.11150E+01 36564   0.205E+01    0.882E+00
DAV:  11    -0.400139905998E+03   -0.17809E+00   -0.57972E+00 36960   0.100E+01    0.692E+00
DAV:  12    -0.400069081555E+03    0.70824E-01   -0.12905E+00 38208   0.655E+00    0.452E+00
DAV:  13    -0.400170368338E+03   -0.10129E+00   -0.10788E+00 37176   0.642E+00    0.413E+00
DAV:  14    -0.400160780134E+03    0.95882E-02   -0.84765E-01 39888   0.471E+00    0.327E+00
DAV:  15    -0.400140487663E+03    0.20292E-01   -0.11756E-01 37200   0.263E+00    0.190E+00
DAV:  16    -0.400147083610E+03   -0.65959E-02   -0.13078E-01 38172   0.237E+00    0.200E+00
DAV:  17    -0.400148008873E+03   -0.92526E-03   -0.42874E-02 39936   0.156E+00    0.122E+00
DAV:  18    -0.400161334960E+03   -0.13326E-01   -0.31139E-02 41352   0.853E-01    0.150E+00
DAV:  19    -0.400163105870E+03   -0.17709E-02   -0.65078E-03 35232   0.236E-01    0.154E+00
DAV:  20    -0.400161505513E+03    0.16004E-02   -0.49111E-04 40224   0.811E-02    0.149E+00
DAV:  21    -0.400164275369E+03   -0.27699E-02   -0.16390E-02 38232   0.929E-01    0.124E+00
DAV:  22    -0.400171246758E+03   -0.69714E-02   -0.23188E-02 43956   0.795E-01    0.124E+00
DAV:  23    -0.400176017692E+03   -0.47709E-02   -0.49538E-03 39552   0.292E-01    0.127E+00
DAV:  24    -0.400174350261E+03    0.16674E-02   -0.13898E-03 36036   0.146E-01    0.128E+00
DAV:  25    -0.400161369991E+03    0.12980E-01   -0.16638E-02 41736   0.660E-01    0.125E+00
DAV:  26    -0.400164963747E+03   -0.35938E-02   -0.15534E-03 37032   0.165E-01    0.125E+00
DAV:  27    -0.400164962891E+03    0.85551E-06   -0.35605E-04 47844   0.162E-01    0.114E+00
DAV:  28    -0.400181271700E+03   -0.16309E-01   -0.19823E-02 45756   0.121E+00    0.949E-01
DAV:  29    -0.400216198748E+03   -0.34927E-01   -0.11533E-01 42924   0.204E+00    0.858E-01
DAV:  30    -0.400242419780E+03   -0.26221E-01   -0.81716E-02 43908   0.135E+00    0.107E+00
DAV:  31    -0.400244859560E+03   -0.24398E-02   -0.25843E-02 35496   0.384E-01    0.108E+00
DAV:  32    -0.400248212365E+03   -0.33528E-02   -0.11014E-02 40932   0.594E-01    0.103E+00
DAV:  33    -0.400228079199E+03    0.20133E-01   -0.28802E-02 44124   0.166E+00    0.633E-01
DAV:  34    -0.400240302169E+03   -0.12223E-01   -0.41375E-02 42540   0.807E-01    0.380E-01
DAV:  35    -0.400242490075E+03   -0.21879E-02   -0.87429E-03 40644   0.672E-01    0.259E-01
DAV:  36    -0.400242792059E+03   -0.30198E-03   -0.39312E-03 36408   0.291E-01    0.185E-01
DAV:  37    -0.400242823468E+03   -0.31409E-04   -0.91068E-04 37860   0.218E-01    0.147E-01
DAV:  38    -0.400242594575E+03    0.22889E-03   -0.10862E-03 43680   0.251E-01    0.166E-01
DAV:  39    -0.400242736821E+03   -0.14225E-03   -0.15366E-03 39816   0.345E-01    0.111E-01
DAV:  40    -0.400242846051E+03   -0.10923E-03   -0.22142E-04 36456   0.125E-01    0.749E-02
DAV:  41    -0.400242801087E+03    0.44964E-04   -0.13404E-04 36360   0.107E-01    0.630E-02
DAV:  42    -0.400242843949E+03   -0.42861E-04   -0.17733E-04 37812   0.605E-02    0.296E-02
DAV:  43    -0.400242862395E+03   -0.18446E-04   -0.68390E-05 30012   0.454E-02    0.243E-02
DAV:  44    -0.400242899808E+03   -0.37414E-04   -0.82070E-05 33264   0.466E-02    0.267E-02
DAV:  45    -0.400242914352E+03   -0.14544E-04   -0.49351E-05 31128   0.364E-02    0.300E-02
DAV:  46    -0.400242933785E+03   -0.19433E-04   -0.61601E-05 27852   0.344E-02    0.270E-02
DAV:  47    -0.400242943463E+03   -0.96778E-05   -0.13197E-04 35232   0.624E-02    0.364E-02
DAV:  48    -0.400242965545E+03   -0.22082E-04   -0.72475E-05 35328   0.421E-02    0.220E-02
DAV:  49    -0.400242975315E+03   -0.97699E-05   -0.40618E-05 26844   0.299E-02
   1 F= -.40024298E+03 E0= -.40022945E+03  d E =-.400243E+03  mag=     1.1813
       N       E                     dE             d eps       ncg     rms          rms(c)
DAV:   1    -0.400244158472E+03   -0.11929E-02   -0.16339E-03 45492   0.313E-01    0.185E-02
DAV:   2    -0.400244200737E+03   -0.42266E-04   -0.41316E-04 37068   0.475E-02    0.187E-02
DAV:   3    -0.400244202769E+03   -0.20318E-05   -0.26691E-05 28176   0.294E-02    0.175E-02
DAV:   4    -0.400244203617E+03   -0.84752E-06   -0.39108E-06 18300   0.120E-02
   2 F= -.40024420E+03 E0= -.40023069E+03  d E =-.122830E-02  mag=     1.1842
       N       E                     dE             d eps       ncg     rms          rms(c)
DAV:   1    -0.400248341650E+03   -0.41389E-02   -0.93590E-01 44976   0.747E+00    0.385E-01
DAV:   2    -0.400270756365E+03   -0.22415E-01   -0.23000E-01 36972   0.101E+00    0.317E-01
DAV:   3    -0.400271294989E+03   -0.53862E-03   -0.90955E-03 37152   0.481E-01    0.347E-01
DAV:   4    -0.400270817106E+03    0.47788E-03   -0.27193E-03 37620   0.312E-01    0.218E-01
DAV:   5    -0.400271147389E+03   -0.33028E-03   -0.11627E-03 42312   0.164E-01    0.276E-01
DAV:   6    -0.400271324969E+03   -0.17758E-03   -0.21100E-04 35916   0.546E-02    0.312E-01
DAV:   7    -0.400270793418E+03    0.53155E-03   -0.17055E-03 40776   0.174E-01    0.173E-01
DAV:   8    -0.400270714268E+03    0.79150E-04   -0.13754E-03 39936   0.226E-01    0.845E-02
DAV:   9    -0.400270701454E+03    0.12815E-04   -0.38380E-04 38268   0.117E-01    0.445E-02
DAV:  10    -0.400270706271E+03   -0.48174E-05   -0.94185E-05 35196   0.548E-02
   3 F= -.40027071E+03 E0= -.40025715E+03  d E =-.265027E-01  mag=     1.2149
       N       E                     dE             d eps       ncg     rms          rms(c)
DAV:   1    -0.400041181477E+03    0.22952E+00   -0.15050E+01 43812   0.260E+01    0.142E+00
DAV:   2    -0.400333195575E+03   -0.29201E+00   -0.29758E+00 37284   0.394E+00    0.148E+00
DAV:   3    -0.400336787818E+03   -0.35922E-02   -0.18169E-01 36996   0.213E+00    0.130E+00
DAV:   4    -0.400329418200E+03    0.73696E-02   -0.41063E-02 37692   0.114E+00    0.732E-01
DAV:   5    -0.400330180675E+03   -0.76248E-03   -0.12594E-02 40212   0.770E-01    0.659E-01
DAV:   6    -0.400330279635E+03   -0.98959E-04   -0.18991E-02 37512   0.845E-01    0.503E-01
DAV:   7    -0.400332244372E+03   -0.19647E-02   -0.78661E-03 38160   0.477E-01    0.593E-01
DAV:   8    -0.400331370621E+03    0.87375E-03   -0.12876E-03 36600   0.131E-01    0.556E-01
DAV:   9    -0.400328267926E+03    0.31027E-02   -0.10632E-02 40704   0.399E-01    0.179E-01
DAV:  10    -0.400328848944E+03   -0.58102E-03   -0.23458E-03 38880   0.264E-01    0.170E-01
DAV:  11    -0.400328855006E+03   -0.60618E-05   -0.91766E-04 36228   0.178E-01    0.119E-01
DAV:  12    -0.400328984909E+03   -0.12990E-03   -0.41404E-04 41016   0.109E-01    0.155E-01
DAV:  13    -0.400329058900E+03   -0.73991E-04   -0.20417E-04 41964   0.104E-01    0.136E-01
DAV:  14    -0.400329120552E+03   -0.61652E-04   -0.23912E-04 42060   0.940E-02    0.111E-01
DAV:  15    -0.400329188419E+03   -0.67867E-04   -0.19747E-04 38928   0.917E-02    0.918E-02
DAV:  16    -0.400329265538E+03   -0.77119E-04   -0.21817E-04 39732   0.100E-01    0.796E-02
DAV:  17    -0.400329332768E+03   -0.67230E-04   -0.29144E-04 41052   0.113E-01    0.644E-02
DAV:  18    -0.400329403031E+03   -0.70263E-04   -0.61214E-04 40500   0.181E-01    0.427E-02
DAV:  19    -0.400329458180E+03   -0.55149E-04   -0.58784E-04 43944   0.145E-01    0.257E-02
DAV:  20    -0.400329511491E+03   -0.53311E-04   -0.38919E-04 45672   0.868E-02    0.288E-02
DAV:  21    -0.400329539106E+03   -0.27615E-04   -0.15970E-04 37512   0.279E-02    0.338E-02
DAV:  22    -0.400329540219E+03   -0.11135E-05   -0.87927E-06 22428   0.682E-03
   4 F= -.40032954E+03 E0= -.40031745E+03  d E =-.588339E-01  mag=     1.4084
       N       E                     dE             d eps       ncg     rms          rms(c)
DAV:   1    -0.400310480146E+03    0.19059E-01   -0.21120E+00 44616   0.881E+00    0.506E-01
DAV:   2    -0.400346211122E+03   -0.35731E-01   -0.36126E-01 37416   0.136E+00    0.562E-01
DAV:   3    -0.400346403758E+03   -0.19264E-03   -0.13908E-02 36984   0.683E-01    0.381E-01
DAV:   4    -0.400346721149E+03   -0.31739E-03   -0.42173E-03 37956   0.402E-01    0.484E-01
DAV:   5    -0.400346957529E+03   -0.23638E-03   -0.88696E-04 39900   0.148E-01    0.442E-01
DAV:   6    -0.400348042783E+03   -0.10853E-02   -0.11603E-03 38244   0.168E-01    0.518E-01
DAV:   7    -0.400346608936E+03    0.14338E-02   -0.21130E-03 39156   0.211E-01    0.410E-01
DAV:   8    -0.400346311650E+03    0.29729E-03   -0.32675E-03 41220   0.340E-01    0.272E-01
DAV:   9    -0.400346750409E+03   -0.43876E-03   -0.12104E-03 40500   0.199E-01    0.290E-01
DAV:  10    -0.400347027544E+03   -0.27714E-03   -0.45196E-04 43644   0.121E-01    0.322E-01
DAV:  11    -0.400347264461E+03   -0.23692E-03   -0.27803E-04 43944   0.930E-02    0.345E-01
DAV:  12    -0.400347040312E+03    0.22415E-03   -0.24673E-04 36216   0.840E-02    0.328E-01
DAV:  13    -0.400346224137E+03    0.81618E-03   -0.14254E-03 46416   0.261E-01    0.273E-01
DAV:  14    -0.400345356514E+03    0.86762E-03   -0.31516E-03 42696   0.436E-01    0.339E-01
DAV:  15    -0.400345053599E+03    0.30291E-03   -0.24297E-03 44676   0.250E-01    0.383E-01
DAV:  16    -0.400345008175E+03    0.45424E-04   -0.93023E-04 43728   0.823E-02    0.380E-01
DAV:  17    -0.400344624608E+03    0.38357E-03   -0.42284E-04 39300   0.792E-02    0.312E-01
DAV:  18    -0.400343704042E+03    0.92057E-03   -0.21384E-03 41388   0.343E-01    0.352E-01
DAV:  19    -0.400344325774E+03   -0.62173E-03   -0.65199E-04 37068   0.175E-01    0.341E-01
DAV:  20    -0.400345876695E+03   -0.15509E-02   -0.91216E-03 42444   0.761E-01    0.355E-01
DAV:  21    -0.400347814649E+03   -0.19380E-02   -0.16609E-02 42264   0.918E-01    0.528E-01
DAV:  22    -0.400348480528E+03   -0.66588E-03   -0.59225E-03 35544   0.175E-01    0.498E-01
DAV:  23    -0.400347516968E+03    0.96356E-03   -0.10869E-03 45648   0.292E-01    0.488E-01
DAV:  24    -0.400348456019E+03   -0.93905E-03   -0.13799E-03 39972   0.951E-02    0.695E-01
DAV:  25    -0.400348741722E+03   -0.28570E-03   -0.73295E-04 42396   0.250E-01    0.652E-01
DAV:  26    -0.400349554278E+03   -0.81256E-03   -0.33521E-03 47820   0.456E-01    0.586E-01
DAV:  27    -0.400352724563E+03   -0.31703E-02   -0.12333E-02 45612   0.874E-01    0.679E-01
DAV:  28    -0.400353748494E+03   -0.10239E-02   -0.87086E-03 35856   0.181E-01    0.709E-01
DAV:  29    -0.400354065849E+03   -0.31736E-03   -0.72158E-05 40776   0.572E-02    0.727E-01
DAV:  30    -0.400353578044E+03    0.48781E-03   -0.21835E-04 41472   0.919E-02    0.690E-01
DAV:  31    -0.400356981284E+03   -0.34032E-02   -0.35226E-03 49860   0.463E-01    0.672E-01
DAV:  32    -0.400357266826E+03   -0.28554E-03   -0.35752E-03 36324   0.151E-01    0.711E-01
DAV:  33    -0.400355090888E+03    0.21759E-02   -0.96669E-04 46224   0.281E-01    0.644E-01
DAV:  34    -0.400354492588E+03    0.59830E-03   -0.95582E-04 44256   0.120E-01    0.609E-01
DAV:  35    -0.400351699813E+03    0.27928E-02   -0.28234E-03 47532   0.466E-01    0.518E-01
DAV:  36    -0.400350305617E+03    0.13942E-02   -0.46679E-03 44688   0.381E-01    0.472E-01
DAV:  37    -0.400350877887E+03   -0.57227E-03   -0.19277E-03 35856   0.953E-02    0.461E-01
DAV:  38    -0.400351437265E+03   -0.55938E-03   -0.15314E-04 39768   0.109E-01    0.488E-01
DAV:  39    -0.400351802324E+03   -0.36506E-03   -0.19838E-04 43944   0.677E-02    0.517E-01
DAV:  40    -0.400352268637E+03   -0.46631E-03   -0.10388E-04 44880   0.803E-02    0.543E-01
DAV:  41    -0.400352509763E+03   -0.24113E-03   -0.14089E-04 45468   0.719E-02    0.550E-01
DAV:  42    -0.400352380655E+03    0.12911E-03   -0.10577E-04 36528   0.369E-02    0.539E-01
DAV:  43    -0.400352306542E+03    0.74113E-04   -0.62224E-05 29364   0.379E-02    0.541E-01
DAV:  44    -0.400352359894E+03   -0.53353E-04   -0.42775E-05 23292   0.251E-02    0.546E-01
DAV:  45    -0.400352331556E+03    0.28338E-04   -0.42422E-05 25956   0.239E-02    0.547E-01
DAV:  46    -0.400351952083E+03    0.37947E-03   -0.14473E-04 33756   0.823E-02    0.541E-01
DAV:  47    -0.400351431718E+03    0.52036E-03   -0.24936E-04 42684   0.104E-01    0.525E-01
DAV:  48    -0.400351202963E+03    0.22876E-03   -0.18100E-04 43968   0.522E-02    0.509E-01
DAV:  49    -0.400351081097E+03    0.12187E-03   -0.46938E-05 37992   0.264E-02    0.502E-01
DAV:  50    -0.400350998371E+03    0.82726E-04   -0.15207E-05 22692   0.177E-02    0.499E-01
DAV:  51    -0.400350842157E+03    0.15621E-03   -0.11231E-05 22620   0.279E-02    0.494E-01
DAV:  52    -0.400350875391E+03   -0.33234E-04   -0.19763E-05 24924   0.143E-02    0.491E-01
DAV:  53    -0.400350873901E+03    0.14898E-05   -0.15752E-06 18576   0.347E-03
   5 F= -.40035087E+03 E0= -.40034040E+03  d E =-.213337E-01  mag=     1.4886
       N       E                     dE             d eps       ncg     rms          rms(c)
DAV:   1    -0.400182704252E+03    0.16817E+00   -0.14866E+01 41880   0.204E+01    0.141E+00
DAV:   2    -0.400387974520E+03   -0.20527E+00   -0.19819E+00 37380   0.317E+00    0.223E+00
DAV:   3    -0.400387824067E+03    0.15045E-03   -0.42269E-02 40080   0.998E-01    0.155E+00
DAV:   4    -0.400407905750E+03   -0.20082E-01   -0.35291E-02 40740   0.753E-01    0.271E+00
DAV:   5    -0.400407824385E+03    0.81365E-04   -0.12679E-02 42072   0.914E-01    0.222E+00
DAV:   6    -0.400422237456E+03   -0.14413E-01   -0.21351E-02 38616   0.122E+00    0.204E+00
DAV:   7    -0.400434321860E+03   -0.12084E-01   -0.15806E-02 44220   0.521E-01    0.201E+00
DAV:   8    -0.400443117063E+03   -0.87952E-02   -0.50934E-03 44280   0.335E-01    0.200E+00
DAV:   9    -0.400471057464E+03   -0.27940E-01   -0.25989E-02 41664   0.101E+00    0.179E+00
DAV:  10    -0.400507204324E+03   -0.36147E-01   -0.68817E-02 40740   0.202E+00    0.986E-01
DAV:  11    -0.400524394431E+03   -0.17190E-01   -0.50167E-02 44160   0.159E+00    0.539E-01
DAV:  12    -0.400531337078E+03   -0.69426E-02   -0.40683E-02 38676   0.594E-01    0.554E-01
DAV:  13    -0.400531293931E+03    0.43147E-04   -0.85442E-03 36876   0.403E-01    0.338E-01
DAV:  14    -0.400528309146E+03    0.29848E-02   -0.48691E-03 42276   0.732E-01    0.378E-01
DAV:  15    -0.400531670813E+03   -0.33617E-02   -0.48960E-03 41724   0.514E-01    0.142E-01
DAV:  16    -0.400531969816E+03   -0.29900E-03   -0.67921E-04 40680   0.155E-01    0.891E-02
DAV:  17    -0.400531943712E+03    0.26103E-04   -0.31600E-04 35496   0.761E-02    0.102E-01
DAV:  18    -0.400532014542E+03   -0.70830E-04   -0.17655E-04 38124   0.130E-01    0.282E-02
DAV:  19    -0.400532022353E+03   -0.78109E-05   -0.12896E-04 39288   0.600E-02    0.218E-02
DAV:  20    -0.400532032741E+03   -0.10388E-04   -0.59861E-05 32220   0.286E-02    0.178E-02
DAV:  21    -0.400532034802E+03   -0.20611E-05   -0.39757E-06 19056   0.132E-02
   6 F= -.40053203E+03 E0= -.40053203E+03  d E =-.181161E+00  mag=     2.0002
       N       E                     dE             d eps       ncg     rms          rms(c)
DAV:   1    -0.400358448745E+03    0.17358E+00   -0.12617E+01 44028   0.205E+01    0.126E+00
DAV:   2    -0.400558801307E+03   -0.20035E+00   -0.20752E+00 37356   0.316E+00    0.105E+00
DAV:   3    -0.400561114785E+03   -0.23135E-02   -0.87166E-02 37572   0.143E+00    0.889E-01
DAV:   4    -0.400557822085E+03    0.32927E-02   -0.92758E-03 38016   0.667E-01    0.552E-01
DAV:   5    -0.400557272313E+03    0.54977E-03   -0.64048E-03 40248   0.533E-01    0.335E-01
DAV:   6    -0.400556845597E+03    0.42672E-03   -0.55754E-03 37200   0.526E-01    0.136E-01
DAV:   7    -0.400556823081E+03    0.22515E-04   -0.13844E-03 36780   0.240E-01    0.916E-02
DAV:   8    -0.400556777769E+03    0.45313E-04   -0.39605E-04 36816   0.117E-01    0.479E-02
DAV:   9    -0.400556759595E+03    0.18174E-04   -0.69026E-05 34920   0.497E-02    0.266E-02
DAV:  10    -0.400556757794E+03    0.18011E-05   -0.41151E-05 35040   0.454E-02
   7 F= -.40055676E+03 E0= -.40055676E+03  d E =-.247230E-01  mag=     2.0000
       N       E                     dE             d eps       ncg     rms          rms(c)
DAV:   1    -0.400367108018E+03    0.18965E+00   -0.40118E+00 48792   0.227E+01    0.124E+00
DAV:   2    -0.400572838350E+03   -0.20573E+00   -0.21605E+00 37128   0.275E+00    0.766E-01
DAV:   3    -0.400575985336E+03   -0.31470E-02   -0.55644E-02 37236   0.942E-01    0.577E-01
DAV:   4    -0.400575344024E+03    0.64131E-03   -0.72130E-03 37596   0.710E-01    0.443E-01
DAV:   5    -0.400575063749E+03    0.28027E-03   -0.35683E-03 40548   0.404E-01    0.207E-01
DAV:   6    -0.400575080443E+03   -0.16694E-04   -0.28196E-03 37848   0.348E-01    0.149E-01
DAV:   7    -0.400574968794E+03    0.11165E-03   -0.72729E-04 37332   0.178E-01    0.517E-02
DAV:   8    -0.400574962326E+03    0.64677E-05   -0.13548E-04 38844   0.714E-02    0.362E-02
DAV:   9    -0.400574955620E+03    0.67061E-05   -0.60585E-05 33324   0.441E-02
   8 F= -.40057496E+03 E0= -.40057496E+03  d E =-.181978E-01  mag=     2.0000
       N       E                     dE             d eps       ncg     rms          rms(c)
DAV:   1    -0.400541044869E+03    0.33917E-01   -0.16195E+00 45708   0.104E+01    0.565E-01
DAV:   2    -0.400583990756E+03   -0.42946E-01   -0.44379E-01 36900   0.143E+00    0.399E-01
DAV:   3    -0.400584452285E+03   -0.46153E-03   -0.11779E-02 36900   0.560E-01    0.310E-01
DAV:   4    -0.400584203276E+03    0.24901E-03   -0.20334E-03 37584   0.361E-01    0.222E-01
DAV:   5    -0.400584142319E+03    0.60957E-04   -0.11005E-03 39156   0.211E-01    0.125E-01
DAV:   6    -0.400584104256E+03    0.38064E-04   -0.69287E-04 36852   0.217E-01    0.555E-02
DAV:   7    -0.400584099180E+03    0.50757E-05   -0.16168E-04 36432   0.872E-02    0.249E-02
DAV:   8    -0.400584100116E+03   -0.93642E-06   -0.37037E-05 31332   0.310E-02
   9 F= -.40058410E+03 E0= -.40058410E+03  d E =-.914450E-02  mag=     2.0000
       N       E                     dE             d eps       ncg     rms          rms(c)
DAV:   1    -0.400536758501E+03    0.47341E-01   -0.22343E+00 45516   0.114E+01    0.611E-01
DAV:   2    -0.400587501614E+03   -0.50743E-01   -0.52755E-01 37440   0.158E+00    0.412E-01
DAV:   3    -0.400587975028E+03   -0.47341E-03   -0.13931E-02 37236   0.560E-01    0.345E-01
DAV:   4    -0.400587516288E+03    0.45874E-03   -0.23037E-03 38292   0.350E-01    0.227E-01
DAV:   5    -0.400587291351E+03    0.22494E-03   -0.11775E-03 39816   0.191E-01    0.108E-01
DAV:   6    -0.400587320934E+03   -0.29583E-04   -0.68149E-04 36924   0.175E-01    0.637E-02
DAV:   7    -0.400587307092E+03    0.13842E-04   -0.24768E-04 36672   0.116E-01    0.330E-02
DAV:   8    -0.400587304143E+03    0.29486E-05   -0.58240E-05 33264   0.439E-02
  10 F= -.40058730E+03 E0= -.40058730E+03  d E =-.320403E-02  mag=     2.0000
       N       E                     dE             d eps       ncg     rms          rms(c)
DAV:   1    -0.400541200462E+03    0.46107E-01   -0.10389E+00 47688   0.119E+01    0.582E-01
DAV:   2    -0.400589249449E+03   -0.48049E-01   -0.49992E-01 37272   0.146E+00    0.350E-01
DAV:   3    -0.400589908912E+03   -0.65946E-03   -0.12501E-02 36564   0.542E-01    0.266E-01
DAV:   4    -0.400589734314E+03    0.17460E-03   -0.19359E-03 37296   0.354E-01    0.195E-01
DAV:   5    -0.400589746176E+03   -0.11862E-04   -0.94199E-04 39948   0.204E-01    0.131E-01
DAV:   6    -0.400589679411E+03    0.66765E-04   -0.64010E-04 36624   0.195E-01    0.560E-02
DAV:   7    -0.400589675085E+03    0.43257E-05   -0.14115E-04 36468   0.710E-02    0.239E-02
DAV:   8    -0.400589674438E+03    0.64689E-06   -0.34655E-05 29280   0.364E-02
  11 F= -.40058967E+03 E0= -.40058967E+03  d E =-.237029E-02  mag=     2.0000
       N       E                     dE             d eps       ncg     rms          rms(c)
DAV:   1    -0.400581097757E+03    0.85773E-02   -0.18329E-01 49248   0.539E+00    0.268E-01
DAV:   2    -0.400590913238E+03   -0.98155E-02   -0.10242E-01 36504   0.636E-01    0.157E-01
DAV:   3    -0.400591088278E+03   -0.17504E-03   -0.27284E-03 36648   0.243E-01    0.119E-01
DAV:   4    -0.400591065444E+03    0.22835E-04   -0.44175E-04 38304   0.165E-01    0.891E-02
DAV:   5    -0.400591071079E+03   -0.56351E-05   -0.17976E-04 38928   0.911E-02    0.606E-02
DAV:   6    -0.400591056449E+03    0.14630E-04   -0.12190E-04 36420   0.913E-02    0.251E-02
DAV:   7    -0.400591056098E+03    0.35106E-06   -0.25940E-05 25500   0.323E-02
  12 F= -.40059106E+03 E0= -.40059106E+03  d E =-.138166E-02  mag=     2.0000
       N       E                     dE             d eps       ncg     rms          rms(c)
DAV:   1    -0.400588004033E+03    0.30524E-02   -0.10244E-01 45648   0.328E+00    0.163E-01
DAV:   2    -0.400591833340E+03   -0.38293E-02   -0.39693E-02 36636   0.415E-01    0.950E-02
DAV:   3    -0.400591897208E+03   -0.63868E-04   -0.98514E-04 37260   0.139E-01    0.758E-02
DAV:   4    -0.400591887383E+03    0.98255E-05   -0.16961E-04 37464   0.939E-02    0.566E-02
DAV:   5    -0.400591881876E+03    0.55073E-05   -0.54602E-05 32028   0.558E-02
  13 F= -.40059188E+03 E0= -.40059188E+03  d E =-.825777E-03  mag=     2.0000
       N       E                     dE             d eps       ncg     rms          rms(c)
DAV:   1    -0.400580108443E+03    0.11779E-01   -0.59809E-01 45564   0.571E+00    0.289E-01
DAV:   2    -0.400592818145E+03   -0.12710E-01   -0.12967E-01 37416   0.794E-01    0.172E-01
DAV:   3    -0.400592902752E+03   -0.84607E-04   -0.27518E-03 37488   0.251E-01    0.127E-01
DAV:   4    -0.400592860758E+03    0.41994E-04   -0.50194E-04 37908   0.182E-01    0.954E-02
DAV:   5    -0.400592834840E+03    0.25918E-04   -0.26793E-04 40080   0.107E-01    0.571E-02
DAV:   6    -0.400592830072E+03    0.47681E-05   -0.17022E-04 37440   0.849E-02    0.315E-02
DAV:   7    -0.400592829200E+03    0.87233E-06   -0.42683E-05 32664   0.387E-02
  14 F= -.40059283E+03 E0= -.40059283E+03  d E =-.947324E-03  mag=     2.0000
       N       E                     dE             d eps       ncg     rms          rms(c)
DAV:   1    -0.400520807515E+03    0.72023E-01   -0.13817E+00 48564   0.145E+01    0.709E-01
DAV:   2    -0.400590644820E+03   -0.69837E-01   -0.72037E-01 36384   0.169E+00    0.378E-01
DAV:   3    -0.400591690384E+03   -0.10456E-02   -0.14670E-02 37332   0.406E-01    0.274E-01
DAV:   4    -0.400591835778E+03   -0.14539E-03   -0.24240E-03 38976   0.352E-01    0.247E-01
DAV:   5    -0.400591673368E+03    0.16241E-03   -0.10158E-03 38640   0.253E-01    0.113E-01
DAV:   6    -0.400591652989E+03    0.20380E-04   -0.51834E-04 36756   0.186E-01    0.570E-02
DAV:   7    -0.400591644214E+03    0.87748E-05   -0.15481E-04 36348   0.854E-02    0.254E-02
DAV:   8    -0.400591644414E+03   -0.20002E-06   -0.36275E-05 29772   0.318E-02
  15 F= -.40059164E+03 E0= -.40059164E+03  d E =0.118479E-02  mag=     2.0000
       N       E                     dE             d eps       ncg     rms          rms(c)
DAV:   1    -0.400567953990E+03    0.23690E-01   -0.39959E-01 49896   0.884E+00    0.430E-01
DAV:   2    -0.400592890999E+03   -0.24937E-01   -0.26201E-01 36804   0.102E+00    0.240E-01
DAV:   3    -0.400593315460E+03   -0.42446E-03   -0.64200E-03 37332   0.330E-01    0.186E-01
DAV:   4    -0.400593272136E+03    0.43324E-04   -0.10009E-03 38676   0.232E-01    0.144E-01
DAV:   5    -0.400593241591E+03    0.30545E-04   -0.40887E-04 39624   0.139E-01    0.812E-02
DAV:   6    -0.400593229001E+03    0.12590E-04   -0.28540E-04 36720   0.138E-01    0.411E-02
DAV:   7    -0.400593224996E+03    0.40048E-05   -0.74062E-05 33564   0.607E-02
  16 F= -.40059322E+03 E0= -.40059322E+03  d E =-.158058E-02  mag=     2.0000
       N       E                     dE             d eps       ncg     rms          rms(c)
DAV:   1    -0.400590153694E+03    0.30753E-02   -0.62014E-02 49176   0.298E+00    0.148E-01
DAV:   2    -0.400593263285E+03   -0.31096E-02   -0.32492E-02 37224   0.352E-01    0.872E-02
DAV:   3    -0.400593312141E+03   -0.48857E-04   -0.78256E-04 36804   0.124E-01    0.694E-02
DAV:   4    -0.400593302642E+03    0.94995E-05   -0.13131E-04 37176   0.843E-02    0.512E-02
DAV:   5    -0.400593299542E+03    0.30999E-05   -0.47669E-05 33348   0.503E-02
  17 F= -.40059330E+03 E0= -.40059330E+03  d E =-.745460E-04  mag=     2.0000
