       N       E                     dE             d eps       ncg     rms          ort
DAV:   1     0.282148489865E+04    0.28215E+04   -0.29363E+05  2880   0.141E+03
DAV:   2    -0.971596310798E+03   -0.37931E+04   -0.36596E+04  2880   0.313E+02
DAV:   3    -0.122865553760E+04   -0.25706E+03   -0.25497E+03  2880   0.848E+01
DAV:   4    -0.123165470607E+04   -0.29992E+01   -0.29887E+01  2880   0.975E+00
DAV:   5    -0.123170313148E+04   -0.48425E-01   -0.48318E-01  2880   0.114E+00
SDA:   6    -0.874854457165E+03    0.35685E+03   -0.48318E-01  2880   0.624E+03 0.000E+00
CGA:   7    -0.983727456294E+03   -0.10887E+03   -0.10951E+03  2880   0.809E+02 0.127E+02
CGA:   8    -0.995028331993E+03   -0.11301E+02   -0.12938E+02  2880   0.244E+02 0.210E+02
CGA:   9    -0.998151266473E+03   -0.31229E+01   -0.42614E+01  2880   0.195E+02 0.567E+01
CGA:  10    -0.100184130943E+04   -0.36900E+01   -0.35354E+01  2880   0.898E+01-0.360E+01
CGA:  11    -0.100338961508E+04   -0.15483E+01   -0.15423E+01  2880   0.577E+01 0.276E+00
CGA:  12    -0.100402141186E+04   -0.63180E+00   -0.67083E+00  2880   0.491E+01-0.487E+00
CGA:  13    -0.100437134465E+04   -0.34993E+00   -0.28281E+00  2880   0.153E+01 0.194E+00
CGA:  14    -0.100450808292E+04   -0.13674E+00   -0.15104E+00  2880   0.185E+01-0.107E+00
CGA:  15    -0.100463517714E+04   -0.12709E+00   -0.14475E+00  2880   0.132E+01-0.141E+00
CGA:  16    -0.100470994237E+04   -0.74765E-01   -0.77647E-01  2880   0.596E+00-0.865E-01
CGA:  17    -0.100476457667E+04   -0.54634E-01   -0.54889E-01  2880   0.454E+00-0.139E-01
CGA:  18    -0.100478936911E+04   -0.24792E-01   -0.23597E-01  2880   0.248E+00 0.139E-01
CGA:  19    -0.100481176357E+04   -0.22394E-01   -0.21900E-01  2880   0.256E+00 0.126E-02
CGA:  20    -0.100482698185E+04   -0.15218E-01   -0.16073E-01  2880   0.132E+00-0.149E-01
CGA:  21    -0.100483407144E+04   -0.70896E-02   -0.71004E-02  2880   0.869E-01-0.317E-02
CGA:  22    -0.100484207245E+04   -0.80010E-02   -0.83954E-02  2880   0.965E-01 0.240E-02
CGA:  23    -0.100484771490E+04   -0.56424E-02   -0.58571E-02  2880   0.458E-01 0.584E-02
CGA:  24    -0.100485153309E+04   -0.38182E-02   -0.40070E-02  2880   0.446E-01 0.317E-02
CGA:  25    -0.100485501567E+04   -0.34826E-02   -0.36352E-02  2880   0.252E-01 0.872E-03
CGA:  26    -0.100485684181E+04   -0.18261E-02   -0.18200E-02  2880   0.192E-01-0.278E-03
CGA:  27    -0.100485882495E+04   -0.19831E-02   -0.20175E-02  2880   0.181E-01 0.104E-02
CGA:  28    -0.100485987031E+04   -0.10454E-02   -0.11220E-02  2880   0.807E-02 0.161E-02
CGA:  29    -0.100486061367E+04   -0.74336E-03   -0.75792E-03  2880   0.846E-02 0.636E-03
CGA:  30    -0.100486144475E+04   -0.83109E-03   -0.80815E-03  2880   0.714E-02-0.614E-03
CGA:  31    -0.100486207660E+04   -0.63184E-03   -0.59168E-03  2880   0.743E-02-0.133E-02
CGA:  32    -0.100486257551E+04   -0.49892E-03   -0.48148E-03  2880   0.439E-02-0.589E-03
CGA:  33    -0.100486273014E+04   -0.15462E-03   -0.17868E-03  2880   0.173E-02 0.388E-03
CGA:  34    -0.100486281359E+04   -0.83453E-04   -0.10955E-03  2880   0.180E-02 0.508E-03
CGA:  35    -0.100486300107E+04   -0.18748E-03   -0.20076E-03  2880   0.236E-02 0.639E-03
CGA:  36    -0.100486323828E+04   -0.23721E-03   -0.24349E-03  2880   0.218E-02 0.315E-03
SDA:  37    -0.100486348811E+04   -0.24983E-03   -0.24957E-03  2880   0.312E-02 0.321E-03
CGA:  38    -0.100486371835E+04   -0.23024E-03   -0.23211E-03  2880   0.794E-03 0.863E-04
CGA:  39    -0.100486390845E+04   -0.19010E-03    0.46509E-03  2880   0.585E-03 0.532E-03
CGA:  40    -0.100486403797E+04   -0.12952E-03   -0.14292E-03  2880   0.156E-02-0.948E-04
CGA:  41    -0.100469233875E+04    0.17170E+00   -0.69913E-01  2880   0.293E+01-0.303E+00
CGA:  42    -0.100478628593E+04   -0.93947E-01   -0.26932E+00  2880   0.117E+01-0.108E+01
CGA:  43    -0.100482493157E+04   -0.38646E-01   -0.52708E-01  2880   0.375E+00-0.152E+00
CGA:  44    -0.100484788891E+04   -0.22957E-01   -0.17330E-01  2880   0.800E-01 0.937E-01
CGA:  45    -0.100485303308E+04   -0.51442E-02   -0.49631E-02  2880   0.179E-01 0.952E-03
CGA:  46    -0.100485660815E+04   -0.35751E-02   -0.36118E-02  2880   0.402E-01-0.155E-02
CGA:  47    -0.100485905579E+04   -0.24476E-02   -0.21959E-02  2880   0.287E-01 0.422E-02
CGA:  48    -0.100486142334E+04   -0.23676E-02   -0.25939E-02  2880   0.307E-01-0.124E-02
CGA:  49    -0.100486387494E+04   -0.24516E-02   -0.28203E-02  2880   0.128E-01-0.117E-02
CGA:  50    -0.100486462794E+04   -0.75300E-03   -0.79666E-03  2880   0.349E-02-0.180E-03
CGA:  51    -0.100486480303E+04   -0.17510E-03   -0.20397E-03  2880   0.106E-02 0.333E-03
CGA:  52    -0.100486492257E+04   -0.11953E-03   -0.11902E-03  2880   0.108E-02-0.108E-04
CGA:  53    -0.100486506516E+04   -0.14260E-03   -0.13259E-03  2880   0.887E-03-0.330E-03
CGA:  54    -0.100486509302E+04   -0.27853E-04   -0.31503E-04  2880   0.415E-03 0.569E-04
CGA:  55    -0.100486510366E+04   -0.10641E-04   -0.19647E-04  2880   0.227E-03 0.962E-04
CGA:  56    -0.100486511905E+04   -0.15395E-04   -0.17728E-04  2880   0.158E-03 0.350E-04
CGA:  57    -0.100486514301E+04   -0.23958E-04   -0.19316E-04  2880   0.223E-03-0.144E-03
CGA:  58    -0.100486515889E+04   -0.15878E-04   -0.18029E-04  2880   0.547E-04 0.399E-04
CGA:  59    -0.100486517972E+04   -0.20827E-04    0.21281E-04  2880   0.637E-04-0.231E-04
CGA:  60    -0.100486518096E+04   -0.12455E-05   -0.21799E-05  2880   0.498E-04 0.127E-04
   1 F= -.10048652E+04 E0= -.10048485E+04  d E =-.100487E+04  mag=     0.9998
       N       E                     dE             d eps       ncg     rms          ort
SDA:   1    -0.100487316136E+04   -0.79816E-02    0.00000E+00  2880   0.639E-02 0.000E+00
CGA:   2    -0.100487364631E+04   -0.48496E-03   -0.49982E-03  2880   0.217E-02 0.290E-03
CGA:   3    -0.100487390826E+04   -0.26195E-03   -0.25687E-03  2880   0.186E-02-0.542E-03
CGA:   4    -0.100487406302E+04   -0.15476E-03   -0.15742E-03  2880   0.770E-03 0.259E-03
CGA:   5    -0.100487414140E+04   -0.78383E-04   -0.80190E-04  2880   0.134E-03 0.566E-04
CGA:   6    -0.100487412635E+04    0.15054E-04   -0.38959E-04  2880   0.193E-02-0.364E-03
CGA:   7    -0.100487417132E+04   -0.44969E-04   -0.71002E-04  2880   0.828E-04 0.253E-03
CGA:   8    -0.100487417342E+04   -0.20977E-05   -0.43218E-05  2880   0.280E-04 0.285E-04
CGA:   9    -0.100487398051E+04    0.19291E-03   -0.10743E-03  2880   0.233E-02-0.334E-03
CGA:  10    -0.100487415653E+04   -0.17602E-03   -0.19541E-03  2880   0.269E-03 0.281E-03
CGA:  11    -0.100487419014E+04   -0.33613E-04   -0.22481E-04  2880   0.635E-04-0.891E-04
CGA:  12    -0.100487418803E+04    0.21122E-05   -0.13268E-05  2880   0.203E-04 0.196E-04
   2 F= -.10048742E+04 E0= -.10048575E+04  d E =-.900707E-02  mag=     0.9994
       N       E                     dE             d eps       ncg     rms          ort
SDA:   1    -0.100462013970E+04    0.25405E+00    0.00000E+00  2880   0.169E+01 0.000E+00
CGA:   2    -0.100481826046E+04   -0.19812E+00   -0.22897E+00  2880   0.120E+01 0.840E-01
CGA:   3    -0.100497075273E+04   -0.15249E+00   -0.13287E+00  2880   0.684E+00 0.693E-01
CGA:   4    -0.100504278318E+04   -0.72030E-01   -0.72522E-01  2880   0.204E+00-0.130E-01
CGA:   5    -0.100506150657E+04   -0.18723E-01   -0.18563E-01  2880   0.687E-01 0.218E-02
CGA:   6    -0.100507191346E+04   -0.10407E-01   -0.10403E-01  2880   0.498E-01-0.153E-02
CGA:   7    -0.100507519501E+04   -0.32816E-02   -0.33251E-02  2880   0.983E-02 0.257E-02
CGA:   8    -0.100507695448E+04   -0.17595E-02   -0.17589E-02  2880   0.429E-02 0.458E-04
CGA:   9    -0.100507784388E+04   -0.88940E-03   -0.90106E-03  2880   0.454E-02-0.310E-03
CGA:  10    -0.100507809022E+04   -0.24634E-03   -0.28354E-03  2880   0.124E-02 0.437E-03
CGA:  11    -0.100507824243E+04   -0.15221E-03   -0.15119E-03  2880   0.937E-03-0.422E-04
CGA:  12    -0.100507841727E+04   -0.17484E-03   -0.18587E-03  2880   0.150E-02-0.255E-03
CGA:  13    -0.100507845465E+04   -0.37382E-04   -0.54865E-04  2880   0.569E-03 0.155E-03
CGA:  14    -0.100507846985E+04   -0.15197E-04   -0.28443E-04  2880   0.260E-03 0.133E-03
CGA:  15    -0.100507849091E+04   -0.21064E-04   -0.20951E-04  2880   0.140E-03 0.304E-05
CGA:  16    -0.100507850959E+04   -0.18677E-04   -0.26275E-04  2880   0.703E-03-0.199E-03
CGA:  17    -0.100507852170E+04   -0.12110E-04   -0.28914E-04  2880   0.960E-04 0.150E-03
CGA:  18    -0.100507852604E+04   -0.43427E-05   -0.69224E-05  2880   0.374E-04 0.306E-04
CGA:  19    -0.100507850502E+04    0.21026E-04   -0.16750E-04  2880   0.842E-03-0.189E-03
CGA:  20    -0.100507852717E+04   -0.22153E-04   -0.38869E-04  2880   0.127E-03 0.164E-03
CGA:  21    -0.100507853938E+04   -0.12214E-04   -0.12209E-04  2880   0.168E-04 0.406E-06
CGA:  22    -0.100507855009E+04   -0.10704E-04    0.95948E-06  2880   0.860E-04-0.342E-04
CGA:  23    -0.100507854747E+04    0.26218E-05   -0.20490E-05  2880   0.191E-04 0.391E-04
   3 F= -.10050785E+04 E0= -.10050619E+04  d E =-.204359E+00  mag=     0.9994
       N       E                     dE             d eps       ncg     rms          ort
SDA:   1    -0.100318239747E+04    0.18962E+01    0.00000E+00  2880   0.175E+02 0.000E+00
CGA:   2    -0.100403724309E+04   -0.85485E+00   -0.12951E+01  2880   0.842E+01-0.329E+01
CGA:   3    -0.100461436178E+04   -0.57712E+00   -0.62816E+00  2880   0.403E+01 0.229E-01
CGA:   4    -0.100506094507E+04   -0.44658E+00   -0.44955E+00  2880   0.182E+01 0.519E-01
CGA:   5    -0.100519540432E+04   -0.13446E+00   -0.15819E+00  2880   0.112E+01 0.665E-01
CGA:   6    -0.100527352205E+04   -0.78118E-01   -0.74743E-01  2880   0.235E+00 0.140E-01
CGA:   7    -0.100530723466E+04   -0.33713E-01   -0.44892E-01  2880   0.351E+00-0.153E+00
CGA:   8    -0.100532519715E+04   -0.17962E-01   -0.24511E-01  2880   0.578E-01-0.269E-01
CGA:   9    -0.100532870225E+04   -0.35051E-02   -0.36515E-02  2880   0.267E-01 0.219E-02
CGA:  10    -0.100533587978E+04   -0.71775E-02   -0.72110E-02  2880   0.407E-01-0.230E-03
CGA:  11    -0.100534088636E+04   -0.50066E-02   -0.50067E-02  2880   0.492E-02 0.772E-04
CGA:  12    -0.100534152796E+04   -0.64160E-03   -0.64040E-03  2880   0.400E-02 0.254E-03
CGA:  13    -0.100534210441E+04   -0.57645E-03   -0.59309E-03  2880   0.592E-02-0.107E-02
CGA:  14    -0.100534252106E+04   -0.41665E-03   -0.42641E-03  2880   0.137E-02 0.355E-03
CGA:  15    -0.100534256242E+04   -0.41358E-04   -0.65284E-04  2880   0.486E-03 0.302E-03
CGA:  16    -0.100534261083E+04   -0.48413E-04   -0.52514E-04  2880   0.421E-03 0.131E-03
CGA:  17    -0.100534267518E+04   -0.64353E-04   -0.64870E-04  2880   0.746E-03-0.203E-03
CGA:  18    -0.100534268983E+04   -0.14643E-04   -0.16183E-04  2880   0.715E-03 0.205E-04
CGA:  19    -0.100534270296E+04   -0.13136E-04   -0.23526E-04  2880   0.267E-03 0.124E-03
CGA:  20    -0.100534271056E+04   -0.76015E-05   -0.12062E-04  2880   0.190E-03 0.609E-04
CGA:  21    -0.100534273311E+04   -0.22547E-04   -0.21187E-04  2880   0.267E-03-0.831E-04
CGA:  22    -0.100534275188E+04   -0.18766E-04   -0.10670E-04  2880   0.366E-03-0.230E-03
CGA:  23    -0.100534277097E+04   -0.19092E-04   -0.23666E-04  2880   0.589E-04 0.118E-03
CGA:  24    -0.100534277708E+04   -0.61154E-05   -0.62336E-05  2880   0.162E-04 0.533E-05
   4 F= -.10053428E+04 E0= -.10053262E+04  d E =-.264230E+00  mag=     0.9994
       N       E                     dE             d eps       ncg     rms          ort
SDA:   1    -0.100363980338E+04    0.17030E+01    0.00000E+00  2880   0.160E+02 0.000E+00
CGA:   2    -0.100455567884E+04   -0.91588E+00   -0.89164E+00  2880   0.610E+01-0.515E+01
CGA:   3    -0.100490617257E+04   -0.35049E+00   -0.34440E+00  2880   0.301E+01-0.210E+00
CGA:   4    -0.100523011770E+04   -0.32395E+00   -0.32783E+00  2880   0.208E+01-0.143E+00
CGA:   5    -0.100537132782E+04   -0.14121E+00   -0.13765E+00  2880   0.592E+00-0.489E-01
CGA:   6    -0.100543309286E+04   -0.61765E-01   -0.64076E-01  2880   0.225E+00-0.949E-01
CGA:   7    -0.100546731338E+04   -0.34221E-01   -0.33401E-01  2880   0.396E-01 0.939E-02
CGA:   8    -0.100547196167E+04   -0.46483E-02   -0.46373E-02  2880   0.209E-01 0.141E-02
CGA:   9    -0.100547538607E+04   -0.34244E-02   -0.35924E-02  2880   0.342E-01-0.270E-02
CGA:  10    -0.100547770762E+04   -0.23215E-02   -0.23433E-02  2880   0.421E-02 0.959E-03
CGA:  11    -0.100547799485E+04   -0.28723E-03   -0.31347E-03  2880   0.229E-02 0.869E-03
CGA:  12    -0.100547829713E+04   -0.30228E-03   -0.30192E-03  2880   0.232E-02 0.147E-04
CGA:  13    -0.100547871195E+04   -0.41481E-03   -0.43615E-03  2880   0.158E-02-0.252E-03
CGA:  14    -0.100547879151E+04   -0.79561E-04   -0.85573E-04  2880   0.629E-03 0.126E-03
CGA:  15    -0.100547886631E+04   -0.74806E-04   -0.75878E-04  2880   0.444E-03-0.144E-03
CGA:  16    -0.100547891313E+04   -0.46813E-04   -0.94977E-04  2880   0.118E-02-0.279E-03
CGA:  17    -0.100547893775E+04   -0.24622E-04   -0.44803E-04  2880   0.170E-03 0.266E-03
CGA:  18    -0.100547894280E+04   -0.50493E-05   -0.10410E-04  2880   0.967E-04 0.921E-04
CGA:  19    -0.100547866294E+04    0.27986E-03   -0.15158E-03  2880   0.887E-02-0.613E-03
CGA:  20    -0.100547893970E+04   -0.27676E-03   -0.35499E-03  2880   0.207E-03 0.159E-03
CGA:  21    -0.100547897632E+04   -0.36623E-04   -0.34762E-04  2880   0.997E-04-0.893E-04
CGA:  22    -0.100547898705E+04   -0.10724E-04   -0.12409E-04  2880   0.239E-03-0.513E-04
CGA:  23    -0.100547898452E+04    0.25233E-05   -0.73627E-05  2880   0.199E-04 0.612E-04
   5 F= -.10054790E+04 E0= -.10054627E+04  d E =-.136207E+00  mag=     0.9995
       N       E                     dE             d eps       ncg     rms          ort
SDA:   1    -0.100372024829E+04    0.17587E+01    0.00000E+00  2880   0.152E+02 0.000E+00
CGA:   2    -0.100417725432E+04   -0.45701E+00   -0.12029E+01  2880   0.139E+02-0.775E+01
CGA:   3    -0.100460771783E+04   -0.43046E+00   -0.10697E+01  2880   0.601E+01-0.521E+01
CGA:   4    -0.100522225395E+04   -0.61454E+00   -0.51857E+00  2880   0.277E+01-0.153E+01
CGA:   5    -0.100540663899E+04   -0.18439E+00   -0.19641E+00  2880   0.641E+00-0.699E-01
CGA:   6    -0.100545877160E+04   -0.52133E-01   -0.49540E-01  2880   0.302E+00-0.886E-03
CGA:   7    -0.100551120347E+04   -0.52432E-01   -0.51956E-01  2880   0.249E+00 0.172E-01
CGA:   8    -0.100553199988E+04   -0.20796E-01   -0.20017E-01  2880   0.485E-01-0.177E-02
CGA:   9    -0.100553602086E+04   -0.40210E-02   -0.42261E-02  2880   0.212E-01 0.157E-02
CGA:  10    -0.100553942415E+04   -0.34033E-02   -0.34143E-02  2880   0.248E-01-0.139E-02
CGA:  11    -0.100554148608E+04   -0.20619E-02   -0.21804E-02  2880   0.281E-02 0.153E-02
CGA:  12    -0.100554184392E+04   -0.35784E-03   -0.33776E-03  2880   0.411E-02-0.652E-03
CGA:  13    -0.100554244908E+04   -0.60517E-03   -0.58578E-03  2880   0.677E-03 0.447E-03
CGA:  14    -0.100554248567E+04   -0.36584E-04   -0.53281E-04  2880   0.289E-03 0.224E-03
CGA:  15    -0.100554254716E+04   -0.61497E-04   -0.62020E-04  2880   0.617E-03-0.285E-04
CGA:  16    -0.100554259888E+04   -0.51714E-04   -0.54407E-04  2880   0.450E-03 0.586E-04
CGA:  17    -0.100554262092E+04   -0.22048E-04   -0.26555E-04  2880   0.174E-03 0.515E-04
CGA:  18    -0.100554263794E+04   -0.17016E-04   -0.15785E-04  2880   0.874E-04-0.211E-04
CGA:  19    -0.100554264150E+04   -0.35576E-05   -0.48993E-05  2880   0.586E-04 0.190E-04
   6 F= -.10055426E+04 E0= -.10055268E+04  d E =-.636570E-01  mag=     0.9991
       N       E                     dE             d eps       ncg     rms          ort
SDA:   1    -0.100351460112E+04    0.20280E+01    0.00000E+00  2880   0.123E+02 0.000E+00
CGA:   2    -0.100450774370E+04   -0.99314E+00   -0.76916E+00  2880   0.537E+01-0.563E+01
CGA:   3    -0.100502821378E+04   -0.52047E+00   -0.54188E+00  2880   0.435E+01-0.270E+00
CGA:   4    -0.100541765025E+04   -0.38944E+00   -0.33690E+00  2880   0.771E+00-0.464E-02
CGA:   5    -0.100547287253E+04   -0.55222E-01   -0.62677E-01  2880   0.348E+00 0.252E-02
CGA:   6    -0.100551580525E+04   -0.42933E-01   -0.42970E-01  2880   0.162E+00-0.974E-02
CGA:   7    -0.100553447916E+04   -0.18674E-01   -0.18670E-01  2880   0.102E+00-0.201E-02
CGA:   8    -0.100554149513E+04   -0.70160E-02   -0.68574E-02  2880   0.187E-01 0.190E-02
CGA:   9    -0.100554537717E+04   -0.38820E-02   -0.37995E-02  2880   0.167E-01 0.946E-03
CGA:  10    -0.100554735134E+04   -0.19742E-02   -0.19714E-02  2880   0.947E-02-0.266E-03
CGA:  11    -0.100554812353E+04   -0.77219E-03   -0.75000E-03  2880   0.325E-02-0.569E-03
CGA:  12    -0.100554848778E+04   -0.36425E-03   -0.36489E-03  2880   0.134E-02 0.816E-03
CGA:  13    -0.100554886612E+04   -0.37834E-03   -0.42252E-03  2880   0.245E-02-0.338E-03
CGA:  14    -0.100554895175E+04   -0.85624E-04   -0.98643E-04  2880   0.922E-03 0.172E-03
CGA:  15    -0.100554899833E+04   -0.46582E-04   -0.59734E-04  2880   0.623E-03 0.218E-03
CGA:  16    -0.100554904645E+04   -0.48124E-04   -0.50835E-04  2880   0.261E-03 0.536E-04
CGA:  17    -0.100554900587E+04    0.40583E-04   -0.10776E-03  2880   0.376E-02-0.567E-03
CGA:  18    -0.100554911679E+04   -0.11092E-03   -0.14492E-03  2880   0.248E-03 0.298E-03
CGA:  19    -0.100554912449E+04   -0.76972E-05   -0.15835E-04  2880   0.105E-03 0.124E-03
CGA:  20    -0.100554913246E+04   -0.79676E-05   -0.10308E-04  2880   0.435E-04 0.412E-04
   7 F= -.10055491E+04 E0= -.10055336E+04  d E =-.649096E-02  mag=     0.9995
       N       E                     dE             d eps       ncg     rms          ort
SDA:   1    -0.100483329398E+04    0.71583E+00    0.00000E+00  2880   0.933E+01 0.000E+00
CGA:   2    -0.100516455242E+04   -0.33126E+00   -0.50907E+00  2880   0.307E+01-0.359E+01
CGA:   3    -0.100539864486E+04   -0.23409E+00   -0.23313E+00  2880   0.688E+00 0.864E-01
CGA:   4    -0.100548220497E+04   -0.83560E-01   -0.83574E-01  2880   0.406E+00-0.278E-01
CGA:   5    -0.100552742317E+04   -0.45218E-01   -0.45203E-01  2880   0.364E+00-0.811E-02
CGA:   6    -0.100555808599E+04   -0.30663E-01   -0.30808E-01  2880   0.326E-01 0.792E-02
CGA:   7    -0.100556221631E+04   -0.41303E-02   -0.41599E-02  2880   0.406E-01-0.357E-02
CGA:   8    -0.100556611894E+04   -0.39026E-02   -0.39082E-02  2880   0.147E-01 0.596E-03
CGA:   9    -0.100556751874E+04   -0.13998E-02   -0.14224E-02  2880   0.154E-02 0.112E-02
CGA:  10    -0.100556805478E+04   -0.53603E-03   -0.54348E-03  2880   0.447E-02-0.415E-04
CGA:  11    -0.100556841719E+04   -0.36242E-03   -0.33881E-03  2880   0.120E-02-0.512E-03
CGA:  12    -0.100556845652E+04   -0.39331E-04   -0.63863E-04  2880   0.298E-03 0.394E-03
CGA:  13    -0.100556846628E+04   -0.97595E-05   -0.22307E-04  2880   0.233E-03 0.196E-03
CGA:  14    -0.100556852538E+04   -0.59095E-04    0.16180E-03  2880   0.263E-03 0.619E-04
CGA:  15    -0.100556856032E+04   -0.34945E-04   -0.35824E-04  2880   0.963E-04 0.911E-04
CGA:  16    -0.100556857366E+04   -0.13344E-04   -0.13802E-04  2880   0.469E-04 0.451E-04
CGA:  17    -0.100556858125E+04   -0.75826E-05   -0.77376E-05  2880   0.323E-04 0.429E-04
   8 F= -.10055686E+04 E0= -.10055539E+04  d E =-.194488E-01  mag=     0.9989
       N       E                     dE             d eps       ncg     rms          ort
SDA:   1    -0.100549043309E+04    0.78141E-01    0.00000E+00  2880   0.292E+00 0.000E+00
CGA:   2    -0.100552117502E+04   -0.30742E-01   -0.30529E-01  2880   0.306E+00-0.855E-02
CGA:   3    -0.100555748587E+04   -0.36311E-01   -0.36386E-01  2880   0.152E+00-0.951E-02
CGA:   4    -0.100556972526E+04   -0.12239E-01   -0.12110E-01  2880   0.181E-01 0.505E-02
CGA:   5    -0.100557337986E+04   -0.36546E-02   -0.36220E-02  2880   0.191E-01 0.362E-03
CGA:   6    -0.100557463932E+04   -0.12595E-02   -0.12846E-02  2880   0.374E-02 0.540E-03
CGA:   7    -0.100557516901E+04   -0.52969E-03   -0.58912E-03  2880   0.440E-02-0.161E-02
CGA:   8    -0.100557535105E+04   -0.18204E-03   -0.19629E-03  2880   0.228E-02 0.364E-03
CGA:   9    -0.100557544323E+04   -0.92175E-04   -0.12961E-03  2880   0.721E-03 0.624E-03
CGA:  10    -0.100557548333E+04   -0.40102E-04   -0.51448E-04  2880   0.323E-03 0.204E-03
CGA:  11    -0.100557552467E+04   -0.41344E-04   -0.41645E-04  2880   0.292E-03 0.366E-04
CGA:  12    -0.100557555696E+04   -0.32287E-04   -0.31875E-04  2880   0.315E-03-0.387E-04
CGA:  13    -0.100557556570E+04   -0.87385E-05   -0.59666E-04  2880   0.534E-03-0.461E-03
CGA:  14    -0.100557558495E+04   -0.19250E-04   -0.31909E-04  2880   0.151E-03 0.237E-03
CGA:  15    -0.100557559035E+04   -0.53995E-05   -0.11994E-04  2880   0.877E-04 0.118E-03
CGA:  16    -0.100557561131E+04   -0.20966E-04    0.46261E-04  2880   0.456E-04 0.544E-04
CGA:  17    -0.100557561439E+04   -0.30764E-05   -0.38736E-05  2880   0.275E-04 0.341E-04
CGA:  18    -0.100557562707E+04   -0.12683E-04   -0.13211E-04  2880   0.726E-05-0.140E-05
CGA:  19    -0.100557562661E+04    0.45852E-06   -0.13305E-06  2880   0.508E-05 0.555E-05
   9 F= -.10055756E+04 E0= -.10055607E+04  d E =-.704537E-02  mag=     0.9989
       N       E                     dE             d eps       ncg     rms          ort
SDA:   1    -0.100539643067E+04    0.17920E+00    0.00000E+00  2880   0.505E+00 0.000E+00
CGA:   2    -0.100546957844E+04   -0.73148E-01   -0.73614E-01  2880   0.990E+00-0.149E-01
CGA:   3    -0.100556155637E+04   -0.91978E-01   -0.92261E-01  2880   0.645E-01 0.852E-02
CGA:   4    -0.100557420162E+04   -0.12645E-01   -0.12633E-01  2880   0.732E-01 0.817E-04
CGA:   5    -0.100557832510E+04   -0.41235E-02   -0.40293E-02  2880   0.973E-02-0.161E-02
CGA:   6    -0.100557962858E+04   -0.13035E-02   -0.12783E-02  2880   0.398E-02 0.149E-02
CGA:   7    -0.100558045199E+04   -0.82340E-03   -0.88645E-03  2880   0.214E-02-0.842E-03
CGA:   8    -0.100558061473E+04   -0.16275E-03   -0.16647E-03  2880   0.607E-03 0.170E-03
CGA:   9    -0.100558066516E+04   -0.50431E-04   -0.57810E-04  2880   0.441E-03 0.232E-03
CGA:  10    -0.100558077958E+04   -0.11442E-03   -0.13893E-03  2880   0.363E-03-0.225E-03
CGA:  11    -0.100558079082E+04   -0.11239E-04   -0.19226E-04  2880   0.138E-03 0.112E-03
CGA:  12    -0.100558081539E+04   -0.24565E-04   -0.24567E-04  2880   0.701E-04 0.483E-06
CGA:  13    -0.100558059105E+04    0.22434E-03   -0.12080E-03  2880   0.502E-02-0.431E-03
CGA:  14    -0.100558073687E+04   -0.14582E-03   -0.20227E-03  2880   0.388E-03 0.161E-03
CGA:  15    -0.100558081822E+04   -0.81357E-04   -0.81263E-04  2880   0.193E-03-0.951E-05
CGA:  16    -0.100558085010E+04   -0.31873E-04   -0.23408E-04  2880   0.223E-03-0.993E-04
CGA:  17    -0.100558084658E+04    0.35135E-05   -0.66974E-05  2880   0.183E-04 0.553E-04
  10 F= -.10055808E+04 E0= -.10055658E+04  d E =-.521997E-02  mag=     0.9990
       N       E                     dE             d eps       ncg     rms          ort
SDA:   1    -0.100488680830E+04    0.69404E+00    0.00000E+00  2880   0.183E+01 0.000E+00
CGA:   2    -0.100522084377E+04   -0.33404E+00   -0.33384E+00  2880   0.274E+01-0.112E-01
CGA:   3    -0.100548955424E+04   -0.26871E+00   -0.24679E+00  2880   0.631E+00 0.578E-01
CGA:   4    -0.100554336786E+04   -0.53814E-01   -0.51398E-01  2880   0.141E+00 0.112E-01
CGA:   5    -0.100557258195E+04   -0.29214E-01   -0.29220E-01  2880   0.104E+00-0.812E-03
CGA:   6    -0.100557749688E+04   -0.49149E-02   -0.55357E-02  2880   0.164E-01-0.238E-02
CGA:   7    -0.100558141180E+04   -0.39149E-02   -0.39350E-02  2880   0.115E-01-0.313E-03
CGA:   8    -0.100558198313E+04   -0.57133E-03   -0.62685E-03  2880   0.246E-02 0.377E-03
CGA:   9    -0.100558254746E+04   -0.56433E-03   -0.62719E-03  2880   0.356E-02-0.846E-03
CGA:  10    -0.100558270134E+04   -0.15388E-03   -0.19064E-03  2880   0.170E-02 0.390E-03
CGA:  11    -0.100558279596E+04   -0.94620E-04   -0.12640E-03  2880   0.449E-03 0.356E-03
CGA:  12    -0.100558284798E+04   -0.52016E-04   -0.52679E-04  2880   0.436E-03 0.813E-05
CGA:  13    -0.100558289131E+04   -0.43329E-04   -0.46509E-04  2880   0.389E-03 0.556E-04
CGA:  14    -0.100558295223E+04   -0.60919E-04   -0.59173E-04  2880   0.221E-03-0.726E-04
CGA:  15    -0.100558297228E+04   -0.20051E-04   -0.12385E-04  2880   0.126E-03-0.883E-04
CGA:  16    -0.100558297344E+04   -0.11600E-05   -0.46059E-05  2880   0.941E-04 0.375E-04
  11 F= -.10055830E+04 E0= -.10055681E+04  d E =-.212685E-02  mag=     0.9991
       N       E                     dE             d eps       ncg     rms          ort
SDA:   1    -0.100400133997E+04    0.15816E+01    0.00000E+00  2880   0.703E+01 0.000E+00
CGA:   2    -0.100441663827E+04   -0.41530E+00   -0.54263E+00  2880   0.682E+01-0.121E+01
CGA:   3    -0.100520729774E+04   -0.79066E+00   -0.79062E+00  2880   0.361E+01-0.460E-01
CGA:   4    -0.100546705217E+04   -0.25975E+00   -0.28677E+00  2880   0.567E+00-0.176E+00
CGA:   5    -0.100550767838E+04   -0.40626E-01   -0.40349E-01  2880   0.406E+00-0.969E-02
CGA:   6    -0.100555671977E+04   -0.49041E-01   -0.48957E-01  2880   0.794E-01 0.686E-03
CGA:   7    -0.100556716219E+04   -0.10442E-01   -0.10453E-01  2880   0.321E-01 0.629E-03
CGA:   8    -0.100557060629E+04   -0.34441E-02   -0.35111E-02  2880   0.261E-01 0.239E-02
CGA:   9    -0.100557305341E+04   -0.24471E-02   -0.24664E-02  2880   0.867E-02 0.398E-04
CGA:  10    -0.100557439632E+04   -0.13429E-02   -0.13722E-02  2880   0.493E-02-0.106E-02
CGA:  11    -0.100557483168E+04   -0.43536E-03   -0.42994E-03  2880   0.387E-02-0.218E-03
CGA:  12    -0.100557509313E+04   -0.26145E-03   -0.30043E-03  2880   0.723E-03 0.809E-03
CGA:  13    -0.100557532407E+04   -0.23094E-03   -0.26796E-03  2880   0.188E-02-0.206E-03
CGA:  14    -0.100557540782E+04   -0.83749E-04   -0.73129E-04  2880   0.827E-03-0.139E-03
CGA:  15    -0.100557544002E+04   -0.32199E-04   -0.41996E-04  2880   0.506E-03 0.129E-03
CGA:  16    -0.100557545034E+04   -0.10318E-04   -0.24580E-04  2880   0.224E-03 0.170E-03
CGA:  17    -0.100557546533E+04   -0.14989E-04   -0.18879E-04  2880   0.245E-03 0.634E-04
CGA:  18    -0.100557550422E+04   -0.38896E-04   -0.54587E-04  2880   0.397E-03-0.300E-03
CGA:  19    -0.100557552929E+04   -0.25064E-04   -0.30067E-04  2880   0.887E-04 0.105E-03
CGA:  20    -0.100557553078E+04   -0.14975E-05   -0.52565E-05  2880   0.290E-04 0.511E-04
  12 F= -.10055755E+04 E0= -.10055608E+04  d E =0.744265E-02  mag=     0.9994
       N       E                     dE             d eps       ncg     rms          ort
SDA:   1    -0.100516839337E+04    0.40714E+00    0.00000E+00  2880   0.990E+00 0.000E+00
CGA:   2    -0.100546801090E+04   -0.29962E+00   -0.29302E+00  2880   0.130E+01 0.395E-01
CGA:   3    -0.100554331882E+04   -0.75308E-01   -0.70033E-01  2880   0.156E+00 0.321E-01
CGA:   4    -0.100557572563E+04   -0.32407E-01   -0.32421E-01  2880   0.767E-01-0.490E-03
CGA:   5    -0.100558248441E+04   -0.67588E-02   -0.68434E-02  2880   0.309E-01 0.116E-02
CGA:   6    -0.100558463158E+04   -0.21472E-02   -0.22534E-02  2880   0.133E-01 0.198E-02
CGA:   7    -0.100558706736E+04   -0.24358E-02   -0.25049E-02  2880   0.434E-02-0.132E-02
CGA:   8    -0.100558759264E+04   -0.52528E-03   -0.52177E-03  2880   0.107E-02 0.447E-03
CGA:   9    -0.100558788630E+04   -0.29366E-03   -0.28351E-03  2880   0.944E-03 0.891E-04
CGA:  10    -0.100558799378E+04   -0.10749E-03   -0.99905E-04  2880   0.953E-03-0.233E-03
CGA:  11    -0.100558803526E+04   -0.41478E-04   -0.50007E-04  2880   0.302E-03 0.145E-03
CGA:  12    -0.100558804320E+04   -0.79428E-05   -0.16109E-04  2880   0.195E-03 0.993E-04
CGA:  13    -0.100558808209E+04   -0.38883E-04   -0.37793E-04  2880   0.266E-03 0.468E-04
CGA:  14    -0.100558811274E+04   -0.30650E-04   -0.23664E-04  2880   0.118E-03-0.137E-03
CGA:  15    -0.100558811205E+04    0.68785E-06   -0.38649E-05  2880   0.360E-04 0.510E-04
  13 F= -.10055881E+04 E0= -.10055734E+04  d E =-.125813E-01  mag=     0.9990
       N       E                     dE             d eps       ncg     rms          ort
SDA:   1    -0.100547050952E+04    0.11760E+00    0.00000E+00  2880   0.142E+01 0.000E+00
CGA:   2    -0.100552560953E+04   -0.55100E-01   -0.59830E-01  2880   0.174E+00-0.850E-01
CGA:   3    -0.100557042060E+04   -0.44811E-01   -0.45546E-01  2880   0.174E+00-0.397E-02
CGA:   4    -0.100558079733E+04   -0.10377E-01   -0.10831E-01  2880   0.431E-01 0.395E-02
CGA:   5    -0.100558449790E+04   -0.37006E-02   -0.37705E-02  2880   0.142E-01 0.141E-02
CGA:   6    -0.100558750814E+04   -0.30102E-02   -0.30560E-02  2880   0.566E-02-0.491E-03
CGA:   7    -0.100558807368E+04   -0.56554E-03   -0.55250E-03  2880   0.499E-02-0.850E-03
CGA:   8    -0.100558835568E+04   -0.28200E-03   -0.30293E-03  2880   0.108E-02 0.451E-03
CGA:   9    -0.100558849442E+04   -0.13873E-03   -0.13833E-03  2880   0.115E-02 0.200E-03
CGA:  10    -0.100558862487E+04   -0.13045E-03   -0.12260E-03  2880   0.594E-03-0.320E-03
CGA:  11    -0.100558864839E+04   -0.23520E-04   -0.30995E-04  2880   0.224E-03 0.179E-03
CGA:  12    -0.100558866395E+04   -0.15560E-04   -0.19795E-04  2880   0.150E-03 0.970E-04
CGA:  13    -0.100558860850E+04    0.55451E-04   -0.83201E-04  2880   0.208E-02-0.496E-03
CGA:  14    -0.100558869104E+04   -0.82547E-04   -0.10554E-03  2880   0.440E-03 0.329E-03
CGA:  15    -0.100558872922E+04   -0.38177E-04   -0.38748E-04  2880   0.384E-04 0.147E-04
CGA:  16    -0.100558873173E+04   -0.25043E-05   -0.31915E-05  2880   0.217E-04 0.184E-04
  14 F= -.10055887E+04 E0= -.10055740E+04  d E =-.619675E-03  mag=     0.9991
       N       E                     dE             d eps       ncg     rms          ort
SDA:   1    -0.100555764579E+04    0.31083E-01    0.00000E+00  2880   0.262E+00 0.000E+00
CGA:   2    -0.100556950390E+04   -0.11858E-01   -0.11889E-01  2880   0.607E-01-0.601E-02
CGA:   3    -0.100558417654E+04   -0.14673E-01   -0.14233E-01  2880   0.408E-01 0.330E-02
CGA:   4    -0.100558873813E+04   -0.45616E-02   -0.45447E-02  2880   0.100E-01-0.292E-02
CGA:   5    -0.100558940374E+04   -0.66561E-03   -0.70627E-03  2880   0.570E-02 0.928E-03
CGA:   6    -0.100559006407E+04   -0.66033E-03   -0.66315E-03  2880   0.151E-02 0.407E-03
CGA:   7    -0.100559035787E+04   -0.29380E-03   -0.32724E-03  2880   0.103E-02-0.376E-03
CGA:   8    -0.100559043041E+04   -0.72537E-04   -0.73733E-04  2880   0.437E-03 0.495E-04
CGA:   9    -0.100559043769E+04   -0.72770E-05   -0.20222E-04  2880   0.125E-03 0.180E-03
CGA:  10    -0.100559044448E+04   -0.67957E-05   -0.10852E-04  2880   0.123E-03 0.790E-04
CGA:  11    -0.100559047872E+04   -0.34238E-04    0.25837E-04  2880   0.211E-03-0.362E-04
CGA:  12    -0.100559049982E+04   -0.21102E-04   -0.27247E-04  2880   0.183E-03-0.846E-04
CGA:  13    -0.100559049685E+04    0.29711E-05   -0.25786E-05  2880   0.116E-03 0.616E-04
  15 F= -.10055905E+04 E0= -.10055758E+04  d E =-.176513E-02  mag=     0.9990
       N       E                     dE             d eps       ncg     rms          ort
SDA:   1    -0.100554011910E+04    0.50381E-01    0.00000E+00  2880   0.123E+00 0.000E+00
CGA:   2    -0.100557096803E+04   -0.30849E-01   -0.31511E-01  2880   0.283E+00-0.480E-02
CGA:   3    -0.100558554835E+04   -0.14580E-01   -0.14972E-01  2880   0.188E-01 0.192E-02
CGA:   4    -0.100558897852E+04   -0.34302E-02   -0.33746E-02  2880   0.193E-01 0.816E-03
CGA:   5    -0.100559016548E+04   -0.11870E-02   -0.11505E-02  2880   0.381E-02-0.793E-03
CGA:   6    -0.100559052982E+04   -0.36433E-03   -0.36900E-03  2880   0.105E-02 0.536E-03
CGA:   7    -0.100559071039E+04   -0.18057E-03   -0.46980E-03  2880   0.219E-02-0.102E-02
CGA:   8    -0.100559082376E+04   -0.11337E-03   -0.14801E-03  2880   0.418E-03 0.644E-03
CGA:   9    -0.100559086175E+04   -0.37995E-04   -0.43701E-04  2880   0.187E-03 0.142E-03
CGA:  10    -0.100559089312E+04   -0.31365E-04   -0.31291E-04  2880   0.853E-04 0.129E-04
CGA:  11    -0.100559092115E+04   -0.28025E-04    0.18937E-04  2880   0.557E-04-0.873E-05
CGA:  12    -0.100559092172E+04   -0.57663E-06   -0.22801E-05  2880   0.282E-04 0.231E-04
  16 F= -.10055909E+04 E0= -.10055762E+04  d E =-.424870E-03  mag=     0.9990
       N       E                     dE             d eps       ncg     rms          ort
SDA:   1    -0.100479247313E+04    0.79845E+00    0.00000E+00  2880   0.208E+01 0.000E+00
CGA:   2    -0.100525022327E+04   -0.45775E+00   -0.43296E+00  2880   0.227E+01 0.234E+00
CGA:   3    -0.100545593525E+04   -0.20571E+00   -0.21073E+00  2880   0.130E+01-0.874E-02
CGA:   4    -0.100553831057E+04   -0.82375E-01   -0.78278E-01  2880   0.163E+00 0.416E-01
CGA:   5    -0.100557227575E+04   -0.33965E-01   -0.34156E-01  2880   0.152E+00-0.235E-02
CGA:   6    -0.100558080464E+04   -0.85289E-02   -0.84868E-02  2880   0.408E-01-0.259E-02
CGA:   7    -0.100558430426E+04   -0.34996E-02   -0.35451E-02  2880   0.104E-01 0.316E-02
CGA:   8    -0.100558689146E+04   -0.25872E-02   -0.25985E-02  2880   0.109E-01-0.115E-03
CGA:   9    -0.100558754996E+04   -0.65849E-03   -0.60141E-03  2880   0.269E-02-0.941E-03
CGA:  10    -0.100558787987E+04   -0.32991E-03   -0.32294E-03  2880   0.113E-02 0.428E-03
CGA:  11    -0.100558822256E+04   -0.34270E-03   -0.37715E-03  2880   0.984E-03-0.201E-03
CGA:  12    -0.100558827900E+04   -0.56430E-04   -0.55921E-04  2880   0.491E-03-0.183E-04
CGA:  13    -0.100558829645E+04   -0.17458E-04   -0.29657E-04  2880   0.232E-03 0.204E-03
CGA:  14    -0.100558831913E+04   -0.22677E-04   -0.26857E-04  2880   0.265E-03 0.113E-03
CGA:  15    -0.100558835154E+04   -0.32414E-04   -0.10636E-03  2880   0.528E-03-0.483E-03
CGA:  16    -0.100558836042E+04   -0.88806E-05   -0.25762E-04  2880   0.202E-03 0.222E-03
CGA:  17    -0.100558837137E+04   -0.10949E-04   -0.18753E-04  2880   0.111E-03 0.141E-03
CGA:  18    -0.100558840437E+04   -0.32995E-04    0.24679E-04  2880   0.148E-03-0.751E-05
CGA:  19    -0.100558841392E+04   -0.95558E-05   -0.10783E-04  2880   0.306E-04 0.304E-04
  17 F= -.10055884E+04 E0= -.10055737E+04  d E =0.250780E-02  mag=     0.9992
       N       E                     dE             d eps       ncg     rms          ort
SDA:   1    -0.100504941644E+04    0.53899E+00    0.00000E+00  2880   0.141E+01 0.000E+00
CGA:   2    -0.100530521871E+04   -0.25580E+00   -0.24765E+00  2880   0.226E+01 0.113E+00
CGA:   3    -0.100549507921E+04   -0.18986E+00   -0.19474E+00  2880   0.777E+00 0.571E-02
CGA:   4    -0.100555647952E+04   -0.61400E-01   -0.64992E-01  2880   0.112E+00 0.101E-01
CGA:   5    -0.100557500155E+04   -0.18522E-01   -0.18282E-01  2880   0.133E+00 0.376E-02
CGA:   6    -0.100558233328E+04   -0.73317E-02   -0.77174E-02  2880   0.205E-01 0.179E-02
CGA:   7    -0.100558536263E+04   -0.30294E-02   -0.31182E-02  2880   0.121E-01-0.248E-02
CGA:   8    -0.100558674105E+04   -0.13784E-02   -0.13701E-02  2880   0.909E-02 0.436E-03
CGA:   9    -0.100558713677E+04   -0.39572E-03   -0.47140E-03  2880   0.115E-02 0.114E-02
CGA:  10    -0.100558742646E+04   -0.28968E-03   -0.27671E-03  2880   0.222E-02 0.124E-03
CGA:  11    -0.100558763438E+04   -0.20792E-03   -0.19122E-03  2880   0.938E-03-0.452E-03
CGA:  12    -0.100558768537E+04   -0.50992E-04   -0.58256E-04  2880   0.229E-03 0.203E-03
CGA:  13    -0.100558770442E+04   -0.19050E-04   -0.22675E-04  2880   0.214E-03 0.119E-03
CGA:  14    -0.100558751096E+04    0.19346E-03   -0.98443E-04  2880   0.958E-02-0.845E-03
CGA:  15    -0.100558778168E+04   -0.27072E-03   -0.33645E-03  2880   0.118E-03 0.453E-03
CGA:  16    -0.100558778061E+04    0.10672E-05   -0.45573E-05  2880   0.478E-04 0.652E-04
  18 F= -.10055878E+04 E0= -.10055730E+04  d E =0.633312E-03  mag=     0.9986
       N       E                     dE             d eps       ncg     rms          ort
SDA:   1    -0.100519159692E+04    0.39618E+00    0.00000E+00  2880   0.923E+00 0.000E+00
CGA:   2    -0.100552725676E+04   -0.33566E+00   -0.33611E+00  2880   0.368E+00-0.185E-02
CGA:   3    -0.100555204857E+04   -0.24792E-01   -0.25810E-01  2880   0.237E+00-0.153E-02
CGA:   4    -0.100558247163E+04   -0.30423E-01   -0.30418E-01  2880   0.465E-01-0.390E-03
CGA:   5    -0.100558826678E+04   -0.57951E-02   -0.57963E-02  2880   0.156E-01 0.143E-03
CGA:   6    -0.100559051643E+04   -0.22496E-02   -0.22321E-02  2880   0.799E-02 0.953E-03
CGA:   7    -0.100559115831E+04   -0.64189E-03   -0.66812E-03  2880   0.428E-02 0.495E-03
CGA:   8    -0.100559177074E+04   -0.61242E-03   -0.62993E-03  2880   0.285E-02-0.132E-02
CGA:   9    -0.100559194550E+04   -0.17476E-03   -0.18893E-03  2880   0.134E-02 0.479E-03
CGA:  10    -0.100559205956E+04   -0.11406E-03   -0.12892E-03  2880   0.341E-03 0.367E-03
CGA:  11    -0.100559215574E+04   -0.96183E-04   -0.95612E-04  2880   0.417E-03 0.703E-05
CGA:  12    -0.100559220049E+04   -0.44754E-04   -0.44732E-04  2880   0.315E-03-0.204E-05
CGA:  13    -0.100559223931E+04   -0.38816E-04   -0.52312E-04  2880   0.533E-03-0.329E-03
CGA:  14    -0.100559224520E+04   -0.58862E-05   -0.21470E-04  2880   0.151E-03 0.179E-03
CGA:  15    -0.100559224798E+04   -0.27831E-05   -0.10043E-04  2880   0.911E-04 0.101E-03
CGA:  16    -0.100559218093E+04    0.67049E-04   -0.38871E-04  2880   0.349E-02-0.349E-03
CGA:  17    -0.100559226601E+04   -0.85077E-04   -0.11946E-03  2880   0.476E-04 0.285E-03
CGA:  18    -0.100559226652E+04   -0.51266E-06   -0.20116E-05  2880   0.157E-04 0.163E-04
  19 F= -.10055923E+04 E0= -.10055774E+04  d E =-.448591E-02  mag=     0.9990
       N       E                     dE             d eps       ncg     rms          ort
SDA:   1    -0.100550613332E+04    0.86133E-01    0.00000E+00  2880   0.438E+00 0.000E+00
CGA:   2    -0.100553654199E+04   -0.30409E-01   -0.29009E-01  2880   0.196E+00 0.898E-02
CGA:   3    -0.100556880357E+04   -0.32262E-01   -0.32188E-01  2880   0.183E+00-0.801E-03
CGA:   4    -0.100558649363E+04   -0.17690E-01   -0.17679E-01  2880   0.256E-01 0.378E-02
CGA:   5    -0.100558876948E+04   -0.22759E-02   -0.22707E-02  2880   0.198E-01-0.615E-03
CGA:   6    -0.100559143175E+04   -0.26623E-02   -0.26488E-02  2880   0.571E-02 0.817E-03
CGA:   7    -0.100559203958E+04   -0.60783E-03   -0.58433E-03  2880   0.264E-02-0.113E-02
CGA:   8    -0.100559219056E+04   -0.15099E-03   -0.16837E-03  2880   0.128E-02 0.413E-03
CGA:   9    -0.100559232582E+04   -0.13526E-03   -0.14193E-03  2880   0.390E-03 0.291E-03
CGA:  10    -0.100559165734E+04    0.66848E-03   -0.36838E-03  2880   0.161E-01-0.157E-02
CGA:  11    -0.100559218762E+04   -0.53028E-03   -0.66604E-03  2880   0.162E-02 0.223E-03
CGA:  12    -0.100559237984E+04   -0.19222E-03   -0.20354E-03  2880   0.432E-03 0.185E-03
CGA:  13    -0.100559247923E+04   -0.99390E-04   -0.16149E-03  2880   0.183E-02-0.465E-03
CGA:  14    -0.100559251030E+04   -0.31077E-04   -0.75277E-04  2880   0.213E-03 0.247E-03
CGA:  15    -0.100559251188E+04   -0.15799E-05   -0.13260E-04  2880   0.678E-04 0.815E-04
  20 F= -.10055925E+04 E0= -.10055777E+04  d E =-.245364E-03  mag=     0.9991
       N       E                     dE             d eps       ncg     rms          ort
SDA:   1    -0.100552565246E+04    0.66858E-01    0.00000E+00  2880   0.323E+00 0.000E+00
CGA:   2    -0.100554600272E+04   -0.20350E-01   -0.22493E-01  2880   0.228E+00-0.267E-01
CGA:   3    -0.100557267806E+04   -0.26675E-01   -0.26525E-01  2880   0.154E+00 0.321E-02
CGA:   4    -0.100558931819E+04   -0.16640E-01   -0.17131E-01  2880   0.247E-01-0.360E-02
CGA:   5    -0.100559097341E+04   -0.16552E-02   -0.15977E-02  2880   0.149E-01-0.828E-03
CGA:   6    -0.100559261146E+04   -0.16380E-02   -0.16969E-02  2880   0.405E-02 0.124E-02
CGA:   7    -0.100559320717E+04   -0.59570E-03   -0.58072E-03  2880   0.249E-02-0.463E-03
CGA:   8    -0.100559340812E+04   -0.20095E-03   -0.17210E-03  2880   0.167E-02-0.341E-03
CGA:   9    -0.100559349472E+04   -0.86601E-04   -0.11464E-03  2880   0.307E-03 0.353E-03
CGA:  10    -0.100559350186E+04   -0.71468E-05   -0.18777E-04  2880   0.182E-03 0.107E-03
CGA:  11    -0.100559355778E+04   -0.55918E-04   -0.59787E-04  2880   0.305E-03-0.423E-04
CGA:  12    -0.100559357731E+04   -0.19526E-04   -0.11447E-04  2880   0.115E-03-0.771E-04
CGA:  13    -0.100559358034E+04   -0.30328E-05   -0.48673E-05  2880   0.909E-04 0.195E-04
  21 F= -.10055936E+04 E0= -.10055788E+04  d E =-.106846E-02  mag=     0.9990
