       N       E                     dE             d eps       ncg     rms          ort
DAV:   1     0.286960466252E+04    0.28696E+04   -0.29220E+05  2880   0.140E+03
DAV:   2    -0.956360996924E+03   -0.38260E+04   -0.36882E+04  2880   0.313E+02
DAV:   3    -0.122243990220E+04   -0.26608E+03   -0.26437E+03  2880   0.861E+01
DAV:   4    -0.122563473075E+04   -0.31948E+01   -0.31834E+01  2880   0.100E+01
DAV:   5    -0.122568874335E+04   -0.54013E-01   -0.53896E-01  2880   0.120E+00
SDA:   6    -0.862878619034E+03    0.36281E+03   -0.53896E-01  2880   0.624E+03 0.000E+00
CGA:   7    -0.976118032573E+03   -0.11324E+03   -0.11303E+03  2880   0.438E+02-0.263E+01
CGA:   8    -0.989207371097E+03   -0.13089E+02   -0.13060E+02  2880   0.106E+02 0.239E+00
CGA:   9    -0.993076882413E+03   -0.38695E+01   -0.38708E+01  2880   0.405E+01-0.131E-01
CGA:  10    -0.994366198706E+03   -0.12893E+01   -0.12932E+01  2880   0.891E+00-0.338E-01
CGA:  11    -0.994704503584E+03   -0.33830E+00   -0.33845E+00  2880   0.195E+00-0.810E-03
CGA:  12    -0.994771708156E+03   -0.67205E-01   -0.67172E-01  2880   0.442E-01 0.243E-03
CGA:  13    -0.994788397317E+03   -0.16689E-01   -0.16816E-01  2880   0.102E-01-0.872E-03
CGA:  14    -0.994792237292E+03   -0.38400E-02   -0.37653E-02  2880   0.225E-02 0.544E-03
CGA:  15    -0.994793218280E+03   -0.98099E-03   -0.95037E-03  2880   0.560E-03 0.195E-03
CGA:  16    -0.994793507013E+03   -0.28873E-03   -0.39327E-03  2880   0.423E-03-0.267E-03
CGA:  17    -0.994793573084E+03   -0.66071E-04   -0.66051E-04  2880   0.173E-03 0.263E-06
CGA:  18    -0.994793603977E+03   -0.30893E-04   -0.34474E-04  2880   0.698E-04 0.472E-04
CGA:  19    -0.994793618412E+03   -0.14435E-04   -0.17093E-04  2880   0.366E-04 0.340E-04
CGA:  20    -0.994793629094E+03   -0.10683E-04   -0.11565E-04  2880   0.165E-04 0.162E-04
CGA:  21    -0.994793636641E+03   -0.75468E-05   -0.77048E-05  2880   0.856E-05-0.261E-05
   1 F= -.99479364E+03 E0= -.99479364E+03  d E =-.994794E+03  mag=    -0.0000
       N       E                     dE             d eps       ncg     rms          ort
SDA:   1    -0.994794377024E+03   -0.74793E-03    0.00000E+00  2880   0.116E-04 0.000E+00
CGA:   2    -0.994794379645E+03   -0.26213E-05   -0.26886E-05  2880   0.305E-05 0.193E-05
CGA:   3    -0.994794380411E+03   -0.76582E-06   -0.22804E-05  2880   0.588E-05-0.402E-05
CGA:   4    -0.994794381304E+03   -0.89355E-06   -0.10132E-05  2880   0.874E-06 0.108E-05
   2 F= -.99479438E+03 E0= -.99479438E+03  d E =-.744663E-03  mag=    -0.0000
       N       E                     dE             d eps       ncg     rms          ort
SDA:   1    -0.994808323514E+03   -0.13943E-01    0.00000E+00  2880   0.176E-02 0.000E+00
CGA:   2    -0.994808942796E+03   -0.61928E-03   -0.61758E-03  2880   0.431E-03 0.242E-04
CGA:   3    -0.994809055759E+03   -0.11296E-03   -0.11276E-03  2880   0.716E-04-0.786E-05
CGA:   4    -0.994809076615E+03   -0.20856E-04   -0.20900E-04  2880   0.128E-04-0.311E-05
CGA:   5    -0.994809080206E+03   -0.35909E-05   -0.35831E-05  2880   0.278E-05 0.940E-06
   3 F= -.99480908E+03 E0= -.99480908E+03  d E =-.146989E-01  mag=    -0.0000
       N       E                     dE             d eps       ncg     rms          ort
SDA:   1    -0.994849965135E+03   -0.40889E-01    0.00000E+00  2880   0.230E-01 0.000E+00
CGA:   2    -0.994858146335E+03   -0.81812E-02   -0.81761E-02  2880   0.577E-02 0.740E-04
CGA:   3    -0.994859596780E+03   -0.14504E-02   -0.14495E-02  2880   0.907E-03-0.249E-04
CGA:   4    -0.994859860179E+03   -0.26340E-03   -0.26343E-03  2880   0.155E-03-0.853E-05
CGA:   5    -0.994859909622E+03   -0.49443E-04   -0.49395E-04  2880   0.395E-04 0.137E-05
CGA:   6    -0.994859923717E+03   -0.14096E-04   -0.14015E-04  2880   0.106E-04 0.131E-05
CGA:   7    -0.994859928344E+03   -0.46266E-05   -0.48002E-05  2880   0.363E-05-0.119E-05
   4 F= -.99485993E+03 E0= -.99485993E+03  d E =-.508481E-01  mag=    -0.0000
       N       E                     dE             d eps       ncg     rms          ort
SDA:   1    -0.994912306339E+03   -0.52383E-01    0.00000E+00  2880   0.117E+00 0.000E+00
CGA:   2    -0.994954148647E+03   -0.41842E-01   -0.41836E-01  2880   0.293E-01 0.135E-03
CGA:   3    -0.994961433651E+03   -0.72850E-02   -0.72819E-02  2880   0.456E-02-0.524E-04
CGA:   4    -0.994962733390E+03   -0.12997E-02   -0.12994E-02  2880   0.753E-03-0.161E-04
CGA:   5    -0.994962978478E+03   -0.24509E-03   -0.24505E-03  2880   0.194E-03 0.149E-05
CGA:   6    -0.994963047825E+03   -0.69347E-04   -0.69223E-04  2880   0.532E-04 0.245E-05
CGA:   7    -0.994963069417E+03   -0.21592E-04   -0.21765E-04  2880   0.150E-04-0.179E-05
CGA:   8    -0.994963075095E+03   -0.56778E-05   -0.58270E-05  2880   0.353E-05-0.167E-05
   5 F= -.99496308E+03 E0= -.99496308E+03  d E =-.103147E+00  mag=    -0.0000
       N       E                     dE             d eps       ncg     rms          ort
SDA:   1    -0.994995839690E+03   -0.32770E-01    0.00000E+00  2880   0.154E+00 0.000E+00
CGA:   2    -0.995051708462E+03   -0.55869E-01   -0.55864E-01  2880   0.370E-01 0.105E-03
CGA:   3    -0.995060882133E+03   -0.91737E-02   -0.91704E-02  2880   0.579E-02-0.470E-04
CGA:   4    -0.995062478094E+03   -0.15960E-02   -0.15954E-02  2880   0.906E-03-0.141E-04
CGA:   5    -0.995062775990E+03   -0.29790E-03   -0.29793E-03  2880   0.227E-03-0.206E-05
CGA:   6    -0.995062856548E+03   -0.80557E-04   -0.80431E-04  2880   0.624E-04 0.311E-05
CGA:   7    -0.995062881674E+03   -0.25126E-04   -0.25228E-04  2880   0.175E-04-0.124E-05
CGA:   8    -0.995062888452E+03   -0.67778E-05   -0.69477E-05  2880   0.410E-05-0.202E-05
   6 F= -.99506289E+03 E0= -.99506289E+03  d E =-.998134E-01  mag=    -0.0000
       N       E                     dE             d eps       ncg     rms          ort
SDA:   1    -0.994984642051E+03    0.78240E-01    0.00000E+00  2880   0.489E+00 0.000E+00
CGA:   2    -0.995166385972E+03   -0.18174E+00   -0.18173E+00  2880   0.108E+00 0.978E-04
CGA:   3    -0.995193346659E+03   -0.26961E-01   -0.26960E-01  2880   0.167E-01-0.269E-04
CGA:   4    -0.995197703297E+03   -0.43566E-02   -0.43556E-02  2880   0.247E-02-0.137E-04
CGA:   5    -0.995198514071E+03   -0.81077E-03   -0.81085E-03  2880   0.569E-03-0.110E-04
CGA:   6    -0.995198721102E+03   -0.20703E-03   -0.20665E-03  2880   0.164E-03 0.873E-05
CGA:   7    -0.995198787841E+03   -0.66739E-04   -0.66925E-04  2880   0.470E-04-0.235E-05
CGA:   8    -0.995198805218E+03   -0.17377E-04   -0.17502E-04  2880   0.911E-05-0.251E-05
CGA:   9    -0.995198808519E+03   -0.33008E-05   -0.33259E-05  2880   0.173E-05-0.456E-06
   7 F= -.99519881E+03 E0= -.99519881E+03  d E =-.135920E+00  mag=     0.0000
       N       E                     dE             d eps       ncg     rms          ort
SDA:   1    -0.994484713493E+03    0.71409E+00    0.00000E+00  2880   0.204E+01 0.000E+00
CGA:   2    -0.995246555081E+03   -0.76184E+00   -0.76178E+00  2880   0.428E+00 0.661E-03
CGA:   3    -0.995354564181E+03   -0.10801E+00   -0.10801E+00  2880   0.633E-01 0.534E-04
CGA:   4    -0.995370972052E+03   -0.16408E-01   -0.16407E-01  2880   0.951E-02-0.513E-05
CGA:   5    -0.995374044211E+03   -0.30722E-02   -0.30720E-02  2880   0.216E-02-0.190E-04
CGA:   6    -0.995374854114E+03   -0.80990E-03   -0.80894E-03  2880   0.689E-03 0.216E-04
CGA:   7    -0.995375133774E+03   -0.27966E-03   -0.28001E-03  2880   0.199E-03-0.495E-05
CGA:   8    -0.995375205717E+03   -0.71943E-04   -0.72015E-04  2880   0.339E-04-0.259E-05
CGA:   9    -0.995375219009E+03   -0.13292E-04   -0.13514E-04  2880   0.679E-05-0.339E-05
CGA:  10    -0.995375220971E+03   -0.19627E-05   -0.19745E-05  2880   0.111E-05 0.637E-06
   8 F= -.99537522E+03 E0= -.99537522E+03  d E =-.176412E+00  mag=    -0.0000
       N       E                     dE             d eps       ncg     rms          ort
SDA:   1    -0.993615799065E+03    0.17594E+01    0.00000E+00  2880   0.446E+01 0.000E+00
CGA:   2    -0.995260279645E+03   -0.16445E+01   -0.16445E+01  2880   0.917E+00-0.107E-02
CGA:   3    -0.995491937467E+03   -0.23166E+00   -0.23175E+00  2880   0.135E+00 0.153E-03
CGA:   4    -0.995526604543E+03   -0.34667E-01   -0.34664E-01  2880   0.197E-01-0.116E-04
CGA:   5    -0.995532888125E+03   -0.62836E-02   -0.62835E-02  2880   0.410E-02-0.561E-05
CGA:   6    -0.995534436308E+03   -0.15482E-02   -0.15468E-02  2880   0.132E-02 0.302E-04
CGA:   7    -0.995534974403E+03   -0.53810E-03   -0.53813E-03  2880   0.392E-03-0.401E-06
CGA:   8    -0.995535122095E+03   -0.14769E-03   -0.14805E-03  2880   0.711E-04-0.897E-05
CGA:   9    -0.995535148656E+03   -0.26562E-04   -0.26729E-04  2880   0.121E-04-0.369E-05
CGA:  10    -0.995535152844E+03   -0.41880E-05   -0.41842E-05  2880   0.203E-05 0.165E-06
   9 F= -.99553515E+03 E0= -.99553515E+03  d E =-.159932E+00  mag=     0.0000
       N       E                     dE             d eps       ncg     rms          ort
SDA:   1    -0.993036589921E+03    0.24986E+01    0.00000E+00  2880   0.603E+01 0.000E+00
CGA:   2    -0.995209454023E+03   -0.21729E+01   -0.21728E+01  2880   0.130E+01 0.707E-05
CGA:   3    -0.995533135511E+03   -0.32368E+00   -0.32383E+00  2880   0.196E+00 0.313E-04
CGA:   4    -0.995584631253E+03   -0.51496E-01   -0.51497E-01  2880   0.284E-01-0.155E-04
CGA:   5    -0.995593671092E+03   -0.90398E-02   -0.90393E-02  2880   0.596E-02-0.216E-04
CGA:   6    -0.995595971745E+03   -0.23007E-02   -0.23008E-02  2880   0.196E-02-0.323E-05
CGA:   7    -0.995596742188E+03   -0.77044E-03   -0.76963E-03  2880   0.577E-03 0.165E-04
CGA:   8    -0.995596967298E+03   -0.22511E-03   -0.22570E-03  2880   0.108E-03-0.135E-04
CGA:   9    -0.995597008112E+03   -0.40814E-04   -0.41189E-04  2880   0.205E-04-0.841E-05
CGA:  10    -0.995597013914E+03   -0.58025E-05   -0.58876E-05  2880   0.300E-05 0.230E-05
  10 F= -.99559701E+03 E0= -.99559701E+03  d E =-.618611E-01  mag=    -0.0000
       N       E                     dE             d eps       ncg     rms          ort
SDA:   1    -0.995203293065E+03    0.39372E+00    0.00000E+00  2880   0.102E+01 0.000E+00
CGA:   2    -0.995565744877E+03   -0.36245E+00   -0.36246E+00  2880   0.253E+00-0.121E-02
CGA:   3    -0.995629352690E+03   -0.63608E-01   -0.63638E-01  2880   0.369E-01-0.208E-04
CGA:   4    -0.995640495986E+03   -0.11143E-01   -0.11147E-01  2880   0.629E-02 0.967E-04
CGA:   5    -0.995642588016E+03   -0.20920E-02   -0.20924E-02  2880   0.170E-02 0.262E-04
CGA:   6    -0.995643233616E+03   -0.64560E-03   -0.64592E-03  2880   0.539E-03-0.958E-05
CGA:   7    -0.995643434219E+03   -0.20060E-03   -0.20046E-03  2880   0.138E-03 0.542E-05
CGA:   8    -0.995643486719E+03   -0.52499E-04   -0.52616E-04  2880   0.288E-04-0.398E-05
CGA:   9    -0.995643495561E+03   -0.88424E-05   -0.89169E-05  2880   0.482E-05 0.244E-05
  11 F= -.99564350E+03 E0= -.99564350E+03  d E =-.464816E-01  mag=     0.0000
       N       E                     dE             d eps       ncg     rms          ort
SDA:   1    -0.995641786499E+03    0.17002E-02    0.00000E+00  2880   0.158E-01 0.000E+00
CGA:   2    -0.995647365302E+03   -0.55788E-02   -0.55788E-02  2880   0.384E-02 0.161E-04
CGA:   3    -0.995648327626E+03   -0.96232E-03   -0.96338E-03  2880   0.557E-03 0.104E-04
CGA:   4    -0.995648494166E+03   -0.16654E-03   -0.16572E-03  2880   0.964E-04-0.164E-04
CGA:   5    -0.995648524835E+03   -0.30670E-04   -0.30634E-04  2880   0.235E-04-0.214E-05
CGA:   6    -0.995648532250E+03   -0.74153E-05   -0.74647E-05  2880   0.607E-05 0.263E-05
  12 F= -.99564853E+03 E0= -.99564853E+03  d E =-.503669E-02  mag=     0.0000
       N       E                     dE             d eps       ncg     rms          ort
SDA:   1    -0.995617234160E+03    0.31291E-01    0.00000E+00  2880   0.106E+00 0.000E+00
CGA:   2    -0.995654983275E+03   -0.37749E-01   -0.37748E-01  2880   0.223E-01 0.628E-04
CGA:   3    -0.995660691220E+03   -0.57079E-02   -0.57083E-02  2880   0.328E-02 0.603E-05
CGA:   4    -0.995661559518E+03   -0.86830E-03   -0.86606E-03  2880   0.486E-03-0.282E-04
CGA:   5    -0.995661711578E+03   -0.15206E-03   -0.15201E-03  2880   0.983E-04-0.199E-05
CGA:   6    -0.995661746716E+03   -0.35139E-04   -0.35045E-04  2880   0.288E-04 0.487E-05
CGA:   7    -0.995661759855E+03   -0.13139E-04   -0.13360E-04  2880   0.111E-04-0.215E-05
CGA:   8    -0.995661763192E+03   -0.33371E-05   -0.33516E-05  2880   0.182E-05 0.778E-06
  13 F= -.99566176E+03 E0= -.99566176E+03  d E =-.132309E-01  mag=     0.0000
       N       E                     dE             d eps       ncg     rms          ort
SDA:   1    -0.995661086999E+03    0.67286E-03    0.00000E+00  2880   0.135E-01 0.000E+00
CGA:   2    -0.995665950789E+03   -0.48638E-02   -0.48635E-02  2880   0.263E-02 0.200E-04
CGA:   3    -0.995666639974E+03   -0.68919E-03   -0.68882E-03  2880   0.388E-03-0.431E-05
CGA:   4    -0.995666737554E+03   -0.97580E-04   -0.97774E-04  2880   0.540E-04 0.212E-05
CGA:   5    -0.995666754364E+03   -0.16809E-04   -0.16830E-04  2880   0.102E-04 0.711E-06
CGA:   6    -0.995666758288E+03   -0.39239E-05   -0.39088E-05  2880   0.307E-05 0.371E-06
  14 F= -.99566676E+03 E0= -.99566676E+03  d E =-.499510E-02  mag=     0.0000
       N       E                     dE             d eps       ncg     rms          ort
SDA:   1    -0.995111049287E+03    0.55571E+00    0.00000E+00  2880   0.143E+01 0.000E+00
CGA:   2    -0.995626170577E+03   -0.51512E+00   -0.51513E+00  2880   0.276E+00-0.343E-03
CGA:   3    -0.995698348321E+03   -0.72178E-01   -0.72179E-01  2880   0.403E-01-0.479E-04
CGA:   4    -0.995708486719E+03   -0.10138E-01   -0.10141E-01  2880   0.567E-02 0.263E-04
CGA:   5    -0.995710241519E+03   -0.17548E-02   -0.17548E-02  2880   0.105E-02 0.181E-06
CGA:   6    -0.995710646536E+03   -0.40502E-03   -0.40487E-03  2880   0.326E-03 0.280E-05
CGA:   7    -0.995710781512E+03   -0.13498E-03   -0.13469E-03  2880   0.101E-03 0.375E-05
CGA:   8    -0.995710821268E+03   -0.39755E-04   -0.39945E-04  2880   0.195E-04-0.355E-05
CGA:   9    -0.995710827722E+03   -0.64543E-05   -0.64525E-05  2880   0.265E-05 0.883E-06
  15 F= -.99571083E+03 E0= -.99571083E+03  d E =-.440694E-01  mag=     0.0000
       N       E                     dE             d eps       ncg     rms          ort
SDA:   1    -0.994443875884E+03    0.12669E+01    0.00000E+00  2880   0.298E+01 0.000E+00
CGA:   2    -0.995512582320E+03   -0.10687E+01   -0.10687E+01  2880   0.641E+00 0.502E-04
CGA:   3    -0.995676440020E+03   -0.16386E+00   -0.16386E+00  2880   0.953E-01 0.372E-04
CGA:   4    -0.995701751899E+03   -0.25312E-01   -0.25319E-01  2880   0.144E-01 0.766E-04
CGA:   5    -0.995706379642E+03   -0.46277E-02   -0.46270E-02  2880   0.310E-02-0.358E-04
CGA:   6    -0.995707554818E+03   -0.11752E-02   -0.11754E-02  2880   0.995E-03-0.452E-05
CGA:   7    -0.995707939346E+03   -0.38453E-03   -0.38398E-03  2880   0.285E-03 0.127E-04
CGA:   8    -0.995708048720E+03   -0.10937E-03   -0.10946E-03  2880   0.544E-04-0.256E-05
CGA:   9    -0.995708069624E+03   -0.20904E-04   -0.21036E-04  2880   0.107E-04-0.303E-05
CGA:  10    -0.995708073001E+03   -0.33775E-05   -0.33876E-05  2880   0.167E-05 0.804E-06
  16 F= -.99570807E+03 E0= -.99570807E+03  d E =0.275472E-02  mag=    -0.0000
       N       E                     dE             d eps       ncg     rms          ort
SDA:   1    -0.995640353114E+03    0.67717E-01    0.00000E+00  2880   0.244E+00 0.000E+00
CGA:   2    -0.995726628729E+03   -0.86276E-01   -0.86277E-01  2880   0.624E-01-0.206E-03
CGA:   3    -0.995742270735E+03   -0.15642E-01   -0.15643E-01  2880   0.904E-02-0.452E-04
CGA:   4    -0.995745015239E+03   -0.27445E-02   -0.27458E-02  2880   0.156E-02 0.329E-04
CGA:   5    -0.995745527983E+03   -0.51274E-03   -0.51300E-03  2880   0.414E-03 0.172E-04
CGA:   6    -0.995745687915E+03   -0.15993E-03   -0.16012E-03  2880   0.133E-03-0.467E-05
CGA:   7    -0.995745737192E+03   -0.49277E-04   -0.49290E-04  2880   0.343E-04-0.404E-06
CGA:   8    -0.995745750280E+03   -0.13088E-04   -0.13171E-04  2880   0.753E-05-0.207E-05
CGA:   9    -0.995745752197E+03   -0.19169E-05   -0.19979E-05  2880   0.127E-05 0.124E-05
  17 F= -.99574575E+03 E0= -.99574575E+03  d E =-.376792E-01  mag=     0.0000
       N       E                     dE             d eps       ncg     rms          ort
SDA:   1    -0.995745261051E+03    0.48923E-03    0.00000E+00  2880   0.104E-01 0.000E+00
CGA:   2    -0.995748975243E+03   -0.37142E-02   -0.37140E-02  2880   0.259E-02 0.142E-04
CGA:   3    -0.995749632929E+03   -0.65769E-03   -0.65666E-03  2880   0.383E-03-0.117E-04
CGA:   4    -0.995749746695E+03   -0.11377E-03   -0.11386E-03  2880   0.638E-04 0.236E-05
CGA:   5    -0.995749767275E+03   -0.20579E-04   -0.20625E-04  2880   0.162E-04 0.265E-05
CGA:   6    -0.995749773707E+03   -0.64323E-05   -0.64141E-05  2880   0.517E-05 0.425E-06
  18 F= -.99574977E+03 E0= -.99574977E+03  d E =-.402151E-02  mag=     0.0000
       N       E                     dE             d eps       ncg     rms          ort
SDA:   1    -0.995675539541E+03    0.74228E-01    0.00000E+00  2880   0.188E+00 0.000E+00
CGA:   2    -0.995742896358E+03   -0.67357E-01   -0.67357E-01  2880   0.436E-01 0.296E-04
CGA:   3    -0.995754022763E+03   -0.11126E-01   -0.11122E-01  2880   0.656E-02-0.527E-04
CGA:   4    -0.995755913023E+03   -0.18903E-02   -0.18898E-02  2880   0.107E-02-0.728E-05
CGA:   5    -0.995756270767E+03   -0.35774E-03   -0.35778E-03  2880   0.272E-03 0.826E-05
CGA:   6    -0.995756374855E+03   -0.10409E-03   -0.10384E-03  2880   0.837E-04 0.632E-05
CGA:   7    -0.995756410504E+03   -0.35649E-04   -0.36327E-04  2880   0.277E-04-0.811E-05
CGA:   8    -0.995756419416E+03   -0.89122E-05   -0.89298E-05  2880   0.496E-05-0.142E-05
  19 F= -.99575642E+03 E0= -.99575642E+03  d E =-.664571E-02  mag=     0.0000
       N       E                     dE             d eps       ncg     rms          ort
SDA:   1    -0.995754145312E+03    0.22652E-02    0.00000E+00  2880   0.104E-01 0.000E+00
CGA:   2    -0.995757778958E+03   -0.36336E-02   -0.36336E-02  2880   0.220E-02 0.311E-06
CGA:   3    -0.995758352950E+03   -0.57399E-03   -0.57461E-03  2880   0.327E-03 0.785E-05
CGA:   4    -0.995758442614E+03   -0.89663E-04   -0.89015E-04  2880   0.511E-04-0.990E-05
CGA:   5    -0.995758458587E+03   -0.15973E-04   -0.15957E-04  2880   0.106E-04-0.147E-05
CGA:   6    -0.995758461821E+03   -0.32341E-05   -0.32630E-05  2880   0.260E-05 0.174E-05
  20 F= -.99575846E+03 E0= -.99575846E+03  d E =-.204241E-02  mag=    -0.0000
       N       E                     dE             d eps       ncg     rms          ort
SDA:   1    -0.995709086883E+03    0.49372E-01    0.00000E+00  2880   0.132E+00 0.000E+00
CGA:   2    -0.995756092604E+03   -0.47006E-01   -0.47006E-01  2880   0.264E-01-0.298E-04
CGA:   3    -0.995763069491E+03   -0.69769E-02   -0.69778E-02  2880   0.379E-02 0.138E-04
CGA:   4    -0.995764039010E+03   -0.96952E-03   -0.96834E-03  2880   0.554E-03-0.133E-04
CGA:   5    -0.995764211658E+03   -0.17265E-03   -0.17255E-03  2880   0.105E-03-0.347E-05
CGA:   6    -0.995764250970E+03   -0.39312E-04   -0.39172E-04  2880   0.309E-04 0.380E-05
CGA:   7    -0.995764265462E+03   -0.14492E-04   -0.14978E-04  2880   0.132E-04-0.382E-05
CGA:   8    -0.995764268754E+03   -0.32925E-05   -0.33766E-05  2880   0.220E-05 0.155E-05
  21 F= -.99576427E+03 E0= -.99576427E+03  d E =-.580693E-02  mag=     0.0000
       N       E                     dE             d eps       ncg     rms          ort
SDA:   1    -0.995688548649E+03    0.75717E-01    0.00000E+00  2880   0.195E+00 0.000E+00
CGA:   2    -0.995758990146E+03   -0.70441E-01   -0.70443E-01  2880   0.375E-01-0.753E-04
CGA:   3    -0.995768923557E+03   -0.99334E-02   -0.99341E-02  2880   0.523E-02 0.112E-04
CGA:   4    -0.995770244415E+03   -0.13209E-02   -0.13213E-02  2880   0.763E-03 0.426E-05
CGA:   5    -0.995770480100E+03   -0.23568E-03   -0.23561E-03  2880   0.141E-03-0.292E-05
CGA:   6    -0.995770534345E+03   -0.54245E-04   -0.54135E-04  2880   0.429E-04 0.212E-05
CGA:   7    -0.995770553328E+03   -0.18983E-04   -0.19190E-04  2880   0.150E-04-0.197E-05
CGA:   8    -0.995770558053E+03   -0.47256E-05   -0.47377E-05  2880   0.236E-05 0.109E-05
  22 F= -.99577056E+03 E0= -.99577056E+03  d E =-.628930E-02  mag=     0.0000
       N       E                     dE             d eps       ncg     rms          ort
SDA:   1    -0.993592955472E+03    0.21776E+01    0.00000E+00  2880   0.491E+01 0.000E+00
CGA:   2    -0.995378250022E+03   -0.17853E+01   -0.17856E+01  2880   0.104E+01-0.881E-02
CGA:   3    -0.995643741936E+03   -0.26549E+00   -0.26579E+00  2880   0.152E+00 0.679E-03
CGA:   4    -0.995685436205E+03   -0.41694E-01   -0.41710E-01  2880   0.236E-01 0.333E-03
CGA:   5    -0.995693279504E+03   -0.78433E-02   -0.78433E-02  2880   0.549E-02 0.178E-05
CGA:   6    -0.995695454845E+03   -0.21753E-02   -0.21775E-02  2880   0.181E-02-0.362E-04
CGA:   7    -0.995696147438E+03   -0.69259E-03   -0.69195E-03  2880   0.498E-03 0.144E-04
CGA:   8    -0.995696333923E+03   -0.18649E-03   -0.18699E-03  2880   0.984E-04-0.162E-04
CGA:   9    -0.995696365056E+03   -0.31133E-04   -0.31230E-04  2880   0.162E-04 0.633E-05
CGA:  10    -0.995696372552E+03   -0.74957E-05   -0.78453E-05  2880   0.491E-05-0.312E-05
  23 F= -.99569637E+03 E0= -.99569637E+03  d E =0.741855E-01  mag=    -0.0000
       N       E                     dE             d eps       ncg     rms          ort
SDA:   1    -0.995164493921E+03    0.53187E+00    0.00000E+00  2880   0.146E+01 0.000E+00
CGA:   2    -0.995670009477E+03   -0.50552E+00   -0.50553E+00  2880   0.381E+00 0.250E-02
CGA:   3    -0.995767035325E+03   -0.97026E-01   -0.96999E-01  2880   0.565E-01 0.337E-04
CGA:   4    -0.995784445503E+03   -0.17410E-01   -0.17407E-01  2880   0.999E-02-0.107E-03
CGA:   5    -0.995787759407E+03   -0.33139E-02   -0.33137E-02  2880   0.271E-02-0.155E-04
CGA:   6    -0.995788768459E+03   -0.10091E-02   -0.10084E-02  2880   0.806E-03 0.210E-04
CGA:   7    -0.995789081904E+03   -0.31344E-03   -0.31371E-03  2880   0.213E-03-0.624E-05
CGA:   8    -0.995789156322E+03   -0.74418E-04   -0.74395E-04  2880   0.403E-04 0.453E-05
CGA:   9    -0.995789172757E+03   -0.16435E-04   -0.16768E-04  2880   0.111E-04-0.548E-05
CGA:  10    -0.995789175751E+03   -0.29944E-05   -0.30270E-05  2880   0.178E-05 0.986E-06
  24 F= -.99578918E+03 E0= -.99578918E+03  d E =-.928032E-01  mag=     0.0000
       N       E                     dE             d eps       ncg     rms          ort
SDA:   1    -0.995786230177E+03    0.29426E-02    0.00000E+00  2880   0.869E-02 0.000E+00
CGA:   2    -0.995789203867E+03   -0.29737E-02   -0.29738E-02  2880   0.209E-02 0.236E-04
CGA:   3    -0.995789749263E+03   -0.54540E-03   -0.54575E-03  2880   0.319E-03 0.421E-05
CGA:   4    -0.995789847201E+03   -0.97938E-04   -0.97089E-04  2880   0.599E-04-0.230E-04
CGA:   5    -0.995789864763E+03   -0.17562E-04   -0.17528E-04  2880   0.136E-04-0.145E-05
CGA:   6    -0.995789868250E+03   -0.34871E-05   -0.36832E-05  2880   0.330E-05 0.333E-05
  25 F= -.99578987E+03 E0= -.99578987E+03  d E =-.692499E-03  mag=     0.0000
       N       E                     dE             d eps       ncg     rms          ort
SDA:   1    -0.995748935277E+03    0.40929E-01    0.00000E+00  2880   0.102E+00 0.000E+00
CGA:   2    -0.995785482818E+03   -0.36548E-01   -0.36546E-01  2880   0.207E-01 0.108E-03
CGA:   3    -0.995791053382E+03   -0.55706E-02   -0.55677E-02  2880   0.304E-02-0.332E-04
CGA:   4    -0.995791856895E+03   -0.80351E-03   -0.79893E-03  2880   0.473E-03-0.594E-04
CGA:   5    -0.995792001727E+03   -0.14483E-03   -0.14486E-03  2880   0.983E-04 0.132E-05
CGA:   6    -0.995792037546E+03   -0.35818E-04   -0.35589E-04  2880   0.279E-04 0.910E-05
CGA:   7    -0.995792052254E+03   -0.14708E-04   -0.20567E-04  2880   0.316E-04-0.173E-04
CGA:   8    -0.995792057081E+03   -0.48266E-05   -0.59464E-05  2880   0.282E-05 0.675E-05
  26 F= -.99579206E+03 E0= -.99579206E+03  d E =-.218883E-02  mag=     0.0000
       N       E                     dE             d eps       ncg     rms          ort
SDA:   1    -0.995789017103E+03    0.30352E-02    0.00000E+00  2880   0.683E-02 0.000E+00
CGA:   2    -0.995791365520E+03   -0.23484E-02   -0.23486E-02  2880   0.154E-02-0.365E-04
CGA:   3    -0.995791777543E+03   -0.41202E-03   -0.41206E-03  2880   0.242E-03 0.177E-06
CGA:   4    -0.995791835075E+03   -0.57532E-04   -0.59514E-04  2880   0.325E-04 0.220E-04
CGA:   5    -0.995791845841E+03   -0.10766E-04   -0.10860E-04  2880   0.806E-05 0.382E-05
CGA:   6    -0.995791849625E+03   -0.37839E-05   -0.64543E-05  2880   0.135E-04-0.692E-05
  27 F= -.99579185E+03 E0= -.99579185E+03  d E =0.207456E-03  mag=     0.0000
       N       E                     dE             d eps       ncg     rms          ort
SDA:   1    -0.995790745731E+03    0.11001E-02    0.00000E+00  2880   0.356E-02 0.000E+00
CGA:   2    -0.995792036755E+03   -0.12910E-02   -0.12908E-02  2880   0.693E-03 0.900E-05
CGA:   3    -0.995792221286E+03   -0.18453E-03   -0.18434E-03  2880   0.995E-04-0.248E-05
CGA:   4    -0.995792247978E+03   -0.26692E-04   -0.26267E-04  2880   0.161E-04-0.589E-05
CGA:   5    -0.995792252288E+03   -0.43099E-05   -0.43270E-05  2880   0.257E-05 0.365E-06
  28 F= -.99579225E+03 E0= -.99579225E+03  d E =-.402663E-03  mag=    -0.0000
       N       E                     dE             d eps       ncg     rms          ort
SDA:   1    -0.995786152477E+03    0.60955E-02    0.00000E+00  2880   0.164E-01 0.000E+00
CGA:   2    -0.995792160585E+03   -0.60081E-02   -0.60080E-02  2880   0.313E-02 0.373E-05
CGA:   3    -0.995792975688E+03   -0.81510E-03   -0.81491E-03  2880   0.446E-03-0.273E-05
CGA:   4    -0.995793090271E+03   -0.11458E-03   -0.11425E-03  2880   0.657E-04-0.469E-05
CGA:   5    -0.995793109963E+03   -0.19692E-04   -0.19694E-04  2880   0.116E-04 0.916E-07
CGA:   6    -0.995793114216E+03   -0.42528E-05   -0.42185E-05  2880   0.331E-05 0.842E-06
  29 F= -.99579311E+03 E0= -.99579311E+03  d E =-.861928E-03  mag=    -0.0000
       N       E                     dE             d eps       ncg     rms          ort
SDA:   1    -0.995751543337E+03    0.41567E-01    0.00000E+00  2880   0.102E+00 0.000E+00
CGA:   2    -0.995789412263E+03   -0.37869E-01   -0.37870E-01  2880   0.192E-01-0.291E-04
CGA:   3    -0.995794387873E+03   -0.49756E-02   -0.49749E-02  2880   0.268E-02-0.757E-05
CGA:   4    -0.995795065662E+03   -0.67779E-03   -0.67814E-03  2880   0.399E-03 0.383E-05
CGA:   5    -0.995795186951E+03   -0.12129E-03   -0.12126E-03  2880   0.711E-04-0.993E-06
CGA:   6    -0.995795214569E+03   -0.27617E-04   -0.27611E-04  2880   0.225E-04 0.123E-06
CGA:   7    -0.995795224303E+03   -0.97343E-05   -0.98298E-05  2880   0.773E-05-0.971E-06
  30 F= -.99579522E+03 E0= -.99579522E+03  d E =-.211009E-02  mag=     0.0000
       N       E                     dE             d eps       ncg     rms          ort
SDA:   1    -0.994305548404E+03    0.14897E+01    0.00000E+00  2880   0.351E+01 0.000E+00
CGA:   2    -0.995604424718E+03   -0.12989E+01   -0.12989E+01  2880   0.659E+00-0.987E-04
CGA:   3    -0.995775198768E+03   -0.17077E+00   -0.17076E+00  2880   0.928E-01-0.865E-04
CGA:   4    -0.995798844187E+03   -0.23645E-01   -0.23654E-01  2880   0.141E-01 0.721E-04
CGA:   5    -0.995803174056E+03   -0.43299E-02   -0.43300E-02  2880   0.264E-02 0.547E-05
CGA:   6    -0.995804228897E+03   -0.10548E-02   -0.10555E-02  2880   0.879E-03-0.100E-04
CGA:   7    -0.995804596074E+03   -0.36718E-03   -0.36804E-03  2880   0.271E-03-0.103E-04
CGA:   8    -0.995804694230E+03   -0.98156E-04   -0.98186E-04  2880   0.463E-04-0.119E-05
CGA:   9    -0.995804712262E+03   -0.18032E-04   -0.18267E-04  2880   0.815E-05-0.432E-05
CGA:  10    -0.995804715116E+03   -0.28540E-05   -0.28850E-05  2880   0.156E-05-0.675E-06
  31 F= -.99580472E+03 E0= -.99580472E+03  d E =-.949081E-02  mag=    -0.0000
       N       E                     dE             d eps       ncg     rms          ort
SDA:   1    -0.995504538932E+03    0.30017E+00    0.00000E+00  2880   0.659E+00 0.000E+00
CGA:   2    -0.995740825653E+03   -0.23629E+00   -0.23629E+00  2880   0.152E+00-0.300E-03
CGA:   3    -0.995778550058E+03   -0.37724E-01   -0.37729E-01  2880   0.229E-01 0.417E-04
CGA:   4    -0.995785113799E+03   -0.65637E-02   -0.65686E-02  2880   0.369E-02 0.924E-04
CGA:   5    -0.995786324018E+03   -0.12102E-02   -0.12100E-02  2880   0.894E-03-0.230E-04
CGA:   6    -0.995786659145E+03   -0.33513E-03   -0.33566E-03  2880   0.284E-03-0.125E-04
CGA:   7    -0.995786760628E+03   -0.10148E-03   -0.10115E-03  2880   0.679E-04 0.140E-04
CGA:   8    -0.995786787609E+03   -0.26981E-04   -0.26910E-04  2880   0.141E-04 0.186E-05
CGA:   9    -0.995786793809E+03   -0.61998E-05   -0.65340E-05  2880   0.469E-05-0.306E-05
  32 F= -.99578679E+03 E0= -.99578679E+03  d E =0.179213E-01  mag=     0.0000
       N       E                     dE             d eps       ncg     rms          ort
SDA:   1    -0.995483216367E+03    0.30357E+00    0.00000E+00  2880   0.741E+00 0.000E+00
CGA:   2    -0.995744784831E+03   -0.26157E+00   -0.26157E+00  2880   0.188E+00-0.164E-03
CGA:   3    -0.995792261764E+03   -0.47477E-01   -0.47475E-01  2880   0.272E-01-0.109E-03
CGA:   4    -0.995800637944E+03   -0.83762E-02   -0.83757E-02  2880   0.469E-02-0.150E-04
CGA:   5    -0.995802202029E+03   -0.15641E-02   -0.15642E-02  2880   0.124E-02 0.294E-04
CGA:   6    -0.995802674329E+03   -0.47230E-03   -0.47242E-03  2880   0.376E-03-0.270E-05
CGA:   7    -0.995802821642E+03   -0.14731E-03   -0.14781E-03  2880   0.993E-04-0.909E-05
CGA:   8    -0.995802857152E+03   -0.35510E-04   -0.35570E-04  2880   0.194E-04-0.231E-05
CGA:   9    -0.995802862935E+03   -0.57826E-05   -0.58586E-05  2880   0.345E-05 0.225E-05
  33 F= -.99580286E+03 E0= -.99580286E+03  d E =-.160691E-01  mag=    -0.0000
       N       E                     dE             d eps       ncg     rms          ort
SDA:   1    -0.995796731042E+03    0.61261E-02    0.00000E+00  2880   0.128E-01 0.000E+00
CGA:   2    -0.995801415629E+03   -0.46846E-02   -0.46838E-02  2880   0.281E-02 0.471E-04
CGA:   3    -0.995802138840E+03   -0.72321E-03   -0.72192E-03  2880   0.403E-03-0.137E-04
CGA:   4    -0.995802256723E+03   -0.11788E-03   -0.11623E-03  2880   0.740E-04-0.293E-04
CGA:   5    -0.995802276822E+03   -0.20099E-04   -0.20211E-04  2880   0.142E-04 0.229E-05
CGA:   6    -0.995802280577E+03   -0.37545E-05   -0.40267E-05  2880   0.379E-05 0.415E-05
  34 F= -.99580228E+03 E0= -.99580228E+03  d E =0.582358E-03  mag=    -0.0000
       N       E                     dE             d eps       ncg     rms          ort
SDA:   1    -0.995761723769E+03    0.40553E-01    0.00000E+00  2880   0.113E+00 0.000E+00
CGA:   2    -0.995800572298E+03   -0.38849E-01   -0.38849E-01  2880   0.257E-01 0.212E-04
CGA:   3    -0.995807203305E+03   -0.66310E-02   -0.66314E-02  2880   0.400E-02 0.693E-05
CGA:   4    -0.995808344576E+03   -0.11413E-02   -0.11393E-02  2880   0.638E-03-0.281E-04
CGA:   5    -0.995808552154E+03   -0.20758E-03   -0.20743E-03  2880   0.152E-03-0.651E-05
CGA:   6    -0.995808606848E+03   -0.54694E-04   -0.54599E-04  2880   0.441E-04 0.703E-05
CGA:   7    -0.995808626448E+03   -0.19600E-04   -0.19882E-04  2880   0.153E-04-0.350E-05
CGA:   8    -0.995808631097E+03   -0.46496E-05   -0.46655E-05  2880   0.248E-05 0.724E-06
  35 F= -.99580863E+03 E0= -.99580863E+03  d E =-.635052E-02  mag=     0.0000
       N       E                     dE             d eps       ncg     rms          ort
SDA:   1    -0.995790752749E+03    0.17874E-01    0.00000E+00  2880   0.406E-01 0.000E+00
CGA:   2    -0.995805779401E+03   -0.15027E-01   -0.15028E-01  2880   0.841E-02-0.689E-04
CGA:   3    -0.995807899171E+03   -0.21198E-02   -0.21225E-02  2880   0.119E-02 0.262E-04
CGA:   4    -0.995808205399E+03   -0.30623E-03   -0.30799E-03  2880   0.177E-03 0.187E-04
CGA:   5    -0.995808263678E+03   -0.58279E-04   -0.58257E-04  2880   0.380E-04-0.883E-06
CGA:   6    -0.995808279564E+03   -0.15885E-04   -0.16215E-04  2880   0.149E-04-0.397E-05
CGA:   7    -0.995808282983E+03   -0.34198E-05   -0.36797E-05  2880   0.358E-05 0.343E-05
  36 F= -.99580828E+03 E0= -.99580828E+03  d E =0.348114E-03  mag=     0.0000
       N       E                     dE             d eps       ncg     rms          ort
SDA:   1    -0.995807090679E+03    0.11889E-02    0.00000E+00  2880   0.286E-02 0.000E+00
CGA:   2    -0.995808080954E+03   -0.99027E-03   -0.99029E-03  2880   0.646E-03-0.310E-05
CGA:   3    -0.995808244516E+03   -0.16356E-03   -0.16386E-03  2880   0.992E-04 0.339E-05
CGA:   4    -0.995808273487E+03   -0.28972E-04   -0.28868E-04  2880   0.161E-04-0.212E-05
CGA:   5    -0.995808278979E+03   -0.54918E-05   -0.55104E-05  2880   0.433E-05-0.142E-05
  37 F= -.99580828E+03 E0= -.99580828E+03  d E =0.400443E-05  mag=     0.0000
       N       E                     dE             d eps       ncg     rms          ort
SDA:   1    -0.995792434822E+03    0.15839E-01    0.00000E+00  2880   0.381E-01 0.000E+00
CGA:   2    -0.995806806902E+03   -0.14372E-01   -0.14372E-01  2880   0.737E-02 0.749E-05
CGA:   3    -0.995808652708E+03   -0.18458E-02   -0.18443E-02  2880   0.106E-02-0.173E-04
CGA:   4    -0.995808926693E+03   -0.27399E-03   -0.27406E-03  2880   0.157E-03 0.953E-06
CGA:   5    -0.995808975112E+03   -0.48419E-04   -0.48433E-04  2880   0.290E-04 0.680E-06
CGA:   6    -0.995808986610E+03   -0.11497E-04   -0.11524E-04  2880   0.972E-05-0.393E-06
CGA:   7    -0.995808990666E+03   -0.40561E-05   -0.41179E-05  2880   0.331E-05-0.626E-06
  38 F= -.99580899E+03 E0= -.99580899E+03  d E =-.711687E-03  mag=    -0.0000
       N       E                     dE             d eps       ncg     rms          ort
SDA:   1    -0.995808642754E+03    0.34386E-03    0.00000E+00  2880   0.662E-03 0.000E+00
CGA:   2    -0.995808887310E+03   -0.24456E-03   -0.24476E-03  2880   0.139E-03-0.600E-05
CGA:   3    -0.995808921109E+03   -0.33799E-04   -0.34057E-04  2880   0.193E-04 0.287E-05
CGA:   4    -0.995808925971E+03   -0.48615E-05   -0.49673E-05  2880   0.272E-05 0.131E-05
  39 F= -.99580893E+03 E0= -.99580893E+03  d E =0.646950E-04  mag=     0.0000
       N       E                     dE             d eps       ncg     rms          ort
SDA:   1    -0.995808389579E+03    0.53153E-03    0.00000E+00  2880   0.150E-02 0.000E+00
CGA:   2    -0.995808957674E+03   -0.56810E-03   -0.56813E-03  2880   0.284E-03-0.686E-06
CGA:   3    -0.995809028900E+03   -0.71226E-04   -0.71106E-04  2880   0.392E-04-0.149E-05
CGA:   4    -0.995809038627E+03   -0.97261E-05   -0.98022E-05  2880   0.553E-05 0.993E-06
  40 F= -.99580904E+03 E0= -.99580904E+03  d E =-.112656E-03  mag=    -0.0000
       N       E                     dE             d eps       ncg     rms          ort
SDA:   1    -0.995785550031E+03    0.23479E-01    0.00000E+00  2880   0.557E-01 0.000E+00
CGA:   2    -0.995806634220E+03   -0.21084E-01   -0.21085E-01  2880   0.104E-01-0.148E-04
CGA:   3    -0.995809235488E+03   -0.26013E-02   -0.26004E-02  2880   0.151E-02-0.116E-04
CGA:   4    -0.995809618886E+03   -0.38340E-03   -0.38381E-03  2880   0.218E-03 0.594E-05
CGA:   5    -0.995809685330E+03   -0.66444E-04   -0.66429E-04  2880   0.380E-04-0.941E-06
CGA:   6    -0.995809700239E+03   -0.14909E-04   -0.15000E-04  2880   0.130E-04-0.117E-05
CGA:   7    -0.995809705142E+03   -0.49029E-05   -0.48671E-05  2880   0.362E-05 0.558E-06
  41 F= -.99580971E+03 E0= -.99580971E+03  d E =-.666515E-03  mag=    -0.0000
       N       E                     dE             d eps       ncg     rms          ort
SDA:   1    -0.995706823180E+03    0.10288E+00    0.00000E+00  2880   0.240E+00 0.000E+00
CGA:   2    -0.995797773963E+03   -0.90951E-01   -0.90956E-01  2880   0.445E-01-0.761E-04
CGA:   3    -0.995808888798E+03   -0.11115E-01   -0.11113E-01  2880   0.647E-02-0.273E-04
CGA:   4    -0.995810539581E+03   -0.16508E-02   -0.16521E-02  2880   0.940E-03 0.186E-04
CGA:   5    -0.995810825915E+03   -0.28633E-03   -0.28628E-03  2880   0.165E-03-0.258E-05
CGA:   6    -0.995810890623E+03   -0.64708E-04   -0.64944E-04  2880   0.555E-04-0.321E-05
CGA:   7    -0.995810912175E+03   -0.21552E-04   -0.21430E-04  2880   0.159E-04 0.179E-05
CGA:   8    -0.995810918599E+03   -0.64237E-05   -0.64384E-05  2880   0.310E-05-0.230E-06
  42 F= -.99581092E+03 E0= -.99581092E+03  d E =-.121346E-02  mag=    -0.0000
       N       E                     dE             d eps       ncg     rms          ort
SDA:   1    -0.993134473539E+03    0.26764E+01    0.00000E+00  2880   0.615E+01 0.000E+00
CGA:   2    -0.995466970824E+03   -0.23325E+01   -0.23324E+01  2880   0.116E+01 0.931E-03
CGA:   3    -0.995753860844E+03   -0.28689E+00   -0.28686E+00  2880   0.169E+00-0.175E-03
CGA:   4    -0.995797598394E+03   -0.43738E-01   -0.43750E-01  2880   0.256E-01 0.103E-03
CGA:   5    -0.995805433410E+03   -0.78350E-02   -0.78351E-02  2880   0.471E-02 0.168E-05
CGA:   6    -0.995807296711E+03   -0.18633E-02   -0.18643E-02  2880   0.162E-02-0.164E-04
CGA:   7    -0.995807958195E+03   -0.66148E-03   -0.66201E-03  2880   0.496E-03-0.721E-05
CGA:   8    -0.995808144463E+03   -0.18627E-03   -0.18652E-03  2880   0.889E-04-0.648E-05
CGA:   9    -0.995808178433E+03   -0.33969E-04   -0.34431E-04  2880   0.164E-04-0.889E-05
CGA:  10    -0.995808183650E+03   -0.52171E-05   -0.52203E-05  2880   0.274E-05-0.283E-06
  43 F= -.99580818E+03 E0= -.99580818E+03  d E =0.273495E-02  mag=    -0.0000
       N       E                     dE             d eps       ncg     rms          ort
SDA:   1    -0.995682491439E+03    0.12569E+00    0.00000E+00  2880   0.299E+00 0.000E+00
CGA:   2    -0.995793839793E+03   -0.11135E+00   -0.11135E+00  2880   0.652E-01-0.128E-03
CGA:   3    -0.995809643027E+03   -0.15803E-01   -0.15805E-01  2880   0.943E-02-0.106E-04
CGA:   4    -0.995812269134E+03   -0.26261E-02   -0.26270E-02  2880   0.149E-02 0.150E-04
CGA:   5    -0.995812740016E+03   -0.47088E-03   -0.47094E-03  2880   0.322E-03 0.293E-05
CGA:   6    -0.995812861381E+03   -0.12136E-03   -0.12135E-03  2880   0.106E-03 0.334E-06
CGA:   7    -0.995812902973E+03   -0.41593E-04   -0.41607E-04  2880   0.304E-04-0.259E-06
CGA:   8    -0.995812915363E+03   -0.12390E-04   -0.12646E-04  2880   0.724E-05-0.328E-05
CGA:   9    -0.995812917025E+03   -0.16622E-05   -0.17497E-05  2880   0.120E-05 0.121E-05
  44 F= -.99581292E+03 E0= -.99581292E+03  d E =-.473338E-02  mag=     0.0000
       N       E                     dE             d eps       ncg     rms          ort
SDA:   1    -0.995798930571E+03    0.13985E-01    0.00000E+00  2880   0.332E-01 0.000E+00
CGA:   2    -0.995811345646E+03   -0.12415E-01   -0.12417E-01  2880   0.666E-02-0.472E-04
CGA:   3    -0.995812998678E+03   -0.16530E-02   -0.16551E-02  2880   0.949E-03 0.234E-04
CGA:   4    -0.995813253221E+03   -0.25454E-03   -0.25429E-03  2880   0.147E-03-0.382E-05
CGA:   5    -0.995813299036E+03   -0.45814E-04   -0.45806E-04  2880   0.292E-04-0.508E-06
CGA:   6    -0.995813310368E+03   -0.11333E-04   -0.11346E-04  2880   0.963E-05-0.214E-06
CGA:   7    -0.995813314045E+03   -0.36765E-05   -0.36594E-05  2880   0.267E-05 0.337E-06
  45 F= -.99581331E+03 E0= -.99581331E+03  d E =-.397020E-03  mag=     0.0000
       N       E                     dE             d eps       ncg     rms          ort
SDA:   1    -0.995799435254E+03    0.13875E-01    0.00000E+00  2880   0.318E-01 0.000E+00
CGA:   2    -0.995811649274E+03   -0.12214E-01   -0.12215E-01  2880   0.592E-02-0.167E-04
CGA:   3    -0.995813094963E+03   -0.14457E-02   -0.14454E-02  2880   0.868E-03-0.383E-05
CGA:   4    -0.995813316400E+03   -0.22144E-03   -0.22211E-03  2880   0.123E-03 0.873E-05
CGA:   5    -0.995813354556E+03   -0.38156E-04   -0.38118E-04  2880   0.218E-04-0.168E-05
CGA:   6    -0.995813363219E+03   -0.86629E-05   -0.87988E-05  2880   0.808E-05-0.168E-05
  46 F= -.99581336E+03 E0= -.99581336E+03  d E =-.491742E-04  mag=    -0.0000
       N       E                     dE             d eps       ncg     rms          ort
SDA:   1    -0.994405121249E+03    0.14082E+01    0.00000E+00  2880   0.322E+01 0.000E+00
CGA:   2    -0.995637505024E+03   -0.12324E+01   -0.12324E+01  2880   0.598E+00-0.788E-03
CGA:   3    -0.995783799876E+03   -0.14629E+00   -0.14629E+00  2880   0.874E-01-0.958E-04
CGA:   4    -0.995806372526E+03   -0.22573E-01   -0.22579E-01  2880   0.128E-01 0.819E-04
CGA:   5    -0.995810268023E+03   -0.38955E-02   -0.38952E-02  2880   0.224E-02-0.121E-04
CGA:   6    -0.995811144546E+03   -0.87652E-03   -0.87738E-03  2880   0.760E-03-0.130E-04
CGA:   7    -0.995811453301E+03   -0.30876E-03   -0.30855E-03  2880   0.231E-03 0.261E-05
CGA:   8    -0.995811543850E+03   -0.90549E-04   -0.90917E-04  2880   0.432E-04-0.621E-05
CGA:   9    -0.995811560160E+03   -0.16309E-04   -0.16577E-04  2880   0.756E-05-0.457E-05
CGA:  10    -0.995811562527E+03   -0.23673E-05   -0.23673E-05  2880   0.116E-05 0.664E-08
  47 F= -.99581156E+03 E0= -.99581156E+03  d E =0.180069E-02  mag=    -0.0000
       N       E                     dE             d eps       ncg     rms          ort
SDA:   1    -0.991548045327E+03    0.42635E+01    0.00000E+00  2880   0.972E+01 0.000E+00
CGA:   2    -0.995264505397E+03   -0.37165E+01   -0.37163E+01  2880   0.183E+01 0.611E-03
CGA:   3    -0.995709221236E+03   -0.44472E+00   -0.44469E+00  2880   0.269E+00-0.176E-03
CGA:   4    -0.995779308727E+03   -0.70087E-01   -0.70100E-01  2880   0.402E-01 0.114E-03
CGA:   5    -0.995791664659E+03   -0.12356E-01   -0.12356E-01  2880   0.731E-02-0.684E-05
CGA:   6    -0.995794547460E+03   -0.28828E-02   -0.28835E-02  2880   0.253E-02-0.116E-04
CGA:   7    -0.995795584533E+03   -0.10371E-02   -0.10383E-02  2880   0.774E-03-0.155E-04
CGA:   8    -0.995795877821E+03   -0.29329E-03   -0.29391E-03  2880   0.138E-03-0.135E-04
CGA:   9    -0.995795930266E+03   -0.52445E-04   -0.53120E-04  2880   0.248E-04-0.131E-04
CGA:  10    -0.995795937926E+03   -0.76599E-05   -0.76596E-05  2880   0.393E-05 0.554E-06
  48 F= -.99579594E+03 E0= -.99579594E+03  d E =0.156246E-01  mag=     0.0000
       N       E                     dE             d eps       ncg     rms          ort
SDA:   1    -0.991083842807E+03    0.47121E+01    0.00000E+00  2880   0.109E+02 0.000E+00
CGA:   2    -0.995219920745E+03   -0.41361E+01   -0.41359E+01  2880   0.204E+01 0.802E-03
CGA:   3    -0.995714839546E+03   -0.49492E+00   -0.49498E+00  2880   0.306E+00-0.145E-03
CGA:   4    -0.995794304093E+03   -0.79465E-01   -0.79475E-01  2880   0.449E-01 0.134E-03
CGA:   5    -0.995808060366E+03   -0.13756E-01   -0.13757E-01  2880   0.820E-02 0.158E-04
CGA:   6    -0.995811261452E+03   -0.32011E-02   -0.32009E-02  2880   0.281E-02 0.143E-05
CGA:   7    -0.995812413107E+03   -0.11517E-02   -0.11537E-02  2880   0.871E-03-0.281E-04
CGA:   8    -0.995812745041E+03   -0.33193E-03   -0.33304E-03  2880   0.162E-03-0.243E-04
CGA:   9    -0.995812799724E+03   -0.54682E-04   -0.54672E-04  2880   0.241E-04 0.255E-05
CGA:  10    -0.995812809978E+03   -0.10255E-04   -0.10651E-04  2880   0.665E-05-0.433E-05
CGA:  11    -0.995812812159E+03   -0.21802E-05   -0.21987E-05  2880   0.152E-05-0.336E-06
  49 F= -.99581281E+03 E0= -.99581281E+03  d E =-.168742E-01  mag=     0.0000
       N       E                     dE             d eps       ncg     rms          ort
SDA:   1    -0.994355043925E+03    0.14578E+01    0.00000E+00  2880   0.330E+01 0.000E+00
CGA:   2    -0.995608111648E+03   -0.12531E+01   -0.12531E+01  2880   0.648E+00-0.709E-03
CGA:   3    -0.995765940236E+03   -0.15783E+00   -0.15784E+00  2880   0.955E-01 0.117E-04
CGA:   4    -0.995791312811E+03   -0.25373E-01   -0.25372E-01  2880   0.143E-01-0.758E-05
CGA:   5    -0.995795769492E+03   -0.44567E-02   -0.44568E-02  2880   0.278E-02 0.305E-05
CGA:   6    -0.995796842139E+03   -0.10726E-02   -0.10728E-02  2880   0.929E-03-0.433E-05
CGA:   7    -0.995797210673E+03   -0.36853E-03   -0.36866E-03  2880   0.278E-03-0.237E-05
CGA:   8    -0.995797314935E+03   -0.10426E-03   -0.10435E-03  2880   0.516E-04-0.299E-05
CGA:   9    -0.995797334347E+03   -0.19412E-04   -0.19518E-04  2880   0.968E-05-0.319E-05
CGA:  10    -0.995797337178E+03   -0.28312E-05   -0.28654E-05  2880   0.145E-05 0.975E-06
  50 F= -.99579734E+03 E0= -.99579734E+03  d E =0.154750E-01  mag=     0.0000
       N       E                     dE             d eps       ncg     rms          ort
SDA:   1    -0.994437894479E+03    0.13594E+01    0.00000E+00  2880   0.314E+01 0.000E+00
CGA:   2    -0.995635575929E+03   -0.11977E+01   -0.11977E+01  2880   0.606E+00-0.321E-03
CGA:   3    -0.995784143559E+03   -0.14857E+00   -0.14856E+00  2880   0.889E-01-0.186E-03
CGA:   4    -0.995807623178E+03   -0.23480E-01   -0.23485E-01  2880   0.134E-01 0.564E-04
CGA:   5    -0.995811797543E+03   -0.41744E-02   -0.41743E-02  2880   0.258E-02-0.955E-06
CGA:   6    -0.995812805216E+03   -0.10077E-02   -0.10078E-02  2880   0.872E-03-0.343E-05
CGA:   7    -0.995813157022E+03   -0.35181E-03   -0.35220E-03  2880   0.266E-03-0.773E-05
CGA:   8    -0.995813257317E+03   -0.10029E-03   -0.10049E-03  2880   0.499E-04-0.786E-05
CGA:   9    -0.995813274499E+03   -0.17182E-04   -0.17181E-04  2880   0.809E-05-0.167E-06
CGA:  10    -0.995813278089E+03   -0.35902E-05   -0.39885E-05  2880   0.331E-05-0.290E-05
  51 F= -.99581328E+03 E0= -.99581328E+03  d E =-.159409E-01  mag=    -0.0000
       N       E                     dE             d eps       ncg     rms          ort
SDA:   1    -0.995812974551E+03    0.29995E-03    0.00000E+00  2880   0.948E-03 0.000E+00
CGA:   2    -0.995813333841E+03   -0.35929E-03   -0.35943E-03  2880   0.194E-03-0.671E-05
CGA:   3    -0.995813378975E+03   -0.45135E-04   -0.45724E-04  2880   0.272E-04 0.483E-05
CGA:   4    -0.995813387029E+03   -0.80530E-05   -0.79244E-05  2880   0.484E-05-0.186E-05
  52 F= -.99581339E+03 E0= -.99581339E+03  d E =-.108940E-03  mag=    -0.0000
       N       E                     dE             d eps       ncg     rms          ort
SDA:   1    -0.995805947285E+03    0.74317E-02    0.00000E+00  2880   0.176E-01 0.000E+00
CGA:   2    -0.995812718352E+03   -0.67711E-02   -0.67720E-02  2880   0.342E-02-0.283E-04
CGA:   3    -0.995813529077E+03   -0.81073E-03   -0.81205E-03  2880   0.505E-03 0.111E-04
CGA:   4    -0.995813658756E+03   -0.12968E-03   -0.13006E-03  2880   0.711E-04 0.417E-05
CGA:   5    -0.995813682625E+03   -0.23869E-04   -0.23799E-04  2880   0.149E-04-0.603E-05
CGA:   6    -0.995813687080E+03   -0.44544E-05   -0.44722E-05  2880   0.377E-05 0.113E-05
  53 F= -.99581369E+03 E0= -.99581369E+03  d E =-.300051E-03  mag=    -0.0000
       N       E                     dE             d eps       ncg     rms          ort
SDA:   1    -0.995782597074E+03    0.31086E-01    0.00000E+00  2880   0.735E-01 0.000E+00
CGA:   2    -0.995810369783E+03   -0.27773E-01   -0.27777E-01  2880   0.143E-01-0.113E-03
CGA:   3    -0.995813822811E+03   -0.34530E-02   -0.34573E-02  2880   0.214E-02 0.417E-04
CGA:   4    -0.995814371261E+03   -0.54845E-03   -0.54955E-03  2880   0.298E-03 0.136E-04
CGA:   5    -0.995814468320E+03   -0.97059E-04   -0.96891E-04  2880   0.584E-04-0.156E-04
CGA:   6    -0.995814487961E+03   -0.19642E-04   -0.19586E-04  2880   0.161E-04 0.267E-05
CGA:   7    -0.995814493862E+03   -0.59003E-05   -0.58620E-05  2880   0.432E-05 0.287E-05
  54 F= -.99581449E+03 E0= -.99581449E+03  d E =-.806782E-03  mag=     0.0000
       N       E                     dE             d eps       ncg     rms          ort
SDA:   1    -0.995413118486E+03    0.40137E+00    0.00000E+00  2880   0.913E+00 0.000E+00
CGA:   2    -0.995765938525E+03   -0.35282E+00   -0.35284E+00  2880   0.175E+00-0.523E-03
CGA:   3    -0.995807859237E+03   -0.41921E-01   -0.41929E-01  2880   0.259E-01 0.482E-04
CGA:   4    -0.995814542126E+03   -0.66829E-02   -0.66905E-02  2880   0.365E-02 0.843E-04
CGA:   5    -0.995815678008E+03   -0.11359E-02   -0.11343E-02  2880   0.654E-03-0.457E-04
CGA:   6    -0.995815921223E+03   -0.24321E-03   -0.24322E-03  2880   0.211E-03-0.280E-06
CGA:   7    -0.995816002207E+03   -0.80984E-04   -0.80499E-04  2880   0.587E-04 0.129E-04
CGA:   8    -0.995816030733E+03   -0.28526E-04   -0.30145E-04  2880   0.188E-04-0.118E-04
CGA:   9    -0.995816035076E+03   -0.43430E-05   -0.44188E-05  2880   0.309E-05 0.129E-05
  55 F= -.99581604E+03 E0= -.99581604E+03  d E =-.154121E-02  mag=    -0.0000
       N       E                     dE             d eps       ncg     rms          ort
SDA:   1    -0.995763922225E+03    0.52109E-01    0.00000E+00  2880   0.118E+00 0.000E+00
CGA:   2    -0.995809318939E+03   -0.45397E-01   -0.45403E-01  2880   0.235E-01-0.166E-03
CGA:   3    -0.995814978309E+03   -0.56594E-02   -0.56633E-02  2880   0.343E-02 0.330E-04
CGA:   4    -0.995815876899E+03   -0.89859E-03   -0.90192E-03  2880   0.504E-03 0.419E-04
CGA:   5    -0.995816039896E+03   -0.16300E-03   -0.16279E-03  2880   0.102E-03-0.109E-04
CGA:   6    -0.995816078849E+03   -0.38953E-04   -0.39281E-04  2880   0.367E-04-0.565E-05
CGA:   7    -0.995816089603E+03   -0.10754E-04   -0.10909E-04  2880   0.837E-05 0.615E-05
CGA:   8    -0.995816093311E+03   -0.37081E-05   -0.36815E-05  2880   0.219E-05 0.702E-06
  56 F= -.99581609E+03 E0= -.99581609E+03  d E =-.582351E-04  mag=    -0.0000
       N       E                     dE             d eps       ncg     rms          ort
SDA:   1    -0.995712282134E+03    0.10381E+00    0.00000E+00  2880   0.235E+00 0.000E+00
CGA:   2    -0.995802523444E+03   -0.90241E-01   -0.90240E-01  2880   0.459E-01 0.114E-03
CGA:   3    -0.995813604365E+03   -0.11081E-01   -0.11073E-01  2880   0.682E-02-0.605E-04
CGA:   4    -0.995815395256E+03   -0.17909E-02   -0.17853E-02  2880   0.101E-02-0.541E-04
CGA:   5    -0.995815692972E+03   -0.29772E-03   -0.29907E-03  2880   0.173E-03 0.219E-04
CGA:   6    -0.995815758990E+03   -0.66018E-04   -0.65948E-04  2880   0.578E-04 0.463E-05
CGA:   7    -0.995815786896E+03   -0.27905E-04   -0.29904E-04  2880   0.297E-04-0.138E-04
CGA:   8    -0.995815792446E+03   -0.55507E-05   -0.59602E-05  2880   0.651E-05 0.399E-05
  57 F= -.99581579E+03 E0= -.99581579E+03  d E =0.300865E-03  mag=     0.0000
       N       E                     dE             d eps       ncg     rms          ort
SDA:   1    -0.995814046764E+03    0.17401E-02    0.00000E+00  2880   0.406E-02 0.000E+00
CGA:   2    -0.995815532649E+03   -0.14859E-02   -0.14857E-02  2880   0.868E-03 0.121E-04
CGA:   3    -0.995815756539E+03   -0.22389E-03   -0.22366E-03  2880   0.132E-03-0.240E-05
CGA:   4    -0.995815793214E+03   -0.36676E-04   -0.36500E-04  2880   0.214E-04-0.245E-05
CGA:   5    -0.995815800632E+03   -0.74178E-05   -0.74393E-05  2880   0.627E-05-0.246E-05
  58 F= -.99581580E+03 E0= -.99581580E+03  d E =-.818577E-05  mag=    -0.0000
       N       E                     dE             d eps       ncg     rms          ort
SDA:   1    -0.995815514741E+03    0.27847E-03    0.00000E+00  2880   0.882E-03 0.000E+00
CGA:   2    -0.995815835273E+03   -0.32053E-03   -0.32086E-03  2880   0.198E-03-0.145E-04
CGA:   3    -0.995815884659E+03   -0.49386E-04   -0.49719E-04  2880   0.283E-04 0.380E-05
CGA:   4    -0.995815891359E+03   -0.66992E-05   -0.70093E-05  2880   0.402E-05 0.326E-05
  59 F= -.99581589E+03 E0= -.99581589E+03  d E =-.907264E-04  mag=     0.0000
