       N       E                     dE             d eps       ncg     rms          ort
DAV:   1     0.102800316768E+05    0.10280E+05   -0.42545E+05 10640   0.156E+03
DAV:   2    -0.143225453215E+03   -0.10423E+05   -0.98321E+04 10640   0.475E+02
DAV:   3    -0.154741975176E+04   -0.14042E+04   -0.13121E+04 10640   0.182E+02
DAV:   4    -0.162851450168E+04   -0.81095E+02   -0.78911E+02 10640   0.461E+01
DAV:   5    -0.163083524956E+04   -0.23207E+01   -0.23135E+01 10640   0.831E+00
SDA:   6    -0.766384362672E+03    0.86445E+03   -0.23135E+01 10640   0.284E+04 0.000E+00
CGA:   7    -0.116523900027E+04   -0.39885E+03   -0.39590E+03 10640   0.109E+04-0.164E+02
CGA:   8    -0.118603544866E+04   -0.20796E+02   -0.62431E+02 10640   0.112E+04-0.645E+03
CGA:   9    -0.120675334905E+04   -0.20718E+02   -0.53387E+02 10640   0.116E+04-0.864E+03
CGA:  10    -0.121771098755E+04   -0.10958E+02   -0.57024E+02 10640   0.103E+04-0.768E+03
CGA:  11    -0.123853881414E+04   -0.20828E+02   -0.43150E+02 10640   0.648E+03-0.659E+03
CGA:  12    -0.125068450593E+04   -0.12146E+02   -0.26709E+02 10640   0.397E+03-0.335E+03
CGA:  13    -0.125975543295E+04   -0.90709E+01   -0.15595E+02 10640   0.227E+03-0.158E+03
CGA:  14    -0.127724636373E+04   -0.17491E+02   -0.14053E+02 10640   0.189E+03-0.324E+01
CGA:  15    -0.128692160836E+04   -0.96752E+01   -0.99544E+01 10640   0.150E+03-0.333E+02
CGA:  16    -0.129263432011E+04   -0.57127E+01   -0.77371E+01 10640   0.265E+03-0.564E+02
CGA:  17    -0.129835100967E+04   -0.57167E+01   -0.63089E+01 10640   0.115E+03-0.621E+02
CGA:  18    -0.130040161940E+04   -0.20506E+01   -0.22428E+01 10640   0.449E+02-0.138E+02
CGA:  19    -0.130101880627E+04   -0.61719E+00   -0.98748E+00 10640   0.325E+02-0.151E+02
CGA:  20    -0.130209887204E+04   -0.10801E+01   -0.11988E+01 10640   0.457E+02-0.172E+01
CGA:  21    -0.130310859057E+04   -0.10097E+01   -0.21341E+01 10640   0.686E+02-0.141E+02
CGA:  22    -0.130449190184E+04   -0.13833E+01   -0.17041E+01 10640   0.200E+02-0.788E+01
CGA:  23    -0.130491620177E+04   -0.42430E+00   -0.58764E+00 10640   0.686E+01-0.390E+01
CGA:  24    -0.130518916647E+04   -0.27296E+00   -0.31752E+00 10640   0.695E+01-0.426E+00
CGA:  25    -0.130573423671E+04   -0.54507E+00   -0.54412E+00 10640   0.639E+01-0.768E-01
CGA:  26    -0.130623765142E+04   -0.50341E+00   -0.49838E+00 10640   0.238E+01-0.106E+00
CGA:  27    -0.130643907123E+04   -0.20142E+00   -0.20178E+00 10640   0.185E+01-0.800E-01
CGA:  28    -0.130662366646E+04   -0.18460E+00   -0.18444E+00 10640   0.196E+01-0.126E+00
CGA:  29    -0.130677804483E+04   -0.15438E+00   -0.15318E+00 10640   0.855E+00-0.161E+00
CGA:  30    -0.130684695615E+04   -0.68911E-01   -0.67486E-01 10640   0.584E+00-0.109E+00
CGA:  31    -0.130692546935E+04   -0.78513E-01   -0.91666E-01 10640   0.101E+01-0.181E+00
CGA:  32    -0.130700051720E+04   -0.75048E-01   -0.75054E-01 10640   0.242E+00-0.231E+00
CGA:  33    -0.130702593291E+04   -0.25416E-01   -0.47156E-01 10640   0.888E+00-0.150E+00
CGA:  34    -0.130707409368E+04   -0.48161E-01   -0.48324E-01 10640   0.135E+00-0.872E-02
CGA:  35    -0.130708975354E+04   -0.15660E-01   -0.15693E-01 10640   0.199E+00-0.579E-02
CGA:  36    -0.130713015760E+04   -0.40404E-01   -0.43519E-01 10640   0.702E-01-0.276E-01
CGA:  37    -0.130713661773E+04   -0.64601E-02   -0.62459E-02 10640   0.453E-01-0.149E-01
CGA:  38    -0.130708764946E+04    0.48968E-01   -0.26521E-01 10640   0.116E+01-0.123E+00
CGA:  39    -0.130714338516E+04   -0.55736E-01   -0.55608E-01 10640   0.991E-01 0.196E-02
CGA:  40    -0.130716073446E+04   -0.17349E-01   -0.17264E-01 10640   0.633E-01-0.272E-02
CGA:  41    -0.130716718284E+04   -0.64484E-02   -0.62980E-02 10640   0.190E-01-0.162E-02
CGA:  42    -0.130716936282E+04   -0.21800E-02   -0.20377E-02 10640   0.219E-01-0.160E-02
CGA:  43    -0.130717347733E+04   -0.41145E-02   -0.42314E-02 10640   0.147E-01-0.692E-02
CGA:  44    -0.130717508930E+04   -0.16120E-02   -0.10958E-02 10640   0.920E-02-0.600E-02
CGA:  45    -0.130717826489E+04   -0.31756E-02    0.98671E-03 10640   0.936E-02-0.164E-02
CGA:  46    -0.130717725667E+04    0.10082E-02   -0.24181E-02 10640   0.122E+00-0.277E-01
CGA:  47    -0.130718280909E+04   -0.55524E-02   -0.56601E-02 10640   0.103E-01 0.481E-03
CGA:  48    -0.130718365075E+04   -0.84166E-03   -0.92343E-03 10640   0.442E-02 0.824E-03
CGA:  49    -0.130718431575E+04   -0.66500E-03   -0.69712E-03 10640   0.181E-02 0.838E-03
CGA:  50    -0.130718469448E+04   -0.37873E-03   -0.36903E-03 10640   0.459E-02-0.861E-03
CGA:  51    -0.130718516123E+04   -0.46675E-03   -0.36975E-03 10640   0.689E-02-0.342E-02
CGA:  52    -0.130718581219E+04   -0.65095E-03   -0.56626E-03 10640   0.165E-02-0.848E-03
CGA:  53    -0.130718438336E+04    0.14288E-02   -0.74676E-03 10640   0.598E-01-0.640E-02
CGA:  54    -0.130718696901E+04   -0.25856E-02   -0.26200E-02 10640   0.139E-02 0.339E-03
CGA:  55    -0.130718707391E+04   -0.10489E-03   -0.12885E-03 10640   0.441E-03 0.259E-03
CGA:  56    -0.130718713209E+04   -0.58187E-04   -0.63388E-04 10640   0.200E-03 0.876E-04
CGA:  57    -0.130718714446E+04   -0.12372E-04   -0.66903E-04 10640   0.206E-02-0.540E-03
CGA:  58    -0.130718729658E+04   -0.15211E-03   -0.11362E-03 10640   0.318E-03-0.300E-03
CGA:  59    -0.130718747782E+04   -0.18125E-03    0.26886E-04 10640   0.699E-03-0.259E-03
CGA:  60    -0.130718753560E+04   -0.57774E-04   -0.39719E-04 10640   0.121E-03-0.150E-03
CGA:  61    -0.130718763106E+04   -0.95461E-04    0.41058E-05 10640   0.368E-03-0.130E-03
CGA:  62    -0.130718767691E+04   -0.45849E-04   -0.26299E-04 10640   0.189E-03-0.197E-03
CGA:  63    -0.130718771561E+04   -0.38699E-04   -0.23362E-04 10640   0.827E-03-0.364E-03
CGA:  64    -0.130718776648E+04   -0.50874E-04   -0.37335E-04 10640   0.324E-04-0.113E-03
CGA:  65    -0.130718784198E+04   -0.75496E-04    0.28949E-06 10640   0.919E-04-0.170E-04
CGA:  66    -0.130718788470E+04   -0.42721E-04    0.15121E-04 10640   0.749E-03-0.232E-03
CGA:  67    -0.130718793433E+04   -0.49631E-04   -0.34865E-04 10640   0.385E-04-0.132E-03
CGA:  68    -0.130718799848E+04   -0.64149E-04    0.42363E-06 10640   0.107E-03-0.274E-04
CGA:  69    -0.130718803422E+04   -0.35743E-04    0.79832E-04 10640   0.825E-03-0.272E-03
CGA:  70    -0.130718808074E+04   -0.46521E-04   -0.36172E-04 10640   0.222E-04-0.945E-04
CGA:  71    -0.130718813784E+04   -0.57099E-04    0.16131E-06 10640   0.595E-04-0.115E-04
CGA:  72    -0.130718817714E+04   -0.39300E-04    0.34627E-05 10640   0.399E-03-0.133E-03
CGA:  73    -0.130718821082E+04   -0.33679E-04   -0.21111E-04 10640   0.590E-04-0.134E-03
CGA:  74    -0.130718826650E+04   -0.55684E-04    0.69155E-06 10640   0.762E-04-0.268E-04
CGA:  75    -0.130718839100E+04   -0.12450E-03    0.30810E-06 10640   0.101E-04 0.107E-04
CGA:  76    -0.130718844927E+04   -0.58265E-04    0.48279E-07 10640   0.216E-04 0.112E-05
CGA:  77    -0.130718861695E+04   -0.16768E-03    0.71952E-07 10640   0.934E-05 0.202E-04
CGA:  78    -0.130718865110E+04   -0.34149E-04    0.55593E-07 10640   0.408E-04-0.993E-05
CGA:  79    -0.130718867444E+04   -0.23347E-04    0.28308E-05 10640   0.264E-03-0.944E-04
CGA:  80    -0.130718869674E+04   -0.22293E-04   -0.14029E-04 10640   0.391E-04-0.928E-04
CGA:  81    -0.130718873103E+04   -0.34293E-04    0.44515E-06 10640   0.482E-04-0.201E-04
CGA:  82    -0.130718875255E+04   -0.21525E-04    0.53028E-05 10640   0.294E-03-0.111E-03
CGA:  83    -0.130718877173E+04   -0.19173E-04   -0.13814E-04 10640   0.162E-04-0.589E-04
CGA:  84    -0.130718880030E+04   -0.28573E-04    0.11731E-06 10640   0.341E-04-0.120E-04
CGA:  85    -0.130718881927E+04   -0.18972E-04    0.20684E-05 10640   0.187E-03-0.732E-04
CGA:  86    -0.130718883697E+04   -0.17702E-04   -0.10919E-04 10640   0.500E-04-0.908E-04
CGA:  87    -0.130718886826E+04   -0.31289E-04    0.44562E-06 10640   0.181E-04-0.976E-05
CGA:  88    -0.130718890258E+04   -0.34321E-04    0.11542E-06 10640   0.304E-04-0.114E-04
CGA:  89    -0.130718891858E+04   -0.15995E-04    0.18873E-05 10640   0.155E-03-0.636E-04
CGA:  90    -0.130718893376E+04   -0.15184E-04   -0.94006E-05 10640   0.504E-04-0.841E-04
CGA:  91    -0.130718830210E+04    0.63166E-03   -0.35008E-03 10640   0.195E-01-0.970E-03
CGA:  92    -0.130718907168E+04   -0.76958E-03   -0.75917E-03 10640   0.164E-05-0.780E-04
CGA:  93    -0.130718909921E+04   -0.27535E-04    0.48246E-08 10640   0.790E-05-0.185E-06
CGA:  94    -0.130718925909E+04   -0.15987E-03    0.15112E-07 10640   0.101E-04 0.480E-05
CGA:  95    -0.130718926897E+04   -0.98836E-05    0.89172E-06 10640   0.206E-03-0.434E-04
   1 F= -.13071893E+04 E0= -.13071701E+04  d E =-.130719E+04  mag=    47.0000
       N       E                     dE             d eps       ncg     rms          ort
SDA:   1    -0.130718469475E+04    0.45643E-02    0.00000E+00 10640   0.127E+00 0.000E+00
CGA:   2    -0.130718965938E+04   -0.49646E-02   -0.49569E-02 10640   0.155E-02-0.539E-03
CGA:   3    -0.130718977762E+04   -0.11824E-03   -0.11656E-03 10640   0.471E-03-0.112E-04
CGA:   4    -0.130718986389E+04   -0.86269E-04   -0.85861E-04 10640   0.358E-03-0.331E-04
CGA:   5    -0.130718989573E+04   -0.31840E-04   -0.27557E-04 10640   0.135E-03-0.378E-04
CGA:   6    -0.130718991868E+04   -0.22953E-04   -0.33143E-04 10640   0.319E-03-0.120E-03
CGA:   7    -0.130718993832E+04   -0.19636E-04   -0.17430E-04 10640   0.465E-04-0.154E-04
CGA:   8    -0.130718994531E+04   -0.69963E-05   -0.59866E-05 10640   0.520E-04-0.196E-04
CGA:   9    -0.130718993595E+04    0.93618E-05   -0.10342E-04 10640   0.444E-03-0.123E-03
CGA:  10    -0.130718996137E+04   -0.25425E-04   -0.23322E-04 10640   0.937E-04-0.146E-04
CGA:  11    -0.130718997417E+04   -0.12795E-04   -0.12346E-04 10640   0.319E-04-0.910E-05
CGA:  12    -0.130718997761E+04   -0.34387E-05   -0.24430E-05 10640   0.904E-05-0.101E-04
   2 F= -.13071900E+04 E0= -.13071709E+04  d E =-.708636E-03  mag=    47.0000
       N       E                     dE             d eps       ncg     rms          ort
SDA:   1    -0.130715070825E+04    0.39266E-01    0.00000E+00 10640   0.155E+00 0.000E+00
CGA:   2    -0.130716938406E+04   -0.18676E-01   -0.18708E-01 10640   0.185E+00 0.735E-03
CGA:   3    -0.130718774093E+04   -0.18357E-01   -0.18403E-01 10640   0.468E-01 0.682E-03
CGA:   4    -0.130719441604E+04   -0.66751E-02   -0.66789E-02 10640   0.273E-01 0.165E-03
CGA:   5    -0.130719677852E+04   -0.23625E-02   -0.23313E-02 10640   0.500E-02-0.347E-03
CGA:   6    -0.130719729874E+04   -0.52022E-03   -0.51017E-03 10640   0.303E-02-0.157E-03
CGA:   7    -0.130719762377E+04   -0.32503E-03   -0.32202E-03 10640   0.820E-03-0.547E-04
CGA:   8    -0.130719771029E+04   -0.86522E-04   -0.84698E-04 10640   0.488E-03-0.325E-04
CGA:   9    -0.130719774913E+04   -0.38842E-04   -0.44413E-04 10640   0.164E-03 0.896E-04
CGA:  10    -0.130719775381E+04   -0.46742E-05   -0.11865E-04 10640   0.555E-04 0.775E-04
   3 F= -.13071978E+04 E0= -.13071787E+04  d E =-.777620E-02  mag=    47.0000
       N       E                     dE             d eps       ncg     rms          ort
SDA:   1    -0.130666637849E+04    0.53137E+00    0.00000E+00 10640   0.153E+01 0.000E+00
CGA:   2    -0.130694614559E+04   -0.27977E+00   -0.27962E+00 10640   0.204E+01 0.484E-02
CGA:   3    -0.130711347040E+04   -0.16732E+00   -0.16735E+00 10640   0.510E+00 0.102E-02
CGA:   4    -0.130717942903E+04   -0.65959E-01   -0.65948E-01 10640   0.292E+00-0.640E-03
CGA:   5    -0.130720288740E+04   -0.23458E-01   -0.23400E-01 10640   0.632E-01-0.761E-03
CGA:   6    -0.130720857245E+04   -0.56850E-02   -0.56621E-02 10640   0.310E-01-0.392E-03
CGA:   7    -0.130721266943E+04   -0.40970E-02   -0.40955E-02 10640   0.929E-02-0.297E-03
CGA:   8    -0.130721360376E+04   -0.93434E-03   -0.93545E-03 10640   0.452E-02 0.381E-04
CGA:   9    -0.130721418808E+04   -0.58432E-03   -0.58713E-03 10640   0.185E-02 0.485E-03
CGA:  10    -0.130721433553E+04   -0.14745E-03   -0.16318E-03 10640   0.854E-03 0.286E-03
CGA:  11    -0.130721444806E+04   -0.11253E-03   -0.11698E-03 10640   0.385E-03 0.327E-03
CGA:  12    -0.130721449319E+04   -0.45130E-04   -0.52270E-04 10640   0.172E-03 0.214E-03
CGA:  13    -0.130721451278E+04   -0.19591E-04   -0.20176E-04 10640   0.191E-03 0.456E-04
CGA:  14    -0.130721453795E+04   -0.25169E-04   -0.27300E-04 10640   0.742E-04 0.130E-03
CGA:  15    -0.130721453979E+04   -0.18342E-05   -0.48581E-05 10640   0.495E-04 0.480E-04
   4 F= -.13072145E+04 E0= -.13071956E+04  d E =-.167860E-01  mag=    47.0000
       N       E                     dE             d eps       ncg     rms          ort
SDA:   1    -0.130709477825E+04    0.11976E+00    0.00000E+00 10640   0.374E+00 0.000E+00
CGA:   2    -0.130716546426E+04   -0.70686E-01   -0.70595E-01 10640   0.324E+00 0.146E-02
CGA:   3    -0.130719464255E+04   -0.29178E-01   -0.29183E-01 10640   0.140E+00 0.379E-03
CGA:   4    -0.130721266183E+04   -0.18019E-01   -0.18015E-01 10640   0.645E-01 0.981E-03
CGA:   5    -0.130721764353E+04   -0.49817E-02   -0.49656E-02 10640   0.121E-01-0.274E-03
CGA:   6    -0.130721894883E+04   -0.13053E-02   -0.13062E-02 10640   0.816E-02 0.766E-04
CGA:   7    -0.130721969393E+04   -0.74511E-03   -0.74800E-03 10640   0.203E-02 0.103E-03
CGA:   8    -0.130721993460E+04   -0.24067E-03   -0.24075E-03 10640   0.123E-02 0.393E-04
CGA:   9    -0.130722006592E+04   -0.13132E-03   -0.13420E-03 10640   0.251E-03 0.236E-03
CGA:  10    -0.130722009127E+04   -0.25346E-04   -0.28899E-04 10640   0.141E-03 0.160E-03
CGA:  11    -0.130722010220E+04   -0.10937E-04   -0.12868E-04 10640   0.952E-04 0.726E-04
CGA:  12    -0.130722010472E+04   -0.25123E-05   -0.59008E-05 10640   0.676E-04 0.623E-04
   5 F= -.13072201E+04 E0= -.13072012E+04  d E =-.556493E-02  mag=    47.0000
       N       E                     dE             d eps       ncg     rms          ort
SDA:   1    -0.130692308021E+04    0.29702E+00    0.00000E+00 10640   0.827E+00 0.000E+00
CGA:   2    -0.130709872698E+04   -0.17565E+00   -0.17566E+00 10640   0.829E+00 0.132E-03
CGA:   3    -0.130717283556E+04   -0.74109E-01   -0.74087E-01 10640   0.294E+00 0.461E-03
CGA:   4    -0.130720823963E+04   -0.35404E-01   -0.35394E-01 10640   0.132E+00 0.215E-02
CGA:   5    -0.130721940996E+04   -0.11170E-01   -0.11166E-01 10640   0.228E-01-0.536E-04
CGA:   6    -0.130722228637E+04   -0.28764E-02   -0.28699E-02 10640   0.157E-01 0.541E-03
CGA:   7    -0.130722370056E+04   -0.14142E-02   -0.14152E-02 10640   0.464E-02 0.495E-04
CGA:   8    -0.130722415843E+04   -0.45786E-03   -0.45571E-03 10640   0.275E-02-0.137E-03
CGA:   9    -0.130722452196E+04   -0.36354E-03   -0.36596E-03 10640   0.861E-03-0.947E-04
CGA:  10    -0.130722462991E+04   -0.10795E-03   -0.10913E-03 10640   0.734E-03-0.660E-04
CGA:  11    -0.130722471392E+04   -0.84013E-04   -0.84338E-04 10640   0.379E-03-0.323E-04
CGA:  12    -0.130722474717E+04   -0.33253E-04   -0.33246E-04 10640   0.177E-03-0.349E-06
CGA:  13    -0.130722478397E+04   -0.36798E-04   -0.35756E-04 10640   0.183E-03 0.113E-04
CGA:  14    -0.130722480053E+04   -0.16558E-04   -0.17080E-04 10640   0.668E-04 0.168E-04
CGA:  15    -0.130722481439E+04   -0.13855E-04   -0.16908E-04 10640   0.194E-03-0.269E-04
CGA:  16    -0.130722482285E+04   -0.84680E-05   -0.87041E-05 10640   0.114E-03 0.314E-05
   6 F= -.13072248E+04 E0= -.13072060E+04  d E =-.471814E-02  mag=    47.0000
       N       E                     dE             d eps       ncg     rms          ort
SDA:   1    -0.130672946192E+04    0.49535E+00    0.00000E+00 10640   0.154E+01 0.000E+00
CGA:   2    -0.130703006880E+04   -0.30061E+00   -0.30057E+00 10640   0.839E+00 0.717E-03
CGA:   3    -0.130713810831E+04   -0.10804E+00   -0.10806E+00 10640   0.565E+00-0.965E-03
CGA:   4    -0.130720453298E+04   -0.66425E-01   -0.66425E-01 10640   0.145E+00 0.316E-03
CGA:   5    -0.130721569673E+04   -0.11164E-01   -0.11143E-01 10640   0.440E-01-0.413E-03
CGA:   6    -0.130722135177E+04   -0.56550E-02   -0.56434E-02 10640   0.142E-01 0.114E-02
CGA:   7    -0.130722292292E+04   -0.15711E-02   -0.15721E-02 10640   0.682E-02 0.937E-04
CGA:   8    -0.130722388407E+04   -0.96115E-03   -0.96670E-03 10640   0.340E-02-0.241E-03
CGA:   9    -0.130722418496E+04   -0.30090E-03   -0.29733E-03 10640   0.160E-02-0.121E-03
CGA:  10    -0.130722439593E+04   -0.21097E-03   -0.21834E-03 10640   0.164E-02-0.313E-03
CGA:  11    -0.130722454793E+04   -0.15200E-03   -0.14935E-03 10640   0.580E-03-0.461E-03
CGA:  12    -0.130722460587E+04   -0.57936E-04   -0.60559E-04 10640   0.589E-03-0.985E-04
CGA:  13    -0.130722468524E+04   -0.79376E-04   -0.93301E-04 10640   0.550E-03-0.198E-03
CGA:  14    -0.130722472407E+04   -0.38831E-04   -0.34454E-04 10640   0.248E-03-0.150E-03
CGA:  15    -0.130722475461E+04   -0.30540E-04   -0.43968E-04 10640   0.549E-03-0.112E-03
CGA:  16    -0.130722479235E+04   -0.37741E-04   -0.35302E-04 10640   0.247E-03-0.217E-03
CGA:  17    -0.130722478443E+04    0.79190E-05   -0.39552E-04 10640   0.145E-02-0.347E-03
CGA:  18    -0.130722484813E+04   -0.63692E-04   -0.71557E-04 10640   0.146E-03 0.944E-04
CGA:  19    -0.130722486481E+04   -0.16686E-04   -0.16823E-04 10640   0.121E-03 0.635E-05
CGA:  20    -0.130722487267E+04   -0.78551E-05   -0.52889E-04 10640   0.537E-03-0.155E-03
CGA:  21    -0.130722489273E+04   -0.20063E-04   -0.26548E-04 10640   0.785E-04 0.695E-04
CGA:  22    -0.130722490073E+04   -0.80023E-05   -0.90599E-05 10640   0.543E-04 0.289E-04
CGA:  23    -0.130722491279E+04   -0.12055E-04   -0.14589E-04 10640   0.900E-04-0.427E-04
CGA:  24    -0.130722491420E+04   -0.14069E-05   -0.35000E-05 10640   0.937E-05 0.208E-04
   7 F= -.13072249E+04 E0= -.13072063E+04  d E =-.913419E-04  mag=    47.0000
       N       E                     dE             d eps       ncg     rms          ort
SDA:   1    -0.130702001803E+04    0.20489E+00    0.00000E+00 10640   0.604E+00 0.000E+00
CGA:   2    -0.130715353190E+04   -0.13351E+00   -0.13367E+00 10640   0.304E+00-0.170E-02
CGA:   3    -0.130719966906E+04   -0.46137E-01   -0.46130E-01 10640   0.268E+00 0.544E-03
CGA:   4    -0.130722012816E+04   -0.20459E-01   -0.20495E-01 10640   0.550E-01 0.556E-03
CGA:   5    -0.130722469717E+04   -0.45690E-02   -0.45908E-02 10640   0.175E-01 0.510E-03
CGA:   6    -0.130722697921E+04   -0.22820E-02   -0.22822E-02 10640   0.587E-02 0.261E-03
CGA:   7    -0.130722756596E+04   -0.58675E-03   -0.58568E-03 10640   0.340E-02-0.278E-04
CGA:   8    -0.130722800070E+04   -0.43474E-03   -0.43470E-03 10640   0.174E-02-0.319E-03
CGA:   9    -0.130722816213E+04   -0.16143E-03   -0.15247E-03 10640   0.781E-03-0.280E-03
CGA:  10    -0.130722821815E+04   -0.56019E-04   -0.20474E-03 10640   0.315E-02-0.800E-03
CGA:  11    -0.130722837568E+04   -0.15753E-03   -0.15125E-03 10640   0.309E-03-0.672E-04
CGA:  12    -0.130722842255E+04   -0.46871E-04   -0.49909E-04 10640   0.508E-03-0.903E-04
CGA:  13    -0.130722846296E+04   -0.40409E-04   -0.38177E-04 10640   0.138E-03-0.818E-04
CGA:  14    -0.130722846687E+04   -0.39140E-05   -0.27220E-04 10640   0.805E-03-0.228E-03
CGA:  15    -0.130722852108E+04   -0.54210E-04   -0.49492E-04 10640   0.769E-04-0.614E-04
CGA:  16    -0.130722852278E+04   -0.16990E-05   -0.16408E-04 10640   0.714E-03-0.150E-03
CGA:  17    -0.130722855643E+04   -0.33650E-04   -0.31081E-04 10640   0.206E-04-0.264E-04
CGA:  18    -0.130722856567E+04   -0.92418E-05    0.17929E-05 10640   0.316E-04-0.109E-04
CGA:  19    -0.130722854591E+04    0.19763E-04   -0.10533E-04 10640   0.102E-02-0.152E-03
CGA:  20    -0.130722859112E+04   -0.45205E-04   -0.43823E-04 10640   0.355E-04-0.124E-04
CGA:  21    -0.130722858913E+04    0.19893E-05   -0.87575E-05 10640   0.342E-03-0.965E-04
CGA:  22    -0.130722860975E+04   -0.20623E-04   -0.19355E-04 10640   0.282E-04-0.140E-04
CGA:  23    -0.130722858895E+04    0.20800E-04   -0.92930E-05 10640   0.100E-02-0.147E-03
CGA:  24    -0.130722863180E+04   -0.42853E-04   -0.42935E-04 10640   0.375E-04 0.214E-05
CGA:  25    -0.130722863701E+04   -0.52023E-05   -0.44272E-05 10640   0.324E-04-0.291E-04
   8 F= -.13072286E+04 E0= -.13072101E+04  d E =-.372281E-02  mag=    47.0000
       N       E                     dE             d eps       ncg     rms          ort
SDA:   1    -0.130715638497E+04    0.72247E-01    0.00000E+00 10640   0.262E+00 0.000E+00
CGA:   2    -0.130718400718E+04   -0.27622E-01   -0.27612E-01 10640   0.260E+00 0.265E-03
CGA:   3    -0.130721293440E+04   -0.28927E-01   -0.28914E-01 10640   0.964E-01-0.318E-03
CGA:   4    -0.130722424259E+04   -0.11308E-01   -0.11276E-01 10640   0.408E-01-0.127E-02
CGA:   5    -0.130722913293E+04   -0.48903E-02   -0.48663E-02 10640   0.751E-02-0.127E-02
CGA:   6    -0.130722976476E+04   -0.63182E-03   -0.63198E-03 10640   0.390E-02 0.114E-04
CGA:   7    -0.130723021959E+04   -0.45483E-03   -0.45419E-03 10640   0.156E-02-0.302E-04
CGA:   8    -0.130723036555E+04   -0.14597E-03   -0.14651E-03 10640   0.521E-03 0.150E-04
CGA:   9    -0.130723044302E+04   -0.77466E-04   -0.78713E-04 10640   0.587E-03-0.750E-04
CGA:  10    -0.130723050060E+04   -0.57579E-04   -0.51598E-04 10640   0.213E-03-0.191E-03
CGA:  11    -0.130723054118E+04   -0.40584E-04    0.14796E-03 10640   0.128E-03-0.146E-04
CGA:  12    -0.130723057794E+04   -0.36759E-04    0.48830E-04 10640   0.764E-04-0.482E-05
CGA:  13    -0.130723060938E+04   -0.31439E-04    0.79113E-05 10640   0.844E-04-0.200E-04
CGA:  14    -0.130723064760E+04   -0.38225E-04    0.31253E-05 10640   0.468E-04-0.199E-04
CGA:  15    -0.130723067386E+04   -0.26253E-04    0.13384E-05 10640   0.323E-04-0.716E-05
CGA:  16    -0.130723070027E+04   -0.26409E-04    0.68543E-06 10640   0.169E-04 0.247E-05
CGA:  17    -0.130723071870E+04   -0.18437E-04    0.42566E-06 10640   0.150E-04 0.136E-05
CGA:  18    -0.130723073842E+04   -0.19713E-04    0.30060E-06 10640   0.888E-05 0.238E-05
CGA:  19    -0.130723075350E+04   -0.15085E-04    0.14994E-06 10640   0.769E-05 0.619E-06
CGA:  20    -0.130723076907E+04   -0.15566E-04    0.88714E-07 10640   0.393E-05 0.275E-05
CGA:  21    -0.130723077999E+04   -0.10926E-04    0.52621E-07 10640   0.322E-05 0.202E-05
CGA:  22    -0.130723078281E+04   -0.28115E-05    0.92568E-07 10640   0.406E-05-0.354E-06
   9 F= -.13072308E+04 E0= -.13072122E+04  d E =-.214580E-02  mag=    47.0000
       N       E                     dE             d eps       ncg     rms          ort
SDA:   1    -0.130706527127E+04    0.16551E+00    0.00000E+00 10640   0.431E+00 0.000E+00
CGA:   2    -0.130717056309E+04   -0.10529E+00   -0.10538E+00 10640   0.441E+00-0.710E-03
CGA:   3    -0.130720327276E+04   -0.32710E-01   -0.32716E-01 10640   0.177E+00 0.354E-03
CGA:   4    -0.130722438200E+04   -0.21109E-01   -0.21101E-01 10640   0.597E-01-0.492E-03
CGA:   5    -0.130722947488E+04   -0.50929E-02   -0.50797E-02 10640   0.127E-01-0.220E-03
CGA:   6    -0.130723098314E+04   -0.15083E-02   -0.15130E-02 10640   0.812E-02 0.414E-03
CGA:   7    -0.130723175626E+04   -0.77312E-03   -0.77287E-03 10640   0.222E-02-0.852E-06
CGA:   8    -0.130723203748E+04   -0.28123E-03   -0.28077E-03 10640   0.148E-02-0.160E-03
CGA:   9    -0.130723219195E+04   -0.15447E-03   -0.15326E-03 10640   0.589E-03-0.679E-04
CGA:  10    -0.130723225225E+04   -0.60299E-04   -0.57417E-04 10640   0.454E-03-0.111E-03
CGA:  11    -0.130723225225E+04    0.33069E-08   -0.12740E-03 10640   0.189E-02-0.580E-03
CGA:  12    -0.130723234260E+04   -0.90354E-04   -0.92755E-04 10640   0.302E-03 0.286E-04
CGA:  13    -0.130723238364E+04   -0.41037E-04   -0.41005E-04 10640   0.187E-03 0.495E-04
CGA:  14    -0.130723241346E+04   -0.29817E-04   -0.30125E-04 10640   0.110E-03-0.578E-04
CGA:  15    -0.130723242352E+04   -0.10062E-04   -0.99338E-05 10640   0.920E-04-0.429E-04
CGA:  16    -0.130723242827E+04   -0.47501E-05   -0.13198E-04 10640   0.276E-03-0.835E-04
CGA:  17    -0.130723245403E+04   -0.25763E-04   -0.19764E-04 10640   0.910E-04-0.893E-04
CGA:  18    -0.130723245821E+04   -0.41724E-05   -0.18628E-04 10640   0.448E-03-0.862E-04
CGA:  19    -0.130723248098E+04   -0.22773E-04   -0.21075E-04 10640   0.115E-04-0.171E-04
CGA:  20    -0.130723248171E+04   -0.73220E-06   -0.28164E-05 10640   0.834E-04-0.179E-04
  10 F= -.13072325E+04 E0= -.13072140E+04  d E =-.169891E-02  mag=    47.0000
       N       E                     dE             d eps       ncg     rms          ort
SDA:   1    -0.130696521528E+04    0.26727E+00    0.00000E+00 10640   0.732E+00 0.000E+00
CGA:   2    -0.130711534595E+04   -0.15013E+00   -0.15013E+00 10640   0.870E+00 0.137E-03
CGA:   3    -0.130718164495E+04   -0.66299E-01   -0.66290E-01 10640   0.274E+00 0.149E-02
CGA:   4    -0.130721955221E+04   -0.37907E-01   -0.37905E-01 10640   0.120E+00-0.728E-03
CGA:   5    -0.130722836257E+04   -0.88104E-02   -0.87565E-02 10640   0.248E-01-0.698E-03
CGA:   6    -0.130723089817E+04   -0.25356E-02   -0.25454E-02 10640   0.150E-01 0.311E-03
CGA:   7    -0.130723250602E+04   -0.16079E-02   -0.16100E-02 10640   0.358E-02 0.832E-04
CGA:   8    -0.130723298110E+04   -0.47507E-03   -0.47451E-03 10640   0.278E-02-0.245E-03
CGA:   9    -0.130723324760E+04   -0.26651E-03   -0.26579E-03 10640   0.860E-03-0.209E-04
CGA:  10    -0.130723333902E+04   -0.91420E-04   -0.89803E-04 10640   0.605E-03-0.585E-04
CGA:  11    -0.130723341961E+04   -0.80584E-04   -0.16230E-03 10640   0.149E-02-0.521E-03
CGA:  12    -0.130723349216E+04   -0.72549E-04   -0.76235E-04 10640   0.256E-03 0.440E-04
CGA:  13    -0.130723353636E+04   -0.44208E-04   -0.45042E-04 10640   0.306E-03-0.228E-04
CGA:  14    -0.130723357379E+04   -0.37429E-04   -0.36689E-04 10640   0.177E-03-0.162E-03
CGA:  15    -0.130723358717E+04   -0.13376E-04   -0.13218E-04 10640   0.844E-04-0.238E-05
CGA:  16    -0.130723360990E+04   -0.22733E-04    0.21568E-03 10640   0.426E-04 0.124E-04
CGA:  17    -0.130723363023E+04   -0.20329E-04    0.57690E-05 10640   0.666E-04-0.204E-04
CGA:  18    -0.130723365998E+04   -0.29751E-04    0.10396E-05 10640   0.784E-04 0.455E-05
CGA:  19    -0.130723368870E+04   -0.28711E-04    0.19364E-04 10640   0.168E-03-0.529E-04
CGA:  20    -0.130723370497E+04   -0.16276E-04   -0.13009E-04 10640   0.882E-04-0.583E-04
CGA:  21    -0.130723370116E+04    0.38088E-05   -0.22139E-04 10640   0.666E-03-0.102E-03
CGA:  22    -0.130723372742E+04   -0.26258E-04   -0.27051E-04 10640   0.214E-04 0.854E-05
CGA:  23    -0.130723371918E+04    0.82410E-05   -0.12863E-04 10640   0.395E-03-0.464E-04
CGA:  24    -0.130723375258E+04   -0.33401E-04   -0.25820E-04 10640   0.346E-04-0.790E-04
CGA:  25    -0.130723375459E+04   -0.20099E-05   -0.24263E-05 10640   0.854E-05 0.614E-05
  11 F= -.13072338E+04 E0= -.13072153E+04  d E =-.127288E-02  mag=    47.0000
       N       E                     dE             d eps       ncg     rms          ort
SDA:   1    -0.130709284433E+04    0.14091E+00    0.00000E+00 10640   0.427E+00 0.000E+00
CGA:   2    -0.130717293791E+04   -0.80094E-01   -0.80109E-01 10640   0.388E+00-0.375E-03
CGA:   3    -0.130720198654E+04   -0.29049E-01   -0.28978E-01 10640   0.170E+00 0.382E-03
CGA:   4    -0.130722758370E+04   -0.25597E-01   -0.25597E-01 10640   0.542E-01 0.388E-03
CGA:   5    -0.130723180757E+04   -0.42239E-02   -0.42750E-02 10640   0.130E-01 0.734E-03
CGA:   6    -0.130723336434E+04   -0.15568E-02   -0.15616E-02 10640   0.759E-02 0.177E-03
CGA:   7    -0.130723401685E+04   -0.65250E-03   -0.64994E-03 10640   0.195E-02-0.358E-04
CGA:   8    -0.130723429553E+04   -0.27868E-03   -0.27843E-03 10640   0.105E-02 0.214E-03
CGA:   9    -0.130723440102E+04   -0.10549E-03   -0.10656E-03 10640   0.487E-03 0.222E-04
CGA:  10    -0.130723445503E+04   -0.54012E-04   -0.55369E-04 10640   0.258E-03 0.481E-04
CGA:  11    -0.130723447126E+04   -0.16225E-04   -0.22910E-04 10640   0.774E-04 0.116E-03
CGA:  12    -0.130723447637E+04   -0.51127E-05   -0.90112E-05 10640   0.552E-04 0.706E-04
  12 F= -.13072345E+04 E0= -.13072160E+04  d E =-.721779E-03  mag=    47.0000
       N       E                     dE             d eps       ncg     rms          ort
SDA:   1    -0.130719992345E+04    0.34548E-01    0.00000E+00 10640   0.107E+00 0.000E+00
CGA:   2    -0.130721957979E+04   -0.19656E-01   -0.19680E-01 10640   0.998E-01-0.408E-03
CGA:   3    -0.130722700871E+04   -0.74289E-02   -0.74472E-02 10640   0.412E-01 0.381E-03
CGA:   4    -0.130723314440E+04   -0.61357E-02   -0.61238E-02 10640   0.145E-01 0.665E-03
CGA:   5    -0.130723431362E+04   -0.11692E-02   -0.11657E-02 10640   0.357E-02-0.593E-04
CGA:   6    -0.130723471879E+04   -0.40517E-03   -0.40536E-03 10640   0.197E-02 0.148E-04
CGA:   7    -0.130723488531E+04   -0.16652E-03   -0.16766E-03 10640   0.513E-03 0.280E-04
CGA:   8    -0.130723496695E+04   -0.81640E-04   -0.81359E-04 10640   0.324E-03 0.938E-05
CGA:   9    -0.130723499798E+04   -0.31031E-04   -0.30633E-04 10640   0.124E-03-0.113E-04
CGA:  10    -0.130723501068E+04   -0.12701E-04   -0.12829E-04 10640   0.797E-04 0.697E-05
CGA:  11    -0.130723501800E+04   -0.73196E-05   -0.80368E-05 10640   0.221E-04 0.246E-04
  13 F= -.13072350E+04 E0= -.13072166E+04  d E =-.541631E-03  mag=    47.0000
       N       E                     dE             d eps       ncg     rms          ort
SDA:   1    -0.130719856331E+04    0.36447E-01    0.00000E+00 10640   0.111E+00 0.000E+00
CGA:   2    -0.130721939513E+04   -0.20832E-01   -0.20844E-01 10640   0.963E-01-0.173E-03
CGA:   3    -0.130722733165E+04   -0.79365E-02   -0.79463E-02 10640   0.421E-01 0.329E-03
CGA:   4    -0.130723366237E+04   -0.63307E-02   -0.63136E-02 10640   0.126E-01 0.675E-03
CGA:   5    -0.130723474225E+04   -0.10799E-02   -0.10694E-02 10640   0.330E-02-0.241E-03
CGA:   6    -0.130723511027E+04   -0.36802E-03   -0.37000E-03 10640   0.147E-02 0.226E-03
CGA:   7    -0.130723525990E+04   -0.14963E-03   -0.15043E-03 10640   0.534E-03 0.304E-04
CGA:   8    -0.130723534469E+04   -0.84789E-04   -0.91605E-04 10640   0.599E-03-0.146E-03
CGA:   9    -0.130723537042E+04   -0.25730E-04   -0.28973E-04 10640   0.155E-03 0.569E-04
CGA:  10    -0.130723537687E+04   -0.64531E-05   -0.96095E-05 10640   0.923E-04 0.492E-04
CGA:  11    -0.130723539013E+04   -0.13265E-04   -0.13444E-04 10640   0.906E-04 0.247E-04
CGA:  12    -0.130723540472E+04   -0.14590E-04   -0.15855E-04 10640   0.105E-03-0.616E-04
CGA:  13    -0.130723540697E+04   -0.22411E-05   -0.47539E-05 10640   0.293E-04 0.344E-04
  14 F= -.13072354E+04 E0= -.13072170E+04  d E =-.388965E-03  mag=    47.0000
       N       E                     dE             d eps       ncg     rms          ort
SDA:   1    -0.130461135828E+04    0.26240E+01    0.00000E+00 10640   0.763E+01 0.000E+00
CGA:   2    -0.130611947490E+04   -0.15081E+01   -0.15049E+01 10640   0.627E+01 0.390E-01
CGA:   3    -0.130670518340E+04   -0.58571E+00   -0.58382E+00 10640   0.320E+01-0.214E-01
CGA:   4    -0.130706556595E+04   -0.36038E+00   -0.36039E+00 10640   0.152E+01 0.400E-02
CGA:   5    -0.130718027038E+04   -0.11470E+00   -0.11468E+00 10640   0.244E+00 0.367E-02
CGA:   6    -0.130720787415E+04   -0.27604E-01   -0.27603E-01 10640   0.145E+00-0.727E-03
CGA:   7    -0.130722303373E+04   -0.15160E-01   -0.15166E-01 10640   0.414E-01 0.919E-03
CGA:   8    -0.130722741834E+04   -0.43846E-02   -0.43828E-02 10640   0.250E-01-0.202E-03
CGA:   9    -0.130723070809E+04   -0.32897E-02   -0.33186E-02 10640   0.113E-01-0.135E-02
CGA:  10    -0.130723175123E+04   -0.10431E-02   -0.10308E-02 10640   0.602E-02-0.725E-03
CGA:  11    -0.130723260435E+04   -0.85312E-03   -0.90702E-03 10640   0.675E-02-0.111E-02
CGA:  12    -0.130723309831E+04   -0.49397E-03   -0.47263E-03 10640   0.185E-02-0.736E-03
CGA:  13    -0.130723334560E+04   -0.24729E-03   -0.64005E-03 10640   0.988E-02-0.144E-02
CGA:  14    -0.130723390739E+04   -0.56178E-03   -0.55326E-03 10640   0.801E-03-0.106E-03
CGA:  15    -0.130723402988E+04   -0.12249E-03   -0.13033E-03 10640   0.164E-02-0.192E-03
CGA:  16    -0.130723422379E+04   -0.19391E-03   -0.27746E-03 10640   0.168E-02-0.868E-03
CGA:  17    -0.130723437772E+04   -0.15393E-03   -0.14853E-03 10640   0.909E-03-0.125E-03
CGA:  18    -0.130723450403E+04   -0.12631E-03   -0.13036E-03 10640   0.934E-03-0.153E-03
CGA:  19    -0.130723458358E+04   -0.79545E-04   -0.72351E-04 10640   0.308E-03-0.197E-03
CGA:  20    -0.130723465289E+04   -0.69314E-04    0.13401E-03 10640   0.297E-03 0.415E-04
CGA:  21    -0.130723476363E+04   -0.11074E-03    0.75649E-04 10640   0.125E-03 0.195E-03
CGA:  22    -0.130723446589E+04    0.29773E-03   -0.16049E-03 10640   0.101E-01-0.589E-03
CGA:  23    -0.130723493288E+04   -0.46699E-03   -0.46208E-03 10640   0.328E-03-0.237E-04
CGA:  24    -0.130723496086E+04   -0.27980E-04   -0.23772E-04 10640   0.116E-03-0.275E-04
CGA:  25    -0.130723500762E+04   -0.46766E-04    0.84986E-03 10640   0.169E-03 0.121E-04
CGA:  26    -0.130723486984E+04    0.13778E-03   -0.11076E-03 10640   0.642E-02-0.665E-03
CGA:  27    -0.130723516367E+04   -0.29383E-03   -0.29527E-03 10640   0.482E-03 0.110E-04
CGA:  28    -0.130723522576E+04   -0.62094E-04   -0.57174E-04 10640   0.351E-03-0.452E-04
CGA:  29    -0.130723529510E+04   -0.69344E-04   -0.68560E-04 10640   0.369E-03-0.152E-03
CGA:  30    -0.130723531159E+04   -0.16488E-04   -0.10767E-04 10640   0.102E-03-0.339E-04
CGA:  31    -0.130723532207E+04   -0.10479E-04   -0.81591E-05 10640   0.134E-03-0.187E-04
CGA:  32    -0.130723534453E+04   -0.22461E-04   -0.19865E-04 10640   0.280E-03-0.107E-03
CGA:  33    -0.130723537502E+04   -0.30491E-04   -0.24247E-04 10640   0.846E-04-0.525E-04
CGA:  34    -0.130723538753E+04   -0.12506E-04   -0.11980E-04 10640   0.831E-04-0.217E-04
CGA:  35    -0.130723540024E+04   -0.12707E-04   -0.98014E-05 10640   0.184E-03-0.750E-04
CGA:  36    -0.130723541056E+04   -0.10321E-04   -0.93200E-05 10640   0.310E-04-0.670E-05
CGA:  37    -0.130723542362E+04   -0.13059E-04    0.17159E-04 10640   0.325E-04-0.566E-05
CGA:  38    -0.130723543867E+04   -0.15053E-04    0.49426E-05 10640   0.555E-04-0.223E-04
CGA:  39    -0.130723544488E+04   -0.62142E-05   -0.47617E-05 10640   0.417E-04-0.141E-04
CGA:  40    -0.130723545773E+04   -0.12846E-04    0.21946E-04 10640   0.430E-04-0.169E-04
CGA:  41    -0.130723547204E+04   -0.14312E-04    0.44345E-05 10640   0.882E-04-0.365E-04
CGA:  42    -0.130723547924E+04   -0.72012E-05   -0.67405E-05 10640   0.306E-04-0.420E-05
CGA:  43    -0.130723528121E+04    0.19803E-03   -0.10734E-03 10640   0.371E-02-0.242E-03
CGA:  44    -0.130723544877E+04   -0.16756E-03   -0.17250E-03 10640   0.456E-03 0.193E-04
CGA:  45    -0.130723552698E+04   -0.78205E-04   -0.77862E-04 10640   0.121E-03-0.240E-05
CGA:  46    -0.130723554153E+04   -0.14555E-04   -0.94821E-05 10640   0.105E-04-0.224E-04
CGA:  47    -0.130723554217E+04   -0.63992E-06   -0.65763E-06 10640   0.329E-05 0.926E-07
  15 F= -.13072355E+04 E0= -.13072173E+04  d E =-.135209E-03  mag=    47.0000
       N       E                     dE             d eps       ncg     rms          ort
SDA:   1    -0.130636504534E+04    0.87050E+00    0.00000E+00 10640   0.254E+01 0.000E+00
CGA:   2    -0.130688674768E+04   -0.52170E+00   -0.52208E+00 10640   0.190E+01 0.239E-02
CGA:   3    -0.130705845949E+04   -0.17171E+00   -0.17048E+00 10640   0.112E+01 0.930E-02
CGA:   4    -0.130719325102E+04   -0.13479E+00   -0.13465E+00 10640   0.367E+00-0.127E-03
CGA:   5    -0.130722183389E+04   -0.28583E-01   -0.28532E-01 10640   0.760E-01 0.169E-02
CGA:   6    -0.130723094291E+04   -0.91090E-02   -0.90641E-02 10640   0.520E-01-0.271E-03
CGA:   7    -0.130723523910E+04   -0.42962E-02   -0.42765E-02 10640   0.124E-01-0.315E-04
CGA:   8    -0.130723691841E+04   -0.16793E-02   -0.17111E-02 10640   0.702E-02 0.332E-03
CGA:   9    -0.130723777139E+04   -0.85298E-03   -0.84919E-03 10640   0.247E-02-0.291E-04
CGA:  10    -0.130723801143E+04   -0.24004E-03   -0.26030E-03 10640   0.166E-02 0.171E-03
CGA:  11    -0.130723820536E+04   -0.19393E-03   -0.21026E-03 10640   0.673E-03 0.161E-03
CGA:  12    -0.130723827659E+04   -0.71232E-04   -0.76947E-04 10640   0.449E-03 0.513E-04
CGA:  13    -0.130723832844E+04   -0.51854E-04   -0.63005E-04 10640   0.243E-03 0.141E-03
CGA:  14    -0.130723835246E+04   -0.24021E-04   -0.33855E-04 10640   0.146E-03 0.984E-04
CGA:  15    -0.130723837219E+04   -0.19726E-04   -0.26283E-04 10640   0.793E-04 0.900E-04
CGA:  16    -0.130723837340E+04   -0.12125E-05   -0.56063E-05 10640   0.474E-04 0.348E-04
  16 F= -.13072384E+04 E0= -.13072200E+04  d E =-.283123E-02  mag=    47.0000
       N       E                     dE             d eps       ncg     rms          ort
SDA:   1    -0.130712721327E+04    0.11116E+00    0.00000E+00 10640   0.357E+00 0.000E+00
CGA:   2    -0.130719416851E+04   -0.66955E-01   -0.66955E-01 10640   0.211E+00 0.222E-03
CGA:   3    -0.130721661842E+04   -0.22450E-01   -0.22436E-01 10640   0.143E+00-0.134E-03
CGA:   4    -0.130723293359E+04   -0.16315E-01   -0.16389E-01 10640   0.532E-01 0.116E-02
CGA:   5    -0.130723663341E+04   -0.36998E-02   -0.37587E-02 10640   0.110E-01 0.540E-03
CGA:   6    -0.130723798887E+04   -0.13555E-02   -0.13549E-02 10640   0.582E-02-0.199E-06
CGA:   7    -0.130723850588E+04   -0.51701E-03   -0.52980E-03 10640   0.160E-02 0.167E-03
CGA:   8    -0.130723869265E+04   -0.18677E-03   -0.19220E-03 10640   0.110E-02 0.111E-03
CGA:   9    -0.130723880947E+04   -0.11681E-03   -0.11954E-03 10640   0.316E-03 0.443E-04
CGA:  10    -0.130723883884E+04   -0.29367E-04   -0.33794E-04 10640   0.138E-03 0.768E-04
CGA:  11    -0.130723885216E+04   -0.13320E-04   -0.17743E-04 10640   0.495E-04 0.817E-04
CGA:  12    -0.130723885311E+04   -0.95906E-06   -0.35012E-05 10640   0.344E-04 0.301E-04
  17 F= -.13072389E+04 E0= -.13072204E+04  d E =-.479714E-03  mag=    47.0000
       N       E                     dE             d eps       ncg     rms          ort
SDA:   1    -0.130720983034E+04    0.29022E-01    0.00000E+00 10640   0.891E-01 0.000E+00
CGA:   2    -0.130722668219E+04   -0.16852E-01   -0.16838E-01 10640   0.845E-01 0.357E-03
CGA:   3    -0.130723299239E+04   -0.63102E-02   -0.62943E-02 10640   0.359E-01-0.826E-04
CGA:   4    -0.130723844476E+04   -0.54524E-02   -0.54565E-02 10640   0.115E-01-0.538E-03
CGA:   5    -0.130723936942E+04   -0.92466E-03   -0.91949E-03 10640   0.292E-02-0.715E-04
CGA:   6    -0.130723969618E+04   -0.32676E-03   -0.32599E-03 10640   0.165E-02-0.245E-04
CGA:   7    -0.130723983939E+04   -0.14321E-03   -0.14404E-03 10640   0.436E-03 0.174E-04
CGA:   8    -0.130723988658E+04   -0.47190E-04   -0.49103E-04 10640   0.220E-03 0.732E-04
CGA:   9    -0.130723991630E+04   -0.29717E-04   -0.29949E-04 10640   0.994E-04 0.119E-04
CGA:  10    -0.130723992360E+04   -0.72990E-05   -0.85414E-05 10640   0.417E-04 0.231E-04
  18 F= -.13072399E+04 E0= -.13072215E+04  d E =-.107048E-02  mag=    47.0000
       N       E                     dE             d eps       ncg     rms          ort
SDA:   1    -0.130718648223E+04    0.53434E-01    0.00000E+00 10640   0.156E+00 0.000E+00
CGA:   2    -0.130721727872E+04   -0.30796E-01   -0.30798E-01 10640   0.152E+00 0.135E-04
CGA:   3    -0.130722953073E+04   -0.12252E-01   -0.12233E-01 10640   0.639E-01-0.521E-04
CGA:   4    -0.130723762641E+04   -0.80957E-02   -0.80962E-02 10640   0.282E-01 0.168E-03
CGA:   5    -0.130723982017E+04   -0.21938E-02   -0.22054E-02 10640   0.534E-02 0.247E-03
CGA:   6    -0.130724037441E+04   -0.55424E-03   -0.55353E-03 10640   0.313E-02-0.250E-04
CGA:   7    -0.130724071825E+04   -0.34384E-03   -0.34323E-03 10640   0.929E-03-0.351E-04
CGA:   8    -0.130724080114E+04   -0.82888E-04   -0.85594E-04 10640   0.405E-03 0.842E-04
CGA:   9    -0.130724087759E+04   -0.76455E-04   -0.80790E-04 10640   0.347E-03-0.735E-04
CGA:  10    -0.130724089672E+04   -0.19131E-04   -0.19557E-04 10640   0.109E-03 0.748E-05
CGA:  11    -0.130724090644E+04   -0.97130E-05   -0.10762E-04 10640   0.796E-04 0.387E-04
CGA:  12    -0.130724091895E+04   -0.12509E-04   -0.12576E-04 10640   0.530E-04 0.108E-04
CGA:  13    -0.130724092477E+04   -0.58253E-05   -0.58287E-05 10640   0.414E-04 0.978E-08
  19 F= -.13072409E+04 E0= -.13072225E+04  d E =-.100117E-02  mag=    47.0000
       N       E                     dE             d eps       ncg     rms          ort
SDA:   1    -0.130622407052E+04    0.10168E+01    0.00000E+00 10640   0.318E+01 0.000E+00
CGA:   2    -0.130677660342E+04   -0.55253E+00   -0.55268E+00 10640   0.251E+01-0.118E-02
CGA:   3    -0.130702971213E+04   -0.25311E+00   -0.25312E+00 10640   0.122E+01 0.154E-02
CGA:   4    -0.130716497719E+04   -0.13527E+00   -0.13528E+00 10640   0.687E+00 0.143E-02
CGA:   5    -0.130722085977E+04   -0.55883E-01   -0.55816E-01 10640   0.104E+00-0.989E-03
CGA:   6    -0.130723117594E+04   -0.10316E-01   -0.10310E-01 10640   0.550E-01-0.272E-03
CGA:   7    -0.130723754095E+04   -0.63650E-02   -0.63654E-02 10640   0.191E-01 0.317E-03
CGA:   8    -0.130723933640E+04   -0.17954E-02   -0.17843E-02 10640   0.987E-02-0.427E-03
CGA:   9    -0.130724069870E+04   -0.13623E-02   -0.13759E-02 10640   0.542E-02-0.514E-03
CGA:  10    -0.130724118486E+04   -0.48616E-03   -0.48295E-03 10640   0.195E-02-0.132E-03
CGA:  11    -0.130724153736E+04   -0.35249E-03   -0.42814E-03 10640   0.412E-02-0.694E-03
CGA:  12    -0.130724172548E+04   -0.18812E-03   -0.16753E-03 10640   0.118E-02-0.355E-03
CGA:  13    -0.130724180856E+04   -0.83079E-04   -0.78763E-04 10640   0.121E-02-0.940E-04
CGA:  14    -0.130724197838E+04   -0.16982E-03   -0.20533E-03 10640   0.253E-02-0.533E-03
CGA:  15    -0.130724210318E+04   -0.12480E-03   -0.91330E-04 10640   0.146E-02-0.616E-03
CGA:  16    -0.130724218049E+04   -0.77307E-04   -0.54409E-04 10640   0.719E-03-0.340E-03
CGA:  17    -0.130724224570E+04   -0.65210E-04   -0.87675E-04 10640   0.252E-02-0.502E-03
CGA:  18    -0.130724238666E+04   -0.14096E-03   -0.14060E-03 10640   0.400E-03-0.297E-05
CGA:  19    -0.130724243429E+04   -0.47632E-04   -0.47966E-04 10640   0.468E-03-0.463E-04
CGA:  20    -0.130724251098E+04   -0.76682E-04   -0.12429E-03 10640   0.473E-03-0.255E-03
CGA:  21    -0.130724253991E+04   -0.28938E-04   -0.31072E-04 10640   0.172E-03 0.380E-04
CGA:  22    -0.130724257504E+04   -0.35127E-04   -0.37515E-04 10640   0.250E-03-0.293E-04
CGA:  23    -0.130724259976E+04   -0.24723E-04   -0.23054E-04 10640   0.986E-04-0.129E-03
CGA:  24    -0.130724260922E+04   -0.94558E-05   -0.92413E-05 10640   0.879E-04-0.717E-05
CGA:  25    -0.130724245968E+04    0.14954E-03   -0.81105E-04 10640   0.258E-02-0.334E-03
CGA:  26    -0.130724259248E+04   -0.13280E-03   -0.12809E-03 10640   0.461E-03-0.235E-04
CGA:  27    -0.130724268053E+04   -0.88046E-04   -0.87410E-04 10640   0.344E-03-0.283E-04
CGA:  28    -0.130724270741E+04   -0.26882E-04   -0.27423E-04 10640   0.294E-04 0.462E-05
CGA:  29    -0.130724271366E+04   -0.62489E-05   -0.55250E-05 10640   0.971E-04-0.352E-04
  20 F= -.13072427E+04 E0= -.13072245E+04  d E =-.178889E-02  mag=    47.0000
       N       E                     dE             d eps       ncg     rms          ort
SDA:   1    -0.130712137179E+04    0.12134E+00    0.00000E+00 10640   0.408E+00 0.000E+00
CGA:   2    -0.130719216993E+04   -0.70798E-01   -0.70787E-01 10640   0.303E+00-0.323E-03
CGA:   3    -0.130721544812E+04   -0.23278E-01   -0.23349E-01 10640   0.153E+00 0.158E-03
CGA:   4    -0.130723886321E+04   -0.23415E-01   -0.23458E-01 10640   0.484E-01 0.114E-02
CGA:   5    -0.130724282840E+04   -0.39652E-02   -0.39496E-02 10640   0.140E-01-0.110E-03
CGA:   6    -0.130724430965E+04   -0.14813E-02   -0.14737E-02 10640   0.636E-02-0.865E-04
CGA:   7    -0.130724490110E+04   -0.59145E-03   -0.59678E-03 10640   0.204E-02 0.697E-04
CGA:   8    -0.130724519067E+04   -0.28957E-03   -0.28240E-03 10640   0.155E-02-0.187E-03
CGA:   9    -0.130724534110E+04   -0.15043E-03   -0.14434E-03 10640   0.477E-03-0.848E-04
CGA:  10    -0.130724538570E+04   -0.44600E-04   -0.43513E-04 10640   0.318E-03-0.146E-04
CGA:  11    -0.130724544402E+04   -0.58318E-04   -0.73862E-04 10640   0.485E-03-0.211E-03
CGA:  12    -0.130724547075E+04   -0.26729E-04   -0.26117E-04 10640   0.102E-03-0.487E-05
CGA:  13    -0.130724548485E+04   -0.14095E-04   -0.33373E-04 10640   0.516E-03-0.115E-03
CGA:  14    -0.130724551260E+04   -0.27753E-04   -0.25674E-04 10640   0.577E-04-0.163E-04
CGA:  15    -0.130724552152E+04   -0.89206E-05   -0.84900E-05 10640   0.927E-04-0.307E-04
  21 F= -.13072455E+04 E0= -.13072273E+04  d E =-.280786E-02  mag=    47.0000
       N       E                     dE             d eps       ncg     rms          ort
SDA:   1    -0.130723775825E+04    0.77543E-02    0.00000E+00 10640   0.300E-01 0.000E+00
CGA:   2    -0.130724094999E+04   -0.31917E-02   -0.31921E-02 10640   0.293E-01 0.418E-04
CGA:   3    -0.130724382582E+04   -0.28758E-02   -0.28785E-02 10640   0.830E-02 0.625E-04
CGA:   4    -0.130724530316E+04   -0.14773E-02   -0.14793E-02 10640   0.395E-02-0.816E-04
CGA:   5    -0.130724566228E+04   -0.35912E-03   -0.35624E-03 10640   0.737E-03-0.420E-04
CGA:   6    -0.130724574157E+04   -0.79285E-04   -0.79174E-04 10640   0.504E-03-0.201E-05
CGA:   7    -0.130724578768E+04   -0.46110E-04   -0.45111E-04 10640   0.133E-03-0.162E-04
CGA:   8    -0.130724580753E+04   -0.19852E-04   -0.20394E-04 10640   0.166E-03-0.478E-04
CGA:   9    -0.130724581534E+04   -0.78068E-05   -0.80469E-05 10640   0.520E-04 0.340E-05
  22 F= -.13072458E+04 E0= -.13072276E+04  d E =-.293817E-03  mag=    47.0000
