 vasp.6.1.2 22Jul20 (build Apr 14 2021 21:39:43) complex                        
  
 executed on             LinuxIFC date 2022.04.24  12:23:20
 running on   64 total cores
 distrk:  each k-point on   64 cores,    1 groups
 distr:  one band on NCORE=  16 cores,    4 groups


--------------------------------------------------------------------------------------------------------


 INCAR:
 POTCAR:    PAW_PBE Li 17Jan2003                  
 POTCAR:    PAW_PBE Mn_pv 02Aug2007               
 POTCAR:    PAW_PBE O 08Apr2002                   
 POTCAR:    PAW_PBE Li 17Jan2003                  
   SHA256 =  3d9d9bfd1dd25b20a3b919cb3191e6ef627605783dc2e149b9290ff31c32aa6e Li/POTCAR             
   COPYR  = (c) Copyright 17Jan2003 Georg Kresse                                                    
   COPYR  = This file is part of the software VASP. Any use, copying, and all other rights are regul
   COPYR  = If you do not have a valid VASP license, you may not use, copy or distribute this file. 
   VRHFIN =Li: s1p0                                                                                 
   LEXCH  = PE                                                                                      
   EATOM  =     5.3001 eV,    0.3895 Ry                                                             
                                                                                                    
   TITEL  = PAW_PBE Li 17Jan2003                                                                    
   LULTRA =        F    use ultrasoft PP ?                                                          
   IUNSCR =        1    unscreen: 0-lin 1-nonlin 2-no                                               
   RPACOR =    1.500    partial core radius                                                         
   POMASS =    7.010; ZVAL   =    1.000    mass and valenz                                          
   RCORE  =    2.050    outmost cutoff radius                                                       
   RWIGS  =    2.600; RWIGS  =    1.376    wigner-seitz radius (au A)                               
   ENMAX  =  140.000; ENMIN  =  100.000 eV                                                          
   ICORE  =        2    local potential                                                             
   LCOR   =        T    correct aug charges                                                         
   LPAW   =        T    paw PP                                                                      
   EAUG   =  331.638                                                                                
   DEXC   =    0.000                                                                                
   RMAX   =    2.098    core radius for proj-oper                                                   
   RAUG   =    1.300    factor for augmentation sphere                                              
   RDEP   =    2.094    radius for radial grids                                                     
   RDEPT  =    1.810    core radius for aug-charge                                                  
                                                                                                    
   Atomic configuration                                                                             
    4 entries                                                                                       
     n  l   j            E        occ.                                                              
     1  0  0.50       -51.8549   2.0000                                                             
     2  0  0.50        -2.8742   1.0000                                                             
     2  1  0.50        -1.3606   0.0000                                                             
     3  2  1.50        -1.3606   0.0000                                                             
   Description                                                                                      
     l       E           TYP  RCUT    TYP  RCUT                                                     
     0     -2.8742052     23  2.050                                                                 
     0     27.2116520     23  2.050                                                                 
     1     -1.3605826     23  2.050                                                                 
     2     -1.3605826     23  2.050                                                                 
  local pseudopotential read in
  partial core-charges read in
  partial kinetic energy density read in
  atomic valenz-charges read in
  non local Contribution for L=           0  read in
    real space projection operators read in
  non local Contribution for L=           0  read in
    real space projection operators read in
  non local Contribution for L=           1  read in
    real space projection operators read in
    PAW grid and wavefunctions read in
 
   number of l-projection  operators is LMAX  =           3
   number of lm-projection operators is LMMAX =           5
 
 POTCAR:    PAW_PBE Mn_pv 02Aug2007               
   SHA256 =  c79df11ab18a0e3347296df6ded47bb5f18b2e4fbd621d0b5280d2eae24c30a0 Mn_pv/POTCAR          
   COPYR  = (c) Copyright 02Aug2007 Georg Kresse                                                    
   COPYR  = This file is part of the software VASP. Any use, copying, and all other rights are regul
   COPYR  = If you do not have a valid VASP license, you may not use, copy or distribute this file. 
   VRHFIN =Mn: 3p4s3d                                                                               
   LEXCH  = PE                                                                                      
   EATOM  =  2025.2664 eV,  148.8529 Ry                                                             
                                                                                                    
   TITEL  = PAW_PBE Mn_pv 02Aug2007                                                                 
   LULTRA =        F    use ultrasoft PP ?                                                          
   IUNSCR =        1    unscreen: 0-lin 1-nonlin 2-no                                               
   RPACOR =    2.080    partial core radius                                                         
   POMASS =   54.938; ZVAL   =   13.000    mass and valenz                                          
   RCORE  =    2.300    outmost cutoff radius                                                       
   RWIGS  =    2.500; RWIGS  =    1.323    wigner-seitz radius (au A)                               
   ENMAX  =  269.864; ENMIN  =  202.398 eV                                                          
   ICORE  =        3    local potential                                                             
   LCOR   =        T    correct aug charges                                                         
   LPAW   =        T    paw PP                                                                      
   EAUG   =  569.085                                                                                
   DEXC   =    0.000                                                                                
   RMAX   =    2.343    core radius for proj-oper                                                   
   RAUG   =    1.300    factor for augmentation sphere                                              
   RDEP   =    2.338    radius for radial grids                                                     
   RDEPT  =    1.798    core radius for aug-charge                                                  
                                                                                                    
   Atomic configuration                                                                             
    8 entries                                                                                       
     n  l   j            E        occ.                                                              
     1  0  0.50     -6424.8287   2.0000                                                             
     2  0  0.50      -739.1154   2.0000                                                             
     2  1  1.50      -625.3949   6.0000                                                             
     3  0  0.50       -81.6100   2.0000                                                             
     3  1  1.50       -50.4667   6.0000                                                             
     3  2  2.50        -3.3745   6.0000                                                             
     4  0  0.50        -4.1331   1.0000                                                             
     4  3  2.50        -1.3606   0.0000                                                             
   Description                                                                                      
     l       E           TYP  RCUT    TYP  RCUT                                                     
     1    -50.4666628     23  2.000                                                                 
     1     -1.3605826     23  2.000                                                                 
     2     -3.3744729     23  2.300                                                                 
     2     -4.7350555     23  2.300                                                                 
     0     -4.1331431     23  2.300                                                                 
     0      7.6656591     23  2.300                                                                 
     3      9.5240782     23  2.300                                                                 
  local pseudopotential read in
  partial core-charges read in
  partial kinetic energy density read in
  atomic valenz-charges read in
  non local Contribution for L=           1  read in
    real space projection operators read in
  non local Contribution for L=           1  read in
    real space projection operators read in
  non local Contribution for L=           2  read in
    real space projection operators read in
  non local Contribution for L=           2  read in
    real space projection operators read in
  non local Contribution for L=           0  read in
    real space projection operators read in
  non local Contribution for L=           0  read in
    real space projection operators read in
    PAW grid and wavefunctions read in
 
   number of l-projection  operators is LMAX  =           6
   number of lm-projection operators is LMMAX =          18
 
 POTCAR:    PAW_PBE O 08Apr2002                   
   SHA256 =  818f92134a0a090dccd8ba1447fa70422a3b330e708bb4f08108d8ae51209ddf O/POTCAR              
   COPYR  = (c) Copyright 08Apr2002 Georg Kresse                                                    
   COPYR  = This file is part of the software VASP. Any use, copying, and all other rights are regul
   COPYR  = If you do not have a valid VASP license, you may not use, copy or distribute this file. 
   VRHFIN =O: s2p4                                                                                  
   LEXCH  = PE                                                                                      
   EATOM  =   432.3788 eV,   31.7789 Ry                                                             
                                                                                                    
   TITEL  = PAW_PBE O 08Apr2002                                                                     
   LULTRA =        F    use ultrasoft PP ?                                                          
   IUNSCR =        1    unscreen: 0-lin 1-nonlin 2-no                                               
   RPACOR =    1.200    partial core radius                                                         
   POMASS =   16.000; ZVAL   =    6.000    mass and valenz                                          
   RCORE  =    1.520    outmost cutoff radius                                                       
   RWIGS  =    1.550; RWIGS  =    0.820    wigner-seitz radius (au A)                               
   ENMAX  =  400.000; ENMIN  =  300.000 eV                                                          
   ICORE  =        2    local potential                                                             
   LCOR   =        T    correct aug charges                                                         
   LPAW   =        T    paw PP                                                                      
   EAUG   =  605.392                                                                                
   DEXC   =    0.000                                                                                
   RMAX   =    1.553    core radius for proj-oper                                                   
   RAUG   =    1.300    factor for augmentation sphere                                              
   RDEP   =    1.550    radius for radial grids                                                     
   RDEPT  =    1.329    core radius for aug-charge                                                  
                                                                                                    
   Atomic configuration                                                                             
    4 entries                                                                                       
     n  l   j            E        occ.                                                              
     1  0  0.50      -514.6923   2.0000                                                             
     2  0  0.50       -23.9615   2.0000                                                             
     2  1  0.50        -9.0305   4.0000                                                             
     3  2  1.50        -9.5241   0.0000                                                             
   Description                                                                                      
     l       E           TYP  RCUT    TYP  RCUT                                                     
     0    -23.9615318     23  1.200                                                                 
     0     -9.5240782     23  1.200                                                                 
     1     -9.0304911     23  1.520                                                                 
     1      8.1634956     23  1.520                                                                 
     2     -9.5240782      7  1.500                                                                 
  local pseudopotential read in
  partial core-charges read in
  partial kinetic energy density read in
  kinetic energy density of atom read in
  atomic valenz-charges read in
  non local Contribution for L=           0  read in
    real space projection operators read in
  non local Contribution for L=           0  read in
    real space projection operators read in
  non local Contribution for L=           1  read in
    real space projection operators read in
  non local Contribution for L=           1  read in
    real space projection operators read in
    PAW grid and wavefunctions read in
 
   number of l-projection  operators is LMAX  =           4
   number of lm-projection operators is LMMAX =           8
 
 Optimization of the real space projectors (new method)

 maximal supplied QI-value         = 18.33
 optimisation between [QCUT,QGAM] = [ 11.55, 23.28] = [ 37.34,151.76] Ry 
 Optimized for a Real-space Cutoff    1.14 Angstroem

   l    n(q)    QCUT    max X(q) W(low)/X(q) W(high)/X(q)  e(spline) 
   0      8    11.548    33.825    0.19E-03    0.87E-04    0.75E-07
   0      8    11.548     8.944    0.15E-03    0.55E-04    0.54E-07
   1      7    11.548     4.214    0.21E-03    0.27E-03    0.42E-07
 Optimization of the real space projectors (new method)

 maximal supplied QI-value         = 16.25
 optimisation between [QCUT,QGAM] = [ 11.54, 23.24] = [ 37.28,151.24] Ry 
 Optimized for a Real-space Cutoff    1.45 Angstroem

   l    n(q)    QCUT    max X(q) W(low)/X(q) W(high)/X(q)  e(spline) 
   1     10    11.539     3.658    0.56E-04    0.12E-03    0.13E-06
   1     10    11.539     5.612    0.11E-03    0.23E-03    0.24E-06
   2      9    11.539    55.373    0.45E-04    0.92E-04    0.22E-06
   2      9    11.539    50.863    0.47E-04    0.95E-04    0.22E-06
   0     10    11.539    79.536    0.46E-04    0.27E-04    0.11E-06
   0     10    11.539    38.668    0.38E-04    0.25E-04    0.10E-06
 Optimization of the real space projectors (new method)

 maximal supplied QI-value         = 24.76
 optimisation between [QCUT,QGAM] = [ 11.64, 23.27] = [ 37.91,151.63] Ry 
 Optimized for a Real-space Cutoff    1.14 Angstroem

   l    n(q)    QCUT    max X(q) W(low)/X(q) W(high)/X(q)  e(spline) 
   0      8    11.635    20.381    0.10E-03    0.33E-03    0.24E-06
   0      8    11.635    15.268    0.11E-03    0.35E-03    0.26E-06
   1      7    11.635     5.964    0.24E-03    0.31E-03    0.30E-06
   1      7    11.635     5.382    0.22E-03    0.25E-03    0.26E-06
  PAW_PBE Li 17Jan2003                  :
 energy of atom  1       EATOM=   -5.3001
 kinetic energy error for atom=    0.0000 (will be added to EATOM!!)
  PAW_PBE Mn_pv 02Aug2007               :
 energy of atom  2       EATOM=-2025.2664
 kinetic energy error for atom=    0.0058 (will be added to EATOM!!)
  PAW_PBE O 08Apr2002                   :
 energy of atom  3       EATOM= -432.3788
 kinetic energy error for atom=    0.0208 (will be added to EATOM!!)
 
 
 POSCAR: Li8 Mn16 O32
  positions in direct lattice
  velocities in cartesian coordinates

 METAGGA = SCAN     LMAXTAU =  6    LMIXTAU =  T

 exchange correlation table for  LEXCH =        8
   RHO(1)=    0.500       N(1)  =     2000
   RHO(2)=  100.500       N(2)  =     4000
 


--------------------------------------------------------------------------------------------------------


 ion  position               nearest neighbor table
   1  0.380  0.371  0.876-  48 1.94  51 1.96  49 1.97  50 1.98
   2  0.881  0.873  0.879-  26 1.98  25 1.99  24 1.99  27 2.11
   3  0.117  0.129  0.124-  28 1.93  29 1.97  31 2.02  30 2.02
   4  0.885  0.374  0.379-  33 1.94  35 1.99  32 1.99  34 2.01
   5  0.377  0.874  0.381-  41 1.95  40 1.97  43 1.98  42 2.03
   6  0.618  0.127  0.625-  45 1.93  44 1.94  47 1.96  46 1.97
   7  0.620  0.626  0.117-  53 1.94  52 1.97  54 1.98  55 1.99
   8  0.505  0.251  0.249-  49 1.89  31 1.90  35 1.91  45 1.91  42 1.91  54 1.93  18 2.85  17 2.86
                             9 2.86  11 2.86  19 2.93  10 2.96
   9  0.260  0.497  0.245-  48 1.90  31 1.90  34 1.91  43 1.92  36 1.92  54 1.96   8 2.86  16 2.87
                            11 2.90  10 2.95  21 2.97  22 2.97
  10  0.256  0.248  0.504-  40 1.91  36 1.95  33 1.99  45 2.00  51 2.14  31 2.17  15 2.91  11 2.91
                            20 2.94   9 2.95   8 2.96  23 2.99
  11  0.503  0.495  0.496-  50 1.88  36 1.91  45 1.91  41 1.91  54 1.94  32 1.95   8 2.86  13 2.89
                             9 2.90  14 2.91  10 2.91  12 2.97
  12  0.495  0.750  0.751-  39 1.93  27 1.98  53 1.98  41 2.00  46 2.17  50 2.17  16 2.91  15 2.94
                            14 2.95  13 2.97  17 2.97  11 2.97
  13  0.748  0.495  0.742-  52 1.88  47 1.89  38 1.91  50 1.92  27 1.95  32 1.96  20 2.87  11 2.89
                            19 2.90  14 2.92  12 2.97  21 3.00
  14  0.741  0.751  0.495-  44 1.87  37 1.90  55 1.91  41 1.94  32 1.94  27 1.96  18 2.86  11 2.91
                            13 2.92  22 2.94  12 2.95  23 2.97
  15  0.246  0.005  0.761-  46 1.90  51 1.91  28 1.91  40 1.91  39 1.92  26 1.96  16 2.88  20 2.90
                            17 2.90  10 2.91  12 2.94  23 2.98
  16  0.254  0.752  0.004-  28 1.89  48 1.90  43 1.92  53 1.92  39 1.93  25 1.95   9 2.87  15 2.88
                            12 2.91  17 2.93  21 2.96  22 2.96
  17  0.497  0.006  0.003-  46 1.90  49 1.95  42 1.96  53 1.96  28 2.16  24 2.17   8 2.86  15 2.90
                            16 2.93  19 2.94  18 2.95  12 2.97
  18  0.747  0.003  0.254-  24 1.89  35 1.90  30 1.91  44 1.92  55 1.93  42 1.94   8 2.85  14 2.86
                            19 2.93  23 2.93  17 2.95  22 2.97
  19  0.752  0.251  0.998-  52 1.94  24 1.94  29 1.96  49 1.96  35 2.17  47 2.17  13 2.90  18 2.93
                             8 2.93  20 2.93  17 2.94  21 2.95
  20  0.998  0.253  0.746-  33 1.90  51 1.90  47 1.90  38 1.90  29 1.93  26 1.96  13 2.87  21 2.88
                            23 2.89  15 2.90  19 2.93  10 2.94
  21  0.006  0.498  0.995-  29 1.93  25 1.95  38 1.98  34 1.99  48 2.16  52 2.20  20 2.88  19 2.95
                            16 2.96  22 2.96   9 2.97  13 3.00
  22  1.000  0.746  0.254-  37 1.92  25 1.96  34 2.05  30 2.06  43 2.13  55 2.13  23 2.93  14 2.94
                            21 2.96  16 2.96  18 2.97   9 2.97
  23  0.997  0.999  0.504-  30 1.93  26 1.95  33 1.98  37 1.98  40 2.17  44 2.19  20 2.89  18 2.93
                            22 2.93  14 2.97  15 2.98  10 2.99
  24  0.754  0.016  0.026-  18 1.89  19 1.94   2 1.99  17 2.17
  25  0.023  0.734  0.018-  16 1.95  21 1.95  22 1.96   2 1.99
  26  0.014  0.015  0.739-  23 1.95  15 1.96  20 1.96   2 1.98
  27  0.730  0.732  0.732-  13 1.95  14 1.96  12 1.98   2 2.11
  28  0.240  0.982  0.991-  16 1.89  15 1.91   3 1.93  17 2.16
  29  0.984  0.265  0.979-  20 1.93  21 1.93  19 1.96   3 1.97
  30  0.975  0.996  0.271-  18 1.91  23 1.93   3 2.02  22 2.06
  31  0.278  0.265  0.242-   8 1.90   9 1.90   3 2.02  10 2.17
  32  0.735  0.515  0.506-  14 1.94  11 1.95  13 1.96   4 1.99
  33  0.019  0.239  0.517-  20 1.90   4 1.94  23 1.98  10 1.99
  34  0.033  0.499  0.235-   9 1.91  21 1.99   4 2.01  22 2.05
  35  0.732  0.234  0.259-  18 1.90   8 1.91   4 1.99  19 2.17
  36  0.276  0.483  0.477-  11 1.91   9 1.92  10 1.95
  37  0.967  0.761  0.483-  14 1.90  22 1.92  23 1.98
  38  0.976  0.484  0.757-  20 1.90  13 1.91  21 1.98
  39  0.266  0.771  0.772-  15 1.92  16 1.93  12 1.93
  40  0.254  0.016  0.529-  10 1.91  15 1.91   5 1.97  23 2.17
  41  0.511  0.728  0.510-  11 1.91  14 1.94   5 1.95  12 2.00
  42  0.516  0.018  0.240-   8 1.91  18 1.94  17 1.96   5 2.03
  43  0.253  0.732  0.236-  16 1.92   9 1.92   5 1.98  22 2.13
  44  0.737  0.979  0.486-  14 1.87  18 1.92   6 1.94  23 2.19
  45  0.493  0.263  0.480-  11 1.91   8 1.91   6 1.93  10 2.00
  46  0.472  0.013  0.774-  15 1.90  17 1.90   6 1.97  12 2.17
  47  0.771  0.265  0.737-  13 1.89  20 1.90   6 1.96  19 2.17
  48  0.262  0.520  0.016-   9 1.90  16 1.90   1 1.94  21 2.16
  49  0.519  0.243  0.020-   8 1.89  17 1.95  19 1.96   1 1.97
  50  0.520  0.488  0.723-  11 1.88  13 1.92   1 1.98  12 2.17
  51  0.224  0.236  0.761-  20 1.90  15 1.91   1 1.96  10 2.14
  52  0.745  0.486  0.969-  13 1.88  19 1.94   7 1.97  21 2.20
  53  0.482  0.768  0.989-  16 1.92   7 1.94  17 1.96  12 1.98
  54  0.493  0.485  0.262-   8 1.93  11 1.94   9 1.96   7 1.98
  55  0.746  0.768  0.264-  14 1.91  18 1.93   7 1.99  22 2.13
 

IMPORTANT INFORMATION: All symmetrisations will be switched off!
NOSYMM: (Re-)initialisation of all symmetry stuff for point group C_1.


----------------------------------------------------------------------------------------

                                     Primitive cell                                     

  volume of cell :     566.4773

  direct lattice vectors                    reciprocal lattice vectors
     8.374650771  0.066630990  0.015478538     0.119409548 -0.000256429  0.000246837
     0.017539788  8.196291188  0.029771153    -0.000970474  0.122008995 -0.000142031
    -0.017039607  0.009471673  8.252888558    -0.000220455 -0.000439650  0.121169746

  length of vectors
     8.374930137  8.196364023  8.252911584     0.119410079  0.122012937  0.121170744

  position of ions in fractional coordinates (direct lattice)
     0.379654257  0.371467170  0.875990522
     0.881465641  0.872574982  0.879195146
     0.116759903  0.128799605  0.123968509
     0.884635223  0.373617263  0.379498038
     0.376528411  0.874123920  0.380962205
     0.617641949  0.126633096  0.624719795
     0.620489250  0.626435118  0.116965321
     0.504708834  0.250784250  0.249325654
     0.260124640  0.497216942  0.244660545
     0.256117227  0.247980246  0.503835516
     0.502959020  0.495467182  0.496027038
     0.495193286  0.750125535  0.750657366
     0.748281042  0.494735160  0.741675045
     0.740826323  0.751143038  0.495164968
     0.246151018  0.004644594  0.760867421
     0.253735363  0.751921174  0.004250839
     0.496835764  0.006442117  0.003492066
     0.746876263  0.003271748  0.254497090
     0.751529111  0.250989995  0.998085755
     0.998191485  0.253409896  0.746115804
     0.005735480  0.498100180  0.994508036
     0.999524030  0.746361088  0.253598706
     0.996625762  0.999425749  0.503869989
     0.754437364  0.015689832  0.025844187
     0.022630107  0.733955239  0.017752028
     0.013705941  0.015044265  0.739131307
     0.730027047  0.732229319  0.731819170
     0.240431836  0.981942700  0.991384721
     0.983825540  0.264544441  0.978810172
     0.974556969  0.996179323  0.270664967
     0.277774259  0.265409713  0.242056139
     0.734640734  0.514600837  0.505505705
     0.019079718  0.238839964  0.517411519
     0.032782733  0.498781140  0.234574773
     0.731625093  0.234357455  0.259251745
     0.276450393  0.483122285  0.476905602
     0.966748632  0.760897824  0.482919860
     0.976146638  0.484454184  0.756773225
     0.266041511  0.771117202  0.771626603
     0.254284513  0.016330347  0.529434426
     0.510925153  0.728131294  0.509809165
     0.515605371  0.017659896  0.239723820
     0.252560091  0.731567070  0.235920100
     0.736698944  0.979088001  0.486232631
     0.492810705  0.263446823  0.480010792
     0.472476483  0.012503957  0.774082959
     0.771389275  0.264706693  0.736654257
     0.262199009  0.520093266  0.015615439
     0.519154316  0.242535377  0.020393574
     0.519896175  0.488158290  0.722673481
     0.224442123  0.236468116  0.760765863
     0.745197001  0.486042740  0.969427252
     0.481686229  0.767959633  0.989099659
     0.493111908  0.485370797  0.261774958
     0.746234133  0.767974891  0.264304689

  ion indices of the primitive-cell ions
   primitive index   ion index
                 1           1
                 2           2
                 3           3
                 4           4
                 5           5
                 6           6
                 7           7
                 8           8
                 9           9
                10          10
                11          11
                12          12
                13          13
                14          14
                15          15
                16          16
                17          17
                18          18
                19          19
                20          20
                21          21
                22          22
                23          23
                24          24
                25          25
                26          26
                27          27
                28          28
                29          29
                30          30
                31          31
                32          32
                33          33
                34          34
                35          35
                36          36
                37          37
                38          38
                39          39
                40          40
                41          41
                42          42
                43          43
                44          44
                45          45
                46          46
                47          47
                48          48
                49          49
                50          50
                51          51
                52          52
                53          53
                54          54
                55          55

----------------------------------------------------------------------------------------

 
 
 KPOINTS: Fully automatic kpoint scheme           

Automatic generation of k-mesh.
 generate k-points for:    6    6    6
Space group operators:
 irot       det(A)        alpha          n_x          n_y          n_z        tau_x        tau_y        tau_z
    1     1.000000     0.000001     1.000000     0.000000     0.000000     0.000000     0.000000     0.000000
 
 Subroutine IBZKPT returns following result:
 ===========================================
 
 Found    112 irreducible k-points:
 
 Following reciprocal coordinates:
            Coordinates               Weight
  0.000000  0.000000  0.000000      1.000000
  0.166667  0.000000  0.000000      2.000000
  0.333333  0.000000 -0.000000      2.000000
  0.500000  0.000000  0.000000      1.000000
 -0.000000  0.166667 -0.000000      2.000000
  0.166667  0.166667  0.000000      2.000000
  0.333333  0.166667 -0.000000      2.000000
  0.500000  0.166667  0.000000      2.000000
 -0.333333  0.166667  0.000000      2.000000
 -0.166667  0.166667 -0.000000      2.000000
 -0.000000  0.333333 -0.000000      2.000000
  0.166667  0.333333  0.000000      2.000000
  0.333333  0.333333  0.000000      2.000000
  0.500000  0.333333 -0.000000      2.000000
 -0.333333  0.333333 -0.000000      2.000000
 -0.166667  0.333333  0.000000      2.000000
 -0.000000  0.500000 -0.000000      1.000000
  0.166667  0.500000  0.000000      2.000000
  0.333333  0.500000  0.000000      2.000000
  0.500000  0.500000 -0.000000      1.000000
 -0.000000 -0.000000  0.166667      2.000000
  0.166667  0.000000  0.166667      2.000000
  0.333333  0.000000  0.166667      2.000000
  0.500000  0.000000  0.166667      2.000000
 -0.333333  0.000000  0.166667      2.000000
 -0.166667  0.000000  0.166667      2.000000
 -0.000000  0.166667  0.166667      2.000000
  0.166667  0.166667  0.166667      2.000000
  0.333333  0.166667  0.166667      2.000000
  0.500000  0.166667  0.166667      2.000000
 -0.333333  0.166667  0.166667      2.000000
 -0.166667  0.166667  0.166667      2.000000
 -0.000000  0.333333  0.166667      2.000000
  0.166667  0.333333  0.166667      2.000000
  0.333333  0.333333  0.166667      2.000000
  0.500000  0.333333  0.166667      2.000000
 -0.333333  0.333333  0.166667      2.000000
 -0.166667  0.333333  0.166667      2.000000
 -0.000000  0.500000  0.166667      2.000000
  0.166667  0.500000  0.166667      2.000000
  0.333333  0.500000  0.166667      2.000000
  0.500000  0.500000  0.166667      2.000000
 -0.333333  0.500000  0.166667      2.000000
 -0.166667  0.500000  0.166667      2.000000
  0.000000 -0.333333  0.166667      2.000000
  0.166667 -0.333333  0.166667      2.000000
  0.333333 -0.333333  0.166667      2.000000
  0.500000 -0.333333  0.166667      2.000000
 -0.333333 -0.333333  0.166667      2.000000
 -0.166667 -0.333333  0.166667      2.000000
 -0.000000 -0.166667  0.166667      2.000000
  0.166667 -0.166667  0.166667      2.000000
  0.333333 -0.166667  0.166667      2.000000
  0.500000 -0.166667  0.166667      2.000000
 -0.333333 -0.166667  0.166667      2.000000
 -0.166667 -0.166667  0.166667      2.000000
 -0.000000 -0.000000  0.333333      2.000000
  0.166667 -0.000000  0.333333      2.000000
  0.333333  0.000000  0.333333      2.000000
  0.500000  0.000000  0.333333      2.000000
 -0.333333  0.000000  0.333333      2.000000
 -0.166667  0.000000  0.333333      2.000000
  0.000000  0.166667  0.333333      2.000000
  0.166667  0.166667  0.333333      2.000000
  0.333333  0.166667  0.333333      2.000000
  0.500000  0.166667  0.333333      2.000000
 -0.333333  0.166667  0.333333      2.000000
 -0.166667  0.166667  0.333333      2.000000
 -0.000000  0.333333  0.333333      2.000000
  0.166667  0.333333  0.333333      2.000000
  0.333333  0.333333  0.333333      2.000000
  0.500000  0.333333  0.333333      2.000000
 -0.333333  0.333333  0.333333      2.000000
 -0.166667  0.333333  0.333333      2.000000
 -0.000000  0.500000  0.333333      2.000000
  0.166667  0.500000  0.333333      2.000000
  0.333333  0.500000  0.333333      2.000000
  0.500000  0.500000  0.333333      2.000000
 -0.333333  0.500000  0.333333      2.000000
 -0.166667  0.500000  0.333333      2.000000
  0.000000 -0.333333  0.333333      2.000000
  0.166667 -0.333333  0.333333      2.000000
  0.333333 -0.333333  0.333333      2.000000
  0.500000 -0.333333  0.333333      2.000000
 -0.333333 -0.333333  0.333333      2.000000
 -0.166667 -0.333333  0.333333      2.000000
  0.000000 -0.166667  0.333333      2.000000
  0.166667 -0.166667  0.333333      2.000000
  0.333333 -0.166667  0.333333      2.000000
  0.500000 -0.166667  0.333333      2.000000
 -0.333333 -0.166667  0.333333      2.000000
 -0.166667 -0.166667  0.333333      2.000000
  0.000000  0.000000  0.500000      1.000000
  0.166667  0.000000  0.500000      2.000000
  0.333333  0.000000  0.500000      2.000000
  0.500000  0.000000  0.500000      1.000000
 -0.000000  0.166667  0.500000      2.000000
  0.166667  0.166667  0.500000      2.000000
  0.333333  0.166667  0.500000      2.000000
  0.500000  0.166667  0.500000      2.000000
 -0.333333  0.166667  0.500000      2.000000
 -0.166667  0.166667  0.500000      2.000000
  0.000000  0.333333  0.500000      2.000000
  0.166667  0.333333  0.500000      2.000000
  0.333333  0.333333  0.500000      2.000000
  0.500000  0.333333  0.500000      2.000000
 -0.333333  0.333333  0.500000      2.000000
 -0.166667  0.333333  0.500000      2.000000
  0.000000  0.500000  0.500000      1.000000
  0.166667  0.500000  0.500000      2.000000
  0.333333  0.500000  0.500000      2.000000
  0.500000  0.500000  0.500000      1.000000
 
 Following cartesian coordinates:
            Coordinates               Weight
  0.000000  0.000000  0.000000      1.000000
  0.019902 -0.000043  0.000041      2.000000
  0.039803 -0.000085  0.000082      2.000000
  0.059705 -0.000128  0.000123      1.000000
 -0.000162  0.020335 -0.000024      2.000000
  0.019740  0.020292  0.000017      2.000000
  0.039641  0.020249  0.000059      2.000000
  0.059543  0.020207  0.000100      2.000000
 -0.039965  0.020420 -0.000106      2.000000
 -0.020063  0.020378 -0.000065      2.000000
 -0.000323  0.040670 -0.000047      2.000000
  0.019578  0.040627 -0.000006      2.000000
  0.039480  0.040584  0.000035      2.000000
  0.059381  0.040541  0.000076      2.000000
 -0.040127  0.040755 -0.000130      2.000000
 -0.020225  0.040712 -0.000088      2.000000
 -0.000485  0.061004 -0.000071      1.000000
  0.019416  0.060962 -0.000030      2.000000
  0.039318  0.060919  0.000011      2.000000
  0.059220  0.060876  0.000052      1.000000
 -0.000037 -0.000073  0.020195      2.000000
  0.019865 -0.000116  0.020236      2.000000
  0.039766 -0.000159  0.020277      2.000000
  0.059668 -0.000201  0.020318      2.000000
 -0.039840  0.000012  0.020113      2.000000
 -0.019938 -0.000031  0.020154      2.000000
 -0.000198  0.020262  0.020171      2.000000
  0.019703  0.020219  0.020212      2.000000
  0.039605  0.020176  0.020254      2.000000
  0.059506  0.020133  0.020295      2.000000
 -0.040002  0.020347  0.020089      2.000000
 -0.020100  0.020304  0.020130      2.000000
 -0.000360  0.040596  0.020148      2.000000
  0.019541  0.040554  0.020189      2.000000
  0.039443  0.040511  0.020230      2.000000
  0.059345  0.040468  0.020271      2.000000
 -0.040163  0.040682  0.020065      2.000000
 -0.020262  0.040639  0.020106      2.000000
 -0.000522  0.060931  0.020124      2.000000
  0.019380  0.060888  0.020165      2.000000
  0.039281  0.060846  0.020206      2.000000
  0.059183  0.060803  0.020247      2.000000
 -0.040325  0.061017  0.020042      2.000000
 -0.020424  0.060974  0.020083      2.000000
  0.000287 -0.040743  0.020242      2.000000
  0.020188 -0.040786  0.020283      2.000000
  0.040090 -0.040828  0.020325      2.000000
  0.059992 -0.040871  0.020366      2.000000
 -0.039516 -0.040657  0.020160      2.000000
 -0.019615 -0.040700  0.020201      2.000000
  0.000125 -0.020408  0.020219      2.000000
  0.020027 -0.020451  0.020260      2.000000
  0.039928 -0.020494  0.020301      2.000000
  0.059830 -0.020536  0.020342      2.000000
 -0.039678 -0.020323  0.020136      2.000000
 -0.019777 -0.020365  0.020177      2.000000
 -0.000073 -0.000147  0.040390      2.000000
  0.019828 -0.000189  0.040431      2.000000
  0.039730 -0.000232  0.040472      2.000000
  0.059631 -0.000275  0.040513      2.000000
 -0.039877 -0.000061  0.040308      2.000000
 -0.019975 -0.000104  0.040349      2.000000
 -0.000235  0.020188  0.040366      2.000000
  0.019666  0.020146  0.040407      2.000000
  0.039568  0.020103  0.040449      2.000000
  0.059470  0.020060  0.040490      2.000000
 -0.040038  0.020274  0.040284      2.000000
 -0.020137  0.020231  0.040325      2.000000
 -0.000397  0.040523  0.040343      2.000000
  0.019505  0.040480  0.040384      2.000000
  0.039406  0.040438  0.040425      2.000000
  0.059308  0.040395  0.040466      2.000000
 -0.040200  0.040609  0.040260      2.000000
 -0.020299  0.040566  0.040301      2.000000
 -0.000559  0.060858  0.040319      2.000000
  0.019343  0.060815  0.040360      2.000000
  0.039244  0.060772  0.040401      2.000000
  0.059146  0.060730  0.040442      2.000000
 -0.040362  0.060943  0.040237      2.000000
 -0.020460  0.060901  0.040278      2.000000
  0.000250 -0.040816  0.040437      2.000000
  0.020152 -0.040859  0.040478      2.000000
  0.040053 -0.040902  0.040520      2.000000
  0.059955 -0.040944  0.040561      2.000000
 -0.039553 -0.040731  0.040355      2.000000
 -0.019652 -0.040773  0.040396      2.000000
  0.000088 -0.020481  0.040414      2.000000
  0.019990 -0.020524  0.040455      2.000000
  0.039891 -0.020567  0.040496      2.000000
  0.059793 -0.020610  0.040537      2.000000
 -0.039715 -0.020396  0.040331      2.000000
 -0.019813 -0.020439  0.040372      2.000000
 -0.000110 -0.000220  0.060585      1.000000
  0.019791 -0.000263  0.060626      2.000000
  0.039693 -0.000305  0.060667      2.000000
  0.059595 -0.000348  0.060708      1.000000
 -0.000272  0.020115  0.060561      2.000000
  0.019630  0.020072  0.060602      2.000000
  0.039531  0.020030  0.060643      2.000000
  0.059433  0.019987  0.060685      2.000000
 -0.040075  0.020200  0.060479      2.000000
 -0.020174  0.020158  0.060520      2.000000
 -0.000434  0.040450  0.060538      2.000000
  0.019468  0.040407  0.060579      2.000000
  0.039369  0.040364  0.060620      2.000000
  0.059271  0.040322  0.060661      2.000000
 -0.040237  0.040535  0.060455      2.000000
 -0.020335  0.040493  0.060496      2.000000
 -0.000595  0.060785  0.060514      1.000000
  0.019306  0.060742  0.060555      2.000000
  0.039208  0.060699  0.060596      2.000000
  0.059109  0.060656  0.060637      1.000000
 


--------------------------------------------------------------------------------------------------------




 Dimension of arrays:
   k-points           NKPTS =    112   k-points in BZ     NKDIM =    112   number of bands    NBANDS=    296
   number of dos      NEDOS =    301   number of ions     NIONS =     55
   non local maximal  LDIM  =      6   non local SUM 2l+1 LMDIM =     18
   total plane-waves  NPLWV = 262144
   max r-space proj   IRMAX =   5907   max aug-charges    IRDMAX= 118647
   dimension x,y,z NGX =    64 NGY =   64 NGZ =   64
   dimension x,y,z NGXF=   128 NGYF=  128 NGZF=  128
   support grid    NGXF=   256 NGYF=  256 NGZF=  256
   ions per type =               7  16  32
   NGX,Y,Z   is equivalent  to a cutoff of  12.70, 12.98, 12.89 a.u.
   NGXF,Y,Z  is equivalent  to a cutoff of  25.41, 25.96, 25.78 a.u.

 SYSTEM =  unknown system                          
 POSCAR =  Li8 Mn16 O32                            

 Startparameter for this run:
   NWRITE =      2    write-flag & timer
   PREC   = accura    normal or accurate (medium, high low for compatibility)
   ISTART =      0    job   : 0-new  1-cont  2-samecut
   ICHARG =      1    charge: 1-file 2-atom 10-const
   ISPIN  =      2    spin polarized calculation?
   LNONCOLLINEAR =      F non collinear calculations
   LSORBIT =      F    spin-orbit coupling
   INIWAV =      1    electr: 0-lowe 1-rand  2-diag
   LASPH  =      T    aspherical Exc in radial PAW
   METAGGA=      F    non-selfconsistent MetaGGA calc.

 Electronic Relaxation 1
   ENCUT  =  520.0 eV  38.22 Ry    6.18 a.u.  15.57 15.24 15.34*2*pi/ulx,y,z
   ENINI  =  520.0     initial cutoff
   ENAUG  =  605.4 eV  augmentation charge cutoff
   NELM   =    200;   NELMIN=  4; NELMDL= -5     # of ELM steps 
   EDIFF  = 0.1E-04   stopping-criterion for ELM
   LREAL  =      T    real-space projection
   NLSPLINE    = F    spline interpolate recip. space projectors
   LCOMPAT=      F    compatible to vasp.4.4
   GGA_COMPAT  = T    GGA compatible to vasp.4.4-vasp.4.6
   LMAXPAW     = -100 max onsite density
   LMAXMIX     =    4 max onsite mixed and CHGCAR
   VOSKOWN=      0    Vosko Wilk Nusair interpolation
   ROPT   =   -0.00025  -0.00025  -0.00025
 Ionic relaxation
   EDIFFG = -.1E-01   stopping-criterion for IOM
   NSW    =    150    number of steps for IOM
   NBLOCK =      1;   KBLOCK =    150    inner block; outer block 
   IBRION =      2    ionic relax: 0-MD 1-quasi-New 2-CG
   NFREE  =      1    steps in history (QN), initial steepest desc. (CG)
   ISIF   =      3    stress and relaxation
   IWAVPR =     11    prediction:  0-non 1-charg 2-wave 3-comb
   ISYM   =      0    0-nonsym 1-usesym 2-fastsym
   LCORR  =      T    Harris-Foulkes like correction to forces

   POTIM  = 0.5000    time-step for ionic-motion
   TEIN   =    0.0    initial temperature
   TEBEG  =    0.0;   TEEND  =   0.0 temperature during run
   SMASS  =  -3.00    Nose mass-parameter (am)
   estimated Nose-frequenzy (Omega)   =  0.10E-29 period in steps = 0.13E+47 mass=  -0.160E-26a.u.
   SCALEE = 1.0000    scale energy and forces
   NPACO  =    256;   APACO  = 16.0  distance and # of slots for P.C.
   PSTRESS=    0.0 pullay stress

  Mass of Ions in am
   POMASS =   7.01 54.94 16.00
  Ionic Valenz
   ZVAL   =   1.00 13.00  6.00
  Atomic Wigner-Seitz radii
   RWIGS  =  -1.00 -1.00 -1.00
  virtual crystal weights 
   VCA    =   1.00  1.00  1.00
   NELECT =     407.0000    total number of electrons
   NUPDOWN=      -1.0000    fix difference up-down

 DOS related values:
   EMIN   =  10.00;   EMAX   =-10.00  energy-range for DOS
   EFERMI =   0.00
   ISMEAR =     0;   SIGMA  =   0.05  broadening in eV -4-tet -1-fermi 0-gaus

 Electronic relaxation 2 (details)
   IALGO  =     58    algorithm
   LDIAG  =      T    sub-space diagonalisation (order eigenvalues)
   LSUBROT=      F    optimize rotation matrix (better conditioning)
   TURBO    =      0    0=normal 1=particle mesh
   IRESTART =      0    0=no restart 2=restart with 2 vectors
   NREBOOT  =      0    no. of reboots
   NMIN     =      0    reboot dimension
   EREF     =   0.00    reference energy to select bands
   IMIX   =      4    mixing-type and parameters
     AMIX     =   0.40;   BMIX     =  1.00
     AMIX_MAG =   1.60;   BMIX_MAG =  1.00
     AMIN     =   0.10
     WC   =   100.;   INIMIX=   1;  MIXPRE=   1;  MAXMIX= -45

 Intra band minimization:
   WEIMIN = 0.0010     energy-eigenvalue tresh-hold
   EBREAK =  0.84E-08  absolut break condition
   DEPER  =   0.30     relativ break condition  

   TIME   =   0.40     timestep for ELM

  volume/ion in A,a.u.               =      10.30        69.51
  Fermi-wavevector in a.u.,A,eV,Ry     =   1.466264  2.770837 29.251570  2.149930
  Thomas-Fermi vector in A             =   2.582022
 
 Write flags
   LWAVE        =      F    write WAVECAR
   LDOWNSAMPLE  =      F    k-point downsampling of WAVECAR
   LCHARG       =      T    write CHGCAR
   LVTOT        =      F    write LOCPOT, total local potential
   LVHAR        =      F    write LOCPOT, Hartree potential only
   LELF         =      F    write electronic localiz. function (ELF)
   LORBIT       =     11    0 simple, 1 ext, 2 COOP (PROOUT), +10 PAW based schemes


 Dipole corrections
   LMONO  =      F    monopole corrections only (constant potential shift)
   LDIPOL =      F    correct potential (dipole corrections)
   IDIPOL =      0    1-x, 2-y, 3-z, 4-all directions 
   EPSILON=  1.0000000 bulk dielectric constant

 LDA+U is selected, type is set to LDAUTYPE =  2
   angular momentum for each species LDAUL =     0    2    0
   U (eV)           for each species LDAUU =   0.0  3.9  0.0
   J (eV)           for each species LDAUJ =   0.0  0.0  0.0
 Exchange correlation treatment:
   GGA     =    --    GGA type
   LEXCH   =     8    internal setting for exchange type
   VOSKOWN=      0    Vosko Wilk Nusair interpolation
   LHFCALC =     F    Hartree Fock is set to
   LHFONE  =     F    Hartree Fock one center treatment
   AEXX    =    0.0000 exact exchange contribution

 Linear response parameters
   LEPSILON=     F    determine dielectric tensor
   LRPA    =     F    only Hartree local field effects (RPA)
   LNABLA  =     F    use nabla operator in PAW spheres
   LVEL    =     F    velocity operator in full k-point grid
   LINTERFAST=   F  fast interpolation
   KINTER  =     0    interpolate to denser k-point grid
   CSHIFT  =0.1000    complex shift for real part using Kramers Kronig
   OMEGAMAX=  -1.0    maximum frequency
   DEG_THRESHOLD= 0.2000000E-02 threshold for treating states as degnerate
   RTIME   =   -0.100 relaxation time in fs
  (WPLASMAI=    0.000 imaginary part of plasma frequency in eV, 0.658/RTIME)
   DFIELD  = 0.0000000 0.0000000 0.0000000 field for delta impulse in time
 
 Orbital magnetization related:
   ORBITALMAG=     F  switch on orbital magnetization
   LCHIMAG   =     F  perturbation theory with respect to B field
   DQ        =  0.001000  dq finite difference perturbation B field
   LLRAUG    =     F  two centre corrections for induced B field



--------------------------------------------------------------------------------------------------------


 conjugate gradient relaxation of ions
 charge density and potential will be updated during run
 spin polarized calculation
 Conjugate gradient for all bands (Freysoldt, et al. PRB 79, 241103 (2009))
 preconditioned conjugated gradient                                        
 perform sub-space diagonalisation
    before iterative eigenvector-optimisation
 modified Broyden-mixing scheme, WC =      100.0
 initial mixing is a Kerker type mixing with AMIX =  0.4000 and BMIX =      1.0000
 Hartree-type preconditioning will be used
 using additional bands           92
 real space projection scheme for non local part
 use partial core corrections
 no Harris-corrections to forces 
 use gradient corrections 
 use of overlap-Matrix (Vanderbilt PP)
 Gauss-broadening in eV      SIGMA  =   0.05


--------------------------------------------------------------------------------------------------------


  energy-cutoff  :      520.00
  volume of cell :      566.48
      direct lattice vectors                 reciprocal lattice vectors
     8.374650771  0.066630990  0.015478538     0.119409548 -0.000256429  0.000246837
     0.017539788  8.196291188  0.029771153    -0.000970474  0.122008995 -0.000142031
    -0.017039607  0.009471673  8.252888558    -0.000220455 -0.000439650  0.121169746

  length of vectors
     8.374930137  8.196364023  8.252911584     0.119410079  0.122012937  0.121170744


 
 k-points in units of 2pi/SCALE and weight: Fully automatic kpoint scheme           
   0.00000000  0.00000000  0.00000000       0.005
   0.01990159 -0.00004274  0.00004114       0.009
   0.03980318 -0.00008548  0.00008228       0.009
   0.05970477 -0.00012821  0.00012342       0.005
  -0.00016175  0.02033483 -0.00002367       0.009
   0.01973985  0.02029209  0.00001747       0.009
   0.03964144  0.02024936  0.00005861       0.009
   0.05954303  0.02020662  0.00009975       0.009
  -0.03996493  0.02042031 -0.00010595       0.009
  -0.02006334  0.02037757 -0.00006481       0.009
  -0.00032349  0.04066966 -0.00004734       0.009
   0.01957810  0.04062693 -0.00000620       0.009
   0.03947969  0.04058419  0.00003494       0.009
   0.05938128  0.04054145  0.00007607       0.009
  -0.04012667  0.04075514 -0.00012962       0.009
  -0.02022508  0.04071240 -0.00008848       0.009
  -0.00048524  0.06100450 -0.00007102       0.005
   0.01941635  0.06096176 -0.00002988       0.009
   0.03931795  0.06091902  0.00001126       0.009
   0.05921954  0.06087628  0.00005240       0.005
  -0.00003674 -0.00007327  0.02019496       0.009
   0.01986485 -0.00011601  0.02023610       0.009
   0.03976644 -0.00015875  0.02027724       0.009
   0.05966803 -0.00020149  0.02031838       0.009
  -0.03983993  0.00001220  0.02011268       0.009
  -0.01993833 -0.00003054  0.02015382       0.009
  -0.00019849  0.02026156  0.02017129       0.009
   0.01970310  0.02021882  0.02021243       0.009
   0.03960469  0.02017608  0.02025356       0.009
   0.05950629  0.02013334  0.02029470       0.009
  -0.04000167  0.02034703  0.02008901       0.009
  -0.02010008  0.02030430  0.02013015       0.009
  -0.00036023  0.04059639  0.02014761       0.009
   0.01954136  0.04055365  0.02018875       0.009
   0.03944295  0.04051091  0.02022989       0.009
   0.05934454  0.04046818  0.02027103       0.009
  -0.04016342  0.04068187  0.02006533       0.009
  -0.02026183  0.04063913  0.02010647       0.009
  -0.00052198  0.06093122  0.02012394       0.009
   0.01937961  0.06088848  0.02016508       0.009
   0.03928120  0.06084575  0.02020622       0.009
   0.05918279  0.06080301  0.02024736       0.009
  -0.04032516  0.06101670  0.02004166       0.009
  -0.02042357  0.06097396  0.02008280       0.009
   0.00028675 -0.04074294  0.02024230       0.009
   0.02018834 -0.04078568  0.02028344       0.009
   0.04008993 -0.04082842  0.02032458       0.009
   0.05999152 -0.04087115  0.02036572       0.009
  -0.03951643 -0.04065746  0.02016002       0.009
  -0.01961484 -0.04070020  0.02020116       0.009
   0.00012500 -0.02040811  0.02021863       0.009
   0.02002659 -0.02045085  0.02025977       0.009
   0.03992819 -0.02049358  0.02030091       0.009
   0.05982978 -0.02053632  0.02034205       0.009
  -0.03967818 -0.02032263  0.02013635       0.009
  -0.01977659 -0.02036537  0.02017749       0.009
  -0.00007349 -0.00014655  0.04038992       0.009
   0.01982811 -0.00018929  0.04043105       0.009
   0.03972970 -0.00023203  0.04047219       0.009
   0.05963129 -0.00027476  0.04051333       0.009
  -0.03987667 -0.00006107  0.04030764       0.009
  -0.01997508 -0.00010381  0.04034878       0.009
  -0.00023523  0.02018828  0.04036624       0.009
   0.01966636  0.02014554  0.04040738       0.009
   0.03956795  0.02010281  0.04044852       0.009
   0.05946954  0.02006007  0.04048966       0.009
  -0.04003841  0.02027376  0.04028396       0.009
  -0.02013682  0.02023102  0.04032510       0.009
  -0.00039698  0.04052312  0.04034257       0.009
   0.01950461  0.04048038  0.04038371       0.009
   0.03940621  0.04043764  0.04042485       0.009
   0.05930780  0.04039490  0.04046599       0.009
  -0.04020016  0.04060859  0.04026029       0.009
  -0.02029857  0.04056585  0.04030143       0.009
  -0.00055872  0.06085795  0.04031890       0.009
   0.01934287  0.06081521  0.04036004       0.009
   0.03924446  0.06077247  0.04040118       0.009
   0.05914605  0.06072973  0.04044232       0.009
  -0.04036190  0.06094342  0.04023662       0.009
  -0.02046031  0.06090069  0.04027776       0.009
   0.00025001 -0.04081621  0.04043726       0.009
   0.02015160 -0.04085895  0.04047840       0.009
   0.04005319 -0.04090169  0.04051954       0.009
   0.05995478 -0.04094443  0.04056068       0.009
  -0.03955318 -0.04073074  0.04035498       0.009
  -0.01965159 -0.04077348  0.04039612       0.009
   0.00008826 -0.02048138  0.04041359       0.009
   0.01998985 -0.02052412  0.04045473       0.009
   0.03989144 -0.02056686  0.04049587       0.009
   0.05979303 -0.02060960  0.04053701       0.009
  -0.03971492 -0.02039591  0.04033131       0.009
  -0.01981333 -0.02043864  0.04037245       0.009
  -0.00011023 -0.00021982  0.06058487       0.005
   0.01979136 -0.00026256  0.06062601       0.009
   0.03969296 -0.00030530  0.06066715       0.009
   0.05959455 -0.00034804  0.06070829       0.005
  -0.00027197  0.02011501  0.06056120       0.009
   0.01962962  0.02007227  0.06060234       0.009
   0.03953121  0.02002953  0.06064348       0.009
   0.05943280  0.01998679  0.06068462       0.009
  -0.04007516  0.02020048  0.06047892       0.009
  -0.02017356  0.02015775  0.06052006       0.009
  -0.00043372  0.04044984  0.06053753       0.009
   0.01946787  0.04040710  0.06057867       0.009
   0.03936946  0.04036436  0.06061981       0.009
   0.05927106  0.04032163  0.06066095       0.009
  -0.04023690  0.04053532  0.06045525       0.009
  -0.02033531  0.04049258  0.06049639       0.009
  -0.00059546  0.06078467  0.06051386       0.005
   0.01930613  0.06074193  0.06055500       0.009
   0.03920772  0.06069920  0.06059614       0.009
   0.05910931  0.06065646  0.06063728       0.005
 
 k-points in reciprocal lattice and weights: Fully automatic kpoint scheme           
   0.00000000  0.00000000  0.00000000       0.005
   0.16666667  0.00000000  0.00000000       0.009
   0.33333333  0.00000000 -0.00000000       0.009
   0.50000000  0.00000000  0.00000000       0.005
  -0.00000000  0.16666667 -0.00000000       0.009
   0.16666667  0.16666667  0.00000000       0.009
   0.33333333  0.16666667 -0.00000000       0.009
   0.50000000  0.16666667  0.00000000       0.009
  -0.33333333  0.16666667  0.00000000       0.009
  -0.16666667  0.16666667 -0.00000000       0.009
  -0.00000000  0.33333333 -0.00000000       0.009
   0.16666667  0.33333333  0.00000000       0.009
   0.33333333  0.33333333  0.00000000       0.009
   0.50000000  0.33333333 -0.00000000       0.009
  -0.33333333  0.33333333 -0.00000000       0.009
  -0.16666667  0.33333333  0.00000000       0.009
  -0.00000000  0.50000000 -0.00000000       0.005
   0.16666667  0.50000000  0.00000000       0.009
   0.33333333  0.50000000  0.00000000       0.009
   0.50000000  0.50000000 -0.00000000       0.005
  -0.00000000 -0.00000000  0.16666667       0.009
   0.16666667  0.00000000  0.16666667       0.009
   0.33333333  0.00000000  0.16666667       0.009
   0.50000000  0.00000000  0.16666667       0.009
  -0.33333333  0.00000000  0.16666667       0.009
  -0.16666667  0.00000000  0.16666667       0.009
  -0.00000000  0.16666667  0.16666667       0.009
   0.16666667  0.16666667  0.16666667       0.009
   0.33333333  0.16666667  0.16666667       0.009
   0.50000000  0.16666667  0.16666667       0.009
  -0.33333333  0.16666667  0.16666667       0.009
  -0.16666667  0.16666667  0.16666667       0.009
  -0.00000000  0.33333333  0.16666667       0.009
   0.16666667  0.33333333  0.16666667       0.009
   0.33333333  0.33333333  0.16666667       0.009
   0.50000000  0.33333333  0.16666667       0.009
  -0.33333333  0.33333333  0.16666667       0.009
  -0.16666667  0.33333333  0.16666667       0.009
  -0.00000000  0.50000000  0.16666667       0.009
   0.16666667  0.50000000  0.16666667       0.009
   0.33333333  0.50000000  0.16666667       0.009
   0.50000000  0.50000000  0.16666667       0.009
  -0.33333333  0.50000000  0.16666667       0.009
  -0.16666667  0.50000000  0.16666667       0.009
   0.00000000 -0.33333333  0.16666667       0.009
   0.16666667 -0.33333333  0.16666667       0.009
   0.33333333 -0.33333333  0.16666667       0.009
   0.50000000 -0.33333333  0.16666667       0.009
  -0.33333333 -0.33333333  0.16666667       0.009
  -0.16666667 -0.33333333  0.16666667       0.009
  -0.00000000 -0.16666667  0.16666667       0.009
   0.16666667 -0.16666667  0.16666667       0.009
   0.33333333 -0.16666667  0.16666667       0.009
   0.50000000 -0.16666667  0.16666667       0.009
  -0.33333333 -0.16666667  0.16666667       0.009
  -0.16666667 -0.16666667  0.16666667       0.009
  -0.00000000 -0.00000000  0.33333333       0.009
   0.16666667 -0.00000000  0.33333333       0.009
   0.33333333  0.00000000  0.33333333       0.009
   0.50000000  0.00000000  0.33333333       0.009
  -0.33333333  0.00000000  0.33333333       0.009
  -0.16666667  0.00000000  0.33333333       0.009
   0.00000000  0.16666667  0.33333333       0.009
   0.16666667  0.16666667  0.33333333       0.009
   0.33333333  0.16666667  0.33333333       0.009
   0.50000000  0.16666667  0.33333333       0.009
  -0.33333333  0.16666667  0.33333333       0.009
  -0.16666667  0.16666667  0.33333333       0.009
  -0.00000000  0.33333333  0.33333333       0.009
   0.16666667  0.33333333  0.33333333       0.009
   0.33333333  0.33333333  0.33333333       0.009
   0.50000000  0.33333333  0.33333333       0.009
  -0.33333333  0.33333333  0.33333333       0.009
  -0.16666667  0.33333333  0.33333333       0.009
  -0.00000000  0.50000000  0.33333333       0.009
   0.16666667  0.50000000  0.33333333       0.009
   0.33333333  0.50000000  0.33333333       0.009
   0.50000000  0.50000000  0.33333333       0.009
  -0.33333333  0.50000000  0.33333333       0.009
  -0.16666667  0.50000000  0.33333333       0.009
   0.00000000 -0.33333333  0.33333333       0.009
   0.16666667 -0.33333333  0.33333333       0.009
   0.33333333 -0.33333333  0.33333333       0.009
   0.50000000 -0.33333333  0.33333333       0.009
  -0.33333333 -0.33333333  0.33333333       0.009
  -0.16666667 -0.33333333  0.33333333       0.009
   0.00000000 -0.16666667  0.33333333       0.009
   0.16666667 -0.16666667  0.33333333       0.009
   0.33333333 -0.16666667  0.33333333       0.009
   0.50000000 -0.16666667  0.33333333       0.009
  -0.33333333 -0.16666667  0.33333333       0.009
  -0.16666667 -0.16666667  0.33333333       0.009
   0.00000000  0.00000000  0.50000000       0.005
   0.16666667  0.00000000  0.50000000       0.009
   0.33333333  0.00000000  0.50000000       0.009
   0.50000000  0.00000000  0.50000000       0.005
  -0.00000000  0.16666667  0.50000000       0.009
   0.16666667  0.16666667  0.50000000       0.009
   0.33333333  0.16666667  0.50000000       0.009
   0.50000000  0.16666667  0.50000000       0.009
  -0.33333333  0.16666667  0.50000000       0.009
  -0.16666667  0.16666667  0.50000000       0.009
   0.00000000  0.33333333  0.50000000       0.009
   0.16666667  0.33333333  0.50000000       0.009
   0.33333333  0.33333333  0.50000000       0.009
   0.50000000  0.33333333  0.50000000       0.009
  -0.33333333  0.33333333  0.50000000       0.009
  -0.16666667  0.33333333  0.50000000       0.009
   0.00000000  0.50000000  0.50000000       0.005
   0.16666667  0.50000000  0.50000000       0.009
   0.33333333  0.50000000  0.50000000       0.009
   0.50000000  0.50000000  0.50000000       0.005
 
 position of ions in fractional coordinates (direct lattice) 
   0.37965426  0.37146717  0.87599052
   0.88146564  0.87257498  0.87919515
   0.11675990  0.12879960  0.12396851
   0.88463522  0.37361726  0.37949804
   0.37652841  0.87412392  0.38096221
   0.61764195  0.12663310  0.62471980
   0.62048925  0.62643512  0.11696532
   0.50470883  0.25078425  0.24932565
   0.26012464  0.49721694  0.24466055
   0.25611723  0.24798025  0.50383552
   0.50295902  0.49546718  0.49602704
   0.49519329  0.75012553  0.75065737
   0.74828104  0.49473516  0.74167505
   0.74082632  0.75114304  0.49516497
   0.24615102  0.00464459  0.76086742
   0.25373536  0.75192117  0.00425084
   0.49683576  0.00644212  0.00349207
   0.74687626  0.00327175  0.25449709
   0.75152911  0.25099000  0.99808575
   0.99819149  0.25340990  0.74611580
   0.00573548  0.49810018  0.99450804
   0.99952403  0.74636109  0.25359871
   0.99662576  0.99942575  0.50386999
   0.75443736  0.01568983  0.02584419
   0.02263011  0.73395524  0.01775203
   0.01370594  0.01504427  0.73913131
   0.73002705  0.73222932  0.73181917
   0.24043184  0.98194270  0.99138472
   0.98382554  0.26454444  0.97881017
   0.97455697  0.99617932  0.27066497
   0.27777426  0.26540971  0.24205614
   0.73464073  0.51460084  0.50550570
   0.01907972  0.23883996  0.51741152
   0.03278273  0.49878114  0.23457477
   0.73162509  0.23435746  0.25925175
   0.27645039  0.48312229  0.47690560
   0.96674863  0.76089782  0.48291986
   0.97614664  0.48445418  0.75677322
   0.26604151  0.77111720  0.77162660
   0.25428451  0.01633035  0.52943443
   0.51092515  0.72813129  0.50980917
   0.51560537  0.01765990  0.23972382
   0.25256009  0.73156707  0.23592010
   0.73669894  0.97908800  0.48623263
   0.49281070  0.26344682  0.48001079
   0.47247648  0.01250396  0.77408296
   0.77138927  0.26470669  0.73665426
   0.26219901  0.52009327  0.01561544
   0.51915432  0.24253538  0.02039357
   0.51989617  0.48815829  0.72267348
   0.22444212  0.23646812  0.76076586
   0.74519700  0.48604274  0.96942725
   0.48168623  0.76795963  0.98909966
   0.49311191  0.48537080  0.26177496
   0.74623413  0.76797489  0.26430469
 
 position of ions in cartesian coordinates  (Angst):
   3.17106074  3.07824693  7.24638766
   7.38229055  7.21893901  7.29552093
   0.97797016  1.06463308  1.02874008
   7.40859772  3.12481449  3.15677089
   3.16213445  7.19327099  3.17589041
   5.16411176  1.08499297  5.16907306
   5.20537527  5.17689631  0.99355573
   4.22691051  2.09149152  2.07293513
   2.18300518  4.09498455  2.03798529
   2.14065669  2.05435582  4.16944535
   4.21234443  4.09920416  4.11619157
   4.14743697  6.18835251  6.22508856
   6.26263211  4.11187705  6.14727263
   6.20889921  6.21063909  4.12037060
   2.04854539  0.06167642  6.28330236
   2.13806116  6.17991179  0.06139472
   4.16087950  0.08593920  0.03670172
   6.25054872  0.07899182  2.11199408
   6.28118917  2.11671576  8.25619534
   8.35123633  2.15059875  6.18060543
   0.03982318  4.09237593  8.22248179
   8.37943448  6.18639408  2.13061306
   8.35533667  8.26276311  4.20356324
   6.31798427  0.17911213  0.22543388
   0.20209018  6.01738687  0.16870649
   0.10245183  0.13122123  6.10062834
   6.11409481  6.05713869  6.07272112
   2.01386292  8.07369859  8.21474272
   8.22715683  2.24310751  8.10111525
   8.17443502  8.23247515  2.27850993
   2.32679310  2.19617634  2.00986344
   6.15277196  4.27155613  4.19857367
   0.15515869  1.96377395  4.27754547
   0.27929539  4.09256163  1.95127618
   6.12679768  1.97206640  2.15787734
   2.31552307  3.98274818  3.95451094
   8.10129940  6.30552961  4.02310045
   8.17048930  4.04293709  6.27509717
   2.22838176  6.34533633  6.39522335
   2.12080907  0.15580614  4.37378544
   4.28290404  6.00684830  4.23698391
   4.31423987  0.18137153  1.98692054
   2.12391411  6.01519961  1.97271115
   6.17848417  8.07858277  4.05337532
   4.12355915  2.19666984  3.97694668
   3.94385479  0.14129951  6.39610589
   6.45220638  2.22798892  6.09934609
   2.20468138  4.28045434  0.14841471
   4.35164261  2.02267550  0.18356220
   4.35019702  4.04257361  5.98672397
   1.87080884  1.96032206  6.28902985
   6.23277107  4.04258314  8.02657969
   4.03056993  6.33588443  8.19324810
   4.13369278  4.01357637  2.18248226
   6.25841673  6.34677156  2.21569125
 


--------------------------------------------------------------------------------------------------------


 k-point   1 :   0.0000 0.0000 0.0000  plane waves:   15265
 k-point   2 :   0.1667 0.0000 0.0000  plane waves:   15278
 k-point   3 :   0.3333 0.0000-0.0000  plane waves:   15255
 k-point   4 :   0.5000 0.0000 0.0000  plane waves:   15254
 k-point   5 :  -0.0000 0.1667-0.0000  plane waves:   15276
 k-point   6 :   0.1667 0.1667 0.0000  plane waves:   15279
 k-point   7 :   0.3333 0.1667-0.0000  plane waves:   15263
 k-point   8 :   0.5000 0.1667 0.0000  plane waves:   15250
 k-point   9 :  -0.3333 0.1667 0.0000  plane waves:   15246
 k-point  10 :  -0.1667 0.1667-0.0000  plane waves:   15264
 k-point  11 :  -0.0000 0.3333-0.0000  plane waves:   15266
 k-point  12 :   0.1667 0.3333 0.0000  plane waves:   15286
 k-point  13 :   0.3333 0.3333 0.0000  plane waves:   15258
 k-point  14 :   0.5000 0.3333-0.0000  plane waves:   15249
 k-point  15 :  -0.3333 0.3333-0.0000  plane waves:   15248
 k-point  16 :  -0.1667 0.3333 0.0000  plane waves:   15242
 k-point  17 :  -0.0000 0.5000-0.0000  plane waves:   15260
 k-point  18 :   0.1667 0.5000 0.0000  plane waves:   15258
 k-point  19 :   0.3333 0.5000 0.0000  plane waves:   15252
 k-point  20 :   0.5000 0.5000-0.0000  plane waves:   15260
 k-point  21 :  -0.0000-0.0000 0.1667  plane waves:   15256
 k-point  22 :   0.1667 0.0000 0.1667  plane waves:   15275
 k-point  23 :   0.3333 0.0000 0.1667  plane waves:   15256
 k-point  24 :   0.5000 0.0000 0.1667  plane waves:   15227
 k-point  25 :  -0.3333 0.0000 0.1667  plane waves:   15252
 k-point  26 :  -0.1667 0.0000 0.1667  plane waves:   15267
 k-point  27 :  -0.0000 0.1667 0.1667  plane waves:   15256
 k-point  28 :   0.1667 0.1667 0.1667  plane waves:   15275
 k-point  29 :   0.3333 0.1667 0.1667  plane waves:   15252
 k-point  30 :   0.5000 0.1667 0.1667  plane waves:   15242
 k-point  31 :  -0.3333 0.1667 0.1667  plane waves:   15261
 k-point  32 :  -0.1667 0.1667 0.1667  plane waves:   15258
 k-point  33 :  -0.0000 0.3333 0.1667  plane waves:   15253
 k-point  34 :   0.1667 0.3333 0.1667  plane waves:   15266
 k-point  35 :   0.3333 0.3333 0.1667  plane waves:   15267
 k-point  36 :   0.5000 0.3333 0.1667  plane waves:   15258
 k-point  37 :  -0.3333 0.3333 0.1667  plane waves:   15260
 k-point  38 :  -0.1667 0.3333 0.1667  plane waves:   15253
 k-point  39 :  -0.0000 0.5000 0.1667  plane waves:   15250
 k-point  40 :   0.1667 0.5000 0.1667  plane waves:   15250
 k-point  41 :   0.3333 0.5000 0.1667  plane waves:   15250
 k-point  42 :   0.5000 0.5000 0.1667  plane waves:   15255
 k-point  43 :  -0.3333 0.5000 0.1667  plane waves:   15262
 k-point  44 :  -0.1667 0.5000 0.1667  plane waves:   15261
 k-point  45 :   0.0000-0.3333 0.1667  plane waves:   15238
 k-point  46 :   0.1667-0.3333 0.1667  plane waves:   15243
 k-point  47 :   0.3333-0.3333 0.1667  plane waves:   15250
 k-point  48 :   0.5000-0.3333 0.1667  plane waves:   15255
 k-point  49 :  -0.3333-0.3333 0.1667  plane waves:   15262
 k-point  50 :  -0.1667-0.3333 0.1667  plane waves:   15270
 k-point  51 :  -0.0000-0.1667 0.1667  plane waves:   15241
 k-point  52 :   0.1667-0.1667 0.1667  plane waves:   15248
 k-point  53 :   0.3333-0.1667 0.1667  plane waves:   15260
 k-point  54 :   0.5000-0.1667 0.1667  plane waves:   15255
 k-point  55 :  -0.3333-0.1667 0.1667  plane waves:   15249
 k-point  56 :  -0.1667-0.1667 0.1667  plane waves:   15274
 k-point  57 :  -0.0000-0.0000 0.3333  plane waves:   15253
 k-point  58 :   0.1667-0.0000 0.3333  plane waves:   15245
 k-point  59 :   0.3333 0.0000 0.3333  plane waves:   15243
 k-point  60 :   0.5000 0.0000 0.3333  plane waves:   15245
 k-point  61 :  -0.3333 0.0000 0.3333  plane waves:   15233
 k-point  62 :  -0.1667 0.0000 0.3333  plane waves:   15251
 k-point  63 :   0.0000 0.1667 0.3333  plane waves:   15253
 k-point  64 :   0.1667 0.1667 0.3333  plane waves:   15256
 k-point  65 :   0.3333 0.1667 0.3333  plane waves:   15228
 k-point  66 :   0.5000 0.1667 0.3333  plane waves:   15237
 k-point  67 :  -0.3333 0.1667 0.3333  plane waves:   15267
 k-point  68 :  -0.1667 0.1667 0.3333  plane waves:   15236
 k-point  69 :  -0.0000 0.3333 0.3333  plane waves:   15265
 k-point  70 :   0.1667 0.3333 0.3333  plane waves:   15265
 k-point  71 :   0.3333 0.3333 0.3333  plane waves:   15245
 k-point  72 :   0.5000 0.3333 0.3333  plane waves:   15222
 k-point  73 :  -0.3333 0.3333 0.3333  plane waves:   15243
 k-point  74 :  -0.1667 0.3333 0.3333  plane waves:   15253
 k-point  75 :  -0.0000 0.5000 0.3333  plane waves:   15268
 k-point  76 :   0.1667 0.5000 0.3333  plane waves:   15261
 k-point  77 :   0.3333 0.5000 0.3333  plane waves:   15246
 k-point  78 :   0.5000 0.5000 0.3333  plane waves:   15230
 k-point  79 :  -0.3333 0.5000 0.3333  plane waves:   15233
 k-point  80 :  -0.1667 0.5000 0.3333  plane waves:   15260
 k-point  81 :   0.0000-0.3333 0.3333  plane waves:   15258
 k-point  82 :   0.1667-0.3333 0.3333  plane waves:   15250
 k-point  83 :   0.3333-0.3333 0.3333  plane waves:   15231
 k-point  84 :   0.5000-0.3333 0.3333  plane waves:   15235
 k-point  85 :  -0.3333-0.3333 0.3333  plane waves:   15254
 k-point  86 :  -0.1667-0.3333 0.3333  plane waves:   15257
 k-point  87 :   0.0000-0.1667 0.3333  plane waves:   15258
 k-point  88 :   0.1667-0.1667 0.3333  plane waves:   15235
 k-point  89 :   0.3333-0.1667 0.3333  plane waves:   15251
 k-point  90 :   0.5000-0.1667 0.3333  plane waves:   15232
 k-point  91 :  -0.3333-0.1667 0.3333  plane waves:   15240
 k-point  92 :  -0.1667-0.1667 0.3333  plane waves:   15259
 k-point  93 :   0.0000 0.0000 0.5000  plane waves:   15246
 k-point  94 :   0.1667 0.0000 0.5000  plane waves:   15246
 k-point  95 :   0.3333 0.0000 0.5000  plane waves:   15240
 k-point  96 :   0.5000 0.0000 0.5000  plane waves:   15266
 k-point  97 :  -0.0000 0.1667 0.5000  plane waves:   15260
 k-point  98 :   0.1667 0.1667 0.5000  plane waves:   15255
 k-point  99 :   0.3333 0.1667 0.5000  plane waves:   15229
 k-point 100 :   0.5000 0.1667 0.5000  plane waves:   15226
 k-point 101 :  -0.3333 0.1667 0.5000  plane waves:   15233
 k-point 102 :  -0.1667 0.1667 0.5000  plane waves:   15256
 k-point 103 :   0.0000 0.3333 0.5000  plane waves:   15273
 k-point 104 :   0.1667 0.3333 0.5000  plane waves:   15267
 k-point 105 :   0.3333 0.3333 0.5000  plane waves:   15241
 k-point 106 :   0.5000 0.3333 0.5000  plane waves:   15221
 k-point 107 :  -0.3333 0.3333 0.5000  plane waves:   15242
 k-point 108 :  -0.1667 0.3333 0.5000  plane waves:   15258
 k-point 109 :   0.0000 0.5000 0.5000  plane waves:   15274
 k-point 110 :   0.1667 0.5000 0.5000  plane waves:   15276
 k-point 111 :   0.3333 0.5000 0.5000  plane waves:   15272
 k-point 112 :   0.5000 0.5000 0.5000  plane waves:   15230

 maximum and minimum number of plane-waves per node :       976      924

 maximum number of plane-waves:     15286
 maximum index in each direction: 
   IXMAX=   15   IYMAX=   15   IZMAX=   15
   IXMIN=  -16   IYMIN=  -15   IZMIN=  -15


 real space projection operators:
  total allocation   :      19147.08 KBytes
  max/ min on nodes  :       1370.55       1060.03


 parallel 3D FFT for wavefunctions:
    minimum data exchange during FFTs selected (reduces bandwidth)
 parallel 3D FFT for charge:
    minimum data exchange during FFTs selected (reduces bandwidth)


 total amount of memory used by VASP MPI-rank0   844102. kBytes
=======================================================================

   base      :      30000. kBytes
   nonlr-proj:       7201. kBytes
   fftplans  :       5309. kBytes
   grid      :       5820. kBytes
   one-center:        124. kBytes
   wavefun   :     795648. kBytes
 
     INWAV:  cpu time    0.0001: real time    0.0001
 Broyden mixing: mesh for mixing (old mesh)
   NGX = 31   NGY = 31   NGZ = 31
  (NGX  =128   NGY  =128   NGZ  =128)
  gives a total of  29791 points

 initial charge density was supplied:
 number of electron     407.0000005 magnetization      55.0000002
 keeping initial charge density in first step


--------------------------------------------------------------------------------------------------------


 Maximum index for non-local projection operator          393
 Maximum index for augmentation-charges         2793 (set IRDMAX)


--------------------------------------------------------------------------------------------------------


 First call to EWALD:  gamma=   0.214
 Maximum number of real-space cells 3x 3x 3
 Maximum number of reciprocal cells 3x 3x 3

    FEWALD:  cpu time    0.0018: real time    0.0020


--------------------------------------- Iteration      1(   1)  ---------------------------------------


    POTLOK:  cpu time    0.1014: real time    0.1015
atom =   1  type =  1  l = 0
 
 onsite density matrix
 
spin component  1
 
  0.0548
 
spin component  2
 
  0.0527
 
 occupancies and eigenvectors
 
  o =  0.0527  v =  0.0000  1.0000      0.0000  0.0000
  o =  0.0548  v =  1.0000  0.0000      0.0000  0.0000
atom =   2  type =  1  l = 0
 
 onsite density matrix
 
spin component  1
 
  0.0481
 
spin component  2
 
  0.0460
 
 occupancies and eigenvectors
 
  o =  0.0460  v =  0.0000  1.0000      0.0000  0.0000
  o =  0.0481  v =  1.0000  0.0000      0.0000  0.0000
atom =   3  type =  1  l = 0
 
 onsite density matrix
 
spin component  1
 
  0.0526
 
spin component  2
 
  0.0504
 
 occupancies and eigenvectors
 
  o =  0.0504  v =  0.0000  1.0000      0.0000  0.0000
  o =  0.0526  v =  1.0000  0.0000      0.0000  0.0000
atom =   4  type =  1  l = 0
 
 onsite density matrix
 
spin component  1
 
  0.0523
 
spin component  2
 
  0.0501
 
 occupancies and eigenvectors
 
  o =  0.0501  v =  0.0000  1.0000      0.0000  0.0000
  o =  0.0523  v =  1.0000  0.0000      0.0000  0.0000
atom =   5  type =  1  l = 0
 
 onsite density matrix
 
spin component  1
 
  0.0524
 
spin component  2
 
  0.0503
 
 occupancies and eigenvectors
 
  o =  0.0503  v =  0.0000  1.0000      0.0000  0.0000
  o =  0.0524  v =  1.0000  0.0000      0.0000  0.0000
atom =   6  type =  1  l = 0
 
 onsite density matrix
 
spin component  1
 
  0.0566
 
spin component  2
 
  0.0548
 
 occupancies and eigenvectors
 
  o =  0.0548  v =  0.0000  1.0000      0.0000  0.0000
  o =  0.0566  v =  1.0000  0.0000      0.0000  0.0000
atom =   7  type =  1  l = 0
 
 onsite density matrix
 
spin component  1
 
  0.0539
 
spin component  2
 
  0.0520
 
 occupancies and eigenvectors
 
  o =  0.0520  v =  0.0000  1.0000      0.0000  0.0000
  o =  0.0539  v =  1.0000  0.0000      0.0000  0.0000
atom =   8  type =  2  l = 2
 
 onsite density matrix
 
spin component  1
 
  0.9701 -0.0005 -0.0112  0.0021  0.0085
 -0.0005  0.9725 -0.0040  0.0002  0.0110
 -0.0112 -0.0040  0.5198  0.0440 -0.0114
  0.0021  0.0002  0.0440  0.9672 -0.0260
  0.0085  0.0110 -0.0114 -0.0260  0.5154
 
spin component  2
 
  0.0745 -0.0020  0.0135  0.0019 -0.0056
 -0.0020  0.0758  0.0056 -0.0052 -0.0124
  0.0135  0.0056  0.3162 -0.0240 -0.0074
  0.0019 -0.0052 -0.0240  0.0867  0.0090
 -0.0056 -0.0124 -0.0074  0.0090  0.3203
 
 occupancies and eigenvectors
 
  o =  0.0717  v =  0.0000  0.0000  0.0000  0.0000  0.0000 -0.8006 -0.5943  0.0581  0.0170 -0.0464      0.0000  0.0000  0.0000  0.0000  0.0000  0.0000  0.0000  0.0000  0.0000  0.0000
  o =  0.0741  v =  0.0000  0.0000  0.0000  0.0000  0.0000 -0.5126  0.7096  0.0602  0.4796  0.0082      0.0000  0.0000  0.0000  0.0000  0.0000  0.0000  0.0000  0.0000  0.0000  0.0000
  o =  0.0869  v =  0.0000  0.0000  0.0000  0.0000  0.0000 -0.3049  0.3746 -0.0809 -0.8708  0.0437      0.0000  0.0000  0.0000  0.0000  0.0000  0.0000  0.0000  0.0000  0.0000  0.0000
  o =  0.3116  v =  0.0000  0.0000  0.0000  0.0000  0.0000 -0.0262  0.0168 -0.7392  0.0514 -0.6708      0.0000  0.0000  0.0000  0.0000  0.0000  0.0000  0.0000  0.0000  0.0000  0.0000
  o =  0.3293  v =  0.0000  0.0000  0.0000  0.0000  0.0000  0.0504  0.0521  0.6633 -0.0939 -0.7389      0.0000  0.0000  0.0000  0.0000  0.0000  0.0000  0.0000  0.0000  0.0000  0.0000
  o =  0.5058  v = -0.0026  0.0117 -0.6691  0.0219 -0.7427  0.0000  0.0000  0.0000  0.0000  0.0000      0.0000  0.0000  0.0000  0.0000  0.0000  0.0000  0.0000  0.0000  0.0000  0.0000
  o =  0.5228  v =  0.0317  0.0231  0.7362 -0.1120 -0.6663  0.0000  0.0000  0.0000  0.0000  0.0000      0.0000  0.0000  0.0000  0.0000  0.0000  0.0000  0.0000  0.0000  0.0000  0.0000
  o =  0.9705  v =  0.9808  0.0122 -0.0435 -0.1872  0.0305  0.0000  0.0000  0.0000  0.0000  0.0000      0.0000  0.0000  0.0000  0.0000  0.0000  0.0000  0.0000  0.0000  0.0000  0.0000
  o =  0.9721  v =  0.1138  0.7655  0.0521  0.6310 -0.0166  0.0000  0.0000  0.0000  0.0000  0.0000      0.0000  0.0000  0.0000  0.0000  0.0000  0.0000  0.0000  0.0000  0.0000  0.0000
  o =  0.9738  v = -0.1551  0.6429 -0.0754 -0.7442  0.0566  0.0000  0.0000  0.0000  0.0000  0.0000      0.0000  0.0000  0.0000  0.0000  0.0000  0.0000  0.0000  0.0000  0.0000  0.0000
atom =   9  type =  2  l = 2
 
 onsite density matrix
 
spin component  1
 
  0.9699  0.0013 -0.0074 -0.0013 -0.0177
  0.0013  0.9690  0.0381 -0.0007  0.0077
 -0.0074  0.0381  0.5157  0.0033  0.0047
 -0.0013 -0.0007  0.0033  0.9701 -0.0155
 -0.0177  0.0077  0.0047 -0.0155  0.5016
 
spin component  2
 
  0.0762  0.0020  0.0105 -0.0039  0.0105
  0.0020  0.0817 -0.0234 -0.0044  0.0014
  0.0105 -0.0234  0.3191  0.0019  0.0088
 -0.0039 -0.0044  0.0019  0.0772  0.0130
  0.0105  0.0014  0.0088  0.0130  0.3134
 
 occupancies and eigenvectors
 
  o =  0.0713  v =  0.0000  0.0000  0.0000  0.0000  0.0000 -0.6939 -0.1256  0.0205 -0.7055  0.0679      0.0000  0.0000  0.0000  0.0000  0.0000  0.0000  0.0000  0.0000  0.0000  0.0000
  o =  0.0749  v =  0.0000  0.0000  0.0000  0.0000  0.0000  0.5433 -0.7290 -0.0902 -0.4065  0.0060      0.0000  0.0000  0.0000  0.0000  0.0000  0.0000  0.0000  0.0000  0.0000  0.0000
  o =  0.0851  v =  0.0000  0.0000  0.0000  0.0000  0.0000 -0.4692 -0.6658 -0.0501  0.5780 -0.0054      0.0000  0.0000  0.0000  0.0000  0.0000  0.0000  0.0000  0.0000  0.0000  0.0000
  o =  0.3083  v =  0.0000  0.0000  0.0000  0.0000  0.0000 -0.0119 -0.0623  0.5597 -0.0405 -0.8253      0.0000  0.0000  0.0000  0.0000  0.0000  0.0000  0.0000  0.0000  0.0000  0.0000
  o =  0.3281  v =  0.0000  0.0000  0.0000  0.0000  0.0000  0.0564 -0.0751  0.8220  0.0358  0.5605      0.0000  0.0000  0.0000  0.0000  0.0000  0.0000  0.0000  0.0000  0.0000  0.0000
  o =  0.4992  v = -0.0317 -0.0070  0.2801 -0.0336 -0.9588  0.0000  0.0000  0.0000  0.0000  0.0000      0.0000  0.0000  0.0000  0.0000  0.0000  0.0000  0.0000  0.0000  0.0000  0.0000
  o =  0.5134  v =  0.0266 -0.0848  0.9562  0.0026  0.2789  0.0000  0.0000  0.0000  0.0000  0.0000      0.0000  0.0000  0.0000  0.0000  0.0000  0.0000  0.0000  0.0000  0.0000  0.0000
  o =  0.9699  v =  0.6698  0.0932  0.0017  0.7351 -0.0481  0.0000  0.0000  0.0000  0.0000  0.0000      0.0000  0.0000  0.0000  0.0000  0.0000  0.0000  0.0000  0.0000  0.0000  0.0000
  o =  0.9710  v =  0.6763 -0.4794 -0.0553 -0.5563 -0.0155  0.0000  0.0000  0.0000  0.0000  0.0000      0.0000  0.0000  0.0000  0.0000  0.0000  0.0000  0.0000  0.0000  0.0000  0.0000
  o =  0.9727  v =  0.3038  0.8684  0.0649 -0.3860  0.0161  0.0000  0.0000  0.0000  0.0000  0.0000      0.0000  0.0000  0.0000  0.0000  0.0000  0.0000  0.0000  0.0000  0.0000  0.0000
atom =  10  type =  2  l = 2
 
 onsite density matrix
 
spin component  1
 
  0.9657 -0.0005 -0.0021 -0.0016  0.0058
 -0.0005  0.9515 -0.0129  0.0037 -0.0580
 -0.0021 -0.0129  0.9775  0.0037 -0.1051
 -0.0016  0.0037  0.0037  0.9527  0.0306
  0.0058 -0.0580 -0.1051  0.0306  0.4864
 
spin component  2
 
  0.0522 -0.0040 -0.0104 -0.0041 -0.0009
 -0.0040  0.0440  0.0051  0.0016  0.0248
 -0.0104  0.0051  0.1403 -0.0066  0.0189
 -0.0041  0.0016 -0.0066  0.0328 -0.0133
 -0.0009  0.0248  0.0189 -0.0133  0.2240
 
 occupancies and eigenvectors
 
  o =  0.0299  v =  0.0000  0.0000  0.0000  0.0000  0.0000 -0.1640  0.2481 -0.0679 -0.9480 -0.0907      0.0000  0.0000  0.0000  0.0000  0.0000  0.0000  0.0000  0.0000  0.0000  0.0000
  o =  0.0398  v =  0.0000  0.0000  0.0000  0.0000  0.0000 -0.3646 -0.9062 -0.0242 -0.1828  0.1094      0.0000  0.0000  0.0000  0.0000  0.0000  0.0000  0.0000  0.0000  0.0000  0.0000
  o =  0.0535  v =  0.0000  0.0000  0.0000  0.0000  0.0000  0.9092 -0.3159  0.1046 -0.2493  0.0198      0.0000  0.0000  0.0000  0.0000  0.0000  0.0000  0.0000  0.0000  0.0000  0.0000
  o =  0.1375  v =  0.0000  0.0000  0.0000  0.0000  0.0000  0.1147  0.0002 -0.9689  0.0288  0.2174      0.0000  0.0000  0.0000  0.0000  0.0000  0.0000  0.0000  0.0000  0.0000  0.0000
[...]
tot          0.538  -1.052  54.536  54.021
 
    FORLOC:  cpu time    0.0123: real time    0.0123
    FORNL :  cpu time   18.1592: real time   18.1987
    STRESS:  cpu time  517.8255: real time  517.9161
    FORCOR:  cpu time    0.0930: real time    0.0938
    OFIELD:  cpu time    0.0005: real time    0.0005

  FORCE on cell =-STRESS in cart. coord.  units (eV):
  Direction    XX          YY          ZZ          XY          YZ          ZX
  --------------------------------------------------------------------------------------
  Alpha Z  1611.95487  1611.95487  1611.95487
  Ewald   -9228.73749 -8864.93823 -8927.10573  -458.13082  -457.95886   175.20014
  Hartree  5663.49441  5784.41988  5768.60496  -369.74824  -375.74867   145.89230
  E(xc)   -2402.67046 -2403.36554 -2403.22946     0.08892    -0.01376     0.00325
  Local   -2820.80155 -3258.46697 -3190.05747   826.01022   830.78751  -320.11665
  n-local -1220.37082 -1207.46551 -1209.09567    -0.43244    -0.39902     0.03020
  augment  1938.99862  1916.86182  1920.88337     0.27548     1.78140    -0.44563
  Kinetic  6458.13449  6420.97397  6428.07651     1.92632     1.54897    -0.56109
  Fock        0.00000     0.00000     0.00000     0.00000     0.00000     0.00000
  -------------------------------------------------------------------------------------
  Total       0.00206    -0.02570     0.03138    -0.01056    -0.00243     0.00252
  in kB       0.00583    -0.07268     0.08876    -0.02988    -0.00688     0.00713
  external pressure =        0.01 kB  Pullay stress =        0.00 kB


 VOLUME and BASIS-vectors are now :
 -----------------------------------------------------------------------------
  energy-cutoff  :      520.00
  volume of cell :      566.48
      direct lattice vectors                 reciprocal lattice vectors
     8.374650771  0.066630990  0.015478538     0.119409548 -0.000256429  0.000246837
     0.017539788  8.196291188  0.029771153    -0.000970474  0.122008995 -0.000142031
    -0.017039607  0.009471673  8.252888558    -0.000220455 -0.000439650  0.121169746

  length of vectors
     8.374930137  8.196364023  8.252911584     0.119410079  0.122012937  0.121170744


 FORCES acting on ions:
    Electron-Ion                     Ewald-Force                    Non-Local-Force
 -----------------------------------------------------------------------------------------------
   0.257E+01 -.335E+01 0.501E+01   -.266E+01 0.340E+01 -.483E+01   0.852E-01 -.421E-01 -.207E+00
   0.507E+01 0.529E+01 0.333E+01   -.484E+01 -.498E+01 -.306E+01   -.284E+00 -.356E+00 -.323E+00
   0.181E+01 0.832E+00 -.840E+01   -.169E+01 -.993E+00 0.800E+01   -.163E+00 0.202E+00 0.486E+00
   -.447E+01 -.458E+01 0.631E+01   0.456E+01 0.434E+01 -.612E+01   -.992E-01 0.296E+00 -.219E+00
   0.877E+01 -.147E+01 0.128E+00   -.874E+01 0.128E+01 0.679E-01   -.486E-01 0.233E+00 -.224E+00
   -.201E+01 0.592E+01 -.706E+01   0.203E+01 -.585E+01 0.683E+01   -.261E-01 -.795E-01 0.284E+00
   -.929E+01 -.148E+01 0.167E+01   0.912E+01 0.156E+01 -.181E+01   0.201E+00 -.834E-01 0.165E+00
   0.111E+02 0.822E+01 0.987E+01   -.110E+02 -.861E+01 -.102E+02   -.137E+00 0.411E+00 0.324E+00
   0.894E+02 -.298E+02 -.255E+02   -.908E+02 0.299E+02 0.243E+02   0.139E+01 -.567E-01 0.121E+01
   0.551E+02 0.346E+01 0.420E+01   -.559E+02 -.468E+01 -.378E+01   0.781E+00 0.123E+01 -.414E+00
   0.313E+02 -.512E+02 -.310E+02   -.322E+02 0.511E+02 0.327E+02   0.926E+00 0.860E-01 -.169E+01
   -.970E+01 0.678E-01 0.792E+01   0.863E+01 0.208E+00 -.725E+01   0.107E+01 -.265E+00 -.668E+00
   -.406E+02 -.747E+02 -.224E+02   0.406E+02 0.732E+02 0.244E+02   -.152E-01 0.157E+01 -.192E+01
   -.405E+02 0.198E+01 -.362E+02   0.414E+02 -.442E+00 0.351E+02   -.931E+00 -.154E+01 0.110E+01
   0.497E+02 0.449E+02 0.299E+02   -.484E+02 -.441E+02 -.302E+02   -.133E+01 -.806E+00 0.324E+00
   0.540E+02 0.701E+01 0.557E+01   -.535E+02 -.705E+01 -.513E+01   -.583E+00 0.654E-01 -.433E+00
   -.271E+02 0.417E+02 0.246E+02   0.272E+02 -.417E+02 -.265E+02   -.104E+00 0.245E-01 0.187E+01
   -.665E+02 0.338E+02 0.283E+02   0.674E+02 -.335E+02 -.288E+02   -.931E+00 -.305E+00 0.565E+00
   -.383E+02 0.568E+01 -.226E+01   0.382E+02 -.585E+01 0.244E+01   0.451E-01 0.181E+00 -.176E+00
   -.135E+02 -.622E+01 0.232E+02   0.140E+02 0.689E+01 -.238E+02   -.487E+00 -.661E+00 0.615E+00
   0.164E+02 -.596E+02 -.499E+01   -.162E+02 0.594E+02 0.501E+01   -.132E+00 0.260E+00 -.122E-01
   -.145E+02 0.271E+02 -.101E+02   0.147E+02 -.274E+02 0.110E+02   -.195E+00 0.250E+00 -.848E+00
   -.522E+02 0.615E+02 -.222E+01   0.525E+02 -.614E+02 0.181E+01   -.261E+00 -.125E+00 0.412E+00
   -.207E+03 0.250E+03 0.267E+03   0.213E+03 -.261E+03 -.278E+03   -.607E+01 0.104E+02 0.112E+02
   0.250E+03 -.207E+03 0.218E+03   -.260E+03 0.218E+03 -.227E+03   0.929E+01 -.103E+02 0.972E+01
   0.240E+03 0.268E+03 -.204E+03   -.249E+03 -.278E+03 0.214E+03   0.964E+01 0.104E+02 -.102E+02
   -.229E+03 -.249E+03 -.255E+03   0.239E+03 0.259E+03 0.265E+03   -.100E+02 -.103E+02 -.107E+02
   0.215E+03 -.229E+03 -.260E+03   -.221E+03 0.241E+03 0.271E+03   0.631E+01 -.115E+02 -.116E+02
   -.202E+03 0.215E+03 -.255E+03   0.211E+03 -.226E+03 0.265E+03   -.910E+01 0.114E+02 -.103E+02
   -.263E+03 -.198E+03 0.214E+03   0.274E+03 0.206E+03 -.225E+03   -.105E+02 -.783E+01 0.111E+02
   0.281E+03 0.263E+03 0.183E+03   -.293E+03 -.275E+03 -.190E+03   0.115E+02 0.123E+02 0.639E+01
   -.266E+03 0.204E+03 0.239E+03   0.277E+03 -.214E+03 -.250E+03   -.111E+02 0.104E+02 0.107E+02
   0.178E+03 -.217E+03 0.269E+03   -.185E+03 0.226E+03 -.281E+03   0.704E+01 -.923E+01 0.118E+02
   0.251E+03 0.205E+03 -.214E+03   -.261E+03 -.214E+03 0.223E+03   0.100E+02 0.864E+01 -.902E+01
   -.280E+03 -.259E+03 -.182E+03   0.291E+03 0.271E+03 0.189E+03   -.116E+02 -.121E+02 -.663E+01
   0.282E+03 -.245E+03 -.255E+03   -.298E+03 0.259E+03 0.268E+03   0.155E+02 -.141E+02 -.138E+02
   -.266E+03 0.221E+03 -.238E+03   0.279E+03 -.234E+03 0.254E+03   -.135E+02 0.129E+02 -.152E+02
   -.255E+03 -.292E+03 0.214E+03   0.269E+03 0.308E+03 -.227E+03   -.139E+02 -.163E+02 0.129E+02
   0.242E+03 0.259E+03 0.267E+03   -.256E+03 -.273E+03 -.282E+03   0.143E+02 0.142E+02 0.148E+02
   -.167E+03 0.258E+03 0.254E+03   0.173E+03 -.270E+03 -.264E+03   -.563E+01 0.116E+02 0.998E+01
   0.260E+03 -.242E+03 0.185E+03   -.272E+03 0.253E+03 -.193E+03   0.112E+02 -.105E+02 0.836E+01
   0.249E+03 0.261E+03 -.207E+03   -.259E+03 -.274E+03 0.217E+03   0.104E+02 0.125E+02 -.102E+02
   -.154E+03 -.259E+03 -.270E+03   0.160E+03 0.269E+03 0.282E+03   -.578E+01 -.106E+02 -.119E+02
   0.170E+03 -.233E+03 -.267E+03   -.176E+03 0.245E+03 0.279E+03   0.555E+01 -.127E+02 -.111E+02
   -.185E+03 0.250E+03 -.251E+03   0.193E+03 -.262E+03 0.262E+03   -.885E+01 0.121E+02 -.109E+02
   -.257E+03 -.184E+03 0.228E+03   0.268E+03 0.191E+03 -.240E+03   -.107E+02 -.653E+01 0.114E+02
   0.229E+03 0.271E+03 0.184E+03   -.240E+03 -.284E+03 -.190E+03   0.111E+02 0.126E+02 0.654E+01
   -.168E+03 0.226E+03 0.272E+03   0.174E+03 -.237E+03 -.284E+03   -.595E+01 0.112E+02 0.121E+02
   0.198E+03 -.218E+03 0.259E+03   -.207E+03 0.229E+03 -.270E+03   0.884E+01 -.108E+02 0.117E+02
   0.254E+03 0.181E+03 -.257E+03   -.265E+03 -.188E+03 0.270E+03   0.109E+02 0.649E+01 -.126E+02
   -.228E+03 -.263E+03 -.191E+03   0.238E+03 0.275E+03 0.198E+03   -.108E+02 -.119E+02 -.695E+01
   0.165E+03 -.255E+03 -.260E+03   -.171E+03 0.266E+03 0.272E+03   0.554E+01 -.105E+02 -.113E+02
   -.263E+03 0.208E+03 -.196E+03   0.274E+03 -.216E+03 0.205E+03   -.110E+02 0.852E+01 -.920E+01
   -.238E+03 -.257E+03 0.235E+03   0.249E+03 0.269E+03 -.246E+03   -.106E+02 -.118E+02 0.110E+02
   0.160E+03 0.252E+03 0.276E+03   -.166E+03 -.263E+03 -.288E+03   0.614E+01 0.104E+02 0.124E+02
 -----------------------------------------------------------------------------------------------
   0.274E+01 0.128E+01 -.377E+00   -.256E-12 -.625E-12 -.227E-12   -.320E+01 -.665E+00 0.691E+00
 
 
 POSITION                                       TOTAL-FORCE (eV/Angst)
 -----------------------------------------------------------------------------------
      3.17106      3.07825      7.24639        -0.002072      0.001143      0.001406
      7.38229      7.21894      7.29552        -0.001011      0.000898     -0.001488
      0.97797      1.06463      1.02874        -0.001221      0.001568     -0.001262
      7.40860      3.12481      3.15677         0.002952     -0.002100      0.001810
      3.16213      7.19327      3.17589         0.003606     -0.001770     -0.002766
      5.16411      1.08499      5.16907         0.003276     -0.003153     -0.002536
      5.20538      5.17690      0.99356        -0.002238      0.000713     -0.001434
      4.22691      2.09149      2.07294        -0.003338      0.001580      0.002562
      2.18301      4.09498      2.03799        -0.000773     -0.004323      0.001973
      2.14066      2.05436      4.16945         0.000233     -0.004032      0.001575
      4.21234      4.09920      4.11619         0.001297     -0.000426      0.002486
      4.14744      6.18835      6.22509         0.000764      0.000673     -0.000846
      6.26263      4.11188      6.14727         0.000245     -0.001075     -0.004450
      6.20890      6.21064      4.12037         0.001966     -0.004353      0.001485
      2.04855      0.06168      6.28330         0.002483      0.001001     -0.001699
      2.13806      6.17991      0.06139         0.001486      0.002567     -0.003529
      4.16088      0.08594      0.03670         0.001409      0.002642     -0.000854
      6.25055      0.07899      2.11199        -0.000361      0.000908     -0.001722
      6.28119      2.11672      8.25620        -0.000112      0.002444      0.000697
      8.35124      2.15060      6.18061         0.001586     -0.001558      0.002327
      0.03982      4.09238      8.22248        -0.002789      0.002798     -0.001810
      8.37943      6.18639      2.13061        -0.001030      0.000702      0.002437
      8.35534      8.26276      4.20356        -0.000633     -0.000782      0.000203
      6.31798      0.17911      0.22543         0.000197      0.001758     -0.000056
      0.20209      6.01739      0.16871         0.001854      0.006723     -0.000146
      0.10245      0.13122      6.10063         0.000690     -0.001920      0.002569
      6.11409      6.05714      6.07272         0.001205     -0.000550     -0.002645
      2.01386      8.07370      8.21474         0.000729      0.002129      0.001283
      8.22716      2.24311      8.10112         0.001516      0.006678     -0.000850
      8.17444      8.23248      2.27851         0.001458     -0.002560     -0.001904
      2.32679      2.19618      2.00986        -0.001197     -0.001118      0.005928
      6.15277      4.27156      4.19857        -0.000879     -0.002962     -0.000496
      0.15516      1.96377      4.27755        -0.002862     -0.005487      0.000940
      0.27930      4.09256      1.95128        -0.000589      0.005549      0.003497
      6.12680      1.97207      2.15788         0.000004      0.000992     -0.001112
      2.31552      3.98275      3.95451        -0.001154     -0.003664      0.002117
      8.10130      6.30553      4.02310        -0.001336     -0.001351      0.000288
      8.17049      4.04294      6.27510        -0.001228      0.001838     -0.004345
      2.22838      6.34534      6.39522        -0.000183     -0.000744      0.002201
      2.12081      0.15581      4.37379         0.001141     -0.004208      0.001678
      4.28290      6.00685      4.23698        -0.001082     -0.001654      0.000639
      4.31424      0.18137      1.98692         0.000757     -0.001301     -0.000873
      2.12391      6.01520      1.97271         0.004005      0.003066     -0.000067
      6.17848      8.07858      4.05338         0.000287     -0.001778     -0.001273
      4.12356      2.19667      3.97695         0.004022     -0.002421     -0.001310
      3.94385      0.14130      6.39611        -0.000264      0.002550      0.000520
      6.45221      2.22799      6.09935        -0.000338     -0.001239      0.002150
      2.20468      4.28045      0.14841        -0.003147      0.000830      0.002099
      4.35164      2.02268      0.18356        -0.002078      0.003983      0.001573
      4.35020      4.04257      5.98672        -0.000345     -0.000682     -0.000173
      1.87081      1.96032      6.28903        -0.001208      0.000899     -0.002243
      6.23277      4.04258      8.02658        -0.001329      0.003372     -0.003377
      4.03057      6.33588      8.19325        -0.000278     -0.000578     -0.001371
      4.13369      4.01358      2.18248        -0.002135     -0.000090      0.000502
      6.25842      6.34677      2.21569        -0.001957     -0.002125     -0.000308
 -----------------------------------------------------------------------------------
    total drift:                               -0.454255      0.612780      0.314028


--------------------------------------------------------------------------------------------------------



  FREE ENERGIE OF THE ION-ELECTRON SYSTEM (eV)
  ---------------------------------------------------
  free  energy   TOTEN  =      -595.94525518 eV

  energy  without entropy=     -595.94525518  energy(sigma->0) =     -595.94525518
 


--------------------------------------------------------------------------------------------------------


    POTLOK:  cpu time    1.0645: real time    1.0646


--------------------------------------------------------------------------------------------------------




--------------------------------------------------------------------------------------------------------


  
 reached required accuracy - stopping structural energy minimisation
     LOOP+:  cpu time 9056.5373: real time 9062.4610
    4ORBIT:  cpu time    0.0000: real time    0.0000
 


 total charge     
 
# of ion       s       p       d       tot
------------------------------------------
    1        0.103   0.197   0.000   0.300
    2        0.090   0.167   0.000   0.257
    3        0.099   0.187   0.000   0.285
    4        0.098   0.185   0.000   0.283
    5        0.098   0.186   0.000   0.284
    6        0.107   0.205   0.000   0.312
    7        0.101   0.193   0.000   0.294
    8        0.390   6.479   4.786  11.655
    9        0.383   6.464   4.763  11.610
   10        0.317   6.336   4.801  11.454
   11        0.386   6.467   4.777  11.631
   12        0.311   6.322   4.789  11.422
   13        0.383   6.463   4.766  11.612
   14        0.384   6.463   4.770  11.617
   15        0.384   6.466   4.764  11.614
   16        0.384   6.467   4.768  11.619
   17        0.326   6.349   4.817  11.491
   18        0.385   6.470   4.767  11.622
   19        0.323   6.345   4.812  11.480
   20        0.386   6.470   4.774  11.630
   21        0.315   6.328   4.793  11.436
   22        0.305   6.316   4.781  11.403
   23        0.316   6.329   4.794  11.439
   24        1.574   3.501   0.000   5.075
   25        1.573   3.511   0.000   5.085
   26        1.575   3.503   0.000   5.077
   27        1.574   3.488   0.000   5.062
   28        1.578   3.505   0.000   5.082
   29        1.576   3.520   0.000   5.096
   30        1.574   3.500   0.000   5.074
   31        1.578   3.492   0.000   5.069
   32        1.578   3.497   0.000   5.075
   33        1.575   3.515   0.000   5.090
   34        1.573   3.494   0.000   5.066
   35        1.578   3.495   0.000   5.073
   36        1.585   3.464   0.000   5.050
   37        1.583   3.469   0.000   5.052
   38        1.586   3.458   0.000   5.044
   39        1.585   3.462   0.000   5.048
   40        1.574   3.503   0.000   5.076
   41        1.577   3.509   0.000   5.085
   42        1.578   3.504   0.000   5.082
   43        1.576   3.493   0.000   5.069
   44        1.579   3.499   0.000   5.077
   45        1.579   3.515   0.000   5.094
   46        1.575   3.504   0.000   5.080
   47        1.578   3.498   0.000   5.076
   48        1.578   3.501   0.000   5.079
   49        1.577   3.523   0.000   5.100
   50        1.578   3.496   0.000   5.075
   51        1.577   3.500   0.000   5.078
   52        1.574   3.500   0.000   5.074
   53        1.575   3.513   0.000   5.088
   54        1.579   3.500   0.000   5.080
   55        1.576   3.489   0.000   5.065
--------------------------------------------------
tot         56.851 215.775  76.524 349.150
 


 magnetization (x)
 
# of ion       s       p       d       tot
------------------------------------------
    1        0.002   0.003   0.000   0.005
    2        0.002   0.003   0.000   0.005
    3        0.002   0.003   0.000   0.005
    4        0.002   0.003   0.000   0.005
    5        0.002   0.003   0.000   0.005
    6        0.002   0.003   0.000   0.005
    7        0.002   0.003   0.000   0.005
    8        0.022   0.038   3.070   3.130
    9        0.023   0.039   3.057   3.119
   10        0.031   0.035   3.836   3.902
   11        0.024   0.039   3.087   3.150
   12        0.033   0.035   3.865   3.933
   13        0.023   0.038   3.066   3.127
   14        0.023   0.038   3.088   3.149
   15        0.023   0.038   3.062   3.122
   16        0.023   0.039   3.076   3.138
   17        0.030   0.034   3.818   3.882
   18        0.022   0.038   3.046   3.106
   19        0.031   0.034   3.828   3.892
   20        0.023   0.038   3.069   3.130
   21        0.034   0.035   3.853   3.921
   22        0.030   0.034   3.865   3.930
   23        0.033   0.035   3.850   3.917
   24        0.006  -0.005   0.000   0.000
   25       -0.000  -0.100   0.000  -0.100
   26        0.000  -0.080   0.000  -0.080
   27       -0.000  -0.087   0.000  -0.087
   28        0.006   0.003   0.000   0.009
   29        0.001  -0.085   0.000  -0.084
   30        0.002  -0.072   0.000  -0.070
   31        0.005  -0.006   0.000  -0.001
   32        0.001  -0.071   0.000  -0.070
   33        0.003  -0.060   0.000  -0.058
   34        0.003  -0.058   0.000  -0.055
   35        0.006  -0.000   0.000   0.005
   36        0.001  -0.110   0.000  -0.109
   37        0.002  -0.128   0.000  -0.126
   38        0.002  -0.098   0.000  -0.096
   39        0.001  -0.116   0.000  -0.115
   40        0.005  -0.022   0.000  -0.017
   41        0.002  -0.067   0.000  -0.065
   42        0.000  -0.083   0.000  -0.082
   43        0.005  -0.018   0.000  -0.014
   44        0.005  -0.007   0.000  -0.002
   45        0.002  -0.067   0.000  -0.065
   46        0.005  -0.025   0.000  -0.020
   47        0.005  -0.007   0.000  -0.001
   48        0.006  -0.002   0.000   0.004
   49        0.002  -0.068   0.000  -0.067
   50        0.005  -0.009   0.000  -0.004
   51        0.005  -0.004   0.000   0.001
   52        0.005  -0.019   0.000  -0.014
   53        0.002  -0.079   0.000  -0.077
   54        0.000  -0.078   0.000  -0.078
   55        0.004  -0.031   0.000  -0.027
--------------------------------------------------
tot          0.538  -1.052  54.536  54.021
 

 total amount of memory used by VASP MPI-rank0   844102. kBytes
=======================================================================

   base      :      30000. kBytes
   nonlr-proj:       7201. kBytes
   fftplans  :       5309. kBytes
   grid      :       5820. kBytes
   one-center:        124. kBytes
   wavefun   :     795648. kBytes
 
  
  
 General timing and accounting informations for this job:
 ========================================================
  
                  Total CPU time used (sec):     9193.080
                            User time (sec):     9116.090
                          System time (sec):       76.990
                         Elapsed time (sec):     9200.368
  
                   Maximum memory used (kb):     1796644.
                   Average memory used (kb):           0.
  
                          Minor page faults:       873920
                          Major page faults:            0
                 Voluntary context switches:         3036
