       N       E                     dE             d eps       ncg     rms          ort
DAV:   1     0.284149821416E+04    0.28415E+04   -0.29339E+05 18360   0.141E+03
DAV:   2    -0.970303837057E+03   -0.38118E+04   -0.36744E+04 18360   0.312E+02
DAV:   3    -0.123062958290E+04   -0.26033E+03   -0.25868E+03 18360   0.853E+01
DAV:   4    -0.123367613171E+04   -0.30465E+01   -0.30362E+01 18360   0.981E+00
DAV:   5    -0.123372581777E+04   -0.49686E-01   -0.49580E-01 18360   0.115E+00
SDA:   6    -0.872764399218E+03    0.36096E+03   -0.49580E-01 18360   0.619E+03 0.000E+00
CGA:   7    -0.985726671933E+03   -0.11296E+03   -0.11277E+03 18360   0.440E+02-0.264E+01
CGA:   8    -0.998870401128E+03   -0.13144E+02   -0.13118E+02 18360   0.105E+02 0.217E+00
CGA:   9    -0.100271425972E+04   -0.38439E+01   -0.38454E+01 18360   0.400E+01-0.143E-01
CGA:  10    -0.100398080042E+04   -0.12665E+01   -0.12701E+01 18360   0.868E+00-0.308E-01
CGA:  11    -0.100431549469E+04   -0.33469E+00   -0.33499E+00 18360   0.188E+00-0.155E-02
CGA:  12    -0.100438058421E+04   -0.65090E-01   -0.65087E-01 18360   0.431E-01-0.144E-04
CGA:  13    -0.100439683367E+04   -0.16249E-01   -0.16356E-01 18360   0.984E-02-0.739E-03
CGA:  14    -0.100440053045E+04   -0.36968E-02   -0.36199E-02 18360   0.216E-02 0.565E-03
CGA:  15    -0.100440147558E+04   -0.94513E-03   -0.91433E-03 18360   0.534E-03 0.198E-03
CGA:  16    -0.100440175439E+04   -0.27881E-03   -0.36851E-03 18360   0.382E-03-0.238E-03
CGA:  17    -0.100440181894E+04   -0.64553E-04   -0.64376E-04 18360   0.147E-03 0.522E-05
CGA:  18    -0.100440184600E+04   -0.27062E-04   -0.30144E-04 18360   0.589E-04 0.426E-04
CGA:  19    -0.100440185885E+04   -0.12845E-04   -0.14973E-04 18360   0.301E-04 0.289E-04
CGA:  20    -0.100440186843E+04   -0.95805E-05   -0.10080E-04 18360   0.130E-04 0.118E-04
   1 F= -.10044019E+04 E0= -.10044019E+04  d E =-.100440E+04  mag=    -0.0000
       N       E                     dE             d eps       ncg     rms          ort
SDA:   1    -0.100440529784E+04   -0.34390E-02    0.00000E+00 18360   0.298E-02 0.000E+00
CGA:   2    -0.100440637671E+04   -0.10789E-02   -0.10815E-02 18360   0.745E-03-0.290E-04
CGA:   3    -0.100440656025E+04   -0.18354E-03   -0.18371E-03 18360   0.107E-03 0.600E-05
CGA:   4    -0.100440658924E+04   -0.28986E-04   -0.29066E-04 18360   0.159E-04 0.134E-04
CGA:   5    -0.100440659559E+04   -0.63537E-05   -0.63087E-05 18360   0.530E-05 0.584E-06
   2 F= -.10044066E+04 E0= -.10044066E+04  d E =-.472716E-02  mag=    -0.0000
       N       E                     dE             d eps       ncg     rms          ort
SDA:   1    -0.100437734334E+04    0.29246E-01    0.00000E+00 18360   0.117E+00 0.000E+00
CGA:   2    -0.100441957982E+04   -0.42236E-01   -0.42251E-01 18360   0.286E-01-0.184E-03
CGA:   3    -0.100442679442E+04   -0.72146E-02   -0.72167E-02 18360   0.419E-02 0.539E-04
CGA:   4    -0.100442807155E+04   -0.12771E-02   -0.12760E-02 18360   0.690E-03 0.679E-04
CGA:   5    -0.100442831467E+04   -0.24312E-03   -0.24322E-03 18360   0.203E-03-0.174E-05
CGA:   6    -0.100442839306E+04   -0.78393E-04   -0.79419E-04 18360   0.661E-04-0.998E-05
CGA:   7    -0.100442841346E+04   -0.20401E-04   -0.20186E-04 18360   0.134E-04 0.842E-05
CGA:   8    -0.100442841836E+04   -0.48994E-05   -0.48361E-05 18360   0.288E-05 0.270E-05
   3 F= -.10044284E+04 E0= -.10044284E+04  d E =-.218228E-01  mag=     0.0000
       N       E                     dE             d eps       ncg     rms          ort
SDA:   1    -0.100437468523E+04    0.53728E-01    0.00000E+00 18360   0.144E+00 0.000E+00
CGA:   2    -0.100442674079E+04   -0.52056E-01   -0.52066E-01 18360   0.348E-01-0.211E-03
CGA:   3    -0.100443555028E+04   -0.88095E-02   -0.88131E-02 18360   0.510E-02 0.510E-04
CGA:   4    -0.100443708655E+04   -0.15363E-02   -0.15373E-02 18360   0.826E-03 0.828E-04
CGA:   5    -0.100443737885E+04   -0.29229E-03   -0.29248E-03 18360   0.243E-03-0.515E-05
CGA:   6    -0.100443747266E+04   -0.93815E-04   -0.94807E-04 18360   0.797E-04-0.126E-04
CGA:   7    -0.100443749670E+04   -0.24037E-04   -0.24038E-04 18360   0.161E-04 0.107E-04
CGA:   8    -0.100443750270E+04   -0.60072E-05   -0.59808E-05 18360   0.353E-05 0.293E-05
   4 F= -.10044375E+04 E0= -.10044375E+04  d E =-.908434E-02  mag=     0.0000
       N       E                     dE             d eps       ncg     rms          ort
SDA:   1    -0.100443632312E+04    0.11736E-02    0.00000E+00 18360   0.401E-02 0.000E+00
CGA:   2    -0.100443781551E+04   -0.14924E-02   -0.14939E-02 18360   0.839E-03-0.384E-04
CGA:   3    -0.100443802628E+04   -0.21078E-03   -0.21152E-03 18360   0.122E-03 0.918E-05
CGA:   4    -0.100443805282E+04   -0.26531E-04   -0.28446E-04 18360   0.162E-04 0.189E-04
CGA:   5    -0.100443805852E+04   -0.57060E-05   -0.57419E-05 18360   0.454E-05 0.187E-05
   5 F= -.10044381E+04 E0= -.10044381E+04  d E =-.555817E-03  mag=    -0.0000
       N       E                     dE             d eps       ncg     rms          ort
SDA:   1    -0.100434044288E+04    0.97610E-01    0.00000E+00 18360   0.238E+00 0.000E+00
CGA:   2    -0.100442657804E+04   -0.86135E-01   -0.86134E-01 18360   0.481E-01-0.293E-03
CGA:   3    -0.100443917121E+04   -0.12593E-01   -0.12599E-01 18360   0.730E-02 0.541E-04
CGA:   4    -0.100444099170E+04   -0.18205E-02   -0.18345E-02 18360   0.101E-02 0.128E-03
CGA:   5    -0.100444132838E+04   -0.33667E-03   -0.33640E-03 18360   0.227E-03-0.956E-05
CGA:   6    -0.100444142145E+04   -0.93073E-04   -0.94069E-04 18360   0.818E-04-0.152E-04
CGA:   7    -0.100444144276E+04   -0.21316E-04   -0.22439E-04 18360   0.187E-04 0.179E-04
CGA:   8    -0.100444145019E+04   -0.74204E-05   -0.74896E-05 18360   0.476E-05 0.283E-05
   6 F= -.10044415E+04 E0= -.10044415E+04  d E =-.339166E-02  mag=    -0.0000
       N       E                     dE             d eps       ncg     rms          ort
SDA:   1    -0.100434762446E+04    0.93818E-01    0.00000E+00 18360   0.221E+00 0.000E+00
CGA:   2    -0.100442944779E+04   -0.81823E-01   -0.81823E-01 18360   0.441E-01 0.226E-04
CGA:   3    -0.100444063700E+04   -0.11189E-01   -0.11189E-01 18360   0.650E-02 0.212E-05
CGA:   4    -0.100444233128E+04   -0.16943E-02   -0.16892E-02 18360   0.954E-03-0.460E-04
CGA:   5    -0.100444262951E+04   -0.29823E-03   -0.29813E-03 18360   0.190E-03-0.190E-05
CGA:   6    -0.100444269899E+04   -0.69478E-04   -0.69425E-04 18360   0.561E-04 0.122E-04
CGA:   7    -0.100444272760E+04   -0.28614E-04   -0.30191E-04 18360   0.275E-04-0.110E-04
CGA:   8    -0.100444273447E+04   -0.68699E-05   -0.68832E-05 18360   0.484E-05 0.232E-06
   7 F= -.10044427E+04 E0= -.10044427E+04  d E =-.128429E-02  mag=     0.0000
       N       E                     dE             d eps       ncg     rms          ort
SDA:   1    -0.100417181969E+04    0.27091E+00    0.00000E+00 18360   0.643E+00 0.000E+00
CGA:   2    -0.100440792505E+04   -0.23611E+00   -0.23611E+00 18360   0.127E+00-0.517E-04
CGA:   3    -0.100443980094E+04   -0.31876E-01   -0.31870E-01 18360   0.189E-01-0.516E-04
CGA:   4    -0.100444464578E+04   -0.48448E-02   -0.48422E-02 18360   0.266E-02-0.261E-04
CGA:   5    -0.100444546785E+04   -0.82207E-03   -0.82213E-03 18360   0.496E-03 0.184E-05
CGA:   6    -0.100444565699E+04   -0.18915E-03   -0.18884E-03 18360   0.157E-03 0.969E-05
CGA:   7    -0.100444572616E+04   -0.69167E-04   -0.70080E-04 18360   0.568E-04-0.103E-04
CGA:   8    -0.100444574612E+04   -0.19961E-04   -0.20031E-04 18360   0.101E-04-0.302E-05
CGA:   9    -0.100444574881E+04   -0.26877E-05   -0.27954E-05 18360   0.161E-05 0.173E-05
   8 F= -.10044457E+04 E0= -.10044457E+04  d E =-.301434E-02  mag=    -0.0000
       N       E                     dE             d eps       ncg     rms          ort
SDA:   1    -0.100417816347E+04    0.26758E+00    0.00000E+00 18360   0.620E+00 0.000E+00
CGA:   2    -0.100440859985E+04   -0.23044E+00   -0.23045E+00 18360   0.123E+00-0.360E-03
CGA:   3    -0.100443957765E+04   -0.30978E-01   -0.30983E-01 18360   0.180E-01 0.370E-04
CGA:   4    -0.100444420527E+04   -0.46276E-02   -0.46308E-02 18360   0.262E-02 0.356E-04
CGA:   5    -0.100444502490E+04   -0.81963E-03   -0.81982E-03 18360   0.506E-03 0.646E-05
CGA:   6    -0.100444522400E+04   -0.19910E-03   -0.19913E-03 18360   0.166E-03-0.687E-06
CGA:   7    -0.100444529034E+04   -0.66342E-04   -0.66284E-04 18360   0.497E-04 0.105E-05
CGA:   8    -0.100444530887E+04   -0.18526E-04   -0.18519E-04 18360   0.877E-05 0.276E-06
CGA:   9    -0.100444531187E+04   -0.30039E-05   -0.30083E-05 18360   0.135E-05 0.689E-06
   9 F= -.10044453E+04 E0= -.10044453E+04  d E =0.436940E-03  mag=     0.0000
       N       E                     dE             d eps       ncg     rms          ort
SDA:   1    -0.100441682890E+04    0.28480E-01    0.00000E+00 18360   0.727E-01 0.000E+00
CGA:   2    -0.100444300575E+04   -0.26177E-01   -0.26176E-01 18360   0.159E-01 0.842E-04
CGA:   3    -0.100444701703E+04   -0.40113E-02   -0.40039E-02 18360   0.250E-02-0.816E-04
CGA:   4    -0.100444771607E+04   -0.69904E-03   -0.69968E-03 18360   0.370E-03 0.109E-04
CGA:   5    -0.100444783381E+04   -0.11774E-03   -0.11794E-03 18360   0.874E-04 0.984E-05
CGA:   6    -0.100444787161E+04   -0.37802E-04   -0.38778E-04 18360   0.371E-04-0.102E-04
CGA:   7    -0.100444788229E+04   -0.10675E-04   -0.10710E-04 18360   0.817E-05 0.239E-05
CGA:   8    -0.100444788533E+04   -0.30365E-05   -0.30307E-05 18360   0.178E-05 0.727E-06
  10 F= -.10044479E+04 E0= -.10044479E+04  d E =-.257346E-02  mag=     0.0000
       N       E                     dE             d eps       ncg     rms          ort
SDA:   1    -0.100444590747E+04    0.19748E-02    0.00000E+00 18360   0.521E-02 0.000E+00
CGA:   2    -0.100444784297E+04   -0.19355E-02   -0.19351E-02 18360   0.103E-02 0.226E-04
CGA:   3    -0.100444810801E+04   -0.26504E-03   -0.26422E-03 18360   0.161E-03-0.814E-05
CGA:   4    -0.100444815374E+04   -0.45732E-04   -0.44938E-04 18360   0.272E-04-0.116E-04
CGA:   5    -0.100444816039E+04   -0.66517E-05   -0.68417E-05 18360   0.457E-05 0.252E-05
  11 F= -.10044482E+04 E0= -.10044482E+04  d E =-.275067E-03  mag=     0.0000
       N       E                     dE             d eps       ncg     rms          ort
SDA:   1    -0.100441541817E+04    0.32736E-01    0.00000E+00 18360   0.767E-01 0.000E+00
CGA:   2    -0.100444431760E+04   -0.28899E-01   -0.28899E-01 18360   0.147E-01 0.146E-04
CGA:   3    -0.100444797178E+04   -0.36542E-02   -0.36521E-02 18360   0.219E-02-0.223E-04
CGA:   4    -0.100444853369E+04   -0.56191E-03   -0.56110E-03 18360   0.310E-03-0.102E-04
CGA:   5    -0.100444862626E+04   -0.92570E-04   -0.92771E-04 18360   0.545E-04 0.643E-05
CGA:   6    -0.100444864764E+04   -0.21382E-04   -0.21301E-04 18360   0.177E-04 0.156E-05
CGA:   7    -0.100444865618E+04   -0.85397E-05   -0.92222E-05 18360   0.884E-05-0.392E-05
  12 F= -.10044487E+04 E0= -.10044487E+04  d E =-.495790E-03  mag=    -0.0000
       N       E                     dE             d eps       ncg     rms          ort
SDA:   1    -0.100434980329E+04    0.98844E-01    0.00000E+00 18360   0.227E+00 0.000E+00
CGA:   2    -0.100443728485E+04   -0.87482E-01   -0.87484E-01 18360   0.419E-01-0.460E-04
CGA:   3    -0.100444760425E+04   -0.10319E-01   -0.10315E-01 18360   0.638E-02-0.447E-04
CGA:   4    -0.100444924780E+04   -0.16436E-02   -0.16449E-02 18360   0.894E-03 0.169E-04
CGA:   5    -0.100444951933E+04   -0.27153E-03   -0.27187E-03 18360   0.160E-03 0.118E-04
CGA:   6    -0.100444958504E+04   -0.65712E-04   -0.66111E-04 18360   0.572E-04-0.528E-05
CGA:   7    -0.100444960678E+04   -0.21735E-04   -0.21728E-04 18360   0.165E-04 0.124E-06
CGA:   8    -0.100444961244E+04   -0.56638E-05   -0.56561E-05 18360   0.270E-05 0.166E-05
  13 F= -.10044496E+04 E0= -.10044496E+04  d E =-.956258E-03  mag=     0.0000
       N       E                     dE             d eps       ncg     rms          ort
SDA:   1    -0.100201053135E+04    0.24391E+01    0.00000E+00 18360   0.547E+01 0.000E+00
CGA:   2    -0.100412592753E+04   -0.21154E+01   -0.21153E+01 18360   0.104E+01 0.488E-03
CGA:   3    -0.100437961804E+04   -0.25369E+00   -0.25362E+00 18360   0.151E+00-0.486E-03
CGA:   4    -0.100441960194E+04   -0.39984E-01   -0.39971E-01 18360   0.224E-01-0.178E-03
CGA:   5    -0.100442653615E+04   -0.69342E-02   -0.69366E-02 18360   0.433E-02 0.101E-03
CGA:   6    -0.100442821332E+04   -0.16772E-02   -0.16764E-02 18360   0.146E-02 0.153E-04
CGA:   7    -0.100442882605E+04   -0.61273E-03   -0.61921E-03 18360   0.489E-03-0.727E-04
CGA:   8    -0.100442899099E+04   -0.16494E-03   -0.16477E-03 18360   0.782E-04 0.114E-04
CGA:   9    -0.100442901933E+04   -0.28342E-04   -0.28316E-04 18360   0.133E-04 0.192E-05
CGA:  10    -0.100442902530E+04   -0.59727E-05   -0.78873E-05 18360   0.906E-05-0.798E-05
  14 F= -.10044290E+04 E0= -.10044290E+04  d E =0.205871E-01  mag=     0.0000
       N       E                     dE             d eps       ncg     rms          ort
SDA:   1    -0.100388002793E+04    0.54899E+00    0.00000E+00 18360   0.129E+01 0.000E+00
CGA:   2    -0.100437333633E+04   -0.49331E+00   -0.49335E+00 18360   0.262E+00-0.787E-03
CGA:   3    -0.100443793190E+04   -0.64596E-01   -0.64600E-01 18360   0.376E-01-0.503E-04
CGA:   4    -0.100444837608E+04   -0.10444E-01   -0.10448E-01 18360   0.585E-02 0.681E-04
CGA:   5    -0.100445026979E+04   -0.18937E-02   -0.18935E-02 18360   0.136E-02-0.150E-04
CGA:   6    -0.100445079138E+04   -0.52158E-03   -0.52233E-03 18360   0.453E-03-0.157E-04
CGA:   7    -0.100445096121E+04   -0.16984E-03   -0.16930E-03 18360   0.119E-03 0.143E-04
CGA:   8    -0.100445101059E+04   -0.49375E-04   -0.49928E-04 18360   0.254E-04-0.850E-05
CGA:   9    -0.100445101884E+04   -0.82516E-05   -0.82556E-05 18360   0.422E-05-0.816E-06
  15 F= -.10044510E+04 E0= -.10044510E+04  d E =-.219935E-01  mag=    -0.0000
       N       E                     dE             d eps       ncg     rms          ort
SDA:   1    -0.100433661224E+04    0.11440E+00    0.00000E+00 18360   0.266E+00 0.000E+00
CGA:   2    -0.100443571580E+04   -0.99104E-01   -0.99113E-01 18360   0.531E-01-0.306E-03
CGA:   3    -0.100444897591E+04   -0.13260E-01   -0.13269E-01 18360   0.775E-02 0.878E-04
CGA:   4    -0.100445096693E+04   -0.19910E-02   -0.19979E-02 18360   0.109E-02 0.828E-04
CGA:   5    -0.100445132398E+04   -0.35705E-03   -0.35679E-03 18360   0.227E-03-0.186E-04
CGA:   6    -0.100445141256E+04   -0.88582E-04   -0.89249E-04 18360   0.786E-04-0.104E-04
CGA:   7    -0.100445143637E+04   -0.23809E-04   -0.24060E-04 18360   0.187E-04 0.136E-04
CGA:   8    -0.100445144416E+04   -0.77873E-05   -0.77474E-05 18360   0.428E-05 0.269E-05
  16 F= -.10044514E+04 E0= -.10044514E+04  d E =-.425317E-03  mag=    -0.0000
       N       E                     dE             d eps       ncg     rms          ort
SDA:   1    -0.100443413827E+04    0.17298E-01    0.00000E+00 18360   0.418E-01 0.000E+00
CGA:   2    -0.100444924778E+04   -0.15110E-01   -0.15109E-01 18360   0.911E-02-0.236E-04
CGA:   3    -0.100445156072E+04   -0.23129E-02   -0.23122E-02 18360   0.133E-02-0.676E-05
CGA:   4    -0.100445191186E+04   -0.35114E-03   -0.35318E-03 18360   0.199E-03 0.219E-04
CGA:   5    -0.100445197846E+04   -0.66595E-04   -0.66594E-04 18360   0.455E-04 0.183E-07
CGA:   6    -0.100445199816E+04   -0.19704E-04   -0.20209E-04 18360   0.188E-04-0.556E-05
CGA:   7    -0.100445200276E+04   -0.46000E-05   -0.47946E-05 18360   0.418E-05 0.291E-05
  17 F= -.10044520E+04 E0= -.10044520E+04  d E =-.558604E-03  mag=     0.0000
       N       E                     dE             d eps       ncg     rms          ort
SDA:   1    -0.100444852521E+04    0.34730E-02    0.00000E+00 18360   0.852E-02 0.000E+00
CGA:   2    -0.100445165259E+04   -0.31274E-02   -0.31265E-02 18360   0.167E-02 0.523E-04
CGA:   3    -0.100445208801E+04   -0.43542E-03   -0.43372E-03 18360   0.261E-03-0.184E-04
CGA:   4    -0.100445216441E+04   -0.76399E-04   -0.74565E-04 18360   0.487E-04-0.323E-04
CGA:   5    -0.100445217436E+04   -0.99498E-05   -0.10540E-04 18360   0.739E-05 0.616E-05
  18 F= -.10044522E+04 E0= -.10044522E+04  d E =-.171595E-03  mag=     0.0000
