       N       E                     dE             d eps       ncg     rms          rms(c)
DAV:   1     0.304950594839E+04    0.30495E+04   -0.25842E+05 73608   0.130E+03
DAV:   2    -0.613362186717E+03   -0.36629E+04   -0.35347E+04 89328   0.297E+02
DAV:   3    -0.871659139169E+03   -0.25830E+03   -0.25616E+03 89028   0.833E+01
DAV:   4    -0.874890227937E+03   -0.32311E+01   -0.32190E+01 89340   0.100E+01
DAV:   5    -0.874944952060E+03   -0.54724E-01   -0.54589E-01 90912   0.121E+00    0.989E+01
DAV:   6    -0.782167963606E+03    0.92777E+02   -0.39405E+02 83220   0.316E+01    0.504E+01
DAV:   7    -0.790616396864E+03   -0.84484E+01   -0.22675E+01 84012   0.845E+00    0.179E+01
DAV:   8    -0.794029366030E+03   -0.34130E+01   -0.84271E+00105372   0.542E+00    0.114E+01
DAV:   9    -0.795904279886E+03   -0.18749E+01   -0.44556E+00 91056   0.306E+00    0.718E+00
DAV:  10    -0.796615424396E+03   -0.71114E+00   -0.21837E+00 92352   0.278E+00    0.490E+00
DAV:  11    -0.797181731029E+03   -0.56631E+00   -0.24628E+00100176   0.226E+00    0.396E+00
DAV:  12    -0.797346074736E+03   -0.16434E+00   -0.19282E+00 97140   0.152E+00    0.243E+00
DAV:  13    -0.797364501160E+03   -0.18426E-01   -0.25081E-01 89856   0.972E-01    0.182E+00
DAV:  14    -0.797387293049E+03   -0.22792E-01   -0.50006E-01100608   0.747E-01    0.172E+00
DAV:  15    -0.797415523982E+03   -0.28231E-01   -0.60781E-02 83220   0.407E-01    0.239E+00
DAV:  16    -0.797400048387E+03    0.15476E-01   -0.34184E-02 95652   0.485E-01    0.131E+00
DAV:  17    -0.797395720672E+03    0.43277E-02   -0.62910E-02 91692   0.422E-01    0.150E+00
DAV:  18    -0.797407097427E+03   -0.11377E-01   -0.17475E-02 86880   0.234E-01    0.184E+00
DAV:  19    -0.797402342114E+03    0.47553E-02   -0.77866E-03 85464   0.180E-01    0.141E+00
DAV:  20    -0.797401052761E+03    0.12894E-02   -0.17614E-02107580   0.268E-01    0.668E-01
DAV:  21    -0.797401752162E+03   -0.69940E-03   -0.59554E-03 80592   0.155E-01    0.224E-01
DAV:  22    -0.797401932790E+03   -0.18063E-03   -0.18738E-03 88992   0.733E-02    0.164E-01
DAV:  23    -0.797402106324E+03   -0.17353E-03   -0.82103E-04 99744   0.592E-02    0.258E-01
DAV:  24    -0.797402015321E+03    0.91003E-04   -0.58191E-04 83964   0.423E-02    0.160E-01
DAV:  25    -0.797401994004E+03    0.21317E-04   -0.19820E-04 88368   0.211E-02    0.792E-02
DAV:  26    -0.797402031993E+03   -0.37989E-04   -0.35862E-05 65232   0.134E-02    0.460E-02
DAV:  27    -0.797402043902E+03   -0.11909E-04   -0.28604E-05 61800   0.115E-02    0.250E-02
DAV:  28    -0.797402047685E+03   -0.37827E-05   -0.18118E-05 51720   0.778E-03
   1 F= -.79740205E+03 E0= -.79738362E+03  d E =-.797402E+03  mag=    -0.2179
       N       E                     dE             d eps       ncg     rms          rms(c)
DAV:   1    -0.797402329080E+03   -0.28518E-03   -0.75611E-03 76104   0.159E-01    0.132E-01
DAV:   2    -0.797402821230E+03   -0.49215E-03   -0.25090E-03111552   0.105E-01    0.550E-01
DAV:   3    -0.797402204233E+03    0.61700E-03   -0.14055E-03104856   0.796E-02    0.583E-02
DAV:   4    -0.797402317061E+03   -0.11283E-03   -0.27056E-04 82284   0.270E-02    0.897E-02
DAV:   5    -0.797402306464E+03    0.10597E-04   -0.40086E-05 59676   0.154E-02    0.203E-02
DAV:   6    -0.797402307700E+03   -0.12355E-05   -0.20137E-05 43908   0.655E-03
   2 F= -.79740231E+03 E0= -.79738387E+03  d E =-.260015E-03  mag=    -0.2186
       N       E                     dE             d eps       ncg     rms          rms(c)
DAV:   1    -0.797402445431E+03   -0.13897E-03   -0.57832E-03 75648   0.140E-01    0.742E-02
DAV:   2    -0.797402574697E+03   -0.12927E-03   -0.77325E-04108036   0.583E-02    0.276E-01
DAV:   3    -0.797402419935E+03    0.15476E-03   -0.39905E-04103884   0.425E-02    0.223E-02
DAV:   4    -0.797402448873E+03   -0.28939E-04   -0.67703E-05 80508   0.133E-02    0.504E-02
DAV:   5    -0.797402443735E+03    0.51382E-05   -0.15964E-05 50892   0.890E-03
   3 F= -.79740244E+03 E0= -.79738398E+03  d E =-.136035E-03  mag=    -0.2204
       N       E                     dE             d eps       ncg     rms          rms(c)
DAV:   1    -0.797402650898E+03   -0.20202E-03   -0.74317E-02 75480   0.499E-01    0.163E-01
DAV:   2    -0.797403331203E+03   -0.68030E-03   -0.45963E-03 98808   0.138E-01    0.594E-01
DAV:   3    -0.797402622178E+03    0.70903E-03   -0.19625E-03101856   0.928E-02    0.474E-02
DAV:   4    -0.797402740721E+03   -0.11854E-03   -0.33845E-04 81660   0.289E-02    0.917E-02
DAV:   5    -0.797402723962E+03    0.16758E-04   -0.10662E-04 64128   0.179E-02    0.229E-02
DAV:   6    -0.797402731620E+03   -0.76574E-05   -0.35488E-05 58764   0.963E-03
   4 F= -.79740273E+03 E0= -.79738431E+03  d E =-.287885E-03  mag=    -0.2246
       N       E                     dE             d eps       ncg     rms          rms(c)
DAV:   1    -0.797402649734E+03    0.74228E-04   -0.29870E-01 74400   0.100E+00    0.282E-01
DAV:   2    -0.797404629915E+03   -0.19802E-02   -0.16914E-02 96192   0.247E-01    0.896E-01
DAV:   3    -0.797402836868E+03    0.17930E-02   -0.48076E-03 98976   0.155E-01    0.140E-01
DAV:   4    -0.797403061479E+03   -0.22461E-03   -0.12162E-03 83940   0.575E-02    0.142E-01
DAV:   5    -0.797403039226E+03    0.22253E-04   -0.23792E-04 80796   0.315E-02    0.540E-02
DAV:   6    -0.797403046598E+03   -0.73712E-05   -0.14655E-04 82272   0.190E-02    0.791E-02
DAV:   7    -0.797403030600E+03    0.15998E-04   -0.47787E-05 65868   0.145E-02    0.272E-02
DAV:   8    -0.797403034724E+03   -0.41249E-05   -0.51309E-05 58188   0.960E-03
   5 F= -.79740303E+03 E0= -.79738462E+03  d E =-.303105E-03  mag=    -0.2185
       N       E                     dE             d eps       ncg     rms          rms(c)
DAV:   1    -0.797401458973E+03    0.15716E-02   -0.91319E-01 73560   0.176E+00    0.508E-01
DAV:   2    -0.797408219739E+03   -0.67608E-02   -0.46828E-02 94188   0.437E-01    0.180E+00
DAV:   3    -0.797401857987E+03    0.63618E-02   -0.20243E-02 98208   0.280E-01    0.192E-01
DAV:   4    -0.797402817964E+03   -0.95998E-03   -0.40005E-03 81528   0.102E-01    0.249E-01
DAV:   5    -0.797402682361E+03    0.13560E-03   -0.94859E-04 85704   0.540E-02    0.734E-02
DAV:   6    -0.797402726269E+03   -0.43908E-04   -0.62226E-04 85260   0.342E-02    0.149E-01
DAV:   7    -0.797402674576E+03    0.51693E-04   -0.27528E-04 87924   0.250E-02    0.820E-02
DAV:   8    -0.797402661603E+03    0.12973E-04   -0.73955E-05 77892   0.168E-02    0.452E-02
DAV:   9    -0.797402667304E+03   -0.57005E-05   -0.57699E-05 55800   0.109E-02
   6 F= -.79740267E+03 E0= -.79738431E+03  d E =0.367421E-03  mag=    -0.2277
       N       E                     dE             d eps       ncg     rms          rms(c)
DAV:   1    -0.797402839360E+03   -0.17776E-03   -0.43217E-01 73704   0.122E+00    0.335E-01
DAV:   2    -0.797404744242E+03   -0.19049E-02   -0.21731E-02 91140   0.262E-01    0.763E-01
DAV:   3    -0.797403468801E+03    0.12754E-02   -0.75286E-03101520   0.155E-01    0.107E-01
DAV:   4    -0.797403576823E+03   -0.10802E-03   -0.87647E-04 85632   0.537E-02    0.140E-01
DAV:   5    -0.797403509144E+03    0.67680E-04   -0.40105E-04 95328   0.361E-02    0.807E-02
DAV:   6    -0.797403507907E+03    0.12362E-05   -0.14447E-04 89364   0.225E-02    0.693E-02
DAV:   7    -0.797403493642E+03    0.14265E-04   -0.44724E-05 75324   0.156E-02    0.275E-02
DAV:   8    -0.797403494415E+03   -0.77239E-06   -0.82786E-05 63084   0.112E-02
   7 F= -.79740349E+03 E0= -.79738516E+03  d E =-.827111E-03  mag=    -0.2224
       N       E                     dE             d eps       ncg     rms          rms(c)
DAV:   1    -0.797403727632E+03   -0.23399E-03   -0.11205E-01 73968   0.612E-01    0.262E-01
DAV:   2    -0.797405187509E+03   -0.14599E-02   -0.10978E-02102324   0.205E-01    0.834E-01
DAV:   3    -0.797403646708E+03    0.15408E-02   -0.43239E-03105408   0.141E-01    0.988E-02
DAV:   4    -0.797403907907E+03   -0.26120E-03   -0.94777E-04 84108   0.522E-02    0.211E-01
DAV:   5    -0.797403828143E+03    0.79765E-04   -0.22739E-04 83328   0.328E-02    0.908E-02
DAV:   6    -0.797403831337E+03   -0.31945E-05   -0.20742E-04 83112   0.219E-02    0.898E-02
DAV:   7    -0.797403819368E+03    0.11969E-04   -0.72555E-05 67524   0.163E-02    0.327E-02
DAV:   8    -0.797403818866E+03    0.50180E-06   -0.49186E-05 55488   0.935E-03
   8 F= -.79740382E+03 E0= -.79738542E+03  d E =-.324451E-03  mag=    -0.2126
       N       E                     dE             d eps       ncg     rms          rms(c)
DAV:   1    -0.797403906230E+03   -0.86862E-04   -0.72428E-02 73920   0.498E-01    0.148E-01
DAV:   2    -0.797404419858E+03   -0.51363E-03   -0.35474E-03 94368   0.123E-01    0.500E-01
DAV:   3    -0.797403929832E+03    0.49003E-03   -0.13659E-03 97068   0.804E-02    0.352E-02
DAV:   4    -0.797404028338E+03   -0.98507E-04   -0.23854E-04 80280   0.242E-02    0.922E-02
DAV:   5    -0.797404007658E+03    0.20680E-04   -0.73020E-05 57336   0.163E-02    0.251E-02
DAV:   6    -0.797404015516E+03   -0.78574E-05   -0.33790E-05 55116   0.926E-03
   9 F= -.79740402E+03 E0= -.79738562E+03  d E =-.196650E-03  mag=    -0.2167
       N       E                     dE             d eps       ncg     rms          rms(c)
DAV:   1    -0.797398031294E+03    0.59764E-02   -0.28927E+00 73440   0.316E+00    0.544E-01
DAV:   2    -0.797407163726E+03   -0.91324E-02   -0.94948E-02 89328   0.560E-01    0.140E+00
DAV:   3    -0.797402696064E+03    0.44677E-02   -0.13248E-02 91284   0.269E-01    0.281E-01
DAV:   4    -0.797403149359E+03   -0.45329E-03   -0.47097E-03 85908   0.115E-01    0.335E-01
DAV:   5    -0.797402908276E+03    0.24108E-03   -0.14343E-03 85428   0.742E-02    0.126E-01
DAV:   6    -0.797403051115E+03   -0.14284E-03   -0.86117E-04 86196   0.461E-02    0.257E-01
DAV:   7    -0.797402848098E+03    0.20302E-03   -0.55540E-04 93696   0.464E-02    0.356E-02
DAV:   8    -0.797402906737E+03   -0.58639E-04   -0.19281E-04 81672   0.198E-02    0.110E-01
DAV:   9    -0.797402876551E+03    0.30186E-04   -0.65799E-05 59220   0.158E-02    0.170E-02
DAV:  10    -0.797402880700E+03   -0.41491E-05   -0.14357E-05 50472   0.723E-03
  10 F= -.79740288E+03 E0= -.79738442E+03  d E =0.113482E-02  mag=    -0.2151
       N       E                     dE             d eps       ncg     rms          rms(c)
DAV:   1    -0.797394898316E+03    0.79782E-02   -0.30841E+00 73440   0.325E+00    0.821E-01
DAV:   2    -0.797413419035E+03   -0.18521E-01   -0.11014E-01 92640   0.713E-01    0.285E+00
DAV:   3    -0.797397627420E+03    0.15792E-01   -0.64530E-02 94104   0.431E-01    0.241E-01
DAV:   4    -0.797399910738E+03   -0.22833E-02   -0.57110E-03 77592   0.134E-01    0.390E-01
DAV:   5    -0.797399562922E+03    0.34782E-03   -0.18549E-03 88356   0.862E-02    0.155E-01
DAV:   6    -0.797399833559E+03   -0.27064E-03   -0.12557E-03 82248   0.561E-02    0.354E-01
DAV:   7    -0.797399481494E+03    0.35206E-03   -0.73551E-04 90456   0.559E-02    0.631E-02
DAV:   8    -0.797399542812E+03   -0.61317E-04   -0.21765E-04 78840   0.276E-02    0.584E-02
DAV:   9    -0.797399550685E+03   -0.78736E-05   -0.30088E-05 68676   0.123E-02
  11 F= -.79739955E+03 E0= -.79738102E+03  d E =0.333002E-02  mag=    -0.2244
       N       E                     dE             d eps       ncg     rms          rms(c)
DAV:   1    -0.797396240736E+03    0.33021E-02   -0.18969E+00 73440   0.257E+00    0.616E-01
DAV:   2    -0.797401934179E+03   -0.56934E-02   -0.59770E-02 89388   0.466E-01    0.992E-01
DAV:   3    -0.797399734388E+03    0.21998E-02   -0.98940E-03100488   0.242E-01    0.360E-01
DAV:   4    -0.797399819229E+03   -0.84841E-04   -0.46010E-03 89844   0.123E-01    0.317E-01
DAV:   5    -0.797399439965E+03    0.37926E-03   -0.20613E-03 97956   0.820E-02    0.959E-02
DAV:   6    -0.797399457503E+03   -0.17538E-04   -0.81127E-04 89472   0.551E-02    0.124E-01
DAV:   7    -0.797399401252E+03    0.56251E-04   -0.42658E-04 95796   0.360E-02    0.803E-02
DAV:   8    -0.797399394131E+03    0.71211E-05   -0.19998E-04 88260   0.219E-02    0.567E-02
DAV:   9    -0.797399390116E+03    0.40155E-05   -0.52775E-05 57096   0.122E-02
  12 F= -.79739939E+03 E0= -.79738097E+03  d E =0.160570E-03  mag=    -0.2535
       N       E                     dE             d eps       ncg     rms          rms(c)
DAV:   1    -0.797401787785E+03   -0.23937E-02   -0.60956E-01 73440   0.146E+00    0.727E-01
DAV:   2    -0.797410883800E+03   -0.90960E-02   -0.72757E-02106044   0.545E-01    0.192E+00
DAV:   3    -0.797401693748E+03    0.91901E-02   -0.28416E-02109656   0.364E-01    0.435E-01
DAV:   4    -0.797402215327E+03   -0.52158E-03   -0.73611E-03 87036   0.148E-01    0.299E-01
DAV:   5    -0.797402429943E+03   -0.21462E-03   -0.12218E-03 82776   0.790E-02    0.330E-01
DAV:   6    -0.797402082658E+03    0.34729E-03   -0.10957E-03 92976   0.618E-02    0.770E-02
DAV:   7    -0.797402187642E+03   -0.10498E-03   -0.35108E-04 78216   0.350E-02    0.142E-01
DAV:   8    -0.797402124152E+03    0.63490E-04   -0.91227E-05 76272   0.255E-02    0.309E-02
DAV:   9    -0.797402136955E+03   -0.12803E-04   -0.43649E-05 64632   0.108E-02    0.520E-02
DAV:  10    -0.797402130448E+03    0.65071E-05   -0.22629E-05 51300   0.889E-03
  13 F= -.79740213E+03 E0= -.79738371E+03  d E =-.274033E-02  mag=    -0.2251
       N       E                     dE             d eps       ncg     rms          rms(c)
DAV:   1    -0.797401024790E+03    0.11122E-02   -0.41067E-01 73464   0.119E+00    0.203E-01
DAV:   2    -0.797402349147E+03   -0.13244E-02   -0.11073E-02 88248   0.202E-01    0.583E-01
DAV:   3    -0.797401669219E+03    0.67993E-03   -0.18694E-03 90720   0.991E-02    0.713E-02
DAV:   4    -0.797401776012E+03   -0.10679E-03   -0.31056E-04 80208   0.340E-02    0.114E-01
DAV:   5    -0.797401745706E+03    0.30305E-04   -0.11167E-04 77568   0.274E-02    0.665E-02
DAV:   6    -0.797401753742E+03   -0.80361E-05   -0.89901E-05 83100   0.174E-02
  14 F= -.79740175E+03 E0= -.79738337E+03  d E =0.376705E-03  mag=    -0.2291
       N       E                     dE             d eps       ncg     rms          rms(c)
DAV:   1    -0.797399805900E+03    0.19398E-02   -0.36494E-01 73440   0.112E+00    0.678E-01
DAV:   2    -0.797409146584E+03   -0.93407E-02   -0.11484E-01113748   0.553E-01    0.194E+00
DAV:   3    -0.797399426800E+03    0.97198E-02   -0.24386E-02111888   0.362E-01    0.592E-01
DAV:   4    -0.797399316920E+03    0.10988E-03   -0.56664E-03 87408   0.127E-01    0.170E-01
DAV:   5    -0.797399571400E+03   -0.25448E-03   -0.11257E-03 84156   0.661E-02    0.123E-01
DAV:   6    -0.797399566654E+03    0.47464E-05   -0.23113E-04 79800   0.321E-02    0.385E-02
DAV:   7    -0.797399577610E+03   -0.10956E-04   -0.14638E-04 88896   0.180E-02    0.828E-02
DAV:   8    -0.797399569350E+03    0.82598E-05   -0.14070E-04 67500   0.193E-02    0.792E-02
DAV:   9    -0.797399560632E+03    0.87184E-05   -0.13972E-05 55284   0.106E-02
  15 F= -.79739956E+03 E0= -.79738116E+03  d E =0.219311E-02  mag=    -0.2191
       N       E                     dE             d eps       ncg     rms          rms(c)
DAV:   1    -0.797399827770E+03   -0.25842E-03   -0.68461E-02 73512   0.476E-01    0.396E-01
DAV:   2    -0.797403821567E+03   -0.39938E-02   -0.16690E-02112836   0.309E-01    0.165E+00
DAV:   3    -0.797398726457E+03    0.50951E-02   -0.12663E-02105420   0.234E-01    0.108E-01
DAV:   4    -0.797399712212E+03   -0.98575E-03   -0.17737E-03 78900   0.716E-02    0.227E-01
DAV:   5    -0.797399631964E+03    0.80248E-04   -0.26264E-04 79524   0.408E-02    0.454E-02
DAV:   6    -0.797399652769E+03   -0.20806E-04   -0.12469E-04 81444   0.172E-02    0.777E-02
DAV:   7    -0.797399638506E+03    0.14264E-04   -0.36731E-05 64944   0.137E-02    0.154E-02
DAV:   8    -0.797399641240E+03   -0.27343E-05   -0.13924E-05 51660   0.698E-03
  16 F= -.79739964E+03 E0= -.79738121E+03  d E =-.806082E-04  mag=    -0.2301
       N       E                     dE             d eps       ncg     rms          rms(c)
DAV:   1    -0.797399075629E+03    0.56288E-03   -0.23197E-02 73680   0.283E-01    0.972E-02
DAV:   2    -0.797399368502E+03   -0.29287E-03   -0.16541E-03103776   0.857E-02    0.396E-01
DAV:   3    -0.797399051303E+03    0.31720E-03   -0.71655E-04102468   0.588E-02    0.467E-02
DAV:   4    -0.797399099994E+03   -0.48691E-04   -0.14666E-04 81648   0.197E-02    0.500E-02
DAV:   5    -0.797399099157E+03    0.83731E-06   -0.26070E-05 53208   0.103E-02
  17 F= -.79739910E+03 E0= -.79738067E+03  d E =0.542084E-03  mag=    -0.2321
