       N       E                     dE             d eps       ncg     rms          ort
DAV:   1     0.828183337044E+04    0.82818E+04   -0.24676E+05  8424   0.238E+03
DAV:   2     0.918156026309E+03   -0.73637E+04   -0.69142E+04  8424   0.658E+02
DAV:   3    -0.677863797105E+03   -0.15960E+04   -0.14040E+04  8424   0.283E+02
DAV:   4    -0.834139438810E+03   -0.15628E+03   -0.15355E+03  8424   0.857E+01
DAV:   5    -0.836672507994E+03   -0.25331E+01   -0.25213E+01  8424   0.122E+01
SDA:   6    -0.257735156980E+03    0.57894E+03   -0.25213E+01  8424   0.646E+04 0.000E+00
CGA:   7    -0.225783653969E+03    0.31952E+02   -0.42907E+03  8424   0.291E+05-0.400E+04
CGA:   8     0.124608842920E+04    0.14719E+04   -0.18599E+04  8424   0.147E+06-0.548E+05
CGA:   9     0.506846506720E+04    0.38224E+04   -0.11562E+05  8424   0.199E+05-0.105E+05
CGA:  10     0.801948335673E+03   -0.42665E+04   -0.74807E+03  8424   0.298E+05-0.387E+05
CGA:  11     0.232074589445E+04    0.15188E+04   -0.14310E+04  8424   0.219E+06-0.141E+06
CGA:  12     0.505261699177E+04    0.27319E+04   -0.16373E+05  8424   0.243E+05-0.164E+05
CGA:  13    -0.596831228662E+03   -0.56494E+04   -0.91927E+03  8424   0.226E+04-0.204E+05
CGA:  14    -0.640736540183E+03   -0.43905E+02   -0.14413E+03  8424   0.944E+02 0.841E+02
CGA:  15    -0.657979893391E+03   -0.17243E+02   -0.17093E+02  8424   0.532E+02 0.422E+01
CGA:  16    -0.666337992377E+03   -0.83581E+01   -0.84011E+01  8424   0.324E+02 0.849E+01
CGA:  17    -0.671032212101E+03   -0.46942E+01   -0.49045E+01  8424   0.156E+02 0.139E+01
CGA:  18    -0.672688193151E+03   -0.16560E+01   -0.15810E+01  8424   0.150E+02-0.712E+01
CGA:  19    -0.673948415573E+03   -0.12602E+01   -0.10552E+01  8424   0.728E+01-0.331E+01
CGA:  20    -0.674485715419E+03   -0.53730E+00   -0.56905E+00  8424   0.112E+02-0.504E-01
CGA:  21    -0.675026335407E+03   -0.54062E+00   -0.60108E+00  8424   0.328E+01-0.207E+01
CGA:  22    -0.675269527555E+03   -0.24319E+00   -0.23885E+00  8424   0.327E+01-0.800E-01
CGA:  23    -0.675514997118E+03   -0.24547E+00   -0.17062E+00  8424   0.132E+01 0.118E+01
CGA:  24    -0.675624572887E+03   -0.10958E+00   -0.11472E+00  8424   0.171E+01-0.249E-01
CGA:  25    -0.675699111066E+03   -0.74538E-01   -0.79700E-01  8424   0.139E+01 0.169E-01
CGA:  26    -0.675750843716E+03   -0.51733E-01   -0.73436E-01  8424   0.616E+00-0.194E+00
CGA:  27    -0.675788614607E+03   -0.37771E-01   -0.41286E-01  8424   0.507E+00-0.502E-02
CGA:  28    -0.675833444139E+03   -0.44830E-01   -0.44882E-01  8424   0.191E+00-0.378E-03
CGA:  29    -0.675855555448E+03   -0.22111E-01   -0.22120E-01  8424   0.177E+00-0.640E-03
CGA:  30    -0.675875949855E+03   -0.20394E-01   -0.20442E-01  8424   0.951E-01 0.389E-02
CGA:  31    -0.675889311590E+03   -0.13362E-01   -0.13231E-01  8424   0.451E-01 0.469E-02
CGA:  32    -0.675894346537E+03   -0.50349E-02   -0.50460E-02  8424   0.283E-01 0.815E-03
CGA:  33    -0.675901189315E+03   -0.68428E-02   -0.11718E-01  8424   0.532E-01-0.168E-01
CGA:  34    -0.675908084416E+03   -0.68951E-02   -0.68909E-02  8424   0.208E-01-0.156E-02
CGA:  35    -0.675910454226E+03   -0.23698E-02   -0.23938E-02  8424   0.875E-02 0.151E-02
CGA:  36    -0.675913340255E+03   -0.28860E-02   -0.42235E-02  8424   0.186E-01-0.420E-02
CGA:  37    -0.675909327395E+03    0.40129E-02   -0.68789E-02  8424   0.960E-01-0.178E-01
CGA:  38    -0.675921759553E+03   -0.12432E-01   -0.12400E-01  8424   0.595E-01 0.176E-02
CGA:  39    -0.675936963248E+03   -0.15204E-01   -0.16137E-01  8424   0.282E-01-0.104E-01
CGA:  40    -0.675942165664E+03   -0.52024E-02   -0.53770E-02  8424   0.190E-01-0.339E-02
CGA:  41    -0.675930682768E+03    0.11483E-01   -0.88282E-02  8424   0.402E+00-0.281E-01
CGA:  42    -0.675966631397E+03   -0.35949E-01   -0.32451E-01  8424   0.550E-01 0.526E-01
CGA:  43    -0.675982512853E+03   -0.15881E-01   -0.15650E-01  8424   0.482E-01-0.332E-02
CGA:  44    -0.675992239861E+03   -0.97270E-02   -0.92810E-02  8424   0.602E-01-0.837E-02
CGA:  45    -0.676010240420E+03   -0.18001E-01   -0.28802E-01  8424   0.195E+00-0.410E-01
CGA:  46    -0.676053847332E+03   -0.43607E-01   -0.43207E-01  8424   0.717E-01-0.577E-02
CGA:  47    -0.676081002974E+03   -0.27156E-01   -0.28012E-01  8424   0.792E-01-0.976E-02
CGA:  48    -0.676105752071E+03   -0.24749E-01   -0.25140E-01  8424   0.102E+00-0.137E-01
CGA:  49    -0.676134025835E+03   -0.28274E-01   -0.44988E-01  8424   0.193E+00-0.733E-01
CGA:  50    -0.676169878365E+03   -0.35853E-01   -0.35737E-01  8424   0.597E-01-0.603E-02
CGA:  51    -0.676190198282E+03   -0.20320E-01   -0.20355E-01  8424   0.206E-01-0.134E-02
CGA:  52    -0.676196679977E+03   -0.64817E-02   -0.64513E-02  8424   0.996E-02-0.404E-02
CGA:  53    -0.676199619112E+03   -0.29391E-02   -0.47546E-02  8424   0.242E-01-0.682E-02
CGA:  54    -0.676203975278E+03   -0.43562E-02   -0.41999E-02  8424   0.433E-02-0.101E-02
CGA:  55    -0.676205870734E+03   -0.18955E-02   -0.25796E-02  8424   0.902E-02-0.238E-02
CGA:  56    -0.676207891128E+03   -0.20204E-02   -0.18221E-02  8424   0.290E-02-0.140E-02
CGA:  57    -0.676208832056E+03   -0.94093E-03   -0.10462E-02  8424   0.419E-02-0.122E-02
CGA:  58    -0.676211221878E+03   -0.23898E-02    0.96807E-03  8424   0.281E-02 0.165E-02
CGA:  59    -0.676211340140E+03   -0.11826E-03   -0.32400E-02  8424   0.328E-01-0.651E-02
CGA:  60    -0.676215726696E+03   -0.43866E-02   -0.45297E-02  8424   0.242E-02 0.854E-03
CGA:  61    -0.676216504633E+03   -0.77794E-03   -0.74857E-03  8424   0.715E-03-0.529E-03
CGA:  62    -0.676216649914E+03   -0.14528E-03   -0.15419E-03  8424   0.106E-01-0.605E-03
CGA:  63    -0.676218649615E+03   -0.19997E-02   -0.18680E-02  8424   0.109E-02-0.289E-03
CGA:  64    -0.676218910446E+03   -0.26083E-03   -0.27584E-03  8424   0.441E-03 0.406E-04
CGA:  65    -0.676215752934E+03    0.31575E-02   -0.17163E-02  8424   0.291E-01-0.149E-02
CGA:  66    -0.676220484041E+03   -0.47311E-02   -0.47796E-02  8424   0.458E-02 0.652E-03
CGA:  67    -0.676222179361E+03   -0.16953E-02   -0.15201E-02  8424   0.134E-02-0.241E-03
CGA:  68    -0.676222555764E+03   -0.37640E-03   -0.38569E-03  8424   0.450E-03 0.112E-04
CGA:  69    -0.676222823905E+03   -0.26814E-03   -0.22676E-03  8424   0.630E-03-0.885E-04
CGA:  70    -0.676223172150E+03   -0.34825E-03   -0.33567E-03  8424   0.113E-02-0.535E-04
CGA:  71    -0.676224851075E+03   -0.16789E-02   -0.18527E-02  8424   0.477E-02-0.330E-03
CGA:  72    -0.676226918543E+03   -0.20675E-02   -0.14799E-02  8424   0.523E-02-0.152E-02
CGA:  73    -0.676229214587E+03   -0.22960E-02   -0.17275E-02  8424   0.360E-02-0.230E-02
CGA:  74    -0.676230569603E+03   -0.13550E-02   -0.67605E-03  8424   0.179E-02-0.141E-02
CGA:  75    -0.676231424034E+03   -0.85443E-03   -0.42580E-03  8424   0.118E-02-0.990E-03
CGA:  76    -0.676231581502E+03   -0.15747E-03   -0.28164E-03  8424   0.357E-03 0.195E-03
CGA:  77    -0.676231640862E+03   -0.59360E-04   -0.14871E-03  8424   0.264E-03 0.183E-03
CGA:  78    -0.676231681833E+03   -0.40971E-04   -0.91426E-04  8424   0.162E-03 0.106E-03
CGA:  79    -0.676231701740E+03   -0.19907E-04   -0.91240E-04  8424   0.150E-03 0.179E-03
CGA:  80    -0.676231721234E+03   -0.19494E-04   -0.53187E-04  8424   0.102E-03 0.792E-04
CGA:  81    -0.676231760515E+03   -0.39281E-04   -0.54805E-04  8424   0.106E-03 0.705E-04
CGA:  82    -0.676231763475E+03   -0.29593E-05   -0.29882E-04  8424   0.920E-04 0.578E-04
CGA:  83    -0.676231821091E+03   -0.57616E-04   -0.57763E-04  8424   0.317E-03 0.103E-05
CGA:  84    -0.676231963028E+03   -0.14194E-03   -0.17887E-03  8424   0.148E-03 0.217E-03
CGA:  85    -0.676231977212E+03   -0.14184E-04   -0.24202E-04  8424   0.449E-04 0.182E-04
CGA:  86    -0.676232100341E+03   -0.12313E-03    0.22020E-04  8424   0.953E-04 0.307E-04
CGA:  87    -0.676232148568E+03   -0.48227E-04   -0.79710E-04  8424   0.105E-02-0.207E-03
CGA:  88    -0.676232265464E+03   -0.11690E-03   -0.15344E-03  8424   0.674E-04 0.679E-04
CGA:  89    -0.676232035013E+03    0.23045E-03   -0.12859E-03  8424   0.279E-02-0.320E-03
CGA:  90    -0.676232571381E+03   -0.53637E-03   -0.55208E-03  8424   0.164E-03 0.346E-04
CGA:  91    -0.676232660685E+03   -0.89303E-04   -0.49377E-04  8424   0.163E-03-0.101E-03
CGA:  92    -0.676232681756E+03   -0.21071E-04   -0.26106E-04  8424   0.363E-04 0.994E-05
CGA:  93    -0.676232806586E+03   -0.12483E-03    0.83146E-05  8424   0.695E-04 0.170E-04
CGA:  94    -0.676233175405E+03   -0.36882E-03    0.18633E-04  8424   0.866E-04 0.770E-04
CGA:  95    -0.676233196592E+03   -0.21187E-04   -0.18225E-04  8424   0.475E-04-0.677E-05
CGA:  96    -0.676233367152E+03   -0.17056E-03    0.65169E-05  8424   0.481E-04 0.296E-04
CGA:  97    -0.676233459731E+03   -0.92580E-04    0.28153E-04  8424   0.113E-03-0.196E-04
CGA:  98    -0.676233777099E+03   -0.31737E-03    0.74984E-05  8424   0.257E-03 0.260E-04
CGA:  99    -0.676234743344E+03   -0.96624E-03    0.68865E-04  8424   0.262E-03 0.825E-04
CGA: 100    -0.676235771863E+03   -0.10285E-02    0.79226E-04  8424   0.630E-03-0.144E-04
CGA: 101    -0.676238414107E+03   -0.26422E-02    0.73491E-04  8424   0.933E-03 0.973E-05
CGA: 102    -0.676242718206E+03   -0.43041E-02    0.11330E-03  8424   0.259E-02-0.554E-03
CGA: 103    -0.676243108552E+03   -0.39035E-03   -0.41490E-03  8424   0.122E-03 0.546E-04
CGA: 104    -0.676240578564E+03    0.25300E-02   -0.13692E-02  8424   0.870E-02-0.921E-03
CGA: 105    -0.676243447479E+03   -0.28689E-02   -0.28192E-02  8424   0.146E-02-0.640E-04
CGA: 106    -0.676243807302E+03   -0.35982E-03   -0.37735E-03  8424   0.341E-03 0.222E-04
CGA: 107    -0.676243999965E+03   -0.19266E-03   -0.11518E-03  8424   0.128E-03-0.113E-03
CGA: 108    -0.676244082282E+03   -0.82318E-04   -0.86411E-04  8424   0.939E-03-0.203E-03
CGA: 109    -0.676244318963E+03   -0.23668E-03   -0.15621E-03  8424   0.114E-03-0.103E-03
CGA: 110    -0.676244406340E+03   -0.87377E-04   -0.62251E-04  8424   0.192E-03-0.755E-04
CGA: 111    -0.676244510540E+03   -0.10420E-03   -0.43125E-04  8424   0.855E-04-0.870E-04
CGA: 112    -0.676244612429E+03   -0.10189E-03    0.96221E-04  8424   0.457E-03-0.973E-04
CGA: 113    -0.676244755049E+03   -0.14262E-03   -0.81906E-04  8424   0.775E-04-0.860E-04
CGA: 114    -0.676244799029E+03   -0.43980E-04   -0.23285E-04  8424   0.699E-04-0.424E-04
CGA: 115    -0.676244886168E+03   -0.87139E-04   -0.38888E-04  8424   0.595E-03-0.173E-03
CGA: 116    -0.676244933282E+03   -0.47114E-04   -0.70803E-04  8424   0.156E-04 0.358E-04
CGA: 117    -0.676245034115E+03   -0.10083E-03    0.22615E-05  8424   0.104E-03-0.233E-04
CGA: 118    -0.676245126808E+03   -0.92694E-04   -0.45395E-04  8424   0.262E-03-0.135E-03
CGA: 119    -0.676245153250E+03   -0.26441E-04   -0.35669E-04  8424   0.164E-04 0.152E-04
CGA: 120    -0.676245268849E+03   -0.11560E-03    0.18085E-05  8424   0.722E-04-0.206E-04
CGA: 121    -0.676245321443E+03   -0.52594E-04   -0.53907E-04  8424   0.327E-03-0.140E-03
CGA: 122    -0.676245448859E+03   -0.12742E-03   -0.95261E-04  8424   0.328E-04-0.724E-04
CGA: 123    -0.676245536127E+03   -0.87268E-04    0.65639E-05  8424   0.965E-04-0.248E-04
CGA: 124    -0.676245614764E+03   -0.78637E-04   -0.63492E-04  8424   0.918E-03-0.266E-03
CGA: 125    -0.676245696294E+03   -0.81531E-04   -0.12257E-03  8424   0.276E-04 0.754E-04
CGA: 126    -0.676245756254E+03   -0.59959E-04    0.21831E-04  8424   0.162E-03-0.562E-04
CGA: 127    -0.676245865393E+03   -0.10914E-03   -0.65239E-04  8424   0.200E-03-0.156E-03
CGA: 128    -0.676245890686E+03   -0.25293E-04   -0.32562E-04  8424   0.134E-04 0.148E-04
CGA: 129    -0.676245993176E+03   -0.10249E-03    0.10153E-05  8424   0.523E-04-0.136E-04
CGA: 130    -0.676245938168E+03    0.55009E-04   -0.61615E-04  8424   0.115E-02-0.218E-03
CGA: 131    -0.676246220234E+03   -0.28207E-03   -0.23298E-03  8424   0.821E-04-0.110E-03
CGA: 132    -0.676246240193E+03   -0.19959E-04   -0.15339E-04  8424   0.121E-04-0.104E-04
CGA: 133    -0.676246364874E+03   -0.12468E-03    0.38838E-06  8424   0.205E-04 0.139E-05
CGA: 134    -0.676246634977E+03   -0.27010E-03    0.84475E-06  8424   0.153E-04 0.133E-04
CGA: 135    -0.676246736285E+03   -0.10131E-03    0.11076E-05  8424   0.742E-04-0.187E-04
CGA: 136    -0.676246759388E+03   -0.23103E-04   -0.15742E-04  8424   0.171E-04-0.178E-04
CGA: 137    -0.676246884089E+03   -0.12470E-03    0.56487E-06  8424   0.411E-04-0.456E-05
CGA: 138    -0.676247236702E+03   -0.35261E-03    0.10527E-05  8424   0.257E-04 0.173E-04
CGA: 139    -0.676247530684E+03   -0.29398E-03    0.19517E-05  8424   0.153E-03-0.283E-04
CGA: 140    -0.676247581856E+03   -0.51172E-04   -0.29917E-04  8424   0.288E-04-0.521E-04
CGA: 141    -0.676247677534E+03   -0.95678E-04    0.16705E-05  8424   0.499E-04-0.114E-04
CGA: 142    -0.676247941096E+03   -0.26356E-03    0.13649E-05  8424   0.169E-04 0.836E-05
CGA: 143    -0.676248107343E+03   -0.16625E-03    0.92637E-06  8424   0.860E-04-0.146E-04
CGA: 144    -0.676248140431E+03   -0.33087E-04   -0.17207E-04  8424   0.325E-04-0.414E-04
CGA: 145    -0.676248250238E+03   -0.10981E-03    0.99702E-06  8424   0.242E-04-0.188E-05
CGA: 146    -0.676248414551E+03   -0.16431E-03    0.11986E-05  8424   0.959E-04-0.187E-04
CGA: 147    -0.676248434561E+03   -0.20009E-04   -0.13852E-04  8424   0.963E-05-0.146E-04
CGA: 148    -0.676248522942E+03   -0.88382E-04    0.24757E-06  8424   0.248E-04-0.126E-05
CGA: 149    -0.676248810894E+03   -0.28795E-03    0.51824E-06  8424   0.801E-05 0.168E-04
CGA: 150    -0.676248884792E+03   -0.73897E-04    0.29125E-06  8424   0.442E-04-0.718E-05
CGA: 151    -0.676248910803E+03   -0.26011E-04   -0.12674E-04  8424   0.873E-04-0.520E-04
CGA: 152    -0.676248954066E+03   -0.43263E-04   -0.19847E-04  8424   0.858E-04-0.771E-04
CGA: 153    -0.676248973348E+03   -0.19282E-04   -0.12384E-04  8424   0.109E-04-0.186E-04
CGA: 154    -0.676249055484E+03   -0.82136E-04    0.24679E-06  8424   0.209E-04-0.104E-05
CGA: 155    -0.676249261092E+03   -0.20561E-03    0.47194E-06  8424   0.106E-04 0.100E-04
CGA: 156    -0.676249444867E+03   -0.18378E-03    0.36000E-06  8424   0.472E-04-0.188E-05
CGA: 157    -0.676250287738E+03   -0.84287E-03    0.46293E-06  8424   0.259E-03 0.160E-04
CGA: 158    -0.676255185995E+03   -0.48983E-02    0.65384E-05  8424   0.113E-03 0.855E-04
CGA: 159    -0.676257400519E+03   -0.22145E-02    0.27253E-05  8424   0.891E-03-0.227E-03
CGA: 160    -0.676257481373E+03   -0.80854E-04   -0.90817E-04  8424   0.434E-05 0.261E-04
CGA: 161    -0.676257499978E+03   -0.18605E-04    0.31800E-06  8424   0.232E-04-0.737E-05
CGA: 162    -0.676257502828E+03   -0.28502E-05   -0.30797E-05  8424   0.146E-05 0.666E-06
   1 F= -.67625750E+03 E0= -.67625750E+03  d E =-.676258E+03  mag=     1.0000
       N       E                     dE             d eps       ncg     rms          ort
SDA:   1    -0.676257531318E+03   -0.31341E-04    0.00000E+00  8424   0.302E-04 0.000E+00
CGA:   2    -0.676257536906E+03   -0.55881E-05   -0.56339E-05  8424   0.126E-04 0.162E-06
CGA:   3    -0.676257558861E+03   -0.21954E-04    0.29920E-05  8424   0.307E-04-0.111E-04
CGA:   4    -0.676257563081E+03   -0.42197E-05   -0.35654E-05  8424   0.493E-05-0.199E-05
   2 F= -.67625756E+03 E0= -.67625756E+03  d E =-.602528E-04  mag=     1.0000
       N       E                     dE             d eps       ncg     rms          ort
SDA:   1    -0.676257591354E+03   -0.32493E-04    0.00000E+00  8424   0.347E-04 0.000E+00
CGA:   2    -0.676257605584E+03   -0.14230E-04   -0.78883E-05  8424   0.665E-04-0.313E-04
CGA:   3    -0.676257611308E+03   -0.57240E-05   -0.54425E-05  8424   0.359E-05-0.846E-06
CGA:   4    -0.676257623612E+03   -0.12304E-04    0.21591E-06  8424   0.795E-05-0.155E-05
CGA:   5    -0.676257670698E+03   -0.47086E-04    0.76347E-07  8424   0.120E-04-0.426E-05
CGA:   6    -0.676257417964E+03    0.25273E-03   -0.13805E-03  8424   0.183E-02-0.129E-03
CGA:   7    -0.676257724230E+03   -0.30627E-03   -0.28354E-03  8424   0.184E-03-0.400E-04
CGA:   8    -0.676257753460E+03   -0.29231E-04   -0.29531E-04  8424   0.242E-04 0.508E-06
CGA:   9    -0.676257506687E+03    0.24677E-03   -0.56609E-04  8424   0.178E-02-0.183E-03
CGA:  10    -0.676257794700E+03   -0.28801E-03   -0.30830E-03  8424   0.195E-03 0.361E-04
CGA:  11    -0.676257864304E+03   -0.69605E-04   -0.60650E-04  8424   0.713E-04-0.210E-04
CGA:  12    -0.676257874797E+03   -0.10492E-04   -0.12320E-04  8424   0.109E-04 0.354E-05
CGA:  13    -0.676257898457E+03   -0.23661E-04    0.76537E-05  8424   0.477E-04-0.173E-04
CGA:  14    -0.676257908476E+03   -0.10019E-04   -0.88500E-05  8424   0.450E-05-0.234E-05
CGA:  15    -0.676257938579E+03   -0.30103E-04    0.32679E-06  8424   0.205E-04-0.534E-05
CGA:  16    -0.676257938869E+03   -0.29029E-06   -0.23450E-05  8424   0.203E-05 0.377E-05
   3 F= -.67625794E+03 E0= -.67625794E+03  d E =-.375789E-03  mag=     1.0000
       N       E                     dE             d eps       ncg     rms          ort
SDA:   1    -0.675953802826E+03    0.30414E+00    0.00000E+00  8424   0.887E+00 0.000E+00
CGA:   2    -0.676138535396E+03   -0.18473E+00   -0.18483E+00  8424   0.372E+00 0.718E-04
CGA:   3    -0.676218656904E+03   -0.80122E-01   -0.80118E-01  8424   0.120E+00-0.416E-04
CGA:   4    -0.676238028682E+03   -0.19372E-01   -0.19403E-01  8424   0.282E-01 0.614E-04
CGA:   5    -0.676242849101E+03   -0.48204E-02   -0.48303E-02  8424   0.539E-02 0.194E-04
CGA:   6    -0.676243994558E+03   -0.11455E-02   -0.11270E-02  8424   0.130E-02-0.553E-04
CGA:   7    -0.676244289411E+03   -0.29485E-03   -0.29113E-03  8424   0.377E-03-0.123E-04
CGA:   8    -0.676244389770E+03   -0.10036E-03   -0.97189E-04  8424   0.116E-03-0.124E-04
CGA:   9    -0.676244430775E+03   -0.41005E-04   -0.36781E-04  8424   0.580E-04-0.238E-04
CGA:  10    -0.676244453826E+03   -0.23051E-04   -0.23624E-04  8424   0.753E-04-0.362E-04
CGA:  11    -0.676244476766E+03   -0.22940E-04   -0.17877E-04  8424   0.253E-04-0.195E-04
CGA:  12    -0.676244298092E+03    0.17867E-03   -0.42888E-04  8424   0.124E-02-0.123E-03
CGA:  13    -0.676244528896E+03   -0.23080E-03   -0.21747E-03  8424   0.125E-03-0.336E-04
CGA:  14    -0.676244575878E+03   -0.46981E-04   -0.43355E-04  8424   0.350E-04-0.183E-04
CGA:  15    -0.676244585894E+03   -0.10016E-04   -0.77983E-05  8424   0.133E-04-0.784E-05
CGA:  16    -0.676244617572E+03   -0.31677E-04    0.14448E-05  8424   0.183E-04-0.620E-05
CGA:  17    -0.676244641409E+03   -0.23837E-04    0.19938E-05  8424   0.399E-04-0.146E-04
CGA:  18    -0.676244605469E+03    0.35939E-04   -0.37547E-04  8424   0.113E-02-0.179E-03
CGA:  19    -0.676244686631E+03   -0.81162E-04   -0.12427E-03  8424   0.276E-04 0.101E-03
CGA:  20    -0.676244689237E+03   -0.26063E-05   -0.47801E-05  8424   0.830E-05 0.587E-05
   4 F= -.67624469E+03 E0= -.67624469E+03  d E =0.132496E-01  mag=     1.0000
       N       E                     dE             d eps       ncg     rms          ort
SDA:   1    -0.676073590201E+03    0.17110E+00    0.00000E+00  8424   0.578E+00 0.000E+00
CGA:   2    -0.676185064395E+03   -0.11147E+00   -0.11153E+00  8424   0.221E+00-0.181E-04
CGA:   3    -0.676233295737E+03   -0.48231E-01   -0.48210E-01  8424   0.788E-01-0.107E-03
CGA:   4    -0.676246419225E+03   -0.13123E-01   -0.13109E-01  8424   0.195E-01-0.653E-04
CGA:   5    -0.676249756273E+03   -0.33370E-02   -0.33375E-02  8424   0.364E-02-0.203E-05
CGA:   6    -0.676250504342E+03   -0.74807E-03   -0.74706E-03  8424   0.797E-03-0.501E-05
CGA:   7    -0.676250690837E+03   -0.18650E-03   -0.18346E-03  8424   0.239E-03-0.147E-04
CGA:   8    -0.676250757131E+03   -0.66293E-04   -0.62009E-04  8424   0.762E-04-0.264E-04
CGA:   9    -0.676250785966E+03   -0.28835E-04   -0.30633E-04  8424   0.943E-04-0.557E-04
CGA:  10    -0.676250805756E+03   -0.19790E-04   -0.18010E-04  8424   0.157E-04-0.777E-05
CGA:  11    -0.676250825420E+03   -0.19664E-04    0.44495E-05  8424   0.119E-04-0.732E-05
CGA:  12    -0.676250847372E+03   -0.21952E-04    0.40863E-06  8424   0.759E-05-0.220E-05
CGA:  13    -0.676250882818E+03   -0.35445E-04    0.21188E-06  8424   0.760E-05-0.101E-05
CGA:  14    -0.676250918413E+03   -0.35596E-04    0.24107E-06  8424   0.939E-05-0.239E-05
CGA:  15    -0.676250985359E+03   -0.66946E-04    0.11254E-06  8424   0.814E-05-0.623E-06
CGA:  16    -0.676251054175E+03   -0.68816E-04    0.15489E-06  8424   0.562E-05 0.154E-05
CGA:  17    -0.676251110387E+03   -0.56212E-04    0.14783E-06  8424   0.390E-05 0.185E-05
CGA:  18    -0.676251169755E+03   -0.59368E-04    0.81582E-07  8424   0.666E-05-0.109E-06
CGA:  19    -0.676251266177E+03   -0.96421E-04    0.77106E-07  8424   0.896E-05 0.629E-06
CGA:  20    -0.676251407578E+03   -0.14140E-03    0.12082E-06  8424   0.135E-04 0.363E-05
CGA:  21    -0.676251655400E+03   -0.24782E-03    0.25873E-06  8424   0.231E-04 0.880E-06
CGA:  22    -0.676252076230E+03   -0.42083E-03    0.25387E-06  8424   0.281E-04 0.737E-05
CGA:  23    -0.676252599738E+03   -0.52351E-03    0.46566E-06  8424   0.442E-04 0.330E-05
CGA:  24    -0.676253505992E+03   -0.90625E-03    0.47320E-06  8424   0.776E-04-0.171E-04
CGA:  25    -0.676255175425E+03   -0.16694E-02    0.23373E-06  8424   0.134E-03-0.245E-04
CGA:  26    -0.676258299903E+03   -0.31245E-02    0.46199E-06  8424   0.237E-03-0.177E-03
CGA:  27    -0.676258378852E+03   -0.78949E-04   -0.61256E-04  8424   0.248E-03-0.117E-03
CGA:  28    -0.676258386045E+03   -0.71929E-05   -0.17978E-04  8424   0.130E-03 0.415E-04
CGA:  29    -0.676258379575E+03    0.64700E-05   -0.10260E-04  8424   0.278E-04 0.520E-04
   5 F= -.67625838E+03 E0= -.67625838E+03  d E =-.136903E-01  mag=     1.0000
       N       E                     dE             d eps       ncg     rms          ort
SDA:   1    -0.676255410037E+03    0.29760E-02    0.00000E+00  8424   0.101E-01 0.000E+00
CGA:   2    -0.676257550265E+03   -0.21402E-02   -0.21404E-02  8424   0.432E-02-0.104E-06
CGA:   3    -0.676258431509E+03   -0.88124E-03   -0.88859E-03  8424   0.135E-02 0.498E-04
CGA:   4    -0.676258646798E+03   -0.21529E-03   -0.22092E-03  8424   0.321E-03 0.310E-04
CGA:   5    -0.676258697568E+03   -0.50770E-04   -0.54122E-04  8424   0.603E-04 0.198E-04
CGA:   6    -0.676258705145E+03   -0.75766E-05   -0.10409E-04  8424   0.151E-04 0.174E-04
   6 F= -.67625871E+03 E0= -.67625871E+03  d E =-.325570E-03  mag=     1.0000
       N       E                     dE             d eps       ncg     rms          ort
SDA:   1    -0.676245012181E+03    0.13685E-01    0.00000E+00  8424   0.389E-01 0.000E+00
CGA:   2    -0.676254905017E+03   -0.98928E-02   -0.98908E-02  8424   0.190E-01-0.433E-04
CGA:   3    -0.676258523096E+03   -0.36181E-02   -0.36254E-02  8424   0.466E-02 0.622E-04
CGA:   4    -0.676259271049E+03   -0.74795E-03   -0.75691E-03  8424   0.111E-02 0.650E-04
CGA:   5    -0.676259458008E+03   -0.18696E-03   -0.19140E-03  8424   0.215E-03 0.364E-04
CGA:   6    -0.676259500601E+03   -0.42593E-04   -0.44044E-04  8424   0.503E-04 0.166E-04
CGA:   7    -0.676259506830E+03   -0.62284E-05   -0.85661E-05  8424   0.156E-04 0.190E-04
   7 F= -.67625951E+03 E0= -.67625951E+03  d E =-.801685E-03  mag=     1.0000
       N       E                     dE             d eps       ncg     rms          ort
SDA:   1    -0.676256776408E+03    0.27242E-02    0.00000E+00  8424   0.110E-01 0.000E+00
CGA:   2    -0.676259310440E+03   -0.25340E-02   -0.25333E-02  8424   0.529E-02-0.212E-04
CGA:   3    -0.676260369370E+03   -0.10589E-02   -0.10628E-02  8424   0.148E-02 0.615E-04
CGA:   4    -0.676260602110E+03   -0.23274E-03   -0.23736E-03  8424   0.326E-03 0.447E-04
CGA:   5    -0.676260653055E+03   -0.50945E-04   -0.53703E-04  8424   0.606E-04 0.287E-04
CGA:   6    -0.676260661268E+03   -0.82126E-05   -0.10204E-04  8424   0.158E-04 0.207E-04
   8 F= -.67626066E+03 E0= -.67626066E+03  d E =-.115444E-02  mag=     1.0000
       N       E                     dE             d eps       ncg     rms          ort
SDA:   1    -0.676253225138E+03    0.74279E-02    0.00000E+00  8424   0.285E-01 0.000E+00
CGA:   2    -0.676260359113E+03   -0.71340E-02   -0.71336E-02  8424   0.143E-01 0.285E-04
CGA:   3    -0.676263182672E+03   -0.28236E-02   -0.28249E-02  8424   0.357E-02 0.294E-04
CGA:   4    -0.676263733873E+03   -0.55120E-03   -0.55664E-03  8424   0.789E-03 0.665E-04
CGA:   5    -0.676263870505E+03   -0.13663E-03   -0.13829E-03  8424   0.158E-03 0.272E-04
CGA:   6    -0.676263904556E+03   -0.34051E-04   -0.34178E-04  8424   0.410E-04 0.599E-05
CGA:   7    -0.676263907372E+03   -0.28152E-05   -0.50876E-05  8424   0.144E-04 0.208E-04
   9 F= -.67626391E+03 E0= -.67626391E+03  d E =-.324610E-02  mag=     1.0000
       N       E                     dE             d eps       ncg     rms          ort
SDA:   1    -0.676257702556E+03    0.62020E-02    0.00000E+00  8424   0.284E-01 0.000E+00
CGA:   2    -0.676264430669E+03   -0.67281E-02   -0.67278E-02  8424   0.141E-01 0.104E-04
CGA:   3    -0.676267293485E+03   -0.28628E-02   -0.28632E-02  8424   0.381E-02 0.288E-04
CGA:   4    -0.676267889748E+03   -0.59626E-03   -0.59941E-03  8424   0.825E-03 0.529E-04
CGA:   5    -0.676268029371E+03   -0.13962E-03   -0.14077E-03  8424   0.161E-03 0.254E-04
CGA:   6    -0.676268063053E+03   -0.33682E-04   -0.33769E-04  8424   0.399E-04 0.111E-04
CGA:   7    -0.676268066913E+03   -0.38596E-05   -0.54750E-05  8424   0.134E-04 0.197E-04
  10 F= -.67626807E+03 E0= -.67626807E+03  d E =-.415954E-02  mag=     1.0000
       N       E                     dE             d eps       ncg     rms          ort
SDA:   1    -0.676259602016E+03    0.84610E-02    0.00000E+00  8424   0.374E-01 0.000E+00
CGA:   2    -0.676268807549E+03   -0.92055E-02   -0.92001E-02  8424   0.186E-01 0.111E-03
CGA:   3    -0.676272505432E+03   -0.36979E-02   -0.36979E-02  8424   0.484E-02-0.214E-06
CGA:   4    -0.676273271275E+03   -0.76584E-03   -0.76823E-03  8424   0.108E-02 0.550E-04
CGA:   5    -0.676273457993E+03   -0.18672E-03   -0.18709E-03  8424   0.216E-03 0.125E-04
CGA:   6    -0.676273505953E+03   -0.47960E-04   -0.48083E-04  8424   0.590E-04-0.566E-05
CGA:   7    -0.676273511717E+03   -0.57640E-05   -0.74621E-05  8424   0.182E-04 0.245E-04
  11 F= -.67627351E+03 E0= -.67627351E+03  d E =-.544480E-02  mag=     1.0000
       N       E                     dE             d eps       ncg     rms          ort
SDA:   1    -0.676252750378E+03    0.20756E-01    0.00000E+00  8424   0.710E-01 0.000E+00
CGA:   2    -0.676271178851E+03   -0.18428E-01   -0.18423E-01  8424   0.366E-01 0.716E-04
CGA:   3    -0.676278184512E+03   -0.70057E-02   -0.70057E-02  8424   0.891E-02 0.282E-04
CGA:   4    -0.676279600151E+03   -0.14156E-02   -0.14182E-02  8424   0.202E-02 0.723E-04
CGA:   5    -0.676279950301E+03   -0.35015E-03   -0.35031E-03  8424   0.408E-03 0.775E-05
CGA:   6    -0.676280039883E+03   -0.89582E-04   -0.89848E-04  8424   0.107E-03-0.924E-05
CGA:   7    -0.676280055638E+03   -0.15755E-04   -0.16711E-04  8424   0.280E-04 0.300E-04
CGA:   8    -0.676280058041E+03   -0.24032E-05   -0.40146E-05  8424   0.139E-04 0.206E-04
  12 F= -.67628006E+03 E0= -.67628006E+03  d E =-.654632E-02  mag=     1.0000
       N       E                     dE             d eps       ncg     rms          ort
SDA:   1    -0.676265751870E+03    0.14304E-01    0.00000E+00  8424   0.418E-01 0.000E+00
CGA:   2    -0.676276160127E+03   -0.10408E-01   -0.10415E-01  8424   0.212E-01-0.103E-03
CGA:   3    -0.676280269698E+03   -0.41096E-02   -0.41085E-02  8424   0.547E-02 0.117E-03
CGA:   4    -0.676281141565E+03   -0.87187E-03   -0.87400E-03  8424   0.122E-02 0.785E-04
CGA:   5    -0.676281347659E+03   -0.20609E-03   -0.20678E-03  8424   0.236E-03 0.396E-04
CGA:   6    -0.676281393944E+03   -0.46285E-04   -0.46098E-04  8424   0.526E-04 0.334E-04
CGA:   7    -0.676281402211E+03   -0.82671E-05   -0.90516E-05  8424   0.172E-04 0.236E-04
  13 F= -.67628140E+03 E0= -.67628140E+03  d E =-.134417E-02  mag=     1.0000
       N       E                     dE             d eps       ncg     rms          ort
SDA:   1    -0.676271403328E+03    0.99906E-02    0.00000E+00  8424   0.143E-01 0.000E+00
CGA:   2    -0.676275309790E+03   -0.39065E-02   -0.39186E-02  8424   0.698E-02-0.128E-03
CGA:   3    -0.676276550960E+03   -0.12412E-02   -0.12415E-02  8424   0.166E-02 0.930E-04
CGA:   4    -0.676276826497E+03   -0.27554E-03   -0.27673E-03  8424   0.392E-03 0.647E-04
CGA:   5    -0.676276885985E+03   -0.59487E-04   -0.61308E-04  8424   0.705E-04 0.589E-04
CGA:   6    -0.676276893235E+03   -0.72508E-05   -0.96214E-05  8424   0.241E-04 0.387E-04
  14 F= -.67627689E+03 E0= -.67627689E+03  d E =0.450898E-02  mag=     1.0000
       N       E                     dE             d eps       ncg     rms          ort
SDA:   1    -0.676262303911E+03    0.14582E-01    0.00000E+00  8424   0.230E-01 0.000E+00
CGA:   2    -0.676268611000E+03   -0.63071E-02   -0.63158E-02  8424   0.111E-01-0.894E-04
CGA:   3    -0.676270601139E+03   -0.19901E-02   -0.19901E-02  8424   0.271E-02 0.182E-04
CGA:   4    -0.676271045595E+03   -0.44446E-03   -0.44530E-03  8424   0.646E-03 0.601E-04
CGA:   5    -0.676271148376E+03   -0.10278E-03   -0.10410E-03  8424   0.112E-03 0.670E-04
CGA:   6    -0.676271165735E+03   -0.17359E-04   -0.18443E-04  8424   0.294E-04 0.400E-04
CGA:   7    -0.676271168288E+03   -0.25522E-05   -0.41386E-05  8424   0.135E-04 0.223E-04
  15 F= -.67627117E+03 E0= -.67627117E+03  d E =0.572495E-02  mag=     1.0000
       N       E                     dE             d eps       ncg     rms          ort
SDA:   1    -0.676265810371E+03    0.53554E-02    0.00000E+00  8424   0.157E-01 0.000E+00
CGA:   2    -0.676269122945E+03   -0.33126E-02   -0.33059E-02  8424   0.691E-02 0.148E-03
CGA:   3    -0.676270644285E+03   -0.15213E-02   -0.15242E-02  8424   0.233E-02-0.592E-04
CGA:   4    -0.676271005847E+03   -0.36156E-03   -0.36202E-03  8424   0.493E-03 0.312E-04
CGA:   5    -0.676271085268E+03   -0.79421E-04   -0.79766E-04  8424   0.867E-04 0.320E-04
CGA:   6    -0.676271103191E+03   -0.17923E-04   -0.17677E-04  8424   0.213E-04 0.114E-04
CGA:   7    -0.676271104149E+03   -0.95800E-06   -0.21795E-05  8424   0.996E-05 0.151E-04
  16 F= -.67627110E+03 E0= -.67627110E+03  d E =0.641386E-04  mag=     1.0000
       N       E                     dE             d eps       ncg     rms          ort
SDA:   1    -0.676232473133E+03    0.38630E-01    0.00000E+00  8424   0.109E+00 0.000E+00
CGA:   2    -0.676257574491E+03   -0.25101E-01   -0.25087E-01  8424   0.542E-01 0.185E-03
CGA:   3    -0.676268796427E+03   -0.11222E-01   -0.11229E-01  8424   0.155E-01-0.178E-03
CGA:   4    -0.676271196891E+03   -0.24005E-02   -0.24012E-02  8424   0.323E-02 0.595E-04
CGA:   5    -0.676271745467E+03   -0.54858E-03   -0.54843E-03  8424   0.619E-03 0.465E-04
CGA:   6    -0.676271883232E+03   -0.13777E-03   -0.13857E-03  8424   0.164E-03-0.151E-04
CGA:   7    -0.676271910658E+03   -0.27426E-04   -0.27353E-04  8424   0.395E-04 0.332E-04
CGA:   8    -0.676271916045E+03   -0.53872E-05   -0.62741E-05  8424   0.164E-04 0.238E-04
  17 F= -.67627192E+03 E0= -.67627192E+03  d E =-.811896E-03  mag=     1.0000
       N       E                     dE             d eps       ncg     rms          ort
SDA:   1    -0.676217318364E+03    0.54592E-01    0.00000E+00  8424   0.139E+00 0.000E+00
CGA:   2    -0.676250705757E+03   -0.33387E-01   -0.33381E-01  8424   0.725E-01 0.698E-04
CGA:   3    -0.676265354517E+03   -0.14649E-01   -0.14653E-01  8424   0.194E-01-0.137E-03
CGA:   4    -0.676268347118E+03   -0.29926E-02   -0.29940E-02  8424   0.406E-02 0.898E-04
CGA:   5    -0.676269034203E+03   -0.68709E-03   -0.68713E-03  8424   0.786E-03 0.836E-04
CGA:   6    -0.676269205048E+03   -0.17084E-03   -0.16988E-03  8424   0.193E-03 0.222E-04
CGA:   7    -0.676269242435E+03   -0.37387E-04   -0.36886E-04  8424   0.492E-04 0.350E-04
CGA:   8    -0.676269250847E+03   -0.84117E-05   -0.89064E-05  8424   0.191E-04 0.265E-04
  18 F= -.67626925E+03 E0= -.67626925E+03  d E =0.266520E-02  mag=     1.0000
       N       E                     dE             d eps       ncg     rms          ort
SDA:   1    -0.676068405138E+03    0.20084E+00    0.00000E+00  8424   0.470E+00 0.000E+00
CGA:   2    -0.676198582375E+03   -0.13018E+00   -0.13020E+00  8424   0.255E+00-0.235E-03
CGA:   3    -0.676245155074E+03   -0.46573E-01   -0.46573E-01  8424   0.568E-01-0.110E-03
CGA:   4    -0.676254136984E+03   -0.89819E-02   -0.89850E-02  8424   0.128E-01 0.194E-03
CGA:   5    -0.676256355922E+03   -0.22189E-02   -0.22191E-02  8424   0.260E-02 0.168E-03
CGA:   6    -0.676256906495E+03   -0.55057E-03   -0.54783E-03  8424   0.606E-03 0.773E-04
CGA:   7    -0.676257038661E+03   -0.13217E-03   -0.13028E-03  8424   0.174E-03 0.553E-04
CGA:   8    -0.676257079027E+03   -0.40366E-04   -0.38875E-04  8424   0.563E-04 0.518E-04
CGA:   9    -0.676257088059E+03   -0.90311E-05   -0.10473E-04  8424   0.284E-04 0.414E-04
  19 F= -.67625709E+03 E0= -.67625709E+03  d E =0.121628E-01  mag=     1.0000
       N       E                     dE             d eps       ncg     rms          ort
SDA:   1    -0.676099140423E+03    0.15794E+00    0.00000E+00  8424   0.451E+00 0.000E+00
CGA:   2    -0.676191710733E+03   -0.92570E-01   -0.92555E-01  8424   0.188E+00 0.332E-03
CGA:   3    -0.676231450712E+03   -0.39740E-01   -0.39741E-01  8424   0.615E-01-0.653E-04
CGA:   4    -0.676241566708E+03   -0.10116E-01   -0.10116E-01  8424   0.147E-01 0.168E-04
CGA:   5    -0.676244064520E+03   -0.24978E-02   -0.24986E-02  8424   0.279E-02 0.124E-03
CGA:   6    -0.676244623206E+03   -0.55869E-03   -0.55550E-03  8424   0.612E-03 0.143E-03
CGA:   7    -0.676244754784E+03   -0.13158E-03   -0.12942E-03  8424   0.164E-03 0.868E-04
CGA:   8    -0.676244788305E+03   -0.33521E-04   -0.33482E-04  8424   0.495E-04 0.633E-04
CGA:   9    -0.676244793240E+03   -0.49349E-05   -0.76948E-05  8424   0.256E-04 0.422E-04
  20 F= -.67624479E+03 E0= -.67624479E+03  d E =0.122948E-01  mag=     1.0000
       N       E                     dE             d eps       ncg     rms          ort
SDA:   1    -0.676144819089E+03    0.99969E-01    0.00000E+00  8424   0.266E+00 0.000E+00
CGA:   2    -0.676228318241E+03   -0.83499E-01   -0.83476E-01  8424   0.118E+00 0.133E-03
CGA:   3    -0.676248382264E+03   -0.20064E-01   -0.20067E-01  8424   0.253E-01 0.327E-03
CGA:   4    -0.676252820407E+03   -0.44381E-02   -0.44381E-02  8424   0.675E-02-0.147E-04
CGA:   5    -0.676253967335E+03   -0.11469E-02   -0.11468E-02  8424   0.132E-02-0.297E-04
CGA:   6    -0.676254229000E+03   -0.26167E-03   -0.26071E-03  8424   0.294E-03 0.418E-04
CGA:   7    -0.676254290549E+03   -0.61549E-04   -0.60269E-04  8424   0.843E-04 0.584E-04
CGA:   8    -0.676254303991E+03   -0.13443E-04   -0.14929E-04  8424   0.337E-04 0.488E-04
CGA:   9    -0.676254306222E+03   -0.22312E-05   -0.38084E-05  8424   0.204E-04 0.247E-04
  21 F= -.67625431E+03 E0= -.67625431E+03  d E =-.951298E-02  mag=     1.0000
       N       E                     dE             d eps       ncg     rms          ort
SDA:   1    -0.676166018583E+03    0.88285E-01    0.00000E+00  8424   0.253E+00 0.000E+00
CGA:   2    -0.676227768148E+03   -0.61750E-01   -0.61738E-01  8424   0.121E+00 0.116E-03
CGA:   3    -0.676250430655E+03   -0.22663E-01   -0.22661E-01  8424   0.298E-01 0.108E-03
CGA:   4    -0.676255316143E+03   -0.48855E-02   -0.48862E-02  8424   0.741E-02 0.630E-04
CGA:   5    -0.676256621941E+03   -0.13058E-02   -0.13057E-02  8424   0.149E-02 0.255E-04
CGA:   6    -0.676256924884E+03   -0.30294E-03   -0.30224E-03  8424   0.331E-03 0.235E-04
CGA:   7    -0.676256991815E+03   -0.66931E-04   -0.65841E-04  8424   0.908E-04 0.518E-04
CGA:   8    -0.676257007698E+03   -0.15884E-04   -0.16663E-04  8424   0.329E-04 0.457E-04
CGA:   9    -0.676257010544E+03   -0.28456E-05   -0.40315E-05  8424   0.184E-04 0.227E-04
  22 F= -.67625701E+03 E0= -.67625701E+03  d E =-.270432E-02  mag=     1.0000
       N       E                     dE             d eps       ncg     rms          ort
SDA:   1    -0.676226494301E+03    0.30513E-01    0.00000E+00  8424   0.800E-01 0.000E+00
CGA:   2    -0.676245698674E+03   -0.19204E-01   -0.19194E-01  8424   0.380E-01 0.125E-03
CGA:   3    -0.676252983088E+03   -0.72844E-02   -0.72849E-02  8424   0.964E-02-0.333E-04
CGA:   4    -0.676254542477E+03   -0.15594E-02   -0.15598E-02  8424   0.233E-02 0.387E-04
CGA:   5    -0.676254942389E+03   -0.39991E-03   -0.39999E-03  8424   0.453E-03 0.705E-04
CGA:   6    -0.676255029593E+03   -0.87205E-04   -0.86445E-04  8424   0.947E-04 0.575E-04
CGA:   7    -0.676255045424E+03   -0.15830E-04   -0.16522E-04  8424   0.302E-04 0.389E-04
CGA:   8    -0.676255047878E+03   -0.24545E-05   -0.43126E-05  8424   0.160E-04 0.264E-04
  23 F= -.67625505E+03 E0= -.67625505E+03  d E =0.196267E-02  mag=     1.0000
       N       E                     dE             d eps       ncg     rms          ort
SDA:   1    -0.676215370497E+03    0.39675E-01    0.00000E+00  8424   0.790E-01 0.000E+00
CGA:   2    -0.676242811037E+03   -0.27441E-01   -0.27468E-01  8424   0.280E-01-0.156E-03
CGA:   3    -0.676247468772E+03   -0.46577E-02   -0.46580E-02  8424   0.634E-02 0.486E-04
CGA:   4    -0.676248607274E+03   -0.11385E-02   -0.11376E-02  8424   0.165E-02 0.125E-03
CGA:   5    -0.676248873248E+03   -0.26597E-03   -0.26719E-03  8424   0.303E-03 0.903E-04
CGA:   6    -0.676248931067E+03   -0.57819E-04   -0.57386E-04  8424   0.698E-04 0.564E-04
CGA:   7    -0.676248942004E+03   -0.10937E-04   -0.11979E-04  8424   0.281E-04 0.377E-04
CGA:   8    -0.676248943310E+03   -0.13060E-05   -0.28001E-05  8424   0.175E-04 0.209E-04
  24 F= -.67624894E+03 E0= -.67624894E+03  d E =0.610457E-02  mag=     1.0000
       N       E                     dE             d eps       ncg     rms          ort
SDA:   1    -0.676241814604E+03    0.71274E-02    0.00000E+00  8424   0.162E-01 0.000E+00
CGA:   2    -0.676246276976E+03   -0.44624E-02   -0.44565E-02  8424   0.786E-02 0.505E-04
CGA:   3    -0.676247671497E+03   -0.13945E-02   -0.13940E-02  8424   0.172E-02 0.632E-04
CGA:   4    -0.676247944267E+03   -0.27277E-03   -0.27353E-03  8424   0.409E-03 0.705E-04
CGA:   5    -0.676248012933E+03   -0.68666E-04   -0.69012E-04  8424   0.781E-04 0.566E-04
CGA:   6    -0.676248024698E+03   -0.11766E-04   -0.12626E-04  8424   0.222E-04 0.332E-04
CGA:   7    -0.676248025277E+03   -0.57857E-06   -0.24600E-05  8424   0.123E-04 0.212E-04
  25 F= -.67624803E+03 E0= -.67624803E+03  d E =0.918033E-03  mag=     1.0000
       N       E                     dE             d eps       ncg     rms          ort
SDA:   1    -0.676220017402E+03    0.28007E-01    0.00000E+00  8424   0.646E-01 0.000E+00
CGA:   2    -0.676244485321E+03   -0.24468E-01   -0.24460E-01  8424   0.163E-01 0.330E-04
CGA:   3    -0.676247417746E+03   -0.29324E-02   -0.29309E-02  8424   0.451E-02 0.118E-03
CGA:   4    -0.676248214205E+03   -0.79646E-03   -0.79618E-03  8424   0.107E-02 0.377E-04
CGA:   5    -0.676248391927E+03   -0.17772E-03   -0.17781E-03  8424   0.210E-03 0.272E-04
CGA:   6    -0.676248429662E+03   -0.37735E-04   -0.37489E-04  8424   0.502E-04 0.408E-04
CGA:   7    -0.676248435625E+03   -0.59634E-05   -0.74228E-05  8424   0.229E-04 0.325E-04
  26 F= -.67624844E+03 E0= -.67624844E+03  d E =-.410348E-03  mag=     1.0000
