       N       E                     dE             d eps       ncg     rms          ort
DAV:   1     0.826766448084E+04    0.82677E+04   -0.24656E+05  8424   0.238E+03
DAV:   2     0.918361358197E+03   -0.73493E+04   -0.68986E+04  8424   0.657E+02
DAV:   3    -0.674202562212E+03   -0.15926E+04   -0.13999E+04  8424   0.282E+02
DAV:   4    -0.830450788452E+03   -0.15625E+03   -0.15353E+03  8424   0.858E+01
DAV:   5    -0.832958622924E+03   -0.25078E+01   -0.24967E+01  8424   0.122E+01
SDA:   6    -0.261423174821E+03    0.57154E+03   -0.24967E+01  8424   0.388E+04 0.000E+00
CGA:   7    -0.602956131954E+03   -0.34153E+03   -0.41826E+03  8424   0.508E+03 0.555E+02
CGA:   8    -0.635907781700E+03   -0.32952E+02   -0.30060E+02  8424   0.217E+03 0.137E+03
CGA:   9    -0.635077371439E+03    0.83041E+00   -0.21496E+02  8424   0.392E+03-0.334E+02
CGA:  10    -0.653638329837E+03   -0.18561E+02   -0.99995E+01  8424   0.101E+03-0.101E+03
CGA:  11    -0.655172220796E+03   -0.15339E+01   -0.45689E+01  8424   0.241E+03-0.692E+02
CGA:  12    -0.657113535430E+03   -0.19413E+01   -0.16945E+02  8424   0.126E+03-0.322E+02
CGA:  13    -0.657943013299E+03   -0.82948E+00   -0.72473E+01  8424   0.193E+03 0.814E+01
CGA:  14    -0.659316059688E+03   -0.13730E+01   -0.14464E+02  8424   0.333E+03-0.176E+02
CGA:  15    -0.655671496874E+03    0.36446E+01   -0.17412E+02  8424   0.848E+02-0.933E+02
CGA:  16    -0.659643112456E+03   -0.39716E+01   -0.21799E+01  8424   0.572E+02 0.548E+02
CGA:  17    -0.663712442325E+03   -0.40693E+01   -0.19757E+01  8424   0.222E+02 0.277E+02
CGA:  18    -0.664224890457E+03   -0.51245E+00   -0.16769E+01  8424   0.844E+02-0.130E+02
CGA:  19    -0.664292992802E+03   -0.68102E-01   -0.48156E+01  8424   0.497E+02-0.315E+02
CGA:  20    -0.666539423572E+03   -0.22464E+01   -0.88827E+00  8424   0.387E+02 0.431E+02
CGA:  21    -0.667440150866E+03   -0.90073E+00   -0.11875E+01  8424   0.175E+02-0.165E+02
CGA:  22    -0.667714032018E+03   -0.27388E+00   -0.24752E+00  8424   0.136E+02-0.291E+00
CGA:  23    -0.667853009035E+03   -0.13898E+00   -0.37380E+00  8424   0.175E+02-0.910E+01
CGA:  24    -0.667903362707E+03   -0.50354E-01   -0.72668E+00  8424   0.162E+02-0.117E+02
CGA:  25    -0.668241765565E+03   -0.33840E+00   -0.44918E+00  8424   0.539E+01-0.795E+01
CGA:  26    -0.668403075858E+03   -0.16131E+00   -0.17306E+00  8424   0.331E+01-0.547E-01
CGA:  27    -0.668557637940E+03   -0.15456E+00   -0.20887E+00  8424   0.194E+01-0.576E-01
CGA:  28    -0.668678684915E+03   -0.12105E+00   -0.11124E+00  8424   0.142E+01 0.763E-01
CGA:  29    -0.668753909659E+03   -0.75225E-01   -0.89068E-01  8424   0.116E+01 0.568E-02
CGA:  30    -0.668863654428E+03   -0.10974E+00   -0.11011E+00  8424   0.337E+00 0.111E+00
CGA:  31    -0.668925229730E+03   -0.61575E-01   -0.57655E-01  8424   0.440E+00 0.521E-01
CGA:  32    -0.668992768851E+03   -0.67539E-01   -0.89928E-01  8424   0.111E+01-0.342E+00
CGA:  33    -0.669046108227E+03   -0.53339E-01   -0.61461E-01  8424   0.205E+00-0.100E+00
CGA:  34    -0.669090548434E+03   -0.44440E-01   -0.43463E-01  8424   0.268E+00 0.436E-02
CGA:  35    -0.669151067529E+03   -0.60519E-01   -0.58881E-01  8424   0.209E+00 0.125E-01
CGA:  36    -0.669194092965E+03   -0.43025E-01   -0.49666E-01  8424   0.352E+00-0.557E-01
CGA:  37    -0.669281002679E+03   -0.86910E-01   -0.11734E+00  8424   0.351E+00-0.110E+00
CGA:  38    -0.669333310518E+03   -0.52308E-01   -0.66382E-01  8424   0.430E+00-0.997E-01
CGA:  39    -0.669390890302E+03   -0.57580E-01   -0.77033E-01  8424   0.346E+00-0.175E+00
CGA:  40    -0.669432914747E+03   -0.42024E-01   -0.53454E-01  8424   0.282E+00-0.987E-01
CGA:  41    -0.669471767157E+03   -0.38852E-01   -0.41153E-01  8424   0.152E+00-0.473E-01
CGA:  42    -0.669507126354E+03   -0.35359E-01   -0.41066E-01  8424   0.167E+00-0.334E-01
CGA:  43    -0.669538589735E+03   -0.31463E-01   -0.33304E-01  8424   0.103E+00-0.204E-01
CGA:  44    -0.669561839477E+03   -0.23250E-01   -0.23494E-01  8424   0.807E-01-0.251E-02
CGA:  45    -0.669579362372E+03   -0.17523E-01   -0.16966E-01  8424   0.459E-01 0.134E-01
CGA:  46    -0.669590356842E+03   -0.10994E-01   -0.10610E-01  8424   0.284E-01 0.169E-01
CGA:  47    -0.669597460370E+03   -0.71035E-02   -0.70407E-02  8424   0.139E-01 0.134E-01
CGA:  48    -0.669601562354E+03   -0.41020E-02   -0.39507E-02  8424   0.110E-01 0.946E-02
CGA:  49    -0.669604590809E+03   -0.30285E-02   -0.28154E-02  8424   0.808E-02 0.271E-02
CGA:  50    -0.669608876778E+03   -0.42860E-02   -0.35496E-02  8424   0.415E-02 0.424E-02
CGA:  51    -0.669609777046E+03   -0.90027E-03   -0.85919E-03  8424   0.230E-02 0.241E-02
CGA:  52    -0.669610568220E+03   -0.79117E-03   -0.63236E-03  8424   0.196E-02 0.188E-02
CGA:  53    -0.669611148786E+03   -0.58057E-03   -0.49249E-03  8424   0.178E-02 0.156E-02
CGA:  54    -0.669611868036E+03   -0.71925E-03   -0.57042E-03  8424   0.191E-02 0.120E-02
CGA:  55    -0.669612221157E+03   -0.35312E-03   -0.36563E-03  8424   0.153E-02 0.989E-03
CGA:  56    -0.669612870321E+03   -0.64916E-03   -0.54061E-03  8424   0.221E-02 0.716E-03
CGA:  57    -0.669614308624E+03   -0.14383E-02   -0.11079E-02  8424   0.904E-03 0.248E-02
CGA:  58    -0.669616407469E+03   -0.20988E-02   -0.31664E-02  8424   0.204E-02 0.663E-03
CGA:  59    -0.669616757862E+03   -0.35039E-03   -0.35774E-03  8424   0.107E-02 0.304E-04
CGA:  60    -0.669617755111E+03   -0.99725E-03    0.11360E-02  8424   0.106E-02 0.105E-02
CGA:  61    -0.669618217958E+03   -0.46285E-03   -0.57976E-03  8424   0.586E-02-0.729E-03
CGA:  62    -0.669618978436E+03   -0.76048E-03   -0.76264E-03  8424   0.742E-03 0.571E-05
CGA:  63    -0.669619734891E+03   -0.75646E-03    0.41909E-03  8424   0.752E-03 0.712E-03
CGA:  64    -0.669620377257E+03   -0.64237E-03    0.11756E-02  8424   0.115E-02 0.391E-03
CGA:  65    -0.669620814188E+03   -0.43693E-03   -0.43516E-03  8424   0.302E-02-0.500E-03
CGA:  66    -0.669622692983E+03   -0.18788E-02    0.73535E-03  8424   0.757E-02 0.121E-02
CGA:  67    -0.669618350448E+03    0.43425E-02   -0.13219E-01  8424   0.229E+00-0.222E-01
CGA:  68    -0.669646427420E+03   -0.28077E-01   -0.28007E-01  8424   0.935E-03-0.633E-03
CGA:  69    -0.669644842533E+03    0.15849E-02   -0.12681E-02  8424   0.368E-01-0.303E-02
CGA:  70    -0.669649954956E+03   -0.51124E-02   -0.46047E-02  8424   0.103E-02-0.191E-02
CGA:  71    -0.669647662081E+03    0.22929E-02   -0.14141E-02  8424   0.415E-01-0.372E-02
CGA:  72    -0.669653196629E+03   -0.55345E-02   -0.52868E-02  8424   0.178E-02-0.106E-02
CGA:  73    -0.669653805263E+03   -0.60863E-03   -0.54384E-03  8424   0.127E-02-0.411E-03
CGA:  74    -0.669655315347E+03   -0.15101E-02    0.33745E-03  8424   0.128E-02 0.189E-03
CGA:  75    -0.669657620376E+03   -0.23050E-02    0.49596E-03  8424   0.113E-02 0.671E-03
CGA:  76    -0.669652445042E+03    0.51753E-02   -0.20575E-02  8424   0.479E-01-0.534E-02
CGA:  77    -0.669660714688E+03   -0.82696E-02   -0.84587E-02  8424   0.355E-02 0.721E-03
CGA:  78    -0.669661772445E+03   -0.10578E-02   -0.84193E-03  8424   0.145E-02-0.778E-03
CGA:  79    -0.669646592088E+03    0.15180E-01   -0.81531E-02  8424   0.106E+00-0.700E-02
CGA:  80    -0.669664376105E+03   -0.17784E-01   -0.17425E-01  8424   0.190E-01-0.450E-02
CGA:  81    -0.669669996559E+03   -0.56205E-02   -0.54000E-02  8424   0.296E-02-0.356E-03
CGA:  82    -0.669671342512E+03   -0.13460E-02   -0.93670E-03  8424   0.116E-02-0.794E-03
CGA:  83    -0.669665198556E+03    0.61440E-02   -0.23332E-02  8424   0.690E-01-0.446E-02
CGA:  84    -0.669676612177E+03   -0.11414E-01   -0.10857E-01  8424   0.595E-02-0.263E-02
CGA:  85    -0.669678367328E+03   -0.17552E-02   -0.16793E-02  8424   0.201E-02-0.110E-03
CGA:  86    -0.669679384371E+03   -0.10170E-02   -0.76381E-03  8424   0.127E-02-0.557E-03
CGA:  87    -0.669671648478E+03    0.77359E-02   -0.24236E-02  8424   0.725E-01-0.572E-02
CGA:  88    -0.669683692916E+03   -0.12044E-01   -0.11774E-01  8424   0.876E-02-0.193E-02
CGA:  89    -0.669687090707E+03   -0.33978E-02   -0.32141E-02  8424   0.357E-02-0.366E-03
CGA:  90    -0.669688664975E+03   -0.15743E-02   -0.10178E-02  8424   0.162E-02-0.102E-02
CGA:  91    -0.669689625384E+03   -0.96041E-03   -0.71126E-03  8424   0.287E-02-0.120E-02
CGA:  92    -0.669690508760E+03   -0.88338E-03   -0.64247E-03  8424   0.116E-02-0.419E-03
CGA:  93    -0.669691289171E+03   -0.78041E-03   -0.75668E-03  8424   0.351E-02-0.105E-02
CGA:  94    -0.669692294271E+03   -0.10051E-02   -0.71134E-03  8424   0.109E-02-0.527E-03
CGA:  95    -0.669692986710E+03   -0.69244E-03   -0.52593E-03  8424   0.236E-02-0.903E-03
CGA:  96    -0.669693769656E+03   -0.78295E-03   -0.52108E-03  8424   0.924E-03-0.509E-03
CGA:  97    -0.669694307992E+03   -0.53834E-03   -0.48438E-03  8424   0.363E-02-0.105E-02
CGA:  98    -0.669695292027E+03   -0.98403E-03   -0.71000E-03  8424   0.956E-03-0.545E-03
CGA:  99    -0.669695831486E+03   -0.53946E-03   -0.38756E-03  8424   0.165E-02-0.715E-03
CGA: 100    -0.669696476329E+03   -0.64484E-03   -0.39985E-03  8424   0.961E-03-0.565E-03
CGA: 101    -0.669668183180E+03    0.28293E-01   -0.15470E-01  8424   0.215E+00-0.872E-02
CGA: 102    -0.669701343341E+03   -0.33160E-01   -0.34290E-01  8424   0.259E-01-0.142E-01
CGA: 103    -0.669706226980E+03   -0.48836E-02   -0.49388E-02  8424   0.377E-03 0.874E-04
CGA: 104    -0.669690620187E+03    0.15607E-01   -0.18676E-02  8424   0.959E-01-0.457E-02
CGA: 105    -0.669709939656E+03   -0.19319E-01   -0.19270E-01  8424   0.120E-01 0.179E-02
CGA: 106    -0.669712597949E+03   -0.26583E-02   -0.23061E-02  8424   0.113E-02-0.317E-03
CGA: 107    -0.669713137526E+03   -0.53958E-03   -0.35944E-03  8424   0.329E-03-0.207E-03
CGA: 108    -0.669714585447E+03   -0.14479E-02    0.11270E-03  8424   0.241E-02-0.295E-03
CGA: 109    -0.669714960482E+03   -0.37504E-03   -0.37399E-03  8424   0.314E-03 0.245E-04
CGA: 110    -0.669715928955E+03   -0.96847E-03    0.43705E-03  8424   0.206E-02-0.459E-03
CGA: 111    -0.669716489805E+03   -0.56085E-03   -0.47077E-03  8424   0.478E-03-0.100E-03
CGA: 112    -0.669717069869E+03   -0.58006E-03   -0.38818E-03  8424   0.456E-02-0.981E-03
CGA: 113    -0.669717717160E+03   -0.64729E-03   -0.66410E-03  8424   0.428E-03 0.753E-04
CGA: 114    -0.669715807182E+03    0.19100E-02   -0.98620E-03  8424   0.175E-01-0.229E-02
CGA: 115    -0.669719890334E+03   -0.40832E-02   -0.41783E-02  8424   0.308E-02 0.180E-03
CGA: 116    -0.669720802312E+03   -0.91198E-03   -0.64530E-03  8424   0.475E-03-0.346E-03
CGA: 117    -0.669721249837E+03   -0.44753E-03   -0.35564E-03  8424   0.282E-02-0.690E-03
CGA: 118    -0.669721958903E+03   -0.70907E-03   -0.50080E-03  8424   0.470E-03-0.281E-03
CGA: 119    -0.669722367584E+03   -0.40868E-03   -0.25404E-03  8424   0.152E-02-0.468E-03
CGA: 120    -0.669722857043E+03   -0.48946E-03   -0.28398E-03  8424   0.347E-03-0.291E-03
CGA: 121    -0.669723356910E+03   -0.49987E-03    0.87164E-02  8424   0.288E-02-0.497E-03
CGA: 122    -0.669724018461E+03   -0.66155E-03   -0.45618E-03  8424   0.337E-03-0.306E-03
CGA: 123    -0.669723871688E+03    0.14677E-03   -0.40480E-03  8424   0.890E-02-0.111E-02
CGA: 124    -0.669725489642E+03   -0.16180E-02   -0.13498E-02  8424   0.762E-03-0.473E-03
CGA: 125    -0.669725814223E+03   -0.32458E-03   -0.21524E-03  8424   0.327E-03-0.206E-03
CGA: 126    -0.669726826631E+03   -0.10124E-02    0.58853E-04  8424   0.112E-02-0.169E-03
CGA: 127    -0.669727052508E+03   -0.22588E-03   -0.19150E-03  8424   0.252E-03-0.498E-04
CGA: 128    -0.669727843920E+03   -0.79141E-03    0.83151E-04  8424   0.894E-03-0.215E-03
CGA: 129    -0.669728096657E+03   -0.25274E-03   -0.19669E-03  8424   0.332E-03-0.100E-03
CGA: 130    -0.669728834573E+03   -0.73792E-03    0.16176E-03  8424   0.179E-02-0.430E-03
CGA: 131    -0.669729139171E+03   -0.30460E-03   -0.28943E-03  8424   0.317E-03-0.183E-04
CGA: 132    -0.669729800711E+03   -0.66154E-03    0.23848E-03  8424   0.105E-02-0.343E-03
CGA: 133    -0.669730084234E+03   -0.28352E-03   -0.23278E-03  8424   0.359E-03-0.101E-03
CGA: 134    -0.669730724982E+03   -0.64075E-03    0.26417E-03  8424   0.188E-02-0.499E-03
CGA: 135    -0.669731030039E+03   -0.30506E-03   -0.29606E-03  8424   0.305E-03-0.871E-05
CGA: 136    -0.669731656721E+03   -0.62668E-03    0.18382E-03  8424   0.777E-03-0.276E-03
CGA: 137    -0.669731928179E+03   -0.27146E-03   -0.20737E-03  8424   0.402E-03-0.161E-03
CGA: 138    -0.669732613238E+03   -0.68506E-03    0.15488E-03  8424   0.180E-02-0.480E-03
CGA: 139    -0.669732913242E+03   -0.30000E-03   -0.29001E-03  8424   0.307E-03-0.135E-04
CGA: 140    -0.669733505392E+03   -0.59215E-03    0.16806E-03  8424   0.703E-03-0.262E-03
CGA: 141    -0.669733763816E+03   -0.25842E-03   -0.19713E-03  8424   0.431E-03-0.180E-03
CGA: 142    -0.669734452627E+03   -0.68881E-03    0.12436E-03  8424   0.158E-02-0.452E-03
CGA: 143    -0.669734747967E+03   -0.29534E-03   -0.27646E-03  8424   0.328E-03-0.392E-04
CGA: 144    -0.669735307871E+03   -0.55990E-03    0.18467E-03  8424   0.831E-03-0.309E-03
CGA: 145    -0.669735541621E+03   -0.23375E-03   -0.18954E-03  8424   0.345E-03-0.124E-03
CGA: 146    -0.669736154228E+03   -0.61261E-03    0.97841E-04  8424   0.994E-03-0.305E-03
CGA: 147    -0.669736384057E+03   -0.22983E-03   -0.19503E-03  8424   0.301E-03-0.926E-04
CGA: 148    -0.669736965369E+03   -0.58131E-03    0.78253E-04  8424   0.694E-03-0.217E-03
CGA: 149    -0.669737172544E+03   -0.20718E-03   -0.16237E-03  8424   0.346E-03-0.143E-03
CGA: 150    -0.669737803964E+03   -0.63142E-03    0.62506E-04  8424   0.750E-03-0.215E-03
CGA: 151    -0.669738033592E+03   -0.22963E-03   -0.18129E-03  8424   0.379E-03-0.167E-03
CGA: 152    -0.669738645821E+03   -0.61223E-03    0.75306E-04  8424   0.907E-03-0.274E-03
CGA: 153    -0.669738867667E+03   -0.22185E-03   -0.18673E-03  8424   0.309E-03-0.112E-03
CGA: 154    -0.669739408407E+03   -0.54074E-03    0.68176E-04  8424   0.694E-03-0.209E-03
CGA: 155    -0.669739609891E+03   -0.20148E-03   -0.15786E-03  8424   0.346E-03-0.159E-03
CGA: 156    -0.669740211185E+03   -0.60129E-03    0.49544E-04  8424   0.609E-03-0.160E-03
CGA: 157    -0.669741685785E+03   -0.14746E-02    0.22041E-04  8424   0.524E-03 0.295E-03
CGA: 158    -0.669743230191E+03   -0.15444E-02    0.18228E-03  8424   0.135E-02-0.198E-03
CGA: 159    -0.669747112993E+03   -0.38828E-02    0.54170E-04  8424   0.484E-02-0.112E-02
CGA: 160    -0.669748681864E+03   -0.15689E-02   -0.14772E-02  8424   0.326E-03-0.506E-03
CGA: 161    -0.669747277514E+03    0.14044E-02   -0.47370E-03  8424   0.198E-01-0.165E-02
CGA: 162    -0.669750137445E+03   -0.28599E-02   -0.25931E-02  8424   0.618E-03-0.893E-03
CGA: 163    -0.669750430304E+03   -0.29286E-03   -0.26197E-03  8424   0.824E-03-0.438E-03
CGA: 164    -0.669750804199E+03   -0.37390E-03   -0.24669E-03  8424   0.105E-02-0.603E-03
CGA: 165    -0.669750948297E+03   -0.14410E-03   -0.13952E-03  8424   0.111E-03-0.101E-04
CGA: 166    -0.669751389522E+03   -0.44123E-03    0.84167E-05  8424   0.110E-03 0.950E-04
CGA: 167    -0.669751805278E+03   -0.41576E-03    0.91020E-05  8424   0.140E-03 0.682E-04
CGA: 168    -0.669752117432E+03   -0.31215E-03    0.25904E-04  8424   0.340E-03-0.492E-05
CGA: 169    -0.669753480619E+03   -0.13632E-02    0.23937E-04  8424   0.443E-03 0.231E-03
CGA: 170    -0.669742435786E+03    0.11045E-01   -0.60293E-02  8424   0.674E-01-0.477E-02
CGA: 171    -0.669755663215E+03   -0.13227E-01   -0.13587E-01  8424   0.303E-02 0.820E-03
CGA: 172    -0.669756564326E+03   -0.90111E-03   -0.61567E-03  8424   0.482E-03-0.454E-03
CGA: 173    -0.669756800798E+03   -0.23647E-03   -0.13797E-03  8424   0.489E-03-0.207E-03
CGA: 174    -0.669758233541E+03   -0.14327E-02    0.48908E-04  8424   0.566E-03 0.104E-03
CGA: 175    -0.669760431130E+03   -0.21976E-02    0.26485E-03  8424   0.306E-02-0.528E-03
CGA: 176    -0.669760877126E+03   -0.44600E-03   -0.49927E-03  8424   0.199E-03 0.867E-04
CGA: 177    -0.669761387430E+03   -0.51030E-03    0.11981E-03  8424   0.104E-02-0.197E-03
CGA: 178    -0.669761790795E+03   -0.40337E-03   -0.25167E-03  8424   0.422E-03-0.297E-03
CGA: 179    -0.669762260977E+03   -0.47018E-03    0.17122E-02  8424   0.230E-02-0.427E-03
CGA: 180    -0.669762822040E+03   -0.56106E-03   -0.38629E-03  8424   0.343E-03-0.322E-03
CGA: 181    -0.669759489003E+03    0.33330E-02   -0.75277E-03  8424   0.363E-01-0.223E-02
CGA: 182    -0.669765100698E+03   -0.56117E-02   -0.52834E-02  8424   0.237E-02-0.123E-02
CGA: 183    -0.669765658842E+03   -0.55814E-03   -0.50893E-03  8424   0.206E-03-0.902E-04
CGA: 184    -0.669766318057E+03   -0.65922E-03    0.58295E-04  8424   0.680E-03-0.108E-03
CGA: 185    -0.669766532726E+03   -0.21467E-03   -0.15725E-03  8424   0.301E-03-0.113E-03
CGA: 186    -0.669767340664E+03   -0.80794E-03    0.70938E-04  8424   0.118E-02-0.209E-03
CGA: 187    -0.669767586879E+03   -0.24621E-03   -0.21607E-03  8424   0.268E-03-0.543E-04
CGA: 188    -0.669768233896E+03   -0.64702E-03    0.10418E-03  8424   0.109E-02-0.247E-03
CGA: 189    -0.669768481488E+03   -0.24759E-03   -0.20945E-03  8424   0.283E-03-0.750E-04
CGA: 190    -0.669769139686E+03   -0.65820E-03    0.97714E-04  8424   0.111E-02-0.250E-03
CGA: 191    -0.669769373470E+03   -0.23378E-03   -0.20316E-03  8424   0.268E-03-0.619E-04
CGA: 192    -0.669770004737E+03   -0.63127E-03    0.83950E-04  8424   0.890E-03-0.202E-03
CGA: 193    -0.669770235754E+03   -0.23102E-03   -0.18415E-03  8424   0.298E-03-0.108E-03
CGA: 194    -0.669770914252E+03   -0.67850E-03    0.73304E-04  8424   0.965E-03-0.209E-03
CGA: 195    -0.669771131477E+03   -0.21723E-03   -0.18299E-03  8424   0.269E-03-0.788E-04
CGA: 196    -0.669771756438E+03   -0.62496E-03    0.65017E-04  8424   0.752E-03-0.162E-03
CGA: 197    -0.669771978495E+03   -0.22206E-03   -0.16881E-03  8424   0.334E-03-0.143E-03
CGA: 198    -0.669772681219E+03   -0.70272E-03    0.61686E-04  8424   0.874E-03-0.186E-03
CGA: 199    -0.669772900155E+03   -0.21894E-03   -0.17920E-03  8424   0.298E-03-0.106E-03
CGA: 200    -0.669773515227E+03   -0.61507E-03    0.65482E-04  8424   0.801E-03-0.183E-03
   1 F= -.66977352E+03 E0= -.66977352E+03  d E =-.669774E+03  mag=     2.0000
       N       E                     dE             d eps       ncg     rms          ort
SDA:   1    -0.669774622043E+03   -0.17219E-02    0.00000E+00  8424   0.835E-02 0.000E+00
CGA:   2    -0.669775522780E+03   -0.90074E-03   -0.97109E-03  8424   0.139E-02 0.224E-03
CGA:   3    -0.669776091774E+03   -0.56899E-03   -0.50746E-03  8424   0.117E-02-0.378E-03
CGA:   4    -0.669776534656E+03   -0.44288E-03   -0.31755E-03  8424   0.184E-02-0.911E-03
CGA:   5    -0.669776864728E+03   -0.33007E-03   -0.26206E-03  8424   0.655E-03-0.189E-03
CGA:   6    -0.669777452533E+03   -0.58781E-03    0.47167E-02  8424   0.118E-02-0.405E-03
CGA:   7    -0.669777751361E+03   -0.29883E-03   -0.20645E-03  8424   0.478E-03-0.298E-03
CGA:   8    -0.669778242726E+03   -0.49137E-03    0.18052E-03  8424   0.775E-03-0.236E-03
CGA:   9    -0.669779518675E+03   -0.12759E-02    0.37649E-04  8424   0.753E-03 0.792E-04
CGA:  10    -0.669781367500E+03   -0.18488E-02    0.14247E-03  8424   0.788E-03 0.122E-03
CGA:  11    -0.669783554516E+03   -0.21870E-02    0.13983E-03  8424   0.131E-02-0.163E-03
CGA:  12    -0.669787838741E+03   -0.42842E-02    0.71759E-04  8424   0.161E-02 0.412E-03
CGA:  13    -0.669793785611E+03   -0.59469E-02    0.25130E-03  8424   0.260E-02 0.491E-04
CGA:  14    -0.669804240598E+03   -0.10455E-01    0.19944E-03  8424   0.282E-02 0.589E-03
CGA:  15    -0.669816736829E+03   -0.12496E-01    0.28727E-03  8424   0.431E-02-0.556E-03
CGA:  16    -0.669837103215E+03   -0.20366E-01    0.15441E-03  8424   0.571E-02-0.117E-02
CGA:  17    -0.669866315947E+03   -0.29213E-01    0.15098E-03  8424   0.826E-02-0.586E-02
CGA:  18    -0.669868313319E+03   -0.19974E-02   -0.20956E-02  8424   0.108E-02 0.450E-03
CGA:  19    -0.669868417895E+03   -0.10458E-03   -0.21683E-03  8424   0.404E-03 0.416E-03
CGA:  20    -0.669868369903E+03    0.47992E-04   -0.74695E-04  8424   0.267E-03 0.391E-03
CGA:  21    -0.669868324482E+03    0.45421E-04   -0.28502E-04  8424   0.214E-03 0.228E-03
CGA:  22    -0.669868278413E+03    0.46070E-04   -0.20198E-04  8424   0.201E-03 0.207E-03
CGA:  23    -0.669868234455E+03    0.43957E-04   -0.17421E-04  8424   0.193E-03 0.196E-03
CGA:  24    -0.669868192662E+03    0.41793E-04   -0.15587E-04  8424   0.187E-03 0.190E-03
CGA:  25    -0.669868152931E+03    0.39731E-04   -0.14194E-04  8424   0.183E-03 0.184E-03
CGA:  26    -0.669868115142E+03    0.37789E-04   -0.13066E-04  8424   0.179E-03 0.180E-03
CGA:  27    -0.669868079176E+03    0.35966E-04   -0.12117E-04  8424   0.176E-03 0.177E-03
CGA:  28    -0.669868044926E+03    0.34250E-04   -0.11300E-04  8424   0.173E-03 0.174E-03
CGA:  29    -0.669868012290E+03    0.32636E-04   -0.10583E-04  8424   0.171E-03 0.172E-03
CGA:  30    -0.669867981177E+03    0.31113E-04   -0.99469E-05  8424   0.169E-03 0.170E-03
CGA:  31    -0.669867951502E+03    0.29675E-04   -0.93752E-05  8424   0.167E-03 0.168E-03
CGA:  32    -0.669867923185E+03    0.28316E-04   -0.88572E-05  8424   0.166E-03 0.166E-03
CGA:  33    -0.669867896157E+03    0.27029E-04   -0.83840E-05  8424   0.164E-03 0.165E-03
CGA:  34    -0.669867870348E+03    0.25809E-04   -0.79489E-05  8424   0.163E-03 0.164E-03
CGA:  35    -0.669867845698E+03    0.24650E-04   -0.75467E-05  8424   0.162E-03 0.163E-03
CGA:  36    -0.669867822148E+03    0.23550E-04   -0.71734E-05  8424   0.161E-03 0.162E-03
CGA:  37    -0.669867799644E+03    0.22504E-04   -0.68255E-05  8424   0.160E-03 0.161E-03
CGA:  38    -0.669867778136E+03    0.21509E-04   -0.64999E-05  8424   0.160E-03 0.160E-03
CGA:  39    -0.669867757574E+03    0.20561E-04   -0.61943E-05  8424   0.159E-03 0.159E-03
CGA:  40    -0.669867737915E+03    0.19659E-04   -0.59067E-05  8424   0.158E-03 0.159E-03
CGA:  41    -0.669867719115E+03    0.18800E-04   -0.56353E-05  8424   0.158E-03 0.158E-03
CGA:  42    -0.669867701135E+03    0.17980E-04   -0.53789E-05  8424   0.157E-03 0.157E-03
CGA:  43    -0.669867683936E+03    0.17199E-04   -0.51361E-05  8424   0.157E-03 0.157E-03
CGA:  44    -0.669867667482E+03    0.16454E-04   -0.49060E-05  8424   0.156E-03 0.156E-03
CGA:  45    -0.669867651738E+03    0.15744E-04   -0.46876E-05  8424   0.156E-03 0.156E-03
CGA:  46    -0.669867636671E+03    0.15066E-04   -0.44801E-05  8424   0.155E-03 0.155E-03
CGA:  47    -0.669867622251E+03    0.14420E-04   -0.42827E-05  8424   0.155E-03 0.155E-03
CGA:  48    -0.669867608448E+03    0.13803E-04   -0.40948E-05  8424   0.154E-03 0.154E-03
CGA:  49    -0.669867595235E+03    0.13214E-04   -0.39158E-05  8424   0.154E-03 0.154E-03
CGA:  50    -0.669867582583E+03    0.12651E-04   -0.37453E-05  8424   0.154E-03 0.154E-03
CGA:  51    -0.669867570469E+03    0.12114E-04   -0.35826E-05  8424   0.153E-03 0.153E-03
CGA:  52    -0.669867558868E+03    0.11601E-04   -0.34273E-05  8424   0.153E-03 0.153E-03
CGA:  53    -0.669867547758E+03    0.11111E-04   -0.32792E-05  8424   0.153E-03 0.153E-03
CGA:  54    -0.669867537116E+03    0.10642E-04   -0.31377E-05  8424   0.152E-03 0.153E-03
CGA:  55    -0.669867526922E+03    0.10194E-04   -0.30025E-05  8424   0.152E-03 0.152E-03
CGA:  56    -0.669867517157E+03    0.97654E-05   -0.28734E-05  8424   0.152E-03 0.152E-03
   2 F= -.66986752E+03 E0= -.66986752E+03  d E =-.940019E-01  mag=     2.0000
       N       E                     dE             d eps       ncg     rms          ort
SDA:   1    -0.669807303756E+03    0.60223E-01    0.00000E+00  8424   0.200E+00 0.000E+00
CGA:   2    -0.669849889291E+03   -0.42586E-01   -0.42346E-01  8424   0.860E-01 0.200E-02
CGA:   3    -0.669867857116E+03   -0.17968E-01   -0.17726E-01  8424   0.264E-01 0.230E-02
CGA:   4    -0.669872187658E+03   -0.43305E-02   -0.42499E-02  8424   0.611E-02 0.156E-02
CGA:   5    -0.669873195060E+03   -0.10074E-02   -0.95557E-03  8424   0.126E-02 0.129E-02
CGA:   6    -0.669873349058E+03   -0.15400E-03   -0.15858E-03  8424   0.542E-03 0.849E-03
CGA:   7    -0.669873369358E+03   -0.20301E-04   -0.37756E-04  8424   0.377E-03 0.441E-03
CGA:   8    -0.669873371284E+03   -0.19257E-05   -0.20305E-04  8424   0.318E-03 0.344E-03
CGA:   9    -0.669873368312E+03    0.29713E-05   -0.14588E-04  8424   0.284E-03 0.299E-03
CGA:  10    -0.669873363277E+03    0.50354E-05   -0.11521E-04  8424   0.261E-03 0.271E-03
   3 F= -.66987336E+03 E0= -.66987336E+03  d E =-.584612E-02  mag=     2.0000
       N       E                     dE             d eps       ncg     rms          ort
SDA:   1    -0.667173558105E+03    0.26998E+01    0.00000E+00  8424   0.714E+01 0.000E+00
CGA:   2    -0.668983909477E+03   -0.18104E+01   -0.18089E+01  8424   0.360E+01 0.864E-02
CGA:   3    -0.669671066855E+03   -0.68716E+00   -0.68730E+00  8424   0.900E+00-0.214E-02
CGA:   4    -0.669814376258E+03   -0.14331E+00   -0.14323E+00  8424   0.212E+00 0.146E-02
CGA:   5    -0.669850983091E+03   -0.36607E-01   -0.36498E-01  8424   0.445E-01 0.174E-02
CGA:   6    -0.669859871700E+03   -0.88886E-02   -0.87855E-02  8424   0.103E-01 0.125E-02
CGA:   7    -0.669862118626E+03   -0.22469E-02   -0.21353E-02  8424   0.286E-02 0.132E-02
CGA:   8    -0.669862782259E+03   -0.66363E-03   -0.59841E-03  8424   0.937E-03 0.102E-02
CGA:   9    -0.669862957095E+03   -0.17484E-03   -0.16900E-03  8424   0.493E-03 0.737E-03
CGA:  10    -0.669863000347E+03   -0.43253E-04   -0.51558E-04  8424   0.347E-03 0.399E-03
CGA:  11    -0.669863017173E+03   -0.16826E-04   -0.29464E-04  8424   0.298E-03 0.320E-03
CGA:  12    -0.669863025645E+03   -0.84720E-05   -0.22095E-04  8424   0.269E-03 0.282E-03
CGA:  13    -0.669863029880E+03   -0.42343E-05   -0.17958E-04  8424   0.249E-03 0.258E-03
CGA:  14    -0.669863031581E+03   -0.17015E-05   -0.15203E-04  8424   0.234E-03 0.240E-03
CGA:  15    -0.669863031638E+03   -0.57084E-07   -0.13197E-04  8424   0.221E-03 0.227E-03
CGA:  16    -0.669863030575E+03    0.10634E-05   -0.11653E-04  8424   0.211E-03 0.216E-03
CGA:  17    -0.669863028726E+03    0.18493E-05   -0.10418E-04  8424   0.203E-03 0.207E-03
   4 F= -.66986303E+03 E0= -.66986303E+03  d E =0.103346E-01  mag=     2.0000
       N       E                     dE             d eps       ncg     rms          ort
SDA:   1    -0.669638504259E+03    0.22453E+00    0.00000E+00  8424   0.620E+00 0.000E+00
CGA:   2    -0.669789904697E+03   -0.15140E+00   -0.15114E+00  8424   0.320E+00 0.175E-02
CGA:   3    -0.669853528089E+03   -0.63623E-01   -0.63583E-01  8424   0.809E-01 0.405E-03
CGA:   4    -0.669866205479E+03   -0.12677E-01   -0.12651E-01  8424   0.181E-01 0.621E-03
CGA:   5    -0.669869281269E+03   -0.30758E-02   -0.30368E-02  8424   0.367E-02 0.767E-03
CGA:   6    -0.669869998888E+03   -0.71762E-03   -0.67671E-03  8424   0.873E-03 0.705E-03
CGA:   7    -0.669870139662E+03   -0.14077E-03   -0.13603E-03  8424   0.365E-03 0.518E-03
CGA:   8    -0.669870167232E+03   -0.27570E-04   -0.35019E-04  8424   0.244E-03 0.285E-03
CGA:   9    -0.669870175638E+03   -0.84061E-05   -0.18451E-04  8424   0.206E-03 0.222E-03
CGA:  10    -0.669870178783E+03   -0.31452E-05   -0.13454E-04  8424   0.184E-03 0.193E-03
CGA:  11    -0.669870179475E+03   -0.69169E-06   -0.10798E-04  8424   0.170E-03 0.176E-03
   5 F= -.66987018E+03 E0= -.66987018E+03  d E =-.715075E-02  mag=     2.0000
       N       E                     dE             d eps       ncg     rms          ort
SDA:   1    -0.663140292443E+03    0.67299E+01    0.00000E+00  8424   0.184E+02 0.000E+00
CGA:   2    -0.667499587262E+03   -0.43593E+01   -0.43525E+01  8424   0.900E+01 0.540E-01
CGA:   3    -0.669302127605E+03   -0.18025E+01   -0.18038E+01  8424   0.236E+01-0.158E-01
CGA:   4    -0.669679819795E+03   -0.37769E+00   -0.37767E+00  8424   0.554E+00 0.588E-04
CGA:   5    -0.669774855851E+03   -0.95036E-01   -0.94976E-01  8424   0.115E+00 0.109E-02
CGA:   6    -0.669798149642E+03   -0.23294E-01   -0.23323E-01  8424   0.273E-01-0.389E-03
CGA:   7    -0.669804325682E+03   -0.61760E-02   -0.61653E-02  8424   0.807E-02 0.106E-03
CGA:   8    -0.669806345857E+03   -0.20202E-02   -0.20125E-02  8424   0.266E-02 0.639E-04
CGA:   9    -0.669807170465E+03   -0.82461E-03   -0.95604E-03  8424   0.165E-02-0.609E-03
CGA:  10    -0.669807577410E+03   -0.40694E-03   -0.47655E-03  8424   0.102E-02-0.316E-03
CGA:  11    -0.669806777882E+03    0.79953E-03   -0.47994E-03  8424   0.737E-02-0.195E-02
CGA:  12    -0.669808127001E+03   -0.13491E-02   -0.13870E-02  8424   0.133E-02 0.354E-03
CGA:  13    -0.669808625962E+03   -0.49896E-03   -0.61665E-03  8424   0.193E-02-0.770E-03
CGA:  14    -0.669808841895E+03   -0.21593E-03   -0.26150E-03  8424   0.347E-03 0.282E-03
CGA:  15    -0.669808847007E+03   -0.51118E-05   -0.36441E-03  8424   0.199E-02-0.579E-03
CGA:  16    -0.669809470088E+03   -0.62308E-03   -0.61999E-03  8424   0.510E-03-0.363E-03
CGA:  17    -0.669809562772E+03   -0.92684E-04   -0.89974E-04  8424   0.265E-03-0.275E-04
CGA:  18    -0.669809777720E+03   -0.21495E-03    0.10813E-03  8424   0.163E-03 0.127E-03
CGA:  19    -0.669810054715E+03   -0.27699E-03    0.45570E-04  8424   0.224E-03 0.126E-03
CGA:  20    -0.669810126233E+03   -0.71518E-04   -0.71976E-04  8424   0.366E-03-0.700E-04
CGA:  21    -0.669810438551E+03   -0.31232E-03    0.40772E-04  8424   0.421E-03 0.166E-03
CGA:  22    -0.669810992773E+03   -0.55422E-03    0.22171E-03  8424   0.854E-03-0.340E-04
CGA:  23    -0.669812165428E+03   -0.11727E-02    0.90348E-04  8424   0.177E-02 0.522E-03
CGA:  24    -0.669812335401E+03   -0.16997E-03   -0.20391E-03  8424   0.112E-03 0.170E-03
CGA:  25    -0.669812456612E+03   -0.12121E-03    0.30607E-04  8424   0.152E-03 0.565E-04
CGA:  26    -0.669812643955E+03   -0.18734E-03    0.22861E-04  8424   0.232E-03-0.149E-04
CGA:  27    -0.669812996733E+03   -0.35278E-03    0.18029E-04  8424   0.240E-03 0.195E-03
CGA:  28    -0.669813044533E+03   -0.47801E-04   -0.47417E-04  8424   0.137E-03-0.429E-05
CGA:  29    -0.669813267204E+03   -0.22267E-03    0.11390E-04  8424   0.124E-03 0.120E-03
CGA:  30    -0.669813450611E+03   -0.18341E-03    0.12526E-04  8424   0.144E-03 0.306E-04
CGA:  31    -0.669813742672E+03   -0.29206E-03    0.15717E-04  8424   0.126E-03 0.163E-03
CGA:  32    -0.669813852439E+03   -0.10977E-03    0.41876E-04  8424   0.114E-03 0.421E-04
CGA:  33    -0.669814136342E+03   -0.28390E-03    0.10714E-04  8424   0.114E-03 0.134E-03
CGA:  34    -0.669814296877E+03   -0.16054E-03    0.12793E-04  8424   0.850E-04 0.612E-04
CGA:  35    -0.669814425269E+03   -0.12839E-03    0.83751E-05  8424   0.808E-04 0.704E-04
CGA:  36    -0.669814586557E+03   -0.16129E-03    0.51916E-05  8424   0.801E-04 0.712E-04
CGA:  37    -0.669814709429E+03   -0.12287E-03    0.76965E-05  8424   0.808E-04 0.702E-04
CGA:  38    -0.669814877808E+03   -0.16838E-03    0.48853E-05  8424   0.829E-04 0.678E-04
CGA:  39    -0.669814991587E+03   -0.11378E-03    0.96425E-05  8424   0.874E-04 0.637E-04
CGA:  40    -0.669815172655E+03   -0.18107E-03    0.53291E-05  8424   0.960E-04 0.565E-04
CGA:  41    -0.669815267987E+03   -0.95332E-04    0.21893E-04  8424   0.113E-03 0.436E-04
CGA:  42    -0.669815592677E+03   -0.32469E-03    0.10626E-04  8424   0.925E-04 0.161E-03
CGA:  43    -0.669815784476E+03   -0.19180E-03    0.56391E-05  8424   0.107E-03 0.445E-04
CGA:  44    -0.669816096107E+03   -0.31163E-03    0.10495E-04  8424   0.886E-04 0.156E-03
CGA:  45    -0.669816194598E+03   -0.98491E-04    0.15519E-04  8424   0.101E-03 0.462E-04
CGA:  46    -0.669816398078E+03   -0.20348E-03    0.63703E-05  8424   0.122E-03 0.289E-04
CGA:  47    -0.669816720568E+03   -0.32249E-03    0.97668E-05  8424   0.105E-03 0.155E-03
CGA:  48    -0.669816798663E+03   -0.78095E-04    0.64787E-04  8424   0.127E-03 0.207E-04
CGA:  49    -0.669817129824E+03   -0.33116E-03    0.87133E-05  8424   0.114E-03 0.150E-03
CGA:  50    -0.669817347004E+03   -0.21718E-03    0.78341E-05  8424   0.137E-03 0.748E-05
CGA:  51    -0.669817669802E+03   -0.32280E-03    0.81710E-05  8424   0.131E-03 0.144E-03
CGA:  52    -0.669817705402E+03   -0.35599E-04   -0.75198E-04  8424   0.720E-03-0.146E-03
CGA:  53    -0.669815586606E+03    0.21188E-02   -0.73053E-03  8424   0.259E-01-0.407E-02
CGA:  54    -0.669818511666E+03   -0.29251E-02   -0.33489E-02  8424   0.229E-03 0.199E-02
CGA:  55    -0.669818542689E+03   -0.31023E-04   -0.37822E-04  8424   0.669E-04 0.365E-04
CGA:  56    -0.669818725659E+03   -0.18297E-03    0.49041E-05  8424   0.106E-03 0.604E-04
CGA:  57    -0.669818946157E+03   -0.22050E-03    0.80108E-05  8424   0.116E-03 0.884E-05
CGA:  58    -0.669819274419E+03   -0.32826E-03    0.69913E-05  8424   0.112E-03 0.121E-03
CGA:  59    -0.669819371691E+03   -0.97272E-04    0.56848E-04  8424   0.107E-03 0.702E-05
CGA:  60    -0.669819687459E+03   -0.31577E-03    0.57915E-05  8424   0.104E-03 0.107E-03
CGA:  61    -0.669819897751E+03   -0.21029E-03    0.82688E-05  8424   0.851E-04 0.196E-04
CGA:  62    -0.669820172630E+03   -0.27488E-03    0.52720E-05  8424   0.870E-04 0.945E-04
CGA:  63    -0.669820300586E+03   -0.12796E-03    0.11504E-04  8424   0.657E-04 0.352E-04
CGA:  64    -0.669820574086E+03   -0.27350E-03    0.43028E-05  8424   0.743E-04 0.872E-04
CGA:  65    -0.669820751435E+03   -0.17735E-03    0.46224E-05  8424   0.569E-04 0.422E-04
CGA:  66    -0.669820889469E+03   -0.13803E-03    0.34625E-05  8424   0.533E-04 0.485E-04
CGA:  67    -0.669821056240E+03   -0.16677E-03    0.23236E-05  8424   0.522E-04 0.492E-04
CGA:  68    -0.669821196192E+03   -0.13995E-03    0.27765E-05  8424   0.516E-04 0.489E-04
CGA:  69    -0.669821361757E+03   -0.16557E-03    0.21812E-05  8424   0.514E-04 0.482E-04
CGA:  70    -0.669821499112E+03   -0.13735E-03    0.27456E-05  8424   0.515E-04 0.472E-04
CGA:  71    -0.669821667798E+03   -0.16869E-03    0.21184E-05  8424   0.522E-04 0.457E-04
CGA:  72    -0.669821797546E+03   -0.12975E-03    0.30684E-05  8424   0.537E-04 0.435E-04
CGA:  73    -0.669821973504E+03   -0.17596E-03    0.22054E-05  8424   0.566E-04 0.401E-04
CGA:  74    -0.669822090333E+03   -0.11683E-03    0.43366E-05  8424   0.620E-04 0.349E-04
CGA:  75    -0.669822277953E+03   -0.18762E-03    0.28199E-05  8424   0.717E-04 0.266E-04
CGA:  76    -0.669822598249E+03   -0.32030E-03    0.44646E-05  8424   0.597E-04 0.100E-03
CGA:  77    -0.669822701749E+03   -0.10350E-03    0.59698E-05  8424   0.676E-04 0.258E-04
CGA:  78    -0.669823020634E+03   -0.31889E-03    0.39540E-05  8424   0.576E-04 0.948E-04
CGA:  79    -0.669823207994E+03   -0.18736E-03    0.23885E-05  8424   0.638E-04 0.249E-04
CGA:  80    -0.669823510743E+03   -0.30275E-03    0.37076E-05  8424   0.556E-04 0.897E-04
CGA:  81    -0.669823609149E+03   -0.98406E-04    0.53908E-05  8424   0.605E-04 0.240E-04
CGA:  82    -0.669823910887E+03   -0.30174E-03    0.32964E-05  8424   0.538E-04 0.851E-04
CGA:  83    -0.669824094256E+03   -0.18337E-03    0.21103E-05  8424   0.575E-04 0.230E-04
CGA:  84    -0.669824382821E+03   -0.28857E-03    0.30866E-05  8424   0.521E-04 0.806E-04
CGA:  85    -0.669824477239E+03   -0.94417E-04    0.48640E-05  8424   0.548E-04 0.219E-04
CGA:  86    -0.669824762891E+03   -0.28565E-03    0.27854E-05  8424   0.504E-04 0.766E-04
CGA:  87    -0.669824941682E+03   -0.17879E-03    0.18812E-05  8424   0.522E-04 0.210E-04
CGA:  88    -0.669825217168E+03   -0.27549E-03    0.25988E-05  8424   0.487E-04 0.727E-04
CGA:  89    -0.669825307850E+03   -0.90682E-04    0.43542E-05  8424   0.498E-04 0.202E-04
CGA:  90    -0.669825579230E+03   -0.27138E-03    0.23729E-05  8424   0.469E-04 0.691E-04
CGA:  91    -0.669825752701E+03   -0.17347E-03    0.16588E-05  8424   0.473E-04 0.196E-04
CGA:  92    -0.669826015353E+03   -0.26265E-03    0.22160E-05  8424   0.449E-04 0.657E-04
CGA:  93    -0.669826103500E+03   -0.88147E-04    0.37037E-05  8424   0.447E-04 0.193E-04
CGA:  94    -0.669826362074E+03   -0.25857E-03    0.20327E-05  8424   0.428E-04 0.624E-04
CGA:  95    -0.669826528474E+03   -0.16640E-03    0.14246E-05  8424   0.420E-04 0.193E-04
CGA:  96    -0.669826778045E+03   -0.24957E-03    0.19077E-05  8424   0.405E-04 0.593E-04
CGA:  97    -0.669826866073E+03   -0.88028E-04    0.28761E-05  8424   0.391E-04 0.195E-04
CGA:  98    -0.669827112322E+03   -0.24625E-03    0.17428E-05  8424   0.381E-04 0.562E-04
CGA:  99    -0.669827268883E+03   -0.15656E-03    0.11911E-05  8424   0.362E-04 0.200E-04
CGA: 100    -0.669827356673E+03   -0.87790E-04    0.21988E-05  8424   0.359E-04 0.200E-04
CGA: 101    -0.669827512072E+03   -0.15540E-03    0.10548E-05  8424   0.361E-04 0.192E-04
CGA: 102    -0.669827597036E+03   -0.84964E-04    0.22911E-05  8424   0.365E-04 0.182E-04
CGA: 103    -0.669827752682E+03   -0.15565E-03    0.10879E-05  8424   0.370E-04 0.171E-04
CGA: 104    -0.669827992809E+03   -0.24013E-03    0.15545E-05  8424   0.352E-04 0.536E-04
CGA: 105    -0.669828073625E+03   -0.80816E-04    0.23070E-05  8424   0.358E-04 0.163E-04
CGA: 106    -0.669828311081E+03   -0.23746E-03    0.14552E-05  8424   0.339E-04 0.517E-04
CGA: 107    -0.669828462659E+03   -0.15158E-03    0.95836E-06  8424   0.346E-04 0.155E-04
CGA: 108    -0.669828694372E+03   -0.23171E-03    0.13821E-05  8424   0.327E-04 0.498E-04
CGA: 109    -0.669828770736E+03   -0.76364E-04    0.21043E-05  8424   0.336E-04 0.148E-04
CGA: 110    -0.669829000665E+03   -0.22993E-03    0.12926E-05  8424   0.316E-04 0.481E-04
CGA: 111    -0.669829147840E+03   -0.14718E-03    0.85180E-06  8424   0.325E-04 0.141E-04
CGA: 112    -0.669829371465E+03   -0.22363E-03    0.12371E-05  8424   0.306E-04 0.464E-04
CGA: 113    -0.669829443945E+03   -0.72480E-04    0.19207E-05  8424   0.315E-04 0.135E-04
CGA: 114    -0.669829666374E+03   -0.22243E-03    0.11540E-05  8424   0.296E-04 0.448E-04
CGA: 115    -0.669829808829E+03   -0.14246E-03    0.76556E-06  8424   0.305E-04 0.129E-04
CGA: 116    -0.669830024065E+03   -0.21524E-03    0.11093E-05  8424   0.286E-04 0.432E-04
CGA: 117    -0.669830093417E+03   -0.69352E-04    0.17470E-05  8424   0.295E-04 0.124E-04
CGA: 118    -0.669830307465E+03   -0.21405E-03    0.10300E-05  8424   0.277E-04 0.416E-04
CGA: 119    -0.669830444500E+03   -0.13703E-03    0.69625E-06  8424   0.283E-04 0.120E-04
CGA: 120    -0.669830649977E+03   -0.20548E-03    0.99013E-06  8424   0.268E-04 0.398E-04
CGA: 121    -0.669830717898E+03   -0.67921E-04    0.15378E-05  8424   0.269E-04 0.119E-04
CGA: 122    -0.669830921399E+03   -0.20350E-03    0.90996E-06  8424   0.258E-04 0.380E-04
CGA: 123    -0.669831051021E+03   -0.12962E-03    0.63834E-06  8424   0.252E-04 0.120E-04
CGA: 124    -0.669831243848E+03   -0.19283E-03    0.86877E-06  8424   0.248E-04 0.360E-04
CGA: 125    -0.669831313848E+03   -0.69999E-04    0.12339E-05  8424   0.233E-04 0.123E-04
CGA: 126    -0.669831503288E+03   -0.18944E-03    0.78641E-06  8424   0.237E-04 0.339E-04
CGA: 127    -0.669831622141E+03   -0.11885E-03    0.58626E-06  8424   0.213E-04 0.129E-04
CGA: 128    -0.669831694463E+03   -0.72322E-04    0.84001E-06  8424   0.205E-04 0.139E-04
CGA: 129    -0.669831810702E+03   -0.11624E-03    0.43955E-06  8424   0.202E-04 0.141E-04
CGA: 130    -0.669831881930E+03   -0.71227E-04    0.76165E-06  8424   0.203E-04 0.138E-04
CGA: 131    -0.669831998124E+03   -0.11619E-03    0.43032E-06  8424   0.205E-04 0.134E-04
CGA: 132    -0.669832066149E+03   -0.68025E-04    0.83081E-06  8424   0.209E-04 0.127E-04
CGA: 133    -0.669832184186E+03   -0.11804E-03    0.45261E-06  8424   0.216E-04 0.119E-04
CGA: 134    -0.669832247322E+03   -0.63136E-04    0.10215E-05  8424   0.224E-04 0.108E-04
CGA: 135    -0.669832368504E+03   -0.12118E-03    0.50678E-06  8424   0.235E-04 0.957E-05
CGA: 136    -0.669832553503E+03   -0.18500E-03    0.74057E-06  8424   0.219E-04 0.331E-04
CGA: 137    -0.669832611488E+03   -0.57985E-04    0.11820E-05  8424   0.230E-04 0.910E-05
CGA: 138    -0.669832795756E+03   -0.18427E-03    0.70321E-06  8424   0.214E-04 0.323E-04
CGA: 139    -0.669832914599E+03   -0.11884E-03    0.47275E-06  8424   0.226E-04 0.865E-05
CGA: 140    -0.669833093087E+03   -0.17849E-03    0.68767E-06  8424   0.211E-04 0.314E-04
CGA: 141    -0.669833147026E+03   -0.53939E-04    0.11926E-05  8424   0.223E-04 0.816E-05
CGA: 142    -0.669833325253E+03   -0.17823E-03    0.65263E-06  8424   0.208E-04 0.306E-04
CGA: 143    -0.669833441774E+03   -0.11652E-03    0.45185E-06  8424   0.220E-04 0.766E-05
CGA: 144    -0.669833614387E+03   -0.17261E-03    0.64110E-06  8424   0.206E-04 0.299E-04
CGA: 145    -0.669833664250E+03   -0.49862E-04    0.12528E-05  8424   0.219E-04 0.709E-05
CGA: 146    -0.669833836654E+03   -0.17240E-03    0.60961E-06  8424   0.204E-04 0.291E-04
CGA: 147    -0.669833951471E+03   -0.11482E-03    0.44422E-06  8424   0.218E-04 0.647E-05
CGA: 148    -0.669834118581E+03   -0.16711E-03    0.59969E-06  8424   0.205E-04 0.284E-04
CGA: 149    -0.669834163861E+03   -0.45280E-04    0.14150E-05  8424   0.219E-04 0.576E-05
CGA: 150    -0.669834330560E+03   -0.16670E-03    0.57174E-06  8424   0.206E-04 0.278E-04
CGA: 151    -0.669834444632E+03   -0.11407E-03    0.45443E-06  8424   0.221E-04 0.496E-05
CGA: 152    -0.669834606421E+03   -0.16179E-03    0.56177E-06  8424   0.209E-04 0.271E-04
CGA: 153    -0.669834646362E+03   -0.39942E-04    0.17952E-05  8424   0.224E-04 0.403E-05
CGA: 154    -0.669834807244E+03   -0.16088E-03    0.53667E-06  8424   0.214E-04 0.264E-04
CGA: 155    -0.669834921610E+03   -0.11437E-03    0.49071E-06  8424   0.228E-04 0.300E-05
CGA: 156    -0.669835077643E+03   -0.15603E-03    0.52545E-06  8424   0.220E-04 0.257E-04
CGA: 157    -0.669835111864E+03   -0.34221E-04    0.26340E-05  8424   0.233E-04 0.192E-05
CGA: 158    -0.669835266265E+03   -0.15440E-03    0.50077E-06  8424   0.226E-04 0.249E-04
CGA: 159    -0.669835380871E+03   -0.11461E-03    0.55221E-06  8424   0.235E-04 0.996E-06
CGA: 160    -0.669835528934E+03   -0.14806E-03    0.49029E-06  8424   0.229E-04 0.240E-04
CGA: 161    -0.669835559805E+03   -0.30872E-04    0.35811E-05  8424   0.230E-04 0.583E-06
CGA: 162    -0.669835706083E+03   -0.14628E-03    0.45943E-06  8424   0.225E-04 0.230E-04
CGA: 163    -0.669835816320E+03   -0.11024E-03    0.57108E-06  8424   0.214E-04 0.118E-05
CGA: 164    -0.669835951762E+03   -0.13544E-03    0.45449E-06  8424   0.210E-04 0.217E-04
CGA: 165    -0.669835988144E+03   -0.36381E-04    0.20915E-05  8424   0.187E-04 0.295E-05
CGA: 166    -0.669836123098E+03   -0.13495E-03    0.40459E-06  8424   0.186E-04 0.204E-04
CGA: 167    -0.669836218803E+03   -0.95705E-04    0.44860E-06  8424   0.156E-04 0.532E-05
CGA: 168    -0.669836341436E+03   -0.12263E-03    0.39447E-06  8424   0.164E-04 0.192E-04
CGA: 169    -0.669836390723E+03   -0.49287E-04    0.75496E-06  8424   0.133E-04 0.722E-05
CGA: 170    -0.669836513774E+03   -0.12305E-03    0.35553E-06  8424   0.149E-04 0.184E-04
CGA: 171    -0.669836594472E+03   -0.80698E-04    0.33675E-06  8424   0.120E-04 0.825E-05
CGA: 172    -0.669836649424E+03   -0.54952E-04    0.32720E-06  8424   0.112E-04 0.957E-05
CGA: 173    -0.669836725450E+03   -0.76026E-04    0.19692E-06  8424   0.110E-04 0.986E-05
CGA: 174    -0.669836781646E+03   -0.56196E-04    0.26524E-06  8424   0.109E-04 0.988E-05
CGA: 175    -0.669836857004E+03   -0.75358E-04    0.18840E-06  8424   0.110E-04 0.978E-05
CGA: 176    -0.669836911336E+03   -0.54333E-04    0.27452E-06  8424   0.111E-04 0.957E-05
CGA: 177    -0.669836988822E+03   -0.77485E-04    0.18936E-06  8424   0.114E-04 0.924E-05
CGA: 178    -0.669837038307E+03   -0.49485E-04    0.33499E-06  8424   0.120E-04 0.867E-05
CGA: 179    -0.669837120960E+03   -0.82653E-04    0.20861E-06  8424   0.132E-04 0.772E-05
CGA: 180    -0.669837161669E+03   -0.40709E-04    0.58247E-06  8424   0.153E-04 0.603E-05
CGA: 181    -0.669837302805E+03   -0.14114E-03    0.42537E-06  8424   0.128E-04 0.219E-04
CGA: 182    -0.669837389290E+03   -0.86485E-04    0.22481E-06  8424   0.146E-04 0.613E-05
CGA: 183    -0.669837521520E+03   -0.13223E-03    0.42902E-06  8424   0.123E-04 0.213E-04
CGA: 184    -0.669837560069E+03   -0.38549E-04    0.53727E-06  8424   0.140E-04 0.626E-05
CGA: 185    -0.669837651093E+03   -0.91024E-04    0.25681E-06  8424   0.167E-04 0.400E-05
CGA: 186    -0.669837784254E+03   -0.13316E-03    0.41884E-06  8424   0.146E-04 0.213E-04
CGA: 187    -0.669837812071E+03   -0.27816E-04    0.12545E-05  8424   0.176E-04 0.284E-05
CGA: 188    -0.669837948056E+03   -0.13599E-03    0.39198E-06  8424   0.160E-04 0.209E-04
CGA: 189    -0.669838043845E+03   -0.95789E-04    0.32129E-06  8424   0.196E-04 0.816E-06
CGA: 190    -0.669838176046E+03   -0.13220E-03    0.38386E-06  8424   0.189E-04 0.204E-04
CGA: 191    -0.669838190118E+03   -0.14071E-04    0.22766E-04  8424   0.237E-04-0.304E-05
CGA: 192    -0.669838320515E+03   -0.13040E-03    0.36155E-06  8424   0.254E-04 0.196E-04
CGA: 193    -0.669838433558E+03   -0.11304E-03    0.71995E-06  8424   0.325E-04-0.110E-04
CGA: 194    -0.669838568687E+03   -0.13513E-03    0.29615E-06  8424   0.402E-04 0.179E-04
CGA: 195    -0.669838567104E+03    0.15833E-05   -0.35795E-05  8424   0.139E-04 0.216E-04
   6 F= -.66983857E+03 E0= -.66983857E+03  d E =0.316124E-01  mag=     2.0000
       N       E                     dE             d eps       ncg     rms          ort
SDA:   1    -0.668370143894E+03    0.14684E+01    0.00000E+00  8424   0.489E+01 0.000E+00
CGA:   2    -0.669348528948E+03   -0.97839E+00   -0.97939E+00  8424   0.193E+01 0.343E-02
CGA:   3    -0.669755374309E+03   -0.40685E+00   -0.40668E+00  8424   0.651E+00-0.804E-03
CGA:   4    -0.669862763735E+03   -0.10739E+00   -0.10747E+00  8424   0.165E+00 0.405E-03
CGA:   5    -0.669891215122E+03   -0.28451E-01   -0.28504E-01  8424   0.344E-01 0.376E-03
CGA:   6    -0.669897948813E+03   -0.67337E-02   -0.67168E-02  8424   0.765E-02-0.178E-03
CGA:   7    -0.669899580002E+03   -0.16312E-02   -0.16490E-02  8424   0.223E-02 0.251E-03
CGA:   8    -0.669900099547E+03   -0.51955E-03   -0.52807E-03  8424   0.612E-03 0.156E-03
CGA:   9    -0.669900246798E+03   -0.14725E-03   -0.15252E-03  8424   0.179E-03 0.109E-03
CGA:  10    -0.669900272858E+03   -0.26061E-04   -0.36862E-04  8424   0.792E-04 0.103E-03
CGA:  11    -0.669900277937E+03   -0.50783E-05   -0.11879E-04  8424   0.454E-04 0.550E-04
   7 F= -.66990028E+03 E0= -.66990028E+03  d E =-.617108E-01  mag=     2.0000
       N       E                     dE             d eps       ncg     rms          ort
SDA:   1    -0.669751108892E+03    0.14916E+00    0.00000E+00  8424   0.408E+00 0.000E+00
CGA:   2    -0.669849265777E+03   -0.98157E-01   -0.98164E-01  8424   0.203E+00 0.340E-03
CGA:   3    -0.669889293905E+03   -0.40028E-01   -0.40033E-01  8424   0.536E-01 0.662E-04
CGA:   4    -0.669897794886E+03   -0.85010E-02   -0.85155E-02  8424   0.123E-01 0.144E-03
CGA:   5    -0.669899894817E+03   -0.20999E-02   -0.21111E-02  8424   0.257E-02 0.139E-03
CGA:   6    -0.669900398417E+03   -0.50360E-03   -0.50891E-03  8424   0.593E-03 0.105E-03
CGA:   7    -0.669900502094E+03   -0.10368E-03   -0.11215E-03  8424   0.163E-03 0.136E-03
CGA:   8    -0.669900516972E+03   -0.14878E-04   -0.26567E-04  8424   0.728E-04 0.107E-03
CGA:   9    -0.669900516651E+03    0.32072E-06   -0.72832E-05  8424   0.475E-04 0.561E-04
   8 F= -.66990052E+03 E0= -.66990052E+03  d E =-.238715E-03  mag=     2.0000
       N       E                     dE             d eps       ncg     rms          ort
SDA:   1    -0.668111201667E+03    0.17893E+01    0.00000E+00  8424   0.448E+01 0.000E+00
CGA:   2    -0.669346607917E+03   -0.12354E+01   -0.12354E+01  8424   0.240E+01-0.352E-03
CGA:   3    -0.669786234236E+03   -0.43963E+00   -0.43961E+00  8424   0.524E+00-0.502E-03
CGA:   4    -0.669869485664E+03   -0.83251E-01   -0.83271E-01  8424   0.122E+00 0.256E-03
CGA:   5    -0.669890721598E+03   -0.21236E-01   -0.21248E-01  8424   0.262E-01 0.235E-03
CGA:   6    -0.669896108724E+03   -0.53871E-02   -0.53879E-02  8424   0.621E-02 0.598E-04
CGA:   7    -0.669897440813E+03   -0.13321E-02   -0.13324E-02  8424   0.177E-02 0.189E-03
CGA:   8    -0.669897860327E+03   -0.41951E-03   -0.41659E-03  8424   0.529E-03 0.237E-03
CGA:   9    -0.669897998610E+03   -0.13828E-03   -0.13645E-03  8424   0.198E-03 0.165E-03
CGA:  10    -0.669898038286E+03   -0.39676E-04   -0.45498E-04  8424   0.102E-03 0.139E-03
CGA:  11    -0.669898048309E+03   -0.10023E-04   -0.15044E-04  8424   0.627E-04 0.748E-04
CGA:  12    -0.669898050525E+03   -0.22160E-05   -0.74774E-05  8424   0.522E-04 0.570E-04
   9 F= -.66989805E+03 E0= -.66989805E+03  d E =0.246613E-02  mag=     2.0000
       N       E                     dE             d eps       ncg     rms          ort
SDA:   1    -0.663937538199E+03    0.59605E+01    0.00000E+00  8424   0.164E+02 0.000E+00
CGA:   2    -0.667761738717E+03   -0.38242E+01   -0.38228E+01  8424   0.809E+01 0.292E-01
CGA:   3    -0.669408752432E+03   -0.16470E+01   -0.16470E+01  8424   0.216E+01-0.881E-02
CGA:   4    -0.669750293773E+03   -0.34154E+00   -0.34161E+00  8424   0.487E+00 0.637E-03
CGA:   5    -0.669833335265E+03   -0.83041E-01   -0.83089E-01  8424   0.100E+00 0.139E-02
CGA:   6    -0.669853848417E+03   -0.20513E-01   -0.20512E-01  8424   0.241E-01 0.145E-03
CGA:   7    -0.669859101768E+03   -0.52534E-02   -0.52411E-02  8424   0.653E-02 0.682E-03
CGA:   8    -0.669860641231E+03   -0.15395E-02   -0.15223E-02  8424   0.186E-02 0.651E-03
CGA:   9    -0.669861131742E+03   -0.49051E-03   -0.47704E-03  8424   0.610E-03 0.424E-03
CGA:  10    -0.669861241544E+03   -0.10980E-03   -0.12450E-03  8424   0.283E-03 0.396E-03
CGA:  11    -0.669861262830E+03   -0.21287E-04   -0.36462E-04  8424   0.170E-03 0.209E-03
CGA:  12    -0.669861263984E+03   -0.11539E-05   -0.16445E-04  8424   0.136E-03 0.152E-03
CGA:  13    -0.669861260285E+03    0.36989E-05   -0.10744E-04  8424   0.118E-03 0.127E-03
  10 F= -.66986126E+03 E0= -.66986126E+03  d E =0.367902E-01  mag=     2.0000
       N       E                     dE             d eps       ncg     rms          ort
SDA:   1    -0.669086506647E+03    0.77476E+00    0.00000E+00  8424   0.256E+01 0.000E+00
CGA:   2    -0.669606188304E+03   -0.51968E+00   -0.51956E+00  8424   0.104E+01 0.482E-02
CGA:   3    -0.669824670894E+03   -0.21848E+00   -0.21850E+00  8424   0.345E+00-0.712E-03
CGA:   4    -0.669881176640E+03   -0.56506E-01   -0.56513E-01  8424   0.853E-01 0.303E-03
CGA:   5    -0.669895904769E+03   -0.14728E-01   -0.14731E-01  8424   0.179E-01 0.266E-03
CGA:   6    -0.669899417475E+03   -0.35127E-02   -0.35139E-02  8424   0.402E-02-0.908E-04
CGA:   7    -0.669900247088E+03   -0.82961E-03   -0.82216E-03  8424   0.111E-02 0.329E-03
CGA:   8    -0.669900494664E+03   -0.24758E-03   -0.24300E-03  8424   0.302E-03 0.254E-03
CGA:   9    -0.669900550838E+03   -0.56174E-04   -0.60066E-04  8424   0.120E-03 0.171E-03
CGA:  10    -0.669900557424E+03   -0.65863E-05   -0.13262E-04  8424   0.768E-04 0.912E-04
  11 F= -.66990056E+03 E0= -.66990056E+03  d E =-.392971E-01  mag=     2.0000
       N       E                     dE             d eps       ncg     rms          ort
SDA:   1    -0.669715591239E+03    0.18496E+00    0.00000E+00  8424   0.525E+00 0.000E+00
CGA:   2    -0.669838475994E+03   -0.12288E+00   -0.12285E+00  8424   0.254E+00 0.578E-03
CGA:   3    -0.669888824441E+03   -0.50348E-01   -0.50345E-01  8424   0.690E-01 0.156E-03
CGA:   4    -0.669899866572E+03   -0.11042E-01   -0.11045E-01  8424   0.162E-01 0.123E-03
CGA:   5    -0.669902676034E+03   -0.28095E-02   -0.28101E-02  8424   0.341E-02 0.108E-03
CGA:   6    -0.669903352311E+03   -0.67628E-03   -0.67483E-03  8424   0.786E-03 0.783E-04
CGA:   7    -0.669903512741E+03   -0.16043E-03   -0.15824E-03  8424   0.221E-03 0.123E-03
CGA:   8    -0.669903551451E+03   -0.38710E-04   -0.40898E-04  8424   0.824E-04 0.110E-03
CGA:   9    -0.669903559592E+03   -0.81413E-05   -0.13563E-04  8424   0.481E-04 0.783E-04
  12 F= -.66990356E+03 E0= -.66990356E+03  d E =-.300217E-02  mag=     2.0000
       N       E                     dE             d eps       ncg     rms          ort
SDA:   1    -0.669376246914E+03    0.52730E+00    0.00000E+00  8424   0.134E+01 0.000E+00
CGA:   2    -0.669736467467E+03   -0.36022E+00   -0.36020E+00  8424   0.719E+00 0.113E-03
CGA:   3    -0.669869380780E+03   -0.13291E+00   -0.13291E+00  8424   0.161E+00-0.126E-03
CGA:   4    -0.669895045106E+03   -0.25664E-01   -0.25665E-01  8424   0.375E-01 0.440E-04
CGA:   5    -0.669901544858E+03   -0.64998E-02   -0.65000E-02  8424   0.804E-02 0.110E-03
CGA:   6    -0.669903185531E+03   -0.16407E-02   -0.16392E-02  8424   0.187E-02 0.515E-04
CGA:   7    -0.669903595710E+03   -0.41018E-03   -0.40774E-03  8424   0.548E-03 0.608E-04
CGA:   8    -0.669903721432E+03   -0.12572E-03   -0.12197E-03  8424   0.164E-03 0.102E-03
CGA:   9    -0.669903765143E+03   -0.43710E-04   -0.41526E-04  8424   0.697E-04 0.674E-04
CGA:  10    -0.669903779784E+03   -0.14641E-04   -0.15863E-04  8424   0.414E-04 0.580E-04
CGA:  11    -0.669903783835E+03   -0.40506E-05   -0.55821E-05  8424   0.286E-04 0.329E-04
  13 F= -.66990378E+03 E0= -.66990378E+03  d E =-.224242E-03  mag=     2.0000
       N       E                     dE             d eps       ncg     rms          ort
SDA:   1    -0.664484395652E+03    0.54194E+01    0.00000E+00  8424   0.141E+02 0.000E+00
CGA:   2    -0.668075759597E+03   -0.35914E+01   -0.35900E+01  8424   0.740E+01 0.124E-01
CGA:   3    -0.669503967528E+03   -0.14282E+01   -0.14283E+01  8424   0.176E+01-0.472E-02
CGA:   4    -0.669780954648E+03   -0.27699E+00   -0.27700E+00  8424   0.399E+00 0.227E-03
CGA:   5    -0.669849862835E+03   -0.68908E-01   -0.68915E-01  8424   0.844E-01 0.845E-03
CGA:   6    -0.669867117065E+03   -0.17254E-01   -0.17248E-01  8424   0.201E-01 0.230E-03
CGA:   7    -0.669871597796E+03   -0.44807E-02   -0.44769E-02  8424   0.568E-02 0.888E-04
CGA:   8    -0.669872988262E+03   -0.13905E-02   -0.13771E-02  8424   0.177E-02 0.227E-03
CGA:   9    -0.669873521632E+03   -0.53337E-03   -0.53201E-03  8424   0.692E-03 0.124E-04
CGA:  10    -0.669873716994E+03   -0.19536E-03   -0.18437E-03  8424   0.253E-03 0.148E-03
CGA:  11    -0.669873803283E+03   -0.86289E-04   -0.80745E-04  8424   0.986E-04 0.793E-04
CGA:  12    -0.669873827180E+03   -0.23897E-04   -0.24520E-04  8424   0.554E-04 0.724E-04
CGA:  13    -0.669873833848E+03   -0.66675E-05   -0.85714E-05  8424   0.400E-04 0.445E-04
  14 F= -.66987383E+03 E0= -.66987383E+03  d E =0.299500E-01  mag=     2.0000
       N       E                     dE             d eps       ncg     rms          ort
SDA:   1    -0.668829442438E+03    0.10444E+01    0.00000E+00  8424   0.343E+01 0.000E+00
CGA:   2    -0.669513382803E+03   -0.68394E+00   -0.68390E+00  8424   0.135E+01 0.588E-02
CGA:   3    -0.669801580476E+03   -0.28820E+00   -0.28823E+00  8424   0.464E+00-0.151E-02
CGA:   4    -0.669877791331E+03   -0.76211E-01   -0.76213E-01  8424   0.115E+00 0.120E-05
CGA:   5    -0.669897704423E+03   -0.19913E-01   -0.19916E-01  8424   0.241E-01 0.107E-03
CGA:   6    -0.669902460444E+03   -0.47560E-02   -0.47578E-02  8424   0.549E-02-0.354E-03
CGA:   7    -0.669903626311E+03   -0.11659E-02   -0.11621E-02  8424   0.159E-02 0.163E-03
CGA:   8    -0.669904025151E+03   -0.39884E-03   -0.39744E-03  8424   0.476E-03 0.275E-04
CGA:   9    -0.669904166132E+03   -0.14098E-03   -0.14475E-03  8424   0.203E-03-0.371E-04
CGA:  10    -0.669904228669E+03   -0.62536E-04   -0.62424E-04  8424   0.112E-03 0.367E-07
CGA:  11    -0.669904069215E+03    0.15945E-03   -0.92858E-04  8424   0.138E-02-0.278E-03
CGA:  12    -0.669904317568E+03   -0.24835E-03   -0.26385E-03  8424   0.204E-03 0.822E-04
CGA:  13    -0.669904405042E+03   -0.87475E-04   -0.12498E-03  8424   0.441E-03-0.180E-03
CGA:  14    -0.669904435972E+03   -0.30929E-04   -0.57475E-04  8424   0.785E-04 0.106E-03
CGA:  15    -0.669904466414E+03   -0.30442E-04   -0.29770E-04  8424   0.532E-04-0.112E-04
CGA:  16    -0.669904522954E+03   -0.56540E-04    0.11866E-04  8424   0.102E-03-0.179E-04
CGA:  17    -0.669904595563E+03   -0.72609E-04    0.25520E-04  8424   0.155E-03 0.104E-04
CGA:  18    -0.669904664395E+03   -0.68832E-04   -0.73851E-04  8424   0.399E-03-0.920E-04
CGA:  19    -0.669904804435E+03   -0.14004E-03   -0.11118E-03  8424   0.535E-03-0.324E-03
CGA:  20    -0.669904818832E+03   -0.14397E-04   -0.49947E-04  8424   0.492E-04 0.132E-03
CGA:  21    -0.669904816018E+03    0.28147E-05   -0.49331E-05  8424   0.246E-04 0.288E-04
  15 F= -.66990482E+03 E0= -.66990482E+03  d E =-.309822E-01  mag=     2.0000
       N       E                     dE             d eps       ncg     rms          ort
SDA:   1    -0.669872885311E+03    0.31934E-01    0.00000E+00  8424   0.843E-01 0.000E+00
CGA:   2    -0.669894490992E+03   -0.21606E-01   -0.21611E-01  8424   0.452E-01 0.529E-04
CGA:   3    -0.669903226670E+03   -0.87357E-02   -0.87165E-02  8424   0.107E-01-0.143E-03
CGA:   4    -0.669904909460E+03   -0.16828E-02   -0.16767E-02  8424   0.241E-02-0.373E-04
CGA:   5    -0.669905331980E+03   -0.42252E-03   -0.41950E-03  8424   0.532E-03-0.217E-04
CGA:   6    -0.669905454369E+03   -0.12239E-03   -0.11848E-03  8424   0.159E-03-0.464E-04
CGA:   7    -0.669905496704E+03   -0.42335E-04   -0.41462E-04  8424   0.924E-04-0.446E-04
CGA:   8    -0.669905208903E+03    0.28780E-03   -0.97846E-04  8424   0.238E-02-0.332E-03
CGA:   9    -0.669905571167E+03   -0.36226E-03   -0.35744E-03  8424   0.284E-03-0.230E-04
CGA:  10    -0.669905664623E+03   -0.93456E-04   -0.92499E-04  8424   0.914E-04-0.405E-04
CGA:  11    -0.669905683637E+03   -0.19013E-04   -0.52183E-04  8424   0.295E-03-0.106E-03
CGA:  12    -0.669905737419E+03   -0.53783E-04   -0.51571E-04  8424   0.400E-04-0.116E-04
CGA:  13    -0.669905253054E+03    0.48437E-03   -0.26245E-03  8424   0.410E-02-0.293E-03
CGA:  14    -0.669905763788E+03   -0.51073E-03   -0.51094E-03  8424   0.372E-03-0.417E-05
CGA:  15    -0.669905880289E+03   -0.11650E-03   -0.11303E-03  8424   0.564E-04-0.109E-04
CGA:  16    -0.669905880084E+03    0.20557E-06   -0.56621E-04  8424   0.518E-03-0.134E-03
CGA:  17    -0.669905930144E+03   -0.50060E-04   -0.75921E-04  8424   0.870E-04 0.536E-04
CGA:  18    -0.669905971583E+03   -0.41439E-04   -0.32269E-04  8424   0.478E-04-0.341E-04
CGA:  19    -0.669906008973E+03   -0.37391E-04    0.10198E-03  8424   0.977E-04-0.375E-04
CGA:  20    -0.669906022081E+03   -0.13107E-04   -0.15408E-04  8424   0.279E-04 0.528E-05
CGA:  21    -0.669905247670E+03    0.77441E-03   -0.42200E-03  8424   0.354E-02-0.283E-03
CGA:  22    -0.669905931512E+03   -0.68384E-03   -0.66328E-03  8424   0.125E-02-0.266E-04
CGA:  23    -0.669906226030E+03   -0.29452E-03   -0.29375E-03  8424   0.137E-03-0.518E-06
CGA:  24    -0.669906265334E+03   -0.39304E-04   -0.32994E-04  8424   0.252E-04-0.883E-05
CGA:  25    -0.669906284860E+03   -0.19526E-04   -0.24562E-04  8424   0.139E-03-0.436E-04
CGA:  26    -0.669906324230E+03   -0.39370E-04   -0.31196E-04  8424   0.328E-04-0.116E-04
CGA:  27    -0.669906338800E+03   -0.14570E-04   -0.93353E-05  8424   0.215E-04-0.900E-05
CGA:  28    -0.669906377133E+03   -0.38332E-04    0.16171E-04  8424   0.170E-03-0.390E-04
CGA:  29    -0.669906400582E+03   -0.23449E-04   -0.25019E-04  8424   0.201E-04 0.227E-05
CGA:  30    -0.669906413534E+03   -0.12952E-04   -0.20075E-04  8424   0.194E-03-0.458E-04
CGA:  31    -0.669906446442E+03   -0.32908E-04   -0.31972E-04  8424   0.225E-04-0.133E-05
CGA:  32    -0.669906466138E+03   -0.19697E-04   -0.11750E-04  8424   0.765E-04-0.287E-04
CGA:  33    -0.669906477118E+03   -0.10980E-04   -0.10916E-04  8424   0.615E-05-0.740E-07
CGA:  34    -0.669906500839E+03   -0.23721E-04    0.15034E-05  8424   0.410E-04-0.989E-05
CGA:  35    -0.669906511195E+03   -0.10357E-04   -0.78331E-05  8424   0.686E-05-0.445E-05
CGA:  36    -0.669906536757E+03   -0.25561E-04    0.11935E-05  8424   0.645E-04-0.126E-04
CGA:  37    -0.669906545113E+03   -0.83567E-05   -0.86167E-05  8424   0.393E-05 0.469E-06
  16 F= -.66990655E+03 E0= -.66990655E+03  d E =-.172910E-02  mag=     2.0000
       N       E                     dE             d eps       ncg     rms          ort
SDA:   1    -0.665110477917E+03    0.47961E+01    0.00000E+00  8424   0.121E+02 0.000E+00
CGA:   2    -0.668342001291E+03   -0.32315E+01   -0.32336E+01  8424   0.658E+01 0.113E-02
CGA:   3    -0.669576812402E+03   -0.12348E+01   -0.12342E+01  8424   0.146E+01 0.157E-01
CGA:   4    -0.669806799612E+03   -0.22999E+00   -0.22996E+00  8424   0.330E+00 0.127E-02
CGA:   5    -0.669864097992E+03   -0.57298E-01   -0.57349E-01  8424   0.713E-01 0.665E-04
CGA:   6    -0.669878739522E+03   -0.14642E-01   -0.14655E-01  8424   0.169E-01 0.266E-04
CGA:   7    -0.669882461319E+03   -0.37218E-02   -0.37218E-02  8424   0.482E-02-0.203E-05
CGA:   8    -0.669883658674E+03   -0.11974E-02   -0.12078E-02  8424   0.157E-02 0.325E-04
CGA:   9    -0.669884121760E+03   -0.46309E-03   -0.45601E-03  8424   0.594E-03-0.272E-04
CGA:  10    -0.669884311303E+03   -0.18954E-03   -0.18960E-03  8424   0.239E-03-0.183E-06
CGA:  11    -0.669884395666E+03   -0.84364E-04   -0.80254E-04  8424   0.945E-04-0.220E-04
CGA:  12    -0.669884420961E+03   -0.25294E-04   -0.26714E-04  8424   0.442E-04 0.636E-05
CGA:  13    -0.669884440571E+03   -0.19610E-04   -0.48788E-04  8424   0.283E-03-0.573E-04
CGA:  14    -0.669884470804E+03   -0.30233E-04   -0.47412E-04  8424   0.642E-04 0.468E-04
CGA:  15    -0.669884504170E+03   -0.33366E-04   -0.30079E-04  8424   0.632E-04-0.292E-04
CGA:  16    -0.669884507961E+03   -0.37907E-05   -0.69017E-05  8424   0.500E-04 0.960E-05
CGA:  17    -0.669884518230E+03   -0.10269E-04   -0.13951E-04  8424   0.434E-04 0.138E-04
CGA:  18    -0.669884537229E+03   -0.18999E-04   -0.48358E-04  8424   0.364E-03-0.795E-04
CGA:  19    -0.669884570468E+03   -0.33239E-04   -0.55585E-04  8424   0.819E-04 0.642E-04
CGA:  20    -0.669884604814E+03   -0.34346E-04   -0.30725E-04  8424   0.265E-04-0.221E-04
CGA:  21    -0.669884620592E+03   -0.15778E-04   -0.15955E-04  8424   0.351E-04-0.105E-05
CGA:  22    -0.669884655920E+03   -0.35329E-04    0.13366E-03  8424   0.327E-04 0.870E-05
CGA:  23    -0.669884668686E+03   -0.12765E-04   -0.14631E-04  8424   0.241E-04 0.123E-04
CGA:  24    -0.669884707396E+03   -0.38710E-04    0.40172E-04  8424   0.301E-04 0.113E-04
CGA:  25    -0.669884590295E+03    0.11710E-03   -0.72317E-04  8424   0.216E-02-0.132E-03
CGA:  26    -0.669884950917E+03   -0.36062E-03   -0.32687E-03  8424   0.288E-03-0.586E-04
CGA:  27    -0.669885001357E+03   -0.50440E-04   -0.69578E-04  8424   0.662E-04 0.317E-04
CGA:  28    -0.669885040088E+03   -0.38730E-04   -0.29269E-04  8424   0.414E-04-0.224E-04
CGA:  29    -0.669885038410E+03    0.16772E-05   -0.50281E-05  8424   0.179E-04 0.104E-04
  17 F= -.66988504E+03 E0= -.66988504E+03  d E =0.215067E-01  mag=     2.0000
       N       E                     dE             d eps       ncg     rms          ort
SDA:   1    -0.665546640908E+03    0.43384E+01    0.00000E+00  8424   0.139E+02 0.000E+00
CGA:   2    -0.668250257944E+03   -0.27036E+01   -0.27184E+01  8424   0.535E+01 0.671E-02
CGA:   3    -0.669415662802E+03   -0.11654E+01   -0.11626E+01  8424   0.186E+01 0.186E-01
CGA:   4    -0.669723546566E+03   -0.30788E+00   -0.30832E+00  8424   0.454E+00 0.540E-02
CGA:   5    -0.669801646246E+03   -0.78100E-01   -0.78330E-01  8424   0.952E-01 0.206E-03
CGA:   6    -0.669820320307E+03   -0.18674E-01   -0.18553E-01  8424   0.223E-01 0.780E-03
CGA:   7    -0.669825072178E+03   -0.47519E-02   -0.48693E-02  8424   0.652E-02 0.251E-03
CGA:   8    -0.669826589616E+03   -0.15174E-02   -0.15052E-02  8424   0.274E-02 0.204E-03
CGA:   9    -0.669827168450E+03   -0.57883E-03   -0.57755E-03  8424   0.102E-02 0.508E-04
CGA:  10    -0.669827376452E+03   -0.20800E-03   -0.19941E-03  8424   0.101E-02-0.280E-04
CGA:  11    -0.669827521463E+03   -0.14501E-03   -0.14106E-03  8424   0.525E-03-0.172E-03
CGA:  12    -0.669827681307E+03   -0.15984E-03   -0.10364E-03  8424   0.349E-03-0.263E-04
CGA:  13    -0.669827826854E+03   -0.14555E-03   -0.11313E-03  8424   0.657E-03-0.118E-03
CGA:  14    -0.669827976844E+03   -0.14999E-03   -0.89282E-04  8424   0.763E-03-0.219E-03
CGA:  15    -0.669828222273E+03   -0.24543E-03   -0.23000E-03  8424   0.143E-02-0.569E-03
CGA:  16    -0.669828792208E+03   -0.56994E-03   -0.55812E-03  8424   0.697E-03-0.128E-03
CGA:  17    -0.669829094323E+03   -0.30211E-03   -0.30235E-03  8424   0.568E-03-0.181E-03
CGA:  18    -0.669828979230E+03    0.11509E-03   -0.39305E-03  8424   0.295E-02-0.119E-02
CGA:  19    -0.669829420277E+03   -0.44105E-03   -0.48374E-03  8424   0.374E-03 0.131E-03
CGA:  20    -0.669828932715E+03    0.48756E-03   -0.67080E-03  8424   0.423E-02-0.960E-03
CGA:  21    -0.669829814188E+03   -0.88147E-03   -0.96445E-03  8424   0.648E-03 0.264E-03
CGA:  22    -0.669830115373E+03   -0.30118E-03   -0.23572E-03  8424   0.593E-03-0.354E-03
CGA:  23    -0.669830155452E+03   -0.40079E-04   -0.76972E-04  8424   0.753E-04 0.958E-04
CGA:  24    -0.669829968275E+03    0.18718E-03   -0.13286E-03  8424   0.161E-02-0.314E-03
CGA:  25    -0.669830495271E+03   -0.52700E-03   -0.41857E-03  8424   0.629E-03-0.374E-03
CGA:  26    -0.669830537752E+03   -0.42481E-04   -0.68635E-04  8424   0.748E-04 0.669E-04
CGA:  27    -0.669830537957E+03   -0.20521E-06   -0.84945E-05  8424   0.215E-04 0.201E-04
  18 F= -.66983054E+03 E0= -.66983054E+03  d E =0.545005E-01  mag=     2.0000
       N       E                     dE             d eps       ncg     rms          ort
SDA:   1    -0.669227518222E+03    0.60302E+00    0.00000E+00  8424   0.212E+01 0.000E+00
CGA:   2    -0.669649683362E+03   -0.42217E+00   -0.42281E+00  8424   0.839E+00 0.641E-03
CGA:   3    -0.669829214703E+03   -0.17953E+00   -0.17927E+00  8424   0.281E+00-0.560E-03
CGA:   4    -0.669875157345E+03   -0.45943E-01   -0.45960E-01  8424   0.697E-01 0.104E-04
CGA:   5    -0.669887185669E+03   -0.12028E-01   -0.12068E-01  8424   0.148E-01 0.122E-03
CGA:   6    -0.669890106673E+03   -0.29210E-02   -0.28970E-02  8424   0.332E-02-0.100E-03
CGA:   7    -0.669890811682E+03   -0.70501E-03   -0.71855E-03  8424   0.962E-03 0.648E-04
CGA:   8    -0.669891038352E+03   -0.22667E-03   -0.23181E-03  8424   0.271E-03 0.285E-04
CGA:   9    -0.669891113987E+03   -0.75635E-04   -0.75776E-04  8424   0.914E-04 0.923E-06
CGA:  10    -0.669891129806E+03   -0.15819E-04   -0.20563E-04  8424   0.330E-04 0.269E-04
CGA:  11    -0.669891136172E+03   -0.63659E-05   -0.92665E-05  8424   0.150E-04 0.166E-04
  19 F= -.66989114E+03 E0= -.66989114E+03  d E =-.605982E-01  mag=     2.0000
       N       E                     dE             d eps       ncg     rms          ort
SDA:   1    -0.669476525307E+03    0.41460E+00    0.00000E+00  8424   0.134E+01 0.000E+00
CGA:   2    -0.669748220417E+03   -0.27170E+00   -0.27191E+00  8424   0.547E+00 0.662E-03
CGA:   3    -0.669865037541E+03   -0.11682E+00   -0.11672E+00  8424   0.179E+00-0.606E-03
CGA:   4    -0.669894172135E+03   -0.29135E-01   -0.29141E-01  8424   0.434E-01 0.593E-05
CGA:   5    -0.669901632736E+03   -0.74606E-02   -0.74816E-02  8424   0.902E-02 0.111E-03
CGA:   6    -0.669903419157E+03   -0.17864E-02   -0.17823E-02  8424   0.206E-02-0.306E-04
CGA:   7    -0.669903851356E+03   -0.43220E-03   -0.44152E-03  8424   0.581E-03 0.797E-04
CGA:   8    -0.669903980886E+03   -0.12953E-03   -0.13526E-03  8424   0.158E-03 0.562E-04
CGA:   9    -0.669904017705E+03   -0.36819E-04   -0.39909E-04  8424   0.503E-04 0.343E-04
CGA:  10    -0.669904022148E+03   -0.44426E-05   -0.97627E-05  8424   0.250E-04 0.339E-04
  20 F= -.66990402E+03 E0= -.66990402E+03  d E =-.128860E-01  mag=     2.0000
       N       E                     dE             d eps       ncg     rms          ort
SDA:   1    -0.669888564141E+03    0.15454E-01    0.00000E+00  8424   0.419E-01 0.000E+00
CGA:   2    -0.669899373644E+03   -0.10810E-01   -0.10814E-01  8424   0.219E-01 0.100E-03
CGA:   3    -0.669903529308E+03   -0.41557E-02   -0.41532E-02  8424   0.520E-02-0.257E-04
CGA:   4    -0.669904344310E+03   -0.81500E-03   -0.81763E-03  8424   0.120E-02 0.188E-04
CGA:   5    -0.669904542716E+03   -0.19841E-03   -0.20257E-03  8424   0.250E-03 0.354E-04
CGA:   6    -0.669904584795E+03   -0.42079E-04   -0.46062E-04  8424   0.571E-04 0.396E-04
CGA:   7    -0.669904589795E+03   -0.49998E-05   -0.90888E-05  8424   0.213E-04 0.298E-04
  21 F= -.66990459E+03 E0= -.66990459E+03  d E =-.567647E-03  mag=     2.0000
       N       E                     dE             d eps       ncg     rms          ort
SDA:   1    -0.667600699363E+03    0.23039E+01    0.00000E+00  8424   0.628E+01 0.000E+00
CGA:   2    -0.669095082691E+03   -0.14944E+01   -0.14945E+01  8424   0.306E+01 0.393E-02
CGA:   3    -0.669699792342E+03   -0.60471E+00   -0.60457E+00  8424   0.829E+00-0.182E-02
CGA:   4    -0.669830817075E+03   -0.13102E+00   -0.13107E+00  8424   0.192E+00 0.258E-03
CGA:   5    -0.669863999801E+03   -0.33183E-01   -0.33214E-01  8424   0.412E-01 0.364E-03
CGA:   6    -0.669872162565E+03   -0.81628E-02   -0.81640E-02  8424   0.970E-02 0.205E-04
CGA:   7    -0.669874267672E+03   -0.21051E-02   -0.21108E-02  8424   0.276E-02 0.214E-03
CGA:   8    -0.669874952798E+03   -0.68513E-03   -0.68513E-03  8424   0.854E-03 0.224E-04
CGA:   9    -0.669875180341E+03   -0.22754E-03   -0.22669E-03  8424   0.278E-03 0.414E-04
CGA:  10    -0.669875267185E+03   -0.86844E-04   -0.85459E-04  8424   0.107E-03 0.280E-04
CGA:  11    -0.669875297865E+03   -0.30680E-04   -0.30380E-04  8424   0.340E-04 0.239E-04
CGA:  12    -0.669875303335E+03   -0.54699E-05   -0.71607E-05  8424   0.155E-04 0.225E-04
  22 F= -.66987530E+03 E0= -.66987530E+03  d E =0.292865E-01  mag=     2.0000
       N       E                     dE             d eps       ncg     rms          ort
SDA:   1    -0.666157353946E+03    0.37179E+01    0.00000E+00  8424   0.123E+02 0.000E+00
CGA:   2    -0.668498398779E+03   -0.23410E+01   -0.23428E+01  8424   0.463E+01 0.190E-01
CGA:   3    -0.669495006208E+03   -0.99661E+00   -0.99631E+00  8424   0.163E+01-0.100E-01
CGA:   4    -0.669765587319E+03   -0.27058E+00   -0.27069E+00  8424   0.411E+00 0.709E-03
CGA:   5    -0.669836119480E+03   -0.70532E-01   -0.70642E-01  8424   0.886E-01 0.162E-02
CGA:   6    -0.669853298390E+03   -0.17179E-01   -0.17155E-01  8424   0.197E-01-0.657E-03
CGA:   7    -0.669857497815E+03   -0.41994E-02   -0.42057E-02  8424   0.563E-02 0.540E-03
CGA:   8    -0.669858857905E+03   -0.13601E-02   -0.13587E-02  8424   0.156E-02 0.170E-03
CGA:   9    -0.669859303369E+03   -0.44546E-03   -0.44947E-03  8424   0.537E-03-0.757E-04
CGA:  10    -0.669859421049E+03   -0.11768E-03   -0.11761E-03  8424   0.176E-03 0.105E-03
CGA:  11    -0.669859480491E+03   -0.59443E-04   -0.58111E-04  8424   0.721E-04 0.281E-04
CGA:  12    -0.669859494181E+03   -0.13690E-04   -0.15455E-04  8424   0.305E-04 0.374E-04
CGA:  13    -0.669859495256E+03   -0.10745E-05   -0.36349E-05  8424   0.189E-04 0.232E-04
  23 F= -.66985950E+03 E0= -.66985950E+03  d E =0.158081E-01  mag=     2.0000
       N       E                     dE             d eps       ncg     rms          ort
SDA:   1    -0.668920845245E+03    0.93865E+00    0.00000E+00  8424   0.323E+01 0.000E+00
CGA:   2    -0.669549068507E+03   -0.62822E+00   -0.62834E+00  8424   0.122E+01 0.405E-02
CGA:   3    -0.669810827333E+03   -0.26176E+00   -0.26176E+00  8424   0.432E+00-0.507E-03
CGA:   4    -0.669882010436E+03   -0.71183E-01   -0.71215E-01  8424   0.108E+00 0.502E-03
CGA:   5    -0.669900894704E+03   -0.18884E-01   -0.18901E-01  8424   0.230E-01 0.399E-03
CGA:   6    -0.669905355760E+03   -0.44611E-02   -0.44598E-02  8424   0.507E-02-0.743E-04
CGA:   7    -0.669906426114E+03   -0.10704E-02   -0.10701E-02  8424   0.143E-02 0.253E-03
CGA:   8    -0.669906763001E+03   -0.33689E-03   -0.33516E-03  8424   0.378E-03 0.138E-03
CGA:   9    -0.669906850228E+03   -0.87227E-04   -0.87324E-04  8424   0.106E-03 0.103E-03
CGA:  10    -0.669906863243E+03   -0.13015E-04   -0.18741E-04  8424   0.514E-04 0.781E-04
CGA:  11    -0.669906864888E+03   -0.16446E-05   -0.56279E-05  8424   0.340E-04 0.405E-04
  24 F= -.66990686E+03 E0= -.66990686E+03  d E =-.473696E-01  mag=     2.0000
       N       E                     dE             d eps       ncg     rms          ort
SDA:   1    -0.669895929836E+03    0.10933E-01    0.00000E+00  8424   0.333E-01 0.000E+00
CGA:   2    -0.669903220741E+03   -0.72909E-02   -0.72901E-02  8424   0.148E-01 0.315E-04
CGA:   3    -0.669906228503E+03   -0.30078E-02   -0.30069E-02  8424   0.435E-02 0.184E-03
CGA:   4    -0.669906926655E+03   -0.69815E-03   -0.70221E-03  8424   0.102E-02 0.104E-03
CGA:   5    -0.669907096942E+03   -0.17029E-03   -0.17275E-03  8424   0.207E-03 0.796E-04
CGA:   6    -0.669907127232E+03   -0.30290E-04   -0.33228E-04  8424   0.488E-04 0.642E-04
CGA:   7    -0.669907129727E+03   -0.24948E-05   -0.61823E-05  8424   0.242E-04 0.385E-04
  25 F= -.66990713E+03 E0= -.66990713E+03  d E =-.264839E-03  mag=     2.0000
       N       E                     dE             d eps       ncg     rms          ort
SDA:   1    -0.668962111720E+03    0.94502E+00    0.00000E+00  8424   0.222E+01 0.000E+00
CGA:   2    -0.669671256887E+03   -0.70915E+00   -0.70969E+00  8424   0.109E+01-0.413E-02
CGA:   3    -0.669852682970E+03   -0.18143E+00   -0.18149E+00  8424   0.218E+00 0.247E-02
CGA:   4    -0.669889251736E+03   -0.36569E-01   -0.36579E-01  8424   0.552E-01 0.454E-03
CGA:   5    -0.669898845140E+03   -0.95934E-02   -0.95947E-02  8424   0.119E-01 0.895E-04
CGA:   6    -0.669901205972E+03   -0.23608E-02   -0.23582E-02  8424   0.274E-02 0.220E-03
CGA:   7    -0.669901840711E+03   -0.63474E-03   -0.63345E-03  8424   0.852E-03 0.318E-04
CGA:   8    -0.669902031737E+03   -0.19103E-03   -0.18717E-03  8424   0.250E-03 0.135E-03
CGA:   9    -0.669902087610E+03   -0.55873E-04   -0.55670E-04  8424   0.919E-04 0.109E-03
CGA:  10    -0.669902104665E+03   -0.17056E-04   -0.19900E-04  8424   0.460E-04 0.729E-04
CGA:  11    -0.669902107384E+03   -0.27181E-05   -0.53206E-05  8424   0.296E-04 0.359E-04
  26 F= -.66990211E+03 E0= -.66990211E+03  d E =0.502234E-02  mag=     2.0000
       N       E                     dE             d eps       ncg     rms          ort
SDA:   1    -0.665861625792E+03    0.40405E+01    0.00000E+00  8424   0.115E+02 0.000E+00
CGA:   2    -0.668389422779E+03   -0.25278E+01   -0.25269E+01  8424   0.542E+01 0.166E-01
CGA:   3    -0.669518076256E+03   -0.11287E+01   -0.11288E+01  8424   0.159E+01-0.451E-02
CGA:   4    -0.669769624560E+03   -0.25155E+00   -0.25160E+00  8424   0.362E+00 0.168E-02
CGA:   5    -0.669831314950E+03   -0.61690E-01   -0.61704E-01  8424   0.744E-01 0.117E-02
CGA:   6    -0.669846432914E+03   -0.15118E-01   -0.15133E-01  8424   0.180E-01-0.726E-03
CGA:   7    -0.669850245074E+03   -0.38122E-02   -0.37997E-02  8424   0.495E-02 0.397E-03
CGA:   8    -0.669851467284E+03   -0.12222E-02   -0.12125E-02  8424   0.145E-02 0.173E-03
CGA:   9    -0.669851887944E+03   -0.42066E-03   -0.42634E-03  8424   0.544E-03-0.580E-04
CGA:  10    -0.669852021294E+03   -0.13335E-03   -0.12744E-03  8424   0.187E-03 0.112E-03
CGA:  11    -0.669852092186E+03   -0.70892E-04   -0.69051E-04  8424   0.787E-04 0.162E-04
CGA:  12    -0.669852110673E+03   -0.18486E-04   -0.18085E-04  8424   0.343E-04 0.329E-04
CGA:  13    -0.669852115192E+03   -0.45191E-05   -0.66035E-05  8424   0.222E-04 0.322E-04
  27 F= -.66985212E+03 E0= -.66985212E+03  d E =0.499922E-01  mag=     2.0000
       N       E                     dE             d eps       ncg     rms          ort
SDA:   1    -0.669389170120E+03    0.46294E+00    0.00000E+00  8424   0.154E+01 0.000E+00
CGA:   2    -0.669707732340E+03   -0.31856E+00   -0.31855E+00  8424   0.648E+00 0.895E-03
CGA:   3    -0.669844004631E+03   -0.13627E+00   -0.13627E+00  8424   0.206E+00 0.304E-03
CGA:   4    -0.669877010373E+03   -0.33006E-01   -0.33020E-01  8424   0.494E-01 0.373E-03
CGA:   5    -0.669885640854E+03   -0.86305E-02   -0.86366E-02  8424   0.106E-01 0.313E-03
CGA:   6    -0.669887670915E+03   -0.20301E-02   -0.20306E-02  8424   0.234E-02 0.279E-03
CGA:   7    -0.669888153235E+03   -0.48232E-03   -0.48022E-03  8424   0.631E-03 0.275E-03
CGA:   8    -0.669888282631E+03   -0.12940E-03   -0.13087E-03  8424   0.181E-03 0.203E-03
CGA:   9    -0.669888301399E+03   -0.18768E-04   -0.28866E-04  8424   0.860E-04 0.140E-03
CGA:  10    -0.669888300808E+03    0.59063E-06   -0.70230E-05  8424   0.606E-04 0.709E-04
  28 F= -.66988830E+03 E0= -.66988830E+03  d E =-.361856E-01  mag=     2.0000
       N       E                     dE             d eps       ncg     rms          ort
SDA:   1    -0.669637252852E+03    0.25105E+00    0.00000E+00  8424   0.722E+00 0.000E+00
CGA:   2    -0.669803718535E+03   -0.16647E+00   -0.16647E+00  8424   0.344E+00-0.887E-04
CGA:   3    -0.669872538655E+03   -0.68820E-01   -0.68809E-01  8424   0.939E-01 0.516E-03
CGA:   4    -0.669887381331E+03   -0.14843E-01   -0.14850E-01  8424   0.221E-01 0.293E-03
CGA:   5    -0.669891245855E+03   -0.38645E-02   -0.38661E-02  8424   0.470E-02 0.262E-03
CGA:   6    -0.669892139488E+03   -0.89363E-03   -0.89144E-03  8424   0.103E-02 0.279E-03
CGA:   7    -0.669892350279E+03   -0.21079E-03   -0.20874E-03  8424   0.282E-03 0.200E-03
CGA:   8    -0.669892396561E+03   -0.46281E-04   -0.50763E-04  8424   0.105E-03 0.150E-03
CGA:   9    -0.669892400733E+03   -0.41721E-05   -0.10459E-04  8424   0.650E-04 0.789E-04
  29 F= -.66989240E+03 E0= -.66989240E+03  d E =-.409992E-02  mag=     2.0000
       N       E                     dE             d eps       ncg     rms          ort
SDA:   1    -0.669836507832E+03    0.55889E-01    0.00000E+00  8424   0.134E+00 0.000E+00
CGA:   2    -0.669875715478E+03   -0.39208E-01   -0.39221E-01  8424   0.729E-01-0.124E-03
CGA:   3    -0.669888452425E+03   -0.12737E-01   -0.12738E-01  8424   0.147E-01 0.428E-03
CGA:   4    -0.669890791213E+03   -0.23388E-02   -0.23421E-02  8424   0.347E-02 0.189E-03
CGA:   5    -0.669891381630E+03   -0.59042E-03   -0.59163E-03  8424   0.716E-03 0.169E-03
CGA:   6    -0.669891510975E+03   -0.12935E-03   -0.12967E-03  8424   0.162E-03 0.149E-03
CGA:   7    -0.669891532243E+03   -0.21267E-04   -0.25503E-04  8424   0.649E-04 0.943E-04
CGA:   8    -0.669891533666E+03   -0.14237E-05   -0.57402E-05  8424   0.438E-04 0.513E-04
  30 F= -.66989153E+03 E0= -.66989153E+03  d E =0.867067E-03  mag=     2.0000
       N       E                     dE             d eps       ncg     rms          ort
SDA:   1    -0.664409545814E+03    0.54820E+01    0.00000E+00  8424   0.133E+02 0.000E+00
CGA:   2    -0.668266189504E+03   -0.38566E+01   -0.38585E+01  8424   0.732E+01-0.146E-01
CGA:   3    -0.669560171774E+03   -0.12940E+01   -0.12939E+01  8424   0.148E+01 0.816E-02
CGA:   4    -0.669795607734E+03   -0.23544E+00   -0.23544E+00  8424   0.347E+00 0.289E-03
CGA:   5    -0.669856260472E+03   -0.60653E-01   -0.60653E-01  8424   0.754E-01-0.107E-03
CGA:   6    -0.669871684788E+03   -0.15424E-01   -0.15408E-01  8424   0.178E-01 0.470E-03
CGA:   7    -0.669875724297E+03   -0.40395E-02   -0.40711E-02  8424   0.559E-02-0.564E-03
CGA:   8    -0.669877121193E+03   -0.13969E-02   -0.14091E-02  8424   0.199E-02-0.143E-03
CGA:   9    -0.669877731980E+03   -0.61079E-03   -0.68127E-03  8424   0.116E-02-0.409E-03
CGA:  10    -0.669878011328E+03   -0.27935E-03   -0.44323E-03  8424   0.116E-02-0.563E-03
CGA:  11    -0.669878049979E+03   -0.38651E-04   -0.31115E-03  8424   0.161E-02-0.868E-03
CGA:  12    -0.669878419386E+03   -0.36941E-03   -0.36988E-03  8424   0.708E-03-0.396E-04
CGA:  13    -0.669878601994E+03   -0.18261E-03   -0.37755E-03  8424   0.180E-02-0.596E-03
CGA:  14    -0.669878804716E+03   -0.20272E-03   -0.22208E-03  8424   0.247E-03 0.175E-03
CGA:  15    -0.669878076021E+03    0.72870E-03   -0.39898E-03  8424   0.392E-02-0.910E-03
CGA:  16    -0.669879133122E+03   -0.10571E-02   -0.10749E-02  8424   0.387E-03 0.122E-03
CGA:  17    -0.669879069192E+03    0.63930E-04   -0.32813E-03  8424   0.391E-02-0.956E-03
CGA:  18    -0.669879387463E+03   -0.31827E-03   -0.47916E-03  8424   0.284E-03 0.522E-03
CGA:  19    -0.669879444574E+03   -0.57111E-04   -0.70955E-04  8424   0.138E-03 0.703E-04
[...]
CGA:   3    -0.669629999085E+03   -0.52791E+00   -0.52777E+00  8424   0.809E+00-0.365E-02
CGA:   4    -0.669761786387E+03   -0.13179E+00   -0.13181E+00  8424   0.191E+00-0.390E-05
CGA:   5    -0.669794574678E+03   -0.32788E-01   -0.32825E-01  8424   0.398E-01 0.481E-03
CGA:   6    -0.669802562007E+03   -0.79873E-02   -0.79757E-02  8424   0.930E-02-0.333E-03
CGA:   7    -0.669804541961E+03   -0.19800E-02   -0.19828E-02  8424   0.260E-02 0.149E-03
CGA:   8    -0.669805212764E+03   -0.67080E-03   -0.67323E-03  8424   0.825E-03-0.113E-03
CGA:   9    -0.669805447213E+03   -0.23445E-03   -0.24778E-03  8424   0.385E-03-0.167E-03
CGA:  10    -0.669805549120E+03   -0.10191E-03   -0.12429E-03  8424   0.287E-03-0.135E-03
CGA:  11    -0.669804515145E+03    0.10340E-02   -0.55674E-03  8424   0.601E-02-0.100E-02
CGA:  12    -0.669805519448E+03   -0.10043E-02   -0.10345E-02  8424   0.860E-03 0.108E-03
CGA:  13    -0.669805799718E+03   -0.28027E-03   -0.26670E-03  8424   0.428E-03-0.104E-03
CGA:  14    -0.669805905139E+03   -0.10542E-03   -0.99383E-04  8424   0.188E-03-0.368E-04
CGA:  15    -0.669805966620E+03   -0.61482E-04   -0.60835E-04  8424   0.809E-04-0.983E-05
CGA:  16    -0.669806055432E+03   -0.88812E-04    0.41195E-04  8424   0.129E-03-0.496E-04
CGA:  17    -0.669806050411E+03    0.50209E-05   -0.10800E-04  8424   0.235E-04 0.475E-04
  48 F= -.66980605E+03 E0= -.66980605E+03  d E =-.756979E-01  mag=     2.0000
       N       E                     dE             d eps       ncg     rms          ort
SDA:   1    -0.669452749737E+03    0.35331E+00    0.00000E+00  8424   0.101E+01 0.000E+00
CGA:   2    -0.669677820710E+03   -0.22507E+00   -0.22521E+00  8424   0.487E+00 0.422E-03
CGA:   3    -0.669778102908E+03   -0.10028E+00   -0.10018E+00  8424   0.140E+00-0.542E-03
CGA:   4    -0.669800236031E+03   -0.22133E-01   -0.22116E-01  8424   0.312E-01-0.103E-03
CGA:   5    -0.669805564970E+03   -0.53289E-02   -0.53369E-02  8424   0.641E-02 0.363E-04
CGA:   6    -0.669806893630E+03   -0.13287E-02   -0.13190E-02  8424   0.156E-02-0.691E-04
CGA:   7    -0.669807254136E+03   -0.36051E-03   -0.35215E-03  8424   0.481E-03-0.742E-04
CGA:   8    -0.669807409396E+03   -0.15526E-03   -0.15633E-03  8424   0.324E-03-0.188E-03
CGA:   9    -0.669807423521E+03   -0.14125E-04   -0.12245E-03  8424   0.922E-03-0.383E-03
CGA:  10    -0.669807601652E+03   -0.17813E-03   -0.16926E-03  8424   0.179E-03-0.535E-04
CGA:  11    -0.669807664995E+03   -0.63342E-04   -0.87295E-04  8424   0.249E-03-0.136E-03
CGA:  12    -0.669807743386E+03   -0.78391E-04   -0.66483E-04  8424   0.191E-03-0.142E-03
CGA:  13    -0.669807766833E+03   -0.23447E-04   -0.23811E-04  8424   0.157E-04 0.170E-05
CGA:  14    -0.669807813170E+03   -0.46337E-04    0.78354E-06  8424   0.173E-04 0.646E-06
CGA:  15    -0.669807896302E+03   -0.83132E-04    0.51113E-06  8424   0.132E-04 0.142E-04
CGA:  16    -0.669807933251E+03   -0.36949E-04    0.69296E-06  8424   0.102E-04 0.239E-05
CGA:  17    -0.669807999522E+03   -0.66271E-04    0.28102E-06  8424   0.115E-04 0.882E-05
CGA:  18    -0.669808032826E+03   -0.33304E-04    0.58550E-06  8424   0.145E-04 0.713E-06
CGA:  19    -0.669808114660E+03   -0.81834E-04    0.36978E-06  8424   0.162E-04 0.600E-05
CGA:  20    -0.669808239383E+03   -0.12472E-03    0.53698E-06  8424   0.108E-04 0.194E-04
CGA:  21    -0.669808268488E+03   -0.29105E-04    0.60181E-06  8424   0.210E-04-0.253E-05
CGA:  22    -0.669808362895E+03   -0.94407E-04    0.34772E-06  8424   0.214E-04 0.461E-05
CGA:  23    -0.669808491103E+03   -0.12821E-03    0.69222E-06  8424   0.565E-04-0.359E-06
CGA:  24    -0.669808852072E+03   -0.36097E-03    0.10706E-05  8424   0.892E-04 0.208E-04
CGA:  25    -0.669809418913E+03   -0.56684E-03    0.34410E-05  8424   0.317E-03-0.969E-04
CGA:  26    -0.669809470346E+03   -0.51433E-04   -0.42178E-04  8424   0.403E-04-0.459E-04
CGA:  27    -0.669809481720E+03   -0.11374E-04   -0.11691E-04  8424   0.297E-04-0.226E-04
CGA:  28    -0.669809504569E+03   -0.22849E-04    0.26752E-04  8424   0.115E-03-0.503E-04
CGA:  29    -0.669809509971E+03   -0.54017E-05   -0.97736E-05  8424   0.398E-05 0.182E-04
  49 F= -.66980951E+03 E0= -.66980951E+03  d E =-.345956E-02  mag=     2.0000
       N       E                     dE             d eps       ncg     rms          ort
SDA:   1    -0.669515456776E+03    0.29405E+00    0.00000E+00  8424   0.736E+00 0.000E+00
CGA:   2    -0.669710541471E+03   -0.19508E+00   -0.19511E+00  8424   0.406E+00 0.323E-03
CGA:   3    -0.669787037177E+03   -0.76496E-01   -0.76440E-01  8424   0.923E-01-0.433E-03
CGA:   4    -0.669801387266E+03   -0.14350E-01   -0.14356E-01  8424   0.205E-01 0.287E-04
CGA:   5    -0.669804925948E+03   -0.35387E-02   -0.35439E-02  8424   0.433E-02 0.376E-04
CGA:   6    -0.669805854108E+03   -0.92816E-03   -0.91835E-03  8424   0.111E-02-0.124E-03
CGA:   7    -0.669806103303E+03   -0.24919E-03   -0.24441E-03  8424   0.346E-03-0.801E-04
CGA:   8    -0.669806206967E+03   -0.10366E-03   -0.13146E-03  8424   0.392E-03-0.222E-03
CGA:   9    -0.669806276932E+03   -0.69965E-04   -0.66775E-04  8424   0.687E-04-0.266E-04
CGA:  10    -0.669806322638E+03   -0.45706E-04    0.35945E-04  8424   0.239E-04-0.608E-05
CGA:  11    -0.669806357825E+03   -0.35186E-04    0.16926E-05  8424   0.139E-04 0.277E-06
CGA:  12    -0.669806408549E+03   -0.50724E-04    0.37616E-06  8424   0.897E-05 0.271E-05
CGA:  13    -0.669806462169E+03   -0.53620E-04    0.19542E-06  8424   0.501E-05 0.591E-05
CGA:  14    -0.669806486419E+03   -0.24250E-04    0.94870E-07  8424   0.330E-05 0.270E-05
CGA:  15    -0.669806509470E+03   -0.23051E-04    0.41528E-07  8424   0.318E-05 0.254E-05
CGA:  16    -0.669806533310E+03   -0.23840E-04    0.37262E-07  8424   0.360E-05 0.217E-05
CGA:  17    -0.669806554973E+03   -0.21663E-04    0.53485E-07  8424   0.507E-05 0.120E-05
CGA:  18    -0.669806609692E+03   -0.54718E-04    0.72642E-07  8424   0.338E-05 0.632E-05
CGA:  19    -0.669806633377E+03   -0.23685E-04    0.42602E-07  8424   0.448E-05 0.110E-05
CGA:  20    -0.669806684168E+03   -0.50791E-04    0.60324E-07  8424   0.331E-05 0.551E-05
CGA:  21    -0.669806702622E+03   -0.18454E-04    0.53414E-07  8424   0.368E-05 0.111E-05
CGA:  22    -0.669806747342E+03   -0.44720E-04    0.46610E-07  8424   0.320E-05 0.449E-05
CGA:  23    -0.669806770107E+03   -0.22765E-04    0.39501E-07  8424   0.278E-05 0.131E-05
CGA:  24    -0.669806807022E+03   -0.36915E-04    0.35811E-07  8424   0.286E-05 0.364E-05
CGA:  25    -0.669806825555E+03   -0.18533E-04    0.39147E-07  8424   0.220E-05 0.157E-05
CGA:  26    -0.669806846237E+03   -0.20682E-04    0.20215E-07  8424   0.203E-05 0.180E-05
CGA:  27    -0.669806864042E+03   -0.17805E-04    0.19974E-07  8424   0.196E-05 0.182E-05
CGA:  28    -0.669806884454E+03   -0.20412E-04    0.16160E-07  8424   0.192E-05 0.179E-05
CGA:  29    -0.669806901563E+03   -0.17109E-04    0.18724E-07  8424   0.190E-05 0.174E-05
CGA:  30    -0.669806921976E+03   -0.20413E-04    0.15074E-07  8424   0.188E-05 0.169E-05
CGA:  31    -0.669806938080E+03   -0.16104E-04    0.19005E-07  8424   0.187E-05 0.164E-05
CGA:  32    -0.669806958805E+03   -0.20725E-04    0.14391E-07  8424   0.187E-05 0.157E-05
CGA:  33    -0.669806973604E+03   -0.14799E-04    0.20649E-07  8424   0.189E-05 0.149E-05
CGA:  34    -0.669806994951E+03   -0.21346E-04    0.14244E-07  8424   0.192E-05 0.140E-05
CGA:  35    -0.669807008155E+03   -0.13205E-04    0.24768E-07  8424   0.199E-05 0.129E-05
CGA:  36    -0.669807030444E+03   -0.22289E-04    0.15112E-07  8424   0.209E-05 0.114E-05
CGA:  37    -0.669807041722E+03   -0.11277E-04    0.34918E-07  8424   0.224E-05 0.959E-06
CGA:  38    -0.669807077537E+03   -0.35815E-04    0.25427E-07  8424   0.196E-05 0.319E-05
CGA:  39    -0.669807099675E+03   -0.22139E-04    0.14732E-07  8424   0.208E-05 0.914E-06
CGA:  40    -0.669807133115E+03   -0.33440E-04    0.23852E-07  8424   0.183E-05 0.298E-05
CGA:  41    -0.669807143619E+03   -0.10504E-04    0.28765E-07  8424   0.194E-05 0.872E-06
CGA:  42    -0.669807176739E+03   -0.33120E-04    0.21009E-07  8424   0.172E-05 0.279E-05
CGA:  43    -0.669807197271E+03   -0.20532E-04    0.12253E-07  8424   0.179E-05 0.836E-06
CGA:  44    -0.669807228108E+03   -0.30837E-04    0.19602E-07  8424   0.161E-05 0.260E-05
CGA:  45    -0.669807238082E+03   -0.99743E-05    0.23318E-07  8424   0.166E-05 0.801E-06
  50 F= -.66980724E+03 E0= -.66980724E+03  d E =0.227189E-02  mag=     2.0000
       N       E                     dE             d eps       ncg     rms          ort
SDA:   1    -0.665907982213E+03    0.38992E+01    0.00000E+00  8424   0.946E+01 0.000E+00
CGA:   2    -0.668592933858E+03   -0.26850E+01   -0.26850E+01  8424   0.530E+01-0.216E-02
CGA:   3    -0.669548709578E+03   -0.95578E+00   -0.95594E+00  8424   0.112E+01 0.974E-03
CGA:   4    -0.669722372860E+03   -0.17366E+00   -0.17371E+00  8424   0.253E+00 0.333E-03
CGA:   5    -0.669766362870E+03   -0.43990E-01   -0.44019E-01  8424   0.541E-01 0.242E-03
CGA:   6    -0.669777537406E+03   -0.11175E-01   -0.11180E-01  8424   0.131E-01 0.888E-04
CGA:   7    -0.669780394525E+03   -0.28571E-02   -0.28537E-02  8424   0.378E-02-0.731E-04
CGA:   8    -0.669781355013E+03   -0.96049E-03   -0.96050E-03  8424   0.128E-02 0.916E-06
CGA:   9    -0.669781727607E+03   -0.37259E-03   -0.37334E-03  8424   0.508E-03-0.265E-04
CGA:  10    -0.669781888304E+03   -0.16070E-03   -0.16004E-03  8424   0.202E-03 0.109E-04
CGA:  11    -0.669781951629E+03   -0.63324E-04   -0.62989E-04  8424   0.694E-04 0.810E-05
CGA:  12    -0.669781974412E+03   -0.22783E-04   -0.22193E-04  8424   0.356E-04 0.147E-04
CGA:  13    -0.669781995582E+03   -0.21170E-04   -0.19307E-04  8424   0.400E-04 0.963E-05
CGA:  14    -0.669782008757E+03   -0.13175E-04   -0.13589E-04  8424   0.339E-04 0.329E-04
CGA:  15    -0.669782026205E+03   -0.17447E-04   -0.16513E-04  8424   0.251E-04 0.424E-05
CGA:  16    -0.669782027860E+03   -0.16550E-05   -0.44302E-05  8424   0.175E-04 0.207E-04
CGA:  17    -0.669782040675E+03   -0.12815E-04   -0.11376E-04  8424   0.235E-04 0.362E-05
CGA:  18    -0.669782046169E+03   -0.54943E-05   -0.69061E-05  8424   0.193E-04 0.241E-04
CGA:  19    -0.669782056894E+03   -0.10725E-04   -0.17970E-04  8424   0.794E-04-0.118E-04
CGA:  20    -0.669782059749E+03   -0.28550E-05   -0.93042E-05  8424   0.222E-04 0.303E-04
  51 F= -.66978206E+03 E0= -.66978206E+03  d E =0.251783E-01  mag=     2.0000
       N       E                     dE             d eps       ncg     rms          ort
SDA:   1    -0.661719465802E+03    0.80626E+01    0.00000E+00  8424   0.228E+02 0.000E+00
CGA:   2    -0.666792856953E+03   -0.50734E+01   -0.50785E+01  8424   0.109E+02 0.130E-01
CGA:   3    -0.669048723023E+03   -0.22559E+01   -0.22550E+01  8424   0.312E+01 0.457E-03
CGA:   4    -0.669544649749E+03   -0.49593E+00   -0.49622E+00  8424   0.699E+00 0.414E-03
CGA:   5    -0.669663960774E+03   -0.11931E+00   -0.11942E+00  8424   0.142E+00 0.491E-03
CGA:   6    -0.669693188713E+03   -0.29228E-01   -0.29177E-01  8424   0.343E-01-0.617E-03
CGA:   7    -0.669700690338E+03   -0.75016E-02   -0.75105E-02  8424   0.966E-02 0.132E-03
CGA:   8    -0.669703082250E+03   -0.23919E-02   -0.23943E-02  8424   0.298E-02 0.651E-04
CGA:   9    -0.669704022594E+03   -0.94034E-03   -0.95777E-03  8424   0.143E-02-0.440E-03
CGA:  10    -0.669704440275E+03   -0.41768E-03   -0.43402E-03  8424   0.775E-03-0.219E-03
CGA:  11    -0.669700075628E+03    0.43646E-02   -0.23514E-02  8424   0.242E-01-0.354E-02
CGA:  12    -0.669704015350E+03   -0.39397E-02   -0.42449E-02  8424   0.392E-02 0.877E-03
CGA:  13    -0.669705294985E+03   -0.12796E-02   -0.11426E-02  8424   0.180E-02-0.617E-03
CGA:  14    -0.669705566321E+03   -0.27134E-03   -0.31848E-03  8424   0.561E-03 0.168E-03
CGA:  15    -0.669705800755E+03   -0.23443E-03   -0.23252E-03  8424   0.365E-03-0.204E-04
CGA:  16    -0.669696131074E+03    0.96697E-02   -0.52948E-02  8424   0.698E-01-0.417E-02
CGA:  17    -0.669704033104E+03   -0.79020E-02   -0.89715E-02  8424   0.538E-02 0.177E-02
CGA:  18    -0.669706039260E+03   -0.20062E-02   -0.19555E-02  8424   0.193E-02-0.109E-03
CGA:  19    -0.669706876460E+03   -0.83720E-03   -0.71474E-03  8424   0.185E-02-0.288E-03
CGA:  20    -0.669707205757E+03   -0.32930E-03   -0.35046E-03  8424   0.511E-03 0.367E-04
CGA:  21    -0.669707364340E+03   -0.15858E-03   -0.15680E-03  8424   0.248E-03-0.474E-05
CGA:  22    -0.669707564754E+03   -0.20041E-03   -0.11246E-03  8424   0.661E-03-0.323E-03
CGA:  23    -0.669707604820E+03   -0.40066E-04   -0.87204E-04  8424   0.796E-04 0.803E-04
CGA:  24    -0.669707655568E+03   -0.50748E-04   -0.44995E-04  8424   0.118E-03-0.316E-04
CGA:  25    -0.669707942841E+03   -0.28727E-03    0.12175E-04  8424   0.568E-03-0.176E-03
CGA:  26    -0.669707961197E+03   -0.18356E-04   -0.87746E-04  8424   0.120E-03 0.132E-03
CGA:  27    -0.669708039857E+03   -0.78661E-04   -0.68222E-04  8424   0.955E-04-0.548E-04
CGA:  28    -0.669708279567E+03   -0.23971E-03    0.64512E-05  8424   0.459E-03-0.128E-03
CGA:  29    -0.669708264072E+03    0.15495E-04   -0.56165E-04  8424   0.852E-04 0.138E-03
CGA:  30    -0.669708271208E+03   -0.71368E-05   -0.20789E-04  8424   0.578E-04 0.316E-04
CGA:  31    -0.669708429366E+03   -0.15816E-03    0.35015E-04  8424   0.136E-03-0.940E-04
CGA:  32    -0.669708458913E+03   -0.29547E-04   -0.38660E-04  8424   0.394E-04 0.290E-04
CGA:  33    -0.669708619273E+03   -0.16036E-03    0.73203E-05  8424   0.127E-03-0.435E-04
CGA:  34    -0.669708604252E+03    0.15021E-04   -0.12223E-04  8424   0.337E-04 0.562E-04
CGA:  35    -0.669708600211E+03    0.40402E-05   -0.50863E-05  8424   0.192E-04 0.201E-04
  52 F= -.66970860E+03 E0= -.66970860E+03  d E =0.734595E-01  mag=     2.0000
       N       E                     dE             d eps       ncg     rms          ort
SDA:   1    -0.668090271881E+03    0.16183E+01    0.00000E+00  8424   0.525E+01 0.000E+00
CGA:   2    -0.669156154138E+03   -0.10659E+01   -0.10683E+01  8424   0.218E+01-0.181E-02
CGA:   3    -0.669614609315E+03   -0.45846E+00   -0.45778E+00  8424   0.700E+00 0.361E-03
CGA:   4    -0.669729506410E+03   -0.11490E+00   -0.11493E+00  8424   0.171E+00 0.400E-04
CGA:   5    -0.669759083319E+03   -0.29577E-01   -0.29656E-01  8424   0.350E-01 0.192E-03
CGA:   6    -0.669766084633E+03   -0.70013E-02   -0.69619E-02  8424   0.806E-02-0.148E-03
CGA:   7    -0.669767820675E+03   -0.17360E-02   -0.17558E-02  8424   0.235E-02 0.819E-04
CGA:   8    -0.669768411060E+03   -0.59038E-03   -0.58676E-03  8424   0.711E-03-0.190E-04
CGA:   9    -0.669768618913E+03   -0.20785E-03   -0.20171E-03  8424   0.278E-03-0.420E-04
CGA:  10    -0.669768699818E+03   -0.80905E-04   -0.81803E-04  8424   0.127E-03 0.732E-05
CGA:  11    -0.669768761131E+03   -0.61313E-04   -0.65341E-04  8424   0.141E-03-0.513E-04
CGA:  12    -0.669768791100E+03   -0.29969E-04   -0.29003E-04  8424   0.113E-03-0.141E-04
CGA:  13    -0.669768839653E+03   -0.48553E-04   -0.73360E-04  8424   0.329E-03-0.881E-04
CGA:  14    -0.669768931889E+03   -0.92236E-04   -0.86589E-04  8424   0.907E-04-0.328E-04
CGA:  15    -0.669768947105E+03   -0.15217E-04   -0.19149E-04  8424   0.434E-04 0.202E-04
CGA:  16    -0.669768907323E+03    0.39782E-04   -0.72853E-04  8424   0.722E-03-0.119E-03
CGA:  17    -0.669769006667E+03   -0.99344E-04   -0.11794E-03  8424   0.942E-04 0.617E-04
CGA:  18    -0.669769050586E+03   -0.43918E-04   -0.38763E-04  8424   0.147E-03-0.725E-04
CGA:  19    -0.669769057005E+03   -0.64193E-05   -0.17647E-04  8424   0.252E-04 0.344E-04
  53 F= -.66976906E+03 E0= -.66976906E+03  d E =-.604568E-01  mag=     2.0000
       N       E                     dE             d eps       ncg     rms          ort
SDA:   1    -0.669394320179E+03    0.37473E+00    0.00000E+00  8424   0.105E+01 0.000E+00
CGA:   2    -0.669637101925E+03   -0.24278E+00   -0.24295E+00  8424   0.517E+00 0.474E-03
CGA:   3    -0.669740765369E+03   -0.10366E+00   -0.10355E+00  8424   0.142E+00-0.463E-03
CGA:   4    -0.669763124056E+03   -0.22359E-01   -0.22378E-01  8424   0.324E-01 0.614E-04
CGA:   5    -0.669768654717E+03   -0.55307E-02   -0.55660E-02  8424   0.662E-02 0.154E-03
CGA:   6    -0.669770003959E+03   -0.13492E-02   -0.13525E-02  8424   0.158E-02 0.175E-04
CGA:   7    -0.669770332250E+03   -0.32829E-03   -0.33789E-03  8424   0.445E-03 0.603E-04
CGA:   8    -0.669770445874E+03   -0.11362E-03   -0.11601E-03  8424   0.153E-03 0.208E-04
CGA:   9    -0.669770475037E+03   -0.29163E-04   -0.35376E-04  8424   0.582E-04 0.450E-04
CGA:  10    -0.669770479775E+03   -0.47381E-05   -0.12825E-04  8424   0.348E-04 0.443E-04
  54 F= -.66977048E+03 E0= -.66977048E+03  d E =-.142277E-02  mag=     2.0000
       N       E                     dE             d eps       ncg     rms          ort
SDA:   1    -0.669369761190E+03    0.40071E+00    0.00000E+00  8424   0.102E+01 0.000E+00
CGA:   2    -0.669632524437E+03   -0.26276E+00   -0.26279E+00  8424   0.557E+00 0.212E-03
CGA:   3    -0.669739643176E+03   -0.10712E+00   -0.10712E+00  8424   0.133E+00-0.205E-04
CGA:   4    -0.669760154228E+03   -0.20511E-01   -0.20543E-01  8424   0.289E-01 0.173E-03
CGA:   5    -0.669765097402E+03   -0.49432E-02   -0.49722E-02  8424   0.598E-02 0.199E-03
CGA:   6    -0.669766322969E+03   -0.12256E-02   -0.12371E-02  8424   0.143E-02 0.113E-03
CGA:   7    -0.669766613114E+03   -0.29014E-03   -0.30070E-03  8424   0.387E-03 0.109E-03
CGA:   8    -0.669766689842E+03   -0.76729E-04   -0.86075E-04  8424   0.125E-03 0.103E-03
CGA:   9    -0.669766699777E+03   -0.99345E-05   -0.23016E-04  8424   0.629E-04 0.887E-04
  55 F= -.66976670E+03 E0= -.66976670E+03  d E =0.378000E-02  mag=     2.0000
       N       E                     dE             d eps       ncg     rms          ort
SDA:   1    -0.666810588349E+03    0.29561E+01    0.00000E+00  8424   0.716E+01 0.000E+00
CGA:   2    -0.668864614045E+03   -0.20540E+01   -0.20540E+01  8424   0.398E+01-0.196E-02
CGA:   3    -0.669577389263E+03   -0.71278E+00   -0.71293E+00  8424   0.830E+00 0.840E-03
CGA:   4    -0.669707174225E+03   -0.12978E+00   -0.12985E+00  8424   0.190E+00 0.516E-03
CGA:   5    -0.669740224548E+03   -0.33050E-01   -0.33102E-01  8424   0.402E-01 0.538E-03
CGA:   6    -0.669748493843E+03   -0.82693E-02   -0.82934E-02  8424   0.953E-02 0.425E-03
CGA:   7    -0.669750530662E+03   -0.20368E-02   -0.20503E-02  8424   0.268E-02 0.292E-03
CGA:   8    -0.669751146358E+03   -0.61570E-03   -0.62700E-03  8424   0.818E-03 0.382E-03
CGA:   9    -0.669751303242E+03   -0.15688E-03   -0.17953E-03  8424   0.304E-03 0.359E-03
CGA:  10    -0.669751328865E+03   -0.25623E-04   -0.58002E-04  8424   0.168E-03 0.271E-03
CGA:  11    -0.669751326127E+03    0.27382E-05   -0.17303E-04  8424   0.120E-03 0.140E-03
  56 F= -.66975133E+03 E0= -.66975133E+03  d E =0.153736E-01  mag=     2.0000
       N       E                     dE             d eps       ncg     rms          ort
SDA:   1    -0.662596093280E+03    0.71552E+01    0.00000E+00  8424   0.196E+02 0.000E+00
CGA:   2    -0.667162301288E+03   -0.45662E+01   -0.45661E+01  8424   0.975E+01 0.214E-01
CGA:   3    -0.669120154120E+03   -0.19579E+01   -0.19577E+01  8424   0.262E+01-0.272E-02
CGA:   4    -0.669533033389E+03   -0.41288E+00   -0.41300E+00  8424   0.590E+00 0.747E-03
CGA:   5    -0.669634570686E+03   -0.10154E+00   -0.10159E+00  8424   0.122E+00 0.772E-03
CGA:   6    -0.669659571145E+03   -0.25000E-01   -0.24998E-01  8424   0.291E-01-0.131E-03
CGA:   7    -0.669665797596E+03   -0.62265E-02   -0.62320E-02  8424   0.805E-02 0.718E-03
CGA:   8    -0.669667743926E+03   -0.19463E-02   -0.19384E-02  8424   0.235E-02 0.609E-03
CGA:   9    -0.669668389552E+03   -0.64563E-03   -0.63616E-03  8424   0.795E-03 0.324E-03
CGA:  10    -0.669668576858E+03   -0.18731E-03   -0.19172E-03  8424   0.321E-03 0.360E-03
CGA:  11    -0.669668632223E+03   -0.55364E-04   -0.72987E-04  8424   0.155E-03 0.263E-03
CGA:  12    -0.669668638696E+03   -0.64729E-05   -0.18657E-04  8424   0.102E-03 0.122E-03
