       N       E                     dE             d eps       ncg     rms          ort
DAV:   1     0.827252445562E+04    0.82725E+04   -0.24664E+05  8424   0.238E+03
DAV:   2     0.921531270323E+03   -0.73510E+04   -0.69000E+04  8424   0.656E+02
DAV:   3    -0.673100021570E+03   -0.15946E+04   -0.14023E+04  8424   0.282E+02
DAV:   4    -0.829565686170E+03   -0.15647E+03   -0.15373E+03  8424   0.858E+01
DAV:   5    -0.832067508423E+03   -0.25018E+01   -0.24909E+01  8424   0.122E+01
SDA:   6    -0.256418637189E+03    0.57565E+03   -0.24909E+01  8424   0.449E+04 0.000E+00
CGA:   7    -0.438475560582E+03   -0.18206E+03   -0.38169E+03  8424   0.144E+05-0.882E+03
CGA:   8    -0.416715570472E+03    0.21760E+02   -0.57904E+03  8424   0.245E+04-0.361E+04
CGA:   9    -0.452046146546E+03   -0.35331E+02   -0.10756E+03  8424   0.211E+04-0.488E+03
CGA:  10    -0.516185829769E+03   -0.64140E+02   -0.93100E+02  8424   0.207E+04-0.354E+03
CGA:  11    -0.583181548065E+03   -0.66996E+02   -0.66761E+02  8424   0.871E+03 0.111E+02
CGA:  12    -0.593997825173E+03   -0.10816E+02   -0.48412E+02  8424   0.636E+03-0.212E+03
CGA:  13    -0.622871350698E+03   -0.28874E+02   -0.11036E+02  8424   0.517E+03 0.880E+03
CGA:  14    -0.613912201444E+03    0.89591E+01   -0.28372E+02  8424   0.558E+03-0.156E+03
CGA:  15    -0.617152985274E+03   -0.32408E+01   -0.17725E+02  8424   0.813E+03-0.278E+03
CGA:  16    -0.644645633315E+03   -0.27493E+02   -0.81499E+01  8424   0.290E+03-0.396E+03
CGA:  17    -0.648066016452E+03   -0.34204E+01   -0.60693E+01  8424   0.219E+03-0.127E+03
CGA:  18    -0.651691196682E+03   -0.36252E+01   -0.70142E+01  8424   0.926E+02-0.256E+02
CGA:  19    -0.653908950181E+03   -0.22178E+01   -0.33236E+01  8424   0.701E+02-0.650E+01
CGA:  20    -0.655298531023E+03   -0.13896E+01   -0.36040E+01  8424   0.143E+03-0.169E+02
CGA:  21    -0.657450512691E+03   -0.21520E+01   -0.59521E+01  8424   0.147E+03-0.132E+02
CGA:  22    -0.658147818595E+03   -0.69731E+00   -0.57277E+01  8424   0.597E+02-0.386E+02
CGA:  23    -0.658046538080E+03    0.10128E+00   -0.21931E+01  8424   0.684E+02-0.204E+02
CGA:  24    -0.660086461490E+03   -0.20399E+01   -0.25158E+01  8424   0.375E+02-0.556E+01
CGA:  25    -0.660673282077E+03   -0.58682E+00   -0.15464E+01  8424   0.326E+02-0.551E+01
CGA:  26    -0.662221266639E+03   -0.15480E+01   -0.10687E+01  8424   0.750E+01-0.226E+01
CGA:  27    -0.663089028805E+03   -0.86776E+00   -0.85913E+00  8424   0.699E+01 0.334E+00
CGA:  28    -0.663508955799E+03   -0.41993E+00   -0.46246E+00  8424   0.492E+01-0.334E+00
CGA:  29    -0.663779909771E+03   -0.27095E+00   -0.28237E+00  8424   0.221E+01-0.104E+00
CGA:  30    -0.664002703577E+03   -0.22279E+00   -0.22110E+00  8424   0.182E+01 0.260E+00
CGA:  31    -0.664120425418E+03   -0.11772E+00   -0.13008E+00  8424   0.138E+01-0.239E-01
CGA:  32    -0.664279878403E+03   -0.15945E+00   -0.15879E+00  8424   0.776E+00 0.648E-02
CGA:  33    -0.664418891967E+03   -0.13901E+00   -0.13563E+00  8424   0.728E+00 0.366E-01
CGA:  34    -0.664489531912E+03   -0.70640E-01   -0.70348E-01  8424   0.514E+00-0.205E-01
CGA:  35    -0.664573663569E+03   -0.84132E-01   -0.78513E-01  8424   0.310E+00 0.668E-01
CGA:  36    -0.664613162838E+03   -0.39499E-01   -0.39299E-01  8424   0.225E+00 0.537E-02
CGA:  37    -0.664651296354E+03   -0.38134E-01   -0.38340E-01  8424   0.138E+00-0.423E-02
CGA:  38    -0.664691101392E+03   -0.39805E-01   -0.48434E-01  8424   0.201E+00-0.338E-01
CGA:  39    -0.664705954031E+03   -0.14853E-01   -0.14555E-01  8424   0.104E+00-0.674E-02
CGA:  40    -0.664736147603E+03   -0.30194E-01   -0.28955E-01  8424   0.174E+00 0.188E-01
CGA:  41    -0.664751926200E+03   -0.15779E-01   -0.38919E-01  8424   0.873E+00-0.235E+00
CGA:  42    -0.664803430354E+03   -0.51504E-01   -0.51224E-01  8424   0.140E+00 0.256E-01
CGA:  43    -0.664833516083E+03   -0.30086E-01   -0.31746E-01  8424   0.747E-01-0.170E-01
CGA:  44    -0.664850874305E+03   -0.17358E-01   -0.16110E-01  8424   0.758E-01 0.705E-02
CGA:  45    -0.664860260199E+03   -0.93859E-02   -0.93708E-02  8424   0.596E-01 0.439E-02
CGA:  46    -0.664878302555E+03   -0.18042E-01   -0.21730E-01  8424   0.945E-01-0.189E-01
CGA:  47    -0.664889445059E+03   -0.11143E-01   -0.11451E-01  8424   0.147E+00-0.101E-01
CGA:  48    -0.664931609379E+03   -0.42164E-01   -0.48225E-01  8424   0.252E+00-0.195E-01
CGA:  49    -0.664956160997E+03   -0.24552E-01   -0.18087E-01  8424   0.274E+00-0.101E-01
CGA:  50    -0.664979158232E+03   -0.22997E-01   -0.16915E-01  8424   0.362E+00-0.641E-02
CGA:  51    -0.665000788085E+03   -0.21630E-01   -0.17053E-01  8424   0.429E+00-0.196E-01
CGA:  52    -0.665024301088E+03   -0.23513E-01   -0.18859E-01  8424   0.478E+00-0.441E-01
CGA:  53    -0.665054178897E+03   -0.29878E-01   -0.23963E-01  8424   0.480E+00-0.646E-01
CGA:  54    -0.665081290788E+03   -0.27112E-01   -0.23680E-01  8424   0.401E+00-0.947E-01
CGA:  55    -0.665103476816E+03   -0.22186E-01   -0.18496E-01  8424   0.287E+00-0.684E-01
CGA:  56    -0.665120770127E+03   -0.17293E-01   -0.14545E-01  8424   0.212E+00-0.461E-01
CGA:  57    -0.665134815085E+03   -0.14045E-01   -0.12130E-01  8424   0.191E+00-0.341E-01
CGA:  58    -0.665147768562E+03   -0.12953E-01   -0.11485E-01  8424   0.189E+00-0.292E-01
CGA:  59    -0.665160449585E+03   -0.12681E-01   -0.11473E-01  8424   0.181E+00-0.262E-01
CGA:  60    -0.665173115461E+03   -0.12666E-01   -0.11718E-01  8424   0.173E+00-0.238E-01
CGA:  61    -0.665186048931E+03   -0.12933E-01   -0.12204E-01  8424   0.174E+00-0.221E-01
CGA:  62    -0.665199347813E+03   -0.13299E-01   -0.12730E-01  8424   0.172E+00-0.201E-01
CGA:  63    -0.665212217895E+03   -0.12870E-01   -0.12408E-01  8424   0.157E+00-0.163E-01
CGA:  64    -0.665223831751E+03   -0.11614E-01   -0.11317E-01  8424   0.138E+00-0.108E-01
CGA:  65    -0.665234642120E+03   -0.10810E-01   -0.10689E-01  8424   0.132E+00-0.538E-02
CGA:  66    -0.665245643016E+03   -0.11001E-01   -0.10999E-01  8424   0.134E+00-0.499E-03
CGA:  67    -0.665256824155E+03   -0.11181E-01   -0.11268E-01  8424   0.125E+00 0.346E-02
CGA:  68    -0.665266946339E+03   -0.10122E-01   -0.10276E-01  8424   0.102E+00 0.500E-02
CGA:  69    -0.665275294210E+03   -0.83479E-02   -0.84730E-02  8424   0.813E-01 0.428E-02
CGA:  70    -0.665282354932E+03   -0.70607E-02   -0.71270E-02  8424   0.710E-01 0.312E-02
CGA:  71    -0.665288784381E+03   -0.64294E-02   -0.64697E-02  8424   0.664E-01 0.255E-02
SDA:  72    -0.665294543674E+03   -0.57593E-02   -0.58089E-02  8424   0.586E-01 0.267E-02
CGA:  73    -0.665312066133E+03   -0.17522E-01   -0.16792E-01  8424   0.319E-01 0.385E-02
CGA:  74    -0.665327978241E+03   -0.15912E-01   -0.16881E-01  8424   0.315E-01-0.238E-02
CGA:  75    -0.665338124910E+03   -0.10147E-01   -0.10447E-01  8424   0.166E-01-0.154E-02
CGA:  76    -0.665343588442E+03   -0.54635E-02   -0.55666E-02  8424   0.843E-02-0.487E-03
CGA:  77    -0.665346694966E+03   -0.31065E-02   -0.45450E-02  8424   0.107E-01-0.366E-02
CGA:  78    -0.665348214463E+03   -0.15195E-02   -0.16639E-02  8424   0.680E-02-0.153E-02
CGA:  79    -0.665344758201E+03    0.34563E-02   -0.24432E-02  8424   0.697E-01-0.108E-01
CGA:  80    -0.665357069364E+03   -0.12311E-01   -0.12227E-01  8424   0.647E-02-0.648E-03
CGA:  81    -0.665359380167E+03   -0.23108E-02   -0.23310E-02  8424   0.439E-02-0.421E-03
CGA:  82    -0.665359315263E+03    0.64904E-04   -0.40396E-02  8424   0.325E-01-0.619E-02
CGA:  83    -0.665363774020E+03   -0.44588E-02   -0.45647E-02  8424   0.392E-02 0.781E-03
CGA:  84    -0.665365531772E+03   -0.17578E-02   -0.23521E-02  8424   0.561E-02-0.243E-02
CGA:  85    -0.665366926238E+03   -0.13945E-02   -0.13178E-02  8424   0.156E-02-0.654E-03
CGA:  86    -0.665367963658E+03   -0.10374E-02    0.29088E-02  8424   0.153E-02-0.672E-04
CGA:  87    -0.665369509789E+03   -0.15461E-02    0.48457E-03  8424   0.125E-02 0.587E-03
CGA:  88    -0.665371694198E+03   -0.21844E-02    0.36499E-03  8424   0.957E-03 0.122E-02
CGA:  89    -0.665372407525E+03   -0.71333E-03    0.22056E-02  8424   0.180E-02-0.265E-03
CGA:  90    -0.665374231846E+03   -0.18243E-02    0.22091E-03  8424   0.218E-02 0.749E-03
CGA:  91    -0.665376769107E+03   -0.25373E-02    0.28897E-02  8424   0.538E-02-0.454E-03
CGA:  92    -0.665383600800E+03   -0.68317E-02    0.56211E-03  8424   0.150E-01 0.107E-02
CGA:  93    -0.665405231001E+03   -0.21630E-01    0.42397E-02  8424   0.280E-01-0.488E-02
CGA:  94    -0.665447139528E+03   -0.41909E-01    0.14826E-02  8424   0.380E-01-0.154E-01
CGA:  95    -0.665451714438E+03   -0.45749E-02   -0.48514E-02  8424   0.364E-02 0.153E-02
CGA:  96    -0.665452674841E+03   -0.96040E-03   -0.10262E-02  8424   0.143E-02 0.102E-02
CGA:  97    -0.665452947515E+03   -0.27267E-03   -0.37609E-03  8424   0.841E-03 0.814E-03
CGA:  98    -0.665453033835E+03   -0.86320E-04   -0.16142E-03  8424   0.608E-03 0.560E-03
CGA:  99    -0.665453124345E+03   -0.90509E-04   -0.13603E-03  8424   0.524E-03 0.475E-03
CGA: 100    -0.665453161922E+03   -0.37577E-04   -0.95529E-04  8424   0.458E-03 0.437E-03
CGA: 101    -0.665453229905E+03   -0.67983E-04   -0.10239E-03  8424   0.419E-03 0.407E-03
CGA: 102    -0.665453268552E+03   -0.38647E-04   -0.80765E-04  8424   0.386E-03 0.379E-03
CGA: 103    -0.665453336213E+03   -0.67661E-04   -0.90420E-04  8424   0.362E-03 0.355E-03
CGA: 104    -0.665453381915E+03   -0.45702E-04   -0.75077E-04  8424   0.342E-03 0.333E-03
CGA: 105    -0.665453464649E+03   -0.82734E-04   -0.90739E-04  8424   0.333E-03 0.311E-03
CGA: 106    -0.665453517080E+03   -0.52432E-04   -0.72862E-04  8424   0.322E-03 0.288E-03
CGA: 107    -0.665453632417E+03   -0.11534E-03   -0.10522E-03  8424   0.381E-03 0.248E-03
CGA: 108    -0.665453675908E+03   -0.43491E-04   -0.67335E-04  8424   0.327E-03 0.214E-03
CGA: 109    -0.665453815396E+03   -0.13949E-03   -0.12553E-03  8424   0.643E-03 0.135E-03
CGA: 110    -0.665454221913E+03   -0.40652E-03   -0.34105E-03  8424   0.236E-03 0.723E-03
CGA: 111    -0.665454371841E+03   -0.14993E-03    0.39617E-03  8424   0.244E-03 0.220E-03
CGA: 112    -0.665454654920E+03   -0.28308E-03   -0.23239E-05  8424   0.632E-02-0.123E-03
CGA: 113    -0.665455392639E+03   -0.73772E-03   -0.65779E-03  8424   0.224E-03-0.219E-03
CGA: 114    -0.665455687901E+03   -0.29526E-03    0.16436E-03  8424   0.273E-03 0.170E-03
CGA: 115    -0.665455578463E+03    0.10944E-03   -0.30351E-03  8424   0.917E-02-0.696E-03
CGA: 116    -0.665456422696E+03   -0.84423E-03   -0.89691E-03  8424   0.213E-03 0.166E-03
CGA: 117    -0.665456722224E+03   -0.29953E-03    0.17072E-03  8424   0.423E-03 0.701E-04
CGA: 118    -0.665457689249E+03   -0.96703E-03    0.22142E-03  8424   0.525E-03 0.416E-03
CGA: 119    -0.665457817617E+03   -0.12837E-03   -0.10617E-03  8424   0.374E-03-0.711E-04
CGA: 120    -0.665458327876E+03   -0.51026E-03    0.14235E-03  8424   0.573E-03 0.612E-04
CGA: 121    -0.665459522368E+03   -0.11945E-02    0.21485E-03  8424   0.416E-03 0.457E-03
CGA: 122    -0.665459693625E+03   -0.17126E-03   -0.12924E-03  8424   0.744E-03-0.220E-03
CGA: 123    -0.665459859163E+03   -0.16554E-03   -0.11883E-03  8424   0.256E-03-0.141E-03
CGA: 124    -0.665460257678E+03   -0.39851E-03    0.48944E-04  8424   0.175E-03 0.154E-03
CGA: 125    -0.665460576598E+03   -0.31892E-03    0.45487E-04  8424   0.562E-03-0.156E-04
CGA: 126    -0.665461818742E+03   -0.12421E-02    0.78752E-04  8424   0.844E-03 0.374E-03
CGA: 127    -0.665461971752E+03   -0.15301E-03   -0.15045E-03  8424   0.184E-03-0.931E-05
CGA: 128    -0.665462338506E+03   -0.36675E-03    0.35371E-04  8424   0.306E-03 0.464E-04
CGA: 129    -0.665463227845E+03   -0.88934E-03    0.58426E-04  8424   0.407E-03 0.241E-03
CGA: 130    -0.665463394986E+03   -0.16714E-03   -0.13311E-03  8424   0.729E-03-0.254E-03
CGA: 131    -0.665463557838E+03   -0.16285E-03   -0.11716E-03  8424   0.239E-03-0.154E-03
CGA: 132    -0.665463974355E+03   -0.41652E-03    0.27571E-04  8424   0.273E-03 0.713E-04
CGA: 133    -0.665464600823E+03   -0.62647E-03    0.77160E-04  8424   0.287E-03 0.153E-03
CGA: 134    -0.665464930423E+03   -0.32960E-03    0.20686E-03  8424   0.113E-02-0.335E-03
CGA: 135    -0.665465034228E+03   -0.10381E-03   -0.14106E-03  8424   0.117E-03 0.118E-03
CGA: 136    -0.665465266785E+03   -0.23256E-03    0.24567E-04  8424   0.309E-03 0.216E-04
CGA: 137    -0.665466319506E+03   -0.10527E-02    0.32389E-04  8424   0.416E-03 0.345E-03
CGA: 138    -0.665466458200E+03   -0.13869E-03   -0.21638E-03  8424   0.268E-02-0.808E-03
CGA: 139    -0.665466827445E+03   -0.36924E-03   -0.36479E-03  8424   0.162E-03-0.201E-04
CGA: 140    -0.665466984409E+03   -0.15696E-03    0.19177E-03  8424   0.495E-03-0.675E-04
CGA: 141    -0.665467938654E+03   -0.95425E-03    0.20112E-04  8424   0.134E-02 0.184E-03
CGA: 142    -0.665471339882E+03   -0.34012E-02    0.31170E-03  8424   0.277E-02-0.111E-03
CGA: 143    -0.665478658715E+03   -0.73188E-02    0.21384E-03  8424   0.261E-02 0.114E-02
CGA: 144    -0.665484974371E+03   -0.63157E-02    0.71132E-03  8424   0.749E-02-0.223E-02
CGA: 145    -0.665486193452E+03   -0.12191E-02   -0.10033E-02  8424   0.379E-03-0.791E-03
CGA: 146    -0.665486280072E+03   -0.86620E-04   -0.67311E-04  8424   0.150E-03-0.954E-04
CGA: 147    -0.665486477283E+03   -0.19721E-03    0.17377E-04  8424   0.690E-04 0.416E-04
CGA: 148    -0.665486710452E+03   -0.23317E-03    0.72105E-05  8424   0.581E-04 0.673E-04
CGA: 149    -0.665486862075E+03   -0.15162E-03    0.48432E-05  8424   0.123E-03 0.130E-04
CGA: 150    -0.665487305346E+03   -0.44327E-03    0.10644E-04  8424   0.757E-04 0.127E-03
CGA: 151    -0.665487437547E+03   -0.13220E-03    0.11945E-04  8424   0.112E-03-0.265E-06
CGA: 152    -0.665487779938E+03   -0.34239E-03    0.74443E-05  8424   0.114E-03 0.848E-04
CGA: 153    -0.665487919682E+03   -0.13974E-03    0.39392E-04  8424   0.139E-03-0.312E-04
CGA: 154    -0.665488236521E+03   -0.31684E-03    0.65280E-05  8424   0.160E-03 0.508E-04
CGA: 155    -0.665488725305E+03   -0.48878E-03    0.22795E-04  8424   0.164E-03 0.744E-04
CGA: 156    -0.665489366064E+03   -0.64076E-03    0.19472E-04  8424   0.128E-03 0.165E-03
CGA: 157    -0.665489515668E+03   -0.14960E-03    0.50855E-04  8424   0.199E-03-0.591E-04
CGA: 158    -0.665489784543E+03   -0.26887E-03    0.95095E-05  8424   0.302E-03-0.533E-05
CGA: 159    -0.665490391978E+03   -0.60744E-03    0.34798E-04  8424   0.369E-03 0.101E-03
CGA: 160    -0.665491302382E+03   -0.91040E-03    0.70483E-04  8424   0.621E-03-0.668E-04
CGA: 161    -0.665492887154E+03   -0.15848E-02    0.33210E-04  8424   0.814E-03 0.285E-03
CGA: 162    -0.665495007329E+03   -0.21202E-02    0.18031E-03  8424   0.189E-02-0.188E-03
CGA: 163    -0.665500073194E+03   -0.50659E-02    0.82042E-04  8424   0.453E-02-0.306E-03
CGA: 164    -0.665511636163E+03   -0.11563E-01    0.25522E-03  8424   0.136E-01-0.738E-02
CGA: 165    -0.665513560561E+03   -0.19244E-02   -0.21130E-02  8424   0.197E-02 0.912E-03
CGA: 166    -0.665513981448E+03   -0.42089E-03   -0.46527E-03  8424   0.256E-03 0.281E-03
CGA: 167    -0.665513977878E+03    0.35706E-05   -0.41419E-04  8424   0.158E-03 0.196E-03
CGA: 168    -0.665513957174E+03    0.20704E-04   -0.15286E-04  8424   0.123E-03 0.137E-03
CGA: 169    -0.665513937924E+03    0.19250E-04   -0.10526E-04  8424   0.107E-03 0.114E-03
CGA: 170    -0.665513920005E+03    0.17919E-04   -0.82272E-05  8424   0.975E-04 0.102E-03
CGA: 171    -0.665513903310E+03    0.16695E-04   -0.68124E-05  8424   0.907E-04 0.938E-04
CGA: 172    -0.665513887727E+03    0.15583E-04   -0.58271E-05  8424   0.855E-04 0.879E-04
CGA: 173    -0.665513873152E+03    0.14575E-04   -0.50882E-05  8424   0.814E-04 0.832E-04
CGA: 174    -0.665513859493E+03    0.13658E-04   -0.45073E-05  8424   0.780E-04 0.795E-04
CGA: 175    -0.665513846673E+03    0.12821E-04   -0.40353E-05  8424   0.751E-04 0.764E-04
CGA: 176    -0.665513834619E+03    0.12054E-04   -0.36429E-05  8424   0.727E-04 0.737E-04
CGA: 177    -0.665513823271E+03    0.11348E-04   -0.33109E-05  8424   0.705E-04 0.714E-04
CGA: 178    -0.665513812574E+03    0.10697E-04   -0.30262E-05  8424   0.687E-04 0.694E-04
CGA: 179    -0.665513802478E+03    0.10096E-04   -0.27797E-05  8424   0.671E-04 0.677E-04
CGA: 180    -0.665513792937E+03    0.95406E-05   -0.25653E-05  8424   0.656E-04 0.662E-04
   1 F= -.66551379E+03 E0= -.66551379E+03  d E =-.665514E+03  mag=    12.0000
       N       E                     dE             d eps       ncg     rms          ort
SDA:   1    -0.665535516406E+03   -0.21714E-01    0.00000E+00  8424   0.178E-01 0.000E+00
CGA:   2    -0.665539710812E+03   -0.41944E-02   -0.41844E-02  8424   0.759E-02 0.311E-03
CGA:   3    -0.665541110194E+03   -0.13994E-02   -0.14111E-02  8424   0.201E-02 0.530E-03
CGA:   4    -0.665541395903E+03   -0.28571E-03   -0.31249E-03  8424   0.477E-03 0.456E-03
CGA:   5    -0.665541446163E+03   -0.50259E-04   -0.70829E-04  8424   0.153E-03 0.258E-03
CGA:   6    -0.665541449379E+03   -0.32160E-05   -0.14578E-04  8424   0.921E-04 0.112E-03
   2 F= -.66554145E+03 E0= -.66554145E+03  d E =-.276564E-01  mag=    12.0000
       N       E                     dE             d eps       ncg     rms          ort
SDA:   1    -0.660004211270E+03    0.55372E+01    0.00000E+00  8424   0.179E+02 0.000E+00
CGA:   2    -0.664265120377E+03   -0.42609E+01   -0.42597E+01  8424   0.783E+01 0.150E-01
CGA:   3    -0.665768598662E+03   -0.15035E+01   -0.15035E+01  8424   0.220E+01-0.669E-02
CGA:   4    -0.666142168854E+03   -0.37357E+00   -0.37372E+00  8424   0.565E+00 0.743E-02
CGA:   5    -0.666237672769E+03   -0.95504E-01   -0.95555E-01  8424   0.115E+00 0.252E-02
CGA:   6    -0.666260905280E+03   -0.23233E-01   -0.23253E-01  8424   0.287E-01-0.129E-02
CGA:   7    -0.666267223764E+03   -0.63185E-02   -0.62858E-02  8424   0.902E-02 0.954E-03
CGA:   8    -0.666269357244E+03   -0.21335E-02   -0.20871E-02  8424   0.272E-02 0.132E-02
CGA:   9    -0.666269989928E+03   -0.63268E-03   -0.62333E-03  8424   0.929E-03 0.101E-02
CGA:  10    -0.666270154951E+03   -0.16502E-03   -0.19303E-03  8424   0.479E-03 0.708E-03
CGA:  11    -0.666270211820E+03   -0.56869E-04   -0.71075E-04  8424   0.293E-03 0.349E-03
CGA:  12    -0.666270228271E+03   -0.16451E-04   -0.34646E-04  8424   0.240E-03 0.264E-03
CGA:  13    -0.666270233092E+03   -0.48209E-05   -0.23767E-04  8424   0.210E-03 0.224E-03
CGA:  14    -0.666270232954E+03    0.13826E-06   -0.18254E-04  8424   0.189E-03 0.199E-03
CGA:  15    -0.666270230220E+03    0.27336E-05   -0.14791E-04  8424   0.174E-03 0.181E-03
CGA:  16    -0.666270226010E+03    0.42101E-05   -0.12381E-04  8424   0.162E-03 0.168E-03
CGA:  17    -0.666270220936E+03    0.50737E-05   -0.10599E-04  8424   0.153E-03 0.157E-03
   3 F= -.66627022E+03 E0= -.66627022E+03  d E =-.728772E+00  mag=    12.0000
       N       E                     dE             d eps       ncg     rms          ort
SDA:   1    -0.632175482070E+03    0.34095E+02    0.00000E+00  8424   0.984E+02 0.000E+00
CGA:   2    -0.656407545637E+03   -0.24232E+02   -0.24203E+02  8424   0.415E+02 0.284E+00
CGA:   3    -0.664304226269E+03   -0.78967E+01   -0.78990E+01  8424   0.116E+02-0.702E-01
CGA:   4    -0.666324302463E+03   -0.20201E+01   -0.20195E+01  8424   0.296E+01 0.287E-01
CGA:   5    -0.666817405061E+03   -0.49310E+00   -0.49305E+00  8424   0.614E+00 0.994E-02
CGA:   6    -0.666943348621E+03   -0.12594E+00   -0.12602E+00  8424   0.163E+00-0.195E-02
CGA:   7    -0.666981782850E+03   -0.38434E-01   -0.38389E-01  8424   0.587E-01 0.607E-03
CGA:   8    -0.666996784372E+03   -0.15002E-01   -0.14747E-01  8424   0.203E-01 0.306E-02
CGA:   9    -0.667002348666E+03   -0.55643E-02   -0.53673E-02  8424   0.690E-02 0.247E-02
CGA:  10    -0.667004420559E+03   -0.20719E-02   -0.19252E-02  8424   0.254E-02 0.201E-02
CGA:  11    -0.667005183101E+03   -0.76254E-03   -0.71374E-03  8424   0.999E-03 0.126E-02
CGA:  12    -0.667005426620E+03   -0.24352E-03   -0.25391E-03  8424   0.576E-03 0.889E-03
CGA:  13    -0.667005482774E+03   -0.56154E-04   -0.77801E-04  8424   0.418E-03 0.473E-03
CGA:  14    -0.667005503418E+03   -0.20644E-04   -0.46796E-04  8424   0.370E-03 0.392E-03
CGA:  15    -0.667005513654E+03   -0.10235E-04   -0.36990E-04  8424   0.342E-03 0.355E-03
CGA:  16    -0.667005518594E+03   -0.49405E-05   -0.31382E-04  8424   0.322E-03 0.332E-03
CGA:  17    -0.667005520306E+03   -0.17123E-05   -0.27525E-04  8424   0.307E-03 0.314E-03
CGA:  18    -0.667005519869E+03    0.43699E-06   -0.24615E-04  8424   0.295E-03 0.301E-03
CGA:  19    -0.667005517930E+03    0.19394E-05   -0.22298E-04  8424   0.285E-03 0.290E-03
CGA:  20    -0.667005514909E+03    0.30209E-05   -0.20385E-04  8424   0.276E-03 0.280E-03
CGA:  21    -0.667005511097E+03    0.38120E-05   -0.18765E-04  8424   0.269E-03 0.272E-03
CGA:  22    -0.667005506703E+03    0.43939E-05   -0.17367E-04  8424   0.262E-03 0.265E-03
CGA:  23    -0.667005501882E+03    0.48212E-05   -0.16144E-04  8424   0.256E-03 0.259E-03
CGA:  24    -0.667005496753E+03    0.51291E-05   -0.15062E-04  8424   0.251E-03 0.253E-03
CGA:  25    -0.667005491407E+03    0.53460E-05   -0.14097E-04  8424   0.246E-03 0.248E-03
CGA:  26    -0.667005485917E+03    0.54900E-05   -0.13230E-04  8424   0.242E-03 0.244E-03
CGA:  27    -0.667005480353E+03    0.55639E-05   -0.12458E-04  8424   0.238E-03 0.239E-03
CGA:  28    -0.667005474760E+03    0.55926E-05   -0.11759E-04  8424   0.234E-03 0.236E-03
CGA:  29    -0.667005469173E+03    0.55874E-05   -0.11120E-04  8424   0.231E-03 0.232E-03
CGA:  30    -0.667005463618E+03    0.55553E-05   -0.10533E-04  8424   0.228E-03 0.229E-03
   4 F= -.66700546E+03 E0= -.66700546E+03  d E =-.735243E+00  mag=    12.0000
       N       E                     dE             d eps       ncg     rms          ort
SDA:   1    -0.665900955237E+03    0.11045E+01    0.00000E+00  8424   0.329E+01 0.000E+00
CGA:   2    -0.666743362011E+03   -0.84241E+00   -0.84345E+00  8424   0.133E+01-0.745E-02
CGA:   3    -0.666999678386E+03   -0.25632E+00   -0.25605E+00  8424   0.389E+00 0.330E-02
CGA:   4    -0.667066502255E+03   -0.66824E-01   -0.66513E-01  8424   0.945E-01 0.604E-02
CGA:   5    -0.667082433635E+03   -0.15931E-01   -0.15838E-01  8424   0.194E-01 0.217E-02
CGA:   6    -0.667086418539E+03   -0.39849E-02   -0.39431E-02  8424   0.504E-02 0.559E-03
CGA:   7    -0.667087495304E+03   -0.10768E-02   -0.99889E-03  8424   0.158E-02 0.121E-02
CGA:   8    -0.667087776831E+03   -0.28153E-03   -0.27352E-03  8424   0.742E-03 0.106E-02
CGA:   9    -0.667087844292E+03   -0.67461E-04   -0.80742E-04  8424   0.491E-03 0.572E-03
CGA:  10    -0.667087867030E+03   -0.22738E-04   -0.42550E-04  8424   0.417E-03 0.448E-03
CGA:  11    -0.667087878593E+03   -0.11563E-04   -0.31936E-04  8424   0.373E-03 0.391E-03
CGA:  12    -0.667087884418E+03   -0.58248E-05   -0.25922E-04  8424   0.343E-03 0.355E-03
CGA:  13    -0.667087886777E+03   -0.23585E-05   -0.21897E-04  8424   0.320E-03 0.329E-03
CGA:  14    -0.667087886872E+03   -0.95566E-07   -0.18967E-04  8424   0.302E-03 0.310E-03
CGA:  15    -0.667087885426E+03    0.14458E-05   -0.16718E-04  8424   0.287E-03 0.294E-03
CGA:  16    -0.667087882906E+03    0.25205E-05   -0.14930E-04  8424   0.275E-03 0.281E-03
CGA:  17    -0.667087879628E+03    0.32778E-05   -0.13471E-04  8424   0.265E-03 0.270E-03
CGA:  18    -0.667087875817E+03    0.38113E-05   -0.12255E-04  8424   0.256E-03 0.260E-03
CGA:  19    -0.667087871634E+03    0.41828E-05   -0.11225E-04  8424   0.249E-03 0.252E-03
CGA:  20    -0.667087867199E+03    0.44349E-05   -0.10341E-04  8424   0.242E-03 0.245E-03
   5 F= -.66708787E+03 E0= -.66708787E+03  d E =-.824036E-01  mag=    12.0000
       N       E                     dE             d eps       ncg     rms          ort
SDA:   1    -0.663080196696E+03    0.40077E+01    0.00000E+00  8424   0.110E+02 0.000E+00
CGA:   2    -0.665998994425E+03   -0.29188E+01   -0.29224E+01  8424   0.472E+01-0.221E-01
CGA:   3    -0.666892717675E+03   -0.89372E+00   -0.89294E+00  8424   0.129E+01 0.851E-02
CGA:   4    -0.667113117589E+03   -0.22040E+00   -0.21981E+00  8424   0.311E+00 0.932E-02
CGA:   5    -0.667165459946E+03   -0.52342E-01   -0.52183E-01  8424   0.652E-01 0.283E-02
CGA:   6    -0.667178862889E+03   -0.13403E-01   -0.13357E-01  8424   0.168E-01 0.506E-03
CGA:   7    -0.667182725328E+03   -0.38624E-02   -0.37159E-02  8424   0.539E-02 0.146E-02
CGA:   8    -0.667183972522E+03   -0.12472E-02   -0.11245E-02  8424   0.185E-02 0.180E-02
CGA:   9    -0.667184361320E+03   -0.38880E-03   -0.36190E-03  8424   0.984E-03 0.139E-02
CGA:  10    -0.667184492460E+03   -0.13114E-03   -0.12897E-03  8424   0.646E-03 0.739E-03
CGA:  11    -0.667184551406E+03   -0.58946E-04   -0.70364E-04  8424   0.552E-03 0.592E-03
CGA:  12    -0.667184589284E+03   -0.37879E-04   -0.53588E-04  8424   0.495E-03 0.520E-03
CGA:  13    -0.667184615738E+03   -0.26454E-04   -0.44000E-04  8424   0.456E-03 0.474E-03
CGA:  14    -0.667184634915E+03   -0.19177E-04   -0.37536E-04  8424   0.427E-03 0.440E-03
CGA:  15    -0.667184649080E+03   -0.14165E-04   -0.32807E-04  8424   0.403E-03 0.414E-03
CGA:  16    -0.667184659622E+03   -0.10542E-04   -0.29166E-04  8424   0.385E-03 0.393E-03
CGA:  17    -0.667184667460E+03   -0.78382E-05   -0.26263E-04  8424   0.369E-03 0.376E-03
CGA:  18    -0.667184673233E+03   -0.57727E-05   -0.23885E-04  8424   0.355E-03 0.362E-03
CGA:  19    -0.667184677399E+03   -0.41657E-05   -0.21897E-04  8424   0.344E-03 0.349E-03
CGA:  20    -0.667184680298E+03   -0.28992E-05   -0.20207E-04  8424   0.334E-03 0.339E-03
CGA:  21    -0.667184682189E+03   -0.18908E-05   -0.18750E-04  8424   0.326E-03 0.330E-03
CGA:  22    -0.667184683272E+03   -0.10828E-05   -0.17481E-04  8424   0.318E-03 0.322E-03
CGA:  23    -0.667184683704E+03   -0.43248E-06   -0.16364E-04  8424   0.311E-03 0.314E-03
CGA:  24    -0.667184683612E+03    0.92579E-07   -0.15373E-04  8424   0.305E-03 0.308E-03
CGA:  25    -0.667184683094E+03    0.51719E-06   -0.14486E-04  8424   0.300E-03 0.302E-03
CGA:  26    -0.667184682234E+03    0.86080E-06   -0.13688E-04  8424   0.295E-03 0.297E-03
CGA:  27    -0.667184681095E+03    0.11386E-05   -0.12964E-04  8424   0.290E-03 0.293E-03
CGA:  28    -0.667184679732E+03    0.13629E-05   -0.12304E-04  8424   0.286E-03 0.288E-03
CGA:  29    -0.667184678189E+03    0.15429E-05   -0.11700E-04  8424   0.283E-03 0.284E-03
CGA:  30    -0.667184676503E+03    0.16865E-05   -0.11143E-04  8424   0.279E-03 0.281E-03
CGA:  31    -0.667184674703E+03    0.17997E-05   -0.10629E-04  8424   0.276E-03 0.278E-03
CGA:  32    -0.667184672815E+03    0.18878E-05   -0.10151E-04  8424   0.273E-03 0.275E-03
   6 F= -.66718467E+03 E0= -.66718467E+03  d E =-.968056E-01  mag=    12.0000
       N       E                     dE             d eps       ncg     rms          ort
SDA:   1    -0.666329698836E+03    0.85498E+00    0.00000E+00  8424   0.237E+01 0.000E+00
CGA:   2    -0.666942419263E+03   -0.61272E+00   -0.61239E+00  8424   0.124E+01 0.156E-02
CGA:   3    -0.667173130628E+03   -0.23071E+00   -0.23053E+00  8424   0.285E+00 0.156E-02
CGA:   4    -0.667220203412E+03   -0.47073E-01   -0.47036E-01  8424   0.690E-01 0.458E-03
CGA:   5    -0.667231914819E+03   -0.11711E-01   -0.11633E-01  8424   0.154E-01 0.104E-02
CGA:   6    -0.667234962795E+03   -0.30480E-02   -0.29132E-02  8424   0.370E-02 0.151E-02
CGA:   7    -0.667235751782E+03   -0.78899E-03   -0.70094E-03  8424   0.126E-02 0.125E-02
CGA:   8    -0.667235992827E+03   -0.24104E-03   -0.21797E-03  8424   0.709E-03 0.992E-03
CGA:   9    -0.667236070396E+03   -0.77569E-04   -0.76792E-04  8424   0.505E-03 0.568E-03
CGA:  10    -0.667236109164E+03   -0.38768E-04   -0.46096E-04  8424   0.443E-03 0.468E-03
CGA:  11    -0.667236135436E+03   -0.26272E-04   -0.36377E-04  8424   0.406E-03 0.421E-03
CGA:  12    -0.667236154918E+03   -0.19483E-04   -0.30830E-04  8424   0.380E-03 0.391E-03
CGA:  13    -0.667236170047E+03   -0.15128E-04   -0.27072E-04  8424   0.361E-03 0.369E-03
CGA:  14    -0.667236182128E+03   -0.12081E-04   -0.24287E-04  8424   0.346E-03 0.352E-03
CGA:  15    -0.667236191960E+03   -0.98316E-05   -0.22107E-04  8424   0.333E-03 0.339E-03
CGA:  16    -0.667236200070E+03   -0.81100E-05   -0.20335E-04  8424   0.323E-03 0.327E-03
CGA:  17    -0.667236206829E+03   -0.67597E-05   -0.18856E-04  8424   0.314E-03 0.318E-03
CGA:  18    -0.667236212509E+03   -0.56795E-05   -0.17595E-04  8424   0.306E-03 0.309E-03
CGA:  19    -0.667236217314E+03   -0.48046E-05   -0.16506E-04  8424   0.299E-03 0.302E-03
CGA:  20    -0.667236221401E+03   -0.40878E-05   -0.15552E-04  8424   0.293E-03 0.296E-03
CGA:  21    -0.667236224897E+03   -0.34955E-05   -0.14708E-04  8424   0.288E-03 0.290E-03
CGA:  22    -0.667236227899E+03   -0.30019E-05   -0.13954E-04  8424   0.283E-03 0.285E-03
CGA:  23    -0.667236230486E+03   -0.25873E-05   -0.13275E-04  8424   0.279E-03 0.281E-03
CGA:  24    -0.667236232723E+03   -0.22372E-05   -0.12659E-04  8424   0.275E-03 0.277E-03
CGA:  25    -0.667236234662E+03   -0.19392E-05   -0.12096E-04  8424   0.271E-03 0.273E-03
CGA:  26    -0.667236236347E+03   -0.16846E-05   -0.11579E-04  8424   0.268E-03 0.270E-03
CGA:  27    -0.667236237812E+03   -0.14653E-05   -0.11101E-04  8424   0.265E-03 0.267E-03
CGA:  28    -0.667236239089E+03   -0.12763E-05   -0.10657E-04  8424   0.263E-03 0.264E-03
CGA:  29    -0.667236240201E+03   -0.11120E-05   -0.10243E-04  8424   0.260E-03 0.261E-03
   7 F= -.66723624E+03 E0= -.66723624E+03  d E =-.515674E-01  mag=    12.0000
       N       E                     dE             d eps       ncg     rms          ort
SDA:   1    -0.654682468494E+03    0.12554E+02    0.00000E+00  8424   0.320E+02 0.000E+00
CGA:   2    -0.663353056219E+03   -0.86706E+01   -0.86526E+01  8424   0.171E+02 0.124E+00
CGA:   3    -0.666469430040E+03   -0.31164E+01   -0.31154E+01  8424   0.363E+01 0.465E-02
CGA:   4    -0.667077872398E+03   -0.60844E+00   -0.60940E+00  8424   0.910E+00-0.126E-01
CGA:   5    -0.667231690978E+03   -0.15382E+00   -0.15397E+00  8424   0.208E+00-0.205E-02
CGA:   6    -0.667273236545E+03   -0.41546E-01   -0.41011E-01  8424   0.517E-01 0.513E-02
CGA:   7    -0.667285166466E+03   -0.11930E-01   -0.11770E-01  8424   0.179E-01 0.129E-02
CGA:   8    -0.667289950772E+03   -0.47843E-02   -0.45960E-02  8424   0.683E-02 0.129E-02
CGA:   9    -0.667291985348E+03   -0.20346E-02   -0.18239E-02  8424   0.277E-02 0.153E-02
CGA:  10    -0.667293024409E+03   -0.10391E-02   -0.88189E-03  8424   0.142E-02 0.111E-02
CGA:  11    -0.667293497992E+03   -0.47358E-03   -0.39363E-03  8424   0.811E-03 0.112E-02
CGA:  12    -0.667293669871E+03   -0.17188E-03   -0.14376E-03  8424   0.532E-03 0.590E-03
CGA:  13    -0.667293800859E+03   -0.13099E-03   -0.10187E-03  8424   0.464E-03 0.490E-03
CGA:  14    -0.667293895963E+03   -0.95105E-04   -0.79148E-04  8424   0.433E-03 0.447E-03
CGA:  15    -0.667293985827E+03   -0.89864E-04   -0.74732E-04  8424   0.411E-03 0.421E-03
CGA:  16    -0.667294067522E+03   -0.81695E-04   -0.69441E-04  8424   0.394E-03 0.402E-03
CGA:  17    -0.667294144658E+03   -0.77136E-04   -0.66254E-04  8424   0.380E-03 0.386E-03
CGA:  18    -0.667294217567E+03   -0.72909E-04   -0.63388E-04  8424   0.367E-03 0.373E-03
CGA:  19    -0.667294287127E+03   -0.69560E-04   -0.61060E-04  8424   0.356E-03 0.362E-03
CGA:  20    -0.667294353736E+03   -0.66609E-04   -0.59000E-04  8424   0.346E-03 0.351E-03
CGA:  21    -0.667294417809E+03   -0.64073E-04   -0.57202E-04  8424   0.337E-03 0.342E-03
CGA:  22    -0.667294479639E+03   -0.61830E-04   -0.55593E-04  8424   0.329E-03 0.333E-03
CGA:  23    -0.667294539488E+03   -0.59849E-04   -0.54152E-04  8424   0.322E-03 0.325E-03
CGA:  24    -0.667294597580E+03   -0.58092E-04   -0.52859E-04  8424   0.315E-03 0.318E-03
CGA:  25    -0.667294654092E+03   -0.56512E-04   -0.51692E-04  8424   0.309E-03 0.311E-03
CGA:  26    -0.667294709174E+03   -0.55082E-04   -0.50635E-04  8424   0.303E-03 0.304E-03
CGA:  27    -0.667294762928E+03   -0.53754E-04   -0.49657E-04  8424   0.298E-03 0.298E-03
CGA:  28    -0.667294815600E+03   -0.52672E-04   -0.48816E-04  8424   0.292E-03 0.293E-03
CGA:  29    -0.667294867048E+03   -0.51448E-04   -0.47912E-04  8424   0.288E-03 0.287E-03
CGA:  30    -0.667294917720E+03   -0.50672E-04   -0.47269E-04  8424   0.285E-03 0.281E-03
CGA:  31    -0.667294965872E+03   -0.48152E-04   -0.45884E-04  8424   0.286E-03 0.273E-03
CGA:  32    -0.667295012797E+03   -0.46925E-04   -0.45438E-04  8424   0.295E-03 0.260E-03
CGA:  33    -0.667295053723E+03   -0.40927E-04   -0.42863E-04  8424   0.305E-03 0.242E-03
CGA:  34    -0.667295094765E+03   -0.41041E-04   -0.43427E-04  8424   0.314E-03 0.224E-03
CGA:  35    -0.667295131925E+03   -0.37160E-04   -0.41560E-04  8424   0.307E-03 0.216E-03
CGA:  36    -0.667295170769E+03   -0.38845E-04   -0.42023E-04  8424   0.304E-03 0.215E-03
CGA:  37    -0.667295208420E+03   -0.37651E-04   -0.41027E-04  8424   0.301E-03 0.213E-03
CGA:  38    -0.667295243754E+03   -0.35334E-04   -0.39388E-04  8424   0.299E-03 0.209E-03
CGA:  39    -0.667295280628E+03   -0.36874E-04   -0.39989E-04  8424   0.301E-03 0.202E-03
CGA:  40    -0.667295314027E+03   -0.33399E-04   -0.37950E-04  8424   0.286E-03 0.204E-03
CGA:  41    -0.667295352555E+03   -0.38528E-04   -0.40013E-04  8424   0.281E-03 0.208E-03
CGA:  42    -0.667295387447E+03   -0.34892E-04   -0.37629E-04  8424   0.266E-03 0.214E-03
CGA:  43    -0.667295427468E+03   -0.40021E-04   -0.39481E-04  8424   0.261E-03 0.218E-03
CGA:  44    -0.667295463524E+03   -0.36056E-04   -0.36998E-04  8424   0.252E-03 0.220E-03
CGA:  45    -0.667295503577E+03   -0.40054E-04   -0.38498E-04  8424   0.247E-03 0.221E-03
CGA:  46    -0.667295540445E+03   -0.36867E-04   -0.36568E-04  8424   0.241E-03 0.221E-03
CGA:  47    -0.667295580165E+03   -0.39720E-04   -0.37631E-04  8424   0.237E-03 0.221E-03
CGA:  48    -0.667295617798E+03   -0.37633E-04   -0.36301E-04  8424   0.233E-03 0.221E-03
CGA:  49    -0.667295657261E+03   -0.39463E-04   -0.36923E-04  8424   0.229E-03 0.220E-03
CGA:  50    -0.667295695400E+03   -0.38139E-04   -0.36030E-04  8424   0.225E-03 0.219E-03
CGA:  51    -0.667295734679E+03   -0.39279E-04   -0.36384E-04  8424   0.222E-03 0.217E-03
CGA:  52    -0.667295773079E+03   -0.38400E-04   -0.35774E-04  8424   0.219E-03 0.215E-03
CGA:  53    -0.667295812272E+03   -0.39193E-04   -0.36017E-04  8424   0.216E-03 0.213E-03
CGA:  54    -0.667295850804E+03   -0.38532E-04   -0.35563E-04  8424   0.214E-03 0.211E-03
CGA:  55    -0.667295890043E+03   -0.39239E-04   -0.35804E-04  8424   0.212E-03 0.209E-03
CGA:  56    -0.667295928656E+03   -0.38612E-04   -0.35399E-04  8424   0.209E-03 0.207E-03
CGA:  57    -0.667295968094E+03   -0.39438E-04   -0.35730E-04  8424   0.207E-03 0.205E-03
CGA:  58    -0.667296006732E+03   -0.38638E-04   -0.35267E-04  8424   0.205E-03 0.202E-03
CGA:  59    -0.667296046529E+03   -0.39797E-04   -0.35792E-04  8424   0.204E-03 0.200E-03
CGA:  60    -0.667296085109E+03   -0.38580E-04   -0.35151E-04  8424   0.202E-03 0.197E-03
CGA:  61    -0.667296125410E+03   -0.40301E-04   -0.35985E-04  8424   0.200E-03 0.195E-03
CGA:  62    -0.667296163836E+03   -0.38425E-04   -0.35046E-04  8424   0.199E-03 0.192E-03
CGA:  63    -0.667296204770E+03   -0.40935E-04   -0.36305E-04  8424   0.198E-03 0.189E-03
CGA:  64    -0.667296242966E+03   -0.38195E-04   -0.34965E-04  8424   0.196E-03 0.186E-03
CGA:  65    -0.667296284648E+03   -0.41683E-04   -0.36740E-04  8424   0.196E-03 0.183E-03
CGA:  66    -0.667296322585E+03   -0.37937E-04   -0.34923E-04  8424   0.194E-03 0.181E-03
CGA:  67    -0.667296365134E+03   -0.42549E-04   -0.37285E-04  8424   0.194E-03 0.177E-03
CGA:  68    -0.667296402814E+03   -0.37681E-04   -0.34929E-04  8424   0.192E-03 0.175E-03
CGA:  69    -0.667296446353E+03   -0.43539E-04   -0.37934E-04  8424   0.193E-03 0.172E-03
CGA:  70    -0.667296483772E+03   -0.37419E-04   -0.34973E-04  8424   0.191E-03 0.169E-03
CGA:  71    -0.667296528412E+03   -0.44640E-04   -0.38686E-04  8424   0.193E-03 0.166E-03
CGA:  72    -0.667296565524E+03   -0.37113E-04   -0.35043E-04  8424   0.189E-03 0.163E-03
CGA:  73    -0.667296611342E+03   -0.45818E-04   -0.39531E-04  8424   0.193E-03 0.159E-03
CGA:  74    -0.667296648061E+03   -0.36719E-04   -0.35124E-04  8424   0.188E-03 0.156E-03
CGA:  75    -0.667296695088E+03   -0.47027E-04   -0.40452E-04  8424   0.195E-03 0.153E-03
CGA:  76    -0.667296731314E+03   -0.36226E-04   -0.35210E-04  8424   0.187E-03 0.150E-03
CGA:  77    -0.667296779546E+03   -0.48232E-04   -0.41421E-04  8424   0.197E-03 0.146E-03
CGA:  78    -0.667296815208E+03   -0.35662E-04   -0.35299E-04  8424   0.187E-03 0.143E-03
CGA:  79    -0.667296864635E+03   -0.49428E-04   -0.42416E-04  8424   0.200E-03 0.139E-03
CGA:  80    -0.667296899714E+03   -0.35078E-04   -0.35395E-04  8424   0.186E-03 0.136E-03
CGA:  81    -0.667296950351E+03   -0.50637E-04   -0.43425E-04  8424   0.204E-03 0.132E-03
CGA:  82    -0.667296984864E+03   -0.34513E-04   -0.35501E-04  8424   0.185E-03 0.129E-03
CGA:  83    -0.667297036753E+03   -0.51888E-04   -0.44453E-04  8424   0.208E-03 0.125E-03
CGA:  84    -0.667297070743E+03   -0.33991E-04   -0.35622E-04  8424   0.183E-03 0.122E-03
CGA:  85    -0.667297123954E+03   -0.53210E-04   -0.45511E-04  8424   0.213E-03 0.118E-03
CGA:  86    -0.667297157477E+03   -0.33524E-04   -0.35766E-04  8424   0.181E-03 0.116E-03
CGA:  87    -0.667297212116E+03   -0.54639E-04   -0.46624E-04  8424   0.219E-03 0.112E-03
CGA:  88    -0.667297245241E+03   -0.33125E-04   -0.35944E-04  8424   0.179E-03 0.110E-03
CGA:  89    -0.667297301464E+03   -0.56222E-04   -0.47822E-04  8424   0.226E-03 0.106E-03
CGA:  90    -0.667297334273E+03   -0.32809E-04   -0.36174E-04  8424   0.176E-03 0.105E-03
CGA:  91    -0.667297432395E+03   -0.98122E-04   -0.74035E-04  8424   0.240E-03 0.248E-03
CGA:  92    -0.667297482044E+03   -0.49649E-04   -0.49194E-04  8424   0.245E-03 0.485E-04
CGA:  93    -0.667297627959E+03   -0.14592E-03   -0.10189E-03  8424   0.232E-03 0.291E-03
CGA:  94    -0.667297662097E+03   -0.34138E-04   -0.37696E-04  8424   0.173E-03 0.855E-04
CGA:  95    -0.667297784217E+03   -0.12212E-03   -0.85459E-04  8424   0.248E-03 0.228E-03
CGA:  96    -0.667297833909E+03   -0.49692E-04   -0.49902E-04  8424   0.246E-03 0.257E-04
CGA:  97    -0.667298023410E+03   -0.18950E-03   -0.12313E-03  8424   0.237E-03 0.267E-03
CGA:  98    -0.667298059816E+03   -0.36406E-04   -0.39807E-04  8424   0.175E-03 0.632E-04
CGA:  99    -0.667298247213E+03   -0.18740E-03   -0.11866E-03  8424   0.255E-03 0.213E-03
CGA: 100    -0.667298297151E+03   -0.49938E-04   -0.50254E-04  8424   0.238E-03 0.789E-05
CGA: 101    -0.667298587052E+03   -0.28990E-03   -0.17567E-03  8424   0.245E-03 0.228E-03
CGA: 102    -0.667298635884E+03   -0.48832E-04   -0.50402E-04  8424   0.205E-03 0.300E-04
CGA: 103    -0.667298908877E+03   -0.27299E-03   -0.19883E-03  8424   0.530E-03 0.113E-03
CGA: 104    -0.667299028950E+03   -0.12007E-03   -0.12158E-03  8424   0.159E-03 0.265E-04
CGA: 105    -0.667299055301E+03   -0.26352E-04   -0.38382E-04  8424   0.356E-02-0.183E-03
CGA: 106    -0.667299497134E+03   -0.44183E-03   -0.47625E-03  8424   0.476E-03 0.896E-04
CGA: 107    -0.667299659472E+03   -0.16234E-03   -0.15904E-03  8424   0.177E-03-0.208E-04
CGA: 108    -0.667299142079E+03    0.51739E-03   -0.30797E-03  8424   0.897E-02-0.423E-03
CGA: 109    -0.667300524487E+03   -0.13824E-02   -0.14851E-02  8424   0.827E-03 0.148E-03
CGA: 110    -0.667300791734E+03   -0.26725E-03   -0.24080E-03  8424   0.353E-03-0.479E-04
CGA: 111    -0.667300911927E+03   -0.12019E-03   -0.94927E-04  8424   0.245E-03-0.486E-04
CGA: 112    -0.667301081796E+03   -0.16987E-03   -0.37490E-03  8424   0.323E-02-0.228E-03
CGA: 113    -0.667301790551E+03   -0.70876E-03   -0.60665E-03  8424   0.686E-03-0.160E-03
CGA: 114    -0.667301937360E+03   -0.14681E-03   -0.15063E-03  8424   0.200E-03 0.576E-05
CGA: 115    -0.667302067197E+03   -0.12984E-03   -0.12062E-03  8424   0.439E-03-0.528E-04
CGA: 116    -0.667302593975E+03   -0.52678E-03    0.24032E-02  8424   0.115E-02-0.148E-03
CGA: 117    -0.667304639941E+03   -0.20460E-02    0.40668E-03  8424   0.270E-02 0.264E-03
CGA: 118    -0.667311606109E+03   -0.69662E-02    0.35835E-02  8424   0.718E-02-0.203E-03
CGA: 119    -0.667333579956E+03   -0.21974E-01    0.22560E-02  8424   0.213E-01-0.102E-01
CGA: 120    -0.667337616086E+03   -0.40361E-02   -0.43017E-02  8424   0.651E-02 0.391E-03
CGA: 121    -0.667339058076E+03   -0.14420E-02   -0.16223E-02  8424   0.921E-03 0.362E-03
CGA: 122    -0.667339224551E+03   -0.16647E-03   -0.24215E-03  8424   0.289E-03 0.158E-03
CGA: 123    -0.667339164571E+03    0.59980E-04   -0.61630E-04  8424   0.213E-03 0.215E-03
CGA: 124    -0.667339123322E+03    0.41250E-04   -0.41783E-04  8424   0.175E-03 0.136E-03
CGA: 125    -0.667339089855E+03    0.33467E-04   -0.37848E-04  8424   0.156E-03 0.126E-03
CGA: 126    -0.667339057373E+03    0.32482E-04   -0.29502E-04  8424   0.127E-03 0.106E-03
CGA: 127    -0.667339026266E+03    0.31108E-04   -0.22259E-04  8424   0.114E-03 0.102E-03
CGA: 128    -0.667339003128E+03    0.23137E-04   -0.18458E-04  8424   0.101E-03 0.899E-04
CGA: 129    -0.667338973137E+03    0.29991E-04   -0.14870E-04  8424   0.999E-04 0.801E-04
CGA: 130    -0.667338947255E+03    0.25882E-04   -0.14293E-04  8424   0.992E-04 0.780E-04
CGA: 131    -0.667338923749E+03    0.23506E-04   -0.13878E-04  8424   0.865E-04 0.721E-04
CGA: 132    -0.667338903481E+03    0.20268E-04   -0.10939E-04  8424   0.737E-04 0.690E-04
CGA: 133    -0.667338886412E+03    0.17069E-04   -0.82137E-05  8424   0.651E-04 0.671E-04
CGA: 134    -0.667338870013E+03    0.16399E-04   -0.64506E-05  8424   0.614E-04 0.624E-04
CGA: 135    -0.667338854579E+03    0.15433E-04   -0.56568E-05  8424   0.585E-04 0.595E-04
CGA: 136    -0.667338839975E+03    0.14604E-04   -0.50366E-05  8424   0.567E-04 0.574E-04
CGA: 137    -0.667338826179E+03    0.13796E-04   -0.46124E-05  8424   0.552E-04 0.558E-04
CGA: 138    -0.667338813124E+03    0.13055E-04   -0.42528E-05  8424   0.539E-04 0.544E-04
CGA: 139    -0.667338800755E+03    0.12369E-04   -0.39532E-05  8424   0.529E-04 0.534E-04
CGA: 140    -0.667338789026E+03    0.11728E-04   -0.36974E-05  8424   0.521E-04 0.525E-04
CGA: 141    -0.667338777897E+03    0.11129E-04   -0.34702E-05  8424   0.513E-04 0.517E-04
CGA: 142    -0.667338767329E+03    0.10568E-04   -0.32662E-05  8424   0.506E-04 0.510E-04
CGA: 143    -0.667338757288E+03    0.10041E-04   -0.30804E-05  8424   0.500E-04 0.503E-04
CGA: 144    -0.667338747743E+03    0.95456E-05   -0.29101E-05  8424   0.495E-04 0.497E-04
   8 F= -.66733875E+03 E0= -.66733875E+03  d E =-.102508E+00  mag=    12.0000
       N       E                     dE             d eps       ncg     rms          ort
SDA:   1    -0.655912186489E+03    0.11427E+02    0.00000E+00  8424   0.308E+02 0.000E+00
CGA:   2    -0.663459555714E+03   -0.75474E+01   -0.75494E+01  8424   0.152E+02 0.241E-01
CGA:   3    -0.666438205431E+03   -0.29786E+01   -0.29784E+01  8424   0.394E+01 0.221E-02
CGA:   4    -0.667076830969E+03   -0.63863E+00   -0.63866E+00  8424   0.940E+00-0.128E-02
CGA:   5    -0.667237409984E+03   -0.16058E+00   -0.16057E+00  8424   0.205E+00-0.922E-03
CGA:   6    -0.667278584713E+03   -0.41175E-01   -0.41230E-01  8424   0.504E-01 0.108E-02
CGA:   7    -0.667289722191E+03   -0.11137E-01   -0.11184E-01  8424   0.161E-01 0.114E-02
CGA:   8    -0.667293817303E+03   -0.40951E-02   -0.41034E-02  8424   0.590E-02 0.728E-03
CGA:   9    -0.667295589002E+03   -0.17717E-02   -0.17597E-02  8424   0.245E-02 0.494E-03
CGA:  10    -0.667296410543E+03   -0.82154E-03   -0.80289E-03  8424   0.118E-02 0.467E-03
CGA:  11    -0.667296782987E+03   -0.37244E-03   -0.37210E-03  8424   0.531E-03 0.489E-03
CGA:  12    -0.667296930652E+03   -0.14766E-03   -0.16605E-03  8424   0.334E-03 0.429E-03
CGA:  13    -0.667297010889E+03   -0.80237E-04   -0.83018E-04  8424   0.214E-03 0.214E-03
CGA:  14    -0.667297046673E+03   -0.35784E-04   -0.45382E-04  8424   0.185E-03 0.193E-03
CGA:  15    -0.667297075741E+03   -0.29068E-04   -0.38325E-04  8424   0.171E-03 0.179E-03
CGA:  16    -0.667297098915E+03   -0.23174E-04   -0.33363E-04  8424   0.161E-03 0.167E-03
CGA:  17    -0.667297117683E+03   -0.18768E-04   -0.29640E-04  8424   0.152E-03 0.158E-03
CGA:  18    -0.667297134177E+03   -0.16494E-04   -0.27233E-04  8424   0.146E-03 0.150E-03
CGA:  19    -0.667297147656E+03   -0.13479E-04   -0.24617E-04  8424   0.140E-03 0.144E-03
CGA:  20    -0.667297159740E+03   -0.12084E-04   -0.22941E-04  8424   0.135E-03 0.138E-03
CGA:  21    -0.667297169855E+03   -0.10115E-04   -0.21080E-04  8424   0.130E-03 0.133E-03
CGA:  22    -0.667297179024E+03   -0.91683E-05   -0.19819E-04  8424   0.127E-03 0.129E-03
CGA:  23    -0.667297186853E+03   -0.78296E-05   -0.18436E-04  8424   0.123E-03 0.125E-03
CGA:  24    -0.667297194073E+03   -0.72201E-05   -0.17482E-04  8424   0.120E-03 0.122E-03
CGA:  25    -0.667297200297E+03   -0.62239E-05   -0.16392E-04  8424   0.117E-03 0.119E-03
CGA:  26    -0.667297206206E+03   -0.59089E-05   -0.15689E-04  8424   0.115E-03 0.116E-03
CGA:  27    -0.667297211240E+03   -0.50340E-05   -0.14750E-04  8424   0.113E-03 0.114E-03
CGA:  28    -0.667297216322E+03   -0.50817E-05   -0.14307E-04  8424   0.111E-03 0.112E-03
CGA:  29    -0.667297220326E+03   -0.40040E-05   -0.13336E-04  8424   0.109E-03 0.110E-03
CGA:  30    -0.667297225096E+03   -0.47705E-05   -0.13311E-04  8424   0.108E-03 0.108E-03
CGA:  31    -0.667297227982E+03   -0.28860E-05   -0.11990E-04  8424   0.107E-03 0.106E-03
CGA:  32    -0.667297232815E+03   -0.48325E-05   -0.12602E-04  8424   0.106E-03 0.104E-03
CGA:  33    -0.667297234767E+03   -0.19520E-05   -0.10834E-04  8424   0.105E-03 0.102E-03
CGA:  34    -0.667297239383E+03   -0.46158E-05   -0.11845E-04  8424   0.104E-03 0.101E-03
CGA:  35    -0.667297241225E+03   -0.18426E-05   -0.10168E-04  8424   0.102E-03 0.100E-03
CGA:  36    -0.667297245094E+03   -0.38689E-05   -0.10872E-04  8424   0.101E-03 0.996E-04
   9 F= -.66729725E+03 E0= -.66729725E+03  d E =0.415026E-01  mag=    12.0000
       N       E                     dE             d eps       ncg     rms          ort
SDA:   1    -0.663016175747E+03    0.42811E+01    0.00000E+00  8424   0.117E+02 0.000E+00
CGA:   2    -0.665999999629E+03   -0.29838E+01   -0.29833E+01  8424   0.574E+01 0.457E-02
CGA:   3    -0.667083516866E+03   -0.10835E+01   -0.10836E+01  8424   0.140E+01-0.295E-02
CGA:   4    -0.667316145043E+03   -0.23263E+00   -0.23265E+00  8424   0.343E+00 0.181E-02
CGA:   5    -0.667375019993E+03   -0.58875E-01   -0.58879E-01  8424   0.722E-01 0.128E-02
CGA:   6    -0.667389596902E+03   -0.14577E-01   -0.14572E-01  8424   0.171E-01 0.180E-03
CGA:   7    -0.667393526513E+03   -0.39296E-02   -0.39042E-02  8424   0.548E-02 0.487E-03
CGA:   8    -0.667394865773E+03   -0.13393E-02   -0.13050E-02  8424   0.181E-02 0.634E-03
CGA:   9    -0.667395335939E+03   -0.47017E-03   -0.44527E-03  8424   0.687E-03 0.624E-03
CGA:  10    -0.667395497744E+03   -0.16180E-03   -0.16419E-03  8424   0.375E-03 0.498E-03
CGA:  11    -0.667395554937E+03   -0.57193E-04   -0.61833E-04  8424   0.229E-03 0.265E-03
CGA:  12    -0.667395573302E+03   -0.18365E-04   -0.29460E-04  8424   0.195E-03 0.210E-03
CGA:  13    -0.667395583212E+03   -0.99103E-05   -0.22109E-04  8424   0.177E-03 0.186E-03
CGA:  14    -0.667395588975E+03   -0.57627E-05   -0.18167E-04  8424   0.164E-03 0.170E-03
CGA:  15    -0.667395592300E+03   -0.33257E-05   -0.15598E-04  8424   0.155E-03 0.159E-03
CGA:  16    -0.667395594040E+03   -0.17400E-05   -0.13743E-04  8424   0.148E-03 0.151E-03
CGA:  17    -0.667395594688E+03   -0.64776E-06   -0.12319E-04  8424   0.142E-03 0.145E-03
CGA:  18    -0.667395594555E+03    0.13264E-06   -0.11180E-04  8424   0.137E-03 0.139E-03
CGA:  19    -0.667395593852E+03    0.70304E-06   -0.10241E-04  8424   0.133E-03 0.135E-03
  10 F= -.66739559E+03 E0= -.66739559E+03  d E =-.983488E-01  mag=    12.0000
       N       E                     dE             d eps       ncg     rms          ort
SDA:   1    -0.666062584679E+03    0.13330E+01    0.00000E+00  8424   0.340E+01 0.000E+00
CGA:   2    -0.667026870347E+03   -0.96429E+00   -0.96471E+00  8424   0.173E+01-0.338E-02
CGA:   3    -0.667336186229E+03   -0.30932E+00   -0.30929E+00  8424   0.377E+00 0.731E-03
CGA:   4    -0.667398671787E+03   -0.62486E-01   -0.62468E-01  8424   0.909E-01 0.166E-02
CGA:   5    -0.667414301432E+03   -0.15630E-01   -0.15617E-01  8424   0.195E-01 0.833E-03
CGA:   6    -0.667418306475E+03   -0.40050E-02   -0.39923E-02  8424   0.468E-02 0.274E-03
CGA:   7    -0.667419379394E+03   -0.10729E-02   -0.10560E-02  8424   0.151E-02 0.267E-03
CGA:   8    -0.667419740498E+03   -0.36110E-03   -0.34083E-03  8424   0.544E-03 0.396E-03
CGA:   9    -0.667419858893E+03   -0.11840E-03   -0.11665E-03  8424   0.284E-03 0.362E-03
CGA:  10    -0.667419904864E+03   -0.45971E-04   -0.46359E-04  8424   0.179E-03 0.200E-03
CGA:  11    -0.667419925628E+03   -0.20764E-04   -0.24965E-04  8424   0.153E-03 0.164E-03
CGA:  12    -0.667419938936E+03   -0.13308E-04   -0.19044E-04  8424   0.139E-03 0.145E-03
CGA:  13    -0.667419948645E+03   -0.97083E-05   -0.15988E-04  8424   0.129E-03 0.134E-03
CGA:  14    -0.667419956005E+03   -0.73607E-05   -0.13907E-04  8424   0.122E-03 0.125E-03
CGA:  15    -0.667419961746E+03   -0.57405E-05   -0.12385E-04  8424   0.117E-03 0.119E-03
CGA:  16    -0.667419966305E+03   -0.45590E-05   -0.11205E-04  8424   0.112E-03 0.114E-03
CGA:  17    -0.667419969971E+03   -0.36665E-05   -0.10257E-04  8424   0.108E-03 0.110E-03
  11 F= -.66741997E+03 E0= -.66741997E+03  d E =-.243761E-01  mag=    12.0000
       N       E                     dE             d eps       ncg     rms          ort
SDA:   1    -0.662693598119E+03    0.47264E+01    0.00000E+00  8424   0.118E+02 0.000E+00
CGA:   2    -0.665994354673E+03   -0.33008E+01   -0.33020E+01  8424   0.630E+01-0.952E-02
CGA:   3    -0.667136128643E+03   -0.11418E+01   -0.11416E+01  8424   0.135E+01 0.389E-02
CGA:   4    -0.667352390638E+03   -0.21626E+00   -0.21625E+00  8424   0.319E+00 0.120E-02
CGA:   5    -0.667407400742E+03   -0.55010E-01   -0.55000E-01  8424   0.688E-01 0.500E-03
CGA:   6    -0.667421566699E+03   -0.14166E-01   -0.14133E-01  8424   0.168E-01 0.651E-03
CGA:   7    -0.667425275860E+03   -0.37092E-02   -0.36985E-02  8424   0.506E-02 0.172E-03
CGA:   8    -0.667426558963E+03   -0.12831E-02   -0.12536E-02  8424   0.171E-02 0.346E-03
CGA:   9    -0.667427022861E+03   -0.46390E-03   -0.43163E-03  8424   0.631E-03 0.450E-03
CGA:  10    -0.667427232670E+03   -0.20981E-03   -0.18829E-03  8424   0.326E-03 0.315E-03
CGA:  11    -0.667427333390E+03   -0.10072E-03   -0.94565E-04  8424   0.191E-03 0.279E-03
CGA:  12    -0.667427363228E+03   -0.29839E-04   -0.31182E-04  8424   0.131E-03 0.146E-03
CGA:  13    -0.667427382401E+03   -0.19173E-04   -0.20826E-04  8424   0.117E-03 0.123E-03
CGA:  14    -0.667427395230E+03   -0.12828E-04   -0.16360E-04  8424   0.110E-03 0.113E-03
CGA:  15    -0.667427406039E+03   -0.10809E-04   -0.14684E-04  8424   0.105E-03 0.107E-03
CGA:  16    -0.667427415441E+03   -0.94018E-05   -0.13500E-04  8424   0.102E-03 0.103E-03
CGA:  17    -0.667427423860E+03   -0.84185E-05   -0.12624E-04  8424   0.988E-04 0.100E-03
CGA:  18    -0.667427431537E+03   -0.76774E-05   -0.11927E-04  8424   0.965E-04 0.976E-04
CGA:  19    -0.667427438630E+03   -0.70933E-05   -0.11347E-04  8424   0.946E-04 0.955E-04
CGA:  20    -0.667427445248E+03   -0.66177E-05   -0.10849E-04  8424   0.929E-04 0.937E-04
CGA:  21    -0.667427451470E+03   -0.62216E-05   -0.10412E-04  8424   0.914E-04 0.921E-04
CGA:  22    -0.667427457354E+03   -0.58849E-05   -0.10022E-04  8424   0.900E-04 0.907E-04
  12 F= -.66742746E+03 E0= -.66742746E+03  d E =-.748738E-02  mag=    12.0000
       N       E                     dE             d eps       ncg     rms          ort
SDA:   1    -0.639696171955E+03    0.27731E+02    0.00000E+00  8424   0.820E+02 0.000E+00
CGA:   2    -0.656996797713E+03   -0.17301E+02   -0.17243E+02  8424   0.360E+02 0.788E+00
CGA:   3    -0.664674600867E+03   -0.76778E+01   -0.76860E+01  8424   0.106E+02-0.124E+00
CGA:   4    -0.666415393737E+03   -0.17408E+01   -0.17407E+01  8424   0.253E+01 0.270E-02
CGA:   5    -0.666840228116E+03   -0.42483E+00   -0.42474E+00  8424   0.531E+00 0.672E-02
CGA:   6    -0.666948933599E+03   -0.10871E+00   -0.10868E+00  8424   0.128E+00 0.549E-03
CGA:   7    -0.666977613281E+03   -0.28680E-01   -0.28531E-01  8424   0.401E-01 0.231E-02
CGA:   8    -0.666987738229E+03   -0.10125E-01   -0.10079E-01  8424   0.133E-01 0.531E-03
CGA:   9    -0.666991665129E+03   -0.39269E-02   -0.40048E-02  8424   0.564E-02-0.605E-03
CGA:  10    -0.666993286935E+03   -0.16218E-02   -0.15773E-02  8424   0.230E-02 0.369E-03
CGA:  11    -0.666994092600E+03   -0.80566E-03   -0.81031E-03  8424   0.104E-02-0.341E-04
CGA:  12    -0.666994419509E+03   -0.32691E-03   -0.30292E-03  8424   0.526E-03 0.217E-03
CGA:  13    -0.666994761473E+03   -0.34196E-03   -0.35790E-03  8424   0.806E-03-0.494E-04
CGA:  14    -0.666995153457E+03   -0.39198E-03   -0.36906E-03  8424   0.107E-02 0.562E-04
CGA:  15    -0.666995753816E+03   -0.60036E-03   -0.58666E-03  8424   0.119E-02-0.394E-05
CGA:  16    -0.666996330534E+03   -0.57672E-03   -0.66664E-03  8424   0.142E-02-0.372E-03
CGA:  17    -0.666996692852E+03   -0.36232E-03   -0.40386E-03  8424   0.131E-02-0.388E-03
CGA:  18    -0.666996863319E+03   -0.17047E-03   -0.65626E-03  8424   0.282E-02-0.133E-02
CGA:  19    -0.666997575171E+03   -0.71185E-03   -0.72202E-03  8424   0.916E-03 0.343E-03
CGA:  20    -0.666997856286E+03   -0.28112E-03   -0.28268E-03  8424   0.545E-03 0.177E-03
CGA:  21    -0.666998060381E+03   -0.20410E-03   -0.19732E-03  8424   0.306E-03 0.335E-03
CGA:  22    -0.666998136153E+03   -0.75771E-04   -0.79834E-04  8424   0.181E-03 0.172E-03
CGA:  23    -0.666998237732E+03   -0.10158E-03   -0.85113E-04  8424   0.237E-03 0.872E-04
CGA:  24    -0.666998278964E+03   -0.41232E-04   -0.67573E-04  8424   0.105E-03 0.261E-03
CGA:  25    -0.666998287175E+03   -0.82116E-05   -0.18298E-04  8424   0.854E-04 0.883E-04
CGA:  26    -0.666998303782E+03   -0.16607E-04   -0.20206E-04  8424   0.755E-04 0.793E-04
CGA:  27    -0.666998309471E+03   -0.56888E-05   -0.13230E-04  8424   0.694E-04 0.719E-04
CGA:  28    -0.666998317540E+03   -0.80692E-05   -0.13446E-04  8424   0.636E-04 0.663E-04
CGA:  29    -0.666998321406E+03   -0.38661E-05   -0.10425E-04  8424   0.593E-04 0.613E-04
  13 F= -.66699832E+03 E0= -.66699832E+03  d E =0.429136E+00  mag=    12.0000
       N       E                     dE             d eps       ncg     rms          ort
SDA:   1    -0.656583663717E+03    0.10415E+02    0.00000E+00  8424   0.360E+02 0.000E+00
CGA:   2    -0.663396791052E+03   -0.68131E+01   -0.68467E+01  8424   0.139E+02 0.973E-01
CGA:   3    -0.666408701660E+03   -0.30119E+01   -0.30092E+01  8424   0.443E+01-0.252E-01
CGA:   4    -0.667165155940E+03   -0.75645E+00   -0.75723E+00  8424   0.115E+01 0.240E-02
CGA:   5    -0.667357626789E+03   -0.19247E+00   -0.19279E+00  8424   0.237E+00 0.227E-02
CGA:   6    -0.667404876729E+03   -0.47250E-01   -0.47214E-01  8424   0.544E-01-0.714E-03
CGA:   7    -0.667417098642E+03   -0.12222E-01   -0.12239E-01  8424   0.166E-01 0.940E-03
CGA:   8    -0.667421023367E+03   -0.39247E-02   -0.39323E-02  8424   0.486E-02 0.766E-03
CGA:   9    -0.667422334232E+03   -0.13109E-02   -0.13048E-02  8424   0.166E-02 0.436E-03
CGA:  10    -0.667422758794E+03   -0.42456E-03   -0.42825E-03  8424   0.672E-03 0.533E-03
CGA:  11    -0.667422943695E+03   -0.18490E-03   -0.19405E-03  8424   0.311E-03 0.378E-03
CGA:  12    -0.667422993957E+03   -0.50262E-04   -0.59795E-04  8424   0.175E-03 0.193E-03
CGA:  13    -0.667423002073E+03   -0.81159E-05   -0.24172E-04  8424   0.148E-03 0.159E-03
CGA:  14    -0.667423006504E+03   -0.44309E-05   -0.19175E-04  8424   0.134E-03 0.141E-03
CGA:  15    -0.667423007304E+03   -0.80022E-06   -0.15472E-04  8424   0.125E-03 0.129E-03
CGA:  16    -0.667423006378E+03    0.92638E-06   -0.13252E-04  8424   0.118E-03 0.121E-03
CGA:  17    -0.667423004366E+03    0.20120E-05   -0.11634E-04  8424   0.112E-03 0.115E-03
CGA:  18    -0.667423001648E+03    0.27175E-05   -0.10386E-04  8424   0.108E-03 0.110E-03
  14 F= -.66742300E+03 E0= -.66742300E+03  d E =-.424680E+00  mag=    12.0000
       N       E                     dE             d eps       ncg     rms          ort
SDA:   1    -0.666971691062E+03    0.45131E+00    0.00000E+00  8424   0.139E+01 0.000E+00
CGA:   2    -0.667275057213E+03   -0.30337E+00   -0.30334E+00  8424   0.635E+00 0.930E-03
CGA:   3    -0.667405219513E+03   -0.13016E+00   -0.13016E+00  8424   0.184E+00-0.114E-03
CGA:   4    -0.667435275561E+03   -0.30056E-01   -0.30083E-01  8424   0.438E-01 0.694E-03
CGA:   5    -0.667442674301E+03   -0.73987E-02   -0.74153E-02  8424   0.890E-02 0.536E-03
CGA:   6    -0.667444487184E+03   -0.18129E-02   -0.18121E-02  8424   0.215E-02 0.187E-03
CGA:   7    -0.667444943534E+03   -0.45635E-03   -0.45397E-03  8424   0.663E-03 0.258E-03
CGA:   8    -0.667445082568E+03   -0.13903E-03   -0.14108E-03  8424   0.250E-03 0.258E-03
CGA:   9    -0.667445121314E+03   -0.38746E-04   -0.49958E-04  8424   0.152E-03 0.209E-03
CGA:  10    -0.667445133530E+03   -0.12215E-04   -0.19954E-04  8424   0.110E-03 0.122E-03
CGA:  11    -0.667445138350E+03   -0.48206E-05   -0.12708E-04  8424   0.986E-04 0.103E-03
CGA:  12    -0.667445141052E+03   -0.27018E-05   -0.10476E-04  8424   0.921E-04 0.950E-04
  15 F= -.66744514E+03 E0= -.66744514E+03  d E =-.221394E-01  mag=    12.0000
       N       E                     dE             d eps       ncg     rms          ort
SDA:   1    -0.666275359429E+03    0.11698E+01    0.00000E+00  8424   0.320E+01 0.000E+00
CGA:   2    -0.667056385518E+03   -0.78103E+00   -0.78094E+00  8424   0.160E+01 0.683E-03
CGA:   3    -0.667366529420E+03   -0.31014E+00   -0.31016E+00  8424   0.405E+00-0.116E-02
CGA:   4    -0.667432475902E+03   -0.65946E-01   -0.65969E-01  8424   0.959E-01 0.106E-02
CGA:   5    -0.667448705792E+03   -0.16230E-01   -0.16240E-01  8424   0.198E-01 0.708E-03
CGA:   6    -0.667452793821E+03   -0.40880E-02   -0.40888E-02  8424   0.485E-02-0.374E-04
CGA:   7    -0.667453878758E+03   -0.10849E-02   -0.10822E-02  8424   0.155E-02 0.673E-04
CGA:   8    -0.667454265195E+03   -0.38644E-03   -0.38014E-03  8424   0.549E-03 0.108E-03
CGA:   9    -0.667454425031E+03   -0.15984E-03   -0.15082E-03  8424   0.239E-03 0.130E-03
CGA:  10    -0.667454509250E+03   -0.84219E-04   -0.75957E-04  8424   0.147E-03 0.124E-03
CGA:  11    -0.667454568305E+03   -0.59055E-04   -0.52810E-04  8424   0.114E-03 0.377E-04
CGA:  12    -0.667454626428E+03   -0.58123E-04   -0.46169E-04  8424   0.889E-04 0.993E-04
CGA:  13    -0.667454668074E+03   -0.41646E-04   -0.33201E-04  8424   0.663E-04 0.508E-04
CGA:  14    -0.667454688058E+03   -0.19984E-04   -0.17443E-04  8424   0.600E-04 0.549E-04
CGA:  15    -0.667454805492E+03   -0.11743E-03   -0.40206E-04  8424   0.369E-03 0.229E-04
CGA:  16    -0.667454989503E+03   -0.18401E-03   -0.19094E-03  8424   0.131E-03 0.250E-03
CGA:  17    -0.667455040361E+03   -0.50858E-04   -0.43140E-04  8424   0.325E-03-0.114E-03
CGA:  18    -0.667455053278E+03   -0.12917E-04   -0.32710E-04  8424   0.416E-04 0.674E-04
CGA:  19    -0.667455056490E+03   -0.32116E-05   -0.87183E-05  8424   0.549E-04 0.265E-04
CGA:  20    -0.667455101052E+03   -0.44563E-04    0.10462E-03  8424   0.135E-03-0.541E-05
CGA:  21    -0.667455199778E+03   -0.98726E-04    0.24462E-03  8424   0.161E-03 0.115E-03
CGA:  22    -0.667455203598E+03   -0.38198E-05   -0.15965E-04  8424   0.339E-04 0.448E-04
  16 F= -.66745520E+03 E0= -.66745520E+03  d E =-.100625E-01  mag=    12.0000
       N       E                     dE             d eps       ncg     rms          ort
SDA:   1    -0.665870981156E+03    0.15842E+01    0.00000E+00  8424   0.390E+01 0.000E+00
CGA:   2    -0.666986001787E+03   -0.11150E+01   -0.11149E+01  8424   0.208E+01-0.154E-02
CGA:   3    -0.667355105028E+03   -0.36910E+00   -0.36917E+00  8424   0.435E+00 0.121E-03
CGA:   4    -0.667426650541E+03   -0.71546E-01   -0.71637E-01  8424   0.104E+00 0.439E-03
CGA:   5    -0.667444368721E+03   -0.17718E-01   -0.17738E-01  8424   0.225E-01 0.105E-03
CGA:   6    -0.667449041916E+03   -0.46732E-02   -0.46493E-02  8424   0.541E-02-0.213E-03
CGA:   7    -0.667450305597E+03   -0.12637E-02   -0.12478E-02  8424   0.180E-02-0.195E-03
CGA:   8    -0.667450787416E+03   -0.48182E-03   -0.47560E-03  8424   0.759E-03-0.171E-03
CGA:   9    -0.667451036713E+03   -0.24930E-03   -0.27593E-03  8424   0.643E-03-0.288E-03
CGA:  10    -0.667450687394E+03    0.34932E-03   -0.39957E-03  8424   0.380E-02-0.109E-02
CGA:  11    -0.667451437360E+03   -0.74997E-03   -0.72927E-03  8424   0.734E-03-0.133E-03
CGA:  12    -0.667451738107E+03   -0.30075E-03   -0.32553E-03  8424   0.508E-03-0.208E-03
CGA:  13    -0.667451156925E+03    0.58118E-03   -0.46508E-03  8424   0.642E-02-0.112E-02
CGA:  14    -0.667452021940E+03   -0.86501E-03   -0.90149E-03  8424   0.809E-03 0.155E-03
CGA:  15    -0.667452313782E+03   -0.29184E-03   -0.28595E-03  8424   0.455E-03-0.168E-03
CGA:  16    -0.667452471988E+03   -0.15821E-03   -0.20270E-03  8424   0.524E-03-0.243E-03
CGA:  17    -0.667452615711E+03   -0.14372E-03   -0.12155E-03  8424   0.334E-03-0.143E-03
CGA:  18    -0.667452709682E+03   -0.93970E-04   -0.97924E-04  8424   0.273E-03-0.176E-03
CGA:  19    -0.667452812636E+03   -0.10295E-03   -0.98358E-04  8424   0.496E-03-0.220E-03
CGA:  20    -0.667452857492E+03   -0.44855E-04   -0.54664E-04  8424   0.343E-04 0.368E-04
CGA:  21    -0.667452917848E+03   -0.60356E-04    0.54749E-05  8424   0.462E-04 0.133E-04
CGA:  22    -0.667453073805E+03   -0.15596E-03    0.50766E-05  8424   0.728E-04 0.319E-04
CGA:  23    -0.667453008119E+03    0.65686E-04   -0.72976E-04  8424   0.151E-02-0.218E-03
CGA:  24    -0.667453259328E+03   -0.25121E-03   -0.20802E-03  8424   0.149E-03-0.167E-03
CGA:  25    -0.667453305767E+03   -0.46439E-04   -0.43732E-04  8424   0.958E-04-0.483E-04
CGA:  26    -0.667453425379E+03   -0.11961E-03    0.87766E-05  8424   0.103E-03-0.707E-05
CGA:  27    -0.667453599220E+03   -0.17384E-03    0.13363E-04  8424   0.363E-04 0.537E-04
CGA:  28    -0.667453661950E+03   -0.62730E-04    0.55134E-05  8424   0.513E-04-0.118E-05
CGA:  29    -0.667453785972E+03   -0.12402E-03    0.41787E-05  8424   0.582E-04 0.322E-04
CGA:  30    -0.667453856966E+03   -0.70994E-04    0.18739E-04  8424   0.591E-04-0.183E-04
CGA:  31    -0.667453954190E+03   -0.97224E-04    0.36330E-05  8424   0.664E-04 0.214E-04
CGA:  32    -0.667454133447E+03   -0.17926E-03    0.10845E-04  8424   0.433E-04 0.343E-04
CGA:  33    -0.667454200576E+03   -0.67129E-04    0.80848E-05  8424   0.333E-04-0.824E-06
CGA:  34    -0.667454279857E+03   -0.79281E-04    0.28687E-05  8424   0.353E-04 0.203E-04
CGA:  35    -0.667454340954E+03   -0.61097E-04    0.53297E-05  8424   0.382E-04-0.102E-05
CGA:  36    -0.667454429601E+03   -0.88647E-04    0.33486E-05  8424   0.409E-04 0.179E-04
CGA:  37    -0.667454591089E+03   -0.16149E-03    0.45605E-05  8424   0.305E-04 0.440E-04
CGA:  38    -0.667454653618E+03   -0.62529E-04    0.34816E-05  8424   0.599E-04-0.870E-05
CGA:  39    -0.667454782638E+03   -0.12902E-03    0.27881E-05  8424   0.703E-04 0.225E-04
CGA:  40    -0.667454932740E+03   -0.15010E-03    0.17965E-04  8424   0.224E-03-0.324E-04
CGA:  41    -0.667455473577E+03   -0.54084E-03    0.47435E-05  8424   0.119E-02-0.602E-04
CGA:  42    -0.667458777750E+03   -0.33042E-02    0.42302E-04  8424   0.208E-02-0.515E-03
CGA:  43    -0.667463868039E+03   -0.50903E-02    0.48917E-04  8424   0.660E-02-0.475E-02
CGA:  44    -0.667464560030E+03   -0.69199E-03   -0.82597E-03  8424   0.602E-03 0.542E-03
CGA:  45    -0.667464633761E+03   -0.73730E-04   -0.12308E-03  8424   0.212E-03 0.274E-03
CGA:  46    -0.667464632795E+03    0.96626E-06   -0.36607E-04  8424   0.853E-04 0.155E-03
  17 F= -.66746463E+03 E0= -.66746463E+03  d E =-.942920E-02  mag=    12.0000
       N       E                     dE             d eps       ncg     rms          ort
SDA:   1    -0.639772521063E+03    0.27692E+02    0.00000E+00  8424   0.757E+02 0.000E+00
CGA:   2    -0.657714266133E+03   -0.17942E+02   -0.17991E+02  8424   0.378E+02 0.819E-01
CGA:   3    -0.665115402184E+03   -0.74011E+01   -0.73908E+01  8424   0.937E+01 0.611E-01
CGA:   4    -0.666651103979E+03   -0.15357E+01   -0.15365E+01  8424   0.224E+01 0.650E-02
CGA:   5    -0.667032856692E+03   -0.38175E+00   -0.38230E+00  8424   0.488E+00 0.131E-02
CGA:   6    -0.667132376951E+03   -0.99520E-01   -0.99567E-01  8424   0.118E+00 0.367E-03
CGA:   7    -0.667158576390E+03   -0.26199E-01   -0.26261E-01  8424   0.374E-01 0.751E-03
CGA:   8    -0.667167973399E+03   -0.93970E-02   -0.94086E-02  8424   0.129E-01 0.228E-03
CGA:   9    -0.667171756400E+03   -0.37830E-02   -0.37821E-02  8424   0.519E-02-0.222E-03
CGA:  10    -0.667173418971E+03   -0.16626E-02   -0.16646E-02  8424   0.229E-02-0.696E-04
CGA:  11    -0.667174133513E+03   -0.71454E-03   -0.71561E-03  8424   0.901E-03-0.608E-04
CGA:  12    -0.667174466429E+03   -0.33292E-03   -0.33186E-03  8424   0.577E-03 0.971E-05
CGA:  13    -0.667174752454E+03   -0.28602E-03   -0.53524E-03  8424   0.230E-02-0.418E-03
CGA:  14    -0.667175213931E+03   -0.46148E-03   -0.47879E-03  8424   0.620E-03 0.138E-03
CGA:  15    -0.667175477862E+03   -0.26393E-03   -0.30015E-03  8424   0.915E-03-0.281E-03
CGA:  16    -0.667175624839E+03   -0.14698E-03   -0.14404E-03  8424   0.755E-03-0.707E-04
CGA:  17    -0.667175909752E+03   -0.28491E-03   -0.29463E-03  8424   0.153E-02-0.118E-03
CGA:  18    -0.667176394771E+03   -0.48502E-03   -0.63702E-03  8424   0.290E-02-0.104E-02
CGA:  19    -0.667177163455E+03   -0.76868E-03   -0.78026E-03  8424   0.808E-03 0.153E-03
CGA:  20    -0.667177416030E+03   -0.25257E-03   -0.23775E-03  8424   0.674E-03-0.246E-03
CGA:  21    -0.667177621448E+03   -0.20542E-03   -0.21001E-03  8424   0.436E-03-0.449E-04
CGA:  22    -0.667177809498E+03   -0.18805E-03   -0.33974E-03  8424   0.147E-02-0.316E-03
CGA:  23    -0.667178072048E+03   -0.26255E-03   -0.25360E-03  8424   0.377E-03-0.460E-04
CGA:  24    -0.667178240222E+03   -0.16817E-03   -0.18186E-03  8424   0.434E-03-0.986E-04
CGA:  25    -0.667178382526E+03   -0.14230E-03   -0.21904E-03  8424   0.119E-02-0.246E-03
CGA:  26    -0.667178617851E+03   -0.23532E-03   -0.21611E-03  8424   0.356E-03-0.973E-04
CGA:  27    -0.667178733715E+03   -0.11586E-03   -0.11576E-03  8424   0.212E-03-0.741E-05
CGA:  28    -0.667177079101E+03    0.16546E-02   -0.89235E-03  8424   0.151E-01-0.108E-02
CGA:  29    -0.667179101078E+03   -0.20220E-02   -0.21453E-02  8424   0.105E-02 0.377E-03
CGA:  30    -0.667179431740E+03   -0.33066E-03   -0.30212E-03  8424   0.673E-03-0.786E-04
CGA:  31    -0.667179672937E+03   -0.24120E-03   -0.22909E-03  8424   0.166E-03-0.471E-04
CGA:  32    -0.667179757043E+03   -0.84107E-04   -0.18692E-03  8424   0.997E-03-0.175E-03
CGA:  33    -0.667179976493E+03   -0.21945E-03   -0.22075E-03  8424   0.130E-03 0.124E-05
CGA:  34    -0.667179942234E+03    0.34259E-04   -0.21249E-03  8424   0.211E-02-0.247E-03
CGA:  35    -0.667180221051E+03   -0.27882E-03   -0.32206E-03  8424   0.258E-03 0.844E-04
CGA:  36    -0.667180357624E+03   -0.13657E-03   -0.12112E-03  8424   0.214E-03-0.806E-04
CGA:  37    -0.667180429782E+03   -0.72158E-04   -0.65020E-04  8424   0.273E-03-0.385E-04
CGA:  38    -0.666390096984E+03    0.79033E+00   -0.48411E-03  8424   0.860E+00-0.141E+00
CGA:  39    -0.667143976935E+03   -0.75388E+00   -0.83557E+00  8424   0.196E+00-0.411E-01
CGA:  40    -0.667177733559E+03   -0.33757E-01   -0.33681E-01  8424   0.165E-01-0.315E-02
CGA:  41    -0.667181047149E+03   -0.33136E-02   -0.35483E-02  8424   0.183E-02-0.882E-04
CGA:  42    -0.667181461827E+03   -0.41468E-03   -0.46096E-03  8424   0.661E-03-0.211E-05
CGA:  43    -0.667181631561E+03   -0.16973E-03   -0.20519E-03  8424   0.325E-03 0.113E-03
CGA:  44    -0.667181779837E+03   -0.14828E-03   -0.13979E-03  8424   0.258E-03 0.122E-03
CGA:  45    -0.667181935278E+03   -0.15544E-03   -0.15406E-03  8424   0.290E-03-0.548E-04
CGA:  46    -0.667181867040E+03    0.68238E-04   -0.28968E-04  8424   0.295E-03 0.202E-03
CGA:  47    -0.667181978237E+03   -0.11120E-03   -0.11458E-03  8424   0.175E-03 0.164E-04
CGA:  48    -0.667182069814E+03   -0.91577E-04   -0.14070E-03  8424   0.802E-03-0.177E-03
CGA:  49    -0.667182143987E+03   -0.74173E-04   -0.10509E-03  8424   0.909E-04 0.717E-04
CGA:  50    -0.664955708065E+03    0.22264E+01   -0.23314E-03  8424   0.127E+01-0.394E+00
CGA:  51    -0.666677710860E+03   -0.17220E+01    0.10397E+02  8424   0.392E+00-0.207E+00
CGA:  52    -0.666990264276E+03   -0.31255E+00   -0.17746E+00  8424   0.120E+01-0.555E+00
CGA:  53    -0.667178320101E+03   -0.18806E+00   -0.18551E+00  8424   0.255E-01 0.196E-01
CGA:  54    -0.667181995125E+03   -0.36750E-02   -0.40221E-02  8424   0.146E-02 0.896E-03
CGA:  55    -0.667182494656E+03   -0.49953E-03   -0.44641E-03  8424   0.503E-03-0.179E-03
CGA:  56    -0.667182738999E+03   -0.24434E-03   -0.23780E-03  8424   0.460E-03-0.152E-03
CGA:  57    -0.667182850578E+03   -0.11158E-03   -0.92800E-04  8424   0.158E-03-0.661E-04
CGA:  58    -0.667182304332E+03    0.54625E-03   -0.31408E-03  8424   0.387E-02-0.498E-03
CGA:  59    -0.667183181521E+03   -0.87719E-03   -0.92487E-03  8424   0.439E-03 0.117E-03
CGA:  60    -0.667183374226E+03   -0.19270E-03   -0.16865E-03  8424   0.241E-03-0.932E-04
CGA:  61    -0.667183405449E+03   -0.31222E-04   -0.44639E-04  8424   0.845E-04 0.345E-04
CGA:  62    -0.667183459928E+03   -0.54480E-04   -0.52844E-04  8424   0.185E-03-0.318E-04
CGA:  63    -0.667183598368E+03   -0.13844E-03    0.70704E-02  8424   0.540E-03-0.177E-03
CGA:  64    -0.667183748361E+03   -0.14999E-03   -0.15885E-03  8424   0.133E-03 0.288E-04
CGA:  65    -0.667183739220E+03    0.91413E-05   -0.14009E-03  8424   0.191E-02-0.361E-03
CGA:  66    -0.667183921158E+03   -0.18194E-03   -0.25909E-03  8424   0.142E-03 0.171E-03
CGA:  67    -0.667183988273E+03   -0.67115E-04   -0.61834E-04  8424   0.804E-04-0.300E-04
CGA:  68    -0.667184089511E+03   -0.10124E-03    0.45317E-04  8424   0.345E-03-0.714E-04
CGA:  69    -0.667184107118E+03   -0.17607E-04   -0.45524E-04  8424   0.492E-04 0.640E-04
CGA:  70    -0.667184136472E+03   -0.29354E-04   -0.28427E-04  8424   0.101E-03-0.156E-04
CGA:  71    -0.667184250389E+03   -0.11392E-03    0.36469E-04  8424   0.404E-03-0.118E-03
CGA:  72    -0.667184346585E+03   -0.96196E-04   -0.10640E-03  8424   0.103E-03 0.359E-04
CGA:  73    -0.667184101338E+03    0.24525E-03   -0.14457E-03  8424   0.346E-02-0.517E-03
CGA:  74    -0.667184465733E+03   -0.36439E-03   -0.47638E-03  8424   0.310E-03 0.273E-03
CGA:  75    -0.667184578881E+03   -0.11315E-03   -0.11032E-03  8424   0.588E-04-0.136E-04
CGA:  76    -0.667184671271E+03   -0.92390E-04    0.28502E-04  8424   0.298E-03-0.650E-04
CGA:  77    -0.667184680340E+03   -0.90698E-05   -0.33655E-04  8424   0.315E-04 0.583E-04
CGA:  78    -0.667184693121E+03   -0.12780E-04   -0.12549E-04  8424   0.731E-04-0.158E-05
CGA:  79    -0.667184835176E+03   -0.14206E-03    0.17295E-04  8424   0.219E-03-0.123E-04
CGA:  80    -0.667185293208E+03   -0.45803E-03    0.31054E-04  8424   0.124E-02-0.231E-03
CGA:  81    -0.667185454967E+03   -0.16176E-03   -0.21304E-03  8424   0.278E-03 0.154E-03
CGA:  82    -0.667185583211E+03   -0.12824E-03   -0.11396E-03  8424   0.837E-04-0.114E-03
CGA:  83    -0.667185646363E+03   -0.63152E-04    0.36787E-04  8424   0.670E-04 0.105E-04
CGA:  84    -0.667185781917E+03   -0.13555E-03    0.21267E-04  8424   0.107E-03-0.807E-05
CGA:  85    -0.667185949205E+03   -0.16729E-03    0.26880E-04  8424   0.134E-03 0.768E-05
CGA:  86    -0.667186268026E+03   -0.31882E-03    0.26856E-04  8424   0.936E-04 0.895E-04
CGA:  87    -0.667186361889E+03   -0.93864E-04    0.61083E-03  8424   0.143E-03-0.406E-04
CGA:  88    -0.667186388054E+03   -0.26165E-04   -0.17890E-04  8424   0.759E-04-0.322E-04
CGA:  89    -0.667186445184E+03   -0.57130E-04    0.43861E-03  8424   0.246E-03-0.195E-04
CGA:  90    -0.667186791044E+03   -0.34586E-03    0.42327E-04  8424   0.374E-03-0.691E-04
CGA:  91    -0.667187372794E+03   -0.58175E-03    0.48736E-04  8424   0.138E-02-0.254E-03
CGA:  92    -0.667187505858E+03   -0.13306E-03   -0.18133E-03  8424   0.159E-03 0.144E-03
CGA:  93    -0.667187586394E+03   -0.80536E-04   -0.81422E-04  8424   0.905E-04-0.778E-04
CGA:  94    -0.667187652764E+03   -0.66370E-04    0.17904E-04  8424   0.265E-03-0.795E-04
CGA:  95    -0.667187669391E+03   -0.16626E-04   -0.32632E-04  8424   0.376E-04 0.485E-04
CGA:  96    -0.667187646607E+03    0.22784E-04   -0.50330E-04  8424   0.469E-03-0.106E-03
CGA:  97    -0.667187781140E+03   -0.13453E-03   -0.10176E-03  8424   0.206E-03-0.129E-03
CGA:  98    -0.667187812538E+03   -0.31398E-04   -0.33719E-04  8424   0.215E-04 0.983E-05
CGA:  99    -0.667187837459E+03   -0.24921E-04    0.21456E-04  8424   0.875E-04-0.215E-04
CGA: 100    -0.667187869943E+03   -0.32484E-04   -0.20152E-04  8424   0.649E-04-0.567E-04
CGA: 101    -0.667187876823E+03   -0.68798E-05   -0.82948E-05  8424   0.831E-05 0.457E-05
  18 F= -.66718788E+03 E0= -.66718788E+03  d E =0.276756E+00  mag=    12.0000
       N       E                     dE             d eps       ncg     rms          ort
SDA:   1    -0.656904073427E+03    0.10284E+02    0.00000E+00  8424   0.333E+02 0.000E+00
CGA:   2    -0.663576874492E+03   -0.66728E+01   -0.67115E+01  8424   0.138E+02-0.497E-01
CGA:   3    -0.666487715449E+03   -0.29108E+01   -0.29045E+01  8424   0.431E+01 0.174E-01
CGA:   4    -0.667210571303E+03   -0.72286E+00   -0.72386E+00  8424   0.106E+01 0.101E-02
CGA:   5    -0.667390781374E+03   -0.18021E+00   -0.18073E+00  8424   0.226E+00 0.129E-02
CGA:   6    -0.667435974912E+03   -0.45194E-01   -0.45055E-01  8424   0.510E-01-0.744E-03
CGA:   7    -0.667447133317E+03   -0.11158E-01   -0.11216E-01  8424   0.153E-01 0.379E-03
CGA:   8    -0.667450870264E+03   -0.37369E-02   -0.37392E-02  8424   0.465E-02 0.166E-04
CGA:   9    -0.667452206296E+03   -0.13360E-02   -0.13208E-02  8424   0.173E-02-0.214E-03
CGA:  10    -0.667452734285E+03   -0.52799E-03   -0.52716E-03  8424   0.805E-03-0.277E-04
CGA:  11    -0.667453055124E+03   -0.32084E-03   -0.44765E-03  8424   0.130E-02-0.595E-03
CGA:  12    -0.667453249356E+03   -0.19423E-03   -0.22555E-03  8424   0.237E-03 0.166E-03
CGA:  13    -0.667451069821E+03    0.21795E-02   -0.11732E-02  8424   0.135E-01-0.150E-02
CGA:  14    -0.667453179217E+03   -0.21094E-02   -0.23943E-02  8424   0.275E-02 0.627E-03
CGA:  15    -0.667453993321E+03   -0.81410E-03   -0.69586E-03  8424   0.405E-03-0.316E-03
CGA:  16    -0.667454081017E+03   -0.87697E-04   -0.95436E-04  8424   0.149E-03 0.229E-04
CGA:  17    -0.667454169822E+03   -0.88804E-04   -0.10722E-03  8424   0.788E-03-0.191E-03
CGA:  18    -0.667454277112E+03   -0.10729E-03   -0.11183E-03  8424   0.130E-03 0.110E-04
CGA:  19    -0.667453821394E+03    0.45572E-03   -0.24278E-03  8424   0.380E-02-0.552E-03
CGA:  20    -0.667454489402E+03   -0.66801E-03   -0.73901E-03  8424   0.902E-03 0.166E-03
CGA:  21    -0.667454742954E+03   -0.25355E-03   -0.20070E-03  8424   0.126E-03-0.135E-03
CGA:  22    -0.667454787329E+03   -0.44375E-04   -0.41051E-04  8424   0.118E-03-0.167E-04
CGA:  23    -0.667454978493E+03   -0.19116E-03    0.48507E-04  8424   0.321E-03-0.628E-04
CGA:  24    -0.667455003060E+03   -0.24566E-04   -0.42482E-04  8424   0.630E-04 0.405E-04
CGA:  25    -0.667455094505E+03   -0.91445E-04    0.12270E-03  8424   0.935E-04-0.187E-04
CGA:  26    -0.667455296512E+03   -0.20201E-03    0.10348E-04  8424   0.295E-03-0.360E-04
CGA:  27    -0.667455833213E+03   -0.53670E-03    0.30417E-04  8424   0.582E-03-0.177E-03
CGA:  28    -0.667456075170E+03   -0.24196E-03   -0.24166E-03  8424   0.182E-03-0.266E-05
CGA:  29    -0.667456169384E+03   -0.94214E-04   -0.11703E-03  8424   0.633E-03-0.235E-03
CGA:  30    -0.667456208407E+03   -0.39023E-04   -0.76952E-04  8424   0.639E-04 0.885E-04
CGA:  31    -0.667456244586E+03   -0.36179E-04   -0.33926E-04  8424   0.110E-03-0.347E-04
CGA:  32    -0.667456289963E+03   -0.45377E-04   -0.66932E-04  8424   0.913E-03-0.268E-03
CGA:  33    -0.667456347253E+03   -0.57291E-04   -0.10755E-03  8424   0.457E-04 0.122E-03
CGA:  34    -0.667456359414E+03   -0.12160E-04   -0.11470E-04  8424   0.225E-04-0.249E-05
CGA:  35    -0.667456438802E+03   -0.79388E-04    0.19240E-05  8424   0.638E-04-0.662E-05
CGA:  36    -0.667456665967E+03   -0.22717E-03    0.27528E-05  8424   0.156E-03 0.188E-04
CGA:  37    -0.667457203475E+03   -0.53751E-03    0.30019E-04  8424   0.307E-03-0.103E-05
CGA:  38    -0.667458427317E+03   -0.12238E-02    0.24914E-04  8424   0.263E-03-0.912E-04
CGA:  39    -0.667459531947E+03   -0.11046E-02    0.91873E-05  8424   0.241E-03-0.112E-03
CGA:  40    -0.667460233705E+03   -0.70176E-03    0.83584E-05  8424   0.873E-03-0.497E-03
CGA:  41    -0.667460424570E+03   -0.19087E-03   -0.14629E-03  8424   0.995E-04-0.136E-03
CGA:  42    -0.667460412750E+03    0.11820E-04   -0.74525E-05  8424   0.347E-04 0.492E-04
CGA:  43    -0.667460401790E+03    0.10960E-04   -0.24401E-05  8424   0.150E-04 0.324E-04
CGA:  44    -0.667460396893E+03    0.48977E-05   -0.51666E-06  8424   0.120E-04 0.133E-04
  19 F= -.66746040E+03 E0= -.66746040E+03  d E =-.272520E+00  mag=    12.0000
       N       E                     dE             d eps       ncg     rms          ort
SDA:   1    -0.667124910211E+03    0.33549E+00    0.00000E+00  8424   0.985E+00 0.000E+00
CGA:   2    -0.667347639764E+03   -0.22273E+00   -0.22280E+00  8424   0.475E+00 0.126E-03
CGA:   3    -0.667444207815E+03   -0.96568E-01   -0.96534E-01  8424   0.132E+00-0.174E-03
CGA:   4    -0.667465574268E+03   -0.21366E-01   -0.21427E-01  8424   0.305E-01 0.254E-03
CGA:   5    -0.667470652614E+03   -0.50783E-02   -0.51229E-02  8424   0.626E-02 0.212E-03
CGA:   6    -0.667471906730E+03   -0.12541E-02   -0.12664E-02  8424   0.149E-02 0.753E-04
CGA:   7    -0.667472211108E+03   -0.30438E-03   -0.31776E-03  8424   0.414E-03 0.942E-04
CGA:   8    -0.667472288185E+03   -0.77077E-04   -0.89615E-04  8424   0.118E-03 0.879E-04
CGA:   9    -0.667472296001E+03   -0.78165E-05   -0.21552E-04  8424   0.506E-04 0.730E-04
  20 F= -.66747230E+03 E0= -.66747230E+03  d E =-.118991E-01  mag=    12.0000
       N       E                     dE             d eps       ncg     rms          ort
SDA:   1    -0.661898375050E+03    0.55739E+01    0.00000E+00  8424   0.148E+02 0.000E+00
CGA:   2    -0.665525883441E+03   -0.36275E+01   -0.36292E+01  8424   0.783E+01 0.542E-02
CGA:   3    -0.667053527149E+03   -0.15276E+01   -0.15268E+01  8424   0.191E+01 0.208E-03
CGA:   4    -0.667359583407E+03   -0.30606E+00   -0.30636E+00  8424   0.436E+00 0.125E-02
CGA:   5    -0.667432555668E+03   -0.72972E-01   -0.73126E-01  8424   0.936E-01 0.977E-03
CGA:   6    -0.667451672530E+03   -0.19117E-01   -0.19130E-01  8424   0.227E-01 0.142E-03
CGA:   7    -0.667456591211E+03   -0.49187E-02   -0.49395E-02  8424   0.658E-02 0.282E-03
CGA:   8    -0.667458170931E+03   -0.15797E-02   -0.15896E-02  8424   0.210E-02 0.207E-03
CGA:   9    -0.667458701315E+03   -0.53038E-03   -0.54041E-03  8424   0.690E-03 0.292E-03
CGA:  10    -0.667458869056E+03   -0.16774E-03   -0.18164E-03  8424   0.279E-03 0.270E-03
CGA:  11    -0.667458917909E+03   -0.48853E-04   -0.69623E-04  8424   0.136E-03 0.206E-03
CGA:  12    -0.667458923708E+03   -0.57992E-05   -0.19387E-04  8424   0.881E-04 0.103E-03
  21 F= -.66745892E+03 E0= -.66745892E+03  d E =0.133723E-01  mag=    12.0000
       N       E                     dE             d eps       ncg     rms          ort
SDA:   1    -0.638804799107E+03    0.28654E+02    0.00000E+00  8424   0.831E+02 0.000E+00
CGA:   2    -0.656959374846E+03   -0.18155E+02   -0.18190E+02  8424   0.382E+02 0.306E+00
CGA:   3    -0.664806517750E+03   -0.78471E+01   -0.78385E+01  8424   0.106E+02-0.399E-01
CGA:   4    -0.666564650250E+03   -0.17581E+01   -0.17596E+01  8424   0.251E+01 0.367E-02
[...]
CGA:  53    -0.666838833813E+03    0.16257E+00   -0.62646E-01  8424   0.496E+00 0.284E+00
CGA:  54    -0.666990229463E+03   -0.15140E+00   -0.23193E+00  8424   0.171E+00 0.137E+00
CGA:  55    -0.667059531936E+03   -0.69302E-01   -0.88241E-01  8424   0.130E+00 0.933E-02
CGA:  56    -0.667063900971E+03   -0.43690E-02   -0.30223E-01  8424   0.525E-01 0.140E-01
CGA:  57    -0.667088964966E+03   -0.25064E-01   -0.15375E-01  8424   0.140E-01 0.244E-01
CGA:  58    -0.667093129720E+03   -0.41648E-02   -0.64503E-02  8424   0.137E-01 0.161E-02
CGA:  59    -0.667096122960E+03   -0.29932E-02   -0.43201E-02  8424   0.351E-02-0.200E-02
CGA:  60    -0.667097106204E+03   -0.98324E-03   -0.84329E-03  8424   0.151E-02-0.417E-04
CGA:  61    -0.667097639984E+03   -0.53378E-03   -0.48456E-03  8424   0.699E-03-0.213E-04
CGA:  62    -0.667097821193E+03   -0.18121E-03   -0.20333E-03  8424   0.351E-03-0.331E-04
CGA:  63    -0.667097940722E+03   -0.11953E-03   -0.11117E-03  8424   0.245E-03-0.636E-04
CGA:  64    -0.667098064162E+03   -0.12344E-03   -0.12651E-03  8424   0.490E-03-0.169E-03
CGA:  65    -0.667098123116E+03   -0.58954E-04   -0.65420E-04  8424   0.936E-04 0.138E-04
CGA:  66    -0.663940054141E+03    0.31581E+01   -0.15184E-03  8424   0.404E+00-0.128E-01
CGA:  67    -0.666108051090E+03   -0.21680E+01    0.40618E-01  8424   0.358E+01-0.709E+00
CGA:  68    -0.667075417099E+03   -0.96737E+00   -0.59009E+00  8424   0.109E+00-0.237E+00
CGA:  69    -0.667094869379E+03   -0.19452E-01   -0.19600E-01  8424   0.961E-02 0.488E-04
CGA:  70    -0.667097177671E+03   -0.23083E-02   -0.23481E-02  8424   0.299E-02 0.916E-04
CGA:  71    -0.667098212220E+03   -0.10345E-02   -0.89824E-03  8424   0.121E-02-0.500E-03
CGA:  72    -0.667098452786E+03   -0.24057E-03   -0.24069E-03  8424   0.249E-03 0.341E-06
CGA:  73    -0.667098580685E+03   -0.12790E-03   -0.11400E-03  8424   0.331E-03-0.156E-03
CGA:  74    -0.667098629201E+03   -0.48517E-04   -0.53527E-04  8424   0.417E-04 0.131E-04
CGA:  75    -0.666580775791E+03    0.51785E+00    0.11004E+00  8424   0.463E+00-0.726E-01
CGA:  76    -0.667058777212E+03   -0.47800E+00   -0.49137E+00  8424   0.263E+00-0.417E-01
CGA:  77    -0.667096317063E+03   -0.37540E-01   -0.37527E-01  8424   0.132E-01-0.796E-02
CGA:  78    -0.667098700218E+03   -0.23832E-02   -0.24789E-02  8424   0.144E-02 0.192E-03
CGA:  79    -0.667099017813E+03   -0.31759E-03   -0.30641E-03  8424   0.110E-03-0.194E-04
CGA:  80    -0.667099055414E+03   -0.37601E-04   -0.29308E-04  8424   0.569E-04-0.170E-04
CGA:  81    -0.667099160445E+03   -0.10503E-03    0.60407E-04  8424   0.276E-03-0.705E-04
CGA:  82    -0.667099168272E+03   -0.78269E-05   -0.41119E-04  8424   0.742E-04 0.328E-04
CGA:  83    -0.667099172442E+03   -0.41698E-05   -0.22834E-04  8424   0.834E-04 0.227E-04
CGA:  84    -0.667099064283E+03    0.10816E-03   -0.15399E-04  8424   0.334E-03 0.162E-03
CGA:  85    -0.667099118450E+03   -0.54167E-04   -0.10465E-03  8424   0.233E-03 0.139E-03
CGA:  86    -0.667098934447E+03    0.18400E-03   -0.58735E-04  8424   0.603E-03 0.464E-03
CGA:  87    -0.667099259890E+03   -0.32544E-03   -0.34842E-03  8424   0.121E-03 0.424E-04
CGA:  88    -0.667099338860E+03   -0.78970E-04   -0.79028E-04  8424   0.103E-03-0.382E-04
CGA:  89    -0.667099384114E+03   -0.45255E-04   -0.32373E-04  8424   0.105E-03-0.494E-04
CGA:  90    -0.667099476209E+03   -0.92095E-04    0.66701E-04  8424   0.148E-03-0.474E-04
CGA:  91    -0.667099654128E+03   -0.17792E-03    0.41410E-04  8424   0.406E-03-0.153E-03
CGA:  92    -0.667099695442E+03   -0.41314E-04   -0.71072E-04  8424   0.111E-03 0.643E-04
CGA:  93    -0.667099088081E+03    0.60736E-03   -0.25830E-03  8424   0.241E-02-0.135E-02
CGA:  94    -0.667099666143E+03   -0.57806E-03   -0.58298E-03  8424   0.663E-03-0.173E-03
CGA:  95    -0.667100006434E+03   -0.34029E-03   -0.33818E-03  8424   0.547E-03-0.801E-04
CGA:  96    -0.667100066994E+03   -0.60560E-04   -0.86018E-04  8424   0.572E-04 0.438E-04
CGA:  97    -0.667100038585E+03    0.28409E-04   -0.77091E-04  8424   0.850E-03-0.179E-03
CGA:  98    -0.667100178958E+03   -0.14037E-03   -0.15593E-03  8424   0.813E-04 0.310E-04
CGA:  99    -0.667100196747E+03   -0.17789E-04   -0.20352E-04  8424   0.194E-04 0.609E-05
CGA: 100    -0.667100274714E+03   -0.77966E-04    0.34289E-05  8424   0.738E-04-0.223E-04
CGA: 101    -0.667100269149E+03    0.55645E-05   -0.84251E-05  8424   0.147E-04 0.267E-04
  46 F= -.66710027E+03 E0= -.66710027E+03  d E =0.113829E+00  mag=    12.0000
       N       E                     dE             d eps       ncg     rms          ort
SDA:   1    -0.662600171410E+03    0.45001E+01    0.00000E+00  8424   0.142E+02 0.000E+00
CGA:   2    -0.665588964334E+03   -0.29888E+01   -0.30055E+01  8424   0.611E+01-0.207E-01
CGA:   3    -0.666861896499E+03   -0.12729E+01   -0.12690E+01  8424   0.184E+01 0.204E-01
CGA:   4    -0.667166979714E+03   -0.30508E+00   -0.30581E+00  8424   0.447E+00-0.281E-03
CGA:   5    -0.667243315723E+03   -0.76336E-01   -0.76537E-01  8424   0.958E-01 0.153E-03
CGA:   6    -0.667262362853E+03   -0.19047E-01   -0.18944E-01  8424   0.215E-01-0.270E-03
CGA:   7    -0.667267146986E+03   -0.47841E-02   -0.48140E-02  8424   0.643E-02 0.104E-03
CGA:   8    -0.667268741322E+03   -0.15943E-02   -0.15760E-02  8424   0.194E-02-0.770E-04
CGA:   9    -0.667269337070E+03   -0.59575E-03   -0.56645E-03  8424   0.730E-03-0.167E-03
CGA:  10    -0.667269601022E+03   -0.26395E-03   -0.25048E-03  8424   0.423E-03-0.153E-03
CGA:  11    -0.667269705823E+03   -0.10480E-03   -0.23500E-03  8424   0.125E-02-0.537E-03
CGA:  12    -0.667269910610E+03   -0.20479E-03   -0.22437E-03  8424   0.176E-03 0.668E-04
CGA:  13    -0.667270082253E+03   -0.17164E-03    0.33864E-02  8424   0.167E-03-0.561E-04
CGA:  14    -0.667270131651E+03   -0.49398E-04   -0.61103E-04  8424   0.440E-03-0.147E-03
CGA:  15    -0.667270313449E+03   -0.18180E-03   -0.12244E-03  8424   0.558E-03-0.325E-03
CGA:  16    -0.667270335939E+03   -0.22490E-04   -0.55408E-04  8424   0.343E-04 0.939E-04
CGA:  17    -0.667270349013E+03   -0.13074E-04   -0.11018E-04  8424   0.698E-04-0.131E-04
CGA:  18    -0.667270505855E+03   -0.15684E-03    0.28230E-05  8424   0.229E-03-0.378E-04
CGA:  19    -0.667270528206E+03   -0.22351E-04   -0.13671E-03  8424   0.261E-02-0.667E-03
CGA:  20    -0.667270698736E+03   -0.17053E-03   -0.27391E-03  8424   0.754E-04 0.316E-03
CGA:  21    -0.667270703039E+03   -0.43033E-05   -0.10308E-04  8424   0.201E-04 0.202E-04
  47 F= -.66727070E+03 E0= -.66727070E+03  d E =-.170434E+00  mag=    12.0000
       N       E                     dE             d eps       ncg     rms          ort
SDA:   1    -0.663305675550E+03    0.39650E+01    0.00000E+00  8424   0.105E+02 0.000E+00
CGA:   2    -0.665911431185E+03   -0.26058E+01   -0.26078E+01  8424   0.544E+01 0.318E-03
CGA:   3    -0.666968401531E+03   -0.10570E+01   -0.10562E+01  8424   0.131E+01 0.186E-02
CGA:   4    -0.667178288254E+03   -0.20989E+00   -0.20998E+00  8424   0.301E+00-0.160E-03
CGA:   5    -0.667229915157E+03   -0.51627E-01   -0.51677E-01  8424   0.652E-01 0.145E-03
CGA:   6    -0.667243138411E+03   -0.13223E-01   -0.13202E-01  8424   0.154E-01-0.132E-03
CGA:   7    -0.667246583070E+03   -0.34447E-02   -0.34386E-02  8424   0.456E-02-0.480E-04
CGA:   8    -0.667247731016E+03   -0.11479E-02   -0.11352E-02  8424   0.153E-02-0.129E-03
CGA:   9    -0.667248214622E+03   -0.48361E-03   -0.47822E-03  8424   0.717E-03-0.231E-03
CGA:  10    -0.667248456091E+03   -0.24147E-03   -0.26930E-03  8424   0.582E-03-0.282E-03
CGA:  11    -0.667248400321E+03    0.55770E-04   -0.26685E-03  8424   0.195E-02-0.795E-03
CGA:  12    -0.667248780932E+03   -0.38061E-03   -0.38455E-03  8424   0.363E-03 0.225E-04
CGA:  13    -0.667248642257E+03    0.13867E-03   -0.41776E-03  8424   0.279E-02-0.717E-03
CGA:  14    -0.667249062585E+03   -0.42033E-03   -0.47003E-03  8424   0.503E-03 0.215E-03
CGA:  15    -0.667249271053E+03   -0.20847E-03   -0.20718E-03  8424   0.317E-03-0.273E-03
CGA:  16    -0.667249315644E+03   -0.44591E-04   -0.51332E-04  8424   0.601E-04 0.298E-04
CGA:  17    -0.667249404736E+03   -0.89092E-04    0.15394E-04  8424   0.562E-04-0.184E-04
CGA:  18    -0.667249515775E+03   -0.11104E-03    0.26335E-05  8424   0.626E-04 0.182E-04
CGA:  19    -0.667249706414E+03   -0.19064E-03    0.75409E-05  8424   0.503E-04 0.403E-04
CGA:  20    -0.667249783359E+03   -0.76945E-04    0.91394E-05  8424   0.732E-04-0.162E-04
CGA:  21    -0.667249887612E+03   -0.10425E-03    0.52099E-05  8424   0.799E-04-0.120E-04
CGA:  22    -0.667250069496E+03   -0.18188E-03    0.47889E-05  8424   0.933E-04 0.281E-04
CGA:  23    -0.667250367789E+03   -0.29829E-03    0.11055E-04  8424   0.131E-03-0.847E-05
CGA:  24    -0.667250779639E+03   -0.41185E-03    0.62029E-05  8424   0.116E-03 0.466E-04
CGA:  25    -0.667251167938E+03   -0.38830E-03    0.12878E-04  8424   0.171E-03-0.849E-05
CGA:  26    -0.667251794262E+03   -0.62632E-03    0.69659E-05  8424   0.230E-03-0.760E-04
CGA:  27    -0.667252664828E+03   -0.87057E-03    0.29818E-05  8424   0.383E-03-0.263E-04
CGA:  28    -0.667254075374E+03   -0.14105E-02    0.14074E-04  8424   0.276E-03-0.302E-03
CGA:  29    -0.667254147267E+03   -0.71893E-04   -0.62077E-04  8424   0.130E-03-0.648E-04
CGA:  30    -0.667254148742E+03   -0.14746E-05   -0.12318E-04  8424   0.390E-04 0.443E-04
  48 F= -.66725415E+03 E0= -.66725415E+03  d E =0.165543E-01  mag=    12.0000
       N       E                     dE             d eps       ncg     rms          ort
SDA:   1    -0.643700753074E+03    0.23553E+02    0.00000E+00  8424   0.634E+02 0.000E+00
CGA:   2    -0.658968755384E+03   -0.15268E+02   -0.15299E+02  8424   0.326E+02 0.452E-01
CGA:   3    -0.665429681955E+03   -0.64609E+01   -0.64515E+01  8424   0.808E+01 0.336E-01
CGA:   4    -0.666719111297E+03   -0.12894E+01   -0.12904E+01  8424   0.184E+01 0.374E-02
CGA:   5    -0.667033903509E+03   -0.31479E+00   -0.31522E+00  8424   0.397E+00 0.140E-02
CGA:   6    -0.667115305066E+03   -0.81402E-01   -0.81347E-01  8424   0.953E-01-0.504E-03
CGA:   7    -0.667136616216E+03   -0.21311E-01   -0.21341E-01  8424   0.284E-01 0.338E-03
CGA:   8    -0.667143628367E+03   -0.70122E-02   -0.70166E-02  8424   0.933E-02 0.750E-04
CGA:   9    -0.667146325257E+03   -0.26969E-02   -0.26940E-02  8424   0.355E-02-0.219E-03
CGA:  10    -0.667147424775E+03   -0.10995E-02   -0.11002E-02  8424   0.145E-02-0.407E-04
CGA:  11    -0.667147890229E+03   -0.46545E-03   -0.47044E-03  8424   0.572E-03-0.187E-03
CGA:  12    -0.667148045086E+03   -0.15486E-03   -0.15501E-03  8424   0.249E-03-0.196E-04
CGA:  13    -0.667148069190E+03   -0.24104E-04   -0.21248E-03  8424   0.131E-02-0.330E-03
CGA:  14    -0.667148272819E+03   -0.20363E-03   -0.22155E-03  8424   0.259E-03 0.110E-03
CGA:  15    -0.667148379405E+03   -0.10659E-03   -0.11499E-03  8424   0.228E-03-0.987E-04
CGA:  16    -0.667148437769E+03   -0.58365E-04   -0.61378E-04  8424   0.229E-03-0.308E-04
CGA:  17    -0.667148351453E+03    0.86316E-04   -0.28867E-03  8424   0.194E-02-0.352E-03
CGA:  18    -0.667148817306E+03   -0.46585E-03   -0.46165E-03  8424   0.521E-03-0.281E-04
CGA:  19    -0.667148915341E+03   -0.98035E-04   -0.96140E-04  8424   0.128E-03-0.988E-05
CGA:  20    -0.667148984108E+03   -0.68767E-04   -0.12663E-03  8424   0.338E-03-0.923E-04
CGA:  21    -0.667149060555E+03   -0.76447E-04   -0.73897E-04  8424   0.113E-03-0.139E-04
CGA:  22    -0.667149086344E+03   -0.25789E-04   -0.26490E-04  8424   0.476E-04 0.435E-05
CGA:  23    -0.667148884131E+03    0.20221E-03   -0.11164E-03  8424   0.173E-02-0.160E-03
CGA:  24    -0.667149211508E+03   -0.32738E-03   -0.32776E-03  8424   0.267E-03 0.319E-06
CGA:  25    -0.667149290433E+03   -0.78925E-04   -0.79128E-04  8424   0.136E-03 0.291E-06
CGA:  26    -0.667149342123E+03   -0.51690E-04   -0.42955E-04  8424   0.608E-04-0.256E-04
CGA:  27    -0.667149363216E+03   -0.21094E-04   -0.19425E-04  8424   0.436E-04-0.724E-05
CGA:  28    -0.667149414364E+03   -0.51148E-04    0.22107E-03  8424   0.584E-04 0.103E-04
CGA:  29    -0.667149468066E+03   -0.53702E-04   -0.74858E-04  8424   0.486E-03-0.598E-04
CGA:  30    -0.667149557381E+03   -0.89315E-04   -0.76514E-04  8424   0.615E-04-0.264E-04
CGA:  31    -0.667149569577E+03   -0.12195E-04   -0.15210E-04  8424   0.212E-04 0.815E-05
CGA:  32    -0.667149601701E+03   -0.32124E-04    0.73926E-04  8424   0.287E-04-0.373E-05
CGA:  33    -0.667149611967E+03   -0.10266E-04   -0.10762E-04  8424   0.309E-04 0.217E-05
CGA:  34    -0.667149656952E+03   -0.44985E-04    0.80265E-04  8424   0.484E-04 0.961E-05
CGA:  35    -0.667149749056E+03   -0.92103E-04    0.91162E-04  8424   0.501E-04 0.976E-05
CGA:  36    -0.667149795439E+03   -0.46383E-04   -0.55239E-04  8424   0.324E-03-0.448E-04
CGA:  37    -0.667149890245E+03   -0.94807E-04   -0.63572E-04  8424   0.704E-04-0.745E-04
CGA:  38    -0.667149891862E+03   -0.16173E-05   -0.98854E-05  8424   0.142E-04 0.200E-04
  49 F= -.66714989E+03 E0= -.66714989E+03  d E =0.104257E+00  mag=    12.0000
       N       E                     dE             d eps       ncg     rms          ort
SDA:   1    -0.653306748322E+03    0.13843E+02    0.00000E+00  8424   0.411E+02 0.000E+00
CGA:   2    -0.662165801925E+03   -0.88591E+01   -0.89463E+01  8424   0.187E+02-0.122E+00
CGA:   3    -0.666033306327E+03   -0.38675E+01   -0.38502E+01  8424   0.522E+01 0.117E+00
CGA:   4    -0.666905509550E+03   -0.87220E+00   -0.87486E+00  8424   0.125E+01 0.278E-02
CGA:   5    -0.667117171814E+03   -0.21166E+00   -0.21241E+00  8424   0.271E+00 0.312E-03
CGA:   6    -0.667171122026E+03   -0.53950E-01   -0.53818E-01  8424   0.621E-01-0.197E-03
CGA:   7    -0.667185108074E+03   -0.13986E-01   -0.14083E-01  8424   0.186E-01 0.381E-03
CGA:   8    -0.667189599706E+03   -0.44916E-02   -0.45161E-02  8424   0.571E-02 0.111E-03
CGA:   9    -0.667191234506E+03   -0.16348E-02   -0.16218E-02  8424   0.200E-02-0.802E-04
CGA:  10    -0.667191839812E+03   -0.60531E-03   -0.61142E-03  8424   0.807E-03 0.466E-04
CGA:  11    -0.667192120594E+03   -0.28078E-03   -0.27337E-03  8424   0.335E-03-0.741E-04
CGA:  12    -0.667192187939E+03   -0.67345E-04   -0.76774E-04  8424   0.133E-03 0.532E-04
CGA:  13    -0.667192249673E+03   -0.61734E-04   -0.61565E-04  8424   0.134E-03-0.994E-05
CGA:  14    -0.667192289093E+03   -0.39420E-04   -0.42094E-04  8424   0.122E-03 0.318E-04
CGA:  15    -0.667192343265E+03   -0.54172E-04   -0.56632E-04  8424   0.120E-03 0.591E-04
CGA:  16    -0.667192421742E+03   -0.78477E-04   -0.77278E-04  8424   0.132E-03 0.480E-04
CGA:  17    -0.667192471416E+03   -0.49674E-04   -0.58178E-04  8424   0.106E-03 0.779E-04
CGA:  18    -0.667192508568E+03   -0.37152E-04   -0.36984E-04  8424   0.738E-04-0.309E-05
CGA:  19    -0.667192515984E+03   -0.74159E-05   -0.13204E-04  8424   0.327E-04 0.259E-04
CGA:  20    -0.667192528464E+03   -0.12480E-04   -0.14022E-04  8424   0.446E-04 0.196E-04
CGA:  21    -0.667192544075E+03   -0.15611E-04   -0.14337E-04  8424   0.799E-04-0.188E-04
CGA:  22    -0.667192562445E+03   -0.18370E-04   -0.18215E-04  8424   0.118E-03 0.178E-04
CGA:  23    -0.667192586586E+03   -0.24142E-04   -0.28933E-04  8424   0.727E-04 0.229E-04
CGA:  24    -0.667192299608E+03    0.28698E-03   -0.16105E-03  8424   0.347E-02-0.264E-03
CGA:  25    -0.667192819936E+03   -0.52033E-03   -0.58829E-03  8424   0.193E-03 0.133E-03
CGA:  26    -0.667192914215E+03   -0.94279E-04   -0.63579E-04  8424   0.156E-03-0.887E-04
CGA:  27    -0.667192925263E+03   -0.11048E-04   -0.13484E-04  8424   0.602E-04 0.494E-05
CGA:  28    -0.667192925719E+03   -0.45533E-06   -0.74775E-05  8424   0.305E-04 0.140E-04
CGA:  29    -0.667192940414E+03   -0.14695E-04   -0.12292E-04  8424   0.429E-04-0.912E-05
CGA:  30    -0.667192988478E+03   -0.48065E-04    0.23682E-04  8424   0.289E-03-0.104E-03
CGA:  31    -0.667193013606E+03   -0.25127E-04   -0.46721E-04  8424   0.613E-04 0.515E-04
CGA:  32    -0.667193038640E+03   -0.25035E-04   -0.21847E-04  8424   0.828E-05-0.124E-04
CGA:  33    -0.667193053391E+03   -0.14750E-04    0.17598E-05  8424   0.738E-05 0.291E-05
CGA:  34    -0.667193054737E+03   -0.13461E-05   -0.29382E-05  8424   0.447E-05 0.611E-05
  50 F= -.66719305E+03 E0= -.66719305E+03  d E =-.431629E-01  mag=    12.0000
       N       E                     dE             d eps       ncg     rms          ort
SDA:   1    -0.665091175209E+03    0.21019E+01    0.00000E+00  8424   0.527E+01 0.000E+00
CGA:   2    -0.666538950648E+03   -0.14478E+01   -0.14477E+01  8424   0.296E+01-0.604E-03
CGA:   3    -0.667079210387E+03   -0.54026E+00   -0.54035E+00  8424   0.617E+00 0.748E-03
CGA:   4    -0.667176833508E+03   -0.97623E-01   -0.97673E-01  8424   0.141E+00 0.152E-03
CGA:   5    -0.667201343873E+03   -0.24510E-01   -0.24540E-01  8424   0.309E-01 0.765E-04
CGA:   6    -0.667207688860E+03   -0.63450E-02   -0.63594E-02  8424   0.729E-02 0.500E-04
CGA:   7    -0.667209257778E+03   -0.15689E-02   -0.15820E-02  8424   0.210E-02 0.533E-04
CGA:   8    -0.667209749272E+03   -0.49149E-03   -0.50889E-03  8424   0.672E-03 0.839E-04
CGA:   9    -0.667209912670E+03   -0.16340E-03   -0.17830E-03  8424   0.225E-03 0.819E-04
CGA:  10    -0.667209955400E+03   -0.42730E-04   -0.59037E-04  8424   0.844E-04 0.838E-04
CGA:  11    -0.667209958929E+03   -0.35291E-05   -0.19265E-04  8424   0.372E-04 0.624E-04
  51 F= -.66720996E+03 E0= -.66720996E+03  d E =-.169042E-01  mag=    12.0000
       N       E                     dE             d eps       ncg     rms          ort
SDA:   1    -0.644898516906E+03    0.22311E+02    0.00000E+00  8424   0.614E+02 0.000E+00
CGA:   2    -0.659252432809E+03   -0.14354E+02   -0.14404E+02  8424   0.307E+02-0.106E-01
CGA:   3    -0.665427154529E+03   -0.61747E+01   -0.61602E+01  8424   0.791E+01 0.633E-01
CGA:   4    -0.666696322759E+03   -0.12692E+01   -0.12704E+01  8424   0.180E+01 0.623E-02
CGA:   5    -0.667004425661E+03   -0.30810E+00   -0.30875E+00  8424   0.387E+00 0.165E-02
CGA:   6    -0.667083470900E+03   -0.79045E-01   -0.78993E-01  8424   0.926E-01-0.307E-03
CGA:   7    -0.667104030005E+03   -0.20559E-01   -0.20665E-01  8424   0.273E-01 0.841E-03
CGA:   8    -0.667110650799E+03   -0.66208E-02   -0.66658E-02  8424   0.865E-02 0.453E-03
CGA:   9    -0.667113023786E+03   -0.23730E-02   -0.23928E-02  8424   0.301E-02 0.313E-03
CGA:  10    -0.667113842418E+03   -0.81863E-03   -0.84874E-03  8424   0.107E-02 0.500E-03
CGA:  11    -0.667114103725E+03   -0.26131E-03   -0.29422E-03  8424   0.327E-03 0.348E-03
CGA:  12    -0.667114128302E+03   -0.24577E-04   -0.67018E-04  8424   0.157E-03 0.250E-03
CGA:  13    -0.667114118993E+03    0.93097E-05   -0.17291E-04  8424   0.111E-03 0.129E-03
  52 F= -.66711412E+03 E0= -.66711412E+03  d E =0.958399E-01  mag=    12.0000
       N       E                     dE             d eps       ncg     rms          ort
SDA:   1    -0.657284182724E+03    0.98299E+01    0.00000E+00  8424   0.294E+02 0.000E+00
CGA:   2    -0.663597031046E+03   -0.63128E+01   -0.63285E+01  8424   0.134E+02 0.453E-01
CGA:   3    -0.666371007755E+03   -0.27740E+01   -0.27702E+01  8424   0.382E+01-0.810E-02
CGA:   4    -0.666999907522E+03   -0.62890E+00   -0.62976E+00  8424   0.904E+00 0.651E-03
CGA:   5    -0.667152507233E+03   -0.15260E+00   -0.15288E+00  8424   0.198E+00 0.151E-02
CGA:   6    -0.667191598060E+03   -0.39091E-01   -0.39045E-01  8424   0.452E-01-0.513E-03
CGA:   7    -0.667201610116E+03   -0.10012E-01   -0.10046E-01  8424   0.133E-01 0.701E-03
CGA:   8    -0.667204804758E+03   -0.31946E-02   -0.32026E-02  8424   0.394E-02 0.259E-03
CGA:   9    -0.667205904859E+03   -0.11001E-02   -0.10995E-02  8424   0.132E-02 0.832E-04
CGA:  10    -0.667206266982E+03   -0.36212E-03   -0.36192E-03  8424   0.477E-03 0.225E-03
CGA:  11    -0.667206406616E+03   -0.13963E-03   -0.14143E-03  8424   0.157E-03 0.126E-03
CGA:  12    -0.667206423220E+03   -0.16605E-04   -0.29987E-04  8424   0.749E-04 0.115E-03
CGA:  13    -0.667206422654E+03    0.56647E-06   -0.84484E-05  8424   0.518E-04 0.607E-04
