       N       E                     dE             d eps       ncg     rms          rms(c)
DAV:   1     0.827225653925E+04    0.82723E+04   -0.24014E+05 34296   0.226E+03
DAV:   2     0.919392232429E+03   -0.73529E+04   -0.69016E+04 33696   0.657E+02
DAV:   3    -0.674340544110E+03   -0.15937E+04   -0.14004E+04 35952   0.282E+02
DAV:   4    -0.830374051379E+03   -0.15603E+03   -0.15333E+03 36816   0.857E+01
DAV:   5    -0.832868248029E+03   -0.24942E+01   -0.24835E+01 37068   0.122E+01    0.112E+02
DAV:   6    -0.726994290461E+03    0.10587E+03   -0.90106E+02 43800   0.124E+02    0.113E+02
DAV:   7    -0.649197918110E+03    0.77796E+02   -0.28878E+02 36168   0.115E+02    0.422E+01
DAV:   8    -0.669021558077E+03   -0.19824E+02   -0.79623E+01 43296   0.406E+01    0.472E+01
DAV:   9    -0.669087766929E+03   -0.66209E-01   -0.78565E+01 36816   0.394E+01    0.277E+01
DAV:  10    -0.667900892243E+03    0.11869E+01   -0.18273E+01 37800   0.257E+01    0.175E+01
DAV:  11    -0.668451242977E+03   -0.55035E+00   -0.93912E+00 37092   0.148E+01    0.122E+01
DAV:  12    -0.668584578484E+03   -0.13334E+00   -0.20447E+00 37164   0.873E+00    0.835E+00
DAV:  13    -0.668672534944E+03   -0.87956E-01   -0.86676E-01 38184   0.567E+00    0.544E+00
DAV:  14    -0.668723320531E+03   -0.50786E-01   -0.36294E-01 37008   0.480E+00    0.308E+00
DAV:  15    -0.668812946826E+03   -0.89626E-01   -0.26132E-01 37500   0.398E+00    0.214E+00
DAV:  16    -0.668886635105E+03   -0.73688E-01   -0.18632E-01 41556   0.223E+00    0.214E+00
DAV:  17    -0.668914151113E+03   -0.27516E-01   -0.51855E-02 37572   0.127E+00    0.200E+00
DAV:  18    -0.668977231463E+03   -0.63080E-01   -0.70136E-02 41184   0.131E+00    0.197E+00
DAV:  19    -0.669081040415E+03   -0.10381E+00   -0.12449E-01 41448   0.265E+00    0.149E+00
DAV:  20    -0.669166355443E+03   -0.85315E-01   -0.10909E-01 44772   0.178E+00    0.104E+00
DAV:  21    -0.669211993412E+03   -0.45638E-01   -0.43366E-02 42924   0.118E+00    0.692E-01
DAV:  22    -0.669250104614E+03   -0.38111E-01   -0.30224E-02 42648   0.906E-01    0.425E-01
DAV:  23    -0.669263830918E+03   -0.13726E-01   -0.13293E-02 41004   0.554E-01    0.302E-01
DAV:  24    -0.669264207410E+03   -0.37649E-03   -0.73418E-03 36768   0.462E-01    0.300E-01
DAV:  25    -0.669268877261E+03   -0.46699E-02   -0.13025E-03 38112   0.293E-01    0.200E-01
DAV:  26    -0.669272152028E+03   -0.32748E-02   -0.48441E-04 49896   0.261E-01    0.159E-01
DAV:  27    -0.669276231279E+03   -0.40793E-02   -0.47318E-04 47040   0.267E-01    0.116E-01
DAV:  28    -0.669279105984E+03   -0.28747E-02   -0.69059E-04 47472   0.228E-01    0.108E-01
DAV:  29    -0.669282312219E+03   -0.32062E-02   -0.30022E-04 45156   0.228E-01    0.107E-01
DAV:  30    -0.669284782599E+03   -0.24704E-02   -0.48035E-04 46548   0.161E-01    0.109E-01
DAV:  31    -0.669282154710E+03    0.26279E-02   -0.65141E-04 35316   0.222E-01    0.117E-01
DAV:  32    -0.669285289528E+03   -0.31348E-02   -0.18874E-04 33336   0.248E-01    0.123E-01
DAV:  33    -0.669283159908E+03    0.21296E-02   -0.70982E-05 30192   0.160E-01    0.124E-01
DAV:  34    -0.669283307424E+03   -0.14752E-03   -0.17658E-05 22464   0.178E-02    0.123E-01
DAV:  35    -0.669286842589E+03   -0.35352E-02   -0.16077E-04 36072   0.254E-01    0.123E-01
DAV:  36    -0.669292830313E+03   -0.59877E-02   -0.68490E-04 44328   0.407E-01    0.125E-01
DAV:  37    -0.669303651344E+03   -0.10821E-01   -0.19388E-03 43344   0.686E-01    0.140E-01
DAV:  38    -0.669305398038E+03   -0.17467E-02   -0.23675E-03 37656   0.131E-01    0.154E-01
DAV:  39    -0.669310866311E+03   -0.54683E-02   -0.15303E-04 43992   0.301E-01    0.195E-01
DAV:  40    -0.669305654804E+03    0.52115E-02   -0.63860E-04 44664   0.288E-01    0.273E-01
DAV:  41    -0.669310164335E+03   -0.45095E-02   -0.70595E-04 44016   0.234E-01    0.345E-01
DAV:  42    -0.669296404737E+03    0.13760E-01   -0.22156E-03 42960   0.817E-01    0.385E-01
DAV:  43    -0.669284732086E+03    0.11673E-01   -0.35010E-03 45324   0.848E-01    0.416E-01
DAV:  44    -0.669291249789E+03   -0.65177E-02   -0.25746E-03 40884   0.557E-01    0.401E-01
DAV:  45    -0.669302333215E+03   -0.11083E-01   -0.14900E-03 45792   0.760E-01    0.407E-01
DAV:  46    -0.669302175771E+03    0.15744E-03   -0.70954E-04 45492   0.228E-01    0.428E-01
DAV:  47    -0.669315214241E+03   -0.13038E-01   -0.19900E-03 44688   0.835E-01    0.433E-01
DAV:  48    -0.669316175528E+03   -0.96129E-03   -0.18072E-03 37116   0.146E-01    0.449E-01
DAV:  49    -0.669319938761E+03   -0.37632E-02   -0.18139E-04 34860   0.211E-01    0.452E-01
DAV:  50    -0.669319984124E+03   -0.45363E-04   -0.18310E-04 32712   0.360E-02    0.457E-01
DAV:  51    -0.669317598296E+03    0.23858E-02   -0.80294E-05 32616   0.178E-01    0.436E-01
DAV:  52    -0.669314988032E+03    0.26103E-02   -0.20010E-04 41832   0.213E-01    0.430E-01
DAV:  53    -0.669315584436E+03   -0.59640E-03   -0.23178E-04 42564   0.177E-01    0.430E-01
DAV:  54    -0.669316023314E+03   -0.43888E-03   -0.18921E-04 45180   0.139E-01    0.426E-01
DAV:  55    -0.669316658110E+03   -0.63480E-03   -0.18392E-04 31452   0.475E-02    0.425E-01
DAV:  56    -0.669309773825E+03    0.68843E-02   -0.53666E-04 39060   0.405E-01    0.419E-01
DAV:  57    -0.669309809028E+03   -0.35203E-04   -0.26394E-04 34404   0.419E-02    0.411E-01
DAV:  58    -0.669307409384E+03    0.23996E-02   -0.63519E-05 31692   0.145E-01    0.418E-01
DAV:  59    -0.669307241785E+03    0.16760E-03   -0.12046E-04 42480   0.153E-01    0.425E-01
DAV:  60    -0.669311661911E+03   -0.44201E-02   -0.23169E-04 40956   0.279E-01    0.420E-01
DAV:  61    -0.669335849887E+03   -0.24188E-01   -0.46267E-03 43704   0.124E+00    0.417E-01
DAV:  62    -0.669337374202E+03   -0.15243E-02   -0.39013E-03 36456   0.161E-01    0.437E-01
DAV:  63    -0.669337122114E+03    0.25209E-03   -0.10540E-04 32592   0.104E-01    0.433E-01
DAV:  64    -0.669333647997E+03    0.34741E-02   -0.19534E-04 41256   0.233E-01    0.420E-01
DAV:  65    -0.669324237390E+03    0.94106E-02   -0.91859E-04 44904   0.508E-01    0.408E-01
DAV:  66    -0.669328911021E+03   -0.46736E-02   -0.92597E-04 44544   0.305E-01    0.387E-01
DAV:  67    -0.669331363627E+03   -0.24526E-02   -0.35103E-04 43656   0.162E-01    0.383E-01
DAV:  68    -0.669332840206E+03   -0.14766E-02   -0.38799E-04 45852   0.228E-01    0.393E-01
DAV:  69    -0.669325592835E+03    0.72474E-02   -0.90266E-04 43992   0.413E-01    0.406E-01
DAV:  70    -0.669334492730E+03   -0.88999E-02   -0.79039E-04 44136   0.479E-01    0.399E-01
DAV:  71    -0.669343374290E+03   -0.88816E-02   -0.92442E-04 44688   0.464E-01    0.377E-01
DAV:  72    -0.669338561055E+03    0.48132E-02   -0.74149E-04 41436   0.315E-01    0.356E-01
DAV:  73    -0.669344076368E+03   -0.55153E-02   -0.40797E-04 42744   0.344E-01    0.334E-01
DAV:  74    -0.669343606775E+03    0.46959E-03   -0.32780E-04 36912   0.102E-01    0.328E-01
DAV:  75    -0.669343122781E+03    0.48399E-03   -0.51913E-05 29724   0.325E-02    0.327E-01
DAV:  76    -0.669342728804E+03    0.39398E-03   -0.10047E-05 20232   0.375E-02    0.332E-01
DAV:  77    -0.669342141077E+03    0.58773E-03   -0.67371E-06 20664   0.557E-02    0.328E-01
DAV:  78    -0.669343231474E+03   -0.10904E-02   -0.11472E-04 41256   0.173E-01    0.313E-01
DAV:  79    -0.669343297338E+03   -0.65864E-04   -0.10122E-04 41544   0.518E-02    0.310E-01
DAV:  80    -0.669343365385E+03   -0.68047E-04   -0.25874E-05 26052   0.160E-02    0.310E-01
DAV:  81    -0.669349390563E+03   -0.60252E-02   -0.24008E-04 43188   0.288E-01    0.303E-01
DAV:  82    -0.669351167532E+03   -0.17770E-02   -0.22140E-04 44364   0.812E-02    0.312E-01
DAV:  83    -0.669352383422E+03   -0.12159E-02   -0.39229E-05 31248   0.567E-02    0.314E-01
DAV:  84    -0.669353331102E+03   -0.94768E-03   -0.18757E-05 22764   0.402E-02    0.315E-01
DAV:  85    -0.669353111144E+03    0.21996E-03   -0.36055E-05 28020   0.318E-02    0.315E-01
DAV:  86    -0.669348329473E+03    0.47817E-02   -0.13397E-04 34668   0.230E-01    0.327E-01
DAV:  87    -0.669350405079E+03   -0.20756E-02   -0.75738E-05 33840   0.113E-01    0.329E-01
DAV:  88    -0.669349711677E+03    0.69340E-03   -0.17142E-05 23556   0.686E-02    0.328E-01
DAV:  89    -0.669349962207E+03   -0.25053E-03   -0.11646E-05 20940   0.523E-02    0.327E-01
DAV:  90    -0.669348857196E+03    0.11050E-02   -0.17945E-05 23724   0.742E-02    0.329E-01
DAV:  91    -0.669351108919E+03   -0.22517E-02   -0.17192E-04 36900   0.240E-01    0.309E-01
DAV:  92    -0.669351234971E+03   -0.12605E-03   -0.10505E-04 33516   0.259E-02    0.307E-01
DAV:  93    -0.669352860719E+03   -0.16257E-02   -0.12235E-05 23964   0.850E-02    0.304E-01
DAV:  94    -0.669352870828E+03   -0.10109E-04   -0.16573E-05 21096   0.484E-02    0.303E-01
DAV:  95    -0.669353073170E+03   -0.20234E-03   -0.10940E-05 19860   0.331E-02    0.301E-01
DAV:  96    -0.669354479343E+03   -0.14062E-02   -0.19543E-05 24156   0.706E-02    0.297E-01
DAV:  97    -0.669354888812E+03   -0.40947E-03   -0.35242E-05 26532   0.247E-02    0.297E-01
DAV:  98    -0.669354306964E+03    0.58185E-03   -0.15635E-05 22788   0.546E-02    0.303E-01
DAV:  99    -0.669353613907E+03    0.69306E-03   -0.83786E-06 19140   0.445E-02    0.305E-01
DAV: 100    -0.669351089762E+03    0.25241E-02   -0.48629E-05 29964   0.120E-01    0.308E-01
DAV: 101    -0.669367582179E+03   -0.16492E-01   -0.53820E-03 43812   0.142E+00    0.265E-01
DAV: 102    -0.669368504952E+03   -0.92277E-03   -0.26255E-03 43212   0.305E-01    0.233E-01
DAV: 103    -0.669364559454E+03    0.39455E-02   -0.30060E-04 41460   0.283E-01    0.225E-01
DAV: 104    -0.669363104069E+03    0.14554E-02   -0.36219E-04 44304   0.330E-01    0.198E-01
DAV: 105    -0.669368611995E+03   -0.55079E-02   -0.48072E-04 44880   0.272E-01    0.179E-01
DAV: 106    -0.669388596378E+03   -0.19984E-01   -0.21249E-03 43212   0.852E-01    0.163E-01
DAV: 107    -0.669386602078E+03    0.19943E-02   -0.17325E-03 35844   0.190E-01    0.167E-01
DAV: 108    -0.669387117376E+03   -0.51530E-03   -0.11654E-04 36000   0.884E-02    0.160E-01
DAV: 109    -0.669389956500E+03   -0.28391E-02   -0.18102E-04 38820   0.169E-01    0.144E-01
DAV: 110    -0.669395002858E+03   -0.50464E-02   -0.26642E-04 43716   0.229E-01    0.135E-01
DAV: 111    -0.669393977782E+03    0.10251E-02   -0.28507E-04 33708   0.866E-02    0.134E-01
DAV: 112    -0.669395870394E+03   -0.18926E-02   -0.42792E-05 30228   0.964E-02    0.135E-01
DAV: 113    -0.669393689700E+03    0.21807E-02   -0.49585E-05 30216   0.119E-01    0.142E-01
DAV: 114    -0.669393476917E+03    0.21278E-03   -0.60708E-05 35748   0.794E-02    0.145E-01
DAV: 115    -0.669393865068E+03   -0.38815E-03   -0.39458E-05 28524   0.355E-02    0.144E-01
DAV: 116    -0.669395438029E+03   -0.15730E-02   -0.45335E-04 44448   0.396E-01    0.149E-01
DAV: 117    -0.669401186457E+03   -0.57484E-02   -0.37186E-04 41484   0.292E-01    0.135E-01
DAV: 118    -0.669400958960E+03    0.22750E-03   -0.23413E-04 41856   0.836E-02    0.137E-01
DAV: 119    -0.669400449290E+03    0.50967E-03   -0.30583E-05 27108   0.398E-02    0.137E-01
DAV: 120    -0.669400520947E+03   -0.71656E-04   -0.13711E-05 20160   0.193E-02    0.136E-01
DAV: 121    -0.669393665832E+03    0.68551E-02   -0.55788E-04 44880   0.447E-01    0.158E-01
DAV: 122    -0.669396094768E+03   -0.24289E-02   -0.39983E-04 41016   0.123E-01    0.150E-01
DAV: 123    -0.669395874466E+03    0.22030E-03   -0.78015E-05 31584   0.592E-02    0.158E-01
DAV: 124    -0.669396253522E+03   -0.37906E-03   -0.18080E-05 22416   0.311E-02    0.156E-01
DAV: 125    -0.669397966034E+03   -0.17125E-02   -0.91692E-06 21432   0.721E-02    0.153E-01
DAV: 126    -0.669419810472E+03   -0.21844E-01   -0.22534E-03 44988   0.908E-01    0.166E-01
DAV: 127    -0.669420270169E+03   -0.45970E-03   -0.18389E-03 45612   0.350E-01    0.182E-01
DAV: 128    -0.669420605505E+03   -0.33534E-03   -0.72701E-04 35004   0.675E-02    0.182E-01
DAV: 129    -0.669421161568E+03   -0.55606E-03   -0.89404E-06 22284   0.286E-02    0.181E-01
DAV: 130    -0.669421182056E+03   -0.20488E-04   -0.90933E-06 19812   0.836E-03    0.181E-01
DAV: 131    -0.669416428617E+03    0.47534E-02   -0.86951E-04 44124   0.561E-01    0.140E-01
DAV: 132    -0.669411230870E+03    0.51977E-02   -0.69560E-04 46440   0.244E-01    0.131E-01
DAV: 133    -0.669409504786E+03    0.17261E-02   -0.30325E-04 45768   0.126E-01    0.121E-01
DAV: 134    -0.669407614484E+03    0.18903E-02   -0.94847E-05 39816   0.107E-01    0.119E-01
DAV: 135    -0.669407870052E+03   -0.25557E-03   -0.11511E-04 36240   0.622E-02    0.117E-01
DAV: 136    -0.669401409406E+03    0.64606E-02   -0.30665E-04 47772   0.367E-01    0.124E-01
DAV: 137    -0.669401941586E+03   -0.53218E-03   -0.32118E-04 44844   0.140E-01    0.129E-01
DAV: 138    -0.669402230639E+03   -0.28905E-03   -0.10018E-04 31056   0.529E-02    0.127E-01
DAV: 139    -0.669402290449E+03   -0.59809E-04   -0.66233E-06 18384   0.884E-03    0.127E-01
DAV: 140    -0.669402205349E+03    0.85099E-04   -0.26522E-06 19056   0.264E-02    0.126E-01
DAV: 141    -0.669404919192E+03   -0.27138E-02   -0.26100E-04 41340   0.304E-01    0.116E-01
DAV: 142    -0.669404559804E+03    0.35939E-03   -0.13386E-04 40320   0.120E-01    0.115E-01
DAV: 143    -0.669404935916E+03   -0.37611E-03   -0.14658E-04 39444   0.213E-01    0.107E-01
DAV: 144    -0.669405076216E+03   -0.14030E-03   -0.21777E-04 43740   0.158E-01    0.104E-01
DAV: 145    -0.669405123599E+03   -0.47383E-04   -0.16675E-04 41244   0.723E-02    0.105E-01
DAV: 146    -0.669406260964E+03   -0.11374E-02   -0.34529E-05 28476   0.560E-02    0.103E-01
DAV: 147    -0.669407837583E+03   -0.15766E-02   -0.30517E-05 27576   0.120E-01    0.101E-01
DAV: 148    -0.669407910078E+03   -0.72495E-04   -0.82636E-05 29796   0.322E-02    0.101E-01
DAV: 149    -0.669408158361E+03   -0.24828E-03   -0.93377E-06 19164   0.149E-02    0.100E-01
DAV: 150    -0.669408809606E+03   -0.65124E-03   -0.24088E-06 18816   0.386E-02    0.978E-02
DAV: 151    -0.669414399717E+03   -0.55901E-02   -0.33265E-04 45204   0.334E-01    0.820E-02
DAV: 152    -0.669414311464E+03    0.88253E-04   -0.39610E-04 44532   0.179E-01    0.815E-02
DAV: 153    -0.669414756754E+03   -0.44529E-03   -0.17716E-04 43416   0.160E-01    0.836E-02
DAV: 154    -0.669416058867E+03   -0.13021E-02   -0.18940E-04 40596   0.202E-01    0.823E-02
DAV: 155    -0.669417153886E+03   -0.10950E-02   -0.31785E-04 43860   0.988E-02    0.801E-02
DAV: 156    -0.669417695904E+03   -0.54202E-03   -0.16485E-04 39120   0.240E-01    0.728E-02
DAV: 157    -0.669421150274E+03   -0.34544E-02   -0.34169E-04 45684   0.321E-01    0.665E-02
DAV: 158    -0.669421927973E+03   -0.77770E-03   -0.42269E-04 47412   0.143E-01    0.625E-02
DAV: 159    -0.669422313563E+03   -0.38559E-03   -0.11065E-04 42012   0.132E-01    0.626E-02
DAV: 160    -0.669424192109E+03   -0.18785E-02   -0.27078E-04 46656   0.314E-01    0.675E-02
DAV: 161    -0.669424070642E+03    0.12147E-03   -0.58644E-04 46764   0.258E-01    0.734E-02
DAV: 162    -0.669425000528E+03   -0.92989E-03   -0.42301E-04 46212   0.137E-01    0.709E-02
DAV: 163    -0.669425342068E+03   -0.34154E-03   -0.13171E-04 40380   0.627E-02    0.703E-02
DAV: 164    -0.669426236402E+03   -0.89433E-03   -0.25286E-05 27684   0.792E-02    0.715E-02
DAV: 165    -0.669428074331E+03   -0.18379E-02   -0.74678E-05 37788   0.162E-01    0.731E-02
DAV: 166    -0.669431753495E+03   -0.36792E-02   -0.74942E-04 45660   0.486E-01    0.902E-02
DAV: 167    -0.669436081430E+03   -0.43279E-02   -0.91805E-04 46644   0.229E-01    0.966E-02
DAV: 168    -0.669436575183E+03   -0.49375E-03   -0.44085E-04 34560   0.634E-02    0.969E-02
DAV: 169    -0.669437839725E+03   -0.12645E-02   -0.93782E-06 23808   0.849E-02    0.106E-01
DAV: 170    -0.669440140432E+03   -0.23007E-02   -0.12793E-04 41892   0.193E-01    0.120E-01
DAV: 171    -0.669420986876E+03    0.19154E-01   -0.47461E-03 44736   0.138E+00    0.981E-02
DAV: 172    -0.669421721313E+03   -0.73444E-03   -0.26792E-03 35100   0.167E-01    0.670E-02
DAV: 173    -0.669422677104E+03   -0.95579E-03   -0.26917E-05 31296   0.115E-01    0.637E-02
DAV: 174    -0.669424058238E+03   -0.13811E-02   -0.14741E-04 41628   0.199E-01    0.631E-02
DAV: 175    -0.669424564554E+03   -0.50632E-03   -0.15960E-04 44580   0.977E-02    0.651E-02
DAV: 176    -0.669425566921E+03   -0.10024E-02   -0.99518E-05 36456   0.113E-01    0.617E-02
DAV: 177    -0.669425385978E+03    0.18094E-03   -0.79684E-05 35988   0.150E-01    0.621E-02
DAV: 178    -0.669426485460E+03   -0.10995E-02   -0.65305E-05 41172   0.816E-02    0.626E-02
DAV: 179    -0.669426910485E+03   -0.42502E-03   -0.46981E-05 31188   0.282E-02    0.630E-02
DAV: 180    -0.669425508955E+03    0.14015E-02   -0.31201E-05 26568   0.813E-02    0.632E-02
DAV: 181    -0.669424632481E+03    0.87647E-03   -0.10251E-04 40572   0.149E-01    0.623E-02
DAV: 182    -0.669426159837E+03   -0.15274E-02   -0.10392E-04 38820   0.145E-01    0.617E-02
DAV: 183    -0.669425897078E+03    0.26276E-03   -0.90630E-05 39000   0.146E-01    0.626E-02
DAV: 184    -0.669426445876E+03   -0.54880E-03   -0.11781E-04 41892   0.127E-01    0.631E-02
DAV: 185    -0.669426666524E+03   -0.22065E-03   -0.11617E-04 41316   0.835E-02    0.629E-02
DAV: 186    -0.669427690798E+03   -0.10243E-02   -0.45541E-05 29964   0.965E-02    0.622E-02
DAV: 187    -0.669427285122E+03    0.40568E-03   -0.75431E-05 30660   0.733E-02    0.641E-02
DAV: 188    -0.669429243929E+03   -0.19588E-02   -0.95236E-05 32388   0.177E-01    0.639E-02
DAV: 189    -0.669432893627E+03   -0.36497E-02   -0.38182E-04 44688   0.315E-01    0.671E-02
DAV: 190    -0.669435405720E+03   -0.25121E-02   -0.46071E-04 45240   0.224E-01    0.683E-02
DAV: 191    -0.669435491873E+03   -0.86152E-04   -0.38554E-04 44904   0.152E-01    0.743E-02
DAV: 192    -0.669434721237E+03    0.77064E-03   -0.19327E-04 31908   0.126E-01    0.747E-02
DAV: 193    -0.669434735501E+03   -0.14264E-04   -0.24811E-05 26616   0.213E-02    0.742E-02
DAV: 194    -0.669434700502E+03    0.34999E-04   -0.19641E-06 18924   0.295E-02    0.747E-02
DAV: 195    -0.669435419149E+03   -0.71865E-03   -0.29387E-05 26868   0.105E-01    0.744E-02
DAV: 196    -0.669437643482E+03   -0.22243E-02   -0.27059E-04 43320   0.287E-01    0.710E-02
DAV: 197    -0.669439026041E+03   -0.13826E-02   -0.25588E-04 46308   0.129E-01    0.624E-02
DAV: 198    -0.669442646307E+03   -0.36203E-02   -0.23065E-04 42888   0.283E-01    0.569E-02
DAV: 199    -0.669446157608E+03   -0.35113E-02   -0.57593E-04 45312   0.319E-01    0.420E-02
DAV: 200    -0.669448921950E+03   -0.27643E-02   -0.69173E-04 47172   0.201E-01
   1 F= -.66944892E+03 E0= -.66944892E+03  d E =-.669449E+03  mag=    -0.0000
       N       E                     dE             d eps       ncg     rms          rms(c)
DAV:   1    -0.669457896972E+03   -0.11739E-01   -0.10875E-02 47088   0.116E+00    0.666E-02
DAV:   2    -0.669458455874E+03   -0.55890E-03   -0.48260E-03 39324   0.161E-01    0.491E-02
DAV:   3    -0.669458542740E+03   -0.86866E-04   -0.12368E-04 37176   0.567E-02    0.362E-02
DAV:   4    -0.669458613414E+03   -0.70675E-04   -0.13989E-05 21792   0.324E-02    0.288E-02
DAV:   5    -0.669458848901E+03   -0.23549E-03   -0.78481E-06 23052   0.513E-02    0.210E-02
DAV:   6    -0.669459101491E+03   -0.25259E-03   -0.20288E-05 25824   0.586E-02    0.184E-02
DAV:   7    -0.669459190998E+03   -0.89507E-04   -0.33296E-05 27348   0.201E-02    0.195E-02
DAV:   8    -0.669459036642E+03    0.15436E-03   -0.11442E-05 21516   0.379E-02    0.245E-02
DAV:   9    -0.669459297916E+03   -0.26127E-03   -0.84396E-06 21948   0.580E-02    0.226E-02
DAV:  10    -0.669459450868E+03   -0.15295E-03   -0.54326E-06 19560   0.332E-02    0.221E-02
DAV:  11    -0.669459318542E+03    0.13233E-03   -0.49876E-06 19476   0.320E-02    0.226E-02
DAV:  12    -0.669459477663E+03   -0.15912E-03   -0.49902E-06 19320   0.366E-02    0.233E-02
DAV:  13    -0.669459404224E+03    0.73439E-04   -0.21785E-06 18192   0.199E-02    0.233E-02
DAV:  14    -0.669459561530E+03   -0.15731E-03   -0.66379E-06 19884   0.421E-02    0.242E-02
DAV:  15    -0.669459599568E+03   -0.38039E-04   -0.55383E-06 18912   0.244E-02    0.256E-02
DAV:  16    -0.669459671151E+03   -0.71582E-04   -0.45742E-05 28368   0.123E-01    0.237E-02
DAV:  17    -0.669459619705E+03    0.51445E-04   -0.71316E-05 34560   0.127E-01    0.221E-02
DAV:  18    -0.669460075733E+03   -0.45603E-03   -0.72974E-05 38772   0.879E-02    0.207E-02
DAV:  19    -0.669460421466E+03   -0.34573E-03   -0.60693E-05 32988   0.125E-01    0.189E-02
DAV:  20    -0.669460645079E+03   -0.22361E-03   -0.10164E-04 40392   0.925E-02    0.176E-02
DAV:  21    -0.669460951331E+03   -0.30625E-03   -0.69727E-05 30948   0.738E-02    0.159E-02
DAV:  22    -0.669461310931E+03   -0.35960E-03   -0.15632E-05 24540   0.624E-02    0.162E-02
DAV:  23    -0.669461460304E+03   -0.14937E-03   -0.35073E-05 28476   0.298E-02    0.176E-02
DAV:  24    -0.669461318612E+03    0.14169E-03   -0.15740E-05 23268   0.325E-02    0.197E-02
DAV:  25    -0.669461297604E+03    0.21008E-04   -0.18621E-06 16992   0.555E-03    0.195E-02
DAV:  26    -0.669461304592E+03   -0.69879E-05   -0.20840E-06 18372   0.290E-02
   2 F= -.66946130E+03 E0= -.66946130E+03  d E =-.123826E-01  mag=     0.0000
       N       E                     dE             d eps       ncg     rms          rms(c)
DAV:   1    -0.669425457862E+03    0.35840E-01   -0.43000E+00 47076   0.230E+01    0.114E+00
DAV:   2    -0.669601342037E+03   -0.17588E+00   -0.18092E+00 39468   0.292E+00    0.789E-01
DAV:   3    -0.669602663014E+03   -0.13210E-02   -0.38353E-02 38088   0.926E-01    0.592E-01
DAV:   4    -0.669601829255E+03    0.83376E-03   -0.42564E-03 36912   0.512E-01    0.448E-01
DAV:   5    -0.669602201134E+03   -0.37188E-03   -0.39837E-03 38472   0.431E-01    0.248E-01
DAV:   6    -0.669601815723E+03    0.38541E-03   -0.24439E-03 36960   0.348E-01    0.926E-02
DAV:   7    -0.669601814642E+03    0.10813E-05   -0.52362E-04 37404   0.137E-01    0.527E-02
DAV:   8    -0.669601892875E+03   -0.78233E-04   -0.20453E-04 38808   0.627E-02    0.321E-02
DAV:   9    -0.669601893893E+03   -0.10178E-05   -0.37476E-05 32796   0.434E-02
   3 F= -.66960189E+03 E0= -.66960189E+03  d E =-.140589E+00  mag=     0.0000
       N       E                     dE             d eps       ncg     rms          rms(c)
DAV:   1    -0.668273878379E+03    0.13280E+01   -0.52703E+01 45876   0.654E+01    0.357E+00
DAV:   2    -0.669805345943E+03   -0.15315E+01   -0.15636E+01 38424   0.913E+00    0.272E+00
DAV:   3    -0.669822831730E+03   -0.17486E-01   -0.51984E-01 37620   0.366E+00    0.205E+00
DAV:   4    -0.669814113660E+03    0.87181E-02   -0.47113E-02 37608   0.160E+00    0.151E+00
DAV:   5    -0.669815340502E+03   -0.12268E-02   -0.36782E-02 40692   0.131E+00    0.817E-01
DAV:   6    -0.669813658151E+03    0.16824E-02   -0.28556E-02 36552   0.121E+00    0.291E-01
DAV:   7    -0.669813458821E+03    0.19933E-03   -0.54472E-03 37272   0.463E-01    0.156E-01
DAV:   8    -0.669814038196E+03   -0.57938E-03   -0.20995E-03 37884   0.206E-01    0.102E-01
DAV:   9    -0.669814243898E+03   -0.20570E-03   -0.43713E-04 36840   0.137E-01    0.652E-02
DAV:  10    -0.669814885700E+03   -0.64180E-03   -0.10953E-04 41112   0.935E-02    0.481E-02
DAV:  11    -0.669815543458E+03   -0.65776E-03   -0.74931E-05 41268   0.821E-02    0.356E-02
DAV:  12    -0.669816060263E+03   -0.51680E-03   -0.49749E-05 32652   0.530E-02    0.328E-02
DAV:  13    -0.669816390557E+03   -0.33029E-03   -0.25606E-05 26832   0.322E-02    0.317E-02
DAV:  14    -0.669816842983E+03   -0.45243E-03   -0.41589E-06 20436   0.420E-02    0.287E-02
DAV:  15    -0.669819530440E+03   -0.26875E-02   -0.18899E-04 41520   0.271E-01    0.289E-02
DAV:  16    -0.669820365542E+03   -0.83510E-03   -0.25364E-04 44076   0.831E-02    0.308E-02
DAV:  17    -0.669819623320E+03    0.74222E-03   -0.90645E-05 34548   0.880E-02    0.360E-02
DAV:  18    -0.669819261818E+03    0.36150E-03   -0.89185E-06 20880   0.395E-02    0.371E-02
DAV:  19    -0.669819860423E+03   -0.59860E-03   -0.16271E-05 24516   0.720E-02    0.340E-02
DAV:  20    -0.669822449342E+03   -0.25889E-02   -0.25922E-04 41256   0.293E-01    0.354E-02
DAV:  21    -0.669822356801E+03    0.92541E-04   -0.14717E-04 33624   0.397E-02    0.379E-02
DAV:  22    -0.669823218876E+03   -0.86208E-03   -0.51266E-05 29784   0.105E-01    0.411E-02
DAV:  23    -0.669823853179E+03   -0.63430E-03   -0.54421E-05 32088   0.100E-01    0.486E-02
DAV:  24    -0.669824419073E+03   -0.56589E-03   -0.78551E-05 38208   0.118E-01    0.590E-02
DAV:  25    -0.669824735539E+03   -0.31647E-03   -0.82908E-05 38916   0.603E-02    0.622E-02
DAV:  26    -0.669824735460E+03    0.78726E-07   -0.45454E-05 28728   0.441E-02
   4 F= -.66982474E+03 E0= -.66982474E+03  d E =-.222842E+00  mag=     0.0000
       N       E                     dE             d eps       ncg     rms          rms(c)
DAV:   1    -0.669803265912E+03    0.21470E-01   -0.10968E+00 47556   0.112E+01    0.574E-01
DAV:   2    -0.669846475118E+03   -0.43209E-01   -0.44269E-01 38316   0.142E+00    0.407E-01
DAV:   3    -0.669847042018E+03   -0.56690E-03   -0.87624E-03 37644   0.448E-01    0.301E-01
DAV:   4    -0.669847096970E+03   -0.54951E-04   -0.10429E-03 37176   0.266E-01    0.226E-01
DAV:   5    -0.669848263748E+03   -0.11668E-02   -0.10162E-03 42012   0.240E-01    0.973E-02
DAV:   6    -0.669848562529E+03   -0.29878E-03   -0.54642E-04 36720   0.158E-01    0.510E-02
DAV:   7    -0.669848902170E+03   -0.33964E-03   -0.14603E-04 37824   0.788E-02    0.370E-02
DAV:   8    -0.669849357418E+03   -0.45525E-03   -0.40431E-05 32244   0.552E-02    0.307E-02
DAV:   9    -0.669849920800E+03   -0.56338E-03   -0.14297E-05 24540   0.659E-02    0.314E-02
DAV:  10    -0.669850459354E+03   -0.53855E-03   -0.35728E-05 31464   0.584E-02    0.308E-02
DAV:  11    -0.669850659345E+03   -0.19999E-03   -0.43501E-05 30696   0.232E-02    0.322E-02
DAV:  12    -0.669850097878E+03    0.56147E-03   -0.31305E-05 27912   0.754E-02    0.436E-02
DAV:  13    -0.669850388466E+03   -0.29059E-03   -0.60402E-06 20064   0.392E-02    0.409E-02
DAV:  14    -0.669852649797E+03   -0.22613E-02   -0.19653E-04 37992   0.265E-01    0.483E-02
DAV:  15    -0.669851744474E+03    0.90532E-03   -0.54532E-05 31836   0.115E-01    0.490E-02
DAV:  16    -0.669852137804E+03   -0.39333E-03   -0.20182E-05 24732   0.498E-02    0.474E-02
DAV:  17    -0.669854934710E+03   -0.27969E-02   -0.33507E-04 42876   0.320E-01    0.579E-02
DAV:  18    -0.669856272200E+03   -0.13375E-02   -0.32886E-04 45552   0.145E-01    0.630E-02
DAV:  19    -0.669854403177E+03    0.18690E-02   -0.29971E-04 40848   0.228E-01    0.674E-02
DAV:  20    -0.669854717805E+03   -0.31463E-03   -0.14052E-05 23628   0.445E-02    0.648E-02
DAV:  21    -0.669857596590E+03   -0.28788E-02   -0.30471E-04 40740   0.326E-01    0.784E-02
DAV:  22    -0.669858296490E+03   -0.69990E-03   -0.21593E-04 44820   0.105E-01    0.818E-02
DAV:  23    -0.669859350656E+03   -0.10542E-02   -0.66046E-05 36396   0.102E-01    0.821E-02
DAV:  24    -0.669859488954E+03   -0.13830E-03   -0.10603E-04 29964   0.450E-02    0.841E-02
DAV:  25    -0.669859382394E+03    0.10656E-03   -0.47112E-06 19380   0.300E-02    0.835E-02
DAV:  26    -0.669858171751E+03    0.12106E-02   -0.89543E-05 35424   0.166E-01    0.843E-02
DAV:  27    -0.669856057597E+03    0.21142E-02   -0.27823E-04 41412   0.258E-01    0.864E-02
DAV:  28    -0.669856726744E+03   -0.66915E-03   -0.17550E-04 39408   0.113E-01    0.800E-02
DAV:  29    -0.669862802665E+03   -0.60759E-02   -0.13439E-03 41964   0.686E-01    0.933E-02
DAV:  30    -0.669864122916E+03   -0.13203E-02   -0.84703E-04 45492   0.167E-01    0.961E-02
DAV:  31    -0.669864811239E+03   -0.68832E-03   -0.21259E-04 41580   0.661E-02    0.987E-02
DAV:  32    -0.669863790353E+03    0.10209E-02   -0.11336E-04 30636   0.108E-01    0.969E-02
DAV:  33    -0.669862920623E+03    0.86973E-03   -0.55088E-05 35280   0.109E-01    0.929E-02
DAV:  34    -0.669863743021E+03   -0.82240E-03   -0.41472E-05 31512   0.864E-02    0.918E-02
DAV:  35    -0.669863946974E+03   -0.20395E-03   -0.13614E-05 22260   0.587E-02    0.944E-02
DAV:  36    -0.669864197595E+03   -0.25062E-03   -0.10123E-05 19404   0.300E-02    0.941E-02
DAV:  37    -0.669862847924E+03    0.13497E-02   -0.59389E-05 31188   0.138E-01    0.937E-02
DAV:  38    -0.669863528662E+03   -0.68074E-03   -0.19080E-05 24768   0.748E-02    0.951E-02
DAV:  39    -0.669864577428E+03   -0.10488E-02   -0.25835E-05 26868   0.100E-01    0.960E-02
DAV:  40    -0.669868518784E+03   -0.39414E-02   -0.45189E-04 42108   0.366E-01    0.103E-01
DAV:  41    -0.669869125951E+03   -0.60717E-03   -0.33440E-04 39132   0.646E-02    0.104E-01
DAV:  42    -0.669869248108E+03   -0.12216E-03   -0.35505E-05 27948   0.140E-02    0.104E-01
DAV:  43    -0.669870109876E+03   -0.86177E-03   -0.10519E-05 24624   0.779E-02    0.107E-01
DAV:  44    -0.669870049974E+03    0.59903E-04   -0.99295E-06 19920   0.142E-02    0.108E-01
DAV:  45    -0.669870425912E+03   -0.37594E-03   -0.69845E-06 19680   0.378E-02    0.109E-01
DAV:  46    -0.669870429034E+03   -0.31226E-05   -0.49465E-06 17520   0.803E-03
   5 F= -.66987043E+03 E0= -.66987043E+03  d E =-.456936E-01  mag=     0.0000
       N       E                     dE             d eps       ncg     rms          rms(c)
DAV:   1    -0.669258367897E+03    0.61206E+00   -0.23069E+01 46296   0.412E+01    0.229E+00
DAV:   2    -0.669898943118E+03   -0.64058E+00   -0.65538E+00 37884   0.564E+00    0.173E+00
DAV:   3    -0.669902246238E+03   -0.33031E-02   -0.16199E-01 37128   0.187E+00    0.131E+00
DAV:   4    -0.669900002935E+03    0.22433E-02   -0.17026E-02 37932   0.980E-01    0.990E-01
DAV:   5    -0.669902152091E+03   -0.21492E-02   -0.16485E-02 40428   0.830E-01    0.414E-01
DAV:   6    -0.669902348340E+03   -0.19625E-03   -0.98414E-03 37068   0.619E-01    0.168E-01
DAV:   7    -0.669903039727E+03   -0.69139E-03   -0.18242E-03 36852   0.255E-01    0.101E-01
DAV:   8    -0.669904054653E+03   -0.10149E-02   -0.50918E-04 38196   0.114E-01    0.716E-02
DAV:   9    -0.669904950225E+03   -0.89557E-03   -0.10752E-04 38388   0.928E-02    0.596E-02
DAV:  10    -0.669906286762E+03   -0.13365E-02   -0.62637E-05 41100   0.961E-02    0.490E-02
DAV:  11    -0.669907387999E+03   -0.11012E-02   -0.68680E-05 42228   0.751E-02    0.446E-02
DAV:  12    -0.669908364143E+03   -0.97614E-03   -0.39490E-05 31704   0.612E-02    0.410E-02
DAV:  13    -0.669910801960E+03   -0.24378E-02   -0.58932E-05 33648   0.158E-01    0.359E-02
DAV:  14    -0.669916928225E+03   -0.61263E-02   -0.57225E-04 46656   0.408E-01    0.322E-02
DAV:  15    -0.669918909353E+03   -0.19811E-02   -0.72489E-04 47424   0.132E-01    0.296E-02
DAV:  16    -0.669918877351E+03    0.32002E-04   -0.19980E-04 31044   0.375E-02    0.286E-02
DAV:  17    -0.669918606673E+03    0.27068E-03   -0.10401E-06 18432   0.176E-02    0.289E-02
DAV:  18    -0.669918600683E+03    0.59897E-05   -0.13273E-06 18132   0.325E-03
   6 F= -.66991860E+03 E0= -.66991860E+03  d E =-.481716E-01  mag=     0.0000
       N       E                     dE             d eps       ncg     rms          rms(c)
DAV:   1    -0.669504710415E+03    0.41390E+00   -0.18604E+01 45816   0.314E+01    0.176E+00
DAV:   2    -0.669889310553E+03   -0.38460E+00   -0.40248E+00 37692   0.468E+00    0.137E+00
DAV:   3    -0.669890985404E+03   -0.16749E-02   -0.11687E-01 37512   0.167E+00    0.103E+00
DAV:   4    -0.669889276937E+03    0.17085E-02   -0.10881E-02 37776   0.754E-01    0.767E-01
DAV:   5    -0.669890939791E+03   -0.16629E-02   -0.92176E-03 40380   0.608E-01    0.317E-01
DAV:   6    -0.669891319738E+03   -0.37995E-03   -0.63619E-03 36564   0.499E-01    0.140E-01
DAV:   7    -0.669891918201E+03   -0.59846E-03   -0.12451E-03 36444   0.204E-01    0.818E-02
DAV:   8    -0.669892637266E+03   -0.71906E-03   -0.28506E-04 37140   0.777E-02    0.602E-02
DAV:   9    -0.669893413851E+03   -0.77659E-03   -0.55900E-05 36852   0.754E-02    0.484E-02
DAV:  10    -0.669894704735E+03   -0.12909E-02   -0.45047E-05 35520   0.915E-02    0.398E-02
DAV:  11    -0.669895487099E+03   -0.78236E-03   -0.72505E-05 40260   0.571E-02    0.380E-02
DAV:  12    -0.669896025016E+03   -0.53792E-03   -0.26754E-05 28536   0.356E-02    0.357E-02
DAV:  13    -0.669897463746E+03   -0.14387E-02   -0.22103E-05 28824   0.985E-02    0.307E-02
DAV:  14    -0.669901567502E+03   -0.41038E-02   -0.31964E-04 47040   0.292E-01    0.298E-02
DAV:  15    -0.669902888368E+03   -0.13209E-02   -0.34765E-04 46140   0.942E-02    0.300E-02
DAV:  16    -0.669902157674E+03    0.73069E-03   -0.10785E-04 32460   0.697E-02    0.335E-02
DAV:  17    -0.669902259863E+03   -0.10219E-03   -0.83402E-06 20436   0.131E-02    0.330E-02
DAV:  18    -0.669902984427E+03   -0.72456E-03   -0.11148E-05 23112   0.618E-02    0.348E-02
DAV:  19    -0.669904552410E+03   -0.15680E-02   -0.79986E-05 34980   0.137E-01    0.355E-02
DAV:  20    -0.669905646310E+03   -0.10939E-02   -0.10502E-04 42780   0.106E-01    0.297E-02
DAV:  21    -0.669906294207E+03   -0.64790E-03   -0.83215E-05 40140   0.592E-02    0.256E-02
DAV:  22    -0.669907153810E+03   -0.85960E-03   -0.22301E-05 29196   0.885E-02    0.215E-02
DAV:  23    -0.669909004595E+03   -0.18508E-02   -0.12589E-04 42048   0.178E-01    0.207E-02
DAV:  24    -0.669908997633E+03    0.69620E-05   -0.17390E-04 32112   0.348E-02    0.222E-02
DAV:  25    -0.669908513836E+03    0.48380E-03   -0.41720E-06 22200   0.474E-02    0.296E-02
DAV:  26    -0.669908816794E+03   -0.30296E-03   -0.20863E-05 26340   0.347E-02    0.455E-02
DAV:  27    -0.669908956599E+03   -0.13981E-03   -0.11539E-05 22092   0.182E-02    0.655E-02
DAV:  28    -0.669908943528E+03    0.13071E-04   -0.62840E-06 19332   0.160E-02    0.751E-02
DAV:  29    -0.669908892902E+03    0.50627E-04   -0.30547E-06 17856   0.830E-03    0.725E-02
DAV:  30    -0.669909169416E+03   -0.27651E-03   -0.20874E-06 19440   0.292E-02    0.675E-02
DAV:  31    -0.669909635298E+03   -0.46588E-03   -0.92338E-06 23352   0.494E-02    0.641E-02
DAV:  32    -0.669909780676E+03   -0.14538E-03   -0.13345E-05 22464   0.187E-02    0.643E-02
DAV:  33    -0.669909856470E+03   -0.75793E-04   -0.61763E-06 18816   0.774E-03    0.656E-02
DAV:  34    -0.669909853279E+03    0.31906E-05   -0.20959E-06 17868   0.439E-03
   7 F= -.66990985E+03 E0= -.66990985E+03  d E =0.874740E-02  mag=     0.0000
       N       E                     dE             d eps       ncg     rms          rms(c)
DAV:   1    -0.665221941539E+03    0.46879E+01   -0.10039E+02 47868   0.114E+02    0.659E+00
DAV:   2    -0.669774255680E+03   -0.45523E+01   -0.46135E+01 38820   0.147E+01    0.438E+00
DAV:   3    -0.669805264396E+03   -0.31009E-01   -0.10879E+00 36924   0.525E+00    0.312E+00
DAV:   4    -0.669791502528E+03    0.13762E-01   -0.13828E-01 37020   0.289E+00    0.233E+00
DAV:   5    -0.669787066323E+03    0.44362E-02   -0.10326E-01 39072   0.199E+00    0.113E+00
DAV:   6    -0.669784459786E+03    0.26065E-02   -0.49468E-02 37548   0.155E+00    0.447E-01
DAV:   7    -0.669783817144E+03    0.64264E-03   -0.12084E-02 37344   0.696E-01    0.269E-01
DAV:   8    -0.669784059997E+03   -0.24285E-03   -0.40225E-03 37728   0.287E-01    0.166E-01
DAV:   9    -0.669783787973E+03    0.27202E-03   -0.74841E-04 36768   0.191E-01    0.116E-01
DAV:  10    -0.669783801519E+03   -0.13545E-04   -0.27409E-04 46224   0.147E-01    0.819E-02
DAV:  11    -0.669783660638E+03    0.14088E-03   -0.19400E-04 44256   0.114E-01    0.603E-02
DAV:  12    -0.669783619216E+03    0.41422E-04   -0.11911E-04 39480   0.630E-02    0.543E-02
DAV:  13    -0.669783588819E+03    0.30397E-04   -0.26452E-05 26172   0.486E-02    0.481E-02
DAV:  14    -0.669783482259E+03    0.10656E-03   -0.17450E-04 46140   0.273E-01    0.370E-02
DAV:  15    -0.669783478056E+03    0.42032E-05   -0.36183E-04 46692   0.215E-01    0.310E-02
DAV:  16    -0.669783560527E+03   -0.82471E-04   -0.33746E-04 39960   0.623E-02    0.278E-02
DAV:  17    -0.669783605883E+03   -0.45357E-04   -0.60157E-06 18972   0.467E-02    0.234E-02
DAV:  18    -0.669783830877E+03   -0.22499E-03   -0.30552E-05 31248   0.119E-01    0.177E-02
DAV:  19    -0.669784037880E+03   -0.20700E-03   -0.10212E-04 42420   0.102E-01    0.157E-02
DAV:  20    -0.669784165610E+03   -0.12773E-03   -0.95775E-05 34716   0.402E-02    0.141E-02
DAV:  21    -0.669784433154E+03   -0.26754E-03   -0.93817E-06 21564   0.708E-02    0.115E-02
DAV:  22    -0.669784805401E+03   -0.37225E-03   -0.34280E-05 30996   0.776E-02    0.940E-03
DAV:  23    -0.669784987765E+03   -0.18236E-03   -0.50895E-05 32664   0.348E-02    0.856E-03
DAV:  24    -0.669785049735E+03   -0.61970E-04   -0.18747E-05 25692   0.133E-02    0.829E-03
DAV:  25    -0.669785100508E+03   -0.50773E-04   -0.72113E-07 17928   0.819E-03    0.720E-03
DAV:  26    -0.669785337344E+03   -0.23684E-03   -0.32375E-06 19848   0.424E-02    0.553E-03
DAV:  27    -0.669785521400E+03   -0.18406E-03   -0.86112E-06 20544   0.385E-02    0.579E-03
DAV:  28    -0.669785592155E+03   -0.70755E-04   -0.11524E-05 20868   0.147E-02    0.574E-03
DAV:  29    -0.669785582823E+03    0.93322E-05   -0.55319E-06 18900   0.860E-03
   8 F= -.66978558E+03 E0= -.66978558E+03  d E =0.124270E+00  mag=     0.0000
       N       E                     dE             d eps       ncg     rms          rms(c)
DAV:   1    -0.668977110883E+03    0.80848E+00   -0.13588E+01 48696   0.556E+01    0.278E+00
DAV:   2    -0.669940223511E+03   -0.96311E+00   -0.98193E+00 38520   0.644E+00    0.166E+00
DAV:   3    -0.669952945824E+03   -0.12722E-01   -0.21648E-01 38064   0.207E+00    0.117E+00
DAV:   4    -0.669950807444E+03    0.21384E-02   -0.25827E-02 37344   0.129E+00    0.862E-01
DAV:   5    -0.669949434468E+03    0.13730E-02   -0.16259E-02 40032   0.857E-01    0.407E-01
DAV:   6    -0.669950027535E+03   -0.59307E-03   -0.84207E-03 38616   0.579E-01    0.228E-01
DAV:   7    -0.669949582082E+03    0.44545E-03   -0.23426E-03 37992   0.328E-01    0.118E-01
DAV:   8    -0.669949515422E+03    0.66659E-04   -0.86020E-04 37596   0.142E-01    0.707E-02
DAV:   9    -0.669949361378E+03    0.15404E-03   -0.15184E-04 36840   0.747E-02    0.468E-02
DAV:  10    -0.669949265022E+03    0.96356E-04   -0.40870E-05 34452   0.558E-02    0.313E-02
DAV:  11    -0.669949090511E+03    0.17451E-03   -0.22582E-05 26064   0.457E-02    0.216E-02
DAV:  12    -0.669949001799E+03    0.88712E-04   -0.25479E-05 25296   0.282E-02    0.194E-02
DAV:  13    -0.669948948624E+03    0.53175E-04   -0.10603E-05 18480   0.151E-02    0.176E-02
DAV:  14    -0.669948815217E+03    0.13341E-03   -0.15704E-06 18876   0.317E-02    0.136E-02
DAV:  15    -0.669948507669E+03    0.30755E-03   -0.16438E-05 26196   0.778E-02    0.127E-02
DAV:  16    -0.669948220832E+03    0.28684E-03   -0.42898E-05 33252   0.697E-02    0.106E-02
DAV:  17    -0.669948080869E+03    0.13996E-03   -0.41040E-05 30732   0.319E-02    0.918E-03
DAV:  18    -0.669947911378E+03    0.16949E-03   -0.38566E-06 19812   0.347E-02    0.752E-03
DAV:  19    -0.669947684935E+03    0.22644E-03   -0.66471E-06 20172   0.477E-02    0.564E-03
DAV:  20    -0.669947606494E+03    0.78441E-04   -0.27206E-05 28980   0.173E-02    0.516E-03
DAV:  21    -0.669947564783E+03    0.41711E-04   -0.27776E-06 17928   0.754E-03    0.475E-03
DAV:  22    -0.669947553213E+03    0.11570E-04   -0.18115E-06 17928   0.375E-03    0.396E-03
DAV:  23    -0.669947556103E+03   -0.28898E-05   -0.41764E-07 17928   0.105E-02
   9 F= -.66994756E+03 E0= -.66994756E+03  d E =-.161973E+00  mag=     0.0000
       N       E                     dE             d eps       ncg     rms          rms(c)
DAV:   1    -0.669777546982E+03    0.17001E+00   -0.27929E+00 48456   0.241E+01    0.119E+00
DAV:   2    -0.669962244340E+03   -0.18470E+00   -0.18780E+00 38520   0.278E+00    0.717E-01
DAV:   3    -0.669964383782E+03   -0.21394E-02   -0.36633E-02 38928   0.799E-01    0.499E-01
DAV:   4    -0.669964124052E+03    0.25973E-03   -0.40765E-03 37032   0.550E-01    0.367E-01
DAV:   5    -0.669964082734E+03    0.41318E-04   -0.30694E-03 43140   0.388E-01    0.124E-01
DAV:   6    -0.669964356687E+03   -0.27395E-03   -0.12888E-03 38472   0.178E-01    0.848E-02
DAV:   7    -0.669964321827E+03    0.34860E-04   -0.33900E-04 38400   0.106E-01    0.484E-02
DAV:   8    -0.669964390596E+03   -0.68769E-04   -0.10390E-04 36072   0.620E-02    0.285E-02
DAV:   9    -0.669964404278E+03   -0.13682E-04   -0.18620E-05 23784   0.271E-02    0.179E-02
DAV:  10    -0.669964488810E+03   -0.84532E-04   -0.65677E-06 20508   0.255E-02    0.120E-02
DAV:  11    -0.669964524369E+03   -0.35560E-04   -0.75845E-06 18816   0.176E-02    0.102E-02
DAV:  12    -0.669964557020E+03   -0.32651E-04   -0.49219E-06 18072   0.101E-02    0.927E-03
DAV:  13    -0.669964584390E+03   -0.27369E-04   -0.14382E-06 18000   0.653E-03    0.844E-03
DAV:  14    -0.669964724413E+03   -0.14002E-03   -0.14121E-06 19992   0.381E-02    0.591E-03
DAV:  15    -0.669964848265E+03   -0.12385E-03   -0.62349E-06 19980   0.345E-02    0.577E-03
DAV:  16    -0.669964930442E+03   -0.82178E-04   -0.74612E-06 19836   0.224E-02    0.472E-03
DAV:  17    -0.669964984739E+03   -0.54297E-04   -0.78690E-06 18480   0.143E-02    0.497E-03
DAV:  18    -0.669965063992E+03   -0.79253E-04   -0.12501E-06 18036   0.207E-02    0.346E-03
DAV:  19    -0.669965095527E+03   -0.31535E-04   -0.53092E-06 19428   0.110E-02    0.290E-03
DAV:  20    -0.669965125084E+03   -0.29557E-04   -0.16991E-06 17904   0.837E-03    0.231E-03
DAV:  21    -0.669965127756E+03   -0.26714E-05   -0.28625E-06 17856   0.495E-03
  10 F= -.66996513E+03 E0= -.66996513E+03  d E =-.175717E-01  mag=     0.0000
       N       E                     dE             d eps       ncg     rms          rms(c)
DAV:   1    -0.669893289065E+03    0.71836E-01   -0.17322E+00 46932   0.143E+01    0.716E-01
DAV:   2    -0.669962332214E+03   -0.69043E-01   -0.70844E-01 37872   0.180E+00    0.493E-01
DAV:   3    -0.669962984300E+03   -0.65209E-03   -0.15325E-02 37332   0.562E-01    0.364E-01
DAV:   4    -0.669962751254E+03    0.23305E-03   -0.18179E-03 37380   0.345E-01    0.271E-01
DAV:   5    -0.669963140586E+03   -0.38933E-03   -0.16976E-03 39336   0.242E-01    0.111E-01
DAV:   6    -0.669963021294E+03    0.11929E-03   -0.66791E-04 37872   0.167E-01    0.518E-02
DAV:   7    -0.669963092237E+03   -0.70943E-04   -0.16950E-04 37668   0.825E-02    0.304E-02
DAV:   8    -0.669963155305E+03   -0.63068E-04   -0.50281E-05 32964   0.289E-02    0.182E-02
DAV:   9    -0.669963197410E+03   -0.42105E-04   -0.64788E-06 18648   0.194E-02    0.139E-02
DAV:  10    -0.669963273820E+03   -0.76409E-04   -0.35387E-06 18672   0.204E-02    0.101E-02
DAV:  11    -0.669963355585E+03   -0.81766E-04   -0.38137E-06 18252   0.156E-02    0.816E-03
DAV:  12    -0.669963395684E+03   -0.40098E-04   -0.34673E-06 18144   0.897E-03    0.788E-03
DAV:  13    -0.669963410544E+03   -0.14861E-04   -0.23585E-06 18048   0.404E-03    0.723E-03
DAV:  14    -0.669963478534E+03   -0.67990E-04   -0.34118E-07 18000   0.145E-02    0.661E-03
DAV:  15    -0.669963700683E+03   -0.22215E-03   -0.56963E-06 19980   0.481E-02    0.616E-03
DAV:  16    -0.669963864083E+03   -0.16340E-03   -0.89070E-06 19848   0.365E-02    0.616E-03
DAV:  17    -0.669963923378E+03   -0.59295E-04   -0.13176E-05 21084   0.154E-02    0.633E-03
DAV:  18    -0.669963935405E+03   -0.12027E-04   -0.67278E-06 18576   0.627E-03    0.578E-03
DAV:  19    -0.669963913737E+03    0.21669E-04   -0.33850E-07 17724   0.432E-03    0.590E-03
DAV:  20    -0.669963929791E+03   -0.16054E-04   -0.27699E-07 17688   0.863E-03    0.610E-03
DAV:  21    -0.669963984228E+03   -0.54437E-04   -0.12414E-06 18672   0.213E-02    0.563E-03
DAV:  22    -0.669964012262E+03   -0.28034E-04   -0.19064E-06 18372   0.150E-02    0.447E-03
DAV:  23    -0.669964022037E+03   -0.97752E-05   -0.17687E-06 17940   0.104E-02
  11 F= -.66996402E+03 E0= -.66996402E+03  d E =0.110572E-02  mag=     0.0000
       N       E                     dE             d eps       ncg     rms          rms(c)
DAV:   1    -0.668025595992E+03    0.19384E+01   -0.25279E+01 48528   0.754E+01    0.393E+00
DAV:   2    -0.669815871168E+03   -0.17903E+01   -0.18215E+01 38376   0.888E+00    0.235E+00
DAV:   3    -0.669849540489E+03   -0.33669E-01   -0.51113E-01 36408   0.327E+00    0.165E+00
DAV:   4    -0.669845988887E+03    0.35516E-02   -0.60753E-02 37860   0.182E+00    0.120E+00
DAV:   5    -0.669846298216E+03   -0.30933E-03   -0.30566E-02 39528   0.111E+00    0.603E-01
DAV:   6    -0.669846444118E+03   -0.14590E-03   -0.15907E-02 38232   0.782E-01    0.318E-01
DAV:   7    -0.669846200485E+03    0.24363E-03   -0.42498E-03 37908   0.423E-01    0.164E-01
DAV:   8    -0.669846532307E+03   -0.33182E-03   -0.17402E-03 37596   0.204E-01    0.953E-02
DAV:   9    -0.669846517018E+03    0.15288E-04   -0.34730E-04 36816   0.112E-01    0.578E-02
DAV:  10    -0.669846766433E+03   -0.24941E-03   -0.62837E-05 36336   0.639E-02    0.355E-02
DAV:  11    -0.669846994530E+03   -0.22810E-03   -0.45120E-05 33576   0.519E-02    0.237E-02
DAV:  12    -0.669847124709E+03   -0.13018E-03   -0.31467E-05 28428   0.291E-02    0.210E-02
DAV:  13    -0.669847211431E+03   -0.86722E-04   -0.75317E-06 18552   0.181E-02    0.183E-02
DAV:  14    -0.669847546362E+03   -0.33493E-03   -0.34755E-06 21360   0.545E-02    0.139E-02
DAV:  15    -0.669848047927E+03   -0.50157E-03   -0.28214E-05 28104   0.846E-02    0.141E-02
DAV:  16    -0.669848300599E+03   -0.25267E-03   -0.50601E-05 33612   0.398E-02    0.135E-02
DAV:  17    -0.669848379814E+03   -0.79215E-04   -0.16917E-05 23076   0.140E-02    0.142E-02
DAV:  18    -0.669848349387E+03    0.30427E-04   -0.54204E-06 19620   0.109E-02    0.138E-02
DAV:  19    -0.669848090069E+03    0.25932E-03   -0.49714E-06 19872   0.429E-02    0.196E-02
DAV:  20    -0.669848403291E+03   -0.31322E-03   -0.64021E-06 20232   0.548E-02    0.142E-02
DAV:  21    -0.669849044839E+03   -0.64155E-03   -0.31309E-05 28416   0.111E-01    0.814E-03
DAV:  22    -0.669849248518E+03   -0.20368E-03   -0.38778E-05 29736   0.354E-02    0.785E-03
DAV:  23    -0.669849313789E+03   -0.65271E-04   -0.10375E-05 20496   0.122E-02    0.829E-03
DAV:  24    -0.669849279715E+03    0.34073E-04   -0.53343E-06 19356   0.120E-02    0.795E-03
DAV:  25    -0.669849302704E+03   -0.22988E-04   -0.40458E-07 17928   0.542E-03    0.777E-03
DAV:  26    -0.669849474057E+03   -0.17135E-03   -0.24605E-06 19776   0.332E-02    0.557E-03
DAV:  27    -0.669849779976E+03   -0.30592E-03   -0.12841E-05 23844   0.644E-02    0.510E-03
DAV:  28    -0.669849789504E+03   -0.95272E-05   -0.18401E-05 23796   0.139E-02
  12 F= -.66984979E+03 E0= -.66984979E+03  d E =0.114233E+00  mag=     0.0000
       N       E                     dE             d eps       ncg     rms          rms(c)
DAV:   1    -0.668882671436E+03    0.96711E+00   -0.14446E+01 48528   0.589E+01    0.297E+00
DAV:   2    -0.669953384682E+03   -0.10707E+01   -0.10880E+01 38220   0.680E+00    0.176E+00
DAV:   3    -0.669972442525E+03   -0.19058E-01   -0.27784E-01 38244   0.235E+00    0.126E+00
DAV:   4    -0.669969766315E+03    0.26762E-02   -0.28927E-02 37068   0.135E+00    0.916E-01
DAV:   5    -0.669968313121E+03    0.14532E-02   -0.17249E-02 39516   0.842E-01    0.466E-01
DAV:   6    -0.669968932857E+03   -0.61974E-03   -0.88492E-03 37968   0.643E-01    0.234E-01
DAV:   7    -0.669968522440E+03    0.41042E-03   -0.28253E-03 37812   0.371E-01    0.120E-01
DAV:   8    -0.669968476257E+03    0.46184E-04   -0.10623E-03 37596   0.157E-01    0.682E-02
DAV:   9    -0.669968348961E+03    0.12730E-03   -0.17858E-04 37068   0.794E-02    0.460E-02
DAV:  10    -0.669968278128E+03    0.70833E-04   -0.49335E-05 35064   0.559E-02    0.316E-02
DAV:  11    -0.669968123006E+03    0.15512E-03   -0.21798E-05 26424   0.447E-02    0.201E-02
DAV:  12    -0.669968026847E+03    0.96158E-04   -0.21219E-05 23064   0.283E-02    0.176E-02
DAV:  13    -0.669967983116E+03    0.43731E-04   -0.11730E-05 18516   0.149E-02    0.160E-02
DAV:  14    -0.669967916011E+03    0.67105E-04   -0.13449E-06 18288   0.169E-02    0.135E-02
DAV:  15    -0.669967668116E+03    0.24790E-03   -0.69607E-06 22104   0.655E-02    0.120E-02
DAV:  16    -0.669967405187E+03    0.26293E-03   -0.30783E-05 28116   0.722E-02    0.103E-02
DAV:  17    -0.669967295707E+03    0.10948E-03   -0.43501E-05 29400   0.313E-02    0.951E-03
DAV:  18    -0.669967229406E+03    0.66302E-04   -0.77025E-06 19656   0.186E-02    0.948E-03
DAV:  19    -0.669967101194E+03    0.12821E-03   -0.24313E-06 19068   0.358E-02    0.731E-03
DAV:  20    -0.669967015582E+03    0.85612E-04   -0.75154E-06 20304   0.298E-02    0.608E-03
DAV:  21    -0.669966954322E+03    0.61261E-04   -0.80824E-06 19800   0.237E-02    0.526E-03
DAV:  22    -0.669966958768E+03   -0.44463E-05   -0.13091E-05 20940   0.134E-02
  13 F= -.66996696E+03 E0= -.66996696E+03  d E =-.117169E+00  mag=     0.0000
       N       E                     dE             d eps       ncg     rms          rms(c)
DAV:   1    -0.669960192014E+03    0.67623E-02   -0.10409E-01 49524   0.492E+00    0.241E-01
DAV:   2    -0.669967832960E+03   -0.76409E-02   -0.77678E-02 38304   0.543E-01    0.138E-01
DAV:   3    -0.669967915592E+03   -0.82632E-04   -0.14176E-03 38940   0.146E-01    0.984E-02
DAV:   4    -0.669967903791E+03    0.11800E-04   -0.14669E-04 37080   0.103E-01    0.735E-02
DAV:   5    -0.669967849037E+03    0.54754E-04   -0.11378E-04 38904   0.787E-02    0.294E-02
DAV:   6    -0.669967888434E+03   -0.39396E-04   -0.46144E-05 33684   0.437E-02    0.177E-02
DAV:   7    -0.669967871783E+03    0.16651E-04   -0.14559E-05 20208   0.266E-02    0.111E-02
DAV:   8    -0.669967856820E+03    0.14963E-04   -0.58961E-06 18216   0.137E-02    0.717E-03
DAV:   9    -0.669967855350E+03    0.14694E-05   -0.22279E-06 18120   0.963E-03
  14 F= -.66996786E+03 E0= -.66996786E+03  d E =-.896582E-03  mag=     0.0000
       N       E                     dE             d eps       ncg     rms          rms(c)
DAV:   1    -0.669773366593E+03    0.19449E+00   -0.25781E+00 48204   0.239E+01    0.117E+00
DAV:   2    -0.669951676137E+03   -0.17831E+00   -0.18132E+00 38148   0.273E+00    0.686E-01
DAV:   3    -0.669953748664E+03   -0.20725E-02   -0.34237E-02 37308   0.801E-01    0.477E-01
DAV:   4    -0.669953542239E+03    0.20642E-03   -0.43282E-03 37200   0.526E-01    0.351E-01
DAV:   5    -0.669953160760E+03    0.38148E-03   -0.27793E-03 40248   0.379E-01    0.145E-01
DAV:   6    -0.669953410657E+03   -0.24990E-03   -0.12027E-03 38328   0.197E-01    0.853E-02
DAV:   7    -0.669953322281E+03    0.88376E-04   -0.37654E-04 37596   0.126E-01    0.485E-02
DAV:   8    -0.669953351232E+03   -0.28951E-04   -0.10428E-04 34056   0.550E-02    0.263E-02
DAV:   9    -0.669953343173E+03    0.80588E-05   -0.14869E-05 22500   0.276E-02
  15 F= -.66995334E+03 E0= -.66995334E+03  d E =0.145122E-01  mag=     0.0000
       N       E                     dE             d eps       ncg     rms          rms(c)
DAV:   1    -0.669743181765E+03    0.21017E+00   -0.27983E+00 50568   0.267E+01    0.131E+00
DAV:   2    -0.669958365504E+03   -0.21518E+00   -0.21774E+00 38460   0.297E+00    0.769E-01
DAV:   3    -0.669961662617E+03   -0.32971E-02   -0.46125E-02 37800   0.932E-01    0.531E-01
DAV:   4    -0.669961376185E+03    0.28643E-03   -0.51129E-03 37044   0.587E-01    0.389E-01
DAV:   5    -0.669960918058E+03    0.45813E-03   -0.33096E-03 42396   0.398E-01    0.172E-01
DAV:   6    -0.669961154835E+03   -0.23678E-03   -0.15653E-03 38340   0.236E-01    0.101E-01
DAV:   7    -0.669960957673E+03    0.19716E-03   -0.49360E-04 38016   0.150E-01    0.518E-02
DAV:   8    -0.669960956641E+03    0.10319E-05   -0.15678E-04 35976   0.680E-02    0.265E-02
DAV:   9    -0.669960911599E+03    0.45042E-04   -0.23685E-05 26952   0.267E-02    0.174E-02
DAV:  10    -0.669960872428E+03    0.39172E-04   -0.65312E-06 19764   0.246E-02    0.117E-02
DAV:  11    -0.669960823762E+03    0.48665E-04   -0.68183E-06 19764   0.217E-02    0.100E-02
DAV:  12    -0.669960806094E+03    0.17669E-04   -0.67840E-06 19464   0.123E-02    0.995E-03
DAV:  13    -0.669960803938E+03    0.21558E-05   -0.40595E-06 18828   0.525E-03
  16 F= -.66996080E+03 E0= -.66996080E+03  d E =-.746076E-02  mag=     0.0000
       N       E                     dE             d eps       ncg     rms          rms(c)
DAV:   1    -0.669482893524E+03    0.47791E+00   -0.59672E+00 49452   0.370E+01    0.191E+00
DAV:   2    -0.669922714049E+03   -0.43982E+00   -0.44652E+00 38712   0.427E+00    0.116E+00
DAV:   3    -0.669930382175E+03   -0.76681E-02   -0.11027E-01 37620   0.152E+00    0.806E-01
DAV:   4    -0.669929482012E+03    0.90016E-03   -0.11491E-02 36816   0.854E-01    0.583E-01
DAV:   5    -0.669928660589E+03    0.82142E-03   -0.64748E-03 40452   0.525E-01    0.316E-01
DAV:   6    -0.669929140258E+03   -0.47967E-03   -0.35665E-03 37812   0.433E-01    0.148E-01
DAV:   7    -0.669929051281E+03    0.88978E-04   -0.12007E-03 37512   0.243E-01    0.711E-02
DAV:   8    -0.669929153799E+03   -0.10252E-03   -0.37752E-04 37272   0.905E-02    0.397E-02
DAV:   9    -0.669929200785E+03   -0.46986E-04   -0.51092E-05 34716   0.399E-02    0.279E-02
DAV:  10    -0.669929265499E+03   -0.64715E-04   -0.12861E-05 21852   0.372E-02    0.197E-02
DAV:  11    -0.669929311705E+03   -0.46206E-04   -0.12146E-05 20640   0.330E-02    0.156E-02
DAV:  12    -0.669929343141E+03   -0.31436E-04   -0.13664E-05 20928   0.200E-02    0.151E-02
DAV:  13    -0.669929356846E+03   -0.13705E-04   -0.84926E-06 19836   0.904E-03    0.146E-02
DAV:  14    -0.669929360792E+03   -0.39456E-05   -0.17959E-06 18420   0.383E-03
  17 F= -.66992936E+03 E0= -.66992936E+03  d E =0.314431E-01  mag=     0.0000
       N       E                     dE             d eps       ncg     rms          rms(c)
DAV:   1    -0.666561749435E+03    0.33676E+01   -0.40885E+01 50580   0.994E+01    0.568E+00
DAV:   2    -0.669749963839E+03   -0.31882E+01   -0.32461E+01 38196   0.118E+01    0.364E+00
DAV:   3    -0.669808884158E+03   -0.58920E-01   -0.10290E+00 38136   0.517E+00    0.251E+00
DAV:   4    -0.669792982764E+03    0.15901E-01   -0.11235E-01 36672   0.266E+00    0.170E+00
DAV:   5    -0.669790972044E+03    0.20107E-02   -0.45606E-02 41172   0.124E+00    0.964E-01
DAV:   6    -0.669792147981E+03   -0.11759E-02   -0.30937E-02 38340   0.125E+00    0.412E-01
DAV:   7    -0.669792659947E+03   -0.51197E-03   -0.78986E-03 37680   0.630E-01    0.186E-01
DAV:   8    -0.669793242526E+03   -0.58258E-03   -0.30306E-03 37488   0.280E-01    0.121E-01
DAV:   9    -0.669793426806E+03   -0.18428E-03   -0.61544E-04 36912   0.157E-01    0.797E-02
DAV:  10    -0.669793913353E+03   -0.48655E-03   -0.12526E-04 38616   0.821E-02    0.519E-02
DAV:  11    -0.669794346553E+03   -0.43320E-03   -0.78623E-05 39216   0.674E-02    0.366E-02
DAV:  12    -0.669794620340E+03   -0.27379E-03   -0.48690E-05 32448   0.465E-02    0.297E-02
DAV:  13    -0.669794857719E+03   -0.23738E-03   -0.14498E-05 21504   0.274E-02    0.260E-02
DAV:  14    -0.669795564878E+03   -0.70716E-03   -0.11365E-05 22308   0.761E-02    0.200E-02
DAV:  15    -0.669796500271E+03   -0.93539E-03   -0.71068E-05 37812   0.110E-01    0.196E-02
DAV:  16    -0.669796998346E+03   -0.49807E-03   -0.84123E-05 38520   0.579E-02    0.183E-02
DAV:  17    -0.669797428498E+03   -0.43015E-03   -0.16166E-05 21660   0.510E-02    0.164E-02
DAV:  18    -0.669798301382E+03   -0.87288E-03   -0.43753E-05 30312   0.112E-01    0.144E-02
DAV:  19    -0.669798657533E+03   -0.35615E-03   -0.10484E-04 40128   0.554E-02    0.136E-02
DAV:  20    -0.669798749833E+03   -0.92300E-04   -0.39394E-05 29400   0.170E-02    0.136E-02
DAV:  21    -0.669798679715E+03    0.70118E-04   -0.48965E-06 20256   0.166E-02    0.144E-02
DAV:  22    -0.669798632954E+03    0.46760E-04   -0.76450E-07 17952   0.940E-03    0.150E-02
DAV:  23    -0.669798826593E+03   -0.19364E-03   -0.16157E-05 24444   0.672E-02    0.127E-02
DAV:  24    -0.669798817527E+03    0.90660E-05   -0.77769E-06 21648   0.218E-02
  18 F= -.66979882E+03 E0= -.66979882E+03  d E =0.130543E+00  mag=     0.0000
       N       E                     dE             d eps       ncg     rms          rms(c)
DAV:   1    -0.665125060325E+03    0.46738E+01   -0.64268E+01 49896   0.119E+02    0.704E+00
DAV:   2    -0.669814421477E+03   -0.46894E+01   -0.47856E+01 38652   0.150E+01    0.480E+00
DAV:   3    -0.669898286532E+03   -0.83865E-01   -0.18194E+00 36864   0.717E+00    0.330E+00
DAV:   4    -0.669864548921E+03    0.33738E-01   -0.18036E-01 36996   0.333E+00    0.214E+00
DAV:   5    -0.669858780476E+03    0.57684E-02   -0.68164E-02 41124   0.146E+00    0.130E+00
DAV:   6    -0.669858995181E+03   -0.21471E-03   -0.53609E-02 37632   0.161E+00    0.532E-01
DAV:   7    -0.669859159916E+03   -0.16473E-03   -0.13621E-02 37596   0.795E-01    0.232E-01
DAV:   8    -0.669859511924E+03   -0.35201E-03   -0.45994E-03 37104   0.328E-01    0.158E-01
DAV:   9    -0.669859261046E+03    0.25088E-03   -0.90187E-04 36840   0.185E-01    0.104E-01
DAV:  10    -0.669859273093E+03   -0.12047E-04   -0.22818E-04 38232   0.114E-01    0.686E-02
DAV:  11    -0.669859234091E+03    0.39002E-04   -0.13656E-04 43032   0.909E-02    0.442E-02
DAV:  12    -0.669859160137E+03    0.73954E-04   -0.73442E-05 35820   0.600E-02    0.366E-02
DAV:  13    -0.669859152324E+03    0.78133E-05   -0.28348E-05 26976   0.366E-02
  19 F= -.66985915E+03 E0= -.66985915E+03  d E =-.603348E-01  mag=     0.0000
       N       E                     dE             d eps       ncg     rms          rms(c)
DAV:   1    -0.669842038180E+03    0.17122E-01   -0.91170E-01 49452   0.144E+01    0.715E-01
DAV:   2    -0.669906139286E+03   -0.64101E-01   -0.65983E-01 38316   0.165E+00    0.435E-01
DAV:   3    -0.669906987170E+03   -0.84788E-03   -0.15372E-02 37764   0.566E-01    0.300E-01
DAV:   4    -0.669906698637E+03    0.28853E-03   -0.16077E-03 37284   0.316E-01    0.218E-01
DAV:   5    -0.669906414548E+03    0.28409E-03   -0.10326E-03 44700   0.231E-01    0.846E-02
DAV:   6    -0.669906350703E+03    0.63845E-04   -0.39352E-04 39300   0.107E-01    0.465E-02
DAV:   7    -0.669906243198E+03    0.10751E-03   -0.16010E-04 37944   0.742E-02    0.373E-02
DAV:   8    -0.669906229592E+03    0.13606E-04   -0.50700E-05 31380   0.486E-02    0.279E-02
DAV:   9    -0.669906173677E+03    0.55915E-04   -0.91463E-06 21360   0.387E-02    0.245E-02
DAV:  10    -0.669906132738E+03    0.40938E-04   -0.22346E-05 29712   0.770E-02    0.237E-02
DAV:  11    -0.669906120263E+03    0.12475E-04   -0.52921E-05 38424   0.502E-02    0.246E-02
DAV:  12    -0.669906106459E+03    0.13805E-04   -0.32769E-05 29928   0.450E-02    0.277E-02
DAV:  13    -0.669906198582E+03   -0.92124E-04   -0.10759E-04 34164   0.171E-01    0.298E-02
DAV:  14    -0.669906292580E+03   -0.93998E-04   -0.84515E-05 41760   0.875E-02    0.295E-02
DAV:  15    -0.669906285298E+03    0.72821E-05   -0.55996E-05 29268   0.234E-02
  20 F= -.66990629E+03 E0= -.66990629E+03  d E =-.471330E-01  mag=     0.0000
       N       E                     dE             d eps       ncg     rms          rms(c)
DAV:   1    -0.665050118170E+03    0.48562E+01   -0.63182E+01 49980   0.118E+02    0.701E+00
DAV:   2    -0.669695867567E+03   -0.46457E+01   -0.47376E+01 38964   0.145E+01    0.458E+00
DAV:   3    -0.669773792653E+03   -0.77925E-01   -0.15523E+00 37092   0.647E+00    0.313E+00
DAV:   4    -0.669746594393E+03    0.27198E-01   -0.18172E-01 36756   0.328E+00    0.211E+00
DAV:   5    -0.669741997156E+03    0.45972E-02   -0.69626E-02 39744   0.149E+00    0.124E+00
DAV:   6    -0.669742809930E+03   -0.81277E-03   -0.48942E-02 37620   0.153E+00    0.527E-01
DAV:   7    -0.669743462195E+03   -0.65226E-03   -0.12454E-02 37236   0.781E-01    0.234E-01
DAV:   8    -0.669744154211E+03   -0.69202E-03   -0.45422E-03 37488   0.350E-01    0.160E-01
DAV:   9    -0.669744272625E+03   -0.11841E-03   -0.10080E-03 36888   0.204E-01    0.103E-01
DAV:  10    -0.669744802323E+03   -0.52970E-03   -0.20470E-04 38844   0.109E-01    0.656E-02
DAV:  11    -0.669745267281E+03   -0.46496E-03   -0.13649E-04 44088   0.896E-02    0.447E-02
DAV:  12    -0.669745581227E+03   -0.31395E-03   -0.77228E-05 37608   0.618E-02    0.343E-02
DAV:  13    -0.669745861751E+03   -0.28052E-03   -0.25815E-05 27456   0.361E-02    0.303E-02
DAV:  14    -0.669746529731E+03   -0.66798E-03   -0.13775E-05 25440   0.803E-02    0.250E-02
DAV:  15    -0.669747727107E+03   -0.11974E-02   -0.10484E-04 41928   0.153E-01    0.252E-02
DAV:  16    -0.669748238371E+03   -0.51126E-03   -0.13272E-04 41904   0.628E-02    0.256E-02
DAV:  17    -0.669747830799E+03    0.40757E-03   -0.59582E-05 32028   0.636E-02    0.293E-02
DAV:  18    -0.669748711679E+03   -0.88088E-03   -0.44969E-05 30000   0.118E-01    0.260E-02
DAV:  19    -0.669750277732E+03   -0.15661E-02   -0.17066E-04 43536   0.205E-01    0.232E-02
DAV:  20    -0.669750950116E+03   -0.67238E-03   -0.17677E-04 44664   0.903E-02    0.208E-02
DAV:  21    -0.669751918890E+03   -0.96877E-03   -0.59025E-05 33120   0.125E-01    0.178E-02
DAV:  22    -0.669752768014E+03   -0.84912E-03   -0.14654E-04 43008   0.129E-01    0.151E-02
DAV:  23    -0.669753293566E+03   -0.52555E-03   -0.15082E-04 41676   0.804E-02    0.120E-02
DAV:  24    -0.669753300122E+03   -0.65562E-05   -0.93874E-05 29856   0.238E-02
  21 F= -.66975330E+03 E0= -.66975330E+03  d E =0.152985E+00  mag=     0.0000
       N       E                     dE             d eps       ncg     rms          rms(c)
DAV:   1    -0.667242097637E+03    0.25112E+01   -0.37404E+01 49512   0.913E+01    0.508E+00
DAV:   2    -0.669947453345E+03   -0.27054E+01   -0.27600E+01 38508   0.112E+01    0.331E+00
DAV:   3    -0.670001521938E+03   -0.54069E-01   -0.96812E-01 37008   0.504E+00    0.236E+00
DAV:   4    -0.669986389442E+03    0.15132E-01   -0.97889E-02 37248   0.240E+00    0.158E+00
DAV:   5    -0.669981804597E+03    0.45848E-02   -0.42130E-02 41556   0.118E+00    0.947E-01
DAV:   6    -0.669981394854E+03    0.40974E-03   -0.30331E-02 37260   0.127E+00    0.391E-01
DAV:   7    -0.669980932796E+03    0.46206E-03   -0.77709E-03 37548   0.637E-01    0.175E-01
DAV:   8    -0.669980925278E+03    0.75180E-05   -0.28180E-03 37428   0.244E-01    0.109E-01
DAV:   9    -0.669980592444E+03    0.33283E-03   -0.46416E-04 36840   0.127E-01    0.712E-02
DAV:  10    -0.669980372783E+03    0.21966E-03   -0.12379E-04 38208   0.815E-02    0.478E-02
DAV:  11    -0.669980058283E+03    0.31450E-03   -0.72799E-05 36480   0.653E-02    0.316E-02
DAV:  12    -0.669979844559E+03    0.21372E-03   -0.38263E-05 29868   0.414E-02    0.260E-02
DAV:  13    -0.669979705919E+03    0.13864E-03   -0.13219E-05 19980   0.244E-02    0.225E-02
DAV:  14    -0.669979318839E+03    0.38708E-03   -0.53923E-06 21552   0.585E-02    0.165E-02
DAV:  15    -0.669978718145E+03    0.60069E-03   -0.39750E-05 31116   0.951E-02    0.149E-02
DAV:  16    -0.669978395878E+03    0.32227E-03   -0.71000E-05 37956   0.529E-02    0.135E-02
DAV:  17    -0.669978207238E+03    0.18864E-03   -0.17046E-05 21840   0.311E-02    0.120E-02
DAV:  18    -0.669977718319E+03    0.48892E-03   -0.14120E-05 23916   0.838E-02    0.937E-03
DAV:  19    -0.669977625850E+03    0.92470E-04   -0.53194E-05 30960   0.262E-02    0.726E-03
DAV:  20    -0.669977486505E+03    0.13934E-03   -0.20061E-06 17952   0.268E-02    0.570E-03
DAV:  21    -0.669977472243E+03    0.14262E-04   -0.69864E-06 20124   0.172E-02    0.556E-03
DAV:  22    -0.669977387845E+03    0.84398E-04   -0.20131E-06 18564   0.255E-02    0.439E-03
DAV:  23    -0.669977390194E+03   -0.23493E-05   -0.62946E-06 19632   0.166E-02
  22 F= -.66997739E+03 E0= -.66997739E+03  d E =-.224090E+00  mag=     0.0000
       N       E                     dE             d eps       ncg     rms          rms(c)
DAV:   1    -0.669887594101E+03    0.89794E-01   -0.10407E+00 49212   0.154E+01    0.779E-01
DAV:   2    -0.669963172492E+03   -0.75578E-01   -0.77342E-01 38340   0.176E+00    0.470E-01
DAV:   3    -0.669964343551E+03   -0.11711E-02   -0.17852E-02 37764   0.590E-01    0.324E-01
DAV:   4    -0.669964223299E+03    0.12025E-03   -0.17703E-03 37128   0.346E-01    0.235E-01
DAV:   5    -0.669964003587E+03    0.21971E-03   -0.12288E-03 42564   0.236E-01    0.105E-01
DAV:   6    -0.669964194035E+03   -0.19045E-03   -0.57792E-04 38364   0.143E-01    0.630E-02
DAV:   7    -0.669964129790E+03    0.64245E-04   -0.18961E-04 37884   0.925E-02    0.331E-02
DAV:   8    -0.669964183929E+03   -0.54140E-04   -0.60002E-05 33984   0.410E-02    0.169E-02
DAV:   9    -0.669964205514E+03   -0.21585E-04   -0.85481E-06 19020   0.162E-02    0.119E-02
DAV:  10    -0.669964235871E+03   -0.30356E-04   -0.30286E-06 19608   0.157E-02    0.891E-03
DAV:  11    -0.669964256771E+03   -0.20901E-04   -0.31767E-06 18540   0.122E-02    0.750E-03
DAV:  12    -0.669964274790E+03   -0.18018E-04   -0.21617E-06 18072   0.743E-03    0.699E-03
DAV:  13    -0.669964288345E+03   -0.13555E-04   -0.66821E-07 18024   0.584E-03    0.643E-03
DAV:  14    -0.669964366378E+03   -0.78033E-04   -0.52772E-06 20220   0.350E-02    0.539E-03
DAV:  15    -0.669964408616E+03   -0.42238E-04   -0.62492E-06 20100   0.206E-02    0.523E-03
DAV:  16    -0.669964437888E+03   -0.29271E-04   -0.54930E-06 19152   0.134E-02    0.498E-03
DAV:  17    -0.669964460028E+03   -0.22140E-04   -0.30778E-06 18264   0.108E-02    0.469E-03
DAV:  18    -0.669964506816E+03   -0.46788E-04   -0.41548E-06 19404   0.253E-02    0.439E-03
DAV:  19    -0.669964537887E+03   -0.31070E-04   -0.77941E-06 21924   0.226E-02    0.370E-03
DAV:  20    -0.669964554033E+03   -0.16147E-04   -0.81435E-06 19800   0.135E-02    0.331E-03
DAV:  21    -0.669964552254E+03    0.17798E-05   -0.63534E-06 19464   0.621E-03
  23 F= -.66996455E+03 E0= -.66996455E+03  d E =0.128379E-01  mag=     0.0000
       N       E                     dE             d eps       ncg     rms          rms(c)
DAV:   1    -0.666604768294E+03    0.33598E+01   -0.43396E+01 49416   0.983E+01    0.555E+00
DAV:   2    -0.669771164453E+03   -0.31664E+01   -0.32285E+01 39204   0.118E+01    0.353E+00
DAV:   3    -0.669822867289E+03   -0.51703E-01   -0.92339E-01 38280   0.485E+00    0.245E+00
DAV:   4    -0.669807817513E+03    0.15050E-01   -0.10356E-01 36684   0.256E+00    0.170E+00
DAV:   5    -0.669804633386E+03    0.31841E-02   -0.46143E-02 39696   0.125E+00    0.976E-01
DAV:   6    -0.669805539847E+03   -0.90646E-03   -0.32289E-02 37872   0.127E+00    0.424E-01
DAV:   7    -0.669805869149E+03   -0.32930E-03   -0.83364E-03 37740   0.650E-01    0.188E-01
DAV:   8    -0.669806369413E+03   -0.50026E-03   -0.31263E-03 37404   0.276E-01    0.125E-01
DAV:   9    -0.669806427116E+03   -0.57703E-04   -0.63444E-04 36888   0.154E-01    0.801E-02
DAV:  10    -0.669806770094E+03   -0.34298E-03   -0.12356E-04 38376   0.821E-02    0.490E-02
DAV:  11    -0.669807026530E+03   -0.25644E-03   -0.84830E-05 39300   0.654E-02    0.330E-02
DAV:  12    -0.669807166719E+03   -0.14019E-03   -0.46842E-05 31044   0.424E-02    0.263E-02
DAV:  13    -0.669807302699E+03   -0.13598E-03   -0.11541E-05 19404   0.241E-02    0.218E-02
DAV:  14    -0.669807714712E+03   -0.41201E-03   -0.53138E-06 21672   0.632E-02    0.154E-02
DAV:  15    -0.669808195793E+03   -0.48108E-03   -0.32931E-05 28824   0.816E-02    0.147E-02
DAV:  16    -0.669808419791E+03   -0.22400E-03   -0.56461E-05 33816   0.378E-02    0.138E-02
DAV:  17    -0.669808573463E+03   -0.15367E-03   -0.77778E-06 19968   0.260E-02    0.129E-02
DAV:  18    -0.669809074824E+03   -0.50136E-03   -0.15248E-05 24420   0.936E-02    0.101E-02
DAV:  19    -0.669809188218E+03   -0.11339E-03   -0.52166E-05 30696   0.321E-02    0.815E-03
DAV:  20    -0.669809334334E+03   -0.14612E-03   -0.32324E-06 18840   0.313E-02    0.634E-03
DAV:  21    -0.669809300123E+03    0.34211E-04   -0.10886E-05 20292   0.185E-02    0.702E-03
DAV:  22    -0.669809320177E+03   -0.20054E-04   -0.20075E-06 18012   0.177E-02    0.581E-03
DAV:  23    -0.669809316201E+03    0.39756E-05   -0.23281E-06 19080   0.187E-02
  24 F= -.66980932E+03 E0= -.66980932E+03  d E =0.155236E+00  mag=     0.0000
       N       E                     dE             d eps       ncg     rms          rms(c)
DAV:   1    -0.666002106363E+03    0.38072E+01   -0.53245E+01 49872   0.109E+02    0.627E+00
DAV:   2    -0.669916498887E+03   -0.39144E+01   -0.39922E+01 38532   0.136E+01    0.420E+00
DAV:   3    -0.669992817057E+03   -0.76318E-01   -0.14575E+00 36636   0.635E+00    0.293E+00
DAV:   4    -0.669967884158E+03    0.24933E-01   -0.14959E-01 37368   0.299E+00    0.192E+00
DAV:   5    -0.669962215575E+03    0.56686E-02   -0.58337E-02 41268   0.138E+00    0.117E+00
DAV:   6    -0.669961930721E+03    0.28485E-03   -0.44821E-02 38004   0.149E+00    0.480E-01
DAV:   7    -0.669961863575E+03    0.67146E-04   -0.11123E-02 37548   0.742E-01    0.209E-01
DAV:   8    -0.669962142465E+03   -0.27889E-03   -0.39947E-03 37308   0.296E-01    0.136E-01
DAV:   9    -0.669961910199E+03    0.23227E-03   -0.71787E-04 36852   0.159E-01    0.867E-02
DAV:  10    -0.669961897042E+03    0.13157E-04   -0.17162E-04 38280   0.941E-02    0.566E-02
DAV:  11    -0.669961801244E+03    0.95798E-04   -0.10817E-04 39708   0.744E-02    0.376E-02
DAV:  12    -0.669961710063E+03    0.91181E-04   -0.53953E-05 33240   0.476E-02    0.297E-02
DAV:  13    -0.669961672325E+03    0.37738E-04   -0.17284E-05 22188   0.265E-02    0.256E-02
DAV:  14    -0.669961568200E+03    0.10413E-03   -0.69707E-06 21744   0.590E-02    0.192E-02
DAV:  15    -0.669961382301E+03    0.18590E-03   -0.47151E-05 31884   0.978E-02    0.177E-02
DAV:  16    -0.669961294002E+03    0.88299E-04   -0.75788E-05 38340   0.524E-02    0.164E-02
DAV:  17    -0.669961228145E+03    0.65857E-04   -0.15462E-05 21684   0.359E-02    0.145E-02
DAV:  18    -0.669961071311E+03    0.15683E-03   -0.24256E-05 25812   0.873E-02    0.120E-02
DAV:  19    -0.669961015314E+03    0.55997E-04   -0.68830E-05 37044   0.389E-02    0.988E-03
DAV:  20    -0.669960964958E+03    0.50356E-04   -0.79237E-06 20676   0.287E-02    0.866E-03
DAV:  21    -0.669960932981E+03    0.31978E-04   -0.10119E-05 20088   0.227E-02    0.823E-03
DAV:  22    -0.669960880004E+03    0.52977E-04   -0.78518E-06 20820   0.382E-02    0.802E-03
DAV:  23    -0.669960879297E+03    0.70664E-06   -0.20563E-05 25452   0.200E-02
  25 F= -.66996088E+03 E0= -.66996088E+03  d E =-.151563E+00  mag=     0.0000
       N       E                     dE             d eps       ncg     rms          rms(c)
DAV:   1    -0.669852127472E+03    0.10875E+00   -0.20902E+00 49332   0.216E+01    0.108E+00
DAV:   2    -0.669999068122E+03   -0.14694E+00   -0.15011E+00 38772   0.250E+00    0.660E-01
DAV:   3    -0.670001137818E+03   -0.20697E-02   -0.35389E-02 36840   0.893E-01    0.456E-01
DAV:   4    -0.670000683940E+03    0.45388E-03   -0.38645E-03 37092   0.508E-01    0.329E-01
DAV:   5    -0.670000203897E+03    0.48004E-03   -0.24735E-03 42888   0.316E-01    0.156E-01
DAV:   6    -0.670000358679E+03   -0.15478E-03   -0.11906E-03 38244   0.212E-01    0.910E-02
DAV:   7    -0.670000122481E+03    0.23620E-03   -0.39045E-04 38208   0.138E-01    0.438E-02
DAV:   8    -0.670000076548E+03    0.45933E-04   -0.11600E-04 34980   0.565E-02    0.231E-02
DAV:   9    -0.669999991982E+03    0.84565E-04   -0.17748E-05 23340   0.230E-02    0.152E-02
DAV:  10    -0.669999891761E+03    0.10022E-03   -0.59879E-06 19608   0.217E-02    0.103E-02
DAV:  11    -0.669999795070E+03    0.96691E-04   -0.44367E-06 18336   0.160E-02    0.763E-03
DAV:  12    -0.669999741254E+03    0.53816E-04   -0.36960E-06 18120   0.952E-03    0.704E-03
DAV:  13    -0.669999703721E+03    0.37533E-04   -0.13461E-06 18072   0.594E-03    0.614E-03
DAV:  14    -0.669999554544E+03    0.14918E-03   -0.45596E-07 17952   0.208E-02    0.438E-03
DAV:  15    -0.669999365573E+03    0.18897E-03   -0.31543E-06 20424   0.293E-02    0.461E-03
DAV:  16    -0.669999279912E+03    0.85662E-04   -0.47803E-06 18348   0.134E-02    0.447E-03
DAV:  17    -0.669999276692E+03    0.32203E-05   -0.46278E-06 17976   0.591E-03
  26 F= -.66999928E+03 E0= -.66999928E+03  d E =-.383974E-01  mag=     0.0000
       N       E                     dE             d eps       ncg     rms          rms(c)
DAV:   1    -0.669687860358E+03    0.31142E+00   -0.45256E+00 47928   0.303E+01    0.154E+00
DAV:   2    -0.669988861580E+03   -0.30100E+00   -0.30587E+00 38412   0.362E+00    0.951E-01
DAV:   3    -0.669993782197E+03   -0.49206E-02   -0.77673E-02 36996   0.135E+00    0.656E-01
DAV:   4    -0.669993038320E+03    0.74388E-03   -0.89634E-03 37176   0.726E-01    0.475E-01
DAV:   5    -0.669992496496E+03    0.54182E-03   -0.48573E-03 39204   0.436E-01    0.241E-01
DAV:   6    -0.669992815702E+03   -0.31921E-03   -0.24788E-03 38532   0.321E-01    0.134E-01
DAV:   7    -0.669992529710E+03    0.28599E-03   -0.83793E-04 37536   0.205E-01    0.603E-02
DAV:   8    -0.669992528578E+03    0.11321E-05   -0.23531E-04 36660   0.788E-02    0.338E-02
DAV:   9    -0.669992447821E+03    0.80757E-04   -0.39201E-05 32448   0.354E-02    0.229E-02
DAV:  10    -0.669992385600E+03    0.62221E-04   -0.10407E-05 21300   0.308E-02    0.159E-02
DAV:  11    -0.669992298359E+03    0.87241E-04   -0.81618E-06 21276   0.262E-02    0.110E-02
DAV:  12    -0.669992253379E+03    0.44980E-04   -0.78996E-06 19008   0.154E-02    0.104E-02
DAV:  13    -0.669992230830E+03    0.22549E-04   -0.46940E-06 18216   0.844E-03    0.977E-03
DAV:  14    -0.669992201073E+03    0.29757E-04   -0.44570E-07 18084   0.891E-03    0.866E-03
DAV:  15    -0.669992015158E+03    0.18592E-03   -0.94984E-06 24168   0.664E-02    0.899E-03
DAV:  16    -0.669991906987E+03    0.10817E-03   -0.17708E-05 24948   0.411E-02    0.899E-03
DAV:  17    -0.669991900856E+03    0.61315E-05   -0.19199E-05 27648   0.107E-02
  27 F= -.66999190E+03 E0= -.66999190E+03  d E =0.737584E-02  mag=     0.0000
       N       E                     dE             d eps       ncg     rms          rms(c)
DAV:   1    -0.669950649552E+03    0.41257E-01   -0.56817E-01 45120   0.884E+00    0.457E-01
DAV:   2    -0.669979503052E+03   -0.28853E-01   -0.29502E-01 37944   0.119E+00    0.277E-01
DAV:   3    -0.669980004185E+03   -0.50113E-03   -0.76603E-03 37644   0.409E-01    0.193E-01
DAV:   4    -0.669980053852E+03   -0.49667E-04   -0.10306E-03 37308   0.262E-01    0.140E-01
DAV:   5    -0.669980131346E+03   -0.77494E-04   -0.50398E-04 40776   0.141E-01    0.717E-02
DAV:   6    -0.669980289498E+03   -0.15815E-03   -0.25370E-04 38160   0.945E-02    0.416E-02
DAV:   7    -0.669980303178E+03   -0.13680E-04   -0.87001E-05 35712   0.598E-02    0.243E-02
DAV:   8    -0.669980348833E+03   -0.45655E-04   -0.27138E-05 25536   0.290E-02    0.151E-02
DAV:   9    -0.669980393080E+03   -0.44247E-04   -0.58461E-06 19464   0.189E-02    0.124E-02
DAV:  10    -0.669980449321E+03   -0.56241E-04   -0.33687E-06 20568   0.274E-02    0.107E-02
DAV:  11    -0.669980497855E+03   -0.48534E-04   -0.58956E-06 20448   0.201E-02    0.104E-02
DAV:  12    -0.669980518449E+03   -0.20594E-04   -0.70112E-06 19500   0.110E-02    0.109E-02
DAV:  13    -0.669980484444E+03    0.34006E-04   -0.61296E-06 21636   0.239E-02    0.132E-02
DAV:  14    -0.669980611504E+03   -0.12706E-03   -0.17175E-05 25812   0.724E-02    0.110E-02
DAV:  15    -0.669980783273E+03   -0.17177E-03   -0.37332E-05 32736   0.881E-02    0.109E-02
DAV:  16    -0.669980874138E+03   -0.90865E-04   -0.41353E-05 35952   0.433E-02    0.118E-02
DAV:  17    -0.669980787845E+03    0.86292E-04   -0.25226E-05 27468   0.506E-02    0.150E-02
DAV:  18    -0.669980744966E+03    0.42879E-04   -0.57016E-06 20844   0.337E-02    0.157E-02
DAV:  19    -0.669980674569E+03    0.70397E-04   -0.13762E-05 25008   0.561E-02    0.168E-02
DAV:  20    -0.669980660492E+03    0.14077E-04   -0.18692E-05 26148   0.192E-02    0.150E-02
DAV:  21    -0.669980650899E+03    0.95931E-05   -0.24116E-06 18600   0.158E-02
  28 F= -.66998065E+03 E0= -.66998065E+03  d E =0.112500E-01  mag=     0.0000
       N       E                     dE             d eps       ncg     rms          rms(c)
DAV:   1    -0.663113616085E+03    0.68670E+01   -0.83284E+01 51276   0.140E+02    0.829E+00
DAV:   2    -0.669428021193E+03   -0.63144E+01   -0.64453E+01 38280   0.175E+01    0.578E+00
DAV:   3    -0.669565205813E+03   -0.13718E+00   -0.27965E+00 36900   0.861E+00    0.382E+00
DAV:   4    -0.669522399860E+03    0.42806E-01   -0.26960E-01 37560   0.398E+00    0.251E+00
DAV:   5    -0.669518377407E+03    0.40225E-02   -0.92086E-02 40308   0.177E+00    0.155E+00
DAV:   6    -0.669518353071E+03    0.24336E-04   -0.71550E-02 37572   0.181E+00    0.653E-01
DAV:   7    -0.669519680788E+03   -0.13277E-02   -0.17807E-02 37776   0.855E-01    0.282E-01
DAV:   8    -0.669520917653E+03   -0.12369E-02   -0.61343E-03 36516   0.399E-01    0.196E-01
DAV:   9    -0.669521152959E+03   -0.23531E-03   -0.13784E-03 36864   0.238E-01    0.131E-01
DAV:  10    -0.669521903301E+03   -0.75034E-03   -0.31126E-04 38928   0.133E-01    0.849E-02
DAV:  11    -0.669522700182E+03   -0.79688E-03   -0.19237E-04 42360   0.106E-01    0.547E-02
DAV:  12    -0.669523240592E+03   -0.54041E-03   -0.10791E-04 41376   0.733E-02    0.445E-02
DAV:  13    -0.669523673707E+03   -0.43311E-03   -0.41990E-05 29676   0.456E-02    0.394E-02
DAV:  14    -0.669524780985E+03   -0.11073E-02   -0.28014E-05 28752   0.112E-01    0.326E-02
DAV:  15    -0.669526511281E+03   -0.17303E-02   -0.17316E-04 43800   0.188E-01    0.322E-02
DAV:  16    -0.669527269890E+03   -0.75861E-03   -0.19732E-04 43428   0.828E-02    0.329E-02
DAV:  17    -0.669527047665E+03    0.22222E-03   -0.84006E-05 30972   0.443E-02    0.346E-02
DAV:  18    -0.669527670031E+03   -0.62237E-03   -0.33525E-05 28224   0.840E-02    0.346E-02
DAV:  19    -0.669528765506E+03   -0.10955E-02   -0.95782E-05 36876   0.150E-01    0.342E-02
DAV:  20    -0.669529402226E+03   -0.63672E-03   -0.12098E-04 42204   0.113E-01    0.352E-02
DAV:  21    -0.669529948928E+03   -0.54670E-03   -0.89978E-05 40860   0.876E-02    0.361E-02
DAV:  22    -0.669529940414E+03    0.85135E-05   -0.88772E-05 29316   0.264E-02
  29 F= -.66952994E+03 E0= -.66952994E+03  d E =0.450710E+00  mag=     0.0000
       N       E                     dE             d eps       ncg     rms          rms(c)
DAV:   1    -0.667313446812E+03    0.22165E+01   -0.35679E+01 49692   0.906E+01    0.493E+00
DAV:   2    -0.669935463230E+03   -0.26220E+01   -0.26751E+01 38796   0.108E+01    0.307E+00
DAV:   3    -0.669983158292E+03   -0.47695E-01   -0.77811E-01 37380   0.443E+00    0.223E+00
DAV:   4    -0.669971288328E+03    0.11870E-01   -0.88299E-02 36792   0.222E+00    0.152E+00
DAV:   5    -0.669967869313E+03    0.34190E-02   -0.40994E-02 41028   0.116E+00    0.871E-01
DAV:   6    -0.669967963704E+03   -0.94391E-04   -0.26827E-02 37464   0.115E+00    0.362E-01
DAV:   7    -0.669967434519E+03    0.52918E-03   -0.70885E-03 37128   0.610E-01    0.177E-01
DAV:   8    -0.669967358276E+03    0.76244E-04   -0.26493E-03 37512   0.258E-01    0.112E-01
DAV:   9    -0.669967031427E+03    0.32685E-03   -0.52372E-04 36936   0.143E-01    0.747E-02
DAV:  10    -0.669966854716E+03    0.17671E-03   -0.13032E-04 37860   0.868E-02    0.505E-02
DAV:  11    -0.669966599674E+03    0.25504E-03   -0.75472E-05 40128   0.757E-02    0.351E-02
DAV:  12    -0.669966417939E+03    0.18174E-03   -0.50272E-05 33432   0.520E-02    0.290E-02
DAV:  13    -0.669966341048E+03    0.76891E-04   -0.21059E-05 25524   0.314E-02    0.267E-02
DAV:  14    -0.669966167322E+03    0.17373E-03   -0.91736E-06 23232   0.685E-02    0.228E-02
DAV:  15    -0.669965834106E+03    0.33322E-03   -0.98754E-05 39948   0.162E-01    0.225E-02
DAV:  16    -0.669965734840E+03    0.99265E-04   -0.13751E-04 42864   0.831E-02    0.233E-02
DAV:  17    -0.669965801667E+03   -0.66826E-04   -0.88124E-05 35544   0.929E-02    0.289E-02
[...]
DAV:   8    -0.669856366516E+03    0.59259E-04   -0.58532E-06 18576   0.136E-02    0.101E-02
DAV:   9    -0.669856282650E+03    0.83866E-04   -0.19010E-06 18480   0.113E-02    0.695E-03
DAV:  10    -0.669856191852E+03    0.90797E-04   -0.13488E-06 18336   0.119E-02    0.526E-03
DAV:  11    -0.669856121128E+03    0.70724E-04   -0.15570E-06 18144   0.795E-03    0.453E-03
DAV:  12    -0.669856088121E+03    0.33007E-04   -0.14745E-06 18012   0.375E-03    0.442E-03
DAV:  13    -0.669856056886E+03    0.31235E-04   -0.94286E-08 18000   0.347E-03    0.389E-03
DAV:  14    -0.669855782630E+03    0.27426E-03   -0.17873E-06 19596   0.315E-02    0.331E-03
DAV:  15    -0.669855633105E+03    0.14952E-03   -0.31588E-06 18804   0.180E-02    0.330E-03
DAV:  16    -0.669855554010E+03    0.79095E-04   -0.33326E-06 18156   0.912E-03    0.334E-03
DAV:  17    -0.669855538009E+03    0.16000E-04   -0.27066E-06 17928   0.391E-03    0.317E-03
DAV:  18    -0.669855536625E+03    0.13849E-05   -0.12860E-07 17868   0.121E-03
  42 F= -.66985554E+03 E0= -.66985554E+03  d E =0.116870E-01  mag=     0.0000
       N       E                     dE             d eps       ncg     rms          rms(c)
DAV:   1    -0.667801679757E+03    0.20539E+01   -0.29020E+01 45972   0.739E+01    0.406E+00
DAV:   2    -0.669619158182E+03   -0.18175E+01   -0.18629E+01 38592   0.911E+00    0.267E+00
DAV:   3    -0.669651257118E+03   -0.32099E-01   -0.59445E-01 37308   0.396E+00    0.187E+00
DAV:   4    -0.669641615649E+03    0.96415E-02   -0.62098E-02 37296   0.194E+00    0.126E+00
DAV:   5    -0.669638207611E+03    0.34080E-02   -0.27966E-02 42756   0.101E+00    0.737E-01
DAV:   6    -0.669638379317E+03   -0.17171E-03   -0.19194E-02 36792   0.102E+00    0.328E-01
DAV:   7    -0.669638322984E+03    0.56333E-04   -0.54679E-03 38412   0.516E-01    0.152E-01
DAV:   8    -0.669638532292E+03   -0.20931E-03   -0.21071E-03 36552   0.219E-01    0.904E-02
DAV:   9    -0.669638468472E+03    0.63820E-04   -0.29790E-04 37164   0.102E-01    0.617E-02
DAV:  10    -0.669638525973E+03   -0.57500E-04   -0.90103E-05 37776   0.691E-02    0.406E-02
DAV:  11    -0.669638509035E+03    0.16938E-04   -0.45698E-05 32760   0.502E-02    0.258E-02
DAV:  12    -0.669638488104E+03    0.20931E-04   -0.26684E-05 27024   0.328E-02    0.202E-02
DAV:  13    -0.669638496930E+03   -0.88253E-05   -0.10935E-05 18600   0.200E-02
  43 F= -.66963850E+03 E0= -.66963850E+03  d E =0.217040E+00  mag=     0.0000
       N       E                     dE             d eps       ncg     rms          rms(c)
DAV:   1    -0.664249819849E+03    0.53887E+01   -0.73132E+01 49176   0.126E+02    0.754E+00
DAV:   2    -0.669501355822E+03   -0.52515E+01   -0.53606E+01 39108   0.154E+01    0.496E+00
DAV:   3    -0.669577793450E+03   -0.76438E-01   -0.17210E+00 38112   0.687E+00    0.345E+00
DAV:   4    -0.669540411365E+03    0.37382E-01   -0.19543E-01 36564   0.337E+00    0.224E+00
DAV:   5    -0.669534370064E+03    0.60413E-02   -0.77373E-02 40272   0.149E+00    0.129E+00
DAV:   6    -0.669534570439E+03   -0.20038E-03   -0.50250E-02 37680   0.143E+00    0.514E-01
DAV:   7    -0.669535641599E+03   -0.10712E-02   -0.13768E-02 37860   0.755E-01    0.242E-01
DAV:   8    -0.669536164721E+03   -0.52312E-03   -0.48534E-03 37356   0.365E-01    0.170E-01
DAV:   9    -0.669536153913E+03    0.10808E-04   -0.10456E-03 36840   0.223E-01    0.108E-01
DAV:  10    -0.669536549991E+03   -0.39608E-03   -0.23669E-04 39480   0.109E-01    0.664E-02
DAV:  11    -0.669536879708E+03   -0.32972E-03   -0.12424E-04 37488   0.774E-02    0.392E-02
DAV:  12    -0.669537083910E+03   -0.20420E-03   -0.71798E-05 34620   0.537E-02    0.275E-02
DAV:  13    -0.669537263718E+03   -0.17981E-03   -0.19308E-05 22308   0.251E-02    0.230E-02
DAV:  14    -0.669537665255E+03   -0.40154E-03   -0.42916E-06 20604   0.437E-02    0.170E-02
DAV:  15    -0.669538306135E+03   -0.64088E-03   -0.25003E-05 25824   0.778E-02    0.157E-02
DAV:  16    -0.669538636215E+03   -0.33008E-03   -0.51058E-05 34476   0.396E-02    0.151E-02
DAV:  17    -0.669538882874E+03   -0.24666E-03   -0.85385E-06 20808   0.283E-02    0.135E-02
DAV:  18    -0.669539682297E+03   -0.79942E-03   -0.25778E-05 25884   0.976E-02    0.103E-02
DAV:  19    -0.669540132655E+03   -0.45036E-03   -0.70131E-05 40008   0.580E-02    0.810E-03
DAV:  20    -0.669540370256E+03   -0.23760E-03   -0.24940E-05 26040   0.309E-02    0.681E-03
DAV:  21    -0.669540524340E+03   -0.15408E-03   -0.93942E-06 19668   0.217E-02    0.603E-03
DAV:  22    -0.669540748750E+03   -0.22441E-03   -0.46645E-06 19944   0.356E-02    0.586E-03
DAV:  23    -0.669540710331E+03    0.38419E-04   -0.16498E-05 23604   0.158E-02    0.480E-03
DAV:  24    -0.669540691357E+03    0.18973E-04   -0.43137E-06 18972   0.573E-03    0.456E-03
DAV:  25    -0.669540675211E+03    0.16147E-04   -0.26822E-07 18360   0.274E-03    0.403E-03
DAV:  26    -0.669540712954E+03   -0.37743E-04   -0.20064E-06 19164   0.220E-02    0.351E-03
DAV:  27    -0.669540755911E+03   -0.42957E-04   -0.36240E-06 19932   0.220E-02    0.355E-03
DAV:  28    -0.669540769121E+03   -0.13210E-04   -0.39926E-06 19440   0.116E-02    0.335E-03
DAV:  29    -0.669540758155E+03    0.10966E-04   -0.34759E-06 18672   0.488E-03    0.282E-03
DAV:  30    -0.669540753987E+03    0.41685E-05   -0.40490E-07 18156   0.169E-03
  44 F= -.66954075E+03 E0= -.66954075E+03  d E =0.977429E-01  mag=     0.0000
       N       E                     dE             d eps       ncg     rms          rms(c)
DAV:   1    -0.668543551160E+03    0.99721E+00   -0.16295E+01 48684   0.603E+01    0.319E+00
DAV:   2    -0.669705497590E+03   -0.11619E+01   -0.11858E+01 39468   0.713E+00    0.204E+00
DAV:   3    -0.669724309244E+03   -0.18812E-01   -0.33695E-01 36936   0.296E+00    0.146E+00
DAV:   4    -0.669718805394E+03    0.55039E-02   -0.36285E-02 36696   0.148E+00    0.999E-01
DAV:   5    -0.669715813756E+03    0.29916E-02   -0.18913E-02 41340   0.810E-01    0.571E-01
DAV:   6    -0.669715799068E+03    0.14688E-04   -0.12128E-02 37464   0.831E-01    0.249E-01
DAV:   7    -0.669715394992E+03    0.40408E-03   -0.33881E-03 37692   0.423E-01    0.114E-01
DAV:   8    -0.669715258092E+03    0.13690E-03   -0.12393E-03 37488   0.165E-01    0.670E-02
DAV:   9    -0.669715011588E+03    0.24650E-03   -0.17814E-04 36720   0.761E-02    0.456E-02
DAV:  10    -0.669714789339E+03    0.22225E-03   -0.54400E-05 35592   0.528E-02    0.318E-02
DAV:  11    -0.669714508905E+03    0.28043E-03   -0.23173E-05 25860   0.427E-02    0.227E-02
DAV:  12    -0.669714305892E+03    0.20301E-03   -0.19633E-05 23268   0.295E-02    0.196E-02
DAV:  13    -0.669714172697E+03    0.13319E-03   -0.10649E-05 18960   0.182E-02    0.177E-02
DAV:  14    -0.669713823648E+03    0.34905E-03   -0.38247E-06 20844   0.412E-02    0.136E-02
DAV:  15    -0.669713156815E+03    0.66683E-03   -0.29973E-05 27288   0.836E-02    0.129E-02
DAV:  16    -0.669712643679E+03    0.51314E-03   -0.61201E-05 37392   0.638E-02    0.117E-02
DAV:  17    -0.669712396221E+03    0.24746E-03   -0.34332E-05 30192   0.308E-02    0.104E-02
DAV:  18    -0.669711954946E+03    0.44128E-03   -0.86133E-06 20700   0.538E-02    0.818E-03
DAV:  19    -0.669711527080E+03    0.42787E-03   -0.19996E-05 24504   0.553E-02    0.651E-03
DAV:  20    -0.669711307349E+03    0.21973E-03   -0.34034E-05 28884   0.295E-02    0.494E-03
DAV:  21    -0.669711212370E+03    0.94979E-04   -0.13036E-05 21684   0.140E-02    0.505E-03
DAV:  22    -0.669711163190E+03    0.49179E-04   -0.47084E-06 18864   0.721E-03    0.447E-03
DAV:  23    -0.669711171209E+03   -0.80190E-05   -0.13280E-06 18336   0.461E-03
  45 F= -.66971117E+03 E0= -.66971117E+03  d E =-.170417E+00  mag=     0.0000
       N       E                     dE             d eps       ncg     rms          rms(c)
DAV:   1    -0.669674279020E+03    0.36884E-01   -0.58706E-01 45792   0.907E+00    0.454E-01
DAV:   2    -0.669701967315E+03   -0.27688E-01   -0.28659E-01 37752   0.113E+00    0.270E-01
DAV:   3    -0.669702301133E+03   -0.33382E-03   -0.72048E-03 37836   0.384E-01    0.191E-01
DAV:   4    -0.669702258498E+03    0.42634E-04   -0.75598E-04 37980   0.217E-01    0.139E-01
DAV:   5    -0.669702066642E+03    0.19186E-03   -0.41869E-04 43980   0.137E-01    0.627E-02
DAV:   6    -0.669702134126E+03   -0.67485E-04   -0.21633E-04 38256   0.836E-02    0.372E-02
DAV:   7    -0.669702072648E+03    0.61479E-04   -0.70496E-05 34668   0.550E-02    0.203E-02
DAV:   8    -0.669702071024E+03    0.16242E-05   -0.18895E-05 21852   0.243E-02
  46 F= -.66970207E+03 E0= -.66970207E+03  d E =0.910019E-02  mag=     0.0000
       N       E                     dE             d eps       ncg     rms          rms(c)
DAV:   1    -0.668447837444E+03    0.12542E+01   -0.40117E+01 45588   0.553E+01    0.285E+00
DAV:   2    -0.669555918128E+03   -0.11081E+01   -0.11556E+01 38580   0.743E+00    0.158E+00
DAV:   3    -0.669559141596E+03   -0.32235E-02   -0.18176E-01 37680   0.179E+00    0.111E+00
DAV:   4    -0.669557742591E+03    0.13990E-02   -0.24038E-02 38028   0.117E+00    0.849E-01
DAV:   5    -0.669555367996E+03    0.23746E-02   -0.13308E-02 38880   0.863E-01    0.403E-01
DAV:   6    -0.669556002299E+03   -0.63430E-03   -0.82557E-03 38124   0.545E-01    0.195E-01
DAV:   7    -0.669556123297E+03   -0.12100E-03   -0.26968E-03 36636   0.286E-01    0.119E-01
DAV:   8    -0.669556194065E+03   -0.70768E-04   -0.63511E-04 36396   0.113E-01    0.766E-02
DAV:   9    -0.669556266870E+03   -0.72805E-04   -0.98851E-05 36960   0.679E-02    0.528E-02
DAV:  10    -0.669556422759E+03   -0.15589E-03   -0.69963E-05 35808   0.680E-02    0.286E-02
DAV:  11    -0.669556521788E+03   -0.99030E-04   -0.41627E-05 31824   0.404E-02    0.197E-02
DAV:  12    -0.669556541902E+03   -0.20114E-04   -0.15462E-05 20652   0.188E-02    0.173E-02
DAV:  13    -0.669556589430E+03   -0.47528E-04   -0.42256E-06 18720   0.129E-02    0.148E-02
DAV:  14    -0.669556809620E+03   -0.22019E-03   -0.34007E-06 21192   0.554E-02    0.996E-03
DAV:  15    -0.669556990101E+03   -0.18048E-03   -0.14542E-05 21816   0.517E-02    0.907E-03
DAV:  16    -0.669557049409E+03   -0.59308E-04   -0.26983E-05 27756   0.173E-02    0.902E-03
DAV:  17    -0.669557056165E+03   -0.67556E-05   -0.54349E-06 18864   0.614E-03
  47 F= -.66955706E+03 E0= -.66955706E+03  d E =0.145015E+00  mag=     0.0000
       N       E                     dE             d eps       ncg     rms          rms(c)
DAV:   1    -0.666154975990E+03    0.34021E+01   -0.75231E+01 46284   0.940E+01    0.544E+00
DAV:   2    -0.669295341796E+03   -0.31404E+01   -0.32056E+01 37920   0.120E+01    0.307E+00
DAV:   3    -0.669334585347E+03   -0.39244E-01   -0.85146E-01 36420   0.422E+00    0.210E+00
DAV:   4    -0.669329121799E+03    0.54635E-02   -0.11326E-01 37980   0.225E+00    0.158E+00
DAV:   5    -0.669325362379E+03    0.37594E-02   -0.40008E-02 37800   0.135E+00    0.789E-01
DAV:   6    -0.669325868342E+03   -0.50596E-03   -0.24797E-02 38376   0.103E+00    0.381E-01
DAV:   7    -0.669325131931E+03    0.73641E-03   -0.77194E-03 36564   0.509E-01    0.209E-01
DAV:   8    -0.669325211695E+03   -0.79764E-04   -0.20348E-03 36696   0.210E-01    0.130E-01
DAV:   9    -0.669324891852E+03    0.31984E-03   -0.42492E-04 36732   0.123E-01    0.861E-02
DAV:  10    -0.669324683448E+03    0.20840E-03   -0.13777E-04 38508   0.903E-02    0.469E-02
DAV:  11    -0.669324466528E+03    0.21692E-03   -0.90196E-05 35220   0.628E-02    0.283E-02
DAV:  12    -0.669324355233E+03    0.11130E-03   -0.37482E-05 29652   0.348E-02    0.215E-02
DAV:  13    -0.669324250569E+03    0.10466E-03   -0.90851E-06 18720   0.194E-02    0.174E-02
DAV:  14    -0.669323922105E+03    0.32846E-03   -0.34930E-06 21600   0.507E-02    0.126E-02
DAV:  15    -0.669323509820E+03    0.41229E-03   -0.19624E-05 25152   0.673E-02    0.112E-02
DAV:  16    -0.669323379913E+03    0.12991E-03   -0.38876E-05 28284   0.234E-02    0.110E-02
DAV:  17    -0.669323384268E+03   -0.43557E-05   -0.91752E-06 20832   0.941E-03
  48 F= -.66932338E+03 E0= -.66932338E+03  d E =0.233672E+00  mag=    -0.0000
       N       E                     dE             d eps       ncg     rms          rms(c)
DAV:   1    -0.665230148872E+03    0.40932E+01   -0.61692E+01 47772   0.106E+02    0.636E+00
DAV:   2    -0.669099426226E+03   -0.38693E+01   -0.39457E+01 38112   0.135E+01    0.400E+00
DAV:   3    -0.669180639642E+03   -0.81213E-01   -0.15202E+00 36504   0.630E+00    0.276E+00
DAV:   4    -0.669162513051E+03    0.18127E-01   -0.15935E-01 36816   0.298E+00    0.190E+00
DAV:   5    -0.669159906601E+03    0.26065E-02   -0.61600E-02 39804   0.145E+00    0.121E+00
DAV:   6    -0.669159160814E+03    0.74579E-03   -0.42065E-02 36792   0.148E+00    0.507E-01
DAV:   7    -0.669158653104E+03    0.50771E-03   -0.10824E-02 37512   0.665E-01    0.231E-01
DAV:   8    -0.669158963947E+03   -0.31084E-03   -0.41246E-03 36780   0.303E-01    0.153E-01
DAV:   9    -0.669158666418E+03    0.29753E-03   -0.78772E-04 36816   0.169E-01    0.960E-02
DAV:  10    -0.669158547029E+03    0.11939E-03   -0.15946E-04 38256   0.964E-02    0.581E-02
DAV:  11    -0.669158345639E+03    0.20139E-03   -0.11326E-04 41052   0.754E-02    0.361E-02
DAV:  12    -0.669158219543E+03    0.12610E-03   -0.58406E-05 33396   0.462E-02    0.282E-02
DAV:  13    -0.669158131719E+03    0.87824E-04   -0.16600E-05 21504   0.243E-02    0.240E-02
DAV:  14    -0.669157921103E+03    0.21062E-03   -0.40369E-06 21264   0.500E-02    0.182E-02
DAV:  15    -0.669157542372E+03    0.37873E-03   -0.30526E-05 28092   0.930E-02    0.161E-02
DAV:  16    -0.669157333864E+03    0.20851E-03   -0.66041E-05 37380   0.522E-02    0.153E-02
DAV:  17    -0.669157259932E+03    0.73932E-04   -0.27433E-05 26724   0.195E-02    0.151E-02
DAV:  18    -0.669157071458E+03    0.18847E-03   -0.35194E-06 19548   0.444E-02    0.119E-02
DAV:  19    -0.669156723524E+03    0.34793E-03   -0.26740E-05 27060   0.882E-02    0.919E-03
DAV:  20    -0.669156526553E+03    0.19697E-03   -0.50169E-05 34776   0.502E-02    0.852E-03
DAV:  21    -0.669156439297E+03    0.87256E-04   -0.18337E-05 23484   0.228E-02    0.791E-03
DAV:  22    -0.669156286153E+03    0.15314E-03   -0.36170E-06 19812   0.377E-02    0.672E-03
DAV:  23    -0.669156080004E+03    0.20615E-03   -0.15728E-05 24408   0.595E-02    0.545E-03
DAV:  24    -0.669156001924E+03    0.78080E-04   -0.36114E-05 30084   0.268E-02    0.494E-03
DAV:  25    -0.669155994559E+03    0.73646E-05   -0.11473E-05 21876   0.875E-03
  49 F= -.66915599E+03 E0= -.66915599E+03  d E =0.167390E+00  mag=    -0.0000
       N       E                     dE             d eps       ncg     rms          rms(c)
DAV:   1    -0.668671865891E+03    0.48414E+00   -0.85944E+00 48096   0.429E+01    0.218E+00
DAV:   2    -0.669266147480E+03   -0.59428E+00   -0.60391E+00 38460   0.502E+00    0.130E+00
DAV:   3    -0.669276020758E+03   -0.98733E-02   -0.14538E-01 38484   0.175E+00    0.908E-01
DAV:   4    -0.669274637044E+03    0.13837E-02   -0.14786E-02 36960   0.966E-01    0.662E-01
DAV:   5    -0.669274275595E+03    0.36145E-03   -0.92023E-03 40656   0.617E-01    0.318E-01
DAV:   6    -0.669275004814E+03   -0.72922E-03   -0.48062E-03 38760   0.430E-01    0.180E-01
DAV:   7    -0.669274695889E+03    0.30893E-03   -0.14329E-03 38304   0.264E-01    0.894E-02
DAV:   8    -0.669274831819E+03   -0.13593E-03   -0.47041E-04 37044   0.108E-01    0.480E-02
DAV:   9    -0.669274836868E+03   -0.50488E-05   -0.75396E-05 34596   0.490E-02
  50 F= -.66927484E+03 E0= -.66927484E+03  d E =-.118842E+00  mag=    -0.0000
       N       E                     dE             d eps       ncg     rms          rms(c)
DAV:   1    -0.669150998732E+03    0.12383E+00   -0.33630E+00 45612   0.177E+01    0.865E-01
DAV:   2    -0.669258166515E+03   -0.10717E+00   -0.11191E+00 38328   0.226E+00    0.495E-01
DAV:   3    -0.669258969568E+03   -0.80305E-03   -0.18675E-02 37428   0.537E-01    0.339E-01
DAV:   4    -0.669258901631E+03    0.67937E-04   -0.24689E-03 37608   0.373E-01    0.252E-01
DAV:   5    -0.669259031239E+03   -0.12961E-03   -0.14401E-03 41640   0.293E-01    0.854E-02
DAV:   6    -0.669259225689E+03   -0.19445E-03   -0.70038E-04 39264   0.105E-01    0.503E-02
DAV:   7    -0.669259324872E+03   -0.99182E-04   -0.16291E-04 36552   0.512E-02    0.311E-02
DAV:   8    -0.669259377249E+03   -0.52377E-04   -0.28244E-05 27084   0.320E-02    0.221E-02
DAV:   9    -0.669259489073E+03   -0.11182E-03   -0.84569E-06 19728   0.282E-02    0.151E-02
DAV:  10    -0.669259602875E+03   -0.11380E-03   -0.63717E-06 20028   0.243E-02    0.997E-03
DAV:  11    -0.669259672392E+03   -0.69516E-04   -0.77579E-06 18828   0.131E-02    0.976E-03
DAV:  12    -0.669259702738E+03   -0.30346E-04   -0.34630E-06 18720   0.648E-03    0.857E-03
DAV:  13    -0.669259759323E+03   -0.56586E-04   -0.29001E-07 18720   0.921E-03    0.752E-03
DAV:  14    -0.669260015020E+03   -0.25570E-03   -0.40080E-06 20712   0.411E-02    0.692E-03
DAV:  15    -0.669260267815E+03   -0.25280E-03   -0.90659E-06 21312   0.406E-02    0.643E-03
DAV:  16    -0.669260345304E+03   -0.77489E-04   -0.14593E-05 22776   0.141E-02    0.692E-03
DAV:  17    -0.669260352505E+03   -0.72002E-05   -0.53654E-06 18600   0.617E-03
  51 F= -.66926035E+03 E0= -.66926035E+03  d E =0.144844E-01  mag=    -0.0000
       N       E                     dE             d eps       ncg     rms          rms(c)
DAV:   1    -0.663929620497E+03    0.53307E+01   -0.19439E+02 45780   0.118E+02    0.656E+00
DAV:   2    -0.669032186394E+03   -0.51026E+01   -0.51940E+01 37572   0.159E+01    0.340E+00
DAV:   3    -0.669056076354E+03   -0.23890E-01   -0.90628E-01 35964   0.343E+00    0.235E+00
DAV:   4    -0.669051450032E+03    0.46263E-02   -0.12241E-01 39456   0.212E+00    0.181E+00
DAV:   5    -0.669042006710E+03    0.94433E-02   -0.54977E-02 39660   0.176E+00    0.752E-01
DAV:   6    -0.669044557669E+03   -0.25510E-02   -0.35542E-02 37932   0.108E+00    0.417E-01
DAV:   7    -0.669044984469E+03   -0.42680E-03   -0.10238E-02 36276   0.504E-01    0.232E-01
DAV:   8    -0.669045078758E+03   -0.94289E-04   -0.19349E-03 37224   0.167E-01    0.151E-01
DAV:   9    -0.669045221159E+03   -0.14240E-03   -0.34624E-04 36816   0.130E-01    0.939E-02
DAV:  10    -0.669045666809E+03   -0.44565E-03   -0.30163E-04 38436   0.122E-01    0.422E-02
DAV:  11    -0.669045886149E+03   -0.21934E-03   -0.13325E-04 35640   0.660E-02    0.317E-02
DAV:  12    -0.669045986280E+03   -0.10013E-03   -0.40254E-05 30000   0.301E-02    0.255E-02
DAV:  13    -0.669046141556E+03   -0.15528E-03   -0.83176E-06 18720   0.206E-02    0.218E-02
DAV:  14    -0.669046654697E+03   -0.51314E-03   -0.11030E-05 22584   0.578E-02    0.173E-02
DAV:  15    -0.669047139175E+03   -0.48448E-03   -0.27273E-05 27516   0.567E-02    0.155E-02
DAV:  16    -0.669047298313E+03   -0.15914E-03   -0.34608E-05 28848   0.218E-02    0.149E-02
DAV:  17    -0.669047423615E+03   -0.12530E-03   -0.33279E-06 19032   0.146E-02    0.137E-02
DAV:  18    -0.669048091187E+03   -0.66757E-03   -0.30688E-05 25020   0.869E-02    0.122E-02
DAV:  19    -0.669048373231E+03   -0.28204E-03   -0.44732E-05 33444   0.420E-02    0.111E-02
DAV:  20    -0.669048491040E+03   -0.11781E-03   -0.17187E-05 24924   0.190E-02    0.102E-02
DAV:  21    -0.669048579655E+03   -0.88615E-04   -0.40682E-06 18732   0.163E-02    0.939E-03
DAV:  22    -0.669048867362E+03   -0.28771E-03   -0.20865E-05 23904   0.583E-02    0.904E-03
DAV:  23    -0.669048989117E+03   -0.12176E-03   -0.32413E-05 30144   0.368E-02    0.768E-03
DAV:  24    -0.669049047768E+03   -0.58651E-04   -0.17361E-05 23244   0.247E-02    0.704E-03
DAV:  25    -0.669049091782E+03   -0.44014E-04   -0.12176E-05 21336   0.316E-02    0.658E-03
DAV:  26    -0.669049151090E+03   -0.59309E-04   -0.24054E-05 28428   0.371E-02    0.628E-03
DAV:  27    -0.669049083801E+03    0.67290E-04   -0.27157E-05 28260   0.148E-02    0.595E-03
DAV:  28    -0.669049082042E+03    0.17587E-05   -0.25176E-06 19404   0.424E-03
