       N       E                     dE             d eps       ncg     rms          ort
DAV:   1     0.826700472943E+04    0.82670E+04   -0.24656E+05  8424   0.238E+03
DAV:   2     0.917432623057E+03   -0.73496E+04   -0.68991E+04  8424   0.657E+02
DAV:   3    -0.674794877196E+03   -0.15922E+04   -0.14002E+04  8424   0.282E+02
DAV:   4    -0.830557310299E+03   -0.15576E+03   -0.15306E+03  8424   0.856E+01
DAV:   5    -0.833056377210E+03   -0.24991E+01   -0.24880E+01  8424   0.122E+01
SDA:   6    -0.263149766179E+03    0.56991E+03   -0.24880E+01  8424   0.377E+04 0.000E+00
CGA:   7    -0.604776728487E+03   -0.34163E+03   -0.41054E+03  8424   0.548E+03 0.424E+02
CGA:   8    -0.635933440068E+03   -0.31157E+02   -0.34601E+02  8424   0.212E+03 0.756E+02
CGA:   9    -0.637452151500E+03   -0.15187E+01   -0.20397E+02  8424   0.638E+03-0.153E+02
CGA:  10    -0.649960659929E+03   -0.12509E+02   -0.20758E+02  8424   0.119E+03-0.229E+03
CGA:  11    -0.652939581776E+03   -0.29789E+01   -0.55761E+01  8424   0.192E+03-0.467E+02
CGA:  12    -0.655525638830E+03   -0.25861E+01   -0.71031E+01  8424   0.217E+03-0.629E+02
CGA:  13    -0.659447398880E+03   -0.39218E+01   -0.67133E+01  8424   0.190E+03-0.203E+03
CGA:  14    -0.657111297791E+03    0.23361E+01   -0.13441E+02  8424   0.206E+03-0.171E+02
CGA:  15    -0.658054977604E+03   -0.94368E+00   -0.11519E+02  8424   0.166E+03-0.103E+03
CGA:  16    -0.658665041553E+03   -0.61006E+00   -0.75022E+01  8424   0.183E+03-0.462E+02
CGA:  17    -0.663738931368E+03   -0.50739E+01   -0.82628E+01  8424   0.642E+02-0.169E+02
CGA:  18    -0.663174819646E+03    0.56411E+00   -0.43031E+01  8424   0.113E+03 0.520E+01
CGA:  19    -0.661445031906E+03    0.17298E+01   -0.44932E+01  8424   0.184E+03-0.149E+03
CGA:  20    -0.660781047540E+03    0.66398E+00   -0.93799E+01  8424   0.102E+03-0.818E+02
CGA:  21    -0.666815924592E+03   -0.60349E+01   -0.18663E+01  8424   0.741E+02-0.133E+03
CGA:  22    -0.666448375114E+03    0.36755E+00   -0.33738E+01  8424   0.859E+02-0.285E+02
CGA:  23    -0.667494215355E+03   -0.10458E+01   -0.24079E+01  8424   0.202E+02-0.906E+01
CGA:  24    -0.668386048413E+03   -0.89183E+00   -0.53966E+00  8424   0.422E+01 0.935E+01
CGA:  25    -0.668543193732E+03   -0.15715E+00   -0.13452E+00  8424   0.118E+01 0.827E+00
CGA:  26    -0.668644036025E+03   -0.10084E+00   -0.10518E+00  8424   0.295E+01 0.747E-02
CGA:  27    -0.668739900614E+03   -0.95865E-01   -0.63561E-01  8424   0.251E+01 0.135E+01
CGA:  28    -0.668864273221E+03   -0.12437E+00   -0.15850E+00  8424   0.180E+01-0.449E+00
CGA:  29    -0.668934369134E+03   -0.70096E-01   -0.77592E-01  8424   0.731E+00-0.570E-01
CGA:  30    -0.668993758208E+03   -0.59389E-01   -0.60784E-01  8424   0.448E+00 0.540E-01
CGA:  31    -0.669045860770E+03   -0.52103E-01   -0.52097E-01  8424   0.481E+00-0.888E-03
CGA:  32    -0.669097856398E+03   -0.51996E-01   -0.51409E-01  8424   0.263E+00 0.215E-01
CGA:  33    -0.669126699950E+03   -0.28844E-01   -0.28726E-01  8424   0.182E+00-0.556E-02
CGA:  34    -0.669153118214E+03   -0.26418E-01   -0.29042E-01  8424   0.126E+00-0.375E-01
CGA:  35    -0.669177506564E+03   -0.24388E-01   -0.30617E-01  8424   0.153E+00-0.281E-01
CGA:  36    -0.669204255824E+03   -0.26749E-01   -0.44312E-01  8424   0.214E+00-0.634E-01
CGA:  37    -0.669188272045E+03    0.15984E-01   -0.65622E-01  8424   0.718E+00-0.212E+00
CGA:  38    -0.669267913951E+03   -0.79642E-01   -0.80150E-01  8424   0.128E+00-0.206E-03
CGA:  39    -0.669300894635E+03   -0.32981E-01   -0.32101E-01  8424   0.125E+00 0.816E-02
CGA:  40    -0.669351427869E+03   -0.50533E-01   -0.51648E-01  8424   0.103E+00-0.396E-02
CGA:  41    -0.669389737603E+03   -0.38310E-01   -0.40004E-01  8424   0.750E-01-0.735E-02
CGA:  42    -0.669412465749E+03   -0.22728E-01   -0.48216E-01  8424   0.256E+00-0.531E-01
CGA:  43    -0.669450424339E+03   -0.37959E-01   -0.37728E-01  8424   0.596E-01-0.897E-02
CGA:  44    -0.669474113644E+03   -0.23689E-01   -0.30516E-01  8424   0.100E+00-0.203E-01
CGA:  45    -0.669494183784E+03   -0.20070E-01   -0.24427E-01  8424   0.801E-01-0.271E-01
CGA:  46    -0.669511752952E+03   -0.17569E-01   -0.21256E-01  8424   0.478E-01-0.252E-01
CGA:  47    -0.669521631930E+03   -0.98790E-02   -0.12923E-01  8424   0.510E-01-0.181E-01
CGA:  48    -0.669528319533E+03   -0.66876E-02   -0.22172E-01  8424   0.108E+00-0.331E-01
CGA:  49    -0.669549517060E+03   -0.21198E-01   -0.21430E-01  8424   0.365E-01 0.412E-02
CGA:  50    -0.669560095724E+03   -0.10579E-01   -0.10538E-01  8424   0.101E-01 0.176E-02
CGA:  51    -0.669564132608E+03   -0.40369E-02   -0.37072E-02  8424   0.527E-02 0.349E-02
CGA:  52    -0.669566965949E+03   -0.28333E-02   -0.24930E-02  8424   0.405E-02 0.377E-02
CGA:  53    -0.669568335248E+03   -0.13693E-02   -0.13173E-02  8424   0.380E-02 0.865E-03
CGA:  54    -0.669570081463E+03   -0.17462E-02   -0.15709E-02  8424   0.296E-02 0.243E-02
CGA:  55    -0.669571551951E+03   -0.14705E-02   -0.14368E-02  8424   0.391E-02 0.141E-03
CGA:  56    -0.669573844423E+03   -0.22925E-02   -0.19473E-02  8424   0.594E-02 0.175E-02
CGA:  57    -0.669582432183E+03   -0.85878E-02   -0.73838E-02  8424   0.102E-01 0.179E-02
CGA:  58    -0.669595782977E+03   -0.13351E-01   -0.12557E-01  8424   0.284E-01-0.183E-03
CGA:  59    -0.669603389377E+03   -0.76064E-02   -0.20114E-01  8424   0.126E+00-0.424E-01
CGA:  60    -0.669620979082E+03   -0.17590E-01   -0.17869E-01  8424   0.144E-01 0.336E-02
CGA:  61    -0.669627902199E+03   -0.69231E-02   -0.73535E-02  8424   0.134E-01-0.317E-02
CGA:  62    -0.669628797321E+03   -0.89512E-03   -0.12996E-01  8424   0.421E-01-0.140E-01
CGA:  63    -0.669639433885E+03   -0.10637E-01   -0.10687E-01  8424   0.148E-01 0.331E-03
CGA:  64    -0.669644520816E+03   -0.50869E-02   -0.49906E-02  8424   0.497E-02-0.146E-02
CGA:  65    -0.669645920653E+03   -0.13998E-02   -0.13632E-02  8424   0.226E-02-0.388E-03
CGA:  66    -0.669646906348E+03   -0.98570E-03   -0.16705E-02  8424   0.910E-02-0.171E-02
CGA:  67    -0.669648344857E+03   -0.14385E-02   -0.14562E-02  8424   0.108E-02 0.940E-04
CGA:  68    -0.669647976620E+03    0.36824E-03   -0.13207E-02  8424   0.121E-01-0.211E-02
CGA:  69    -0.669650120928E+03   -0.21443E-02   -0.21942E-02  8424   0.184E-02 0.237E-03
CGA:  70    -0.669650903866E+03   -0.78294E-03   -0.75080E-03  8424   0.221E-02-0.114E-02
CGA:  71    -0.669651377274E+03   -0.47341E-03   -0.45429E-03  8424   0.692E-03-0.839E-04
CGA:  72    -0.669652084267E+03   -0.70699E-03    0.50492E-03  8424   0.857E-03 0.214E-04
CGA:  73    -0.669653500356E+03   -0.14161E-02    0.19943E-03  8424   0.659E-03 0.786E-03
CGA:  74    -0.669653183683E+03    0.31667E-03   -0.78312E-03  8424   0.105E-01-0.144E-02
CGA:  75    -0.669655092269E+03   -0.19086E-02   -0.17123E-02  8424   0.129E-02-0.737E-03
CGA:  76    -0.669655579193E+03   -0.48692E-03   -0.46448E-03  8424   0.988E-03-0.426E-03
CGA:  77    -0.669656634142E+03   -0.10549E-02    0.17700E-03  8424   0.736E-03 0.339E-03
CGA:  78    -0.669657973983E+03   -0.13398E-02    0.39603E-03  8424   0.458E-03 0.462E-03
CGA:  79    -0.669658522819E+03   -0.54884E-03    0.27165E-03  8424   0.352E-03 0.119E-03
CGA:  80    -0.669659449394E+03   -0.92658E-03    0.70370E-04  8424   0.385E-03 0.417E-03
CGA:  81    -0.669659971109E+03   -0.52171E-03    0.15496E-03  8424   0.323E-03 0.157E-03
CGA:  82    -0.669660937846E+03   -0.96674E-03    0.70231E-04  8424   0.388E-03 0.393E-03
CGA:  83    -0.669661429702E+03   -0.49186E-03    0.19016E-03  8424   0.406E-03 0.120E-03
CGA:  84    -0.669662515818E+03   -0.10861E-02    0.87633E-04  8424   0.484E-03 0.364E-03
CGA:  85    -0.669662987914E+03   -0.47210E-03    0.93749E-03  8424   0.565E-03 0.918E-05
CGA:  86    -0.669664115235E+03   -0.11273E-02    0.10202E-03  8424   0.711E-03 0.271E-03
CGA:  87    -0.669666195120E+03   -0.20799E-02    0.18328E-03  8424   0.442E-03 0.872E-03
CGA:  88    -0.669658913232E+03    0.72819E-02   -0.39337E-02  8424   0.735E-01-0.355E-02
CGA:  89    -0.669669622082E+03   -0.10709E-01   -0.10455E-01  8424   0.136E-02-0.349E-02
CGA:  90    -0.669670191253E+03   -0.56917E-03   -0.46700E-03  8424   0.713E-03-0.253E-03
CGA:  91    -0.669671328556E+03   -0.11373E-02    0.69210E-03  8424   0.342E-02-0.509E-03
CGA:  92    -0.669671850528E+03   -0.52197E-03   -0.52972E-03  8424   0.465E-03 0.408E-04
CGA:  93    -0.669672807248E+03   -0.95672E-03    0.40131E-03  8424   0.793E-03-0.117E-03
CGA:  94    -0.669675298420E+03   -0.24912E-02    0.10974E-03  8424   0.115E-02 0.441E-03
CGA:  95    -0.669676145065E+03   -0.84664E-03   -0.91347E-03  8424   0.170E-02-0.869E-03
CGA:  96    -0.669677120602E+03   -0.97554E-03   -0.79727E-03  8424   0.158E-02-0.714E-03
CGA:  97    -0.669677696985E+03   -0.57638E-03   -0.33731E-03  8424   0.195E-02-0.709E-03
CGA:  98    -0.669680817485E+03   -0.31205E-02    0.33499E-03  8424   0.204E-02 0.426E-03
CGA:  99    -0.669673818434E+03    0.69991E-02   -0.42499E-02  8424   0.130E+00-0.114E-01
CGA: 100    -0.669691216072E+03   -0.17398E-01   -0.17062E-01  8424   0.345E-02 0.610E-02
CGA: 101    -0.669692707046E+03   -0.14910E-02   -0.13009E-02  8424   0.122E-02-0.546E-03
CGA: 102    -0.669693305108E+03   -0.59806E-03   -0.32980E-03  8424   0.154E-02-0.730E-03
CGA: 103    -0.669693694569E+03   -0.38946E-03   -0.30951E-03  8424   0.548E-03-0.164E-03
CGA: 104    -0.669694867179E+03   -0.11726E-02    0.18973E-03  8424   0.931E-03-0.116E-03
CGA: 105    -0.669697783365E+03   -0.29162E-02    0.11665E-03  8424   0.111E-02 0.518E-03
CGA: 106    -0.669698427898E+03   -0.64453E-03   -0.87206E-03  8424   0.592E-02-0.167E-02
CGA: 107    -0.669699337977E+03   -0.91008E-03   -0.95878E-03  8424   0.657E-03 0.123E-03
CGA: 108    -0.669700276938E+03   -0.93896E-03    0.20039E-02  8424   0.122E-02-0.380E-03
CGA: 109    -0.669700790345E+03   -0.51341E-03   -0.37183E-03  8424   0.111E-02-0.432E-03
CGA: 110    -0.669702221110E+03   -0.14308E-02    0.36008E-03  8424   0.211E-02-0.599E-03
CGA: 111    -0.669702943317E+03   -0.72221E-03   -0.63776E-03  8424   0.961E-03-0.268E-03
CGA: 112    -0.669701319973E+03    0.16233E-02   -0.10700E-02  8424   0.311E-01-0.402E-02
CGA: 113    -0.669705445700E+03   -0.41257E-02   -0.42720E-02  8424   0.224E-02 0.828E-03
CGA: 114    -0.669706571869E+03   -0.11262E-02   -0.95697E-03  8424   0.806E-03-0.881E-03
CGA: 115    -0.669707894314E+03   -0.13224E-02    0.11654E-03  8424   0.844E-03 0.131E-03
CGA: 116    -0.669709792464E+03   -0.18981E-02    0.48210E-03  8424   0.180E-02-0.286E-03
CGA: 117    -0.669715050082E+03   -0.52576E-02    0.13267E-03  8424   0.274E-02 0.368E-03
CGA: 118    -0.669725299647E+03   -0.10250E-01    0.62778E-03  8424   0.570E-02 0.484E-03
CGA: 119    -0.669746587620E+03   -0.21288E-01    0.12252E-02  8424   0.106E-01-0.287E-02
CGA: 120    -0.669749661452E+03   -0.30738E-02   -0.28763E-02  8424   0.211E-02-0.607E-03
CGA: 121    -0.669750172530E+03   -0.51108E-03   -0.42565E-03  8424   0.228E-03-0.231E-03
CGA: 122    -0.669750934943E+03   -0.76241E-03    0.24680E-04  8424   0.177E-03 0.920E-04
CGA: 123    -0.669752161143E+03   -0.12262E-02    0.20905E-04  8424   0.227E-03 0.180E-03
CGA: 124    -0.669752672144E+03   -0.51100E-03    0.64498E-04  8424   0.885E-03-0.148E-03
CGA: 125    -0.669753059005E+03   -0.38686E-03   -0.22194E-03  8424   0.690E-03-0.526E-03
CGA: 126    -0.669753284856E+03   -0.22585E-03   -0.14482E-03  8424   0.340E-03-0.238E-03
CGA: 127    -0.669754246537E+03   -0.96168E-03    0.19398E-04  8424   0.166E-03 0.156E-03
CGA: 128    -0.669755201007E+03   -0.95447E-03    0.23894E-04  8424   0.480E-03 0.655E-04
CGA: 129    -0.669758859526E+03   -0.36585E-02    0.43108E-04  8424   0.522E-03 0.639E-03
CGA: 130    -0.669759039295E+03   -0.17977E-03   -0.33642E-03  8424   0.563E-02-0.140E-02
CGA: 131    -0.669759784126E+03   -0.74483E-03   -0.77612E-03  8424   0.128E-03 0.930E-04
CGA: 132    -0.669760372032E+03   -0.58791E-03    0.10065E-04  8424   0.266E-03 0.473E-04
CGA: 133    -0.669762117183E+03   -0.17452E-02    0.26049E-04  8424   0.179E-03 0.289E-03
CGA: 134    -0.669762642549E+03   -0.52537E-03    0.25404E-04  8424   0.234E-03 0.143E-04
CGA: 135    -0.669763902575E+03   -0.12600E-02    0.17139E-04  8424   0.303E-03 0.153E-03
CGA: 136    -0.669764415214E+03   -0.51264E-03    0.12384E-03  8424   0.472E-03-0.116E-03
CGA: 137    -0.669765626157E+03   -0.12109E-02    0.25158E-04  8424   0.913E-03-0.130E-03
CGA: 138    -0.669768953168E+03   -0.33270E-02    0.44620E-04  8424   0.121E-02 0.481E-03
CGA: 139    -0.669769321997E+03   -0.36883E-03   -0.29895E-03  8424   0.480E-03-0.259E-03
CGA: 140    -0.669770004231E+03   -0.68223E-03    0.11992E-03  8424   0.487E-03-0.183E-03
CGA: 141    -0.669771284792E+03   -0.12806E-02    0.23660E-04  8424   0.442E-03 0.160E-03
CGA: 142    -0.669772777886E+03   -0.14931E-02    0.97498E-04  8424   0.571E-03 0.328E-04
CGA: 143    -0.669775387703E+03   -0.26098E-02    0.48203E-04  8424   0.828E-03 0.607E-04
CGA: 144    -0.669779850193E+03   -0.44625E-02    0.60400E-04  8424   0.505E-03 0.746E-03
CGA: 145    -0.669780092319E+03   -0.24213E-03   -0.22780E-03  8424   0.802E-03-0.270E-03
CGA: 146    -0.669780540246E+03   -0.44793E-03   -0.34039E-03  8424   0.329E-02-0.139E-02
CGA: 147    -0.669780832620E+03   -0.29237E-03   -0.40451E-03  8424   0.115E-03 0.306E-03
CGA: 148    -0.669781119569E+03   -0.28695E-03    0.21578E-04  8424   0.440E-03-0.401E-04
CGA: 149    -0.669782914921E+03   -0.17954E-02    0.12361E-04  8424   0.215E-02 0.588E-04
CGA: 150    -0.669794612278E+03   -0.11697E-01    0.14545E-03  8424   0.144E-02 0.174E-02
CGA: 151    -0.669795072637E+03   -0.46036E-03   -0.35212E-03  8424   0.630E-03-0.462E-03
CGA: 152    -0.669795540408E+03   -0.46777E-03    0.58842E-03  8424   0.900E-03-0.321E-03
CGA: 153    -0.669795766220E+03   -0.22581E-03   -0.18105E-03  8424   0.312E-03-0.167E-03
CGA: 154    -0.669796273351E+03   -0.50713E-03    0.48344E-04  8424   0.435E-03-0.111E-03
CGA: 155    -0.669797262524E+03   -0.98917E-03    0.22133E-04  8424   0.302E-03 0.203E-03
CGA: 156    -0.669798360886E+03   -0.10984E-02    0.58552E-04  8424   0.364E-03 0.894E-04
CGA: 157    -0.669799993797E+03   -0.16329E-02    0.38078E-04  8424   0.755E-03 0.873E-04
CGA: 158    -0.669803857125E+03   -0.38633E-02    0.59985E-04  8424   0.874E-03 0.715E-03
CGA: 159    -0.669804212945E+03   -0.35582E-03   -0.30036E-03  8424   0.114E-02-0.503E-03
CGA: 160    -0.669804476392E+03   -0.26345E-03   -0.19067E-03  8424   0.232E-03-0.260E-03
CGA: 161    -0.669804837894E+03   -0.36150E-03    0.29528E-04  8424   0.210E-03 0.406E-04
CGA: 162    -0.669805643074E+03   -0.80518E-03    0.19356E-04  8424   0.221E-03 0.113E-03
CGA: 163    -0.669805736389E+03   -0.93315E-04   -0.83299E-04  8424   0.654E-03-0.173E-03
CGA: 164    -0.669805984909E+03   -0.24852E-03   -0.30609E-03  8424   0.520E-02-0.159E-02
CGA: 165    -0.669806391972E+03   -0.40706E-03   -0.55353E-03  8424   0.131E-03 0.461E-03
CGA: 166    -0.669806549779E+03   -0.15781E-03    0.90305E-04  8424   0.535E-03-0.747E-04
CGA: 167    -0.669795962312E+03    0.10587E-01   -0.10995E-02  8424   0.119E+00-0.715E-02
CGA: 168    -0.669808460774E+03   -0.12498E-01   -0.13530E-01  8424   0.662E-03 0.367E-02
CGA: 169    -0.669808544374E+03   -0.83600E-04   -0.91831E-04  8424   0.104E-03 0.234E-04
CGA: 170    -0.669808967125E+03   -0.42275E-03    0.76660E-05  8424   0.148E-03 0.898E-04
CGA: 171    -0.669809345095E+03   -0.37797E-03    0.19311E-04  8424   0.439E-03-0.462E-04
CGA: 172    -0.669810772992E+03   -0.14279E-02    0.16927E-04  8424   0.103E-02 0.202E-03
CGA: 173    -0.669814552917E+03   -0.37799E-02    0.20426E-03  8424   0.222E-02 0.115E-03
CGA: 174    -0.669824000099E+03   -0.94472E-02    0.18246E-03  8424   0.315E-02 0.124E-02
CGA: 175    -0.669824872477E+03   -0.87238E-03   -0.67140E-03  8424   0.488E-03-0.811E-03
CGA: 176    -0.669825035649E+03   -0.16317E-03   -0.16366E-03  8424   0.812E-03-0.239E-03
CGA: 177    -0.669826220368E+03   -0.11847E-02    0.42615E-04  8424   0.511E-03 0.183E-03
CGA: 178    -0.669827398470E+03   -0.11781E-02    0.12894E-03  8424   0.152E-02-0.411E-03
CGA: 179    -0.669827558926E+03   -0.16046E-03   -0.21023E-03  8424   0.101E-03 0.161E-03
CGA: 180    -0.669827880350E+03   -0.32142E-03    0.10606E-04  8424   0.205E-03 0.501E-04
CGA: 181    -0.669829073378E+03   -0.11930E-02    0.19034E-04  8424   0.160E-03 0.264E-03
CGA: 182    -0.669829482683E+03   -0.40931E-03    0.17922E-04  8424   0.182E-03 0.206E-04
CGA: 183    -0.669830215817E+03   -0.73313E-03    0.14436E-04  8424   0.167E-03 0.167E-03
CGA: 184    -0.669830597950E+03   -0.38213E-03    0.22326E-04  8424   0.140E-03 0.339E-04
CGA: 185    -0.669831267538E+03   -0.66959E-03    0.10305E-04  8424   0.137E-03 0.149E-03
CGA: 186    -0.669831640608E+03   -0.37307E-03    0.13956E-04  8424   0.106E-03 0.636E-04
CGA: 187    -0.669832280766E+03   -0.64016E-03    0.90368E-05  8424   0.117E-03 0.142E-03
CGA: 188    -0.669832651689E+03   -0.37092E-03    0.95767E-05  8424   0.940E-04 0.758E-04
CGA: 189    -0.669833015990E+03   -0.36430E-03    0.59034E-05  8424   0.910E-04 0.805E-04
CGA: 190    -0.669833376449E+03   -0.36046E-03    0.55533E-05  8424   0.912E-04 0.809E-04
CGA: 191    -0.669833742880E+03   -0.36643E-03    0.54754E-05  8424   0.963E-04 0.779E-04
CGA: 192    -0.669834091930E+03   -0.34905E-03    0.65983E-05  8424   0.114E-03 0.672E-04
CGA: 193    -0.669834464307E+03   -0.37238E-03    0.89714E-05  8424   0.167E-03 0.353E-04
CGA: 194    -0.669835356169E+03   -0.89186E-03    0.12809E-04  8424   0.120E-03 0.211E-03
CGA: 195    -0.669835691721E+03   -0.33555E-03    0.11871E-04  8424   0.175E-03 0.243E-04
CGA: 196    -0.669836585998E+03   -0.89428E-03    0.11738E-04  8424   0.143E-03 0.201E-03
CGA: 197    -0.669836943539E+03   -0.35754E-03    0.16422E-04  8424   0.196E-03-0.474E-06
CGA: 198    -0.669837780243E+03   -0.83670E-03    0.10759E-04  8424   0.192E-03 0.173E-03
CGA: 199    -0.669838130104E+03   -0.34986E-03    0.37794E-04  8424   0.213E-03-0.359E-04
CGA: 200    -0.669838870464E+03   -0.74036E-03    0.95983E-05  8424   0.219E-03 0.128E-03
   1 F= -.66983887E+03 E0= -.66983887E+03  d E =-.669839E+03  mag=     2.0000
       N       E                     dE             d eps       ncg     rms          ort
SDA:   1    -0.669839706630E+03   -0.15765E-02    0.00000E+00  8424   0.310E-02 0.000E+00
CGA:   2    -0.669840428276E+03   -0.72165E-03   -0.64938E-03  8424   0.125E-02-0.321E-03
CGA:   3    -0.669840865816E+03   -0.43754E-03   -0.66662E-03  8424   0.403E-02-0.135E-02
CGA:   4    -0.669841395466E+03   -0.52965E-03   -0.47805E-03  8424   0.615E-03-0.166E-03
CGA:   5    -0.669841437274E+03   -0.41809E-04   -0.41908E-03  8424   0.583E-02-0.128E-02
CGA:   6    -0.669842150113E+03   -0.71284E-03   -0.67074E-03  8424   0.567E-03-0.135E-03
CGA:   7    -0.669841972173E+03    0.17794E-03   -0.47485E-03  8424   0.615E-02-0.148E-02
CGA:   8    -0.669842995675E+03   -0.10235E-02   -0.94751E-03  8424   0.838E-03-0.269E-03
CGA:   9    -0.669843327424E+03   -0.33175E-03   -0.30518E-03  8424   0.976E-03-0.630E-03
CGA:  10    -0.669843608569E+03   -0.28115E-03   -0.21474E-03  8424   0.354E-03-0.331E-03
CGA:  11    -0.669844041629E+03   -0.43306E-03    0.38436E-04  8424   0.245E-03-0.430E-04
CGA:  12    -0.669844691117E+03   -0.64949E-03    0.16599E-04  8424   0.115E-03 0.111E-03
CGA:  13    -0.669845301708E+03   -0.61059E-03    0.99256E-05  8424   0.123E-03 0.871E-04
CGA:  14    -0.669845599024E+03   -0.29732E-03    0.13122E-04  8424   0.153E-03-0.659E-05
CGA:  15    -0.669846286443E+03   -0.68742E-03    0.61979E-05  8424   0.151E-03 0.128E-03
CGA:  16    -0.669846608629E+03   -0.32219E-03    0.19364E-04  8424   0.132E-03-0.131E-04
CGA:  17    -0.669847176244E+03   -0.56761E-03    0.52201E-05  8424   0.121E-03 0.103E-03
CGA:  18    -0.669847481832E+03   -0.30559E-03    0.11891E-04  8424   0.830E-04 0.256E-04
CGA:  19    -0.669847981798E+03   -0.49997E-03    0.40941E-05  8424   0.847E-04 0.900E-04
CGA:  20    -0.669848286805E+03   -0.30501E-03    0.51434E-05  8424   0.627E-04 0.469E-04
CGA:  21    -0.669848579993E+03   -0.29319E-03    0.27471E-05  8424   0.585E-04 0.523E-04
CGA:  22    -0.669848871767E+03   -0.29177E-03    0.23676E-05  8424   0.582E-04 0.529E-04
CGA:  23    -0.669849160568E+03   -0.28880E-03    0.23695E-05  8424   0.639E-04 0.494E-04
CGA:  24    -0.669849443965E+03   -0.28340E-03    0.29822E-05  8424   0.926E-04 0.347E-04
CGA:  25    -0.669849712791E+03   -0.26883E-03    0.75077E-05  8424   0.231E-03-0.293E-04
CGA:  26    -0.669850686258E+03   -0.97347E-03    0.49660E-05  8424   0.450E-03 0.135E-03
CGA:  27    -0.669850854324E+03   -0.16807E-03   -0.11550E-03  8424   0.450E-03-0.342E-03
CGA:  28    -0.669851022687E+03   -0.16836E-03   -0.11371E-03  8424   0.481E-03-0.362E-03
CGA:  29    -0.669851192625E+03   -0.16994E-03   -0.11295E-03  8424   0.437E-03-0.355E-03
CGA:  30    -0.669851338033E+03   -0.14541E-03   -0.96535E-04  8424   0.355E-03-0.293E-03
CGA:  31    -0.669851476371E+03   -0.13834E-03   -0.12938E-03  8424   0.152E-02-0.617E-03
CGA:  32    -0.669851698672E+03   -0.22230E-03   -0.19074E-03  8424   0.675E-04-0.121E-03
CGA:  33    -0.669851962330E+03   -0.26366E-03    0.23692E-05  8424   0.727E-04 0.341E-04
CGA:  34    -0.669852159984E+03   -0.19765E-03    0.48918E-05  8424   0.194E-03-0.164E-04
CGA:  35    -0.669853012203E+03   -0.85222E-03    0.40833E-05  8424   0.340E-03 0.138E-03
CGA:  36    -0.669852899504E+03    0.11270E-03   -0.20597E-03  8424   0.644E-02-0.133E-02
CGA:  37    -0.669853523051E+03   -0.62355E-03   -0.67071E-03  8424   0.478E-04 0.195E-03
CGA:  38    -0.669853727411E+03   -0.20436E-03    0.19077E-05  8424   0.912E-04 0.206E-04
CGA:  39    -0.669854400395E+03   -0.67298E-03    0.39093E-05  8424   0.504E-04 0.118E-03
CGA:  40    -0.669854625598E+03   -0.22520E-03    0.17905E-05  8424   0.757E-04 0.176E-04
CGA:  41    -0.669855166866E+03   -0.54127E-03    0.29653E-05  8424   0.490E-04 0.956E-04
CGA:  42    -0.669855374414E+03   -0.20755E-03    0.18501E-05  8424   0.646E-04 0.180E-04
CGA:  43    -0.669855870354E+03   -0.49594E-03    0.24009E-05  8424   0.470E-04 0.810E-04
CGA:  44    -0.669856071284E+03   -0.20093E-03    0.17543E-05  8424   0.507E-04 0.213E-04
CGA:  45    -0.669856495125E+03   -0.42384E-03    0.19501E-05  8424   0.431E-04 0.653E-04
CGA:  46    -0.669856704653E+03   -0.20953E-03    0.13818E-05  8424   0.367E-04 0.266E-04
CGA:  47    -0.669856895612E+03   -0.19096E-03    0.10869E-05  8424   0.375E-04 0.263E-04
CGA:  48    -0.669857098655E+03   -0.20304E-03    0.10598E-05  8424   0.410E-04 0.228E-04
CGA:  49    -0.669857283657E+03   -0.18500E-03    0.14377E-05  8424   0.475E-04 0.167E-04
CGA:  50    -0.669857700297E+03   -0.41664E-03    0.16107E-05  8424   0.393E-04 0.647E-04
CGA:  51    -0.669857899809E+03   -0.19951E-03    0.12011E-05  8424   0.436E-04 0.157E-04
CGA:  52    -0.669858297625E+03   -0.39782E-03    0.14000E-05  8424   0.377E-04 0.590E-04
CGA:  53    -0.669858465138E+03   -0.16751E-03    0.13442E-05  8424   0.394E-04 0.152E-04
CGA:  54    -0.669858836451E+03   -0.37131E-03    0.12256E-05  8424   0.356E-04 0.531E-04
CGA:  55    -0.669859030035E+03   -0.19358E-03    0.10045E-05  8424   0.350E-04 0.154E-04
CGA:  56    -0.669859379136E+03   -0.34910E-03    0.10629E-05  8424   0.331E-04 0.476E-04
CGA:  57    -0.669859535650E+03   -0.15651E-03    0.10979E-05  8424   0.302E-04 0.162E-04
CGA:  58    -0.669859863085E+03   -0.32743E-03    0.91368E-06  8424   0.303E-04 0.426E-04
CGA:  59    -0.669860044093E+03   -0.18101E-03    0.76707E-06  8424   0.261E-04 0.171E-04
CGA:  60    -0.669860196224E+03   -0.15213E-03    0.67909E-06  8424   0.252E-04 0.182E-04
CGA:  61    -0.669860372628E+03   -0.17640E-03    0.53296E-06  8424   0.252E-04 0.177E-04
CGA:  62    -0.669860521603E+03   -0.14898E-03    0.64731E-06  8424   0.258E-04 0.165E-04
CGA:  63    -0.669860695051E+03   -0.17345E-03    0.57220E-06  8424   0.270E-04 0.148E-04
CGA:  64    -0.669860840447E+03   -0.14540E-03    0.76664E-06  8424   0.287E-04 0.126E-04
CGA:  65    -0.669861166287E+03   -0.32584E-03    0.79467E-06  8424   0.254E-04 0.410E-04
CGA:  66    -0.669861335730E+03   -0.16944E-03    0.56486E-06  8424   0.270E-04 0.117E-04
CGA:  67    -0.669861653421E+03   -0.31769E-03    0.71652E-06  8424   0.238E-04 0.385E-04
CGA:  68    -0.669861784505E+03   -0.13108E-03    0.66321E-06  8424   0.253E-04 0.110E-04
CGA:  69    -0.669862090805E+03   -0.30630E-03    0.64851E-06  8424   0.224E-04 0.360E-04
CGA:  70    -0.669862254254E+03   -0.16345E-03    0.45250E-06  8424   0.238E-04 0.102E-04
CGA:  71    -0.669862550876E+03   -0.29662E-03    0.58930E-06  8424   0.210E-04 0.338E-04
CGA:  72    -0.669862670254E+03   -0.11938E-03    0.56462E-06  8424   0.223E-04 0.962E-05
CGA:  73    -0.669862958150E+03   -0.28790E-03    0.52959E-06  8424   0.197E-04 0.316E-04
CGA:  74    -0.669863113887E+03   -0.15574E-03    0.36601E-06  8424   0.208E-04 0.908E-05
CGA:  75    -0.669863389075E+03   -0.27519E-03    0.48174E-06  8424   0.185E-04 0.294E-04
CGA:  76    -0.669863499793E+03   -0.11072E-03    0.46818E-06  8424   0.191E-04 0.871E-05
CGA:  77    -0.669863766469E+03   -0.26668E-03    0.42432E-06  8424   0.173E-04 0.272E-04
CGA:  78    -0.669863911827E+03   -0.14536E-03    0.30080E-06  8424   0.173E-04 0.849E-05
CGA:  79    -0.669864161245E+03   -0.24942E-03    0.38136E-06  8424   0.162E-04 0.249E-04
CGA:  80    -0.669864267765E+03   -0.10652E-03    0.36919E-06  8424   0.154E-04 0.842E-05
CGA:  81    -0.669864406508E+03   -0.13874E-03    0.24709E-06  8424   0.153E-04 0.836E-05
CGA:  82    -0.669864507124E+03   -0.10062E-03    0.34673E-06  8424   0.157E-04 0.771E-05
CGA:  83    -0.669864646665E+03   -0.13954E-03    0.25575E-06  8424   0.166E-04 0.658E-05
CGA:  84    -0.669864888993E+03   -0.24233E-03    0.32795E-06  8424   0.149E-04 0.230E-04
CGA:  85    -0.669864982118E+03   -0.93125E-04    0.35583E-06  8424   0.157E-04 0.608E-05
CGA:  86    -0.669865219031E+03   -0.23691E-03    0.29511E-06  8424   0.141E-04 0.215E-04
CGA:  87    -0.669865351072E+03   -0.13204E-03    0.21525E-06  8424   0.146E-04 0.571E-05
CGA:  88    -0.669865574673E+03   -0.22360E-03    0.26970E-06  8424   0.133E-04 0.199E-04
CGA:  89    -0.669865662051E+03   -0.87378E-04    0.30164E-06  8424   0.134E-04 0.548E-05
CGA:  90    -0.669865879033E+03   -0.21698E-03    0.23507E-06  8424   0.125E-04 0.183E-04
CGA:  91    -0.669865999981E+03   -0.12095E-03    0.18586E-06  8424   0.120E-04 0.545E-05
CGA:  92    -0.669866199385E+03   -0.19940E-03    0.21137E-06  8424   0.117E-04 0.166E-04
CGA:  93    -0.669866286119E+03   -0.86733E-04    0.23273E-06  8424   0.106E-04 0.555E-05
CGA:  94    -0.669866477776E+03   -0.19166E-03    0.17959E-06  8424   0.109E-04 0.151E-04
CGA:  95    -0.669866584671E+03   -0.10690E-03    0.15914E-06  8424   0.939E-05 0.565E-05
CGA:  96    -0.669866670509E+03   -0.85838E-04    0.14809E-06  8424   0.869E-05 0.639E-05
CGA:  97    -0.669866775552E+03   -0.10504E-03    0.10155E-06  8424   0.842E-05 0.655E-05
CGA:  98    -0.669866858448E+03   -0.82897E-04    0.12252E-06  8424   0.837E-05 0.644E-05
CGA:  99    -0.669866963472E+03   -0.10502E-03    0.93956E-07  8424   0.851E-05 0.613E-05
CGA: 100    -0.669867041570E+03   -0.78097E-04    0.13368E-06  8424   0.887E-05 0.563E-05
CGA: 101    -0.669867148745E+03   -0.10718E-03    0.10373E-06  8424   0.956E-05 0.486E-05
CGA: 102    -0.669867219393E+03   -0.70648E-04    0.19036E-06  8424   0.107E-04 0.370E-05
CGA: 103    -0.669867411389E+03   -0.19200E-03    0.16215E-06  8424   0.915E-05 0.145E-04
CGA: 104    -0.669867518336E+03   -0.10695E-03    0.11072E-06  8424   0.104E-04 0.328E-05
CGA: 105    -0.669867702227E+03   -0.18389E-03    0.15354E-06  8424   0.887E-05 0.138E-04
CGA: 106    -0.669867765121E+03   -0.62895E-04    0.18479E-06  8424   0.102E-04 0.280E-05
CGA: 107    -0.669867947360E+03   -0.18224E-03    0.13931E-06  8424   0.875E-05 0.131E-04
CGA: 108    -0.669868050174E+03   -0.10281E-03    0.10525E-06  8424   0.102E-04 0.219E-05
CGA: 109    -0.669868223677E+03   -0.17350E-03    0.13203E-06  8424   0.891E-05 0.125E-04
CGA: 110    -0.669868278388E+03   -0.54710E-04    0.21818E-06  8424   0.105E-04 0.137E-05
CGA: 111    -0.669868449789E+03   -0.17140E-03    0.11906E-06  8424   0.947E-05 0.117E-04
CGA: 112    -0.669868550397E+03   -0.10061E-03    0.12702E-06  8424   0.111E-04 0.209E-06
CGA: 113    -0.669868711952E+03   -0.16155E-03    0.11074E-06  8424   0.106E-04 0.109E-04
CGA: 114    -0.669868757281E+03   -0.45329E-04    0.39417E-06  8424   0.119E-04-0.129E-05
CGA: 115    -0.669868913501E+03   -0.15622E-03    0.97414E-07  8424   0.119E-04 0.991E-05
CGA: 116    -0.669869011890E+03   -0.98389E-04    0.20813E-06  8424   0.122E-04-0.257E-05
CGA: 117    -0.669869150351E+03   -0.13846E-03    0.92116E-07  8424   0.120E-04 0.887E-05
CGA: 118    -0.669869194314E+03   -0.43963E-04    0.54299E-06  8424   0.107E-04-0.227E-05
CGA: 119    -0.669869326871E+03   -0.13256E-03    0.78452E-07  8424   0.996E-05 0.797E-05
CGA: 120    -0.669869408970E+03   -0.82099E-04    0.17572E-06  8424   0.761E-05-0.438E-07
CGA: 121    -0.669869520354E+03   -0.11138E-03    0.71927E-07  8424   0.740E-05 0.719E-05
CGA: 122    -0.669869576654E+03   -0.56299E-04    0.14256E-06  8424   0.547E-05 0.196E-05
CGA: 123    -0.669869688188E+03   -0.11153E-03    0.59672E-07  8424   0.601E-05 0.670E-05
CGA: 124    -0.669869754414E+03   -0.66226E-04    0.77442E-07  8424   0.462E-05 0.273E-05
CGA: 125    -0.669869862294E+03   -0.10788E-03    0.58076E-07  8424   0.535E-05 0.649E-05
CGA: 126    -0.669869919773E+03   -0.57479E-04    0.70851E-07  8424   0.425E-05 0.292E-05
CGA: 127    -0.669869981480E+03   -0.61707E-04    0.40877E-07  8424   0.389E-05 0.345E-05
CGA: 128    -0.669870038134E+03   -0.56654E-04    0.37378E-07  8424   0.376E-05 0.358E-05
CGA: 129    -0.669870098583E+03   -0.60448E-04    0.32485E-07  8424   0.369E-05 0.360E-05
CGA: 130    -0.669870154176E+03   -0.55593E-04    0.34185E-07  8424   0.365E-05 0.358E-05
CGA: 131    -0.669870214054E+03   -0.59878E-04    0.30893E-07  8424   0.363E-05 0.354E-05
CGA: 132    -0.669870267757E+03   -0.53703E-04    0.34165E-07  8424   0.363E-05 0.348E-05
CGA: 133    -0.669870328316E+03   -0.60559E-04    0.30166E-07  8424   0.370E-05 0.338E-05
CGA: 134    -0.669870378090E+03   -0.49774E-04    0.38495E-07  8424   0.393E-05 0.317E-05
CGA: 135    -0.669870442228E+03   -0.64137E-04    0.33418E-07  8424   0.461E-05 0.270E-05
CGA: 136    -0.669870483274E+03   -0.41046E-04    0.74971E-07  8424   0.658E-05 0.147E-05
CGA: 137    -0.669870617664E+03   -0.13439E-03    0.77971E-07  8424   0.468E-05 0.835E-05
CGA: 138    -0.669870687088E+03   -0.69424E-04    0.44065E-07  8424   0.682E-05 0.108E-05
CGA: 139    -0.669870814967E+03   -0.12788E-03    0.76682E-07  8424   0.522E-05 0.812E-05
CGA: 140    -0.669870843897E+03   -0.28930E-04    0.14404E-06  8424   0.816E-05-0.224E-08
CGA: 141    -0.669870974687E+03   -0.13079E-03    0.70658E-07  8424   0.788E-05 0.792E-05
CGA: 142    -0.669871056759E+03   -0.82072E-04    0.10796E-06  8424   0.142E-04-0.420E-05
CGA: 143    -0.669871057130E+03   -0.37064E-06   -0.16524E-05  8424   0.345E-05 0.515E-05
   2 F= -.66987106E+03 E0= -.66987106E+03  d E =-.321867E-01  mag=     2.0000
       N       E                     dE             d eps       ncg     rms          ort
SDA:   1    -0.668467268374E+03    0.14038E+01    0.00000E+00  8424   0.362E+01 0.000E+00
CGA:   2    -0.669416708252E+03   -0.94944E+00   -0.94960E+00  8424   0.194E+01 0.400E-03
CGA:   3    -0.669780908015E+03   -0.36420E+00   -0.36400E+00  8424   0.456E+00-0.677E-03
CGA:   4    -0.669852421365E+03   -0.71513E-01   -0.71532E-01  8424   0.104E+00 0.695E-04
CGA:   5    -0.669870389986E+03   -0.17969E-01   -0.17999E-01  8424   0.223E-01 0.172E-03
CGA:   6    -0.669874940702E+03   -0.45507E-02   -0.45414E-02  8424   0.533E-02-0.808E-04
CGA:   7    -0.669876116296E+03   -0.11756E-02   -0.11711E-02  8424   0.157E-02-0.478E-04
CGA:   8    -0.669876531689E+03   -0.41539E-03   -0.40944E-03  8424   0.565E-03-0.124E-03
CGA:   9    -0.669876701288E+03   -0.16960E-03   -0.17259E-03  8424   0.289E-03-0.131E-03
CGA:  10    -0.669876772575E+03   -0.71286E-04   -0.11853E-03  8424   0.395E-03-0.210E-03
CGA:  11    -0.669876860624E+03   -0.88050E-04   -0.82206E-04  8424   0.834E-04-0.517E-04
CGA:  12    -0.669876910056E+03   -0.49431E-04    0.14292E-03  8424   0.255E-04-0.793E-05
CGA:  13    -0.669876944286E+03   -0.34230E-04    0.27103E-05  8424   0.180E-04-0.166E-07
CGA:  14    -0.669876999856E+03   -0.55570E-04    0.73042E-06  8424   0.124E-04 0.213E-05
CGA:  15    -0.669877054900E+03   -0.55044E-04    0.41375E-06  8424   0.722E-05 0.749E-05
CGA:  16    -0.669877084803E+03   -0.29903E-04    0.20523E-06  8424   0.579E-05 0.287E-05
CGA:  17    -0.669877124431E+03   -0.39627E-04    0.18940E-06  8424   0.533E-05 0.494E-05
CGA:  18    -0.669877152354E+03   -0.27924E-04    0.11566E-06  8424   0.493E-05 0.258E-05
CGA:  19    -0.669877194949E+03   -0.42595E-04    0.14081E-06  8424   0.479E-05 0.543E-05
CGA:  20    -0.669877221072E+03   -0.26122E-04    0.98980E-07  8424   0.398E-05 0.283E-05
CGA:  21    -0.669877240201E+03   -0.19129E-04    0.95218E-07  8424   0.528E-05 0.220E-05
CGA:  22    -0.669877270125E+03   -0.29925E-04    0.10470E-06  8424   0.105E-04-0.556E-06
CGA:  23    -0.669877339703E+03   -0.69578E-04    0.13785E-06  8424   0.121E-04 0.907E-05
CGA:  24    -0.669877343360E+03   -0.36569E-05   -0.42713E-05  8424   0.485E-04-0.170E-04
CGA:  25    -0.669877386853E+03   -0.43493E-04    0.18706E-04  8424   0.178E-03-0.858E-04
CGA:  26    -0.669877392592E+03   -0.57387E-05   -0.15012E-04  8424   0.108E-04 0.397E-04
   3 F= -.66987739E+03 E0= -.66987739E+03  d E =-.633546E-02  mag=     2.0000
       N       E                     dE             d eps       ncg     rms          ort
SDA:   1    -0.662568522505E+03    0.73089E+01    0.00000E+00  8424   0.177E+02 0.000E+00
CGA:   2    -0.667776143290E+03   -0.52076E+01   -0.52076E+01  8424   0.957E+01-0.890E-02
CGA:   3    -0.669447321351E+03   -0.16712E+01   -0.16720E+01  8424   0.194E+01 0.175E-02
CGA:   4    -0.669758351610E+03   -0.31103E+00   -0.31103E+00  8424   0.465E+00-0.567E-06
CGA:   5    -0.669839377770E+03   -0.81026E-01   -0.81030E-01  8424   0.102E+00-0.254E-04
CGA:   6    -0.669860092549E+03   -0.20715E-01   -0.20722E-01  8424   0.236E-01 0.759E-04
CGA:   7    -0.669865446738E+03   -0.53542E-02   -0.53331E-02  8424   0.736E-02-0.423E-03
CGA:   8    -0.669867310518E+03   -0.18638E-02   -0.18609E-02  8424   0.253E-02-0.179E-03
CGA:   9    -0.669868093498E+03   -0.78298E-03   -0.80210E-03  8424   0.119E-02-0.363E-03
CGA:  10    -0.669868460237E+03   -0.36674E-03   -0.43251E-03  8424   0.811E-03-0.446E-03
CGA:  11    -0.669868526860E+03   -0.66623E-04   -0.28280E-03  8424   0.136E-02-0.791E-03
CGA:  12    -0.669868810528E+03   -0.28367E-03   -0.27833E-03  8424   0.337E-03-0.584E-04
CGA:  13    -0.669866657794E+03    0.21527E-02   -0.11600E-02  8424   0.168E-01-0.174E-02
CGA:  14    -0.669868742434E+03   -0.20846E-02   -0.21744E-02  8424   0.193E-02 0.317E-03
CGA:  15    -0.669869435795E+03   -0.69336E-03   -0.65471E-03  8424   0.335E-03-0.216E-03
CGA:  16    -0.669869525277E+03   -0.89483E-04   -0.84866E-04  8424   0.120E-03-0.214E-04
CGA:  17    -0.669869726193E+03   -0.20092E-03    0.33962E-04  8424   0.276E-03-0.925E-04
CGA:  18    -0.669869734875E+03   -0.86820E-05   -0.31242E-04  8424   0.352E-04 0.596E-04
CGA:  19    -0.669869789436E+03   -0.54561E-04    0.29322E-04  8424   0.115E-03-0.317E-04
CGA:  20    -0.669869927842E+03   -0.13841E-03    0.99934E-04  8424   0.720E-03-0.244E-03
CGA:  21    -0.669869952457E+03   -0.24615E-04   -0.73036E-04  8424   0.340E-04 0.130E-03
CGA:  22    -0.669869958927E+03   -0.64698E-05   -0.61294E-05  8424   0.183E-04-0.121E-05
   4 F= -.66986996E+03 E0= -.66986996E+03  d E =0.743366E-02  mag=     2.0000
       N       E                     dE             d eps       ncg     rms          ort
SDA:   1    -0.663935228624E+03    0.59347E+01    0.00000E+00  8424   0.153E+02 0.000E+00
CGA:   2    -0.667876413599E+03   -0.39412E+01   -0.39434E+01  8424   0.828E+01-0.745E-03
CGA:   3    -0.669452632224E+03   -0.15762E+01   -0.15754E+01  8424   0.196E+01 0.482E-02
CGA:   4    -0.669758764753E+03   -0.30613E+00   -0.30621E+00  8424   0.436E+00 0.249E-03
CGA:   5    -0.669834142390E+03   -0.75378E-01   -0.75384E-01  8424   0.941E-01-0.916E-04
CGA:   6    -0.669853577203E+03   -0.19435E-01   -0.19341E-01  8424   0.225E-01-0.508E-03
CGA:   7    -0.669858584742E+03   -0.50075E-02   -0.49466E-02  8424   0.661E-02-0.376E-03
CGA:   8    -0.669860391560E+03   -0.18068E-02   -0.17439E-02  8424   0.243E-02-0.585E-03
CGA:   9    -0.669861229634E+03   -0.83807E-03   -0.85168E-03  8424   0.182E-02-0.997E-03
CGA:  10    -0.669859681950E+03    0.15477E-02   -0.11609E-02  8424   0.143E-01-0.383E-02
CGA:  11    -0.669862331874E+03   -0.26499E-02   -0.25843E-02  8424   0.219E-02-0.291E-03
CGA:  12    -0.669863269786E+03   -0.93791E-03   -0.98432E-03  8424   0.155E-02-0.730E-03
CGA:  13    -0.669863566399E+03   -0.29661E-03   -0.62465E-03  8424   0.494E-02-0.160E-02
CGA:  14    -0.669864309901E+03   -0.74350E-03   -0.68762E-03  8424   0.668E-03-0.216E-03
CGA:  15    -0.669864237024E+03    0.72877E-04   -0.57800E-03  8424   0.437E-02-0.128E-02
CGA:  16    -0.669865052442E+03   -0.81542E-03   -0.71119E-03  8424   0.983E-03-0.411E-03
CGA:  17    -0.669865361438E+03   -0.30900E-03   -0.27079E-03  8424   0.404E-03-0.368E-03
CGA:  18    -0.669865742141E+03   -0.38070E-03    0.58498E-04  8424   0.472E-03-0.207E-03
CGA:  19    -0.669865848261E+03   -0.10612E-03   -0.78097E-04  8424   0.164E-03-0.118E-03
CGA:  20    -0.669866178444E+03   -0.33018E-03    0.98462E-05  8424   0.706E-04-0.256E-04
CGA:  21    -0.669866503775E+03   -0.32533E-03    0.19420E-05  8424   0.832E-04 0.956E-05
CGA:  22    -0.669867134684E+03   -0.63091E-03    0.24465E-05  8424   0.601E-04 0.346E-04
CGA:  23    -0.669867771487E+03   -0.63680E-03    0.19371E-05  8424   0.542E-04 0.469E-04
CGA:  24    -0.669867976643E+03   -0.20516E-03    0.27536E-05  8424   0.188E-03-0.469E-04
CGA:  25    -0.669868046941E+03   -0.70299E-04   -0.42481E-04  8424   0.233E-03-0.168E-03
CGA:  26    -0.669867949889E+03    0.97052E-04   -0.14346E-03  8424   0.522E-02-0.103E-02
CGA:  27    -0.669868439761E+03   -0.48987E-03   -0.52592E-03  8424   0.236E-04 0.139E-03
CGA:  28    -0.669868609675E+03   -0.16991E-03    0.55915E-06  8424   0.516E-04 0.398E-05
CGA:  29    -0.669869189980E+03   -0.58031E-03    0.98100E-06  8424   0.478E-04 0.511E-04
CGA:  30    -0.669869361431E+03   -0.17145E-03    0.24329E-05  8424   0.754E-04-0.257E-04
CGA:  31    -0.669869510658E+03   -0.14923E-03    0.88996E-05  8424   0.141E-03-0.659E-04
CGA:  32    -0.669869678029E+03   -0.16737E-03    0.47401E-04  8424   0.399E-03-0.190E-03
CGA:  33    -0.669869759747E+03   -0.81718E-04   -0.63169E-04  8424   0.583E-04-0.834E-04
CGA:  34    -0.669869961422E+03   -0.20167E-03    0.17195E-05  8424   0.719E-04-0.159E-04
CGA:  35    -0.669870343093E+03   -0.38167E-03    0.10840E-05  8424   0.220E-04 0.413E-04
CGA:  36    -0.669870490190E+03   -0.14710E-03    0.50042E-06  8424   0.316E-04 0.546E-05
CGA:  37    -0.669870867186E+03   -0.37700E-03    0.60880E-06  8424   0.274E-04 0.330E-04
CGA:  38    -0.669871013004E+03   -0.14582E-03    0.81296E-06  8424   0.243E-04 0.319E-05
CGA:  39    -0.669871291832E+03   -0.27883E-03    0.38613E-06  8424   0.252E-04 0.255E-04
CGA:  40    -0.669871431155E+03   -0.13932E-03    0.71340E-06  8424   0.190E-04 0.633E-05
CGA:  41    -0.669871681345E+03   -0.25019E-03    0.33011E-06  8424   0.212E-04 0.223E-04
CGA:  42    -0.669871818443E+03   -0.13710E-03    0.50158E-06  8424   0.158E-04 0.933E-05
CGA:  43    -0.669872060202E+03   -0.24176E-03    0.31380E-06  8424   0.186E-04 0.208E-04
CGA:  44    -0.669872190444E+03   -0.13024E-03    0.40301E-06  8424   0.144E-04 0.103E-04
CGA:  45    -0.669872328146E+03   -0.13770E-03    0.22203E-06  8424   0.151E-04 0.110E-04
CGA:  46    -0.669872448736E+03   -0.12059E-03    0.28362E-06  8424   0.201E-04 0.827E-05
CGA:  47    -0.669872592228E+03   -0.14349E-03    0.42445E-06  8424   0.387E-04-0.159E-05
CGA:  48    -0.669872971786E+03   -0.37956E-03    0.48745E-06  8424   0.421E-04 0.347E-04
CGA:  49    -0.669873052093E+03   -0.80307E-04    0.48887E-05  8424   0.133E-03-0.477E-04
CGA:  50    -0.669873189411E+03   -0.13732E-03    0.60754E-04  8424   0.540E-03-0.238E-03
CGA:  51    -0.669873249591E+03   -0.60180E-04   -0.63228E-04  8424   0.116E-04 0.129E-04
CGA:  52    -0.669873364735E+03   -0.11514E-03    0.16715E-06  8424   0.141E-04 0.108E-04
CGA:  53    -0.669873488942E+03   -0.12421E-03    0.22176E-06  8424   0.242E-04 0.536E-05
CGA:  54    -0.669873799605E+03   -0.31066E-03    0.49400E-06  8424   0.123E-04 0.308E-04
CGA:  55    -0.669873902287E+03   -0.10268E-03    0.20247E-06  8424   0.163E-04 0.812E-05
CGA:  56    -0.669874025656E+03   -0.12337E-03    0.30039E-06  8424   0.368E-04-0.122E-05
CGA:  57    -0.669874384353E+03   -0.35870E-03    0.43823E-06  8424   0.419E-04 0.323E-04
CGA:  58    -0.669874438826E+03   -0.54473E-04    0.90459E-05  8424   0.151E-03-0.554E-04
CGA:  59    -0.669874563140E+03   -0.12431E-03    0.17632E-03  8424   0.713E-03-0.302E-03
CGA:  60    -0.669874618365E+03   -0.55225E-04   -0.71434E-04  8424   0.151E-04 0.642E-04
CGA:  61    -0.669874696084E+03   -0.77719E-04    0.48309E-06  8424   0.458E-04-0.621E-05
CGA:  62    -0.669875066582E+03   -0.37050E-03    0.24452E-06  8424   0.173E-03 0.496E-05
CGA:  63    -0.669876717776E+03   -0.16512E-02    0.28519E-05  8424   0.157E-03 0.964E-04
CGA:  64    -0.669876708429E+03    0.93477E-05   -0.95230E-04  8424   0.112E-02-0.396E-03
CGA:  65    -0.669876922242E+03   -0.21381E-03   -0.19285E-03  8424   0.869E-04-0.114E-03
CGA:  66    -0.669876807820E+03    0.11442E-03   -0.65005E-04  8424   0.223E-02-0.369E-03
CGA:  67    -0.669877149255E+03   -0.34143E-03   -0.28788E-03  8424   0.705E-04-0.225E-03
CGA:  68    -0.669875761054E+03    0.13882E-02   -0.75931E-03  8424   0.135E-01-0.789E-03
CGA:  69    -0.669877635261E+03   -0.18742E-02   -0.17068E-02  8424   0.484E-03-0.425E-03
CGA:  70    -0.669877725576E+03   -0.90316E-04   -0.87915E-04  8424   0.269E-04-0.538E-05
CGA:  71    -0.669877855954E+03   -0.13038E-03    0.26524E-05  8424   0.788E-04-0.252E-04
CGA:  72    -0.669877887253E+03   -0.31299E-04   -0.18343E-04  8424   0.535E-04-0.346E-04
CGA:  73    -0.669878088324E+03   -0.20107E-03    0.18822E-05  8424   0.950E-04-0.323E-04
CGA:  74    -0.669878129858E+03   -0.41534E-04   -0.28882E-04  8424   0.787E-04-0.445E-04
CGA:  75    -0.669878319765E+03   -0.18991E-03    0.40633E-05  8424   0.274E-03-0.952E-04
CGA:  76    -0.669878362495E+03   -0.42730E-04   -0.44462E-04  8424   0.522E-04 0.443E-05
CGA:  77    -0.669878493160E+03   -0.13066E-03    0.11992E-04  8424   0.126E-03-0.642E-04
CGA:  78    -0.669878524112E+03   -0.30952E-04   -0.25205E-04  8424   0.407E-04-0.162E-04
CGA:  79    -0.669878660331E+03   -0.13622E-03    0.36884E-05  8424   0.118E-03-0.456E-04
CGA:  80    -0.669878683076E+03   -0.22744E-04   -0.19504E-04  8424   0.258E-04-0.869E-05
CGA:  81    -0.669878805515E+03   -0.12244E-03    0.15608E-05  8424   0.458E-04-0.166E-04
CGA:  82    -0.669878826377E+03   -0.20862E-04   -0.26253E-04  8424   0.346E-03-0.959E-04
CGA:  83    -0.669878939725E+03   -0.11335E-03   -0.61793E-04  8424   0.992E-04-0.152E-03
CGA:  84    -0.669879002541E+03   -0.62815E-04    0.11560E-03  8424   0.160E-03-0.595E-04
CGA:  85    -0.669879088561E+03   -0.86020E-04   -0.44738E-04  8424   0.277E-03-0.185E-03
CGA:  86    -0.669879108661E+03   -0.20100E-04   -0.29285E-04  8424   0.775E-05 0.241E-04
CGA:  87    -0.669879174089E+03   -0.65427E-04    0.27564E-06  8424   0.322E-04-0.253E-05
CGA:  88    -0.669879555041E+03   -0.38095E-03    0.29060E-06  8424   0.152E-03-0.114E-05
CGA:  89    -0.669881559943E+03   -0.20049E-02    0.25609E-05  8424   0.416E-03-0.578E-06
CGA:  90    -0.669887484181E+03   -0.59242E-02    0.69277E-05  8424   0.635E-03 0.239E-04
CGA:  91    -0.669896698289E+03   -0.92141E-02    0.11720E-04  8424   0.268E-02-0.170E-02
CGA:  92    -0.669897096662E+03   -0.39837E-03   -0.37065E-03  8424   0.152E-03-0.913E-04
CGA:  93    -0.669897075342E+03    0.21320E-04   -0.12910E-04  8424   0.630E-04 0.930E-04
CGA:  94    -0.669897058371E+03    0.16971E-04   -0.32794E-05  8424   0.441E-04 0.525E-04
CGA:  95    -0.669897044854E+03    0.13517E-04   -0.17984E-05  8424   0.368E-04 0.405E-04
CGA:  96    -0.669897033335E+03    0.11519E-04   -0.12705E-05  8424   0.328E-04 0.350E-04
CGA:  97    -0.669897023174E+03    0.10161E-04   -0.99587E-06  8424   0.303E-04 0.318E-04
CGA:  98    -0.669897014031E+03    0.91430E-05   -0.82439E-06  8424   0.285E-04 0.296E-04
   5 F= -.66989701E+03 E0= -.66989701E+03  d E =-.270551E-01  mag=     2.0000
       N       E                     dE             d eps       ncg     rms          ort
SDA:   1    -0.666595648679E+03    0.33014E+01    0.00000E+00  8424   0.839E+01 0.000E+00
CGA:   2    -0.668846373361E+03   -0.22507E+01   -0.22508E+01  8424   0.448E+01-0.550E-03
CGA:   3    -0.669678220550E+03   -0.83185E+00   -0.83206E+00  8424   0.998E+00 0.141E-02
CGA:   4    -0.669836790169E+03   -0.15857E+00   -0.15860E+00  8424   0.231E+00-0.600E-04
CGA:   5    -0.669876858581E+03   -0.40068E-01   -0.40075E-01  8424   0.494E-01-0.789E-05
CGA:   6    -0.669886894361E+03   -0.10036E-01   -0.10056E-01  8424   0.116E-01 0.190E-03
CGA:   7    -0.669889426593E+03   -0.25322E-02   -0.25482E-02  8424   0.327E-02 0.195E-03
CGA:   8    -0.669890176611E+03   -0.75002E-03   -0.77031E-03  8424   0.986E-03 0.312E-03
CGA:   9    -0.669890420183E+03   -0.24357E-03   -0.25655E-03  8424   0.336E-03 0.233E-03
CGA:  10    -0.669890479331E+03   -0.59148E-04   -0.79012E-04  8424   0.151E-03 0.198E-03
CGA:  11    -0.669890484840E+03   -0.55085E-05   -0.21106E-04  8424   0.861E-04 0.107E-03
   6 F= -.66989048E+03 E0= -.66989048E+03  d E =0.652919E-02  mag=     2.0000
       N       E                     dE             d eps       ncg     rms          ort
SDA:   1    -0.668601770270E+03    0.12887E+01    0.00000E+00  8424   0.376E+01 0.000E+00
CGA:   2    -0.669421786140E+03   -0.82002E+00   -0.82025E+00  8424   0.173E+01 0.265E-02
CGA:   3    -0.669780666552E+03   -0.35888E+00   -0.35877E+00  8424   0.529E+00-0.153E-02
CGA:   4    -0.669864535785E+03   -0.83869E-01   -0.83908E-01  8424   0.122E+00 0.243E-03
CGA:   5    -0.669885391768E+03   -0.20856E-01   -0.20891E-01  8424   0.253E-01 0.371E-03
CGA:   6    -0.669890393329E+03   -0.50016E-02   -0.50031E-02  8424   0.594E-02 0.234E-04
CGA:   7    -0.669891645171E+03   -0.12518E-02   -0.12618E-02  8424   0.167E-02 0.255E-03
CGA:   8    -0.669892046375E+03   -0.40120E-03   -0.40353E-03  8424   0.484E-03 0.127E-03
CGA:   9    -0.669892159524E+03   -0.11315E-03   -0.11626E-03  8424   0.159E-03 0.123E-03
CGA:  10    -0.669892184471E+03   -0.24947E-04   -0.33460E-04  8424   0.821E-04 0.108E-03
CGA:  11    -0.669892190538E+03   -0.60672E-05   -0.11970E-04  8424   0.516E-04 0.605E-04
   7 F= -.66989219E+03 E0= -.66989219E+03  d E =-.170570E-02  mag=     2.0000
       N       E                     dE             d eps       ncg     rms          ort
SDA:   1    -0.669168550238E+03    0.72363E+00    0.00000E+00  8424   0.217E+01 0.000E+00
CGA:   2    -0.669633298762E+03   -0.46475E+00   -0.46479E+00  8424   0.947E+00 0.173E-02
CGA:   3    -0.669830831494E+03   -0.19753E+00   -0.19753E+00  8424   0.292E+00-0.122E-03
CGA:   4    -0.669877758523E+03   -0.46927E-01   -0.46950E-01  8424   0.692E-01 0.271E-03
CGA:   5    -0.669889768503E+03   -0.12010E-01   -0.12023E-01  8424   0.146E-01 0.240E-03
CGA:   6    -0.669892625281E+03   -0.28568E-02   -0.28585E-02  8424   0.336E-02 0.568E-04
CGA:   7    -0.669893341721E+03   -0.71644E-03   -0.71862E-03  8424   0.962E-03 0.239E-03
CGA:   8    -0.669893552128E+03   -0.21041E-03   -0.21342E-03  8424   0.286E-03 0.206E-03
CGA:   9    -0.669893607638E+03   -0.55510E-04   -0.62078E-04  8424   0.123E-03 0.155E-03
CGA:  10    -0.669893617548E+03   -0.99092E-05   -0.17043E-04  8424   0.769E-04 0.886E-04
   8 F= -.66989362E+03 E0= -.66989362E+03  d E =-.142701E-02  mag=     2.0000
       N       E                     dE             d eps       ncg     rms          ort
SDA:   1    -0.669334328253E+03    0.55928E+00    0.00000E+00  8424   0.180E+01 0.000E+00
CGA:   2    -0.669691428006E+03   -0.35710E+00   -0.35714E+00  8424   0.705E+00 0.244E-02
CGA:   3    -0.669841325393E+03   -0.14990E+00   -0.14990E+00  8424   0.244E+00-0.126E-02
CGA:   4    -0.669881100280E+03   -0.39775E-01   -0.39783E-01  8424   0.606E-01 0.119E-03
CGA:   5    -0.669891693906E+03   -0.10594E-01   -0.10605E-01  8424   0.132E-01 0.342E-03
CGA:   6    -0.669894208913E+03   -0.25150E-02   -0.25168E-02  8424   0.287E-02 0.119E-03
CGA:   7    -0.669894796464E+03   -0.58755E-03   -0.58799E-03  8424   0.809E-03 0.295E-03
CGA:   8    -0.669894983472E+03   -0.18701E-03   -0.18627E-03  8424   0.236E-03 0.179E-03
CGA:   9    -0.669895027039E+03   -0.43567E-04   -0.48477E-04  8424   0.973E-04 0.133E-03
CGA:  10    -0.669895031307E+03   -0.42684E-05   -0.10987E-04  8424   0.634E-04 0.745E-04
   9 F= -.66989503E+03 E0= -.66989503E+03  d E =-.141376E-02  mag=     2.0000
       N       E                     dE             d eps       ncg     rms          ort
SDA:   1    -0.669273203947E+03    0.62182E+00    0.00000E+00  8424   0.201E+01 0.000E+00
CGA:   2    -0.669668378938E+03   -0.39517E+00   -0.39516E+00  8424   0.777E+00 0.344E-02
CGA:   3    -0.669834252494E+03   -0.16587E+00   -0.16588E+00  8424   0.276E+00-0.491E-03
CGA:   4    -0.669879126719E+03   -0.44874E-01   -0.44895E-01  8424   0.679E-01 0.598E-03
CGA:   5    -0.669890951986E+03   -0.11825E-01   -0.11835E-01  8424   0.147E-01 0.482E-03
CGA:   6    -0.669893799330E+03   -0.28473E-02   -0.28473E-02  8424   0.325E-02 0.402E-05
CGA:   7    -0.669894460274E+03   -0.66094E-03   -0.65749E-03  8424   0.901E-03 0.329E-03
CGA:   8    -0.669894654086E+03   -0.19381E-03   -0.19323E-03  8424   0.256E-03 0.245E-03
CGA:   9    -0.669894699256E+03   -0.45170E-04   -0.50940E-04  8424   0.111E-03 0.160E-03
CGA:  10    -0.669894704482E+03   -0.52259E-05   -0.12168E-04  8424   0.733E-04 0.857E-04
  10 F= -.66989470E+03 E0= -.66989470E+03  d E =0.326825E-03  mag=     2.0000
       N       E                     dE             d eps       ncg     rms          ort
SDA:   1    -0.669025666697E+03    0.86903E+00    0.00000E+00  8424   0.277E+01 0.000E+00
CGA:   2    -0.669578596111E+03   -0.55293E+00   -0.55283E+00  8424   0.109E+01 0.453E-02
CGA:   3    -0.669811647267E+03   -0.23305E+00   -0.23312E+00  8424   0.374E+00-0.236E-02
CGA:   4    -0.669872225117E+03   -0.60578E-01   -0.60584E-01  8424   0.913E-01 0.225E-03
CGA:   5    -0.669888133208E+03   -0.15908E-01   -0.15913E-01  8424   0.199E-01 0.580E-03
CGA:   6    -0.669891962319E+03   -0.38291E-02   -0.38278E-02  8424   0.435E-02 0.153E-03
CGA:   7    -0.669892865277E+03   -0.90296E-03   -0.89392E-03  8424   0.120E-02 0.430E-03
CGA:   8    -0.669893142044E+03   -0.27677E-03   -0.27128E-03  8424   0.331E-03 0.254E-03
CGA:   9    -0.669893203829E+03   -0.61785E-04   -0.65653E-04  8424   0.125E-03 0.181E-03
CGA:  10    -0.669893208897E+03   -0.50677E-05   -0.12885E-04  8424   0.799E-04 0.960E-04
  11 F= -.66989321E+03 E0= -.66989321E+03  d E =0.149559E-02  mag=     2.0000
       N       E                     dE             d eps       ncg     rms          ort
SDA:   1    -0.668669260432E+03    0.12239E+01    0.00000E+00  8424   0.395E+01 0.000E+00
CGA:   2    -0.669443172686E+03   -0.77391E+00   -0.77368E+00  8424   0.153E+01 0.932E-02
CGA:   3    -0.669770244020E+03   -0.32707E+00   -0.32716E+00  8424   0.543E+00-0.226E-02
CGA:   4    -0.669858745788E+03   -0.88502E-01   -0.88521E-01  8424   0.133E+00 0.112E-02
CGA:   5    -0.669881868863E+03   -0.23123E-01   -0.23127E-01  8424   0.290E-01 0.875E-03
CGA:   6    -0.669887486161E+03   -0.56173E-02   -0.56204E-02  8424   0.644E-02-0.199E-03
CGA:   7    -0.669888808505E+03   -0.13223E-02   -0.13090E-02  8424   0.176E-02 0.496E-03
CGA:   8    -0.669889220661E+03   -0.41216E-03   -0.40255E-03  8424   0.468E-03 0.292E-03
CGA:   9    -0.669889328598E+03   -0.10794E-03   -0.10561E-03  8424   0.152E-03 0.184E-03
CGA:  10    -0.669889344185E+03   -0.15588E-04   -0.24567E-04  8424   0.849E-04 0.137E-03
CGA:  11    -0.669889345297E+03   -0.11115E-05   -0.75661E-05  8424   0.638E-04 0.724E-04
  12 F= -.66988935E+03 E0= -.66988935E+03  d E =0.386360E-02  mag=     2.0000
       N       E                     dE             d eps       ncg     rms          ort
SDA:   1    -0.668944741724E+03    0.94460E+00    0.00000E+00  8424   0.307E+01 0.000E+00
CGA:   2    -0.669553188312E+03   -0.60845E+00   -0.60824E+00  8424   0.120E+01 0.602E-02
CGA:   3    -0.669807884731E+03   -0.25470E+00   -0.25482E+00  8424   0.414E+00-0.302E-02
CGA:   4    -0.669875305035E+03   -0.67420E-01   -0.67425E-01  8424   0.103E+00 0.373E-03
CGA:   5    -0.669893151500E+03   -0.17846E-01   -0.17845E-01  8424   0.223E-01 0.765E-03
CGA:   6    -0.669897433774E+03   -0.42823E-02   -0.42789E-02  8424   0.482E-02 0.174E-03
CGA:   7    -0.669898424471E+03   -0.99070E-03   -0.97613E-03  8424   0.131E-02 0.520E-03
CGA:   8    -0.669898722786E+03   -0.29831E-03   -0.29023E-03  8424   0.355E-03 0.311E-03
CGA:   9    -0.669898785345E+03   -0.62559E-04   -0.67296E-04  8424   0.137E-03 0.210E-03
CGA:  10    -0.669898789203E+03   -0.38577E-05   -0.12661E-04  8424   0.892E-04 0.107E-03
  13 F= -.66989879E+03 E0= -.66989879E+03  d E =-.944391E-02  mag=     2.0000
       N       E                     dE             d eps       ncg     rms          ort
SDA:   1    -0.669063066310E+03    0.83572E+00    0.00000E+00  8424   0.269E+01 0.000E+00
CGA:   2    -0.669592116351E+03   -0.52905E+00   -0.52883E+00  8424   0.104E+01 0.599E-02
CGA:   3    -0.669813470001E+03   -0.22135E+00   -0.22138E+00  8424   0.365E+00-0.633E-03
CGA:   4    -0.669873096318E+03   -0.59626E-01   -0.59632E-01  8424   0.903E-01 0.912E-03
CGA:   5    -0.669888752808E+03   -0.15656E-01   -0.15654E-01  8424   0.194E-01 0.666E-03
CGA:   6    -0.669892509491E+03   -0.37567E-02   -0.37557E-02  8424   0.425E-02 0.372E-04
CGA:   7    -0.669893365595E+03   -0.85610E-03   -0.84275E-03  8424   0.113E-02 0.486E-03
CGA:   8    -0.669893608010E+03   -0.24241E-03   -0.23704E-03  8424   0.310E-03 0.338E-03
CGA:   9    -0.669893656298E+03   -0.48288E-04   -0.55563E-04  8424   0.131E-03 0.211E-03
CGA:  10    -0.669893659173E+03   -0.28754E-05   -0.11571E-04  8424   0.887E-04 0.105E-03
  14 F= -.66989366E+03 E0= -.66989366E+03  d E =0.513003E-02  mag=     2.0000
       N       E                     dE             d eps       ncg     rms          ort
SDA:   1    -0.669252135749E+03    0.64152E+00    0.00000E+00  8424   0.212E+01 0.000E+00
CGA:   2    -0.669665636745E+03   -0.41350E+00   -0.41332E+00  8424   0.811E+00 0.458E-02
CGA:   3    -0.669839559983E+03   -0.17392E+00   -0.17402E+00  8424   0.291E+00-0.201E-02
CGA:   4    -0.669887009169E+03   -0.47449E-01   -0.47451E-01  8424   0.716E-01 0.496E-03
CGA:   5    -0.669899317968E+03   -0.12309E-01   -0.12304E-01  8424   0.152E-01 0.781E-03
CGA:   6    -0.669902241540E+03   -0.29236E-02   -0.29162E-02  8424   0.327E-02 0.314E-03
CGA:   7    -0.669902879696E+03   -0.63816E-03   -0.62685E-03  8424   0.853E-03 0.542E-03
CGA:   8    -0.669903047144E+03   -0.16745E-03   -0.16744E-03  8424   0.257E-03 0.350E-03
CGA:   9    -0.669903074564E+03   -0.27421E-04   -0.39977E-04  8424   0.124E-03 0.217E-03
CGA:  10    -0.669903073160E+03    0.14039E-05   -0.87113E-05  8424   0.922E-04 0.106E-03
  15 F= -.66990307E+03 E0= -.66990307E+03  d E =-.941399E-02  mag=     2.0000
       N       E                     dE             d eps       ncg     rms          ort
SDA:   1    -0.669787555137E+03    0.11552E+00    0.00000E+00  8424   0.300E+00 0.000E+00
CGA:   2    -0.669861658061E+03   -0.74103E-01   -0.74087E-01  8424   0.154E+00 0.146E-03
CGA:   3    -0.669891744143E+03   -0.30086E-01   -0.30060E-01  8424   0.394E-01 0.733E-03
CGA:   4    -0.669897824308E+03   -0.60802E-02   -0.60832E-02  8424   0.890E-02 0.383E-03
CGA:   5    -0.669899339933E+03   -0.15156E-02   -0.15127E-02  8424   0.180E-02 0.411E-03
CGA:   6    -0.669899638025E+03   -0.29809E-03   -0.29930E-03  8424   0.408E-03 0.452E-03
CGA:   7    -0.669899678937E+03   -0.40912E-04   -0.55485E-04  8424   0.172E-03 0.277E-03
CGA:   8    -0.669899680708E+03   -0.17713E-05   -0.13125E-04  8424   0.115E-03 0.137E-03
  16 F= -.66989968E+03 E0= -.66989968E+03  d E =0.339245E-02  mag=     2.0000
       N       E                     dE             d eps       ncg     rms          ort
SDA:   1    -0.667843325929E+03    0.20564E+01    0.00000E+00  8424   0.612E+01 0.000E+00
CGA:   2    -0.669148764661E+03   -0.13054E+01   -0.13045E+01  8424   0.265E+01 0.125E-01
CGA:   3    -0.669699191561E+03   -0.55043E+00   -0.55061E+00  8424   0.824E+00-0.338E-02
CGA:   4    -0.669831039613E+03   -0.13185E+00   -0.13184E+00  8424   0.195E+00 0.162E-02
CGA:   5    -0.669864904933E+03   -0.33865E-01   -0.33844E-01  8424   0.420E-01 0.119E-02
CGA:   6    -0.669873132253E+03   -0.82273E-02   -0.82280E-02  8424   0.954E-02-0.258E-04
CGA:   7    -0.669875142147E+03   -0.20099E-02   -0.19726E-02  8424   0.259E-02 0.771E-03
CGA:   8    -0.669875735216E+03   -0.59307E-03   -0.57081E-03  8424   0.697E-03 0.522E-03
CGA:   9    -0.669875881706E+03   -0.14649E-03   -0.14359E-03  8424   0.252E-03 0.351E-03
CGA:  10    -0.669875900581E+03   -0.18876E-04   -0.28331E-04  8424   0.151E-03 0.184E-03
CGA:  11    -0.669875903265E+03   -0.26831E-05   -0.12864E-04  8424   0.122E-03 0.134E-03
  17 F= -.66987590E+03 E0= -.66987590E+03  d E =0.237774E-01  mag=     2.0000
       N       E                     dE             d eps       ncg     rms          ort
SDA:   1    -0.669152182674E+03    0.72372E+00    0.00000E+00  8424   0.245E+01 0.000E+00
CGA:   2    -0.669630003127E+03   -0.47782E+00   -0.47754E+00  8424   0.939E+00 0.600E-02
CGA:   3    -0.669831110766E+03   -0.20111E+00   -0.20124E+00  8424   0.337E+00-0.239E-02
CGA:   4    -0.669886144440E+03   -0.55034E-01   -0.55029E-01  8424   0.831E-01 0.755E-03
CGA:   5    -0.669900428164E+03   -0.14284E-01   -0.14271E-01  8424   0.176E-01 0.971E-03
CGA:   6    -0.669903817260E+03   -0.33891E-02   -0.33799E-02  8424   0.380E-02 0.297E-03
CGA:   7    -0.669904554711E+03   -0.73745E-03   -0.72056E-03  8424   0.986E-03 0.642E-03
CGA:   8    -0.669904745397E+03   -0.19069E-03   -0.18955E-03  8424   0.302E-03 0.424E-03
CGA:   9    -0.669904777628E+03   -0.32231E-04   -0.46396E-04  8424   0.148E-03 0.261E-03
CGA:  10    -0.669904776324E+03    0.13044E-05   -0.10141E-04  8424   0.110E-03 0.127E-03
  18 F= -.66990478E+03 E0= -.66990478E+03  d E =-.288731E-01  mag=     2.0000
       N       E                     dE             d eps       ncg     rms          ort
SDA:   1    -0.669758066914E+03    0.14671E+00    0.00000E+00  8424   0.425E+00 0.000E+00
CGA:   2    -0.669849458648E+03   -0.91392E-01   -0.91322E-01  8424   0.191E+00 0.101E-02
CGA:   3    -0.669889432942E+03   -0.39974E-01   -0.39967E-01  8424   0.611E-01 0.104E-03
CGA:   4    -0.669899039189E+03   -0.96062E-02   -0.96055E-02  8424   0.140E-01 0.496E-03
CGA:   5    -0.669901404032E+03   -0.23648E-02   -0.23587E-02  8424   0.280E-02 0.522E-03
CGA:   6    -0.669901913141E+03   -0.50911E-03   -0.50214E-03  8424   0.597E-03 0.416E-03
CGA:   7    -0.669901990480E+03   -0.77339E-04   -0.87060E-04  8424   0.215E-03 0.323E-03
CGA:   8    -0.669901997367E+03   -0.68876E-05   -0.18356E-04  8424   0.133E-03 0.163E-03
  19 F= -.66990200E+03 E0= -.66990200E+03  d E =0.277896E-02  mag=     2.0000
       N       E                     dE             d eps       ncg     rms          ort
SDA:   1    -0.667598204423E+03    0.23038E+01    0.00000E+00  8424   0.635E+01 0.000E+00
CGA:   2    -0.669084083214E+03   -0.14859E+01   -0.14850E+01  8424   0.305E+01 0.917E-02
CGA:   3    -0.669695674556E+03   -0.61159E+00   -0.61173E+00  8424   0.835E+00-0.278E-02
CGA:   4    -0.669827503093E+03   -0.13183E+00   -0.13182E+00  8424   0.193E+00 0.119E-02
CGA:   5    -0.669860871426E+03   -0.33368E-01   -0.33350E-01  8424   0.412E-01 0.928E-03
CGA:   6    -0.669869029854E+03   -0.81584E-02   -0.81531E-02  8424   0.959E-02 0.122E-03
CGA:   7    -0.669871076807E+03   -0.20470E-02   -0.20108E-02  8424   0.259E-02 0.700E-03
CGA:   8    -0.669871661948E+03   -0.58514E-03   -0.56206E-03  8424   0.720E-03 0.543E-03
CGA:   9    -0.669871809943E+03   -0.14800E-03   -0.14591E-03  8424   0.278E-03 0.385E-03
CGA:  10    -0.669871832767E+03   -0.22824E-04   -0.32248E-04  8424   0.167E-03 0.203E-03
CGA:  11    -0.669871836197E+03   -0.34301E-05   -0.14449E-04  8424   0.136E-03 0.150E-03
  20 F= -.66987184E+03 E0= -.66987184E+03  d E =0.301612E-01  mag=     2.0000
       N       E                     dE             d eps       ncg     rms          ort
SDA:   1    -0.667726725349E+03    0.21451E+01    0.00000E+00  8424   0.716E+01 0.000E+00
CGA:   2    -0.669097339306E+03   -0.13706E+01   -0.13695E+01  8424   0.269E+01 0.246E-01
CGA:   3    -0.669674245143E+03   -0.57691E+00   -0.57747E+00  8424   0.971E+00-0.915E-02
CGA:   4    -0.669834750487E+03   -0.16051E+00   -0.16049E+00  8424   0.243E+00 0.166E-02
CGA:   5    -0.669876245229E+03   -0.41495E-01   -0.41468E-01  8424   0.520E-01 0.205E-02
CGA:   6    -0.669886267848E+03   -0.10023E-01   -0.10023E-01  8424   0.114E-01-0.889E-05
CGA:   7    -0.669888602372E+03   -0.23345E-02   -0.22907E-02  8424   0.306E-02 0.108E-02
CGA:   8    -0.669889308170E+03   -0.70580E-03   -0.67875E-03  8424   0.804E-03 0.667E-03
CGA:   9    -0.669889470606E+03   -0.16244E-03   -0.16185E-03  8424   0.293E-03 0.423E-03
CGA:  10    -0.669889485179E+03   -0.14573E-04   -0.29034E-04  8424   0.184E-03 0.223E-03
CGA:  11    -0.669889485692E+03   -0.51312E-06   -0.14317E-04  8424   0.151E-03 0.166E-03
  21 F= -.66988949E+03 E0= -.66988949E+03  d E =-.176495E-01  mag=     2.0000
       N       E                     dE             d eps       ncg     rms          ort
SDA:   1    -0.669722863701E+03    0.16662E+00    0.00000E+00  8424   0.582E+00 0.000E+00
CGA:   2    -0.669837386215E+03   -0.11452E+00   -0.11445E+00  8424   0.222E+00 0.150E-02
CGA:   3    -0.669884591837E+03   -0.47206E-01   -0.47161E-01  8424   0.784E-01 0.725E-03
CGA:   4    -0.669897463497E+03   -0.12872E-01   -0.12867E-01  8424   0.195E-01 0.690E-03
CGA:   5    -0.669900818489E+03   -0.33550E-02   -0.33484E-02  8424   0.400E-02 0.525E-03
CGA:   6    -0.669901565604E+03   -0.74712E-03   -0.73919E-03  8424   0.828E-03 0.360E-03
CGA:   7    -0.669901689547E+03   -0.12394E-03   -0.12954E-03  8424   0.264E-03 0.360E-03
CGA:   8    -0.669901705184E+03   -0.15637E-04   -0.33113E-04  8424   0.143E-03 0.247E-03
CGA:   9    -0.669901702719E+03    0.24650E-05   -0.89544E-05  8424   0.109E-03 0.124E-03
  22 F= -.66990170E+03 E0= -.66990170E+03  d E =-.122170E-01  mag=     2.0000
       N       E                     dE             d eps       ncg     rms          ort
SDA:   1    -0.669833042507E+03    0.68663E-01    0.00000E+00  8424   0.209E+00 0.000E+00
CGA:   2    -0.669877967791E+03   -0.44925E-01   -0.44863E-01  8424   0.893E-01 0.873E-03
CGA:   3    -0.669896385443E+03   -0.18418E-01   -0.18384E-01  8424   0.273E-01 0.583E-03
CGA:   4    -0.669900859166E+03   -0.44737E-02   -0.44687E-02  8424   0.680E-02 0.437E-03
CGA:   5    -0.669902018835E+03   -0.11597E-02   -0.11543E-02  8424   0.135E-02 0.358E-03
CGA:   6    -0.669902253295E+03   -0.23446E-03   -0.23149E-03  8424   0.285E-03 0.278E-03
CGA:   7    -0.669902278850E+03   -0.25555E-04   -0.35589E-04  8424   0.131E-03 0.201E-03
CGA:   8    -0.669902278552E+03    0.29759E-06   -0.87990E-05  8424   0.929E-04 0.109E-03
  23 F= -.66990228E+03 E0= -.66990228E+03  d E =-.575833E-03  mag=     2.0000
       N       E                     dE             d eps       ncg     rms          ort
SDA:   1    -0.669525212535E+03    0.37707E+00    0.00000E+00  8424   0.954E+00 0.000E+00
CGA:   2    -0.669783855980E+03   -0.25864E+00   -0.25851E+00  8424   0.488E+00 0.958E-03
CGA:   3    -0.669873675002E+03   -0.89819E-01   -0.89817E-01  8424   0.113E+00 0.141E-05
CGA:   4    -0.669892079984E+03   -0.18405E-01   -0.18403E-01  8424   0.273E-01 0.144E-03
CGA:   5    -0.669896777938E+03   -0.46980E-02   -0.46943E-02  8424   0.563E-02 0.171E-03
CGA:   6    -0.669897902314E+03   -0.11244E-02   -0.11181E-02  8424   0.131E-02 0.136E-03
CGA:   7    -0.669898166324E+03   -0.26401E-03   -0.25507E-03  8424   0.355E-03 0.247E-03
CGA:   8    -0.669898227452E+03   -0.61129E-04   -0.62623E-04  8424   0.142E-03 0.200E-03
CGA:   9    -0.669898238637E+03   -0.11185E-04   -0.15808E-04  8424   0.857E-04 0.104E-03
CGA:  10    -0.669898239806E+03   -0.11694E-05   -0.68233E-05  8424   0.702E-04 0.767E-04
  24 F= -.66989824E+03 E0= -.66989824E+03  d E =0.403875E-02  mag=     2.0000
       N       E                     dE             d eps       ncg     rms          ort
SDA:   1    -0.667821950450E+03    0.20763E+01    0.00000E+00  8424   0.638E+01 0.000E+00
CGA:   2    -0.669125760566E+03   -0.13038E+01   -0.13028E+01  8424   0.261E+01 0.148E-01
CGA:   3    -0.669677495174E+03   -0.55173E+00   -0.55213E+00  8424   0.858E+00-0.639E-02
CGA:   4    -0.669817081936E+03   -0.13959E+00   -0.13958E+00  8424   0.210E+00 0.735E-03
CGA:   5    -0.669853346000E+03   -0.36264E-01   -0.36235E-01  8424   0.440E-01 0.140E-02
CGA:   6    -0.669861942208E+03   -0.85962E-02   -0.85911E-02  8424   0.985E-02 0.119E-03
CGA:   7    -0.669864034881E+03   -0.20927E-02   -0.20508E-02  8424   0.271E-02 0.798E-03
CGA:   8    -0.669864675313E+03   -0.64043E-03   -0.61476E-03  8424   0.732E-03 0.491E-03
CGA:   9    -0.669864835940E+03   -0.16063E-03   -0.15444E-03  8424   0.253E-03 0.340E-03
CGA:  10    -0.669864862176E+03   -0.26235E-04   -0.39641E-04  8424   0.146E-03 0.246E-03
CGA:  11    -0.669864863209E+03   -0.10335E-05   -0.11323E-04  8424   0.113E-03 0.127E-03
  25 F= -.66986486E+03 E0= -.66986486E+03  d E =0.333766E-01  mag=     2.0000
       N       E                     dE             d eps       ncg     rms          ort
SDA:   1    -0.669461228616E+03    0.40363E+00    0.00000E+00  8424   0.141E+01 0.000E+00
CGA:   2    -0.669740326777E+03   -0.27910E+00   -0.27892E+00  8424   0.548E+00 0.340E-02
CGA:   3    -0.669857045470E+03   -0.11672E+00   -0.11671E+00  8424   0.192E+00 0.116E-03
CGA:   4    -0.669888468614E+03   -0.31423E-01   -0.31418E-01  8424   0.476E-01 0.650E-03
CGA:   5    -0.669896703121E+03   -0.82345E-02   -0.82279E-02  8424   0.984E-02 0.400E-03
CGA:   6    -0.669898624750E+03   -0.19216E-02   -0.19199E-02  8424   0.219E-02 0.444E-04
CGA:   7    -0.669899054335E+03   -0.42958E-03   -0.41882E-03  8424   0.572E-03 0.336E-03
CGA:   8    -0.669899163788E+03   -0.10945E-03   -0.10842E-03  8424   0.175E-03 0.244E-03
CGA:   9    -0.669899183621E+03   -0.19833E-04   -0.27376E-04  8424   0.865E-04 0.150E-03
CGA:  10    -0.669899184112E+03   -0.49116E-06   -0.65394E-05  8424   0.640E-04 0.735E-04
  26 F= -.66989918E+03 E0= -.66989918E+03  d E =-.343209E-01  mag=     2.0000
       N       E                     dE             d eps       ncg     rms          ort
SDA:   1    -0.669621792593E+03    0.27739E+00    0.00000E+00  8424   0.853E+00 0.000E+00
CGA:   2    -0.669802704752E+03   -0.18091E+00   -0.18078E+00  8424   0.366E+00 0.196E-02
CGA:   3    -0.669878754078E+03   -0.76049E-01   -0.76041E-01  8424   0.118E+00 0.876E-04
CGA:   4    -0.669897638128E+03   -0.18884E-01   -0.18882E-01  8424   0.283E-01 0.409E-03
CGA:   5    -0.669902533523E+03   -0.48954E-02   -0.48908E-02  8424   0.590E-02 0.262E-03
CGA:   6    -0.669903689668E+03   -0.11561E-02   -0.11538E-02  8424   0.133E-02 0.612E-04
CGA:   7    -0.669903953915E+03   -0.26425E-03   -0.25738E-03  8424   0.350E-03 0.206E-03
CGA:   8    -0.669904022489E+03   -0.68575E-04   -0.67475E-04  8424   0.107E-03 0.145E-03
CGA:   9    -0.669904035555E+03   -0.13066E-04   -0.17266E-04  8424   0.535E-04 0.904E-04
CGA:  10    -0.669904036258E+03   -0.70213E-06   -0.42390E-05  8424   0.392E-04 0.451E-04
  27 F= -.66990404E+03 E0= -.66990404E+03  d E =-.485215E-02  mag=     2.0000
       N       E                     dE             d eps       ncg     rms          ort
SDA:   1    -0.668427454759E+03    0.14766E+01    0.00000E+00  8424   0.418E+01 0.000E+00
CGA:   2    -0.669354600532E+03   -0.92715E+00   -0.92642E+00  8424   0.191E+01 0.894E-02
CGA:   3    -0.669744612868E+03   -0.39001E+00   -0.39015E+00  8424   0.574E+00-0.268E-02
CGA:   4    -0.669835780698E+03   -0.91168E-01   -0.91164E-01  8424   0.134E+00 0.815E-03
CGA:   5    -0.669858931661E+03   -0.23151E-01   -0.23141E-01  8424   0.284E-01 0.587E-03
CGA:   6    -0.669864544168E+03   -0.56125E-02   -0.56209E-02  8424   0.668E-02-0.211E-03
CGA:   7    -0.669865958230E+03   -0.14141E-02   -0.13969E-02  8424   0.185E-02 0.326E-03
CGA:   8    -0.669866417992E+03   -0.45976E-03   -0.45181E-03  8424   0.530E-03 0.111E-03
CGA:   9    -0.669866560675E+03   -0.14268E-03   -0.13655E-03  8424   0.166E-03 0.780E-04
CGA:  10    -0.669866599113E+03   -0.38438E-04   -0.36517E-04  8424   0.687E-04 0.836E-04
CGA:  11    -0.669866610081E+03   -0.10968E-04   -0.11231E-04  8424   0.347E-04 0.432E-04
CGA:  12    -0.669866611167E+03   -0.10869E-05   -0.33544E-05  8424   0.284E-04 0.312E-04
  28 F= -.66986661E+03 E0= -.66986661E+03  d E =0.374251E-01  mag=     2.0000
       N       E                     dE             d eps       ncg     rms          ort
SDA:   1    -0.669350964985E+03    0.51565E+00    0.00000E+00  8424   0.171E+01 0.000E+00
CGA:   2    -0.669702065409E+03   -0.35110E+00   -0.35095E+00  8424   0.701E+00 0.298E-02
CGA:   3    -0.669849456547E+03   -0.14739E+00   -0.14748E+00  8424   0.235E+00-0.206E-02
CGA:   4    -0.669887418238E+03   -0.37962E-01   -0.37962E-01  8424   0.574E-01 0.163E-03
CGA:   5    -0.669897300139E+03   -0.98819E-02   -0.98798E-02  8424   0.120E-01 0.328E-03
CGA:   6    -0.669899657442E+03   -0.23573E-02   -0.23606E-02  8424   0.273E-02-0.116E-03
CGA:   7    -0.669900224334E+03   -0.56689E-03   -0.55961E-03  8424   0.750E-03 0.185E-03
CGA:   8    -0.669900411760E+03   -0.18743E-03   -0.18374E-03  8424   0.209E-03 0.616E-04
CGA:   9    -0.669900462399E+03   -0.50639E-04   -0.48407E-04  8424   0.613E-04 0.538E-04
CGA:  10    -0.669900469230E+03   -0.68315E-05   -0.94103E-05  8424   0.325E-04 0.490E-04
  29 F= -.66990047E+03 E0= -.66990047E+03  d E =-.338581E-01  mag=     2.0000
       N       E                     dE             d eps       ncg     rms          ort
SDA:   1    -0.669796836800E+03    0.10363E+00    0.00000E+00  8424   0.325E+00 0.000E+00
CGA:   2    -0.669865498095E+03   -0.68661E-01   -0.68646E-01  8424   0.139E+00 0.316E-03
CGA:   3    -0.669894791094E+03   -0.29293E-01   -0.29304E-01  8424   0.444E-01-0.305E-03
CGA:   4    -0.669901938390E+03   -0.71473E-02   -0.71477E-02  8424   0.106E-01 0.326E-04
CGA:   5    -0.669903746623E+03   -0.18082E-02   -0.18084E-02  8424   0.216E-02 0.150E-03
CGA:   6    -0.669904153566E+03   -0.40694E-03   -0.40508E-03  8424   0.459E-03 0.141E-03
CGA:   7    -0.669904240306E+03   -0.86741E-04   -0.86260E-04  8424   0.126E-03 0.125E-03
CGA:   8    -0.669904257314E+03   -0.17008E-04   -0.20597E-04  8424   0.516E-04 0.822E-04
CGA:   9    -0.669904258531E+03   -0.12167E-05   -0.45446E-05  8424   0.337E-04 0.404E-04
  30 F= -.66990426E+03 E0= -.66990426E+03  d E =-.378930E-02  mag=     2.0000
       N       E                     dE             d eps       ncg     rms          ort
SDA:   1    -0.669304190193E+03    0.60007E+00    0.00000E+00  8424   0.150E+01 0.000E+00
CGA:   2    -0.669715209295E+03   -0.41102E+00   -0.41106E+00  8424   0.814E+00-0.496E-03
CGA:   3    -0.669865012236E+03   -0.14980E+00   -0.14980E+00  8424   0.177E+00 0.191E-03
CGA:   4    -0.669893103716E+03   -0.28091E-01   -0.28090E-01  8424   0.413E-01-0.131E-03
CGA:   5    -0.669900250722E+03   -0.71470E-02   -0.71460E-02  8424   0.877E-02 0.151E-03
CGA:   6    -0.669901988375E+03   -0.17377E-02   -0.17271E-02  8424   0.196E-02 0.366E-03
CGA:   7    -0.669902417810E+03   -0.42944E-03   -0.42256E-03  8424   0.527E-03 0.180E-03
CGA:   8    -0.669902525276E+03   -0.10747E-03   -0.10528E-03  8424   0.163E-03 0.181E-03
CGA:   9    -0.669902544544E+03   -0.19268E-04   -0.26080E-04  8424   0.822E-04 0.131E-03
CGA:  10    -0.669902546513E+03   -0.19692E-05   -0.73378E-05  8424   0.576E-04 0.674E-04
  31 F= -.66990255E+03 E0= -.66990255E+03  d E =0.171202E-02  mag=     2.0000
       N       E                     dE             d eps       ncg     rms          ort
SDA:   1    -0.663211134926E+03    0.66914E+01    0.00000E+00  8424   0.178E+02 0.000E+00
CGA:   2    -0.667608130918E+03   -0.43970E+01   -0.43936E+01  8424   0.909E+01 0.342E-01
CGA:   3    -0.669374085814E+03   -0.17660E+01   -0.17664E+01  8424   0.232E+01-0.113E-01
CGA:   4    -0.669737549763E+03   -0.36346E+00   -0.36349E+00  8424   0.526E+00 0.184E-02
CGA:   5    -0.669828442147E+03   -0.90892E-01   -0.90883E-01  8424   0.113E+00 0.110E-02
CGA:   6    -0.669851139466E+03   -0.22697E-01   -0.22703E-01  8424   0.273E-01-0.192E-03
CGA:   7    -0.669857012581E+03   -0.58731E-02   -0.58367E-02  8424   0.762E-02 0.782E-03
CGA:   8    -0.669858919034E+03   -0.19065E-02   -0.18894E-02  8424   0.236E-02 0.239E-03
CGA:   9    -0.669859555138E+03   -0.63610E-03   -0.61517E-03  8424   0.767E-03 0.262E-03
CGA:  10    -0.669859784918E+03   -0.22978E-03   -0.21356E-03  8424   0.284E-03 0.221E-03
CGA:  11    -0.669859855261E+03   -0.70342E-04   -0.69003E-04  8424   0.111E-03 0.169E-03
CGA:  12    -0.669859862742E+03   -0.74815E-05   -0.12990E-04  8424   0.699E-04 0.851E-04
  32 F= -.66985986E+03 E0= -.66985986E+03  d E =0.426838E-01  mag=     2.0000
       N       E                     dE             d eps       ncg     rms          ort
SDA:   1    -0.667173675691E+03    0.26862E+01    0.00000E+00  8424   0.870E+01 0.000E+00
CGA:   2    -0.668898830202E+03   -0.17252E+01   -0.17246E+01  8424   0.342E+01 0.186E-01
CGA:   3    -0.669634557333E+03   -0.73573E+00   -0.73604E+00  8424   0.117E+01-0.773E-02
CGA:   4    -0.669826615042E+03   -0.19206E+00   -0.19206E+00  8424   0.289E+00 0.214E-03
CGA:   5    -0.669876216131E+03   -0.49601E-01   -0.49607E-01  8424   0.600E-01 0.115E-02
CGA:   6    -0.669887996734E+03   -0.11781E-01   -0.11786E-01  8424   0.134E-01-0.303E-03
CGA:   7    -0.669890888759E+03   -0.28920E-02   -0.28706E-02  8424   0.378E-02 0.559E-03
CGA:   8    -0.669891813480E+03   -0.92472E-03   -0.91357E-03  8424   0.105E-02 0.210E-03
CGA:   9    -0.669892094488E+03   -0.28101E-03   -0.27329E-03  8424   0.313E-03 0.119E-03
CGA:  10    -0.669892153331E+03   -0.58843E-04   -0.60645E-04  8424   0.129E-03 0.166E-03
CGA:  11    -0.669892169427E+03   -0.16096E-04   -0.19217E-04  8424   0.698E-04 0.870E-04
CGA:  12    -0.669892171361E+03   -0.19344E-05   -0.70230E-05  8424   0.562E-04 0.621E-04
