       N       E                     dE             d eps       ncg     rms          ort
DAV:   1     0.826871821482E+04    0.82687E+04   -0.24653E+05  8424   0.238E+03
DAV:   2     0.919153038229E+03   -0.73496E+04   -0.68979E+04  8424   0.656E+02
DAV:   3    -0.674606148506E+03   -0.15938E+04   -0.14003E+04  8424   0.282E+02
DAV:   4    -0.831172913131E+03   -0.15657E+03   -0.15378E+03  8424   0.858E+01
DAV:   5    -0.833699828638E+03   -0.25269E+01   -0.25153E+01  8424   0.122E+01
SDA:   6    -0.237651706076E+03    0.59605E+03   -0.25153E+01  8424   0.458E+04 0.000E+00
CGA:   7    -0.468887905176E+03   -0.23124E+03   -0.41847E+03  8424   0.556E+04-0.914E+02
CGA:   8    -0.495790719872E+03   -0.26903E+02   -0.25485E+03  8424   0.214E+04-0.230E+04
CGA:   9    -0.592608965850E+03   -0.96818E+02   -0.28858E+02  8424   0.423E+03 0.183E+03
CGA:  10    -0.571033566062E+03    0.21575E+02   -0.23899E+02  8424   0.276E+04-0.579E+03
CGA:  11    -0.608688435197E+03   -0.37655E+02   -0.77805E+02  8424   0.141E+04-0.723E+03
CGA:  12    -0.617668591266E+03   -0.89802E+01   -0.54053E+02  8424   0.155E+04-0.570E+03
CGA:  13    -0.652501814919E+03   -0.34833E+02   -0.32329E+02  8424   0.503E+03 0.435E+02
CGA:  14    -0.630457234745E+03    0.22045E+02   -0.30737E+02  8424   0.287E+03-0.902E+02
CGA:  15    -0.638463403862E+03   -0.80062E+01   -0.37915E+01  8424   0.312E+03 0.298E+03
CGA:  16    -0.648650658219E+03   -0.10187E+02   -0.67749E+01  8424   0.137E+04-0.148E+04
CGA:  17    -0.634040458532E+03    0.14610E+02   -0.81252E+02  8424   0.280E+03-0.129E+03
CGA:  18    -0.647950726631E+03   -0.13910E+02   -0.56362E+01  8424   0.498E+03 0.653E+03
CGA:  19    -0.649981347676E+03   -0.20306E+01   -0.16298E+02  8424   0.121E+04-0.104E+04
CGA:  20    -0.640884407588E+03    0.90969E+01   -0.66540E+02  8424   0.273E+03-0.174E+03
CGA:  21    -0.658230538567E+03   -0.17346E+02   -0.48206E+01  8424   0.363E+03 0.695E+03
CGA:  22    -0.659873925373E+03   -0.16434E+01   -0.10667E+02  8424   0.104E+03-0.113E+03
CGA:  23    -0.664840603424E+03   -0.49667E+01   -0.16973E+01  8424   0.560E+01 0.155E+02
CGA:  24    -0.665013684694E+03   -0.17308E+00   -0.25666E+00  8424   0.290E+02-0.174E+01
CGA:  25    -0.664930732596E+03    0.82952E-01   -0.11557E+01  8424   0.379E+02 0.164E+02
CGA:  26    -0.665981356528E+03   -0.10506E+01   -0.15231E+01  8424   0.230E+02-0.913E+01
CGA:  27    -0.666418463357E+03   -0.43711E+00   -0.32923E+00  8424   0.833E+01-0.130E+01
CGA:  28    -0.666607527560E+03   -0.18906E+00   -0.22087E+00  8424   0.139E+02-0.110E+01
CGA:  29    -0.666782090875E+03   -0.17456E+00   -0.34316E+00  8424   0.220E+02-0.515E+01
CGA:  30    -0.666882665108E+03   -0.10057E+00   -0.23084E+00  8424   0.139E+02-0.149E+02
CGA:  31    -0.667451807696E+03   -0.56914E+00   -0.44662E+00  8424   0.183E+01 0.178E+01
CGA:  32    -0.667619048921E+03   -0.16724E+00   -0.16706E+00  8424   0.376E+01 0.166E+00
CGA:  33    -0.667821334683E+03   -0.20229E+00   -0.16228E+00  8424   0.133E+01 0.769E+00
CGA:  34    -0.667915523574E+03   -0.94189E-01   -0.95599E-01  8424   0.134E+01 0.802E-02
CGA:  35    -0.668002648968E+03   -0.87125E-01   -0.89542E-01  8424   0.135E+01 0.848E-01
CGA:  36    -0.668094069548E+03   -0.91421E-01   -0.91933E-01  8424   0.612E+00 0.171E-01
CGA:  37    -0.668146804083E+03   -0.52735E-01   -0.52789E-01  8424   0.504E+00-0.594E-02
CGA:  38    -0.668206527896E+03   -0.59724E-01   -0.56262E-01  8424   0.426E+00 0.679E-01
CGA:  39    -0.668268212917E+03   -0.61685E-01   -0.57074E-01  8424   0.169E+00 0.861E-01
CGA:  40    -0.668315578577E+03   -0.47366E-01   -0.46249E-01  8424   0.183E+00 0.842E-02
CGA:  41    -0.668360071264E+03   -0.44493E-01   -0.47874E-01  8424   0.211E+00-0.219E-01
CGA:  42    -0.668394051707E+03   -0.33980E-01   -0.43052E-01  8424   0.209E+00-0.724E-01
CGA:  43    -0.668414088700E+03   -0.20037E-01   -0.24094E-01  8424   0.175E+00-0.558E-01
CGA:  44    -0.668428027544E+03   -0.13939E-01   -0.44148E-01  8424   0.342E+00-0.122E+00
CGA:  45    -0.668478098681E+03   -0.50071E-01   -0.50127E-01  8424   0.194E+00-0.234E-02
CGA:  46    -0.668542991625E+03   -0.64893E-01   -0.73811E-01  8424   0.285E+00-0.275E-01
CGA:  47    -0.668582132389E+03   -0.39141E-01   -0.41094E-01  8424   0.118E+00-0.424E-01
CGA:  48    -0.668600240483E+03   -0.18108E-01   -0.18548E-01  8424   0.439E-01-0.101E-01
CGA:  49    -0.668609084656E+03   -0.88442E-02   -0.97962E-02  8424   0.293E-01-0.871E-02
CGA:  50    -0.668615420424E+03   -0.63358E-02   -0.10791E-01  8424   0.600E-01-0.140E-01
CGA:  51    -0.668619750528E+03   -0.43301E-02   -0.40776E-02  8424   0.275E-01-0.100E-01
CGA:  52    -0.668624204160E+03   -0.44536E-02   -0.51117E-02  8424   0.428E-01-0.103E-01
CGA:  53    -0.668628888380E+03   -0.46842E-02   -0.51368E-02  8424   0.408E-01-0.144E-01
CGA:  54    -0.668633749233E+03   -0.48609E-02   -0.58954E-02  8424   0.617E-01-0.188E-01
CGA:  55    -0.668638804265E+03   -0.50550E-02   -0.78572E-02  8424   0.855E-01-0.413E-01
CGA:  56    -0.668651460175E+03   -0.12656E-01   -0.12671E-01  8424   0.166E-01 0.801E-03
CGA:  57    -0.668656485519E+03   -0.50253E-02   -0.50345E-02  8424   0.128E-01-0.126E-03
CGA:  58    -0.668658637889E+03   -0.21524E-02   -0.21524E-02  8424   0.579E-02 0.376E-04
CGA:  59    -0.668657558086E+03    0.10798E-02   -0.45617E-02  8424   0.700E-01-0.931E-02
CGA:  60    -0.668663787017E+03   -0.62289E-02   -0.64556E-02  8424   0.856E-02 0.337E-02
CGA:  61    -0.668665662772E+03   -0.18758E-02   -0.18958E-02  8424   0.621E-02-0.162E-02
CGA:  62    -0.668652668593E+03    0.12994E-01   -0.70596E-02  8424   0.149E+00-0.180E-01
CGA:  63    -0.668670360587E+03   -0.17692E-01   -0.18190E-01  8424   0.297E-01-0.561E-02
CGA:  64    -0.668675098480E+03   -0.47379E-02   -0.47478E-02  8424   0.134E-01 0.312E-03
CGA:  65    -0.668678347592E+03   -0.32491E-02   -0.29298E-02  8424   0.771E-02-0.263E-02
CGA:  66    -0.668680692224E+03   -0.23446E-02   -0.26729E-02  8424   0.105E-01-0.349E-02
CGA:  67    -0.668684791292E+03   -0.40991E-02    0.21549E-01  8424   0.209E-01-0.212E-02
CGA:  68    -0.668697051541E+03   -0.12260E-01    0.36631E-01  8424   0.287E-01 0.118E-02
CGA:  69    -0.668724274993E+03   -0.27223E-01    0.16213E-01  8424   0.162E-01 0.194E-01
CGA:  70    -0.668730145210E+03   -0.58702E-02   -0.59702E-02  8424   0.185E-01-0.379E-02
CGA:  71    -0.668734541547E+03   -0.43963E-02   -0.11144E-01  8424   0.733E-01-0.155E-01
CGA:  72    -0.668748718992E+03   -0.14177E-01   -0.13733E-01  8424   0.236E-01-0.244E-02
CGA:  73    -0.668758601126E+03   -0.98821E-02   -0.10727E-01  8424   0.371E-01-0.762E-02
CGA:  74    -0.668766240557E+03   -0.76394E-02   -0.68977E-02  8424   0.553E-01-0.838E-02
CGA:  75    -0.668582501518E+03    0.18374E+00   -0.71143E-01  8424   0.164E+01-0.229E+00
CGA:  76    -0.668849745706E+03   -0.26724E+00   -0.27233E+00  8424   0.275E+00-0.300E-01
CGA:  77    -0.668921835239E+03   -0.72090E-01   -0.71618E-01  8424   0.119E+00-0.162E-02
CGA:  78    -0.668956741001E+03   -0.34906E-01   -0.34209E-01  8424   0.376E-01-0.771E-02
CGA:  79    -0.668965081759E+03   -0.83408E-02   -0.79642E-02  8424   0.102E-01-0.210E-02
CGA:  80    -0.668927252445E+03    0.37829E-01   -0.20497E-01  8424   0.262E+00-0.303E-01
CGA:  81    -0.668986909904E+03   -0.59657E-01   -0.59383E-01  8424   0.336E-01-0.558E-03
CGA:  82    -0.668997297991E+03   -0.10388E-01   -0.98815E-02  8424   0.117E-01-0.138E-02
CGA:  83    -0.669001769532E+03   -0.44715E-02   -0.40713E-02  8424   0.627E-02-0.135E-02
CGA:  84    -0.669005533963E+03   -0.37644E-02   -0.39978E-02  8424   0.893E-02-0.330E-02
CGA:  85    -0.669008340363E+03   -0.28064E-02   -0.25443E-02  8424   0.431E-02-0.718E-03
CGA:  86    -0.669010657026E+03   -0.23167E-02   -0.21321E-02  8424   0.762E-02-0.196E-02
CGA:  87    -0.669005581767E+03    0.50753E-02   -0.58493E-02  8424   0.781E-01-0.144E-01
CGA:  88    -0.669020032570E+03   -0.14451E-01   -0.14308E-01  8424   0.233E-01 0.792E-03
CGA:  89    -0.669029038244E+03   -0.90057E-02   -0.84608E-02  8424   0.970E-02-0.199E-02
CGA:  90    -0.669031908192E+03   -0.28699E-02   -0.25193E-02  8424   0.208E-02-0.101E-02
CGA:  91    -0.669034424263E+03   -0.25161E-02    0.54238E-02  8424   0.267E-02-0.196E-03
CGA:  92    -0.669030116853E+03    0.43074E-02   -0.36377E-02  8424   0.860E-01-0.909E-02
CGA:  93    -0.669043154021E+03   -0.13037E-01   -0.12346E-01  8424   0.814E-02-0.342E-02
CGA:  94    -0.669046215504E+03   -0.30615E-02   -0.28776E-02  8424   0.359E-02-0.705E-03
CGA:  95    -0.669047805869E+03   -0.15904E-02   -0.11702E-02  8424   0.384E-02-0.163E-02
CGA:  96    -0.668969460740E+03    0.78345E-01   -0.42310E-01  8424   0.577E+00-0.266E-01
CGA:  97    -0.669046379309E+03   -0.76919E-01   -0.83117E-01  8424   0.686E-01-0.464E-01
CGA:  98    -0.669064599239E+03   -0.18220E-01   -0.18168E-01  8424   0.260E-01 0.586E-03
CGA:  99    -0.669074101385E+03   -0.95021E-02   -0.88675E-02  8424   0.719E-02-0.119E-02
CGA: 100    -0.669075756520E+03   -0.16551E-02   -0.15045E-02  8424   0.243E-02-0.159E-03
CGA: 101    -0.669077656185E+03   -0.18997E-02   -0.13108E-02  8424   0.361E-02-0.152E-02
CGA: 102    -0.669078352221E+03   -0.69604E-03   -0.62899E-03  8424   0.836E-03-0.800E-04
CGA: 103    -0.669020777499E+03    0.57575E-01   -0.32045E-01  8424   0.426E+00-0.128E-01
CGA: 104    -0.669078894720E+03   -0.58117E-01   -0.52213E-01  8424   0.403E-01 0.569E-01
CGA: 105    -0.669090115652E+03   -0.11221E-01   -0.10920E-01  8424   0.111E-01-0.182E-03
CGA: 106    -0.669092939499E+03   -0.28238E-02   -0.22571E-02  8424   0.408E-02-0.471E-03
CGA: 107    -0.669094286006E+03   -0.13465E-02   -0.99648E-03  8424   0.167E-02-0.275E-03
CGA: 108    -0.669095701665E+03   -0.14157E-02   -0.82751E-03  8424   0.220E-02-0.716E-03
CGA: 109    -0.669097095509E+03   -0.13938E-02   -0.35089E-03  8424   0.213E-02-0.103E-02
CGA: 110    -0.669103022330E+03   -0.59268E-02    0.67214E-03  8424   0.149E-01-0.224E-02
CGA: 111    -0.669105670571E+03   -0.26482E-02   -0.27457E-02  8424   0.343E-02 0.295E-03
CGA: 112    -0.669107544674E+03   -0.18741E-02   -0.13644E-02  8424   0.189E-02-0.635E-03
CGA: 113    -0.669109061683E+03   -0.15170E-02   -0.92960E-03  8424   0.273E-02-0.105E-02
CGA: 114    -0.669109961383E+03   -0.89970E-03   -0.58451E-03  8424   0.954E-03-0.360E-03
CGA: 115    -0.669110868847E+03   -0.90746E-03   -0.52241E-03  8424   0.328E-02-0.835E-03
CGA: 116    -0.669111706954E+03   -0.83811E-03   -0.54116E-03  8424   0.610E-03-0.359E-03
CGA: 117    -0.669111645374E+03    0.61580E-04   -0.81049E-03  8424   0.169E-01-0.189E-02
CGA: 118    -0.669114513207E+03   -0.28678E-02   -0.25065E-02  8424   0.179E-02-0.745E-03
CGA: 119    -0.669115229327E+03   -0.71612E-03   -0.49141E-03  8424   0.635E-03-0.313E-03
CGA: 120    -0.669116764239E+03   -0.15349E-02    0.49370E-03  8424   0.439E-02-0.793E-03
CGA: 121    -0.669117533418E+03   -0.76918E-03   -0.71360E-03  8424   0.778E-03-0.359E-04
CGA: 122    -0.669118258815E+03   -0.72540E-03   -0.70724E-03  8424   0.651E-02-0.155E-02
CGA: 123    -0.669119392443E+03   -0.11336E-02   -0.10788E-02  8424   0.103E-02-0.155E-04
CGA: 124    -0.669120257368E+03   -0.86493E-03   -0.49911E-03  8424   0.210E-02-0.909E-03
CGA: 125    -0.669120713792E+03   -0.45642E-03   -0.36875E-03  8424   0.428E-03-0.117E-03
CGA: 126    -0.669121854378E+03   -0.11406E-02    0.24519E-03  8424   0.350E-02-0.613E-03
CGA: 127    -0.669122462135E+03   -0.60776E-03   -0.54559E-03  8424   0.466E-03-0.669E-04
CGA: 128    -0.669123446632E+03   -0.98450E-03    0.53025E-03  8424   0.346E-02-0.747E-03
CGA: 129    -0.669124092593E+03   -0.64596E-03   -0.58377E-03  8424   0.510E-03-0.824E-04
CGA: 130    -0.669124907876E+03   -0.81528E-03    0.29600E-02  8424   0.435E-02-0.947E-03
CGA: 131    -0.669125625941E+03   -0.71806E-03   -0.67081E-03  8424   0.505E-03-0.454E-04
CGA: 132    -0.669126480016E+03   -0.85407E-03    0.11789E-02  8424   0.332E-02-0.831E-03
CGA: 133    -0.669127120855E+03   -0.64084E-03   -0.57685E-03  8424   0.496E-03-0.100E-03
CGA: 134    -0.669127921405E+03   -0.80055E-03    0.10006E-02  8424   0.371E-02-0.858E-03
CGA: 135    -0.669128542820E+03   -0.62142E-03   -0.57378E-03  8424   0.437E-03-0.620E-04
CGA: 136    -0.669129430712E+03   -0.88789E-03    0.28485E-03  8424   0.225E-02-0.577E-03
CGA: 137    -0.669129933058E+03   -0.50235E-03   -0.42103E-03  8424   0.431E-03-0.158E-03
CGA: 138    -0.669130829942E+03   -0.89688E-03    0.18805E-03  8424   0.261E-02-0.571E-03
CGA: 139    -0.669131291847E+03   -0.46191E-03   -0.40654E-03  8424   0.347E-03-0.966E-04
CGA: 140    -0.669132216746E+03   -0.92490E-03    0.88867E-04  8424   0.133E-02-0.291E-03
CGA: 141    -0.669132603733E+03   -0.38699E-03   -0.28454E-03  8424   0.442E-03-0.243E-03
CGA: 142    -0.669133632379E+03   -0.10286E-02    0.83281E-04  8424   0.187E-02-0.352E-03
CGA: 143    -0.669134000335E+03   -0.36796E-03   -0.30196E-03  8424   0.318E-03-0.139E-03
CGA: 144    -0.669134917374E+03   -0.91704E-03    0.52949E-04  8424   0.101E-02-0.176E-03
CGA: 145    -0.669135251042E+03   -0.33367E-03   -0.22918E-03  8424   0.494E-03-0.288E-03
CGA: 146    -0.669136359584E+03   -0.11085E-02    0.57497E-04  8424   0.135E-02-0.218E-03
CGA: 147    -0.669140429668E+03   -0.40701E-02    0.57753E-04  8424   0.107E-02 0.633E-03
CGA: 148    -0.669143226934E+03   -0.27973E-02    0.79592E-03  8424   0.933E-02-0.205E-02
CGA: 149    -0.669144717265E+03   -0.14903E-02   -0.12374E-02  8424   0.398E-03-0.658E-03
CGA: 150    -0.669145203944E+03   -0.48668E-03    0.51778E-03  8424   0.139E-02-0.395E-03
CGA: 151    -0.669145707838E+03   -0.50389E-03   -0.30429E-03  8424   0.728E-03-0.610E-03
CGA: 152    -0.669146507118E+03   -0.79928E-03    0.12943E-03  8424   0.129E-02-0.302E-03
CGA: 153    -0.669149181939E+03   -0.26748E-02    0.85904E-04  8424   0.217E-03 0.401E-03
CGA: 154    -0.669150231971E+03   -0.10500E-02    0.30740E-04  8424   0.616E-03-0.216E-04
CGA: 155    -0.669153475622E+03   -0.32437E-02    0.32924E-04  8424   0.173E-02-0.551E-04
CGA: 156    -0.669163922697E+03   -0.10447E-01    0.80512E-04  8424   0.573E-02 0.389E-03
CGA: 157    -0.669204785515E+03   -0.40863E-01    0.41855E-03  8424   0.379E-02-0.819E-03
CGA: 158    -0.669233386388E+03   -0.28601E-01    0.11936E-03  8424   0.338E-02-0.374E-02
CGA: 159    -0.669233903116E+03   -0.51673E-03   -0.66534E-03  8424   0.632E-03 0.442E-03
CGA: 160    -0.669233879416E+03    0.23700E-04   -0.11607E-03  8424   0.335E-03 0.393E-03
CGA: 161    -0.669233808403E+03    0.71012E-04   -0.40794E-04  8424   0.277E-03 0.296E-03
CGA: 162    -0.669233739542E+03    0.68861E-04   -0.30001E-04  8424   0.258E-03 0.265E-03
CGA: 163    -0.669233674600E+03    0.64942E-04   -0.25757E-04  8424   0.246E-03 0.251E-03
CGA: 164    -0.669233613196E+03    0.61404E-04   -0.22912E-04  8424   0.237E-03 0.240E-03
CGA: 165    -0.669233555032E+03    0.58163E-04   -0.20751E-04  8424   0.230E-03 0.233E-03
CGA: 166    -0.669233499866E+03    0.55166E-04   -0.19014E-04  8424   0.225E-03 0.227E-03
CGA: 167    -0.669233447486E+03    0.52380E-04   -0.17569E-04  8424   0.220E-03 0.222E-03
CGA: 168    -0.669233397705E+03    0.49781E-04   -0.16334E-04  8424   0.217E-03 0.218E-03
CGA: 169    -0.669233350356E+03    0.47348E-04   -0.15258E-04  8424   0.213E-03 0.215E-03
CGA: 170    -0.669233305292E+03    0.45065E-04   -0.14306E-04  8424   0.211E-03 0.212E-03
CGA: 171    -0.669233262374E+03    0.42917E-04   -0.13453E-04  8424   0.208E-03 0.209E-03
CGA: 172    -0.669233221481E+03    0.40893E-04   -0.12682E-04  8424   0.206E-03 0.207E-03
CGA: 173    -0.669233182498E+03    0.38983E-04   -0.11978E-04  8424   0.204E-03 0.205E-03
CGA: 174    -0.669233145323E+03    0.37175E-04   -0.11331E-04  8424   0.202E-03 0.203E-03
CGA: 175    -0.669233109859E+03    0.35464E-04   -0.10734E-04  8424   0.201E-03 0.201E-03
CGA: 176    -0.669233076018E+03    0.33841E-04   -0.10181E-04  8424   0.199E-03 0.200E-03
CGA: 177    -0.669233043718E+03    0.32300E-04   -0.96659E-05  8424   0.198E-03 0.198E-03
CGA: 178    -0.669233012881E+03    0.30837E-04   -0.91854E-05  8424   0.197E-03 0.197E-03
CGA: 179    -0.669232983435E+03    0.29446E-04   -0.87360E-05  8424   0.196E-03 0.196E-03
CGA: 180    -0.669232955312E+03    0.28124E-04   -0.83146E-05  8424   0.194E-03 0.195E-03
CGA: 181    -0.669232928446E+03    0.26866E-04   -0.79189E-05  8424   0.193E-03 0.194E-03
CGA: 182    -0.669232902777E+03    0.25668E-04   -0.75467E-05  8424   0.193E-03 0.193E-03
CGA: 183    -0.669232878249E+03    0.24529E-04   -0.71959E-05  8424   0.192E-03 0.192E-03
CGA: 184    -0.669232854805E+03    0.23443E-04   -0.68648E-05  8424   0.191E-03 0.191E-03
CGA: 185    -0.669232832396E+03    0.22410E-04   -0.65519E-05  8424   0.190E-03 0.190E-03
CGA: 186    -0.669232810971E+03    0.21425E-04   -0.62557E-05  8424   0.190E-03 0.190E-03
CGA: 187    -0.669232790485E+03    0.20486E-04   -0.59751E-05  8424   0.189E-03 0.189E-03
CGA: 188    -0.669232770894E+03    0.19591E-04   -0.57089E-05  8424   0.188E-03 0.188E-03
CGA: 189    -0.669232752155E+03    0.18739E-04   -0.54562E-05  8424   0.188E-03 0.188E-03
CGA: 190    -0.669232734229E+03    0.17926E-04   -0.52161E-05  8424   0.187E-03 0.187E-03
CGA: 191    -0.669232717077E+03    0.17152E-04   -0.49879E-05  8424   0.187E-03 0.187E-03
CGA: 192    -0.669232700664E+03    0.16413E-04   -0.47708E-05  8424   0.186E-03 0.186E-03
CGA: 193    -0.669232684955E+03    0.15709E-04   -0.45640E-05  8424   0.186E-03 0.186E-03
CGA: 194    -0.669232669919E+03    0.15036E-04   -0.43668E-05  8424   0.185E-03 0.186E-03
CGA: 195    -0.669232655524E+03    0.14394E-04   -0.41785E-05  8424   0.185E-03 0.185E-03
CGA: 196    -0.669232641742E+03    0.13782E-04   -0.39986E-05  8424   0.185E-03 0.185E-03
CGA: 197    -0.669232628546E+03    0.13197E-04   -0.38266E-05  8424   0.184E-03 0.184E-03
CGA: 198    -0.669232615908E+03    0.12637E-04   -0.36620E-05  8424   0.184E-03 0.184E-03
CGA: 199    -0.669232603805E+03    0.12103E-04   -0.35045E-05  8424   0.184E-03 0.184E-03
CGA: 200    -0.669232592212E+03    0.11593E-04   -0.33538E-05  8424   0.183E-03 0.183E-03
   1 F= -.66923259E+03 E0= -.66923259E+03  d E =-.669233E+03  mag=     2.0000
       N       E                     dE             d eps       ncg     rms          ort
SDA:   1    -0.669244224419E+03   -0.11621E-01    0.00000E+00  8424   0.146E-01 0.000E+00
CGA:   2    -0.669247367747E+03   -0.31433E-02   -0.29455E-02  8424   0.531E-02 0.179E-02
CGA:   3    -0.669248449527E+03   -0.10818E-02   -0.96865E-03  8424   0.148E-02 0.173E-02
CGA:   4    -0.669248643982E+03   -0.19445E-03   -0.19562E-03  8424   0.646E-03 0.116E-02
CGA:   5    -0.669248662864E+03   -0.18882E-04   -0.40036E-04  8424   0.480E-03 0.550E-03
CGA:   6    -0.669248665234E+03   -0.23707E-05   -0.23897E-04  8424   0.409E-03 0.442E-03
CGA:   7    -0.669248662244E+03    0.29907E-05   -0.17536E-04  8424   0.366E-03 0.386E-03
CGA:   8    -0.669248656840E+03    0.54040E-05   -0.13943E-04  8424   0.336E-03 0.350E-03
CGA:   9    -0.669248650231E+03    0.66085E-05   -0.11590E-04  8424   0.314E-03 0.324E-03
   2 F= -.66924865E+03 E0= -.66924865E+03  d E =-.160580E-01  mag=     2.0000
       N       E                     dE             d eps       ncg     rms          ort
SDA:   1    -0.668725892990E+03    0.52276E+00    0.00000E+00  8424   0.205E+01 0.000E+00
CGA:   2    -0.669198016705E+03   -0.47212E+00   -0.47161E+00  8424   0.891E+00 0.343E-02
CGA:   3    -0.669373342401E+03   -0.17533E+00   -0.17577E+00  8424   0.261E+00-0.434E-02
CGA:   4    -0.669416414487E+03   -0.43072E-01   -0.42868E-01  8424   0.658E-01 0.298E-02
CGA:   5    -0.669427593394E+03   -0.11179E-01   -0.10930E-01  8424   0.132E-01 0.391E-02
CGA:   6    -0.669430110540E+03   -0.25171E-02   -0.23602E-02  8424   0.284E-02 0.244E-02
CGA:   7    -0.669430606765E+03   -0.49623E-03   -0.45274E-03  8424   0.113E-02 0.158E-02
CGA:   8    -0.669430724144E+03   -0.11738E-03   -0.11985E-03  8424   0.691E-03 0.834E-03
CGA:   9    -0.669430759579E+03   -0.35435E-04   -0.54089E-04  8424   0.563E-03 0.617E-03
CGA:  10    -0.669430773811E+03   -0.14233E-04   -0.36351E-04  8424   0.490E-03 0.521E-03
CGA:  11    -0.669430778573E+03   -0.47612E-05   -0.27411E-04  8424   0.442E-03 0.462E-03
CGA:  12    -0.669430778258E+03    0.31498E-06   -0.21920E-04  8424   0.406E-03 0.421E-03
CGA:  13    -0.669430774971E+03    0.32862E-05   -0.18175E-04  8424   0.378E-03 0.390E-03
CGA:  14    -0.669430769865E+03    0.51062E-05   -0.15448E-04  8424   0.356E-03 0.365E-03
CGA:  15    -0.669430763625E+03    0.62403E-05   -0.13368E-04  8424   0.338E-03 0.346E-03
CGA:  16    -0.669430756684E+03    0.69406E-05   -0.11729E-04  8424   0.323E-03 0.329E-03
CGA:  17    -0.669430749329E+03    0.73556E-05   -0.10404E-04  8424   0.310E-03 0.315E-03
   3 F= -.66943075E+03 E0= -.66943075E+03  d E =-.182099E+00  mag=     2.0000
       N       E                     dE             d eps       ncg     rms          ort
SDA:   1    -0.641809624894E+03    0.27621E+02    0.00000E+00  8424   0.784E+02 0.000E+00
CGA:   2    -0.661269707106E+03   -0.19460E+02   -0.19399E+02  8424   0.334E+02 0.458E+00
CGA:   3    -0.667573452984E+03   -0.63037E+01   -0.63189E+01  8424   0.948E+01-0.162E+00
CGA:   4    -0.669215072238E+03   -0.16416E+01   -0.16391E+01  8424   0.254E+01 0.313E-01
CGA:   5    -0.669641458789E+03   -0.42639E+00   -0.42449E+00  8424   0.518E+00 0.280E-01
CGA:   6    -0.669743875062E+03   -0.10242E+00   -0.10130E+00  8424   0.124E+00 0.123E-01
CGA:   7    -0.669773084010E+03   -0.29209E-01   -0.28109E-01  8424   0.407E-01 0.962E-02
CGA:   8    -0.669783971708E+03   -0.10888E-01   -0.10014E-01  8424   0.135E-01 0.761E-02
CGA:   9    -0.669787481877E+03   -0.35102E-02   -0.30645E-02  8424   0.515E-02 0.624E-02
CGA:  10    -0.669788473855E+03   -0.99198E-03   -0.96580E-03  8424   0.289E-02 0.470E-02
CGA:  11    -0.669788712416E+03   -0.23856E-03   -0.29186E-03  8424   0.207E-02 0.240E-02
CGA:  12    -0.669788806942E+03   -0.94526E-04   -0.17017E-03  8424   0.175E-02 0.190E-02
CGA:  13    -0.669788851234E+03   -0.44292E-04   -0.12452E-03  8424   0.155E-02 0.164E-02
CGA:  14    -0.669788869785E+03   -0.18551E-04   -0.98533E-04  8424   0.141E-02 0.148E-02
CGA:  15    -0.669788873158E+03   -0.33721E-05   -0.81313E-04  8424   0.131E-02 0.136E-02
CGA:  16    -0.669788866931E+03    0.62270E-05   -0.68937E-04  8424   0.123E-02 0.127E-02
CGA:  17    -0.669788854402E+03    0.12528E-04   -0.59573E-04  8424   0.116E-02 0.119E-02
CGA:  18    -0.669788837663E+03    0.16739E-04   -0.52228E-04  8424   0.110E-02 0.113E-02
CGA:  19    -0.669788818104E+03    0.19558E-04   -0.46311E-04  8424   0.106E-02 0.108E-02
CGA:  20    -0.669788796685E+03    0.21420E-04   -0.41441E-04  8424   0.102E-02 0.104E-02
CGA:  21    -0.669788774080E+03    0.22604E-04   -0.37366E-04  8424   0.981E-03 0.998E-03
CGA:  22    -0.669788750779E+03    0.23302E-04   -0.33908E-04  8424   0.950E-03 0.965E-03
CGA:  23    -0.669788727135E+03    0.23643E-04   -0.30937E-04  8424   0.923E-03 0.936E-03
CGA:  24    -0.669788703412E+03    0.23723E-04   -0.28359E-04  8424   0.898E-03 0.910E-03
CGA:  25    -0.669788679803E+03    0.23609E-04   -0.26102E-04  8424   0.877E-03 0.887E-03
CGA:  26    -0.669788656455E+03    0.23349E-04   -0.24112E-04  8424   0.857E-03 0.866E-03
CGA:  27    -0.669788633472E+03    0.22982E-04   -0.22344E-04  8424   0.839E-03 0.847E-03
CGA:  28    -0.669788610936E+03    0.22536E-04   -0.20764E-04  8424   0.823E-03 0.830E-03
CGA:  29    -0.669788588903E+03    0.22033E-04   -0.19345E-04  8424   0.808E-03 0.815E-03
CGA:  30    -0.669788567415E+03    0.21489E-04   -0.18062E-04  8424   0.794E-03 0.801E-03
CGA:  31    -0.669788546499E+03    0.20916E-04   -0.16901E-04  8424   0.782E-03 0.788E-03
CGA:  32    -0.669788526174E+03    0.20325E-04   -0.15843E-04  8424   0.771E-03 0.776E-03
CGA:  33    -0.669788506452E+03    0.19723E-04   -0.14878E-04  8424   0.760E-03 0.765E-03
CGA:  34    -0.669788487335E+03    0.19117E-04   -0.13993E-04  8424   0.750E-03 0.755E-03
CGA:  35    -0.669788468823E+03    0.18512E-04   -0.13180E-04  8424   0.741E-03 0.745E-03
CGA:  36    -0.669788450911E+03    0.17912E-04   -0.12430E-04  8424   0.733E-03 0.737E-03
CGA:  37    -0.669788433592E+03    0.17319E-04   -0.11737E-04  8424   0.725E-03 0.729E-03
CGA:  38    -0.669788416856E+03    0.16736E-04   -0.11095E-04  8424   0.718E-03 0.721E-03
CGA:  39    -0.669788400692E+03    0.16164E-04   -0.10498E-04  8424   0.711E-03 0.714E-03
CGA:  40    -0.669788385086E+03    0.15605E-04   -0.99430E-05  8424   0.704E-03 0.707E-03
CGA:  41    -0.669788370027E+03    0.15060E-04   -0.94255E-05  8424   0.698E-03 0.701E-03
CGA:  42    -0.669788355498E+03    0.14529E-04   -0.89421E-05  8424   0.693E-03 0.695E-03
CGA:  43    -0.669788341487E+03    0.14011E-04   -0.84900E-05  8424   0.687E-03 0.690E-03
CGA:  44    -0.669788327977E+03    0.13510E-04   -0.80664E-05  8424   0.683E-03 0.685E-03
CGA:  45    -0.669788314955E+03    0.13022E-04   -0.76689E-05  8424   0.678E-03 0.680E-03
CGA:  46    -0.669788302405E+03    0.12550E-04   -0.72956E-05  8424   0.673E-03 0.676E-03
CGA:  47    -0.669788290312E+03    0.12093E-04   -0.69444E-05  8424   0.669E-03 0.671E-03
CGA:  48    -0.669788278662E+03    0.11650E-04   -0.66136E-05  8424   0.665E-03 0.667E-03
CGA:  49    -0.669788267439E+03    0.11222E-04   -0.63018E-05  8424   0.662E-03 0.663E-03
CGA:  50    -0.669788256631E+03    0.10809E-04   -0.60075E-05  8424   0.658E-03 0.660E-03
CGA:  51    -0.669788246222E+03    0.10409E-04   -0.57296E-05  8424   0.655E-03 0.656E-03
CGA:  52    -0.669788236199E+03    0.10023E-04   -0.54668E-05  8424   0.652E-03 0.653E-03
CGA:  53    -0.669788226549E+03    0.96503E-05   -0.52181E-05  8424   0.649E-03 0.650E-03
   4 F= -.66978823E+03 E0= -.66978823E+03  d E =-.357477E+00  mag=     2.0000
       N       E                     dE             d eps       ncg     rms          ort
SDA:   1    -0.669125701133E+03    0.66254E+00    0.00000E+00  8424   0.224E+01 0.000E+00
CGA:   2    -0.669583675717E+03   -0.45797E+00   -0.43410E-01  8424   0.785E+00 0.222E+00
CGA:   3    -0.669780891146E+03   -0.19722E+00   -0.19509E+00  8424   0.287E+00 0.120E-01
CGA:   4    -0.669828180649E+03   -0.47290E-01   -0.46312E-01  8424   0.696E-01 0.992E-02
CGA:   5    -0.669840626475E+03   -0.12446E-01   -0.11676E-01  8424   0.144E-01 0.798E-02
CGA:   6    -0.669843277963E+03   -0.26515E-02   -0.22705E-02  8424   0.369E-02 0.541E-02
CGA:   7    -0.669843736172E+03   -0.45821E-03   -0.42616E-03  8424   0.194E-02 0.321E-02
CGA:   8    -0.669843823673E+03   -0.87501E-04   -0.11407E-03  8424   0.149E-02 0.168E-02
CGA:   9    -0.669843859326E+03   -0.35653E-04   -0.71274E-04  8424   0.127E-02 0.137E-02
CGA:  10    -0.669843874038E+03   -0.14712E-04   -0.52170E-04  8424   0.113E-02 0.119E-02
CGA:  11    -0.669843877914E+03   -0.38761E-05   -0.41034E-04  8424   0.103E-02 0.107E-02
CGA:  12    -0.669843875529E+03    0.23850E-05   -0.33681E-04  8424   0.955E-03 0.986E-03
CGA:  13    -0.669843869307E+03    0.62223E-05   -0.28444E-04  8424   0.896E-03 0.920E-03
CGA:  14    -0.669843860660E+03    0.86467E-05   -0.24518E-04  8424   0.849E-03 0.868E-03
CGA:  15    -0.669843850467E+03    0.10192E-04   -0.21461E-04  8424   0.809E-03 0.825E-03
CGA:  16    -0.669843839302E+03    0.11166E-04   -0.19011E-04  8424   0.776E-03 0.789E-03
CGA:  17    -0.669843827549E+03    0.11753E-04   -0.17000E-04  8424   0.747E-03 0.758E-03
CGA:  18    -0.669843815476E+03    0.12072E-04   -0.15321E-04  8424   0.722E-03 0.732E-03
CGA:  19    -0.669843803273E+03    0.12203E-04   -0.13896E-04  8424   0.701E-03 0.709E-03
CGA:  20    -0.669843791075E+03    0.12198E-04   -0.12672E-04  8424   0.681E-03 0.688E-03
CGA:  21    -0.669843778979E+03    0.12096E-04   -0.11609E-04  8424   0.664E-03 0.670E-03
CGA:  22    -0.669843767056E+03    0.11923E-04   -0.10678E-04  8424   0.648E-03 0.654E-03
CGA:  23    -0.669843755357E+03    0.11699E-04   -0.98551E-05  8424   0.634E-03 0.639E-03
CGA:  24    -0.669843743918E+03    0.11439E-04   -0.91237E-05  8424   0.621E-03 0.626E-03
CGA:  25    -0.669843732765E+03    0.11153E-04   -0.84695E-05  8424   0.610E-03 0.614E-03
CGA:  26    -0.669843721916E+03    0.10849E-04   -0.78811E-05  8424   0.599E-03 0.603E-03
CGA:  27    -0.669843711381E+03    0.10535E-04   -0.73495E-05  8424   0.589E-03 0.593E-03
CGA:  28    -0.669843701167E+03    0.10214E-04   -0.68671E-05  8424   0.580E-03 0.583E-03
CGA:  29    -0.669843691277E+03    0.98902E-05   -0.64278E-05  8424   0.572E-03 0.575E-03
   5 F= -.66984369E+03 E0= -.66984369E+03  d E =-.554647E-01  mag=     2.0000
       N       E                     dE             d eps       ncg     rms          ort
SDA:   1    -0.667312282287E+03    0.25314E+01    0.00000E+00  8424   0.711E+01 0.000E+00
CGA:   2    -0.669025677271E+03   -0.17134E+01   -0.98302E-01  8424   0.312E+01 0.809E-01
CGA:   3    -0.669642240663E+03   -0.61656E+00   -0.61636E+00  8424   0.882E+00 0.150E-02
CGA:   4    -0.669789396165E+03   -0.14716E+00   -0.14635E+00  8424   0.221E+00 0.863E-02
CGA:   5    -0.669827243719E+03   -0.37848E-01   -0.36986E-01  8424   0.442E-01 0.978E-02
CGA:   6    -0.669835900209E+03   -0.86565E-02   -0.80120E-02  8424   0.965E-02 0.706E-02
CGA:   7    -0.669837819736E+03   -0.19195E-02   -0.16383E-02  8424   0.351E-02 0.471E-02
CGA:   8    -0.669838352204E+03   -0.53247E-03   -0.50768E-03  8424   0.196E-02 0.333E-02
CGA:   9    -0.669838467238E+03   -0.11503E-03   -0.14367E-03  8424   0.150E-02 0.168E-02
CGA:  10    -0.669838514457E+03   -0.47220E-04   -0.88748E-04  8424   0.129E-02 0.138E-02
CGA:  11    -0.669838536310E+03   -0.21852E-04   -0.66290E-04  8424   0.116E-02 0.122E-02
CGA:  12    -0.669838544830E+03   -0.85197E-05   -0.53135E-04  8424   0.107E-02 0.111E-02
CGA:  13    -0.669838545363E+03   -0.53377E-06   -0.44263E-04  8424   0.998E-03 0.103E-02
CGA:  14    -0.669838540780E+03    0.45835E-05   -0.37789E-04  8424   0.940E-03 0.963E-03
CGA:  15    -0.669838532805E+03    0.79745E-05   -0.32833E-04  8424   0.893E-03 0.911E-03
CGA:  16    -0.669838522545E+03    0.10261E-04   -0.28901E-04  8424   0.853E-03 0.868E-03
CGA:  17    -0.669838510740E+03    0.11805E-04   -0.25698E-04  8424   0.819E-03 0.832E-03
CGA:  18    -0.669838497909E+03    0.12831E-04   -0.23037E-04  8424   0.789E-03 0.800E-03
CGA:  19    -0.669838484423E+03    0.13486E-04   -0.20791E-04  8424   0.763E-03 0.773E-03
CGA:  20    -0.669838470552E+03    0.13871E-04   -0.18871E-04  8424   0.739E-03 0.748E-03
CGA:  21    -0.669838456496E+03    0.14056E-04   -0.17211E-04  8424   0.719E-03 0.727E-03
CGA:  22    -0.669838442405E+03    0.14092E-04   -0.15764E-04  8424   0.700E-03 0.707E-03
CGA:  23    -0.669838428389E+03    0.14016E-04   -0.14492E-04  8424   0.683E-03 0.690E-03
CGA:  24    -0.669838414534E+03    0.13856E-04   -0.13368E-04  8424   0.668E-03 0.674E-03
CGA:  25    -0.669838400901E+03    0.13632E-04   -0.12367E-04  8424   0.654E-03 0.659E-03
CGA:  26    -0.669838387539E+03    0.13363E-04   -0.11472E-04  8424   0.641E-03 0.646E-03
CGA:  27    -0.669838374480E+03    0.13059E-04   -0.10668E-04  8424   0.629E-03 0.634E-03
CGA:  28    -0.669838361749E+03    0.12731E-04   -0.99422E-05  8424   0.619E-03 0.623E-03
CGA:  29    -0.669838349363E+03    0.12386E-04   -0.92846E-05  8424   0.609E-03 0.613E-03
CGA:  30    -0.669838337334E+03    0.12030E-04   -0.86869E-05  8424   0.600E-03 0.603E-03
CGA:  31    -0.669838325666E+03    0.11668E-04   -0.81416E-05  8424   0.591E-03 0.595E-03
CGA:  32    -0.669838314363E+03    0.11303E-04   -0.76428E-05  8424   0.583E-03 0.587E-03
CGA:  33    -0.669838303423E+03    0.10939E-04   -0.71850E-05  8424   0.576E-03 0.579E-03
CGA:  34    -0.669838292846E+03    0.10578E-04   -0.67638E-05  8424   0.569E-03 0.572E-03
CGA:  35    -0.669838282624E+03    0.10221E-04   -0.63752E-05  8424   0.563E-03 0.566E-03
CGA:  36    -0.669838272754E+03    0.98705E-05   -0.60160E-05  8424   0.557E-03 0.560E-03
   6 F= -.66983827E+03 E0= -.66983827E+03  d E =0.541852E-02  mag=     2.0000
       N       E                     dE             d eps       ncg     rms          ort
SDA:   1    -0.666392057398E+03    0.34462E+01    0.00000E+00  8424   0.839E+01 0.000E+00
CGA:   2    -0.668758513547E+03   -0.23665E+01   -0.35854E+00  8424   0.301E+01 0.164E+01
CGA:   3    -0.669565878353E+03   -0.80736E+00   -0.80569E+00  8424   0.102E+01 0.101E-01
CGA:   4    -0.669728500902E+03   -0.16262E+00   -0.16242E+00  8424   0.216E+00 0.227E-02
CGA:   5    -0.669765454162E+03   -0.36953E-01   -0.36258E-01  8424   0.488E-01 0.778E-02
CGA:   6    -0.669775259313E+03   -0.98052E-02   -0.90562E-02  8424   0.110E-01 0.777E-02
CGA:   7    -0.669777694545E+03   -0.24352E-02   -0.21077E-02  8424   0.379E-02 0.422E-02
CGA:   8    -0.669778346890E+03   -0.65234E-03   -0.58726E-03  8424   0.202E-02 0.317E-02
CGA:   9    -0.669778488505E+03   -0.14162E-03   -0.16218E-03  8424   0.147E-02 0.167E-02
CGA:  10    -0.669778549305E+03   -0.60799E-04   -0.95890E-04  8424   0.124E-02 0.133E-02
CGA:  11    -0.669778579608E+03   -0.30304E-04   -0.69868E-04  8424   0.110E-02 0.116E-02
CGA:  12    -0.669778593914E+03   -0.14305E-04   -0.54949E-04  8424   0.100E-02 0.104E-02
CGA:  13    -0.669778598685E+03   -0.47716E-05   -0.45079E-04  8424   0.931E-03 0.960E-03
CGA:  14    -0.669778597388E+03    0.12978E-05   -0.38018E-04  8424   0.873E-03 0.895E-03
CGA:  15    -0.669778592079E+03    0.53082E-05   -0.32702E-04  8424   0.825E-03 0.843E-03
CGA:  16    -0.669778584069E+03    0.80105E-05   -0.28555E-04  8424   0.785E-03 0.801E-03
CGA:  17    -0.669778574227E+03    0.98414E-05   -0.25230E-04  8424   0.751E-03 0.765E-03
CGA:  18    -0.669778563156E+03    0.11072E-04   -0.22507E-04  8424   0.722E-03 0.734E-03
CGA:  19    -0.669778551279E+03    0.11877E-04   -0.20239E-04  8424   0.697E-03 0.707E-03
CGA:  20    -0.669778538904E+03    0.12376E-04   -0.18322E-04  8424   0.675E-03 0.684E-03
CGA:  21    -0.669778526253E+03    0.12650E-04   -0.16684E-04  8424   0.656E-03 0.664E-03
CGA:  22    -0.669778513494E+03    0.12759E-04   -0.15268E-04  8424   0.638E-03 0.645E-03
CGA:  23    -0.669778500749E+03    0.12745E-04   -0.14035E-04  8424   0.623E-03 0.629E-03
CGA:  24    -0.669778488110E+03    0.12639E-04   -0.12951E-04  8424   0.609E-03 0.615E-03
CGA:  25    -0.669778475645E+03    0.12465E-04   -0.11992E-04  8424   0.597E-03 0.602E-03
CGA:  26    -0.669778463405E+03    0.12240E-04   -0.11139E-04  8424   0.585E-03 0.590E-03
CGA:  27    -0.669778451426E+03    0.11979E-04   -0.10375E-04  8424   0.575E-03 0.579E-03
CGA:  28    -0.669778439736E+03    0.11690E-04   -0.96881E-05  8424   0.566E-03 0.570E-03
CGA:  29    -0.669778428353E+03    0.11383E-04   -0.90671E-05  8424   0.557E-03 0.561E-03
CGA:  30    -0.669778417289E+03    0.11064E-04   -0.85037E-05  8424   0.549E-03 0.553E-03
CGA:  31    -0.669778406553E+03    0.10737E-04   -0.79913E-05  8424   0.542E-03 0.545E-03
CGA:  32    -0.669778396147E+03    0.10406E-04   -0.75240E-05  8424   0.536E-03 0.538E-03
CGA:  33    -0.669778386073E+03    0.10074E-04   -0.70996E-05  8424   0.530E-03 0.532E-03
CGA:  34    -0.669778376331E+03    0.97414E-05   -0.67177E-05  8424   0.525E-03 0.527E-03
   7 F= -.66977838E+03 E0= -.66977838E+03  d E =0.598964E-01  mag=     2.0000
       N       E                     dE             d eps       ncg     rms          ort
SDA:   1    -0.626191854468E+03    0.43587E+02    0.00000E+00  8424   0.156E+03 0.000E+00
CGA:   2    -0.652769116822E+03   -0.26577E+02   -0.26247E+02  8424   0.539E+02 0.334E+01
CGA:   3    -0.665119257850E+03   -0.12350E+02   -0.12336E+02  8424   0.169E+02-0.482E-01
CGA:   4    -0.668105949177E+03   -0.29867E+01   -0.29746E+01  8424   0.433E+01 0.109E+00
CGA:   5    -0.668820583349E+03   -0.71463E+00   -0.71025E+00  8424   0.993E+00 0.455E-01
CGA:   6    -0.669020541188E+03   -0.19996E+00   -0.20031E+00  8424   0.229E+00-0.317E-02
CGA:   7    -0.669072572942E+03   -0.52032E-01   -0.50337E-01  8424   0.721E-01 0.116E-01
CGA:   8    -0.669090952618E+03   -0.18380E-01   -0.17046E-01  8424   0.215E-01 0.925E-02
CGA:   9    -0.669097763627E+03   -0.68110E-02   -0.62658E-02  8424   0.777E-02 0.320E-02
CGA:  10    -0.669100190325E+03   -0.24267E-02   -0.20658E-02  8424   0.328E-02 0.268E-02
CGA:  11    -0.669101291624E+03   -0.11013E-02   -0.90662E-03  8424   0.140E-02 0.190E-02
CGA:  12    -0.669101575077E+03   -0.28345E-03   -0.23137E-03  8424   0.764E-03 0.914E-03
CGA:  13    -0.669101666571E+03   -0.91495E-04   -0.88471E-04  8424   0.638E-03 0.695E-03
CGA:  14    -0.669101728814E+03   -0.62243E-04   -0.66576E-04  8424   0.565E-03 0.600E-03
CGA:  15    -0.669101772959E+03   -0.44145E-04   -0.53298E-04  8424   0.517E-03 0.540E-03
CGA:  16    -0.669101805976E+03   -0.33017E-04   -0.44837E-04  8424   0.482E-03 0.499E-03
CGA:  17    -0.669101831531E+03   -0.25555E-04   -0.38910E-04  8424   0.455E-03 0.468E-03
CGA:  18    -0.669101851776E+03   -0.20244E-04   -0.34487E-04  8424   0.434E-03 0.444E-03
CGA:  19    -0.669101868079E+03   -0.16304E-04   -0.31037E-04  8424   0.416E-03 0.425E-03
CGA:  20    -0.669101881365E+03   -0.13285E-04   -0.28254E-04  8424   0.401E-03 0.409E-03
CGA:  21    -0.669101892283E+03   -0.10918E-04   -0.25952E-04  8424   0.389E-03 0.395E-03
CGA:  22    -0.669101901310E+03   -0.90273E-05   -0.24008E-04  8424   0.378E-03 0.383E-03
CGA:  23    -0.669101908806E+03   -0.74959E-05   -0.22342E-04  8424   0.369E-03 0.373E-03
CGA:  24    -0.669101915050E+03   -0.62443E-05   -0.20897E-04  8424   0.360E-03 0.365E-03
CGA:  25    -0.669101920264E+03   -0.52137E-05   -0.19631E-04  8424   0.353E-03 0.357E-03
CGA:  26    -0.669101924618E+03   -0.43540E-05   -0.18508E-04  8424   0.347E-03 0.350E-03
CGA:  27    -0.669101928250E+03   -0.36318E-05   -0.17502E-04  8424   0.341E-03 0.344E-03
CGA:  28    -0.669101931273E+03   -0.30231E-05   -0.16597E-04  8424   0.336E-03 0.338E-03
CGA:  29    -0.669101933780E+03   -0.25075E-05   -0.15777E-04  8424   0.331E-03 0.333E-03
CGA:  30    -0.669101935849E+03   -0.20690E-05   -0.15030E-04  8424   0.327E-03 0.329E-03
CGA:  31    -0.669101937544E+03   -0.16950E-05   -0.14345E-04  8424   0.323E-03 0.325E-03
CGA:  32    -0.669101938919E+03   -0.13748E-05   -0.13714E-04  8424   0.319E-03 0.321E-03
CGA:  33    -0.669101940019E+03   -0.10996E-05   -0.13130E-04  8424   0.316E-03 0.318E-03
CGA:  34    -0.669101940882E+03   -0.86304E-06   -0.12587E-04  8424   0.313E-03 0.315E-03
CGA:  35    -0.669101941541E+03   -0.65921E-06   -0.12081E-04  8424   0.310E-03 0.312E-03
CGA:  36    -0.669101942024E+03   -0.48316E-06   -0.11608E-04  8424   0.308E-03 0.309E-03
CGA:  37    -0.669101942355E+03   -0.33124E-06   -0.11163E-04  8424   0.306E-03 0.307E-03
CGA:  38    -0.669101942555E+03   -0.19989E-06   -0.10745E-04  8424   0.303E-03 0.304E-03
CGA:  39    -0.669101942641E+03   -0.85936E-07   -0.10351E-04  8424   0.301E-03 0.302E-03
   8 F= -.66910194E+03 E0= -.66910194E+03  d E =0.676434E+00  mag=     2.0000
       N       E                     dE             d eps       ncg     rms          ort
SDA:   1    -0.655239439893E+03    0.13863E+02    0.00000E+00  8424   0.498E+02 0.000E+00
CGA:   2    -0.664390591393E+03   -0.91512E+01   -0.90809E+01  8424   0.183E+02 0.690E+00
CGA:   3    -0.668424041518E+03   -0.40335E+01   -0.40500E+01  8424   0.614E+01-0.144E+00
CGA:   4    -0.669453506739E+03   -0.10295E+01   -0.10276E+01  8424   0.156E+01 0.219E-01
CGA:   5    -0.669719174046E+03   -0.26567E+00   -0.26425E+00  8424   0.357E+00 0.165E-01
CGA:   6    -0.669788583175E+03   -0.69409E-01   -0.69613E-01  8424   0.799E-01-0.206E-02
CGA:   7    -0.669805971298E+03   -0.17388E-01   -0.16908E-01  8424   0.231E-01 0.399E-02
CGA:   8    -0.669811839710E+03   -0.58684E-02   -0.56150E-02  8424   0.679E-02 0.189E-02
CGA:   9    -0.669813838674E+03   -0.19990E-02   -0.19079E-02  8424   0.242E-02 0.586E-03
CGA:  10    -0.669814441103E+03   -0.60243E-03   -0.51802E-03  8424   0.982E-03 0.995E-03
CGA:  11    -0.669814742554E+03   -0.30145E-03   -0.25606E-03  8424   0.489E-03 0.668E-03
CGA:  12    -0.669814857288E+03   -0.11473E-03   -0.93776E-04  8424   0.280E-03 0.293E-03
CGA:  13    -0.669814880718E+03   -0.23431E-04   -0.28788E-04  8424   0.239E-03 0.255E-03
CGA:  14    -0.669814903727E+03   -0.23009E-04   -0.26118E-04  8424   0.216E-03 0.227E-03
CGA:  15    -0.669814921278E+03   -0.17550E-04   -0.21880E-04  8424   0.200E-03 0.208E-03
CGA:  16    -0.669814934929E+03   -0.13652E-04   -0.18863E-04  8424   0.189E-03 0.194E-03
CGA:  17    -0.669814945922E+03   -0.10993E-04   -0.16712E-04  8424   0.180E-03 0.184E-03
CGA:  18    -0.669814954997E+03   -0.90742E-05   -0.15083E-04  8424   0.172E-03 0.176E-03
CGA:  19    -0.669814962629E+03   -0.76329E-05   -0.13797E-04  8424   0.166E-03 0.169E-03
CGA:  20    -0.669814969147E+03   -0.65178E-05   -0.12750E-04  8424   0.161E-03 0.164E-03
CGA:  21    -0.669814974783E+03   -0.56361E-05   -0.11877E-04  8424   0.157E-03 0.159E-03
CGA:  22    -0.669814979713E+03   -0.49294E-05   -0.11138E-04  8424   0.154E-03 0.155E-03
CGA:  23    -0.669814984067E+03   -0.43544E-05   -0.10502E-04  8424   0.150E-03 0.152E-03
   9 F= -.66981498E+03 E0= -.66981498E+03  d E =-.713041E+00  mag=     2.0000
       N       E                     dE             d eps       ncg     rms          ort
SDA:   1    -0.668661210875E+03    0.11538E+01    0.00000E+00  8424   0.365E+01 0.000E+00
CGA:   2    -0.669415291663E+03   -0.75408E+00   -0.75327E+00  8424   0.150E+01 0.757E-02
CGA:   3    -0.669729281609E+03   -0.31399E+00   -0.31434E+00  8424   0.485E+00-0.391E-02
CGA:   4    -0.669808068898E+03   -0.78787E-01   -0.78719E-01  8424   0.120E+00 0.134E-02
CGA:   5    -0.669828812615E+03   -0.20744E-01   -0.20624E-01  8424   0.254E-01 0.216E-02
CGA:   6    -0.669833776573E+03   -0.49640E-02   -0.48929E-02  8424   0.560E-02 0.102E-02
CGA:   7    -0.669834994091E+03   -0.12175E-02   -0.11536E-02  8424   0.161E-02 0.854E-03
CGA:   8    -0.669835395524E+03   -0.40143E-03   -0.36339E-03  8424   0.557E-03 0.554E-03
CGA:   9    -0.669835508354E+03   -0.11283E-03   -0.10731E-03  8424   0.293E-03 0.423E-03
CGA:  10    -0.669835532124E+03   -0.23770E-04   -0.30339E-04  8424   0.211E-03 0.239E-03
CGA:  11    -0.669835542521E+03   -0.10397E-04   -0.18583E-04  8424   0.185E-03 0.196E-03
CGA:  12    -0.669835548580E+03   -0.60586E-05   -0.14666E-04  8424   0.171E-03 0.177E-03
CGA:  13    -0.669835552441E+03   -0.38614E-05   -0.12489E-04  8424   0.161E-03 0.165E-03
CGA:  14    -0.669835554962E+03   -0.25211E-05   -0.11022E-04  8424   0.154E-03 0.157E-03
  10 F= -.66983555E+03 E0= -.66983555E+03  d E =-.205709E-01  mag=     2.0000
       N       E                     dE             d eps       ncg     rms          ort
SDA:   1    -0.669038173827E+03    0.79738E+00    0.00000E+00  8424   0.212E+01 0.000E+00
CGA:   2    -0.669574795905E+03   -0.53662E+00   -0.53683E+00  8424   0.102E+01-0.170E-02
CGA:   3    -0.669767357212E+03   -0.19256E+00   -0.19266E+00  8424   0.263E+00-0.161E-02
CGA:   4    -0.669810628410E+03   -0.43271E-01   -0.43229E-01  8424   0.636E-01 0.109E-02
CGA:   5    -0.669821251107E+03   -0.10623E-01   -0.10550E-01  8424   0.126E-01 0.201E-02
CGA:   6    -0.669823719309E+03   -0.24682E-02   -0.23927E-02  8424   0.284E-02 0.142E-02
CGA:   7    -0.669824374046E+03   -0.65474E-03   -0.61390E-03  8424   0.913E-03 0.675E-03
CGA:   8    -0.669824575599E+03   -0.20155E-03   -0.18695E-03  8424   0.402E-03 0.506E-03
CGA:   9    -0.669824617318E+03   -0.41720E-04   -0.47610E-04  8424   0.254E-03 0.297E-03
CGA:  10    -0.669824630167E+03   -0.12848E-04   -0.23348E-04  8424   0.217E-03 0.232E-03
CGA:  11    -0.669824635844E+03   -0.56775E-05   -0.17126E-04  8424   0.196E-03 0.205E-03
CGA:  12    -0.669824638231E+03   -0.23870E-05   -0.13911E-04  8424   0.182E-03 0.188E-03
CGA:  13    -0.669824638763E+03   -0.53141E-06   -0.11849E-04  8424   0.172E-03 0.176E-03
CGA:  14    -0.669824638137E+03    0.62579E-06   -0.10376E-04  8424   0.164E-03 0.168E-03
  11 F= -.66982464E+03 E0= -.66982464E+03  d E =0.109168E-01  mag=     2.0000
       N       E                     dE             d eps       ncg     rms          ort
SDA:   1    -0.634332147579E+03    0.35492E+02    0.00000E+00  8424   0.122E+03 0.000E+00
CGA:   2    -0.655679296080E+03   -0.21347E+02   -0.21245E+02  8424   0.454E+02 0.160E+01
CGA:   3    -0.665955103006E+03   -0.10276E+02   -0.10291E+02  8424   0.143E+02-0.204E+00
CGA:   4    -0.668394172106E+03   -0.24391E+01   -0.24361E+01  8424   0.353E+01 0.518E-01
CGA:   5    -0.668978698038E+03   -0.58453E+00   -0.58348E+00  8424   0.816E+00 0.261E-01
CGA:   6    -0.669139712491E+03   -0.16101E+00   -0.16093E+00  8424   0.189E+00 0.117E-02
CGA:   7    -0.669181908888E+03   -0.42196E-01   -0.41685E-01  8424   0.577E-01 0.602E-02
CGA:   8    -0.669196020496E+03   -0.14112E-01   -0.13771E-01  8424   0.173E-01 0.366E-02
CGA:   9    -0.669201006881E+03   -0.49864E-02   -0.48043E-02  8424   0.590E-02 0.154E-02
CGA:  10    -0.669202660384E+03   -0.16535E-02   -0.14956E-02  8424   0.233E-02 0.188E-02
CGA:  11    -0.669203305274E+03   -0.64489E-03   -0.59000E-03  8424   0.100E-02 0.141E-02
CGA:  12    -0.669203459529E+03   -0.15426E-03   -0.15464E-03  8424   0.565E-03 0.678E-03
CGA:  13    -0.669203499538E+03   -0.40009E-04   -0.62679E-04  8424   0.468E-03 0.511E-03
CGA:  14    -0.669203518903E+03   -0.19365E-04   -0.44661E-04  8424   0.414E-03 0.439E-03
CGA:  15    -0.669203528122E+03   -0.92182E-05   -0.35072E-04  8424   0.378E-03 0.395E-03
CGA:  16    -0.669203531553E+03   -0.34319E-05   -0.29024E-04  8424   0.352E-03 0.365E-03
CGA:  17    -0.669203531411E+03    0.14243E-06   -0.24826E-04  8424   0.333E-03 0.342E-03
CGA:  18    -0.669203528942E+03    0.24691E-05   -0.21719E-04  8424   0.317E-03 0.325E-03
CGA:  19    -0.669203524909E+03    0.40331E-05   -0.19311E-04  8424   0.304E-03 0.311E-03
CGA:  20    -0.669203519811E+03    0.50980E-05   -0.17386E-04  8424   0.294E-03 0.299E-03
CGA:  21    -0.669203513980E+03    0.58307E-05   -0.15800E-04  8424   0.285E-03 0.289E-03
CGA:  22    -0.669203507650E+03    0.63301E-05   -0.14466E-04  8424   0.277E-03 0.281E-03
CGA:  23    -0.669203500994E+03    0.66556E-05   -0.13334E-04  8424   0.271E-03 0.274E-03
CGA:  24    -0.669203494138E+03    0.68568E-05   -0.12357E-04  8424   0.265E-03 0.268E-03
CGA:  25    -0.669203487171E+03    0.69669E-05   -0.11500E-04  8424   0.260E-03 0.262E-03
CGA:  26    -0.669203480163E+03    0.70080E-05   -0.10743E-04  8424   0.255E-03 0.257E-03
CGA:  27    -0.669203473166E+03    0.69964E-05   -0.10068E-04  8424   0.251E-03 0.253E-03
  12 F= -.66920347E+03 E0= -.66920347E+03  d E =0.621165E+00  mag=     2.0000
       N       E                     dE             d eps       ncg     rms          ort
SDA:   1    -0.641452430362E+03    0.27751E+02    0.00000E+00  8424   0.101E+03 0.000E+00
CGA:   2    -0.659157724121E+03   -0.17705E+02   -0.17602E+02  8424   0.353E+02 0.134E+01
CGA:   3    -0.667063084598E+03   -0.79054E+01   -0.79255E+01  8424   0.119E+02-0.218E+00
CGA:   4    -0.669081497917E+03   -0.20184E+01   -0.20155E+01  8424   0.306E+01 0.406E-01
CGA:   5    -0.669597565234E+03   -0.51607E+00   -0.51480E+00  8424   0.701E+00 0.213E-01
CGA:   6    -0.669734767410E+03   -0.13720E+00   -0.13748E+00  8424   0.160E+00-0.369E-02
CGA:   7    -0.669770055029E+03   -0.35288E-01   -0.34883E-01  8424   0.485E-01 0.407E-02
CGA:   8    -0.669782112700E+03   -0.12058E-01   -0.11835E-01  8424   0.147E-01 0.196E-02
CGA:   9    -0.669786428392E+03   -0.43157E-02   -0.43943E-02  8424   0.570E-02-0.500E-03
CGA:  10    -0.669788012504E+03   -0.15841E-02   -0.15452E-02  8424   0.243E-02 0.272E-03
CGA:  11    -0.669788832206E+03   -0.81970E-03   -0.10536E-02  8424   0.208E-02-0.878E-03
CGA:  12    -0.669789093098E+03   -0.26089E-03   -0.25896E-03  8424   0.974E-03 0.504E-04
CGA:  13    -0.669789371733E+03   -0.27863E-03   -0.29827E-03  8424   0.888E-03-0.148E-03
CGA:  14    -0.669787904067E+03    0.14677E-02   -0.80430E-03  8424   0.136E-01-0.256E-02
CGA:  15    -0.669789875932E+03   -0.19719E-02   -0.20567E-02  8424   0.269E-02 0.591E-03
CGA:  16    -0.669790772286E+03   -0.89635E-03   -0.90861E-03  8424   0.635E-03-0.460E-03
CGA:  17    -0.669791015069E+03   -0.24278E-03   -0.26894E-03  8424   0.653E-03-0.127E-03
CGA:  18    -0.669791344468E+03   -0.32940E-03    0.44196E-02  8424   0.434E-03 0.273E-04
CGA:  19    -0.669791659987E+03   -0.31552E-03    0.55251E-03  8424   0.246E-03 0.187E-03
CGA:  20    -0.669791955178E+03   -0.29519E-03    0.15263E-03  8424   0.187E-03 0.180E-03
CGA:  21    -0.669792120027E+03   -0.16485E-03    0.68244E-04  8424   0.175E-03 0.465E-04
CGA:  22    -0.669792348242E+03   -0.22821E-03    0.49218E-04  8424   0.134E-03 0.150E-03
CGA:  23    -0.669792476163E+03   -0.12792E-03    0.38512E-04  8424   0.102E-03 0.729E-04
CGA:  24    -0.669792597959E+03   -0.12180E-03    0.17228E-04  8424   0.105E-03 0.720E-04
CGA:  25    -0.669792722700E+03   -0.12474E-03    0.17469E-04  8424   0.113E-03 0.639E-04
CGA:  26    -0.669792831885E+03   -0.10919E-03    0.31649E-04  8424   0.133E-03 0.488E-04
CGA:  27    -0.669793110060E+03   -0.27817E-03    0.21561E-04  8424   0.110E-03 0.183E-03
CGA:  28    -0.669793232781E+03   -0.12272E-03    0.21331E-04  8424   0.119E-03 0.504E-04
CGA:  29    -0.669793485583E+03   -0.25280E-03    0.19681E-04  8424   0.108E-03 0.168E-03
CGA:  30    -0.669793618873E+03   -0.13329E-03    0.16711E-04  8424   0.107E-03 0.521E-04
CGA:  31    -0.669793872350E+03   -0.25348E-03    0.15440E-04  8424   0.105E-03 0.155E-03
CGA:  32    -0.669793986382E+03   -0.11403E-03    0.21306E-04  8424   0.977E-04 0.537E-04
CGA:  33    -0.669794122209E+03   -0.13583E-03    0.12114E-04  8424   0.938E-04 0.572E-04
CGA:  34    -0.669794243285E+03   -0.12108E-03    0.13360E-04  8424   0.915E-04 0.586E-04
CGA:  35    -0.669794371433E+03   -0.12815E-03    0.11198E-04  8424   0.899E-04 0.590E-04
CGA:  36    -0.669794500717E+03   -0.12928E-03    0.10514E-04  8424   0.893E-04 0.586E-04
CGA:  37    -0.669794620894E+03   -0.12018E-03    0.11747E-04  8424   0.898E-04 0.573E-04
CGA:  38    -0.669794759024E+03   -0.13813E-03    0.93509E-05  8424   0.924E-04 0.545E-04
CGA:  39    -0.669794869163E+03   -0.11014E-03    0.15417E-04  8424   0.986E-04 0.491E-04
CGA:  40    -0.669795018595E+03   -0.14943E-03    0.10519E-04  8424   0.112E-03 0.387E-04
CGA:  41    -0.669795288592E+03   -0.27000E-03    0.13409E-04  8424   0.967E-04 0.152E-03
CGA:  42    -0.669795397514E+03   -0.10892E-03    0.18228E-04  8424   0.108E-03 0.373E-04
CGA:  43    -0.669795677489E+03   -0.27997E-03    0.11322E-04  8424   0.955E-04 0.145E-03
CGA:  44    -0.669795816420E+03   -0.13893E-03    0.10934E-04  8424   0.101E-03 0.363E-04
CGA:  45    -0.669796077135E+03   -0.26071E-03    0.10702E-04  8424   0.944E-04 0.137E-03
CGA:  46    -0.669796201597E+03   -0.12446E-03    0.12914E-04  8424   0.952E-04 0.355E-04
CGA:  47    -0.669796466220E+03   -0.26462E-03    0.89557E-05  8424   0.925E-04 0.129E-03
CGA:  48    -0.669796594352E+03   -0.12813E-03    0.11575E-04  8424   0.898E-04 0.352E-04
CGA:  49    -0.669796844658E+03   -0.25031E-03    0.84929E-05  8424   0.898E-04 0.123E-03
CGA:  50    -0.669796978979E+03   -0.13432E-03    0.98205E-05  8424   0.850E-04 0.354E-04
CGA:  51    -0.669797233088E+03   -0.25411E-03    0.74379E-05  8424   0.866E-04 0.117E-03
CGA:  52    -0.669797354582E+03   -0.12149E-03    0.10591E-04  8424   0.805E-04 0.359E-04
CGA:  53    -0.669797598801E+03   -0.24422E-03    0.71427E-05  8424   0.833E-04 0.113E-03
CGA:  54    -0.669797738329E+03   -0.13953E-03    0.75521E-05  8424   0.767E-04 0.363E-04
CGA:  55    -0.669797987745E+03   -0.24942E-03    0.63999E-05  8424   0.801E-04 0.109E-03
CGA:  56    -0.669798104389E+03   -0.11664E-03    0.91563E-05  8424   0.734E-04 0.364E-04
CGA:  57    -0.669798345843E+03   -0.24145E-03    0.62333E-05  8424   0.771E-04 0.106E-03
CGA:  58    -0.669798488536E+03   -0.14269E-03    0.59990E-05  8424   0.708E-04 0.363E-04
CGA:  59    -0.669798736295E+03   -0.24776E-03    0.56581E-05  8424   0.744E-04 0.103E-03
CGA:  60    -0.669798848735E+03   -0.11244E-03    0.79932E-05  8424   0.684E-04 0.360E-04
CGA:  61    -0.669799089174E+03   -0.24044E-03    0.55533E-05  8424   0.720E-04 0.100E-03
CGA:  62    -0.669799234109E+03   -0.14494E-03    0.49411E-05  8424   0.664E-04 0.355E-04
CGA:  63    -0.669799480818E+03   -0.24671E-03    0.50751E-05  8424   0.697E-04 0.979E-04
CGA:  64    -0.669799589216E+03   -0.10840E-03    0.71264E-05  8424   0.644E-04 0.349E-04
CGA:  65    -0.669799729922E+03   -0.14071E-03    0.39432E-05  8424   0.608E-04 0.384E-04
CGA:  66    -0.669799845814E+03   -0.11589E-03    0.45206E-05  8424   0.582E-04 0.406E-04
CGA:  67    -0.669799979586E+03   -0.13377E-03    0.33219E-05  8424   0.564E-04 0.420E-04
CGA:  68    -0.669800099990E+03   -0.12040E-03    0.35647E-05  8424   0.551E-04 0.427E-04
CGA:  69    -0.669800229404E+03   -0.12941E-03    0.30548E-05  8424   0.542E-04 0.430E-04
CGA:  70    -0.669800352685E+03   -0.12328E-03    0.31414E-05  8424   0.537E-04 0.429E-04
CGA:  71    -0.669800478761E+03   -0.12608E-03    0.29691E-05  8424   0.533E-04 0.426E-04
CGA:  72    -0.669800604306E+03   -0.12555E-03    0.29420E-05  8424   0.532E-04 0.420E-04
CGA:  73    -0.669800727050E+03   -0.12274E-03    0.30191E-05  8424   0.533E-04 0.411E-04
CGA:  74    -0.669800855000E+03   -0.12795E-03    0.28692E-05  8424   0.537E-04 0.401E-04
CGA:  75    -0.669800973771E+03   -0.11877E-03    0.32312E-05  8424   0.544E-04 0.387E-04
CGA:  76    -0.669801104851E+03   -0.13108E-03    0.29121E-05  8424   0.556E-04 0.370E-04
CGA:  77    -0.669801218457E+03   -0.11361E-03    0.37304E-05  8424   0.573E-04 0.348E-04
CGA:  78    -0.669801353973E+03   -0.13552E-03    0.31401E-05  8424   0.599E-04 0.319E-04
CGA:  79    -0.669801460412E+03   -0.10644E-03    0.49572E-05  8424   0.640E-04 0.279E-04
CGA:  80    -0.669801718997E+03   -0.25858E-03    0.41927E-05  8424   0.582E-04 0.925E-04
CGA:  81    -0.669801853817E+03   -0.13482E-03    0.32864E-05  8424   0.619E-04 0.273E-04
CGA:  82    -0.669802103522E+03   -0.24970E-03    0.40933E-05  8424   0.566E-04 0.898E-04
CGA:  83    -0.669802213537E+03   -0.11002E-03    0.40998E-05  8424   0.594E-04 0.269E-04
CGA:  84    -0.669802465036E+03   -0.25150E-03    0.37349E-05  8424   0.552E-04 0.867E-04
CGA:  85    -0.669802592496E+03   -0.12746E-03    0.31257E-05  8424   0.570E-04 0.266E-04
CGA:  86    -0.669802834202E+03   -0.24171E-03    0.36062E-05  8424   0.538E-04 0.835E-04
CGA:  87    -0.669802947382E+03   -0.11318E-03    0.34747E-05  8424   0.546E-04 0.262E-04
CGA:  88    -0.669803189074E+03   -0.24169E-03    0.32972E-05  8424   0.525E-04 0.804E-04
CGA:  89    -0.669803309567E+03   -0.12049E-03    0.30043E-05  8424   0.523E-04 0.259E-04
CGA:  90    -0.669803542063E+03   -0.23250E-03    0.31717E-05  8424   0.513E-04 0.773E-04
CGA:  91    -0.669803657575E+03   -0.11551E-03    0.30078E-05  8424   0.502E-04 0.255E-04
CGA:  92    -0.669803889624E+03   -0.23205E-03    0.29195E-05  8424   0.501E-04 0.745E-04
CGA:  93    -0.669804003736E+03   -0.11411E-03    0.28874E-05  8424   0.483E-04 0.251E-04
CGA:  94    -0.669804117617E+03   -0.11388E-03    0.26618E-05  8424   0.467E-04 0.262E-04
CGA:  95    -0.669804234664E+03   -0.11705E-03    0.23663E-05  8424   0.453E-04 0.271E-04
CGA:  96    -0.669804344349E+03   -0.10968E-03    0.24077E-05  8424   0.442E-04 0.277E-04
CGA:  97    -0.669804463569E+03   -0.11922E-03    0.20365E-05  8424   0.434E-04 0.281E-04
CGA:  98    -0.669804569769E+03   -0.10620E-03    0.22724E-05  8424   0.429E-04 0.282E-04
CGA:  99    -0.669804690859E+03   -0.12109E-03    0.18600E-05  8424   0.426E-04 0.281E-04
CGA: 100    -0.669804793592E+03   -0.10273E-03    0.22768E-05  8424   0.427E-04 0.276E-04
CGA: 101    -0.669804916836E+03   -0.12324E-03    0.17989E-05  8424   0.430E-04 0.269E-04
CGA: 102    -0.669805015381E+03   -0.98544E-04    0.24668E-05  8424   0.438E-04 0.257E-04
CGA: 103    -0.669805141675E+03   -0.12629E-03    0.18561E-05  8424   0.452E-04 0.241E-04
CGA: 104    -0.669805234503E+03   -0.92828E-04    0.30194E-05  8424   0.474E-04 0.218E-04
CGA: 105    -0.669805464599E+03   -0.23010E-03    0.25331E-05  8424   0.439E-04 0.694E-04
CGA: 106    -0.669805589732E+03   -0.12513E-03    0.18840E-05  8424   0.462E-04 0.213E-04
CGA: 107    -0.669805812709E+03   -0.22298E-03    0.24987E-05  8424   0.426E-04 0.678E-04
CGA: 108    -0.669805906697E+03   -0.93988E-04    0.25765E-05  8424   0.446E-04 0.210E-04
CGA: 109    -0.669806130794E+03   -0.22410E-03    0.23204E-05  8424   0.415E-04 0.658E-04
CGA: 110    -0.669806249193E+03   -0.11840E-03    0.17755E-05  8424   0.430E-04 0.207E-04
CGA: 111    -0.669806464757E+03   -0.21556E-03    0.22655E-05  8424   0.404E-04 0.638E-04
CGA: 112    -0.669806559980E+03   -0.95223E-04    0.22224E-05  8424   0.413E-04 0.204E-04
CGA: 113    -0.669806676776E+03   -0.11680E-03    0.17913E-05  8424   0.423E-04 0.189E-04
CGA: 114    -0.669806887134E+03   -0.21036E-03    0.21224E-05  8424   0.404E-04 0.611E-04
CGA: 115    -0.669806980120E+03   -0.92986E-04    0.22950E-05  8424   0.410E-04 0.185E-04
CGA: 116    -0.669807190559E+03   -0.21044E-03    0.19769E-05  8424   0.395E-04 0.593E-04
CGA: 117    -0.669807300872E+03   -0.11031E-03    0.17376E-05  8424   0.395E-04 0.182E-04
CGA: 118    -0.669807502870E+03   -0.20200E-03    0.19187E-05  8424   0.386E-04 0.572E-04
CGA: 119    -0.669807596781E+03   -0.93911E-04    0.20370E-05  8424   0.381E-04 0.179E-04
CGA: 120    -0.669807797866E+03   -0.20108E-03    0.17884E-05  8424   0.377E-04 0.553E-04
CGA: 121    -0.669807901851E+03   -0.10399E-03    0.16885E-05  8424   0.367E-04 0.177E-04
CGA: 122    -0.669808095288E+03   -0.19344E-03    0.17382E-05  8424   0.368E-04 0.534E-04
CGA: 123    -0.669808189882E+03   -0.94594E-04    0.18080E-05  8424   0.354E-04 0.175E-04
CGA: 124    -0.669808382439E+03   -0.19256E-03    0.16288E-05  8424   0.359E-04 0.517E-04
CGA: 125    -0.669808480492E+03   -0.98053E-04    0.16296E-05  8424   0.342E-04 0.173E-04
CGA: 126    -0.669808666224E+03   -0.18573E-03    0.15915E-05  8424   0.350E-04 0.502E-04
CGA: 127    -0.669808761135E+03   -0.94910E-04    0.16047E-05  8424   0.331E-04 0.172E-04
CGA: 128    -0.669808946526E+03   -0.18539E-03    0.14999E-05  8424   0.342E-04 0.488E-04
CGA: 129    -0.669809039122E+03   -0.92597E-04    0.15629E-05  8424   0.320E-04 0.170E-04
CGA: 130    -0.669809218251E+03   -0.17913E-03    0.14757E-05  8424   0.333E-04 0.475E-04
CGA: 131    -0.669809313145E+03   -0.94894E-04    0.14297E-05  8424   0.311E-04 0.168E-04
CGA: 132    -0.669809404401E+03   -0.91255E-04    0.12891E-05  8424   0.295E-04 0.183E-04
CGA: 133    -0.669809495125E+03   -0.90724E-04    0.11526E-05  8424   0.284E-04 0.193E-04
CGA: 134    -0.669809588000E+03   -0.92876E-04    0.10239E-05  8424   0.275E-04 0.200E-04
CGA: 135    -0.669809675937E+03   -0.87937E-04    0.10253E-05  8424   0.270E-04 0.204E-04
CGA: 136    -0.669809769713E+03   -0.93776E-04    0.90405E-06  8424   0.266E-04 0.206E-04
CGA: 137    -0.669809855354E+03   -0.85641E-04    0.97901E-06  8424   0.264E-04 0.206E-04
CGA: 138    -0.669809949882E+03   -0.94528E-04    0.85128E-06  8424   0.263E-04 0.204E-04
CGA: 139    -0.669810033072E+03   -0.83191E-04    0.98758E-06  8424   0.263E-04 0.201E-04
CGA: 140    -0.669810128574E+03   -0.95502E-04    0.83611E-06  8424   0.265E-04 0.197E-04
CGA: 141    -0.669810208817E+03   -0.80242E-04    0.10494E-05  8424   0.267E-04 0.192E-04
CGA: 142    -0.669810305776E+03   -0.96959E-04    0.85206E-06  8424   0.272E-04 0.185E-04
CGA: 143    -0.669810382383E+03   -0.76607E-04    0.11856E-05  8424   0.279E-04 0.176E-04
CGA: 144    -0.669810481513E+03   -0.99130E-04    0.90753E-06  8424   0.288E-04 0.165E-04
CGA: 145    -0.669810553571E+03   -0.72058E-04    0.14617E-05  8424   0.300E-04 0.152E-04
CGA: 146    -0.669810655891E+03   -0.10232E-03    0.10322E-05  8424   0.318E-04 0.134E-04
CGA: 147    -0.669810831639E+03   -0.17575E-03    0.13733E-05  8424   0.295E-04 0.455E-04
CGA: 148    -0.669810900543E+03   -0.68905E-04    0.16434E-05  8424   0.312E-04 0.130E-04
CGA: 149    -0.669811076973E+03   -0.17643E-03    0.13056E-05  8424   0.290E-04 0.446E-04
CGA: 150    -0.669811174751E+03   -0.97778E-04    0.10073E-05  8424   0.305E-04 0.127E-04
CGA: 151    -0.669811344471E+03   -0.16972E-03    0.12950E-05  8424   0.285E-04 0.435E-04
CGA: 152    -0.669811412939E+03   -0.68469E-04    0.15358E-05  8424   0.297E-04 0.125E-04
CGA: 153    -0.669811582270E+03   -0.16933E-03    0.12221E-05  8424   0.281E-04 0.424E-04
CGA: 154    -0.669811675226E+03   -0.92956E-04    0.10032E-05  8424   0.289E-04 0.122E-04
CGA: 155    -0.669811837638E+03   -0.16241E-03    0.12045E-05  8424   0.277E-04 0.411E-04
CGA: 156    -0.669811906173E+03   -0.68535E-04    0.14345E-05  8424   0.280E-04 0.121E-04
CGA: 157    -0.669812067402E+03   -0.16123E-03    0.11369E-05  8424   0.273E-04 0.399E-04
CGA: 158    -0.669812155357E+03   -0.87955E-04    0.10063E-05  8424   0.272E-04 0.120E-04
CGA: 159    -0.669812310190E+03   -0.15483E-03    0.11169E-05  8424   0.269E-04 0.388E-04
CGA: 160    -0.669812379075E+03   -0.68885E-04    0.13242E-05  8424   0.263E-04 0.119E-04
CGA: 161    -0.669812532463E+03   -0.15339E-03    0.10596E-05  8424   0.264E-04 0.376E-04
CGA: 162    -0.669812615488E+03   -0.83026E-04    0.99982E-06  8424   0.254E-04 0.119E-04
CGA: 163    -0.669812763352E+03   -0.14786E-03    0.10425E-05  8424   0.259E-04 0.366E-04
CGA: 164    -0.669812832592E+03   -0.69240E-04    0.12039E-05  8424   0.246E-04 0.119E-04
CGA: 165    -0.669812979264E+03   -0.14667E-03    0.99628E-06  8424   0.253E-04 0.357E-04
CGA: 166    -0.669813057686E+03   -0.78422E-04    0.97874E-06  8424   0.239E-04 0.119E-04
CGA: 167    -0.669813199664E+03   -0.14198E-03    0.98508E-06  8424   0.248E-04 0.349E-04
CGA: 168    -0.669813269080E+03   -0.69416E-04    0.10876E-05  8424   0.232E-04 0.120E-04
CGA: 169    -0.669813410369E+03   -0.14129E-03    0.94723E-06  8424   0.242E-04 0.342E-04
CGA: 170    -0.669813484614E+03   -0.74246E-04    0.95057E-06  8424   0.226E-04 0.120E-04
CGA: 171    -0.669813621718E+03   -0.13710E-03    0.94204E-06  8424   0.237E-04 0.335E-04
CGA: 172    -0.669813691111E+03   -0.69393E-04    0.98658E-06  8424   0.221E-04 0.120E-04
CGA: 173    -0.669813763878E+03   -0.72767E-04    0.79109E-06  8424   0.209E-04 0.132E-04
CGA: 174    -0.669813830964E+03   -0.67085E-04    0.77639E-06  8424   0.202E-04 0.140E-04
CGA: 175    -0.669813904254E+03   -0.73291E-04    0.63931E-06  8424   0.196E-04 0.145E-04
CGA: 176    -0.669813969853E+03   -0.65599E-04    0.68796E-06  8424   0.192E-04 0.148E-04
CGA: 177    -0.669814043418E+03   -0.73566E-04    0.57457E-06  8424   0.190E-04 0.149E-04
CGA: 178    -0.669814107611E+03   -0.64192E-04    0.66002E-06  8424   0.189E-04 0.150E-04
CGA: 179    -0.669814181598E+03   -0.73987E-04    0.54873E-06  8424   0.189E-04 0.149E-04
CGA: 180    -0.669814244036E+03   -0.62438E-04    0.67196E-06  8424   0.189E-04 0.147E-04
CGA: 181    -0.669814318798E+03   -0.74761E-04    0.54494E-06  8424   0.191E-04 0.144E-04
CGA: 182    -0.669814378942E+03   -0.60144E-04    0.72298E-06  8424   0.194E-04 0.140E-04
CGA: 183    -0.669814454973E+03   -0.76031E-04    0.56055E-06  8424   0.197E-04 0.136E-04
CGA: 184    -0.669814512196E+03   -0.57222E-04    0.82968E-06  8424   0.203E-04 0.129E-04
CGA: 185    -0.669814590130E+03   -0.77934E-04    0.60231E-06  8424   0.210E-04 0.122E-04
CGA: 186    -0.669814643667E+03   -0.53537E-04    0.10426E-05  8424   0.220E-04 0.111E-04
CGA: 187    -0.669814724354E+03   -0.80687E-04    0.69119E-06  8424   0.234E-04 0.982E-05
CGA: 188    -0.669814859772E+03   -0.13542E-03    0.95580E-06  8424   0.217E-04 0.336E-04
CGA: 189    -0.669814910632E+03   -0.50860E-04    0.12072E-05  8424   0.231E-04 0.962E-05
CGA: 190    -0.669815046774E+03   -0.13614E-03    0.92006E-06  8424   0.215E-04 0.331E-04
CGA: 191    -0.669815124485E+03   -0.77711E-04    0.68528E-06  8424   0.227E-04 0.946E-05
CGA: 192    -0.669815255515E+03   -0.13103E-03    0.92241E-06  8424   0.213E-04 0.325E-04
CGA: 193    -0.669815305854E+03   -0.50338E-04    0.11645E-05  8424   0.222E-04 0.931E-05
CGA: 194    -0.669815436832E+03   -0.13098E-03    0.88030E-06  8424   0.211E-04 0.318E-04
CGA: 195    -0.669815511273E+03   -0.74441E-04    0.69251E-06  8424   0.217E-04 0.920E-05
CGA: 196    -0.669815637050E+03   -0.12578E-03    0.87575E-06  8424   0.209E-04 0.310E-04
CGA: 197    -0.669815687362E+03   -0.50311E-04    0.11173E-05  8424   0.212E-04 0.911E-05
CGA: 198    -0.669815812382E+03   -0.12502E-03    0.83556E-06  8424   0.207E-04 0.303E-04
CGA: 199    -0.669815883338E+03   -0.70956E-04    0.70419E-06  8424   0.206E-04 0.906E-05
CGA: 200    -0.669816003687E+03   -0.12035E-03    0.82669E-06  8424   0.204E-04 0.295E-04
  13 F= -.66981600E+03 E0= -.66981600E+03  d E =-.612531E+00  mag=     2.0000
       N       E                     dE             d eps       ncg     rms          ort
SDA:   1    -0.669097527810E+03    0.71836E+00    0.00000E+00  8424   0.246E+01 0.000E+00
CGA:   2    -0.669585682669E+03   -0.48815E+00   -0.48845E+00  8424   0.977E+00 0.130E-02
CGA:   3    -0.669794909353E+03   -0.20923E+00   -0.20914E+00  8424   0.328E+00-0.702E-03
CGA:   4    -0.669848322448E+03   -0.53413E-01   -0.53451E-01  8424   0.804E-01 0.229E-03
CGA:   5    -0.669862282049E+03   -0.13960E-01   -0.13994E-01  8424   0.171E-01 0.274E-03
CGA:   6    -0.669865633341E+03   -0.33513E-02   -0.33472E-02  8424   0.389E-02-0.475E-04
CGA:   7    -0.669866445965E+03   -0.81262E-03   -0.82435E-03  8424   0.111E-02 0.168E-03
CGA:   8    -0.669866691799E+03   -0.24583E-03   -0.25392E-03  8424   0.302E-03 0.137E-03
CGA:   9    -0.669866759382E+03   -0.67583E-04   -0.73033E-04  8424   0.982E-04 0.896E-04
CGA:  10    -0.669866766843E+03   -0.74605E-05   -0.17760E-04  8424   0.534E-04 0.772E-04
  14 F= -.66986677E+03 E0= -.66986677E+03  d E =-.507632E-01  mag=     2.0000
       N       E                     dE             d eps       ncg     rms          ort
SDA:   1    -0.667671868101E+03    0.21949E+01    0.00000E+00  8424   0.642E+01 0.000E+00
CGA:   2    -0.669054615659E+03   -0.13827E+01   -0.13832E+01  8424   0.292E+01 0.577E-02
CGA:   3    -0.669666965817E+03   -0.61235E+00   -0.61216E+00  8424   0.881E+00-0.283E-02
CGA:   4    -0.669807086071E+03   -0.14012E+00   -0.14021E+00  8424   0.202E+00 0.717E-03
CGA:   5    -0.669841575577E+03   -0.34490E-01   -0.34555E-01  8424   0.420E-01 0.779E-03
CGA:   6    -0.669849960839E+03   -0.83853E-02   -0.83828E-02  8424   0.101E-01-0.585E-04
CGA:   7    -0.669852068068E+03   -0.21072E-02   -0.21233E-02  8424   0.276E-02 0.497E-03
CGA:   8    -0.669852689844E+03   -0.62178E-03   -0.63024E-03  8424   0.756E-03 0.364E-03
CGA:   9    -0.669852859050E+03   -0.16921E-03   -0.17747E-03  8424   0.254E-03 0.253E-03
CGA:  10    -0.669852883380E+03   -0.24330E-04   -0.45744E-04  8424   0.138E-03 0.207E-03
CGA:  11    -0.669852883182E+03    0.19788E-06   -0.14374E-04  8424   0.975E-04 0.113E-03
  15 F= -.66985288E+03 E0= -.66985288E+03  d E =0.138837E-01  mag=     2.0000
       N       E                     dE             d eps       ncg     rms          ort
SDA:   1    -0.636460512006E+03    0.33392E+02    0.00000E+00  8424   0.101E+03 0.000E+00
CGA:   2    -0.657183313214E+03   -0.20723E+02   -0.20734E+02  8424   0.427E+02 0.373E+00
CGA:   3    -0.666367534999E+03   -0.91842E+01   -0.91835E+01  8424   0.133E+02-0.899E-01
CGA:   4    -0.668526561474E+03   -0.21590E+01   -0.21602E+01  8424   0.316E+01 0.771E-02
CGA:   5    -0.669063749676E+03   -0.53719E+00   -0.53768E+00  8424   0.661E+00 0.758E-02
CGA:   6    -0.669196713469E+03   -0.13296E+00   -0.13294E+00  8424   0.157E+00-0.154E-02
CGA:   7    -0.669231856712E+03   -0.35143E-01   -0.35122E-01  8424   0.470E-01 0.183E-02
CGA:   8    -0.669243319818E+03   -0.11463E-01   -0.11440E-01  8424   0.144E-01 0.859E-03
CGA:   9    -0.669247500393E+03   -0.41806E-02   -0.42253E-02  8424   0.540E-02-0.613E-03
CGA:  10    -0.669249036582E+03   -0.15362E-02   -0.15233E-02  8424   0.207E-02 0.168E-03
CGA:  11    -0.669249759740E+03   -0.72316E-03   -0.78495E-03  8424   0.102E-02-0.428E-03
CGA:  12    -0.669249995589E+03   -0.23585E-03   -0.23874E-03  8424   0.413E-03-0.463E-04
CGA:  13    -0.669250191084E+03   -0.19550E-03    0.70475E-03  8424   0.202E-03 0.150E-03
CGA:  14    -0.669250359811E+03   -0.16873E-03    0.10345E-03  8424   0.140E-03 0.127E-03
CGA:  15    -0.669250437298E+03   -0.77487E-04    0.85712E-04  8424   0.913E-04 0.839E-04
CGA:  16    -0.669250527240E+03   -0.89941E-04    0.95392E-05  8424   0.804E-04 0.736E-04
CGA:  17    -0.669250590085E+03   -0.62845E-04    0.13823E-04  8424   0.749E-04 0.682E-04
CGA:  18    -0.669250674642E+03   -0.84557E-04    0.61256E-05  8424   0.714E-04 0.646E-04
CGA:  19    -0.669250734981E+03   -0.60339E-04    0.10210E-04  8424   0.693E-04 0.616E-04
CGA:  20    -0.669250819068E+03   -0.84087E-04    0.50248E-05  8424   0.679E-04 0.590E-04
CGA:  21    -0.669250876857E+03   -0.57790E-04    0.95513E-05  8424   0.673E-04 0.565E-04
CGA:  22    -0.669250962524E+03   -0.85666E-04    0.45323E-05  8424   0.673E-04 0.539E-04
CGA:  23    -0.669251017153E+03   -0.54629E-04    0.10576E-04  8424   0.682E-04 0.510E-04
CGA:  24    -0.669251105640E+03   -0.88486E-04    0.44446E-05  8424   0.697E-04 0.478E-04
CGA:  25    -0.669251156271E+03   -0.50632E-04    0.14518E-04  8424   0.724E-04 0.437E-04
CGA:  26    -0.669251248571E+03   -0.92300E-04    0.48601E-05  8424   0.765E-04 0.386E-04
CGA:  27    -0.669251293952E+03   -0.45381E-04    0.32530E-04  8424   0.827E-04 0.319E-04
CGA:  28    -0.669251442977E+03   -0.14903E-03    0.78717E-05  8424   0.736E-04 0.115E-03
CGA:  29    -0.669251538213E+03   -0.95236E-04    0.48173E-05  8424   0.791E-04 0.304E-04
CGA:  30    -0.669251684392E+03   -0.14618E-03    0.71968E-05  8424   0.709E-04 0.110E-03
CGA:  31    -0.669251728010E+03   -0.43618E-04    0.25844E-04  8424   0.765E-04 0.287E-04
CGA:  32    -0.669251876096E+03   -0.14809E-03    0.63988E-05  8424   0.688E-04 0.106E-03
CGA:  33    -0.669251972204E+03   -0.96108E-04    0.40131E-05  8424   0.737E-04 0.273E-04
CGA:  34    -0.669252116809E+03   -0.14461E-03    0.59518E-05  8424   0.669E-04 0.101E-03
CGA:  35    -0.669252158584E+03   -0.41775E-04    0.22836E-04  8424   0.714E-04 0.259E-04
CGA:  36    -0.669252304109E+03   -0.14553E-03    0.53465E-05  8424   0.652E-04 0.975E-04
CGA:  37    -0.669252400748E+03   -0.96638E-04    0.34785E-05  8424   0.689E-04 0.246E-04
CGA:  38    -0.669252542767E+03   -0.14202E-03    0.49922E-05  8424   0.636E-04 0.935E-04
CGA:  39    -0.669252582742E+03   -0.39975E-04    0.21163E-04  8424   0.666E-04 0.234E-04
CGA:  40    -0.669252724614E+03   -0.14187E-03    0.45306E-05  8424   0.620E-04 0.898E-04
CGA:  41    -0.669252821354E+03   -0.96741E-04    0.30781E-05  8424   0.641E-04 0.224E-04
CGA:  42    -0.669252959994E+03   -0.13864E-03    0.42223E-05  8424   0.604E-04 0.860E-04
CGA:  43    -0.669252998605E+03   -0.38611E-04    0.18924E-04  8424   0.617E-04 0.216E-04
CGA:  44    -0.669253136063E+03   -0.13746E-03    0.38691E-05  8424   0.587E-04 0.825E-04
CGA:  45    -0.669253232078E+03   -0.96016E-04    0.27202E-05  8424   0.589E-04 0.212E-04
CGA:  46    -0.669253366695E+03   -0.13462E-03    0.35917E-05  8424   0.567E-04 0.790E-04
CGA:  47    -0.669253404929E+03   -0.38235E-04    0.14760E-04  8424   0.561E-04 0.211E-04
CGA:  48    -0.669253537485E+03   -0.13256E-03    0.33205E-05  8424   0.545E-04 0.757E-04
CGA:  49    -0.669253631472E+03   -0.93987E-04    0.23515E-05  8424   0.529E-04 0.214E-04
CGA:  50    -0.669253761746E+03   -0.13027E-03    0.30695E-05  8424   0.521E-04 0.724E-04
CGA:  51    -0.669253800866E+03   -0.39120E-04    0.99416E-05  8424   0.498E-04 0.218E-04
CGA:  52    -0.669253928407E+03   -0.12754E-03    0.28661E-05  8424   0.497E-04 0.694E-04
CGA:  53    -0.669254019042E+03   -0.90635E-04    0.19833E-05  8424   0.467E-04 0.225E-04
CGA:  54    -0.669254145199E+03   -0.12616E-03    0.26380E-05  8424   0.472E-04 0.664E-04
CGA:  55    -0.669254186043E+03   -0.40845E-04    0.64177E-05  8424   0.438E-04 0.230E-04
CGA:  56    -0.669254308891E+03   -0.12285E-03    0.24957E-05  8424   0.449E-04 0.638E-04
CGA:  57    -0.669254395509E+03   -0.86618E-04    0.16640E-05  8424   0.412E-04 0.235E-04
CGA:  58    -0.669254439672E+03   -0.44163E-04    0.36786E-05  8424   0.390E-04 0.254E-04
CGA:  59    -0.669254520392E+03   -0.80720E-04    0.13196E-05  8424   0.373E-04 0.266E-04
CGA:  60    -0.669254568285E+03   -0.47892E-04    0.24760E-05  8424   0.360E-04 0.274E-04
CGA:  61    -0.669254644983E+03   -0.76698E-04    0.11748E-05  8424   0.350E-04 0.279E-04
CGA:  62    -0.669254695252E+03   -0.50269E-04    0.19590E-05  8424   0.343E-04 0.281E-04
CGA:  63    -0.669254769345E+03   -0.74093E-04    0.10952E-05  8424   0.337E-04 0.282E-04
CGA:  64    -0.669254820711E+03   -0.51366E-04    0.17248E-05  8424   0.333E-04 0.280E-04
CGA:  65    -0.669254893385E+03   -0.72674E-04    0.10495E-05  8424   0.330E-04 0.278E-04
CGA:  66    -0.669254944799E+03   -0.51414E-04    0.16357E-05  8424   0.328E-04 0.274E-04
CGA:  67    -0.669255016976E+03   -0.72178E-04    0.10269E-05  8424   0.328E-04 0.268E-04
CGA:  68    -0.669255067591E+03   -0.50615E-04    0.16515E-05  8424   0.329E-04 0.261E-04
CGA:  69    -0.669255140010E+03   -0.72419E-04    0.10315E-05  8424   0.333E-04 0.253E-04
CGA:  70    -0.669255189092E+03   -0.49082E-04    0.17897E-05  8424   0.339E-04 0.242E-04
CGA:  71    -0.669255262404E+03   -0.73312E-04    0.10822E-05  8424   0.348E-04 0.229E-04
CGA:  72    -0.669255309228E+03   -0.46824E-04    0.21467E-05  8424   0.362E-04 0.212E-04
CGA:  73    -0.669255384082E+03   -0.74854E-04    0.12245E-05  8424   0.382E-04 0.189E-04
CGA:  74    -0.669255427815E+03   -0.43733E-04    0.30458E-05  8424   0.410E-04 0.160E-04
CGA:  75    -0.669255553232E+03   -0.12542E-03    0.18672E-05  8424   0.371E-04 0.574E-04
CGA:  76    -0.669255629082E+03   -0.75850E-04    0.12772E-05  8424   0.399E-04 0.153E-04
CGA:  77    -0.669255752188E+03   -0.12311E-03    0.17776E-05  8424   0.361E-04 0.556E-04
CGA:  78    -0.669255793162E+03   -0.40974E-04    0.29297E-05  8424   0.390E-04 0.145E-04
CGA:  79    -0.669255916077E+03   -0.12291E-03    0.16659E-05  8424   0.352E-04 0.540E-04
CGA:  80    -0.669255991786E+03   -0.75710E-04    0.11363E-05  8424   0.380E-04 0.138E-04
CGA:  81    -0.669256111989E+03   -0.12020E-03    0.15866E-05  8424   0.344E-04 0.522E-04
CGA:  82    -0.669256150170E+03   -0.38181E-04    0.29076E-05  8424   0.372E-04 0.130E-04
CGA:  83    -0.669256269938E+03   -0.11977E-03    0.14804E-05  8424   0.338E-04 0.505E-04
CGA:  84    -0.669256345597E+03   -0.75659E-04    0.10330E-05  8424   0.363E-04 0.121E-04
CGA:  85    -0.669256462537E+03   -0.11694E-03    0.14078E-05  8424   0.332E-04 0.487E-04
CGA:  86    -0.669256497753E+03   -0.35217E-04    0.30309E-05  8424   0.357E-04 0.112E-04
CGA:  87    -0.669256613911E+03   -0.11616E-03    0.13126E-05  8424   0.328E-04 0.470E-04
CGA:  88    -0.669256689696E+03   -0.75785E-04    0.96289E-06  8424   0.350E-04 0.103E-04
CGA:  89    -0.669256803092E+03   -0.11340E-03    0.12439E-05  8424   0.324E-04 0.453E-04
CGA:  90    -0.669256835178E+03   -0.32086E-04    0.33565E-05  8424   0.344E-04 0.927E-05
CGA:  91    -0.669256947320E+03   -0.11214E-03    0.11609E-05  8424   0.321E-04 0.436E-04
CGA:  92    -0.669257023320E+03   -0.76000E-04    0.91768E-06  8424   0.338E-04 0.834E-05
CGA:  93    -0.669257132751E+03   -0.10943E-03    0.10954E-05  8424   0.318E-04 0.419E-04
CGA:  94    -0.669257161862E+03   -0.29111E-04    0.38412E-05  8424   0.331E-04 0.750E-05
CGA:  95    -0.669257269546E+03   -0.10768E-03    0.10227E-05  8424   0.314E-04 0.402E-04
CGA:  96    -0.669257345336E+03   -0.75789E-04    0.87316E-06  8424   0.321E-04 0.694E-05
CGA:  97    -0.669257450063E+03   -0.10473E-03    0.96285E-06  8424   0.306E-04 0.384E-04
CGA:  98    -0.669257477253E+03   -0.27190E-04    0.39443E-05  8424   0.308E-04 0.675E-05
CGA:  99    -0.669257579997E+03   -0.10274E-03    0.89595E-06  8424   0.295E-04 0.367E-04
CGA: 100    -0.669257654024E+03   -0.74027E-04    0.78386E-06  8424   0.289E-04 0.711E-05
CGA: 101    -0.669257753157E+03   -0.99133E-04    0.84530E-06  8424   0.279E-04 0.348E-04
CGA: 102    -0.669257780750E+03   -0.27593E-04    0.28899E-05  8424   0.266E-04 0.797E-05
CGA: 103    -0.669257878152E+03   -0.97402E-04    0.77938E-06  8424   0.259E-04 0.331E-04
CGA: 104    -0.669257947808E+03   -0.69656E-04    0.63258E-06  8424   0.240E-04 0.922E-05
CGA: 105    -0.669258041208E+03   -0.93400E-04    0.73698E-06  8424   0.238E-04 0.313E-04
CGA: 106    -0.669258071660E+03   -0.30452E-04    0.15856E-05  8424   0.216E-04 0.105E-04
CGA: 107    -0.669258163778E+03   -0.92119E-04    0.67694E-06  8424   0.218E-04 0.298E-04
CGA: 108    -0.669258227293E+03   -0.63515E-04    0.48395E-06  8424   0.195E-04 0.116E-04
CGA: 109    -0.669258260263E+03   -0.32969E-04    0.86047E-06  8424   0.188E-04 0.122E-04
CGA: 110    -0.669258320558E+03   -0.60295E-04    0.37054E-06  8424   0.182E-04 0.124E-04
CGA: 111    -0.669258355006E+03   -0.34448E-04    0.69424E-06  8424   0.178E-04 0.126E-04
CGA: 112    -0.669258413131E+03   -0.58125E-04    0.34467E-06  8424   0.174E-04 0.126E-04
CGA: 113    -0.669258448448E+03   -0.35317E-04    0.60631E-06  8424   0.171E-04 0.126E-04
CGA: 114    -0.669258505015E+03   -0.56568E-04    0.32848E-06  8424   0.169E-04 0.126E-04
CGA: 115    -0.669258540618E+03   -0.35603E-04    0.56085E-06  8424   0.168E-04 0.124E-04
CGA: 116    -0.669258596179E+03   -0.55562E-04    0.31956E-06  8424   0.167E-04 0.122E-04
CGA: 117    -0.669258631556E+03   -0.35376E-04    0.54631E-06  8424   0.166E-04 0.120E-04
CGA: 118    -0.669258686587E+03   -0.55031E-04    0.31797E-06  8424   0.167E-04 0.116E-04
CGA: 119    -0.669258721288E+03   -0.34700E-04    0.56123E-06  8424   0.168E-04 0.112E-04
CGA: 120    -0.669258776208E+03   -0.54921E-04    0.32603E-06  8424   0.171E-04 0.107E-04
CGA: 121    -0.669258809815E+03   -0.33607E-04    0.61497E-06  8424   0.174E-04 0.101E-04
CGA: 122    -0.669258865020E+03   -0.55204E-04    0.34966E-06  8424   0.179E-04 0.939E-05
CGA: 123    -0.669258897110E+03   -0.32090E-04    0.73673E-06  8424   0.187E-04 0.846E-05
CGA: 124    -0.669258986836E+03   -0.89725E-04    0.53372E-06  8424   0.173E-04 0.272E-04
CGA: 125    -0.669259041841E+03   -0.55005E-04    0.34582E-06  8424   0.180E-04 0.822E-05
CGA: 126    -0.669259129645E+03   -0.87804E-04    0.50846E-06  8424   0.166E-04 0.262E-04
CGA: 127    -0.669259159826E+03   -0.30181E-04    0.67051E-06  8424   0.174E-04 0.796E-05
CGA: 128    -0.669259246914E+03   -0.87088E-04    0.47902E-06  8424   0.160E-04 0.254E-04
CGA: 129    -0.669259300806E+03   -0.53892E-04    0.30028E-06  8424   0.167E-04 0.777E-05
CGA: 130    -0.669259385584E+03   -0.84777E-04    0.45679E-06  8424   0.154E-04 0.245E-04
CGA: 131    -0.669259414098E+03   -0.28514E-04    0.60507E-06  8424   0.161E-04 0.756E-05
CGA: 132    -0.669259498140E+03   -0.84043E-04    0.42764E-06  8424   0.148E-04 0.237E-04
CGA: 133    -0.669259550759E+03   -0.52619E-04    0.26140E-06  8424   0.154E-04 0.740E-05
CGA: 134    -0.669259632338E+03   -0.81578E-04    0.40784E-06  8424   0.143E-04 0.228E-04
CGA: 135    -0.669259659408E+03   -0.27071E-04    0.54124E-06  8424   0.148E-04 0.723E-05
CGA: 136    -0.669259711924E+03   -0.52515E-04    0.25904E-06  8424   0.154E-04 0.643E-05
CGA: 137    -0.669259791839E+03   -0.79915E-04    0.37942E-06  8424   0.143E-04 0.218E-04
CGA: 138    -0.669259816992E+03   -0.25154E-04    0.60083E-06  8424   0.148E-04 0.622E-05
CGA: 139    -0.669259895716E+03   -0.78724E-04    0.35428E-06  8424   0.138E-04 0.209E-04
CGA: 140    -0.669259947177E+03   -0.51461E-04    0.23091E-06  8424   0.143E-04 0.601E-05
CGA: 141    -0.669260023883E+03   -0.76706E-04    0.33722E-06  8424   0.134E-04 0.202E-04
CGA: 142    -0.669260047463E+03   -0.23579E-04    0.56287E-06  8424   0.137E-04 0.581E-05
CGA: 143    -0.669260122934E+03   -0.75471E-04    0.31569E-06  8424   0.130E-04 0.194E-04
CGA: 144    -0.669260173240E+03   -0.50306E-04    0.20642E-06  8424   0.132E-04 0.563E-05
[...]
CGA:  48    -0.669882951262E+03   -0.12605E-03    0.10719E-05  8424   0.546E-04 0.516E-05
CGA:  49    -0.669883250349E+03   -0.29909E-03    0.44764E-05  8424   0.349E-04 0.227E-04
CGA:  50    -0.669883437869E+03   -0.18752E-03    0.46589E-05  8424   0.353E-04 0.131E-04
CGA:  51    -0.669883748815E+03   -0.31095E-03    0.23504E-05  8424   0.562E-04 0.183E-05
CGA:  52    -0.669884219071E+03   -0.47026E-03    0.22181E-05  8424   0.438E-04 0.341E-04
CGA:  53    -0.669884216244E+03    0.28267E-05   -0.57158E-05  8424   0.141E-04 0.225E-04
  30 F= -.66988422E+03 E0= -.66988422E+03  d E =-.505710E+00  mag=     2.0000
       N       E                     dE             d eps       ncg     rms          ort
SDA:   1    -0.667530970564E+03    0.23532E+01    0.00000E+00  8424   0.676E+01 0.000E+00
CGA:   2    -0.669004955583E+03   -0.14740E+01   -0.14749E+01  8424   0.305E+01 0.492E-03
CGA:   3    -0.669639746198E+03   -0.63479E+00   -0.63463E+00  8424   0.893E+00 0.346E-03
CGA:   4    -0.669782339629E+03   -0.14259E+00   -0.14269E+00  8424   0.210E+00 0.146E-03
CGA:   5    -0.669819027083E+03   -0.36687E-01   -0.36759E-01  8424   0.448E-01 0.226E-03
CGA:   6    -0.669827850008E+03   -0.88229E-02   -0.88306E-02  8424   0.103E-01 0.257E-04
CGA:   7    -0.669830142014E+03   -0.22920E-02   -0.23062E-02  8424   0.304E-02 0.703E-04
CGA:   8    -0.669830878193E+03   -0.73618E-03   -0.74267E-03  8424   0.930E-03 0.377E-04
CGA:   9    -0.669831125389E+03   -0.24720E-03   -0.25158E-03  8424   0.306E-03 0.316E-04
CGA:  10    -0.669831212872E+03   -0.87483E-04   -0.91755E-04  8424   0.124E-03 0.393E-04
CGA:  11    -0.669831245336E+03   -0.32465E-04   -0.36970E-04  8424   0.484E-04 0.347E-04
CGA:  12    -0.669831254440E+03   -0.91040E-05   -0.13972E-04  8424   0.261E-04 0.300E-04
  31 F= -.66983125E+03 E0= -.66983125E+03  d E =0.529618E-01  mag=     2.0000
       N       E                     dE             d eps       ncg     rms          ort
SDA:   1    -0.649579361823E+03    0.20252E+02    0.00000E+00  8424   0.629E+02 0.000E+00
CGA:   2    -0.662077395536E+03   -0.12498E+02   -0.12591E+02  8424   0.273E+02-0.136E-01
CGA:   3    -0.667869068162E+03   -0.57917E+01   -0.57723E+01  8424   0.798E+01 0.598E-01
CGA:   4    -0.669196325861E+03   -0.13273E+01   -0.13312E+01  8424   0.191E+01 0.436E-02
CGA:   5    -0.669518742580E+03   -0.32242E+00   -0.32374E+00  8424   0.436E+00 0.250E-02
CGA:   6    -0.669603407809E+03   -0.84665E-01   -0.84462E-01  8424   0.102E+00-0.941E-03
CGA:   7    -0.669625894048E+03   -0.22486E-01   -0.22599E-01  8424   0.303E-01 0.102E-02
CGA:   8    -0.669633305246E+03   -0.74112E-02   -0.74287E-02  8424   0.959E-02 0.212E-03
CGA:   9    -0.669636104733E+03   -0.27995E-02   -0.27813E-02  8424   0.360E-02-0.538E-03
CGA:  10    -0.669637160288E+03   -0.10556E-02   -0.10543E-02  8424   0.155E-02-0.127E-03
CGA:  11    -0.669637702915E+03   -0.54263E-03   -0.58580E-03  8424   0.112E-02-0.593E-03
CGA:  12    -0.669637881867E+03   -0.17895E-03   -0.16692E-03  8424   0.507E-03-0.149E-03
CGA:  13    -0.669637967158E+03   -0.85290E-04   -0.28455E-03  8424   0.163E-02-0.613E-03
CGA:  14    -0.669638301385E+03   -0.33423E-03   -0.33108E-03  8424   0.264E-03-0.239E-04
CGA:  15    -0.669638389426E+03   -0.88041E-04   -0.15755E-03  8424   0.924E-03-0.253E-03
CGA:  16    -0.669638492137E+03   -0.10271E-03   -0.11899E-03  8424   0.106E-03 0.770E-04
CGA:  17    -0.669638577378E+03   -0.85241E-04    0.16115E-03  8424   0.637E-04 0.140E-04
CGA:  18    -0.669638653719E+03   -0.76341E-04    0.20127E-04  8424   0.858E-04 0.243E-04
CGA:  19    -0.669638796173E+03   -0.14245E-03    0.24316E-04  8424   0.738E-04 0.847E-04
CGA:  20    -0.669638875534E+03   -0.79361E-04    0.19731E-04  8424   0.677E-04 0.241E-05
CGA:  21    -0.669638958184E+03   -0.82649E-04    0.14859E-04  8424   0.438E-04 0.386E-04
CGA:  22    -0.669638987603E+03   -0.29419E-04    0.58716E-03  8424   0.327E-04 0.213E-04
CGA:  23    -0.669639070930E+03   -0.83327E-04    0.51257E-05  8424   0.307E-04 0.387E-04
CGA:  24    -0.669639115577E+03   -0.44647E-04    0.42766E-05  8424   0.253E-04 0.235E-04
CGA:  25    -0.669639155862E+03   -0.40285E-04    0.29879E-05  8424   0.246E-04 0.228E-04
CGA:  26    -0.669639196312E+03   -0.40449E-04    0.27565E-05  8424   0.246E-04 0.220E-04
CGA:  27    -0.669639235833E+03   -0.39521E-04    0.28901E-05  8424   0.261E-04 0.203E-04
CGA:  28    -0.669639272082E+03   -0.36249E-04    0.39855E-05  8424   0.320E-04 0.163E-04
CGA:  29    -0.669639313029E+03   -0.40948E-04    0.57078E-05  8424   0.523E-04 0.442E-05
CGA:  30    -0.669639410219E+03   -0.97190E-04    0.67647E-05  8424   0.393E-04 0.566E-04
CGA:  31    -0.669639441263E+03   -0.31044E-04    0.34662E-04  8424   0.793E-04-0.131E-04
CGA:  32    -0.669639547841E+03   -0.10658E-03    0.43044E-05  8424   0.128E-03 0.450E-04
CGA:  33    -0.669639570273E+03   -0.22432E-04   -0.20181E-04  8424   0.298E-04-0.130E-04
CGA:  34    -0.669639602805E+03   -0.32532E-04    0.49310E-05  8424   0.233E-04 0.195E-04
CGA:  35    -0.669639652389E+03   -0.49583E-04    0.16498E-05  8424   0.256E-04 0.108E-04
CGA:  36    -0.669639709986E+03   -0.57598E-04    0.44104E-05  8424   0.222E-04 0.358E-04
CGA:  37    -0.669639730569E+03   -0.20583E-04    0.83472E-05  8424   0.214E-04 0.110E-04
CGA:  38    -0.669639790455E+03   -0.59885E-04    0.27218E-05  8424   0.210E-04 0.310E-04
CGA:  39    -0.669639823585E+03   -0.33130E-04    0.23574E-05  8424   0.185E-04 0.112E-04
CGA:  40    -0.669639845206E+03   -0.21621E-04    0.36910E-05  8424   0.167E-04 0.126E-04
CGA:  41    -0.669639878473E+03   -0.33267E-04    0.13013E-05  8424   0.157E-04 0.133E-04
CGA:  42    -0.669639897797E+03   -0.19323E-04    0.27859E-05  8424   0.150E-04 0.135E-04
CGA:  43    -0.669639930659E+03   -0.32862E-04    0.10191E-05  8424   0.146E-04 0.134E-04
CGA:  44    -0.669639947937E+03   -0.17278E-04    0.28654E-05  8424   0.144E-04 0.132E-04
CGA:  45    -0.669639981311E+03   -0.33375E-04    0.89909E-06  8424   0.143E-04 0.128E-04
CGA:  46    -0.669639995317E+03   -0.14006E-04    0.44337E-05  8424   0.142E-04 0.123E-04
CGA:  47    -0.669640030715E+03   -0.35398E-04    0.80843E-06  8424   0.144E-04 0.117E-04
CGA:  48    -0.669640052772E+03   -0.22058E-04   -0.16474E-07  8424   0.268E-03-0.769E-05
CGA:  49    -0.669640236113E+03   -0.18334E-03   -0.10321E-03  8424   0.644E-03-0.393E-03
CGA:  50    -0.669640233205E+03    0.29079E-05   -0.73388E-04  8424   0.480E-04 0.164E-03
  32 F= -.66964023E+03 E0= -.66964023E+03  d E =0.191021E+00  mag=     2.0000
       N       E                     dE             d eps       ncg     rms          ort
SDA:   1    -0.637581831286E+03    0.32058E+02    0.00000E+00  8424   0.105E+03 0.000E+00
CGA:   2    -0.657806620719E+03   -0.20225E+02   -0.20392E+02  8424   0.406E+02 0.721E+00
CGA:   3    -0.666671432452E+03   -0.88648E+01   -0.88226E+01  8424   0.126E+02 0.347E+00
CGA:   4    -0.668814847565E+03   -0.21434E+01   -0.21545E+01  8424   0.316E+01 0.234E-01
CGA:   5    -0.669359402296E+03   -0.54455E+00   -0.54730E+00  8424   0.722E+00 0.114E-02
CGA:   6    -0.669499397438E+03   -0.14000E+00   -0.13956E+00  8424   0.167E+00-0.309E-03
CGA:   7    -0.669536760347E+03   -0.37363E-01   -0.37611E-01  8424   0.514E-01 0.110E-02
CGA:   8    -0.669549414364E+03   -0.12654E-01   -0.12715E-01  8424   0.165E-01 0.315E-03
CGA:   9    -0.669554110584E+03   -0.46962E-02   -0.46360E-02  8424   0.571E-02-0.390E-03
CGA:  10    -0.669555891853E+03   -0.17813E-02   -0.17639E-02  8424   0.249E-02-0.159E-03
CGA:  11    -0.669556787025E+03   -0.89517E-03   -0.86057E-03  8424   0.133E-02-0.545E-03
CGA:  12    -0.669557124135E+03   -0.33711E-03   -0.31473E-03  8424   0.671E-03-0.199E-03
CGA:  13    -0.669552828158E+03    0.42960E-02   -0.11645E-02  8424   0.337E-01-0.337E-02
CGA:  14    -0.669557475772E+03   -0.46476E-02   -0.48274E-02  8424   0.471E-02 0.754E-03
CGA:  15    -0.669558883376E+03   -0.14076E-02   -0.13236E-02  8424   0.108E-02-0.421E-03
CGA:  16    -0.669559279106E+03   -0.39573E-03   -0.37905E-03  8424   0.558E-03-0.211E-03
CGA:  17    -0.669557160557E+03    0.21185E-02   -0.80531E-03  8424   0.212E-01-0.220E-02
CGA:  18    -0.669559786277E+03   -0.26257E-02   -0.27328E-02  8424   0.181E-02 0.461E-03
CGA:  19    -0.669560519753E+03   -0.73348E-03   -0.68371E-03  8424   0.816E-03-0.361E-03
CGA:  20    -0.669560787030E+03   -0.26728E-03   -0.23971E-03  8424   0.600E-03-0.207E-03
CGA:  21    -0.669560194162E+03    0.59287E-03   -0.57091E-03  8424   0.682E-02-0.150E-02
CGA:  22    -0.669561322454E+03   -0.11283E-02   -0.11682E-02  8424   0.109E-02 0.118E-03
CGA:  23    -0.669561795618E+03   -0.47316E-03   -0.44067E-03  8424   0.520E-03-0.277E-03
CGA:  24    -0.669561966516E+03   -0.17090E-03   -0.16113E-03  8424   0.499E-03-0.104E-03
CGA:  25    -0.669562081495E+03   -0.11498E-03   -0.27136E-03  8424   0.254E-02-0.893E-03
CGA:  26    -0.669562386413E+03   -0.30492E-03   -0.34784E-03  8424   0.344E-03 0.123E-03
CGA:  27    -0.669562503797E+03   -0.11738E-03   -0.31556E-03  8424   0.121E-02-0.521E-03
CGA:  28    -0.669562833345E+03   -0.32955E-03   -0.32210E-03  8424   0.229E-03-0.305E-04
CGA:  29    -0.669562947796E+03   -0.11445E-03   -0.77340E-04  8424   0.418E-03-0.241E-03
CGA:  30    -0.669562996246E+03   -0.48450E-04   -0.54252E-04  8424   0.391E-04 0.167E-04
CGA:  31    -0.669563119926E+03   -0.12368E-03    0.44000E-05  8424   0.403E-04 0.283E-05
CGA:  32    -0.669563335681E+03   -0.21575E-03    0.24104E-05  8424   0.740E-04 0.159E-04
CGA:  33    -0.669563837985E+03   -0.50230E-03    0.59393E-05  8424   0.447E-04 0.730E-04
CGA:  34    -0.669563953202E+03   -0.11522E-03    0.62179E-05  8424   0.131E-03-0.333E-04
CGA:  35    -0.669563970183E+03   -0.16981E-04   -0.18459E-04  8424   0.165E-04 0.444E-05
CGA:  36    -0.669564065132E+03   -0.94949E-04    0.76698E-06  8424   0.225E-04 0.113E-04
CGA:  37    -0.669564153277E+03   -0.88145E-04    0.15717E-05  8424   0.580E-04-0.739E-05
CGA:  38    -0.669564445898E+03   -0.29262E-03    0.12386E-05  8424   0.113E-03 0.266E-04
CGA:  39    -0.669565054399E+03   -0.60850E-03    0.12501E-04  8424   0.269E-03-0.366E-04
CGA:  40    -0.669566605177E+03   -0.15508E-02    0.50256E-05  8424   0.577E-03 0.304E-04
CGA:  41    -0.669570009794E+03   -0.34046E-02    0.30831E-04  8424   0.148E-02-0.840E-03
CGA:  42    -0.669570194817E+03   -0.18502E-03   -0.21141E-03  8424   0.489E-04 0.837E-04
CGA:  43    -0.669570189763E+03    0.50538E-05   -0.56492E-05  8424   0.215E-04 0.321E-04
  33 F= -.66957019E+03 E0= -.66957019E+03  d E =0.700434E-01  mag=     2.0000
       N       E                     dE             d eps       ncg     rms          ort
SDA:   1    -0.668055923377E+03    0.15143E+01    0.00000E+00  8424   0.466E+01 0.000E+00
CGA:   2    -0.669134404669E+03   -0.10785E+01   -0.10795E+01  8424   0.228E+01 0.468E-03
CGA:   3    -0.669590915418E+03   -0.45651E+00   -0.45600E+00  8424   0.626E+00 0.280E-03
CGA:   4    -0.669689591069E+03   -0.98676E-01   -0.98801E-01  8424   0.144E+00 0.300E-03
CGA:   5    -0.669714565976E+03   -0.24975E-01   -0.25012E-01  8424   0.308E-01 0.132E-03
CGA:   6    -0.669720675505E+03   -0.61095E-02   -0.60802E-02  8424   0.742E-02-0.172E-03
CGA:   7    -0.669722242239E+03   -0.15667E-02   -0.15927E-02  8424   0.209E-02 0.180E-03
CGA:   8    -0.669722742362E+03   -0.50012E-03   -0.50809E-03  8424   0.632E-03 0.689E-04
CGA:   9    -0.669722895881E+03   -0.15352E-03   -0.16150E-03  8424   0.201E-03 0.804E-04
CGA:  10    -0.669722936997E+03   -0.41115E-04   -0.50616E-04  8424   0.802E-04 0.803E-04
CGA:  11    -0.669722947635E+03   -0.10638E-04   -0.19904E-04  8424   0.384E-04 0.583E-04
CGA:  12    -0.669722946495E+03    0.11398E-05   -0.48717E-05  8424   0.256E-04 0.299E-04
  34 F= -.66972295E+03 E0= -.66972295E+03  d E =-.152757E+00  mag=     2.0000
       N       E                     dE             d eps       ncg     rms          ort
SDA:   1    -0.641917260397E+03    0.27806E+02    0.00000E+00  8424   0.946E+02 0.000E+00
CGA:   2    -0.659045550656E+03   -0.17128E+02   -0.17256E+02  8424   0.366E+02 0.139E+00
CGA:   3    -0.667033494599E+03   -0.79879E+01   -0.79743E+01  8424   0.113E+02-0.603E-02
CGA:   4    -0.668962570424E+03   -0.19291E+01   -0.19336E+01  8424   0.283E+01 0.956E-02
CGA:   5    -0.669434793819E+03   -0.47222E+00   -0.47397E+00  8424   0.656E+00 0.606E-02
CGA:   6    -0.669562253476E+03   -0.12746E+00   -0.12733E+00  8424   0.149E+00-0.846E-03
CGA:   7    -0.669595507900E+03   -0.33254E-01   -0.33370E-01  8424   0.457E-01 0.209E-02
CGA:   8    -0.669606492663E+03   -0.10985E-01   -0.11027E-01  8424   0.142E-01 0.109E-02
CGA:   9    -0.669610542438E+03   -0.40498E-02   -0.40502E-02  8424   0.503E-02-0.111E-03
CGA:  10    -0.669611916962E+03   -0.13745E-02   -0.13742E-02  8424   0.200E-02 0.490E-03
CGA:  11    -0.669612539098E+03   -0.62214E-03   -0.62073E-03  8424   0.792E-03 0.178E-03
CGA:  12    -0.669612694830E+03   -0.15573E-03   -0.17648E-03  8424   0.303E-03 0.292E-03
CGA:  13    -0.669612742800E+03   -0.47970E-04   -0.71657E-04  8424   0.179E-03 0.238E-03
CGA:  14    -0.669612757180E+03   -0.14380E-04   -0.28805E-04  8424   0.127E-03 0.136E-03
CGA:  15    -0.669612755418E+03    0.17619E-05   -0.15250E-04  8424   0.115E-03 0.120E-03
CGA:  16    -0.669612753006E+03    0.24120E-05   -0.13189E-04  8424   0.108E-03 0.111E-03
CGA:  17    -0.669612749318E+03    0.36877E-05   -0.11413E-04  8424   0.104E-03 0.106E-03
CGA:  18    -0.669612745028E+03    0.42904E-05   -0.10244E-04  8424   0.101E-03 0.102E-03
  35 F= -.66961275E+03 E0= -.66961275E+03  d E =0.110201E+00  mag=     2.0000
       N       E                     dE             d eps       ncg     rms          ort
SDA:   1    -0.659443117651E+03    0.10170E+02    0.00000E+00  8424   0.332E+02 0.000E+00
CGA:   2    -0.666060145559E+03   -0.66170E+01   -0.66201E+01  8424   0.135E+02 0.595E-01
CGA:   3    -0.668931378026E+03   -0.28712E+01   -0.28708E+01  8424   0.435E+01-0.226E-01
CGA:   4    -0.669638479465E+03   -0.70710E+00   -0.70757E+00  8424   0.106E+01 0.357E-02
CGA:   5    -0.669822885496E+03   -0.18441E+00   -0.18459E+00  8424   0.234E+00 0.336E-02
CGA:   6    -0.669868155011E+03   -0.45270E-01   -0.45257E-01  8424   0.533E-01-0.487E-03
CGA:   7    -0.669879664800E+03   -0.11510E-01   -0.11512E-01  8424   0.154E-01 0.153E-02
CGA:   8    -0.669883399000E+03   -0.37342E-02   -0.37195E-02  8424   0.448E-02 0.842E-03
CGA:   9    -0.669884581356E+03   -0.11824E-02   -0.11669E-02  8424   0.135E-02 0.537E-03
CGA:  10    -0.669884879003E+03   -0.29765E-03   -0.30708E-03  8424   0.516E-03 0.567E-03
CGA:  11    -0.669884967745E+03   -0.88743E-04   -0.11421E-03  8424   0.249E-03 0.404E-03
CGA:  12    -0.669884979878E+03   -0.12133E-04   -0.30237E-04  8424   0.161E-03 0.191E-03
CGA:  13    -0.669884974828E+03    0.50507E-05   -0.13640E-04  8424   0.136E-03 0.148E-03
  36 F= -.66988497E+03 E0= -.66988497E+03  d E =-.272230E+00  mag=     2.0000
       N       E                     dE             d eps       ncg     rms          ort
SDA:   1    -0.660399219657E+03    0.94858E+01    0.00000E+00  8424   0.261E+02 0.000E+00
CGA:   2    -0.666369741332E+03   -0.59705E+01   -0.59690E+01  8424   0.126E+02 0.335E-01
CGA:   3    -0.668933552539E+03   -0.25638E+01   -0.25639E+01  8424   0.342E+01-0.117E-01
CGA:   4    -0.669473905806E+03   -0.54035E+00   -0.54049E+00  8424   0.783E+00 0.201E-02
CGA:   5    -0.669610432188E+03   -0.13653E+00   -0.13659E+00  8424   0.170E+00 0.243E-02
CGA:   6    -0.669644206861E+03   -0.33775E-01   -0.33774E-01  8424   0.397E-01 0.384E-03
CGA:   7    -0.669652925402E+03   -0.87185E-02   -0.86950E-02  8424   0.113E-01 0.107E-02
CGA:   8    -0.669655657266E+03   -0.27319E-02   -0.27048E-02  8424   0.338E-02 0.747E-03
CGA:   9    -0.669656556202E+03   -0.89894E-03   -0.87538E-03  8424   0.106E-02 0.546E-03
CGA:  10    -0.669656809212E+03   -0.25301E-03   -0.25174E-03  8424   0.432E-03 0.506E-03
CGA:  11    -0.669656879587E+03   -0.70375E-04   -0.92058E-04  8424   0.216E-03 0.377E-03
CGA:  12    -0.669656889332E+03   -0.97455E-05   -0.24573E-04  8424   0.147E-03 0.173E-03
CGA:  13    -0.669656887528E+03    0.18046E-05   -0.12769E-04  8424   0.124E-03 0.135E-03
  37 F= -.66965689E+03 E0= -.66965689E+03  d E =0.228087E+00  mag=     2.0000
       N       E                     dE             d eps       ncg     rms          ort
SDA:   1    -0.639981927312E+03    0.29675E+02    0.00000E+00  8424   0.102E+03 0.000E+00
CGA:   2    -0.658317075050E+03   -0.18335E+02   -0.18339E+02  8424   0.388E+02 0.701E+00
CGA:   3    -0.666855761448E+03   -0.85387E+01   -0.85452E+01  8424   0.122E+02-0.155E+00
CGA:   4    -0.668929159257E+03   -0.20734E+01   -0.20740E+01  8424   0.307E+01 0.217E-01
CGA:   5    -0.669442800389E+03   -0.51364E+00   -0.51397E+00  8424   0.708E+00 0.145E-01
CGA:   6    -0.669580463521E+03   -0.13766E+00   -0.13768E+00  8424   0.161E+00-0.161E-02
CGA:   7    -0.669616230614E+03   -0.35767E-01   -0.35619E-01  8424   0.489E-01 0.392E-02
CGA:   8    -0.669628030367E+03   -0.11800E-01   -0.11687E-01  8424   0.146E-01 0.239E-02
CGA:   9    -0.669632195888E+03   -0.41655E-02   -0.41157E-02  8424   0.494E-02 0.624E-03
CGA:  10    -0.669633459438E+03   -0.12635E-02   -0.12109E-02  8424   0.182E-02 0.124E-02
CGA:  11    -0.669633937068E+03   -0.47763E-03   -0.46785E-03  8424   0.654E-03 0.833E-03
CGA:  12    -0.669634034177E+03   -0.97109E-04   -0.13067E-03  8424   0.327E-03 0.577E-03
CGA:  13    -0.669634033626E+03    0.55067E-06   -0.28551E-04  8424   0.241E-03 0.277E-03
CGA:  14    -0.669634024763E+03    0.88634E-05   -0.17053E-04  8424   0.206E-03 0.223E-03
CGA:  15    -0.669634013537E+03    0.11225E-04   -0.12368E-04  8424   0.184E-03 0.195E-03
CGA:  16    -0.669634001623E+03    0.11915E-04   -0.97384E-05  8424   0.170E-03 0.177E-03
CGA:  17    -0.669633989652E+03    0.11971E-04   -0.80232E-05  8424   0.159E-03 0.164E-03
CGA:  18    -0.669633977905E+03    0.11747E-04   -0.68037E-05  8424   0.150E-03 0.155E-03
CGA:  19    -0.669633966515E+03    0.11390E-04   -0.58867E-05  8424   0.143E-03 0.147E-03
CGA:  20    -0.669633955543E+03    0.10972E-04   -0.51695E-05  8424   0.137E-03 0.140E-03
CGA:  21    -0.669633945015E+03    0.10528E-04   -0.45919E-05  8424   0.133E-03 0.135E-03
CGA:  22    -0.669633934938E+03    0.10077E-04   -0.41160E-05  8424   0.128E-03 0.131E-03
CGA:  23    -0.669633925307E+03    0.96315E-05   -0.37169E-05  8424   0.125E-03 0.127E-03
  38 F= -.66963393E+03 E0= -.66963393E+03  d E =0.229622E-01  mag=     2.0000
       N       E                     dE             d eps       ncg     rms          ort
SDA:   1    -0.660408664898E+03    0.92253E+01    0.00000E+00  8424   0.301E+02 0.000E+00
CGA:   2    -0.666429127332E+03   -0.60205E+01   -0.60128E+01  8424   0.121E+02 0.936E-01
CGA:   3    -0.669011997036E+03   -0.25829E+01   -0.25855E+01  8424   0.397E+01-0.321E-01
CGA:   4    -0.669657706959E+03   -0.64571E+00   -0.64548E+00  8424   0.970E+00 0.598E-02
CGA:   5    -0.669826597504E+03   -0.16889E+00   -0.16867E+00  8424   0.208E+00 0.529E-02
CGA:   6    -0.669867182338E+03   -0.40585E-01   -0.40624E-01  8424   0.475E-01-0.705E-03
CGA:   7    -0.669877471483E+03   -0.10289E-01   -0.10118E-01  8424   0.135E-01 0.228E-02
CGA:   8    -0.669880764062E+03   -0.32926E-02   -0.31797E-02  8424   0.376E-02 0.136E-02
CGA:   9    -0.669881769779E+03   -0.10057E-02   -0.93669E-03  8424   0.114E-02 0.860E-03
CGA:  10    -0.669881990250E+03   -0.22047E-03   -0.21674E-03  8424   0.524E-03 0.748E-03
CGA:  11    -0.669882045421E+03   -0.55171E-04   -0.65359E-04  8424   0.322E-03 0.392E-03
CGA:  12    -0.669882059222E+03   -0.13801E-04   -0.29997E-04  8424   0.261E-03 0.288E-03
CGA:  13    -0.669882062407E+03   -0.31850E-05   -0.20040E-04  8424   0.226E-03 0.242E-03
CGA:  14    -0.669882060993E+03    0.14145E-05   -0.14977E-04  8424   0.203E-03 0.214E-03
CGA:  15    -0.669882057249E+03    0.37434E-05   -0.11873E-04  8424   0.186E-03 0.194E-03
