       N       E                     dE             d eps       ncg     rms          ort
DAV:   1     0.827225653925E+04    0.82723E+04   -0.24654E+05  8424   0.238E+03
DAV:   2     0.919392232429E+03   -0.73529E+04   -0.69016E+04  8424   0.657E+02
DAV:   3    -0.674340544110E+03   -0.15937E+04   -0.14004E+04  8424   0.282E+02
DAV:   4    -0.830374051379E+03   -0.15603E+03   -0.15333E+03  8424   0.857E+01
DAV:   5    -0.832868248029E+03   -0.24942E+01   -0.24835E+01  8424   0.122E+01
SDA:   6    -0.265053883743E+03    0.56781E+03   -0.24835E+01  8424   0.368E+04 0.000E+00
CGA:   7    -0.603005343961E+03   -0.33795E+03   -0.40103E+03  8424   0.738E+03 0.384E+02
CGA:   8    -0.633000137856E+03   -0.29995E+02   -0.47777E+02  8424   0.353E+03-0.169E+02
CGA:   9    -0.642358618049E+03   -0.93585E+01   -0.31496E+02  8424   0.164E+03-0.237E+02
CGA:  10    -0.652078006632E+03   -0.97194E+01   -0.11332E+02  8424   0.191E+03 0.610E+01
CGA:  11    -0.651004408759E+03    0.10736E+01   -0.11344E+02  8424   0.196E+03-0.760E+02
CGA:  12    -0.658547240405E+03   -0.75428E+01   -0.78325E+01  8424   0.101E+03-0.137E+02
CGA:  13    -0.658241468097E+03    0.30577E+00   -0.66883E+01  8424   0.169E+03-0.156E+02
CGA:  14    -0.656793232628E+03    0.14482E+01   -0.79452E+01  8424   0.183E+03-0.379E+02
CGA:  15    -0.660179024331E+03   -0.33858E+01   -0.68508E+01  8424   0.459E+02-0.592E+02
CGA:  16    -0.661127998763E+03   -0.94897E+00   -0.17145E+01  8424   0.488E+02-0.557E+00
CGA:  17    -0.661854004054E+03   -0.72601E+00   -0.29641E+01  8424   0.736E+02-0.128E+02
CGA:  18    -0.664702205428E+03   -0.28482E+01   -0.28366E+01  8424   0.269E+02 0.162E+01
CGA:  19    -0.665006798622E+03   -0.30459E+00   -0.96075E+00  8424   0.445E+02-0.194E+02
CGA:  20    -0.665242911838E+03   -0.23611E+00   -0.26754E+01  8424   0.319E+02-0.934E+01
CGA:  21    -0.666549087722E+03   -0.13062E+01   -0.63360E+00  8424   0.207E+02 0.269E+02
CGA:  22    -0.666912839139E+03   -0.36375E+00   -0.69507E+00  8424   0.187E+02-0.146E+02
CGA:  23    -0.667015096918E+03   -0.10226E+00   -0.89494E+00  8424   0.178E+02-0.797E+01
CGA:  24    -0.668016547803E+03   -0.10015E+01   -0.83293E+00  8424   0.386E+01-0.249E+00
CGA:  25    -0.668280917255E+03   -0.26437E+00   -0.31594E+00  8424   0.308E+01 0.407E+00
CGA:  26    -0.668591137139E+03   -0.31022E+00   -0.32330E+00  8424   0.232E+01 0.205E+00
CGA:  27    -0.668806043182E+03   -0.21491E+00   -0.21568E+00  8424   0.102E+01 0.259E-01
CGA:  28    -0.668918885640E+03   -0.11284E+00   -0.11299E+00  8424   0.448E+00 0.940E-01
CGA:  29    -0.668965674915E+03   -0.46789E-01   -0.46952E-01  8424   0.291E+00 0.658E-02
CGA:  30    -0.669041854616E+03   -0.76180E-01   -0.68261E-01  8424   0.109E+00 0.596E-01
CGA:  31    -0.669062022359E+03   -0.20168E-01   -0.21210E-01  8424   0.254E+00-0.208E-01
CGA:  32    -0.669090508394E+03   -0.28486E-01   -0.45198E-01  8424   0.928E+00-0.161E+00
CGA:  33    -0.669154546165E+03   -0.64038E-01   -0.72215E-01  8424   0.102E+00-0.247E-01
CGA:  34    -0.669183106601E+03   -0.28560E-01   -0.32455E-01  8424   0.182E+00-0.191E-01
CGA:  35    -0.669205995214E+03   -0.22889E-01   -0.11804E-01  8424   0.695E+00-0.171E+00
CGA:  36    -0.669310754920E+03   -0.10476E+00   -0.10564E+00  8424   0.181E+00-0.177E-01
CGA:  37    -0.669368942870E+03   -0.58188E-01   -0.58933E-01  8424   0.672E-01-0.704E-02
CGA:  38    -0.669392814336E+03   -0.23871E-01   -0.25700E-01  8424   0.465E-01-0.114E-01
CGA:  39    -0.669405290289E+03   -0.12476E-01   -0.16935E-01  8424   0.695E-01-0.230E-01
CGA:  40    -0.669416210578E+03   -0.10920E-01   -0.13672E-01  8424   0.414E-01-0.209E-01
CGA:  41    -0.669424489842E+03   -0.82793E-02   -0.85055E-02  8424   0.326E-01-0.763E-02
CGA:  42    -0.669433389895E+03   -0.89001E-02   -0.11485E-01  8424   0.332E-01-0.156E-01
CGA:  43    -0.669438223364E+03   -0.48335E-02   -0.49346E-02  8424   0.191E-01-0.958E-02
CGA:  44    -0.669441916725E+03   -0.36934E-02   -0.36901E-02  8424   0.146E-01-0.163E-02
CGA:  45    -0.669446266773E+03   -0.43500E-02   -0.43487E-02  8424   0.118E-01 0.449E-05
CGA:  46    -0.669449659716E+03   -0.33929E-02   -0.33829E-02  8424   0.825E-02 0.873E-03
CGA:  47    -0.669451620889E+03   -0.19612E-02   -0.20818E-02  8424   0.418E-02 0.282E-02
CGA:  48    -0.669452548294E+03   -0.92740E-03   -0.10946E-02  8424   0.240E-02 0.207E-02
CGA:  49    -0.669453513300E+03   -0.96501E-03   -0.96694E-03  8424   0.184E-02 0.133E-02
CGA:  50    -0.669454328249E+03   -0.81495E-03   -0.91554E-03  8424   0.361E-02-0.455E-03
CGA:  51    -0.669455060846E+03   -0.73260E-03   -0.74084E-03  8424   0.254E-02 0.798E-03
CGA:  52    -0.669455713236E+03   -0.65239E-03   -0.70380E-03  8424   0.219E-02 0.916E-03
CGA:  53    -0.669456977417E+03   -0.12642E-02   -0.12096E-02  8424   0.300E-02 0.373E-03
CGA:  54    -0.669459086502E+03   -0.21091E-02   -0.23282E-02  8424   0.103E-01-0.820E-03
CGA:  55    -0.669461169121E+03   -0.20826E-02   -0.20564E-02  8424   0.150E-01-0.214E-02
CGA:  56    -0.669464828186E+03   -0.36591E-02   -0.37021E-02  8424   0.254E-01-0.799E-02
CGA:  57    -0.669471435688E+03   -0.66075E-02   -0.64494E-02  8424   0.122E-01-0.326E-02
CGA:  58    -0.669475198200E+03   -0.37625E-02   -0.39387E-02  8424   0.684E-02-0.258E-02
CGA:  59    -0.669467476668E+03    0.77215E-02   -0.76796E-02  8424   0.831E-01-0.139E-01
CGA:  60    -0.669482638247E+03   -0.15162E-01   -0.15035E-01  8424   0.103E-01-0.418E-03
CGA:  61    -0.669485540512E+03   -0.29023E-02   -0.28008E-02  8424   0.350E-02-0.130E-02
CGA:  62    -0.669486861685E+03   -0.13212E-02   -0.13857E-02  8424   0.194E-02-0.617E-03
CGA:  63    -0.669488059959E+03   -0.11983E-02    0.42319E-02  8424   0.160E-02-0.391E-03
CGA:  64    -0.669489490874E+03   -0.14309E-02    0.38013E-03  8424   0.806E-03 0.789E-03
CGA:  65    -0.669490557748E+03   -0.10669E-02    0.82197E-03  8424   0.871E-03 0.320E-03
CGA:  66    -0.669492356459E+03   -0.17987E-02    0.19567E-03  8424   0.909E-03 0.747E-03
CGA:  67    -0.669493026561E+03   -0.67010E-03    0.35373E-02  8424   0.684E-03 0.160E-04
CGA:  68    -0.669493861112E+03   -0.83455E-03    0.17530E-03  8424   0.558E-03 0.409E-03
CGA:  69    -0.669494334471E+03   -0.47336E-03    0.48598E-03  8424   0.415E-03 0.188E-03
CGA:  70    -0.669495207598E+03   -0.87313E-03    0.79095E-04  8424   0.467E-03 0.450E-03
CGA:  71    -0.669495710542E+03   -0.50294E-03    0.15552E-03  8424   0.359E-03 0.234E-03
CGA:  72    -0.669496235234E+03   -0.52469E-03    0.59026E-04  8424   0.398E-03 0.244E-03
CGA:  73    -0.669496658593E+03   -0.42336E-03    0.13846E-03  8424   0.566E-03 0.154E-03
CGA:  74    -0.669497915166E+03   -0.12566E-02    0.10882E-03  8424   0.388E-03 0.758E-03
CGA:  75    -0.669498444313E+03   -0.52915E-03    0.73145E-04  8424   0.531E-03 0.178E-03
CGA:  76    -0.669499655513E+03   -0.12112E-02    0.11214E-03  8424   0.370E-03 0.725E-03
CGA:  77    -0.669500162776E+03   -0.50726E-03    0.69106E-04  8424   0.393E-03 0.240E-03
CGA:  78    -0.669500677840E+03   -0.51506E-03    0.80846E-04  8424   0.524E-03 0.176E-03
CGA:  79    -0.669501882194E+03   -0.12044E-02    0.10669E-03  8424   0.393E-03 0.702E-03
CGA:  80    -0.669502429716E+03   -0.54752E-03    0.71173E-04  8424   0.391E-03 0.222E-03
CGA:  81    -0.669502923760E+03   -0.49404E-03    0.86746E-04  8424   0.430E-03 0.207E-03
CGA:  82    -0.669503455777E+03   -0.53202E-03    0.10029E-03  8424   0.580E-03 0.126E-03
CGA:  83    -0.669504727778E+03   -0.12720E-02    0.94161E-04  8424   0.474E-03 0.700E-03
CGA:  84    -0.669505183202E+03   -0.45542E-03    0.23037E-03  8424   0.523E-03 0.115E-03
CGA:  85    -0.669506314563E+03   -0.11314E-02    0.77950E-04  8424   0.501E-03 0.614E-03
CGA:  86    -0.669506933011E+03   -0.61845E-03    0.11780E-03  8424   0.458E-03 0.127E-03
CGA:  87    -0.669507930853E+03   -0.99784E-03    0.68928E-04  8424   0.474E-03 0.551E-03
CGA:  88    -0.669508456586E+03   -0.52573E-03    0.14602E-03  8424   0.381E-03 0.182E-03
CGA:  89    -0.669509429014E+03   -0.97243E-03    0.57233E-04  8424   0.429E-03 0.510E-03
CGA:  90    -0.669510007016E+03   -0.57800E-03    0.83063E-04  8424   0.337E-03 0.225E-03
CGA:  91    -0.669510541260E+03   -0.53424E-03    0.47587E-04  8424   0.311E-03 0.271E-03
CGA:  92    -0.669511104462E+03   -0.56320E-03    0.34800E-04  8424   0.303E-03 0.285E-03
CGA:  93    -0.669511633289E+03   -0.52883E-03    0.36193E-04  8424   0.301E-03 0.288E-03
CGA:  94    -0.669512205233E+03   -0.57194E-03    0.31336E-04  8424   0.302E-03 0.287E-03
CGA:  95    -0.669512725456E+03   -0.52022E-03    0.36939E-04  8424   0.306E-03 0.284E-03
CGA:  96    -0.669513318389E+03   -0.59293E-03    0.30952E-04  8424   0.317E-03 0.276E-03
CGA:  97    -0.669513808373E+03   -0.48998E-03    0.46845E-04  8424   0.341E-03 0.258E-03
CGA:  98    -0.669514444222E+03   -0.63585E-03    0.36541E-04  8424   0.396E-03 0.220E-03
CGA:  99    -0.669514851061E+03   -0.40684E-03    0.15208E-03  8424   0.521E-03 0.136E-03
CGA: 100    -0.669516186018E+03   -0.13350E-02    0.72215E-04  8424   0.405E-03 0.686E-03
CGA: 101    -0.669516860783E+03   -0.67477E-03    0.52498E-04  8424   0.543E-03 0.113E-03
CGA: 102    -0.669518166428E+03   -0.13056E-02    0.73140E-04  8424   0.435E-03 0.682E-03
CGA: 103    -0.669518550660E+03   -0.38423E-03    0.30419E-03  8424   0.608E-03 0.594E-04
CGA: 104    -0.669519922046E+03   -0.13714E-02    0.67023E-04  8424   0.532E-03 0.681E-03
CGA: 105    -0.669520637195E+03   -0.71515E-03    0.10352E-03  8424   0.800E-03-0.858E-04
CGA: 106    -0.669522036628E+03   -0.13994E-02    0.60371E-04  8424   0.914E-03 0.651E-03
CGA: 107    -0.669522272646E+03   -0.23602E-03   -0.22097E-03  8424   0.546E-03-0.138E-03
CGA: 108    -0.669523192365E+03   -0.91972E-03    0.43229E-04  8424   0.442E-03 0.438E-03
CGA: 109    -0.669523873000E+03   -0.68064E-03    0.62989E-04  8424   0.551E-03 0.512E-04
CGA: 110    -0.669525107900E+03   -0.12349E-02    0.56391E-04  8424   0.505E-03 0.590E-03
CGA: 111    -0.669525498307E+03   -0.39041E-03    0.76665E-03  8424   0.594E-03-0.867E-05
CGA: 112    -0.669526718775E+03   -0.12205E-02    0.50325E-04  8424   0.573E-03 0.540E-03
CGA: 113    -0.669527422532E+03   -0.70376E-03    0.12887E-03  8424   0.587E-03-0.441E-04
CGA: 114    -0.669528511149E+03   -0.10886E-02    0.49535E-04  8424   0.559E-03 0.480E-03
CGA: 115    -0.669528980204E+03   -0.46905E-03    0.46352E-03  8424   0.466E-03 0.194E-04
CGA: 116    -0.669530017793E+03   -0.10376E-02    0.39849E-04  8424   0.447E-03 0.431E-03
CGA: 117    -0.669530646157E+03   -0.62836E-03    0.75488E-04  8424   0.331E-03 0.136E-03
CGA: 118    -0.669531587736E+03   -0.94158E-03    0.34902E-04  8424   0.362E-03 0.406E-03
CGA: 119    -0.669532138805E+03   -0.55107E-03    0.52625E-04  8424   0.279E-03 0.191E-03
CGA: 120    -0.669532709982E+03   -0.57118E-03    0.24745E-04  8424   0.257E-03 0.226E-03
CGA: 121    -0.669533244814E+03   -0.53483E-03    0.22288E-04  8424   0.250E-03 0.236E-03
CGA: 122    -0.669533814882E+03   -0.57007E-03    0.19003E-04  8424   0.248E-03 0.238E-03
CGA: 123    -0.669534345821E+03   -0.53094E-03    0.20640E-04  8424   0.248E-03 0.238E-03
CGA: 124    -0.669534925302E+03   -0.57948E-03    0.18162E-04  8424   0.250E-03 0.235E-03
CGA: 125    -0.669535440798E+03   -0.51550E-03    0.22038E-04  8424   0.257E-03 0.229E-03
CGA: 126    -0.669536043625E+03   -0.60283E-03    0.18656E-04  8424   0.272E-03 0.216E-03
CGA: 127    -0.669536517003E+03   -0.47338E-03    0.31307E-04  8424   0.307E-03 0.191E-03
CGA: 128    -0.669537168095E+03   -0.65109E-03    0.25932E-04  8424   0.386E-03 0.136E-03
CGA: 129    -0.669538409915E+03   -0.12418E-02    0.43599E-04  8424   0.296E-03 0.544E-03
CGA: 130    -0.669538847835E+03   -0.43792E-03    0.45141E-04  8424   0.366E-03 0.142E-03
CGA: 131    -0.669540122340E+03   -0.12745E-02    0.39236E-04  8424   0.279E-03 0.529E-03
CGA: 132    -0.669540756688E+03   -0.63435E-03    0.21243E-04  8424   0.333E-03 0.156E-03
CGA: 133    -0.669541155512E+03   -0.39882E-03    0.79479E-04  8424   0.451E-03 0.731E-04
CGA: 134    -0.669542479360E+03   -0.13238E-02    0.38589E-04  8424   0.374E-03 0.542E-03
CGA: 135    -0.669543162800E+03   -0.68344E-03    0.39802E-04  8424   0.534E-03 0.469E-05
CGA: 136    -0.669544494971E+03   -0.13322E-02    0.36758E-04  8424   0.521E-03 0.534E-03
CGA: 137    -0.669544383303E+03    0.11167E-03   -0.41812E-03  8424   0.653E-02-0.117E-02
CGA: 138    -0.669546054150E+03   -0.16708E-02   -0.13001E-02  8424   0.114E-02-0.218E-02
CGA: 139    -0.669546608558E+03   -0.55441E-03    0.91976E-02  8424   0.357E-03 0.548E-04
CGA: 140    -0.669547488775E+03   -0.88022E-03    0.29965E-04  8424   0.240E-03 0.253E-03
CGA: 141    -0.669547987081E+03   -0.49831E-03    0.23111E-04  8424   0.268E-03 0.170E-03
CGA: 142    -0.669548638203E+03   -0.65112E-03    0.20435E-04  8424   0.335E-03 0.124E-03
CGA: 143    -0.669549896001E+03   -0.12578E-02    0.34679E-04  8424   0.256E-03 0.476E-03
CGA: 144    -0.669550376735E+03   -0.48073E-03    0.28812E-04  8424   0.297E-03 0.138E-03
CGA: 145    -0.669551039309E+03   -0.66257E-03    0.25630E-04  8424   0.387E-03 0.749E-04
CGA: 146    -0.669552324449E+03   -0.12851E-02    0.32803E-04  8424   0.324E-03 0.472E-03
CGA: 147    -0.669552758202E+03   -0.43375E-03    0.68262E-04  8424   0.404E-03 0.432E-04
CGA: 148    -0.669554045006E+03   -0.12868E-02    0.28658E-04  8424   0.374E-03 0.442E-03
CGA: 149    -0.669554703038E+03   -0.65803E-03    0.47039E-04  8424   0.412E-03 0.341E-05
CGA: 150    -0.669555848105E+03   -0.11451E-02    0.26671E-04  8424   0.410E-03 0.395E-03
CGA: 151    -0.669556331579E+03   -0.48347E-03    0.11709E-03  8424   0.371E-03-0.154E-05
CGA: 152    -0.669557409520E+03   -0.10779E-02    0.21925E-04  8424   0.371E-03 0.353E-03
CGA: 153    -0.669558019050E+03   -0.60953E-03    0.52603E-04  8424   0.287E-03 0.588E-04
CGA: 154    -0.669558984248E+03   -0.96520E-03    0.19854E-04  8424   0.305E-03 0.325E-03
CGA: 155    -0.669559533494E+03   -0.54925E-03    0.36815E-04  8424   0.232E-03 0.116E-03
CGA: 156    -0.669560497290E+03   -0.96380E-03    0.18306E-04  8424   0.268E-03 0.313E-03
CGA: 157    -0.669561067318E+03   -0.57003E-03    0.24988E-04  8424   0.210E-03 0.140E-03
CGA: 158    -0.669561610831E+03   -0.54351E-03    0.14681E-04  8424   0.192E-03 0.170E-03
CGA: 159    -0.669562166005E+03   -0.55517E-03    0.11548E-04  8424   0.187E-03 0.179E-03
CGA: 160    -0.669562707204E+03   -0.54120E-03    0.11180E-04  8424   0.185E-03 0.181E-03
CGA: 161    -0.669563263210E+03   -0.55601E-03    0.10527E-04  8424   0.184E-03 0.181E-03
CGA: 162    -0.669563802668E+03   -0.53946E-03    0.10842E-04  8424   0.184E-03 0.181E-03
CGA: 163    -0.669564363791E+03   -0.56112E-03    0.10253E-04  8424   0.184E-03 0.180E-03
CGA: 164    -0.669564895197E+03   -0.53141E-03    0.11068E-04  8424   0.186E-03 0.178E-03
CGA: 165    -0.669565470859E+03   -0.57566E-03    0.10188E-04  8424   0.192E-03 0.174E-03
CGA: 166    -0.669565973826E+03   -0.50297E-03    0.13152E-04  8424   0.209E-03 0.162E-03
CGA: 167    -0.669566587015E+03   -0.61319E-03    0.12362E-04  8424   0.260E-03 0.131E-03
CGA: 168    -0.669566999989E+03   -0.41297E-03    0.39039E-04  8424   0.405E-03 0.448E-04
CGA: 169    -0.669568428614E+03   -0.14286E-02    0.27058E-04  8424   0.324E-03 0.467E-03
CGA: 170    -0.669569108013E+03   -0.67940E-03    0.30668E-04  8424   0.580E-03-0.654E-04
CGA: 171    -0.669570640519E+03   -0.15325E-02    0.23359E-04  8424   0.761E-03 0.449E-03
CGA: 172    -0.669570815033E+03   -0.17451E-03   -0.15602E-03  8424   0.327E-03-0.120E-03
CGA: 173    -0.669571615662E+03   -0.80063E-03    0.15707E-04  8424   0.228E-03 0.259E-03
CGA: 174    -0.669572242535E+03   -0.62687E-03    0.13999E-04  8424   0.304E-03 0.897E-04
CGA: 175    -0.669573470115E+03   -0.12276E-02    0.24021E-04  8424   0.226E-03 0.409E-03
CGA: 176    -0.669573896759E+03   -0.42664E-03    0.23780E-04  8424   0.283E-03 0.961E-04
CGA: 177    -0.669575129165E+03   -0.12324E-02    0.21530E-04  8424   0.220E-03 0.386E-03
CGA: 178    -0.669575732593E+03   -0.60343E-03    0.13450E-04  8424   0.243E-03 0.114E-03
CGA: 179    -0.669576141593E+03   -0.40900E-03    0.30933E-04  8424   0.314E-03 0.668E-04
CGA: 180    -0.669577379739E+03   -0.12381E-02    0.20909E-04  8424   0.262E-03 0.390E-03
CGA: 181    -0.669578007615E+03   -0.62788E-03    0.19290E-04  8424   0.322E-03 0.488E-04
CGA: 182    -0.669579169085E+03   -0.11615E-02    0.20409E-04  8424   0.291E-03 0.367E-03
CGA: 183    -0.669579583518E+03   -0.41443E-03    0.50555E-04  8424   0.321E-03 0.305E-04
CGA: 184    -0.669580705219E+03   -0.11217E-02    0.18043E-04  8424   0.307E-03 0.333E-03
CGA: 185    -0.669581317769E+03   -0.61255E-03    0.29852E-04  8424   0.284E-03 0.392E-04
CGA: 186    -0.669582300778E+03   -0.98301E-03    0.16913E-04  8424   0.280E-03 0.297E-03
CGA: 187    -0.669582786995E+03   -0.48622E-03    0.34035E-04  8424   0.225E-03 0.826E-04
CGA: 188    -0.669583727805E+03   -0.94081E-03    0.14388E-04  8424   0.240E-03 0.275E-03
CGA: 189    -0.669584279664E+03   -0.55186E-03    0.18738E-04  8424   0.189E-03 0.118E-03
CGA: 190    -0.669585198642E+03   -0.91898E-03    0.13878E-04  8424   0.216E-03 0.270E-03
CGA: 191    -0.669585712711E+03   -0.51407E-03    0.16166E-04  8424   0.176E-03 0.132E-03
CGA: 192    -0.669586239348E+03   -0.52664E-03    0.96316E-05  8424   0.166E-03 0.149E-03
CGA: 193    -0.669586745385E+03   -0.50604E-03    0.87932E-05  8424   0.162E-03 0.154E-03
CGA: 194    -0.669587271745E+03   -0.52636E-03    0.79542E-05  8424   0.161E-03 0.156E-03
CGA: 195    -0.669587775531E+03   -0.50379E-03    0.82735E-05  8424   0.161E-03 0.156E-03
CGA: 196    -0.669588307697E+03   -0.53217E-03    0.76903E-05  8424   0.161E-03 0.156E-03
CGA: 197    -0.669588801506E+03   -0.49381E-03    0.85638E-05  8424   0.164E-03 0.154E-03
CGA: 198    -0.669589350698E+03   -0.54919E-03    0.77590E-05  8424   0.172E-03 0.149E-03
CGA: 199    -0.669589811894E+03   -0.46120E-03    0.10815E-04  8424   0.191E-03 0.136E-03
CGA: 200    -0.669590402907E+03   -0.59101E-03    0.10014E-04  8424   0.242E-03 0.104E-03
   1 F= -.66959040E+03 E0= -.66959040E+03  d E =-.669590E+03  mag=     2.0000
       N       E                     dE             d eps       ncg     rms          ort
SDA:   1    -0.669594960220E+03   -0.51483E-02    0.00000E+00  8424   0.448E-02 0.000E+00
CGA:   2    -0.669595710146E+03   -0.74993E-03   -0.74479E-03  8424   0.152E-02-0.274E-04
CGA:   3    -0.669588546222E+03    0.71639E-02   -0.24233E-02  8424   0.645E-01-0.765E-02
CGA:   4    -0.669596403653E+03   -0.78574E-02   -0.78639E-02  8424   0.105E-01-0.402E-04
CGA:   5    -0.669599115147E+03   -0.27115E-02   -0.25428E-02  8424   0.415E-02-0.113E-02
CGA:   6    -0.669600141908E+03   -0.10268E-02   -0.86984E-03  8424   0.224E-02-0.105E-02
CGA:   7    -0.669600777969E+03   -0.63606E-03   -0.66245E-03  8424   0.264E-02-0.148E-02
CGA:   8    -0.669601567845E+03   -0.78988E-03   -0.61554E-03  8424   0.181E-02-0.120E-02
CGA:   9    -0.669602510229E+03   -0.94238E-03    0.63714E-03  8424   0.113E-02-0.419E-03
CGA:  10    -0.669603534706E+03   -0.10245E-02    0.27484E-03  8424   0.923E-03-0.104E-03
CGA:  11    -0.669605063641E+03   -0.15289E-02    0.10651E-03  8424   0.107E-02-0.122E-03
CGA:  12    -0.669607240123E+03   -0.21765E-02    0.79221E-04  8424   0.718E-03 0.437E-03
CGA:  13    -0.669609154829E+03   -0.19147E-02    0.12139E-03  8424   0.890E-03 0.111E-03
CGA:  14    -0.669612348144E+03   -0.31933E-02    0.59776E-04  8424   0.981E-03 0.396E-03
CGA:  15    -0.669616442237E+03   -0.40941E-02    0.90999E-04  8424   0.108E-02 0.665E-03
CGA:  16    -0.669616703852E+03   -0.26162E-03   -0.25855E-03  8424   0.436E-03-0.244E-04
CGA:  17    -0.669617510151E+03   -0.80630E-03    0.48698E-04  8424   0.305E-03 0.463E-04
CGA:  18    -0.669618491011E+03   -0.98086E-03    0.20582E-04  8424   0.279E-03 0.212E-03
CGA:  19    -0.669619012877E+03   -0.52187E-03    0.32382E-04  8424   0.269E-03 0.865E-04
CGA:  20    -0.669620062094E+03   -0.10492E-02    0.20937E-04  8424   0.245E-03 0.176E-03
CGA:  21    -0.669620549292E+03   -0.48720E-03    0.25741E-04  8424   0.288E-03 0.774E-04
CGA:  22    -0.669621592176E+03   -0.10429E-02    0.25011E-04  8424   0.261E-03 0.203E-03
CGA:  23    -0.669622182107E+03   -0.58993E-03    0.22676E-04  8424   0.301E-03 0.651E-04
CGA:  24    -0.669623241292E+03   -0.10592E-02    0.23983E-04  8424   0.329E-03 0.166E-03
CGA:  25    -0.669623763623E+03   -0.52233E-03    0.50894E-04  8424   0.448E-03-0.118E-04
CGA:  26    -0.669624818630E+03   -0.10550E-02    0.33602E-04  8424   0.506E-03 0.736E-04
CGA:  27    -0.669626715208E+03   -0.18966E-02    0.31380E-04  8424   0.471E-03 0.515E-03
CGA:  28    -0.669627301149E+03   -0.58594E-03    0.12128E-03  8424   0.959E-03-0.219E-03
CGA:  29    -0.669628648024E+03   -0.13469E-02    0.36041E-04  8424   0.134E-02-0.258E-03
CGA:  30    -0.669630856773E+03   -0.22087E-02    0.84638E-04  8424   0.412E-02-0.541E-03
CGA:  31    -0.669639200997E+03   -0.83442E-02    0.12206E-03  8424   0.891E-02 0.394E-03
CGA:  32    -0.669658119685E+03   -0.18919E-01    0.10742E-02  8424   0.263E-01-0.835E-02
CGA:  33    -0.669661471442E+03   -0.33518E-02   -0.34585E-02  8424   0.384E-02 0.565E-03
CGA:  34    -0.669662776230E+03   -0.13048E-02   -0.12778E-02  8424   0.856E-03-0.994E-03
CGA:  35    -0.669663407685E+03   -0.63146E-03    0.26843E-03  8424   0.248E-03 0.171E-03
CGA:  36    -0.669663954157E+03   -0.54647E-03    0.32445E-04  8424   0.245E-03 0.553E-04
CGA:  37    -0.669664922914E+03   -0.96876E-03    0.14643E-04  8424   0.321E-03 0.218E-03
CGA:  38    -0.669665379433E+03   -0.45652E-03    0.55272E-04  8424   0.234E-03 0.370E-04
CGA:  39    -0.669666086815E+03   -0.70738E-03    0.15988E-04  8424   0.333E-03 0.980E-04
CGA:  40    -0.669667556118E+03   -0.14693E-02    0.24263E-04  8424   0.261E-03 0.423E-03
CGA:  41    -0.669667957877E+03   -0.40176E-03    0.38698E-04  8424   0.275E-03 0.265E-04
CGA:  42    -0.669668800477E+03   -0.84260E-03    0.18076E-04  8424   0.284E-03 0.161E-03
CGA:  43    -0.669669240230E+03   -0.43975E-03    0.41366E-04  8424   0.278E-03 0.220E-04
CGA:  44    -0.669670044358E+03   -0.80413E-03    0.18724E-04  8424   0.314E-03 0.125E-03
CGA:  45    -0.669671432742E+03   -0.13884E-02    0.23986E-04  8424   0.277E-03 0.381E-03
CGA:  46    -0.669671846365E+03   -0.41362E-03    0.43450E-04  8424   0.292E-03 0.200E-04
CGA:  47    -0.669672679377E+03   -0.83301E-03    0.19758E-04  8424   0.291E-03 0.142E-03
CGA:  48    -0.669673984600E+03   -0.13052E-02    0.23034E-04  8424   0.289E-03 0.343E-03
CGA:  49    -0.669674386363E+03   -0.40176E-03    0.51948E-04  8424   0.339E-03-0.659E-05
CGA:  50    -0.669675302736E+03   -0.91637E-03    0.19801E-04  8424   0.301E-03 0.157E-03
CGA:  51    -0.669676581743E+03   -0.12790E-02    0.24710E-04  8424   0.352E-03 0.293E-03
CGA:  52    -0.669676922424E+03   -0.34068E-03    0.16376E-03  8424   0.514E-03-0.109E-03
CGA:  53    -0.669677913516E+03   -0.99109E-03    0.20962E-04  8424   0.517E-03 0.147E-03
CGA:  54    -0.669679428969E+03   -0.15155E-02    0.52172E-04  8424   0.968E-03 0.464E-04
CGA:  55    -0.669682624086E+03   -0.31951E-02    0.56031E-04  8424   0.136E-02 0.632E-03
CGA:  56    -0.669682926787E+03   -0.30270E-03   -0.27327E-03  8424   0.275E-03-0.196E-03
CGA:  57    -0.669683499295E+03   -0.57251E-03    0.15997E-04  8424   0.223E-03 0.819E-04
CGA:  58    -0.669684324460E+03   -0.82517E-03    0.15757E-04  8424   0.157E-03 0.222E-03
CGA:  59    -0.669684682184E+03   -0.35772E-03    0.11641E-04  8424   0.171E-03 0.879E-04
CGA:  60    -0.669685156445E+03   -0.47426E-03    0.96820E-05  8424   0.226E-03 0.528E-04
CGA:  61    -0.669686098214E+03   -0.94177E-03    0.13971E-04  8424   0.180E-03 0.285E-03
CGA:  62    -0.669686432078E+03   -0.33386E-03    0.18169E-04  8424   0.222E-03 0.472E-04
CGA:  63    -0.669687372668E+03   -0.94059E-03    0.12454E-04  8424   0.193E-03 0.267E-03
CGA:  64    -0.669687836844E+03   -0.46418E-03    0.13273E-04  8424   0.200E-03 0.473E-04
CGA:  65    -0.669688644752E+03   -0.80791E-03    0.11489E-04  8424   0.196E-03 0.234E-03
CGA:  66    -0.669689031967E+03   -0.38722E-03    0.18048E-04  8424   0.162E-03 0.632E-04
CGA:  67    -0.669689784399E+03   -0.75243E-03    0.89177E-05  8424   0.179E-03 0.207E-03
CGA:  68    -0.669690204780E+03   -0.42038E-03    0.12711E-04  8424   0.137E-03 0.854E-04
CGA:  69    -0.669690910353E+03   -0.70557E-03    0.85048E-05  8424   0.163E-03 0.195E-03
CGA:  70    -0.669691322596E+03   -0.41224E-03    0.10466E-04  8424   0.126E-03 0.977E-04
CGA:  71    -0.669691730090E+03   -0.40749E-03    0.58581E-05  8424   0.119E-03 0.113E-03
CGA:  72    -0.669692130676E+03   -0.40059E-03    0.52306E-05  8424   0.117E-03 0.116E-03
CGA:  73    -0.669692538883E+03   -0.40821E-03    0.49662E-05  8424   0.117E-03 0.116E-03
CGA:  74    -0.669692937720E+03   -0.39884E-03    0.50651E-05  8424   0.116E-03 0.116E-03
CGA:  75    -0.669693349197E+03   -0.41148E-03    0.48485E-05  8424   0.116E-03 0.116E-03
CGA:  76    -0.669693742273E+03   -0.39308E-03    0.51311E-05  8424   0.117E-03 0.115E-03
CGA:  77    -0.669694163758E+03   -0.42148E-03    0.47506E-05  8424   0.119E-03 0.113E-03
CGA:  78    -0.669694535075E+03   -0.37132E-03    0.58386E-05  8424   0.128E-03 0.107E-03
CGA:  79    -0.669694988343E+03   -0.45327E-03    0.53165E-05  8424   0.157E-03 0.907E-04
CGA:  80    -0.669695284987E+03   -0.29664E-03    0.15369E-04  8424   0.248E-03 0.386E-04
CGA:  81    -0.669696350810E+03   -0.10658E-02    0.13280E-04  8424   0.178E-03 0.302E-03
CGA:  82    -0.669696857087E+03   -0.50628E-03    0.97268E-05  8424   0.306E-03 0.369E-06
CGA:  83    -0.669697950344E+03   -0.10933E-02    0.12585E-04  8424   0.300E-03 0.302E-03
CGA:  84    -0.669698017953E+03   -0.67609E-04   -0.16061E-03  8424   0.201E-02-0.490E-03
CGA:  85    -0.669698752976E+03   -0.73502E-03   -0.60201E-03  8424   0.350E-02-0.243E-02
CGA:  86    -0.669699021218E+03   -0.26824E-03   -0.39350E-03  8424   0.161E-03 0.526E-03
CGA:  87    -0.669699239159E+03   -0.21794E-03    0.42957E-04  8424   0.458E-03-0.712E-04
CGA:  88    -0.669700446981E+03   -0.12078E-02    0.72877E-05  8424   0.197E-02 0.164E-04
CGA:  89    -0.669707743236E+03   -0.72963E-02    0.80508E-04  8424   0.150E-02 0.184E-02
CGA:  90    -0.669707779286E+03   -0.36049E-04   -0.79796E-03  8424   0.119E-01-0.395E-02
CGA:  91    -0.669708902496E+03   -0.11232E-02   -0.14319E-02  8424   0.252E-03 0.137E-02
CGA:  92    -0.669708976312E+03   -0.73816E-04   -0.13354E-03  8424   0.139E-02-0.432E-03
CGA:  93    -0.669708753306E+03    0.22301E-03   -0.83691E-03  8424   0.139E-01-0.414E-02
CGA:  94    -0.669710172215E+03   -0.14189E-02   -0.17545E-02  8424   0.254E-03 0.147E-02
CGA:  95    -0.669710170618E+03    0.15967E-05   -0.17746E-03  8424   0.247E-02-0.627E-03
CGA:  96    -0.669711046316E+03   -0.87570E-03   -0.73623E-03  8424   0.251E-02-0.228E-02
CGA:  97    -0.669711271566E+03   -0.22525E-03   -0.31937E-03  8424   0.134E-03 0.411E-03
CGA:  98    -0.669711500567E+03   -0.22900E-03    0.24133E-04  8424   0.294E-03-0.439E-04
CGA:  99    -0.669712514359E+03   -0.10138E-02    0.53420E-05  8424   0.872E-03 0.920E-04
CGA: 100    -0.669716609921E+03   -0.40956E-02    0.47191E-04  8424   0.379E-03 0.828E-03
CGA: 101    -0.669716966090E+03   -0.35617E-03    0.18168E-03  8424   0.235E-03-0.147E-03
CGA: 102    -0.669717513736E+03   -0.54765E-03    0.54916E-05  8424   0.168E-03 0.130E-03
CGA: 103    -0.669717853687E+03   -0.33995E-03    0.14976E-04  8424   0.102E-03 0.220E-04
CGA: 104    -0.669718371360E+03   -0.51767E-03    0.36418E-05  8424   0.108E-03 0.111E-03
CGA: 105    -0.669718698310E+03   -0.32695E-03    0.55488E-05  8424   0.788E-04 0.551E-04
CGA: 106    -0.669719018708E+03   -0.32040E-03    0.27849E-05  8424   0.721E-04 0.667E-04
CGA: 107    -0.669719336377E+03   -0.31767E-03    0.23111E-05  8424   0.702E-04 0.689E-04
CGA: 108    -0.669719652708E+03   -0.31633E-03    0.21896E-05  8424   0.693E-04 0.690E-04
CGA: 109    -0.669719968140E+03   -0.31543E-03    0.21355E-05  8424   0.686E-04 0.686E-04
CGA: 110    -0.669720281999E+03   -0.31386E-03    0.21032E-05  8424   0.680E-04 0.681E-04
CGA: 111    -0.669720595346E+03   -0.31335E-03    0.20672E-05  8424   0.674E-04 0.675E-04
CGA: 112    -0.669720906373E+03   -0.31103E-03    0.20468E-05  8424   0.669E-04 0.669E-04
CGA: 113    -0.669721217617E+03   -0.31124E-03    0.20092E-05  8424   0.664E-04 0.663E-04
CGA: 114    -0.669721524956E+03   -0.30734E-03    0.20096E-05  8424   0.664E-04 0.654E-04
CGA: 115    -0.669721834408E+03   -0.30945E-03    0.19908E-05  8424   0.680E-04 0.637E-04
CGA: 116    -0.669722135643E+03   -0.30123E-03    0.21664E-05  8424   0.770E-04 0.585E-04
CGA: 117    -0.669722440521E+03   -0.30488E-03    0.28038E-05  8424   0.119E-03 0.377E-04
CGA: 118    -0.669723221747E+03   -0.78123E-03    0.57057E-05  8424   0.650E-04 0.163E-03
CGA: 119    -0.669723510091E+03   -0.28834E-03    0.20706E-05  8424   0.722E-04 0.564E-04
CGA: 120    -0.669723819500E+03   -0.30941E-03    0.23904E-05  8424   0.105E-03 0.397E-04
CGA: 121    -0.669724064604E+03   -0.24510E-03    0.76179E-05  8424   0.255E-03-0.313E-04
CGA: 122    -0.669725037053E+03   -0.97245E-03    0.44887E-05  8424   0.472E-03 0.159E-03
CGA: 123    -0.669724781748E+03    0.25530E-03   -0.30200E-03  8424   0.943E-02-0.190E-02
CGA: 124    -0.669725742964E+03   -0.96122E-03   -0.10132E-02  8424   0.857E-04 0.237E-03
CGA: 125    -0.669726004687E+03   -0.26172E-03    0.46329E-05  8424   0.126E-03 0.113E-04
CGA: 126    -0.669726719449E+03   -0.71476E-03    0.39875E-05  8424   0.134E-03 0.122E-03
CGA: 127    -0.669727008499E+03   -0.28905E-03    0.11048E-04  8424   0.135E-03-0.217E-04
CGA: 128    -0.669727561040E+03   -0.55254E-03    0.32390E-05  8424   0.133E-03 0.931E-04
CGA: 129    -0.669727837641E+03   -0.27660E-03    0.11509E-04  8424   0.933E-04 0.428E-06
CGA: 130    -0.669728307982E+03   -0.47034E-03    0.26087E-05  8424   0.881E-04 0.809E-04
CGA: 131    -0.669728579886E+03   -0.27190E-03    0.44373E-05  8424   0.608E-04 0.355E-04
CGA: 132    -0.669729033684E+03   -0.45380E-03    0.22262E-05  8424   0.692E-04 0.769E-04
CGA: 133    -0.669729300438E+03   -0.26675E-03    0.26373E-05  8424   0.525E-04 0.439E-04
CGA: 134    -0.669729567526E+03   -0.26709E-03    0.14434E-05  8424   0.510E-04 0.468E-04
CGA: 135    -0.669729822972E+03   -0.25545E-03    0.14276E-05  8424   0.517E-04 0.462E-04
CGA: 136    -0.669730092237E+03   -0.26927E-03    0.13815E-05  8424   0.556E-04 0.433E-04
CGA: 137    -0.669730334880E+03   -0.24264E-03    0.18296E-05  8424   0.692E-04 0.350E-04
CGA: 138    -0.669730611748E+03   -0.27687E-03    0.25240E-05  8424   0.115E-03 0.919E-05
CGA: 139    -0.669731300773E+03   -0.68902E-03    0.34453E-05  8424   0.896E-04 0.127E-03
CGA: 140    -0.669731503612E+03   -0.20284E-03    0.68932E-05  8424   0.200E-03-0.358E-04
CGA: 141    -0.669732277507E+03   -0.77390E-03    0.25176E-05  8424   0.397E-03 0.101E-03
CGA: 142    -0.669730720470E+03    0.15570E-02   -0.42172E-03  8424   0.230E-01-0.277E-02
CGA: 143    -0.669733188392E+03   -0.24679E-02   -0.25841E-02  8424   0.104E-03 0.602E-03
CGA: 144    -0.669733406702E+03   -0.21831E-03    0.11116E-04  8424   0.176E-03-0.486E-04
CGA: 145    -0.669734062410E+03   -0.65571E-03    0.20356E-05  8424   0.319E-03 0.414E-04
CGA: 146    -0.669735599069E+03   -0.15367E-02    0.17049E-04  8424   0.269E-03 0.105E-03
CGA: 147    -0.669737037002E+03   -0.14379E-02    0.14930E-04  8424   0.383E-03 0.471E-04
CGA: 148    -0.669739473518E+03   -0.24365E-02    0.13180E-04  8424   0.223E-03 0.286E-03
CGA: 149    -0.669739731400E+03   -0.25788E-03    0.73011E-04  8424   0.578E-03-0.260E-03
CGA: 150    -0.669739813192E+03   -0.81791E-04   -0.77710E-04  8424   0.347E-04-0.165E-04
CGA: 151    -0.669740024103E+03   -0.21091E-03    0.77662E-06  8424   0.300E-04 0.283E-04
CGA: 152    -0.669740224990E+03   -0.20089E-03    0.64223E-06  8424   0.305E-04 0.257E-04
CGA: 153    -0.669740407399E+03   -0.18241E-03    0.74163E-06  8424   0.335E-04 0.234E-04
CGA: 154    -0.669740613651E+03   -0.20625E-03    0.78619E-06  8424   0.428E-04 0.173E-04
CGA: 155    -0.669740773071E+03   -0.15942E-03    0.18195E-05  8424   0.707E-04 0.471E-06
CGA: 156    -0.669741275967E+03   -0.50290E-03    0.14479E-05  8424   0.664E-04 0.693E-04
CGA: 157    -0.669741494664E+03   -0.21870E-03    0.32923E-05  8424   0.135E-03-0.410E-04
CGA: 158    -0.669740957665E+03    0.53700E-03   -0.16035E-03  8424   0.693E-02-0.844E-03
CGA: 159    -0.669742169321E+03   -0.12117E-02   -0.10195E-02  8424   0.132E-03-0.768E-03
CGA: 160    -0.669742288265E+03   -0.11894E-03    0.71749E-04  8424   0.295E-03-0.122E-03
CGA: 161    -0.669741907036E+03    0.38123E-03   -0.24042E-03  8424   0.816E-02-0.145E-02
CGA: 162    -0.669742824843E+03   -0.91781E-03   -0.98745E-03  8424   0.476E-04 0.241E-03
CGA: 163    -0.669742954425E+03   -0.12958E-03    0.40973E-05  8424   0.123E-03-0.297E-04
CGA: 164    -0.669743213219E+03   -0.25879E-03    0.14385E-04  8424   0.390E-03-0.169E-03
CGA: 165    -0.669743251367E+03   -0.38148E-04   -0.49231E-04  8424   0.243E-04 0.415E-04
CGA: 166    -0.669743418267E+03   -0.16690E-03    0.71322E-06  8424   0.474E-04 0.102E-04
CGA: 167    -0.669743974466E+03   -0.55620E-03    0.12924E-05  8424   0.454E-04 0.611E-04
CGA: 168    -0.669744160787E+03   -0.18632E-03    0.19613E-05  8424   0.582E-04-0.106E-04
CGA: 169    -0.669744541279E+03   -0.38049E-03    0.83229E-06  8424   0.657E-04 0.382E-04
CGA: 170    -0.669744694918E+03   -0.15364E-03    0.60101E-05  8424   0.597E-04-0.247E-04
CGA: 171    -0.669745016937E+03   -0.32202E-03    0.68328E-06  8424   0.564E-04 0.330E-04
CGA: 172    -0.669745181598E+03   -0.16466E-03    0.37786E-05  8424   0.384E-04-0.100E-04
CGA: 173    -0.669745449741E+03   -0.26814E-03    0.59156E-06  8424   0.334E-04 0.297E-04
CGA: 174    -0.669745609720E+03   -0.15998E-03    0.11980E-05  8424   0.227E-04 0.769E-05
CGA: 175    -0.669745869816E+03   -0.26010E-03    0.47386E-06  8424   0.247E-04 0.267E-04
CGA: 176    -0.669746022044E+03   -0.15223E-03    0.65900E-06  8424   0.183E-04 0.122E-04
CGA: 177    -0.669746283260E+03   -0.26122E-03    0.44857E-06  8424   0.213E-04 0.259E-04
CGA: 178    -0.669746432627E+03   -0.14937E-03    0.49272E-06  8424   0.165E-04 0.129E-04
CGA: 179    -0.669746578318E+03   -0.14569E-03    0.29712E-06  8424   0.154E-04 0.145E-04
CGA: 180    -0.669746723186E+03   -0.14487E-03    0.25656E-06  8424   0.149E-04 0.147E-04
CGA: 181    -0.669746866650E+03   -0.14346E-03    0.24303E-06  8424   0.146E-04 0.146E-04
CGA: 182    -0.669747008929E+03   -0.14228E-03    0.23463E-06  8424   0.143E-04 0.144E-04
CGA: 183    -0.669747150105E+03   -0.14118E-03    0.22761E-06  8424   0.141E-04 0.141E-04
CGA: 184    -0.669747289844E+03   -0.13974E-03    0.22174E-06  8424   0.138E-04 0.139E-04
CGA: 185    -0.669747428693E+03   -0.13885E-03    0.21521E-06  8424   0.136E-04 0.136E-04
CGA: 186    -0.669747565675E+03   -0.13698E-03    0.21068E-06  8424   0.134E-04 0.134E-04
CGA: 187    -0.669747702355E+03   -0.13668E-03    0.20445E-06  8424   0.133E-04 0.131E-04
CGA: 188    -0.669747835828E+03   -0.13347E-03    0.20636E-06  8424   0.136E-04 0.125E-04
CGA: 189    -0.669747971071E+03   -0.13524E-03    0.21468E-06  8424   0.160E-04 0.110E-04
CGA: 190    -0.669748097124E+03   -0.12605E-03    0.32660E-06  8424   0.284E-04 0.503E-05
CGA: 191    -0.669748464414E+03   -0.36729E-03    0.59377E-06  8424   0.149E-04 0.343E-04
CGA: 192    -0.669748594466E+03   -0.13005E-03    0.27004E-06  8424   0.236E-04 0.541E-05
CGA: 193    -0.669748918900E+03   -0.32443E-03    0.49733E-06  8424   0.144E-04 0.287E-04
CGA: 194    -0.669749036825E+03   -0.11792E-03    0.28084E-06  8424   0.161E-04 0.641E-05
CGA: 195    -0.669749294453E+03   -0.25763E-03    0.32468E-06  8424   0.141E-04 0.214E-04
CGA: 196    -0.669749411995E+03   -0.11754E-03    0.26925E-06  8424   0.129E-04 0.679E-05
CGA: 197    -0.669749634280E+03   -0.22229E-03    0.25203E-06  8424   0.131E-04 0.178E-04
CGA: 198    -0.669749747701E+03   -0.11342E-03    0.23866E-06  8424   0.107E-04 0.741E-05
CGA: 199    -0.669749860545E+03   -0.11284E-03    0.15761E-06  8424   0.102E-04 0.811E-05
CGA: 200    -0.669749969460E+03   -0.10891E-03    0.14917E-06  8424   0.108E-04 0.768E-05
   2 F= -.66974997E+03 E0= -.66974997E+03  d E =-.159567E+00  mag=     2.0000
       N       E                     dE             d eps       ncg     rms          ort
SDA:   1    -0.669672077968E+03    0.77783E-01    0.00000E+00  8424   0.360E+00 0.000E+00
CGA:   2    -0.669744097813E+03   -0.72020E-01   -0.72043E-01  8424   0.142E+00 0.505E-04
CGA:   3    -0.669773852567E+03   -0.29755E-01   -0.29755E-01  8424   0.470E-01-0.238E-04
CGA:   4    -0.669781800741E+03   -0.79482E-02   -0.79303E-02  8424   0.121E-01-0.102E-03
CGA:   5    -0.669783946590E+03   -0.21458E-02   -0.21167E-02  8424   0.250E-02-0.166E-03
CGA:   6    -0.669784489786E+03   -0.54320E-03   -0.51775E-03  8424   0.626E-03-0.190E-03
CGA:   7    -0.669784669040E+03   -0.17925E-03   -0.17072E-03  8424   0.365E-03-0.201E-03
CGA:   8    -0.669784527274E+03    0.14177E-03   -0.19652E-03  8424   0.260E-02-0.741E-03
CGA:   9    -0.669784939531E+03   -0.41226E-03   -0.39454E-03  8424   0.322E-03-0.861E-04
CGA:  10    -0.669784996016E+03   -0.56485E-04   -0.22173E-03  8424   0.110E-02-0.454E-03
CGA:  11    -0.669785214260E+03   -0.21824E-03   -0.20588E-03  8424   0.151E-03-0.692E-04
CGA:  12    -0.669783228486E+03    0.19858E-02   -0.10780E-02  8424   0.115E-01-0.118E-02
CGA:  13    -0.669785418353E+03   -0.21899E-02   -0.21677E-02  8424   0.121E-02-0.455E-04
CGA:  14    -0.669785782652E+03   -0.36430E-03   -0.32421E-03  8424   0.273E-03-0.112E-03
CGA:  15    -0.669785854812E+03   -0.72160E-04   -0.48123E-04  8424   0.680E-04-0.578E-04
CGA:  16    -0.669785967041E+03   -0.11223E-03    0.20402E-04  8424   0.139E-03-0.586E-04
CGA:  17    -0.669786025841E+03   -0.58800E-04   -0.32089E-04  8424   0.107E-03-0.746E-04
CGA:  18    -0.669786055815E+03   -0.29974E-04   -0.16458E-04  8424   0.236E-04-0.323E-04
CGA:  19    -0.669786166612E+03   -0.11080E-03    0.89355E-06  8424   0.407E-04-0.633E-05
CGA:  20    -0.669786431411E+03   -0.26480E-03    0.11635E-05  8424   0.728E-04-0.109E-04
CGA:  21    -0.669787007936E+03   -0.57652E-03    0.16687E-05  8424   0.893E-04-0.156E-05
CGA:  22    -0.669787768521E+03   -0.76059E-03    0.34940E-05  8424   0.294E-03-0.511E-04
CGA:  23    -0.669787814580E+03   -0.46059E-04   -0.33733E-04  8424   0.959E-05-0.283E-04
CGA:  24    -0.669787868819E+03   -0.54239E-04    0.46745E-06  8424   0.358E-04-0.684E-05
CGA:  25    -0.669787893736E+03   -0.24917E-04   -0.10777E-04  8424   0.129E-03-0.620E-04
CGA:  26    -0.669787916006E+03   -0.22269E-04   -0.15130E-04  8424   0.545E-05-0.178E-04
CGA:  27    -0.669787968026E+03   -0.52020E-04    0.11550E-06  8424   0.251E-04-0.408E-05
CGA:  28    -0.669787980859E+03   -0.12833E-04   -0.12356E-04  8424   0.360E-03-0.885E-04
CGA:  29    -0.669788029427E+03   -0.48568E-04   -0.38534E-04  8424   0.418E-05-0.257E-04
CGA:  30    -0.669788074626E+03   -0.45199E-04    0.83237E-07  8424   0.229E-04-0.374E-05
CGA:  31    -0.669787377777E+03    0.69685E-03   -0.49899E-04  8424   0.931E-02-0.439E-03
CGA:  32    -0.669788296088E+03   -0.91831E-03   -0.91732E-03  8424   0.353E-05-0.109E-06
CGA:  33    -0.669788342651E+03   -0.46564E-04    0.84753E-07  8424   0.112E-04-0.268E-05
CGA:  34    -0.669788385546E+03   -0.42894E-04    0.11747E-05  8424   0.474E-04-0.196E-04
CGA:  35    -0.669788408299E+03   -0.22754E-04   -0.14358E-04  8424   0.359E-04-0.356E-04
CGA:  36    -0.669786265780E+03    0.21425E-02   -0.11904E-02  8424   0.186E-01-0.777E-03
CGA:  37    -0.669788505336E+03   -0.22396E-02   -0.24124E-02  8424   0.982E-03 0.157E-03
CGA:  38    -0.669788037851E+03    0.46749E-03   -0.18938E-03  8424   0.358E-02 0.149E-03
CGA:  39    -0.669728651778E+03    0.59386E-01   -0.15090E-03  8424   0.369E+00 0.198E-01
CGA:  40    -0.669253505503E+03    0.47515E+00   -0.82890E-01  8424   0.312E+01 0.207E+00
CGA:  41    -0.666195314749E+03    0.30582E+01   -0.75350E+00  8424   0.207E+02 0.159E+01
CGA:  42    -0.660583768459E+03    0.56115E+01   -0.62980E+01  8424   0.364E+02 0.456E+01
CGA:  43    -0.645772222035E+03    0.14812E+02   -0.10822E+02  8424   0.704E+02 0.118E+02
CGA:  44    -0.643772273625E+03    0.19999E+01   -0.24218E+02  8424   0.759E+02 0.167E+02
CGA:  45    -0.625992915722E+03    0.17779E+02   -0.20899E+02  8424   0.107E+03 0.435E+02
CGA:  46    -0.641667490949E+03   -0.15675E+02   -0.38821E+02  8424   0.608E+02 0.276E+02
CGA:  47    -0.647581856224E+03   -0.59144E+01   -0.24174E+02  8424   0.423E+02 0.258E+02
CGA:  48    -0.648009813983E+03   -0.42796E+00   -0.15622E+02  8424   0.389E+02 0.281E+02
CGA:  49    -0.657165997689E+03   -0.91562E+01   -0.14127E+02  8424   0.238E+02 0.148E+02
CGA:  50    -0.661409776256E+03   -0.42438E+01   -0.98361E+01  8424   0.154E+02 0.109E+02
CGA:  51    -0.662132747579E+03   -0.72297E+00   -0.55066E+01  8424   0.149E+02 0.996E+01
CGA:  52    -0.667351266676E+03   -0.52185E+01   -0.62273E+01  8424   0.438E+01 0.273E+01
CGA:  53    -0.669005562511E+03   -0.16543E+01   -0.20690E+01  8424   0.109E+01 0.641E+00
CGA:  54    -0.669302460272E+03   -0.29690E+00   -0.30723E+00  8424   0.606E+00 0.702E-02
CGA:  55    -0.669612594295E+03   -0.31013E+00   -0.31075E+00  8424   0.228E+00 0.146E-01
CGA:  56    -0.669672097504E+03   -0.59503E-01   -0.59453E-01  8424   0.112E+00 0.168E-02
CGA:  57    -0.669734415116E+03   -0.62318E-01   -0.62480E-01  8424   0.794E-01-0.476E-02
CGA:  58    -0.669754613230E+03   -0.20198E-01   -0.19133E-01  8424   0.346E-01 0.105E-02
CGA:  59    -0.669770935079E+03   -0.16322E-01   -0.16056E-01  8424   0.175E-01-0.170E-02
CGA:  60    -0.669776640791E+03   -0.57057E-02   -0.55642E-02  8424   0.138E-01 0.289E-03
CGA:  61    -0.669781288353E+03   -0.46476E-02   -0.44455E-02  8424   0.625E-02-0.209E-03
CGA:  62    -0.669784101468E+03   -0.28131E-02   -0.27722E-02  8424   0.474E-02-0.584E-03
CGA:  63    -0.669785205493E+03   -0.11040E-02   -0.11617E-02  8424   0.334E-02 0.390E-03
CGA:  64    -0.669786652560E+03   -0.14471E-02   -0.14078E-02  8424   0.242E-02-0.277E-03
CGA:  65    -0.669787496045E+03   -0.84349E-03   -0.76612E-03  8424   0.206E-02-0.485E-03
CGA:  66    -0.669787801116E+03   -0.30507E-03   -0.32975E-03  8424   0.139E-02 0.132E-03
CGA:  67    -0.669788138738E+03   -0.33762E-03   -0.36345E-03  8424   0.123E-02 0.142E-03
CGA:  68    -0.669788618401E+03   -0.47966E-03   -0.42577E-03  8424   0.906E-03-0.376E-03
CGA:  69    -0.669788830910E+03   -0.21251E-03   -0.17085E-03  8424   0.765E-03-0.235E-03
CGA:  70    -0.669788934898E+03   -0.10399E-03   -0.10507E-03  8424   0.592E-03 0.864E-05
CGA:  71    -0.669789078638E+03   -0.14374E-03   -0.14422E-03  8424   0.527E-03 0.697E-05
CGA:  72    -0.669789296677E+03   -0.21804E-03   -0.21348E-03  8424   0.568E-03-0.370E-03
CGA:  73    -0.669789490090E+03   -0.19341E-03   -0.19767E-03  8424   0.460E-03 0.668E-04
CGA:  74    -0.669789708694E+03   -0.21860E-03   -0.22600E-03  8424   0.572E-03-0.240E-03
CGA:  75    -0.669789750221E+03   -0.41527E-04   -0.69281E-04  8424   0.762E-04 0.964E-04
CGA:  76    -0.669789779251E+03   -0.29030E-04   -0.28140E-04  8424   0.418E-04-0.111E-04
CGA:  77    -0.669789822047E+03   -0.42796E-04    0.13174E-04  8424   0.133E-03-0.644E-04
CGA:  78    -0.669789824487E+03   -0.24397E-05   -0.13222E-04  8424   0.189E-04 0.369E-04
   3 F= -.66978982E+03 E0= -.66978982E+03  d E =-.398550E-01  mag=     2.0000
       N       E                     dE             d eps       ncg     rms          ort
SDA:   1    -0.665848083903E+03    0.39417E+01    0.00000E+00  8424   0.129E+02 0.000E+00
CGA:   2    -0.668399214896E+03   -0.25511E+01   -0.25593E+01  8424   0.508E+01-0.300E-02
CGA:   3    -0.669467453942E+03   -0.10682E+01   -0.10671E+01  8424   0.166E+01 0.119E-02
CGA:   4    -0.669749476027E+03   -0.28202E+00   -0.28219E+00  8424   0.424E+00 0.165E-03
CGA:   5    -0.669822465648E+03   -0.72990E-01   -0.73068E-01  8424   0.862E-01 0.190E-03
CGA:   6    -0.669839681282E+03   -0.17216E-01   -0.17128E-01  8424   0.192E-01-0.656E-03
CGA:   7    -0.669843981967E+03   -0.43007E-02   -0.43090E-02  8424   0.580E-02 0.802E-04
CGA:   8    -0.669845438955E+03   -0.14570E-02   -0.14481E-02  8424   0.174E-02-0.124E-03
CGA:   9    -0.669845988798E+03   -0.54984E-03   -0.55220E-03  8424   0.877E-03-0.362E-03
CGA:  10    -0.669846244069E+03   -0.25527E-03   -0.34927E-03  8424   0.108E-02-0.509E-03
CGA:  11    -0.669846529008E+03   -0.28494E-03   -0.25991E-03  8424   0.403E-03-0.290E-03
CGA:  12    -0.669846624368E+03   -0.95360E-04   -0.16151E-03  8424   0.713E-03-0.295E-03
CGA:  13    -0.669846844265E+03   -0.21990E-03   -0.18862E-03  8424   0.628E-03-0.451E-03
CGA:  14    -0.669846900026E+03   -0.55761E-04   -0.70948E-04  8424   0.400E-04 0.698E-04
CGA:  15    -0.669846969161E+03   -0.69136E-04    0.49529E-05  8424   0.617E-04 0.102E-04
CGA:  16    -0.669847194102E+03   -0.22494E-03    0.34794E-05  8424   0.653E-04 0.428E-04
CGA:  17    -0.669847290312E+03   -0.96210E-04    0.79919E-05  8424   0.372E-04 0.196E-05
CGA:  18    -0.669847399769E+03   -0.10946E-03    0.17619E-05  8424   0.376E-04 0.277E-04
CGA:  19    -0.669847493506E+03   -0.93736E-04    0.20714E-05  8424   0.380E-04 0.731E-05
CGA:  20    -0.669847629504E+03   -0.13600E-03    0.19689E-05  8424   0.391E-04 0.248E-04
CGA:  21    -0.669847716738E+03   -0.87234E-04    0.25084E-05  8424   0.309E-04 0.819E-05
CGA:  22    -0.669847833015E+03   -0.11628E-03    0.15478E-05  8424   0.393E-04 0.162E-04
CGA:  23    -0.669847918767E+03   -0.85752E-04    0.26008E-05  8424   0.516E-04-0.232E-05
CGA:  24    -0.669848067078E+03   -0.14831E-03    0.20581E-05  8424   0.473E-04 0.121E-04
CGA:  25    -0.669848281641E+03   -0.21456E-03    0.19630E-05  8424   0.498E-04 0.471E-04
CGA:  26    -0.669848367815E+03   -0.86174E-04    0.46539E-05  8424   0.111E-03-0.337E-04
CGA:  27    -0.669848383291E+03   -0.15476E-04   -0.14001E-04  8424   0.189E-04-0.763E-05
CGA:  28    -0.669848459280E+03   -0.75990E-04    0.45840E-06  8424   0.139E-04 0.162E-04
CGA:  29    -0.669848525552E+03   -0.66272E-04    0.32019E-06  8424   0.145E-04 0.127E-04
CGA:  30    -0.669848578053E+03   -0.52501E-04    0.46697E-06  8424   0.186E-04 0.104E-04
CGA:  31    -0.669848654375E+03   -0.76322E-04    0.51331E-06  8424   0.373E-04 0.993E-06
CGA:  32    -0.669848835907E+03   -0.18153E-03    0.94165E-06  8424   0.308E-04 0.378E-04
CGA:  33    -0.669848313090E+03    0.52282E-03   -0.28568E-03  8424   0.676E-02-0.347E-03
CGA:  34    -0.669849229969E+03   -0.91688E-03   -0.73079E-03  8424   0.433E-04-0.429E-03
CGA:  35    -0.669849249234E+03   -0.19266E-04   -0.10829E-04  8424   0.722E-04-0.307E-04
CGA:  36    -0.669849138977E+03    0.11026E-03   -0.64687E-04  8424   0.384E-02-0.477E-03
CGA:  37    -0.669849442504E+03   -0.30353E-03   -0.37177E-03  8424   0.178E-04 0.162E-03
CGA:  38    -0.669849483823E+03   -0.41319E-04    0.43608E-05  8424   0.148E-03-0.271E-04
CGA:  39    -0.669849572143E+03   -0.88320E-04   -0.38366E-04  8424   0.300E-03-0.188E-03
CGA:  40    -0.669849584433E+03   -0.12291E-04   -0.27922E-04  8424   0.121E-04 0.376E-04
CGA:  41    -0.669849630536E+03   -0.46102E-04    0.13713E-05  8424   0.956E-04-0.137E-04
CGA:  42    -0.669849559954E+03    0.70582E-04   -0.72736E-04  8424   0.338E-02-0.530E-03
CGA:  43    -0.669849802869E+03   -0.24291E-03   -0.32988E-03  8424   0.278E-04 0.222E-03
CGA:  44    -0.669849812638E+03   -0.97698E-05   -0.65035E-05  8424   0.301E-04-0.125E-04
   4 F= -.66984981E+03 E0= -.66984981E+03  d E =-.599882E-01  mag=     2.0000
       N       E                     dE             d eps       ncg     rms          ort
SDA:   1    -0.669582690948E+03    0.26711E+00    0.00000E+00  8424   0.907E+00 0.000E+00
CGA:   2    -0.669761371336E+03   -0.17868E+00   -0.17888E+00  8424   0.351E+00 0.207E-03
CGA:   3    -0.669835803533E+03   -0.74432E-01   -0.74335E-01  8424   0.119E+00-0.374E-03
CGA:   4    -0.669855892409E+03   -0.20089E-01   -0.20084E-01  8424   0.305E-01-0.415E-04
CGA:   5    -0.669861130709E+03   -0.52383E-02   -0.52548E-02  8424   0.611E-02 0.576E-04
CGA:   6    -0.669862342028E+03   -0.12113E-02   -0.12067E-02  8424   0.134E-02-0.220E-04
CGA:   7    -0.669862647297E+03   -0.30527E-03   -0.30437E-03  8424   0.411E-03-0.523E-05
CGA:   8    -0.669862761378E+03   -0.11408E-03   -0.10849E-03  8424   0.139E-03-0.423E-04
CGA:   9    -0.669862806284E+03   -0.44905E-04   -0.42670E-04  8424   0.812E-04-0.454E-04
CGA:  10    -0.669862810548E+03   -0.42647E-05   -0.41256E-04  8424   0.282E-03-0.101E-03
CGA:  11    -0.669862868514E+03   -0.57965E-04   -0.53623E-04  8424   0.451E-04-0.201E-04
CGA:  12    -0.669862886541E+03   -0.18028E-04   -0.23387E-04  8424   0.658E-04-0.331E-04
CGA:  13    -0.669862909557E+03   -0.23016E-04   -0.19166E-04  8424   0.396E-04-0.341E-04
CGA:  14    -0.669862914903E+03   -0.53461E-05   -0.58993E-05  8424   0.376E-05 0.220E-05
   5 F= -.66986291E+03 E0= -.66986291E+03  d E =-.131023E-01  mag=     2.0000
       N       E                     dE             d eps       ncg     rms          ort
SDA:   1    -0.669827601092E+03    0.35308E-01    0.00000E+00  8424   0.120E+00 0.000E+00
CGA:   2    -0.669851425992E+03   -0.23825E-01   -0.23824E-01  8424   0.467E-01-0.232E-04
CGA:   3    -0.669861325574E+03   -0.98996E-02   -0.99018E-02  8424   0.160E-01 0.325E-05
CGA:   4    -0.669864018804E+03   -0.26932E-02   -0.26928E-02  8424   0.408E-02-0.509E-05
CGA:   5    -0.669864729458E+03   -0.71065E-03   -0.70892E-03  8424   0.800E-03-0.101E-04
CGA:   6    -0.669864883695E+03   -0.15424E-03   -0.15568E-03  8424   0.175E-03 0.917E-05
CGA:   7    -0.669864924596E+03   -0.40901E-04   -0.40999E-04  8424   0.553E-04 0.852E-06
CGA:   8    -0.669864940787E+03   -0.16191E-04   -0.15810E-04  8424   0.224E-04-0.742E-05
CGA:   9    -0.669864945399E+03   -0.46123E-05   -0.47349E-05  8424   0.772E-05 0.134E-05
   6 F= -.66986495E+03 E0= -.66986495E+03  d E =-.203050E-02  mag=     2.0000
       N       E                     dE             d eps       ncg     rms          ort
SDA:   1    -0.669785514218E+03    0.79427E-01    0.00000E+00  8424   0.245E+00 0.000E+00
CGA:   2    -0.669840775934E+03   -0.55262E-01   -0.55232E-01  8424   0.113E+00-0.258E-03
CGA:   3    -0.669863706085E+03   -0.22930E-01   -0.22973E-01  8424   0.324E-01 0.277E-03
CGA:   4    -0.669869020281E+03   -0.53142E-02   -0.53112E-02  8424   0.764E-02-0.232E-04
CGA:   5    -0.669870336024E+03   -0.13157E-02   -0.13047E-02  8424   0.157E-02-0.692E-04
CGA:   6    -0.669870650544E+03   -0.31452E-03   -0.31623E-03  8424   0.374E-03 0.136E-04
CGA:   7    -0.669870742748E+03   -0.92204E-04   -0.90661E-04  8424   0.125E-03-0.193E-04
CGA:   8    -0.669870778047E+03   -0.35299E-04   -0.34805E-04  8424   0.568E-04-0.218E-04
CGA:   9    -0.669870793670E+03   -0.15623E-04   -0.16036E-04  8424   0.333E-04-0.155E-04
CGA:  10    -0.669870813851E+03   -0.20181E-04    0.12094E-04  8424   0.158E-04-0.110E-05
CGA:  11    -0.669870828256E+03   -0.14406E-04    0.49534E-05  8424   0.814E-05 0.186E-05
CGA:  12    -0.669870839563E+03   -0.11306E-04    0.14988E-05  8424   0.531E-05 0.295E-05
CGA:  13    -0.669870852821E+03   -0.13258E-04    0.60691E-06  8424   0.422E-05 0.373E-05
CGA:  14    -0.669870855902E+03   -0.30811E-05    0.44319E-05  8424   0.253E-05 0.164E-05
   7 F= -.66987086E+03 E0= -.66987086E+03  d E =-.591050E-02  mag=     2.0000
       N       E                     dE             d eps       ncg     rms          ort
SDA:   1    -0.667875619717E+03    0.19952E+01    0.00000E+00  8424   0.625E+01 0.000E+00
CGA:   2    -0.669121129233E+03   -0.12455E+01   -0.12475E+01  8424   0.249E+01 0.313E-02
CGA:   3    -0.669650508290E+03   -0.52938E+00   -0.52907E+00  8424   0.823E+00-0.108E-02
CGA:   4    -0.669788037223E+03   -0.13753E+00   -0.13753E+00  8424   0.206E+00-0.207E-03
CGA:   5    -0.669823374267E+03   -0.35337E-01   -0.35349E-01  8424   0.420E-01 0.471E-05
CGA:   6    -0.669831773898E+03   -0.83996E-02   -0.83648E-02  8424   0.938E-02-0.376E-03
CGA:   7    -0.669833907396E+03   -0.21335E-02   -0.21271E-02  8424   0.288E-02-0.109E-03
CGA:   8    -0.669834675192E+03   -0.76780E-03   -0.76191E-03  8424   0.100E-02-0.334E-03
CGA:   9    -0.669834965538E+03   -0.29035E-03   -0.36304E-03  8424   0.969E-03-0.584E-03
CGA:  10    -0.669835184300E+03   -0.21876E-03   -0.20420E-03  8424   0.251E-03-0.183E-03
CGA:  11    -0.669835331490E+03   -0.14719E-03    0.11138E-03  8424   0.670E-04-0.179E-04
CGA:  12    -0.669835454148E+03   -0.12266E-03    0.36460E-05  8424   0.301E-04 0.117E-04
CGA:  13    -0.669835581429E+03   -0.12728E-03    0.95877E-06  8424   0.207E-04 0.141E-04
CGA:  14    -0.669835749271E+03   -0.16784E-03    0.50317E-06  8424   0.165E-04 0.205E-04
CGA:  15    -0.669835825337E+03   -0.76066E-04    0.33437E-06  8424   0.118E-04 0.830E-05
CGA:  16    -0.669835901633E+03   -0.76296E-04    0.16326E-06  8424   0.124E-04 0.721E-05
CGA:  17    -0.669835972721E+03   -0.71088E-04    0.19782E-06  8424   0.159E-04 0.436E-05
CGA:  18    -0.669836141004E+03   -0.16828E-03    0.24422E-06  8424   0.110E-04 0.199E-04
CGA:  19    -0.669836214763E+03   -0.73758E-04    0.14648E-06  8424   0.132E-04 0.414E-05
CGA:  20    -0.669836370038E+03   -0.15527E-03    0.18810E-06  8424   0.989E-05 0.168E-04
CGA:  21    -0.669836435599E+03   -0.65561E-04    0.13388E-06  8424   0.105E-04 0.441E-05
CGA:  22    -0.669836577113E+03   -0.14151E-03    0.14179E-06  8424   0.895E-05 0.139E-04
CGA:  23    -0.669836644855E+03   -0.67742E-04    0.10485E-06  8424   0.790E-05 0.501E-05
CGA:  24    -0.669836707879E+03   -0.63024E-04    0.87599E-07  8424   0.769E-05 0.511E-05
CGA:  25    -0.669836775352E+03   -0.67473E-04    0.76957E-07  8424   0.787E-05 0.482E-05
CGA:  26    -0.669836835348E+03   -0.59996E-04    0.91692E-07  8424   0.861E-05 0.409E-05
CGA:  27    -0.669836903203E+03   -0.67855E-04    0.96551E-07  8424   0.103E-04 0.270E-05
CGA:  28    -0.669837040733E+03   -0.13753E-03    0.11471E-06  8424   0.828E-05 0.130E-04
CGA:  29    -0.669837096335E+03   -0.55602E-04    0.11057E-06  8424   0.101E-04 0.213E-05
CGA:  30    -0.669837231642E+03   -0.13531E-03    0.10244E-06  8424   0.826E-05 0.121E-04
CGA:  31    -0.669837295499E+03   -0.63857E-04    0.94785E-07  8424   0.987E-05 0.146E-05
CGA:  32    -0.669837422895E+03   -0.12740E-03    0.91545E-07  8424   0.856E-05 0.110E-04
CGA:  33    -0.669837474379E+03   -0.51484E-04    0.12906E-06  8424   0.938E-05 0.827E-06
CGA:  34    -0.669837593605E+03   -0.11923E-03    0.76561E-07  8424   0.866E-05 0.954E-05
CGA:  35    -0.669837652145E+03   -0.58541E-04    0.11475E-06  8424   0.784E-05 0.936E-06
CGA:  36    -0.669837753983E+03   -0.10184E-03    0.63886E-07  8424   0.759E-05 0.799E-05
CGA:  37    -0.669837805372E+03   -0.51389E-04    0.10050E-06  8424   0.568E-05 0.210E-05
CGA:  38    -0.669837897538E+03   -0.92166E-04    0.49004E-07  8424   0.614E-05 0.686E-05
CGA:  39    -0.669837949157E+03   -0.51619E-04    0.64199E-07  8424   0.448E-05 0.301E-05
CGA:  40    -0.669838036254E+03   -0.87096E-04    0.43847E-07  8424   0.526E-05 0.631E-05
CGA:  41    -0.669838085864E+03   -0.49610E-04    0.48714E-07  8424   0.397E-05 0.325E-05
CGA:  42    -0.669838134786E+03   -0.48922E-04    0.27713E-07  8424   0.372E-05 0.363E-05
CGA:  43    -0.669838182847E+03   -0.48062E-04    0.24769E-07  8424   0.363E-05 0.362E-05
CGA:  44    -0.669838230944E+03   -0.48097E-04    0.23488E-07  8424   0.356E-05 0.356E-05
CGA:  45    -0.669838277942E+03   -0.46997E-04    0.23112E-07  8424   0.350E-05 0.349E-05
CGA:  46    -0.669838325239E+03   -0.47298E-04    0.22127E-07  8424   0.344E-05 0.342E-05
CGA:  47    -0.669838370952E+03   -0.45713E-04    0.22202E-07  8424   0.340E-05 0.334E-05
CGA:  48    -0.669838417743E+03   -0.46791E-04    0.21196E-07  8424   0.341E-05 0.323E-05
CGA:  49    -0.669838461542E+03   -0.43799E-04    0.22837E-07  8424   0.353E-05 0.304E-05
CGA:  50    -0.669838508630E+03   -0.47087E-04    0.22735E-07  8424   0.394E-05 0.269E-05
CGA:  51    -0.669838549127E+03   -0.40497E-04    0.33247E-07  8424   0.506E-05 0.189E-05
CGA:  52    -0.669838651000E+03   -0.10187E-03    0.47040E-07  8424   0.346E-05 0.712E-05
CGA:  53    -0.669838696590E+03   -0.45590E-04    0.22518E-07  8424   0.413E-05 0.214E-05
CGA:  54    -0.669838733572E+03   -0.36982E-04    0.40379E-07  8424   0.592E-05 0.921E-06
CGA:  55    -0.669838836299E+03   -0.10273E-03    0.43578E-07  8424   0.447E-05 0.699E-05
CGA:  56    -0.669838882375E+03   -0.46076E-04    0.37681E-07  8424   0.691E-05-0.508E-07
CGA:  57    -0.669838984635E+03   -0.10226E-03    0.38889E-07  8424   0.658E-05 0.663E-05
CGA:  58    -0.669839013627E+03   -0.28991E-04    0.14102E-06  8424   0.123E-04-0.379E-05
CGA:  59    -0.669839064544E+03   -0.50917E-04    0.28113E-06  8424   0.263E-04-0.128E-04
CGA:  60    -0.669839042070E+03    0.22474E-04   -0.16867E-04  8424   0.540E-03-0.111E-03
CGA:  61    -0.669839169992E+03   -0.12792E-03   -0.90984E-04  8424   0.143E-03-0.272E-03
CGA:  62    -0.669839179711E+03   -0.97195E-05   -0.13836E-04  8424   0.466E-05 0.205E-04
   8 F= -.66983918E+03 E0= -.66983918E+03  d E =0.316762E-01  mag=     2.0000
       N       E                     dE             d eps       ncg     rms          ort
SDA:   1    -0.668908520316E+03    0.93065E+00    0.00000E+00  8424   0.318E+01 0.000E+00
CGA:   2    -0.669532648951E+03   -0.62413E+00   -0.62460E+00  8424   0.122E+01 0.216E-02
CGA:   3    -0.669792932142E+03   -0.26028E+00   -0.26019E+00  8424   0.417E+00-0.117E-02
CGA:   4    -0.669862847339E+03   -0.69915E-01   -0.69933E-01  8424   0.106E+00 0.370E-04
CGA:   5    -0.669881128408E+03   -0.18281E-01   -0.18310E-01  8424   0.215E-01 0.254E-03
CGA:   6    -0.669885371422E+03   -0.42430E-02   -0.42405E-02  8424   0.468E-02-0.378E-04
CGA:   7    -0.669886395684E+03   -0.10243E-02   -0.10302E-02  8424   0.136E-02 0.133E-03
CGA:   8    -0.669886722388E+03   -0.32670E-03   -0.32845E-03  8424   0.370E-03 0.602E-04
CGA:   9    -0.669886812806E+03   -0.90418E-04   -0.91620E-04  8424   0.104E-03 0.499E-04
CGA:  10    -0.669886829732E+03   -0.16926E-04   -0.21258E-04  8424   0.419E-04 0.540E-04
CGA:  11    -0.669886833098E+03   -0.33652E-05   -0.63193E-05  8424   0.224E-04 0.280E-04
   9 F= -.66988683E+03 E0= -.66988683E+03  d E =-.476534E-01  mag=     2.0000
       N       E                     dE             d eps       ncg     rms          ort
SDA:   1    -0.669849248450E+03    0.37581E-01    0.00000E+00  8424   0.127E+00 0.000E+00
CGA:   2    -0.669874365926E+03   -0.25117E-01   -0.25122E-01  8424   0.494E-01 0.839E-04
CGA:   3    -0.669884823690E+03   -0.10458E-01   -0.10459E-01  8424   0.167E-01 0.212E-04
CGA:   4    -0.669887630447E+03   -0.28068E-02   -0.28110E-02  8424   0.422E-02 0.559E-04
CGA:   5    -0.669888346993E+03   -0.71655E-03   -0.72105E-03  8424   0.841E-03 0.679E-04
CGA:   6    -0.669888499400E+03   -0.15241E-03   -0.15608E-03  8424   0.172E-03 0.732E-04
CGA:   7    -0.669888525738E+03   -0.26338E-04   -0.30504E-04  8424   0.515E-04 0.616E-04
CGA:   8    -0.669888528106E+03   -0.23684E-05   -0.74591E-05  8424   0.255E-04 0.423E-04
  10 F= -.66988853E+03 E0= -.66988853E+03  d E =-.169501E-02  mag=     2.0000
       N       E                     dE             d eps       ncg     rms          ort
SDA:   1    -0.669817454749E+03    0.71071E-01    0.00000E+00  8424   0.215E+00 0.000E+00
CGA:   2    -0.669864563246E+03   -0.47108E-01   -0.47108E-01  8424   0.944E-01 0.275E-04
CGA:   3    -0.669883554594E+03   -0.18991E-01   -0.18995E-01  8424   0.274E-01 0.312E-03
CGA:   4    -0.669888146237E+03   -0.45916E-02   -0.45951E-02  8424   0.683E-02 0.716E-04
CGA:   5    -0.669889312449E+03   -0.11662E-02   -0.11685E-02  8424   0.137E-02 0.565E-04
CGA:   6    -0.669889559455E+03   -0.24701E-03   -0.25074E-03  8424   0.284E-03 0.138E-03
CGA:   7    -0.669889605703E+03   -0.46249E-04   -0.50881E-04  8424   0.847E-04 0.103E-03
CGA:   8    -0.669889611339E+03   -0.56362E-05   -0.12402E-04  8424   0.424E-04 0.693E-04
  11 F= -.66988961E+03 E0= -.66988961E+03  d E =-.108323E-02  mag=     2.0000
       N       E                     dE             d eps       ncg     rms          ort
SDA:   1    -0.669705061801E+03    0.18454E+00    0.00000E+00  8424   0.532E+00 0.000E+00
CGA:   2    -0.669823772431E+03   -0.11871E+00   -0.11871E+00  8424   0.233E+00 0.787E-04
CGA:   3    -0.669872139246E+03   -0.48367E-01   -0.48359E-01  8424   0.669E-01 0.570E-03
CGA:   4    -0.669883131473E+03   -0.10992E-01   -0.10990E-01  8424   0.163E-01-0.819E-04
CGA:   5    -0.669885942204E+03   -0.28107E-02   -0.28115E-02  8424   0.331E-02 0.294E-04
CGA:   6    -0.669886551477E+03   -0.60927E-03   -0.61203E-03  8424   0.739E-03 0.309E-03
CGA:   7    -0.669886695395E+03   -0.14392E-03   -0.14619E-03  8424   0.202E-03 0.190E-03
CGA:   8    -0.669886725919E+03   -0.30524E-04   -0.36547E-04  8424   0.844E-04 0.124E-03
CGA:   9    -0.669886726791E+03   -0.87190E-06   -0.74927E-05  8424   0.550E-04 0.655E-04
  12 F= -.66988673E+03 E0= -.66988673E+03  d E =0.288455E-02  mag=     2.0000
       N       E                     dE             d eps       ncg     rms          ort
SDA:   1    -0.665960055965E+03    0.39267E+01    0.00000E+00  8424   0.127E+02 0.000E+00
CGA:   2    -0.668403034604E+03   -0.24430E+01   -0.24420E+01  8424   0.481E+01 0.496E-01
CGA:   3    -0.669435791215E+03   -0.10328E+01   -0.10333E+01  8424   0.164E+01-0.123E-01
CGA:   4    -0.669714343333E+03   -0.27855E+00   -0.27857E+00  8424   0.417E+00 0.920E-03
CGA:   5    -0.669785339241E+03   -0.70996E-01   -0.71012E-01  8424   0.867E-01 0.130E-02
CGA:   6    -0.669802340065E+03   -0.17001E-01   -0.17013E-01  8424   0.192E-01-0.764E-03
CGA:   7    -0.669806556490E+03   -0.42164E-02   -0.42001E-02  8424   0.565E-02 0.414E-03
CGA:   8    -0.669807976487E+03   -0.14200E-02   -0.14282E-02  8424   0.168E-02-0.128E-03
CGA:   9    -0.669808454155E+03   -0.47767E-03   -0.53200E-03  8424   0.830E-03-0.394E-03
CGA:  10    -0.669808639727E+03   -0.18557E-03   -0.26323E-03  8424   0.664E-03-0.351E-03
CGA:  11    -0.669808797522E+03   -0.15779E-03    0.45436E-02  8424   0.248E-03 0.388E-04
CGA:  12    -0.669808904875E+03   -0.10735E-03    0.34441E-01  8424   0.118E-03 0.248E-04
CGA:  13    -0.669808978696E+03   -0.73821E-04    0.33546E-04  8424   0.607E-04 0.386E-04
CGA:  14    -0.669809048616E+03   -0.69920E-04    0.73051E-05  8424   0.405E-04 0.296E-04
CGA:  15    -0.669809127092E+03   -0.78476E-04    0.28071E-05  8424   0.318E-04 0.321E-04
CGA:  16    -0.669809159491E+03   -0.32399E-04    0.21623E-05  8424   0.156E-04 0.173E-04
CGA:  17    -0.669809189590E+03   -0.30099E-04    0.43047E-06  8424   0.131E-04 0.139E-04
CGA:  18    -0.669809217556E+03   -0.27965E-04    0.31557E-06  8424   0.119E-04 0.123E-04
CGA:  19    -0.669809245827E+03   -0.28271E-04    0.25008E-06  8424   0.111E-04 0.114E-04
CGA:  20    -0.669809273061E+03   -0.27234E-04    0.22566E-06  8424   0.105E-04 0.107E-04
CGA:  21    -0.669809300546E+03   -0.27485E-04    0.19905E-06  8424   0.101E-04 0.102E-04
CGA:  22    -0.669809327150E+03   -0.26604E-04    0.18836E-06  8424   0.972E-05 0.985E-05
CGA:  23    -0.669809354117E+03   -0.26968E-04    0.17108E-06  8424   0.942E-05 0.950E-05
CGA:  24    -0.669809379990E+03   -0.25873E-04    0.16793E-06  8424   0.919E-05 0.919E-05
CGA:  25    -0.669809406696E+03   -0.26706E-04    0.15340E-06  8424   0.905E-05 0.889E-05
CGA:  26    -0.669809431549E+03   -0.24853E-04    0.16138E-06  8424   0.905E-05 0.854E-05
CGA:  27    -0.669809458409E+03   -0.26860E-04    0.14734E-06  8424   0.926E-05 0.806E-05
CGA:  28    -0.669809481782E+03   -0.23373E-04    0.18242E-06  8424   0.982E-05 0.734E-05
CGA:  29    -0.669809509286E+03   -0.27503E-04    0.17122E-06  8424   0.109E-04 0.624E-05
CGA:  30    -0.669809530651E+03   -0.21365E-04    0.29182E-06  8424   0.127E-04 0.454E-05
CGA:  31    -0.669809584672E+03   -0.54021E-04    0.28753E-06  8424   0.104E-04 0.175E-04
CGA:  32    -0.669809612123E+03   -0.27451E-04    0.19435E-06  8424   0.116E-04 0.442E-05
CGA:  33    -0.669809662688E+03   -0.50564E-04    0.25790E-06  8424   0.994E-05 0.161E-04
CGA:  34    -0.669809682460E+03   -0.19772E-04    0.26223E-06  8424   0.108E-04 0.426E-05
CGA:  35    -0.669809731412E+03   -0.48952E-04    0.23188E-06  8424   0.953E-05 0.151E-04
CGA:  36    -0.669809757809E+03   -0.26397E-04    0.16822E-06  8424   0.100E-04 0.417E-05
CGA:  37    -0.669809804195E+03   -0.46386E-04    0.21340E-06  8424   0.910E-05 0.141E-04
CGA:  38    -0.669809822498E+03   -0.18303E-04    0.23661E-06  8424   0.941E-05 0.407E-05
CGA:  39    -0.669809867391E+03   -0.44893E-04    0.19644E-06  8424   0.868E-05 0.133E-04
CGA:  40    -0.669809892668E+03   -0.25277E-04    0.14439E-06  8424   0.877E-05 0.404E-05
CGA:  41    -0.669809935641E+03   -0.42973E-04    0.18244E-06  8424   0.823E-05 0.126E-04
CGA:  42    -0.669809952710E+03   -0.17070E-04    0.20617E-06  8424   0.821E-05 0.402E-05
CGA:  43    -0.669809994166E+03   -0.41455E-04    0.17055E-06  8424   0.780E-05 0.119E-04
CGA:  44    -0.669810018186E+03   -0.24020E-04    0.12163E-06  8424   0.763E-05 0.404E-05
CGA:  45    -0.669810034688E+03   -0.16501E-04    0.18130E-06  8424   0.762E-05 0.391E-05
CGA:  46    -0.669810058065E+03   -0.23377E-04    0.11932E-06  8424   0.759E-05 0.378E-05
CGA:  47    -0.669810097640E+03   -0.39575E-04    0.15402E-06  8424   0.730E-05 0.112E-04
CGA:  48    -0.669810113451E+03   -0.15812E-04    0.17310E-06  8424   0.727E-05 0.365E-05
CGA:  49    -0.669810151785E+03   -0.38334E-04    0.14605E-06  8424   0.700E-05 0.107E-04
CGA:  50    -0.669810174052E+03   -0.22267E-04    0.10522E-06  8424   0.694E-05 0.353E-05
CGA:  51    -0.669810189222E+03   -0.15170E-04    0.16256E-06  8424   0.689E-05 0.344E-05
CGA:  52    -0.669810226049E+03   -0.36827E-04    0.13576E-06  8424   0.666E-05 0.102E-04
CGA:  53    -0.669810247511E+03   -0.21462E-04    0.98746E-07  8424   0.656E-05 0.335E-05
CGA:  54    -0.669810262098E+03   -0.14588E-04    0.15051E-06  8424   0.648E-05 0.330E-05
CGA:  55    -0.669810283001E+03   -0.20902E-04    0.95854E-07  8424   0.639E-05 0.327E-05
CGA:  56    -0.669810297436E+03   -0.14435E-04    0.14376E-06  8424   0.631E-05 0.321E-05
CGA:  57    -0.669810317824E+03   -0.20388E-04    0.93317E-07  8424   0.623E-05 0.317E-05
CGA:  58    -0.669810332079E+03   -0.14255E-04    0.13826E-06  8424   0.617E-05 0.312E-05
CGA:  59    -0.669810351989E+03   -0.19910E-04    0.91120E-07  8424   0.609E-05 0.307E-05
CGA:  60    -0.669810385724E+03   -0.33735E-04    0.11580E-06  8424   0.592E-05 0.901E-05
CGA:  61    -0.669810399401E+03   -0.13677E-04    0.12965E-06  8424   0.585E-05 0.296E-05
CGA:  62    -0.669810418581E+03   -0.19180E-04    0.85044E-07  8424   0.580E-05 0.291E-05
CGA:  63    -0.669810451049E+03   -0.32468E-04    0.10844E-06  8424   0.563E-05 0.856E-05
CGA:  64    -0.669810464167E+03   -0.13118E-04    0.12188E-06  8424   0.555E-05 0.282E-05
CGA:  65    -0.669810482629E+03   -0.18462E-04    0.79123E-07  8424   0.548E-05 0.277E-05
CGA:  66    -0.669810495564E+03   -0.12935E-04    0.11718E-06  8424   0.542E-05 0.274E-05
CGA:  67    -0.669810526392E+03   -0.30828E-04    0.99877E-07  8424   0.526E-05 0.801E-05
CGA:  68    -0.669810544168E+03   -0.17776E-04    0.73900E-07  8424   0.520E-05 0.264E-05
CGA:  69    -0.669810556572E+03   -0.12404E-04    0.10967E-06  8424   0.515E-05 0.260E-05
CGA:  70    -0.669810586235E+03   -0.29662E-04    0.93671E-07  8424   0.500E-05 0.762E-05
CGA:  71    -0.669810603349E+03   -0.17114E-04    0.69142E-07  8424   0.492E-05 0.252E-05
CGA:  72    -0.669810615261E+03   -0.11912E-04    0.10186E-06  8424   0.486E-05 0.249E-05
CGA:  73    -0.669810631961E+03   -0.16700E-04    0.66901E-07  8424   0.479E-05 0.246E-05
CGA:  74    -0.669810643700E+03   -0.11739E-04    0.97949E-07  8424   0.475E-05 0.242E-05
CGA:  75    -0.669810660025E+03   -0.16325E-04    0.65235E-07  8424   0.469E-05 0.239E-05
CGA:  76    -0.669810671563E+03   -0.11539E-04    0.95402E-07  8424   0.466E-05 0.234E-05
CGA:  77    -0.669810698999E+03   -0.27436E-04    0.82482E-07  8424   0.451E-05 0.689E-05
CGA:  78    -0.669810714714E+03   -0.15715E-04    0.61226E-07  8424   0.445E-05 0.227E-05
CGA:  79    -0.669810725783E+03   -0.11069E-04    0.89054E-07  8424   0.440E-05 0.224E-05
CGA:  80    -0.669810741148E+03   -0.15364E-04    0.59513E-07  8424   0.435E-05 0.221E-05
CGA:  81    -0.669810752019E+03   -0.10871E-04    0.86760E-07  8424   0.432E-05 0.216E-05
CGA:  82    -0.669810777868E+03   -0.25849E-04    0.75051E-07  8424   0.419E-05 0.638E-05
CGA:  83    -0.669810792654E+03   -0.14786E-04    0.55882E-07  8424   0.412E-05 0.211E-05
CGA:  84    -0.669810803081E+03   -0.10427E-04    0.81012E-07  8424   0.408E-05 0.207E-05
CGA:  85    -0.669810817544E+03   -0.14463E-04    0.54272E-07  8424   0.404E-05 0.204E-05
CGA:  86    -0.669810827772E+03   -0.10227E-04    0.79164E-07  8424   0.401E-05 0.200E-05
CGA:  87    -0.669810852120E+03   -0.24349E-04    0.68407E-07  8424   0.389E-05 0.592E-05
CGA:  88    -0.669810866038E+03   -0.13918E-04    0.51034E-07  8424   0.383E-05 0.195E-05
CGA:  89    -0.669810875840E+03   -0.98018E-05    0.74141E-07  8424   0.379E-05 0.191E-05
  13 F= -.66981088E+03 E0= -.66981088E+03  d E =0.758510E-01  mag=     2.0000
       N       E                     dE             d eps       ncg     rms          ort
SDA:   1    -0.668986075283E+03    0.82479E+00    0.00000E+00  8424   0.288E+01 0.000E+00
CGA:   2    -0.669552098105E+03   -0.56602E+00   -0.56606E+00  8424   0.111E+01 0.413E-02
CGA:   3    -0.669788002622E+03   -0.23590E+00   -0.23592E+00  8424   0.378E+00-0.170E-02
CGA:   4    -0.669851347274E+03   -0.63345E-01   -0.63358E-01  8424   0.962E-01 0.259E-03
CGA:   5    -0.669867876198E+03   -0.16529E-01   -0.16541E-01  8424   0.196E-01 0.387E-03
CGA:   6    -0.669871728308E+03   -0.38521E-02   -0.38518E-02  8424   0.429E-02-0.608E-04
CGA:   7    -0.669872647551E+03   -0.91924E-03   -0.91608E-03  8424   0.121E-02 0.231E-03
CGA:   8    -0.669872935562E+03   -0.28801E-03   -0.28524E-03  8424   0.316E-03 0.127E-03
CGA:   9    -0.669873004047E+03   -0.68485E-04   -0.68979E-04  8424   0.924E-04 0.104E-03
CGA:  10    -0.669873012295E+03   -0.82479E-05   -0.14698E-04  8424   0.495E-04 0.780E-04
  14 F= -.66987301E+03 E0= -.66987301E+03  d E =-.621365E-01  mag=     2.0000
       N       E                     dE             d eps       ncg     rms          ort
SDA:   1    -0.669570142486E+03    0.30286E+00    0.00000E+00  8424   0.995E+00 0.000E+00
CGA:   2    -0.669766973756E+03   -0.19683E+00   -0.19682E+00  8424   0.387E+00 0.144E-02
CGA:   3    -0.669849191197E+03   -0.82217E-01   -0.82227E-01  8424   0.132E+00-0.533E-03
CGA:   4    -0.669871368054E+03   -0.22177E-01   -0.22183E-01  8424   0.335E-01 0.214E-03
CGA:   5    -0.669877084732E+03   -0.57167E-02   -0.57238E-02  8424   0.669E-02 0.320E-03
CGA:   6    -0.669878384560E+03   -0.12998E-02   -0.12997E-02  8424   0.144E-02 0.155E-03
CGA:   7    -0.669878669394E+03   -0.28483E-03   -0.28433E-03  8424   0.382E-03 0.237E-03
CGA:   8    -0.669878734711E+03   -0.65317E-04   -0.70952E-04  8424   0.119E-03 0.176E-03
CGA:   9    -0.669878741969E+03   -0.72581E-05   -0.17298E-04  8424   0.620E-04 0.110E-03
  15 F= -.66987874E+03 E0= -.66987874E+03  d E =-.572967E-02  mag=     2.0000
       N       E                     dE             d eps       ncg     rms          ort
SDA:   1    -0.669856929897E+03    0.21805E-01    0.00000E+00  8424   0.539E-01 0.000E+00
CGA:   2    -0.669868964872E+03   -0.12035E-01   -0.12021E-01  8424   0.245E-01 0.314E-03
CGA:   3    -0.669873846494E+03   -0.48816E-02   -0.48790E-02  8424   0.702E-02 0.152E-03
CGA:   4    -0.669874994268E+03   -0.11478E-02   -0.11513E-02  8424   0.169E-02 0.181E-03
CGA:   5    -0.669875261755E+03   -0.26749E-03   -0.27227E-03  8424   0.314E-03 0.193E-03
CGA:   6    -0.669875298967E+03   -0.37213E-04   -0.44758E-04  8424   0.921E-04 0.145E-03
CGA:   7    -0.669875299138E+03   -0.17064E-06   -0.96592E-05  8424   0.500E-04 0.895E-04
  16 F= -.66987530E+03 E0= -.66987530E+03  d E =0.344283E-02  mag=     2.0000
       N       E                     dE             d eps       ncg     rms          ort
SDA:   1    -0.669666333376E+03    0.20897E+00    0.00000E+00  8424   0.470E+00 0.000E+00
CGA:   2    -0.669805260679E+03   -0.13893E+00   -0.13892E+00  8424   0.210E+00 0.100E-03
CGA:   3    -0.669842380743E+03   -0.37120E-01   -0.37120E-01  8424   0.504E-01 0.123E-03
CGA:   4    -0.669851121215E+03   -0.87405E-02   -0.87404E-02  8424   0.127E-01 0.122E-03
CGA:   5    -0.669853229709E+03   -0.21085E-02   -0.21104E-02  8424   0.250E-02 0.264E-03
CGA:   6    -0.669853699570E+03   -0.46986E-03   -0.46652E-03  8424   0.569E-03 0.334E-03
CGA:   7    -0.669853800329E+03   -0.10076E-03   -0.10365E-03  8424   0.186E-03 0.237E-03
CGA:   8    -0.669853817364E+03   -0.17035E-04   -0.27737E-04  8424   0.963E-04 0.159E-03
CGA:   9    -0.669853816633E+03    0.73094E-06   -0.70412E-05  8424   0.717E-04 0.811E-04
  17 F= -.66985382E+03 E0= -.66985382E+03  d E =0.214825E-01  mag=     2.0000
       N       E                     dE             d eps       ncg     rms          ort
SDA:   1    -0.668523388190E+03    0.13304E+01    0.00000E+00  8424   0.336E+01 0.000E+00
CGA:   2    -0.669320780258E+03   -0.79739E+00   -0.79702E+00  8424   0.166E+01 0.356E-02
CGA:   3    -0.669651172322E+03   -0.33039E+00   -0.33054E+00  8424   0.461E+00-0.433E-02
CGA:   4    -0.669726346176E+03   -0.75174E-01   -0.75174E-01  8424   0.107E+00 0.127E-03
CGA:   5    -0.669744058538E+03   -0.17712E-01   -0.17711E-01  8424   0.208E-01 0.996E-03
CGA:   6    -0.669748347047E+03   -0.42885E-02   -0.42632E-02  8424   0.515E-02 0.649E-03
CGA:   7    -0.669749466483E+03   -0.11194E-02   -0.10960E-02  8424   0.137E-02 0.589E-03
CGA:   8    -0.669749770757E+03   -0.30427E-03   -0.29428E-03  8424   0.413E-03 0.419E-03
CGA:   9    -0.669749831882E+03   -0.61125E-04   -0.72092E-04  8424   0.201E-03 0.306E-03
CGA:  10    -0.669749838359E+03   -0.64774E-05   -0.18646E-04  8424   0.138E-03 0.162E-03
  18 F= -.66974984E+03 E0= -.66974984E+03  d E =0.103978E+00  mag=     2.0000
       N       E                     dE             d eps       ncg     rms          ort
SDA:   1    -0.656573211743E+03    0.13177E+02    0.00000E+00  8424   0.443E+02 0.000E+00
CGA:   2    -0.664639270122E+03   -0.80661E+01   -0.80506E+01  8424   0.161E+02 0.462E+00
CGA:   3    -0.668166515769E+03   -0.35272E+01   -0.35325E+01  8424   0.548E+01-0.835E-01
CGA:   4    -0.669114742549E+03   -0.94823E+00   -0.94807E+00  8424   0.140E+01 0.893E-02
CGA:   5    -0.669346352775E+03   -0.23161E+00   -0.23160E+00  8424   0.296E+00 0.735E-02
CGA:   6    -0.669404038184E+03   -0.57685E-01   -0.57694E-01  8424   0.669E-01-0.279E-03
CGA:   7    -0.669418881555E+03   -0.14843E-01   -0.14725E-01  8424   0.196E-01 0.215E-02
CGA:   8    -0.669423624902E+03   -0.47433E-02   -0.46637E-02  8424   0.541E-02 0.128E-02
CGA:   9    -0.669425109269E+03   -0.14844E-02   -0.14376E-02  8424   0.174E-02 0.598E-03
CGA:  10    -0.669425496010E+03   -0.38674E-03   -0.37272E-03  8424   0.684E-03 0.793E-03
CGA:  11    -0.669425620908E+03   -0.12490E-03   -0.14344E-03  8424   0.350E-03 0.577E-03
CGA:  12    -0.669425648317E+03   -0.27409E-04   -0.42166E-04  8424   0.231E-03 0.272E-03
CGA:  13    -0.669425648261E+03    0.55363E-07   -0.18990E-04  8424   0.196E-03 0.212E-03
CGA:  14    -0.669425644050E+03    0.42114E-05   -0.13751E-04  8424   0.174E-03 0.184E-03
CGA:  15    -0.669425637960E+03    0.60903E-05   -0.10712E-04  8424   0.159E-03 0.166E-03
  19 F= -.66942564E+03 E0= -.66942564E+03  d E =0.324200E+00  mag=     2.0000
       N       E                     dE             d eps       ncg     rms          ort
SDA:   1    -0.666433351355E+03    0.29923E+01    0.00000E+00  8424   0.106E+02 0.000E+00
CGA:   2    -0.668462962852E+03   -0.20296E+01   -0.20268E+01  8424   0.404E+01 0.560E-01
CGA:   3    -0.669324543787E+03   -0.86158E+00   -0.86264E+00  8424   0.135E+01-0.173E-01
CGA:   4    -0.669555200803E+03   -0.23066E+00   -0.23061E+00  8424   0.350E+00 0.257E-02
CGA:   5    -0.669614493238E+03   -0.59292E-01   -0.59266E-01  8424   0.736E-01 0.229E-02
CGA:   6    -0.669628735827E+03   -0.14243E-01   -0.14263E-01  8424   0.163E-01-0.603E-03
CGA:   7    -0.669632170438E+03   -0.34346E-02   -0.33801E-02  8424   0.453E-02 0.112E-02
CGA:   8    -0.669633241642E+03   -0.10712E-02   -0.10343E-02  8424   0.116E-02 0.722E-03
CGA:   9    -0.669633517755E+03   -0.27611E-03   -0.26311E-03  8424   0.379E-03 0.431E-03
CGA:  10    -0.669633562049E+03   -0.44294E-04   -0.60872E-04  8424   0.209E-03 0.335E-03
CGA:  11    -0.669633566342E+03   -0.42927E-05   -0.18081E-04  8424   0.155E-03 0.177E-03
CGA:  12    -0.669633564645E+03    0.16975E-05   -0.10979E-04  8424   0.131E-03 0.142E-03
  20 F= -.66963356E+03 E0= -.66963356E+03  d E =-.207927E+00  mag=     2.0000
       N       E                     dE             d eps       ncg     rms          ort
SDA:   1    -0.668527412721E+03    0.11062E+01    0.00000E+00  8424   0.364E+01 0.000E+00
CGA:   2    -0.669242527414E+03   -0.71511E+00   -0.71449E+00  8424   0.141E+01 0.116E-01
CGA:   3    -0.669541719493E+03   -0.29919E+00   -0.29944E+00  8424   0.480E+00-0.422E-02
CGA:   4    -0.669622419789E+03   -0.80700E-01   -0.80685E-01  8424   0.123E+00 0.112E-02
CGA:   5    -0.669643400080E+03   -0.20980E-01   -0.20963E-01  8424   0.246E-01 0.128E-02
CGA:   6    -0.669648244494E+03   -0.48444E-02   -0.48428E-02  8424   0.552E-02 0.402E-04
CGA:   7    -0.669649356086E+03   -0.11116E-02   -0.10849E-02  8424   0.147E-02 0.728E-03
CGA:   8    -0.669649659926E+03   -0.30384E-03   -0.29509E-03  8424   0.417E-03 0.534E-03
CGA:   9    -0.669649718359E+03   -0.58433E-04   -0.70535E-04  8424   0.193E-03 0.318E-03
CGA:  10    -0.669649721412E+03   -0.30534E-05   -0.15730E-04  8424   0.139E-03 0.161E-03
  21 F= -.66964972E+03 E0= -.66964972E+03  d E =-.161568E-01  mag=     2.0000
       N       E                     dE             d eps       ncg     rms          ort
SDA:   1    -0.669588702598E+03    0.61016E-01    0.00000E+00  8424   0.159E+00 0.000E+00
CGA:   2    -0.669623585678E+03   -0.34883E-01   -0.34841E-01  8424   0.718E-01 0.598E-03
CGA:   3    -0.669638166957E+03   -0.14581E-01   -0.14570E-01  8424   0.212E-01 0.225E-03
CGA:   4    -0.669641600025E+03   -0.34331E-02   -0.34310E-02  8424   0.489E-02 0.474E-03
CGA:   5    -0.669642401154E+03   -0.80113E-03   -0.79991E-03  8424   0.933E-03 0.470E-03
CGA:   6    -0.669642547884E+03   -0.14673E-03   -0.15025E-03  8424   0.238E-03 0.330E-03
CGA:   7    -0.669642561403E+03   -0.13519E-04   -0.27858E-04  8424   0.123E-03 0.203E-03
CGA:   8    -0.669642558302E+03    0.31010E-05   -0.70936E-05  8424   0.941E-04 0.106E-03
  22 F= -.66964256E+03 E0= -.66964256E+03  d E =0.716311E-02  mag=     2.0000
       N       E                     dE             d eps       ncg     rms          ort
SDA:   1    -0.669400464086E+03    0.24210E+00    0.00000E+00  8424   0.567E+00 0.000E+00
CGA:   2    -0.669553236330E+03   -0.15277E+00   -0.15268E+00  8424   0.277E+00 0.689E-03
CGA:   3    -0.669604276743E+03   -0.51040E-01   -0.51057E-01  8424   0.667E-01-0.507E-03
CGA:   4    -0.669615223814E+03   -0.10947E-01   -0.10940E-01  8424   0.159E-01 0.571E-03
CGA:   5    -0.669617922063E+03   -0.26982E-02   -0.26889E-02  8424   0.321E-02 0.586E-03
CGA:   6    -0.669618547836E+03   -0.62577E-03   -0.61444E-03  8424   0.722E-03 0.355E-03
CGA:   7    -0.669618668034E+03   -0.12020E-03   -0.12126E-03  8424   0.237E-03 0.314E-03
CGA:   8    -0.669618687711E+03   -0.19677E-04   -0.32515E-04  8424   0.132E-03 0.218E-03
CGA:   9    -0.669618688025E+03   -0.31454E-06   -0.93958E-05  8424   0.100E-03 0.113E-03
  23 F= -.66961869E+03 E0= -.66961869E+03  d E =0.238703E-01  mag=     2.0000
       N       E                     dE             d eps       ncg     rms          ort
[...]
CGA:   7    -0.669101827158E+03   -0.75391E-03   -0.74808E-03  8424   0.972E-03 0.433E-03
CGA:   8    -0.669102016413E+03   -0.18925E-03   -0.19210E-03  8424   0.346E-03 0.412E-03
CGA:   9    -0.669102069188E+03   -0.52775E-04   -0.66227E-04  8424   0.176E-03 0.271E-03
CGA:  10    -0.669102079234E+03   -0.10045E-04   -0.19773E-04  8424   0.122E-03 0.140E-03
CGA:  11    -0.669102078633E+03    0.60010E-06   -0.10115E-04  8424   0.105E-03 0.113E-03
  37 F= -.66910208E+03 E0= -.66910208E+03  d E =0.501466E-02  mag=     2.0000
       N       E                     dE             d eps       ncg     rms          ort
SDA:   1    -0.654530369865E+03    0.14572E+02    0.00000E+00  8424   0.454E+02 0.000E+00
CGA:   2    -0.663785772719E+03   -0.92554E+01   -0.92426E+01  8424   0.178E+02 0.254E+00
CGA:   3    -0.667500513619E+03   -0.37147E+01   -0.37166E+01  8424   0.559E+01-0.411E-01
CGA:   4    -0.668456698745E+03   -0.95619E+00   -0.95619E+00  8424   0.148E+01 0.334E-02
CGA:   5    -0.668710138479E+03   -0.25344E+00   -0.25344E+00  8424   0.293E+00 0.181E-02
CGA:   6    -0.668768637372E+03   -0.58499E-01   -0.58576E-01  8424   0.695E-01-0.281E-02
CGA:   7    -0.668784542911E+03   -0.15906E-01   -0.15858E-01  8424   0.212E-01 0.829E-03
CGA:   8    -0.668789896910E+03   -0.53540E-02   -0.53465E-02  8424   0.670E-02 0.999E-04
CGA:   9    -0.668791919059E+03   -0.20221E-02   -0.22181E-02  8424   0.346E-02-0.131E-02
CGA:  10    -0.668792785923E+03   -0.86686E-03   -0.11458E-02  8424   0.260E-02-0.124E-02
CGA:  11    -0.668787314891E+03    0.54710E-02   -0.29535E-02  8424   0.336E-01-0.706E-02
CGA:  12    -0.668792908501E+03   -0.55936E-02   -0.57639E-02  8424   0.499E-02 0.883E-03
CGA:  13    -0.668794673442E+03   -0.17649E-02   -0.17581E-02  8424   0.272E-02-0.754E-03
CGA:  14    -0.668795366856E+03   -0.69341E-03   -0.69136E-03  8424   0.123E-02-0.409E-04
CGA:  15    -0.668795837600E+03   -0.47074E-03   -0.84317E-03  8424   0.219E-02-0.107E-02
CGA:  16    -0.668796389980E+03   -0.55238E-03   -0.52173E-03  8424   0.740E-03-0.240E-03
CGA:  17    -0.668796583892E+03   -0.19391E-03   -0.17322E-03  8424   0.403E-03-0.213E-03
CGA:  18    -0.668796922210E+03   -0.33832E-03    0.77617E-04  8424   0.181E-03 0.109E-03
CGA:  19    -0.668797183563E+03   -0.26135E-03    0.68640E-04  8424   0.164E-03 0.787E-04
CGA:  20    -0.668797588984E+03   -0.40542E-03    0.29452E-04  8424   0.187E-03 0.104E-03
CGA:  21    -0.668797734650E+03   -0.14567E-03    0.34817E-03  8424   0.237E-03-0.222E-04
CGA:  22    -0.668798029871E+03   -0.29522E-03    0.37783E-04  8424   0.223E-03 0.277E-04
CGA:  23    -0.668798493622E+03   -0.46375E-03    0.27199E-04  8424   0.224E-03 0.183E-03
CGA:  24    -0.668798562774E+03   -0.69152E-04   -0.11546E-03  8424   0.117E-02-0.289E-03
CGA:  25    -0.668798763047E+03   -0.20027E-03   -0.16458E-03  8424   0.116E-03-0.160E-03
CGA:  26    -0.668798906819E+03   -0.14377E-03    0.17004E-04  8424   0.913E-04 0.389E-04
CGA:  27    -0.668799132155E+03   -0.22534E-03    0.13237E-04  8424   0.694E-04 0.971E-04
CGA:  28    -0.668799278593E+03   -0.14644E-03    0.61271E-05  8424   0.970E-04 0.354E-04
CGA:  29    -0.668799303870E+03   -0.25277E-04   -0.57892E-04  8424   0.904E-03-0.134E-03
CGA:  30    -0.668799537429E+03   -0.23356E-03   -0.15105E-03  8424   0.320E-03-0.419E-03
CGA:  31    -0.668799680139E+03   -0.14271E-03    0.17931E-03  8424   0.799E-04 0.409E-04
CGA:  32    -0.668799838872E+03   -0.15873E-03    0.10757E-04  8424   0.998E-04 0.404E-04
CGA:  33    -0.668799926312E+03   -0.87440E-04    0.75094E-04  8424   0.277E-03-0.549E-04
CGA:  34    -0.668800011247E+03   -0.84935E-04   -0.61062E-04  8424   0.284E-03-0.178E-03
CGA:  35    -0.668800063608E+03   -0.52360E-04   -0.42962E-04  8424   0.897E-04-0.478E-04
CGA:  36    -0.668800217623E+03   -0.15402E-03    0.61453E-05  8424   0.530E-04 0.630E-04
CGA:  37    -0.668800306401E+03   -0.88778E-04    0.60651E-05  8424   0.605E-04 0.381E-04
CGA:  38    -0.668800429845E+03   -0.12344E-03    0.50749E-05  8424   0.820E-04 0.238E-04
CGA:  39    -0.668800665440E+03   -0.23559E-03    0.94056E-05  8424   0.597E-04 0.106E-03
CGA:  40    -0.668800738150E+03   -0.72710E-04    0.12594E-04  8424   0.659E-04 0.241E-04
CGA:  41    -0.668800953287E+03   -0.21514E-03    0.64239E-05  8424   0.586E-04 0.887E-04
CGA:  42    -0.668801056316E+03   -0.10303E-03    0.62038E-05  8424   0.544E-04 0.252E-04
CGA:  43    -0.668801229333E+03   -0.17302E-03    0.57527E-05  8424   0.553E-04 0.753E-04
CGA:  44    -0.668801317784E+03   -0.88451E-04    0.68419E-05  8424   0.462E-04 0.272E-04
CGA:  45    -0.668801480707E+03   -0.16292E-03    0.46675E-05  8424   0.505E-04 0.663E-04
CGA:  46    -0.668801567975E+03   -0.87268E-04    0.54958E-05  8424   0.404E-04 0.289E-04
CGA:  47    -0.668801652131E+03   -0.84156E-04    0.32752E-05  8424   0.366E-04 0.333E-04
CGA:  48    -0.668801736792E+03   -0.84661E-04    0.25614E-05  8424   0.351E-04 0.341E-04
CGA:  49    -0.668801817128E+03   -0.80335E-04    0.24898E-05  8424   0.342E-04 0.339E-04
CGA:  50    -0.668801899840E+03   -0.82712E-04    0.22487E-05  8424   0.336E-04 0.332E-04
CGA:  51    -0.668801977582E+03   -0.77742E-04    0.23503E-05  8424   0.333E-04 0.324E-04
CGA:  52    -0.668802058307E+03   -0.80726E-04    0.21847E-05  8424   0.337E-04 0.311E-04
CGA:  53    -0.668802133201E+03   -0.74893E-04    0.24888E-05  8424   0.357E-04 0.288E-04
CGA:  54    -0.668802210768E+03   -0.77568E-04    0.27247E-05  8424   0.433E-04 0.236E-04
CGA:  55    -0.668802281872E+03   -0.71104E-04    0.51372E-05  8424   0.731E-04 0.733E-05
CGA:  56    -0.668802479300E+03   -0.19743E-03    0.59860E-05  8424   0.525E-04 0.789E-04
CGA:  57    -0.668802557473E+03   -0.78172E-04    0.73915E-05  8424   0.925E-04-0.913E-05
CGA:  58    -0.668802752160E+03   -0.19469E-03    0.46649E-05  8424   0.106E-03 0.558E-04
CGA:  59    -0.668802785349E+03   -0.33189E-04   -0.31521E-04  8424   0.109E-03-0.413E-04
CGA:  60    -0.668802913470E+03   -0.12812E-03    0.59953E-05  8424   0.111E-03 0.500E-05
CGA:  61    -0.668803157094E+03   -0.24362E-03    0.92624E-05  8424   0.117E-03 0.541E-04
CGA:  62    -0.668803404870E+03   -0.24778E-03    0.25984E-04  8424   0.106E-03 0.162E-04
CGA:  63    -0.668803667439E+03   -0.26257E-03    0.89760E-05  8424   0.104E-03 0.736E-04
CGA:  64    -0.668803801034E+03   -0.13359E-03    0.18913E-04  8424   0.102E-03-0.412E-04
CGA:  65    -0.668803844833E+03   -0.43799E-04    0.18145E-03  8424   0.831E-04-0.176E-04
CGA:  66    -0.668803946662E+03   -0.10183E-03    0.96258E-05  8424   0.924E-04 0.337E-04
CGA:  67    -0.668804203446E+03   -0.25678E-03    0.11244E-04  8424   0.421E-04 0.277E-04
CGA:  68    -0.668804314077E+03   -0.11063E-03    0.45870E-05  8424   0.504E-04 0.235E-04
CGA:  69    -0.668804366100E+03   -0.52023E-04    0.15858E-04  8424   0.855E-04-0.267E-04
CGA:  70    -0.668804381595E+03   -0.15495E-04   -0.13489E-04  8424   0.228E-04-0.112E-04
CGA:  71    -0.668804438978E+03   -0.57384E-04    0.94200E-06  8424   0.154E-04 0.157E-04
CGA:  72    -0.668804473775E+03   -0.34797E-04    0.10227E-05  8424   0.157E-04 0.997E-05
CGA:  73    -0.668804519166E+03   -0.45391E-04    0.75651E-06  8424   0.163E-04 0.901E-05
CGA:  74    -0.668804548753E+03   -0.29587E-04    0.14926E-05  8424   0.174E-04 0.774E-05
CGA:  75    -0.668804628424E+03   -0.79671E-04    0.11256E-05  8424   0.154E-04 0.245E-04
CGA:  76    -0.668804673433E+03   -0.45009E-04    0.72365E-06  8424   0.146E-04 0.790E-05
CGA:  77    -0.668804698865E+03   -0.25432E-04    0.14257E-05  8424   0.140E-04 0.813E-05
CGA:  78    -0.668804746485E+03   -0.47620E-04    0.54418E-06  8424   0.138E-04 0.799E-05
CGA:  79    -0.668804767093E+03   -0.20607E-04    0.17733E-05  8424   0.141E-04 0.749E-05
CGA:  80    -0.668804816995E+03   -0.49903E-04    0.51983E-06  8424   0.147E-04 0.661E-05
CGA:  81    -0.668804885337E+03   -0.68342E-04    0.92029E-06  8424   0.131E-04 0.210E-04
CGA:  82    -0.668804902581E+03   -0.17244E-04    0.21338E-05  8424   0.135E-04 0.634E-05
CGA:  83    -0.668804969621E+03   -0.67040E-04    0.79153E-06  8424   0.123E-04 0.194E-04
CGA:  84    -0.668805014885E+03   -0.45264E-04    0.43192E-06  8424   0.122E-04 0.616E-05
CGA:  85    -0.668805029633E+03   -0.14748E-04    0.23640E-05  8424   0.125E-04 0.564E-05
CGA:  86    -0.668805092296E+03   -0.62663E-04    0.70668E-06  8424   0.114E-04 0.178E-04
CGA:  87    -0.668805136355E+03   -0.44060E-04    0.38177E-06  8424   0.115E-04 0.542E-05
CGA:  88    -0.668805192899E+03   -0.56544E-04    0.67559E-06  8424   0.107E-04 0.164E-04
CGA:  89    -0.668805207256E+03   -0.14356E-04    0.16556E-05  8424   0.103E-04 0.532E-05
CGA:  90    -0.668805262980E+03   -0.55725E-04    0.56366E-06  8424   0.996E-05 0.150E-04
CGA:  91    -0.668805300878E+03   -0.37898E-04    0.33852E-06  8424   0.923E-05 0.527E-05
CGA:  92    -0.668805314921E+03   -0.14043E-04    0.11394E-05  8424   0.891E-05 0.546E-05
CGA:  93    -0.668805353128E+03   -0.38206E-04    0.26288E-06  8424   0.885E-05 0.533E-05
CGA:  94    -0.668805365092E+03   -0.11964E-04    0.13594E-05  8424   0.895E-05 0.502E-05
CGA:  95    -0.668805403922E+03   -0.38830E-04    0.25990E-06  8424   0.919E-05 0.456E-05
CGA:  96    -0.668805413261E+03   -0.93393E-05    0.27221E-05  8424   0.960E-05 0.396E-05
  38 F= -.66880541E+03 E0= -.66880541E+03  d E =0.296665E+00  mag=     2.0000
       N       E                     dE             d eps       ncg     rms          ort
SDA:   1    -0.663905343891E+03    0.49001E+01    0.00000E+00  8424   0.171E+02 0.000E+00
CGA:   2    -0.667251487112E+03   -0.33461E+01   -0.33551E+01  8424   0.654E+01 0.439E-02
CGA:   3    -0.668631726403E+03   -0.13802E+01   -0.13787E+01  8424   0.214E+01-0.223E-02
CGA:   4    -0.668996547477E+03   -0.36482E+00   -0.36501E+00  8424   0.557E+00 0.503E-03
CGA:   5    -0.669092321614E+03   -0.95774E-01   -0.95978E-01  8424   0.113E+00 0.115E-02
CGA:   6    -0.669114576948E+03   -0.22255E-01   -0.22227E-01  8424   0.250E-01-0.272E-03
CGA:   7    -0.669120169072E+03   -0.55921E-02   -0.56294E-02  8424   0.732E-02 0.532E-03
CGA:   8    -0.669121901135E+03   -0.17321E-02   -0.17515E-02  8424   0.206E-02 0.334E-03
CGA:   9    -0.669122428343E+03   -0.52721E-03   -0.53574E-03  8424   0.629E-03 0.208E-03
CGA:  10    -0.669122531208E+03   -0.10286E-03   -0.13180E-03  8424   0.247E-03 0.297E-03
CGA:  11    -0.669122551299E+03   -0.20091E-04   -0.50770E-04  8424   0.131E-03 0.214E-03
CGA:  12    -0.669122552794E+03   -0.14954E-05   -0.16740E-04  8424   0.887E-04 0.103E-03
  39 F= -.66912255E+03 E0= -.66912255E+03  d E =-.317140E+00  mag=     2.0000
       N       E                     dE             d eps       ncg     rms          ort
SDA:   1    -0.668236569289E+03    0.88598E+00    0.00000E+00  8424   0.294E+01 0.000E+00
CGA:   2    -0.668827364064E+03   -0.59079E+00   -0.59108E+00  8424   0.114E+01 0.268E-02
CGA:   3    -0.669065168426E+03   -0.23780E+00   -0.23773E+00  8424   0.371E+00-0.136E-02
CGA:   4    -0.669128317398E+03   -0.63149E-01   -0.63167E-01  8424   0.975E-01 0.181E-03
CGA:   5    -0.669144956301E+03   -0.16639E-01   -0.16703E-01  8424   0.190E-01 0.794E-03
CGA:   6    -0.669148641635E+03   -0.36853E-02   -0.37063E-02  8424   0.416E-02 0.402E-03
CGA:   7    -0.669149540046E+03   -0.89841E-03   -0.91021E-03  8424   0.119E-02 0.410E-03
CGA:   8    -0.669149779679E+03   -0.23963E-03   -0.25581E-03  8424   0.350E-03 0.350E-03
CGA:   9    -0.669149818922E+03   -0.39244E-04   -0.63765E-04  8424   0.166E-03 0.249E-03
CGA:  10    -0.669149815694E+03    0.32284E-05   -0.15780E-04  8424   0.118E-03 0.136E-03
  40 F= -.66914982E+03 E0= -.66914982E+03  d E =-.272629E-01  mag=     2.0000
       N       E                     dE             d eps       ncg     rms          ort
SDA:   1    -0.669069890225E+03    0.79929E-01    0.00000E+00  8424   0.255E+00 0.000E+00
CGA:   2    -0.669127798633E+03   -0.57908E-01   -0.57903E-01  8424   0.109E+00 0.601E-03
CGA:   3    -0.669149165673E+03   -0.21367E-01   -0.21352E-01  8424   0.312E-01-0.629E-03
CGA:   4    -0.669154404179E+03   -0.52385E-02   -0.52540E-02  8424   0.811E-02 0.309E-03
CGA:   5    -0.669155683490E+03   -0.12793E-02   -0.13156E-02  8424   0.148E-02 0.650E-03
CGA:   6    -0.669155907591E+03   -0.22410E-03   -0.24924E-03  8424   0.362E-03 0.435E-03
CGA:   7    -0.669155934113E+03   -0.26522E-04   -0.52274E-04  8424   0.172E-03 0.260E-03
CGA:   8    -0.669155932297E+03    0.18153E-05   -0.14886E-04  8424   0.120E-03 0.140E-03
  41 F= -.66915593E+03 E0= -.66915593E+03  d E =-.611660E-02  mag=     2.0000
       N       E                     dE             d eps       ncg     rms          ort
SDA:   1    -0.669016110314E+03    0.13982E+00    0.00000E+00  8424   0.405E+00 0.000E+00
CGA:   2    -0.669119871617E+03   -0.10376E+00   -0.10369E+00  8424   0.184E+00 0.111E-02
CGA:   3    -0.669154461716E+03   -0.34590E-01   -0.34578E-01  8424   0.480E-01-0.135E-02
CGA:   4    -0.669162440151E+03   -0.79784E-02   -0.79915E-02  8424   0.120E-01 0.465E-03
CGA:   5    -0.669164354968E+03   -0.19148E-02   -0.19470E-02  8424   0.224E-02 0.949E-03
CGA:   6    -0.669164726149E+03   -0.37118E-03   -0.38968E-03  8424   0.526E-03 0.584E-03
CGA:   7    -0.669164781352E+03   -0.55203E-04   -0.79625E-04  8424   0.230E-03 0.344E-03
CGA:   8    -0.669164784673E+03   -0.33209E-05   -0.20784E-04  8424   0.152E-03 0.180E-03
CGA:   9    -0.669164778684E+03    0.59889E-05   -0.10002E-04  8424   0.126E-03 0.137E-03
  42 F= -.66916478E+03 E0= -.66916478E+03  d E =-.884639E-02  mag=     2.0000
       N       E                     dE             d eps       ncg     rms          ort
SDA:   1    -0.669105373844E+03    0.59411E-01    0.00000E+00  8424   0.178E+00 0.000E+00
CGA:   2    -0.669156037341E+03   -0.50663E-01   -0.50531E-01  8424   0.801E-01 0.116E-02
CGA:   3    -0.669170736429E+03   -0.14699E-01   -0.14703E-01  8424   0.204E-01-0.669E-03
CGA:   4    -0.669174085839E+03   -0.33494E-02   -0.33556E-02  8424   0.475E-02 0.584E-03
CGA:   5    -0.669174783841E+03   -0.69800E-03   -0.72018E-03  8424   0.878E-03 0.768E-03
CGA:   6    -0.669174889517E+03   -0.10568E-03   -0.12785E-03  8424   0.293E-03 0.450E-03
CGA:   7    -0.669174898512E+03   -0.89947E-05   -0.26427E-04  8424   0.171E-03 0.213E-03
CGA:   8    -0.669174892941E+03    0.55703E-05   -0.10589E-04  8424   0.137E-03 0.152E-03
  43 F= -.66917489E+03 E0= -.66917489E+03  d E =-.101143E-01  mag=     2.0000
       N       E                     dE             d eps       ncg     rms          ort
SDA:   1    -0.669036813061E+03    0.13809E+00    0.00000E+00  8424   0.404E+00 0.000E+00
CGA:   2    -0.669151718244E+03   -0.11491E+00   -0.11469E+00  8424   0.196E+00 0.169E-02
CGA:   3    -0.669186612795E+03   -0.34895E-01   -0.34884E-01  8424   0.439E-01 0.737E-03
CGA:   4    -0.669194057549E+03   -0.74448E-02   -0.74435E-02  8424   0.112E-01 0.269E-03
CGA:   5    -0.669195940172E+03   -0.18826E-02   -0.18814E-02  8424   0.220E-02 0.437E-03
CGA:   6    -0.669196314718E+03   -0.37455E-03   -0.37499E-03  8424   0.504E-03 0.525E-03
CGA:   7    -0.669196367287E+03   -0.52568E-04   -0.70404E-04  8424   0.225E-03 0.345E-03
CGA:   8    -0.669196369618E+03   -0.23310E-05   -0.17531E-04  8424   0.154E-03 0.181E-03
  44 F= -.66919637E+03 E0= -.66919637E+03  d E =-.214767E-01  mag=     2.0000
       N       E                     dE             d eps       ncg     rms          ort
SDA:   1    -0.665953463242E+03    0.32429E+01    0.00000E+00  8424   0.848E+01 0.000E+00
CGA:   2    -0.668312474843E+03   -0.23590E+01   -0.23599E+01  8424   0.423E+01-0.613E-02
CGA:   3    -0.669077976933E+03   -0.76550E+00   -0.76536E+00  8424   0.974E+00 0.575E-02
CGA:   4    -0.669242495101E+03   -0.16452E+00   -0.16453E+00  8424   0.242E+00-0.174E-02
CGA:   5    -0.669283979155E+03   -0.41484E-01   -0.41492E-01  8424   0.506E-01-0.779E-03
CGA:   6    -0.669294235069E+03   -0.10256E-01   -0.10207E-01  8424   0.127E-01 0.117E-02
CGA:   7    -0.669297200227E+03   -0.29652E-02   -0.29384E-02  8424   0.375E-02 0.421E-03
CGA:   8    -0.669298096276E+03   -0.89605E-03   -0.85743E-03  8424   0.121E-02 0.704E-03
CGA:   9    -0.669298396945E+03   -0.30067E-03   -0.28407E-03  8424   0.487E-03 0.566E-03
CGA:  10    -0.669298507257E+03   -0.11031E-03   -0.11451E-03  8424   0.267E-03 0.401E-03
CGA:  11    -0.669298535145E+03   -0.27888E-04   -0.35597E-04  8424   0.180E-03 0.209E-03
CGA:  12    -0.669298542087E+03   -0.69417E-05   -0.18133E-04  8424   0.154E-03 0.166E-03
CGA:  13    -0.669298544089E+03   -0.20020E-05   -0.13414E-04  8424   0.139E-03 0.146E-03
CGA:  14    -0.669298543700E+03    0.38877E-06   -0.10765E-04  8424   0.128E-03 0.134E-03
  45 F= -.66929854E+03 E0= -.66929854E+03  d E =-.102174E+00  mag=     2.0000
       N       E                     dE             d eps       ncg     rms          ort
SDA:   1    -0.655639605552E+03    0.13659E+02    0.00000E+00  8424   0.438E+02 0.000E+00
CGA:   2    -0.664006056902E+03   -0.83665E+01   -0.83533E+01  8424   0.169E+02 0.260E+00
CGA:   3    -0.667734257160E+03   -0.37282E+01   -0.37317E+01  8424   0.589E+01-0.510E-01
CGA:   4    -0.668713972404E+03   -0.97972E+00   -0.97968E+00  8424   0.142E+01 0.186E-02
CGA:   5    -0.668953307823E+03   -0.23934E+00   -0.23928E+00  8424   0.285E+00 0.443E-02
CGA:   6    -0.669010397269E+03   -0.57089E-01   -0.57137E-01  8424   0.674E-01-0.119E-02
CGA:   7    -0.669025418797E+03   -0.15022E-01   -0.14919E-01  8424   0.191E-01 0.167E-02
CGA:   8    -0.669030084899E+03   -0.46661E-02   -0.46124E-02  8424   0.554E-02 0.748E-03
CGA:   9    -0.669031649343E+03   -0.15644E-02   -0.15616E-02  8424   0.197E-02 0.255E-04
CGA:  10    -0.669032195405E+03   -0.54606E-03   -0.51191E-03  8424   0.774E-03 0.395E-03
CGA:  11    -0.669032468078E+03   -0.27267E-03   -0.24871E-03  8424   0.348E-03 0.262E-03
CGA:  12    -0.669032575796E+03   -0.10772E-03   -0.99634E-04  8424   0.201E-03 0.244E-03
CGA:  13    -0.669032616735E+03   -0.40939E-04   -0.39202E-04  8424   0.132E-03 0.143E-03
CGA:  14    -0.669032650891E+03   -0.34155E-04   -0.29389E-04  8424   0.116E-03 0.120E-03
CGA:  15    -0.669032669567E+03   -0.18676E-04   -0.20055E-04  8424   0.109E-03 0.111E-03
CGA:  16    -0.669032690716E+03   -0.21149E-04   -0.20663E-04  8424   0.104E-03 0.106E-03
CGA:  17    -0.669032707439E+03   -0.16723E-04   -0.17980E-04  8424   0.100E-03 0.102E-03
CGA:  18    -0.669032724025E+03   -0.16586E-04   -0.17539E-04  8424   0.970E-04 0.985E-04
CGA:  19    -0.669032738661E+03   -0.14636E-04   -0.16240E-04  8424   0.943E-04 0.956E-04
CGA:  20    -0.669032752818E+03   -0.14156E-04   -0.15710E-04  8424   0.918E-04 0.930E-04
CGA:  21    -0.669032765740E+03   -0.12923E-04   -0.14830E-04  8424   0.896E-04 0.907E-04
CGA:  22    -0.669032778251E+03   -0.12511E-04   -0.14379E-04  8424   0.876E-04 0.886E-04
CGA:  23    -0.669032789788E+03   -0.11536E-04   -0.13664E-04  8424   0.858E-04 0.867E-04
CGA:  24    -0.669032801079E+03   -0.11291E-04   -0.13327E-04  8424   0.842E-04 0.850E-04
CGA:  25    -0.669032811432E+03   -0.10353E-04   -0.12657E-04  8424   0.826E-04 0.834E-04
CGA:  26    -0.669032821866E+03   -0.10434E-04   -0.12505E-04  8424   0.812E-04 0.819E-04
CGA:  27    -0.669032831044E+03   -0.91779E-05   -0.11697E-04  8424   0.799E-04 0.805E-04
CGA:  28    -0.669032841204E+03   -0.10160E-04   -0.12013E-04  8424   0.786E-04 0.791E-04
CGA:  29    -0.669032848518E+03   -0.73138E-05   -0.10430E-04  8424   0.777E-04 0.778E-04
CGA:  30    -0.669032860223E+03   -0.11706E-04   -0.12471E-04  8424   0.772E-04 0.762E-04
CGA:  31    -0.669032863847E+03   -0.36232E-05   -0.83004E-05  8424   0.765E-04 0.745E-04
CGA:  32    -0.669032878701E+03   -0.14854E-04   -0.13847E-04  8424   0.804E-04 0.716E-04
CGA:  33    -0.669032879163E+03   -0.46201E-06   -0.65659E-05  8424   0.744E-04 0.708E-04
CGA:  34    -0.669032891790E+03   -0.12627E-04   -0.12397E-04  8424   0.755E-04 0.707E-04
CGA:  35    -0.669032893822E+03   -0.20319E-05   -0.70064E-05  8424   0.722E-04 0.702E-04
