       N       E                     dE             d eps       ncg     rms          ort
DAV:   1     0.826815939321E+04    0.82682E+04   -0.24656E+05  8424   0.238E+03
DAV:   2     0.920098396987E+03   -0.73481E+04   -0.68973E+04  8424   0.656E+02
DAV:   3    -0.674216896704E+03   -0.15943E+04   -0.14016E+04  8424   0.282E+02
DAV:   4    -0.830368355272E+03   -0.15615E+03   -0.15341E+03  8424   0.858E+01
DAV:   5    -0.832871657613E+03   -0.25033E+01   -0.24923E+01  8424   0.122E+01
SDA:   6    -0.256215456923E+03    0.57666E+03   -0.24923E+01  8424   0.426E+04 0.000E+00
CGA:   7    -0.582154200662E+03   -0.32594E+03   -0.43320E+03  8424   0.302E+04-0.465E+03
CGA:   8    -0.602710868021E+03   -0.20557E+02   -0.15484E+03  8424   0.806E+03-0.857E+03
CGA:   9    -0.541032550485E+03    0.61678E+02   -0.28417E+02  8424   0.333E+04-0.880E+03
CGA:  10    -0.550116680230E+03   -0.90841E+01   -0.16325E+03  8424   0.968E+03-0.615E+03
CGA:  11    -0.641451411046E+03   -0.91335E+02   -0.24960E+02  8424   0.244E+03 0.901E+03
CGA:  12    -0.643747284185E+03   -0.22959E+01   -0.78158E+01  8424   0.132E+04-0.907E+03
CGA:  13    -0.633938603587E+03    0.98087E+01   -0.86577E+02  8424   0.268E+03-0.104E+03
CGA:  14    -0.654844094824E+03   -0.20905E+02   -0.66693E+01  8424   0.202E+03 0.359E+03
CGA:  15    -0.658936973272E+03   -0.40929E+01   -0.68520E+01  8424   0.133E+03-0.135E+03
CGA:  16    -0.660306622234E+03   -0.13696E+01   -0.66511E+01  8424   0.979E+02-0.548E+02
CGA:  17    -0.663526205489E+03   -0.32196E+01   -0.30818E+01  8424   0.108E+02 0.180E+02
CGA:  18    -0.664505172833E+03   -0.97897E+00   -0.84676E+00  8424   0.201E+02 0.826E+00
CGA:  19    -0.664386898444E+03    0.11827E+00   -0.11045E+01  8424   0.841E+02-0.350E+02
CGA:  20    -0.666159206867E+03   -0.17723E+01   -0.29595E+01  8424   0.248E+02-0.252E+02
CGA:  21    -0.667341108879E+03   -0.11819E+01   -0.14798E+01  8424   0.319E+01 0.238E+01
CGA:  22    -0.667972077926E+03   -0.63097E+00   -0.59784E+00  8424   0.424E+01 0.460E+00
CGA:  23    -0.668731268096E+03   -0.75919E+00   -0.75949E+00  8424   0.174E+01-0.808E-01
CGA:  24    -0.668896435170E+03   -0.16517E+00   -0.17349E+00  8424   0.415E+00 0.890E-01
CGA:  25    -0.668956257688E+03   -0.59823E-01   -0.59755E-01  8424   0.262E+00 0.229E-02
CGA:  26    -0.669052318660E+03   -0.96061E-01   -0.85165E-01  8424   0.125E+00 0.471E-01
CGA:  27    -0.669099567433E+03   -0.47249E-01   -0.54196E-01  8424   0.342E+00-0.272E-01
CGA:  28    -0.669145941958E+03   -0.46375E-01   -0.94652E-01  8424   0.512E+00-0.240E+00
CGA:  29    -0.669222967305E+03   -0.77025E-01   -0.76917E-01  8424   0.147E+00-0.212E-01
CGA:  30    -0.669272567032E+03   -0.49600E-01   -0.57981E-01  8424   0.153E+00-0.325E-01
CGA:  31    -0.669305326146E+03   -0.32759E-01   -0.39218E-01  8424   0.786E-01-0.397E-01
CGA:  32    -0.669321002749E+03   -0.15677E-01   -0.20562E-01  8424   0.791E-01-0.276E-01
CGA:  33    -0.669332590335E+03   -0.11588E-01   -0.22561E-01  8424   0.798E-01-0.426E-01
CGA:  34    -0.669348174287E+03   -0.15584E-01   -0.15583E-01  8424   0.262E-01-0.107E-03
CGA:  35    -0.669356009691E+03   -0.78354E-02   -0.82664E-02  8424   0.144E-01-0.366E-02
CGA:  36    -0.669360671457E+03   -0.46618E-02   -0.49827E-02  8424   0.111E-01-0.161E-02
CGA:  37    -0.669363585128E+03   -0.29137E-02   -0.48999E-02  8424   0.154E-01-0.707E-02
CGA:  38    -0.669365856524E+03   -0.22714E-02   -0.22852E-02  8424   0.338E-02 0.220E-03
CGA:  39    -0.669367428725E+03   -0.15722E-02    0.16291E-01  8424   0.155E-02 0.165E-02
CGA:  40    -0.669368705207E+03   -0.12765E-02    0.11163E-02  8424   0.149E-02 0.125E-02
CGA:  41    -0.669369153364E+03   -0.44816E-03   -0.88432E-03  8424   0.864E-02-0.119E-02
CGA:  42    -0.669370590169E+03   -0.14368E-02   -0.12734E-02  8424   0.166E-02-0.174E-02
CGA:  43    -0.669371311902E+03   -0.72173E-03    0.10816E-02  8424   0.692E-03 0.779E-03
CGA:  44    -0.669372051373E+03   -0.73947E-03    0.22901E-03  8424   0.822E-03 0.905E-03
CGA:  45    -0.669372592687E+03   -0.54131E-03    0.25438E-03  8424   0.867E-03 0.440E-03
CGA:  46    -0.669370592992E+03    0.19997E-02   -0.11169E-02  8424   0.456E-01-0.268E-02
CGA:  47    -0.669375914912E+03   -0.53219E-02   -0.49934E-02  8424   0.677E-03-0.159E-02
CGA:  48    -0.669376598371E+03   -0.68346E-03    0.54022E-03  8424   0.982E-03 0.398E-03
CGA:  49    -0.669376989378E+03   -0.39101E-03   -0.50589E-03  8424   0.749E-02-0.118E-02
CGA:  50    -0.669377753759E+03   -0.76438E-03   -0.80677E-03  8424   0.559E-03 0.161E-03
CGA:  51    -0.669378494085E+03   -0.74033E-03    0.19577E-03  8424   0.672E-03 0.543E-03
CGA:  52    -0.669379097152E+03   -0.60307E-03    0.13146E-02  8424   0.177E-02 0.991E-04
CGA:  53    -0.669381650091E+03   -0.25529E-02    0.76453E-03  8424   0.957E-03 0.190E-02
CGA:  54    -0.669382017472E+03   -0.36738E-03   -0.34154E-03  8424   0.285E-02-0.525E-03
CGA:  55    -0.669382471726E+03   -0.45425E-03   -0.39438E-03  8424   0.731E-03-0.229E-03
CGA:  56    -0.669383230915E+03   -0.75919E-03    0.29620E-03  8424   0.589E-03 0.583E-03
CGA:  57    -0.669383872445E+03   -0.64153E-03    0.29240E-03  8424   0.921E-03 0.276E-03
CGA:  58    -0.669385396614E+03   -0.15242E-02    0.60106E-03  8424   0.662E-03 0.115E-02
CGA:  59    -0.669386022436E+03   -0.62582E-03    0.61929E-03  8424   0.836E-03 0.218E-03
CGA:  60    -0.669387292406E+03   -0.12700E-02    0.47060E-03  8424   0.907E-03 0.899E-03
CGA:  61    -0.669384416911E+03    0.28755E-02   -0.15588E-02  8424   0.356E-01-0.336E-02
CGA:  62    -0.669389520264E+03   -0.51034E-02   -0.52738E-02  8424   0.378E-02 0.698E-03
CGA:  63    -0.669390573676E+03   -0.10534E-02   -0.91774E-03  8424   0.883E-03-0.672E-03
CGA:  64    -0.669391304868E+03   -0.73119E-03    0.94656E-03  8424   0.100E-02 0.342E-03
CGA:  65    -0.669392941488E+03   -0.16366E-02    0.83361E-03  8424   0.847E-03 0.749E-03
CGA:  66    -0.669393332710E+03   -0.39122E-03   -0.43151E-03  8424   0.304E-02-0.525E-03
CGA:  67    -0.669393998798E+03   -0.66609E-03   -0.52464E-03  8424   0.925E-03-0.546E-03
CGA:  68    -0.669394746383E+03   -0.74758E-03    0.96308E-03  8424   0.750E-03 0.348E-03
CGA:  69    -0.669396124085E+03   -0.13777E-02    0.37545E-03  8424   0.692E-03 0.748E-03
CGA:  70    -0.669396275751E+03   -0.15167E-03   -0.57415E-03  8424   0.852E-02-0.105E-02
CGA:  71    -0.669397596202E+03   -0.13205E-02   -0.11847E-02  8424   0.542E-03-0.449E-03
CGA:  72    -0.669398255984E+03   -0.65978E-03    0.21822E-03  8424   0.541E-03 0.363E-03
CGA:  73    -0.669398890599E+03   -0.63461E-03    0.31252E-03  8424   0.111E-02 0.126E-03
CGA:  74    -0.669400856372E+03   -0.19658E-02    0.42397E-03  8424   0.795E-03 0.116E-02
CGA:  75    -0.669391415504E+03    0.94409E-02   -0.50935E-02  8424   0.744E-01-0.499E-02
CGA:  76    -0.669404922056E+03   -0.13507E-01   -0.13545E-01  8424   0.352E-02 0.193E-03
CGA:  77    -0.669405853326E+03   -0.93127E-03   -0.72680E-03  8424   0.838E-03-0.381E-03
CGA:  78    -0.669387076419E+03    0.18777E-01   -0.10139E-01  8424   0.168E+00-0.571E-02
CGA:  79    -0.669413422748E+03   -0.26346E-01   -0.26494E-01  8424   0.141E-01-0.635E-02
CGA:  80    -0.669415903763E+03   -0.24810E-02   -0.25870E-02  8424   0.118E-02 0.136E-03
CGA:  81    -0.669416625087E+03   -0.72132E-03   -0.44696E-03  8424   0.137E-02-0.337E-03
CGA:  82    -0.669419195665E+03   -0.25706E-02    0.43997E-02  8424   0.855E-02-0.754E-03
CGA:  83    -0.669421225286E+03   -0.20296E-02   -0.17471E-02  8424   0.193E-02-0.309E-03
CGA:  84    -0.669422118645E+03   -0.89336E-03   -0.62141E-03  8424   0.119E-02-0.354E-03
CGA:  85    -0.669424328052E+03   -0.22094E-02    0.91636E-02  8424   0.822E-02-0.988E-03
CGA:  86    -0.669425583739E+03   -0.12557E-02   -0.13203E-02  8424   0.148E-02 0.158E-03
CGA:  87    -0.669426652552E+03   -0.10688E-02   -0.74506E-03  8424   0.192E-02-0.613E-03
CGA:  88    -0.669421052661E+03    0.55999E-02   -0.27526E-02  8424   0.518E-01-0.600E-02
CGA:  89    -0.669433889188E+03   -0.12837E-01   -0.12250E-01  8424   0.187E-01-0.157E-02
CGA:  90    -0.669438398181E+03   -0.45090E-02   -0.43251E-02  8424   0.345E-02-0.139E-03
CGA:  91    -0.669439880102E+03   -0.14819E-02   -0.10791E-02  8424   0.113E-02-0.604E-03
CGA:  92    -0.669442091590E+03   -0.22115E-02    0.19248E-02  8424   0.189E-02-0.275E-03
CGA:  93    -0.669446851872E+03   -0.47603E-02    0.94964E-03  8424   0.708E-02-0.656E-03
CGA:  94    -0.669468838298E+03   -0.21986E-01    0.15087E-02  8424   0.155E-01-0.930E-03
CGA:  95    -0.669522002130E+03   -0.53164E-01    0.61071E-02  8424   0.547E-01-0.160E-01
CGA:  96    -0.669534012799E+03   -0.12011E-01   -0.12217E-01  8424   0.630E-02-0.271E-03
CGA:  97    -0.669536314924E+03   -0.23021E-02   -0.25579E-02  8424   0.406E-02 0.476E-03
CGA:  98    -0.669537151234E+03   -0.83631E-03   -0.10275E-02  8424   0.783E-03 0.289E-03
CGA:  99    -0.669537253702E+03   -0.10247E-03   -0.28206E-03  8424   0.399E-03 0.337E-03
CGA: 100    -0.669537126449E+03    0.12725E-03   -0.14435E-03  8424   0.601E-03 0.365E-03
CGA: 101    -0.669536540933E+03    0.58552E-03   -0.12716E-03  8424   0.218E-02 0.520E-03
CGA: 102    -0.669534546939E+03    0.19940E-02   -0.49102E-03  8424   0.892E-02 0.177E-02
CGA: 103    -0.669528529974E+03    0.60170E-02   -0.22537E-02  8424   0.279E-01 0.550E-02
CGA: 104    -0.669529164776E+03   -0.63480E-03   -0.10022E-01  8424   0.223E-01 0.100E-01
CGA: 105    -0.669533126498E+03   -0.39617E-02   -0.10161E-01  8424   0.635E-02 0.645E-02
CGA: 106    -0.669530873165E+03    0.22533E-02   -0.15854E-02  8424   0.189E-01 0.583E-02
CGA: 107    -0.669534472781E+03   -0.35996E-02   -0.73923E-02  8424   0.453E-02 0.435E-02
CGA: 108    -0.669537000974E+03   -0.25282E-02   -0.27937E-02  8424   0.586E-03 0.364E-03
CGA: 109    -0.669537143732E+03   -0.14276E-03   -0.22434E-03  8424   0.477E-03 0.137E-03
CGA: 110    -0.669537204735E+03   -0.61003E-04   -0.15611E-03  8424   0.268E-03 0.154E-03
CGA: 111    -0.669537259336E+03   -0.54601E-04   -0.11785E-03  8424   0.264E-03 0.158E-03
CGA: 112    -0.669537395186E+03   -0.13585E-03   -0.14345E-03  8424   0.193E-03 0.123E-03
CGA: 113    -0.669537468107E+03   -0.72920E-04   -0.10286E-03  8424   0.314E-03 0.122E-03
CGA: 114    -0.669537523550E+03   -0.55443E-04   -0.54937E-04  8424   0.202E-03-0.198E-05
CGA: 115    -0.669537854758E+03   -0.33121E-03   -0.23150E-03  8424   0.245E-03 0.146E-03
CGA: 116    -0.669537903646E+03   -0.48888E-04   -0.57081E-04  8424   0.176E-03 0.218E-04
CGA: 117    -0.669305120185E+03    0.23278E+00   -0.29172E-01  8424   0.394E-01-0.719E-02
CGA: 118    -0.669490375027E+03   -0.18525E+00    0.16585E-01  8424   0.380E+00-0.520E-01
CGA: 119    -0.669538284170E+03   -0.47909E-01   -0.47127E-01  8424   0.868E-02-0.236E-02
CGA: 120    -0.669539811118E+03   -0.15269E-02   -0.14818E-02  8424   0.740E-03-0.575E-04
CGA: 121    -0.669540007282E+03   -0.19616E-03   -0.20865E-03  8424   0.367E-03 0.124E-04
CGA: 122    -0.669540282347E+03   -0.27507E-03   -0.18388E-03  8424   0.666E-03-0.217E-03
CGA: 123    -0.669540410043E+03   -0.12770E-03   -0.12457E-03  8424   0.232E-03-0.498E-05
CGA: 124    -0.669539525165E+03    0.88488E-03   -0.54524E-03  8424   0.112E-01-0.967E-03
CGA: 125    -0.669541286031E+03   -0.17609E-02   -0.17783E-02  8424   0.222E-02 0.104E-04
CGA: 126    -0.669541904962E+03   -0.61893E-03   -0.59021E-03  8424   0.399E-03-0.457E-04
CGA: 127    -0.669542166409E+03   -0.26145E-03   -0.18100E-03  8424   0.468E-03-0.199E-03
CGA: 128    -0.669542809360E+03   -0.64295E-03    0.16230E-03  8424   0.125E-02-0.130E-03
CGA: 129    -0.669545187067E+03   -0.23777E-02    0.70387E-03  8424   0.483E-02-0.554E-03
CGA: 130    -0.669558637866E+03   -0.13451E-01    0.58906E-03  8424   0.104E-01-0.253E-03
CGA: 131    -0.669594520672E+03   -0.35883E-01    0.36589E-02  8424   0.434E-01-0.172E-01
CGA: 132    -0.669603347561E+03   -0.88269E-02   -0.88082E-02  8424   0.467E-02-0.121E-03
CGA: 133    -0.669604418225E+03   -0.10707E-02   -0.12253E-02  8424   0.152E-02 0.268E-03
CGA: 134    -0.669604862626E+03   -0.44440E-03   -0.58022E-03  8424   0.458E-03 0.320E-03
CGA: 135    -0.669604948930E+03   -0.86304E-04   -0.20092E-03  8424   0.432E-03 0.276E-03
CGA: 136    -0.669604929352E+03    0.19578E-04   -0.99928E-04  8424   0.320E-03 0.190E-03
CGA: 137    -0.669604804306E+03    0.12505E-03   -0.10356E-03  8424   0.595E-03 0.408E-03
CGA: 138    -0.669604752978E+03    0.51329E-04   -0.14727E-03  8424   0.651E-03 0.291E-03
CGA: 139    -0.669603980211E+03    0.77277E-03   -0.13744E-03  8424   0.233E-02 0.137E-02
CGA: 140    -0.669604411908E+03   -0.43170E-03   -0.72492E-03  8424   0.142E-02 0.865E-03
CGA: 141    -0.669602423564E+03    0.19883E-02   -0.26160E-03  8424   0.606E-02 0.186E-02
CGA: 142    -0.669601828545E+03    0.59502E-03   -0.15509E-02  8424   0.850E-02 0.281E-02
CGA: 143    -0.669593837866E+03    0.79907E-02   -0.19019E-02  8424   0.233E-01 0.135E-01
CGA: 144    -0.669597539422E+03   -0.37016E-02   -0.72203E-02  8424   0.175E-01 0.969E-02
CGA: 145    -0.669602406099E+03   -0.48667E-02   -0.79047E-02  8424   0.406E-02 0.429E-02
CGA: 146    -0.669604491141E+03   -0.20850E-02   -0.22756E-02  8424   0.581E-03 0.707E-03
CGA: 147    -0.669604690265E+03   -0.19912E-03   -0.24697E-03  8424   0.350E-03-0.994E-04
CGA: 148    -0.669604815612E+03   -0.12535E-03   -0.12395E-03  8424   0.356E-03 0.105E-03
CGA: 149    -0.669604925978E+03   -0.11037E-03   -0.15083E-03  8424   0.231E-03 0.271E-03
CGA: 150    -0.669604966624E+03   -0.40645E-04   -0.65077E-04  8424   0.254E-03 0.103E-03
CGA: 151    -0.669605101396E+03   -0.13477E-03   -0.15570E-03  8424   0.131E-03 0.252E-03
CGA: 152    -0.669605134002E+03   -0.32606E-04   -0.45485E-04  8424   0.128E-03 0.834E-04
CGA: 153    -0.669605158834E+03   -0.24831E-04   -0.39528E-04  8424   0.123E-03 0.791E-04
CGA: 154    -0.669605182747E+03   -0.23914E-04   -0.37026E-04  8424   0.133E-03 0.708E-04
CGA: 155    -0.669605204411E+03   -0.21664E-04   -0.34132E-04  8424   0.139E-03 0.567E-04
CGA: 156    -0.669605270050E+03   -0.65640E-04   -0.78409E-04  8424   0.118E-03 0.185E-03
CGA: 157    -0.669605294991E+03   -0.24940E-04   -0.34139E-04  8424   0.128E-03 0.533E-04
CGA: 158    -0.669605373470E+03   -0.78479E-04   -0.81033E-04  8424   0.114E-03 0.168E-03
CGA: 159    -0.669605400178E+03   -0.26708E-04   -0.34853E-04  8424   0.984E-04 0.557E-04
CGA: 160    -0.669605482234E+03   -0.82056E-04   -0.73651E-04  8424   0.120E-03 0.136E-03
CGA: 161    -0.669605521166E+03   -0.38931E-04   -0.42551E-04  8424   0.102E-03 0.388E-04
CGA: 162    -0.669605644691E+03   -0.12353E-03   -0.92581E-04  8424   0.139E-03 0.121E-03
CGA: 163    -0.669605675108E+03   -0.30417E-04   -0.37924E-04  8424   0.872E-04 0.406E-04
CGA: 164    -0.669605772710E+03   -0.97602E-04   -0.79938E-04  8424   0.225E-03 0.614E-04
CGA: 165    -0.669605823630E+03   -0.50920E-04   -0.55053E-04  8424   0.972E-04 0.188E-04
CGA: 166    -0.669605903745E+03   -0.80115E-04   -0.84815E-04  8424   0.496E-03-0.173E-04
CGA: 167    -0.669607389514E+03   -0.14858E-02   -0.26210E-03  8424   0.959E-02-0.426E-03
CGA: 168    -0.669609155907E+03   -0.17664E-02   -0.18418E-02  8424   0.109E-02 0.107E-03
CGA: 169    -0.669609374160E+03   -0.21825E-03   -0.19399E-03  8424   0.862E-04-0.398E-04
CGA: 170    -0.669609436172E+03   -0.62012E-04   -0.78977E-04  8424   0.334E-03-0.102E-03
CGA: 171    -0.669609532197E+03   -0.96025E-04   -0.77558E-04  8424   0.112E-03-0.333E-04
CGA: 172    -0.669609587925E+03   -0.55728E-04   -0.36981E-04  8424   0.937E-04-0.476E-04
CGA: 173    -0.669609788302E+03   -0.20038E-03    0.13438E-04  8424   0.187E-03-0.220E-04
CGA: 174    -0.669610231424E+03   -0.44312E-03    0.49299E-04  8424   0.316E-03 0.837E-05
CGA: 175    -0.669611221827E+03   -0.99040E-03    0.12071E-03  8424   0.894E-03-0.139E-03
CGA: 176    -0.669614114921E+03   -0.28931E-02    0.64259E-04  8424   0.187E-02-0.222E-03
CGA: 177    -0.669622435629E+03   -0.83207E-02    0.17655E-03  8424   0.419E-02-0.119E-02
CGA: 178    -0.669623352016E+03   -0.91639E-03   -0.85828E-03  8424   0.800E-03-0.112E-03
CGA: 179    -0.669623622432E+03   -0.27042E-03   -0.26208E-03  8424   0.238E-03-0.227E-04
CGA: 180    -0.669623718662E+03   -0.96230E-04   -0.96181E-04  8424   0.172E-03-0.214E-05
CGA: 181    -0.669623991834E+03   -0.27317E-03    0.33300E-03  8424   0.475E-03 0.113E-04
CGA: 182    -0.669624457317E+03   -0.46548E-03   -0.62593E-03  8424   0.252E-02-0.421E-03
CGA: 183    -0.669625077697E+03   -0.62038E-03   -0.50293E-03  8424   0.732E-03-0.238E-03
CGA: 184    -0.669625209299E+03   -0.13160E-03   -0.16885E-03  8424   0.201E-03 0.854E-04
CGA: 185    -0.669625324362E+03   -0.11506E-03   -0.11755E-03  8424   0.254E-03 0.158E-04
CGA: 186    -0.669625498285E+03   -0.17392E-03   -0.26222E-03  8424   0.190E-02-0.308E-03
CGA: 187    -0.669625693273E+03   -0.19499E-03   -0.26615E-03  8424   0.232E-03 0.139E-03
CGA: 188    -0.669625832009E+03   -0.13874E-03   -0.25850E-03  8424   0.124E-02-0.306E-03
CGA: 189    -0.669626098412E+03   -0.26640E-03   -0.26320E-03  8424   0.295E-03-0.436E-04
CGA: 190    -0.669626164535E+03   -0.66123E-04   -0.89234E-04  8424   0.369E-03 0.472E-04
CGA: 191    -0.669625492556E+03    0.67198E-03   -0.50448E-04  8424   0.289E-02 0.349E-03
CGA: 192    -0.669624847682E+03    0.64487E-03   -0.70741E-03  8424   0.584E-02 0.132E-02
CGA: 193    -0.669614089194E+03    0.10758E-01   -0.10091E-02  8424   0.453E-01 0.129E-01
CGA: 194    -0.669621241452E+03   -0.71523E-02   -0.14559E-01  8424   0.124E-01 0.934E-02
CGA: 195    -0.669625832888E+03   -0.45914E-02   -0.57922E-02  8424   0.160E-02 0.903E-03
CGA: 196    -0.669626342126E+03   -0.50924E-03   -0.55028E-03  8424   0.121E-02 0.109E-04
CGA: 197    -0.669626786898E+03   -0.44477E-03   -0.48517E-03  8424   0.286E-03-0.658E-04
CGA: 198    -0.669626833665E+03   -0.46767E-04   -0.22575E-03  8424   0.342E-02-0.565E-03
CGA: 199    -0.669627208429E+03   -0.37476E-03   -0.40240E-03  8424   0.103E-03 0.730E-04
CGA: 200    -0.669627411406E+03   -0.20298E-03    0.30887E-04  8424   0.171E-03 0.737E-04
   1 F= -.66962741E+03 E0= -.66962741E+03  d E =-.669627E+03  mag=     2.0000
       N       E                     dE             d eps       ncg     rms          ort
SDA:   1    -0.669629160112E+03   -0.19517E-02    0.00000E+00  8424   0.325E-02 0.000E+00
CGA:   2    -0.669629620347E+03   -0.46023E-03   -0.48966E-03  8424   0.919E-03 0.835E-04
CGA:   3    -0.669629942324E+03   -0.32198E-03   -0.29192E-03  8424   0.605E-03-0.171E-03
CGA:   4    -0.669630087186E+03   -0.14486E-03   -0.10908E-03  8424   0.306E-03-0.141E-03
CGA:   5    -0.669630190909E+03   -0.10372E-03   -0.11815E-03  8424   0.133E-02-0.389E-03
CGA:   6    -0.669630389855E+03   -0.19895E-03   -0.17446E-03  8424   0.262E-03-0.732E-04
CGA:   7    -0.669630480748E+03   -0.90894E-04   -0.16337E-03  8424   0.120E-02-0.347E-03
CGA:   8    -0.669630693546E+03   -0.21280E-03   -0.19116E-03  8424   0.214E-03-0.722E-04
CGA:   9    -0.669630748159E+03   -0.54614E-04   -0.13201E-03  8424   0.121E-02-0.371E-03
CGA:  10    -0.669630968684E+03   -0.22052E-03   -0.20517E-03  8424   0.171E-03-0.540E-04
CGA:  11    -0.669627987949E+03    0.29807E-02   -0.16177E-02  8424   0.191E-01-0.145E-02
CGA:  12    -0.669631519022E+03   -0.35311E-02   -0.35582E-02  8424   0.192E-02 0.406E-04
CGA:  13    -0.669632087917E+03   -0.56890E-03   -0.49008E-03  8424   0.212E-03-0.152E-03
CGA:  14    -0.669632149701E+03   -0.61784E-04   -0.48103E-04  8424   0.135E-03-0.277E-04
CGA:  15    -0.669632513967E+03   -0.36427E-03    0.37085E-04  8424   0.458E-03-0.864E-04
CGA:  16    -0.669632578557E+03   -0.64590E-04   -0.79400E-04  8424   0.125E-03 0.269E-04
CGA:  17    -0.669632779466E+03   -0.20091E-03    0.53957E-03  8424   0.651E-03-0.178E-03
CGA:  18    -0.669632882152E+03   -0.10269E-03   -0.10852E-03  8424   0.148E-03 0.115E-04
CGA:  19    -0.669633096089E+03   -0.21394E-03    0.81407E-03  8424   0.844E-03-0.246E-03
CGA:  20    -0.669633189218E+03   -0.93129E-04   -0.12526E-03  8424   0.146E-03 0.624E-04
CGA:  21    -0.669633207990E+03   -0.18773E-04   -0.14992E-03  8424   0.174E-02-0.427E-03
CGA:  22    -0.669633521644E+03   -0.31365E-03   -0.32329E-03  8424   0.330E-03 0.217E-04
CGA:  23    -0.669633720630E+03   -0.19899E-03   -0.11022E-03  8424   0.431E-03-0.291E-03
CGA:  24    -0.669633760736E+03   -0.40106E-04   -0.58033E-04  8424   0.721E-04 0.373E-04
CGA:  25    -0.669633930457E+03   -0.16972E-03    0.28614E-04  8424   0.172E-03-0.416E-04
CGA:  26    -0.669633014041E+03    0.91642E-03   -0.33782E-03  8424   0.655E-02-0.921E-03
CGA:  27    -0.669634641006E+03   -0.16270E-02   -0.16303E-02  8424   0.171E-03 0.409E-05
CGA:  28    -0.669634681549E+03   -0.40543E-04   -0.33875E-04  8424   0.742E-04-0.151E-04
CGA:  29    -0.669634937925E+03   -0.25638E-03    0.10283E-04  8424   0.176E-03-0.160E-04
CGA:  30    -0.669635743221E+03   -0.80530E-03    0.11668E-04  8424   0.185E-03 0.114E-03
CGA:  31    -0.669635858007E+03   -0.11479E-03   -0.11054E-03  8424   0.334E-03-0.171E-03
CGA:  32    -0.669636055113E+03   -0.19711E-03   -0.13345E-03  8424   0.554E-03-0.288E-03
CGA:  33    -0.669636099062E+03   -0.43949E-04   -0.69051E-04  8424   0.429E-04 0.524E-04
CGA:  34    -0.669636231284E+03   -0.13222E-03    0.97809E-05  8424   0.127E-03-0.128E-04
CGA:  35    -0.669636847607E+03   -0.61632E-03    0.52794E-05  8424   0.483E-03-0.437E-04
CGA:  36    -0.669639515336E+03   -0.26677E-02    0.14879E-04  8424   0.192E-02-0.635E-04
CGA:  37    -0.669651768746E+03   -0.12253E-01    0.92096E-04  8424   0.213E-02-0.133E-02
CGA:  38    -0.669652004099E+03   -0.23535E-03   -0.34301E-03  8424   0.282E-03 0.250E-03
CGA:  39    -0.669652019063E+03   -0.14964E-04   -0.59968E-04  8424   0.803E-04 0.119E-03
CGA:  40    -0.669652016250E+03    0.28133E-05   -0.17927E-04  8424   0.424E-04 0.528E-04
   2 F= -.66965202E+03 E0= -.66965202E+03  d E =-.246048E-01  mag=     2.0000
       N       E                     dE             d eps       ncg     rms          ort
SDA:   1    -0.669649867743E+03    0.21513E-02    0.00000E+00  8424   0.321E-01 0.000E+00
CGA:   2    -0.669656320353E+03   -0.64526E-02   -0.64706E-02  8424   0.133E-01 0.557E-04
CGA:   3    -0.669659125063E+03   -0.28047E-02   -0.28292E-02  8424   0.442E-02 0.847E-04
CGA:   4    -0.669659815377E+03   -0.69031E-03   -0.71857E-03  8424   0.107E-02 0.880E-04
CGA:   5    -0.669659971402E+03   -0.15603E-03   -0.18165E-03  8424   0.231E-03 0.875E-04
CGA:   6    -0.669659990265E+03   -0.18863E-04   -0.40807E-04  8424   0.762E-04 0.769E-04
CGA:   7    -0.669659982690E+03    0.75757E-05   -0.12153E-04  8424   0.484E-04 0.631E-04
   3 F= -.66965998E+03 E0= -.66965998E+03  d E =-.796644E-02  mag=     2.0000
       N       E                     dE             d eps       ncg     rms          ort
SDA:   1    -0.663343432583E+03    0.63166E+01    0.00000E+00  8424   0.200E+02 0.000E+00
CGA:   2    -0.667307739065E+03   -0.39643E+01   -0.39818E+01  8424   0.826E+01-0.178E-01
CGA:   3    -0.669067912698E+03   -0.17602E+01   -0.17574E+01  8424   0.270E+01 0.432E-02
CGA:   4    -0.669509002022E+03   -0.44109E+00   -0.44129E+00  8424   0.652E+00 0.518E-02
CGA:   5    -0.669619971155E+03   -0.11097E+00   -0.11147E+00  8424   0.136E+00 0.580E-03
CGA:   6    -0.669646447835E+03   -0.26477E-01   -0.26461E-01  8424   0.346E-01-0.815E-03
CGA:   7    -0.669653212976E+03   -0.67651E-02   -0.68501E-02  8424   0.101E-01 0.812E-03
CGA:   8    -0.669655484678E+03   -0.22717E-02   -0.23330E-02  8424   0.317E-02 0.923E-03
CGA:   9    -0.669656226668E+03   -0.74199E-03   -0.77535E-03  8424   0.102E-02 0.389E-03
CGA:  10    -0.669656476561E+03   -0.24989E-03   -0.27866E-03  8424   0.482E-03 0.344E-03
CGA:  11    -0.669656627082E+03   -0.15052E-03   -0.16950E-03  8424   0.297E-03 0.281E-03
CGA:  12    -0.669656754805E+03   -0.12772E-03   -0.12301E-03  8424   0.288E-03 0.534E-04
CGA:  13    -0.669656831597E+03   -0.76793E-04   -0.90516E-04  8424   0.184E-03 0.218E-03
CGA:  14    -0.669656925814E+03   -0.94217E-04   -0.90725E-04  8424   0.204E-03 0.191E-04
CGA:  15    -0.669656952908E+03   -0.27095E-04   -0.46843E-04  8424   0.147E-03 0.155E-03
CGA:  16    -0.669657007159E+03   -0.54250E-04   -0.52719E-04  8424   0.865E-04 0.491E-04
CGA:  17    -0.669657037601E+03   -0.30442E-04   -0.33939E-04  8424   0.894E-04 0.940E-04
CGA:  18    -0.669657091075E+03   -0.53474E-04   -0.46686E-04  8424   0.123E-03 0.337E-04
CGA:  19    -0.669657137646E+03   -0.46571E-04   -0.50850E-04  8424   0.113E-03 0.108E-03
CGA:  20    -0.669657182503E+03   -0.44857E-04   -0.44989E-04  8424   0.187E-03-0.305E-05
CGA:  21    -0.669657245184E+03   -0.62681E-04   -0.62471E-04  8424   0.171E-03 0.574E-04
CGA:  22    -0.669657443031E+03   -0.19785E-03   -0.15021E-03  8424   0.356E-03 0.125E-03
CGA:  23    -0.669657529037E+03   -0.86006E-04   -0.67638E-04  8424   0.185E-03-0.111E-03
CGA:  24    -0.669657188322E+03    0.34072E-03   -0.19439E-03  8424   0.433E-02-0.336E-03
CGA:  25    -0.669657805754E+03   -0.61743E-03   -0.61017E-03  8424   0.754E-03 0.148E-06
CGA:  26    -0.669658064512E+03   -0.25876E-03   -0.23784E-03  8424   0.176E-03-0.721E-04
CGA:  27    -0.669658128972E+03   -0.64460E-04   -0.60805E-04  8424   0.129E-03-0.183E-04
CGA:  28    -0.669658322120E+03   -0.19315E-03    0.77420E-04  8424   0.468E-03-0.482E-04
CGA:  29    -0.669659016510E+03   -0.69439E-03    0.82642E-04  8424   0.912E-03 0.941E-04
CGA:  30    -0.669654583968E+03    0.44325E-02   -0.21485E-02  8424   0.889E-01-0.579E-02
CGA:  31    -0.669665933405E+03   -0.11349E-01   -0.10819E-01  8424   0.238E-02-0.191E-02
CGA:  32    -0.669666586935E+03   -0.65353E-03   -0.61365E-03  8424   0.593E-03-0.109E-03
CGA:  33    -0.669666774673E+03   -0.18774E-03   -0.14594E-03  8424   0.342E-03-0.120E-03
CGA:  34    -0.669656380734E+03    0.10394E-01   -0.56944E-02  8424   0.629E-01-0.354E-02
CGA:  35    -0.669665510255E+03   -0.91295E-02   -0.93339E-02  8424   0.106E-01-0.769E-03
CGA:  36    -0.669668415269E+03   -0.29050E-02   -0.28971E-02  8424   0.230E-02-0.697E-05
CGA:  37    -0.669669378444E+03   -0.96318E-03   -0.80120E-03  8424   0.865E-03-0.251E-03
CGA:  38    -0.669669485566E+03   -0.10712E-03   -0.12883E-03  8424   0.150E-03 0.219E-04
CGA:  39    -0.669669381504E+03    0.10406E-03   -0.24294E-03  8424   0.253E-02-0.423E-03
CGA:  40    -0.669669896546E+03   -0.51504E-03   -0.57764E-03  8424   0.108E-02-0.127E-03
CGA:  41    -0.669670022921E+03   -0.12638E-03   -0.30584E-03  8424   0.712E-03 0.888E-04
CGA:  42    -0.669669521754E+03    0.50117E-03   -0.13306E-03  8424   0.143E-02 0.922E-03
CGA:  43    -0.669669971324E+03   -0.44957E-03   -0.54982E-03  8424   0.122E-02 0.647E-03
CGA:  44    -0.669669678393E+03    0.29293E-03   -0.48254E-03  8424   0.105E-02 0.115E-02
CGA:  45    -0.669670303950E+03   -0.62556E-03   -0.49321E-03  8424   0.120E-02 0.250E-03
CGA:  46    -0.669669837650E+03    0.46630E-03   -0.30773E-03  8424   0.159E-02 0.158E-02
CGA:  47    -0.669670831279E+03   -0.99363E-03   -0.87199E-03  8424   0.856E-03-0.660E-03
CGA:  48    -0.669671020520E+03   -0.18924E-03   -0.19078E-03  8424   0.378E-03-0.418E-04
CGA:  49    -0.669671221392E+03   -0.20087E-03   -0.18414E-03  8424   0.244E-03-0.314E-03
CGA:  50    -0.669671638130E+03   -0.41674E-03    0.45447E-03  8424   0.254E-03 0.682E-04
CGA:  51    -0.669671827029E+03   -0.18890E-03   -0.27117E-03  8424   0.151E-02-0.625E-03
CGA:  52    -0.669672149455E+03   -0.32243E-03   -0.24426E-03  8424   0.193E-03-0.144E-03
CGA:  53    -0.669179389621E+03    0.49276E+00    0.68268E-01  8424   0.644E-01-0.146E-01
CGA:  54    -0.669438502423E+03   -0.25911E+00    0.69089E-01  8424   0.181E+01-0.205E+00
CGA:  55    -0.669634061454E+03   -0.19556E+00   -0.13742E+00  8424   0.278E+00 0.698E+00
CGA:  56    -0.669668327628E+03   -0.34266E-01   -0.32557E-01  8424   0.164E-01 0.303E-01
CGA:  57    -0.669670463425E+03   -0.21358E-02   -0.38693E-02  8424   0.142E-01 0.765E-04
CGA:  58    -0.669627469817E+03    0.42994E-01   -0.18387E-02  8424   0.196E+00 0.160E-01
CGA:  59    -0.669363429362E+03    0.26404E+00   -0.54924E-01  8424   0.128E+01 0.121E+00
CGA:  60    -0.666887408157E+03    0.24760E+01   -0.33053E+00  8424   0.123E+02 0.996E+00
CGA:  61    -0.663220204485E+03    0.36672E+01   -0.45776E+01  8424   0.191E+02 0.305E+01
CGA:  62    -0.654329256380E+03    0.88909E+01   -0.70310E+01  8424   0.324E+02 0.883E+01
CGA:  63    -0.648752866980E+03    0.55764E+01   -0.14617E+02  8424   0.439E+02 0.143E+02
CGA:  64    -0.641431156616E+03    0.73217E+01   -0.18537E+02  8424   0.438E+02 0.180E+02
CGA:  65    -0.631829055637E+03    0.96021E+01   -0.16596E+02  8424   0.609E+02 0.224E+02
CGA:  66    -0.657773146178E+03   -0.25944E+02   -0.32679E+02  8424   0.202E+02 0.817E+01
CGA:  67    -0.663685935227E+03   -0.59128E+01   -0.97942E+01  8424   0.139E+02 0.267E+01
CGA:  68    -0.664829621066E+03   -0.11437E+01   -0.22728E+01  8424   0.667E+01 0.551E+01
CGA:  69    -0.666105115598E+03   -0.12755E+01   -0.23384E+01  8424   0.937E+01 0.206E+01
CGA:  70    -0.667489760593E+03   -0.13846E+01   -0.33029E+01  8424   0.345E+01-0.171E+01
CGA:  71    -0.668010021352E+03   -0.52026E+00   -0.48091E+00  8424   0.244E+01-0.138E-01
CGA:  72    -0.668430873067E+03   -0.42085E+00   -0.64364E+00  8424   0.237E+01 0.118E+00
CGA:  73    -0.668920208979E+03   -0.48934E+00   -0.43762E+00  8424   0.945E+00 0.916E-01
CGA:  74    -0.669177443223E+03   -0.25723E+00   -0.24780E+00  8424   0.874E+00 0.161E-01
CGA:  75    -0.669363210104E+03   -0.18577E+00   -0.21809E+00  8424   0.572E+00-0.891E-01
CGA:  76    -0.669478281453E+03   -0.11507E+00   -0.11190E+00  8424   0.308E+00-0.110E-01
CGA:  77    -0.669539498951E+03   -0.61217E-01   -0.59830E-01  8424   0.153E+00-0.160E-02
CGA:  78    -0.669585096768E+03   -0.45598E-01   -0.44819E-01  8424   0.128E+00-0.767E-02
CGA:  79    -0.669614166328E+03   -0.29070E-01   -0.26797E-01  8424   0.624E-01-0.338E-02
CGA:  80    -0.669633032837E+03   -0.18867E-01   -0.18326E-01  8424   0.543E-01 0.437E-03
CGA:  81    -0.669647220672E+03   -0.14188E-01   -0.13422E-01  8424   0.289E-01 0.148E-02
CGA:  82    -0.669656437482E+03   -0.92168E-02   -0.86218E-02  8424   0.241E-01-0.424E-03
CGA:  83    -0.669662266705E+03   -0.58292E-02   -0.55005E-02  8424   0.145E-01 0.122E-02
CGA:  84    -0.669665669014E+03   -0.34023E-02   -0.33301E-02  8424   0.109E-01 0.102E-02
CGA:  85    -0.669668631219E+03   -0.29622E-02   -0.27484E-02  8424   0.856E-02 0.234E-03
CGA:  86    -0.669670518395E+03   -0.18872E-02   -0.16779E-02  8424   0.640E-02 0.979E-04
CGA:  87    -0.669671768360E+03   -0.12500E-02   -0.11797E-02  8424   0.532E-02 0.356E-03
CGA:  88    -0.669672616456E+03   -0.84810E-03   -0.86582E-03  8424   0.398E-02 0.523E-03
CGA:  89    -0.669673333638E+03   -0.71718E-03   -0.71689E-03  8424   0.369E-02 0.321E-03
CGA:  90    -0.669674045117E+03   -0.71148E-03   -0.64949E-03  8424   0.326E-02 0.765E-04
CGA:  91    -0.669674551125E+03   -0.50601E-03   -0.43451E-03  8424   0.253E-02-0.166E-04
CGA:  92    -0.669674933928E+03   -0.38280E-03   -0.33940E-03  8424   0.259E-02 0.148E-04
CGA:  93    -0.669675283329E+03   -0.34940E-03   -0.32566E-03  8424   0.253E-02 0.132E-03
CGA:  94    -0.669675573811E+03   -0.29048E-03   -0.27544E-03  8424   0.199E-02 0.160E-03
CGA:  95    -0.669675823830E+03   -0.25002E-03   -0.22450E-03  8424   0.185E-02 0.514E-04
SDA:  96    -0.669676090012E+03   -0.26618E-03   -0.21676E-03  8424   0.203E-02-0.604E-04
CGA:  97    -0.669676967332E+03   -0.87732E-03   -0.93058E-03  8424   0.404E-02-0.389E-03
CGA:  98    -0.669678052779E+03   -0.10854E-02   -0.10893E-02  8424   0.161E-02-0.472E-03
CGA:  99    -0.669678272434E+03   -0.21966E-03   -0.21654E-03  8424   0.502E-03-0.654E-05
CGA: 100    -0.669678391722E+03   -0.11929E-03   -0.11178E-03  8424   0.235E-03-0.787E-04
CGA: 101    -0.669678301402E+03    0.90320E-04   -0.14577E-03  8424   0.169E-02-0.563E-03
CGA: 102    -0.669678559708E+03   -0.25831E-03   -0.27150E-03  8424   0.236E-03 0.763E-04
CGA: 103    -0.669678657203E+03   -0.97495E-04   -0.11984E-03  8424   0.153E-03-0.139E-03
CGA: 104    -0.669678707904E+03   -0.50700E-04   -0.67198E-04  8424   0.334E-03-0.156E-03
CGA: 105    -0.669678750028E+03   -0.42125E-04   -0.42746E-04  8424   0.127E-04 0.318E-05
CGA: 106    -0.669678779647E+03   -0.29619E-04    0.83507E-06  8424   0.606E-05-0.983E-06
CGA: 107    -0.669678823985E+03   -0.44339E-04    0.83008E-07  8424   0.341E-05 0.236E-05
CGA: 108    -0.669678872898E+03   -0.48912E-04    0.53128E-07  8424   0.239E-05 0.230E-05
CGA: 109    -0.669678899563E+03   -0.26665E-04    0.24700E-07  8424   0.195E-05 0.524E-06
CGA: 110    -0.669678946223E+03   -0.46660E-04    0.13497E-07  8424   0.186E-05 0.195E-05
CGA: 111    -0.669678972322E+03   -0.26099E-04    0.15005E-07  8424   0.142E-05 0.750E-06
CGA: 112    -0.669679016557E+03   -0.44235E-04    0.99402E-08  8424   0.152E-05 0.182E-05
CGA: 113    -0.669679041149E+03   -0.24592E-04    0.10638E-07  8424   0.118E-05 0.852E-06
CGA: 114    -0.669679065680E+03   -0.24532E-04    0.63800E-08  8424   0.109E-05 0.957E-06
CGA: 115    -0.669679089855E+03   -0.24174E-04    0.55215E-08  8424   0.107E-05 0.955E-06
CGA: 116    -0.669679113819E+03   -0.23964E-04    0.53709E-08  8424   0.108E-05 0.915E-06
CGA: 117    -0.669679137675E+03   -0.23857E-04    0.54318E-08  8424   0.109E-05 0.866E-06
CGA: 118    -0.669679161103E+03   -0.23428E-04    0.56353E-08  8424   0.111E-05 0.811E-06
CGA: 119    -0.669679184680E+03   -0.23577E-04    0.58696E-08  8424   0.122E-05 0.718E-06
CGA: 120    -0.669679207380E+03   -0.22700E-04    0.74026E-08  8424   0.165E-05 0.458E-06
CGA: 121    -0.669679261681E+03   -0.54301E-04    0.10563E-07  8424   0.115E-05 0.207E-05
CGA: 122    -0.669679284248E+03   -0.22567E-04    0.65453E-08  8424   0.124E-05 0.561E-06
CGA: 123    -0.669679330231E+03   -0.45984E-04    0.81855E-08  8424   0.116E-05 0.154E-05
CGA: 124    -0.669679352002E+03   -0.21771E-04    0.69321E-08  8424   0.918E-06 0.622E-06
CGA: 125    -0.669679373307E+03   -0.21304E-04    0.43989E-08  8424   0.108E-05 0.611E-06
CGA: 126    -0.669679394549E+03   -0.21243E-04    0.61269E-08  8424   0.201E-05 0.152E-06
CGA: 127    -0.669679455195E+03   -0.60646E-04    0.96412E-08  8424   0.139E-05 0.216E-05
CGA: 128    -0.669679475014E+03   -0.19819E-04    0.11062E-07  8424   0.336E-05-0.597E-06
CGA: 129    -0.669679543591E+03   -0.68576E-04    0.58925E-08  8424   0.723E-05 0.127E-05
CGA: 130    -0.669679712162E+03   -0.16857E-03    0.66390E-07  8424   0.128E-04-0.136E-05
CGA: 131    -0.669680029884E+03   -0.31772E-03    0.37804E-07  8424   0.117E-04 0.729E-05
CGA: 132    -0.669680039896E+03   -0.10011E-04    0.65099E-05  8424   0.422E-04-0.207E-04
CGA: 133    -0.669680051780E+03   -0.11885E-04   -0.77292E-05  8424   0.212E-04-0.285E-04
CGA: 134    -0.669680059002E+03   -0.72219E-05   -0.50752E-05  8424   0.349E-04-0.263E-04
   4 F= -.66968006E+03 E0= -.66968006E+03  d E =-.200763E-01  mag=     2.0000
       N       E                     dE             d eps       ncg     rms          ort
SDA:   1    -0.668987182717E+03    0.69287E+00    0.00000E+00  8424   0.232E+01 0.000E+00
CGA:   2    -0.669450956211E+03   -0.46377E+00   -0.46409E+00  8424   0.930E+00 0.162E-02
CGA:   3    -0.669648793164E+03   -0.19784E+00   -0.19782E+00  8424   0.311E+00-0.235E-03
CGA:   4    -0.669700035029E+03   -0.51242E-01   -0.51273E-01  8424   0.768E-01 0.165E-03
CGA:   5    -0.669713245706E+03   -0.13211E-01   -0.13238E-01  8424   0.152E-01 0.203E-03
CGA:   6    -0.669716277509E+03   -0.30318E-02   -0.30318E-02  8424   0.344E-02-0.257E-05
CGA:   7    -0.669716994915E+03   -0.71741E-03   -0.73101E-03  8424   0.937E-03 0.189E-03
CGA:   8    -0.669717195099E+03   -0.20018E-03   -0.21063E-03  8424   0.240E-03 0.154E-03
CGA:   9    -0.669717235563E+03   -0.40464E-04   -0.50655E-04  8424   0.812E-04 0.106E-03
CGA:  10    -0.669717236427E+03   -0.86328E-06   -0.13106E-04  8424   0.459E-04 0.762E-04
   5 F= -.66971724E+03 E0= -.66971724E+03  d E =-.371774E-01  mag=     2.0000
       N       E                     dE             d eps       ncg     rms          ort
SDA:   1    -0.669397946180E+03    0.31929E+00    0.00000E+00  8424   0.948E+00 0.000E+00
CGA:   2    -0.669600220632E+03   -0.20227E+00   -0.20233E+00  8424   0.418E+00 0.113E-02
CGA:   3    -0.669687476030E+03   -0.87255E-01   -0.87260E-01  8424   0.128E+00 0.329E-04
CGA:   4    -0.669708028132E+03   -0.20552E-01   -0.20576E-01  8424   0.301E-01 0.247E-03
CGA:   5    -0.669713176354E+03   -0.51482E-02   -0.51679E-02  8424   0.597E-02 0.256E-03
CGA:   6    -0.669714365723E+03   -0.11894E-02   -0.11955E-02  8424   0.137E-02 0.138E-03
CGA:   7    -0.669714624654E+03   -0.25893E-03   -0.26996E-03  8424   0.356E-03 0.227E-03
CGA:   8    -0.669714674972E+03   -0.50318E-04   -0.64699E-04  8424   0.123E-03 0.175E-03
CGA:   9    -0.669714677686E+03   -0.27133E-05   -0.18410E-04  8424   0.672E-04 0.117E-03
   6 F= -.66971468E+03 E0= -.66971468E+03  d E =0.255874E-02  mag=     2.0000
       N       E                     dE             d eps       ncg     rms          ort
SDA:   1    -0.669306685712E+03    0.40799E+00    0.00000E+00  8424   0.987E+00 0.000E+00
CGA:   2    -0.669583710789E+03   -0.27703E+00   -0.27701E+00  8424   0.527E+00 0.204E-03
CGA:   3    -0.669678201613E+03   -0.94491E-01   -0.94502E-01  8424   0.112E+00 0.225E-03
CGA:   4    -0.669696062485E+03   -0.17861E-01   -0.17878E-01  8424   0.268E-01 0.273E-03
CGA:   5    -0.669700708667E+03   -0.46462E-02   -0.46582E-02  8424   0.556E-02 0.268E-03
CGA:   6    -0.669701828724E+03   -0.11201E-02   -0.11229E-02  8424   0.128E-02 0.183E-03
CGA:   7    -0.669702080334E+03   -0.25161E-03   -0.25590E-03  8424   0.346E-03 0.203E-03
CGA:   8    -0.669702134440E+03   -0.54106E-04   -0.63600E-04  8424   0.131E-03 0.174E-03
CGA:   9    -0.669702140727E+03   -0.62868E-05   -0.15121E-04  8424   0.762E-04 0.932E-04
   7 F= -.66970214E+03 E0= -.66970214E+03  d E =0.125370E-01  mag=     2.0000
       N       E                     dE             d eps       ncg     rms          ort
SDA:   1    -0.659861216501E+03    0.98409E+01    0.00000E+00  8424   0.285E+02 0.000E+00
CGA:   2    -0.666006819450E+03   -0.61456E+01   -0.61435E+01  8424   0.128E+02 0.827E-01
CGA:   3    -0.668680221324E+03   -0.26734E+01   -0.26736E+01  8424   0.384E+01-0.197E-01
CGA:   4    -0.669299059511E+03   -0.61884E+00   -0.61894E+00  8424   0.901E+00 0.104E-02
CGA:   5    -0.669452652142E+03   -0.15359E+00   -0.15367E+00  8424   0.181E+00 0.226E-02
CGA:   6    -0.669489336630E+03   -0.36684E-01   -0.36689E-01  8424   0.434E-01-0.904E-03
CGA:   7    -0.669498970702E+03   -0.96341E-02   -0.96300E-02  8424   0.126E-01 0.155E-03
CGA:   8    -0.669502074638E+03   -0.31039E-02   -0.31091E-02  8424   0.383E-02-0.110E-03
CGA:   9    -0.669503222696E+03   -0.11481E-02   -0.12356E-02  8424   0.191E-02-0.708E-03
CGA:  10    -0.669503696349E+03   -0.47365E-03   -0.49384E-03  8424   0.853E-03-0.187E-03
CGA:  11    -0.669503084227E+03    0.61212E-03   -0.74559E-03  8424   0.599E-02-0.180E-02
CGA:  12    -0.669504070185E+03   -0.98596E-03   -0.10244E-02  8424   0.939E-03 0.481E-03
CGA:  13    -0.669504370647E+03   -0.30046E-03   -0.43393E-03  8424   0.139E-02-0.738E-03
CGA:  14    -0.669504520058E+03   -0.14941E-03   -0.17867E-03  8424   0.213E-03 0.230E-03
CGA:  15    -0.669504591311E+03   -0.71253E-04   -0.13169E-03  8424   0.436E-03-0.216E-03
CGA:  16    -0.669504533586E+03    0.57725E-04   -0.30885E-03  8424   0.231E-02-0.825E-03
CGA:  17    -0.669504803495E+03   -0.26991E-03   -0.32400E-03  8424   0.263E-03 0.371E-03
CGA:  18    -0.669504900578E+03   -0.97083E-04   -0.11808E-03  8424   0.217E-03-0.196E-03
CGA:  19    -0.669504548068E+03    0.35251E-03   -0.24783E-03  8424   0.295E-02-0.701E-03
CGA:  20    -0.669505125373E+03   -0.57730E-03   -0.60105E-03  8424   0.179E-03 0.192E-03
CGA:  21    -0.669505258022E+03   -0.13265E-03    0.34960E-03  8424   0.989E-04-0.540E-04
CGA:  22    -0.669505303585E+03   -0.45563E-04    0.36975E-03  8424   0.922E-04-0.229E-05
CGA:  23    -0.669505425234E+03   -0.12165E-03    0.13049E-04  8424   0.608E-04 0.603E-04
CGA:  24    -0.669505525851E+03   -0.10062E-03    0.61733E-05  8424   0.651E-04-0.444E-05
CGA:  25    -0.669505614426E+03   -0.88575E-04    0.75134E-05  8424   0.460E-04 0.318E-04
CGA:  26    -0.669505687710E+03   -0.73284E-04    0.16390E-04  8424   0.656E-04 0.334E-04
CGA:  27    -0.669505796071E+03   -0.10836E-03    0.66707E-05  8424   0.923E-04-0.272E-04
CGA:  28    -0.669505905570E+03   -0.10950E-03    0.40192E-05  8424   0.968E-04 0.296E-04
CGA:  29    -0.669505948640E+03   -0.43070E-04   -0.62583E-04  8424   0.536E-03-0.120E-03
CGA:  30    -0.669506104052E+03   -0.15541E-03   -0.20417E-03  8424   0.193E-02-0.938E-03
CGA:  31    -0.669506214331E+03   -0.11028E-03   -0.19670E-03  8424   0.909E-04 0.378E-03
CGA:  32    -0.669506207336E+03    0.69947E-05   -0.68491E-05  8424   0.290E-04 0.538E-04
   8 F= -.66950621E+03 E0= -.66950621E+03  d E =0.195933E+00  mag=     2.0000
       N       E                     dE             d eps       ncg     rms          ort
SDA:   1    -0.665036153405E+03    0.44701E+01    0.00000E+00  8424   0.150E+02 0.000E+00
CGA:   2    -0.667970162514E+03   -0.29340E+01   -0.29397E+01  8424   0.579E+01 0.112E-01
CGA:   3    -0.669207719258E+03   -0.12376E+01   -0.12369E+01  8424   0.196E+01-0.318E-02
CGA:   4    -0.669533892458E+03   -0.32617E+00   -0.32629E+00  8424   0.495E+00 0.872E-04
CGA:   5    -0.669619172003E+03   -0.85280E-01   -0.85383E-01  8424   0.985E-01 0.652E-03
CGA:   6    -0.669638922289E+03   -0.19750E-01   -0.19704E-01  8424   0.223E-01-0.599E-03
CGA:   7    -0.669643832688E+03   -0.49104E-02   -0.49288E-02  8424   0.645E-02 0.352E-03
CGA:   8    -0.669645418732E+03   -0.15860E-02   -0.15889E-02  8424   0.182E-02 0.993E-04
CGA:   9    -0.669645949106E+03   -0.53037E-03   -0.53224E-03  8424   0.682E-03-0.106E-03
CGA:  10    -0.669646127725E+03   -0.17862E-03   -0.17822E-03  8424   0.258E-03 0.585E-04
CGA:  11    -0.669646237172E+03   -0.10945E-03   -0.12356E-03  8424   0.212E-03-0.841E-04
CGA:  12    -0.669646266809E+03   -0.29636E-04   -0.31661E-04  8424   0.116E-03 0.340E-04
CGA:  13    -0.669646296544E+03   -0.29735E-04   -0.31205E-04  8424   0.709E-04 0.319E-04
CGA:  14    -0.669646336868E+03   -0.40324E-04   -0.43267E-04  8424   0.124E-03-0.165E-04
CGA:  15    -0.669646353232E+03   -0.16364E-04   -0.19323E-04  8424   0.140E-03 0.326E-04
CGA:  16    -0.669646382519E+03   -0.29287E-04   -0.35612E-04  8424   0.109E-03 0.728E-04
CGA:  17    -0.669646424643E+03   -0.42123E-04   -0.50022E-04  8424   0.149E-03-0.435E-04
CGA:  18    -0.669646426405E+03   -0.17623E-05   -0.87049E-05  8424   0.791E-04 0.366E-04
   9 F= -.66964643E+03 E0= -.66964643E+03  d E =-.140219E+00  mag=     2.0000
       N       E                     dE             d eps       ncg     rms          ort
SDA:   1    -0.669591741959E+03    0.54683E-01    0.00000E+00  8424   0.145E+00 0.000E+00
CGA:   2    -0.669625884718E+03   -0.34143E-01   -0.34142E-01  8424   0.719E-01-0.481E-04
CGA:   3    -0.669640155307E+03   -0.14271E-01   -0.14274E-01  8424   0.190E-01 0.426E-04
CGA:   4    -0.669643185624E+03   -0.30303E-02   -0.30352E-02  8424   0.435E-02 0.458E-04
CGA:   5    -0.669643939126E+03   -0.75350E-03   -0.75628E-03  8424   0.907E-03 0.328E-04
CGA:   6    -0.669644128343E+03   -0.18922E-03   -0.18907E-03  8424   0.232E-03-0.363E-05
CGA:   7    -0.669644181604E+03   -0.53261E-04   -0.53302E-04  8424   0.800E-04 0.191E-05
CGA:   8    -0.669644201496E+03   -0.19892E-04   -0.19915E-04  8424   0.335E-04 0.125E-04
CGA:   9    -0.669644214023E+03   -0.12526E-04   -0.11898E-04  8424   0.238E-04 0.103E-04
CGA:  10    -0.669644222855E+03   -0.88327E-05   -0.84586E-05  8424   0.199E-04 0.178E-04
  10 F= -.66964422E+03 E0= -.66964422E+03  d E =0.220355E-02  mag=     2.0000
       N       E                     dE             d eps       ncg     rms          ort
SDA:   1    -0.667370721224E+03    0.22735E+01    0.00000E+00  8424   0.577E+01 0.000E+00
CGA:   2    -0.668846442862E+03   -0.14757E+01   -0.14757E+01  8424   0.306E+01 0.446E-04
CGA:   3    -0.669430532346E+03   -0.58409E+00   -0.58406E+00  8424   0.728E+00-0.441E-03
CGA:   4    -0.669545461013E+03   -0.11493E+00   -0.11498E+00  8424   0.164E+00 0.486E-03
CGA:   5    -0.669573919713E+03   -0.28459E-01   -0.28501E-01  8424   0.343E-01 0.543E-03
CGA:   6    -0.669581005373E+03   -0.70857E-02   -0.70875E-02  8424   0.835E-02 0.446E-04
CGA:   7    -0.669582836210E+03   -0.18308E-02   -0.18320E-02  8424   0.237E-02 0.507E-04
CGA:   8    -0.669583411983E+03   -0.57577E-03   -0.57571E-03  8424   0.726E-03 0.139E-03
CGA:   9    -0.669583619331E+03   -0.20735E-03   -0.20552E-03  8424   0.262E-03 0.679E-04
CGA:  10    -0.669583673091E+03   -0.53760E-04   -0.58421E-04  8424   0.104E-03 0.121E-03
CGA:  11    -0.669583690011E+03   -0.16920E-04   -0.23977E-04  8424   0.511E-04 0.848E-04
CGA:  12    -0.669583694219E+03   -0.42080E-05   -0.75739E-05  8424   0.325E-04 0.383E-04
  11 F= -.66958369E+03 E0= -.66958369E+03  d E =0.605286E-01  mag=     2.0000
       N       E                     dE             d eps       ncg     rms          ort
SDA:   1    -0.662575760281E+03    0.70079E+01    0.00000E+00  8424   0.170E+02 0.000E+00
CGA:   2    -0.667285809867E+03   -0.47100E+01   -0.47098E+01  8424   0.939E+01-0.561E-03
CGA:   3    -0.669007828230E+03   -0.17220E+01   -0.17221E+01  8424   0.205E+01 0.101E-02
CGA:   4    -0.669328754762E+03   -0.32093E+00   -0.32101E+00  8424   0.459E+00 0.113E-02
CGA:   5    -0.669408426472E+03   -0.79672E-01   -0.79720E-01  8424   0.967E-01 0.930E-03
CGA:   6    -0.669428758641E+03   -0.20332E-01   -0.20335E-01  8424   0.242E-01 0.291E-03
CGA:   7    -0.669434004702E+03   -0.52461E-02   -0.52464E-02  8424   0.683E-02 0.161E-03
CGA:   8    -0.669435706168E+03   -0.17015E-02   -0.16895E-02  8424   0.219E-02 0.438E-03
CGA:   9    -0.669436327721E+03   -0.62155E-03   -0.60914E-03  8424   0.781E-03 0.296E-03
CGA:  10    -0.669436522636E+03   -0.19491E-03   -0.19547E-03  8424   0.307E-03 0.343E-03
CGA:  11    -0.669436579745E+03   -0.57109E-04   -0.71861E-04  8424   0.149E-03 0.249E-03
CGA:  12    -0.669436588531E+03   -0.87861E-05   -0.19250E-04  8424   0.992E-04 0.117E-03
  12 F= -.66943659E+03 E0= -.66943659E+03  d E =0.147106E+00  mag=     2.0000
       N       E                     dE             d eps       ncg     rms          ort
SDA:   1    -0.658033821764E+03    0.11403E+02    0.00000E+00  8424   0.354E+02 0.000E+00
CGA:   2    -0.665096359291E+03   -0.70625E+01   -0.70640E+01  8424   0.144E+02 0.950E-01
CGA:   3    -0.668212395734E+03   -0.31160E+01   -0.31162E+01  8424   0.473E+01-0.207E-01
CGA:   4    -0.668986579657E+03   -0.77418E+00   -0.77428E+00  8424   0.112E+01 0.154E-03
CGA:   5    -0.669179319817E+03   -0.19274E+00   -0.19286E+00  8424   0.228E+00 0.292E-02
CGA:   6    -0.669225546922E+03   -0.46227E-01   -0.46225E-01  8424   0.528E-01-0.893E-03
CGA:   7    -0.669237127027E+03   -0.11580E-01   -0.11565E-01  8424   0.147E-01 0.983E-03
CGA:   8    -0.669240769614E+03   -0.36426E-02   -0.36244E-02  8424   0.421E-02 0.491E-03
CGA:   9    -0.669242001950E+03   -0.12323E-02   -0.12472E-02  8424   0.160E-02-0.188E-03
CGA:  10    -0.669242379308E+03   -0.37736E-03   -0.36639E-03  8424   0.587E-03 0.375E-03
CGA:  11    -0.669242587394E+03   -0.20809E-03   -0.19829E-03  8424   0.258E-03 0.158E-03
CGA:  12    -0.669242664737E+03   -0.77343E-04   -0.75286E-04  8424   0.141E-03 0.141E-03
CGA:  13    -0.669242678605E+03   -0.13868E-04   -0.20997E-04  8424   0.921E-04 0.106E-03
CGA:  14    -0.669242694427E+03   -0.15822E-04   -0.17614E-04  8424   0.773E-04 0.826E-04
CGA:  15    -0.669242701303E+03   -0.68761E-05   -0.11544E-04  8424   0.724E-04 0.746E-04
CGA:  16    -0.669242707214E+03   -0.59108E-05   -0.10465E-04  8424   0.692E-04 0.707E-04
  13 F= -.66924271E+03 E0= -.66924271E+03  d E =0.193881E+00  mag=     2.0000
       N       E                     dE             d eps       ncg     rms          ort
SDA:   1    -0.667355678556E+03    0.18870E+01    0.00000E+00  8424   0.642E+01 0.000E+00
CGA:   2    -0.668650197399E+03   -0.12945E+01   -0.12945E+01  8424   0.257E+01 0.784E-02
CGA:   3    -0.669190866061E+03   -0.54067E+00   -0.54068E+00  8424   0.838E+00-0.197E-02
CGA:   4    -0.669329675050E+03   -0.13881E+00   -0.13882E+00  8424   0.207E+00 0.200E-03
CGA:   5    -0.669365977236E+03   -0.36302E-01   -0.36317E-01  8424   0.426E-01 0.529E-03
CGA:   6    -0.669374472313E+03   -0.84951E-02   -0.84950E-02  8424   0.968E-02-0.241E-03
CGA:   7    -0.669376593293E+03   -0.21210E-02   -0.21158E-02  8424   0.280E-02 0.249E-03
CGA:   8    -0.669377260173E+03   -0.66688E-03   -0.65867E-03  8424   0.782E-03 0.279E-03
CGA:   9    -0.669377477726E+03   -0.21755E-03   -0.21108E-03  8424   0.275E-03 0.147E-03
CGA:  10    -0.669377534109E+03   -0.56383E-04   -0.59909E-04  8424   0.142E-03 0.170E-03
CGA:  11    -0.669377556382E+03   -0.22273E-04   -0.24916E-04  8424   0.846E-04 0.972E-04
CGA:  12    -0.669377564994E+03   -0.86113E-05   -0.12636E-04  8424   0.719E-04 0.770E-04
  14 F= -.66937756E+03 E0= -.66937756E+03  d E =-.134858E+00  mag=     2.0000
       N       E                     dE             d eps       ncg     rms          ort
SDA:   1    -0.668481208884E+03    0.89635E+00    0.00000E+00  8424   0.279E+01 0.000E+00
CGA:   2    -0.669056423629E+03   -0.57521E+00   -0.57517E+00  8424   0.116E+01 0.284E-02
CGA:   3    -0.669298683883E+03   -0.24226E+00   -0.24227E+00  8424   0.367E+00-0.105E-02
CGA:   4    -0.669359192321E+03   -0.60508E-01   -0.60516E-01  8424   0.892E-01 0.180E-03
CGA:   5    -0.669374757676E+03   -0.15565E-01   -0.15575E-01  8424   0.182E-01 0.477E-03
CGA:   6    -0.669378402304E+03   -0.36446E-02   -0.36445E-02  8424   0.417E-02 0.270E-04
CGA:   7    -0.669379314348E+03   -0.91204E-03   -0.90748E-03  8424   0.120E-02 0.198E-03
CGA:   8    -0.669379591436E+03   -0.27709E-03   -0.27230E-03  8424   0.344E-03 0.218E-03
CGA:   9    -0.669379675554E+03   -0.84118E-04   -0.83034E-04  8424   0.139E-03 0.145E-03
CGA:  10    -0.669379695701E+03   -0.20148E-04   -0.27525E-04  8424   0.891E-04 0.128E-03
CGA:  11    -0.669379700151E+03   -0.44492E-05   -0.10323E-04  8424   0.674E-04 0.750E-04
  15 F= -.66937970E+03 E0= -.66937970E+03  d E =-.213516E-02  mag=     2.0000
       N       E                     dE             d eps       ncg     rms          ort
SDA:   1    -0.669307444331E+03    0.72251E-01    0.00000E+00  8424   0.157E+00 0.000E+00
CGA:   2    -0.669348067145E+03   -0.40623E-01   -0.40602E-01  8424   0.806E-01 0.268E-03
CGA:   3    -0.669363365927E+03   -0.15299E-01   -0.15299E-01  8424   0.191E-01-0.119E-03
CGA:   4    -0.669366361785E+03   -0.29959E-02   -0.30042E-02  8424   0.442E-02 0.256E-03
CGA:   5    -0.669367113266E+03   -0.75148E-03   -0.75611E-03  8424   0.903E-03 0.243E-03
CGA:   6    -0.669367302773E+03   -0.18951E-03   -0.18838E-03  8424   0.244E-03 0.103E-03
CGA:   7    -0.669367342577E+03   -0.39804E-04   -0.43004E-04  8424   0.948E-04 0.109E-03
CGA:   8    -0.669367351967E+03   -0.93898E-05   -0.15785E-04  8424   0.636E-04 0.898E-04
  16 F= -.66936735E+03 E0= -.66936735E+03  d E =0.123482E-01  mag=     2.0000
       N       E                     dE             d eps       ncg     rms          ort
SDA:   1    -0.666597636289E+03    0.27697E+01    0.00000E+00  8424   0.655E+01 0.000E+00
CGA:   2    -0.668467151696E+03   -0.18695E+01   -0.18694E+01  8424   0.340E+01-0.240E-03
CGA:   3    -0.669082804795E+03   -0.61565E+00   -0.61565E+00  8424   0.737E+00-0.724E-03
CGA:   4    -0.669200739626E+03   -0.11793E+00   -0.11797E+00  8424   0.175E+00 0.129E-02
CGA:   5    -0.669231129763E+03   -0.30390E-01   -0.30400E-01  8424   0.361E-01 0.106E-02
CGA:   6    -0.669238775379E+03   -0.76456E-02   -0.76384E-02  8424   0.912E-02 0.252E-03
CGA:   7    -0.669240748684E+03   -0.19733E-02   -0.19644E-02  8424   0.260E-02 0.294E-03
CGA:   8    -0.669241415624E+03   -0.66694E-03   -0.64927E-03  8424   0.836E-03 0.312E-03
CGA:   9    -0.669241624109E+03   -0.20849E-03   -0.20050E-03  8424   0.312E-03 0.304E-03
CGA:  10    -0.669241676083E+03   -0.51974E-04   -0.62846E-04  8424   0.171E-03 0.259E-03
CGA:  11    -0.669241687427E+03   -0.11344E-04   -0.20545E-04  8424   0.116E-03 0.137E-03
CGA:  12    -0.669241689670E+03   -0.22434E-05   -0.11419E-04  8424   0.982E-04 0.107E-03
  17 F= -.66924169E+03 E0= -.66924169E+03  d E =0.125662E+00  mag=     2.0000
       N       E                     dE             d eps       ncg     rms          ort
SDA:   1    -0.660799869520E+03    0.84418E+01    0.00000E+00  8424   0.253E+02 0.000E+00
CGA:   2    -0.665901727597E+03   -0.51019E+01   -0.50979E+01  8424   0.108E+02 0.104E+00
CGA:   3    -0.668228016643E+03   -0.23263E+01   -0.23273E+01  8424   0.353E+01-0.220E-01
CGA:   4    -0.668798382964E+03   -0.57037E+00   -0.57042E+00  8424   0.807E+00 0.180E-02
CGA:   5    -0.668936679173E+03   -0.13830E+00   -0.13832E+00  8424   0.163E+00 0.295E-02
CGA:   6    -0.668969800180E+03   -0.33121E-01   -0.33141E-01  8424   0.394E-01-0.799E-03
CGA:   7    -0.668978149122E+03   -0.83489E-02   -0.83046E-02  8424   0.105E-01 0.132E-02
CGA:   8    -0.668980746112E+03   -0.25970E-02   -0.25518E-02  8424   0.297E-02 0.819E-03
CGA:   9    -0.668981560590E+03   -0.81448E-03   -0.78933E-03  8424   0.101E-02 0.395E-03
CGA:  10    -0.668981771063E+03   -0.21047E-03   -0.21087E-03  8424   0.460E-03 0.553E-03
CGA:  11    -0.668981844739E+03   -0.73675E-04   -0.78341E-04  8424   0.249E-03 0.302E-03
CGA:  12    -0.668981862253E+03   -0.17515E-04   -0.31040E-04  8424   0.204E-03 0.223E-03
CGA:  13    -0.668981868946E+03   -0.66929E-05   -0.21473E-04  8424   0.181E-03 0.192E-03
CGA:  14    -0.668981870937E+03   -0.19916E-05   -0.16818E-04  8424   0.166E-03 0.173E-03
CGA:  15    -0.668981870413E+03    0.52419E-06   -0.13962E-04  8424   0.156E-03 0.161E-03
CGA:  16    -0.668981868384E+03    0.20295E-05   -0.11987E-04  8424   0.148E-03 0.151E-03
CGA:  17    -0.668981865402E+03    0.29818E-05   -0.10519E-04  8424   0.141E-03 0.144E-03
  18 F= -.66898187E+03 E0= -.66898187E+03  d E =0.259824E+00  mag=     2.0000
       N       E                     dE             d eps       ncg     rms          ort
SDA:   1    -0.666690675052E+03    0.22912E+01    0.00000E+00  8424   0.740E+01 0.000E+00
CGA:   2    -0.668203109105E+03   -0.15124E+01   -0.15113E+01  8424   0.310E+01 0.185E-01
CGA:   3    -0.668858414595E+03   -0.65531E+00   -0.65549E+00  8424   0.983E+00-0.364E-02
CGA:   4    -0.669018251132E+03   -0.15984E+00   -0.15983E+00  8424   0.233E+00 0.141E-02
CGA:   5    -0.669058859902E+03   -0.40609E-01   -0.40587E-01  8424   0.474E-01 0.157E-02
CGA:   6    -0.669068411997E+03   -0.95521E-02   -0.95448E-02  8424   0.110E-01 0.180E-03
CGA:   7    -0.669070683364E+03   -0.22714E-02   -0.22296E-02  8424   0.283E-02 0.109E-02
CGA:   8    -0.669071293427E+03   -0.61006E-03   -0.58858E-03  8424   0.801E-03 0.880E-03
CGA:   9    -0.669071424525E+03   -0.13110E-03   -0.14599E-03  8424   0.352E-03 0.544E-03
CGA:  10    -0.669071437916E+03   -0.13391E-04   -0.33343E-04  8424   0.243E-03 0.284E-03
CGA:  11    -0.669071435704E+03    0.22116E-05   -0.17571E-04  8424   0.206E-03 0.222E-03
CGA:  12    -0.669071429809E+03    0.58951E-05   -0.12585E-04  8424   0.184E-03 0.193E-03
  19 F= -.66907143E+03 E0= -.66907143E+03  d E =-.895644E-01  mag=     2.0000
       N       E                     dE             d eps       ncg     rms          ort
SDA:   1    -0.668650332181E+03    0.42110E+00    0.00000E+00  8424   0.121E+01 0.000E+00
CGA:   2    -0.668910597263E+03   -0.26027E+00   -0.26007E+00  8424   0.539E+00 0.261E-02
CGA:   3    -0.669021767553E+03   -0.11117E+00   -0.11115E+00  8424   0.159E+00 0.364E-03
CGA:   4    -0.669047374457E+03   -0.25607E-01   -0.25599E-01  8424   0.371E-01 0.969E-03
CGA:   5    -0.669053793491E+03   -0.64190E-02   -0.64002E-02  8424   0.743E-02 0.106E-02
CGA:   6    -0.669055252824E+03   -0.14593E-02   -0.14361E-02  8424   0.164E-02 0.696E-03
CGA:   7    -0.669055530584E+03   -0.27776E-03   -0.27852E-03  8424   0.487E-03 0.628E-03
CGA:   8    -0.669055572333E+03   -0.41749E-04   -0.66361E-04  8424   0.263E-03 0.425E-03
CGA:   9    -0.669055573404E+03   -0.10707E-05   -0.19080E-04  8424   0.195E-03 0.222E-03
CGA:  10    -0.669055567811E+03    0.55931E-05   -0.11000E-04  8424   0.166E-03 0.178E-03
  20 F= -.66905557E+03 E0= -.66905557E+03  d E =0.158620E-01  mag=     2.0000
       N       E                     dE             d eps       ncg     rms          ort
SDA:   1    -0.668855644898E+03    0.19993E+00    0.00000E+00  8424   0.451E+00 0.000E+00
CGA:   2    -0.668969141713E+03   -0.11350E+00   -0.11336E+00  8424   0.221E+00 0.120E-02
CGA:   3    -0.669011382937E+03   -0.42241E-01   -0.42236E-01  8424   0.555E-01 0.902E-04
CGA:   4    -0.669020333106E+03   -0.89502E-02   -0.89367E-02  8424   0.129E-01 0.101E-02
CGA:   5    -0.669022496117E+03   -0.21630E-02   -0.21483E-02  8424   0.245E-02 0.998E-03
CGA:   6    -0.669022951743E+03   -0.45563E-03   -0.44395E-03  8424   0.600E-03 0.619E-03
CGA:   7    -0.669023020186E+03   -0.68444E-04   -0.84278E-04  8424   0.267E-03 0.417E-03
CGA:   8    -0.669023024764E+03   -0.45771E-05   -0.20360E-04  8424   0.189E-03 0.219E-03
CGA:   9    -0.669023021228E+03    0.35354E-05   -0.11128E-04  8424   0.158E-03 0.171E-03
  21 F= -.66902302E+03 E0= -.66902302E+03  d E =0.325466E-01  mag=     2.0000
       N       E                     dE             d eps       ncg     rms          ort
SDA:   1    -0.668079671834E+03    0.94335E+00    0.00000E+00  8424   0.212E+01 0.000E+00
CGA:   2    -0.668671158190E+03   -0.59149E+00   -0.59134E+00  8424   0.107E+01 0.692E-03
CGA:   3    -0.668869735855E+03   -0.19858E+00   -0.19865E+00  8424   0.244E+00-0.161E-02
CGA:   4    -0.668908787851E+03   -0.39052E-01   -0.39027E-01  8424   0.580E-01 0.167E-02
CGA:   5    -0.668918736048E+03   -0.99482E-02   -0.99128E-02  8424   0.112E-01 0.147E-02
CGA:   6    -0.668921174625E+03   -0.24386E-02   -0.24064E-02  8424   0.302E-02 0.513E-03
CGA:   7    -0.668921765363E+03   -0.59074E-03   -0.57135E-03  8424   0.788E-03 0.628E-03
CGA:   8    -0.668921906432E+03   -0.14107E-03   -0.14220E-03  8424   0.352E-03 0.476E-03
CGA:   9    -0.668921939712E+03   -0.33279E-04   -0.41634E-04  8424   0.210E-03 0.250E-03
CGA:  10    -0.668921943412E+03   -0.37002E-05   -0.16937E-04  8424   0.177E-03 0.191E-03
CGA:  11    -0.668921942446E+03    0.96573E-06   -0.11988E-04  8424   0.156E-03 0.165E-03
  22 F= -.66892194E+03 E0= -.66892194E+03  d E =0.101079E+00  mag=     2.0000
       N       E                     dE             d eps       ncg     rms          ort
SDA:   1    -0.663110911950E+03    0.58110E+01    0.00000E+00  8424   0.170E+02 0.000E+00
CGA:   2    -0.666644582319E+03   -0.35337E+01   -0.35290E+01  8424   0.744E+01 0.587E-01
CGA:   3    -0.668209354810E+03   -0.15648E+01   -0.15659E+01  8424   0.232E+01-0.163E-01
CGA:   4    -0.668583668391E+03   -0.37431E+00   -0.37428E+00  8424   0.535E+00 0.121E-02
CGA:   5    -0.668676851265E+03   -0.93183E-01   -0.93116E-01  8424   0.110E+00 0.226E-02
CGA:   6    -0.668699124538E+03   -0.22273E-01   -0.22338E-01  8424   0.267E-01-0.118E-02
CGA:   7    -0.668704778457E+03   -0.56539E-02   -0.56129E-02  8424   0.725E-02 0.653E-03
CGA:   8    -0.668706663905E+03   -0.18854E-02   -0.18708E-02  8424   0.224E-02 0.147E-03
CGA:   9    -0.668707339960E+03   -0.67605E-03   -0.73524E-03  8424   0.118E-02-0.365E-03
CGA:  10    -0.668707622431E+03   -0.28247E-03   -0.27008E-03  8424   0.516E-03 0.115E-03
CGA:  11    -0.668707816956E+03   -0.19453E-03   -0.30176E-03  8424   0.761E-03-0.300E-03
CGA:  12    -0.668707973388E+03   -0.15643E-03   -0.15503E-03  8424   0.168E-03 0.101E-03
CGA:  13    -0.668707861935E+03    0.11145E-03   -0.81339E-04  8424   0.221E-02-0.330E-03
CGA:  14    -0.668708181379E+03   -0.31944E-03   -0.34409E-03  8424   0.461E-03 0.128E-03
CGA:  15    -0.668708314731E+03   -0.13335E-03   -0.13198E-03  8424   0.135E-03-0.208E-04
CGA:  16    -0.668708403581E+03   -0.88850E-04    0.71304E-03  8424   0.119E-03 0.614E-04
CGA:  17    -0.668708511881E+03   -0.10830E-03   -0.91863E-04  8424   0.175E-03 0.808E-04
CGA:  18    -0.668706881898E+03    0.16300E-02   -0.87963E-03  8424   0.143E-01-0.106E-02
CGA:  19    -0.668708572807E+03   -0.16909E-02   -0.19475E-02  8424   0.105E-02 0.535E-03
CGA:  20    -0.668708862055E+03   -0.28925E-03   -0.28840E-03  8424   0.147E-03-0.290E-05
CGA:  21    -0.668705593419E+03    0.32686E-02   -0.17750E-02  8424   0.236E-01-0.119E-02
CGA:  22    -0.668708471139E+03   -0.28777E-02   -0.34825E-02  8424   0.257E-02 0.818E-03
CGA:  23    -0.668709316351E+03   -0.84521E-03   -0.77608E-03  8424   0.731E-03-0.961E-04
CGA:  24    -0.668709529678E+03   -0.21333E-03   -0.18008E-03  8424   0.299E-03-0.451E-04
CGA:  25    -0.668709593227E+03   -0.63549E-04   -0.74546E-04  8424   0.104E-03 0.155E-04
CGA:  26    -0.668709681593E+03   -0.88366E-04   -0.90306E-04  8424   0.210E-03 0.203E-04
CGA:  27    -0.668709135021E+03    0.54657E-03   -0.73213E-03  8424   0.129E-01-0.664E-03
CGA:  28    -0.668710863701E+03   -0.17287E-02   -0.20336E-02  8424   0.115E-02 0.361E-03
CGA:  29    -0.668711186962E+03   -0.32326E-03   -0.38228E-03  8424   0.434E-03 0.902E-04
CGA:  30    -0.668711469238E+03   -0.28228E-03   -0.17120E-03  8424   0.450E-03-0.196E-03
CGA:  31    -0.668711477426E+03   -0.81882E-05   -0.52797E-04  8424   0.288E-03 0.616E-04
CGA:  32    -0.668711441284E+03    0.36141E-04   -0.53240E-04  8424   0.249E-03 0.112E-03
CGA:  33    -0.668711299692E+03    0.14159E-03   -0.77691E-04  8424   0.756E-03 0.208E-03
CGA:  34    -0.668710793701E+03    0.50599E-03   -0.17076E-03  8424   0.273E-02 0.434E-03
CGA:  35    -0.668706457993E+03    0.43357E-02   -0.51460E-03  8424   0.132E-01 0.215E-02
CGA:  36    -0.668704588230E+03    0.18698E-02   -0.43921E-02  8424   0.168E-01 0.688E-02
CGA:  37    -0.668706762508E+03   -0.21743E-02   -0.60824E-02  8424   0.902E-02 0.526E-02
CGA:  38    -0.668700685310E+03    0.60772E-02   -0.23099E-02  8424   0.237E-01 0.114E-01
CGA:  39    -0.668704454842E+03   -0.37695E-02   -0.84434E-02  8424   0.176E-01 0.816E-02
CGA:  40    -0.668700555765E+03    0.38991E-02   -0.59970E-02  8424   0.179E-01 0.150E-01
CGA:  41    -0.668706452572E+03   -0.58968E-02   -0.71688E-02  8424   0.752E-02 0.771E-02
CGA:  42    -0.668711367012E+03   -0.49144E-02   -0.53038E-02  8424   0.388E-02 0.209E-03
CGA:  43    -0.668711441619E+03   -0.74608E-04   -0.64443E-03  8424   0.116E-02 0.365E-03
CGA:  44    -0.668712030580E+03   -0.58896E-03   -0.39921E-03  8424   0.326E-03-0.934E-04
CGA:  45    -0.668712171415E+03   -0.14084E-03   -0.11634E-03  8424   0.624E-03-0.111E-03
CGA:  46    -0.668712184031E+03   -0.12616E-04   -0.64887E-04  8424   0.269E-03 0.159E-03
CGA:  47    -0.668712170256E+03    0.13776E-04   -0.35118E-04  8424   0.151E-03 0.110E-03
CGA:  48    -0.668712194999E+03   -0.24743E-04   -0.57896E-04  8424   0.410E-03 0.128E-03
CGA:  49    -0.668712356219E+03   -0.16122E-03   -0.98952E-04  8424   0.619E-03-0.221E-03
CGA:  50    -0.668712368754E+03   -0.12535E-04   -0.63535E-04  8424   0.125E-03 0.127E-03
CGA:  51    -0.668712399855E+03   -0.31101E-04   -0.47088E-04  8424   0.292E-03 0.927E-04
CGA:  52    -0.668712531255E+03   -0.13140E-03   -0.88545E-04  8424   0.804E-03-0.243E-03
CGA:  53    -0.668712551398E+03   -0.20143E-04   -0.76182E-04  8424   0.104E-03 0.150E-03
CGA:  54    -0.668712556508E+03   -0.51106E-05   -0.23662E-04  8424   0.162E-03 0.715E-04
CGA:  55    -0.668712376759E+03    0.17975E-03   -0.17470E-03  8424   0.635E-02-0.558E-03
CGA:  56    -0.668712810294E+03   -0.43354E-03   -0.59652E-03  8424   0.101E-03 0.452E-03
CGA:  57    -0.668712803967E+03    0.63272E-05   -0.13674E-04  8424   0.845E-04 0.612E-04
CGA:  58    -0.668712893496E+03   -0.89529E-04    0.85671E-04  8424   0.165E-03 0.505E-04
CGA:  59    -0.668712889919E+03    0.35771E-05   -0.18278E-04  8424   0.781E-04 0.671E-04
CGA:  60    -0.668712911528E+03   -0.21610E-04   -0.31691E-04  8424   0.197E-03 0.766E-04
CGA:  61    -0.668712994242E+03   -0.82714E-04   -0.77472E-04  8424   0.114E-02-0.278E-03
CGA:  62    -0.668713034526E+03   -0.40284E-04   -0.10090E-03  8424   0.898E-04 0.189E-03
CGA:  63    -0.668713031911E+03    0.26145E-05   -0.13251E-04  8424   0.965E-04 0.588E-04
CGA:  64    -0.668713118120E+03   -0.86209E-04    0.10950E-03  8424   0.231E-03 0.258E-04
CGA:  65    -0.668713707961E+03   -0.58984E-03   -0.36848E-03  8424   0.314E-03 0.244E-03
CGA:  66    -0.668713791985E+03   -0.84024E-04   -0.56613E-04  8424   0.254E-03-0.112E-03
CGA:  67    -0.668714201722E+03   -0.40974E-03   -0.23769E-03  8424   0.109E-03 0.159E-03
CGA:  68    -0.668714268314E+03   -0.66593E-04   -0.63261E-04  8424   0.362E-03 0.281E-04
CGA:  69    -0.668715089129E+03   -0.82081E-03   -0.92734E-03  8424   0.656E-02-0.101E-03
CGA:  70    -0.668716818062E+03   -0.17289E-02   -0.12796E-02  8424   0.160E-01-0.557E-03
CGA:  71    -0.668718460690E+03   -0.16426E-02   -0.10786E-02  8424   0.123E-01 0.262E-02
CGA:  72    -0.668719286707E+03   -0.82602E-03   -0.11653E-02  8424   0.155E-01 0.143E-02
CGA:  73    -0.668704568855E+03    0.14718E-01   -0.86045E-03  8424   0.120E+00 0.989E-02
CGA:  74    -0.668656416305E+03    0.48153E-01   -0.19254E-01  8424   0.474E+00 0.551E-01
CGA:  75    -0.667237844264E+03    0.14186E+01   -0.44445E-01  8424   0.795E+01 0.138E+01
CGA:  76    -0.666975040849E+03    0.26280E+00   -0.16148E+01  8424   0.917E+01 0.241E+01
CGA:  77    -0.666581039043E+03    0.39400E+00   -0.21269E+01  8424   0.587E+01 0.230E+01
CGA:  78    -0.666040066342E+03    0.54097E+00   -0.10461E+01  8424   0.767E+01 0.469E+01
CGA:  79    -0.667301679638E+03   -0.12616E+01   -0.18123E+01  8424   0.338E+01 0.202E+01
CGA:  80    -0.667456109231E+03   -0.15443E+00   -0.77583E+00  8424   0.319E+01 0.187E+01
CGA:  81    -0.667938596051E+03   -0.48249E+00   -0.74136E+00  8424   0.180E+01 0.110E+01
CGA:  82    -0.668206480340E+03   -0.26788E+00   -0.48077E+00  8424   0.113E+01 0.974E+00
CGA:  83    -0.668439769601E+03   -0.23329E+00   -0.29027E+00  8424   0.622E+00 0.333E+00
CGA:  84    -0.668593335008E+03   -0.15357E+00   -0.19585E+00  8424   0.139E+00 0.156E+00
CGA:  85    -0.668686988398E+03   -0.93653E-01   -0.87872E-01  8424   0.245E-01 0.276E-01
CGA:  86    -0.668712646779E+03   -0.25658E-01   -0.25704E-01  8424   0.252E-01 0.127E-03
CGA:  87    -0.668715132325E+03   -0.24855E-02   -0.40536E-02  8424   0.156E-01 0.285E-02
CGA:  88    -0.668715113328E+03    0.18997E-04   -0.24597E-02  8424   0.226E-01 0.755E-02
CGA:  89    -0.668713579260E+03    0.15341E-02   -0.36248E-02  8424   0.277E-01 0.125E-01
CGA:  90    -0.668718324750E+03   -0.47455E-02   -0.63823E-02  8424   0.140E-01 0.638E-02
CGA:  91    -0.668722316190E+03   -0.39914E-02   -0.45412E-02  8424   0.237E-02 0.260E-02
CGA:  92    -0.668724292172E+03   -0.19760E-02   -0.21475E-02  8424   0.499E-02-0.468E-03
CGA:  93    -0.668724674118E+03   -0.38195E-03   -0.45179E-03  8424   0.133E-02 0.377E-03
CGA:  94    -0.668724756324E+03   -0.82206E-04   -0.12783E-03  8424   0.431E-03 0.181E-03
CGA:  95    -0.668724810036E+03   -0.53712E-04   -0.70325E-04  8424   0.383E-03 0.870E-04
CGA:  96    -0.668724900122E+03   -0.90086E-04   -0.91843E-04  8424   0.462E-03 0.165E-04
CGA:  97    -0.668724988231E+03   -0.88109E-04   -0.93370E-04  8424   0.618E-03 0.512E-04
CGA:  98    -0.668725042695E+03   -0.54464E-04   -0.82674E-04  8424   0.390E-03 0.164E-03
CGA:  99    -0.668725055579E+03   -0.12884E-04   -0.43893E-04  8424   0.209E-03 0.151E-03
CGA: 100    -0.668725062216E+03   -0.66368E-05   -0.28684E-04  8424   0.183E-03 0.115E-03
CGA: 101    -0.668725133777E+03   -0.71561E-04   -0.10696E-03  8424   0.520E-03-0.118E-03
CGA: 102    -0.668725159627E+03   -0.25850E-04   -0.53214E-04  8424   0.681E-04 0.140E-03
CGA: 103    -0.668725158699E+03    0.92796E-06   -0.81304E-05  8424   0.424E-04 0.465E-04
CGA: 104    -0.668725186750E+03   -0.28050E-04   -0.23394E-04  8424   0.625E-04 0.167E-04
CGA: 105    -0.668725189828E+03   -0.30785E-05   -0.13241E-04  8424   0.391E-04 0.720E-04
  23 F= -.66872519E+03 E0= -.66872519E+03  d E =0.196753E+00  mag=     2.0000
       N       E                     dE             d eps       ncg     rms          ort
SDA:   1    -0.666913862728E+03    0.18113E+01    0.00000E+00  8424   0.575E+01 0.000E+00
CGA:   2    -0.668099713213E+03   -0.11859E+01   -0.11866E+01  8424   0.245E+01 0.506E-02
CGA:   3    -0.668612055782E+03   -0.51234E+00   -0.51224E+00  8424   0.761E+00-0.103E-02
CGA:   4    -0.668736652167E+03   -0.12460E+00   -0.12467E+00  8424   0.181E+00 0.442E-03
CGA:   5    -0.668768298840E+03   -0.31647E-01   -0.31707E-01  8424   0.367E-01 0.604E-03
CGA:   6    -0.668775737729E+03   -0.74389E-02   -0.74387E-02  8424   0.862E-02-0.836E-05
CGA:   7    -0.668777557087E+03   -0.18194E-02   -0.18392E-02  8424   0.238E-02 0.436E-03
CGA:   8    -0.668778112227E+03   -0.55514E-03   -0.56674E-03  8424   0.701E-03 0.384E-03
CGA:   9    -0.668778262498E+03   -0.15027E-03   -0.16549E-03  8424   0.285E-03 0.294E-03
CGA:  10    -0.668778292071E+03   -0.29574E-04   -0.58059E-04  8424   0.185E-03 0.261E-03
CGA:  11    -0.668778297177E+03   -0.51059E-05   -0.23441E-04  8424   0.136E-03 0.152E-03
CGA:  12    -0.668778295615E+03    0.15618E-05   -0.15077E-04  8424   0.121E-03 0.127E-03
CGA:  13    -0.668778291610E+03    0.40059E-05   -0.11863E-04  8424   0.112E-03 0.116E-03
CGA:  14    -0.668778286660E+03    0.49493E-05   -0.10119E-04  8424   0.107E-03 0.109E-03
  24 F= -.66877829E+03 E0= -.66877829E+03  d E =-.530968E-01  mag=     2.0000
       N       E                     dE             d eps       ncg     rms          ort
SDA:   1    -0.668488100467E+03    0.29019E+00    0.00000E+00  8424   0.812E+00 0.000E+00
CGA:   2    -0.668664302276E+03   -0.17620E+00   -0.17620E+00  8424   0.367E+00 0.121E-02
CGA:   3    -0.668739617534E+03   -0.75315E-01   -0.75314E-01  8424   0.107E+00-0.135E-03
CGA:   4    -0.668756902740E+03   -0.17285E-01   -0.17308E-01  8424   0.250E-01 0.422E-03
CGA:   5    -0.668761233276E+03   -0.43305E-02   -0.43487E-02  8424   0.513E-02 0.479E-03
CGA:   6    -0.668762275289E+03   -0.10420E-02   -0.10443E-02  8424   0.126E-02 0.246E-03
CGA:   7    -0.668762519644E+03   -0.24435E-03   -0.25044E-03  8424   0.402E-03 0.309E-03
CGA:   8    -0.668762584925E+03   -0.65281E-04   -0.78762E-04  8424   0.214E-03 0.267E-03
CGA:   9    -0.668762604096E+03   -0.19171E-04   -0.29670E-04  8424   0.142E-03 0.158E-03
CGA:  10    -0.668762606948E+03   -0.28520E-05   -0.15380E-04  8424   0.128E-03 0.133E-03
CGA:  11    -0.668762607507E+03   -0.55918E-06   -0.12651E-04  8424   0.120E-03 0.123E-03
CGA:  12    -0.668762606815E+03    0.69261E-06   -0.11024E-04  8424   0.115E-03 0.117E-03
  25 F= -.66876261E+03 E0= -.66876261E+03  d E =0.156798E-01  mag=     2.0000
       N       E                     dE             d eps       ncg     rms          ort
SDA:   1    -0.668616961468E+03    0.14565E+00    0.00000E+00  8424   0.312E+00 0.000E+00
CGA:   2    -0.668697925544E+03   -0.80964E-01   -0.80917E-01  8424   0.154E+00 0.573E-03
CGA:   3    -0.668727062107E+03   -0.29137E-01   -0.29138E-01  8424   0.379E-01-0.487E-03
CGA:   4    -0.668733104287E+03   -0.60422E-02   -0.60548E-02  8424   0.915E-02 0.483E-03
CGA:   5    -0.668734679084E+03   -0.15748E-02   -0.15819E-02  8424   0.187E-02 0.500E-03
CGA:   6    -0.668735081320E+03   -0.40224E-03   -0.39847E-03  8424   0.576E-03 0.212E-03
CGA:   7    -0.668735187552E+03   -0.10623E-03   -0.10977E-03  8424   0.249E-03 0.255E-03
CGA:   8    -0.668735224958E+03   -0.37406E-04   -0.48859E-04  8424   0.182E-03 0.235E-03
CGA:   9    -0.668735245718E+03   -0.20760E-04   -0.26197E-04  8424   0.135E-03 0.142E-03
CGA:  10    -0.668735253385E+03   -0.76675E-05   -0.15805E-04  8424   0.126E-03 0.129E-03
CGA:  11    -0.668735259328E+03   -0.59432E-05   -0.14019E-04  8424   0.121E-03 0.123E-03
CGA:  12    -0.668735264048E+03   -0.47195E-05   -0.12804E-04  8424   0.118E-03 0.119E-03
CGA:  13    -0.668735267993E+03   -0.39456E-05   -0.11947E-04  8424   0.115E-03 0.116E-03
CGA:  14    -0.668735271384E+03   -0.33911E-05   -0.11273E-04  8424   0.113E-03 0.114E-03
CGA:  15    -0.668735274357E+03   -0.29723E-05   -0.10712E-04  8424   0.112E-03 0.112E-03
CGA:  16    -0.668735277000E+03   -0.26435E-05   -0.10227E-04  8424   0.110E-03 0.111E-03
  26 F= -.66873528E+03 E0= -.66873528E+03  d E =0.273298E-01  mag=     2.0000
       N       E                     dE             d eps       ncg     rms          ort
SDA:   1    -0.667105421293E+03    0.16299E+01    0.00000E+00  8424   0.385E+01 0.000E+00
CGA:   2    -0.668136169820E+03   -0.10307E+01   -0.10307E+01  8424   0.192E+01-0.284E-03
CGA:   3    -0.668501762738E+03   -0.36559E+00   -0.36567E+00  8424   0.450E+00-0.260E-02
CGA:   4    -0.668573847941E+03   -0.72085E-01   -0.72086E-01  8424   0.109E+00 0.154E-02
CGA:   5    -0.668592983856E+03   -0.19136E-01   -0.19117E-01  8424   0.221E-01 0.134E-02
CGA:   6    -0.668597791394E+03   -0.48075E-02   -0.48029E-02  8424   0.654E-02 0.822E-04
CGA:   7    -0.668599219103E+03   -0.14277E-02   -0.14074E-02  8424   0.204E-02 0.399E-03
CGA:   8    -0.668599796431E+03   -0.57733E-03   -0.53663E-03  8424   0.890E-03 0.498E-03
CGA:   9    -0.668600099079E+03   -0.30265E-03   -0.27030E-03  8424   0.547E-03 0.436E-03
CGA:  10    -0.668600275414E+03   -0.17633E-03   -0.16275E-03  8424   0.414E-03 0.524E-03
CGA:  11    -0.668600361970E+03   -0.86556E-04   -0.80778E-04  8424   0.282E-03 0.295E-03
CGA:  12    -0.668600442449E+03   -0.80479E-04   -0.65610E-04  8424   0.257E-03 0.263E-03
CGA:  13    -0.668600494735E+03   -0.52286E-04   -0.49198E-04  8424   0.248E-03 0.251E-03
CGA:  14    -0.668600555640E+03   -0.60906E-04   -0.52779E-04  8424   0.241E-03 0.244E-03
CGA:  15    -0.668600607531E+03   -0.51891E-04   -0.47868E-04  8424   0.237E-03 0.239E-03
CGA:  16    -0.668600662029E+03   -0.54498E-04   -0.48854E-04  8424   0.233E-03 0.235E-03
CGA:  17    -0.668600711873E+03   -0.49844E-04   -0.46285E-04  8424   0.229E-03 0.231E-03
CGA:  18    -0.668600762940E+03   -0.51067E-04   -0.46661E-04  8424   0.226E-03 0.227E-03
CGA:  19    -0.668600810324E+03   -0.47384E-04   -0.44616E-04  8424   0.223E-03 0.224E-03
CGA:  20    -0.668600859028E+03   -0.48704E-04   -0.45065E-04  8424   0.220E-03 0.221E-03
CGA:  21    -0.668600903725E+03   -0.44696E-04   -0.42876E-04  8424   0.217E-03 0.218E-03
CGA:  22    -0.668600950857E+03   -0.47133E-04   -0.43894E-04  8424   0.215E-03 0.215E-03
CGA:  23    -0.668600992169E+03   -0.41312E-04   -0.40821E-04  8424   0.213E-03 0.212E-03
CGA:  24    -0.668601038999E+03   -0.46829E-04   -0.43409E-04  8424   0.211E-03 0.209E-03
CGA:  25    -0.668601075106E+03   -0.36107E-04   -0.37951E-04  8424   0.210E-03 0.206E-03
CGA:  26    -0.668601123145E+03   -0.48039E-04   -0.43850E-04  8424   0.211E-03 0.201E-03
CGA:  27    -0.668601152340E+03   -0.29194E-04   -0.34405E-04  8424   0.208E-03 0.197E-03
CGA:  28    -0.668601201687E+03   -0.49347E-04   -0.44461E-04  8424   0.213E-03 0.192E-03
CGA:  29    -0.668601225688E+03   -0.24001E-04   -0.31710E-04  8424   0.205E-03 0.190E-03
CGA:  30    -0.668601274323E+03   -0.48634E-04   -0.43708E-04  8424   0.209E-03 0.188E-03
CGA:  31    -0.668601296846E+03   -0.22524E-04   -0.30500E-04  8424   0.199E-03 0.187E-03
CGA:  32    -0.668601342886E+03   -0.46040E-04   -0.41752E-04  8424   0.201E-03 0.186E-03
CGA:  33    -0.668601365839E+03   -0.22953E-04   -0.30039E-04  8424   0.194E-03 0.185E-03
CGA:  34    -0.668601408691E+03   -0.42852E-04   -0.39525E-04  8424   0.194E-03 0.185E-03
CGA:  35    -0.668601432359E+03   -0.23668E-04   -0.29764E-04  8424   0.189E-03 0.184E-03
CGA:  36    -0.668601472065E+03   -0.39707E-04   -0.37396E-04  8424   0.188E-03 0.183E-03
CGA:  37    -0.668601496238E+03   -0.24172E-04   -0.29461E-04  8424   0.185E-03 0.181E-03
CGA:  38    -0.668601533083E+03   -0.36845E-04   -0.35469E-04  8424   0.184E-03 0.180E-03
CGA:  39    -0.668601557427E+03   -0.24344E-04   -0.29051E-04  8424   0.181E-03 0.179E-03
CGA:  40    -0.668601591781E+03   -0.34353E-04   -0.33768E-04  8424   0.180E-03 0.177E-03
CGA:  41    -0.668601615962E+03   -0.24181E-04   -0.28514E-04  8424   0.178E-03 0.176E-03
CGA:  42    -0.668601648193E+03   -0.32231E-04   -0.32278E-04  8424   0.176E-03 0.174E-03
CGA:  43    -0.668601671934E+03   -0.23740E-04   -0.27865E-04  8424   0.174E-03 0.173E-03
CGA:  44    -0.668601702368E+03   -0.30434E-04   -0.30967E-04  8424   0.173E-03 0.171E-03
CGA:  45    -0.668601725475E+03   -0.23106E-04   -0.27135E-04  8424   0.171E-03 0.170E-03
CGA:  46    -0.668601754374E+03   -0.28900E-04   -0.29799E-04  8424   0.170E-03 0.169E-03
CGA:  47    -0.668601776740E+03   -0.22366E-04   -0.26365E-04  8424   0.168E-03 0.167E-03
CGA:  48    -0.668601804303E+03   -0.27562E-04   -0.28739E-04  8424   0.167E-03 0.166E-03
CGA:  49    -0.668601825901E+03   -0.21598E-04   -0.25591E-04  8424   0.165E-03 0.164E-03
CGA:  50    -0.668601852268E+03   -0.26367E-04   -0.27758E-04  8424   0.164E-03 0.163E-03
CGA:  51    -0.668601873131E+03   -0.20864E-04   -0.24844E-04  8424   0.163E-03 0.162E-03
CGA:  52    -0.668601898402E+03   -0.25271E-04   -0.26836E-04  8424   0.161E-03 0.160E-03
CGA:  53    -0.668601918601E+03   -0.20199E-04   -0.24142E-04  8424   0.160E-03 0.159E-03
CGA:  54    -0.668601942853E+03   -0.24252E-04   -0.25964E-04  8424   0.159E-03 0.158E-03
CGA:  55    -0.668601962468E+03   -0.19616E-04   -0.23491E-04  8424   0.158E-03 0.157E-03
CGA:  56    -0.668601985773E+03   -0.23304E-04   -0.25140E-04  8424   0.156E-03 0.156E-03
CGA:  57    -0.668602004875E+03   -0.19102E-04   -0.22890E-04  8424   0.155E-03 0.155E-03
CGA:  58    -0.668602027308E+03   -0.22433E-04   -0.24368E-04  8424   0.154E-03 0.154E-03
CGA:  59    -0.668602045948E+03   -0.18640E-04   -0.22328E-04  8424   0.153E-03 0.153E-03
CGA:  60    -0.668602067589E+03   -0.21642E-04   -0.23651E-04  8424   0.152E-03 0.152E-03
CGA:  61    -0.668602085799E+03   -0.18210E-04   -0.21797E-04  8424   0.151E-03 0.151E-03
CGA:  62    -0.668602106728E+03   -0.20929E-04   -0.22987E-04  8424   0.150E-03 0.150E-03
CGA:  63    -0.668602124528E+03   -0.17800E-04   -0.21290E-04  8424   0.149E-03 0.149E-03
CGA:  64    -0.668602144815E+03   -0.20287E-04   -0.22372E-04  8424   0.148E-03 0.148E-03
CGA:  65    -0.668602162222E+03   -0.17407E-04   -0.20804E-04  8424   0.147E-03 0.147E-03
CGA:  66    -0.668602181927E+03   -0.19705E-04   -0.21799E-04  8424   0.147E-03 0.146E-03
CGA:  67    -0.668602198958E+03   -0.17031E-04   -0.20339E-04  8424   0.146E-03 0.145E-03
CGA:  68    -0.668602218129E+03   -0.19171E-04   -0.21261E-04  8424   0.145E-03 0.145E-03
CGA:  69    -0.668602234808E+03   -0.16679E-04   -0.19896E-04  8424   0.144E-03 0.144E-03
CGA:  70    -0.668602253485E+03   -0.18677E-04   -0.20754E-04  8424   0.143E-03 0.143E-03
CGA:  71    -0.668602269836E+03   -0.16351E-04   -0.19477E-04  8424   0.143E-03 0.142E-03
CGA:  72    -0.668602288055E+03   -0.18219E-04   -0.20276E-04  8424   0.142E-03 0.142E-03
CGA:  73    -0.668602304104E+03   -0.16049E-04   -0.19081E-04  8424   0.141E-03 0.141E-03
CGA:  74    -0.668602321900E+03   -0.17796E-04   -0.19825E-04  8424   0.141E-03 0.140E-03
CGA:  75    -0.668602337672E+03   -0.15772E-04   -0.18708E-04  8424   0.140E-03 0.140E-03
CGA:  76    -0.668602355078E+03   -0.17406E-04   -0.19402E-04  8424   0.139E-03 0.139E-03
CGA:  77    -0.668602370591E+03   -0.15514E-04   -0.18356E-04  8424   0.139E-03 0.138E-03
CGA:  78    -0.668602387641E+03   -0.17049E-04   -0.19006E-04  8424   0.138E-03 0.138E-03
CGA:  79    -0.668602402914E+03   -0.15274E-04   -0.18023E-04  8424   0.137E-03 0.137E-03
CGA:  80    -0.668602419637E+03   -0.16722E-04   -0.18635E-04  8424   0.137E-03 0.136E-03
CGA:  81    -0.668602434685E+03   -0.15048E-04   -0.17706E-04  8424   0.136E-03 0.136E-03
CGA:  82    -0.668602451107E+03   -0.16422E-04   -0.18286E-04  8424   0.136E-03 0.135E-03
[...]
CGA:   8    -0.668120483933E+03   -0.73915E-05   -0.13856E-04  8424   0.811E-04 0.959E-04
  37 F= -.66812048E+03 E0= -.66812048E+03  d E =-.368155E-02  mag=     2.0000
       N       E                     dE             d eps       ncg     rms          ort
SDA:   1    -0.667882880924E+03    0.23760E+00    0.00000E+00  8424   0.567E+00 0.000E+00
CGA:   2    -0.668075643745E+03   -0.19276E+00   -0.19277E+00  8424   0.207E+00-0.412E-04
CGA:   3    -0.668111354721E+03   -0.35711E-01   -0.35707E-01  8424   0.533E-01-0.119E-02
CGA:   4    -0.668120509343E+03   -0.91546E-02   -0.91561E-02  8424   0.123E-01 0.502E-03
CGA:   5    -0.668122584304E+03   -0.20750E-02   -0.20786E-02  8424   0.250E-02 0.471E-03
CGA:   6    -0.668123107271E+03   -0.52297E-03   -0.51918E-03  8424   0.671E-03 0.154E-03
CGA:   7    -0.668123235715E+03   -0.12844E-03   -0.12780E-03  8424   0.220E-03 0.216E-03
CGA:   8    -0.668123270076E+03   -0.34361E-04   -0.40453E-04  8424   0.117E-03 0.161E-03
CGA:   9    -0.668123277091E+03   -0.70151E-05   -0.12866E-04  8424   0.791E-04 0.907E-04
  38 F= -.66812328E+03 E0= -.66812328E+03  d E =-.279316E-02  mag=     2.0000
       N       E                     dE             d eps       ncg     rms          ort
SDA:   1    -0.665942025318E+03    0.21812E+01    0.00000E+00  8424   0.627E+01 0.000E+00
CGA:   2    -0.667322085881E+03   -0.13801E+01   -0.13796E+01  8424   0.292E+01 0.705E-02
CGA:   3    -0.667901633039E+03   -0.57955E+00   -0.57954E+00  8424   0.866E+00-0.494E-04
CGA:   4    -0.668043012417E+03   -0.14138E+00   -0.14139E+00  8424   0.198E+00 0.472E-03
CGA:   5    -0.668078208083E+03   -0.35196E-01   -0.35196E-01  8424   0.413E-01-0.556E-04
CGA:   6    -0.668086342299E+03   -0.81342E-02   -0.81324E-02  8424   0.980E-02 0.629E-04
CGA:   7    -0.668088439779E+03   -0.20975E-02   -0.20783E-02  8424   0.266E-02 0.484E-03
CGA:   8    -0.668089097027E+03   -0.65725E-03   -0.63604E-03  8424   0.758E-03 0.395E-03
CGA:   9    -0.668089300729E+03   -0.20370E-03   -0.19410E-03  8424   0.255E-03 0.208E-03
CGA:  10    -0.668089369755E+03   -0.69027E-04   -0.65735E-04  8424   0.117E-03 0.140E-03
CGA:  11    -0.668089389570E+03   -0.19815E-04   -0.20312E-04  8424   0.606E-04 0.736E-04
CGA:  12    -0.668089393639E+03   -0.40684E-05   -0.72896E-05  8424   0.488E-04 0.540E-04
  39 F= -.66808939E+03 E0= -.66808939E+03  d E =0.338835E-01  mag=     2.0000
       N       E                     dE             d eps       ncg     rms          ort
SDA:   1    -0.667014409350E+03    0.10750E+01    0.00000E+00  8424   0.344E+01 0.000E+00
CGA:   2    -0.667717666468E+03   -0.70326E+00   -0.70296E+00  8424   0.147E+01 0.761E-02
CGA:   3    -0.668024650199E+03   -0.30698E+00   -0.30707E+00  8424   0.474E+00-0.270E-02
CGA:   4    -0.668101808607E+03   -0.77158E-01   -0.77164E-01  8424   0.109E+00 0.322E-03
CGA:   5    -0.668121020816E+03   -0.19212E-01   -0.19212E-01  8424   0.225E-01 0.885E-03
CGA:   6    -0.668125533049E+03   -0.45122E-02   -0.45140E-02  8424   0.532E-02-0.778E-04
CGA:   7    -0.668126640302E+03   -0.11073E-02   -0.10971E-02  8424   0.139E-02 0.337E-03
CGA:   8    -0.668126971478E+03   -0.33118E-03   -0.32154E-03  8424   0.378E-03 0.243E-03
CGA:   9    -0.668127057185E+03   -0.85707E-04   -0.84246E-04  8424   0.128E-03 0.153E-03
CGA:  10    -0.668127067996E+03   -0.10811E-04   -0.19554E-04  8424   0.754E-04 0.122E-03
CGA:  11    -0.668127067301E+03    0.69501E-06   -0.58404E-05  8424   0.581E-04 0.655E-04
  40 F= -.66812707E+03 E0= -.66812707E+03  d E =-.376737E-01  mag=     2.0000
       N       E                     dE             d eps       ncg     rms          ort
SDA:   1    -0.668086117091E+03    0.40951E-01    0.00000E+00  8424   0.144E+00 0.000E+00
CGA:   2    -0.668118973415E+03   -0.32856E-01   -0.32840E-01  8424   0.662E-01 0.255E-03
CGA:   3    -0.668131829212E+03   -0.12856E-01   -0.12863E-01  8424   0.188E-01-0.298E-03
CGA:   4    -0.668134898485E+03   -0.30693E-02   -0.30701E-02  8424   0.442E-02 0.104E-03
CGA:   5    -0.668135648381E+03   -0.74990E-03   -0.75046E-03  8424   0.880E-03 0.300E-03
CGA:   6    -0.668135803151E+03   -0.15477E-03   -0.15571E-03  8424   0.197E-03 0.192E-03
CGA:   7    -0.668135828569E+03   -0.25418E-04   -0.30515E-04  8424   0.799E-04 0.118E-03
CGA:   8    -0.668135831156E+03   -0.25862E-05   -0.73247E-05  8424   0.519E-04 0.619E-04
  41 F= -.66813583E+03 E0= -.66813583E+03  d E =-.876385E-02  mag=     2.0000
       N       E                     dE             d eps       ncg     rms          ort
SDA:   1    -0.668026017292E+03    0.10981E+00    0.00000E+00  8424   0.349E+00 0.000E+00
CGA:   2    -0.668117155616E+03   -0.91138E-01   -0.91093E-01  8424   0.165E+00 0.410E-03
CGA:   3    -0.668147156789E+03   -0.30001E-01   -0.30019E-01  8424   0.436E-01-0.108E-02
CGA:   4    -0.668154348535E+03   -0.71917E-02   -0.71917E-02  8424   0.104E-01 0.199E-04
CGA:   5    -0.668156135395E+03   -0.17869E-02   -0.17844E-02  8424   0.203E-02 0.401E-03
CGA:   6    -0.668156536082E+03   -0.40069E-03   -0.39721E-03  8424   0.476E-03 0.156E-03
CGA:   7    -0.668156632067E+03   -0.95984E-04   -0.93856E-04  8424   0.143E-03 0.130E-03
CGA:   8    -0.668156654443E+03   -0.22377E-04   -0.25158E-04  8424   0.668E-04 0.959E-04
CGA:   9    -0.668156657072E+03   -0.26285E-05   -0.63542E-05  8424   0.447E-04 0.525E-04
  42 F= -.66815666E+03 E0= -.66815666E+03  d E =-.208259E-01  mag=     2.0000
       N       E                     dE             d eps       ncg     rms          ort
SDA:   1    -0.668082487992E+03    0.74166E-01    0.00000E+00  8424   0.269E+00 0.000E+00
CGA:   2    -0.668153264434E+03   -0.70776E-01   -0.70719E-01  8424   0.133E+00 0.521E-03
CGA:   3    -0.668178325449E+03   -0.25061E-01   -0.25082E-01  8424   0.335E-01-0.830E-03
CGA:   4    -0.668183809952E+03   -0.54845E-02   -0.54845E-02  8424   0.777E-02 0.198E-04
CGA:   5    -0.668185121213E+03   -0.13113E-02   -0.13103E-02  8424   0.152E-02 0.235E-03
CGA:   6    -0.668185416931E+03   -0.29572E-03   -0.29171E-03  8424   0.355E-03 0.187E-03
CGA:   7    -0.668185480858E+03   -0.63926E-04   -0.64467E-04  8424   0.113E-03 0.140E-03
CGA:   8    -0.668185494750E+03   -0.13892E-04   -0.18345E-04  8424   0.588E-04 0.914E-04
CGA:   9    -0.668185495919E+03   -0.11686E-05   -0.49845E-05  8424   0.428E-04 0.488E-04
  43 F= -.66818550E+03 E0= -.66818550E+03  d E =-.288388E-01  mag=     2.0000
       N       E                     dE             d eps       ncg     rms          ort
SDA:   1    -0.665713092548E+03    0.24724E+01    0.00000E+00  8424   0.736E+01 0.000E+00
CGA:   2    -0.667311366864E+03   -0.15983E+01   -0.15975E+01  8424   0.325E+01 0.102E-01
CGA:   3    -0.667969511117E+03   -0.65814E+00   -0.65812E+00  8424   0.972E+00 0.268E-03
CGA:   4    -0.668132491992E+03   -0.16298E+00   -0.16298E+00  8424   0.232E+00 0.434E-03
CGA:   5    -0.668172989676E+03   -0.40498E-01   -0.40502E-01  8424   0.474E-01-0.361E-03
CGA:   6    -0.668182483004E+03   -0.94933E-02   -0.95123E-02  8424   0.113E-01-0.480E-03
CGA:   7    -0.668184986761E+03   -0.25038E-02   -0.24902E-02  8424   0.325E-02 0.229E-03
CGA:   8    -0.668185794930E+03   -0.80817E-03   -0.78879E-03  8424   0.931E-03 0.269E-03
CGA:   9    -0.668186107665E+03   -0.31273E-03   -0.34838E-03  8424   0.540E-03-0.203E-03
CGA:  10    -0.668186237456E+03   -0.12979E-03   -0.17389E-03  8424   0.412E-03-0.190E-03
CGA:  11    -0.668186347533E+03   -0.11008E-03    0.29251E-03  8424   0.174E-03 0.615E-04
CGA:  12    -0.668185754608E+03    0.59292E-03   -0.32100E-03  8424   0.403E-02-0.840E-03
CGA:  13    -0.668186504290E+03   -0.74968E-03   -0.77593E-03  8424   0.387E-03 0.170E-03
CGA:  14    -0.668186643319E+03   -0.13903E-03   -0.22243E-03  8424   0.786E-03-0.393E-03
CGA:  15    -0.668186688268E+03   -0.44949E-04   -0.92125E-04  8424   0.119E-03 0.203E-03
CGA:  16    -0.668186708922E+03   -0.20654E-04   -0.26282E-04  8424   0.501E-04 0.345E-04
CGA:  17    -0.668186774440E+03   -0.65518E-04    0.19642E-04  8424   0.688E-04-0.355E-04
CGA:  18    -0.668186777182E+03   -0.27426E-05   -0.86705E-05  8424   0.228E-04 0.291E-04
CGA:  19    -0.668186799455E+03   -0.22273E-04    0.66849E-04  8424   0.315E-04 0.115E-07
CGA:  20    -0.668186871727E+03   -0.72272E-04    0.19456E-05  8424   0.642E-04-0.600E-05
CGA:  21    -0.668187020330E+03   -0.14860E-03    0.23890E-05  8424   0.164E-03 0.793E-05
CGA:  22    -0.668187378188E+03   -0.35786E-03    0.14358E-04  8424   0.154E-03 0.317E-04
CGA:  23    -0.668187740572E+03   -0.36238E-03    0.14046E-04  8424   0.178E-03 0.266E-04
CGA:  24    -0.668188278267E+03   -0.53770E-03    0.11036E-04  8424   0.133E-03-0.345E-04
CGA:  25    -0.668188693984E+03   -0.41572E-03    0.33553E-05  8424   0.123E-03 0.566E-05
CGA:  26    -0.668189048465E+03   -0.35448E-03    0.61256E-05  8424   0.952E-04-0.206E-04
CGA:  27    -0.668189357325E+03   -0.30886E-03    0.24732E-05  8424   0.560E-04-0.323E-04
CGA:  28    -0.668189526237E+03   -0.16891E-03    0.95915E-06  8424   0.314E-04-0.239E-04
CGA:  29    -0.668189585083E+03   -0.58846E-04    0.69728E-06  8424   0.246E-04-0.167E-04
CGA:  30    -0.668189594067E+03   -0.89838E-05   -0.97968E-05  8424   0.409E-04-0.104E-04
  44 F= -.66818959E+03 E0= -.66818959E+03  d E =-.409815E-02  mag=     2.0000
       N       E                     dE             d eps       ncg     rms          ort
SDA:   1    -0.666723873529E+03    0.14657E+01    0.00000E+00  8424   0.462E+01 0.000E+00
CGA:   2    -0.667669289214E+03   -0.94542E+00   -0.94615E+00  8424   0.194E+01 0.292E-02
CGA:   3    -0.668077004984E+03   -0.40772E+00   -0.40755E+00  8424   0.615E+00-0.150E-02
CGA:   4    -0.668178662896E+03   -0.10166E+00   -0.10169E+00  8424   0.144E+00 0.139E-03
CGA:   5    -0.668203931379E+03   -0.25268E-01   -0.25340E-01  8424   0.297E-01 0.577E-03
CGA:   6    -0.668209848784E+03   -0.59174E-02   -0.59295E-02  8424   0.687E-02 0.134E-03
CGA:   7    -0.668211331550E+03   -0.14828E-02   -0.14978E-02  8424   0.190E-02 0.231E-03
CGA:   8    -0.668211801704E+03   -0.47015E-03   -0.47549E-03  8424   0.547E-03 0.143E-03
CGA:   9    -0.668211913533E+03   -0.11183E-03   -0.12294E-03  8424   0.171E-03 0.164E-03
CGA:  10    -0.668211929145E+03   -0.15612E-04   -0.32441E-04  8424   0.912E-04 0.131E-03
CGA:  11    -0.668211928508E+03    0.63766E-06   -0.10496E-04  8424   0.628E-04 0.732E-04
  45 F= -.66821193E+03 E0= -.66821193E+03  d E =-.223344E-01  mag=     2.0000
       N       E                     dE             d eps       ncg     rms          ort
SDA:   1    -0.668145689299E+03    0.66240E-01    0.00000E+00  8424   0.163E+00 0.000E+00
CGA:   2    -0.668182104120E+03   -0.36415E-01   -0.36430E-01  8424   0.748E-01 0.515E-03
CGA:   3    -0.668196794829E+03   -0.14691E-01   -0.14673E-01  8424   0.216E-01-0.329E-03
CGA:   4    -0.668200362632E+03   -0.35678E-02   -0.35722E-02  8424   0.516E-02 0.511E-04
CGA:   5    -0.668201218348E+03   -0.85572E-03   -0.87543E-03  8424   0.101E-02 0.266E-03
CGA:   6    -0.668201396181E+03   -0.17783E-03   -0.18764E-03  8424   0.232E-03 0.156E-03
CGA:   7    -0.668201424472E+03   -0.28291E-04   -0.38875E-04  8424   0.872E-04 0.116E-03
CGA:   8    -0.668201425407E+03   -0.93506E-06   -0.91785E-05  8424   0.544E-04 0.652E-04
  46 F= -.66820143E+03 E0= -.66820143E+03  d E =0.105031E-01  mag=     2.0000
       N       E                     dE             d eps       ncg     rms          ort
SDA:   1    -0.668010128933E+03    0.19130E+00    0.00000E+00  8424   0.445E+00 0.000E+00
CGA:   2    -0.668118478596E+03   -0.10835E+00   -0.10832E+00  8424   0.210E+00 0.974E-03
CGA:   3    -0.668158317777E+03   -0.39839E-01   -0.39809E-01  8424   0.559E-01-0.102E-02
CGA:   4    -0.668167639253E+03   -0.93215E-02   -0.93193E-02  8424   0.138E-01-0.496E-04
CGA:   5    -0.668169978448E+03   -0.23392E-02   -0.23576E-02  8424   0.267E-02 0.419E-03
CGA:   6    -0.668170494051E+03   -0.51560E-03   -0.52006E-03  8424   0.617E-03 0.184E-03
CGA:   7    -0.668170609756E+03   -0.11571E-03   -0.12045E-03  8424   0.182E-03 0.163E-03
CGA:   8    -0.668170631095E+03   -0.21339E-04   -0.30898E-04  8424   0.868E-04 0.126E-03
CGA:   9    -0.668170632810E+03   -0.17149E-05   -0.87786E-05  8424   0.568E-04 0.670E-04
  47 F= -.66817063E+03 E0= -.66817063E+03  d E =0.307926E-01  mag=     2.0000
       N       E                     dE             d eps       ncg     rms          ort
SDA:   1    -0.668111978647E+03    0.58652E-01    0.00000E+00  8424   0.852E-01 0.000E+00
CGA:   2    -0.668133714152E+03   -0.21736E-01   -0.21697E-01  8424   0.429E-01 0.637E-03
CGA:   3    -0.668141930960E+03   -0.82168E-02   -0.82147E-02  8424   0.109E-01-0.296E-03
CGA:   4    -0.668143686790E+03   -0.17558E-02   -0.17584E-02  8424   0.249E-02 0.696E-04
CGA:   5    -0.668144085704E+03   -0.39891E-03   -0.40579E-03  8424   0.480E-03 0.206E-03
CGA:   6    -0.668144154776E+03   -0.69072E-04   -0.76842E-04  8424   0.130E-03 0.169E-03
CGA:   7    -0.668144161656E+03   -0.68801E-05   -0.17035E-04  8424   0.663E-04 0.107E-03
  48 F= -.66814416E+03 E0= -.66814416E+03  d E =0.264712E-01  mag=     2.0000
       N       E                     dE             d eps       ncg     rms          ort
SDA:   1    -0.665922130282E+03    0.22220E+01    0.00000E+00  8424   0.574E+01 0.000E+00
CGA:   2    -0.667245363812E+03   -0.13232E+01   -0.13230E+01  8424   0.274E+01 0.456E-02
CGA:   3    -0.667779930311E+03   -0.53457E+00   -0.53455E+00  8424   0.749E+00 0.862E-03
CGA:   4    -0.667903116460E+03   -0.12319E+00   -0.12320E+00  8424   0.178E+00 0.439E-03
CGA:   5    -0.667934824853E+03   -0.31708E-01   -0.31707E-01  8424   0.373E-01-0.364E-03
CGA:   6    -0.667942242141E+03   -0.74173E-02   -0.74198E-02  8424   0.907E-02-0.160E-03
CGA:   7    -0.667944245555E+03   -0.20034E-02   -0.19969E-02  8424   0.263E-02 0.174E-03
CGA:   8    -0.667944943794E+03   -0.69824E-03   -0.69224E-03  8424   0.857E-03 0.816E-04
CGA:   9    -0.667945221186E+03   -0.27739E-03   -0.29590E-03  8424   0.477E-03-0.128E-03
CGA:  10    -0.667944393594E+03    0.82759E-03   -0.45608E-03  8424   0.560E-02-0.123E-02
CGA:  11    -0.667945385732E+03   -0.99214E-03   -0.10008E-02  8424   0.776E-03 0.475E-04
CGA:  12    -0.667945650096E+03   -0.26436E-03   -0.26346E-03  8424   0.377E-03-0.718E-04
CGA:  13    -0.667945759749E+03   -0.10965E-03   -0.10701E-03  8424   0.282E-03-0.739E-04
CGA:  14    -0.667945512253E+03    0.24750E-03   -0.24357E-03  8424   0.312E-02-0.679E-03
CGA:  15    -0.667945905069E+03   -0.39282E-03   -0.41858E-03  8424   0.429E-03 0.109E-03
CGA:  16    -0.667946046042E+03   -0.14097E-03   -0.13910E-03  8424   0.151E-03-0.326E-04
CGA:  17    -0.667946088924E+03   -0.42882E-04   -0.14229E-03  8424   0.441E-03-0.153E-03
CGA:  18    -0.667946218320E+03   -0.12940E-03   -0.11771E-03  8424   0.157E-03-0.874E-04
CGA:  19    -0.667946248008E+03   -0.29688E-04   -0.28216E-04  8424   0.621E-04-0.886E-05
CGA:  20    -0.667945622880E+03    0.62513E-03   -0.33724E-03  8424   0.364E-02-0.367E-03
CGA:  21    -0.667946399156E+03   -0.77628E-03   -0.70230E-03  8424   0.888E-03-0.151E-03
CGA:  22    -0.667946511806E+03   -0.11265E-03   -0.13892E-03  8424   0.963E-04 0.521E-04
CGA:  23    -0.667946555484E+03   -0.43679E-04   -0.43463E-04  8424   0.657E-04-0.116E-05
CGA:  24    -0.667946565823E+03   -0.10339E-04   -0.55895E-04  8424   0.959E-03-0.208E-03
CGA:  25    -0.667946627519E+03   -0.61696E-04   -0.11065E-03  8424   0.810E-04 0.928E-04
CGA:  26    -0.667946647814E+03   -0.20295E-04   -0.25438E-04  8424   0.532E-04 0.151E-04
CGA:  27    -0.667943661075E+03    0.29867E-02   -0.16476E-02  8424   0.185E-01-0.969E-03
CGA:  28    -0.667945818969E+03   -0.21579E-02   -0.24401E-02  8424   0.248E-02 0.457E-03
CGA:  29    -0.667946770512E+03   -0.95154E-03   -0.98632E-03  8424   0.753E-03 0.513E-04
CGA:  30    -0.667947031643E+03   -0.26113E-03   -0.16139E-03  8424   0.168E-03-0.123E-03
CGA:  31    -0.667947038350E+03   -0.67061E-05   -0.29083E-04  8424   0.251E-04 0.287E-04
  49 F= -.66794704E+03 E0= -.66794704E+03  d E =0.197123E+00  mag=     2.0000
       N       E                     dE             d eps       ncg     rms          ort
SDA:   1    -0.665997939841E+03    0.19491E+01    0.00000E+00  8424   0.613E+01 0.000E+00
CGA:   2    -0.667227020232E+03   -0.12291E+01   -0.12337E+01  8424   0.254E+01 0.238E-02
CGA:   3    -0.667768373935E+03   -0.54135E+00   -0.54010E+00  8424   0.822E+00 0.722E-02
CGA:   4    -0.667904445106E+03   -0.13607E+00   -0.13603E+00  8424   0.191E+00 0.114E-02
CGA:   5    -0.667938200275E+03   -0.33755E-01   -0.33890E-01  8424   0.400E-01 0.157E-03
CGA:   6    -0.667946197495E+03   -0.79972E-02   -0.79467E-02  8424   0.923E-02-0.851E-04
CGA:   7    -0.667948195832E+03   -0.19983E-02   -0.20307E-02  8424   0.256E-02 0.604E-04
CGA:   8    -0.667948819721E+03   -0.62389E-03   -0.64852E-03  8424   0.738E-03 0.523E-04
CGA:   9    -0.667949022272E+03   -0.20255E-03   -0.20408E-03  8424   0.256E-03 0.336E-05
CGA:  10    -0.667949059191E+03   -0.36919E-04   -0.64128E-04  8424   0.952E-04 0.638E-04
CGA:  11    -0.667949070932E+03   -0.11741E-04   -0.29016E-04  8424   0.418E-04 0.419E-04
CGA:  12    -0.667949067501E+03    0.34302E-05   -0.11528E-04  8424   0.245E-04 0.337E-04
  50 F= -.66794907E+03 E0= -.66794907E+03  d E =-.202915E-02  mag=     2.0000
       N       E                     dE             d eps       ncg     rms          ort
SDA:   1    -0.667796387317E+03    0.15268E+00    0.00000E+00  8424   0.522E+00 0.000E+00
CGA:   2    -0.667898537595E+03   -0.10215E+00   -0.10222E+00  8424   0.208E+00 0.591E-04
CGA:   3    -0.667943402692E+03   -0.44865E-01   -0.44854E-01  8424   0.712E-01-0.607E-04
CGA:   4    -0.667955117170E+03   -0.11714E-01   -0.11732E-01  8424   0.165E-01 0.339E-04
CGA:   5    -0.667957992447E+03   -0.28753E-02   -0.29025E-02  8424   0.339E-02 0.738E-04
CGA:   6    -0.667958628297E+03   -0.63585E-03   -0.66136E-03  8424   0.759E-03 0.793E-04
CGA:   7    -0.667958772961E+03   -0.14466E-03   -0.16208E-03  8424   0.197E-03 0.602E-04
CGA:   8    -0.667958801581E+03   -0.28621E-04   -0.43183E-04  8424   0.545E-04 0.519E-04
CGA:   9    -0.667958797112E+03    0.44693E-05   -0.88858E-05  8424   0.250E-04 0.393E-04
  51 F= -.66795880E+03 E0= -.66795880E+03  d E =-.972961E-02  mag=     2.0000
       N       E                     dE             d eps       ncg     rms          ort
SDA:   1    -0.667870289536E+03    0.88512E-01    0.00000E+00  8424   0.260E+00 0.000E+00
CGA:   2    -0.667921772146E+03   -0.51483E-01   -0.51524E-01  8424   0.103E+00 0.123E-03
CGA:   3    -0.667944006032E+03   -0.22234E-01   -0.22205E-01  8424   0.350E-01-0.163E-03
CGA:   4    -0.667949801145E+03   -0.57951E-02   -0.58011E-02  8424   0.828E-02 0.183E-04
CGA:   5    -0.667951220182E+03   -0.14190E-02   -0.14472E-02  8424   0.165E-02 0.124E-03
CGA:   6    -0.667951508542E+03   -0.28836E-03   -0.31278E-03  8424   0.359E-03 0.121E-03
CGA:   7    -0.667951564850E+03   -0.56308E-04   -0.71730E-04  8424   0.938E-04 0.803E-04
CGA:   8    -0.667951569714E+03   -0.48641E-05   -0.16929E-04  8424   0.368E-04 0.546E-04
  52 F= -.66795157E+03 E0= -.66795157E+03  d E =0.722740E-02  mag=     2.0000
       N       E                     dE             d eps       ncg     rms          ort
SDA:   1    -0.667870358066E+03    0.81207E-01    0.00000E+00  8424   0.170E+00 0.000E+00
CGA:   2    -0.667913477930E+03   -0.43120E-01   -0.43149E-01  8424   0.789E-01 0.285E-03
CGA:   3    -0.667928354851E+03   -0.14877E-01   -0.14790E-01  8424   0.213E-01-0.578E-03
CGA:   4    -0.667931915014E+03   -0.35602E-02   -0.35731E-02  8424   0.512E-02 0.771E-04
CGA:   5    -0.667932723882E+03   -0.80887E-03   -0.84762E-03  8424   0.960E-03 0.243E-03
CGA:   6    -0.667932887838E+03   -0.16396E-03   -0.18200E-03  8424   0.219E-03 0.134E-03
CGA:   7    -0.667932913179E+03   -0.25341E-04   -0.39430E-04  8424   0.730E-04 0.932E-04
CGA:   8    -0.667932912043E+03    0.11357E-05   -0.11170E-04  8424   0.390E-04 0.633E-04
