       N       E                     dE             d eps       ncg     rms          ort
DAV:   1     0.827727582062E+04    0.82773E+04   -0.24665E+05  8424   0.238E+03
DAV:   2     0.923735951873E+03   -0.73535E+04   -0.69007E+04  8424   0.657E+02
DAV:   3    -0.672221978768E+03   -0.15960E+04   -0.14027E+04  8424   0.283E+02
DAV:   4    -0.829156800155E+03   -0.15693E+03   -0.15416E+03  8424   0.861E+01
DAV:   5    -0.831668688059E+03   -0.25119E+01   -0.25010E+01  8424   0.122E+01
SDA:   6    -0.225827752804E+03    0.60584E+03   -0.25010E+01  8424   0.565E+04 0.000E+00
CGA:   7    -0.436637058026E+03   -0.21081E+03   -0.46032E+03  8424   0.278E+04-0.132E+03
CGA:   8    -0.546503336131E+03   -0.10987E+03   -0.14366E+03  8424   0.949E+03-0.838E+03
CGA:   9    -0.630516374980E+03   -0.84013E+02   -0.20117E+02  8424   0.368E+03-0.360E+03
CGA:  10    -0.633181184023E+03   -0.26648E+01   -0.16950E+02  8424   0.298E+03 0.726E+01
CGA:  11    -0.646785102625E+03   -0.13604E+02   -0.10823E+02  8424   0.477E+03-0.349E+03
CGA:  12    -0.639977301983E+03    0.68078E+01   -0.29113E+02  8424   0.419E+03-0.142E+03
CGA:  13    -0.653961117375E+03   -0.13984E+02   -0.80709E+01  8424   0.326E+03-0.581E+03
CGA:  14    -0.642283337875E+03    0.11678E+02   -0.21598E+02  8424   0.215E+03-0.323E+02
CGA:  15    -0.659667503390E+03   -0.17384E+02   -0.46534E+01  8424   0.318E+02-0.812E+02
CGA:  16    -0.661097596297E+03   -0.14301E+01   -0.17110E+01  8424   0.617E+02-0.475E+00
CGA:  17    -0.664049403125E+03   -0.29518E+01   -0.50468E+01  8424   0.267E+02 0.147E+00
CGA:  18    -0.665620364603E+03   -0.15710E+01   -0.10137E+01  8424   0.105E+02 0.146E+02
CGA:  19    -0.666243998237E+03   -0.62363E+00   -0.82102E+00  8424   0.284E+01-0.226E+00
CGA:  20    -0.666682602476E+03   -0.43860E+00   -0.42298E+00  8424   0.139E+01 0.431E+00
CGA:  21    -0.666915370093E+03   -0.23277E+00   -0.23266E+00  8424   0.116E+01-0.113E-02
CGA:  22    -0.667151099134E+03   -0.23573E+00   -0.22730E+00  8424   0.278E+00 0.926E-01
CGA:  23    -0.667213604268E+03   -0.62505E-01   -0.62918E-01  8424   0.169E+00-0.647E-02
CGA:  24    -0.667281378190E+03   -0.67774E-01   -0.73354E-01  8424   0.169E+00-0.163E-01
CGA:  25    -0.667317590198E+03   -0.36212E-01   -0.40145E-01  8424   0.210E+00-0.363E-01
CGA:  26    -0.667356315460E+03   -0.38725E-01   -0.42349E-01  8424   0.163E+00-0.415E-01
CGA:  27    -0.667386991256E+03   -0.30676E-01   -0.41213E-01  8424   0.157E+00-0.720E-01
CGA:  28    -0.667174098593E+03    0.21289E+00   -0.10420E+00  8424   0.177E+01-0.352E+00
CGA:  29    -0.667400280798E+03   -0.22618E+00   -0.22783E+00  8424   0.246E+00 0.176E-02
CGA:  30    -0.667486853042E+03   -0.86572E-01   -0.86052E-01  8424   0.156E+00 0.131E-01
CGA:  31    -0.667531456568E+03   -0.44604E-01   -0.45077E-01  8424   0.934E-01 0.121E-01
CGA:  32    -0.667558950830E+03   -0.27494E-01   -0.27917E-01  8424   0.375E-01 0.151E-01
CGA:  33    -0.667578604089E+03   -0.19653E-01   -0.18345E-01  8424   0.206E-01 0.110E-01
CGA:  34    -0.667590270148E+03   -0.11666E-01   -0.10978E-01  8424   0.172E-01 0.644E-02
CGA:  35    -0.667597427259E+03   -0.71571E-02   -0.71459E-02  8424   0.134E-01 0.658E-02
CGA:  36    -0.667606128351E+03   -0.87011E-02   -0.80716E-02  8424   0.117E-01 0.484E-02
CGA:  37    -0.667613014574E+03   -0.68862E-02   -0.66670E-02  8424   0.158E-01 0.190E-02
CGA:  38    -0.667623874746E+03   -0.10860E-01   -0.11090E-01  8424   0.201E-01-0.203E-02
CGA:  39    -0.667627324792E+03   -0.34500E-02   -0.15608E-01  8424   0.717E-01-0.260E-01
CGA:  40    -0.667642196613E+03   -0.14872E-01   -0.14947E-01  8424   0.244E-01 0.598E-03
CGA:  41    -0.667654772785E+03   -0.12576E-01   -0.12742E-01  8424   0.291E-01-0.110E-02
CGA:  42    -0.667665505240E+03   -0.10732E-01   -0.10787E-01  8424   0.161E-01-0.303E-02
CGA:  43    -0.667671293590E+03   -0.57883E-02   -0.58548E-02  8424   0.118E-01-0.177E-02
CGA:  44    -0.667675456969E+03   -0.41634E-02   -0.43307E-02  8424   0.114E-01-0.402E-02
CGA:  45    -0.667678348532E+03   -0.28916E-02   -0.29227E-02  8424   0.696E-02-0.213E-02
CGA:  46    -0.667680759080E+03   -0.24105E-02   -0.26446E-02  8424   0.934E-02-0.260E-02
CGA:  47    -0.667683146742E+03   -0.23877E-02   -0.34701E-02  8424   0.128E-01-0.531E-02
CGA:  48    -0.667686964155E+03   -0.38174E-02   -0.37377E-02  8424   0.665E-02-0.828E-03
CGA:  49    -0.667689059144E+03   -0.20950E-02   -0.20754E-02  8424   0.391E-02-0.406E-03
CGA:  50    -0.667691102163E+03   -0.20430E-02   -0.28386E-02  8424   0.124E-01-0.211E-02
CGA:  51    -0.667692918419E+03   -0.18163E-02   -0.19471E-02  8424   0.218E-02 0.592E-03
CGA:  52    -0.667693955103E+03   -0.10367E-02   -0.11812E-02  8424   0.366E-02-0.113E-02
CGA:  53    -0.667694787622E+03   -0.83252E-03   -0.81251E-03  8424   0.113E-02-0.116E-03
CGA:  54    -0.667695650788E+03   -0.86317E-03    0.11531E-01  8424   0.167E-02-0.182E-04
CGA:  55    -0.667697514732E+03   -0.18639E-02    0.67666E-03  8424   0.126E-02 0.126E-02
CGA:  56    -0.667698027887E+03   -0.51315E-03   -0.52786E-03  8424   0.213E-02-0.459E-03
CGA:  57    -0.667699323880E+03   -0.12960E-02    0.11418E-02  8424   0.286E-02-0.219E-05
CGA:  58    -0.667702092240E+03   -0.27684E-02    0.22493E-02  8424   0.379E-02 0.951E-03
CGA:  59    -0.667657522630E+03    0.44570E-01   -0.23638E-01  8424   0.438E+00-0.287E-01
CGA:  60    -0.667722569140E+03   -0.65047E-01   -0.68537E-01  8424   0.441E-01-0.279E-01
CGA:  61    -0.667730123174E+03   -0.75540E-02   -0.77955E-02  8424   0.106E-02 0.831E-03
CGA:  62    -0.667730793820E+03   -0.67065E-03   -0.66137E-03  8424   0.139E-02-0.218E-03
CGA:  63    -0.667731413860E+03   -0.62004E-03   -0.59912E-03  8424   0.196E-02-0.210E-03
CGA:  64    -0.667709176375E+03    0.22237E-01   -0.11819E-01  8424   0.105E+00-0.888E-02
CGA:  65    -0.667731163154E+03   -0.21987E-01   -0.21979E-01  8424   0.217E-01 0.268E-02
CGA:  66    -0.667738472433E+03   -0.73093E-02   -0.66342E-02  8424   0.897E-02-0.927E-03
CGA:  67    -0.667743209707E+03   -0.47373E-02   -0.43571E-02  8424   0.928E-02-0.636E-03
CGA:  68    -0.667748127507E+03   -0.49178E-02   -0.39665E-02  8424   0.554E-02-0.171E-02
CGA:  69    -0.667750173842E+03   -0.20463E-02   -0.14774E-02  8424   0.378E-02-0.811E-03
CGA:  70    -0.667753188254E+03   -0.30144E-02   -0.24833E-02  8424   0.789E-02-0.242E-02
CGA:  71    -0.667754634218E+03   -0.14460E-02   -0.14326E-02  8424   0.157E-02 0.345E-04
CGA:  72    -0.667755493318E+03   -0.85910E-03   -0.64791E-03  8424   0.127E-02-0.401E-03
CGA:  73    -0.667756222948E+03   -0.72963E-03   -0.11028E-02  8424   0.834E-02-0.153E-02
CGA:  74    -0.667757928241E+03   -0.17053E-02   -0.15235E-02  8424   0.175E-02-0.293E-03
CGA:  75    -0.667758660802E+03   -0.73256E-03   -0.62491E-03  8424   0.887E-03-0.207E-03
CGA:  76    -0.667759378079E+03   -0.71728E-03   -0.56135E-03  8424   0.432E-02-0.106E-02
CGA:  77    -0.667760017952E+03   -0.63987E-03   -0.68188E-03  8424   0.597E-03 0.929E-04
CGA:  78    -0.667759969850E+03    0.48103E-04   -0.87682E-03  8424   0.984E-02-0.152E-02
CGA:  79    -0.667761567318E+03   -0.15975E-02   -0.16409E-02  8424   0.158E-02 0.139E-03
CGA:  80    -0.667762393646E+03   -0.82633E-03   -0.61522E-03  8424   0.111E-02-0.489E-03
CGA:  81    -0.667762917409E+03   -0.52376E-03   -0.33439E-03  8424   0.124E-02-0.530E-03
CGA:  82    -0.667765207738E+03   -0.22903E-02    0.19605E-03  8424   0.202E-02 0.125E-03
CGA:  83    -0.667769330114E+03   -0.41224E-02    0.46877E-02  8424   0.551E-02-0.103E-02
CGA:  84    -0.667770710739E+03   -0.13806E-02   -0.11632E-02  8424   0.786E-03-0.416E-03
CGA:  85    -0.667771072521E+03   -0.36178E-03   -0.26906E-03  8424   0.958E-03-0.245E-03
CGA:  86    -0.667772394068E+03   -0.13215E-02    0.66076E-03  8424   0.251E-02-0.723E-03
CGA:  87    -0.667773047779E+03   -0.65371E-03   -0.62444E-03  8424   0.906E-03-0.512E-04
CGA:  88    -0.667773665808E+03   -0.61803E-03   -0.45750E-03  8424   0.207E-02-0.834E-03
CGA:  89    -0.667773982958E+03   -0.31715E-03   -0.32158E-03  8424   0.407E-03 0.190E-04
CGA:  90    -0.667774775332E+03   -0.79237E-03    0.31852E-03  8424   0.590E-03-0.154E-03
CGA:  91    -0.667776372336E+03   -0.15970E-02    0.55423E-04  8424   0.109E-02 0.118E-03
CGA:  92    -0.667780732950E+03   -0.43606E-02    0.29468E-03  8424   0.410E-03 0.773E-03
CGA:  93    -0.667776610307E+03    0.41226E-02   -0.11516E-02  8424   0.299E-01-0.248E-02
CGA:  94    -0.667782889820E+03   -0.62795E-02   -0.59965E-02  8424   0.366E-02-0.860E-03
CGA:  95    -0.667783693739E+03   -0.80392E-03   -0.77563E-03  8424   0.842E-03-0.390E-04
CGA:  96    -0.667784285096E+03   -0.59136E-03   -0.44985E-03  8424   0.151E-02-0.777E-03
CGA:  97    -0.667784661668E+03   -0.37657E-03   -0.32632E-03  8424   0.389E-03-0.935E-04
CGA:  98    -0.667785382876E+03   -0.72121E-03    0.28977E-03  8424   0.168E-02-0.366E-03
CGA:  99    -0.667785647025E+03   -0.26415E-03   -0.26400E-03  8424   0.263E-03 0.719E-05
CGA: 100    -0.667786335268E+03   -0.68824E-03    0.90907E-04  8424   0.544E-03-0.870E-04
CGA: 101    -0.667788163066E+03   -0.18278E-02    0.43286E-04  8424   0.102E-02 0.316E-04
CGA: 102    -0.667792824397E+03   -0.46613E-02    0.15837E-03  8424   0.138E-02 0.590E-03
CGA: 103    -0.667793381969E+03   -0.55757E-03   -0.40941E-03  8424   0.628E-03-0.410E-03
CGA: 104    -0.667791173594E+03    0.22084E-02   -0.87080E-03  8424   0.267E-01-0.233E-02
CGA: 105    -0.667795455600E+03   -0.42820E-02   -0.39395E-02  8424   0.201E-02-0.138E-02
CGA: 106    -0.667796380028E+03   -0.92443E-03   -0.84769E-03  8424   0.493E-03-0.324E-03
CGA: 107    -0.667794186698E+03    0.21933E-02   -0.69040E-03  8424   0.352E-01-0.289E-02
CGA: 108    -0.667798250394E+03   -0.40637E-02   -0.42435E-02  8424   0.557E-03 0.153E-02
CGA: 109    -0.667798643659E+03   -0.39326E-03   -0.36717E-03  8424   0.145E-02-0.441E-03
CGA: 110    -0.667799101721E+03   -0.45806E-03   -0.27400E-03  8424   0.399E-03-0.377E-03
CGA: 111    -0.667799578948E+03   -0.47723E-03    0.44749E-03  8424   0.120E-02-0.270E-03
CGA: 112    -0.667799971902E+03   -0.39295E-03   -0.23136E-03  8424   0.396E-03-0.348E-03
CGA: 113    -0.667800451000E+03   -0.47910E-03    0.26895E-03  8424   0.113E-02-0.255E-03
CGA: 114    -0.667800840227E+03   -0.38923E-03   -0.22930E-03  8424   0.447E-03-0.372E-03
CGA: 115    -0.667801303155E+03   -0.46293E-03    0.36957E-03  8424   0.122E-02-0.305E-03
CGA: 116    -0.667801713442E+03   -0.41029E-03   -0.25203E-03  8424   0.483E-03-0.388E-03
CGA: 117    -0.667788353108E+03    0.13360E-01   -0.72938E-02  8424   0.118E+00-0.454E-02
CGA: 118    -0.667804614996E+03   -0.16262E-01   -0.16540E-01  8424   0.893E-02-0.767E-02
CGA: 119    -0.667806349530E+03   -0.17345E-02   -0.17508E-02  8424   0.377E-03 0.377E-04
CGA: 120    -0.667806777020E+03   -0.42749E-03   -0.24107E-03  8424   0.159E-02-0.516E-03
CGA: 121    -0.667807017126E+03   -0.24011E-03   -0.23932E-03  8424   0.217E-03 0.606E-05
CGA: 122    -0.667807569025E+03   -0.55190E-03    0.29203E-03  8424   0.174E-02-0.403E-03
CGA: 123    -0.667807925579E+03   -0.35655E-03   -0.32866E-03  8424   0.335E-03-0.312E-04
CGA: 124    -0.667808226211E+03   -0.30063E-03   -0.29459E-03  8424   0.424E-02-0.901E-03
CGA: 125    -0.667808783097E+03   -0.55689E-03   -0.60537E-03  8424   0.441E-03 0.102E-03
CGA: 126    -0.667809196952E+03   -0.41385E-03   -0.29084E-03  8424   0.115E-02-0.560E-03
CGA: 127    -0.667809525877E+03   -0.32893E-03   -0.27291E-03  8424   0.288E-03-0.897E-04
CGA: 128    -0.667784145717E+03    0.25380E-01   -0.14207E-01  8424   0.207E+00-0.594E-02
CGA: 129    -0.667810550315E+03   -0.26405E-01   -0.23597E-01  8424   0.132E-01 0.307E-01
CGA: 130    -0.667813667784E+03   -0.31175E-02   -0.31825E-02  8424   0.522E-02 0.101E-03
CGA: 131    -0.667814744114E+03   -0.10763E-02   -0.84842E-03  8424   0.393E-03-0.219E-03
CGA: 132    -0.667815061320E+03   -0.31721E-03   -0.12309E-03  8424   0.480E-03-0.199E-03
CGA: 133    -0.667815156554E+03   -0.95234E-04   -0.72819E-04  8424   0.809E-04-0.166E-04
CGA: 134    -0.667816026723E+03   -0.87017E-03    0.13000E-04  8424   0.352E-03-0.191E-04
CGA: 135    -0.667820444887E+03   -0.44182E-02    0.27942E-04  8424   0.134E-02 0.133E-04
CGA: 136    -0.667840513414E+03   -0.20069E-01    0.16773E-03  8424   0.438E-02-0.275E-03
CGA: 137    -0.667904367947E+03   -0.63855E-01    0.31702E-03  8424   0.534E-01-0.220E-01
CGA: 138    -0.667911858596E+03   -0.74906E-02   -0.82661E-02  8424   0.682E-02-0.330E-02
CGA: 139    -0.667912440045E+03   -0.58145E-03   -0.16767E-02  8424   0.125E-02 0.123E-02
CGA: 140    -0.667911920181E+03    0.51986E-03   -0.35970E-03  8424   0.962E-03 0.100E-02
CGA: 141    -0.667911454911E+03    0.46527E-03   -0.21567E-03  8424   0.836E-03 0.807E-03
CGA: 142    -0.667911000148E+03    0.45476E-03   -0.17266E-03  8424   0.775E-03 0.764E-03
CGA: 143    -0.667910575457E+03    0.42469E-03   -0.15446E-03  8424   0.734E-03 0.736E-03
CGA: 144    -0.667910168705E+03    0.40675E-03   -0.13532E-03  8424   0.704E-03 0.711E-03
CGA: 145    -0.667909789082E+03    0.37962E-03   -0.12441E-03  8424   0.680E-03 0.689E-03
CGA: 146    -0.667909429652E+03    0.35943E-03   -0.11268E-03  8424   0.660E-03 0.668E-03
CGA: 147    -0.667909092033E+03    0.33762E-03   -0.10412E-03  8424   0.643E-03 0.651E-03
CGA: 148    -0.667908773261E+03    0.31877E-03   -0.95970E-04  8424   0.628E-03 0.635E-03
CGA: 149    -0.667908472639E+03    0.30062E-03   -0.89103E-04  8424   0.614E-03 0.621E-03
CGA: 150    -0.667908188622E+03    0.28402E-03   -0.82844E-04  8424   0.602E-03 0.608E-03
CGA: 151    -0.667907920196E+03    0.26843E-03   -0.77282E-04  8424   0.591E-03 0.596E-03
CGA: 152    -0.667907666281E+03    0.25392E-03   -0.72230E-04  8424   0.581E-03 0.586E-03
CGA: 153    -0.667907425958E+03    0.24032E-03   -0.67644E-04  8424   0.571E-03 0.576E-03
CGA: 154    -0.667907198357E+03    0.22760E-03   -0.63452E-04  8424   0.563E-03 0.567E-03
CGA: 155    -0.667906982681E+03    0.21568E-03   -0.59612E-04  8424   0.555E-03 0.559E-03
CGA: 156    -0.667906778187E+03    0.20449E-03   -0.56082E-04  8424   0.547E-03 0.551E-03
CGA: 157    -0.667906584191E+03    0.19400E-03   -0.52826E-04  8424   0.541E-03 0.544E-03
CGA: 158    -0.667906400059E+03    0.18413E-03   -0.49813E-04  8424   0.534E-03 0.537E-03
CGA: 159    -0.667906225205E+03    0.17485E-03   -0.47018E-04  8424   0.528E-03 0.531E-03
CGA: 160    -0.667906059087E+03    0.16612E-03   -0.44418E-04  8424   0.523E-03 0.525E-03
CGA: 161    -0.667905901201E+03    0.15789E-03   -0.41996E-04  8424   0.517E-03 0.520E-03
CGA: 162    -0.667905751080E+03    0.15012E-03   -0.39735E-04  8424   0.512E-03 0.515E-03
CGA: 163    -0.667905608288E+03    0.14279E-03   -0.37620E-04  8424   0.508E-03 0.510E-03
CGA: 164    -0.667905472414E+03    0.13587E-03   -0.35640E-04  8424   0.504E-03 0.506E-03
CGA: 165    -0.667905343071E+03    0.12934E-03   -0.33781E-04  8424   0.500E-03 0.502E-03
CGA: 166    -0.667905219902E+03    0.12317E-03   -0.32037E-04  8424   0.496E-03 0.498E-03
CGA: 167    -0.667905102576E+03    0.11733E-03   -0.30396E-04  8424   0.492E-03 0.494E-03
CGA: 168    -0.667904990786E+03    0.11179E-03   -0.28853E-04  8424   0.489E-03 0.490E-03
CGA: 169    -0.667904884242E+03    0.10654E-03   -0.27399E-04  8424   0.485E-03 0.487E-03
CGA: 170    -0.667904782675E+03    0.10157E-03   -0.26030E-04  8424   0.482E-03 0.484E-03
CGA: 171    -0.667904685832E+03    0.96844E-04   -0.24738E-04  8424   0.479E-03 0.481E-03
CGA: 172    -0.667904593482E+03    0.92350E-04   -0.23523E-04  8424   0.477E-03 0.478E-03
CGA: 173    -0.667904505385E+03    0.88097E-04   -0.22368E-04  8424   0.474E-03 0.475E-03
CGA: 174    -0.667904421364E+03    0.84020E-04   -0.21293E-04  8424   0.472E-03 0.473E-03
CGA: 175    -0.667904341151E+03    0.80214E-04   -0.20238E-04  8424   0.469E-03 0.470E-03
CGA: 176    -0.667904264776E+03    0.76375E-04   -0.19330E-04  8424   0.468E-03 0.468E-03
CGA: 177    -0.667904191743E+03    0.73033E-04   -0.18262E-04  8424   0.467E-03 0.464E-03
CGA: 178    -0.667904122894E+03    0.68849E-04   -0.17647E-04  8424   0.468E-03 0.460E-03
CGA: 179    -0.667904056756E+03    0.66139E-04   -0.16384E-04  8424   0.468E-03 0.455E-03
CGA: 180    -0.667903995016E+03    0.61740E-04   -0.16213E-04  8424   0.467E-03 0.451E-03
CGA: 181    -0.667903934722E+03    0.60294E-04   -0.14943E-04  8424   0.462E-03 0.451E-03
CGA: 182    -0.667903877678E+03    0.57044E-04   -0.14736E-04  8424   0.457E-03 0.453E-03
CGA: 183    -0.667903822270E+03    0.55408E-04   -0.13723E-04  8424   0.454E-03 0.454E-03
CGA: 184    -0.667903769523E+03    0.52748E-04   -0.13214E-04  8424   0.452E-03 0.453E-03
CGA: 185    -0.667903718936E+03    0.50587E-04   -0.12524E-04  8424   0.451E-03 0.451E-03
CGA: 186    -0.667903670612E+03    0.48324E-04   -0.11967E-04  8424   0.449E-03 0.450E-03
CGA: 187    -0.667903624380E+03    0.46232E-04   -0.11404E-04  8424   0.448E-03 0.449E-03
CGA: 188    -0.667903580183E+03    0.44197E-04   -0.10889E-04  8424   0.447E-03 0.448E-03
CGA: 189    -0.667903537908E+03    0.42275E-04   -0.10389E-04  8424   0.446E-03 0.446E-03
CGA: 190    -0.667903497480E+03    0.40428E-04   -0.99196E-05  8424   0.445E-03 0.445E-03
CGA: 191    -0.667903458806E+03    0.38674E-04   -0.94684E-05  8424   0.444E-03 0.444E-03
CGA: 192    -0.667903421814E+03    0.36992E-04   -0.90423E-05  8424   0.443E-03 0.443E-03
CGA: 193    -0.667903386422E+03    0.35391E-04   -0.86337E-05  8424   0.442E-03 0.442E-03
CGA: 194    -0.667903352566E+03    0.33856E-04   -0.82472E-05  8424   0.441E-03 0.441E-03
CGA: 195    -0.667903320172E+03    0.32394E-04   -0.78767E-05  8424   0.440E-03 0.440E-03
CGA: 196    -0.667903289181E+03    0.30991E-04   -0.75264E-05  8424   0.439E-03 0.440E-03
CGA: 197    -0.667903259529E+03    0.29652E-04   -0.71907E-05  8424   0.439E-03 0.439E-03
CGA: 198    -0.667903231167E+03    0.28362E-04   -0.68748E-05  8424   0.438E-03 0.438E-03
CGA: 199    -0.667903204045E+03    0.27122E-04   -0.65747E-05  8424   0.437E-03 0.437E-03
CGA: 200    -0.667903178113E+03    0.25932E-04   -0.62903E-05  8424   0.436E-03 0.436E-03
   1 F= -.66790318E+03 E0= -.66790318E+03  d E =-.667903E+03  mag=     2.0000
       N       E                     dE             d eps       ncg     rms          ort
SDA:   1    -0.667901061913E+03    0.21421E-02    0.00000E+00  8424   0.978E-03 0.000E+00
CGA:   2    -0.667901045201E+03    0.16711E-04   -0.29018E-04  8424   0.815E-03 0.891E-03
CGA:   3    -0.667901024076E+03    0.21125E-04   -0.20240E-04  8424   0.731E-03 0.771E-03
CGA:   4    -0.667901002111E+03    0.21965E-04   -0.15960E-04  8424   0.678E-03 0.703E-03
CGA:   5    -0.667900980341E+03    0.21769E-04   -0.13346E-04  8424   0.640E-03 0.658E-03
CGA:   6    -0.667900959149E+03    0.21192E-04   -0.11542E-04  8424   0.612E-03 0.625E-03
CGA:   7    -0.667900938686E+03    0.20464E-04   -0.10200E-04  8424   0.590E-03 0.600E-03
CGA:   8    -0.667900919008E+03    0.19678E-04   -0.91475E-05  8424   0.572E-03 0.580E-03
CGA:   9    -0.667900900129E+03    0.18879E-04   -0.82920E-05  8424   0.557E-03 0.563E-03
CGA:  10    -0.667900882042E+03    0.18088E-04   -0.75775E-05  8424   0.544E-03 0.549E-03
CGA:  11    -0.667900864725E+03    0.17317E-04   -0.69685E-05  8424   0.533E-03 0.538E-03
CGA:  12    -0.667900848154E+03    0.16571E-04   -0.64408E-05  8424   0.523E-03 0.527E-03
CGA:  13    -0.667900832302E+03    0.15853E-04   -0.59778E-05  8424   0.515E-03 0.518E-03
CGA:  14    -0.667900817139E+03    0.15163E-04   -0.55672E-05  8424   0.507E-03 0.510E-03
CGA:  15    -0.667900802635E+03    0.14503E-04   -0.51999E-05  8424   0.500E-03 0.503E-03
CGA:  16    -0.667900788764E+03    0.13872E-04   -0.48689E-05  8424   0.494E-03 0.497E-03
CGA:  17    -0.667900775496E+03    0.13268E-04   -0.45688E-05  8424   0.489E-03 0.491E-03
CGA:  18    -0.667900762804E+03    0.12691E-04   -0.42952E-05  8424   0.484E-03 0.486E-03
CGA:  19    -0.667900750664E+03    0.12140E-04   -0.40447E-05  8424   0.479E-03 0.481E-03
CGA:  20    -0.667900739050E+03    0.11614E-04   -0.38144E-05  8424   0.475E-03 0.477E-03
CGA:  21    -0.667900727939E+03    0.11112E-04   -0.36018E-05  8424   0.471E-03 0.473E-03
CGA:  22    -0.667900717307E+03    0.10632E-04   -0.34050E-05  8424   0.468E-03 0.469E-03
CGA:  23    -0.667900707134E+03    0.10173E-04   -0.32223E-05  8424   0.464E-03 0.466E-03
CGA:  24    -0.667900697398E+03    0.97356E-05   -0.30522E-05  8424   0.461E-03 0.463E-03
   2 F= -.66790070E+03 E0= -.66790070E+03  d E =0.248071E-02  mag=     2.0000
       N       E                     dE             d eps       ncg     rms          ort
SDA:   1    -0.667896703787E+03    0.40033E-02    0.00000E+00  8424   0.806E-02 0.000E+00
CGA:   2    -0.667897562615E+03   -0.85883E-03   -0.61688E-03  8424   0.407E-02 0.538E-02
CGA:   3    -0.667897847157E+03   -0.28454E-03   -0.21627E-03  8424   0.308E-02 0.351E-02
CGA:   4    -0.667898006423E+03   -0.15927E-03   -0.13448E-03  8424   0.255E-02 0.279E-02
CGA:   5    -0.667898107361E+03   -0.10094E-03   -0.95488E-04  8424   0.220E-02 0.235E-02
CGA:   6    -0.667898175184E+03   -0.67823E-04   -0.72496E-04  8424   0.194E-02 0.206E-02
CGA:   7    -0.667898222200E+03   -0.47016E-04   -0.57390E-04  8424   0.175E-02 0.184E-02
CGA:   8    -0.667898255302E+03   -0.33102E-04   -0.46775E-04  8424   0.160E-02 0.167E-02
CGA:   9    -0.667898278699E+03   -0.23397E-04   -0.38962E-04  8424   0.148E-02 0.153E-02
CGA:  10    -0.667898295120E+03   -0.16421E-04   -0.33010E-04  8424   0.138E-02 0.142E-02
CGA:  11    -0.667898306413E+03   -0.11293E-04   -0.28354E-04  8424   0.129E-02 0.133E-02
CGA:  12    -0.667898313874E+03   -0.74606E-05   -0.24633E-04  8424   0.122E-02 0.125E-02
CGA:  13    -0.667898318434E+03   -0.45601E-05   -0.21606E-04  8424   0.116E-02 0.119E-02
CGA:  14    -0.667898320779E+03   -0.23444E-05   -0.19107E-04  8424   0.110E-02 0.113E-02
CGA:  15    -0.667898321421E+03   -0.64208E-06   -0.17018E-04  8424   0.106E-02 0.108E-02
CGA:  16    -0.667898320750E+03    0.67092E-06   -0.15252E-04  8424   0.101E-02 0.103E-02
CGA:  17    -0.667898319065E+03    0.16845E-05   -0.13746E-04  8424   0.977E-03 0.994E-03
CGA:  18    -0.667898316600E+03    0.24654E-05   -0.12448E-04  8424   0.944E-03 0.959E-03
CGA:  19    -0.667898313536E+03    0.30641E-05   -0.11323E-04  8424   0.914E-03 0.927E-03
CGA:  20    -0.667898310016E+03    0.35192E-05   -0.10341E-04  8424   0.887E-03 0.899E-03
   3 F= -.66789831E+03 E0= -.66789831E+03  d E =0.238738E-02  mag=     2.0000
       N       E                     dE             d eps       ncg     rms          ort
SDA:   1    -0.667888635107E+03    0.96784E-02    0.00000E+00  8424   0.882E-02 0.000E+00
CGA:   2    -0.667889717589E+03   -0.10825E-02   -0.73012E-03  8424   0.463E-02 0.612E-02
CGA:   3    -0.667890103014E+03   -0.38543E-03   -0.26780E-03  8424   0.343E-02 0.396E-02
CGA:   4    -0.667890317901E+03   -0.21489E-03   -0.16127E-03  8424   0.277E-02 0.306E-02
CGA:   5    -0.667890453922E+03   -0.13602E-03   -0.11131E-03  8424   0.235E-02 0.254E-02
CGA:   6    -0.667890545894E+03   -0.91972E-04   -0.82639E-04  8424   0.205E-02 0.218E-02
CGA:   7    -0.667890610585E+03   -0.64690E-04   -0.64269E-04  8424   0.183E-02 0.192E-02
CGA:   8    -0.667890657219E+03   -0.46634E-04   -0.51634E-04  8424   0.165E-02 0.173E-02
CGA:   9    -0.667890691339E+03   -0.34120E-04   -0.42497E-04  8424   0.152E-02 0.158E-02
CGA:  10    -0.667890716488E+03   -0.25149E-04   -0.35640E-04  8424   0.140E-02 0.145E-02
CGA:  11    -0.667890735039E+03   -0.18551E-04   -0.30343E-04  8424   0.131E-02 0.135E-02
CGA:  12    -0.667890748641E+03   -0.13603E-04   -0.26154E-04  8424   0.123E-02 0.126E-02
CGA:  13    -0.667890758475E+03   -0.98338E-05   -0.22779E-04  8424   0.116E-02 0.119E-02
CGA:  14    -0.667890765404E+03   -0.69284E-05   -0.20016E-04  8424   0.110E-02 0.112E-02
CGA:  15    -0.667890770071E+03   -0.46677E-05   -0.17722E-04  8424   0.105E-02 0.107E-02
CGA:  16    -0.667890772968E+03   -0.28963E-05   -0.15797E-04  8424   0.100E-02 0.102E-02
CGA:  17    -0.667890774469E+03   -0.15015E-05   -0.14164E-04  8424   0.961E-03 0.979E-03
CGA:  18    -0.667890774869E+03   -0.39933E-06   -0.12767E-04  8424   0.925E-03 0.940E-03
CGA:  19    -0.667890774396E+03    0.47251E-06   -0.11561E-04  8424   0.892E-03 0.906E-03
CGA:  20    -0.667890773234E+03    0.11617E-05   -0.10514E-04  8424   0.863E-03 0.876E-03
   4 F= -.66789077E+03 E0= -.66789077E+03  d E =0.753678E-02  mag=     2.0000
       N       E                     dE             d eps       ncg     rms          ort
SDA:   1    -0.667835906288E+03    0.54868E-01    0.00000E+00  8424   0.150E+00 0.000E+00
CGA:   2    -0.667869103792E+03   -0.33198E-01   -0.13281E-01  8424   0.532E-01 0.663E-01
CGA:   3    -0.667888892242E+03   -0.19788E-01   -0.62383E-03  8424   0.183E-01-0.409E-02
CGA:   4    -0.667891443422E+03   -0.25512E-02   -0.23219E-02  8424   0.564E-02 0.394E-02
CGA:   5    -0.667892239758E+03   -0.79634E-03   -0.72732E-03  8424   0.195E-02 0.285E-02
CGA:   6    -0.667892385624E+03   -0.14587E-03   -0.15293E-03  8424   0.113E-02 0.146E-02
CGA:   7    -0.667892416316E+03   -0.30692E-04   -0.60105E-04  8424   0.860E-03 0.987E-03
CGA:   8    -0.667892420884E+03   -0.45688E-05   -0.35838E-04  8424   0.713E-03 0.785E-03
CGA:   9    -0.667892415657E+03    0.52276E-05   -0.24706E-04  8424   0.620E-03 0.667E-03
CGA:  10    -0.667892406173E+03    0.94837E-05   -0.18477E-04  8424   0.556E-03 0.589E-03
CGA:  11    -0.667892394772E+03    0.11401E-04   -0.14564E-04  8424   0.509E-03 0.533E-03
CGA:  12    -0.667892382569E+03    0.12202E-04   -0.11907E-04  8424   0.473E-03 0.491E-03
CGA:  13    -0.667892370142E+03    0.12427E-04   -0.10000E-04  8424   0.444E-03 0.459E-03
CGA:  14    -0.667892357801E+03    0.12341E-04   -0.85724E-05  8424   0.421E-03 0.433E-03
CGA:  15    -0.667892345718E+03    0.12083E-04   -0.74671E-05  8424   0.402E-03 0.412E-03
CGA:  16    -0.667892333989E+03    0.11730E-04   -0.65885E-05  8424   0.387E-03 0.395E-03
CGA:  17    -0.667892322662E+03    0.11326E-04   -0.58836E-05  8424   0.374E-03 0.380E-03
CGA:  18    -0.667892311761E+03    0.10901E-04   -0.53208E-05  8424   0.364E-03 0.369E-03
CGA:  19    -0.667892301289E+03    0.10472E-04   -0.48477E-05  8424   0.355E-03 0.359E-03
CGA:  20    -0.667892291242E+03    0.10047E-04   -0.44405E-05  8424   0.347E-03 0.350E-03
CGA:  21    -0.667892281612E+03    0.96301E-05   -0.40855E-05  8424   0.340E-03 0.343E-03
   5 F= -.66789228E+03 E0= -.66789228E+03  d E =-.150838E-02  mag=     2.0000
       N       E                     dE             d eps       ncg     rms          ort
SDA:   1    -0.667853194103E+03    0.39097E-01    0.00000E+00  8424   0.106E+00 0.000E+00
CGA:   2    -0.667878438440E+03   -0.25244E-01   -0.74025E-04  8424   0.802E-01-0.239E-01
CGA:   3    -0.667887795744E+03   -0.93573E-02   -0.90892E-02  8424   0.197E-01 0.453E-02
CGA:   4    -0.667890648653E+03   -0.28529E-02   -0.27330E-02  8424   0.462E-02 0.291E-02
CGA:   5    -0.667891255466E+03   -0.60681E-03   -0.57521E-03  8424   0.147E-02 0.194E-02
CGA:   6    -0.667891361089E+03   -0.10562E-03   -0.13938E-03  8424   0.728E-03 0.128E-02
CGA:   7    -0.667891365007E+03   -0.39172E-05   -0.33203E-04  8424   0.550E-03 0.634E-03
CGA:   8    -0.667891357491E+03    0.75156E-05   -0.19683E-04  8424   0.463E-03 0.506E-03
CGA:   9    -0.667891346631E+03    0.10860E-04   -0.13914E-04  8424   0.409E-03 0.436E-03
CGA:  10    -0.667891334713E+03    0.11918E-04   -0.10715E-04  8424   0.373E-03 0.392E-03
CGA:  11    -0.667891322600E+03    0.12113E-04   -0.86828E-05  8424   0.346E-03 0.360E-03
CGA:  12    -0.667891310664E+03    0.11937E-04   -0.72776E-05  8424   0.326E-03 0.336E-03
CGA:  13    -0.667891299073E+03    0.11590E-04   -0.62473E-05  8424   0.309E-03 0.318E-03
CGA:  14    -0.667891287907E+03    0.11166E-04   -0.54588E-05  8424   0.296E-03 0.303E-03
CGA:  15    -0.667891277196E+03    0.10712E-04   -0.48352E-05  8424   0.285E-03 0.291E-03
CGA:  16    -0.667891266946E+03    0.10250E-04   -0.43292E-05  8424   0.276E-03 0.281E-03
CGA:  17    -0.667891257152E+03    0.97943E-05   -0.39107E-05  8424   0.268E-03 0.272E-03
   6 F= -.66789126E+03 E0= -.66789126E+03  d E =0.102446E-02  mag=     2.0000
       N       E                     dE             d eps       ncg     rms          ort
SDA:   1    -0.667782604882E+03    0.10866E+00    0.00000E+00  8424   0.281E+00 0.000E+00
CGA:   2    -0.667862461998E+03   -0.79857E-01   -0.79554E-01  8424   0.118E+00 0.134E-02
CGA:   3    -0.667884222107E+03   -0.21760E-01   -0.21116E-01  8424   0.280E-01 0.602E-02
CGA:   4    -0.667889324503E+03   -0.51024E-02   -0.48567E-02  8424   0.650E-02 0.276E-02
CGA:   5    -0.667890381186E+03   -0.10567E-02   -0.94330E-03  8424   0.141E-02 0.219E-02
CGA:   6    -0.667890508937E+03   -0.12775E-03   -0.13928E-03  8424   0.773E-03 0.128E-02
CGA:   7    -0.667890528037E+03   -0.19099E-04   -0.39959E-04  8424   0.590E-03 0.674E-03
CGA:   8    -0.667890531780E+03   -0.37438E-05   -0.24881E-04  8424   0.499E-03 0.544E-03
CGA:   9    -0.667890529712E+03    0.20681E-05   -0.18119E-04  8424   0.443E-03 0.471E-03
CGA:  10    -0.667890524892E+03    0.48200E-05   -0.14201E-04  8424   0.404E-03 0.423E-03
CGA:  11    -0.667890518657E+03    0.62356E-05   -0.11628E-04  8424   0.374E-03 0.389E-03
   7 F= -.66789052E+03 E0= -.66789052E+03  d E =0.738495E-03  mag=     2.0000
       N       E                     dE             d eps       ncg     rms          ort
SDA:   1    -0.667564216814E+03    0.32631E+00    0.00000E+00  8424   0.102E+01 0.000E+00
CGA:   2    -0.667783788146E+03   -0.21957E+00   -0.21933E+00  8424   0.451E+00 0.153E-02
CGA:   3    -0.667878019307E+03   -0.94231E-01   -0.93722E-01  8424   0.131E+00 0.383E-02
CGA:   4    -0.667899280076E+03   -0.21261E-01   -0.21095E-01  8424   0.299E-01 0.217E-02
CGA:   5    -0.667904553322E+03   -0.52732E-02   -0.50864E-02  8424   0.577E-02 0.233E-02
CGA:   6    -0.667905554091E+03   -0.10008E-02   -0.89420E-03  8424   0.148E-02 0.205E-02
CGA:   7    -0.667905743678E+03   -0.18959E-03   -0.18930E-03  8424   0.730E-03 0.120E-02
CGA:   8    -0.667905781461E+03   -0.37784E-04   -0.51892E-04  8424   0.525E-03 0.607E-03
CGA:   9    -0.667905791803E+03   -0.10342E-04   -0.28721E-04  8424   0.441E-03 0.477E-03
CGA:  10    -0.667905793567E+03   -0.17639E-05   -0.20347E-04  8424   0.390E-03 0.412E-03
CGA:  11    -0.667905791341E+03    0.22256E-05   -0.15734E-04  8424   0.354E-03 0.369E-03
CGA:  12    -0.667905786999E+03    0.43429E-05   -0.12765E-04  8424   0.328E-03 0.338E-03
CGA:  13    -0.667905781471E+03    0.55275E-05   -0.10681E-04  8424   0.307E-03 0.315E-03
   8 F= -.66790578E+03 E0= -.66790578E+03  d E =-.152628E-01  mag=     2.0000
       N       E                     dE             d eps       ncg     rms          ort
SDA:   1    -0.663166556648E+03    0.47392E+01    0.00000E+00  8424   0.147E+02 0.000E+00
CGA:   2    -0.666050668554E+03   -0.28841E+01   -0.28737E+01  8424   0.595E+01 0.938E-01
CGA:   3    -0.667367563081E+03   -0.13169E+01   -0.13178E+01  8424   0.206E+01-0.101E-01
CGA:   4    -0.667705471456E+03   -0.33791E+00   -0.33783E+00  8424   0.458E+00 0.588E-03
CGA:   5    -0.667783946903E+03   -0.78475E-01   -0.78218E-01  8424   0.926E-01 0.331E-02
CGA:   6    -0.667802782702E+03   -0.18836E-01   -0.18789E-01  8424   0.216E-01 0.433E-03
CGA:   7    -0.667807490286E+03   -0.47076E-02   -0.45211E-02  8424   0.552E-02 0.179E-02
CGA:   8    -0.667808800035E+03   -0.13097E-02   -0.11772E-02  8424   0.151E-02 0.151E-02
CGA:   9    -0.667809173559E+03   -0.37352E-03   -0.32734E-03  8424   0.590E-03 0.807E-03
CGA:  10    -0.667809244413E+03   -0.70854E-04   -0.69948E-04  8424   0.370E-03 0.440E-03
CGA:  11    -0.667809267916E+03   -0.23503E-04   -0.32851E-04  8424   0.311E-03 0.336E-03
CGA:  12    -0.667809280288E+03   -0.12373E-04   -0.23722E-04  8424   0.277E-03 0.292E-03
CGA:  13    -0.667809287124E+03   -0.68358E-05   -0.18775E-04  8424   0.253E-03 0.263E-03
CGA:  14    -0.667809290691E+03   -0.35668E-05   -0.15562E-04  8424   0.235E-03 0.242E-03
CGA:  15    -0.667809292147E+03   -0.14563E-05   -0.13265E-04  8424   0.221E-03 0.227E-03
CGA:  16    -0.667809292162E+03   -0.14636E-07   -0.11516E-04  8424   0.209E-03 0.214E-03
CGA:  17    -0.667809291160E+03    0.10019E-05   -0.10131E-04  8424   0.199E-03 0.203E-03
   9 F= -.66780929E+03 E0= -.66780929E+03  d E =0.964903E-01  mag=     2.0000
       N       E                     dE             d eps       ncg     rms          ort
SDA:   1    -0.665216517558E+03    0.25928E+01    0.00000E+00  8424   0.852E+01 0.000E+00
CGA:   2    -0.666942789320E+03   -0.17263E+01   -0.17239E+01  8424   0.352E+01 0.215E-01
CGA:   3    -0.667689327746E+03   -0.74654E+00   -0.74661E+00  8424   0.114E+01-0.174E-02
CGA:   4    -0.667876914521E+03   -0.18759E+00   -0.18746E+00  8424   0.267E+00 0.199E-02
CGA:   5    -0.667924026116E+03   -0.47112E-01   -0.46983E-01  8424   0.553E-01 0.194E-02
CGA:   6    -0.667935050608E+03   -0.11024E-01   -0.10965E-01  8424   0.126E-01 0.707E-03
CGA:   7    -0.667937762820E+03   -0.27122E-02   -0.26124E-02  8424   0.328E-02 0.115E-02
CGA:   8    -0.667938546537E+03   -0.78372E-03   -0.71246E-03  8424   0.933E-03 0.935E-03
CGA:   9    -0.667938726768E+03   -0.18023E-03   -0.17047E-03  8424   0.406E-03 0.626E-03
CGA:  10    -0.667938760093E+03   -0.33326E-04   -0.41458E-04  8424   0.273E-03 0.321E-03
CGA:  11    -0.667938770403E+03   -0.10309E-04   -0.21792E-04  8424   0.229E-03 0.248E-03
CGA:  12    -0.667938774137E+03   -0.37341E-05   -0.15641E-04  8424   0.203E-03 0.214E-03
CGA:  13    -0.667938774791E+03   -0.65372E-06   -0.12345E-04  8424   0.186E-03 0.193E-03
CGA:  14    -0.667938773731E+03    0.10593E-05   -0.10222E-04  8424   0.173E-03 0.179E-03
  10 F= -.66793877E+03 E0= -.66793877E+03  d E =-.129483E+00  mag=     2.0000
       N       E                     dE             d eps       ncg     rms          ort
SDA:   1    -0.667270141285E+03    0.66863E+00    0.00000E+00  8424   0.206E+01 0.000E+00
CGA:   2    -0.667699201117E+03   -0.42906E+00   -0.42853E+00  8424   0.891E+00 0.520E-02
CGA:   3    -0.667887073642E+03   -0.18787E+00   -0.18776E+00  8424   0.282E+00 0.949E-03
CGA:   4    -0.667933341309E+03   -0.46268E-01   -0.46218E-01  8424   0.637E-01 0.111E-02
CGA:   5    -0.667944429986E+03   -0.11089E-01   -0.11034E-01  8424   0.129E-01 0.109E-02
CGA:   6    -0.667946985890E+03   -0.25559E-02   -0.25037E-02  8424   0.289E-02 0.797E-03
CGA:   7    -0.667947559236E+03   -0.57335E-03   -0.53583E-03  8424   0.791E-03 0.827E-03
CGA:   8    -0.667947672516E+03   -0.11328E-03   -0.12068E-03  8424   0.382E-03 0.589E-03
CGA:   9    -0.667947692361E+03   -0.19845E-04   -0.33291E-04  8424   0.264E-03 0.309E-03
CGA:  10    -0.667947695337E+03   -0.29758E-05   -0.17715E-04  8424   0.222E-03 0.240E-03
CGA:  11    -0.667947693840E+03    0.14964E-05   -0.12718E-04  8424   0.198E-03 0.208E-03
CGA:  12    -0.667947690415E+03    0.34252E-05   -0.10039E-04  8424   0.182E-03 0.189E-03
  11 F= -.66794769E+03 E0= -.66794769E+03  d E =-.891668E-02  mag=     2.0000
       N       E                     dE             d eps       ncg     rms          ort
SDA:   1    -0.667811859142E+03    0.13583E+00    0.00000E+00  8424   0.448E+00 0.000E+00
CGA:   2    -0.667909187341E+03   -0.97328E-01   -0.97122E-01  8424   0.196E+00 0.196E-02
CGA:   3    -0.667949103703E+03   -0.39916E-01   -0.39836E-01  8424   0.586E-01 0.926E-03
CGA:   4    -0.667958810354E+03   -0.97067E-02   -0.96798E-02  8424   0.137E-01 0.655E-03
CGA:   5    -0.667961193606E+03   -0.23833E-02   -0.23534E-02  8424   0.273E-02 0.688E-03
CGA:   6    -0.667961706917E+03   -0.51331E-03   -0.48941E-03  8424   0.642E-03 0.557E-03
CGA:   7    -0.667961790466E+03   -0.83549E-04   -0.89729E-04  8424   0.295E-03 0.434E-03
CGA:   8    -0.667961802047E+03   -0.11582E-04   -0.23624E-04  8424   0.209E-03 0.242E-03
CGA:   9    -0.667961803293E+03   -0.12461E-05   -0.13363E-04  8424   0.178E-03 0.191E-03
  12 F= -.66796180E+03 E0= -.66796180E+03  d E =-.141129E-01  mag=     2.0000
       N       E                     dE             d eps       ncg     rms          ort
SDA:   1    -0.666645216272E+03    0.13166E+01    0.00000E+00  8424   0.335E+01 0.000E+00
CGA:   2    -0.667619554266E+03   -0.97434E+00   -0.97430E+00  8424   0.162E+01 0.355E-04
CGA:   3    -0.667905816221E+03   -0.28626E+00   -0.28621E+00  8424   0.383E+00 0.847E-03
CGA:   4    -0.667969122540E+03   -0.63306E-01   -0.63302E-01  8424   0.899E-01 0.519E-04
CGA:   5    -0.667984726384E+03   -0.15604E-01   -0.15576E-01  8424   0.186E-01 0.670E-03
CGA:   6    -0.667988422575E+03   -0.36962E-02   -0.36387E-02  8424   0.440E-02 0.974E-03
CGA:   7    -0.667989403008E+03   -0.98043E-03   -0.93160E-03  8424   0.127E-02 0.772E-03
CGA:   8    -0.667989670021E+03   -0.26701E-03   -0.24988E-03  8424   0.519E-03 0.654E-03
CGA:   9    -0.667989729990E+03   -0.59970E-04   -0.65775E-04  8424   0.307E-03 0.366E-03
CGA:  10    -0.667989746882E+03   -0.16892E-04   -0.29495E-04  8424   0.255E-03 0.276E-03
CGA:  11    -0.667989753701E+03   -0.68191E-05   -0.20700E-04  8424   0.226E-03 0.238E-03
CGA:  12    -0.667989755997E+03   -0.22962E-05   -0.16214E-04  8424   0.206E-03 0.215E-03
CGA:  13    -0.667989755796E+03    0.20177E-06   -0.13378E-04  8424   0.192E-03 0.198E-03
CGA:  14    -0.667989754082E+03    0.17132E-05   -0.11389E-04  8424   0.181E-03 0.185E-03
  13 F= -.66798975E+03 E0= -.66798975E+03  d E =-.279508E-01  mag=     2.0000
       N       E                     dE             d eps       ncg     rms          ort
SDA:   1    -0.666966624661E+03    0.10231E+01    0.00000E+00  8424   0.323E+01 0.000E+00
CGA:   2    -0.667604693827E+03   -0.63807E+00   -0.63720E+00  8424   0.126E+01 0.108E-01
CGA:   3    -0.667875624968E+03   -0.27093E+00   -0.27092E+00  8424   0.440E+00-0.204E-03
CGA:   4    -0.667948735748E+03   -0.73111E-01   -0.73079E-01  8424   0.105E+00 0.800E-03
CGA:   5    -0.667967027096E+03   -0.18291E-01   -0.18258E-01  8424   0.208E-01 0.798E-03
CGA:   6    -0.667971219455E+03   -0.41924E-02   -0.41888E-02  8424   0.493E-02 0.503E-04
CGA:   7    -0.667972252115E+03   -0.10327E-02   -0.99348E-03  8424   0.130E-02 0.619E-03
CGA:   8    -0.667972538835E+03   -0.28672E-03   -0.26582E-03  8424   0.433E-03 0.519E-03
CGA:   9    -0.667972617779E+03   -0.78944E-04   -0.81701E-04  8424   0.231E-03 0.344E-03
CGA:  10    -0.667972636929E+03   -0.19150E-04   -0.25389E-04  8424   0.170E-03 0.191E-03
CGA:  11    -0.667972644135E+03   -0.72051E-05   -0.15349E-04  8424   0.152E-03 0.159E-03
CGA:  12    -0.667972648058E+03   -0.39231E-05   -0.12291E-04  8424   0.141E-03 0.145E-03
CGA:  13    -0.667972650309E+03   -0.22517E-05   -0.10543E-04  8424   0.133E-03 0.136E-03
  14 F= -.66797265E+03 E0= -.66797265E+03  d E =0.171038E-01  mag=     2.0000
       N       E                     dE             d eps       ncg     rms          ort
SDA:   1    -0.667501499633E+03    0.47115E+00    0.00000E+00  8424   0.140E+01 0.000E+00
CGA:   2    -0.667818981189E+03   -0.31748E+00   -0.31739E+00  8424   0.619E+00 0.764E-03
CGA:   3    -0.667941458492E+03   -0.12248E+00   -0.12245E+00  8424   0.175E+00 0.387E-03
CGA:   4    -0.667970781136E+03   -0.29323E-01   -0.29292E-01  8424   0.424E-01 0.100E-02
CGA:   5    -0.667978258835E+03   -0.74777E-02   -0.74585E-02  8424   0.853E-02 0.526E-03
CGA:   6    -0.667979999518E+03   -0.17407E-02   -0.17347E-02  8424   0.207E-02 0.977E-04
CGA:   7    -0.667980456557E+03   -0.45704E-03   -0.43858E-03  8424   0.623E-03 0.279E-03
CGA:   8    -0.667980594440E+03   -0.13788E-03   -0.12789E-03  8424   0.250E-03 0.294E-03
CGA:   9    -0.667980643609E+03   -0.49169E-04   -0.51291E-04  8424   0.152E-03 0.220E-03
CGA:  10    -0.667980664383E+03   -0.20774E-04   -0.21548E-04  8424   0.112E-03 0.122E-03
CGA:  11    -0.667980675402E+03   -0.11019E-04   -0.13751E-04  8424   0.102E-03 0.106E-03
CGA:  12    -0.667980684521E+03   -0.91191E-05   -0.12020E-04  8424   0.963E-04 0.989E-04
CGA:  13    -0.667980692436E+03   -0.79156E-05   -0.10920E-04  8424   0.922E-04 0.939E-04
CGA:  14    -0.667980699649E+03   -0.72128E-05   -0.10202E-04  8424   0.890E-04 0.904E-04
  15 F= -.66798070E+03 E0= -.66798070E+03  d E =-.804934E-02  mag=     2.0000
       N       E                     dE             d eps       ncg     rms          ort
SDA:   1    -0.666915013093E+03    0.10657E+01    0.00000E+00  8424   0.320E+01 0.000E+00
CGA:   2    -0.667567465584E+03   -0.65245E+00   -0.65186E+00  8424   0.133E+01 0.795E-02
CGA:   3    -0.667846635064E+03   -0.27917E+00   -0.27936E+00  8424   0.441E+00-0.303E-02
CGA:   4    -0.667919643113E+03   -0.73008E-01   -0.72997E-01  8424   0.102E+00 0.441E-03
CGA:   5    -0.667937394067E+03   -0.17751E-01   -0.17736E-01  8424   0.204E-01 0.581E-03
CGA:   6    -0.667941550022E+03   -0.41560E-02   -0.41761E-02  8424   0.509E-02-0.370E-03
CGA:   7    -0.667942679370E+03   -0.11293E-02   -0.11296E-02  8424   0.151E-02-0.588E-05
CGA:   8    -0.667943092213E+03   -0.41284E-03   -0.41871E-03  8424   0.561E-03-0.498E-04
CGA:   9    -0.667943208247E+03   -0.11603E-03   -0.31105E-03  8424   0.127E-02-0.478E-03
CGA:  10    -0.667943445945E+03   -0.23770E-03   -0.23764E-03  8424   0.238E-03 0.135E-04
CGA:  11    -0.667943543855E+03   -0.97909E-04    0.19028E-03  8424   0.108E-03 0.127E-03
CGA:  12    -0.667943595115E+03   -0.51260E-04    0.32461E-04  8424   0.817E-04 0.840E-04
CGA:  13    -0.667943642078E+03   -0.46963E-04    0.12916E-04  8424   0.774E-04 0.789E-04
CGA:  14    -0.667943688059E+03   -0.45981E-04    0.11234E-04  8424   0.753E-04 0.761E-04
CGA:  15    -0.667943733999E+03   -0.45939E-04    0.10218E-04  8424   0.741E-04 0.746E-04
CGA:  16    -0.667943779855E+03   -0.45856E-04    0.96981E-05  8424   0.733E-04 0.736E-04
CGA:  17    -0.667943826020E+03   -0.46166E-04    0.92043E-05  8424   0.728E-04 0.730E-04
CGA:  18    -0.667943872350E+03   -0.46329E-04    0.89081E-05  8424   0.724E-04 0.726E-04
CGA:  19    -0.667943919130E+03   -0.46780E-04    0.85600E-05  8424   0.721E-04 0.722E-04
CGA:  20    -0.667943966133E+03   -0.47002E-04    0.83610E-05  8424   0.719E-04 0.720E-04
CGA:  21    -0.667944013731E+03   -0.47598E-04    0.80493E-05  8424   0.717E-04 0.718E-04
CGA:  22    -0.667944061425E+03   -0.47693E-04    0.79556E-05  8424   0.716E-04 0.716E-04
CGA:  23    -0.667944110094E+03   -0.48670E-04    0.75755E-05  8424   0.717E-04 0.714E-04
CGA:  24    -0.667944158078E+03   -0.47984E-04    0.78300E-05  8424   0.723E-04 0.709E-04
CGA:  25    -0.667944208394E+03   -0.50316E-04    0.72738E-05  8424   0.752E-04 0.693E-04
CGA:  26    -0.667944254920E+03   -0.46526E-04    0.98425E-05  8424   0.850E-04 0.637E-04
CGA:  27    -0.667944306920E+03   -0.52001E-04    0.11439E-04  8424   0.113E-03 0.464E-04
CGA:  28    -0.667943827656E+03    0.47926E-03   -0.25812E-03  8424   0.109E-01-0.622E-03
CGA:  29    -0.667944657258E+03   -0.82960E-03   -0.79338E-03  8424   0.782E-04-0.133E-03
CGA:  30    -0.667944758692E+03   -0.10143E-03    0.11712E-04  8424   0.107E-03 0.582E-04
CGA:  31    -0.667944794721E+03   -0.36030E-04   -0.44548E-04  8424   0.759E-03-0.889E-04
CGA:  32    -0.667944913659E+03   -0.11894E-03   -0.80620E-04  8424   0.161E-03-0.176E-03
CGA:  33    -0.667945020256E+03   -0.10660E-03    0.52295E-04  8424   0.121E-03 0.550E-04
CGA:  34    -0.667945206005E+03   -0.18575E-03    0.31117E-04  8424   0.118E-03 0.107E-03
CGA:  35    -0.667945291394E+03   -0.85388E-04    0.12269E-03  8424   0.383E-03-0.524E-04
CGA:  36    -0.667945639052E+03   -0.34766E-03    0.20943E-04  8424   0.122E-02 0.102E-03
CGA:  37    -0.667947123275E+03   -0.14842E-02    0.45151E-03  8424   0.156E-02 0.333E-03
CGA:  38    -0.667949530864E+03   -0.24076E-02    0.33233E-03  8424   0.373E-03 0.983E-03
CGA:  39    -0.667949648901E+03   -0.11804E-03   -0.12613E-03  8424   0.597E-03-0.333E-03
CGA:  40    -0.667949802303E+03   -0.15340E-03   -0.13032E-03  8424   0.305E-03-0.241E-03
CGA:  41    -0.667949990647E+03   -0.18834E-03    0.42127E-04  8424   0.325E-03-0.277E-04
CGA:  42    -0.667950393056E+03   -0.40241E-03    0.38396E-04  8424   0.121E-03 0.132E-03
CGA:  43    -0.667950662777E+03   -0.26972E-03    0.16787E-04  8424   0.193E-03 0.514E-04
CGA:  44    -0.667951242629E+03   -0.57985E-03    0.17744E-04  8424   0.192E-03 0.218E-03
CGA:  45    -0.667951393108E+03   -0.15048E-03    0.11164E-03  8424   0.206E-03-0.673E-04
CGA:  46    -0.667951676842E+03   -0.28373E-03    0.85339E-05  8424   0.216E-03 0.809E-04
CGA:  47    -0.667952141304E+03   -0.46446E-03    0.31168E-04  8424   0.190E-03 0.116E-03
CGA:  48    -0.667952287807E+03   -0.14650E-03    0.11941E-03  8424   0.266E-03-0.984E-04
CGA:  49    -0.667952349527E+03   -0.61719E-04   -0.11650E-03  8424   0.123E-02-0.431E-03
CGA:  50    -0.667952580519E+03   -0.23099E-03   -0.19515E-03  8424   0.136E-03-0.228E-03
CGA:  51    -0.667952743953E+03   -0.16343E-03    0.12254E-04  8424   0.827E-04 0.382E-04
CGA:  52    -0.667952988355E+03   -0.24440E-03    0.59642E-05  8424   0.615E-04 0.946E-04
CGA:  53    -0.667953133563E+03   -0.14521E-03    0.33578E-05  8424   0.662E-04 0.500E-04
CGA:  54    -0.667953276214E+03   -0.14265E-03    0.40898E-05  8424   0.772E-04 0.421E-04
CGA:  55    -0.667953415381E+03   -0.13917E-03    0.62018E-05  8424   0.104E-03 0.243E-04
CGA:  56    -0.667953762927E+03   -0.34755E-03    0.67557E-05  8424   0.809E-04 0.133E-03
CGA:  57    -0.667953899248E+03   -0.13632E-03    0.72013E-05  8424   0.105E-03 0.188E-04
CGA:  58    -0.667954230930E+03   -0.33168E-03    0.63551E-05  8424   0.894E-04 0.127E-03
CGA:  59    -0.667954384730E+03   -0.15380E-03    0.77119E-05  8424   0.112E-03 0.816E-05
CGA:  60    -0.667954713855E+03   -0.32913E-03    0.55764E-05  8424   0.105E-03 0.119E-03
CGA:  61    -0.667954836149E+03   -0.12229E-03    0.18436E-04  8424   0.121E-03-0.734E-05
CGA:  62    -0.667955142454E+03   -0.30630E-03    0.50594E-05  8424   0.121E-03 0.107E-03
CGA:  63    -0.667955311884E+03   -0.16943E-03    0.14820E-04  8424   0.120E-03-0.178E-04
CGA:  64    -0.667955597552E+03   -0.28567E-03    0.45297E-05  8424   0.118E-03 0.964E-04
CGA:  65    -0.667955718224E+03   -0.12067E-03    0.27856E-04  8424   0.979E-04-0.596E-05
CGA:  66    -0.667955981680E+03   -0.26346E-03    0.39889E-05  8424   0.938E-04 0.867E-04
CGA:  67    -0.667956147945E+03   -0.16626E-03    0.77147E-05  8424   0.696E-04 0.191E-04
CGA:  68    -0.667956391428E+03   -0.24348E-03    0.34903E-05  8424   0.740E-04 0.796E-04
CGA:  69    -0.667956523738E+03   -0.13231E-03    0.60180E-05  8424   0.555E-04 0.336E-04
CGA:  70    -0.667956769387E+03   -0.24565E-03    0.31683E-05  8424   0.646E-04 0.769E-04
CGA:  71    -0.667956921451E+03   -0.15206E-03    0.35410E-05  8424   0.504E-04 0.381E-04
CGA:  72    -0.667957054523E+03   -0.13307E-03    0.23659E-05  8424   0.474E-04 0.434E-04
CGA:  73    -0.667957200070E+03   -0.14555E-03    0.18363E-05  8424   0.464E-04 0.443E-04
CGA:  74    -0.667957335262E+03   -0.13519E-03    0.19187E-05  8424   0.458E-04 0.444E-04
CGA:  75    -0.667957478658E+03   -0.14340E-03    0.17334E-05  8424   0.454E-04 0.441E-04
CGA:  76    -0.667957614589E+03   -0.13593E-03    0.18177E-05  8424   0.451E-04 0.437E-04
CGA:  77    -0.667957757125E+03   -0.14254E-03    0.16907E-05  8424   0.450E-04 0.432E-04
CGA:  78    -0.667957892552E+03   -0.13543E-03    0.17940E-05  8424   0.453E-04 0.424E-04
CGA:  79    -0.667958034695E+03   -0.14214E-03    0.17073E-05  8424   0.461E-04 0.411E-04
CGA:  80    -0.667958168773E+03   -0.13408E-03    0.19131E-05  8424   0.481E-04 0.390E-04
CGA:  81    -0.667958309911E+03   -0.14114E-03    0.19789E-05  8424   0.528E-04 0.351E-04
CGA:  82    -0.667958442434E+03   -0.13252E-03    0.26536E-05  8424   0.632E-04 0.273E-04
CGA:  83    -0.667958579147E+03   -0.13671E-03    0.38821E-05  8424   0.865E-04 0.109E-04
CGA:  84    -0.667958908823E+03   -0.32968E-03    0.36738E-05  8424   0.729E-04 0.992E-04
CGA:  85    -0.667959032361E+03   -0.12354E-03    0.64270E-05  8424   0.105E-03-0.522E-05
CGA:  86    -0.667959357077E+03   -0.32472E-03    0.33941E-05  8424   0.108E-03 0.946E-04
CGA:  87    -0.667959499891E+03   -0.14281E-03    0.14504E-04  8424   0.167E-03-0.550E-04
CGA:  88    -0.667956795727E+03    0.27042E-02   -0.14761E-02  8424   0.269E-01-0.182E-02
CGA:  89    -0.667960399737E+03   -0.36040E-02   -0.35096E-02  8424   0.102E-03-0.203E-03
CGA:  90    -0.667960648714E+03   -0.24898E-03    0.21512E-04  8424   0.663E-03-0.165E-03
CGA:  91    -0.667960714126E+03   -0.65412E-04   -0.84591E-04  8424   0.370E-04 0.466E-04
CGA:  92    -0.667960910952E+03   -0.19683E-03    0.27318E-05  8424   0.880E-04 0.193E-04
CGA:  93    -0.667961158226E+03   -0.24727E-03    0.13487E-04  8424   0.417E-03-0.111E-03
CGA:  94    -0.667961212772E+03   -0.54545E-04   -0.61715E-04  8424   0.345E-04 0.193E-04
CGA:  95    -0.667961420673E+03   -0.20790E-03    0.19158E-05  8424   0.496E-04 0.305E-04
CGA:  96    -0.667961655209E+03   -0.23454E-03    0.33496E-05  8424   0.127E-03-0.860E-05
CGA:  97    -0.667962370999E+03   -0.71579E-03    0.45245E-05  8424   0.192E-03 0.929E-04
CGA:  98    -0.667962422026E+03   -0.51028E-04   -0.42464E-04  8424   0.572E-04-0.308E-04
CGA:  99    -0.667962684167E+03   -0.26214E-03    0.25455E-05  8424   0.392E-04 0.305E-04
CGA: 100    -0.667962874829E+03   -0.19066E-03    0.24024E-05  8424   0.382E-04 0.178E-04
CGA: 101    -0.667963233547E+03   -0.35872E-03    0.24073E-05  8424   0.384E-04 0.514E-04
CGA: 102    -0.667963423980E+03   -0.19043E-03    0.22969E-05  8424   0.348E-04 0.173E-04
CGA: 103    -0.667963754542E+03   -0.33056E-03    0.21541E-05  8424   0.399E-04 0.435E-04
CGA: 104    -0.667963944777E+03   -0.19024E-03    0.25091E-05  8424   0.448E-04 0.114E-04
CGA: 105    -0.667964295297E+03   -0.35052E-03    0.26769E-05  8424   0.585E-04 0.331E-04
CGA: 106    -0.667964484271E+03   -0.18897E-03    0.61646E-05  8424   0.112E-03-0.188E-04
CGA: 107    -0.667964928067E+03   -0.44380E-03    0.37253E-05  8424   0.168E-03-0.231E-04
CGA: 108    -0.667965805992E+03   -0.87793E-03    0.56654E-05  8424   0.302E-03 0.689E-04
CGA: 109    -0.667967674315E+03   -0.18683E-02    0.29639E-04  8424   0.273E-03 0.175E-04
CGA: 110    -0.667969381914E+03   -0.17076E-02    0.13920E-04  8424   0.488E-03-0.633E-04
CGA: 111    -0.667972762831E+03   -0.33809E-02    0.11081E-04  8424   0.251E-03 0.105E-03
CGA: 112    -0.667974558133E+03   -0.17953E-02    0.14746E-04  8424   0.525E-03-0.172E-03
CGA: 113    -0.667974634146E+03   -0.76013E-04   -0.72144E-04  8424   0.218E-04-0.104E-04
CGA: 114    -0.667974681393E+03   -0.47246E-04    0.36964E-05  8424   0.240E-04-0.140E-04
CGA: 115    -0.667974688733E+03   -0.73398E-05   -0.57855E-05  8424   0.906E-05-0.679E-05
  16 F= -.66797469E+03 E0= -.66797469E+03  d E =0.601092E-02  mag=     2.0000
       N       E                     dE             d eps       ncg     rms          ort
SDA:   1    -0.667612537406E+03    0.36214E+00    0.00000E+00  8424   0.117E+01 0.000E+00
CGA:   2    -0.667846999391E+03   -0.23446E+00   -0.23461E+00  8424   0.466E+00 0.187E-03
CGA:   3    -0.667945015678E+03   -0.98016E-01   -0.98038E-01  8424   0.156E+00 0.435E-04
CGA:   4    -0.667971147225E+03   -0.26132E-01   -0.26150E-01  8424   0.377E-01 0.301E-04
CGA:   5    -0.667977788090E+03   -0.66409E-02   -0.66384E-02  8424   0.749E-02-0.180E-04
CGA:   6    -0.667979324895E+03   -0.15368E-02   -0.15039E-02  8424   0.182E-02-0.160E-03
CGA:   7    -0.667979753636E+03   -0.42874E-03   -0.41634E-03  8424   0.554E-03-0.759E-04
CGA:   8    -0.667979902924E+03   -0.14929E-03   -0.14342E-03  8424   0.186E-03-0.492E-04
CGA:   9    -0.667979941238E+03   -0.38314E-04   -0.11394E-03  8424   0.696E-03-0.262E-03
CGA:  10    -0.667980053056E+03   -0.11182E-03   -0.11581E-03  8424   0.781E-04 0.170E-04
CGA:  11    -0.667980134635E+03   -0.81578E-04    0.48605E-04  8424   0.489E-04-0.259E-04
CGA:  12    -0.667980182320E+03   -0.47685E-04    0.71575E-05  8424   0.405E-04-0.536E-05
CGA:  13    -0.667980298168E+03   -0.11585E-03    0.22153E-05  8424   0.358E-04 0.761E-06
CGA:  14    -0.667980407695E+03   -0.10953E-03    0.24537E-05  8424   0.329E-04 0.443E-05
CGA:  15    -0.667980563760E+03   -0.15606E-03    0.15990E-05  8424   0.239E-04 0.145E-04
CGA:  16    -0.667980721858E+03   -0.15810E-03    0.13462E-05  8424   0.183E-04 0.112E-04
CGA:  17    -0.667980864023E+03   -0.14216E-03    0.89806E-06  8424   0.160E-04 0.134E-04
CGA:  18    -0.667980914315E+03   -0.50292E-04    0.10068E-05  8424   0.211E-04-0.389E-05
CGA:  19    -0.667980977754E+03   -0.63439E-04    0.74372E-06  8424   0.251E-04-0.620E-05
CGA:  20    -0.667981102061E+03   -0.12431E-03    0.42318E-06  8424   0.242E-04 0.905E-05
CGA:  21    -0.667981288448E+03   -0.18639E-03    0.10107E-05  8424   0.381E-04 0.407E-06
CGA:  22    -0.667981559303E+03   -0.27085E-03    0.93325E-06  8424   0.395E-04 0.181E-05
CGA:  23    -0.667981850788E+03   -0.29149E-03    0.99012E-06  8424   0.555E-04 0.447E-05
CGA:  24    -0.667982352745E+03   -0.50196E-03    0.12569E-05  8424   0.716E-04-0.161E-04
CGA:  25    -0.667982999513E+03   -0.64677E-03    0.63612E-06  8424   0.842E-04-0.295E-06
CGA:  26    -0.667983739942E+03   -0.74043E-03    0.15592E-05  8424   0.954E-04-0.394E-04
CGA:  27    -0.667984673323E+03   -0.93338E-03    0.43136E-06  8424   0.128E-03-0.102E-03
CGA:  28    -0.667984676562E+03   -0.32392E-05   -0.16629E-04  8424   0.363E-04 0.520E-04
  17 F= -.66798468E+03 E0= -.66798468E+03  d E =-.998783E-02  mag=     2.0000
       N       E                     dE             d eps       ncg     rms          ort
SDA:   1    -0.667578891358E+03    0.40578E+00    0.00000E+00  8424   0.118E+01 0.000E+00
CGA:   2    -0.667829414880E+03   -0.25052E+00   -0.25071E+00  8424   0.518E+00 0.594E-03
CGA:   3    -0.667936424120E+03   -0.10701E+00   -0.10701E+00  8424   0.162E+00 0.372E-04
CGA:   4    -0.667963036327E+03   -0.26612E-01   -0.26643E-01  8424   0.372E-01 0.148E-03
CGA:   5    -0.667969508829E+03   -0.64725E-02   -0.64817E-02  8424   0.738E-02 0.463E-04
CGA:   6    -0.667971050031E+03   -0.15412E-02   -0.15214E-02  8424   0.188E-02-0.160E-03
CGA:   7    -0.667971459407E+03   -0.40938E-03   -0.40787E-03  8424   0.517E-03-0.150E-04
CGA:   8    -0.667971597256E+03   -0.13785E-03   -0.13684E-03  8424   0.166E-03-0.194E-04
CGA:   9    -0.667971651759E+03   -0.54503E-04   -0.81618E-04  8424   0.282E-03-0.141E-03
CGA:  10    -0.667971700737E+03   -0.48978E-04   -0.49692E-04  8424   0.374E-04 0.467E-05
CGA:  11    -0.667971742676E+03   -0.41939E-04    0.83364E-05  8424   0.146E-04-0.152E-05
CGA:  12    -0.667971766020E+03   -0.23343E-04    0.13741E-05  8424   0.898E-05 0.453E-05
CGA:  13    -0.667971806363E+03   -0.40344E-04    0.42922E-06  8424   0.707E-05 0.656E-05
CGA:  14    -0.667971825455E+03   -0.19091E-04    0.34889E-06  8424   0.499E-05 0.322E-05
CGA:  15    -0.667971858384E+03   -0.32930E-04    0.18960E-06  8424   0.486E-05 0.584E-05
CGA:  16    -0.667971876924E+03   -0.18540E-04    0.15551E-06  8424   0.399E-05 0.319E-05
CGA:  17    -0.667971896006E+03   -0.19082E-04    0.98110E-07  8424   0.432E-05 0.301E-05
CGA:  18    -0.667971913757E+03   -0.17751E-04    0.12647E-06  8424   0.613E-05 0.195E-05
CGA:  19    -0.667971957994E+03   -0.44237E-04    0.20870E-06  8424   0.367E-05 0.812E-05
CGA:  20    -0.667971978182E+03   -0.20188E-04    0.76716E-07  8424   0.419E-05 0.253E-05
CGA:  21    -0.667971992078E+03   -0.13897E-04    0.15909E-06  8424   0.639E-05 0.127E-05
CGA:  22    -0.667972037760E+03   -0.45682E-04    0.17458E-06  8424   0.414E-05 0.785E-05
CGA:  23    -0.667972060078E+03   -0.22318E-04    0.88713E-07  8424   0.615E-05 0.104E-05
CGA:  24    -0.667972102692E+03   -0.42614E-04    0.15916E-06  8424   0.441E-05 0.711E-05
CGA:  25    -0.667972113803E+03   -0.11111E-04    0.23766E-06  8424   0.578E-05 0.778E-06
CGA:  26    -0.667972154882E+03   -0.41078E-04    0.12791E-06  8424   0.489E-05 0.575E-05
CGA:  27    -0.667972176454E+03   -0.21572E-04    0.13197E-06  8424   0.409E-05 0.114E-05
CGA:  28    -0.667972204289E+03   -0.27835E-04    0.10498E-06  8424   0.434E-05 0.412E-05
CGA:  29    -0.667972221359E+03   -0.17069E-04    0.13360E-06  8424   0.296E-05 0.184E-05
CGA:  30    -0.667972248076E+03   -0.26717E-04    0.75477E-07  8424   0.350E-05 0.386E-05
CGA:  31    -0.667972265365E+03   -0.17289E-04    0.82818E-07  8424   0.261E-05 0.221E-05
CGA:  32    -0.667972280786E+03   -0.15421E-04    0.50277E-07  8424   0.252E-05 0.240E-05
CGA:  33    -0.667972297638E+03   -0.16851E-04    0.42356E-07  8424   0.253E-05 0.238E-05
CGA:  34    -0.667972312559E+03   -0.14922E-04    0.49102E-07  8424   0.265E-05 0.227E-05
CGA:  35    -0.667972330063E+03   -0.17503E-04    0.44975E-07  8424   0.300E-05 0.202E-05
CGA:  36    -0.667972343183E+03   -0.13120E-04    0.81741E-07  8424   0.407E-05 0.136E-05
CGA:  37    -0.667972381381E+03   -0.38198E-04    0.10309E-06  8424   0.271E-05 0.567E-05
CGA:  38    -0.667972399214E+03   -0.17833E-04    0.46501E-07  8424   0.345E-05 0.161E-05
CGA:  39    -0.667972410466E+03   -0.11252E-04    0.13351E-06  8424   0.574E-05 0.266E-06
CGA:  40    -0.667972452086E+03   -0.41620E-04    0.10321E-06  8424   0.497E-05 0.608E-05
CGA:  41    -0.667972472955E+03   -0.20870E-04    0.14156E-06  8424   0.104E-04-0.254E-05
CGA:  42    -0.667972476066E+03   -0.31102E-05   -0.26107E-05  8424   0.133E-04-0.738E-05
  18 F= -.66797248E+03 E0= -.66797248E+03  d E =0.122005E-01  mag=     2.0000
       N       E                     dE             d eps       ncg     rms          ort
SDA:   1    -0.665842292010E+03    0.21302E+01    0.00000E+00  8424   0.597E+01 0.000E+00
CGA:   2    -0.667189525915E+03   -0.13472E+01   -0.13479E+01  8424   0.279E+01 0.292E-02
CGA:   3    -0.667747646379E+03   -0.55812E+00   -0.55808E+00  8424   0.802E+00 0.126E-03
CGA:   4    -0.667879297255E+03   -0.13165E+00   -0.13168E+00  8424   0.184E+00 0.643E-04
CGA:   5    -0.667911281224E+03   -0.31984E-01   -0.32018E-01  8424   0.374E-01 0.219E-03
CGA:   6    -0.667918814924E+03   -0.75337E-02   -0.75321E-02  8424   0.897E-02-0.218E-04
CGA:   7    -0.667920801675E+03   -0.19868E-02   -0.19962E-02  8424   0.253E-02 0.144E-03
CGA:   8    -0.667921449808E+03   -0.64813E-03   -0.65080E-03  8424   0.784E-03 0.854E-04
CGA:   9    -0.667921683059E+03   -0.23325E-03   -0.23328E-03  8424   0.309E-03-0.535E-05
CGA:  10    -0.667921766353E+03   -0.83294E-04   -0.83904E-04  8424   0.120E-03 0.604E-04
CGA:  11    -0.667921812859E+03   -0.46506E-04   -0.45691E-04  8424   0.579E-04 0.226E-04
CGA:  12    -0.667921830515E+03   -0.17655E-04   -0.18238E-04  8424   0.356E-04 0.297E-04
CGA:  13    -0.667921843397E+03   -0.12882E-04   -0.11984E-04  8424   0.222E-04 0.167E-04
CGA:  14    -0.667921856085E+03   -0.12688E-04   -0.11204E-04  8424   0.216E-04 0.253E-04
CGA:  15    -0.667921864163E+03   -0.80778E-05   -0.73046E-05  8424   0.168E-04 0.157E-04
  19 F= -.66792186E+03 E0= -.66792186E+03  d E =0.506119E-01  mag=     2.0000
       N       E                     dE             d eps       ncg     rms          ort
SDA:   1    -0.666306405996E+03    0.16155E+01    0.00000E+00  8424   0.489E+01 0.000E+00
CGA:   2    -0.667338799909E+03   -0.10324E+01   -0.10333E+01  8424   0.211E+01 0.310E-02
CGA:   3    -0.667769407354E+03   -0.43061E+00   -0.43034E+00  8424   0.649E+00-0.159E-02
CGA:   4    -0.667877172860E+03   -0.10777E+00   -0.10780E+00  8424   0.154E+00-0.257E-04
CGA:   5    -0.667903933536E+03   -0.26761E-01   -0.26807E-01  8424   0.308E-01 0.367E-03
CGA:   6    -0.667910152190E+03   -0.62187E-02   -0.62118E-02  8424   0.740E-02-0.946E-04
CGA:   7    -0.667911784943E+03   -0.16328E-02   -0.16398E-02  8424   0.205E-02 0.139E-03
CGA:   8    -0.667912286633E+03   -0.50169E-03   -0.50535E-03  8424   0.589E-03 0.131E-03
CGA:   9    -0.667912450593E+03   -0.16396E-03   -0.16433E-03  8424   0.211E-03 0.601E-04
CGA:  10    -0.667912489498E+03   -0.38906E-04   -0.46107E-04  8424   0.898E-04 0.103E-03
CGA:  11    -0.667912501988E+03   -0.12490E-04   -0.20908E-04  8424   0.492E-04 0.772E-04
CGA:  12    -0.667912505881E+03   -0.38927E-05   -0.77057E-05  8424   0.324E-04 0.370E-04
  20 F= -.66791251E+03 E0= -.66791251E+03  d E =0.935828E-02  mag=     2.0000
       N       E                     dE             d eps       ncg     rms          ort
SDA:   1    -0.665484623967E+03    0.24279E+01    0.00000E+00  8424   0.639E+01 0.000E+00
CGA:   2    -0.667006227342E+03   -0.15216E+01   -0.15217E+01  8424   0.306E+01 0.541E-02
CGA:   3    -0.667596675595E+03   -0.59045E+00   -0.59021E+00  8424   0.826E+00-0.212E-02
CGA:   4    -0.667731038525E+03   -0.13436E+00   -0.13441E+00  8424   0.191E+00 0.171E-03
CGA:   5    -0.667764542097E+03   -0.33504E-01   -0.33545E-01  8424   0.399E-01 0.570E-03
CGA:   6    -0.667772580226E+03   -0.80381E-02   -0.80445E-02  8424   0.961E-02 0.177E-03
CGA:   7    -0.667774748701E+03   -0.21685E-02   -0.21696E-02  8424   0.281E-02 0.116E-03
CGA:   8    -0.667775464617E+03   -0.71592E-03   -0.71284E-03  8424   0.900E-03 0.177E-03
CGA:   9    -0.667775715401E+03   -0.25078E-03   -0.24760E-03  8424   0.335E-03 0.131E-03
CGA:  10    -0.667775795039E+03   -0.79638E-04   -0.82903E-04  8424   0.151E-03 0.165E-03
CGA:  11    -0.667775824199E+03   -0.29160E-04   -0.37941E-04  8424   0.848E-04 0.132E-03
CGA:  12    -0.667775833461E+03   -0.92612E-05   -0.13744E-04  8424   0.568E-04 0.643E-04
  21 F= -.66777583E+03 E0= -.66777583E+03  d E =0.136672E+00  mag=     2.0000
       N       E                     dE             d eps       ncg     rms          ort
SDA:   1    -0.640374263672E+03    0.27402E+02    0.00000E+00  8424   0.929E+02 0.000E+00
CGA:   2    -0.657185114321E+03   -0.16811E+02   -0.16906E+02  8424   0.339E+02 0.740E+00
CGA:   3    -0.664726509135E+03   -0.75414E+01   -0.75414E+01  8424   0.112E+02-0.119E+00
CGA:   4    -0.666597342583E+03   -0.18708E+01   -0.18715E+01  8424   0.272E+01 0.448E-02
CGA:   5    -0.667057969379E+03   -0.46063E+00   -0.46115E+00  8424   0.573E+00 0.522E-02
CGA:   6    -0.667175349434E+03   -0.11738E+00   -0.11736E+00  8424   0.135E+00-0.167E-02
CGA:   7    -0.667205640360E+03   -0.30291E-01   -0.30283E-01  8424   0.396E-01 0.757E-03
CGA:   8    -0.667215604030E+03   -0.99637E-02   -0.99535E-02  8424   0.125E-01 0.289E-03
CGA:   9    -0.667219210132E+03   -0.36061E-02   -0.36908E-02  8424   0.526E-02-0.113E-02
CGA:  10    -0.667220666627E+03   -0.14565E-02   -0.14808E-02  8424   0.237E-02-0.276E-03
CGA:  11    -0.667221412285E+03   -0.74566E-03   -0.10306E-02  8424   0.234E-02-0.123E-02
CGA:  12    -0.667221824013E+03   -0.41173E-03   -0.41667E-03  8424   0.512E-03 0.828E-04
CGA:  13    -0.667222081031E+03   -0.25702E-03    0.17597E-02  8424   0.193E-03 0.135E-03
CGA:  14    -0.667222268529E+03   -0.18750E-03    0.44707E-04  8424   0.140E-03 0.144E-03
CGA:  15    -0.667222363252E+03   -0.94724E-04    0.36277E-04  8424   0.109E-03 0.775E-04
CGA:  16    -0.667222482441E+03   -0.11919E-03    0.96203E-05  8424   0.102E-03 0.654E-04
CGA:  17    -0.667222560230E+03   -0.77788E-04    0.18875E-04  8424   0.996E-04 0.553E-04
CGA:  18    -0.667222673574E+03   -0.11334E-03    0.81446E-05  8424   0.979E-04 0.470E-04
CGA:  19    -0.667222855125E+03   -0.18155E-03    0.99869E-05  8424   0.804E-04 0.134E-03
CGA:  20    -0.667222922721E+03   -0.67596E-04    0.11805E-04  8424   0.840E-04 0.390E-04
CGA:  21    -0.667223100481E+03   -0.17776E-03    0.71490E-05  8424   0.691E-04 0.118E-03
CGA:  22    -0.667223199567E+03   -0.99086E-04    0.39230E-05  8424   0.705E-04 0.360E-04
CGA:  23    -0.667223260853E+03   -0.61287E-04    0.96218E-05  8424   0.740E-04 0.296E-04
CGA:  24    -0.667223426938E+03   -0.16608E-03    0.51797E-05  8424   0.639E-04 0.101E-03
CGA:  25    -0.667223522925E+03   -0.95987E-04    0.33848E-05  8424   0.660E-04 0.272E-04
CGA:  26    -0.667223679226E+03   -0.15630E-03    0.43259E-05  8424   0.583E-04 0.911E-04
CGA:  27    -0.667223735294E+03   -0.56068E-04    0.64763E-05  8424   0.616E-04 0.247E-04
CGA:  28    -0.667223890476E+03   -0.15518E-03    0.36944E-05  8424   0.544E-04 0.852E-04
CGA:  29    -0.667223981269E+03   -0.90793E-04    0.24795E-05  8424   0.567E-04 0.233E-04
CGA:  30    -0.667224128704E+03   -0.14743E-03    0.32857E-05  8424   0.509E-04 0.790E-04
CGA:  31    -0.667224181219E+03   -0.52515E-04    0.49467E-05  8424   0.532E-04 0.219E-04
CGA:  32    -0.667224327232E+03   -0.14601E-03    0.28820E-05  8424   0.481E-04 0.743E-04
CGA:  33    -0.667224413805E+03   -0.86573E-04    0.19778E-05  8424   0.494E-04 0.213E-04
CGA:  34    -0.667224552626E+03   -0.13882E-03    0.26336E-05  8424   0.454E-04 0.695E-04
CGA:  35    -0.667224603381E+03   -0.50755E-04    0.38391E-05  8424   0.458E-04 0.209E-04
CGA:  36    -0.667224740013E+03   -0.13663E-03    0.23268E-05  8424   0.430E-04 0.652E-04
CGA:  37    -0.667224821917E+03   -0.81904E-04    0.16431E-05  8424   0.419E-04 0.210E-04
CGA:  38    -0.667224951126E+03   -0.12921E-03    0.21377E-05  8424   0.407E-04 0.608E-04
CGA:  39    -0.667225002403E+03   -0.51276E-04    0.28124E-05  8424   0.382E-04 0.215E-04
CGA:  40    -0.667225080974E+03   -0.78571E-04    0.13180E-05  8424   0.371E-04 0.221E-04
CGA:  41    -0.667225131123E+03   -0.50149E-04    0.23087E-05  8424   0.367E-04 0.220E-04
CGA:  42    -0.667225208837E+03   -0.77714E-04    0.12191E-05  8424   0.366E-04 0.215E-04
CGA:  43    -0.667225257923E+03   -0.49086E-04    0.23039E-05  8424   0.369E-04 0.206E-04
CGA:  44    -0.667225335377E+03   -0.77454E-04    0.12409E-05  8424   0.375E-04 0.194E-04
CGA:  45    -0.667225382737E+03   -0.47360E-04    0.25924E-05  8424   0.386E-04 0.179E-04
CGA:  46    -0.667225509965E+03   -0.12723E-03    0.17655E-05  8424   0.360E-04 0.561E-04
CGA:  47    -0.667225586471E+03   -0.76505E-04    0.11880E-05  8424   0.371E-04 0.172E-04
CGA:  48    -0.667225711015E+03   -0.12454E-03    0.16745E-05  8424   0.345E-04 0.542E-04
CGA:  49    -0.667225756165E+03   -0.45150E-04    0.22420E-05  8424   0.359E-04 0.166E-04
CGA:  50    -0.667225880299E+03   -0.12413E-03    0.15633E-05  8424   0.330E-04 0.525E-04
CGA:  51    -0.667225954572E+03   -0.74274E-04    0.10181E-05  8424   0.344E-04 0.161E-04
CGA:  52    -0.667226075275E+03   -0.12070E-03    0.14900E-05  8424   0.317E-04 0.506E-04
CGA:  53    -0.667226118766E+03   -0.43491E-04    0.19221E-05  8424   0.331E-04 0.157E-04
CGA:  54    -0.667226239210E+03   -0.12044E-03    0.13813E-05  8424   0.304E-04 0.488E-04
CGA:  55    -0.667226311083E+03   -0.71874E-04    0.87956E-06  8424   0.316E-04 0.154E-04
CGA:  56    -0.667226352172E+03   -0.41089E-04    0.20855E-05  8424   0.333E-04 0.134E-04
CGA:  57    -0.667226470531E+03   -0.11836E-03    0.12825E-05  8424   0.307E-04 0.468E-04
CGA:  58    -0.667226542612E+03   -0.72081E-04    0.89382E-06  8424   0.320E-04 0.129E-04
CGA:  59    -0.667226657061E+03   -0.11445E-03    0.12217E-05  8424   0.297E-04 0.450E-04
CGA:  60    -0.667226696578E+03   -0.39517E-04    0.18868E-05  8424   0.310E-04 0.124E-04
CGA:  61    -0.667226810865E+03   -0.11429E-03    0.11337E-05  8424   0.288E-04 0.434E-04
CGA:  62    -0.667226880983E+03   -0.70118E-04    0.80410E-06  8424   0.297E-04 0.121E-04
CGA:  63    -0.667226991168E+03   -0.11018E-03    0.10800E-05  8424   0.279E-04 0.416E-04
CGA:  64    -0.667227029699E+03   -0.38532E-04    0.16770E-05  8424   0.285E-04 0.118E-04
CGA:  65    -0.667227139199E+03   -0.10950E-03    0.99445E-06  8424   0.270E-04 0.399E-04
CGA:  66    -0.667227206871E+03   -0.67673E-04    0.72707E-06  8424   0.269E-04 0.118E-04
CGA:  67    -0.667227311803E+03   -0.10493E-03    0.94247E-06  8424   0.260E-04 0.380E-04
CGA:  68    -0.667227350463E+03   -0.38659E-04    0.14033E-05  8424   0.252E-04 0.119E-04
CGA:  69    -0.667227453991E+03   -0.10353E-03    0.85934E-06  8424   0.250E-04 0.361E-04
CGA:  70    -0.667227518196E+03   -0.64205E-04    0.65196E-06  8424   0.234E-04 0.123E-04
CGA:  71    -0.667227616885E+03   -0.98689E-04    0.80719E-06  8424   0.239E-04 0.341E-04
CGA:  72    -0.667227657091E+03   -0.40206E-04    0.10759E-05  8424   0.215E-04 0.127E-04
CGA:  73    -0.667227718168E+03   -0.61077E-04    0.49779E-06  8424   0.204E-04 0.140E-04
CGA:  74    -0.667227758940E+03   -0.40772E-04    0.73096E-06  8424   0.198E-04 0.144E-04
CGA:  75    -0.667227818260E+03   -0.59320E-04    0.42828E-06  8424   0.194E-04 0.146E-04
CGA:  76    -0.667227859482E+03   -0.41222E-04    0.64128E-06  8424   0.192E-04 0.145E-04
CGA:  77    -0.667227917811E+03   -0.58328E-04    0.40736E-06  8424   0.190E-04 0.144E-04
CGA:  78    -0.667227958749E+03   -0.40939E-04    0.61991E-06  8424   0.190E-04 0.141E-04
CGA:  79    -0.667228016800E+03   -0.58050E-04    0.40325E-06  8424   0.191E-04 0.137E-04
CGA:  80    -0.667228056793E+03   -0.39993E-04    0.64463E-06  8424   0.193E-04 0.133E-04
CGA:  81    -0.667228115170E+03   -0.58377E-04    0.41492E-06  8424   0.197E-04 0.127E-04
CGA:  82    -0.667228153625E+03   -0.38455E-04    0.72652E-06  8424   0.202E-04 0.119E-04
CGA:  83    -0.667228212884E+03   -0.59259E-04    0.45064E-06  8424   0.210E-04 0.109E-04
CGA:  84    -0.667228249213E+03   -0.36329E-04    0.91296E-06  8424   0.221E-04 0.970E-05
CGA:  85    -0.667228348652E+03   -0.99440E-04    0.67735E-06  8424   0.203E-04 0.319E-04
CGA:  86    -0.667228407983E+03   -0.59331E-04    0.45557E-06  8424   0.214E-04 0.945E-05
CGA:  87    -0.667228505162E+03   -0.97179E-04    0.65254E-06  8424   0.197E-04 0.310E-04
CGA:  88    -0.667228540041E+03   -0.34879E-04    0.82731E-06  8424   0.209E-04 0.915E-05
CGA:  89    -0.667228637360E+03   -0.97318E-04    0.61607E-06  8424   0.191E-04 0.302E-04
CGA:  90    -0.667228695484E+03   -0.58124E-04    0.40464E-06  8424   0.202E-04 0.895E-05
CGA:  91    -0.667228790217E+03   -0.94733E-04    0.59466E-06  8424   0.184E-04 0.293E-04
CGA:  92    -0.667228823871E+03   -0.33654E-04    0.74479E-06  8424   0.196E-04 0.871E-05
CGA:  93    -0.667228918787E+03   -0.94916E-04    0.55870E-06  8424   0.178E-04 0.285E-04
CGA:  94    -0.667228975592E+03   -0.56806E-04    0.36023E-06  8424   0.189E-04 0.855E-05
CGA:  95    -0.667229067731E+03   -0.92139E-04    0.54002E-06  8424   0.173E-04 0.276E-04
CGA:  96    -0.667229100387E+03   -0.32656E-04    0.66397E-06  8424   0.183E-04 0.836E-05
CGA:  97    -0.667229192738E+03   -0.92351E-04    0.50586E-06  8424   0.167E-04 0.268E-04
CGA:  98    -0.667229248097E+03   -0.55358E-04    0.32066E-06  8424   0.176E-04 0.825E-05
CGA:  99    -0.667229337547E+03   -0.89450E-04    0.48932E-06  8424   0.161E-04 0.259E-04
CGA: 100    -0.667229369446E+03   -0.31900E-04    0.58357E-06  8424   0.169E-04 0.812E-05
CGA: 101    -0.667229425133E+03   -0.55686E-04    0.32886E-06  8424   0.180E-04 0.692E-05
CGA: 102    -0.667229513678E+03   -0.88545E-04    0.46185E-06  8424   0.166E-04 0.251E-04
CGA: 103    -0.667229543381E+03   -0.29704E-04    0.68666E-06  8424   0.176E-04 0.664E-05
CGA: 104    -0.667229631678E+03   -0.88297E-04    0.43170E-06  8424   0.162E-04 0.243E-04
CGA: 105    -0.667229686450E+03   -0.54772E-04    0.30561E-06  8424   0.171E-04 0.635E-05
CGA: 106    -0.667229772340E+03   -0.85890E-04    0.41729E-06  8424   0.159E-04 0.236E-04
CGA: 107    -0.667229800784E+03   -0.28444E-04    0.66014E-06  8424   0.167E-04 0.606E-05
CGA: 108    -0.667229886407E+03   -0.85624E-04    0.39078E-06  8424   0.156E-04 0.228E-04
CGA: 109    -0.667229940258E+03   -0.53851E-04    0.28609E-06  8424   0.163E-04 0.582E-05
CGA: 110    -0.667230023374E+03   -0.83116E-04    0.37634E-06  8424   0.153E-04 0.221E-04
CGA: 111    -0.667230050748E+03   -0.27373E-04    0.63194E-06  8424   0.158E-04 0.561E-05
CGA: 112    -0.667230133409E+03   -0.82661E-04    0.35219E-06  8424   0.149E-04 0.213E-04
CGA: 113    -0.667230186104E+03   -0.52695E-04    0.26700E-06  8424   0.152E-04 0.551E-05
CGA: 114    -0.667230266032E+03   -0.79928E-04    0.33789E-06  8424   0.145E-04 0.205E-04
CGA: 115    -0.667230292920E+03   -0.26888E-04    0.57296E-06  8424   0.145E-04 0.552E-05
CGA: 116    -0.667230372115E+03   -0.79195E-04    0.31475E-06  8424   0.140E-04 0.196E-04
CGA: 117    -0.667230422908E+03   -0.50793E-04    0.24180E-06  8424   0.136E-04 0.571E-05
CGA: 118    -0.667230498991E+03   -0.76083E-04    0.30079E-06  8424   0.133E-04 0.187E-04
CGA: 119    -0.667230526553E+03   -0.27562E-04    0.45607E-06  8424   0.126E-04 0.604E-05
CGA: 120    -0.667230601715E+03   -0.75162E-04    0.27824E-06  8424   0.126E-04 0.179E-04
CGA: 121    -0.667230649443E+03   -0.47728E-04    0.20798E-06  8424   0.116E-04 0.647E-05
CGA: 122    -0.667230677814E+03   -0.28371E-04    0.32228E-06  8424   0.113E-04 0.675E-05
CGA: 123    -0.667230724553E+03   -0.46740E-04    0.16894E-06  8424   0.111E-04 0.683E-05
CGA: 124    -0.667230753023E+03   -0.28470E-04    0.29025E-06  8424   0.110E-04 0.683E-05
CGA: 125    -0.667230799139E+03   -0.46116E-04    0.16108E-06  8424   0.109E-04 0.678E-05
CGA: 126    -0.667230827463E+03   -0.28323E-04    0.27983E-06  8424   0.109E-04 0.667E-05
CGA: 127    -0.667230873241E+03   -0.45779E-04    0.15882E-06  8424   0.109E-04 0.652E-05
CGA: 128    -0.667230901112E+03   -0.27871E-04    0.28425E-06  8424   0.109E-04 0.632E-05
CGA: 129    -0.667230946864E+03   -0.45752E-04    0.16135E-06  8424   0.111E-04 0.608E-05
CGA: 130    -0.667230973966E+03   -0.27103E-04    0.30546E-06  8424   0.112E-04 0.577E-05
CGA: 131    -0.667231020003E+03   -0.46037E-04    0.16989E-06  8424   0.115E-04 0.540E-05
CGA: 132    -0.667231093293E+03   -0.73290E-04    0.24317E-06  8424   0.109E-04 0.169E-04
CGA: 133    -0.667231119424E+03   -0.26130E-04    0.31032E-06  8424   0.112E-04 0.526E-05
CGA: 134    -0.667231192349E+03   -0.72925E-04    0.23173E-06  8424   0.106E-04 0.164E-04
CGA: 135    -0.667231237404E+03   -0.45055E-04    0.15294E-06  8424   0.109E-04 0.513E-05
CGA: 136    -0.667231308946E+03   -0.71542E-04    0.22400E-06  8424   0.103E-04 0.160E-04
CGA: 137    -0.667231334257E+03   -0.25311E-04    0.28146E-06  8424   0.106E-04 0.501E-05
CGA: 138    -0.667231405550E+03   -0.71293E-04    0.21246E-06  8424   0.995E-05 0.156E-04
CGA: 139    -0.667231449545E+03   -0.43995E-04    0.13800E-06  8424   0.102E-04 0.491E-05
CGA: 140    -0.667231519189E+03   -0.69644E-04    0.20514E-06  8424   0.965E-05 0.151E-04
CGA: 141    -0.667231543802E+03   -0.24613E-04    0.25403E-06  8424   0.993E-05 0.480E-05
CGA: 142    -0.667231613235E+03   -0.69433E-04    0.19402E-06  8424   0.936E-05 0.147E-04
CGA: 143    -0.667231656106E+03   -0.42871E-04    0.12471E-06  8424   0.959E-05 0.471E-05
CGA: 144    -0.667231679684E+03   -0.23579E-04    0.26417E-06  8424   0.988E-05 0.432E-05
CGA: 145    -0.667231747902E+03   -0.68218E-04    0.18297E-06  8424   0.935E-05 0.142E-04
CGA: 146    -0.667231790705E+03   -0.42803E-04    0.12458E-06  8424   0.954E-05 0.423E-05
CGA: 147    -0.667231857145E+03   -0.66440E-04    0.17568E-06  8424   0.908E-05 0.137E-04
CGA: 148    -0.667231880016E+03   -0.22871E-04    0.24290E-06  8424   0.930E-05 0.410E-05
CGA: 149    -0.667231946218E+03   -0.66202E-04    0.16661E-06  8424   0.885E-05 0.134E-04
CGA: 150    -0.667231987994E+03   -0.41776E-04    0.11394E-06  8424   0.898E-05 0.402E-05
CGA: 151    -0.667232052523E+03   -0.64529E-04    0.15993E-06  8424   0.860E-05 0.129E-04
CGA: 152    -0.667232074772E+03   -0.22249E-04    0.22243E-06  8424   0.872E-05 0.391E-05
CGA: 153    -0.667232138905E+03   -0.64132E-04    0.15148E-06  8424   0.837E-05 0.126E-04
CGA: 154    -0.667232179603E+03   -0.40698E-04    0.10436E-06  8424   0.841E-05 0.384E-05
CGA: 155    -0.667232242176E+03   -0.62573E-04    0.14517E-06  8424   0.813E-05 0.121E-04
CGA: 156    -0.667232263909E+03   -0.21733E-04    0.20227E-06  8424   0.815E-05 0.375E-05
CGA: 157    -0.667232325931E+03   -0.62022E-04    0.13752E-06  8424   0.791E-05 0.118E-04
CGA: 158    -0.667232365481E+03   -0.39550E-04    0.95600E-07  8424   0.784E-05 0.369E-05
CGA: 159    -0.667232426072E+03   -0.60591E-04    0.13147E-06  8424   0.768E-05 0.114E-04
CGA: 160    -0.667232447414E+03   -0.21342E-04    0.18206E-06  8424   0.757E-05 0.362E-05
CGA: 161    -0.667232507291E+03   -0.59877E-04    0.12466E-06  8424   0.745E-05 0.110E-04
CGA: 162    -0.667232545599E+03   -0.38309E-04    0.87461E-07  8424   0.728E-05 0.358E-05
CGA: 163    -0.667232604189E+03   -0.58590E-04    0.11881E-06  8424   0.723E-05 0.107E-04
CGA: 164    -0.667232625289E+03   -0.21099E-04    0.16155E-06  8424   0.700E-05 0.354E-05
CGA: 165    -0.667232682999E+03   -0.57710E-04    0.11285E-06  8424   0.700E-05 0.103E-04
CGA: 166    -0.667232719951E+03   -0.36953E-04    0.79803E-07  8424   0.671E-05 0.351E-05
CGA: 167    -0.667232741200E+03   -0.21249E-04    0.13612E-06  8424   0.648E-05 0.367E-05
CGA: 168    -0.667232777179E+03   -0.35979E-04    0.69828E-07  8424   0.628E-05 0.379E-05
CGA: 169    -0.667232798876E+03   -0.21697E-04    0.11522E-06  8424   0.612E-05 0.387E-05
CGA: 170    -0.667232833959E+03   -0.35083E-04    0.63632E-07  8424   0.598E-05 0.394E-05
CGA: 171    -0.667232855963E+03   -0.22004E-04    0.10197E-06  8424   0.587E-05 0.397E-05
CGA: 172    -0.667232890346E+03   -0.34383E-04    0.59661E-07  8424   0.578E-05 0.398E-05
CGA: 173    -0.667232912437E+03   -0.22091E-04    0.94459E-07  8424   0.572E-05 0.396E-05
CGA: 174    -0.667232946356E+03   -0.33919E-04    0.57320E-07  8424   0.567E-05 0.393E-05
CGA: 175    -0.667232968299E+03   -0.21943E-04    0.91373E-07  8424   0.565E-05 0.387E-05
CGA: 176    -0.667233001986E+03   -0.33687E-04    0.56310E-07  8424   0.564E-05 0.380E-05
CGA: 177    -0.667233023555E+03   -0.21569E-04    0.92208E-07  8424   0.566E-05 0.371E-05
CGA: 178    -0.667233057231E+03   -0.33676E-04    0.56638E-07  8424   0.570E-05 0.359E-05
CGA: 179    -0.667233078211E+03   -0.20980E-04    0.97387E-07  8424   0.578E-05 0.345E-05
CGA: 180    -0.667233112086E+03   -0.33875E-04    0.58639E-07  8424   0.588E-05 0.328E-05
CGA: 181    -0.667233132267E+03   -0.20180E-04    0.10858E-06  8424   0.602E-05 0.307E-05
CGA: 182    -0.667233166550E+03   -0.34284E-04    0.63087E-07  8424   0.620E-05 0.283E-05
CGA: 183    -0.667233221173E+03   -0.54622E-04    0.90564E-07  8424   0.584E-05 0.903E-05
CGA: 184    -0.667233240497E+03   -0.19324E-04    0.11278E-06  8424   0.603E-05 0.275E-05
CGA: 185    -0.667233294822E+03   -0.54325E-04    0.86121E-07  8424   0.567E-05 0.879E-05
CGA: 186    -0.667233328368E+03   -0.33547E-04    0.56961E-07  8424   0.586E-05 0.269E-05
CGA: 187    -0.667233381556E+03   -0.53188E-04    0.83232E-07  8424   0.550E-05 0.855E-05
CGA: 188    -0.667233400202E+03   -0.18646E-04    0.10309E-06  8424   0.569E-05 0.262E-05
CGA: 189    -0.667233453174E+03   -0.52972E-04    0.78900E-07  8424   0.533E-05 0.831E-05
CGA: 190    -0.667233485940E+03   -0.32766E-04    0.51510E-07  8424   0.551E-05 0.256E-05
CGA: 191    -0.667233537620E+03   -0.51681E-04    0.76150E-07  8424   0.517E-05 0.807E-05
CGA: 192    -0.667233555665E+03   -0.18044E-04    0.93894E-07  8424   0.534E-05 0.250E-05
CGA: 193    -0.667233607157E+03   -0.51492E-04    0.72035E-07  8424   0.502E-05 0.784E-05
CGA: 194    -0.667233639104E+03   -0.31947E-04    0.46630E-07  8424   0.516E-05 0.245E-05
CGA: 195    -0.667233689249E+03   -0.50145E-04    0.69447E-07  8424   0.487E-05 0.760E-05
CGA: 196    -0.667233706765E+03   -0.17516E-04    0.85152E-07  8424   0.500E-05 0.239E-05
CGA: 197    -0.667233756708E+03   -0.49943E-04    0.65621E-07  8424   0.472E-05 0.738E-05
CGA: 198    -0.667233787800E+03   -0.31092E-04    0.42247E-07  8424   0.482E-05 0.235E-05
CGA: 199    -0.667233836402E+03   -0.48602E-04    0.63182E-07  8424   0.457E-05 0.715E-05
CGA: 200    -0.667233853460E+03   -0.17058E-04    0.76855E-07  8424   0.466E-05 0.230E-05
  22 F= -.66723385E+03 E0= -.66723385E+03  d E =0.541980E+00  mag=     2.0000
       N       E                     dE             d eps       ncg     rms          ort
SDA:   1    -0.658002960421E+03    0.92309E+01    0.00000E+00  8424   0.312E+02 0.000E+00
CGA:   2    -0.664135447363E+03   -0.61325E+01   -0.61441E+01  8424   0.126E+02 0.113E+00
CGA:   3    -0.666791947997E+03   -0.26565E+01   -0.26553E+01  8424   0.400E+01-0.275E-01
CGA:   4    -0.667453866701E+03   -0.66192E+00   -0.66237E+00  8424   0.975E+00 0.850E-03
[...]
CGA:  28    -0.667361119302E+03   -0.35588E-04   -0.27925E-04  8424   0.887E-04 0.222E-04
CGA:  29    -0.667361137714E+03   -0.18412E-04   -0.19265E-04  8424   0.564E-04 0.679E-05
CGA:  30    -0.667361178886E+03   -0.41172E-04   -0.33104E-04  8424   0.103E-03 0.369E-04
CGA:  31    -0.667361211436E+03   -0.32550E-04   -0.31415E-04  8424   0.978E-04-0.301E-04
CGA:  32    -0.667361235265E+03   -0.23829E-04   -0.23761E-04  8424   0.109E-03 0.388E-04
CGA:  33    -0.667361320036E+03   -0.84770E-04   -0.79516E-04  8424   0.157E-03 0.253E-04
CGA:  34    -0.667361091003E+03    0.22903E-03   -0.16079E-03  8424   0.789E-02-0.397E-03
CGA:  35    -0.667361956285E+03   -0.86528E-03   -0.95652E-03  8424   0.195E-03 0.236E-03
CGA:  36    -0.667362021926E+03   -0.65641E-04   -0.56286E-04  8424   0.294E-04-0.283E-04
CGA:  37    -0.667362025767E+03   -0.38405E-05   -0.57224E-05  8424   0.158E-04 0.496E-05
CGA:  38    -0.667362040017E+03   -0.14250E-04   -0.16717E-04  8424   0.754E-04-0.827E-05
CGA:  39    -0.667362064443E+03   -0.24426E-04   -0.59312E-04  8424   0.607E-03-0.183E-03
CGA:  40    -0.667362091371E+03   -0.26927E-04   -0.82621E-04  8424   0.593E-04 0.119E-03
CGA:  41    -0.667362099728E+03   -0.83576E-05   -0.12932E-04  8424   0.120E-04 0.114E-04
  36 F= -.66736210E+03 E0= -.66736210E+03  d E =0.290983E+00  mag=     2.0000
       N       E                     dE             d eps       ncg     rms          ort
SDA:   1    -0.661327307393E+03    0.60348E+01    0.00000E+00  8424   0.209E+02 0.000E+00
CGA:   2    -0.665474545233E+03   -0.41472E+01   -0.41779E+01  8424   0.827E+01-0.458E-01
CGA:   3    -0.667213937120E+03   -0.17394E+01   -0.17347E+01  8424   0.265E+01 0.271E-01
CGA:   4    -0.667664838572E+03   -0.45090E+00   -0.45146E+00  8424   0.655E+00 0.114E-02
CGA:   5    -0.667780076771E+03   -0.11524E+00   -0.11552E+00  8424   0.135E+00 0.194E-03
CGA:   6    -0.667806892351E+03   -0.26816E-01   -0.26694E-01  8424   0.305E-01-0.366E-03
CGA:   7    -0.667813774356E+03   -0.68820E-02   -0.69400E-02  8424   0.866E-02 0.226E-03
CGA:   8    -0.667815852202E+03   -0.20778E-02   -0.21330E-02  8424   0.246E-02 0.249E-03
CGA:   9    -0.667816545658E+03   -0.69346E-03   -0.69509E-03  8424   0.865E-03 0.835E-05
CGA:  10    -0.667816734511E+03   -0.18885E-03   -0.22279E-03  8424   0.318E-03 0.179E-03
CGA:  11    -0.667816832885E+03   -0.98374E-04   -0.11061E-03  8424   0.139E-03 0.818E-04
CGA:  12    -0.667816847706E+03   -0.14822E-04   -0.35841E-04  8424   0.768E-04 0.935E-04
CGA:  13    -0.667816847016E+03    0.69059E-06   -0.13399E-04  8424   0.509E-04 0.579E-04
  37 F= -.66781685E+03 E0= -.66781685E+03  d E =-.454747E+00  mag=     2.0000
       N       E                     dE             d eps       ncg     rms          ort
SDA:   1    -0.666245905446E+03    0.15709E+01    0.00000E+00  8424   0.529E+01 0.000E+00
CGA:   2    -0.667303964173E+03   -0.10581E+01   -0.10601E+01  8424   0.212E+01-0.142E-03
CGA:   3    -0.667750302103E+03   -0.44634E+00   -0.44611E+00  8424   0.693E+00 0.305E-03
CGA:   4    -0.667866484756E+03   -0.11618E+00   -0.11623E+00  8424   0.168E+00 0.906E-04
CGA:   5    -0.667895996033E+03   -0.29511E-01   -0.29567E-01  8424   0.337E-01 0.236E-03
CGA:   6    -0.667902753836E+03   -0.67578E-02   -0.67321E-02  8424   0.782E-02-0.167E-03
CGA:   7    -0.667904506989E+03   -0.17532E-02   -0.17609E-02  8424   0.222E-02 0.624E-04
CGA:   8    -0.667905064219E+03   -0.55723E-03   -0.56177E-03  8424   0.670E-03 0.492E-04
CGA:   9    -0.667905276120E+03   -0.21190E-03   -0.21075E-03  8424   0.314E-03-0.401E-04
CGA:  10    -0.667905363008E+03   -0.86888E-04   -0.88681E-04  8424   0.156E-03 0.502E-04
CGA:  11    -0.667905451420E+03   -0.88412E-04   -0.94853E-04  8424   0.203E-03-0.355E-04
CGA:  12    -0.667905498971E+03   -0.47551E-04   -0.48865E-04  8424   0.185E-03 0.394E-04
CGA:  13    -0.667905594910E+03   -0.95939E-04   -0.93829E-04  8424   0.222E-03 0.197E-04
CGA:  14    -0.667905745255E+03   -0.15035E-03   -0.17756E-03  8424   0.574E-03-0.895E-04
CGA:  15    -0.667905816026E+03   -0.70771E-04   -0.78509E-04  8424   0.610E-03 0.192E-04
CGA:  16    -0.667905961973E+03   -0.14595E-03   -0.15401E-03  8424   0.395E-03 0.221E-04
CGA:  17    -0.667906110810E+03   -0.14884E-03   -0.15358E-03  8424   0.422E-03-0.244E-03
CGA:  18    -0.667906147801E+03   -0.36991E-04   -0.66848E-04  8424   0.123E-03 0.153E-03
CGA:  19    -0.667906175825E+03   -0.28024E-04   -0.35659E-04  8424   0.615E-04 0.579E-04
CGA:  20    -0.667906196485E+03   -0.20660E-04   -0.23596E-04  8424   0.648E-04 0.382E-04
CGA:  21    -0.667906192199E+03    0.42857E-05   -0.65743E-05  8424   0.395E-04 0.468E-04
  38 F= -.66790619E+03 E0= -.66790619E+03  d E =-.893452E-01  mag=     2.0000
       N       E                     dE             d eps       ncg     rms          ort
SDA:   1    -0.667790467210E+03    0.11573E+00    0.00000E+00  8424   0.451E+00 0.000E+00
CGA:   2    -0.667884488221E+03   -0.94021E-01   -0.94068E-01  8424   0.191E+00 0.290E-03
CGA:   3    -0.667923807639E+03   -0.39319E-01   -0.39327E-01  8424   0.602E-01 0.481E-04
CGA:   4    -0.667933824413E+03   -0.10017E-01   -0.10026E-01  8424   0.145E-01 0.596E-04
CGA:   5    -0.667936332427E+03   -0.25080E-02   -0.25212E-02  8424   0.281E-02 0.105E-03
CGA:   6    -0.667936896853E+03   -0.56443E-03   -0.56673E-03  8424   0.666E-03 0.251E-04
CGA:   7    -0.667937048885E+03   -0.15203E-03   -0.15251E-03  8424   0.196E-03 0.804E-05
CGA:   8    -0.667937096497E+03   -0.47612E-04   -0.48130E-04  8424   0.591E-04 0.130E-04
CGA:   9    -0.667937111440E+03   -0.14943E-04   -0.15403E-04  8424   0.222E-04 0.127E-04
CGA:  10    -0.667937114273E+03   -0.28327E-05   -0.45776E-05  8424   0.126E-04 0.160E-04
  39 F= -.66793711E+03 E0= -.66793711E+03  d E =-.309221E-01  mag=     2.0000
       N       E                     dE             d eps       ncg     rms          ort
SDA:   1    -0.664116297453E+03    0.38208E+01    0.00000E+00  8424   0.118E+02 0.000E+00
CGA:   2    -0.666707402969E+03   -0.25911E+01   -0.25929E+01  8424   0.530E+01 0.136E-01
CGA:   3    -0.667776516990E+03   -0.10691E+01   -0.10688E+01  8424   0.155E+01-0.150E-02
CGA:   4    -0.668034664264E+03   -0.25815E+00   -0.25816E+00  8424   0.369E+00 0.418E-04
CGA:   5    -0.668098450882E+03   -0.63787E-01   -0.63880E-01  8424   0.732E-01 0.973E-03
CGA:   6    -0.668113257884E+03   -0.14807E-01   -0.14820E-01  8424   0.177E-01 0.254E-03
CGA:   7    -0.668117330301E+03   -0.40724E-02   -0.40737E-02  8424   0.518E-02 0.565E-04
CGA:   8    -0.668118647547E+03   -0.13172E-02   -0.13169E-02  8424   0.164E-02 0.860E-04
CGA:   9    -0.668119133095E+03   -0.48555E-03   -0.48641E-03  8424   0.667E-03-0.221E-04
CGA:  10    -0.668119311241E+03   -0.17815E-03   -0.17589E-03  8424   0.267E-03 0.145E-03
CGA:  11    -0.668119411154E+03   -0.99913E-04   -0.96356E-04  8424   0.135E-03 0.794E-04
CGA:  12    -0.668119470406E+03   -0.59252E-04   -0.55196E-04  8424   0.997E-04 0.651E-04
CGA:  13    -0.668119527397E+03   -0.56991E-04   -0.50252E-04  8424   0.945E-04 0.789E-04
CGA:  14    -0.668119578784E+03   -0.51387E-04   -0.49624E-04  8424   0.983E-04 0.587E-05
CGA:  15    -0.668119613937E+03   -0.35153E-04   -0.32614E-04  8424   0.729E-04 0.662E-04
CGA:  16    -0.668119484031E+03    0.12991E-03   -0.76635E-04  8424   0.164E-02-0.176E-03
CGA:  17    -0.668119676198E+03   -0.19217E-03   -0.24690E-03  8424   0.252E-03 0.155E-03
CGA:  18    -0.668119766189E+03   -0.89990E-04   -0.84252E-04  8424   0.685E-04-0.320E-04
CGA:  19    -0.668119807251E+03   -0.41062E-04   -0.57690E-04  8424   0.343E-03-0.362E-04
CGA:  20    -0.668119848691E+03   -0.41440E-04   -0.51393E-04  8424   0.646E-04 0.280E-04
CGA:  21    -0.668119888476E+03   -0.39785E-04   -0.40739E-04  8424   0.815E-04-0.106E-04
CGA:  22    -0.668119292690E+03    0.59579E-03   -0.32113E-03  8424   0.582E-02-0.331E-03
CGA:  23    -0.668120094376E+03   -0.80169E-03   -0.89101E-03  8424   0.717E-03 0.125E-03
CGA:  24    -0.668120415303E+03   -0.32093E-03   -0.29616E-03  8424   0.166E-03-0.552E-04
CGA:  25    -0.668120435639E+03   -0.20337E-04   -0.30465E-04  8424   0.403E-04 0.158E-04
CGA:  26    -0.668120470944E+03   -0.35305E-04   -0.28854E-04  8424   0.147E-03-0.442E-04
CGA:  27    -0.668120501186E+03   -0.30242E-04   -0.31248E-04  8424   0.322E-04 0.159E-05
CGA:  28    -0.668120526632E+03   -0.25445E-04   -0.22010E-04  8424   0.181E-03-0.387E-04
CGA:  29    -0.668120549603E+03   -0.22972E-04   -0.27374E-04  8424   0.267E-04 0.736E-05
CGA:  30    -0.668120591632E+03   -0.42029E-04    0.29654E-03  8424   0.963E-04-0.243E-04
CGA:  31    -0.668120603265E+03   -0.11633E-04   -0.19516E-04  8424   0.215E-04 0.148E-04
CGA:  32    -0.668120640831E+03   -0.37566E-04    0.11706E-03  8424   0.118E-03-0.262E-04
CGA:  33    -0.668120651281E+03   -0.10450E-04   -0.19137E-04  8424   0.244E-04 0.160E-04
CGA:  34    -0.668119639139E+03    0.10121E-02   -0.55255E-03  8424   0.514E-02-0.313E-03
CGA:  35    -0.668120749056E+03   -0.11099E-02   -0.12026E-02  8424   0.777E-03 0.959E-04
CGA:  36    -0.668120930697E+03   -0.18164E-03   -0.13760E-03  8424   0.561E-04-0.461E-04
CGA:  37    -0.668120942989E+03   -0.12292E-04   -0.14110E-04  8424   0.116E-04 0.202E-05
CGA:  38    -0.668121006575E+03   -0.63585E-04    0.45574E-05  8424   0.978E-04-0.773E-05
CGA:  39    -0.668121003808E+03    0.27665E-05   -0.12621E-04  8424   0.138E-04 0.161E-04
  40 F= -.66812100E+03 E0= -.66812100E+03  d E =-.183890E+00  mag=     2.0000
       N       E                     dE             d eps       ncg     rms          ort
SDA:   1    -0.666938255029E+03    0.11828E+01    0.00000E+00  8424   0.406E+01 0.000E+00
CGA:   2    -0.667800140143E+03   -0.86189E+00   -0.86564E+00  8424   0.172E+01 0.100E-01
CGA:   3    -0.668153347322E+03   -0.35321E+00   -0.35181E+00  8424   0.529E+00 0.123E-01
CGA:   4    -0.668242946277E+03   -0.89599E-01   -0.89631E-01  8424   0.129E+00 0.811E-03
CGA:   5    -0.668265392054E+03   -0.22446E-01   -0.22424E-01  8424   0.256E-01-0.135E-03
CGA:   6    -0.668270624153E+03   -0.52321E-02   -0.51530E-02  8424   0.607E-02-0.109E-03
CGA:   7    -0.668272008913E+03   -0.13848E-02   -0.13918E-02  8424   0.178E-02 0.106E-04
CGA:   8    -0.668272468990E+03   -0.46008E-03   -0.45436E-03  8424   0.551E-03-0.111E-04
CGA:   9    -0.668272659567E+03   -0.19058E-03   -0.16794E-03  8424   0.243E-03-0.492E-04
CGA:  10    -0.668272774248E+03   -0.11468E-03   -0.93891E-04  8424   0.185E-03-0.650E-04
CGA:  11    -0.668272867556E+03   -0.93308E-04   -0.10809E-03  8424   0.638E-03-0.223E-03
CGA:  12    -0.668272970440E+03   -0.10288E-03   -0.12000E-03  8424   0.127E-03 0.310E-04
CGA:  13    -0.668273062261E+03   -0.91821E-04   -0.82039E-04  8424   0.328E-03-0.109E-03
CGA:  14    -0.668273092603E+03   -0.30342E-04   -0.48402E-04  8424   0.532E-04 0.325E-04
CGA:  15    -0.668272981519E+03    0.11108E-03   -0.92362E-04  8424   0.118E-02-0.227E-03
CGA:  16    -0.668273236823E+03   -0.25530E-03   -0.27918E-03  8424   0.192E-03 0.488E-04
CGA:  17    -0.668273312657E+03   -0.75834E-04   -0.46142E-04  8424   0.781E-04-0.639E-04
CGA:  18    -0.668273334911E+03   -0.22254E-04   -0.17661E-04  8424   0.415E-04-0.140E-04
CGA:  19    -0.668273431156E+03   -0.96245E-04    0.96719E-05  8424   0.901E-04-0.948E-05
CGA:  20    -0.668273641067E+03   -0.20991E-03    0.17559E-04  8424   0.311E-03-0.486E-04
CGA:  21    -0.668273691680E+03   -0.50613E-04   -0.46454E-04  8424   0.603E-04-0.843E-05
CGA:  22    -0.668273719641E+03   -0.27961E-04   -0.22654E-04  8424   0.325E-04-0.218E-04
CGA:  23    -0.668273793157E+03   -0.73516E-04    0.34575E-05  8424   0.883E-04-0.116E-04
CGA:  24    -0.668273965775E+03   -0.17262E-03    0.12110E-04  8424   0.169E-03-0.357E-04
CGA:  25    -0.668274431684E+03   -0.46591E-03    0.11342E-04  8424   0.135E-03 0.675E-06
CGA:  26    -0.668274774093E+03   -0.34241E-03    0.40735E-04  8424   0.356E-03-0.871E-04
CGA:  27    -0.668274863122E+03   -0.89029E-04   -0.59221E-04  8424   0.864E-04-0.662E-04
CGA:  28    -0.668274873155E+03   -0.10033E-04   -0.13769E-04  8424   0.120E-04 0.932E-05
CGA:  29    -0.668274878703E+03   -0.55480E-05   -0.56397E-05  8424   0.180E-04 0.551E-06
  41 F= -.66827488E+03 E0= -.66827488E+03  d E =-.153875E+00  mag=     2.0000
       N       E                     dE             d eps       ncg     rms          ort
SDA:   1    -0.666636289140E+03    0.16386E+01    0.00000E+00  8424   0.504E+01 0.000E+00
CGA:   2    -0.667819291327E+03   -0.11830E+01   -0.11837E+01  8424   0.235E+01 0.454E-03
CGA:   3    -0.668273314316E+03   -0.45402E+00   -0.45401E+00  8424   0.642E+00 0.250E-02
CGA:   4    -0.668380744912E+03   -0.10743E+00   -0.10739E+00  8424   0.154E+00-0.564E-03
CGA:   5    -0.668407698758E+03   -0.26954E-01   -0.26848E-01  8424   0.307E-01-0.380E-03
CGA:   6    -0.668413942519E+03   -0.62438E-02   -0.62172E-02  8424   0.756E-02-0.914E-04
CGA:   7    -0.668415680606E+03   -0.17381E-02   -0.17308E-02  8424   0.225E-02-0.298E-04
CGA:   8    -0.668416254860E+03   -0.57425E-03   -0.57674E-03  8424   0.725E-03 0.111E-04
CGA:   9    -0.668416501901E+03   -0.24704E-03   -0.23585E-03  8424   0.352E-03-0.823E-04
CGA:  10    -0.668416646068E+03   -0.14417E-03   -0.14637E-03  8424   0.338E-03-0.148E-03
CGA:  11    -0.668416720092E+03   -0.74025E-04   -0.11830E-03  8424   0.627E-03-0.298E-03
CGA:  12    -0.668416843848E+03   -0.12376E-03   -0.12764E-03  8424   0.196E-03 0.150E-04
CGA:  13    -0.668416938523E+03   -0.94675E-04   -0.11303E-03  8424   0.476E-03-0.159E-03
CGA:  14    -0.668416994792E+03   -0.56269E-04   -0.65632E-04  8424   0.737E-04 0.299E-04
CGA:  15    -0.668417068073E+03   -0.73281E-04    0.26381E-03  8424   0.587E-04-0.289E-04
CGA:  16    -0.668417144550E+03   -0.76477E-04    0.54368E-05  8424   0.614E-04 0.823E-05
CGA:  17    -0.668417271191E+03   -0.12664E-03    0.14459E-04  8424   0.525E-04 0.122E-04
CGA:  18    -0.668417420443E+03   -0.14925E-03    0.80971E-05  8424   0.492E-04 0.181E-04
CGA:  19    -0.668417587437E+03   -0.16699E-03    0.77672E-05  8424   0.530E-04 0.208E-04
CGA:  20    -0.668417839290E+03   -0.25185E-03    0.59001E-05  8424   0.584E-04 0.315E-04
CGA:  21    -0.668417852995E+03   -0.13705E-04   -0.14043E-04  8424   0.308E-04 0.165E-05
CGA:  22    -0.668417911163E+03   -0.58167E-04    0.59378E-05  8424   0.429E-04-0.137E-04
CGA:  23    -0.668418003654E+03   -0.92491E-04    0.14572E-05  8424   0.493E-04 0.249E-05
CGA:  24    -0.668418150697E+03   -0.14704E-03    0.48964E-05  8424   0.530E-04 0.162E-04
CGA:  25    -0.668418356373E+03   -0.20568E-03    0.62892E-05  8424   0.106E-03-0.107E-04
CGA:  26    -0.668418734977E+03   -0.37860E-03    0.43339E-05  8424   0.136E-03-0.204E-04
CGA:  27    -0.668419212523E+03   -0.47755E-03    0.57731E-05  8424   0.360E-03-0.718E-04
CGA:  28    -0.668419307874E+03   -0.95352E-04   -0.73051E-04  8424   0.187E-03-0.988E-04
CGA:  29    -0.668419342687E+03   -0.34812E-04   -0.36222E-04  8424   0.198E-04 0.934E-05
CGA:  30    -0.668419343291E+03   -0.60426E-06   -0.28036E-05  8424   0.868E-05 0.798E-05
CGA:  31    -0.668419334668E+03    0.86228E-05   -0.14738E-04  8424   0.156E-03-0.290E-04
CGA:  32    -0.668419387574E+03   -0.52906E-04   -0.41763E-04  8424   0.733E-04-0.657E-04
CGA:  33    -0.668419394103E+03   -0.65283E-05   -0.74565E-05  8424   0.176E-04 0.365E-05
  42 F= -.66841939E+03 E0= -.66841939E+03  d E =-.144515E+00  mag=     2.0000
       N       E                     dE             d eps       ncg     rms          ort
SDA:   1    -0.656869973224E+03    0.11549E+02    0.00000E+00  8424   0.384E+02 0.000E+00
CGA:   2    -0.664111598512E+03   -0.72416E+01   -0.73513E+01  8424   0.148E+02-0.181E+00
CGA:   3    -0.667262034209E+03   -0.31504E+01   -0.31397E+01  8424   0.486E+01 0.431E-01
CGA:   4    -0.668095132878E+03   -0.83310E+00   -0.83347E+00  8424   0.120E+01 0.469E-02
CGA:   5    -0.668300583737E+03   -0.20545E+00   -0.20608E+00  8424   0.243E+00 0.797E-03
CGA:   6    -0.668349573412E+03   -0.48990E-01   -0.48939E-01  8424   0.554E-01-0.211E-03
CGA:   7    -0.668362292799E+03   -0.12719E-01   -0.12736E-01  8424   0.164E-01 0.123E-03
CGA:   8    -0.668366301200E+03   -0.40084E-02   -0.40320E-02  8424   0.482E-02 0.232E-03
CGA:   9    -0.668367734628E+03   -0.14334E-02   -0.14170E-02  8424   0.191E-02-0.314E-03
CGA:  10    -0.668368270306E+03   -0.53568E-03   -0.53810E-03  8424   0.799E-03 0.610E-04
CGA:  11    -0.668368606722E+03   -0.33642E-03   -0.37165E-03  8424   0.716E-03-0.314E-03
CGA:  12    -0.668368735459E+03   -0.12874E-03   -0.12503E-03  8424   0.432E-03-0.696E-04
CGA:  13    -0.668368123507E+03    0.61195E-03   -0.50699E-03  8424   0.525E-02-0.118E-02
CGA:  14    -0.668369335306E+03   -0.12118E-02   -0.12197E-02  8424   0.603E-03 0.497E-04
CGA:  15    -0.668369563694E+03   -0.22839E-03   -0.22613E-03  8424   0.626E-03-0.245E-03
CGA:  16    -0.668369662364E+03   -0.98669E-04   -0.87931E-04  8424   0.329E-03-0.756E-04
CGA:  17    -0.668369754581E+03   -0.92217E-04   -0.18524E-03  8424   0.116E-02-0.350E-03
CGA:  18    -0.668370002232E+03   -0.24765E-03   -0.20517E-03  8424   0.247E-03-0.203E-03
CGA:  19    -0.668370062291E+03   -0.60059E-04   -0.56636E-04  8424   0.100E-03-0.349E-04
CGA:  20    -0.668370174340E+03   -0.11205E-03    0.21329E-04  8424   0.619E-04 0.799E-05
CGA:  21    -0.668370281605E+03   -0.10726E-03    0.10673E-04  8424   0.470E-04 0.216E-04
CGA:  22    -0.668370429431E+03   -0.14783E-03    0.54904E-05  8424   0.399E-04 0.359E-04
CGA:  23    -0.668370476845E+03   -0.47413E-04    0.12241E-04  8424   0.559E-04-0.335E-05
CGA:  24    -0.668370612664E+03   -0.13582E-03    0.36892E-05  8424   0.497E-04 0.290E-04
CGA:  25    -0.668370666033E+03   -0.53369E-04    0.20588E-04  8424   0.426E-04-0.887E-05
CGA:  26    -0.668370768432E+03   -0.10240E-03    0.22054E-05  8424   0.365E-04 0.227E-04
CGA:  27    -0.668370817551E+03   -0.49119E-04    0.83025E-05  8424   0.259E-04 0.372E-05
CGA:  28    -0.668370911336E+03   -0.93785E-04    0.15442E-05  8424   0.258E-04 0.189E-04
CGA:  29    -0.668370954758E+03   -0.43422E-04    0.37517E-05  8424   0.240E-04 0.691E-05
CGA:  30    -0.668371059450E+03   -0.10469E-03    0.15497E-05  8424   0.245E-04 0.179E-04
CGA:  31    -0.668371099625E+03   -0.40175E-04    0.37725E-05  8424   0.239E-04 0.537E-05
CGA:  32    -0.668371204109E+03   -0.10448E-03    0.14146E-05  8424   0.245E-04 0.156E-04
CGA:  33    -0.668371243754E+03   -0.39644E-04    0.38598E-05  8424   0.241E-04 0.346E-05
CGA:  34    -0.668371346491E+03   -0.10274E-03    0.12687E-05  8424   0.252E-04 0.129E-04
CGA:  35    -0.668371383126E+03   -0.36635E-04    0.48727E-05  8424   0.249E-04 0.129E-05
CGA:  36    -0.668371483132E+03   -0.10001E-03    0.11649E-05  8424   0.267E-04 0.987E-05
CGA:  37    -0.668371628396E+03   -0.14526E-03    0.16303E-05  8424   0.208E-04 0.293E-04
CGA:  38    -0.668371660512E+03   -0.32115E-04    0.35889E-05  8424   0.254E-04 0.114E-06
CGA:  39    -0.668371764441E+03   -0.10393E-03    0.10562E-05  8424   0.231E-04 0.809E-05
CGA:  40    -0.668371899160E+03   -0.13472E-03    0.11428E-05  8424   0.216E-04 0.234E-04
CGA:  41    -0.668371924258E+03   -0.25099E-04    0.70243E-05  8424   0.351E-04-0.613E-05
CGA:  42    -0.668372034089E+03   -0.10983E-03    0.95442E-06  8424   0.341E-04 0.237E-05
CGA:  43    -0.668372192162E+03   -0.15807E-03    0.13872E-05  8424   0.663E-04 0.647E-05
CGA:  44    -0.668372503895E+03   -0.31173E-03    0.33869E-05  8424   0.474E-04 0.284E-04
CGA:  45    -0.668372746570E+03   -0.24268E-03    0.32799E-05  8424   0.685E-04 0.256E-05
CGA:  46    -0.668373165605E+03   -0.41903E-03    0.19642E-05  8424   0.101E-03 0.362E-06
CGA:  47    -0.668373815256E+03   -0.64965E-03    0.24576E-05  8424   0.112E-03 0.182E-04
CGA:  48    -0.668374486043E+03   -0.67079E-03    0.42166E-05  8424   0.224E-03-0.103E-03
CGA:  49    -0.668374560502E+03   -0.74459E-04   -0.57731E-04  8424   0.148E-03-0.148E-03
CGA:  50    -0.668374562805E+03   -0.23033E-05   -0.13521E-04  8424   0.127E-04 0.410E-04
