       N       E                     dE             d eps       ncg     rms          ort
DAV:   1     0.827209203696E+04    0.82721E+04   -0.24654E+05  8424   0.238E+03
DAV:   2     0.920508530433E+03   -0.73516E+04   -0.68990E+04  8424   0.656E+02
DAV:   3    -0.674230621914E+03   -0.15947E+04   -0.14024E+04  8424   0.282E+02
DAV:   4    -0.830317354692E+03   -0.15609E+03   -0.15336E+03  8424   0.857E+01
DAV:   5    -0.832823236417E+03   -0.25059E+01   -0.24949E+01  8424   0.122E+01
SDA:   6    -0.259030266979E+03    0.57379E+03   -0.24949E+01  8424   0.391E+04 0.000E+00
CGA:   7    -0.546008898645E+03   -0.28698E+03   -0.38422E+03  8424   0.681E+04-0.611E+03
CGA:   8    -0.497602139113E+03    0.48407E+02   -0.28308E+03  8424   0.313E+04-0.370E+04
CGA:   9    -0.578210889140E+03   -0.80609E+02   -0.98553E+02  8424   0.129E+04-0.755E+03
CGA:  10    -0.618538661169E+03   -0.40328E+02   -0.52380E+02  8424   0.419E+03 0.187E+03
CGA:  11    -0.643067829991E+03   -0.24529E+02   -0.12311E+02  8424   0.106E+03 0.217E+03
CGA:  12    -0.645156316209E+03   -0.20885E+01   -0.26803E+01  8424   0.330E+03-0.135E+03
CGA:  13    -0.633704562081E+03    0.11452E+02   -0.20312E+02  8424   0.110E+04-0.191E+03
CGA:  14    -0.577546638298E+03    0.56158E+02   -0.50569E+02  8424   0.729E+04-0.323E+04
CGA:  15    -0.531527817281E+03    0.46019E+02   -0.42484E+03  8424   0.131E+04-0.955E+03
CGA:  16    -0.637395490327E+03   -0.10587E+03   -0.32960E+02  8424   0.142E+04 0.271E+04
CGA:  17    -0.579287978090E+03    0.58108E+02   -0.65947E+02  8424   0.232E+04-0.901E+03
CGA:  18    -0.610991427975E+03   -0.31703E+02   -0.87176E+02  8424   0.117E+04-0.150E+04
CGA:  19    -0.629291900413E+03   -0.18300E+02   -0.44969E+02  8424   0.263E+04-0.342E+04
CGA:  20    -0.615045147208E+03    0.14247E+02   -0.13609E+03  8424   0.573E+03-0.465E+03
CGA:  21    -0.656579152818E+03   -0.41534E+02   -0.11827E+02  8424   0.115E+03 0.371E+03
CGA:  22    -0.659139401300E+03   -0.25602E+01   -0.15987E+01  8424   0.439E+02 0.658E+02
CGA:  23    -0.659824594508E+03   -0.68519E+00   -0.35859E+00  8424   0.350E+02 0.400E+02
CGA:  24    -0.660453448387E+03   -0.62885E+00   -0.31110E+00  8424   0.323E+02 0.373E+02
CGA:  25    -0.661195334788E+03   -0.74189E+00   -0.32176E+00  8424   0.305E+02 0.410E+02
CGA:  26    -0.661969832089E+03   -0.77450E+00   -0.52236E+00  8424   0.114E+02 0.545E+01
CGA:  27    -0.662362176079E+03   -0.39234E+00   -0.47006E+00  8424   0.233E+02-0.221E+01
CGA:  28    -0.662850507385E+03   -0.48833E+00   -0.44989E+00  8424   0.406E+02-0.229E+01
CGA:  29    -0.660887165945E+03    0.19633E+01   -0.10979E+01  8424   0.953E+02-0.275E+02
CGA:  30    -0.663373446785E+03   -0.24863E+01   -0.25088E+01  8424   0.564E+02-0.645E+02
CGA:  31    -0.664052333371E+03   -0.67889E+00   -0.12789E+01  8424   0.526E+02-0.566E+02
CGA:  32    -0.663980573777E+03    0.71760E-01   -0.15504E+01  8424   0.496E+02-0.299E+02
CGA:  33    -0.664902193340E+03   -0.92162E+00   -0.93154E+00  8424   0.159E+02-0.228E+02
CGA:  34    -0.665778518773E+03   -0.87633E+00   -0.85791E+00  8424   0.841E+01 0.879E+00
CGA:  35    -0.666010804463E+03   -0.23229E+00   -0.30017E+00  8424   0.389E+01-0.772E+00
CGA:  36    -0.666276815038E+03   -0.26601E+00   -0.26585E+00  8424   0.351E+01-0.519E-01
CGA:  37    -0.666573877212E+03   -0.29706E+00   -0.29065E+00  8424   0.244E+01 0.303E+00
CGA:  38    -0.666781473250E+03   -0.20760E+00   -0.20310E+00  8424   0.539E+00 0.557E+00
CGA:  39    -0.666855647473E+03   -0.74174E-01   -0.69188E-01  8424   0.497E+00 0.125E+00
CGA:  40    -0.666952514815E+03   -0.96867E-01   -0.10121E+00  8424   0.663E+00-0.548E-01
CGA:  41    -0.667023842668E+03   -0.71328E-01   -0.68900E-01  8424   0.174E+00 0.339E-01
CGA:  42    -0.667060067437E+03   -0.36225E-01   -0.43291E-01  8424   0.231E+00-0.456E-01
CGA:  43    -0.667079067736E+03   -0.19000E-01   -0.28398E-01  8424   0.442E+00-0.122E+00
CGA:  44    -0.667107018987E+03   -0.27951E-01   -0.29183E-01  8424   0.107E+00 0.278E-01
CGA:  45    -0.667126939280E+03   -0.19920E-01   -0.21317E-01  8424   0.784E-01-0.140E-01
CGA:  46    -0.667140664627E+03   -0.13725E-01    0.68296E-01  8424   0.637E-01 0.578E-01
CGA:  47    -0.667150041656E+03   -0.93770E-02   -0.27656E-01  8424   0.261E+00-0.557E-01
CGA:  48    -0.667180977127E+03   -0.30935E-01   -0.31041E-01  8424   0.100E+00-0.163E-01
CGA:  49    -0.667195783296E+03   -0.14806E-01   -0.14814E-01  8424   0.101E+00-0.167E-02
CGA:  50    -0.667221056418E+03   -0.25273E-01    0.55111E-01  8424   0.113E+00 0.895E-01
CGA:  51    -0.667244104005E+03   -0.23048E-01   -0.27285E-01  8424   0.221E+00-0.311E-01
CGA:  52    -0.666813230871E+03    0.43087E+00   -0.39318E+00  8424   0.519E+01-0.669E+00
CGA:  53    -0.667316728180E+03   -0.50350E+00   -0.39134E+00  8424   0.529E+00 0.824E+00
CGA:  54    -0.667382496439E+03   -0.65768E-01   -0.63673E-01  8424   0.112E+00 0.302E-01
CGA:  55    -0.667393703663E+03   -0.11207E-01   -0.12210E-01  8424   0.476E-01 0.219E-02
CGA:  56    -0.667404280064E+03   -0.10576E-01   -0.10550E-01  8424   0.490E-01 0.210E-02
CGA:  57    -0.667415961282E+03   -0.11681E-01   -0.12157E-01  8424   0.964E-01-0.958E-02
CGA:  58    -0.667421960552E+03   -0.59993E-02   -0.52966E-02  8424   0.111E+00 0.964E-02
CGA:  59    -0.667431566194E+03   -0.96056E-02   -0.11943E-01  8424   0.648E-01-0.683E-02
CGA:  60    -0.667437708986E+03   -0.61428E-02   -0.72777E-02  8424   0.310E-01-0.791E-03
CGA:  61    -0.667449176068E+03   -0.11467E-01   -0.12760E-01  8424   0.522E-01-0.634E-02
CGA:  62    -0.667458677979E+03   -0.95019E-02   -0.10074E-01  8424   0.458E-01-0.144E-01
CGA:  63    -0.667466967633E+03   -0.82897E-02   -0.91715E-02  8424   0.535E-01-0.123E-01
CGA:  64    -0.667475363944E+03   -0.83963E-02   -0.84277E-02  8424   0.412E-01-0.410E-02
CGA:  65    -0.667482849681E+03   -0.74857E-02   -0.75049E-02  8424   0.309E-01 0.143E-02
CGA:  66    -0.667490938392E+03   -0.80887E-02   -0.80035E-02  8424   0.272E-01 0.157E-02
CGA:  67    -0.667497925163E+03   -0.69868E-02   -0.69885E-02  8424   0.226E-01-0.446E-03
CGA:  68    -0.667504674423E+03   -0.67493E-02   -0.66647E-02  8424   0.270E-01 0.582E-03
CGA:  69    -0.667511464139E+03   -0.67897E-02   -0.67405E-02  8424   0.220E-01 0.156E-02
CGA:  70    -0.667518464713E+03   -0.70006E-02   -0.69632E-02  8424   0.306E-01 0.135E-03
CGA:  71    -0.667526880011E+03   -0.84153E-02   -0.85495E-02  8424   0.260E-01-0.329E-02
CGA:  72    -0.667532501412E+03   -0.56214E-02   -0.56926E-02  8424   0.295E-01-0.411E-02
CGA:  73    -0.667538811659E+03   -0.63102E-02   -0.64177E-02  8424   0.263E-01-0.457E-02
CGA:  74    -0.667543031858E+03   -0.42202E-02   -0.41109E-02  8424   0.204E-01-0.318E-02
CGA:  75    -0.667547754353E+03   -0.47225E-02   -0.49100E-02  8424   0.241E-01-0.467E-02
CGA:  76    -0.667552082478E+03   -0.43281E-02   -0.44017E-02  8424   0.185E-01-0.855E-02
CGA:  77    -0.667554947013E+03   -0.28645E-02   -0.36562E-02  8424   0.260E-01-0.109E-01
CGA:  78    -0.667560530646E+03   -0.55836E-02   -0.55918E-02  8424   0.105E-01 0.390E-03
CGA:  79    -0.667565460842E+03   -0.49302E-02   -0.61861E-02  8424   0.122E-01-0.366E-02
CGA:  80    -0.667567913935E+03   -0.24531E-02   -0.26790E-02  8424   0.989E-02-0.276E-02
CGA:  81    -0.667571237621E+03   -0.33237E-02   -0.42897E-02  8424   0.129E-01-0.333E-02
CGA:  82    -0.667573937798E+03   -0.27002E-02   -0.32202E-02  8424   0.976E-02-0.504E-02
CGA:  83    -0.667575155062E+03   -0.12173E-02   -0.31590E-02  8424   0.192E-01-0.779E-02
CGA:  84    -0.667579236209E+03   -0.40811E-02   -0.40040E-02  8424   0.667E-02-0.102E-02
CGA:  85    -0.667581758267E+03   -0.25221E-02   -0.33619E-02  8424   0.111E-01-0.338E-02
CGA:  86    -0.667583954409E+03   -0.21961E-02   -0.21008E-02  8424   0.292E-02-0.941E-03
CGA:  87    -0.667584940818E+03   -0.98641E-03   -0.11673E-02  8424   0.450E-02-0.124E-02
CGA:  88    -0.667586896873E+03   -0.19561E-02    0.14199E-02  8424   0.328E-02 0.128E-02
CGA:  89    -0.667581325121E+03    0.55718E-02   -0.47633E-02  8424   0.844E-01-0.126E-01
CGA:  90    -0.667593222163E+03   -0.11897E-01   -0.11912E-01  8424   0.606E-02 0.102E-02
CGA:  91    -0.667594966865E+03   -0.17447E-02   -0.16863E-02  8424   0.174E-02-0.111E-02
CGA:  92    -0.667595950412E+03   -0.98355E-03    0.37818E-02  8424   0.129E-02 0.533E-03
CGA:  93    -0.667597359195E+03   -0.14088E-02    0.95588E-03  8424   0.765E-03 0.734E-03
CGA:  94    -0.667598032276E+03   -0.67308E-03    0.35765E-03  8424   0.582E-03 0.374E-03
CGA:  95    -0.667599114112E+03   -0.10818E-02    0.15474E-03  8424   0.636E-03 0.745E-03
CGA:  96    -0.667599796296E+03   -0.68218E-03    0.16109E-03  8424   0.491E-03 0.403E-03
CGA:  97    -0.667600447299E+03   -0.65100E-03    0.77424E-04  8424   0.477E-03 0.441E-03
CGA:  98    -0.667601090270E+03   -0.64297E-03    0.73107E-04  8424   0.496E-03 0.431E-03
CGA:  99    -0.667601739696E+03   -0.64943E-03    0.80420E-04  8424   0.563E-03 0.391E-03
CGA: 100    -0.667602359229E+03   -0.61953E-03    0.13356E-03  8424   0.782E-03 0.268E-03
CGA: 101    -0.667603968661E+03   -0.16094E-02    0.16498E-03  8424   0.510E-03 0.110E-02
CGA: 102    -0.667604621839E+03   -0.65318E-03    0.86444E-04  8424   0.636E-03 0.345E-03
CGA: 103    -0.667605229357E+03   -0.60752E-03    0.22270E-03  8424   0.109E-02 0.104E-03
CGA: 104    -0.667607071876E+03   -0.18425E-02    0.16716E-03  8424   0.827E-03 0.124E-02
CGA: 105    -0.667607647750E+03   -0.57587E-03    0.19812E-02  8424   0.178E-02-0.263E-03
CGA: 106    -0.667609643752E+03   -0.19960E-02    0.13102E-03  8424   0.306E-02 0.112E-02
CGA: 107    -0.667610195788E+03   -0.55204E-03   -0.46025E-03  8424   0.774E-03-0.475E-03
CGA: 108    -0.667611046036E+03   -0.85025E-03    0.99093E-04  8424   0.471E-03 0.537E-03
CGA: 109    -0.667611719083E+03   -0.67305E-03    0.59730E-04  8424   0.500E-03 0.383E-03
CGA: 110    -0.667612339102E+03   -0.62002E-03    0.83200E-04  8424   0.592E-03 0.328E-03
CGA: 111    -0.667612998664E+03   -0.65956E-03    0.12426E-03  8424   0.881E-03 0.161E-03
CGA: 112    -0.667614672549E+03   -0.16739E-02    0.13146E-03  8424   0.661E-03 0.107E-02
CGA: 113    -0.667615237179E+03   -0.56463E-03    0.30346E-03  8424   0.896E-03 0.924E-04
CGA: 114    -0.667616790622E+03   -0.15534E-02    0.11592E-03  8424   0.809E-03 0.957E-03
CGA: 115    -0.667617526075E+03   -0.73545E-03    0.29634E-03  8424   0.920E-03-0.208E-04
CGA: 116    -0.667618911404E+03   -0.13853E-02    0.99066E-04  8424   0.919E-03 0.814E-03
CGA: 117    -0.667619502760E+03   -0.59136E-03    0.10353E-01  8424   0.799E-03-0.261E-04
CGA: 118    -0.667620743546E+03   -0.12408E-02    0.81152E-04  8424   0.781E-03 0.701E-03
CGA: 119    -0.667621492669E+03   -0.74912E-03    0.24183E-03  8424   0.553E-03 0.167E-03
CGA: 120    -0.667622581083E+03   -0.10884E-02    0.68628E-04  8424   0.602E-03 0.634E-03
CGA: 121    -0.667623249508E+03   -0.66842E-03    0.12751E-03  8424   0.437E-03 0.299E-03
CGA: 122    -0.667624354485E+03   -0.11050E-02    0.62525E-04  8424   0.526E-03 0.620E-03
CGA: 123    -0.667625040669E+03   -0.68618E-03    0.79218E-04  8424   0.405E-03 0.335E-03
CGA: 124    -0.667625683830E+03   -0.64316E-03    0.42696E-04  8424   0.388E-03 0.374E-03
CGA: 125    -0.667626339473E+03   -0.65564E-03    0.36932E-04  8424   0.383E-03 0.378E-03
CGA: 126    -0.667626981164E+03   -0.64169E-03    0.37169E-04  8424   0.381E-03 0.377E-03
CGA: 127    -0.667627637219E+03   -0.65605E-03    0.35365E-04  8424   0.380E-03 0.376E-03
CGA: 128    -0.667628277712E+03   -0.64049E-03    0.36352E-04  8424   0.379E-03 0.374E-03
CGA: 129    -0.667628936898E+03   -0.65919E-03    0.34491E-04  8424   0.379E-03 0.371E-03
CGA: 130    -0.667629570505E+03   -0.63361E-03    0.36725E-04  8424   0.382E-03 0.366E-03
CGA: 131    -0.667630236897E+03   -0.66639E-03    0.34629E-04  8424   0.394E-03 0.355E-03
CGA: 132    -0.667630850073E+03   -0.61318E-03    0.43029E-04  8424   0.434E-03 0.329E-03
CGA: 133    -0.667631521737E+03   -0.67166E-03    0.47839E-04  8424   0.567E-03 0.252E-03
CGA: 134    -0.667632060466E+03   -0.53873E-03    0.18035E-03  8424   0.102E-02 0.321E-05
CGA: 135    -0.667633846662E+03   -0.17862E-02    0.94114E-04  8424   0.999E-03 0.991E-03
CGA: 136    -0.667634487932E+03   -0.64127E-03    0.13276E-01  8424   0.228E-02-0.743E-03
CGA: 137    -0.667634892014E+03   -0.40408E-03   -0.35123E-03  8424   0.624E-03-0.332E-03
CGA: 138    -0.667635672323E+03   -0.78031E-03    0.60181E-04  8424   0.453E-03 0.415E-03
CGA: 139    -0.667636380668E+03   -0.70835E-03    0.45854E-04  8424   0.576E-03 0.193E-03
CGA: 140    -0.667637782811E+03   -0.14021E-02    0.72124E-04  8424   0.445E-03 0.794E-03
CGA: 141    -0.667638292263E+03   -0.50945E-03    0.80504E-04  8424   0.527E-03 0.198E-03
CGA: 142    -0.667639665923E+03   -0.13737E-02    0.61583E-04  8424   0.431E-03 0.747E-03
CGA: 143    -0.667640352830E+03   -0.68691E-03    0.42257E-04  8424   0.490E-03 0.204E-03
CGA: 144    -0.667641648808E+03   -0.12960E-02    0.58595E-04  8424   0.417E-03 0.708E-03
CGA: 145    -0.667642172341E+03   -0.52353E-03    0.62600E-04  8424   0.446E-03 0.216E-03
CGA: 146    -0.667642858832E+03   -0.68649E-03    0.46252E-04  8424   0.491E-03 0.173E-03
CGA: 147    -0.667644117452E+03   -0.12586E-02    0.52834E-04  8424   0.443E-03 0.671E-03
CGA: 148    -0.667644621898E+03   -0.50445E-03    0.81608E-04  8424   0.468E-03 0.169E-03
CGA: 149    -0.667645858435E+03   -0.12365E-02    0.47761E-04  8424   0.439E-03 0.638E-03
CGA: 150    -0.667646527353E+03   -0.66892E-03    0.46249E-04  8424   0.447E-03 0.167E-03
CGA: 151    -0.667647712444E+03   -0.11851E-02    0.45258E-04  8424   0.431E-03 0.608E-03
CGA: 152    -0.667648226265E+03   -0.51382E-03    0.71849E-04  8424   0.418E-03 0.173E-03
CGA: 153    -0.667649381417E+03   -0.11552E-02    0.41396E-04  8424   0.418E-03 0.577E-03
CGA: 154    -0.667650027182E+03   -0.64577E-03    0.43121E-04  8424   0.393E-03 0.180E-03
CGA: 155    -0.667651143415E+03   -0.11162E-02    0.39324E-04  8424   0.403E-03 0.553E-03
CGA: 156    -0.667651669106E+03   -0.52569E-03    0.55984E-04  8424   0.366E-03 0.191E-03
CGA: 157    -0.667652761212E+03   -0.10921E-02    0.36779E-04  8424   0.386E-03 0.530E-03
CGA: 158    -0.667653381832E+03   -0.62062E-03    0.37317E-04  8424   0.347E-03 0.199E-03
CGA: 159    -0.667653909233E+03   -0.52740E-03    0.36769E-04  8424   0.325E-03 0.223E-03
CGA: 160    -0.667654515864E+03   -0.60663E-03    0.24939E-04  8424   0.312E-03 0.237E-03
CGA: 161    -0.667655043066E+03   -0.52720E-03    0.27796E-04  8424   0.303E-03 0.245E-03
CGA: 162    -0.667655642604E+03   -0.59954E-03    0.21280E-04  8424   0.298E-03 0.249E-03
CGA: 163    -0.667656167712E+03   -0.52511E-03    0.24869E-04  8424   0.295E-03 0.250E-03
CGA: 164    -0.667656765424E+03   -0.59771E-03    0.20028E-04  8424   0.294E-03 0.250E-03
CGA: 165    -0.667657283924E+03   -0.51850E-03    0.24626E-04  8424   0.296E-03 0.247E-03
CGA: 166    -0.667657885003E+03   -0.60108E-03    0.19983E-04  8424   0.300E-03 0.242E-03
CGA: 167    -0.667658390768E+03   -0.50576E-03    0.26751E-04  8424   0.306E-03 0.234E-03
CGA: 168    -0.667659000774E+03   -0.61001E-03    0.21339E-04  8424   0.318E-03 0.223E-03
CGA: 169    -0.667659485679E+03   -0.48490E-03    0.33570E-04  8424   0.337E-03 0.206E-03
CGA: 170    -0.667660111007E+03   -0.62533E-03    0.26022E-04  8424   0.368E-03 0.179E-03
CGA: 171    -0.667660562854E+03   -0.45185E-03    0.57583E-04  8424   0.418E-03 0.138E-03
CGA: 172    -0.667661752780E+03   -0.11899E-02    0.37856E-04  8424   0.371E-03 0.568E-03
CGA: 173    -0.667662390620E+03   -0.63784E-03    0.32224E-04  8424   0.423E-03 0.127E-03
CGA: 174    -0.667663559296E+03   -0.11687E-02    0.37522E-04  8424   0.378E-03 0.561E-03
CGA: 175    -0.667663987176E+03   -0.42788E-03    0.70303E-04  8424   0.431E-03 0.113E-03
CGA: 176    -0.667665159798E+03   -0.11726E-02    0.36233E-04  8424   0.390E-03 0.555E-03
CGA: 177    -0.667665801917E+03   -0.64212E-03    0.36336E-04  8424   0.449E-03 0.926E-04
CGA: 178    -0.667666957193E+03   -0.11553E-02    0.36370E-04  8424   0.414E-03 0.552E-03
CGA: 179    -0.667667357691E+03   -0.40050E-03    0.11288E-03  8424   0.475E-03 0.638E-04
CGA: 180    -0.667668513077E+03   -0.11554E-02    0.35266E-04  8424   0.450E-03 0.545E-03
CGA: 181    -0.667669167779E+03   -0.65470E-03    0.51393E-04  8424   0.518E-03 0.212E-04
CGA: 182    -0.667670305072E+03   -0.11373E-02    0.35110E-04  8424   0.508E-03 0.538E-03
CGA: 183    -0.667670669438E+03   -0.36437E-03    0.49408E-03  8424   0.577E-03-0.389E-04
CGA: 184    -0.667671793176E+03   -0.11237E-02    0.34184E-04  8424   0.586E-03 0.527E-03
CGA: 185    -0.667672472943E+03   -0.67977E-03    0.10340E-03  8424   0.652E-03-0.116E-03
CGA: 186    -0.667673570585E+03   -0.10976E-02    0.33870E-04  8424   0.679E-03 0.515E-03
CGA: 187    -0.667673459693E+03    0.11089E-03   -0.50454E-03  8424   0.681E-02-0.142E-02
CGA: 188    -0.667675145164E+03   -0.16855E-02   -0.14141E-02  8424   0.120E-02-0.221E-02
CGA: 189    -0.667675746998E+03   -0.60183E-03    0.93365E-03  8424   0.309E-03 0.196E-03
CGA: 190    -0.667676487238E+03   -0.74024E-03    0.26819E-04  8424   0.283E-03 0.313E-03
CGA: 191    -0.667677038741E+03   -0.55150E-03    0.22897E-04  8424   0.292E-03 0.223E-03
CGA: 192    -0.667677564626E+03   -0.52589E-03    0.26618E-04  8424   0.306E-03 0.215E-03
CGA: 193    -0.667678122371E+03   -0.55774E-03    0.27493E-04  8424   0.333E-03 0.198E-03
CGA: 194    -0.667678631013E+03   -0.50864E-03    0.39834E-04  8424   0.387E-03 0.163E-03
CGA: 195    -0.667679822637E+03   -0.11916E-02    0.43151E-04  8424   0.334E-03 0.570E-03
CGA: 196    -0.667680381936E+03   -0.55930E-03    0.34338E-04  8424   0.369E-03 0.179E-03
CGA: 197    -0.667680883170E+03   -0.50123E-03    0.54779E-04  8424   0.426E-03 0.139E-03
CGA: 198    -0.667682069430E+03   -0.11863E-02    0.44915E-04  8424   0.387E-03 0.583E-03
CGA: 199    -0.667682629344E+03   -0.55991E-03    0.51139E-04  8424   0.425E-03 0.140E-03
CGA: 200    -0.667683769226E+03   -0.11399E-02    0.46208E-04  8424   0.407E-03 0.581E-03
   1 F= -.66768377E+03 E0= -.66768362E+03  d E =-.667684E+03  mag=     4.0001
       N       E                     dE             d eps       ncg     rms          ort
SDA:   1    -0.667710362331E+03   -0.27733E-01    0.00000E+00  8424   0.227E-01 0.000E+00
CGA:   2    -0.667715152034E+03   -0.47897E-02   -0.47313E-02  8424   0.958E-02-0.515E-03
CGA:   3    -0.667717617000E+03   -0.24650E-02   -0.23802E-02  8424   0.455E-02-0.132E-02
CGA:   4    -0.667718557170E+03   -0.94017E-03   -0.80750E-03  8424   0.242E-02-0.121E-02
CGA:   5    -0.667717362234E+03    0.11949E-02   -0.13996E-02  8424   0.268E-01-0.543E-02
CGA:   6    -0.667720719979E+03   -0.33577E-02   -0.32733E-02  8424   0.360E-02-0.400E-03
CGA:   7    -0.667721873703E+03   -0.11537E-02   -0.11571E-02  8424   0.246E-02-0.109E-02
CGA:   8    -0.667706301218E+03    0.15572E-01   -0.84017E-02  8424   0.113E+00-0.109E-01
CGA:   9    -0.667723551897E+03   -0.17251E-01   -0.17003E-01  8424   0.136E-01-0.480E-03
CGA:  10    -0.667728134955E+03   -0.45831E-02   -0.43965E-02  8424   0.552E-02-0.768E-03
CGA:  11    -0.667730230503E+03   -0.20955E-02   -0.18935E-02  8424   0.215E-02-0.106E-02
CGA:  12    -0.667731083658E+03   -0.85315E-03   -0.12830E-02  8424   0.957E-02-0.227E-02
CGA:  13    -0.667732697688E+03   -0.16140E-02   -0.15409E-02  8424   0.146E-02-0.161E-03
CGA:  14    -0.667732841816E+03   -0.14413E-03   -0.15554E-02  8424   0.167E-01-0.260E-02
CGA:  15    -0.667735106444E+03   -0.22646E-02   -0.22377E-02  8424   0.224E-02 0.128E-03
CGA:  16    -0.667736175809E+03   -0.10694E-02   -0.95914E-03  8424   0.194E-02-0.946E-03
CGA:  17    -0.667737662205E+03   -0.14864E-02    0.12824E-02  8424   0.371E-02-0.251E-03
CGA:  18    -0.667742050116E+03   -0.43879E-02    0.32396E-02  8424   0.596E-02-0.462E-03
CGA:  19    -0.667749938996E+03   -0.78889E-02    0.34132E-02  8424   0.111E-01 0.157E-03
CGA:  20    -0.667768397245E+03   -0.18458E-01    0.59460E-02  8424   0.128E-01 0.199E-02
CGA:  21    -0.667788683989E+03   -0.20287E-01    0.15961E-01  8424   0.224E-01-0.319E-02
CGA:  22    -0.667818417887E+03   -0.29734E-01    0.69425E-02  8424   0.665E-01-0.212E-01
CGA:  23    -0.667827787654E+03   -0.93698E-02   -0.98019E-02  8424   0.172E-01 0.203E-02
CGA:  24    -0.667832423403E+03   -0.46357E-02   -0.47567E-02  8424   0.263E-02 0.438E-03
CGA:  25    -0.667833211857E+03   -0.78845E-03   -0.91844E-03  8424   0.171E-02 0.791E-03
CGA:  26    -0.667833466882E+03   -0.25503E-03   -0.50241E-03  8424   0.995E-03 0.907E-03
CGA:  27    -0.667833739182E+03   -0.27230E-03   -0.32998E-03  8424   0.107E-02 0.378E-03
CGA:  28    -0.667833956840E+03   -0.21766E-03   -0.40174E-03  8424   0.645E-03 0.895E-03
CGA:  29    -0.667834087983E+03   -0.13114E-03   -0.19830E-03  8424   0.526E-03 0.421E-03
CGA:  30    -0.667834173100E+03   -0.85117E-04   -0.14908E-03  8424   0.570E-03 0.365E-03
CGA:  31    -0.667834282054E+03   -0.10895E-03   -0.15402E-03  8424   0.703E-03 0.250E-03
CGA:  32    -0.667834595028E+03   -0.31297E-03   -0.37675E-03  8424   0.465E-03 0.940E-03
CGA:  33    -0.667834731515E+03   -0.13649E-03   -0.16174E-03  8424   0.644E-03 0.283E-03
CGA:  34    -0.667834846122E+03   -0.11461E-03   -0.14501E-03  8424   0.664E-03 0.145E-03
CGA:  35    -0.667835346813E+03   -0.50069E-03   -0.42249E-03  8424   0.643E-03 0.785E-03
CGA:  36    -0.667835507552E+03   -0.16074E-03   -0.17438E-03  8424   0.802E-03 0.846E-04
CGA:  37    -0.667836536948E+03   -0.10294E-02   -0.73791E-03  8424   0.127E-02 0.703E-03
CGA:  38    -0.667836779800E+03   -0.24285E-03   -0.28041E-03  8424   0.473E-03 0.169E-03
CGA:  39    -0.667837914609E+03   -0.11348E-02   -0.14620E-05  8424   0.108E-01-0.208E-03
CGA:  40    -0.667839733026E+03   -0.18184E-02   -0.12738E-02  8424   0.257E-01-0.157E-02
CGA:  41    -0.667846862156E+03   -0.71291E-02   -0.39115E-02  8424   0.268E-01-0.464E-02
CGA:  42    -0.667851861285E+03   -0.49991E-02   -0.23877E-02  8424   0.155E-01-0.811E-02
CGA:  43    -0.667854310942E+03   -0.24497E-02   -0.84315E-03  8424   0.688E-02-0.330E-02
CGA:  44    -0.667855618996E+03   -0.13081E-02   -0.43082E-03  8424   0.292E-02-0.169E-02
CGA:  45    -0.667856395610E+03   -0.77661E-03   -0.23708E-03  8424   0.216E-02-0.111E-02
CGA:  46    -0.667857157664E+03   -0.76205E-03   -0.22086E-03  8424   0.298E-02-0.130E-02
CGA:  47    -0.667858127100E+03   -0.96944E-03   -0.10216E-02  8424   0.197E-02 0.224E-03
CGA:  48    -0.667859546660E+03   -0.14196E-02   -0.15431E-02  8424   0.607E-02-0.789E-03
CGA:  49    -0.667861178037E+03   -0.16314E-02   -0.15066E-02  8424   0.627E-02-0.971E-03
CGA:  50    -0.667862468216E+03   -0.12902E-02   -0.11283E-02  8424   0.314E-02-0.623E-03
CGA:  51    -0.667863759117E+03   -0.12909E-02   -0.10766E-02  8424   0.372E-02-0.132E-02
CGA:  52    -0.667864937746E+03   -0.11786E-02   -0.11704E-02  8424   0.937E-02-0.319E-02
CGA:  53    -0.667867126853E+03   -0.21891E-02   -0.22260E-02  8424   0.250E-02 0.118E-03
CGA:  54    -0.667867876570E+03   -0.74972E-03   -0.70264E-03  8424   0.711E-03-0.188E-03
CGA:  55    -0.667868591930E+03   -0.71536E-03    0.32280E-02  8424   0.173E-02-0.214E-03
CGA:  56    -0.667862430923E+03    0.61610E-02   -0.23269E-02  8424   0.230E-01-0.618E-02
CGA:  57    -0.667867411350E+03   -0.49804E-02   -0.47190E-02  8424   0.935E-02-0.995E-03
CGA:  58    -0.667870312830E+03   -0.29015E-02   -0.29555E-02  8424   0.393E-02 0.258E-03
CGA:  59    -0.667872194988E+03   -0.18822E-02   -0.18614E-02  8424   0.347E-02-0.236E-03
CGA:  60    -0.667873221365E+03   -0.10264E-02   -0.97378E-03  8424   0.728E-03-0.206E-03
CGA:  61    -0.667873536585E+03   -0.31522E-03   -0.30880E-03  8424   0.391E-03-0.748E-04
CGA:  62    -0.667873689171E+03   -0.15259E-03   -0.27801E-03  8424   0.158E-02-0.488E-03
CGA:  63    -0.667873936340E+03   -0.24717E-03   -0.25097E-03  8424   0.224E-03 0.128E-04
CGA:  64    -0.667874239913E+03   -0.30357E-03    0.21685E-03  8424   0.412E-03-0.144E-03
CGA:  65    -0.667874288680E+03   -0.48768E-04   -0.61167E-04  8424   0.602E-04 0.335E-04
CGA:  66    -0.667874463527E+03   -0.17485E-03    0.10100E-04  8424   0.119E-03-0.316E-04
CGA:  67    -0.667873910161E+03    0.55337E-03   -0.18958E-03  8424   0.559E-02-0.684E-03
CGA:  68    -0.667874955192E+03   -0.10450E-02   -0.96251E-03  8424   0.457E-03-0.229E-03
CGA:  69    -0.667875016334E+03   -0.61141E-04   -0.68632E-04  8424   0.380E-04 0.204E-04
CGA:  70    -0.667875174194E+03   -0.15786E-03    0.37188E-05  8424   0.900E-04-0.158E-04
CGA:  71    -0.667875628138E+03   -0.45394E-03    0.19034E-05  8424   0.218E-03-0.612E-05
CGA:  72    -0.667876800078E+03   -0.11719E-02    0.11773E-04  8424   0.588E-03-0.178E-04
CGA:  73    -0.667880444836E+03   -0.36448E-02    0.25991E-04  8424   0.724E-03 0.208E-03
CGA:  74    -0.667884962179E+03   -0.45173E-02    0.75615E-04  8424   0.352E-02-0.110E-02
CGA:  75    -0.667885308060E+03   -0.34588E-03   -0.47406E-03  8424   0.162E-03 0.333E-03
CGA:  76    -0.667885315600E+03   -0.75402E-05   -0.29066E-04  8424   0.585E-04 0.630E-04
CGA:  77    -0.667885311739E+03    0.38604E-05   -0.11960E-04  8424   0.360E-04 0.462E-04
   2 F= -.66788531E+03 E0= -.66788527E+03  d E =-.201543E+00  mag=     4.0000
       N       E                     dE             d eps       ncg     rms          ort
SDA:   1    -0.667057661137E+03    0.82765E+00    0.00000E+00  8424   0.365E+01 0.000E+00
CGA:   2    -0.667828512174E+03   -0.77085E+00   -0.77157E+00  8424   0.154E+01 0.409E-03
CGA:   3    -0.668145907156E+03   -0.31739E+00   -0.31741E+00  8424   0.471E+00 0.665E-03
CGA:   4    -0.668224302461E+03   -0.78395E-01   -0.78398E-01  8424   0.120E+00-0.238E-03
CGA:   5    -0.668245149675E+03   -0.20847E-01   -0.20781E-01  8424   0.245E-01-0.310E-03
CGA:   6    -0.668250105782E+03   -0.49561E-02   -0.48960E-02  8424   0.558E-02-0.297E-03
CGA:   7    -0.668251344953E+03   -0.12392E-02   -0.12491E-02  8424   0.176E-02 0.582E-04
CGA:   8    -0.668251729221E+03   -0.38427E-03   -0.40797E-03  8424   0.522E-03 0.151E-03
CGA:   9    -0.668251854233E+03   -0.12501E-03   -0.13903E-03  8424   0.188E-03 0.105E-03
CGA:  10    -0.668251879820E+03   -0.25587E-04   -0.44946E-04  8424   0.997E-04 0.111E-03
CGA:  11    -0.668251894101E+03   -0.14281E-04   -0.22398E-04  8424   0.565E-04 0.583E-04
CGA:  12    -0.668251894995E+03   -0.89412E-06   -0.99338E-05  8424   0.475E-04 0.499E-04
   3 F= -.66825189E+03 E0= -.66825189E+03  d E =-.366583E+00  mag=     4.0000
       N       E                     dE             d eps       ncg     rms          ort
SDA:   1    -0.630143190196E+03    0.38109E+02    0.00000E+00  8424   0.119E+03 0.000E+00
CGA:   2    -0.655065504088E+03   -0.24922E+02   -0.25125E+02  8424   0.502E+02-0.636E-02
CGA:   3    -0.665447574900E+03   -0.10382E+02   -0.10353E+02  8424   0.147E+02 0.805E-01
CGA:   4    -0.667947686118E+03   -0.25001E+01   -0.25044E+01  8424   0.385E+01 0.606E-03
CGA:   5    -0.668597315210E+03   -0.64963E+00   -0.65087E+00  8424   0.794E+00-0.697E-04
CGA:   6    -0.668757714046E+03   -0.16040E+00   -0.16011E+00  8424   0.187E+00-0.241E-02
CGA:   7    -0.668801239075E+03   -0.43525E-01   -0.43555E-01  8424   0.618E-01 0.355E-03
CGA:   8    -0.668816235402E+03   -0.14996E-01   -0.15067E-01  8424   0.204E-01 0.121E-02
CGA:   9    -0.668822190093E+03   -0.59547E-02   -0.59506E-02  8424   0.792E-02-0.340E-03
CGA:  10    -0.668824536433E+03   -0.23463E-02   -0.23447E-02  8424   0.343E-02 0.481E-03
CGA:  11    -0.668825807900E+03   -0.12715E-02   -0.12843E-02  8424   0.175E-02-0.244E-03
CGA:  12    -0.668826390424E+03   -0.58252E-03   -0.57880E-03  8424   0.106E-02 0.542E-04
CGA:  13    -0.668826962004E+03   -0.57158E-03   -0.83076E-03  8424   0.283E-02-0.604E-03
CGA:  14    -0.668827622440E+03   -0.66044E-03   -0.65624E-03  8424   0.944E-03-0.463E-04
CGA:  15    -0.668827924707E+03   -0.30227E-03   -0.54510E-03  8424   0.326E-02-0.921E-03
CGA:  16    -0.668828349773E+03   -0.42507E-03   -0.45798E-03  8424   0.483E-03 0.170E-03
CGA:  17    -0.668827538390E+03    0.81138E-03   -0.74755E-03  8424   0.703E-02-0.137E-02
CGA:  18    -0.668829166798E+03   -0.16284E-02   -0.16504E-02  8424   0.170E-02 0.150E-03
CGA:  19    -0.668829638022E+03   -0.47122E-03   -0.38735E-03  8424   0.661E-03-0.557E-03
CGA:  20    -0.668829771341E+03   -0.13332E-03   -0.33933E-03  8424   0.269E-02-0.527E-03
CGA:  21    -0.668830288527E+03   -0.51719E-03   -0.42245E-03  8424   0.679E-03-0.419E-03
CGA:  22    -0.668830535653E+03   -0.24713E-03   -0.26325E-03  8424   0.545E-03-0.195E-03
CGA:  23    -0.668830953852E+03   -0.41820E-03    0.17705E-03  8424   0.594E-03-0.367E-04
CGA:  24    -0.668831580272E+03   -0.62642E-03    0.21480E-03  8424   0.320E-03 0.246E-03
CGA:  25    -0.668832169445E+03   -0.58917E-03    0.12029E-03  8424   0.154E-03 0.224E-03
CGA:  26    -0.668832326949E+03   -0.15750E-03    0.83535E-04  8424   0.198E-03 0.353E-04
CGA:  27    -0.668832756206E+03   -0.42926E-03    0.35120E-04  8424   0.202E-03 0.123E-03
CGA:  28    -0.668830596649E+03    0.21596E-02   -0.11636E-02  8424   0.200E-01-0.130E-02
CGA:  29    -0.668833686781E+03   -0.30901E-02   -0.28586E-02  8424   0.193E-02-0.647E-03
CGA:  30    -0.668834067953E+03   -0.38117E-03   -0.39032E-03  8424   0.190E-03 0.191E-04
CGA:  31    -0.668834388764E+03   -0.32081E-03    0.20228E-03  8424   0.281E-03-0.606E-04
CGA:  32    -0.668834949579E+03   -0.56082E-03    0.47855E-04  8424   0.692E-03-0.386E-04
CGA:  33    -0.668837060409E+03   -0.21108E-02    0.10963E-03  8424   0.991E-03 0.130E-03
CGA:  34    -0.668840394041E+03   -0.33336E-02    0.31439E-03  8424   0.108E-02-0.762E-04
CGA:  35    -0.668844255114E+03   -0.38611E-02    0.15792E-03  8424   0.172E-02-0.334E-03
CGA:  36    -0.668849496102E+03   -0.52410E-02    0.15722E-03  8424   0.662E-02-0.237E-02
CGA:  37    -0.668850601872E+03   -0.11058E-02   -0.99943E-03  8424   0.844E-03-0.263E-03
CGA:  38    -0.668850750244E+03   -0.14837E-03   -0.20116E-03  8424   0.166E-03 0.143E-03
CGA:  39    -0.668850782346E+03   -0.32102E-04   -0.54258E-04  8424   0.573E-04 0.689E-04
CGA:  40    -0.668850775366E+03    0.69793E-05   -0.14188E-04  8424   0.399E-04 0.514E-04
   4 F= -.66885078E+03 E0= -.66885078E+03  d E =-.598880E+00  mag=     4.0000
       N       E                     dE             d eps       ncg     rms          ort
SDA:   1    -0.667478331510E+03    0.13725E+01    0.00000E+00  8424   0.487E+01 0.000E+00
CGA:   2    -0.668432602649E+03   -0.95427E+00   -0.95620E+00  8424   0.188E+01-0.379E-03
CGA:   3    -0.668834766217E+03   -0.40216E+00   -0.40185E+00  8424   0.634E+00 0.631E-03
CGA:   4    -0.668940415696E+03   -0.10565E+00   -0.10574E+00  8424   0.160E+00 0.137E-03
CGA:   5    -0.668968009944E+03   -0.27594E-01   -0.27655E-01  8424   0.331E-01 0.129E-03
CGA:   6    -0.668974616628E+03   -0.66067E-02   -0.65827E-02  8424   0.735E-02-0.890E-04
CGA:   7    -0.668976204639E+03   -0.15880E-02   -0.16178E-02  8424   0.220E-02 0.123E-03
CGA:   8    -0.668976731777E+03   -0.52714E-03   -0.53816E-03  8424   0.659E-03 0.518E-04
CGA:   9    -0.668976911166E+03   -0.17939E-03   -0.18338E-03  8424   0.237E-03 0.231E-04
CGA:  10    -0.668976982743E+03   -0.71577E-04   -0.75599E-04  8424   0.125E-03 0.319E-04
CGA:  11    -0.668977035423E+03   -0.52680E-04   -0.53629E-04  8424   0.880E-04 0.186E-04
CGA:  12    -0.668977067699E+03   -0.32276E-04   -0.35284E-04  8424   0.678E-04 0.392E-04
CGA:  13    -0.668977116999E+03   -0.49300E-04   -0.46844E-04  8424   0.847E-04 0.382E-04
CGA:  14    -0.668977157483E+03   -0.40484E-04   -0.42008E-04  8424   0.101E-03-0.209E-04
CGA:  15    -0.668977212366E+03   -0.54884E-04   -0.65030E-04  8424   0.205E-03-0.270E-04
CGA:  16    -0.668977241672E+03   -0.29305E-04   -0.19732E-03  8424   0.128E-02-0.224E-03
CGA:  17    -0.668977492414E+03   -0.25074E-03   -0.24783E-03  8424   0.389E-03-0.105E-04
CGA:  18    -0.668977631941E+03   -0.13953E-03   -0.13422E-03  8424   0.207E-03-0.419E-04
CGA:  19    -0.668977479502E+03    0.15244E-03   -0.25265E-03  8424   0.247E-02-0.454E-03
CGA:  20    -0.668977728413E+03   -0.24891E-03   -0.31796E-03  8424   0.290E-03 0.187E-03
CGA:  21    -0.668977873514E+03   -0.14510E-03   -0.14259E-03  8424   0.249E-03-0.662E-04
CGA:  22    -0.668977965717E+03   -0.92204E-04   -0.81985E-04  8424   0.284E-03-0.155E-03
CGA:  23    -0.668977996381E+03   -0.30664E-04   -0.44961E-04  8424   0.626E-04 0.433E-04
CGA:  24    -0.668976908059E+03    0.10883E-02   -0.58827E-03  8424   0.451E-02-0.511E-03
CGA:  25    -0.668977949352E+03   -0.10413E-02   -0.10861E-02  8424   0.127E-02 0.796E-04
CGA:  26    -0.668978317426E+03   -0.36807E-03   -0.30675E-03  8424   0.290E-03-0.105E-03
CGA:  27    -0.668978360912E+03   -0.43486E-04   -0.55273E-04  8424   0.670E-04 0.201E-04
CGA:  28    -0.668978408500E+03   -0.47588E-04   -0.69853E-04  8424   0.268E-03-0.110E-03
CGA:  29    -0.668978477166E+03   -0.68666E-04   -0.68199E-04  8424   0.834E-04-0.102E-05
CGA:  30    -0.668978544323E+03   -0.67157E-04   -0.48777E-04  8424   0.276E-03-0.109E-03
CGA:  31    -0.668978567499E+03   -0.23176E-04   -0.38247E-04  8424   0.355E-04 0.246E-04
CGA:  32    -0.668977044386E+03    0.15231E-02   -0.83330E-03  8424   0.603E-02-0.435E-03
CGA:  33    -0.668978740137E+03   -0.16958E-02   -0.16992E-02  8424   0.129E-02 0.548E-05
CGA:  34    -0.668979023121E+03   -0.28298E-03   -0.23236E-03  8424   0.119E-03-0.498E-04
CGA:  35    -0.668979045867E+03   -0.22746E-04   -0.26347E-04  8424   0.271E-04 0.369E-05
CGA:  36    -0.668979113155E+03   -0.67288E-04    0.35473E-03  8424   0.551E-03-0.866E-04
CGA:  37    -0.668979158167E+03   -0.45011E-04   -0.76964E-04  8424   0.518E-04 0.327E-04
CGA:  38    -0.668979221305E+03   -0.63138E-04   -0.33955E-04  8424   0.132E-03-0.605E-04
CGA:  39    -0.668979239588E+03   -0.18283E-04   -0.24863E-04  8424   0.249E-04 0.739E-05
CGA:  40    -0.668979296900E+03   -0.57312E-04    0.25447E-03  8424   0.348E-03-0.710E-04
CGA:  41    -0.668979331037E+03   -0.34137E-04   -0.53992E-04  8424   0.548E-04 0.232E-04
CGA:  42    -0.668979395695E+03   -0.64658E-04   -0.34897E-04  8424   0.133E-03-0.759E-04
CGA:  43    -0.668979411063E+03   -0.15368E-04   -0.26624E-04  8424   0.301E-04 0.146E-04
CGA:  44    -0.668978995195E+03    0.41587E-03   -0.84001E-04  8424   0.382E-02-0.316E-03
CGA:  45    -0.668979486432E+03   -0.49124E-03   -0.59564E-03  8424   0.567E-03 0.151E-03
CGA:  46    -0.668979694902E+03   -0.20847E-03   -0.15863E-03  8424   0.240E-04-0.718E-04
CGA:  47    -0.668979207184E+03    0.48772E-03   -0.84583E-04  8424   0.338E-02-0.186E-03
CGA:  48    -0.668979960123E+03   -0.75294E-03   -0.64368E-03  8424   0.571E-03-0.143E-03
CGA:  49    -0.668980033963E+03   -0.73840E-04   -0.97687E-04  8424   0.248E-04 0.280E-04
CGA:  50    -0.668980060364E+03   -0.26401E-04   -0.25859E-04  8424   0.328E-03-0.696E-04
CGA:  51    -0.668980127201E+03   -0.66837E-04   -0.58655E-04  8424   0.239E-04-0.102E-04
CGA:  52    -0.668980144102E+03   -0.16901E-04   -0.25925E-04  8424   0.299E-03-0.571E-04
CGA:  53    -0.668980228667E+03   -0.84565E-04   -0.55355E-04  8424   0.506E-04-0.378E-04
CGA:  54    -0.668980244045E+03   -0.15378E-04   -0.12252E-04  8424   0.143E-04-0.486E-05
CGA:  55    -0.668980343541E+03   -0.99496E-04    0.17479E-05  8424   0.124E-03-0.183E-04
CGA:  56    -0.668980343462E+03    0.79119E-07   -0.15326E-04  8424   0.109E-04 0.201E-04
CGA:  57    -0.668980370442E+03   -0.26980E-04    0.22580E-04  8424   0.123E-03-0.237E-04
CGA:  58    -0.668980436202E+03   -0.65760E-04   -0.30394E-04  8424   0.522E-04-0.581E-04
CGA:  59    -0.668980451299E+03   -0.15096E-04   -0.11398E-04  8424   0.347E-04-0.910E-05
CGA:  60    -0.668980563216E+03   -0.11192E-03    0.80926E-05  8424   0.265E-03-0.520E-04
CGA:  61    -0.668980580419E+03   -0.17203E-04   -0.34469E-04  8424   0.134E-04 0.260E-04
CGA:  62    -0.668980618479E+03   -0.38060E-04    0.83594E-05  8424   0.116E-03-0.310E-04
CGA:  63    -0.668980651493E+03   -0.33014E-04   -0.25842E-04  8424   0.869E-05-0.131E-04
CGA:  64    -0.668980707157E+03   -0.55664E-04    0.74612E-06  8424   0.264E-04-0.189E-05
CGA:  65    -0.668980912078E+03   -0.20492E-03    0.13635E-05  8424   0.264E-04 0.128E-04
CGA:  66    -0.668981156028E+03   -0.24395E-03    0.45761E-05  8424   0.124E-03-0.183E-04
CGA:  67    -0.668981191862E+03   -0.35834E-04   -0.25851E-04  8424   0.107E-04-0.187E-04
CGA:  68    -0.668981230990E+03   -0.39128E-04    0.16242E-05  8424   0.475E-04-0.904E-05
CGA:  69    -0.668981252696E+03   -0.21706E-04   -0.11258E-04  8424   0.189E-04-0.217E-04
CGA:  70    -0.668981309739E+03   -0.57043E-04    0.11853E-05  8424   0.153E-04-0.821E-07
CGA:  71    -0.668981387429E+03   -0.77691E-04    0.19616E-05  8424   0.702E-04-0.115E-04
CGA:  72    -0.668981412002E+03   -0.24573E-04   -0.13003E-04  8424   0.152E-04-0.228E-04
CGA:  73    -0.668981438378E+03   -0.26376E-04    0.37535E-05  8424   0.579E-04-0.103E-04
CGA:  74    -0.668981478542E+03   -0.40164E-04   -0.15144E-04  8424   0.834E-04-0.616E-04
CGA:  75    -0.668981479416E+03   -0.87412E-06   -0.83215E-05  8424   0.460E-05 0.136E-04
   5 F= -.66898148E+03 E0= -.66898148E+03  d E =-.130704E+00  mag=     4.0000
       N       E                     dE             d eps       ncg     rms          ort
SDA:   1    -0.666586363678E+03    0.23951E+01    0.00000E+00  8424   0.738E+01 0.000E+00
CGA:   2    -0.668166345260E+03   -0.15800E+01   -0.15837E+01  8424   0.312E+01-0.398E-03
CGA:   3    -0.668814271459E+03   -0.64793E+00   -0.64689E+00  8424   0.957E+00 0.466E-02
CGA:   4    -0.668973690057E+03   -0.15942E+00   -0.15953E+00  8424   0.233E+00 0.103E-03
CGA:   5    -0.669013457233E+03   -0.39767E-01   -0.39771E-01  8424   0.476E-01-0.121E-03
CGA:   6    -0.669023145973E+03   -0.96887E-02   -0.95960E-02  8424   0.111E-01-0.273E-03
CGA:   7    -0.669025614802E+03   -0.24688E-02   -0.24926E-02  8424   0.336E-02 0.785E-04
CGA:   8    -0.669026436819E+03   -0.82202E-03   -0.82375E-03  8424   0.105E-02 0.588E-05
CGA:   9    -0.669026739181E+03   -0.30236E-03   -0.29817E-03  8424   0.393E-03-0.202E-04
CGA:  10    -0.669026884595E+03   -0.14541E-03   -0.14000E-03  8424   0.235E-03-0.452E-04
CGA:  11    -0.669026982078E+03   -0.97483E-04   -0.95817E-04  8424   0.221E-03-0.913E-04
CGA:  12    -0.669027048572E+03   -0.66493E-04   -0.72386E-04  8424   0.285E-03-0.105E-03
CGA:  13    -0.669026961420E+03    0.87152E-04   -0.16793E-03  8424   0.207E-02-0.410E-03
CGA:  14    -0.669027349771E+03   -0.38835E-03   -0.36422E-03  8424   0.523E-03-0.734E-04
CGA:  15    -0.669027487764E+03   -0.13799E-03   -0.13815E-03  8424   0.180E-03 0.698E-06
CGA:  16    -0.669027509276E+03   -0.21512E-04   -0.18222E-03  8424   0.138E-02-0.306E-03
CGA:  17    -0.669027631490E+03   -0.12221E-03   -0.17928E-03  8424   0.154E-03 0.151E-03
CGA:  18    -0.669027693689E+03   -0.62199E-04   -0.55825E-04  8424   0.901E-04-0.387E-04
CGA:  19    -0.669027759956E+03   -0.66268E-04    0.10903E-02  8424   0.100E-03-0.430E-04
CGA:  20    -0.669027781138E+03   -0.21181E-04   -0.16397E-04  8424   0.892E-04-0.286E-04
CGA:  21    -0.669027884266E+03   -0.10313E-03    0.21526E-04  8424   0.122E-03-0.147E-04
CGA:  22    -0.669028065070E+03   -0.18080E-03    0.28098E-04  8424   0.153E-03-0.363E-04
CGA:  23    -0.669028207256E+03   -0.14219E-03    0.65390E-04  8424   0.232E-03-0.926E-04
CGA:  24    -0.669028308444E+03   -0.10119E-03   -0.88107E-04  8424   0.275E-03-0.137E-03
CGA:  25    -0.669028316737E+03   -0.82931E-05   -0.30940E-04  8424   0.271E-04 0.635E-04
   6 F= -.66902832E+03 E0= -.66902832E+03  d E =-.468373E-01  mag=     4.0000
       N       E                     dE             d eps       ncg     rms          ort
SDA:   1    -0.664919421907E+03    0.41089E+01    0.00000E+00  8424   0.106E+02 0.000E+00
CGA:   2    -0.667713157183E+03   -0.27937E+01   -0.27948E+01  8424   0.542E+01-0.655E-03
CGA:   3    -0.668742252015E+03   -0.10291E+01   -0.10289E+01  8424   0.130E+01 0.245E-02
CGA:   4    -0.668950842397E+03   -0.20859E+00   -0.20865E+00  8424   0.300E+00-0.427E-03
CGA:   5    -0.669002260751E+03   -0.51418E-01   -0.51352E-01  8424   0.632E-01-0.382E-03
CGA:   6    -0.669015447576E+03   -0.13187E-01   -0.13121E-01  8424   0.156E-01-0.366E-03
CGA:   7    -0.669019011781E+03   -0.35642E-02   -0.35317E-02  8424   0.476E-02-0.212E-03
CGA:   8    -0.669020268626E+03   -0.12568E-02   -0.12298E-02  8424   0.181E-02-0.240E-03
CGA:   9    -0.669020887106E+03   -0.61848E-03   -0.61238E-03  8424   0.112E-02-0.448E-03
CGA:  10    -0.669021077928E+03   -0.19082E-03   -0.58875E-03  8424   0.303E-02-0.120E-02
CGA:  11    -0.669021680323E+03   -0.60239E-03   -0.57900E-03  8424   0.536E-03-0.121E-03
CGA:  12    -0.669021755677E+03   -0.75354E-04   -0.43885E-03  8424   0.235E-02-0.763E-03
CGA:  13    -0.669022263407E+03   -0.50773E-03   -0.47759E-03  8424   0.402E-03-0.154E-03
CGA:  14    -0.669022345446E+03   -0.82039E-04   -0.24771E-03  8424   0.187E-02-0.616E-03
CGA:  15    -0.669022641680E+03   -0.29623E-03   -0.27824E-03  8424   0.239E-03-0.700E-04
CGA:  16    -0.669019684966E+03    0.29567E-02   -0.15986E-02  8424   0.180E-01-0.168E-02
CGA:  17    -0.669022893926E+03   -0.32090E-02   -0.31314E-02  8424   0.370E-02-0.965E-04
CGA:  18    -0.669023766452E+03   -0.87253E-03   -0.81858E-03  8424   0.231E-03-0.119E-03
CGA:  19    -0.669023912384E+03   -0.14593E-03   -0.15612E-03  8424   0.808E-03-0.290E-03
CGA:  20    -0.669024058652E+03   -0.14627E-03   -0.13250E-03  8424   0.160E-03-0.289E-04
CGA:  21    -0.669023385197E+03    0.67346E-03   -0.26349E-03  8424   0.745E-02-0.882E-03
CGA:  22    -0.669024485993E+03   -0.11008E-02   -0.11311E-02  8424   0.108E-02 0.158E-04
CGA:  23    -0.669024778996E+03   -0.29300E-03   -0.25561E-03  8424   0.107E-03-0.873E-04
CGA:  24    -0.669024976768E+03   -0.19777E-03    0.57026E-04  8424   0.193E-03-0.593E-04
CGA:  25    -0.669025040271E+03   -0.63503E-04   -0.41506E-04  8424   0.101E-03-0.513E-04
CGA:  26    -0.669025258382E+03   -0.21811E-03    0.17039E-04  8424   0.230E-03-0.598E-04
CGA:  27    -0.669025345281E+03   -0.86899E-04   -0.57327E-04  8424   0.139E-03-0.792E-04
CGA:  28    -0.669025530381E+03   -0.18510E-03    0.40264E-04  8424   0.491E-03-0.144E-03
CGA:  29    -0.669025630966E+03   -0.10058E-03   -0.84474E-04  8424   0.969E-04-0.367E-04
CGA:  30    -0.669025755915E+03   -0.12495E-03    0.13266E-03  8424   0.373E-03-0.127E-03
CGA:  31    -0.669025837845E+03   -0.81930E-04   -0.64931E-04  8424   0.786E-04-0.413E-04
CGA:  32    -0.669025982876E+03   -0.14503E-03    0.23200E-04  8424   0.251E-03-0.828E-04
CGA:  33    -0.669026039464E+03   -0.56589E-04   -0.45374E-04  8424   0.622E-04-0.293E-04
CGA:  34    -0.669026185474E+03   -0.14601E-03    0.10310E-04  8424   0.163E-03-0.502E-04
CGA:  35    -0.669026233824E+03   -0.48350E-04   -0.35303E-04  8424   0.722E-04-0.400E-04
CGA:  36    -0.669026404796E+03   -0.17097E-03    0.72382E-05  8424   0.160E-03-0.476E-04
CGA:  37    -0.669026444916E+03   -0.40120E-04   -0.32948E-04  8424   0.566E-04-0.224E-04
CGA:  38    -0.669026596482E+03   -0.15157E-03    0.60620E-05  8424   0.144E-03-0.435E-04
CGA:  39    -0.669026630402E+03   -0.33920E-04   -0.28045E-04  8424   0.493E-04-0.186E-04
CGA:  40    -0.669026782139E+03   -0.15174E-03    0.41297E-05  8424   0.991E-04-0.282E-04
CGA:  41    -0.669026810030E+03   -0.27892E-04   -0.22431E-04  8424   0.529E-04-0.204E-04
CGA:  42    -0.669026968321E+03   -0.15829E-03    0.34670E-05  8424   0.997E-04-0.270E-04
CGA:  43    -0.669027002466E+03   -0.34145E-04   -0.26621E-04  8424   0.757E-04-0.352E-04
CGA:  44    -0.669027175578E+03   -0.17311E-03    0.41774E-05  8424   0.152E-03-0.508E-04
CGA:  45    -0.669027209006E+03   -0.33428E-04   -0.31331E-04  8424   0.466E-04-0.796E-05
CGA:  46    -0.669027334387E+03   -0.12538E-03    0.48073E-05  8424   0.129E-03-0.454E-04
CGA:  47    -0.669027354338E+03   -0.19950E-04   -0.20039E-04  8424   0.289E-04 0.332E-06
CGA:  48    -0.669027464956E+03   -0.11062E-03    0.19357E-05  8424   0.323E-04-0.514E-05
CGA:  49    -0.669027647934E+03   -0.18298E-03    0.86279E-06  8424   0.328E-04 0.229E-04
CGA:  50    -0.669027724683E+03   -0.76749E-04    0.44011E-05  8424   0.166E-04-0.444E-06
CGA:  51    -0.669027843190E+03   -0.11851E-03    0.50563E-06  8424   0.186E-04 0.135E-04
CGA:  52    -0.669027904294E+03   -0.61104E-04    0.15218E-05  8424   0.308E-04 0.210E-06
CGA:  53    -0.669028107408E+03   -0.20311E-03    0.10767E-05  8424   0.390E-04 0.680E-05
CGA:  54    -0.669028425485E+03   -0.31808E-03    0.16092E-05  8424   0.292E-04 0.405E-04
CGA:  55    -0.669028470509E+03   -0.45024E-04    0.87192E-05  8424   0.771E-04-0.217E-04
CGA:  56    -0.669024994588E+03    0.34759E-02   -0.19346E-02  8424   0.348E-01-0.152E-02
CGA:  57    -0.669028904149E+03   -0.39096E-02   -0.40366E-02  8424   0.144E-03 0.115E-02
CGA:  58    -0.669028950365E+03   -0.46216E-04   -0.26642E-04  8424   0.397E-04-0.327E-04
CGA:  59    -0.669029038826E+03   -0.88461E-04    0.12159E-04  8424   0.160E-03-0.466E-04
CGA:  60    -0.669029091987E+03   -0.53161E-04   -0.33233E-04  8424   0.531E-04-0.372E-04
CGA:  61    -0.669029174909E+03   -0.82922E-04    0.34623E-04  8424   0.287E-03-0.851E-04
CGA:  62    -0.669029240529E+03   -0.65620E-04   -0.49157E-04  8424   0.511E-04-0.297E-04
CGA:  63    -0.669029207230E+03    0.33299E-04   -0.53936E-04  8424   0.994E-03-0.178E-03
CGA:  64    -0.669029407879E+03   -0.20065E-03   -0.16307E-03  8424   0.155E-03-0.668E-04
CGA:  65    -0.669029460766E+03   -0.52887E-04   -0.39484E-04  8424   0.248E-04-0.328E-04
CGA:  66    -0.669029567926E+03   -0.10716E-03    0.20812E-05  8424   0.199E-03-0.363E-04
CGA:  67    -0.669029574909E+03   -0.69827E-05   -0.20331E-04  8424   0.894E-05 0.240E-04
   7 F= -.66902957E+03 E0= -.66902957E+03  d E =-.125817E-02  mag=     4.0000
       N       E                     dE             d eps       ncg     rms          ort
SDA:   1    -0.615079208353E+03    0.53950E+02    0.00000E+00  8424   0.170E+03 0.000E+00
CGA:   2    -0.648967762998E+03   -0.33889E+02   -0.34845E+02  8424   0.670E+02-0.394E+00
CGA:   3    -0.663521366716E+03   -0.14554E+02   -0.14432E+02  8424   0.203E+02 0.118E+01
CGA:   4    -0.667021938895E+03   -0.35006E+01   -0.35113E+01  8424   0.500E+01 0.156E+00
CGA:   5    -0.667875603157E+03   -0.85366E+00   -0.85871E+00  8424   0.106E+01 0.554E-02
CGA:   6    -0.668091082847E+03   -0.21548E+00   -0.21504E+00  8424   0.253E+00 0.372E-03
CGA:   7    -0.668147911985E+03   -0.56829E-01   -0.57256E-01  8424   0.788E-01 0.128E-02
CGA:   8    -0.668166786086E+03   -0.18874E-01   -0.18992E-01  8424   0.244E-01 0.423E-03
CGA:   9    -0.668173683331E+03   -0.68972E-02   -0.68251E-02  8424   0.868E-02-0.319E-03
CGA:  10    -0.668176115510E+03   -0.24322E-02   -0.24982E-02  8424   0.331E-02 0.324E-03
CGA:  11    -0.668177180013E+03   -0.10645E-02   -0.10630E-02  8424   0.112E-02-0.110E-04
CGA:  12    -0.668177463433E+03   -0.28342E-03   -0.31070E-03  8424   0.374E-03 0.136E-03
CGA:  13    -0.668177569728E+03   -0.10629E-03   -0.12456E-03  8424   0.190E-03 0.106E-03
CGA:  14    -0.668177620337E+03   -0.50609E-04   -0.70752E-04  8424   0.136E-03 0.118E-03
CGA:  15    -0.668177626518E+03   -0.61804E-05   -0.28579E-04  8424   0.865E-04 0.928E-04
CGA:  16    -0.668177639301E+03   -0.12783E-04   -0.24595E-04  8424   0.759E-04 0.764E-04
CGA:  17    -0.668177631575E+03    0.77256E-05   -0.12004E-04  8424   0.719E-04 0.722E-04
CGA:  18    -0.668177635338E+03   -0.37622E-05   -0.16690E-04  8424   0.689E-04 0.696E-04
CGA:  19    -0.668177629803E+03    0.55343E-05   -0.11118E-04  8424   0.670E-04 0.674E-04
CGA:  20    -0.668177630956E+03   -0.11532E-05   -0.13712E-04  8424   0.650E-04 0.656E-04
   8 F= -.66817763E+03 E0= -.66817763E+03  d E =0.851944E+00  mag=     4.0000
       N       E                     dE             d eps       ncg     rms          ort
SDA:   1    -0.651360103405E+03    0.16818E+02    0.00000E+00  8424   0.587E+02 0.000E+00
CGA:   2    -0.662597134382E+03   -0.11237E+02   -0.11305E+02  8424   0.223E+02-0.515E-01
CGA:   3    -0.667373384289E+03   -0.47762E+01   -0.47659E+01  8424   0.732E+01 0.198E-01
CGA:   4    -0.668613165924E+03   -0.12398E+01   -0.12410E+01  8424   0.189E+01 0.190E-02
CGA:   5    -0.668936856972E+03   -0.32369E+00   -0.32432E+00  8424   0.401E+00 0.103E-02
CGA:   6    -0.669016336984E+03   -0.79480E-01   -0.79245E-01  8424   0.894E-01-0.157E-02
CGA:   7    -0.669036070842E+03   -0.19734E-01   -0.19826E-01  8424   0.272E-01 0.830E-03
CGA:   8    -0.669042677476E+03   -0.66066E-02   -0.66219E-02  8424   0.805E-02 0.178E-03
CGA:   9    -0.669044955018E+03   -0.22775E-02   -0.22618E-02  8424   0.282E-02-0.368E-03
CGA:  10    -0.669045811803E+03   -0.85678E-03   -0.85636E-03  8424   0.131E-02-0.200E-03
CGA:  11    -0.669046279091E+03   -0.46729E-03   -0.56391E-03  8424   0.129E-02-0.680E-03
CGA:  12    -0.669046519611E+03   -0.24052E-03   -0.24421E-03  8424   0.275E-03 0.263E-04
CGA:  13    -0.669046701800E+03   -0.18219E-03    0.29659E-02  8424   0.167E-03 0.963E-05
CGA:  14    -0.669046893784E+03   -0.19198E-03    0.37417E-04  8424   0.125E-03 0.566E-04
CGA:  15    -0.669047118329E+03   -0.22454E-03    0.24246E-04  8424   0.946E-04 0.102E-03
CGA:  16    -0.669047249032E+03   -0.13070E-03    0.13057E-04  8424   0.833E-04 0.305E-04
CGA:  17    -0.669047405316E+03   -0.15628E-03    0.14487E-04  8424   0.621E-04 0.672E-04
CGA:  18    -0.669047509595E+03   -0.10428E-03    0.61301E-05  8424   0.474E-04 0.382E-04
CGA:  19    -0.669047584706E+03   -0.75112E-04    0.51468E-05  8424   0.503E-04 0.355E-04
CGA:  20    -0.669047695293E+03   -0.11059E-03    0.33146E-05  8424   0.666E-04 0.244E-04
CGA:  21    -0.669047893821E+03   -0.19853E-03    0.74078E-05  8424   0.418E-04 0.904E-04
CGA:  22    -0.669047962890E+03   -0.69069E-04    0.42357E-05  8424   0.461E-04 0.291E-04
CGA:  23    -0.669048070289E+03   -0.10740E-03    0.27938E-05  8424   0.609E-04 0.186E-04
CGA:  24    -0.669048260246E+03   -0.18996E-03    0.55444E-05  8424   0.412E-04 0.796E-04
CGA:  25    -0.669048319636E+03   -0.59390E-04    0.52729E-05  8424   0.482E-04 0.199E-04
CGA:  26    -0.669048503053E+03   -0.18342E-03    0.37926E-05  8424   0.372E-04 0.662E-04
CGA:  27    -0.669048594784E+03   -0.91730E-04    0.20909E-05  8424   0.359E-04 0.219E-04
CGA:  28    -0.669048654946E+03   -0.60162E-04    0.35421E-05  8424   0.372E-04 0.204E-04
CGA:  29    -0.669048753983E+03   -0.99038E-04    0.18887E-05  8424   0.428E-04 0.156E-04
CGA:  30    -0.669048914602E+03   -0.16062E-03    0.31112E-05  8424   0.341E-04 0.574E-04
CGA:  31    -0.669048969038E+03   -0.54436E-04    0.36662E-05  8424   0.354E-04 0.161E-04
CGA:  32    -0.669049124503E+03   -0.15546E-03    0.22855E-05  8424   0.314E-04 0.490E-04
CGA:  33    -0.669049210258E+03   -0.85755E-04    0.15333E-05  8424   0.282E-04 0.171E-04
CGA:  34    -0.669049265827E+03   -0.55569E-04    0.21776E-05  8424   0.277E-04 0.176E-04
CGA:  35    -0.669049354341E+03   -0.88514E-04    0.11115E-05  8424   0.292E-04 0.159E-04
CGA:  36    -0.669049401024E+03   -0.46683E-04    0.31213E-05  8424   0.331E-04 0.123E-04
CGA:  37    -0.669049552062E+03   -0.15104E-03    0.18686E-05  8424   0.268E-04 0.451E-04
CGA:  38    -0.669049640907E+03   -0.88845E-04    0.10287E-05  8424   0.301E-04 0.116E-04
CGA:  39    -0.669049780591E+03   -0.13968E-03    0.17015E-05  8424   0.246E-04 0.412E-04
CGA:  40    -0.669049825369E+03   -0.44778E-04    0.21358E-05  8424   0.263E-04 0.115E-04
CGA:  41    -0.669049963745E+03   -0.13838E-03    0.13444E-05  8424   0.226E-04 0.367E-04
CGA:  42    -0.669050043034E+03   -0.79290E-04    0.80378E-06  8424   0.220E-04 0.118E-04
CGA:  43    -0.669050085704E+03   -0.42670E-04    0.17340E-05  8424   0.232E-04 0.107E-04
CGA:  44    -0.669050216532E+03   -0.13083E-03    0.11149E-05  8424   0.201E-04 0.328E-04
CGA:  45    -0.669050293118E+03   -0.76587E-04    0.65245E-06  8424   0.198E-04 0.109E-04
CGA:  46    -0.669050333436E+03   -0.40318E-04    0.14449E-05  8424   0.208E-04 0.977E-05
CGA:  47    -0.669050458525E+03   -0.12509E-03    0.94136E-06  8424   0.181E-04 0.298E-04
CGA:  48    -0.669050532782E+03   -0.74257E-04    0.53439E-06  8424   0.180E-04 0.979E-05
CGA:  49    -0.669050570214E+03   -0.37432E-04    0.12865E-05  8424   0.192E-04 0.856E-05
CGA:  50    -0.669050690801E+03   -0.12059E-03    0.80479E-06  8424   0.165E-04 0.272E-04
CGA:  51    -0.669050763392E+03   -0.72591E-04    0.45249E-06  8424   0.169E-04 0.850E-05
CGA:  52    -0.669050797126E+03   -0.33735E-04    0.12723E-05  8424   0.184E-04 0.699E-05
CGA:  53    -0.669050914071E+03   -0.11694E-03    0.69514E-06  8424   0.157E-04 0.250E-04
CGA:  54    -0.669050986155E+03   -0.72085E-04    0.40564E-06  8424   0.165E-04 0.677E-05
CGA:  55    -0.669051091268E+03   -0.10511E-03    0.63546E-06  8424   0.145E-04 0.225E-04
CGA:  56    -0.669051126556E+03   -0.35288E-04    0.82922E-06  8424   0.141E-04 0.692E-05
CGA:  57    -0.669051230095E+03   -0.10354E-03    0.49107E-06  8424   0.134E-04 0.198E-04
CGA:  58    -0.669051291189E+03   -0.61094E-04    0.34974E-06  8424   0.118E-04 0.716E-05
CGA:  59    -0.669051327901E+03   -0.36711E-04    0.49205E-06  8424   0.113E-04 0.769E-05
CGA:  60    -0.669051389909E+03   -0.62008E-04    0.23726E-06  8424   0.113E-04 0.748E-05
CGA:  61    -0.669051422394E+03   -0.32485E-04    0.51895E-06  8424   0.119E-04 0.676E-05
CGA:  62    -0.669051487843E+03   -0.65450E-04    0.24874E-06  8424   0.131E-04 0.551E-05
CGA:  63    -0.669051585540E+03   -0.97696E-04    0.43931E-06  8424   0.109E-04 0.185E-04
CGA:  64    -0.669051613728E+03   -0.28189E-04    0.57131E-06  8424   0.121E-04 0.524E-05
CGA:  65    -0.669051713020E+03   -0.99291E-04    0.37430E-06  8424   0.991E-05 0.173E-04
CGA:  66    -0.669051773536E+03   -0.60516E-04    0.18594E-06  8424   0.109E-04 0.514E-05
CGA:  67    -0.669051796316E+03   -0.22780E-04    0.76866E-06  8424   0.130E-04 0.333E-05
CGA:  68    -0.669051894725E+03   -0.98409E-04    0.33616E-06  8424   0.106E-04 0.163E-04
CGA:  69    -0.669051958537E+03   -0.63812E-04    0.20179E-06  8424   0.127E-04 0.254E-05
CGA:  70    -0.669052049135E+03   -0.90598E-04    0.31608E-06  8424   0.107E-04 0.151E-04
CGA:  71    -0.669052067239E+03   -0.18104E-04    0.10344E-05  8424   0.126E-04 0.155E-05
CGA:  72    -0.669052158861E+03   -0.91622E-04    0.25823E-06  8424   0.111E-04 0.137E-04
CGA:  73    -0.669052220705E+03   -0.61844E-04    0.23237E-06  8424   0.122E-04 0.567E-06
CGA:  74    -0.669052299041E+03   -0.78336E-04    0.23821E-06  8424   0.113E-04 0.119E-04
CGA:  75    -0.669052317969E+03   -0.18928E-04    0.11314E-05  8424   0.105E-04 0.413E-06
CGA:  76    -0.669052395697E+03   -0.77728E-04    0.17252E-06  8424   0.101E-04 0.101E-04
CGA:  77    -0.669052444926E+03   -0.49229E-04    0.24361E-06  8424   0.779E-05 0.175E-05
CGA:  78    -0.669052506338E+03   -0.61412E-04    0.15427E-06  8424   0.802E-05 0.869E-05
CGA:  79    -0.669052536781E+03   -0.30443E-04    0.26050E-06  8424   0.590E-05 0.314E-05
CGA:  80    -0.669052598932E+03   -0.62151E-04    0.12138E-06  8424   0.670E-05 0.786E-05
CGA:  81    -0.669052636865E+03   -0.37933E-04    0.13654E-06  8424   0.504E-05 0.363E-05
CGA:  82    -0.669052668631E+03   -0.31766E-04    0.91260E-07  8424   0.459E-05 0.427E-05
CGA:  83    -0.669052704478E+03   -0.35847E-04    0.65473E-07  8424   0.442E-05 0.434E-05
CGA:  84    -0.669052736073E+03   -0.31595E-04    0.69499E-07  8424   0.431E-05 0.429E-05
CGA:  85    -0.669052771214E+03   -0.35141E-04    0.58780E-07  8424   0.422E-05 0.420E-05
CGA:  86    -0.669052801803E+03   -0.30590E-04    0.65515E-07  8424   0.415E-05 0.411E-05
CGA:  87    -0.669052837193E+03   -0.35390E-04    0.53893E-07  8424   0.410E-05 0.400E-05
CGA:  88    -0.669052865389E+03   -0.28196E-04    0.67408E-07  8424   0.411E-05 0.385E-05
CGA:  89    -0.669052903028E+03   -0.37638E-04    0.49469E-07  8424   0.426E-05 0.362E-05
CGA:  90    -0.669052925687E+03   -0.22660E-04    0.93248E-07  8424   0.474E-05 0.317E-05
CGA:  91    -0.669052969959E+03   -0.44272E-04    0.55824E-07  8424   0.604E-05 0.221E-05
CGA:  92    -0.669053037277E+03   -0.67318E-04    0.13022E-06  8424   0.418E-05 0.843E-05
CGA:  93    -0.669053055453E+03   -0.18177E-04    0.11567E-06  8424   0.506E-05 0.241E-05
CGA:  94    -0.669053102723E+03   -0.47270E-04    0.59535E-07  8424   0.733E-05 0.838E-06
CGA:  95    -0.669053173673E+03   -0.70950E-04    0.11430E-06  8424   0.583E-05 0.826E-05
CGA:  96    -0.669053178414E+03   -0.47410E-05    0.34400E-05  8424   0.946E-05-0.956E-06
   9 F= -.66905318E+03 E0= -.66905318E+03  d E =-.875547E+00  mag=     4.0000
       N       E                     dE             d eps       ncg     rms          ort
SDA:   1    -0.667869853289E+03    0.11833E+01    0.00000E+00  8424   0.378E+01 0.000E+00
CGA:   2    -0.668639317330E+03   -0.76946E+00   -0.77004E+00  8424   0.154E+01 0.252E-02
CGA:   3    -0.668966909445E+03   -0.32759E+00   -0.32744E+00  8424   0.499E+00-0.114E-02
CGA:   4    -0.669049044778E+03   -0.82135E-01   -0.82142E-01  8424   0.122E+00-0.741E-04
CGA:   5    -0.669070116215E+03   -0.21071E-01   -0.21087E-01  8424   0.253E-01 0.830E-04
CGA:   6    -0.669075165451E+03   -0.50492E-02   -0.50363E-02  8424   0.570E-02-0.137E-03
CGA:   7    -0.669076396227E+03   -0.12308E-02   -0.12417E-02  8424   0.166E-02 0.151E-03
CGA:   8    -0.669076798824E+03   -0.40260E-03   -0.40514E-03  8424   0.481E-03 0.518E-04
CGA:   9    -0.669076928767E+03   -0.12994E-03   -0.13050E-03  8424   0.159E-03 0.256E-04
CGA:  10    -0.669076976260E+03   -0.47493E-04   -0.47486E-04  8424   0.686E-04 0.260E-04
CGA:  11    -0.669076999295E+03   -0.23035E-04   -0.22955E-04  8424   0.313E-04 0.196E-04
CGA:  12    -0.669077006122E+03   -0.68264E-05   -0.84998E-05  8424   0.187E-04 0.227E-04
  10 F= -.66907701E+03 E0= -.66907701E+03  d E =-.238277E-01  mag=     4.0000
       N       E                     dE             d eps       ncg     rms          ort
SDA:   1    -0.668118205855E+03    0.95879E+00    0.00000E+00  8424   0.249E+01 0.000E+00
CGA:   2    -0.668750691011E+03   -0.63249E+00   -0.63251E+00  8424   0.131E+01 0.535E-03
CGA:   3    -0.669003338455E+03   -0.25265E+00   -0.25261E+00  8424   0.314E+00-0.576E-03
CGA:   4    -0.669052736825E+03   -0.49398E-01   -0.49394E-01  8424   0.713E-01-0.965E-04
CGA:   5    -0.669065014192E+03   -0.12277E-01   -0.12274E-01  8424   0.150E-01-0.536E-04
CGA:   6    -0.669068081140E+03   -0.30669E-02   -0.30671E-02  8424   0.359E-02 0.115E-05
CGA:   7    -0.669068847690E+03   -0.76655E-03   -0.77141E-03  8424   0.100E-02 0.112E-03
CGA:   8    -0.669069089568E+03   -0.24188E-03   -0.24348E-03  8424   0.321E-03 0.768E-04
CGA:   9    -0.669069169796E+03   -0.80227E-04   -0.81715E-04  8424   0.117E-03 0.790E-04
CGA:  10    -0.669069201636E+03   -0.31840E-04   -0.33430E-04  8424   0.609E-04 0.610E-04
CGA:  11    -0.669069211503E+03   -0.98671E-05   -0.11923E-04  8424   0.328E-04 0.357E-04
  11 F= -.66906921E+03 E0= -.66906921E+03  d E =0.779462E-02  mag=     4.0000
       N       E                     dE             d eps       ncg     rms          ort
SDA:   1    -0.638984061267E+03    0.30085E+02    0.00000E+00  8424   0.763E+02 0.000E+00
CGA:   2    -0.659063575001E+03   -0.20080E+02   -0.20074E+02  8424   0.414E+02 0.163E+00
CGA:   3    -0.666976080879E+03   -0.79125E+01   -0.79098E+01  8424   0.930E+01-0.828E-03
CGA:   4    -0.668438326046E+03   -0.14622E+01   -0.14631E+01  8424   0.210E+01 0.958E-03
CGA:   5    -0.668797880470E+03   -0.35955E+00   -0.35971E+00  8424   0.452E+00 0.725E-03
CGA:   6    -0.668892630002E+03   -0.94750E-01   -0.94763E-01  8424   0.111E+00 0.526E-03
CGA:   7    -0.668917354028E+03   -0.24724E-01   -0.24727E-01  8424   0.327E-01 0.193E-03
CGA:   8    -0.668925612184E+03   -0.82582E-02   -0.82455E-02  8424   0.112E-01 0.695E-03
CGA:   9    -0.668928916883E+03   -0.33047E-02   -0.33062E-02  8424   0.435E-02-0.286E-04
CGA:  10    -0.668930241744E+03   -0.13249E-02   -0.13126E-02  8424   0.165E-02 0.187E-03
CGA:  11    -0.668930706401E+03   -0.46466E-03   -0.46176E-03  8424   0.490E-03 0.104E-03
CGA:  12    -0.668930792467E+03   -0.86065E-04   -0.96564E-04  8424   0.168E-03 0.184E-03
CGA:  13    -0.668930820790E+03   -0.28324E-04   -0.37630E-04  8424   0.891E-04 0.121E-03
CGA:  14    -0.668930828501E+03   -0.77107E-05   -0.13427E-04  8424   0.617E-04 0.673E-04
  12 F= -.66893083E+03 E0= -.66893083E+03  d E =0.138383E+00  mag=     4.0000
       N       E                     dE             d eps       ncg     rms          ort
SDA:   1    -0.591217628334E+03    0.77713E+02    0.00000E+00  8424   0.278E+03 0.000E+00
CGA:   2    -0.639163471697E+03   -0.47946E+02   -0.48392E+02  8424   0.935E+02 0.229E+01
CGA:   3    -0.660467964876E+03   -0.21304E+02   -0.21307E+02  8424   0.313E+02-0.359E+00
CGA:   4    -0.665813078117E+03   -0.53451E+01   -0.53493E+01  8424   0.824E+01 0.294E-01
CGA:   5    -0.667181058148E+03   -0.13680E+01   -0.13702E+01  8424   0.174E+01 0.193E-01
CGA:   6    -0.667538048949E+03   -0.35699E+00   -0.35695E+00  8424   0.408E+00-0.293E-02
CGA:   7    -0.667630211559E+03   -0.92163E-01   -0.92132E-01  8424   0.131E+00 0.312E-02
CGA:   8    -0.667662351620E+03   -0.32140E-01   -0.32115E-01  8424   0.409E-01 0.960E-03
CGA:   9    -0.667673989147E+03   -0.11638E-01   -0.11768E-01  8424   0.156E-01-0.195E-02
CGA:  10    -0.667678466111E+03   -0.44770E-02   -0.44995E-02  8424   0.651E-02-0.280E-03
CGA:  11    -0.667680621165E+03   -0.21551E-02   -0.23733E-02  8424   0.331E-02-0.150E-02
CGA:  12    -0.667681406037E+03   -0.78487E-03   -0.85603E-03  8424   0.165E-02-0.695E-03
CGA:  13    -0.667676457881E+03    0.49482E-02   -0.26741E-02  8424   0.340E-01-0.553E-02
CGA:  14    -0.667681957746E+03   -0.54999E-02   -0.56896E-02  8424   0.536E-02 0.728E-03
CGA:  15    -0.667683555239E+03   -0.15975E-02   -0.15314E-02  8424   0.130E-02-0.469E-03
CGA:  16    -0.667684051324E+03   -0.49609E-03   -0.49762E-03  8424   0.851E-03-0.270E-03
CGA:  17    -0.667683127949E+03    0.92338E-03   -0.87195E-03  8424   0.120E-01-0.205E-02
CGA:  18    -0.667684842193E+03   -0.17142E-02   -0.17430E-02  8424   0.129E-02 0.952E-04
CGA:  19    -0.667685433272E+03   -0.59108E-03   -0.59914E-03  8424   0.898E-03-0.442E-03
CGA:  20    -0.667684064117E+03    0.13692E-02   -0.82982E-03  8424   0.143E-01-0.229E-02
CGA:  21    -0.667686106255E+03   -0.20421E-02   -0.21117E-02  8424   0.162E-02 0.265E-03
CGA:  22    -0.667686745978E+03   -0.63972E-03   -0.60667E-03  8424   0.119E-02-0.309E-03
CGA:  23    -0.667687088173E+03   -0.34220E-03   -0.31452E-03  8424   0.320E-03-0.195E-03
CGA:  24    -0.667687404342E+03   -0.31617E-03    0.22260E-03  8424   0.332E-03-0.869E-04
CGA:  25    -0.667687742367E+03   -0.33802E-03    0.10864E-03  8424   0.371E-03-0.878E-04
CGA:  26    -0.667688404649E+03   -0.66228E-03    0.38600E-04  8424   0.306E-03 0.413E-05
CGA:  27    -0.667689104809E+03   -0.70016E-03    0.49175E-04  8424   0.248E-03 0.529E-04
CGA:  28    -0.667689791300E+03   -0.68649E-03    0.43298E-04  8424   0.201E-03 0.877E-04
CGA:  29    -0.667690522925E+03   -0.73163E-03    0.32698E-04  8424   0.244E-03 0.325E-04
CGA:  30    -0.667691442685E+03   -0.91976E-03    0.26182E-04  8424   0.189E-03 0.123E-03
CGA:  31    -0.667691516883E+03   -0.74198E-04   -0.15175E-03  8424   0.728E-03-0.227E-03
CGA:  32    -0.667691692951E+03   -0.17607E-03   -0.15661E-03  8424   0.123E-03-0.742E-04
CGA:  33    -0.667691828978E+03   -0.13603E-03    0.79703E-04  8424   0.266E-03-0.865E-04
CGA:  34    -0.667691856667E+03   -0.27689E-04   -0.37359E-04  8424   0.382E-04 0.300E-04
CGA:  35    -0.667691954577E+03   -0.97910E-04    0.61208E-05  8424   0.597E-04 0.125E-04
CGA:  36    -0.667692216770E+03   -0.26219E-03    0.66201E-05  8424   0.101E-03 0.488E-04
CGA:  37    -0.667692257829E+03   -0.41060E-04   -0.38178E-04  8424   0.132E-03-0.408E-04
CGA:  38    -0.667692460233E+03   -0.20240E-03    0.92638E-05  8424   0.180E-03-0.146E-04
CGA:  39    -0.667692841537E+03   -0.38130E-03    0.21433E-04  8424   0.222E-03 0.624E-04
CGA:  40    -0.667693250417E+03   -0.40888E-03    0.12566E-03  8424   0.467E-03-0.578E-04
CGA:  41    -0.667694316595E+03   -0.10662E-02    0.31290E-04  8424   0.811E-03 0.131E-03
CGA:  42    -0.667696331899E+03   -0.20153E-02    0.19666E-03  8424   0.240E-02-0.487E-03
CGA:  43    -0.667696580225E+03   -0.24833E-03   -0.32910E-03  8424   0.285E-03 0.269E-03
CGA:  44    -0.667696674834E+03   -0.94609E-04   -0.98956E-04  8424   0.970E-04 0.357E-04
CGA:  45    -0.667696720508E+03   -0.45673E-04   -0.49879E-04  8424   0.356E-03-0.131E-03
CGA:  46    -0.667696731441E+03   -0.10933E-04   -0.39018E-04  8424   0.522E-04 0.890E-04
CGA:  47    -0.667696731272E+03    0.16956E-06   -0.87408E-05  8424   0.412E-04 0.320E-04
CGA:  48    -0.667696769352E+03   -0.38081E-04    0.49906E-04  8424   0.675E-04 0.551E-05
CGA:  49    -0.667696794983E+03   -0.25631E-04   -0.27391E-04  8424   0.449E-04 0.446E-04
CGA:  50    -0.667696813247E+03   -0.18264E-04   -0.18095E-04  8424   0.290E-04 0.204E-04
CGA:  51    -0.667696849599E+03   -0.36352E-04    0.91231E-04  8424   0.422E-04 0.283E-04
CGA:  52    -0.667696851085E+03   -0.14861E-05   -0.71778E-05  8424   0.287E-04 0.252E-04
CGA:  53    -0.667696878467E+03   -0.27381E-04    0.22911E-04  8424   0.344E-04 0.200E-04
CGA:  54    -0.667696877871E+03    0.59537E-06   -0.48123E-05  8424   0.250E-04 0.221E-04
CGA:  55    -0.667696899924E+03   -0.22053E-04    0.24866E-04  8424   0.276E-04 0.231E-04
CGA:  56    -0.667696903261E+03   -0.33364E-05   -0.63435E-05  8424   0.283E-04 0.211E-04
CGA:  57    -0.667696931077E+03   -0.27817E-04    0.14915E-04  8424   0.463E-04 0.155E-04
CGA:  58    -0.667696929634E+03    0.14435E-05   -0.49311E-05  8424   0.246E-04 0.247E-04
CGA:  59    -0.667697038426E+03   -0.10879E-03    0.12212E-02  8424   0.253E-04 0.248E-04
CGA:  60    -0.667697072090E+03   -0.33664E-04    0.21314E-03  8424   0.289E-04 0.243E-04
CGA:  61    -0.667697077915E+03   -0.58258E-05   -0.10528E-04  8424   0.449E-04 0.168E-04
CGA:  62    -0.667697106868E+03   -0.28952E-04   -0.24965E-04  8424   0.364E-03-0.558E-04
CGA:  63    -0.667697119686E+03   -0.12818E-04   -0.36664E-04  8424   0.272E-04 0.455E-04
CGA:  64    -0.667697121819E+03   -0.21329E-05   -0.76253E-05  8424   0.468E-04 0.157E-04
CGA:  65    -0.667697149536E+03   -0.27717E-04   -0.24835E-04  8424   0.352E-03-0.577E-04
CGA:  66    -0.667697162838E+03   -0.13303E-04   -0.35448E-04  8424   0.273E-04 0.463E-04
CGA:  67    -0.667697164881E+03   -0.20429E-05   -0.72571E-05  8424   0.451E-04 0.162E-04
CGA:  68    -0.667697187412E+03   -0.22531E-04   -0.27934E-04  8424   0.464E-03-0.662E-04
CGA:  69    -0.667697209715E+03   -0.22304E-04   -0.46520E-04  8424   0.281E-04 0.545E-04
CGA:  70    -0.667697211620E+03   -0.19041E-05   -0.69050E-05  8424   0.420E-04 0.166E-04
CGA:  71    -0.667697221490E+03   -0.98708E-05   -0.34071E-04  8424   0.715E-03-0.795E-04
CGA:  72    -0.667697264758E+03   -0.43268E-04   -0.72066E-04  8424   0.291E-04 0.680E-04
CGA:  73    -0.667697266694E+03   -0.19356E-05   -0.67995E-05  8424   0.396E-04 0.169E-04
CGA:  74    -0.667697258527E+03    0.81669E-05   -0.40912E-04  8424   0.102E-02-0.899E-04
CGA:  75    -0.667697329741E+03   -0.71214E-04   -0.10406E-03  8424   0.297E-04 0.789E-04
CGA:  76    -0.667697331570E+03   -0.18287E-05   -0.67886E-05  8424   0.377E-04 0.177E-04
CGA:  77    -0.667697291899E+03    0.39670E-04   -0.50808E-04  8424   0.150E-02-0.104E-03
CGA:  78    -0.667697409346E+03   -0.11745E-03   -0.15695E-03  8424   0.305E-04 0.924E-04
CGA:  79    -0.667697410095E+03   -0.74925E-06   -0.64789E-05  8424   0.341E-04 0.190E-04
CGA:  80    -0.667697023422E+03    0.38667E-03   -0.20808E-03  8424   0.584E-02-0.190E-03
CGA:  81    -0.667697572935E+03   -0.54951E-03   -0.64946E-03  8424   0.356E-04 0.100E-03
CGA:  82    -0.667697570119E+03    0.28164E-05   -0.79014E-05  8424   0.338E-04 0.170E-04
CGA:  83    -0.667697701431E+03   -0.13131E-03   -0.88761E-04  8424   0.137E-03 0.423E-04
CGA:  84    -0.667697739494E+03   -0.38063E-04   -0.26221E-04  8424   0.491E-04-0.178E-04
CGA:  85    -0.667697757258E+03   -0.17765E-04   -0.22547E-04  8424   0.803E-04 0.154E-04
CGA:  86    -0.667697850948E+03   -0.93690E-04   -0.91666E-04  8424   0.200E-03 0.344E-04
CGA:  87    -0.667698284248E+03   -0.43330E-03   -0.41205E-03  8424   0.196E-02 0.372E-05
CGA:  88    -0.667650121379E+03    0.48163E-01   -0.62615E-02  8424   0.123E+00-0.290E-01
CGA:  89    -0.667656170892E+03   -0.60495E-02   -0.28012E-01  8424   0.125E+00 0.127E-01
CGA:  90    -0.666531162537E+03    0.11250E+01   -0.10801E-01  8424   0.590E+01 0.316E+00
CGA:  91    -0.654498755956E+03    0.12032E+02   -0.11531E+01  8424   0.637E+02 0.421E+01
CGA:  92    -0.635592757331E+03    0.18906E+02   -0.21112E+02  8424   0.151E+03 0.205E+02
CGA:  93    -0.619116941415E+03    0.16476E+02   -0.63189E+02  8424   0.131E+03 0.131E+02
CGA:  94    -0.586982625557E+03    0.32134E+02   -0.35162E+02  8424   0.197E+03 0.420E+02
CGA:  95    -0.579655755110E+03    0.73269E+01   -0.70080E+02  8424   0.195E+03 0.874E+02
CGA:  96    -0.590260943432E+03   -0.10605E+02   -0.67585E+02  8424   0.164E+03 0.800E+02
CGA:  97    -0.599906330560E+03   -0.96454E+01   -0.61170E+02  8424   0.125E+03 0.686E+02
CGA:  98    -0.621559443636E+03   -0.21653E+02   -0.45079E+02  8424   0.760E+02 0.338E+02
CGA:  99    -0.633724453687E+03   -0.12165E+02   -0.26863E+02  8424   0.509E+02 0.355E+02
CGA: 100    -0.647081800886E+03   -0.13357E+02   -0.20956E+02  8424   0.260E+02 0.157E+02
CGA: 101    -0.654651757973E+03   -0.75700E+01   -0.11128E+02  8424   0.125E+02 0.471E+01
CGA: 102    -0.659043417836E+03   -0.43917E+01   -0.55470E+01  8424   0.548E+01 0.121E+01
CGA: 103    -0.661945108123E+03   -0.29017E+01   -0.30212E+01  8424   0.314E+01 0.653E+00
CGA: 104    -0.663457779152E+03   -0.15127E+01   -0.14676E+01  8424   0.342E+01 0.181E+00
CGA: 105    -0.664492103442E+03   -0.10343E+01   -0.10029E+01  8424   0.139E+01 0.224E+00
CGA: 106    -0.665170874064E+03   -0.67877E+00   -0.64482E+00  8424   0.211E+01-0.910E-02
CGA: 107    -0.665524885554E+03   -0.35401E+00   -0.30695E+00  8424   0.129E+01 0.291E+00
CGA: 108    -0.665757012698E+03   -0.23213E+00   -0.20194E+00  8424   0.120E+01 0.190E+00
CGA: 109    -0.666029116435E+03   -0.27210E+00   -0.23765E+00  8424   0.156E+01 0.135E+00
CGA: 110    -0.666233319730E+03   -0.20420E+00   -0.18936E+00  8424   0.105E+01 0.734E-01
CGA: 111    -0.666343516030E+03   -0.11020E+00   -0.10164E+00  8424   0.778E+00 0.448E-01
CGA: 112    -0.666444536519E+03   -0.10102E+00   -0.90435E-01  8424   0.902E+00 0.491E-01
CGA: 113    -0.666555131971E+03   -0.11060E+00   -0.98224E-01  8424   0.883E+00 0.697E-01
CGA: 114    -0.666638054723E+03   -0.82923E-01   -0.73834E-01  8424   0.643E+00 0.776E-01
CGA: 115    -0.666698453974E+03   -0.60399E-01   -0.53914E-01  8424   0.580E+00 0.571E-01
CGA: 116    -0.666759191842E+03   -0.60738E-01   -0.54501E-01  8424   0.677E+00 0.468E-01
CGA: 117    -0.666821700956E+03   -0.62509E-01   -0.56925E-01  8424   0.686E+00 0.475E-01
CGA: 118    -0.666873062770E+03   -0.51362E-01   -0.48241E-01  8424   0.557E+00 0.322E-01
CGA: 119    -0.666911904695E+03   -0.38842E-01   -0.36851E-01  8424   0.486E+00 0.225E-01
CGA: 120    -0.666948109475E+03   -0.36205E-01   -0.34170E-01  8424   0.518E+00 0.235E-01
CGA: 121    -0.666986650187E+03   -0.38541E-01   -0.36214E-01  8424   0.560E+00 0.320E-01
SDA: 122    -0.667023534541E+03   -0.36884E-01   -0.34624E-01  8424   0.516E+00 0.426E-01
CGA: 123    -0.667292837709E+03   -0.26930E+00   -0.27623E+00  8424   0.124E+01-0.324E-01
CGA: 124    -0.667622507986E+03   -0.32967E+00   -0.32831E+00  8424   0.359E+00-0.176E-01
CGA: 125    -0.667667816153E+03   -0.45308E-01   -0.45262E-01  8424   0.705E-01 0.602E-03
CGA: 126    -0.667684036086E+03   -0.16220E-01   -0.16245E-01  8424   0.431E-01 0.396E-03
CGA: 127    -0.667692807861E+03   -0.87718E-02   -0.87741E-02  8424   0.193E-01 0.133E-03
CGA: 128    -0.667697599481E+03   -0.47916E-02   -0.47754E-02  8424   0.129E-01-0.302E-03
CGA: 129    -0.667700872716E+03   -0.32732E-02   -0.32669E-02  8424   0.824E-02-0.127E-03
CGA: 130    -0.667702617541E+03   -0.17448E-02   -0.17519E-02  8424   0.383E-02 0.130E-03
CGA: 131    -0.667703528858E+03   -0.91132E-03   -0.90864E-03  8424   0.229E-02-0.403E-04
CGA: 132    -0.667704065824E+03   -0.53697E-03   -0.53074E-03  8424   0.903E-03-0.123E-03
CGA: 133    -0.667704225353E+03   -0.15953E-03   -0.16423E-03  8424   0.452E-03 0.534E-04
CGA: 134    -0.667704327827E+03   -0.10247E-03   -0.10725E-03  8424   0.303E-03 0.917E-04
CGA: 135    -0.667704411402E+03   -0.83575E-04   -0.83708E-04  8424   0.150E-03 0.317E-05
CGA: 136    -0.667704465999E+03   -0.54597E-04   -0.68356E-04  8424   0.237E-03-0.774E-04
CGA: 137    -0.667704485016E+03   -0.19016E-04   -0.31339E-04  8424   0.532E-04 0.833E-04
CGA: 138    -0.667704489649E+03   -0.46339E-05   -0.97499E-05  8424   0.334E-04 0.372E-04
CGA: 139    -0.667704426704E+03    0.62945E-04   -0.36454E-04  8424   0.756E-03-0.843E-04
CGA: 140    -0.667704495135E+03   -0.68431E-04   -0.10003E-03  8424   0.517E-04 0.901E-04
CGA: 141    -0.667704498899E+03   -0.37632E-05   -0.10740E-04  8424   0.268E-04 0.247E-04
CGA: 142    -0.667704508724E+03   -0.98256E-05   -0.10785E-04  8424   0.117E-04 0.521E-05
  13 F= -.66770451E+03 E0= -.66770451E+03  d E =0.122632E+01  mag=     4.0000
       N       E                     dE             d eps       ncg     rms          ort
SDA:   1    -0.656593415661E+03    0.11111E+02    0.00000E+00  8424   0.403E+02 0.000E+00
CGA:   2    -0.664366391142E+03   -0.77730E+01   -0.78252E+01  8424   0.154E+02-0.617E-01
CGA:   3    -0.667659015766E+03   -0.32926E+01   -0.32833E+01  8424   0.504E+01 0.331E-01
CGA:   4    -0.668513460121E+03   -0.85444E+00   -0.85551E+00  8424   0.130E+01 0.139E-02
CGA:   5    -0.668736456010E+03   -0.22300E+00   -0.22350E+00  8424   0.276E+00 0.265E-03
CGA:   6    -0.668791019719E+03   -0.54564E-01   -0.54336E-01  8424   0.609E-01-0.103E-02
CGA:   7    -0.668804548374E+03   -0.13529E-01   -0.13622E-01  8424   0.185E-01 0.557E-03
CGA:   8    -0.668808972832E+03   -0.44245E-02   -0.44607E-02  8424   0.543E-02 0.251E-03
CGA:   9    -0.668810473881E+03   -0.15010E-02   -0.14918E-02  8424   0.184E-02-0.909E-04
CGA:  10    -0.668810967211E+03   -0.49333E-03   -0.50669E-03  8424   0.706E-03 0.148E-03
CGA:  11    -0.668811239898E+03   -0.27269E-03   -0.27230E-03  8424   0.358E-03-0.510E-04
CGA:  12    -0.668811302024E+03   -0.62126E-04   -0.76578E-04  8424   0.150E-03 0.106E-03
CGA:  13    -0.668811338786E+03   -0.36762E-04   -0.46367E-04  8424   0.946E-04 0.791E-04
CGA:  14    -0.668811378518E+03   -0.39733E-04   -0.38450E-04  8424   0.890E-04 0.229E-04
CGA:  15    -0.668811387593E+03   -0.90748E-05   -0.22655E-04  8424   0.634E-04 0.896E-04
CGA:  16    -0.668811394242E+03   -0.66490E-05   -0.13038E-04  8424   0.437E-04 0.448E-04
CGA:  17    -0.668811402449E+03   -0.82069E-05   -0.11481E-04  8424   0.412E-04 0.418E-04
  14 F= -.66881140E+03 E0= -.66881140E+03  d E =-.110689E+01  mag=     4.0000
       N       E                     dE             d eps       ncg     rms          ort
SDA:   1    -0.659122080768E+03    0.96893E+01    0.00000E+00  8424   0.331E+02 0.000E+00
CGA:   2    -0.665457126404E+03   -0.63350E+01   -0.63585E+01  8424   0.125E+02 0.186E-02
CGA:   3    -0.668152709055E+03   -0.26956E+01   -0.26922E+01  8424   0.420E+01-0.225E-02
CGA:   4    -0.668860271563E+03   -0.70756E+00   -0.70812E+00  8424   0.108E+01 0.881E-03
CGA:   5    -0.669043918657E+03   -0.18365E+00   -0.18405E+00  8424   0.225E+00 0.180E-02
CGA:   6    -0.669088462220E+03   -0.44544E-01   -0.44504E-01  8424   0.497E-01-0.357E-03
CGA:   7    -0.669099321647E+03   -0.10859E-01   -0.10942E-01  8424   0.147E-01 0.106E-02
CGA:   8    -0.669102779118E+03   -0.34575E-02   -0.35022E-02  8424   0.416E-02 0.735E-03
CGA:   9    -0.669103851462E+03   -0.10723E-02   -0.10895E-02  8424   0.131E-02 0.413E-03
CGA:  10    -0.669104109878E+03   -0.25842E-03   -0.30079E-03  8424   0.517E-03 0.534E-03
CGA:  11    -0.669104177587E+03   -0.67708E-04   -0.11827E-03  8424   0.276E-03 0.412E-03
CGA:  12    -0.669104188123E+03   -0.10537E-04   -0.38981E-04  8424   0.179E-03 0.207E-03
CGA:  13    -0.669104176938E+03    0.11185E-04   -0.17682E-04  8424   0.156E-03 0.166E-03
CGA:  14    -0.669104164571E+03    0.12367E-04   -0.13685E-04  8424   0.142E-03 0.148E-03
CGA:  15    -0.669104151743E+03    0.12828E-04   -0.11168E-04  8424   0.132E-03 0.137E-03
CGA:  16    -0.669104138934E+03    0.12808E-04   -0.94716E-05  8424   0.125E-03 0.128E-03
CGA:  17    -0.669104126377E+03    0.12557E-04   -0.82385E-05  8424   0.119E-03 0.122E-03
CGA:  18    -0.669104114183E+03    0.12194E-04   -0.72920E-05  8424   0.114E-03 0.117E-03
CGA:  19    -0.669104102405E+03    0.11778E-04   -0.65366E-05  8424   0.110E-03 0.112E-03
CGA:  20    -0.669104091066E+03    0.11339E-04   -0.59157E-05  8424   0.107E-03 0.109E-03
CGA:  21    -0.669104080171E+03    0.10895E-04   -0.53940E-05  8424   0.105E-03 0.106E-03
CGA:  22    -0.669104069717E+03    0.10454E-04   -0.49484E-05  8424   0.102E-03 0.103E-03
CGA:  23    -0.669104059693E+03    0.10024E-04   -0.45640E-05  8424   0.100E-03 0.101E-03
CGA:  24    -0.669104050087E+03    0.96061E-05   -0.42267E-05  8424   0.982E-04 0.991E-04
  15 F= -.66910405E+03 E0= -.66910405E+03  d E =-.292648E+00  mag=     4.0000
       N       E                     dE             d eps       ncg     rms          ort
SDA:   1    -0.668992013631E+03    0.11205E+00    0.00000E+00  8424   0.346E+00 0.000E+00
CGA:   2    -0.669069325376E+03   -0.77312E-01   -0.77297E-01  8424   0.161E+00 0.229E-03
CGA:   3    -0.669102015787E+03   -0.32690E-01   -0.32667E-01  8424   0.463E-01 0.708E-03
CGA:   4    -0.669109413965E+03   -0.73982E-02   -0.74069E-02  8424   0.107E-01 0.671E-03
CGA:   5    -0.669111191042E+03   -0.17771E-02   -0.17821E-02  8424   0.219E-02 0.665E-03
CGA:   6    -0.669111565767E+03   -0.37473E-03   -0.37915E-03  8424   0.514E-03 0.537E-03
CGA:   7    -0.669111622940E+03   -0.57173E-04   -0.75437E-04  8424   0.233E-03 0.344E-03
CGA:   8    -0.669111627265E+03   -0.43251E-05   -0.19929E-04  8424   0.162E-03 0.188E-03
CGA:   9    -0.669111623051E+03    0.42136E-05   -0.10484E-04  8424   0.137E-03 0.148E-03
  16 F= -.66911162E+03 E0= -.66911162E+03  d E =-.757296E-02  mag=     4.0000
       N       E                     dE             d eps       ncg     rms          ort
SDA:   1    -0.666270046859E+03    0.28416E+01    0.00000E+00  8424   0.731E+01 0.000E+00
CGA:   2    -0.668195700809E+03   -0.19257E+01   -0.19259E+01  8424   0.381E+01-0.285E-02
CGA:   3    -0.668902019991E+03   -0.70632E+00   -0.70625E+00  8424   0.909E+00 0.168E-02
CGA:   4    -0.669046966992E+03   -0.14495E+00   -0.14495E+00  8424   0.215E+00 0.184E-02
CGA:   5    -0.669083777582E+03   -0.36811E-01   -0.36793E-01  8424   0.462E-01 0.172E-02
CGA:   6    -0.669092877279E+03   -0.90997E-02   -0.90558E-02  8424   0.107E-01 0.130E-02
CGA:   7    -0.669095243822E+03   -0.23665E-02   -0.23325E-02  8424   0.316E-02 0.700E-03
CGA:   8    -0.669095959033E+03   -0.71521E-03   -0.68724E-03  8424   0.966E-03 0.717E-03
CGA:   9    -0.669096134985E+03   -0.17595E-03   -0.18337E-03  8424   0.425E-03 0.595E-03
CGA:  10    -0.669096169557E+03   -0.34573E-04   -0.50018E-04  8424   0.264E-03 0.317E-03
CGA:  11    -0.669096174258E+03   -0.47009E-05   -0.23043E-04  8424   0.219E-03 0.239E-03
CGA:  12    -0.669096172566E+03    0.16923E-05   -0.16059E-04  8424   0.192E-03 0.204E-03
CGA:  13    -0.669096168116E+03    0.44501E-05   -0.12330E-04  8424   0.174E-03 0.183E-03
  17 F= -.66909617E+03 E0= -.66909617E+03  d E =0.154549E-01  mag=     4.0000
       N       E                     dE             d eps       ncg     rms          ort
SDA:   1    -0.666366012524E+03    0.27302E+01    0.00000E+00  8424   0.681E+01 0.000E+00
CGA:   2    -0.668203349985E+03   -0.18373E+01   -0.18377E+01  8424   0.373E+01-0.353E-02
[...]
CGA:  25    -0.669002998379E+03    0.10202E-04   -0.58405E-05  8424   0.211E-03 0.214E-03
CGA:  26    -0.669002988534E+03    0.98447E-05   -0.53241E-05  8424   0.206E-03 0.208E-03
  38 F= -.66900299E+03 E0= -.66900299E+03  d E =-.618748E+00  mag=     4.0000
       N       E                     dE             d eps       ncg     rms          ort
SDA:   1    -0.668079721105E+03    0.92328E+00    0.00000E+00  8424   0.262E+01 0.000E+00
CGA:   2    -0.668842753490E+03   -0.76303E+00   -0.76548E+00  8424   0.961E+00-0.117E-01
CGA:   3    -0.669022349332E+03   -0.17960E+00   -0.17917E+00  8424   0.271E+00 0.495E-02
CGA:   4    -0.669071356990E+03   -0.49008E-01   -0.48781E-01  8424   0.636E-01 0.305E-02
CGA:   5    -0.669081733267E+03   -0.10376E-01   -0.10170E-01  8424   0.128E-01 0.417E-02
CGA:   6    -0.669083966285E+03   -0.22330E-02   -0.20928E-02  8424   0.284E-02 0.337E-02
CGA:   7    -0.669084461009E+03   -0.49472E-03   -0.46569E-03  8424   0.128E-02 0.178E-02
CGA:   8    -0.669084586555E+03   -0.12555E-03   -0.13449E-03  8424   0.785E-03 0.944E-03
CGA:   9    -0.669084610271E+03   -0.23715E-04   -0.54841E-04  8424   0.649E-03 0.709E-03
CGA:  10    -0.669084614725E+03   -0.44546E-05   -0.37215E-04  8424   0.567E-03 0.604E-03
CGA:  11    -0.669084610579E+03    0.41464E-05   -0.27827E-04  8424   0.509E-03 0.535E-03
CGA:  12    -0.669084602028E+03    0.85505E-05   -0.21927E-04  8424   0.466E-03 0.485E-03
CGA:  13    -0.669084591119E+03    0.10909E-04   -0.17874E-04  8424   0.432E-03 0.447E-03
CGA:  14    -0.669084578966E+03    0.12153E-04   -0.14927E-04  8424   0.405E-03 0.417E-03
CGA:  15    -0.669084566221E+03    0.12746E-04   -0.12694E-04  8424   0.382E-03 0.392E-03
CGA:  16    -0.669084553279E+03    0.12942E-04   -0.10951E-04  8424   0.363E-03 0.371E-03
CGA:  17    -0.669084540388E+03    0.12890E-04   -0.95600E-05  8424   0.347E-03 0.354E-03
CGA:  18    -0.669084527708E+03    0.12680E-04   -0.84314E-05  8424   0.333E-03 0.339E-03
CGA:  19    -0.669084515335E+03    0.12373E-04   -0.75003E-05  8424   0.321E-03 0.326E-03
CGA:  20    -0.669084503330E+03    0.12005E-04   -0.67201E-05  8424   0.310E-03 0.315E-03
CGA:  21    -0.669084491728E+03    0.11602E-04   -0.60577E-05  8424   0.301E-03 0.305E-03
CGA:  22    -0.669084480547E+03    0.11181E-04   -0.54890E-05  8424   0.292E-03 0.296E-03
CGA:  23    -0.669084469794E+03    0.10753E-04   -0.49961E-05  8424   0.285E-03 0.288E-03
CGA:  24    -0.669084459470E+03    0.10324E-04   -0.45656E-05  8424   0.278E-03 0.281E-03
CGA:  25    -0.669084449569E+03    0.99009E-05   -0.41869E-05  8424   0.272E-03 0.274E-03
  39 F= -.66908445E+03 E0= -.66908445E+03  d E =-.814610E-01  mag=     4.0000
       N       E                     dE             d eps       ncg     rms          ort
SDA:   1    -0.652051018325E+03    0.17033E+02    0.00000E+00  8424   0.446E+02 0.000E+00
CGA:   2    -0.664863394403E+03   -0.12812E+02   -0.12813E+02  8424   0.170E+02 0.110E+00
CGA:   3    -0.667949957722E+03   -0.30866E+01   -0.30849E+01  8424   0.482E+01-0.181E-01
CGA:   4    -0.668857637713E+03   -0.90768E+00   -0.90903E+00  8424   0.106E+01-0.123E-01
CGA:   5    -0.669036150490E+03   -0.17851E+00   -0.17764E+00  8424   0.254E+00 0.103E-01
CGA:   6    -0.669081826422E+03   -0.45676E-01   -0.44145E-01  8424   0.569E-01 0.182E-01
CGA:   7    -0.669096928084E+03   -0.15102E-01   -0.13895E-01  8424   0.206E-01 0.888E-02
CGA:   8    -0.669102196721E+03   -0.52686E-02   -0.45821E-02  8424   0.759E-02 0.735E-02
CGA:   9    -0.669103689113E+03   -0.14924E-02   -0.13333E-02  8424   0.389E-02 0.610E-02
CGA:  10    -0.669104048066E+03   -0.35895E-03   -0.38063E-03  8424   0.265E-02 0.308E-02
CGA:  11    -0.669104195005E+03   -0.14694E-03   -0.20861E-03  8424   0.222E-02 0.241E-02
CGA:  12    -0.669104272960E+03   -0.77955E-04   -0.15104E-03  8424   0.196E-02 0.208E-02
CGA:  13    -0.669104314527E+03   -0.41567E-04   -0.11827E-03  8424   0.178E-02 0.186E-02
CGA:  14    -0.669104334099E+03   -0.19571E-04   -0.96560E-04  8424   0.164E-02 0.171E-02
CGA:  15    -0.669104339440E+03   -0.53418E-05   -0.81011E-04  8424   0.153E-02 0.158E-02
CGA:  16    -0.669104335213E+03    0.42271E-05   -0.69303E-04  8424   0.144E-02 0.148E-02
CGA:  17    -0.669104324408E+03    0.10806E-04   -0.60174E-04  8424   0.137E-02 0.140E-02
CGA:  18    -0.669104309033E+03    0.15375E-04   -0.52867E-04  8424   0.131E-02 0.133E-02
CGA:  19    -0.669104290484E+03    0.18548E-04   -0.46896E-04  8424   0.125E-02 0.128E-02
CGA:  20    -0.669104269758E+03    0.20727E-04   -0.41934E-04  8424   0.120E-02 0.123E-02
CGA:  21    -0.669104247576E+03    0.22181E-04   -0.37755E-04  8424   0.116E-02 0.118E-02
CGA:  22    -0.669104224474E+03    0.23103E-04   -0.34192E-04  8424   0.113E-02 0.114E-02
CGA:  23    -0.669104200846E+03    0.23627E-04   -0.31123E-04  8424   0.109E-02 0.111E-02
CGA:  24    -0.669104176993E+03    0.23853E-04   -0.28457E-04  8424   0.106E-02 0.108E-02
CGA:  25    -0.669104153139E+03    0.23854E-04   -0.26123E-04  8424   0.104E-02 0.105E-02
CGA:  26    -0.669104129455E+03    0.23684E-04   -0.24066E-04  8424   0.101E-02 0.103E-02
CGA:  27    -0.669104106069E+03    0.23385E-04   -0.22242E-04  8424   0.993E-03 0.100E-02
CGA:  28    -0.669104083080E+03    0.22990E-04   -0.20615E-04  8424   0.974E-03 0.983E-03
CGA:  29    -0.669104060558E+03    0.22521E-04   -0.19156E-04  8424   0.956E-03 0.964E-03
CGA:  30    -0.669104038558E+03    0.22001E-04   -0.17843E-04  8424   0.939E-03 0.947E-03
CGA:  31    -0.669104017116E+03    0.21442E-04   -0.16656E-04  8424   0.924E-03 0.931E-03
CGA:  32    -0.669103996258E+03    0.20857E-04   -0.15578E-04  8424   0.910E-03 0.917E-03
CGA:  33    -0.669103976002E+03    0.20256E-04   -0.14596E-04  8424   0.897E-03 0.903E-03
CGA:  34    -0.669103956356E+03    0.19646E-04   -0.13698E-04  8424   0.885E-03 0.891E-03
CGA:  35    -0.669103937324E+03    0.19032E-04   -0.12876E-04  8424   0.874E-03 0.880E-03
CGA:  36    -0.669103918905E+03    0.18419E-04   -0.12120E-04  8424   0.864E-03 0.869E-03
CGA:  37    -0.669103901094E+03    0.17811E-04   -0.11423E-04  8424   0.855E-03 0.859E-03
CGA:  38    -0.669103883883E+03    0.17211E-04   -0.10780E-04  8424   0.846E-03 0.850E-03
CGA:  39    -0.669103867262E+03    0.16621E-04   -0.10185E-04  8424   0.838E-03 0.841E-03
CGA:  40    -0.669103851219E+03    0.16043E-04   -0.96330E-05  8424   0.830E-03 0.834E-03
CGA:  41    -0.669103835741E+03    0.15478E-04   -0.91203E-05  8424   0.823E-03 0.826E-03
CGA:  42    -0.669103820814E+03    0.14927E-04   -0.86427E-05  8424   0.816E-03 0.819E-03
CGA:  43    -0.669103806424E+03    0.14391E-04   -0.81968E-05  8424   0.810E-03 0.813E-03
CGA:  44    -0.669103792554E+03    0.13870E-04   -0.77798E-05  8424   0.804E-03 0.807E-03
CGA:  45    -0.669103779190E+03    0.13365E-04   -0.73892E-05  8424   0.798E-03 0.801E-03
CGA:  46    -0.669103766314E+03    0.12875E-04   -0.70228E-05  8424   0.793E-03 0.796E-03
CGA:  47    -0.669103753913E+03    0.12402E-04   -0.66787E-05  8424   0.788E-03 0.790E-03
CGA:  48    -0.669103741969E+03    0.11944E-04   -0.63551E-05  8424   0.784E-03 0.786E-03
CGA:  49    -0.669103730467E+03    0.11502E-04   -0.60504E-05  8424   0.779E-03 0.781E-03
CGA:  50    -0.669103719392E+03    0.11075E-04   -0.57631E-05  8424   0.775E-03 0.777E-03
CGA:  51    -0.669103708729E+03    0.10663E-04   -0.54918E-05  8424   0.772E-03 0.773E-03
CGA:  52    -0.669103698462E+03    0.10266E-04   -0.52356E-05  8424   0.768E-03 0.769E-03
CGA:  53    -0.669103688579E+03    0.98836E-05   -0.49932E-05  8424   0.765E-03 0.766E-03
  40 F= -.66910369E+03 E0= -.66910369E+03  d E =-.192390E-01  mag=     4.0000
       N       E                     dE             d eps       ncg     rms          ort
SDA:   1    -0.668208559316E+03    0.89514E+00    0.00000E+00  8424   0.236E+01 0.000E+00
CGA:   2    -0.668712981539E+03   -0.50442E+00   -0.15428E+00  8424   0.831E+00 0.871E+00
CGA:   3    -0.669025148655E+03   -0.31217E+00   -0.13081E-01  8424   0.312E+00-0.370E-01
CGA:   4    -0.669072638359E+03   -0.47490E-01   -0.46756E-01  8424   0.845E-01 0.952E-02
CGA:   5    -0.669086759643E+03   -0.14121E-01   -0.13535E-01  8424   0.201E-01 0.815E-02
CGA:   6    -0.669090600482E+03   -0.38408E-02   -0.33976E-02  8424   0.702E-02 0.663E-02
CGA:   7    -0.669091658895E+03   -0.10584E-02   -0.98761E-03  8424   0.304E-02 0.465E-02
CGA:   8    -0.669091885638E+03   -0.22674E-03   -0.24940E-03  8424   0.198E-02 0.240E-02
CGA:   9    -0.669091948219E+03   -0.62581E-04   -0.11752E-03  8424   0.156E-02 0.174E-02
CGA:  10    -0.669091964226E+03   -0.16007E-04   -0.75169E-04  8424   0.133E-02 0.143E-02
CGA:  11    -0.669091960506E+03    0.37193E-05   -0.54054E-04  8424   0.117E-02 0.124E-02
CGA:  12    -0.669091947143E+03    0.13363E-04   -0.41500E-04  8424   0.106E-02 0.111E-02
CGA:  13    -0.669091928786E+03    0.18357E-04   -0.33240E-04  8424   0.973E-03 0.101E-02
CGA:  14    -0.669091907847E+03    0.20939E-04   -0.27429E-04  8424   0.906E-03 0.934E-03
CGA:  15    -0.669091885678E+03    0.22169E-04   -0.23141E-04  8424   0.852E-03 0.874E-03
CGA:  16    -0.669091863073E+03    0.22605E-04   -0.19862E-04  8424   0.807E-03 0.825E-03
CGA:  17    -0.669091840514E+03    0.22559E-04   -0.17283E-04  8424   0.769E-03 0.784E-03
CGA:  18    -0.669091818297E+03    0.22217E-04   -0.15207E-04  8424   0.737E-03 0.750E-03
CGA:  19    -0.669091796606E+03    0.21691E-04   -0.13506E-04  8424   0.710E-03 0.720E-03
CGA:  20    -0.669091775552E+03    0.21054E-04   -0.12090E-04  8424   0.685E-03 0.695E-03
CGA:  21    -0.669091755199E+03    0.20353E-04   -0.10895E-04  8424   0.664E-03 0.673E-03
CGA:  22    -0.669091735579E+03    0.19619E-04   -0.98759E-05  8424   0.646E-03 0.653E-03
CGA:  23    -0.669091716708E+03    0.18872E-04   -0.89970E-05  8424   0.629E-03 0.636E-03
CGA:  24    -0.669091698582E+03    0.18126E-04   -0.82326E-05  8424   0.615E-03 0.620E-03
CGA:  25    -0.669091681193E+03    0.17389E-04   -0.75627E-05  8424   0.601E-03 0.606E-03
CGA:  26    -0.669091664523E+03    0.16669E-04   -0.69714E-05  8424   0.589E-03 0.594E-03
CGA:  27    -0.669091648554E+03    0.15969E-04   -0.64463E-05  8424   0.579E-03 0.583E-03
CGA:  28    -0.669091633262E+03    0.15292E-04   -0.59771E-05  8424   0.569E-03 0.573E-03
CGA:  29    -0.669091618624E+03    0.14638E-04   -0.55559E-05  8424   0.560E-03 0.563E-03
CGA:  30    -0.669091604614E+03    0.14009E-04   -0.51759E-05  8424   0.552E-03 0.555E-03
CGA:  31    -0.669091591209E+03    0.13405E-04   -0.48318E-05  8424   0.544E-03 0.547E-03
CGA:  32    -0.669091578384E+03    0.12826E-04   -0.45188E-05  8424   0.537E-03 0.540E-03
CGA:  33    -0.669091566113E+03    0.12270E-04   -0.42331E-05  8424   0.531E-03 0.533E-03
CGA:  34    -0.669091554375E+03    0.11739E-04   -0.39716E-05  8424   0.525E-03 0.527E-03
CGA:  35    -0.669091543145E+03    0.11230E-04   -0.37315E-05  8424   0.520E-03 0.522E-03
CGA:  36    -0.669091532402E+03    0.10743E-04   -0.35104E-05  8424   0.515E-03 0.516E-03
CGA:  37    -0.669091522125E+03    0.10277E-04   -0.33062E-05  8424   0.510E-03 0.512E-03
CGA:  38    -0.669091512293E+03    0.98321E-05   -0.31173E-05  8424   0.506E-03 0.507E-03
  41 F= -.66909151E+03 E0= -.66909151E+03  d E =0.121763E-01  mag=     4.0000
       N       E                     dE             d eps       ncg     rms          ort
SDA:   1    -0.596752061324E+03    0.72339E+02    0.00000E+00  8424   0.195E+03 0.000E+00
CGA:   2    -0.643719358859E+03   -0.46967E+02   -0.98906E+01  8424   0.606E+02 0.533E+02
CGA:   3    -0.663456894162E+03   -0.19738E+02   -0.19704E+02  8424   0.225E+02 0.192E+00
CGA:   4    -0.667138629992E+03   -0.36817E+01   -0.36817E+01  8424   0.547E+01 0.148E-01
CGA:   5    -0.668156613299E+03   -0.10180E+01   -0.10203E+01  8424   0.139E+01-0.197E-01
CGA:   6    -0.668423245346E+03   -0.26663E+00   -0.26670E+00  8424   0.415E+00 0.107E-04
CGA:   7    -0.668528738791E+03   -0.10549E+00   -0.10724E+00  8424   0.165E+00-0.967E-02
CGA:   8    -0.668568888050E+03   -0.40149E-01   -0.39308E-01  8424   0.559E-01 0.541E-02
CGA:   9    -0.668585156009E+03   -0.16268E-01   -0.16717E-01  8424   0.224E-01-0.234E-02
CGA:  10    -0.668588648706E+03   -0.34927E-02   -0.10780E-01  8424   0.339E-01-0.184E-01
CGA:  11    -0.668594441297E+03   -0.57926E-02   -0.57266E-02  8424   0.515E-02 0.155E-02
CGA:  12    -0.668595824372E+03   -0.13831E-02    0.12078E+01  8424   0.189E-02 0.299E-02
CGA:  13    -0.668596479156E+03   -0.65478E-03    0.34702E-03  8424   0.963E-03 0.124E-02
CGA:  14    -0.668596910642E+03   -0.43149E-03    0.82780E-04  8424   0.673E-03 0.800E-03
CGA:  15    -0.668597278769E+03   -0.36813E-03    0.38187E-04  8424   0.517E-03 0.589E-03
CGA:  16    -0.668597611120E+03   -0.33235E-03    0.22079E-04  8424   0.425E-03 0.468E-03
CGA:  17    -0.668597921802E+03   -0.31068E-03    0.14731E-04  8424   0.366E-03 0.394E-03
CGA:  18    -0.668598218419E+03   -0.29662E-03    0.10894E-04  8424   0.327E-03 0.346E-03
CGA:  19    -0.668598505355E+03   -0.28694E-03    0.86643E-05  8424   0.299E-03 0.313E-03
CGA:  20    -0.668598785270E+03   -0.27992E-03    0.72504E-05  8424   0.279E-03 0.289E-03
CGA:  21    -0.668599059863E+03   -0.27459E-03    0.62875E-05  8424   0.263E-03 0.271E-03
CGA:  22    -0.668599330273E+03   -0.27041E-03    0.55921E-05  8424   0.250E-03 0.256E-03
CGA:  23    -0.668599597303E+03   -0.26703E-03    0.50674E-05  8424   0.240E-03 0.245E-03
CGA:  24    -0.668599861564E+03   -0.26426E-03    0.46618E-05  8424   0.231E-03 0.235E-03
CGA:  25    -0.668600123457E+03   -0.26189E-03    0.43327E-05  8424   0.223E-03 0.227E-03
CGA:  26    -0.668600383276E+03   -0.25982E-03    0.40586E-05  8424   0.217E-03 0.220E-03
CGA:  27    -0.668600641236E+03   -0.25796E-03    0.38256E-05  8424   0.211E-03 0.214E-03
CGA:  28    -0.668600897498E+03   -0.25626E-03    0.36245E-05  8424   0.206E-03 0.208E-03
CGA:  29    -0.668601152192E+03   -0.25469E-03    0.34488E-05  8424   0.201E-03 0.203E-03
CGA:  30    -0.668601405418E+03   -0.25323E-03    0.32933E-05  8424   0.196E-03 0.199E-03
CGA:  31    -0.668601657246E+03   -0.25183E-03    0.31539E-05  8424   0.192E-03 0.194E-03
CGA:  32    -0.668601907728E+03   -0.25048E-03    0.30278E-05  8424   0.189E-03 0.190E-03
CGA:  33    -0.668602156902E+03   -0.24917E-03    0.29127E-05  8424   0.185E-03 0.187E-03
CGA:  34    -0.668602404794E+03   -0.24789E-03    0.28070E-05  8424   0.182E-03 0.183E-03
CGA:  35    -0.668602651427E+03   -0.24663E-03    0.27094E-05  8424   0.178E-03 0.180E-03
CGA:  36    -0.668602896817E+03   -0.24539E-03    0.26189E-05  8424   0.175E-03 0.177E-03
CGA:  37    -0.668603140974E+03   -0.24416E-03    0.25348E-05  8424   0.172E-03 0.174E-03
CGA:  38    -0.668603383911E+03   -0.24294E-03    0.24562E-05  8424   0.169E-03 0.171E-03
CGA:  39    -0.668603625638E+03   -0.24173E-03    0.23827E-05  8424   0.167E-03 0.168E-03
CGA:  40    -0.668603866142E+03   -0.24050E-03    0.23135E-05  8424   0.164E-03 0.165E-03
CGA:  41    -0.668604105388E+03   -0.23925E-03    0.22481E-05  8424   0.162E-03 0.163E-03
CGA:  42    -0.668604343379E+03   -0.23799E-03    0.21877E-05  8424   0.160E-03 0.160E-03
CGA:  43    -0.668604579921E+03   -0.23654E-03    0.21469E-05  8424   0.163E-03 0.156E-03
CGA:  44    -0.668604814032E+03   -0.23411E-03    0.22620E-05  8424   0.204E-03 0.138E-03
CGA:  45    -0.668605037113E+03   -0.22308E-03    0.39920E-05  8424   0.487E-03 0.200E-04
CGA:  46    -0.668605831580E+03   -0.79447E-03    0.71650E-05  8424   0.390E-03 0.507E-03
CGA:  47    -0.668606031039E+03   -0.19946E-03    0.25128E-04  8424   0.993E-03-0.331E-03
CGA:  48    -0.668606137251E+03   -0.10621E-03   -0.15375E-03  8424   0.418E-02-0.179E-02
CGA:  49    -0.668606444580E+03   -0.30733E-03   -0.25932E-03  8424   0.335E-03-0.710E-03
CGA:  50    -0.668606689662E+03   -0.24508E-03    0.70444E-05  8424   0.251E-03 0.611E-04
CGA:  51    -0.668607090448E+03   -0.40079E-03    0.43115E-05  8424   0.214E-03 0.214E-03
CGA:  52    -0.668607307768E+03   -0.21732E-03    0.44521E-05  8424   0.259E-03 0.382E-04
CGA:  53    -0.668607787957E+03   -0.48019E-03    0.36787E-05  8424   0.246E-03 0.271E-03
CGA:  54    -0.668608008314E+03   -0.22036E-03    0.61003E-05  8424   0.177E-03 0.570E-04
CGA:  55    -0.668608374900E+03   -0.36659E-03    0.24443E-05  8424   0.195E-03 0.204E-03
CGA:  56    -0.668608593477E+03   -0.21858E-03    0.35788E-05  8424   0.133E-03 0.105E-03
CGA:  57    -0.668608805709E+03   -0.21223E-03    0.15724E-05  8424   0.125E-03 0.123E-03
CGA:  58    -0.668609015977E+03   -0.21027E-03    0.14041E-05  8424   0.124E-03 0.123E-03
CGA:  59    -0.668609225662E+03   -0.20969E-03    0.13797E-05  8424   0.124E-03 0.121E-03
CGA:  60    -0.668609433291E+03   -0.20763E-03    0.14007E-05  8424   0.126E-03 0.117E-03
CGA:  61    -0.668609641097E+03   -0.20781E-03    0.14426E-05  8424   0.129E-03 0.112E-03
CGA:  62    -0.668609845946E+03   -0.20485E-03    0.15498E-05  8424   0.133E-03 0.106E-03
CGA:  63    -0.668610052164E+03   -0.20622E-03    0.16303E-05  8424   0.135E-03 0.101E-03
CGA:  64    -0.668610254838E+03   -0.20267E-03    0.17205E-05  8424   0.134E-03 0.980E-04
CGA:  65    -0.668610459546E+03   -0.20471E-03    0.16805E-05  8424   0.131E-03 0.978E-04
CGA:  66    -0.668610660611E+03   -0.20107E-03    0.16235E-05  8424   0.126E-03 0.999E-04
CGA:  67    -0.668610863171E+03   -0.20256E-03    0.14769E-05  8424   0.121E-03 0.103E-03
CGA:  68    -0.668611062687E+03   -0.19952E-03    0.13684E-05  8424   0.116E-03 0.106E-03
CGA:  69    -0.668611262629E+03   -0.19994E-03    0.12554E-05  8424   0.113E-03 0.108E-03
CGA:  70    -0.668611460473E+03   -0.19784E-03    0.11929E-05  8424   0.110E-03 0.108E-03
CGA:  71    -0.668611658003E+03   -0.19753E-03    0.11433E-05  8424   0.109E-03 0.108E-03
CGA:  72    -0.668611854190E+03   -0.19619E-03    0.11165E-05  8424   0.107E-03 0.107E-03
CGA:  73    -0.668612049760E+03   -0.19557E-03    0.10930E-05  8424   0.106E-03 0.106E-03
CGA:  74    -0.668612244257E+03   -0.19450E-03    0.10762E-05  8424   0.105E-03 0.105E-03
CGA:  75    -0.668612437931E+03   -0.19367E-03    0.10597E-05  8424   0.104E-03 0.104E-03
CGA:  76    -0.668612630532E+03   -0.19260E-03    0.10461E-05  8424   0.104E-03 0.103E-03
CGA:  77    -0.668612822192E+03   -0.19166E-03    0.10329E-05  8424   0.103E-03 0.102E-03
CGA:  78    -0.668613012818E+03   -0.19063E-03    0.10216E-05  8424   0.102E-03 0.101E-03
CGA:  79    -0.668613202458E+03   -0.18964E-03    0.10112E-05  8424   0.101E-03 0.100E-03
CGA:  80    -0.668613391147E+03   -0.18869E-03    0.10013E-05  8424   0.101E-03 0.990E-04
CGA:  81    -0.668613578811E+03   -0.18766E-03    0.99171E-06  8424   0.997E-04 0.979E-04
CGA:  82    -0.668613765616E+03   -0.18681E-03    0.97982E-06  8424   0.988E-04 0.969E-04
CGA:  83    -0.668613951371E+03   -0.18576E-03    0.96720E-06  8424   0.978E-04 0.960E-04
CGA:  84    -0.668614136318E+03   -0.18495E-03    0.95130E-06  8424   0.968E-04 0.953E-04
CGA:  85    -0.668614320229E+03   -0.18391E-03    0.93574E-06  8424   0.957E-04 0.945E-04
CGA:  86    -0.668614503340E+03   -0.18311E-03    0.91871E-06  8424   0.947E-04 0.938E-04
CGA:  87    -0.668614685461E+03   -0.18212E-03    0.90349E-06  8424   0.937E-04 0.931E-04
CGA:  88    -0.668614866775E+03   -0.18131E-03    0.88824E-06  8424   0.928E-04 0.923E-04
CGA:  89    -0.668615047137E+03   -0.18036E-03    0.87490E-06  8424   0.920E-04 0.915E-04
CGA:  90    -0.668615226674E+03   -0.17954E-03    0.86178E-06  8424   0.911E-04 0.907E-04
CGA:  91    -0.668615405266E+03   -0.17859E-03    0.85012E-06  8424   0.903E-04 0.899E-04
CGA:  92    -0.668615583012E+03   -0.17775E-03    0.83856E-06  8424   0.895E-04 0.891E-04
CGA:  93    -0.668615759813E+03   -0.17680E-03    0.82807E-06  8424   0.888E-04 0.882E-04
CGA:  94    -0.668615935758E+03   -0.17595E-03    0.81748E-06  8424   0.880E-04 0.874E-04
CGA:  95    -0.668616110765E+03   -0.17501E-03    0.80761E-06  8424   0.873E-04 0.866E-04
CGA:  96    -0.668616284919E+03   -0.17415E-03    0.79740E-06  8424   0.865E-04 0.857E-04
