       N       E                     dE             d eps       ncg     rms          ort
DAV:   1     0.842488063850E+04    0.84249E+04   -0.38874E+05  6342   0.185E+03
DAV:   2    -0.956327449012E+02   -0.85205E+04   -0.78457E+04  6342   0.481E+02
DAV:   3    -0.137497948878E+04   -0.12793E+04   -0.12476E+04  6342   0.207E+02
DAV:   4    -0.144252124218E+04   -0.67542E+02   -0.64026E+02  6342   0.471E+01
DAV:   5    -0.144488471610E+04   -0.23635E+01   -0.23015E+01  6342   0.739E+00
SDA:   6    -0.750096096831E+03    0.69479E+03   -0.23015E+01  6342   0.304E+04 0.000E+00
CGA:   7    -0.106585010007E+04   -0.31575E+03   -0.33008E+03  6342   0.105E+04-0.228E+03
CGA:   8    -0.105082867274E+04    0.15021E+02   -0.61546E+02  6342   0.234E+04-0.458E+03
CGA:   9    -0.102244130765E+04    0.28387E+02   -0.52783E+02  6342   0.317E+04-0.132E+04
CGA:  10    -0.987090672334E+03    0.35351E+02   -0.17439E+03  6342   0.567E+04-0.743E+03
CGA:  11    -0.729114517249E+03    0.25798E+03   -0.23331E+03  6342   0.620E+04-0.237E+04
CGA:  12    -0.866145068658E+03   -0.13703E+03   -0.22730E+03  6342   0.379E+04-0.153E+04
CGA:  13    -0.941575152096E+03   -0.75430E+02   -0.16566E+03  6342   0.272E+04-0.167E+04
CGA:  14    -0.961929239172E+03   -0.20354E+02   -0.69169E+02  6342   0.405E+04-0.217E+04
CGA:  15    -0.102667946143E+04   -0.64750E+02   -0.21232E+03  6342   0.189E+04-0.810E+03
CGA:  16    -0.106893648706E+04   -0.42257E+02   -0.74749E+02  6342   0.213E+04-0.134E+03
CGA:  17    -0.100843317807E+04    0.60503E+02   -0.83929E+02  6342   0.246E+04-0.155E+04
CGA:  18    -0.105679569818E+04   -0.48363E+02   -0.10662E+03  6342   0.340E+04-0.181E+04
CGA:  19    -0.105654265315E+04    0.25305E+00   -0.18651E+03  6342   0.190E+04-0.639E+03
CGA:  20    -0.103514322324E+04    0.21399E+02   -0.75371E+02  6342   0.162E+04-0.155E+03
CGA:  21    -0.104482507771E+04   -0.96819E+01   -0.63236E+02  6342   0.356E+04-0.136E+04
CGA:  22    -0.110844718346E+04   -0.63622E+02   -0.16101E+03  6342   0.567E+03-0.689E+03
CGA:  23    -0.112774812416E+04   -0.19301E+02   -0.13959E+02  6342   0.404E+03 0.101E+03
CGA:  24    -0.113474489035E+04   -0.69968E+01   -0.88283E+01  6342   0.240E+03-0.192E+03
CGA:  25    -0.113552823598E+04   -0.78335E+00   -0.10968E+01  6342   0.135E+03-0.491E+02
CGA:  26    -0.113679684849E+04   -0.12686E+01   -0.11108E+01  6342   0.579E+02 0.342E+02
CGA:  27    -0.113756805469E+04   -0.77121E+00   -0.53160E+00  6342   0.213E+02 0.362E+02
CGA:  28    -0.113812302128E+04   -0.55497E+00   -0.37921E+00  6342   0.928E+01 0.115E+02
CGA:  29    -0.113825318050E+04   -0.13016E+00   -0.65379E-01  6342   0.848E+01 0.896E+01
CGA:  30    -0.113836541305E+04   -0.11223E+00   -0.54748E-01  6342   0.831E+01 0.875E+01
CGA:  31    -0.113847721416E+04   -0.11180E+00   -0.53643E-01  6342   0.837E+01 0.887E+01
CGA:  32    -0.113859521409E+04   -0.11800E+00   -0.56897E-01  6342   0.829E+01 0.894E+01
CGA:  33    -0.113872225692E+04   -0.12704E+00   -0.61270E-01  6342   0.806E+01 0.897E+01
CGA:  34    -0.113886321875E+04   -0.14096E+00   -0.68599E-01  6342   0.729E+01 0.857E+01
CGA:  35    -0.113901571591E+04   -0.15250E+00   -0.77588E-01  6342   0.544E+01 0.702E+01
CGA:  36    -0.113916663439E+04   -0.15092E+00   -0.84118E-01  6342   0.307E+01 0.416E+01
CGA:  37    -0.113934017783E+04   -0.17354E+00   -0.11782E+00  6342   0.274E+01 0.604E+00
CGA:  38    -0.113943812591E+04   -0.97948E-01   -0.58061E-01  6342   0.313E+01 0.183E+01
CGA:  39    -0.113953075002E+04   -0.92624E-01   -0.10836E+00  6342   0.273E+01-0.408E+00
CGA:  40    -0.113944129621E+04    0.89454E-01   -0.35414E+00  6342   0.475E+02-0.585E+01
CGA:  41    -0.113961804541E+04   -0.17675E+00   -0.13550E+01  6342   0.177E+02-0.163E+02
CGA:  42    -0.113992150048E+04   -0.30346E+00   -0.16467E+00  6342   0.771E+01 0.922E+01
CGA:  43    -0.114003265454E+04   -0.11115E+00   -0.77627E-01  6342   0.148E+01 0.346E+01
CGA:  44    -0.114005350712E+04   -0.20853E-01   -0.17513E-01  6342   0.411E+00 0.641E+00
CGA:  45    -0.114006486277E+04   -0.11356E-01   -0.99426E-02  6342   0.706E+00 0.862E-01
CGA:  46    -0.114008380820E+04   -0.18945E-01   -0.14332E-01  6342   0.184E+01 0.791E-01
CGA:  47    -0.114011783623E+04   -0.34028E-01   -0.25539E-01  6342   0.357E+01 0.936E-01
CGA:  48    -0.114014189475E+04   -0.24059E-01   -0.11371E-01  6342   0.345E+01 0.283E+01
CGA:  49    -0.114020105416E+04   -0.59159E-01   -0.77276E-01  6342   0.126E+01-0.617E+00
CGA:  50    -0.114022523514E+04   -0.24181E-01   -0.21183E-01  6342   0.198E+00 0.155E+00
CGA:  51    -0.114022848312E+04   -0.32480E-02   -0.43596E-01  6342   0.577E+01-0.290E+00
CGA:  52    -0.114029826942E+04   -0.69786E-01   -0.10047E+00  6342   0.104E+01-0.173E+01
CGA:  53    -0.114031526097E+04   -0.16992E-01   -0.16632E-01  6342   0.116E+00 0.815E-01
CGA:  54    -0.114032839877E+04   -0.13138E-01    0.35130E-01  6342   0.935E-01 0.107E+00
CGA:  55    -0.114033885072E+04   -0.10452E-01    0.14266E-01  6342   0.917E-01 0.845E-01
CGA:  56    -0.114032814274E+04    0.10708E-01   -0.79856E-02  6342   0.531E+01-0.160E+00
CGA:  57    -0.114036306762E+04   -0.34925E-01   -0.11560E+00  6342   0.297E+01-0.359E+01
CGA:  58    -0.114039800690E+04   -0.34939E-01   -0.33794E-01  6342   0.821E-01 0.364E+00
CGA:  59    -0.114039947756E+04   -0.14707E-02   -0.17756E-02  6342   0.828E-01 0.904E-02
CGA:  60    -0.114036081124E+04    0.38666E-01   -0.20748E-01  6342   0.948E+01-0.240E+00
CGA:  61    -0.114002597494E+04    0.33484E+00   -0.38960E+00  6342   0.280E+02-0.126E+02
CGA:  62    -0.113874199304E+04    0.12840E+01   -0.11061E+01  6342   0.775E+02-0.403E+02
CGA:  63    -0.113803755215E+04    0.70444E+00   -0.45165E+01  6342   0.171E+02-0.133E+02
CGA:  64    -0.113877075485E+04   -0.73320E+00   -0.31622E+00  6342   0.241E+02 0.240E+02
CGA:  65    -0.113983417973E+04   -0.10634E+01   -0.32647E+00  6342   0.332E+02 0.540E+02
CGA:  66    -0.113889193000E+04    0.94225E+00   -0.11571E+01  6342   0.791E+02-0.515E+02
CGA:  67    -0.113833055414E+04    0.56138E+00   -0.40084E+01  6342   0.162E+02-0.133E+02
CGA:  68    -0.113932541260E+04   -0.99486E+00   -0.31098E+00  6342   0.358E+02 0.406E+02
CGA:  69    -0.113930599832E+04    0.19414E-01   -0.10579E+01  6342   0.752E+02-0.758E+02
CGA:  70    -0.113862003787E+04    0.68596E+00   -0.34124E+01  6342   0.188E+02-0.145E+02
CGA:  71    -0.114009836257E+04   -0.14783E+01   -0.36797E+00  6342   0.245E+02 0.429E+02
CGA:  72    -0.113989769710E+04    0.20067E+00   -0.67811E+00  6342   0.467E+02-0.390E+02
CGA:  73    -0.113925233940E+04    0.64536E+00   -0.17758E+01  6342   0.348E+02-0.237E+02
CGA:  74    -0.113974502160E+04   -0.49268E+00   -0.93549E+00  6342   0.561E+02-0.736E+02
CGA:  75    -0.113918103452E+04    0.56399E+00   -0.20584E+01  6342   0.335E+02-0.249E+02
CGA:  76    -0.114043694052E+04   -0.12559E+01   -0.52661E+00  6342   0.508E+01 0.129E+02
CGA:  77    -0.114047945058E+04   -0.42510E-01   -0.91393E-01  6342   0.134E+01-0.377E+01
CGA:  78    -0.114049734113E+04   -0.17891E-01   -0.19861E-01  6342   0.102E+00-0.323E+00
CGA:  79    -0.114049823370E+04   -0.89257E-03   -0.13427E-02  6342   0.114E-01 0.102E-01
CGA:  80    -0.114050023998E+04   -0.20063E-02   -0.33305E-03  6342   0.412E+00-0.111E-01
CGA:  81    -0.114050690570E+04   -0.66657E-02   -0.83046E-02  6342   0.193E+00-0.164E+00
CGA:  82    -0.114050948678E+04   -0.25811E-02   -0.25727E-02  6342   0.218E-01 0.245E-01
CGA:  83    -0.114050966542E+04   -0.17864E-03   -0.39734E-03  6342   0.133E-01 0.286E-02
CGA:  84    -0.114051151308E+04   -0.18477E-02   -0.20248E-02  6342   0.107E+00-0.820E-02
CGA:  85    -0.114051419570E+04   -0.26826E-02   -0.28064E-02  6342   0.680E-01-0.347E-01
CGA:  86    -0.114051476967E+04   -0.57397E-03   -0.78872E-03  6342   0.159E-01 0.695E-02
CGA:  87    -0.114051492901E+04   -0.15934E-03   -0.32992E-03  6342   0.158E-01 0.258E-02
CGA:  88    -0.114051629267E+04   -0.13637E-02   -0.11207E-02  6342   0.473E-01-0.395E-02
CGA:  89    -0.114051820021E+04   -0.19075E-02   -0.10382E-02  6342   0.109E+00-0.150E-01
CGA:  90    -0.114052468546E+04   -0.64852E-02   -0.47556E-02  6342   0.682E+00-0.518E-01
CGA:  91    -0.114052980788E+04   -0.51224E-02   -0.21480E-02  6342   0.684E+00 0.153E+00
CGA:  92    -0.114053968615E+04   -0.98783E-02   -0.71605E-02  6342   0.231E+00 0.118E+00
CGA:  93    -0.114054356500E+04   -0.38788E-02   -0.33203E-02  6342   0.226E+00 0.127E-01
CGA:  94    -0.114054874983E+04   -0.51848E-02   -0.40106E-02  6342   0.321E+00-0.365E-02
CGA:  95    -0.114055440381E+04   -0.56540E-02   -0.51252E-02  6342   0.167E+00-0.110E+00
CGA:  96    -0.114055661133E+04   -0.22075E-02   -0.12529E-02  6342   0.101E+00-0.274E-01
CGA:  97    -0.114055861141E+04   -0.20001E-02   -0.14646E-02  6342   0.849E-01-0.154E-01
CGA:  98    -0.114055937869E+04   -0.76728E-03   -0.71280E-03  6342   0.471E-01 0.841E-02
CGA:  99    -0.114055981633E+04   -0.43763E-03   -0.59827E-03  6342   0.448E-01 0.797E-02
CGA: 100    -0.114056060826E+04   -0.79194E-03   -0.80158E-03  6342   0.574E-01 0.113E-01
CGA: 101    -0.114056160282E+04   -0.99456E-03   -0.82767E-03  6342   0.281E-01 0.562E-02
CGA: 102    -0.114056212127E+04   -0.51844E-03   -0.36440E-03  6342   0.186E-01-0.515E-02
CGA: 103    -0.114056247500E+04   -0.35373E-03   -0.34430E-03  6342   0.427E-01-0.654E-03
CGA: 104    -0.114056284240E+04   -0.36739E-03   -0.72809E-03  6342   0.404E-01 0.100E-01
CGA: 105    -0.114056292125E+04   -0.78859E-04   -0.57110E-03  6342   0.242E-01 0.133E-01
CGA: 106    -0.114056307108E+04   -0.14983E-03   -0.53467E-03  6342   0.310E-01 0.117E-01
CGA: 107    -0.114056364531E+04   -0.57422E-03   -0.94743E-03  6342   0.250E-01 0.107E-01
CGA: 108    -0.114056415947E+04   -0.51417E-03   -0.68302E-03  6342   0.277E-01 0.445E-02
CGA: 109    -0.114056446810E+04   -0.30862E-03   -0.66852E-03  6342   0.268E-01 0.137E-01
CGA: 110    -0.114056451936E+04   -0.51266E-04   -0.49473E-03  6342   0.116E-01 0.154E-01
CGA: 111    -0.114056526833E+04   -0.74897E-03   -0.72224E-03  6342   0.526E-02 0.174E-02
CGA: 112    -0.114056525012E+04    0.18216E-04   -0.72805E-03  6342   0.791E-01-0.978E-02
CGA: 113    -0.114056575112E+04   -0.50100E-03   -0.88887E-03  6342   0.720E-02 0.118E-01
CGA: 114    -0.114056584737E+04   -0.96245E-04   -0.16961E-03  6342   0.564E-02 0.291E-02
CGA: 115    -0.114056618913E+04   -0.34176E-03   -0.33533E-03  6342   0.538E-02-0.228E-02
CGA: 116    -0.114056620177E+04   -0.12642E-04   -0.57394E-04  6342   0.487E-02 0.166E-02
CGA: 117    -0.114056622289E+04   -0.21120E-04   -0.10772E-03  6342   0.330E-02 0.324E-02
CGA: 118    -0.114056593316E+04    0.28973E-03   -0.58677E-03  6342   0.550E-01-0.637E-02
CGA: 119    -0.114056623727E+04   -0.30411E-03   -0.62853E-03  6342   0.660E-02 0.946E-02
CGA: 120    -0.114056633062E+04   -0.93350E-04   -0.16174E-03  6342   0.492E-02 0.266E-02
CGA: 121    -0.114056660960E+04   -0.27898E-03   -0.25914E-03  6342   0.360E-02-0.252E-02
CGA: 122    -0.114056658818E+04    0.21422E-04   -0.43294E-04  6342   0.156E-02 0.195E-02
CGA: 123    -0.114056662224E+04   -0.34061E-04   -0.46586E-04  6342   0.805E-03 0.895E-03
CGA: 124    -0.114056663041E+04   -0.81700E-05   -0.21047E-04  6342   0.736E-03 0.755E-03
CGA: 125    -0.114056666001E+04   -0.29606E-04   -0.30379E-04  6342   0.707E-03 0.698E-03
CGA: 126    -0.114056665473E+04    0.52893E-05   -0.11920E-04  6342   0.685E-03 0.676E-03
CGA: 127    -0.114056668424E+04   -0.29511E-04   -0.28825E-04  6342   0.679E-03 0.658E-03
CGA: 128    -0.114056667711E+04    0.71301E-05   -0.99335E-05  6342   0.650E-03 0.645E-03
CGA: 129    -0.114056669666E+04   -0.19558E-04   -0.22678E-04  6342   0.636E-03 0.635E-03
CGA: 130    -0.114056669423E+04    0.24307E-05   -0.11175E-04  6342   0.622E-03 0.620E-03
CGA: 131    -0.114056671205E+04   -0.17821E-04   -0.20827E-04  6342   0.608E-03 0.607E-03
CGA: 132    -0.114056670916E+04    0.28902E-05   -0.10012E-04  6342   0.595E-03 0.594E-03
CGA: 133    -0.114056672268E+04   -0.13518E-04   -0.17750E-04  6342   0.581E-03 0.583E-03
CGA: 134    -0.114056672147E+04    0.12164E-05   -0.99654E-05  6342   0.570E-03 0.571E-03
CGA: 135    -0.114056673159E+04   -0.10125E-04   -0.15213E-04  6342   0.557E-03 0.561E-03
CGA: 136    -0.114056673165E+04   -0.55479E-07   -0.97978E-05  6342   0.548E-03 0.550E-03
CGA: 137    -0.114056673893E+04   -0.72823E-05   -0.13025E-04  6342   0.536E-03 0.540E-03
   1 F= -.11405667E+04 E0= -.11405460E+04  d E =-.414301E-01  mag=    65.0000
