       N       E                     dE             d eps       ncg     rms          rms(c)
DAV:   1     0.305255582388E+04    0.30526E+04   -0.25830E+05 73560   0.130E+03
DAV:   2    -0.613801764405E+03   -0.36664E+04   -0.35374E+04 89472   0.298E+02
DAV:   3    -0.871807976563E+03   -0.25801E+03   -0.25587E+03 88992   0.833E+01
DAV:   4    -0.875029341041E+03   -0.32214E+01   -0.32094E+01 89436   0.100E+01
DAV:   5    -0.875083878474E+03   -0.54537E-01   -0.54401E-01 91008   0.120E+00    0.989E+01
DAV:   6    -0.782354291284E+03    0.92730E+02   -0.39423E+02 83016   0.316E+01    0.505E+01
DAV:   7    -0.790777148925E+03   -0.84229E+01   -0.28960E+01 85968   0.926E+00    0.183E+01
DAV:   8    -0.794184798085E+03   -0.34076E+01   -0.40560E+00 91896   0.457E+00    0.983E+00
DAV:   9    -0.795980468976E+03   -0.17957E+01   -0.35881E+00 91320   0.328E+00    0.655E+00
DAV:  10    -0.797077180614E+03   -0.10967E+01   -0.92884E-01 86364   0.174E+00    0.374E+00
DAV:  11    -0.797474901326E+03   -0.39772E+00   -0.18112E+00 96924   0.233E+00    0.461E+00
DAV:  12    -0.797578429028E+03   -0.10353E+00   -0.57000E-01 91164   0.114E+00    0.432E+00
DAV:  13    -0.797556240975E+03    0.22188E-01   -0.58626E-01 97032   0.902E-01    0.280E+00
DAV:  14    -0.797573280334E+03   -0.17039E-01   -0.12285E-01 94956   0.843E-01    0.202E+00
DAV:  15    -0.797588910448E+03   -0.15630E-01   -0.15879E-01 89496   0.531E-01    0.233E+00
DAV:  16    -0.797566944186E+03    0.21966E-01   -0.13186E-01 96732   0.514E-01    0.102E+00
DAV:  17    -0.797564042659E+03    0.29015E-02   -0.19650E-02 88308   0.265E-01    0.842E-01
DAV:  18    -0.797561500097E+03    0.25426E-02   -0.71415E-03113964   0.238E-01    0.522E-01
DAV:  19    -0.797561164148E+03    0.33595E-03   -0.50397E-03 82584   0.113E-01    0.315E-01
DAV:  20    -0.797561292190E+03   -0.12804E-03   -0.14607E-03 80844   0.671E-02    0.265E-01
DAV:  21    -0.797561276870E+03    0.15320E-04   -0.10166E-03 90372   0.589E-02    0.129E-01
DAV:  22    -0.797561389735E+03   -0.11286E-03   -0.59765E-04 89796   0.386E-02    0.155E-01
DAV:  23    -0.797561416717E+03   -0.26982E-04   -0.18399E-04 83364   0.273E-02    0.985E-02
DAV:  24    -0.797561427348E+03   -0.10631E-04   -0.11840E-04 91908   0.241E-02    0.641E-02
DAV:  25    -0.797561420073E+03    0.72758E-05   -0.54085E-05 79092   0.165E-02
   1 F= -.79756142E+03 E0= -.79754337E+03  d E =-.797561E+03  mag=     0.6027
       N       E                     dE             d eps       ncg     rms          rms(c)
DAV:   1    -0.797561627637E+03   -0.20029E-03   -0.55139E-03 75864   0.135E-01    0.127E-01
DAV:   2    -0.797561933238E+03   -0.30560E-03   -0.24901E-03108432   0.986E-02    0.406E-01
DAV:   3    -0.797561493723E+03    0.43951E-03   -0.11633E-03101196   0.725E-02    0.603E-02
DAV:   4    -0.797561595555E+03   -0.10183E-03   -0.18159E-04 76992   0.236E-02    0.282E-02
DAV:   5    -0.797561605066E+03   -0.95116E-05   -0.22844E-05 64260   0.111E-02
   2 F= -.79756161E+03 E0= -.79754356E+03  d E =-.184994E-03  mag=     0.6061
       N       E                     dE             d eps       ncg     rms          rms(c)
DAV:   1    -0.797561687758E+03   -0.92203E-04   -0.40658E-03 75672   0.117E-01    0.884E-02
DAV:   2    -0.797561845987E+03   -0.15823E-03   -0.14700E-03108588   0.697E-02    0.290E-01
DAV:   3    -0.797561609654E+03    0.23633E-03   -0.62488E-04 97716   0.515E-02    0.428E-02
DAV:   4    -0.797561668591E+03   -0.58937E-04   -0.11522E-04 76524   0.179E-02    0.303E-02
DAV:   5    -0.797561676519E+03   -0.79282E-05   -0.17762E-05 59124   0.100E-02
   3 F= -.79756168E+03 E0= -.79754365E+03  d E =-.714527E-04  mag=     0.6095
       N       E                     dE             d eps       ncg     rms          rms(c)
DAV:   1    -0.797561753709E+03   -0.85118E-04   -0.45793E-02 75528   0.395E-01    0.208E-01
DAV:   2    -0.797562675845E+03   -0.92214E-03   -0.80301E-03108084   0.170E-01    0.682E-01
DAV:   3    -0.797561467606E+03    0.12082E-02   -0.36308E-03 97692   0.121E-01    0.119E-01
DAV:   4    -0.797561693796E+03   -0.22619E-03   -0.47690E-04 76872   0.378E-02    0.342E-02
DAV:   5    -0.797561727129E+03   -0.33333E-04   -0.75161E-05 83100   0.196E-02    0.338E-02
DAV:   6    -0.797561726217E+03    0.91209E-06   -0.14359E-05 58224   0.102E-02
   4 F= -.79756173E+03 E0= -.79754370E+03  d E =-.496973E-04  mag=     0.6198
       N       E                     dE             d eps       ncg     rms          rms(c)
DAV:   1    -0.797561532582E+03    0.19455E-03   -0.19150E-01 75144   0.810E-01    0.161E-01
DAV:   2    -0.797562246967E+03   -0.71439E-03   -0.82483E-03 88716   0.162E-01    0.476E-01
DAV:   3    -0.797561669892E+03    0.57708E-03   -0.23369E-03 88944   0.890E-02    0.596E-02
DAV:   4    -0.797561810602E+03   -0.14071E-03   -0.46056E-04 78336   0.308E-02    0.905E-02
DAV:   5    -0.797561808241E+03    0.23614E-05   -0.23888E-04 73536   0.233E-02    0.542E-02
DAV:   6    -0.797561815333E+03   -0.70924E-05   -0.42033E-05 67428   0.134E-02
   5 F= -.79756182E+03 E0= -.79754368E+03  d E =-.891169E-04  mag=     0.6281
       N       E                     dE             d eps       ncg     rms          rms(c)
DAV:   1    -0.797561101866E+03    0.70637E-03   -0.39134E-01 74328   0.116E+00    0.362E-01
DAV:   2    -0.797564047537E+03   -0.29457E-02   -0.30274E-02 99996   0.310E-01    0.111E+00
DAV:   3    -0.797561319845E+03    0.27277E-02   -0.87900E-03102348   0.195E-01    0.191E-01
DAV:   4    -0.797561603516E+03   -0.28367E-03   -0.18932E-03 82344   0.681E-02    0.139E-01
DAV:   5    -0.797561633641E+03   -0.30126E-04   -0.24440E-04 81756   0.385E-02    0.111E-01
DAV:   6    -0.797561603323E+03    0.30319E-04   -0.42983E-04 85116   0.281E-02    0.748E-02
DAV:   7    -0.797561612826E+03   -0.95032E-05   -0.44420E-05 76224   0.159E-02
   6 F= -.79756161E+03 E0= -.79754351E+03  d E =0.202507E-03  mag=     0.6396
       N       E                     dE             d eps       ncg     rms          rms(c)
DAV:   1    -0.797561281056E+03    0.32227E-03   -0.44029E-01 73992   0.122E+00    0.657E-01
DAV:   2    -0.797569822045E+03   -0.85410E-02   -0.12161E-01104760   0.506E-01    0.226E+00
DAV:   3    -0.797559866125E+03    0.99559E-02   -0.69857E-02 96900   0.358E-01    0.374E-01
DAV:   4    -0.797561084989E+03   -0.12189E-02   -0.48021E-03 79536   0.127E-01    0.167E-01
DAV:   5    -0.797561314185E+03   -0.22920E-03   -0.87617E-04 79524   0.692E-02    0.133E-01
DAV:   6    -0.797561248567E+03    0.65618E-04   -0.29947E-04 92508   0.377E-02    0.502E-02
DAV:   7    -0.797561250859E+03   -0.22923E-05   -0.19298E-04 86640   0.209E-02    0.494E-02
DAV:   8    -0.797561247943E+03    0.29159E-05   -0.84056E-05 62208   0.166E-02
   7 F= -.79756125E+03 E0= -.79754320E+03  d E =0.364883E-03  mag=     0.6355
       N       E                     dE             d eps       ncg     rms          rms(c)
DAV:   1    -0.797562308633E+03   -0.10578E-02   -0.10371E-01 74544   0.589E-01    0.411E-01
DAV:   2    -0.797565113342E+03   -0.28047E-02   -0.35282E-02107376   0.312E-01    0.123E+00
DAV:   3    -0.797561669795E+03    0.34435E-02   -0.12040E-02 98676   0.221E-01    0.205E-01
DAV:   4    -0.797562172848E+03   -0.50305E-03   -0.27613E-03 80808   0.805E-02    0.168E-01
DAV:   5    -0.797562229196E+03   -0.56348E-04   -0.48562E-04 76836   0.449E-02    0.913E-02
DAV:   6    -0.797562210544E+03    0.18652E-04   -0.11120E-04 88920   0.217E-02    0.421E-02
DAV:   7    -0.797562208118E+03    0.24261E-05   -0.27891E-05 63828   0.117E-02
   8 F= -.79756221E+03 E0= -.79754416E+03  d E =-.960175E-03  mag=     0.6336
       N       E                     dE             d eps       ncg     rms          rms(c)
DAV:   1    -0.797562162815E+03    0.47729E-04   -0.84218E-02 74328   0.539E-01    0.847E-02
DAV:   2    -0.797562369501E+03   -0.20669E-03   -0.23841E-03 87888   0.858E-02    0.164E-01
DAV:   3    -0.797562306835E+03    0.62666E-04   -0.36776E-04 91992   0.358E-02    0.341E-02
DAV:   4    -0.797562321512E+03   -0.14677E-04   -0.50347E-05 73872   0.146E-02    0.322E-02
DAV:   5    -0.797562318824E+03    0.26875E-05   -0.52911E-05 54504   0.112E-02
   9 F= -.79756232E+03 E0= -.79754424E+03  d E =-.110706E-03  mag=     0.6328
       N       E                     dE             d eps       ncg     rms          rms(c)
DAV:   1    -0.797560106423E+03    0.22151E-02   -0.11676E+00 73488   0.201E+00    0.336E-01
DAV:   2    -0.797563329940E+03   -0.32235E-02   -0.36230E-02 88836   0.333E-01    0.780E-01
DAV:   3    -0.797562031461E+03    0.12985E-02   -0.59953E-03 91476   0.151E-01    0.114E-01
DAV:   4    -0.797562252611E+03   -0.22115E-03   -0.13646E-03 79644   0.578E-02    0.182E-01
DAV:   5    -0.797562199909E+03    0.52702E-04   -0.13348E-03 85152   0.484E-02    0.132E-01
DAV:   6    -0.797562214054E+03   -0.14145E-04   -0.16332E-04 80604   0.305E-02    0.150E-01
DAV:   7    -0.797562152009E+03    0.62045E-04   -0.30065E-04 91932   0.263E-02    0.268E-02
DAV:   8    -0.797562169860E+03   -0.17851E-04   -0.38501E-05 72996   0.109E-02    0.392E-02
DAV:   9    -0.797562165917E+03    0.39430E-05   -0.18611E-05 49572   0.677E-03
  10 F= -.79756217E+03 E0= -.79754402E+03  d E =0.152908E-03  mag=     0.6320
       N       E                     dE             d eps       ncg     rms          rms(c)
DAV:   1    -0.797559305603E+03    0.28643E-02   -0.12047E+00 73464   0.204E+00    0.564E-01
DAV:   2    -0.797567372084E+03   -0.80665E-02   -0.62192E-02 95232   0.487E-01    0.167E+00
DAV:   3    -0.797561239708E+03    0.61324E-02   -0.34385E-02104196   0.299E-01    0.451E-01
DAV:   4    -0.797561212889E+03    0.26819E-04   -0.42531E-03 82440   0.115E-01    0.196E-01
DAV:   5    -0.797561111402E+03    0.10149E-03   -0.93486E-04 87528   0.658E-02    0.896E-02
DAV:   6    -0.797561113528E+03   -0.21258E-05   -0.19110E-04 82320   0.328E-02    0.756E-02
DAV:   7    -0.797561134795E+03   -0.21267E-04   -0.39401E-04 90324   0.271E-02    0.119E-01
DAV:   8    -0.797561091057E+03    0.43738E-04   -0.25036E-04 80952   0.272E-02    0.459E-02
DAV:   9    -0.797561101504E+03   -0.10447E-04   -0.49115E-05 65196   0.156E-02    0.150E-02
DAV:  10    -0.797561103672E+03   -0.21685E-05   -0.67790E-06 46464   0.529E-03
  11 F= -.79756110E+03 E0= -.79754298E+03  d E =0.106224E-02  mag=     0.6548
       N       E                     dE             d eps       ncg     rms          rms(c)
DAV:   1    -0.797563469224E+03   -0.23677E-02   -0.72926E-01 73488   0.155E+00    0.108E+00
DAV:   2    -0.797587019234E+03   -0.23550E-01   -0.21048E-01110640   0.816E-01    0.342E+00
DAV:   3    -0.797561168977E+03    0.25850E-01   -0.32376E-01105984   0.570E-01    0.771E-01
DAV:   4    -0.797562547373E+03   -0.13784E-02   -0.10218E-02 79260   0.214E-01    0.288E-01
DAV:   5    -0.797562492724E+03    0.54649E-04   -0.50334E-03 88368   0.133E-01    0.335E-01
DAV:   6    -0.797562599009E+03   -0.10628E-03   -0.92589E-04 82992   0.660E-02    0.332E-01
DAV:   7    -0.797562259905E+03    0.33910E-03   -0.12855E-03 95856   0.640E-02    0.133E-01
DAV:   8    -0.797562318302E+03   -0.58396E-04   -0.66852E-04 85944   0.357E-02    0.131E-01
DAV:   9    -0.797562291002E+03    0.27300E-04   -0.27207E-04 73548   0.302E-02    0.333E-02
DAV:  10    -0.797562296169E+03   -0.51669E-05   -0.48697E-05 73668   0.125E-02
  12 F= -.79756230E+03 E0= -.79754412E+03  d E =-.119250E-02  mag=     0.6232
       N       E                     dE             d eps       ncg     rms          rms(c)
DAV:   1    -0.797563288086E+03   -0.99708E-03   -0.97757E-02 73680   0.575E-01    0.422E-01
DAV:   2    -0.797566797925E+03   -0.35098E-02   -0.35039E-02111048   0.321E-01    0.130E+00
DAV:   3    -0.797562835412E+03    0.39625E-02   -0.11191E-02109272   0.227E-01    0.273E-01
DAV:   4    -0.797563101913E+03   -0.26650E-03   -0.24415E-03 83496   0.804E-02    0.138E-01
DAV:   5    -0.797563201500E+03   -0.99587E-04   -0.52751E-04 84456   0.511E-02    0.148E-01
DAV:   6    -0.797563139205E+03    0.62295E-04   -0.22226E-04 83400   0.301E-02    0.378E-02
DAV:   7    -0.797563147273E+03   -0.80680E-05   -0.11373E-04 87636   0.159E-02    0.569E-02
DAV:   8    -0.797563140052E+03    0.72202E-05   -0.53578E-05 58872   0.129E-02
  13 F= -.79756314E+03 E0= -.79754504E+03  d E =-.843884E-03  mag=     0.6305
