       N       E                     dE             d eps       ncg     rms          ort
DAV:   1     0.602444116378E+04    0.60244E+04   -0.22898E+05  3696   0.196E+03
DAV:   2     0.223679846929E+03   -0.58008E+04   -0.53601E+04  3696   0.571E+02
DAV:   3    -0.767327712524E+03   -0.99101E+03   -0.91823E+03  3696   0.234E+02
DAV:   4    -0.843773178472E+03   -0.76445E+02   -0.73715E+02  3696   0.610E+01
DAV:   5    -0.845441081428E+03   -0.16679E+01   -0.16472E+01  3696   0.936E+00
SDA:   6    -0.267501801965E+03    0.57794E+03   -0.16472E+01  3696   0.237E+04 0.000E+00
CGA:   7    -0.568905016917E+03   -0.30140E+03   -0.30059E+03  3696   0.206E+03 0.171E+02
CGA:   8    -0.606713789708E+03   -0.37809E+02   -0.37708E+02  3696   0.728E+02-0.277E+01
CGA:   9    -0.618080480002E+03   -0.11367E+02   -0.11688E+02  3696   0.524E+02 0.344E+01
CGA:  10    -0.624976813163E+03   -0.68963E+01   -0.62614E+01  3696   0.238E+02-0.266E+01
CGA:  11    -0.629316381169E+03   -0.43396E+01   -0.43393E+01  3696   0.627E+01-0.573E-01
CGA:  12    -0.630303593077E+03   -0.98721E+00   -0.98650E+00  3696   0.496E+01-0.109E+00
CGA:  13    -0.630784316424E+03   -0.48072E+00   -0.49210E+00  3696   0.139E+01-0.115E+00
CGA:  14    -0.631130583545E+03   -0.34627E+00   -0.39868E+00  3696   0.136E+01-0.406E+00
CGA:  15    -0.631217298446E+03   -0.86715E-01   -0.89116E-01  3696   0.551E+00-0.935E-01
CGA:  16    -0.631328487205E+03   -0.11119E+00   -0.11389E+00  3696   0.701E+00-0.764E-01
CGA:  17    -0.631394105697E+03   -0.65618E-01   -0.61669E-01  3696   0.212E+00-0.552E-01
CGA:  18    -0.631432691236E+03   -0.38586E-01   -0.39596E-01  3696   0.321E+00-0.498E-01
CGA:  19    -0.631462253922E+03   -0.29563E-01   -0.26220E-01  3696   0.112E+00-0.461E-01
CGA:  20    -0.631473794968E+03   -0.11541E-01   -0.10074E-01  3696   0.941E-01-0.200E-01
CGA:  21    -0.631489078872E+03   -0.15284E-01   -0.17413E-01  3696   0.949E-01-0.435E-01
CGA:  22    -0.631493888356E+03   -0.48095E-02   -0.32616E-02  3696   0.454E-01-0.131E-01
CGA:  23    -0.631498674283E+03   -0.47859E-02   -0.39636E-02  3696   0.517E-01-0.114E-01
CGA:  24    -0.631504623463E+03   -0.59492E-02   -0.54421E-02  3696   0.600E-01-0.177E-01
CGA:  25    -0.631507530010E+03   -0.29065E-02   -0.21841E-02  3696   0.279E-01-0.641E-02
CGA:  26    -0.631509026018E+03   -0.14960E-02   -0.13856E-02  3696   0.166E-01-0.110E-02
CGA:  27    -0.631510122367E+03   -0.10963E-02   -0.12276E-02  3696   0.180E-01 0.166E-02
CGA:  28    -0.631511283665E+03   -0.11613E-02   -0.14383E-02  3696   0.122E-01 0.349E-02
CGA:  29    -0.631511862644E+03   -0.57898E-03   -0.81270E-03  3696   0.507E-02 0.257E-02
CGA:  30    -0.631512078553E+03   -0.21591E-03   -0.36094E-03  3696   0.347E-02 0.172E-02
CGA:  31    -0.631512200179E+03   -0.12163E-03   -0.28002E-03  3696   0.261E-02 0.200E-02
CGA:  32    -0.631512302480E+03   -0.10230E-03   -0.17976E-03  3696   0.859E-03 0.116E-02
CGA:  33    -0.631512268168E+03    0.34312E-04   -0.52228E-04  3696   0.670E-03 0.959E-03
CGA:  34    -0.631512234656E+03    0.33512E-04   -0.23694E-04  3696   0.566E-03 0.619E-03
CGA:  35    -0.631512201477E+03    0.33179E-04   -0.16944E-04  3696   0.504E-03 0.538E-03
CGA:  36    -0.631512170005E+03    0.31472E-04   -0.13186E-04  3696   0.459E-03 0.484E-03
CGA:  37    -0.631512140491E+03    0.29514E-04   -0.10706E-04  3696   0.425E-03 0.444E-03
CGA:  38    -0.631512112919E+03    0.27572E-04   -0.89366E-05  3696   0.398E-03 0.413E-03
CGA:  39    -0.631512087181E+03    0.25738E-04   -0.76073E-05  3696   0.376E-03 0.388E-03
CGA:  40    -0.631512063148E+03    0.24033E-04   -0.65741E-05  3696   0.358E-03 0.368E-03
CGA:  41    -0.631512040688E+03    0.22460E-04   -0.57480E-05  3696   0.342E-03 0.351E-03
CGA:  42    -0.631512019677E+03    0.21011E-04   -0.50760E-05  3696   0.329E-03 0.336E-03
CGA:  43    -0.631511999998E+03    0.19679E-04   -0.45220E-05  3696   0.318E-03 0.323E-03
CGA:  44    -0.631511981541E+03    0.18457E-04   -0.40600E-05  3696   0.309E-03 0.312E-03
CGA:  45    -0.631511964173E+03    0.17368E-04   -0.36949E-05  3696   0.302E-03 0.304E-03
CGA:  46    -0.631511947779E+03    0.16394E-04   -0.34024E-05  3696   0.296E-03 0.298E-03
CGA:  47    -0.631511932287E+03    0.15492E-04   -0.31476E-05  3696   0.291E-03 0.292E-03
CGA:  48    -0.631511917639E+03    0.14648E-04   -0.29208E-05  3696   0.286E-03 0.287E-03
CGA:  49    -0.631511903784E+03    0.13855E-04   -0.27167E-05  3696   0.281E-03 0.282E-03
CGA:  50    -0.631511890673E+03    0.13111E-04   -0.25320E-05  3696   0.277E-03 0.278E-03
CGA:  51    -0.631511878264E+03    0.12409E-04   -0.23638E-05  3696   0.273E-03 0.274E-03
CGA:  52    -0.631511866515E+03    0.11748E-04   -0.22101E-05  3696   0.269E-03 0.270E-03
CGA:  53    -0.631511855391E+03    0.11125E-04   -0.20689E-05  3696   0.266E-03 0.266E-03
CGA:  54    -0.631511844854E+03    0.10537E-04   -0.19390E-05  3696   0.262E-03 0.263E-03
CGA:  55    -0.631511834871E+03    0.99828E-05   -0.18192E-05  3696   0.259E-03 0.260E-03
   1 F= -.63151183E+03 E0= -.63150465E+03  d E =-.631512E+03  mag=    41.0000
       N       E                     dE             d eps       ncg     rms          ort
SDA:   1    -0.631504436692E+03    0.74082E-02    0.00000E+00  3696   0.166E-01 0.000E+00
CGA:   2    -0.631507559833E+03   -0.31231E-02   -0.36192E-02  3696   0.873E-02-0.293E-02
CGA:   3    -0.631508844606E+03   -0.12848E-02   -0.11413E-02  3696   0.278E-02 0.140E-02
CGA:   4    -0.631509123212E+03   -0.27861E-03   -0.25155E-03  3696   0.934E-03 0.164E-02
CGA:   5    -0.631509162859E+03   -0.39647E-04   -0.47790E-04  3696   0.573E-03 0.730E-03
CGA:   6    -0.631509174316E+03   -0.11457E-04   -0.22592E-04  3696   0.431E-03 0.499E-03
CGA:   7    -0.631509177569E+03   -0.32534E-05   -0.14157E-04  3696   0.354E-03 0.392E-03
CGA:   8    -0.631509177453E+03    0.11571E-06   -0.10050E-04  3696   0.305E-03 0.329E-03
   2 F= -.63150918E+03 E0= -.63150199E+03  d E =0.265742E-02  mag=    41.0000
       N       E                     dE             d eps       ncg     rms          ort
SDA:   1    -0.631506173604E+03    0.30040E-02    0.00000E+00  3696   0.119E-01 0.000E+00
CGA:   2    -0.631507646392E+03   -0.14728E-02   -0.12466E-02  3696   0.294E-02 0.466E-02
CGA:   3    -0.631508025653E+03   -0.37926E-03   -0.32734E-03  3696   0.152E-02 0.242E-02
CGA:   4    -0.631508264680E+03   -0.23903E-03   -0.17762E-03  3696   0.850E-03 0.107E-02
CGA:   5    -0.631508370277E+03   -0.10560E-03   -0.82015E-04  3696   0.578E-03 0.692E-03
CGA:   6    -0.631508427955E+03   -0.57678E-04   -0.48235E-04  3696   0.423E-03 0.490E-03
CGA:   7    -0.631508461299E+03   -0.33344E-04   -0.30644E-04  3696   0.325E-03 0.368E-03
CGA:   8    -0.631508481217E+03   -0.19918E-04   -0.20566E-04  3696   0.260E-03 0.288E-03
CGA:   9    -0.631508493348E+03   -0.12132E-04   -0.14432E-04  3696   0.214E-03 0.234E-03
CGA:  10    -0.631508500773E+03   -0.74246E-05   -0.10503E-04  3696   0.180E-03 0.195E-03
   3 F= -.63150850E+03 E0= -.63150128E+03  d E =0.333410E-02  mag=    41.0000
       N       E                     dE             d eps       ncg     rms          ort
SDA:   1    -0.631507643844E+03    0.84950E-03    0.00000E+00  3696   0.227E-02 0.000E+00
CGA:   2    -0.631507951181E+03   -0.30734E-03    0.10043E-02  3696   0.851E-03 0.135E-02
CGA:   3    -0.631508090753E+03   -0.13957E-03    0.89592E-04  3696   0.450E-03 0.609E-03
CGA:   4    -0.631508170695E+03   -0.79942E-04    0.34662E-04  3696   0.285E-03 0.354E-03
CGA:   5    -0.631508221855E+03   -0.51160E-04    0.21364E-04  3696   0.200E-03 0.237E-03
CGA:   6    -0.631508256644E+03   -0.34789E-04    0.16784E-04  3696   0.149E-03 0.171E-03
CGA:   7    -0.631508281143E+03   -0.24500E-04    0.15374E-04  3696   0.114E-03 0.129E-03
CGA:   8    -0.631508298730E+03   -0.17587E-04    0.16193E-04  3696   0.891E-04 0.999E-04
CGA:   9    -0.631508311447E+03   -0.12717E-04    0.21355E-04  3696   0.704E-04 0.785E-04
CGA:  10    -0.631508320610E+03   -0.91629E-05    0.68473E-04  3696   0.559E-04 0.622E-04
   4 F= -.63150832E+03 E0= -.63150111E+03  d E =0.351426E-02  mag=    41.0000
       N       E                     dE             d eps       ncg     rms          ort
SDA:   1    -0.631508333225E+03   -0.21778E-04    0.00000E+00  3696   0.122E-03 0.000E+00
CGA:   2    -0.631508328852E+03    0.43731E-05   -0.38561E-05  3696   0.775E-04 0.986E-04
CGA:   3    -0.631508325038E+03    0.38141E-05   -0.19526E-05  3696   0.570E-04 0.673E-04
CGA:   4    -0.631508321878E+03    0.31599E-05   -0.12194E-05  3696   0.453E-04 0.514E-04
   5 F= -.63150832E+03 E0= -.63150111E+03  d E =0.351299E-02  mag=    41.0000
       N       E                     dE             d eps       ncg     rms          ort
SDA:   1    -0.631508145708E+03    0.17933E-03    0.00000E+00  3696   0.138E-03 0.000E+00
CGA:   2    -0.631508211299E+03   -0.65591E-04    0.47571E-05  3696   0.154E-04 0.317E-04
CGA:   3    -0.631508238185E+03   -0.26886E-04    0.14837E-06  3696   0.630E-05 0.799E-05
CGA:   4    -0.631508244696E+03   -0.65108E-05    0.72600E-07  3696   0.387E-05 0.474E-05
   6 F= -.63150824E+03 E0= -.63150103E+03  d E =0.359018E-02  mag=    41.0000
       N       E                     dE             d eps       ncg     rms          ort
SDA:   1    -0.631508313355E+03   -0.75170E-04    0.00000E+00  3696   0.720E-04 0.000E+00
CGA:   2    -0.631508309420E+03    0.39353E-05   -0.11932E-05  3696   0.531E-04 0.629E-04
CGA:   3    -0.631508306287E+03    0.31328E-05   -0.72239E-06  3696   0.420E-04 0.479E-04
CGA:   4    -0.631508303736E+03    0.25510E-05   -0.48483E-06  3696   0.347E-04 0.387E-04
   7 F= -.63150830E+03 E0= -.63150109E+03  d E =0.353114E-02  mag=    41.0000
       N       E                     dE             d eps       ncg     rms          ort
SDA:   1    -0.631508045459E+03    0.26083E-03    0.00000E+00  3696   0.279E-03 0.000E+00
CGA:   2    -0.631508138531E+03   -0.93072E-04    0.11235E-04  3696   0.510E-04 0.101E-03
CGA:   3    -0.631508188860E+03   -0.50329E-04    0.83870E-06  3696   0.184E-04 0.261E-04
CGA:   4    -0.631508203763E+03   -0.14904E-04    0.19224E-06  3696   0.120E-04 0.145E-04
CGA:   5    -0.631508213936E+03   -0.10173E-04    0.11912E-06  3696   0.867E-05 0.101E-04
CGA:   6    -0.631508221087E+03   -0.71509E-05    0.88982E-07  3696   0.644E-05 0.743E-05
   8 F= -.63150822E+03 E0= -.63150101E+03  d E =0.361378E-02  mag=    41.0000
       N       E                     dE             d eps       ncg     rms          ort
SDA:   1    -0.631508316087E+03   -0.10215E-03    0.00000E+00  3696   0.104E-03 0.000E+00
CGA:   2    -0.631508311912E+03    0.41745E-05   -0.17349E-05  3696   0.753E-04 0.900E-04
CGA:   3    -0.631508308507E+03    0.34056E-05   -0.10148E-05  3696   0.587E-04 0.674E-04
CGA:   4    -0.631508305707E+03    0.28003E-05   -0.66452E-06  3696   0.480E-04 0.538E-04
   9 F= -.63150831E+03 E0= -.63150109E+03  d E =0.352916E-02  mag=    41.0000
