       N       E                     dE             d eps       ncg     rms          ort
DAV:   1     0.827637869490E+04    0.82764E+04   -0.24667E+05  8424   0.238E+03
DAV:   2     0.921000604567E+03   -0.73554E+04   -0.69022E+04  8424   0.657E+02
DAV:   3    -0.673584785804E+03   -0.15946E+04   -0.14028E+04  8424   0.283E+02
DAV:   4    -0.829640758976E+03   -0.15606E+03   -0.15333E+03  8424   0.859E+01
DAV:   5    -0.832109943452E+03   -0.24692E+01   -0.24587E+01  8424   0.121E+01
SDA:   6    -0.255686195975E+03    0.57642E+03   -0.24587E+01  8424   0.444E+04 0.000E+00
CGA:   7    -0.530710684491E+03   -0.27502E+03   -0.41754E+03  8424   0.158E+04 0.102E+03
CGA:   8    -0.564186835496E+03   -0.33476E+02   -0.81646E+02  8424   0.701E+03-0.272E+03
CGA:   9    -0.634750455105E+03   -0.70564E+02   -0.79391E+01  8424   0.145E+03 0.359E+03
CGA:  10    -0.643652194853E+03   -0.89017E+01   -0.14317E+02  8424   0.127E+03 0.292E+02
CGA:  11    -0.650278166361E+03   -0.66260E+01   -0.84702E+01  8424   0.142E+03-0.352E+02
CGA:  12    -0.656413558076E+03   -0.61354E+01   -0.55760E+01  8424   0.126E+03-0.864E+02
CGA:  13    -0.654713037704E+03    0.17005E+01   -0.72810E+01  8424   0.222E+03-0.869E+02
CGA:  14    -0.655510915633E+03   -0.79788E+00   -0.13186E+02  8424   0.113E+03-0.735E+02
CGA:  15    -0.660412701513E+03   -0.49018E+01   -0.41886E+01  8424   0.627E+02-0.619E+02
CGA:  16    -0.661614523027E+03   -0.12018E+01   -0.22657E+01  8424   0.139E+03-0.129E+03
CGA:  17    -0.657753394483E+03    0.38611E+01   -0.69717E+01  8424   0.175E+03-0.751E+02
CGA:  18    -0.658905656999E+03   -0.11523E+01   -0.84565E+01  8424   0.126E+03-0.110E+03
CGA:  19    -0.662088086038E+03   -0.31824E+01   -0.53695E+01  8424   0.110E+03-0.143E+03
CGA:  20    -0.662502443722E+03   -0.41436E+00   -0.48533E+01  8424   0.114E+03-0.104E+03
CGA:  21    -0.663561021832E+03   -0.10586E+01   -0.47396E+01  8424   0.115E+03-0.121E+03
CGA:  22    -0.663717451066E+03   -0.15643E+00   -0.54305E+01  8424   0.812E+02-0.708E+02
CGA:  23    -0.665820392200E+03   -0.21029E+01   -0.29698E+01  8424   0.227E+02-0.439E+02
CGA:  24    -0.666272787477E+03   -0.45240E+00   -0.83007E+00  8424   0.694E+01-0.706E+01
CGA:  25    -0.666690239805E+03   -0.41745E+00   -0.42653E+00  8424   0.332E+01 0.887E-01
CGA:  26    -0.667035494873E+03   -0.34526E+00   -0.34880E+00  8424   0.238E+01 0.376E+00
CGA:  27    -0.667332468923E+03   -0.29697E+00   -0.29731E+00  8424   0.156E+01-0.525E-01
CGA:  28    -0.667509732216E+03   -0.17726E+00   -0.17601E+00  8424   0.469E+00 0.816E-01
CGA:  29    -0.667560617111E+03   -0.50885E-01   -0.51042E-01  8424   0.316E+00 0.128E-01
CGA:  30    -0.667629883162E+03   -0.69266E-01   -0.63155E-01  8424   0.178E+00 0.558E-01
CGA:  31    -0.667656560588E+03   -0.26677E-01   -0.26817E-01  8424   0.226E+00-0.583E-02
CGA:  32    -0.667727016767E+03   -0.70456E-01   -0.89432E-01  8424   0.473E+00-0.757E-01
CGA:  33    -0.667763148125E+03   -0.36131E-01   -0.36066E-01  8424   0.255E+00-0.379E-01
CGA:  34    -0.667813691350E+03   -0.50543E-01   -0.53926E-01  8424   0.353E+00-0.385E-01
CGA:  35    -0.666993533036E+03    0.82016E+00   -0.34909E+00  8424   0.787E+01-0.173E+01
CGA:  36    -0.667858854643E+03   -0.86532E+00   -0.90870E+00  8424   0.590E+00-0.222E+00
CGA:  37    -0.668087417994E+03   -0.22856E+00   -0.22897E+00  8424   0.391E+00-0.113E-02
CGA:  38    -0.668171349936E+03   -0.83932E-01   -0.83986E-01  8424   0.136E+00-0.395E-02
CGA:  39    -0.668214854979E+03   -0.43505E-01   -0.43872E-01  8424   0.672E-01-0.400E-02
CGA:  40    -0.668233629186E+03   -0.18774E-01   -0.18811E-01  8424   0.263E-01-0.273E-03
CGA:  41    -0.668241047882E+03   -0.74187E-02   -0.73706E-02  8424   0.118E-01 0.145E-02
CGA:  42    -0.668245352001E+03   -0.43041E-02   -0.42825E-02  8424   0.643E-02 0.304E-03
CGA:  43    -0.668247837631E+03   -0.24856E-02   -0.28416E-02  8424   0.847E-02-0.204E-02
CGA:  44    -0.668249797029E+03   -0.19594E-02   -0.28395E-02  8424   0.100E-01-0.390E-02
CGA:  45    -0.668250864779E+03   -0.10678E-02   -0.27817E-02  8424   0.135E-01-0.741E-02
CGA:  46    -0.668253582782E+03   -0.27180E-02   -0.27288E-02  8424   0.598E-02 0.118E-03
CGA:  47    -0.668256176217E+03   -0.25934E-02   -0.33193E-02  8424   0.105E-01-0.273E-02
CGA:  48    -0.668257640328E+03   -0.14641E-02   -0.13818E-02  8424   0.532E-02-0.156E-02
CGA:  49    -0.668258878028E+03   -0.12377E-02   -0.12152E-02  8424   0.557E-02-0.911E-03
CGA:  50    -0.668260368698E+03   -0.14907E-02   -0.17248E-02  8424   0.612E-02-0.291E-02
CGA:  51    -0.668262233150E+03   -0.18645E-02   -0.18705E-02  8424   0.214E-02-0.650E-03
CGA:  52    -0.668262888413E+03   -0.65526E-03   -0.75925E-03  8424   0.395E-02-0.104E-02
CGA:  53    -0.668262805147E+03    0.83266E-04   -0.16847E-02  8424   0.892E-02-0.340E-02
CGA:  54    -0.668265851115E+03   -0.30460E-02   -0.30668E-02  8424   0.377E-02-0.134E-02
CGA:  55    -0.668267197836E+03   -0.13467E-02   -0.14571E-02  8424   0.237E-02-0.885E-03
CGA:  56    -0.668265843138E+03    0.13547E-02   -0.19443E-02  8424   0.252E-01-0.452E-02
CGA:  57    -0.668269502178E+03   -0.36590E-02   -0.38228E-02  8424   0.191E-02 0.794E-03
CGA:  58    -0.668270444515E+03   -0.94234E-03   -0.11214E-02  8424   0.330E-02-0.870E-03
CGA:  59    -0.668270957883E+03   -0.51337E-03   -0.10674E-02  8424   0.654E-02-0.254E-02
CGA:  60    -0.668272644628E+03   -0.16867E-02   -0.16583E-02  8424   0.255E-02-0.223E-03
CGA:  61    -0.668273651462E+03   -0.10068E-02   -0.10670E-02  8424   0.286E-02-0.105E-02
CGA:  62    -0.668274980893E+03   -0.13294E-02    0.68824E-02  8424   0.182E-02-0.162E-03
CGA:  63    -0.668260350327E+03    0.14631E-01   -0.78783E-02  8424   0.101E+00-0.933E-02
CGA:  64    -0.668280677176E+03   -0.20327E-01   -0.19971E-01  8424   0.132E-01-0.126E-02
CGA:  65    -0.668284114445E+03   -0.34373E-02   -0.34194E-02  8424   0.179E-02-0.576E-04
CGA:  66    -0.668285044166E+03   -0.92972E-03   -0.89698E-03  8424   0.285E-02-0.238E-03
CGA:  67    -0.668286603311E+03   -0.15591E-02   -0.14365E-02  8424   0.397E-02-0.216E-02
CGA:  68    -0.668287564706E+03   -0.96139E-03   -0.92388E-03  8424   0.200E-02-0.819E-04
CGA:  69    -0.668288666162E+03   -0.11015E-02   -0.18035E-02  8424   0.852E-02-0.232E-02
CGA:  70    -0.668290229368E+03   -0.15632E-02   -0.15467E-02  8424   0.183E-02 0.286E-06
CGA:  71    -0.668291121555E+03   -0.89219E-03   -0.75795E-03  8424   0.173E-02-0.697E-03
CGA:  72    -0.668292671211E+03   -0.15497E-02    0.15184E-02  8424   0.177E-02-0.431E-04
CGA:  73    -0.668295407043E+03   -0.27358E-02    0.16055E-02  8424   0.201E-02 0.975E-04
CGA:  74    -0.668299846653E+03   -0.44396E-02    0.84202E-03  8424   0.227E-02 0.894E-03
CGA:  75    -0.668306164385E+03   -0.63177E-02    0.16294E-02  8424   0.300E-02 0.706E-03
CGA:  76    -0.668314734359E+03   -0.85700E-02    0.14346E-02  8424   0.630E-02 0.178E-03
CGA:  77    -0.668334381180E+03   -0.19647E-01    0.13721E-02  8424   0.751E-02-0.347E-03
CGA:  78    -0.668362264333E+03   -0.27883E-01    0.93216E-03  8424   0.937E-02-0.904E-04
CGA:  79    -0.668398732075E+03   -0.36468E-01    0.12097E-02  8424   0.170E-01-0.963E-02
CGA:  80    -0.668401459256E+03   -0.27272E-02   -0.28207E-02  8424   0.299E-02 0.133E-03
CGA:  81    -0.668402123770E+03   -0.66451E-03   -0.87510E-03  8424   0.723E-03 0.727E-03
CGA:  82    -0.668402145753E+03   -0.21983E-04   -0.21015E-03  8424   0.565E-03 0.571E-03
CGA:  83    -0.668402127589E+03    0.18164E-04   -0.11389E-03  8424   0.405E-03 0.383E-03
CGA:  84    -0.668402080367E+03    0.47222E-04   -0.73990E-04  8424   0.345E-03 0.350E-03
CGA:  85    -0.668402033281E+03    0.47086E-04   -0.61080E-04  8424   0.312E-03 0.323E-03
CGA:  86    -0.668401985217E+03    0.48064E-04   -0.51346E-04  8424   0.291E-03 0.300E-03
CGA:  87    -0.668401939943E+03    0.45275E-04   -0.45612E-04  8424   0.274E-03 0.282E-03
CGA:  88    -0.668401896858E+03    0.43085E-04   -0.40875E-04  8424   0.261E-03 0.267E-03
CGA:  89    -0.668401856312E+03    0.40546E-04   -0.37251E-04  8424   0.250E-03 0.255E-03
CGA:  90    -0.668401818187E+03    0.38125E-04   -0.34263E-04  8424   0.241E-03 0.245E-03
CGA:  91    -0.668401782415E+03    0.35773E-04   -0.31780E-04  8424   0.233E-03 0.237E-03
CGA:  92    -0.668401748878E+03    0.33536E-04   -0.29667E-04  8424   0.226E-03 0.229E-03
CGA:  93    -0.668401717456E+03    0.31423E-04   -0.27841E-04  8424   0.220E-03 0.223E-03
CGA:  94    -0.668401688022E+03    0.29434E-04   -0.26240E-04  8424   0.214E-03 0.217E-03
CGA:  95    -0.668401660452E+03    0.27570E-04   -0.24819E-04  8424   0.209E-03 0.212E-03
CGA:  96    -0.668401634625E+03    0.25827E-04   -0.23544E-04  8424   0.205E-03 0.207E-03
CGA:  97    -0.668401610427E+03    0.24198E-04   -0.22389E-04  8424   0.201E-03 0.203E-03
CGA:  98    -0.668401587749E+03    0.22678E-04   -0.21335E-04  8424   0.197E-03 0.199E-03
CGA:  99    -0.668401566488E+03    0.21261E-04   -0.20366E-04  8424   0.194E-03 0.195E-03
CGA: 100    -0.668401546549E+03    0.19939E-04   -0.19471E-04  8424   0.190E-03 0.192E-03
CGA: 101    -0.668401527844E+03    0.18706E-04   -0.18641E-04  8424   0.187E-03 0.189E-03
CGA: 102    -0.668401510289E+03    0.17555E-04   -0.17867E-04  8424   0.185E-03 0.186E-03
CGA: 103    -0.668401493807E+03    0.16481E-04   -0.17142E-04  8424   0.182E-03 0.183E-03
CGA: 104    -0.668401478329E+03    0.15479E-04   -0.16463E-04  8424   0.180E-03 0.181E-03
CGA: 105    -0.668401463787E+03    0.14542E-04   -0.15824E-04  8424   0.177E-03 0.178E-03
CGA: 106    -0.668401450119E+03    0.13667E-04   -0.15222E-04  8424   0.175E-03 0.176E-03
CGA: 107    -0.668401437268E+03    0.12851E-04   -0.14652E-04  8424   0.173E-03 0.174E-03
CGA: 108    -0.668401425180E+03    0.12089E-04   -0.14113E-04  8424   0.171E-03 0.172E-03
CGA: 109    -0.668401413802E+03    0.11378E-04   -0.13601E-04  8424   0.169E-03 0.170E-03
CGA: 110    -0.668401403094E+03    0.10708E-04   -0.13116E-04  8424   0.168E-03 0.169E-03
CGA: 111    -0.668401393002E+03    0.10092E-04   -0.12650E-04  8424   0.166E-03 0.167E-03
CGA: 112    -0.668401383519E+03    0.94822E-05   -0.12221E-04  8424   0.165E-03 0.165E-03
CGA: 113    -0.668401374503E+03    0.90161E-05   -0.11756E-04  8424   0.163E-03 0.164E-03
CGA: 114    -0.668401366296E+03    0.82072E-05   -0.11466E-04  8424   0.164E-03 0.162E-03
CGA: 115    -0.668401357903E+03    0.83933E-05   -0.10519E-04  8424   0.173E-03 0.155E-03
CGA: 116    -0.668401351974E+03    0.59284E-05   -0.10295E-04  8424   0.204E-03 0.135E-03
   1 F= -.66840135E+03 E0= -.66840135E+03  d E =-.668401E+03  mag=     2.0000
       N       E                     dE             d eps       ncg     rms          ort
SDA:   1    -0.668404487982E+03   -0.31301E-02    0.00000E+00  8424   0.338E-02 0.000E+00
CGA:   2    -0.668405129941E+03   -0.64196E-03   -0.63402E-03  8424   0.133E-02 0.384E-03
CGA:   3    -0.668405400158E+03   -0.27022E-03   -0.26508E-03  8424   0.469E-03 0.440E-03
CGA:   4    -0.668405466453E+03   -0.66295E-04   -0.79959E-04  8424   0.220E-03 0.336E-03
CGA:   5    -0.668405478357E+03   -0.11905E-04   -0.23069E-04  8424   0.164E-03 0.180E-03
CGA:   6    -0.668405482961E+03   -0.46031E-05   -0.15415E-04  8424   0.149E-03 0.155E-03
CGA:   7    -0.668405485509E+03   -0.25489E-05   -0.13052E-04  8424   0.141E-03 0.145E-03
CGA:   8    -0.668405487179E+03   -0.16697E-05   -0.11780E-04  8424   0.136E-03 0.138E-03
CGA:   9    -0.668405488407E+03   -0.12280E-05   -0.10939E-04  8424   0.132E-03 0.134E-03
CGA:  10    -0.668405489404E+03   -0.99653E-06   -0.10317E-04  8424   0.129E-03 0.131E-03
   2 F= -.66840549E+03 E0= -.66840549E+03  d E =-.413743E-02  mag=     2.0000
       N       E                     dE             d eps       ncg     rms          ort
SDA:   1    -0.668392010886E+03    0.13478E-01    0.00000E+00  8424   0.118E+00 0.000E+00
CGA:   2    -0.668416072323E+03   -0.24061E-01   -0.24032E-01  8424   0.497E-01 0.459E-03
CGA:   3    -0.668426526854E+03   -0.10455E-01   -0.10440E-01  8424   0.161E-01 0.209E-03
CGA:   4    -0.668429165951E+03   -0.26391E-02   -0.26334E-02  8424   0.374E-02 0.398E-03
CGA:   5    -0.668429808884E+03   -0.64293E-03   -0.63674E-03  8424   0.813E-03 0.361E-03
CGA:   6    -0.668429966368E+03   -0.15748E-03   -0.15230E-03  8424   0.264E-03 0.246E-03
CGA:   7    -0.668430005599E+03   -0.39231E-04   -0.44040E-04  8424   0.165E-03 0.210E-03
CGA:   8    -0.668430019854E+03   -0.14255E-04   -0.18969E-04  8424   0.125E-03 0.136E-03
CGA:   9    -0.668430028792E+03   -0.89380E-05   -0.13590E-04  8424   0.114E-03 0.118E-03
CGA:  10    -0.668430035771E+03   -0.69790E-05   -0.11771E-04  8424   0.109E-03 0.111E-03
CGA:  11    -0.668430041925E+03   -0.61543E-05   -0.10860E-04  8424   0.105E-03 0.106E-03
CGA:  12    -0.668430047654E+03   -0.57288E-05   -0.10282E-04  8424   0.102E-03 0.103E-03
   3 F= -.66843005E+03 E0= -.66843005E+03  d E =-.245583E-01  mag=     2.0000
       N       E                     dE             d eps       ncg     rms          ort
SDA:   1    -0.668391081414E+03    0.38961E-01    0.00000E+00  8424   0.213E+00 0.000E+00
CGA:   2    -0.668434265437E+03   -0.43184E-01   -0.43152E-01  8424   0.888E-01 0.466E-03
CGA:   3    -0.668452982123E+03   -0.18717E-01   -0.18717E-01  8424   0.292E-01-0.367E-04
CGA:   4    -0.668457775606E+03   -0.47935E-02   -0.47866E-02  8424   0.679E-02 0.341E-03
CGA:   5    -0.668458952458E+03   -0.11769E-02   -0.11684E-02  8424   0.142E-02 0.340E-03
CGA:   6    -0.668459242766E+03   -0.29031E-03   -0.28230E-03  8424   0.384E-03 0.186E-03
CGA:   7    -0.668459315020E+03   -0.72253E-04   -0.69837E-04  8424   0.174E-03 0.194E-03
CGA:   8    -0.668459339366E+03   -0.24346E-04   -0.25009E-04  8424   0.112E-03 0.124E-03
CGA:   9    -0.668459354056E+03   -0.14690E-04   -0.15667E-04  8424   0.982E-04 0.103E-03
CGA:  10    -0.668459364485E+03   -0.10429E-04   -0.12469E-04  8424   0.919E-04 0.944E-04
CGA:  11    -0.668459373963E+03   -0.94780E-05   -0.11490E-04  8424   0.879E-04 0.895E-04
CGA:  12    -0.668459382802E+03   -0.88387E-05   -0.10830E-04  8424   0.850E-04 0.862E-04
CGA:  13    -0.668459391387E+03   -0.85852E-05   -0.10448E-04  8424   0.828E-04 0.837E-04
CGA:  14    -0.668459399900E+03   -0.85131E-05   -0.10210E-04  8424   0.810E-04 0.818E-04
CGA:  15    -0.668459408486E+03   -0.85865E-05   -0.10081E-04  8424   0.796E-04 0.802E-04
CGA:  16    -0.668459417252E+03   -0.87653E-05   -0.10033E-04  8424   0.784E-04 0.789E-04
CGA:  17    -0.668459426288E+03   -0.90360E-05   -0.10051E-04  8424   0.773E-04 0.778E-04
CGA:  18    -0.668459435673E+03   -0.93857E-05   -0.10126E-04  8424   0.764E-04 0.768E-04
CGA:  19    -0.668459445488E+03   -0.98142E-05   -0.10256E-04  8424   0.755E-04 0.759E-04
CGA:  20    -0.668459455810E+03   -0.10323E-04   -0.10438E-04  8424   0.747E-04 0.751E-04
CGA:  21    -0.668459466731E+03   -0.10921E-04   -0.10677E-04  8424   0.739E-04 0.743E-04
CGA:  22    -0.668459478350E+03   -0.11619E-04   -0.10977E-04  8424   0.731E-04 0.735E-04
CGA:  23    -0.668459490797E+03   -0.12446E-04   -0.11353E-04  8424   0.724E-04 0.727E-04
CGA:  24    -0.668459504214E+03   -0.13417E-04   -0.11812E-04  8424   0.716E-04 0.720E-04
CGA:  25    -0.668459518826E+03   -0.14612E-04   -0.12397E-04  8424   0.709E-04 0.712E-04
CGA:  26    -0.668459534733E+03   -0.15907E-04   -0.13054E-04  8424   0.705E-04 0.702E-04
CGA:  27    -0.668459552568E+03   -0.17835E-04   -0.14101E-04  8424   0.721E-04 0.684E-04
CGA:  28    -0.668459568065E+03   -0.15497E-04   -0.13253E-04  8424   0.797E-04 0.630E-04
CGA:  29    -0.668459591110E+03   -0.23044E-04   -0.19725E-04  8424   0.179E-03 0.335E-04
CGA:  30    -0.668459619341E+03   -0.28231E-04   -0.32948E-04  8424   0.199E-03 0.180E-03
CGA:  31    -0.668459644798E+03   -0.25457E-04   -0.20164E-04  8424   0.325E-03-0.101E-03
CGA:  32    -0.668459647897E+03   -0.30985E-05   -0.12169E-04  8424   0.667E-04 0.795E-04
   4 F= -.66845965E+03 E0= -.66845965E+03  d E =-.296002E-01  mag=     2.0000
       N       E                     dE             d eps       ncg     rms          ort
SDA:   1    -0.663804407799E+03    0.46552E+01    0.00000E+00  8424   0.146E+02 0.000E+00
CGA:   2    -0.666789203080E+03   -0.29848E+01   -0.29815E+01  8424   0.618E+01 0.448E-01
CGA:   3    -0.668085533025E+03   -0.12963E+01   -0.12970E+01  8424   0.198E+01-0.108E-01
CGA:   4    -0.668411428946E+03   -0.32590E+00   -0.32587E+00  8424   0.459E+00 0.101E-02
CGA:   5    -0.668490952677E+03   -0.79524E-01   -0.79464E-01  8424   0.958E-01 0.238E-02
CGA:   6    -0.668510137875E+03   -0.19185E-01   -0.19206E-01  8424   0.224E-01-0.444E-03
CGA:   7    -0.668514983022E+03   -0.48451E-02   -0.47948E-02  8424   0.618E-02 0.799E-03
CGA:   8    -0.668516547222E+03   -0.15642E-02   -0.15369E-02  8424   0.182E-02 0.322E-03
CGA:   9    -0.668517107962E+03   -0.56074E-03   -0.57606E-03  8424   0.818E-03-0.111E-03
CGA:  10    -0.668517308928E+03   -0.20097E-03   -0.18478E-03  8424   0.348E-03 0.218E-03
CGA:  11    -0.668517465556E+03   -0.15663E-03   -0.14852E-03  8424   0.241E-03 0.457E-04
CGA:  12    -0.668517582137E+03   -0.11658E-03   -0.10870E-03  8424   0.255E-03 0.298E-04
CGA:  13    -0.668517708826E+03   -0.12669E-03   -0.10356E-03  8424   0.261E-03 0.123E-03
CGA:  14    -0.668518012284E+03   -0.30346E-03   -0.34964E-03  8424   0.111E-02-0.117E-03
CGA:  15    -0.668515145998E+03    0.28663E-02   -0.15421E-02  8424   0.176E-01-0.471E-02
CGA:  16    -0.668521023195E+03   -0.58772E-02   -0.59075E-02  8424   0.297E-02 0.329E-03
CGA:  17    -0.668522106144E+03   -0.10829E-02   -0.10357E-02  8424   0.263E-02-0.596E-03
CGA:  18    -0.668522563345E+03   -0.45720E-03   -0.48339E-03  8424   0.987E-03 0.136E-03
CGA:  19    -0.668522922869E+03   -0.35952E-03   -0.36585E-03  8424   0.106E-02 0.110E-03
CGA:  20    -0.668523405100E+03   -0.48223E-03   -0.63130E-03  8424   0.292E-02-0.115E-02
CGA:  21    -0.668523758272E+03   -0.35317E-03   -0.42655E-03  8424   0.455E-03 0.275E-03
CGA:  22    -0.668523973051E+03   -0.21478E-03   -0.23048E-03  8424   0.403E-03-0.246E-03
CGA:  23    -0.668522563421E+03    0.14096E-02   -0.57166E-03  8424   0.142E-01-0.195E-02
CGA:  24    -0.668524174244E+03   -0.16108E-02   -0.18969E-02  8424   0.150E-02 0.947E-03
CGA:  25    -0.668524613924E+03   -0.43968E-03   -0.41479E-03  8424   0.152E-03-0.141E-03
CGA:  26    -0.668524848937E+03   -0.23501E-03    0.29546E-04  8424   0.315E-03-0.137E-03
CGA:  27    -0.668524854603E+03   -0.56665E-05   -0.35595E-04  8424   0.461E-04 0.949E-04
CGA:  28    -0.668524812321E+03    0.42282E-04   -0.55291E-04  8424   0.109E-02-0.193E-03
CGA:  29    -0.668525258868E+03   -0.44655E-03   -0.31231E-03  8424   0.902E-03-0.890E-03
CGA:  30    -0.668525285096E+03   -0.26228E-04   -0.99460E-04  8424   0.711E-04 0.229E-03
CGA:  31    -0.668525288340E+03   -0.32437E-05   -0.99969E-05  8424   0.205E-04 0.223E-04
   5 F= -.66852529E+03 E0= -.66852529E+03  d E =-.656404E-01  mag=     2.0000
       N       E                     dE             d eps       ncg     rms          ort
SDA:   1    -0.668117047411E+03    0.40824E+00    0.00000E+00  8424   0.136E+01 0.000E+00
CGA:   2    -0.668388517798E+03   -0.27147E+00   -0.27177E+00  8424   0.551E+00 0.754E-03
CGA:   3    -0.668504835217E+03   -0.11632E+00   -0.11626E+00  8424   0.184E+00-0.316E-03
CGA:   4    -0.668535402271E+03   -0.30567E-01   -0.30531E-01  8424   0.435E-01-0.196E-03
CGA:   5    -0.668543030890E+03   -0.76286E-02   -0.76116E-02  8424   0.898E-02-0.939E-04
CGA:   6    -0.668544862857E+03   -0.18320E-02   -0.18024E-02  8424   0.213E-02-0.188E-03
CGA:   7    -0.668545382573E+03   -0.51972E-03   -0.50007E-03  8424   0.720E-03-0.176E-03
CGA:   8    -0.668545608127E+03   -0.22555E-03   -0.22313E-03  8424   0.472E-03-0.291E-03
CGA:   9    -0.668544888441E+03    0.71969E-03   -0.32832E-03  8424   0.636E-02-0.128E-02
CGA:  10    -0.668545940531E+03   -0.10521E-02   -0.10356E-02  8424   0.775E-03-0.739E-04
CGA:  11    -0.668546227030E+03   -0.28650E-03   -0.28607E-03  8424   0.336E-03-0.175E-03
CGA:  12    -0.668543011482E+03    0.32155E-02   -0.17390E-02  8424   0.206E-01-0.189E-02
CGA:  13    -0.668546134797E+03   -0.31233E-02   -0.31890E-02  8424   0.262E-02 0.156E-03
CGA:  14    -0.668546840520E+03   -0.70572E-03   -0.62935E-03  8424   0.977E-03-0.184E-03
CGA:  15    -0.668547153251E+03   -0.31273E-03   -0.29177E-03  8424   0.299E-03-0.662E-04
CGA:  16    -0.668547316871E+03   -0.16362E-03   -0.19275E-03  8424   0.139E-02-0.424E-03
CGA:  17    -0.668547451823E+03   -0.13495E-03   -0.17615E-03  8424   0.159E-03 0.859E-04
CGA:  18    -0.668547548434E+03   -0.96612E-04   -0.11404E-03  8424   0.446E-03-0.232E-03
CGA:  19    -0.668547688297E+03   -0.13986E-03   -0.11768E-03  8424   0.111E-03-0.653E-04
CGA:  20    -0.668547712802E+03   -0.24505E-04   -0.69179E-04  8424   0.145E-02-0.317E-03
CGA:  21    -0.668547882909E+03   -0.17011E-03   -0.17686E-03  8424   0.761E-04 0.179E-04
CGA:  22    -0.668548014168E+03   -0.13126E-03    0.44518E-04  8424   0.137E-03-0.690E-04
CGA:  23    -0.668548044234E+03   -0.30066E-04   -0.27672E-04  8424   0.327E-04-0.654E-05
CGA:  24    -0.668548195154E+03   -0.15092E-03    0.25382E-05  8424   0.899E-04-0.226E-04
CGA:  25    -0.668548209672E+03   -0.14518E-04   -0.13978E-04  8424   0.218E-04-0.134E-05
CGA:  26    -0.668548337604E+03   -0.12793E-03    0.12472E-05  8424   0.229E-04 0.168E-05
CGA:  27    -0.668548567372E+03   -0.22977E-03    0.84548E-06  8424   0.321E-04 0.146E-04
CGA:  28    -0.668548641315E+03   -0.73943E-04    0.73468E-05  8424   0.792E-04-0.201E-04
CGA:  29    -0.668544258496E+03    0.43828E-02   -0.24283E-02  8424   0.385E-01-0.160E-02
CGA:  30    -0.668549226587E+03   -0.49681E-02   -0.52066E-02  8424   0.580E-03 0.289E-03
CGA:  31    -0.668549217353E+03    0.92341E-05   -0.10388E-03  8424   0.448E-03 0.436E-04
CGA:  32    -0.668545994196E+03    0.32232E-02   -0.37925E-04  8424   0.150E-01 0.122E-02
CGA:  33    -0.668493115380E+03    0.52879E-01   -0.19440E-02  8424   0.261E+00 0.209E-01
CGA:  34    -0.667670734368E+03    0.82238E+00   -0.36684E-01  8424   0.471E+01 0.326E+00
CGA:  35    -0.666510099731E+03    0.11606E+01   -0.14083E+01  8424   0.772E+01 0.126E+01
CGA:  36    -0.663498813977E+03    0.30113E+01   -0.22203E+01  8424   0.144E+02 0.253E+01
CGA:  37    -0.658221586312E+03    0.52772E+01   -0.37464E+01  8424   0.288E+02 0.924E+01
CGA:  38    -0.659048401867E+03   -0.82682E+00   -0.91310E+01  8424   0.221E+02 0.103E+02
CGA:  39    -0.655224809519E+03    0.38236E+01   -0.71902E+01  8424   0.254E+02 0.146E+02
CGA:  40    -0.659604318641E+03   -0.43795E+01   -0.85141E+01  8424   0.164E+02 0.112E+02
CGA:  41    -0.661479887688E+03   -0.18756E+01   -0.65495E+01  8424   0.114E+02 0.970E+01
CGA:  42    -0.663385234582E+03   -0.19053E+01   -0.35740E+01  8424   0.839E+01 0.611E+01
CGA:  43    -0.665519322044E+03   -0.21341E+01   -0.29797E+01  8424   0.450E+01 0.336E+01
CGA:  44    -0.667247712693E+03   -0.17284E+01   -0.22647E+01  8424   0.165E+01 0.928E+00
CGA:  45    -0.667440432281E+03   -0.19272E+00   -0.54691E+00  8424   0.107E+01 0.868E+00
CGA:  46    -0.667950268322E+03   -0.50984E+00   -0.52791E+00  8424   0.210E+00-0.279E-01
CGA:  47    -0.595343778516E+03    0.72606E+02    0.47733E+02  8424   0.106E+03-0.112E+02
CGA:  48    -0.597884921549E+03   -0.25411E+01   -0.58448E+02  8424   0.106E+03 0.374E+01
CGA:  49    -0.585642000321E+03    0.12243E+02   -0.25127E+01  8424   0.105E+03 0.465E+02
CGA:  50    -0.571579829374E+03    0.14062E+02   -0.52017E+01  8424   0.126E+03 0.910E+02
CGA:  51    -0.567969683967E+03    0.36101E+01   -0.13179E+02  8424   0.115E+03 0.389E+02
CGA:  52    -0.578560395884E+03   -0.10591E+02   -0.41608E+02  8424   0.224E+03 0.815E+01
CGA:  53    -0.551135295716E+03    0.27425E+02   -0.19429E+02  8424   0.208E+03 0.109E+02
CGA:  54    -0.525094243817E+03    0.26041E+02   -0.10966E+02  8424   0.201E+03 0.124E+03
CGA:  55    -0.611983179676E+03   -0.86889E+02   -0.30882E+02  8424   0.280E+03 0.218E+03
CGA:  56    -0.654822485761E+03   -0.42839E+02   -0.11472E+03  8424   0.198E+02 0.105E+02
CGA:  57    -0.659986313858E+03   -0.51638E+01   -0.73829E+01  8424   0.120E+02-0.226E+00
CGA:  58    -0.662782117847E+03   -0.27958E+01   -0.35336E+01  8424   0.414E+01-0.162E+00
CGA:  59    -0.665391014141E+03   -0.26089E+01   -0.36218E+01  8424   0.149E+02-0.300E+01
CGA:  60    -0.666370745428E+03   -0.97973E+00   -0.17314E+01  8424   0.133E+02 0.382E+01
CGA:  61    -0.665746348508E+03    0.62440E+00   -0.22215E+01  8424   0.119E+02-0.648E+01
CGA:  62    -0.666093432022E+03   -0.34708E+00   -0.13353E+01  8424   0.124E+02 0.568E+00
CGA:  63    -0.667403217428E+03   -0.13098E+01   -0.23596E+01  8424   0.329E+01-0.300E+01
CGA:  64    -0.668099394461E+03   -0.69618E+00   -0.68272E+00  8424   0.648E+00-0.347E-01
CGA:  65    -0.668290763658E+03   -0.19137E+00   -0.18891E+00  8424   0.399E+00 0.278E-02
CGA:  66    -0.668394046404E+03   -0.10328E+00   -0.10254E+00  8424   0.940E-01-0.375E-02
CGA:  67    -0.668432138543E+03   -0.38092E-01   -0.38019E-01  8424   0.738E-01 0.220E-04
CGA:  68    -0.668459882553E+03   -0.27744E-01   -0.27107E-01  8424   0.572E-01 0.157E-02
CGA:  69    -0.668480022678E+03   -0.20140E-01   -0.18702E-01  8424   0.312E-01 0.159E-02
CGA:  70    -0.668488686292E+03   -0.86636E-02   -0.79397E-02  8424   0.155E-01 0.158E-02
CGA:  71    -0.668493424431E+03   -0.47381E-02   -0.44334E-02  8424   0.997E-02 0.618E-03
CGA:  72    -0.668496304668E+03   -0.28802E-02   -0.26659E-02  8424   0.832E-02 0.363E-03
CGA:  73    -0.668512026343E+03   -0.15722E-01    0.23774E-02  8424   0.108E+00 0.842E-01
CGA:  74    -0.668532611448E+03   -0.20585E-01   -0.32684E-01  8424   0.180E-01 0.679E-02
CGA:  75    -0.668539781754E+03   -0.71703E-02   -0.70695E-02  8424   0.246E-01-0.829E-03
CGA:  76    -0.668550090628E+03   -0.10309E-01   -0.10289E-01  8424   0.522E-02-0.587E-03
CGA:  77    -0.668551409530E+03   -0.13189E-02   -0.12217E-02  8424   0.179E-02-0.345E-03
CGA:  78    -0.668552024274E+03   -0.61474E-03   -0.55921E-03  8424   0.105E-02-0.428E-03
CGA:  79    -0.668552239486E+03   -0.21521E-03   -0.19601E-03  8424   0.356E-03-0.845E-04
CGA:  80    -0.668545722056E+03    0.65174E-02   -0.31081E-02  8424   0.385E-01-0.330E-02
CGA:  81    -0.668551910405E+03   -0.61883E-02   -0.64290E-02  8424   0.368E-02 0.326E-03
CGA:  82    -0.668553004232E+03   -0.10938E-02   -0.11112E-02  8424   0.996E-03-0.368E-04
CGA:  83    -0.668553498478E+03   -0.49425E-03   -0.44779E-03  8424   0.912E-03-0.198E-03
CGA:  84    -0.668553609552E+03   -0.11107E-03   -0.15153E-03  8424   0.204E-03 0.629E-04
CGA:  85    -0.668553676273E+03   -0.66721E-04   -0.63009E-04  8424   0.109E-03-0.104E-04
CGA:  86    -0.668553823624E+03   -0.14735E-03    0.10570E-02  8424   0.793E-03-0.233E-03
CGA:  87    -0.668553886139E+03   -0.62515E-04   -0.10731E-03  8424   0.815E-04 0.831E-04
CGA:  88    -0.668553936353E+03   -0.50214E-04   -0.75598E-04  8424   0.375E-03-0.141E-03
CGA:  89    -0.668554128299E+03   -0.19195E-03   -0.13347E-03  8424   0.231E-03-0.188E-03
CGA:  90    -0.668554138242E+03   -0.99429E-05   -0.31511E-04  8424   0.225E-04 0.418E-04
   6 F= -.66855414E+03 E0= -.66855414E+03  d E =-.288499E-01  mag=     2.0000
       N       E                     dE             d eps       ncg     rms          ort
SDA:   1    -0.668465295328E+03    0.88833E-01    0.00000E+00  8424   0.279E+00 0.000E+00
CGA:   2    -0.668521466674E+03   -0.56171E-01   -0.56320E-01  8424   0.113E+00 0.214E-03
CGA:   3    -0.668545419886E+03   -0.23953E-01   -0.23872E-01  8424   0.377E-01-0.205E-03
CGA:   4    -0.668551750255E+03   -0.63304E-02   -0.63046E-02  8424   0.899E-02-0.669E-04
CGA:   5    -0.668553321749E+03   -0.15715E-02   -0.15680E-02  8424   0.184E-02-0.102E-04
CGA:   6    -0.668553722003E+03   -0.40025E-03   -0.37854E-03  8424   0.461E-03-0.643E-04
CGA:   7    -0.668553860273E+03   -0.13827E-03   -0.11834E-03  8424   0.202E-03-0.762E-04
CGA:   8    -0.668553943970E+03   -0.83697E-04   -0.95492E-04  8424   0.570E-03-0.232E-03
CGA:   9    -0.668554044401E+03   -0.10043E-03   -0.92891E-04  8424   0.890E-04-0.214E-04
CGA:  10    -0.668552165649E+03    0.18788E-02   -0.10212E-02  8424   0.112E-01-0.800E-03
CGA:  11    -0.668554110943E+03   -0.19453E-02   -0.19655E-02  8424   0.158E-02 0.153E-04
CGA:  12    -0.668554636300E+03   -0.52536E-03   -0.45095E-03  8424   0.320E-03-0.126E-03
CGA:  13    -0.668554688396E+03   -0.52096E-04   -0.56517E-04  8424   0.967E-04 0.684E-05
CGA:  14    -0.668554681357E+03    0.70390E-05   -0.12110E-03  8424   0.141E-02-0.312E-03
CGA:  15    -0.668554908316E+03   -0.22696E-03   -0.25895E-03  8424   0.298E-03 0.504E-04
CGA:  16    -0.668555051924E+03   -0.14361E-03   -0.83737E-04  8424   0.138E-03-0.113E-03
CGA:  17    -0.668555111523E+03   -0.59598E-04   -0.39848E-04  8424   0.179E-03-0.642E-04
CGA:  18    -0.668555400002E+03   -0.28848E-03    0.37112E-04  8424   0.690E-03-0.162E-03
CGA:  19    -0.668555475096E+03   -0.75094E-04   -0.98516E-04  8424   0.137E-03 0.392E-04
CGA:  20    -0.668555548079E+03   -0.72983E-04   -0.13778E-03  8424   0.872E-03-0.290E-03
CGA:  21    -0.668555698571E+03   -0.15049E-03   -0.17578E-03  8424   0.172E-03 0.471E-04
CGA:  22    -0.668555800147E+03   -0.10158E-03   -0.54698E-04  8424   0.181E-03-0.114E-03
CGA:  23    -0.668555817506E+03   -0.17359E-04   -0.23901E-04  8424   0.288E-04 0.118E-04
CGA:  24    -0.668555936981E+03   -0.11947E-03    0.52772E-05  8424   0.782E-04-0.173E-04
CGA:  25    -0.668555987312E+03   -0.50331E-04   -0.55890E-04  8424   0.255E-03-0.110E-03
CGA:  26    -0.668556113193E+03   -0.12588E-03   -0.91483E-04  8424   0.107E-03-0.112E-03
CGA:  27    -0.668556151825E+03   -0.38632E-04   -0.40097E-04  8424   0.616E-03-0.107E-03
CGA:  28    -0.668556293816E+03   -0.14199E-03   -0.87625E-04  8424   0.582E-04-0.108E-03
CGA:  29    -0.668556315596E+03   -0.21780E-04   -0.39169E-04  8424   0.535E-03-0.926E-04
CGA:  30    -0.668556456607E+03   -0.14101E-03   -0.81219E-04  8424   0.846E-04-0.125E-03
CGA:  31    -0.668556496070E+03   -0.39463E-04   -0.40219E-04  8424   0.368E-03-0.942E-04
CGA:  32    -0.668556600914E+03   -0.10484E-03   -0.59508E-04  8424   0.856E-04-0.101E-03
CGA:  33    -0.668556636152E+03   -0.35238E-04   -0.39697E-04  8424   0.359E-03-0.904E-04
CGA:  34    -0.668556751549E+03   -0.11540E-03   -0.63614E-04  8424   0.121E-03-0.125E-03
CGA:  35    -0.668556791423E+03   -0.39874E-04   -0.51617E-04  8424   0.528E-03-0.139E-03
CGA:  36    -0.668556920334E+03   -0.12891E-03   -0.85351E-04  8424   0.114E-03-0.106E-03
CGA:  37    -0.668556953145E+03   -0.32812E-04   -0.24621E-04  8424   0.448E-04-0.291E-04
CGA:  38    -0.668557101042E+03   -0.14790E-03    0.29110E-05  8424   0.445E-04 0.105E-04
CGA:  39    -0.668557278712E+03   -0.17767E-03    0.74604E-05  8424   0.175E-03-0.145E-04
CGA:  40    -0.668558167871E+03   -0.88916E-03    0.53169E-05  8424   0.572E-03 0.518E-04
CGA:  41    -0.668561480744E+03   -0.33129E-02    0.64014E-04  8424   0.328E-02-0.408E-03
CGA:  42    -0.668561779815E+03   -0.29907E-03   -0.35790E-03  8424   0.134E-03 0.148E-03
CGA:  43    -0.668561848474E+03   -0.68659E-04   -0.61611E-04  8424   0.105E-03-0.904E-04
CGA:  44    -0.668560907689E+03    0.94078E-03   -0.20050E-03  8424   0.896E-02-0.816E-03
CGA:  45    -0.668561969884E+03   -0.10622E-02   -0.11787E-02  8424   0.895E-03 0.295E-03
CGA:  46    -0.668562222177E+03   -0.25229E-03   -0.22589E-03  8424   0.432E-04-0.831E-04
CGA:  47    -0.668562307339E+03   -0.85162E-04    0.10873E-04  8424   0.593E-04-0.249E-04
CGA:  48    -0.668561761933E+03    0.54541E-03   -0.12511E-03  8424   0.396E-02-0.429E-03
CGA:  49    -0.668562633607E+03   -0.87167E-03   -0.81663E-03  8424   0.316E-03-0.140E-03
CGA:  50    -0.668562678786E+03   -0.45179E-04   -0.48488E-04  8424   0.216E-04 0.742E-05
CGA:  51    -0.668562768209E+03   -0.89423E-04    0.25850E-05  8424   0.340E-04-0.620E-05
CGA:  52    -0.668562988054E+03   -0.21985E-03    0.10379E-05  8424   0.820E-04-0.941E-06
CGA:  53    -0.668563618985E+03   -0.63093E-03    0.39987E-05  8424   0.811E-04 0.444E-04
CGA:  54    -0.668563656874E+03   -0.37889E-04   -0.61833E-04  8424   0.344E-03-0.133E-03
CGA:  55    -0.668563772422E+03   -0.11555E-03   -0.86830E-04  8424   0.769E-04-0.852E-04
CGA:  56    -0.668563769983E+03    0.24393E-05   -0.50994E-04  8424   0.904E-03-0.174E-03
CGA:  57    -0.668563925897E+03   -0.15591E-03   -0.13131E-03  8424   0.429E-04-0.545E-04
CGA:  58    -0.668564018935E+03   -0.93038E-04    0.11043E-04  8424   0.125E-03-0.423E-04
CGA:  59    -0.668564031965E+03   -0.13031E-04   -0.16859E-04  8424   0.139E-04 0.891E-05
CGA:  60    -0.668564104673E+03   -0.72707E-04    0.11608E-05  8424   0.212E-04-0.248E-05
CGA:  61    -0.668564301047E+03   -0.19637E-03    0.50671E-06  8424   0.469E-04 0.656E-05
CGA:  62    -0.668564795621E+03   -0.49457E-03    0.26238E-05  8424   0.413E-04 0.299E-04
CGA:  63    -0.668564847747E+03   -0.52126E-04    0.71144E-04  8424   0.857E-04-0.380E-04
CGA:  64    -0.668564892881E+03   -0.45135E-04   -0.29328E-04  8424   0.122E-03-0.780E-04
CGA:  65    -0.668564933423E+03   -0.40542E-04   -0.23876E-04  8424   0.373E-04-0.490E-04
CGA:  66    -0.668564991486E+03   -0.58063E-04    0.38515E-05  8424   0.493E-04-0.118E-04
CGA:  67    -0.668565197877E+03   -0.20639E-03    0.17845E-05  8424   0.345E-04 0.305E-06
CGA:  68    -0.668565312067E+03   -0.11419E-03    0.41274E-05  8424   0.915E-04-0.179E-04
CGA:  69    -0.668565412637E+03   -0.10057E-03    0.39217E-03  8424   0.923E-03-0.271E-03
CGA:  70    -0.668565445855E+03   -0.33218E-04   -0.92608E-04  8424   0.293E-04 0.144E-03
CGA:  71    -0.668565442941E+03    0.29143E-05   -0.25817E-05  8424   0.730E-05 0.130E-04
CGA:  72    -0.668565453672E+03   -0.10731E-04    0.36947E-04  8424   0.860E-04-0.193E-04
CGA:  73    -0.668565583656E+03   -0.12998E-03    0.34892E-04  8424   0.649E-03-0.220E-03
CGA:  74    -0.668565589075E+03   -0.54189E-05   -0.61449E-04  8424   0.390E-04 0.147E-03
   7 F= -.66856559E+03 E0= -.66856559E+03  d E =-.114508E-01  mag=     2.0000
       N       E                     dE             d eps       ncg     rms          ort
SDA:   1    -0.668263595670E+03    0.30199E+00    0.00000E+00  8424   0.901E+00 0.000E+00
CGA:   2    -0.668452307261E+03   -0.18871E+00   -0.18876E+00  8424   0.374E+00-0.174E-03
CGA:   3    -0.668531960150E+03   -0.79653E-01   -0.79605E-01  8424   0.121E+00-0.198E-03
CGA:   4    -0.668551929242E+03   -0.19969E-01   -0.19985E-01  8424   0.279E-01 0.391E-04
CGA:   5    -0.668556790525E+03   -0.48613E-02   -0.48573E-02  8424   0.556E-02-0.233E-04
CGA:   6    -0.668557990206E+03   -0.11997E-02   -0.11665E-02  8424   0.146E-02-0.184E-03
CGA:   7    -0.668558349917E+03   -0.35971E-03   -0.34174E-03  8424   0.487E-03-0.128E-03
CGA:   8    -0.668558503328E+03   -0.15341E-03   -0.14674E-03  8424   0.275E-03-0.150E-03
CGA:   9    -0.668555367093E+03    0.31362E-02   -0.17082E-02  8424   0.195E-01-0.175E-02
CGA:  10    -0.668558449337E+03   -0.30822E-02   -0.31195E-02  8424   0.190E-02 0.606E-04
CGA:  11    -0.668559105291E+03   -0.65595E-03   -0.60831E-03  8424   0.617E-03-0.142E-03
CGA:  12    -0.668559304075E+03   -0.19878E-03   -0.18841E-03  8424   0.280E-03-0.339E-04
CGA:  13    -0.668559459577E+03   -0.15550E-03   -0.12804E-03  8424   0.507E-03-0.198E-03
CGA:  14    -0.668559523967E+03   -0.64390E-04   -0.67648E-04  8424   0.555E-04 0.709E-05
CGA:  15    -0.668559617122E+03   -0.93155E-04    0.41574E-04  8424   0.104E-03-0.450E-04
CGA:  16    -0.668559667571E+03   -0.50449E-04   -0.34472E-04  8424   0.101E-03-0.617E-04
CGA:  17    -0.668559700745E+03   -0.33174E-04   -0.18685E-04  8424   0.395E-04-0.369E-04
CGA:  18    -0.668559802244E+03   -0.10150E-03    0.26690E-05  8424   0.687E-04-0.134E-04
CGA:  19    -0.668560065014E+03   -0.26277E-03    0.30377E-05  8424   0.338E-04 0.161E-04
CGA:  20    -0.668560231930E+03   -0.16692E-03    0.45170E-05  8424   0.171E-03-0.314E-04
CGA:  21    -0.668560285131E+03   -0.53202E-04   -0.28160E-04  8424   0.462E-04-0.636E-04
CGA:  22    -0.668560355121E+03   -0.69990E-04    0.63314E-05  8424   0.958E-04-0.250E-04
CGA:  23    -0.668560388975E+03   -0.33854E-04   -0.17428E-04  8424   0.463E-04-0.460E-04
CGA:  24    -0.668560479469E+03   -0.90494E-04    0.24058E-05  8424   0.377E-04-0.827E-05
CGA:  25    -0.668560617654E+03   -0.13818E-03    0.24649E-05  8424   0.632E-04-0.729E-05
CGA:  26    -0.668560900772E+03   -0.28312E-03    0.30699E-05  8424   0.967E-04-0.133E-04
CGA:  27    -0.668561410664E+03   -0.50989E-03    0.36680E-05  8424   0.117E-03 0.101E-05
CGA:  28    -0.668562065875E+03   -0.65521E-03    0.71669E-05  8424   0.185E-03-0.384E-04
CGA:  29    -0.668563170724E+03   -0.11048E-02    0.43126E-05  8424   0.241E-03-0.565E-04
CGA:  30    -0.668564645463E+03   -0.14747E-02    0.58549E-05  8424   0.280E-03-0.869E-04
CGA:  31    -0.668566386836E+03   -0.17414E-02    0.55821E-05  8424   0.557E-03-0.328E-03
CGA:  32    -0.668566426445E+03   -0.39609E-04   -0.67980E-04  8424   0.526E-04 0.715E-04
CGA:  33    -0.668566427302E+03   -0.85660E-06   -0.90847E-05  8424   0.172E-04 0.235E-04
   8 F= -.66856643E+03 E0= -.66856643E+03  d E =-.838227E-03  mag=     2.0000
       N       E                     dE             d eps       ncg     rms          ort
SDA:   1    -0.668409000120E+03    0.15743E+00    0.00000E+00  8424   0.509E+00 0.000E+00
CGA:   2    -0.668514767754E+03   -0.10577E+00   -0.10587E+00  8424   0.215E+00 0.309E-03
CGA:   3    -0.668559618538E+03   -0.44851E-01   -0.44809E-01  8424   0.689E-01-0.199E-03
CGA:   4    -0.668571084440E+03   -0.11466E-01   -0.11480E-01  8424   0.162E-01 0.427E-04
CGA:   5    -0.668573857003E+03   -0.27726E-02   -0.28042E-02  8424   0.318E-02 0.124E-03
CGA:   6    -0.668574486544E+03   -0.62954E-03   -0.64013E-03  8424   0.722E-03 0.495E-04
CGA:   7    -0.668574633291E+03   -0.14675E-03   -0.15764E-03  8424   0.197E-03 0.582E-04
CGA:   8    -0.668574671293E+03   -0.38001E-04   -0.45336E-04  8424   0.552E-04 0.407E-04
CGA:   9    -0.668574674648E+03   -0.33553E-05   -0.10664E-04  8424   0.231E-04 0.326E-04
   9 F= -.66857467E+03 E0= -.66857467E+03  d E =-.824735E-02  mag=     2.0000
       N       E                     dE             d eps       ncg     rms          ort
SDA:   1    -0.658755989797E+03    0.98187E+01    0.00000E+00  8424   0.307E+02 0.000E+00
CGA:   2    -0.664783893569E+03   -0.60279E+01   -0.60527E+01  8424   0.124E+02-0.141E-01
CGA:   3    -0.667414506462E+03   -0.26306E+01   -0.26266E+01  8424   0.411E+01 0.352E-02
CGA:   4    -0.668096189350E+03   -0.68168E+00   -0.68213E+00  8424   0.983E+00 0.117E-02
CGA:   5    -0.668268275416E+03   -0.17209E+00   -0.17243E+00  8424   0.207E+00 0.129E-02
CGA:   6    -0.668309307461E+03   -0.41032E-01   -0.40856E-01  8424   0.492E-01-0.130E-02
CGA:   7    -0.668320024321E+03   -0.10717E-01   -0.10749E-01  8424   0.141E-01 0.314E-03
CGA:   8    -0.668323499832E+03   -0.34755E-02   -0.34834E-02  8424   0.413E-02 0.112E-03
CGA:   9    -0.668324805462E+03   -0.13056E-02   -0.13064E-02  8424   0.194E-02-0.699E-03
CGA:  10    -0.668325326954E+03   -0.52149E-03   -0.52495E-03  8424   0.968E-03-0.281E-03
CGA:  11    -0.668318904154E+03    0.64228E-02   -0.34609E-02  8424   0.357E-01-0.481E-02
CGA:  12    -0.668325061237E+03   -0.61571E-02   -0.65089E-02  8424   0.552E-02 0.896E-03
CGA:  13    -0.668326827115E+03   -0.17659E-02   -0.15792E-02  8424   0.210E-02-0.686E-03
CGA:  14    -0.668327270467E+03   -0.44335E-03   -0.45748E-03  8424   0.836E-03 0.497E-04
CGA:  15    -0.668327732369E+03   -0.46190E-03   -0.48746E-03  8424   0.140E-02-0.559E-03
CGA:  16    -0.668328040332E+03   -0.30796E-03   -0.25344E-03  8424   0.358E-03-0.157E-03
CGA:  17    -0.668328182098E+03   -0.14177E-03   -0.19403E-03  8424   0.154E-02-0.517E-03
CGA:  18    -0.668328391198E+03   -0.20910E-03   -0.21221E-03  8424   0.215E-03 0.116E-04
CGA:  19    -0.668328623348E+03   -0.23215E-03    0.63095E-03  8424   0.278E-03-0.158E-03
CGA:  20    -0.668328708181E+03   -0.84833E-04   -0.72536E-04  8424   0.170E-03-0.526E-04
CGA:  21    -0.668328983687E+03   -0.27551E-03    0.31126E-04  8424   0.477E-03-0.158E-03
CGA:  22    -0.668329059294E+03   -0.75607E-04   -0.75612E-04  8424   0.120E-03 0.455E-06
CGA:  23    -0.668329280206E+03   -0.22091E-03    0.28755E-04  8424   0.153E-03-0.557E-04
CGA:  24    -0.668329669163E+03   -0.38896E-03    0.46659E-05  8424   0.204E-03 0.305E-04
CGA:  25    -0.668330429036E+03   -0.75987E-03    0.24538E-04  8424   0.113E-03 0.118E-03
CGA:  26    -0.668330609557E+03   -0.18052E-03    0.37225E-04  8424   0.175E-03-0.476E-04
CGA:  27    -0.668330871677E+03   -0.26212E-03    0.13344E-04  8424   0.391E-03-0.101E-03
CGA:  28    -0.668331052995E+03   -0.18132E-03   -0.18796E-03  8424   0.124E-02-0.472E-03
CGA:  29    -0.668331168822E+03   -0.11583E-03   -0.14598E-03  8424   0.685E-04 0.889E-04
CGA:  30    -0.668331296622E+03   -0.12780E-03    0.17691E-04  8424   0.953E-04-0.199E-04
CGA:  31    -0.668331629826E+03   -0.33320E-03    0.34015E-05  8424   0.234E-03-0.354E-05
CGA:  32    -0.668332618038E+03   -0.98821E-03    0.13061E-04  8424   0.227E-03 0.173E-03
CGA:  33    -0.668332669824E+03   -0.51786E-04   -0.46877E-04  8424   0.896E-04-0.203E-04
CGA:  34    -0.668332863504E+03   -0.19368E-03    0.10475E-04  8424   0.979E-04-0.247E-04
CGA:  35    -0.668333157613E+03   -0.29411E-03    0.41636E-05  8424   0.911E-04 0.481E-04
CGA:  36    -0.668333559440E+03   -0.40183E-03    0.12501E-04  8424   0.644E-04 0.603E-04
CGA:  37    -0.668333702420E+03   -0.14298E-03    0.91899E-05  8424   0.210E-03-0.498E-04
CGA:  38    -0.668333727255E+03   -0.24836E-04   -0.27215E-04  8424   0.295E-04 0.773E-05
CGA:  39    -0.668333843835E+03   -0.11658E-03    0.18403E-05  8424   0.434E-04 0.201E-04
CGA:  40    -0.668333970975E+03   -0.12714E-03    0.37142E-05  8424   0.120E-03-0.170E-04
CGA:  41    -0.668334363763E+03   -0.39279E-03    0.28921E-05  8424   0.300E-03 0.314E-04
CGA:  42    -0.668335418446E+03   -0.10547E-02    0.34862E-04  8424   0.639E-03 0.327E-04
CGA:  43    -0.668338047279E+03   -0.26288E-02    0.44134E-04  8424   0.645E-03 0.343E-03
CGA:  44    -0.668338229271E+03   -0.18199E-03   -0.14141E-03  8424   0.154E-03-0.200E-03
CGA:  45    -0.668338271657E+03   -0.42386E-04   -0.40692E-04  8424   0.191E-03-0.575E-04
CGA:  46    -0.668338508762E+03   -0.23711E-03    0.17592E-04  8424   0.118E-03 0.319E-04
CGA:  47    -0.668338722651E+03   -0.21389E-03    0.31640E-04  8424   0.188E-03-0.291E-04
CGA:  48    -0.668339117077E+03   -0.39443E-03    0.12229E-04  8424   0.261E-03 0.872E-04
CGA:  49    -0.668339780964E+03   -0.66389E-03    0.70004E-04  8424   0.368E-03 0.286E-04
CGA:  50    -0.668340837657E+03   -0.10567E-02    0.39194E-04  8424   0.525E-03 0.197E-03
CGA:  51    -0.668340955712E+03   -0.11805E-03   -0.10606E-03  8424   0.965E-04-0.581E-04
CGA:  52    -0.668341031660E+03   -0.75947E-04    0.16341E-03  8424   0.190E-03-0.425E-04
CGA:  53    -0.668341284795E+03   -0.25314E-03    0.10811E-04  8424   0.263E-03 0.624E-04
CGA:  54    -0.668341725897E+03   -0.44110E-03    0.12102E-03  8424   0.544E-03-0.537E-04
CGA:  55    -0.668342712504E+03   -0.98661E-03    0.46998E-04  8424   0.104E-02 0.214E-03
CGA:  56    -0.668344869997E+03   -0.21575E-02    0.33938E-03  8424   0.199E-02 0.563E-04
CGA:  57    -0.668349566181E+03   -0.46962E-02    0.23456E-03  8424   0.383E-02 0.101E-02
CGA:  58    -0.668350250772E+03   -0.68459E-03   -0.69880E-03  8424   0.235E-03 0.624E-04
CGA:  59    -0.668350344500E+03   -0.93729E-04   -0.94192E-04  8424   0.355E-03-0.953E-04
CGA:  60    -0.668349695012E+03    0.64949E-03   -0.37549E-03  8424   0.547E-02-0.761E-03
CGA:  61    -0.668350987019E+03   -0.12920E-02   -0.12757E-02  8424   0.119E-02-0.764E-04
CGA:  62    -0.668351262622E+03   -0.27560E-03   -0.24828E-03  8424   0.345E-03-0.116E-03
CGA:  63    -0.668351383184E+03   -0.12056E-03   -0.31996E-03  8424   0.144E-02-0.339E-03
CGA:  64    -0.668351627082E+03   -0.24390E-03   -0.25175E-03  8424   0.329E-03 0.267E-04
CGA:  65    -0.668351725563E+03   -0.98481E-04   -0.94099E-04  8424   0.159E-03-0.262E-04
CGA:  66    -0.668351631591E+03    0.93973E-04   -0.23311E-03  8424   0.237E-02-0.289E-03
CGA:  67    -0.668352153345E+03   -0.52175E-03   -0.44967E-03  8424   0.731E-03-0.235E-03
CGA:  68    -0.668352333684E+03   -0.18034E-03   -0.16319E-03  8424   0.254E-03-0.729E-04
CGA:  69    -0.668352299529E+03    0.34154E-04   -0.22555E-03  8424   0.266E-02-0.506E-03
CGA:  70    -0.668352654206E+03   -0.35468E-03   -0.39409E-03  8424   0.367E-03 0.114E-03
CGA:  71    -0.668352766763E+03   -0.11256E-03   -0.10130E-03  8424   0.220E-03-0.526E-04
CGA:  72    -0.668352848391E+03   -0.81628E-04   -0.80341E-04  8424   0.214E-03-0.302E-04
CGA:  73    -0.668353084509E+03   -0.23612E-03    0.11738E-03  8424   0.305E-03 0.443E-04
CGA:  74    -0.668353583278E+03   -0.49877E-03    0.19356E-03  8424   0.200E-03 0.211E-03
CGA:  75    -0.668353681235E+03   -0.97957E-04   -0.12215E-03  8424   0.565E-03-0.169E-03
CGA:  76    -0.668353775391E+03   -0.94156E-04   -0.97847E-04  8424   0.109E-03 0.116E-04
CGA:  77    -0.668353884861E+03   -0.10947E-03    0.37297E-03  8424   0.217E-03-0.310E-04
CGA:  78    -0.668354125190E+03   -0.24033E-03    0.52362E-04  8424   0.368E-03 0.574E-04
CGA:  79    -0.668354689401E+03   -0.56421E-03    0.33465E-03  8424   0.487E-03 0.179E-03
CGA:  80    -0.668355536698E+03   -0.84730E-03    0.61522E-03  8424   0.751E-03 0.629E-04
CGA:  81    -0.668356566369E+03   -0.10297E-02    0.60939E-03  8424   0.155E-02-0.193E-03
CGA:  82    -0.668358670057E+03   -0.21037E-02    0.27095E-03  8424   0.223E-02-0.533E-03
CGA:  83    -0.668360422485E+03   -0.17524E-02    0.11290E-02  8424   0.478E-02-0.450E-02
CGA:  84    -0.668360864801E+03   -0.44232E-03   -0.54780E-03  8424   0.410E-03 0.315E-03
CGA:  85    -0.668360871509E+03   -0.67086E-05   -0.77037E-04  8424   0.259E-03 0.265E-03
CGA:  86    -0.668360874934E+03   -0.34245E-05   -0.45556E-04  8424   0.187E-03 0.167E-03
CGA:  87    -0.668360857459E+03    0.17475E-04   -0.25962E-04  8424   0.153E-03 0.157E-03
CGA:  88    -0.668360844176E+03    0.13283E-04   -0.22874E-04  8424   0.136E-03 0.143E-03
CGA:  89    -0.668360829993E+03    0.14183E-04   -0.18642E-04  8424   0.125E-03 0.130E-03
CGA:  90    -0.668360817248E+03    0.12745E-04   -0.16506E-04  8424   0.115E-03 0.120E-03
CGA:  91    -0.668360805342E+03    0.11906E-04   -0.14599E-04  8424   0.108E-03 0.112E-03
CGA:  92    -0.668360794430E+03    0.10912E-04   -0.13164E-04  8424   0.101E-03 0.105E-03
CGA:  93    -0.668360784413E+03    0.10017E-04   -0.11970E-04  8424   0.959E-04 0.986E-04
CGA:  94    -0.668360775251E+03    0.91624E-05   -0.10983E-04  8424   0.911E-04 0.935E-04
CGA:  95    -0.668360766881E+03    0.83695E-05   -0.10148E-04  8424   0.870E-04 0.891E-04
  10 F= -.66836077E+03 E0= -.66836077E+03  d E =0.213908E+00  mag=     2.0000
       N       E                     dE             d eps       ncg     rms          ort
SDA:   1    -0.663217565422E+03    0.51432E+01    0.00000E+00  8424   0.171E+02 0.000E+00
CGA:   2    -0.666637083936E+03   -0.34195E+01   -0.34252E+01  8424   0.695E+01 0.133E-01
CGA:   3    -0.668101275530E+03   -0.14642E+01   -0.14634E+01  8424   0.229E+01-0.252E-02
CGA:   4    -0.668479401531E+03   -0.37813E+00   -0.37831E+00  8424   0.543E+00 0.392E-03
CGA:   5    -0.668575215782E+03   -0.95814E-01   -0.95944E-01  8424   0.114E+00 0.988E-03
CGA:   6    -0.668597679800E+03   -0.22464E-01   -0.22452E-01  8424   0.266E-01-0.154E-03
CGA:   7    -0.668603385979E+03   -0.57062E-02   -0.57374E-02  8424   0.758E-02 0.529E-03
CGA:   8    -0.668605257269E+03   -0.18713E-02   -0.18802E-02  8424   0.221E-02 0.313E-03
CGA:   9    -0.668605855585E+03   -0.59832E-03   -0.60008E-03  8424   0.776E-03 0.181E-03
CGA:  10    -0.668606047375E+03   -0.19179E-03   -0.20010E-03  8424   0.336E-03 0.267E-03
CGA:  11    -0.668606136071E+03   -0.88696E-04   -0.99198E-04  8424   0.187E-03 0.218E-03
CGA:  12    -0.668606170416E+03   -0.34345E-04   -0.40170E-04  8424   0.114E-03 0.114E-03
CGA:  13    -0.668606180609E+03   -0.10193E-04   -0.19612E-04  8424   0.995E-04 0.103E-03
CGA:  14    -0.668606192063E+03   -0.11453E-04   -0.18445E-04  8424   0.926E-04 0.954E-04
CGA:  15    -0.668606199223E+03   -0.71604E-05   -0.15281E-04  8424   0.882E-04 0.902E-04
CGA:  16    -0.668606206417E+03   -0.71936E-05   -0.14577E-04  8424   0.849E-04 0.865E-04
CGA:  17    -0.668606212427E+03   -0.60106E-05   -0.13394E-04  8424   0.821E-04 0.834E-04
CGA:  18    -0.668606218013E+03   -0.55856E-05   -0.12674E-04  8424   0.798E-04 0.809E-04
CGA:  19    -0.668606223082E+03   -0.50688E-05   -0.11967E-04  8424   0.778E-04 0.788E-04
CGA:  20    -0.668606227802E+03   -0.47202E-05   -0.11387E-04  8424   0.760E-04 0.769E-04
CGA:  21    -0.668606232190E+03   -0.43879E-05   -0.10851E-04  8424   0.744E-04 0.751E-04
CGA:  22    -0.668606236313E+03   -0.41234E-05   -0.10377E-04  8424   0.729E-04 0.736E-04
  11 F= -.66860624E+03 E0= -.66860624E+03  d E =-.245469E+00  mag=     2.0000
       N       E                     dE             d eps       ncg     rms          ort
SDA:   1    -0.668470864009E+03    0.13537E+00    0.00000E+00  8424   0.453E+00 0.000E+00
CGA:   2    -0.668562282832E+03   -0.91419E-01   -0.91433E-01  8424   0.184E+00 0.912E-03
CGA:   3    -0.668600998619E+03   -0.38716E-01   -0.38717E-01  8424   0.608E-01 0.130E-03
CGA:   4    -0.668611121397E+03   -0.10123E-01   -0.10136E-01  8424   0.145E-01 0.268E-03
CGA:   5    -0.668613634596E+03   -0.25132E-02   -0.25249E-02  8424   0.294E-02 0.295E-03
CGA:   6    -0.668614193408E+03   -0.55881E-03   -0.56427E-03  8424   0.690E-03 0.239E-03
CGA:   7    -0.668614313749E+03   -0.12034E-03   -0.12904E-03  8424   0.230E-03 0.238E-03
CGA:   8    -0.668614338236E+03   -0.24487E-04   -0.39406E-04  8424   0.130E-03 0.186E-03
CGA:   9    -0.668614341568E+03   -0.33315E-05   -0.13753E-04  8424   0.948E-04 0.106E-03
  12 F= -.66861434E+03 E0= -.66861434E+03  d E =-.810525E-02  mag=     2.0000
       N       E                     dE             d eps       ncg     rms          ort
SDA:   1    -0.668494546538E+03    0.11979E+00    0.00000E+00  8424   0.382E+00 0.000E+00
CGA:   2    -0.668573636345E+03   -0.79090E-01   -0.79078E-01  8424   0.162E+00 0.769E-03
CGA:   3    -0.668607600507E+03   -0.33964E-01   -0.33965E-01  8424   0.521E-01-0.661E-04
CGA:   4    -0.668616174150E+03   -0.85736E-02   -0.85823E-02  8424   0.121E-01 0.286E-03
CGA:   5    -0.668618255336E+03   -0.20812E-02   -0.20899E-02  8424   0.239E-02 0.398E-03
CGA:   6    -0.668618706319E+03   -0.45098E-03   -0.45343E-03  8424   0.557E-03 0.289E-03
CGA:   7    -0.668618791581E+03   -0.85262E-04   -0.95109E-04  8424   0.196E-03 0.252E-03
CGA:   8    -0.668618803771E+03   -0.12190E-04   -0.28693E-04  8424   0.117E-03 0.186E-03
CGA:   9    -0.668618802635E+03    0.11367E-05   -0.94793E-05  8424   0.917E-04 0.102E-03
  13 F= -.66861880E+03 E0= -.66861880E+03  d E =-.446107E-02  mag=     2.0000
       N       E                     dE             d eps       ncg     rms          ort
SDA:   1    -0.668475464870E+03    0.14334E+00    0.00000E+00  8424   0.401E+00 0.000E+00
CGA:   2    -0.668581021241E+03   -0.10556E+00   -0.10550E+00  8424   0.198E+00 0.576E-03
CGA:   3    -0.668617768534E+03   -0.36747E-01   -0.36750E-01  8424   0.491E-01-0.456E-03
CGA:   4    -0.668625807622E+03   -0.80391E-02   -0.80432E-02  8424   0.115E-01 0.279E-03
CGA:   5    -0.668627762587E+03   -0.19550E-02   -0.19590E-02  8424   0.229E-02 0.444E-03
CGA:   6    -0.668628204393E+03   -0.44181E-03   -0.43975E-03  8424   0.545E-03 0.290E-03
CGA:   7    -0.668628295303E+03   -0.90910E-04   -0.96067E-04  8424   0.190E-03 0.239E-03
CGA:   8    -0.668628311019E+03   -0.15715E-04   -0.28486E-04  8424   0.112E-03 0.175E-03
CGA:   9    -0.668628311429E+03   -0.41077E-06   -0.91745E-05  8424   0.860E-04 0.958E-04
  14 F= -.66862831E+03 E0= -.66862831E+03  d E =-.950879E-02  mag=     2.0000
       N       E                     dE             d eps       ncg     rms          ort
SDA:   1    -0.659471011294E+03    0.91573E+01    0.00000E+00  8424   0.279E+02 0.000E+00
CGA:   2    -0.665204990239E+03   -0.57340E+01   -0.57284E+01  8424   0.116E+02 0.102E+00
CGA:   3    -0.667630609428E+03   -0.24256E+01   -0.24265E+01  8424   0.370E+01-0.197E-01
CGA:   4    -0.668245903836E+03   -0.61529E+00   -0.61530E+00  8424   0.893E+00-0.342E-03
CGA:   5    -0.668400987468E+03   -0.15508E+00   -0.15507E+00  8424   0.181E+00 0.195E-02
CGA:   6    -0.668437205748E+03   -0.36218E-01   -0.36263E-01  8424   0.431E-01-0.143E-02
CGA:   7    -0.668446749365E+03   -0.95436E-02   -0.95222E-02  8424   0.125E-01 0.398E-03
CGA:   8    -0.668449872851E+03   -0.31235E-02   -0.31249E-02  8424   0.373E-02-0.205E-04
CGA:   9    -0.668450985557E+03   -0.11127E-02   -0.13256E-02  8424   0.232E-02-0.118E-02
CGA:  10    -0.668451435049E+03   -0.44949E-03   -0.52478E-03  8424   0.117E-02-0.518E-03
CGA:  11    -0.668451791591E+03   -0.35654E-03    0.43880E-02  8424   0.395E-03 0.237E-03
CGA:  12    -0.668451998164E+03   -0.20657E-03    0.35200E-03  8424   0.153E-03 0.998E-04
CGA:  13    -0.668452117755E+03   -0.11959E-03    0.29530E-04  8424   0.814E-04 0.755E-04
CGA:  14    -0.668452243049E+03   -0.12529E-03    0.69727E-05  8424   0.543E-04 0.575E-04
CGA:  15    -0.668452319405E+03   -0.76357E-04    0.19677E-05  8424   0.324E-04 0.365E-04
CGA:  16    -0.668452375171E+03   -0.55766E-04    0.89966E-06  8424   0.264E-04 0.283E-04
CGA:  17    -0.668452434698E+03   -0.59527E-04    0.52417E-06  8424   0.233E-04 0.244E-04
CGA:  18    -0.668452489735E+03   -0.55037E-04    0.43525E-06  8424   0.211E-04 0.219E-04
CGA:  19    -0.668452545128E+03   -0.55393E-04    0.34718E-06  8424   0.193E-04 0.200E-04
CGA:  20    -0.668452598636E+03   -0.53508E-04    0.30056E-06  8424   0.180E-04 0.185E-04
CGA:  21    -0.668452651895E+03   -0.53259E-04    0.25725E-06  8424   0.168E-04 0.173E-04
CGA:  22    -0.668452703930E+03   -0.52035E-04    0.22984E-06  8424   0.159E-04 0.163E-04
CGA:  23    -0.668452755703E+03   -0.51773E-04    0.20508E-06  8424   0.152E-04 0.155E-04
CGA:  24    -0.668452806450E+03   -0.50746E-04    0.18930E-06  8424   0.145E-04 0.148E-04
CGA:  25    -0.668452857128E+03   -0.50678E-04    0.17343E-06  8424   0.140E-04 0.143E-04
CGA:  26    -0.668452906637E+03   -0.49509E-04    0.16465E-06  8424   0.136E-04 0.138E-04
CGA:  27    -0.668452956661E+03   -0.50025E-04    0.15184E-06  8424   0.132E-04 0.133E-04
CGA:  28    -0.668453004505E+03   -0.47844E-04    0.15016E-06  8424   0.129E-04 0.129E-04
CGA:  29    -0.668453055028E+03   -0.50523E-04    0.13458E-06  8424   0.127E-04 0.124E-04
CGA:  30    -0.668453099380E+03   -0.44352E-04    0.15232E-06  8424   0.130E-04 0.118E-04
CGA:  31    -0.668453153078E+03   -0.53698E-04    0.12883E-06  8424   0.142E-04 0.105E-04
CGA:  32    -0.668453190441E+03   -0.37363E-04    0.23354E-06  8424   0.171E-04 0.808E-05
CGA:  33    -0.668453251054E+03   -0.60613E-04    0.19988E-06  8424   0.228E-04 0.340E-05
CGA:  34    -0.668453359759E+03   -0.10870E-03    0.28181E-06  8424   0.189E-04 0.265E-04
CGA:  35    -0.668453387540E+03   -0.27781E-04    0.64548E-06  8424   0.239E-04 0.190E-06
CGA:  36    -0.668453490017E+03   -0.10248E-03    0.23167E-06  8424   0.230E-04 0.235E-04
CGA:  37    -0.668453556340E+03   -0.66323E-04    0.34092E-06  8424   0.271E-04-0.482E-05
CGA:  38    -0.668453654442E+03   -0.98102E-04    0.18849E-06  8424   0.283E-04 0.207E-04
CGA:  39    -0.668453671000E+03   -0.16558E-04    0.52544E-05  8424   0.301E-04-0.101E-04
CGA:  40    -0.668453758883E+03   -0.87883E-04    0.17305E-06  8424   0.307E-04 0.186E-04
CGA:  41    -0.668453830629E+03   -0.71747E-04    0.58182E-06  8424   0.292E-04-0.116E-04
CGA:  42    -0.668453914141E+03   -0.83512E-04    0.15993E-06  8424   0.272E-04 0.173E-04
CGA:  43    -0.668453929323E+03   -0.15182E-04    0.58124E-05  8424   0.235E-04-0.755E-05
CGA:  44    -0.668454007146E+03   -0.77823E-04    0.14956E-06  8424   0.208E-04 0.160E-04
CGA:  45    -0.668454070786E+03   -0.63640E-04    0.28819E-06  8424   0.170E-04-0.166E-05
CGA:  46    -0.668454144803E+03   -0.74017E-04    0.13241E-06  8424   0.156E-04 0.148E-04
CGA:  47    -0.668454168023E+03   -0.23220E-04    0.52183E-06  8424   0.126E-04 0.249E-05
CGA:  48    -0.668454239818E+03   -0.71795E-04    0.11920E-06  8424   0.126E-04 0.140E-04
CGA:  49    -0.668454293307E+03   -0.53489E-04    0.12008E-06  8424   0.103E-04 0.450E-05
CGA:  50    -0.668454365759E+03   -0.72452E-04    0.10835E-06  8424   0.109E-04 0.135E-04
CGA:  51    -0.668454392992E+03   -0.27234E-04    0.19149E-06  8424   0.917E-05 0.528E-05
CGA:  52    -0.668454462491E+03   -0.69499E-04    0.10667E-06  8424   0.994E-05 0.131E-04
CGA:  53    -0.668454511066E+03   -0.48574E-04    0.81639E-07  8424   0.848E-05 0.556E-05
CGA:  54    -0.668454541446E+03   -0.30381E-04    0.98091E-07  8424   0.785E-05 0.622E-05
CGA:  55    -0.668454584454E+03   -0.43008E-04    0.57052E-07  8424   0.747E-05 0.654E-05
CGA:  56    -0.668454617574E+03   -0.33120E-04    0.68274E-07  8424   0.723E-05 0.667E-05
CGA:  57    -0.668454657840E+03   -0.40266E-04    0.51580E-07  8424   0.706E-05 0.670E-05
CGA:  58    -0.668454691986E+03   -0.34146E-04    0.58699E-07  8424   0.694E-05 0.668E-05
CGA:  59    -0.668454730819E+03   -0.38833E-04    0.49235E-07  8424   0.684E-05 0.663E-05
CGA:  60    -0.668454765059E+03   -0.34240E-04    0.54727E-07  8424   0.675E-05 0.657E-05
CGA:  61    -0.668454803145E+03   -0.38086E-04    0.47572E-07  8424   0.668E-05 0.649E-05
CGA:  62    -0.668454836977E+03   -0.33832E-04    0.52882E-07  8424   0.662E-05 0.640E-05
CGA:  63    -0.668454874674E+03   -0.37697E-04    0.46197E-07  8424   0.658E-05 0.631E-05
CGA:  64    -0.668454907850E+03   -0.33176E-04    0.52205E-07  8424   0.654E-05 0.620E-05
CGA:  65    -0.668454945327E+03   -0.37477E-04    0.45232E-07  8424   0.651E-05 0.609E-05
CGA:  66    -0.668454977778E+03   -0.32450E-04    0.52359E-07  8424   0.649E-05 0.596E-05
CGA:  67    -0.668455015054E+03   -0.37276E-04    0.44827E-07  8424   0.648E-05 0.584E-05
CGA:  68    -0.668455046839E+03   -0.31785E-04    0.53038E-07  8424   0.647E-05 0.571E-05
CGA:  69    -0.668455083826E+03   -0.36987E-04    0.44942E-07  8424   0.647E-05 0.557E-05
CGA:  70    -0.668455115088E+03   -0.31262E-04    0.53783E-07  8424   0.646E-05 0.544E-05
CGA:  71    -0.668455151641E+03   -0.36554E-04    0.45310E-07  8424   0.644E-05 0.532E-05
CGA:  72    -0.668455182544E+03   -0.30903E-04    0.54080E-07  8424   0.642E-05 0.520E-05
CGA:  73    -0.668455218523E+03   -0.35979E-04    0.45571E-07  8424   0.639E-05 0.510E-05
CGA:  74    -0.668455249205E+03   -0.30682E-04    0.53589E-07  8424   0.635E-05 0.500E-05
CGA:  75    -0.668455284508E+03   -0.35302E-04    0.45448E-07  8424   0.630E-05 0.492E-05
CGA:  76    -0.668455315057E+03   -0.30549E-04    0.52267E-07  8424   0.624E-05 0.485E-05
CGA:  77    -0.668455349632E+03   -0.34575E-04    0.44846E-07  8424   0.618E-05 0.479E-05
CGA:  78    -0.668455380085E+03   -0.30453E-04    0.50317E-07  8424   0.611E-05 0.473E-05
CGA:  79    -0.668455413927E+03   -0.33843E-04    0.43827E-07  8424   0.603E-05 0.469E-05
CGA:  80    -0.668455444280E+03   -0.30353E-04    0.48033E-07  8424   0.595E-05 0.464E-05
CGA:  81    -0.668455477416E+03   -0.33136E-04    0.42535E-07  8424   0.588E-05 0.460E-05
CGA:  82    -0.668455507644E+03   -0.30228E-04    0.45680E-07  8424   0.580E-05 0.457E-05
CGA:  83    -0.668455540115E+03   -0.32471E-04    0.41119E-07  8424   0.572E-05 0.453E-05
CGA:  84    -0.668455570181E+03   -0.30066E-04    0.43434E-07  8424   0.564E-05 0.449E-05
CGA:  85    -0.668455602036E+03   -0.31855E-04    0.39691E-07  8424   0.557E-05 0.446E-05
CGA:  86    -0.668455631901E+03   -0.29865E-04    0.41391E-07  8424   0.550E-05 0.442E-05
CGA:  87    -0.668455663187E+03   -0.31286E-04    0.38327E-07  8424   0.543E-05 0.438E-05
CGA:  88    -0.668455692817E+03   -0.29630E-04    0.39580E-07  8424   0.536E-05 0.434E-05
CGA:  89    -0.668455723575E+03   -0.30758E-04    0.37062E-07  8424   0.530E-05 0.430E-05
CGA:  90    -0.668455752940E+03   -0.29365E-04    0.37997E-07  8424   0.524E-05 0.426E-05
CGA:  91    -0.668455783206E+03   -0.30266E-04    0.35909E-07  8424   0.518E-05 0.421E-05
CGA:  92    -0.668455812284E+03   -0.29079E-04    0.36619E-07  8424   0.512E-05 0.417E-05
CGA:  93    -0.668455842087E+03   -0.29803E-04    0.34866E-07  8424   0.507E-05 0.412E-05
CGA:  94    -0.668455870863E+03   -0.28776E-04    0.35413E-07  8424   0.501E-05 0.407E-05
CGA:  95    -0.668455900225E+03   -0.29362E-04    0.33920E-07  8424   0.496E-05 0.402E-05
CGA:  96    -0.668455928687E+03   -0.28462E-04    0.34346E-07  8424   0.492E-05 0.398E-05
CGA:  97    -0.668455957627E+03   -0.28940E-04    0.33058E-07  8424   0.487E-05 0.393E-05
CGA:  98    -0.668455985769E+03   -0.28142E-04    0.33387E-07  8424   0.482E-05 0.388E-05
CGA:  99    -0.668456014300E+03   -0.28531E-04    0.32261E-07  8424   0.478E-05 0.383E-05
CGA: 100    -0.668456042120E+03   -0.27821E-04    0.32506E-07  8424   0.473E-05 0.378E-05
CGA: 101    -0.668456070252E+03   -0.28132E-04    0.31512E-07  8424   0.469E-05 0.373E-05
CGA: 102    -0.668456097751E+03   -0.27499E-04    0.31679E-07  8424   0.465E-05 0.368E-05
CGA: 103    -0.668456125492E+03   -0.27741E-04    0.30796E-07  8424   0.460E-05 0.364E-05
CGA: 104    -0.668456152672E+03   -0.27180E-04    0.30885E-07  8424   0.456E-05 0.359E-05
CGA: 105    -0.668456180028E+03   -0.27356E-04    0.30099E-07  8424   0.452E-05 0.354E-05
CGA: 106    -0.668456206891E+03   -0.26864E-04    0.30110E-07  8424   0.448E-05 0.350E-05
CGA: 107    -0.668456233868E+03   -0.26977E-04    0.29410E-07  8424   0.444E-05 0.345E-05
CGA: 108    -0.668456260420E+03   -0.26552E-04    0.29343E-07  8424   0.440E-05 0.341E-05
CGA: 109    -0.668456287022E+03   -0.26602E-04    0.28724E-07  8424   0.436E-05 0.337E-05
CGA: 110    -0.668456313266E+03   -0.26244E-04    0.28578E-07  8424   0.431E-05 0.333E-05
CGA: 111    -0.668456339498E+03   -0.26232E-04    0.28036E-07  8424   0.427E-05 0.328E-05
CGA: 112    -0.668456365438E+03   -0.25940E-04    0.27815E-07  8424   0.423E-05 0.324E-05
CGA: 113    -0.668456391305E+03   -0.25867E-04    0.27347E-07  8424   0.419E-05 0.321E-05
CGA: 114    -0.668456416944E+03   -0.25639E-04    0.27054E-07  8424   0.415E-05 0.317E-05
CGA: 115    -0.668456442451E+03   -0.25507E-04    0.26658E-07  8424   0.411E-05 0.313E-05
CGA: 116    -0.668456467792E+03   -0.25341E-04    0.26299E-07  8424   0.407E-05 0.309E-05
CGA: 117    -0.668456492945E+03   -0.25153E-04    0.25972E-07  8424   0.403E-05 0.306E-05
CGA: 118    -0.668456517992E+03   -0.25046E-04    0.25554E-07  8424   0.399E-05 0.302E-05
CGA: 119    -0.668456542796E+03   -0.24804E-04    0.25293E-07  8424   0.395E-05 0.299E-05
CGA: 120    -0.668456567550E+03   -0.24754E-04    0.24824E-07  8424   0.391E-05 0.296E-05
CGA: 121    -0.668456592011E+03   -0.24461E-04    0.24625E-07  8424   0.387E-05 0.292E-05
CGA: 122    -0.668456616474E+03   -0.24463E-04    0.24111E-07  8424   0.383E-05 0.289E-05
CGA: 123    -0.668456640599E+03   -0.24124E-04    0.23970E-07  8424   0.379E-05 0.286E-05
CGA: 124    -0.668456664773E+03   -0.24175E-04    0.23420E-07  8424   0.375E-05 0.282E-05
CGA: 125    -0.668456688567E+03   -0.23794E-04    0.23331E-07  8424   0.372E-05 0.279E-05
CGA: 126    -0.668456712454E+03   -0.23888E-04    0.22751E-07  8424   0.368E-05 0.276E-05
CGA: 127    -0.668456735923E+03   -0.23469E-04    0.22710E-07  8424   0.364E-05 0.273E-05
CGA: 128    -0.668456759526E+03   -0.23603E-04    0.22106E-07  8424   0.361E-05 0.270E-05
CGA: 129    -0.668456782675E+03   -0.23149E-04    0.22108E-07  8424   0.357E-05 0.267E-05
CGA: 130    -0.668456805995E+03   -0.23320E-04    0.21486E-07  8424   0.353E-05 0.264E-05
CGA: 131    -0.668456828831E+03   -0.22836E-04    0.21525E-07  8424   0.350E-05 0.261E-05
CGA: 132    -0.668456851869E+03   -0.23039E-04    0.20888E-07  8424   0.346E-05 0.258E-05
CGA: 133    -0.668456874397E+03   -0.22528E-04    0.20961E-07  8424   0.343E-05 0.255E-05
CGA: 134    -0.668456897157E+03   -0.22760E-04    0.20313E-07  8424   0.340E-05 0.252E-05
CGA: 135    -0.668456919382E+03   -0.22225E-04    0.20416E-07  8424   0.336E-05 0.249E-05
CGA: 136    -0.668456941865E+03   -0.22483E-04    0.19759E-07  8424   0.333E-05 0.247E-05
CGA: 137    -0.668456963791E+03   -0.21926E-04    0.19890E-07  8424   0.330E-05 0.244E-05
CGA: 138    -0.668456986001E+03   -0.22210E-04    0.19226E-07  8424   0.327E-05 0.241E-05
CGA: 139    -0.668457007634E+03   -0.21633E-04    0.19380E-07  8424   0.323E-05 0.238E-05
CGA: 140    -0.668457029573E+03   -0.21939E-04    0.18711E-07  8424   0.320E-05 0.236E-05
CGA: 141    -0.668457050916E+03   -0.21343E-04    0.18886E-07  8424   0.317E-05 0.233E-05
CGA: 142    -0.668457072586E+03   -0.21671E-04    0.18213E-07  8424   0.314E-05 0.230E-05
CGA: 143    -0.668457093644E+03   -0.21058E-04    0.18407E-07  8424   0.311E-05 0.228E-05
CGA: 144    -0.668457115049E+03   -0.21405E-04    0.17731E-07  8424   0.308E-05 0.225E-05
CGA: 145    -0.668457135826E+03   -0.20777E-04    0.17943E-07  8424   0.305E-05 0.223E-05
CGA: 146    -0.668457156969E+03   -0.21143E-04    0.17263E-07  8424   0.302E-05 0.220E-05
CGA: 147    -0.668457177468E+03   -0.20499E-04    0.17491E-07  8424   0.299E-05 0.218E-05
CGA: 148    -0.668457198352E+03   -0.20884E-04    0.16810E-07  8424   0.297E-05 0.215E-05
CGA: 149    -0.668457218577E+03   -0.20225E-04    0.17052E-07  8424   0.294E-05 0.213E-05
CGA: 150    -0.668457239205E+03   -0.20628E-04    0.16370E-07  8424   0.291E-05 0.210E-05
CGA: 151    -0.668457259161E+03   -0.19955E-04    0.16626E-07  8424   0.288E-05 0.208E-05
CGA: 152    -0.668457279535E+03   -0.20375E-04    0.15942E-07  8424   0.285E-05 0.206E-05
CGA: 153    -0.668457299224E+03   -0.19688E-04    0.16211E-07  8424   0.283E-05 0.203E-05
CGA: 154    -0.668457319349E+03   -0.20125E-04    0.15527E-07  8424   0.280E-05 0.201E-05
CGA: 155    -0.668457338774E+03   -0.19425E-04    0.15808E-07  8424   0.277E-05 0.199E-05
CGA: 156    -0.668457358652E+03   -0.19878E-04    0.15123E-07  8424   0.275E-05 0.197E-05
CGA: 157    -0.668457377818E+03   -0.19166E-04    0.15416E-07  8424   0.272E-05 0.194E-05
CGA: 158    -0.668457397452E+03   -0.19634E-04    0.14731E-07  8424   0.269E-05 0.192E-05
CGA: 159    -0.668457416361E+03   -0.18909E-04    0.15034E-07  8424   0.267E-05 0.190E-05
CGA: 160    -0.668457435754E+03   -0.19393E-04    0.14350E-07  8424   0.264E-05 0.188E-05
CGA: 161    -0.668457454411E+03   -0.18656E-04    0.14663E-07  8424   0.262E-05 0.186E-05
CGA: 162    -0.668457473566E+03   -0.19155E-04    0.13980E-07  8424   0.259E-05 0.184E-05
CGA: 163    -0.668457491973E+03   -0.18408E-04    0.14301E-07  8424   0.257E-05 0.182E-05
CGA: 164    -0.668457510892E+03   -0.18918E-04    0.13621E-07  8424   0.254E-05 0.180E-05
CGA: 165    -0.668457529053E+03   -0.18162E-04    0.13949E-07  8424   0.252E-05 0.178E-05
CGA: 166    -0.668457547739E+03   -0.18685E-04    0.13273E-07  8424   0.250E-05 0.176E-05
CGA: 167    -0.668457565658E+03   -0.17920E-04    0.13607E-07  8424   0.247E-05 0.174E-05
CGA: 168    -0.668457584113E+03   -0.18455E-04    0.12934E-07  8424   0.245E-05 0.172E-05
CGA: 169    -0.668457601794E+03   -0.17681E-04    0.13275E-07  8424   0.243E-05 0.170E-05
CGA: 170    -0.668457620021E+03   -0.18227E-04    0.12606E-07  8424   0.240E-05 0.168E-05
CGA: 171    -0.668457637466E+03   -0.17445E-04    0.12952E-07  8424   0.238E-05 0.166E-05
CGA: 172    -0.668457655467E+03   -0.18001E-04    0.12287E-07  8424   0.236E-05 0.164E-05
CGA: 173    -0.668457672680E+03   -0.17213E-04    0.12637E-07  8424   0.234E-05 0.163E-05
CGA: 174    -0.668457690459E+03   -0.17779E-04    0.11977E-07  8424   0.232E-05 0.161E-05
CGA: 175    -0.668457707441E+03   -0.16983E-04    0.12332E-07  8424   0.229E-05 0.159E-05
CGA: 176    -0.668457725001E+03   -0.17559E-04    0.11675E-07  8424   0.227E-05 0.157E-05
CGA: 177    -0.668457741757E+03   -0.16756E-04    0.12035E-07  8424   0.225E-05 0.156E-05
CGA: 178    -0.668457759099E+03   -0.17342E-04    0.11382E-07  8424   0.223E-05 0.154E-05
CGA: 179    -0.668457775632E+03   -0.16532E-04    0.11745E-07  8424   0.221E-05 0.152E-05
CGA: 180    -0.668457792760E+03   -0.17128E-04    0.11097E-07  8424   0.219E-05 0.151E-05
CGA: 181    -0.668457809071E+03   -0.16311E-04    0.11463E-07  8424   0.217E-05 0.149E-05
CGA: 182    -0.668457825988E+03   -0.16916E-04    0.10819E-07  8424   0.215E-05 0.147E-05
CGA: 183    -0.668457842081E+03   -0.16093E-04    0.11188E-07  8424   0.213E-05 0.146E-05
CGA: 184    -0.668457858789E+03   -0.16707E-04    0.10549E-07  8424   0.211E-05 0.144E-05
CGA: 185    -0.668457874667E+03   -0.15878E-04    0.10921E-07  8424   0.209E-05 0.143E-05
CGA: 186    -0.668457891168E+03   -0.16501E-04    0.10287E-07  8424   0.207E-05 0.141E-05
CGA: 187    -0.668457906834E+03   -0.15666E-04    0.10661E-07  8424   0.205E-05 0.140E-05
CGA: 188    -0.668457923131E+03   -0.16297E-04    0.10031E-07  8424   0.203E-05 0.138E-05
CGA: 189    -0.668457938587E+03   -0.15456E-04    0.10409E-07  8424   0.201E-05 0.137E-05
CGA: 190    -0.668457954683E+03   -0.16096E-04    0.97834E-08  8424   0.199E-05 0.135E-05
CGA: 191    -0.668457969933E+03   -0.15250E-04    0.10162E-07  8424   0.198E-05 0.134E-05
CGA: 192    -0.668457985829E+03   -0.15896E-04    0.95423E-08  8424   0.196E-05 0.132E-05
CGA: 193    -0.668458000875E+03   -0.15046E-04    0.99225E-08  8424   0.194E-05 0.131E-05
CGA: 194    -0.668458016574E+03   -0.15700E-04    0.93074E-08  8424   0.192E-05 0.129E-05
CGA: 195    -0.668458031419E+03   -0.14845E-04    0.96885E-08  8424   0.190E-05 0.128E-05
CGA: 196    -0.668458046924E+03   -0.15505E-04    0.90789E-08  8424   0.189E-05 0.127E-05
CGA: 197    -0.668458061570E+03   -0.14646E-04    0.94602E-08  8424   0.187E-05 0.125E-05
CGA: 198    -0.668458076883E+03   -0.15313E-04    0.88563E-08  8424   0.185E-05 0.124E-05
CGA: 199    -0.668458091334E+03   -0.14451E-04    0.92379E-08  8424   0.183E-05 0.123E-05
CGA: 200    -0.668458106456E+03   -0.15122E-04    0.86400E-08  8424   0.182E-05 0.121E-05
  15 F= -.66845811E+03 E0= -.66845811E+03  d E =0.170205E+00  mag=     2.0000
       N       E                     dE             d eps       ncg     rms          ort
SDA:   1    -0.664391804041E+03    0.40663E+01    0.00000E+00  8424   0.135E+02 0.000E+00
CGA:   2    -0.667113099019E+03   -0.27213E+01   -0.27209E+01  8424   0.549E+01 0.289E-01
CGA:   3    -0.668261527679E+03   -0.11484E+01   -0.11485E+01  8424   0.178E+01-0.550E-02
CGA:   4    -0.668559670318E+03   -0.29814E+00   -0.29817E+00  8424   0.434E+00 0.479E-03
CGA:   5    -0.668635482995E+03   -0.75813E-01   -0.75833E-01  8424   0.882E-01 0.106E-02
CGA:   6    -0.668652953938E+03   -0.17471E-01   -0.17473E-01  8424   0.204E-01-0.398E-03
CGA:   7    -0.668657389556E+03   -0.44356E-02   -0.44221E-02  8424   0.580E-02 0.512E-03
CGA:   8    -0.668658801787E+03   -0.14122E-02   -0.13984E-02  8424   0.159E-02 0.326E-03
CGA:   9    -0.668659236999E+03   -0.43521E-03   -0.42646E-03  8424   0.514E-03 0.148E-03
CGA:  10    -0.668659346443E+03   -0.10944E-03   -0.11001E-03  8424   0.201E-03 0.232E-03
CGA:  11    -0.668659383311E+03   -0.36867E-04   -0.44324E-04  8424   0.102E-03 0.163E-03
CGA:  12    -0.668659394209E+03   -0.10898E-04   -0.14782E-04  8424   0.643E-04 0.756E-04
CGA:  13    -0.668659393756E+03    0.45264E-06   -0.57430E-05  8424   0.556E-04 0.596E-04
  16 F= -.66865939E+03 E0= -.66865939E+03  d E =-.201287E+00  mag=     2.0000
       N       E                     dE             d eps       ncg     rms          ort
SDA:   1    -0.668330184041E+03    0.32921E+00    0.00000E+00  8424   0.108E+01 0.000E+00
CGA:   2    -0.668547471622E+03   -0.21729E+00   -0.21725E+00  8424   0.442E+00 0.183E-02
CGA:   3    -0.668640419587E+03   -0.92948E-01   -0.92944E-01  8424   0.146E+00 0.411E-04
CGA:   4    -0.668664722403E+03   -0.24303E-01   -0.24310E-01  8424   0.348E-01 0.342E-03
CGA:   5    -0.668670726645E+03   -0.60042E-02   -0.60094E-02  8424   0.693E-02 0.451E-03
CGA:   6    -0.668672066457E+03   -0.13398E-02   -0.13375E-02  8424   0.156E-02 0.322E-03
CGA:   7    -0.668672366039E+03   -0.29958E-03   -0.29959E-03  8424   0.417E-03 0.347E-03
CGA:   8    -0.668672426101E+03   -0.60063E-04   -0.71245E-04  8424   0.170E-03 0.255E-03
CGA:   9    -0.668672432466E+03   -0.63646E-05   -0.16979E-04  8424   0.108E-03 0.130E-03
  17 F= -.66867243E+03 E0= -.66867243E+03  d E =-.130387E-01  mag=     2.0000
       N       E                     dE             d eps       ncg     rms          ort
SDA:   1    -0.668562676566E+03    0.10975E+00    0.00000E+00  8424   0.348E+00 0.000E+00
CGA:   2    -0.668634774407E+03   -0.72098E-01   -0.72067E-01  8424   0.149E+00 0.824E-03
CGA:   3    -0.668665946486E+03   -0.31172E-01   -0.31173E-01  8424   0.468E-01-0.662E-04
CGA:   4    -0.668673664881E+03   -0.77184E-02   -0.77214E-02  8424   0.110E-01 0.279E-03
CGA:   5    -0.668675531593E+03   -0.18667E-02   -0.18692E-02  8424   0.212E-02 0.462E-03
CGA:   6    -0.668675916655E+03   -0.38506E-03   -0.38513E-03  8424   0.470E-03 0.362E-03
CGA:   7    -0.668675979785E+03   -0.63130E-04   -0.73697E-04  8424   0.176E-03 0.258E-03
CGA:   8    -0.668675985868E+03   -0.60826E-05   -0.16624E-04  8424   0.111E-03 0.134E-03
  18 F= -.66867599E+03 E0= -.66867599E+03  d E =-.355340E-02  mag=     2.0000
       N       E                     dE             d eps       ncg     rms          ort
SDA:   1    -0.668522081787E+03    0.15390E+00    0.00000E+00  8424   0.439E+00 0.000E+00
CGA:   2    -0.668630525430E+03   -0.10844E+00   -0.10839E+00  8424   0.214E+00 0.605E-03
CGA:   3    -0.668671437651E+03   -0.40912E-01   -0.40919E-01  8424   0.551E-01-0.308E-03
CGA:   4    -0.668680529317E+03   -0.90917E-02   -0.90928E-02  8424   0.129E-01 0.286E-03
CGA:   5    -0.668682705338E+03   -0.21760E-02   -0.21764E-02  8424   0.252E-02 0.585E-03
CGA:   6    -0.668683172228E+03   -0.46689E-03   -0.46375E-03  8424   0.565E-03 0.433E-03
CGA:   7    -0.668683262529E+03   -0.90302E-04   -0.96735E-04  8424   0.202E-03 0.278E-03
CGA:   8    -0.668683276718E+03   -0.14189E-04   -0.28587E-04  8424   0.117E-03 0.196E-03
CGA:   9    -0.668683275277E+03    0.14419E-05   -0.81888E-05  8424   0.918E-04 0.102E-03
  19 F= -.66868328E+03 E0= -.66868328E+03  d E =-.728941E-02  mag=     2.0000
       N       E                     dE             d eps       ncg     rms          ort
SDA:   1    -0.661488834486E+03    0.71944E+01    0.00000E+00  8424   0.219E+02 0.000E+00
CGA:   2    -0.666008884089E+03   -0.45200E+01   -0.45152E+01  8424   0.927E+01 0.744E-01
CGA:   3    -0.667929729923E+03   -0.19208E+01   -0.19215E+01  8424   0.289E+01-0.122E-01
CGA:   4    -0.668408982753E+03   -0.47925E+00   -0.47924E+00  8424   0.691E+00 0.599E-03
CGA:   5    -0.668529640041E+03   -0.12066E+00   -0.12063E+00  8424   0.140E+00 0.183E-02
CGA:   6    -0.668557720254E+03   -0.28080E-01   -0.28109E-01  8424   0.334E-01-0.762E-03
CGA:   7    -0.668565043014E+03   -0.73228E-02   -0.72785E-02  8424   0.932E-02 0.782E-03
CGA:   8    -0.668567350928E+03   -0.23079E-02   -0.22692E-02  8424   0.262E-02 0.532E-03
CGA:   9    -0.668568139122E+03   -0.78819E-03   -0.79830E-03  8424   0.103E-02-0.858E-04
CGA:  10    -0.668568393757E+03   -0.25464E-03   -0.23930E-03  8424   0.363E-03 0.234E-03
CGA:  11    -0.668568529116E+03   -0.13536E-03   -0.12931E-03  8424   0.148E-03 0.533E-04
CGA:  12    -0.668568564943E+03   -0.35827E-04   -0.34424E-04  8424   0.653E-04 0.721E-04
CGA:  13    -0.668568574297E+03   -0.93539E-05   -0.12822E-04  8424   0.419E-04 0.652E-04
  20 F= -.66856857E+03 E0= -.66856857E+03  d E =0.114701E+00  mag=     2.0000
       N       E                     dE             d eps       ncg     rms          ort
SDA:   1    -0.665812976088E+03    0.27556E+01    0.00000E+00  8424   0.901E+01 0.000E+00
CGA:   2    -0.667655358639E+03   -0.18424E+01   -0.18418E+01  8424   0.375E+01 0.183E-01
CGA:   3    -0.668433359304E+03   -0.77800E+00   -0.77811E+00  8424   0.119E+01-0.413E-02
CGA:   4    -0.668632044229E+03   -0.19868E+00   -0.19869E+00  8424   0.287E+00 0.320E-03
CGA:   5    -0.668682052448E+03   -0.50008E-01   -0.50015E-01  8424   0.579E-01 0.862E-03
CGA:   6    -0.668693563447E+03   -0.11511E-01   -0.11517E-01  8424   0.136E-01-0.359E-03
CGA:   7    -0.668696499654E+03   -0.29362E-02   -0.29209E-02  8424   0.375E-02 0.444E-03
CGA:   8    -0.668697411393E+03   -0.91174E-03   -0.89787E-03  8424   0.102E-02 0.289E-03
CGA:   9    -0.668697689657E+03   -0.27826E-03   -0.26992E-03  8424   0.330E-03 0.140E-03
CGA:  10    -0.668697747549E+03   -0.57891E-04   -0.62321E-04  8424   0.145E-03 0.194E-03
CGA:  11    -0.668697764152E+03   -0.16603E-04   -0.20945E-04  8424   0.791E-04 0.996E-04
CGA:  12    -0.668697767105E+03   -0.29529E-05   -0.84660E-05  8424   0.625E-04 0.698E-04
  21 F= -.66869777E+03 E0= -.66869777E+03  d E =-.129193E+00  mag=     2.0000
       N       E                     dE             d eps       ncg     rms          ort
SDA:   1    -0.668294317452E+03    0.40345E+00    0.00000E+00  8424   0.128E+01 0.000E+00
CGA:   2    -0.668555869644E+03   -0.26155E+00   -0.26149E+00  8424   0.540E+00 0.199E-02
CGA:   3    -0.668668598740E+03   -0.11273E+00   -0.11274E+00  8424   0.173E+00-0.451E-03
CGA:   4    -0.668697217575E+03   -0.28619E-01   -0.28621E-01  8424   0.406E-01 0.106E-03
CGA:   5    -0.668704256408E+03   -0.70388E-02   -0.70412E-02  8424   0.819E-02 0.391E-03
CGA:   6    -0.668705860646E+03   -0.16042E-02   -0.16005E-02  8424   0.187E-02 0.257E-03
CGA:   7    -0.668706245234E+03   -0.38459E-03   -0.37997E-03  8424   0.489E-03 0.263E-03
CGA:   8    -0.668706342587E+03   -0.97353E-04   -0.98250E-04  8424   0.158E-03 0.198E-03
CGA:   9    -0.668706359508E+03   -0.16921E-04   -0.25619E-04  8424   0.822E-04 0.134E-03
CGA:  10    -0.668706359287E+03    0.22055E-06   -0.65962E-05  8424   0.622E-04 0.703E-04
  22 F= -.66870636E+03 E0= -.66870636E+03  d E =-.859218E-02  mag=     2.0000
       N       E                     dE             d eps       ncg     rms          ort
SDA:   1    -0.668625158892E+03    0.81201E-01    0.00000E+00  8424   0.255E+00 0.000E+00
CGA:   2    -0.668676968335E+03   -0.51809E-01   -0.51785E-01  8424   0.107E+00 0.647E-03
CGA:   3    -0.668699629586E+03   -0.22661E-01   -0.22664E-01  8424   0.348E-01-0.968E-04
CGA:   4    -0.668705368315E+03   -0.57387E-02   -0.57400E-02  8424   0.813E-02 0.218E-03
CGA:   5    -0.668706742442E+03   -0.13741E-02   -0.13751E-02  8424   0.156E-02 0.423E-03
CGA:   6    -0.668707016911E+03   -0.27447E-03   -0.27521E-03  8424   0.341E-03 0.314E-03
CGA:   7    -0.668707061636E+03   -0.44724E-04   -0.52823E-04  8424   0.131E-03 0.196E-03
CGA:   8    -0.668707066247E+03   -0.46114E-05   -0.12139E-04  8424   0.823E-04 0.998E-04
  23 F= -.66870707E+03 E0= -.66870707E+03  d E =-.706960E-03  mag=     2.0000
       N       E                     dE             d eps       ncg     rms          ort
SDA:   1    -0.668309977982E+03    0.39708E+00    0.00000E+00  8424   0.111E+01 0.000E+00
CGA:   2    -0.668563843688E+03   -0.25387E+00   -0.25376E+00  8424   0.532E+00 0.133E-02
CGA:   3    -0.668670466662E+03   -0.10662E+00   -0.10667E+00  8424   0.154E+00-0.128E-02
CGA:   4    -0.668695327878E+03   -0.24861E-01   -0.24862E-01  8424   0.342E-01 0.253E-03
CGA:   5    -0.668701149191E+03   -0.58213E-02   -0.58166E-02  8424   0.692E-02 0.923E-03
CGA:   6    -0.668702485977E+03   -0.13368E-02   -0.13234E-02  8424   0.154E-02 0.623E-03
CGA:   7    -0.668702803333E+03   -0.31736E-03   -0.31049E-03  8424   0.422E-03 0.359E-03
CGA:   8    -0.668702874034E+03   -0.70701E-04   -0.75939E-04  8424   0.173E-03 0.249E-03
CGA:   9    -0.668702881741E+03   -0.77076E-05   -0.16785E-04  8424   0.110E-03 0.132E-03
  24 F= -.66870288E+03 E0= -.66870288E+03  d E =0.418451E-02  mag=     2.0000
       N       E                     dE             d eps       ncg     rms          ort
SDA:   1    -0.658875393674E+03    0.98275E+01    0.00000E+00  8424   0.308E+02 0.000E+00
[...]
CGA:   6    -0.668682670544E+03   -0.20904E-02   -0.20912E-02  8424   0.242E-02-0.591E-04
CGA:   7    -0.668683153952E+03   -0.48341E-03   -0.47941E-03  8424   0.613E-03 0.271E-03
CGA:   8    -0.668683263065E+03   -0.10911E-03   -0.11363E-03  8424   0.180E-03 0.247E-03
CGA:   9    -0.668683281536E+03   -0.18470E-04   -0.28731E-04  8424   0.862E-04 0.147E-03
CGA:  10    -0.668683282126E+03   -0.59080E-06   -0.73879E-05  8424   0.618E-04 0.716E-04
  30 F= -.66868328E+03 E0= -.66868328E+03  d E =-.430595E-04  mag=     2.0000
       N       E                     dE             d eps       ncg     rms          ort
SDA:   1    -0.668440477427E+03    0.24280E+00    0.00000E+00  8424   0.743E+00 0.000E+00
CGA:   2    -0.668606339393E+03   -0.16586E+00   -0.16583E+00  8424   0.332E+00 0.481E-03
CGA:   3    -0.668671396583E+03   -0.65057E-01   -0.65019E-01  8424   0.939E-01 0.163E-02
CGA:   4    -0.668687222723E+03   -0.15826E-01   -0.15829E-01  8424   0.229E-01 0.423E-03
CGA:   5    -0.668691340939E+03   -0.41182E-02   -0.41192E-02  8424   0.477E-02-0.191E-03
CGA:   6    -0.668692291003E+03   -0.95006E-03   -0.95173E-03  8424   0.113E-02-0.621E-04
CGA:   7    -0.668692508569E+03   -0.21757E-03   -0.21457E-03  8424   0.293E-03 0.177E-03
CGA:   8    -0.668692549899E+03   -0.41330E-04   -0.47434E-04  8424   0.114E-03 0.169E-03
CGA:   9    -0.668692556721E+03   -0.68218E-05   -0.12285E-04  8424   0.662E-04 0.821E-04
  31 F= -.66869256E+03 E0= -.66869256E+03  d E =-.927459E-02  mag=     2.0000
       N       E                     dE             d eps       ncg     rms          ort
SDA:   1    -0.668307425563E+03    0.38512E+00    0.00000E+00  8424   0.112E+01 0.000E+00
CGA:   2    -0.668559632030E+03   -0.25221E+00   -0.25219E+00  8424   0.511E+00 0.102E-03
CGA:   3    -0.668660712523E+03   -0.10108E+00   -0.10103E+00  8424   0.143E+00 0.154E-02
CGA:   4    -0.668684597124E+03   -0.23885E-01   -0.23886E-01  8424   0.345E-01 0.351E-03
CGA:   5    -0.668690737997E+03   -0.61409E-02   -0.61420E-02  8424   0.708E-02-0.170E-03
CGA:   6    -0.668692155763E+03   -0.14178E-02   -0.14196E-02  8424   0.168E-02-0.612E-04
CGA:   7    -0.668692505979E+03   -0.35022E-03   -0.34533E-03  8424   0.446E-03 0.141E-03
CGA:   8    -0.668692588533E+03   -0.82555E-04   -0.82976E-04  8424   0.136E-03 0.175E-03
CGA:   9    -0.668692606286E+03   -0.17752E-04   -0.23188E-04  8424   0.647E-04 0.105E-03
CGA:  10    -0.668692610320E+03   -0.40342E-05   -0.71347E-05  8424   0.429E-04 0.506E-04
  32 F= -.66869261E+03 E0= -.66869261E+03  d E =-.535986E-04  mag=     2.0000
       N       E                     dE             d eps       ncg     rms          ort
SDA:   1    -0.667869844562E+03    0.82276E+00    0.00000E+00  8424   0.241E+01 0.000E+00
CGA:   2    -0.668398351194E+03   -0.52851E+00   -0.52829E+00  8424   0.107E+01 0.340E-02
CGA:   3    -0.668616355754E+03   -0.21800E+00   -0.21804E+00  8424   0.318E+00-0.909E-03
CGA:   4    -0.668669108374E+03   -0.52753E-01   -0.52754E-01  8424   0.751E-01 0.338E-03
CGA:   5    -0.668682222394E+03   -0.13114E-01   -0.13112E-01  8424   0.158E-01 0.288E-03
CGA:   6    -0.668685322037E+03   -0.30996E-02   -0.30994E-02  8424   0.368E-02 0.641E-05
CGA:   7    -0.668686126682E+03   -0.80464E-03   -0.79440E-03  8424   0.101E-02 0.223E-03
CGA:   8    -0.668686365517E+03   -0.23884E-03   -0.23166E-03  8424   0.277E-03 0.163E-03
CGA:   9    -0.668686429423E+03   -0.63906E-04   -0.61861E-04  8424   0.948E-04 0.114E-03
CGA:  10    -0.668686442952E+03   -0.13529E-04   -0.17334E-04  8424   0.520E-04 0.825E-04
CGA:  11    -0.668686444908E+03   -0.19554E-05   -0.51552E-05  8424   0.374E-04 0.432E-04
  33 F= -.66868644E+03 E0= -.66868644E+03  d E =0.616541E-02  mag=     2.0000
       N       E                     dE             d eps       ncg     rms          ort
SDA:   1    -0.651794209841E+03    0.16892E+02    0.00000E+00  8424   0.549E+02 0.000E+00
CGA:   2    -0.662298938417E+03   -0.10505E+02   -0.10490E+02  8424   0.210E+02 0.376E+00
CGA:   3    -0.666820385847E+03   -0.45214E+01   -0.45261E+01  8424   0.682E+01-0.835E-01
CGA:   4    -0.667979813905E+03   -0.11594E+01   -0.11594E+01  8424   0.167E+01 0.547E-02
CGA:   5    -0.668269155783E+03   -0.28934E+00   -0.28931E+00  8424   0.361E+00 0.757E-02
CGA:   6    -0.668339805767E+03   -0.70650E-01   -0.70676E-01  8424   0.820E-01-0.100E-02
CGA:   7    -0.668358311035E+03   -0.18505E-01   -0.18416E-01  8424   0.243E-01 0.163E-02
CGA:   8    -0.668364377733E+03   -0.60667E-02   -0.60194E-02  8424   0.727E-02 0.670E-03
CGA:   9    -0.668366532673E+03   -0.21549E-02   -0.22267E-02  8424   0.294E-02-0.593E-03
CGA:  10    -0.668367246405E+03   -0.71373E-03   -0.68467E-03  8424   0.104E-02 0.406E-03
CGA:  11    -0.668367623087E+03   -0.37668E-03   -0.37748E-03  8424   0.455E-03-0.790E-05
CGA:  12    -0.668367752741E+03   -0.12965E-03   -0.12454E-03  8424   0.209E-03 0.600E-04
CGA:  13    -0.668367852521E+03   -0.99780E-04   -0.99840E-04  8424   0.198E-03-0.289E-05
CGA:  14    -0.668367926303E+03   -0.73782E-04   -0.17310E-03  8424   0.743E-03-0.158E-03
CGA:  15    -0.668368088353E+03   -0.16205E-03   -0.16348E-03  8424   0.207E-03 0.645E-04
CGA:  16    -0.668368168501E+03   -0.80148E-04   -0.95590E-04  8424   0.268E-03-0.849E-04
CGA:  17    -0.668368186729E+03   -0.18228E-04   -0.88348E-04  8424   0.586E-03-0.232E-03
CGA:  18    -0.668368317670E+03   -0.13094E-03   -0.13167E-03  8424   0.260E-03 0.176E-04
CGA:  19    -0.668368349826E+03   -0.32156E-04   -0.16583E-03  8424   0.930E-03-0.378E-03
CGA:  20    -0.668368450036E+03   -0.10021E-03   -0.11920E-03  8424   0.156E-03 0.125E-03
CGA:  21    -0.668368509345E+03   -0.59310E-04   -0.59261E-04  8424   0.684E-04 0.277E-06
CGA:  22    -0.668368551204E+03   -0.41858E-04    0.91083E-04  8424   0.908E-04-0.778E-05
CGA:  23    -0.668368610750E+03   -0.59546E-04    0.33121E-04  8424   0.868E-04 0.442E-04
CGA:  24    -0.668368643186E+03   -0.32436E-04   -0.89648E-04  8424   0.118E-02-0.147E-03
CGA:  25    -0.668368822486E+03   -0.17930E-03   -0.15527E-03  8424   0.980E-04-0.146E-03
CGA:  26    -0.668368839578E+03   -0.17093E-04   -0.18710E-04  8424   0.259E-04 0.225E-04
CGA:  27    -0.668368861000E+03   -0.21422E-04    0.25891E-04  8424   0.203E-04 0.229E-04
CGA:  28    -0.668368877475E+03   -0.16475E-04    0.68947E-05  8424   0.180E-04 0.169E-04
CGA:  29    -0.668368888145E+03   -0.10670E-04    0.64148E-04  8424   0.183E-04 0.161E-04
CGA:  30    -0.668368903492E+03   -0.15347E-04    0.55660E-05  8424   0.202E-04 0.144E-04
CGA:  31    -0.668368911257E+03   -0.77653E-05   -0.72024E-05  8424   0.361E-04 0.769E-05
CGA:  32    -0.668368948160E+03   -0.36903E-04    0.25757E-04  8424   0.181E-04 0.453E-04
CGA:  33    -0.668368963686E+03   -0.15526E-04    0.54644E-05  8424   0.219E-04 0.105E-04
CGA:  34    -0.668368965484E+03   -0.17982E-05   -0.34117E-05  8424   0.159E-04 0.120E-04
  34 F= -.66836897E+03 E0= -.66836897E+03  d E =0.317479E+00  mag=     2.0000
       N       E                     dE             d eps       ncg     rms          ort
SDA:   1    -0.663586286881E+03    0.47827E+01    0.00000E+00  8424   0.169E+02 0.000E+00
CGA:   2    -0.666846416642E+03   -0.32601E+01   -0.32689E+01  8424   0.649E+01 0.203E-01
CGA:   3    -0.668219269204E+03   -0.13729E+01   -0.13714E+01  8424   0.212E+01-0.688E-02
CGA:   4    -0.668585154078E+03   -0.36588E+00   -0.36616E+00  8424   0.533E+00 0.885E-03
CGA:   5    -0.668677722768E+03   -0.92569E-01   -0.92720E-01  8424   0.117E+00 0.112E-02
CGA:   6    -0.668700247336E+03   -0.22525E-01   -0.22475E-01  8424   0.258E-01-0.659E-03
CGA:   7    -0.668706015868E+03   -0.57685E-02   -0.57828E-02  8424   0.748E-02 0.395E-03
CGA:   8    -0.668707826732E+03   -0.18109E-02   -0.18146E-02  8424   0.212E-02 0.183E-03
CGA:   9    -0.668708422029E+03   -0.59530E-03   -0.59584E-03  8424   0.705E-03-0.346E-04
CGA:  10    -0.668708600694E+03   -0.17866E-03   -0.17881E-03  8424   0.248E-03 0.108E-03
CGA:  11    -0.668708692465E+03   -0.91770E-04   -0.91173E-04  8424   0.111E-03 0.970E-05
CGA:  12    -0.668708704381E+03   -0.11916E-04   -0.18192E-04  8424   0.495E-04 0.599E-04
CGA:  13    -0.668708706228E+03   -0.18470E-05   -0.64041E-05  8424   0.282E-04 0.356E-04
  35 F= -.66870871E+03 E0= -.66870871E+03  d E =-.339741E+00  mag=     2.0000
       N       E                     dE             d eps       ncg     rms          ort
SDA:   1    -0.667471575470E+03    0.12371E+01    0.00000E+00  8424   0.408E+01 0.000E+00
CGA:   2    -0.668280099394E+03   -0.80852E+00   -0.80899E+00  8424   0.160E+01 0.580E-02
CGA:   3    -0.668618541717E+03   -0.33844E+00   -0.33839E+00  8424   0.534E+00-0.116E-02
CGA:   4    -0.668708894929E+03   -0.90353E-01   -0.90401E-01  8424   0.131E+00 0.536E-03
CGA:   5    -0.668731861448E+03   -0.22967E-01   -0.23001E-01  8424   0.278E-01 0.536E-03
CGA:   6    -0.668737237316E+03   -0.53759E-02   -0.53768E-02  8424   0.618E-02 0.200E-04
CGA:   7    -0.668738552249E+03   -0.13149E-02   -0.13221E-02  8424   0.168E-02 0.420E-03
CGA:   8    -0.668738917021E+03   -0.36477E-03   -0.37263E-03  8424   0.446E-03 0.343E-03
CGA:   9    -0.668738993697E+03   -0.76676E-04   -0.90574E-04  8424   0.164E-03 0.232E-03
CGA:  10    -0.668738998592E+03   -0.48952E-05   -0.18591E-04  8424   0.101E-03 0.122E-03
  36 F= -.66873900E+03 E0= -.66873900E+03  d E =-.302924E-01  mag=     2.0000
       N       E                     dE             d eps       ncg     rms          ort
SDA:   1    -0.668695499509E+03    0.43494E-01    0.00000E+00  8424   0.152E+00 0.000E+00
CGA:   2    -0.668727591697E+03   -0.32092E-01   -0.32093E-01  8424   0.654E-01 0.415E-03
CGA:   3    -0.668740958492E+03   -0.13367E-01   -0.13372E-01  8424   0.198E-01 0.528E-03
CGA:   4    -0.668744238964E+03   -0.32805E-02   -0.32939E-02  8424   0.465E-02 0.278E-03
CGA:   5    -0.668745037592E+03   -0.79863E-03   -0.80635E-03  8424   0.949E-03 0.194E-03
CGA:   6    -0.668745191418E+03   -0.15383E-03   -0.16276E-03  8424   0.211E-03 0.203E-03
CGA:   7    -0.668745202263E+03   -0.10846E-04   -0.26496E-04  8424   0.992E-04 0.152E-03
CGA:   8    -0.668745197914E+03    0.43491E-05   -0.66983E-05  8424   0.711E-04 0.826E-04
  37 F= -.66874520E+03 E0= -.66874520E+03  d E =-.619932E-02  mag=     2.0000
       N       E                     dE             d eps       ncg     rms          ort
SDA:   1    -0.668279364557E+03    0.46584E+00    0.00000E+00  8424   0.132E+01 0.000E+00
CGA:   2    -0.668608888244E+03   -0.32952E+00   -0.32947E+00  8424   0.623E+00 0.764E-03
CGA:   3    -0.668725337067E+03   -0.11645E+00   -0.11645E+00  8424   0.156E+00 0.102E-02
CGA:   4    -0.668751678221E+03   -0.26341E-01   -0.26344E-01  8424   0.386E-01 0.818E-04
CGA:   5    -0.668758496811E+03   -0.68186E-02   -0.68183E-02  8424   0.807E-02-0.288E-04
CGA:   6    -0.668760047769E+03   -0.15510E-02   -0.15502E-02  8424   0.183E-02 0.205E-03
CGA:   7    -0.668760414332E+03   -0.36656E-03   -0.36469E-03  8424   0.498E-03 0.346E-03
CGA:   8    -0.668760490340E+03   -0.76008E-04   -0.87678E-04  8424   0.199E-03 0.284E-03
CGA:   9    -0.668760500168E+03   -0.98275E-05   -0.21386E-04  8424   0.119E-03 0.146E-03
  38 F= -.66876050E+03 E0= -.66876050E+03  d E =-.153023E-01  mag=     2.0000
       N       E                     dE             d eps       ncg     rms          ort
SDA:   1    -0.668734170638E+03    0.26320E-01    0.00000E+00  8424   0.105E+00 0.000E+00
CGA:   2    -0.668756610452E+03   -0.22440E-01   -0.22425E-01  8424   0.465E-01 0.407E-03
CGA:   3    -0.668766394766E+03   -0.97843E-02   -0.97711E-02  8424   0.140E-01 0.433E-03
CGA:   4    -0.668768681139E+03   -0.22864E-02   -0.22902E-02  8424   0.311E-02 0.205E-03
CGA:   5    -0.668769192586E+03   -0.51145E-03   -0.51539E-03  8424   0.587E-03 0.236E-03
CGA:   6    -0.668769269948E+03   -0.77363E-04   -0.87053E-04  8424   0.159E-03 0.233E-03
CGA:   7    -0.668769274601E+03   -0.46522E-05   -0.18225E-04  8424   0.836E-04 0.142E-03
  39 F= -.66876927E+03 E0= -.66876927E+03  d E =-.877443E-02  mag=     2.0000
       N       E                     dE             d eps       ncg     rms          ort
SDA:   1    -0.667064095288E+03    0.17052E+01    0.00000E+00  8424   0.476E+01 0.000E+00
CGA:   2    -0.668260548340E+03   -0.11965E+01   -0.11964E+01  8424   0.229E+01 0.358E-03
CGA:   3    -0.668691126392E+03   -0.43058E+00   -0.43058E+00  8424   0.559E+00-0.359E-03
CGA:   4    -0.668785090173E+03   -0.93964E-01   -0.93963E-01  8424   0.138E+00-0.223E-03
CGA:   5    -0.668809072327E+03   -0.23982E-01   -0.23981E-01  8424   0.279E-01 0.511E-03
CGA:   6    -0.668814642420E+03   -0.55701E-02   -0.55574E-02  8424   0.653E-02 0.475E-03
CGA:   7    -0.668816186607E+03   -0.15442E-02   -0.15381E-02  8424   0.202E-02 0.104E-03
CGA:   8    -0.668816709388E+03   -0.52278E-03   -0.51350E-03  8424   0.680E-03 0.125E-03
CGA:   9    -0.668816897098E+03   -0.18771E-03   -0.17841E-03  8424   0.242E-03 0.138E-03
CGA:  10    -0.668816955855E+03   -0.58757E-04   -0.56948E-04  8424   0.111E-03 0.141E-03
CGA:  11    -0.668816969996E+03   -0.14141E-04   -0.16718E-04  8424   0.627E-04 0.770E-04
CGA:  12    -0.668816974452E+03   -0.44559E-05   -0.77401E-05  8424   0.504E-04 0.560E-04
  40 F= -.66881697E+03 E0= -.66881697E+03  d E =-.476999E-01  mag=     2.0000
       N       E                     dE             d eps       ncg     rms          ort
SDA:   1    -0.668204328641E+03    0.61264E+00    0.00000E+00  8424   0.190E+01 0.000E+00
CGA:   2    -0.668618136766E+03   -0.41381E+00   -0.41371E+00  8424   0.830E+00 0.207E-02
CGA:   3    -0.668786560567E+03   -0.16842E+00   -0.16839E+00  8424   0.242E+00 0.130E-02
CGA:   4    -0.668826812740E+03   -0.40252E-01   -0.40257E-01  8424   0.584E-01 0.337E-03
CGA:   5    -0.668837116674E+03   -0.10304E-01   -0.10304E-01  8424   0.120E-01-0.603E-04
CGA:   6    -0.668839494861E+03   -0.23782E-02   -0.23772E-02  8424   0.277E-02 0.459E-04
CGA:   7    -0.668840090071E+03   -0.59521E-03   -0.58806E-03  8424   0.745E-03 0.222E-03
CGA:   8    -0.668840248013E+03   -0.15794E-03   -0.15523E-03  8424   0.214E-03 0.220E-03
CGA:   9    -0.668840282008E+03   -0.33995E-04   -0.39630E-04  8424   0.956E-04 0.146E-03
CGA:  10    -0.668840288207E+03   -0.61994E-05   -0.10935E-04  8424   0.615E-04 0.728E-04
  41 F= -.66884029E+03 E0= -.66884029E+03  d E =-.233138E-01  mag=     2.0000
       N       E                     dE             d eps       ncg     rms          ort
SDA:   1    -0.668570205013E+03    0.27008E+00    0.00000E+00  8424   0.795E+00 0.000E+00
CGA:   2    -0.668763880740E+03   -0.19368E+00   -0.19365E+00  8424   0.374E+00 0.338E-03
CGA:   3    -0.668833811975E+03   -0.69931E-01   -0.69914E-01  8424   0.955E-01 0.143E-02
CGA:   4    -0.668849921253E+03   -0.16109E-01   -0.16109E-01  8424   0.238E-01-0.752E-04
CGA:   5    -0.668854175124E+03   -0.42539E-02   -0.42550E-02  8424   0.495E-02-0.298E-03
CGA:   6    -0.668855139544E+03   -0.96442E-03   -0.96286E-03  8424   0.115E-02 0.725E-04
CGA:   7    -0.668855388304E+03   -0.24876E-03   -0.24479E-03  8424   0.329E-03 0.117E-03
CGA:   8    -0.668855459307E+03   -0.71003E-04   -0.69417E-04  8424   0.113E-03 0.123E-03
CGA:   9    -0.668855476530E+03   -0.17223E-04   -0.21083E-04  8424   0.599E-04 0.896E-04
CGA:  10    -0.668855481740E+03   -0.52094E-05   -0.75741E-05  8424   0.409E-04 0.468E-04
  42 F= -.66885548E+03 E0= -.66885548E+03  d E =-.151935E-01  mag=     2.0000
       N       E                     dE             d eps       ncg     rms          ort
SDA:   1    -0.658169611584E+03    0.10686E+02    0.00000E+00  8424   0.336E+02 0.000E+00
CGA:   2    -0.664799344004E+03   -0.66297E+01   -0.66199E+01  8424   0.136E+02 0.247E+00
CGA:   3    -0.667735478753E+03   -0.29361E+01   -0.29384E+01  8424   0.432E+01-0.425E-01
CGA:   4    -0.668456730596E+03   -0.72125E+00   -0.72127E+00  8424   0.103E+01-0.353E-03
CGA:   5    -0.668633039589E+03   -0.17631E+00   -0.17632E+00  8424   0.212E+00 0.223E-02
CGA:   6    -0.668675851005E+03   -0.42811E-01   -0.42836E-01  8424   0.491E-01-0.864E-03
CGA:   7    -0.668687081251E+03   -0.11230E-01   -0.11226E-01  8424   0.143E-01 0.639E-04
CGA:   8    -0.668690701575E+03   -0.36203E-02   -0.36529E-02  8424   0.462E-02-0.426E-03
CGA:   9    -0.668692030259E+03   -0.13287E-02   -0.15802E-02  8424   0.290E-02-0.148E-02
CGA:  10    -0.668692609065E+03   -0.57881E-03   -0.71534E-03  8424   0.171E-02-0.796E-03
CGA:  11    -0.668688934990E+03    0.36741E-02   -0.19907E-02  8424   0.233E-01-0.498E-02
CGA:  12    -0.668692837226E+03   -0.39022E-02   -0.40348E-02  8424   0.383E-02 0.689E-03
CGA:  13    -0.668694054371E+03   -0.12171E-02   -0.11652E-02  8424   0.168E-02-0.901E-03
CGA:  14    -0.668694440140E+03   -0.38577E-03   -0.37945E-03  8424   0.736E-03-0.114E-03
CGA:  15    -0.668688729062E+03    0.57111E-02   -0.30770E-02  8424   0.293E-01-0.378E-02
CGA:  16    -0.668694044809E+03   -0.53157E-02   -0.54277E-02  8424   0.649E-02 0.303E-03
CGA:  17    -0.668695584126E+03   -0.15393E-02   -0.13975E-02  8424   0.101E-02-0.360E-03
CGA:  18    -0.668696080259E+03   -0.49613E-03   -0.48290E-03  8424   0.105E-02-0.155E-03
CGA:  19    -0.668696511761E+03   -0.43150E-03   -0.33160E-03  8424   0.915E-03-0.471E-03
CGA:  20    -0.668696726028E+03   -0.21427E-03   -0.12700E-03  8424   0.287E-03-0.270E-03
CGA:  21    -0.668697012251E+03   -0.28622E-03    0.21768E-03  8424   0.455E-03-0.161E-03
CGA:  22    -0.668697183529E+03   -0.17128E-03   -0.12768E-03  8424   0.262E-03-0.157E-03
CGA:  23    -0.668697406423E+03   -0.22289E-03    0.25110E-03  8424   0.268E-03-0.606E-04
CGA:  24    -0.668697753774E+03   -0.34735E-03    0.10369E-03  8424   0.787E-03-0.288E-03
CGA:  25    -0.668697851708E+03   -0.97934E-04   -0.11042E-03  8424   0.607E-04 0.320E-04
CGA:  26    -0.668698001756E+03   -0.15005E-03    0.13180E-04  8424   0.129E-03-0.287E-04
CGA:  27    -0.668698365563E+03   -0.36381E-03    0.43930E-05  8424   0.179E-03-0.547E-04
CGA:  28    -0.668698883950E+03   -0.51839E-03    0.72426E-05  8424   0.521E-03-0.239E-03
CGA:  29    -0.668699093699E+03   -0.20975E-03   -0.16981E-03  8424   0.378E-03-0.200E-03
CGA:  30    -0.668699212320E+03   -0.11862E-03   -0.11554E-03  8424   0.428E-03-0.157E-03
CGA:  31    -0.668688691172E+03    0.10521E-01   -0.58283E-02  8424   0.587E-01-0.400E-02
CGA:  32    -0.668698508648E+03   -0.98175E-02   -0.99432E-02  8424   0.510E-02 0.188E-02
CGA:  33    -0.668699814745E+03   -0.13061E-02   -0.13439E-02  8424   0.252E-02-0.805E-04
CGA:  34    -0.668699958475E+03   -0.14373E-03   -0.84158E-03  8424   0.361E-02 0.117E-02
CGA:  35    -0.668684686930E+03    0.15272E-01   -0.51115E-03  8424   0.450E-01 0.605E-02
CGA:  36    -0.668598663605E+03    0.86023E-01   -0.74178E-02  8424   0.351E+00 0.563E-01
CGA:  37    -0.668274841302E+03    0.32382E+00   -0.72893E-01  8424   0.121E+01 0.219E+00
CGA:  38    -0.667600820895E+03    0.67402E+00   -0.28927E+00  8424   0.346E+01 0.875E+00
CGA:  39    -0.667543146416E+03    0.57674E-01   -0.11168E+01  8424   0.275E+01 0.102E+01
CGA:  40    -0.667167655451E+03    0.37549E+00   -0.91133E+00  8424   0.311E+01 0.229E+01
CGA:  41    -0.668211297310E+03   -0.10436E+01   -0.13507E+01  8424   0.101E+01 0.320E+00
CGA:  42    -0.668304694510E+03   -0.93397E-01   -0.35479E+00  8424   0.582E+00 0.463E+00
CGA:  43    -0.668541837740E+03   -0.23714E+00   -0.30818E+00  8424   0.172E+00 0.153E+00
CGA:  44    -0.668631598663E+03   -0.89761E-01   -0.10082E+00  8424   0.420E-01 0.359E-01
CGA:  45    -0.668661504045E+03   -0.29905E-01   -0.30124E-01  8424   0.173E-01 0.117E-01
CGA:  46    -0.668677029210E+03   -0.15525E-01   -0.15187E-01  8424   0.118E-01 0.112E-01
CGA:  47    -0.668685614179E+03   -0.85850E-02   -0.16487E-01  8424   0.830E-01-0.344E-01
CGA:  48    -0.668698241873E+03   -0.12628E-01   -0.12263E-01  8424   0.460E-02-0.535E-03
CGA:  49    -0.668700465971E+03   -0.22241E-02   -0.21763E-02  8424   0.516E-02-0.395E-03
CGA:  50    -0.668701515538E+03   -0.10496E-02   -0.11662E-02  8424   0.831E-03 0.235E-03
