       N       E                     dE             d eps       ncg     rms          ort
DAV:   1     0.827690780926E+04    0.82769E+04   -0.24656E+05  8424   0.238E+03
DAV:   2     0.921535299953E+03   -0.73554E+04   -0.69043E+04  8424   0.657E+02
DAV:   3    -0.674014925997E+03   -0.15956E+04   -0.14034E+04  8424   0.283E+02
DAV:   4    -0.830090069728E+03   -0.15608E+03   -0.15335E+03  8424   0.858E+01
DAV:   5    -0.832570865477E+03   -0.24808E+01   -0.24702E+01  8424   0.121E+01
SDA:   6    -0.262618275703E+03    0.56995E+03   -0.24702E+01  8424   0.386E+04 0.000E+00
CGA:   7    -0.595040301408E+03   -0.33242E+03   -0.38200E+03  8424   0.148E+04 0.619E+02
CGA:   8    -0.619732215980E+03   -0.24692E+02   -0.11012E+03  8424   0.602E+03-0.104E+03
CGA:   9    -0.630224403408E+03   -0.10492E+02   -0.33625E+02  8424   0.313E+03-0.108E+02
CGA:  10    -0.644533687165E+03   -0.14309E+02   -0.15870E+02  8424   0.272E+03-0.930E+01
CGA:  11    -0.654686616377E+03   -0.10153E+02   -0.15606E+02  8424   0.137E+03-0.625E+02
CGA:  12    -0.656738226564E+03   -0.20516E+01   -0.53221E+01  8424   0.203E+03-0.138E+03
CGA:  13    -0.655589405192E+03    0.11488E+01   -0.14595E+02  8424   0.232E+03-0.605E+02
CGA:  14    -0.658858143297E+03   -0.32687E+01   -0.10316E+02  8424   0.633E+02-0.355E+02
CGA:  15    -0.664485853535E+03   -0.56277E+01   -0.18842E+01  8424   0.205E+02-0.393E+02
CGA:  16    -0.665033663958E+03   -0.54781E+00   -0.66695E+00  8424   0.157E+02-0.747E+01
CGA:  17    -0.665823093977E+03   -0.78943E+00   -0.72971E+00  8424   0.250E+02-0.726E+00
CGA:  18    -0.665965271205E+03   -0.14218E+00   -0.10952E+01  8424   0.367E+02-0.227E+02
CGA:  19    -0.666342833159E+03   -0.37756E+00   -0.14327E+01  8424   0.425E+02-0.238E+02
CGA:  20    -0.666635314767E+03   -0.29248E+00   -0.19401E+01  8424   0.234E+02-0.153E+02
CGA:  21    -0.667501546809E+03   -0.86623E+00   -0.90328E+00  8424   0.115E+01 0.205E+01
CGA:  22    -0.667730022107E+03   -0.22848E+00   -0.22039E+00  8424   0.335E+01 0.103E+00
CGA:  23    -0.668002537870E+03   -0.27252E+00   -0.20781E+00  8424   0.152E+01 0.677E+00
CGA:  24    -0.668171996122E+03   -0.16946E+00   -0.18327E+00  8424   0.952E+00 0.173E+00
CGA:  25    -0.668321165236E+03   -0.14917E+00   -0.14834E+00  8424   0.477E+00 0.193E-01
CGA:  26    -0.668407071308E+03   -0.85906E-01   -0.82086E-01  8424   0.390E+00 0.482E-01
CGA:  27    -0.668536799908E+03   -0.12973E+00   -0.11649E+00  8424   0.254E+00 0.759E-01
CGA:  28    -0.668623535586E+03   -0.86736E-01   -0.12955E+00  8424   0.861E+00-0.151E+00
CGA:  29    -0.668713769560E+03   -0.90234E-01   -0.91436E-01  8424   0.154E+00-0.213E-01
CGA:  30    -0.668757995825E+03   -0.44226E-01   -0.54489E-01  8424   0.416E+00-0.471E-01
CGA:  31    -0.668827911277E+03   -0.69915E-01   -0.90791E-01  8424   0.584E+00-0.131E+00
CGA:  32    -0.668877493884E+03   -0.49583E-01   -0.49142E-01  8424   0.231E+00-0.539E-01
CGA:  33    -0.668924739333E+03   -0.47245E-01   -0.49403E-01  8424   0.298E+00-0.312E-01
CGA:  34    -0.668980827008E+03   -0.56088E-01   -0.61135E-01  8424   0.141E+00-0.649E-01
CGA:  35    -0.668999542736E+03   -0.18716E-01   -0.18744E-01  8424   0.973E-01-0.143E-01
CGA:  36    -0.669019921347E+03   -0.20379E-01   -0.21487E-01  8424   0.789E-01-0.143E-01
CGA:  37    -0.669032925789E+03   -0.13004E-01   -0.13231E-01  8424   0.515E-01-0.972E-02
CGA:  38    -0.669042194837E+03   -0.92690E-02   -0.93052E-02  8424   0.350E-01-0.119E-02
CGA:  39    -0.669048266303E+03   -0.60715E-02   -0.60620E-02  8424   0.213E-01 0.428E-02
CGA:  40    -0.669053178269E+03   -0.49120E-02   -0.47976E-02  8424   0.142E-01 0.446E-02
CGA:  41    -0.669056643931E+03   -0.34657E-02   -0.33968E-02  8424   0.920E-02 0.308E-02
CGA:  42    -0.669058785569E+03   -0.21416E-02   -0.21040E-02  8424   0.677E-02 0.371E-02
CGA:  43    -0.669060247771E+03   -0.14622E-02   -0.15322E-02  8424   0.447E-02 0.413E-02
CGA:  44    -0.669061467272E+03   -0.12195E-02   -0.11400E-02  8424   0.272E-02 0.101E-02
CGA:  45    -0.669062828579E+03   -0.13613E-02   -0.11615E-02  8424   0.165E-02 0.118E-02
CGA:  46    -0.669064658270E+03   -0.18297E-02   -0.15327E-02  8424   0.238E-02 0.599E-03
CGA:  47    -0.669066648918E+03   -0.19906E-02   -0.16810E-02  8424   0.359E-02 0.894E-03
CGA:  48    -0.669070486283E+03   -0.38374E-02   -0.42584E-02  8424   0.114E-01-0.116E-02
CGA:  49    -0.669070427156E+03    0.59127E-04   -0.49585E-02  8424   0.257E-01-0.172E-01
CGA:  50    -0.669079313633E+03   -0.88865E-02   -0.89433E-02  8424   0.206E-01-0.816E-03
CGA:  51    -0.669086201615E+03   -0.68880E-02   -0.72346E-02  8424   0.145E-01-0.438E-02
CGA:  52    -0.669090867077E+03   -0.46655E-02   -0.49704E-02  8424   0.666E-02-0.213E-02
CGA:  53    -0.669093017539E+03   -0.21505E-02   -0.39938E-02  8424   0.137E-01-0.457E-02
CGA:  54    -0.669095770575E+03   -0.27530E-02   -0.26278E-02  8424   0.301E-02-0.103E-02
CGA:  55    -0.669096137142E+03   -0.36657E-03   -0.23532E-02  8424   0.167E-01-0.368E-02
CGA:  56    -0.669098503555E+03   -0.23664E-02   -0.24565E-02  8424   0.167E-02 0.534E-03
CGA:  57    -0.669099125224E+03   -0.62167E-03   -0.63841E-03  8424   0.881E-03-0.375E-03
CGA:  58    -0.669099693063E+03   -0.56784E-03    0.41563E-03  8424   0.644E-03 0.354E-03
CGA:  59    -0.669100624162E+03   -0.93110E-03    0.25882E-03  8424   0.516E-03 0.531E-03
CGA:  60    -0.669101091797E+03   -0.46763E-03    0.22066E-03  8424   0.421E-03 0.142E-03
CGA:  61    -0.669101763819E+03   -0.67202E-03    0.96956E-04  8424   0.401E-03 0.434E-03
CGA:  62    -0.669102167458E+03   -0.40364E-03    0.12317E-03  8424   0.303E-03 0.201E-03
CGA:  63    -0.669102828885E+03   -0.66143E-03    0.60850E-04  8424   0.348E-03 0.427E-03
CGA:  64    -0.669103242328E+03   -0.41344E-03    0.70380E-04  8424   0.273E-03 0.220E-03
CGA:  65    -0.669103633781E+03   -0.39145E-03    0.37719E-04  8424   0.258E-03 0.247E-03
CGA:  66    -0.669104034493E+03   -0.40071E-03    0.30784E-04  8424   0.254E-03 0.251E-03
CGA:  67    -0.669104428222E+03   -0.39373E-03    0.30409E-04  8424   0.252E-03 0.251E-03
CGA:  68    -0.669104835755E+03   -0.40753E-03    0.28135E-04  8424   0.251E-03 0.249E-03
CGA:  69    -0.669105232031E+03   -0.39628E-03    0.29209E-04  8424   0.251E-03 0.248E-03
CGA:  70    -0.669105650844E+03   -0.41881E-03    0.26652E-04  8424   0.254E-03 0.244E-03
CGA:  71    -0.669106040776E+03   -0.38993E-03    0.30985E-04  8424   0.265E-03 0.237E-03
CGA:  72    -0.669106480406E+03   -0.43963E-03    0.28445E-04  8424   0.306E-03 0.213E-03
CGA:  73    -0.669106824165E+03   -0.34376E-03    0.70508E-04  8424   0.454E-03 0.134E-03
CGA:  74    -0.669107899823E+03   -0.10757E-02    0.70553E-04  8424   0.277E-03 0.622E-03
CGA:  75    -0.669108365048E+03   -0.46522E-03    0.29087E-04  8424   0.363E-03 0.179E-03
CGA:  76    -0.669108660681E+03   -0.29563E-03    0.24449E-03  8424   0.690E-03 0.979E-05
CGA:  77    -0.669109909183E+03   -0.12485E-02    0.68906E-04  8424   0.645E-03 0.702E-03
CGA:  78    -0.669110404543E+03   -0.49536E-03    0.61743E-03  8424   0.175E-02-0.539E-03
CGA:  79    -0.669110605589E+03   -0.20105E-03   -0.21540E-03  8424   0.259E-03 0.707E-04
CGA:  80    -0.669111064667E+03   -0.45908E-03    0.25342E-04  8424   0.310E-03 0.258E-03
CGA:  81    -0.669111558002E+03   -0.49333E-03    0.32699E-04  8424   0.475E-03 0.106E-03
CGA:  82    -0.669112637931E+03   -0.10799E-02    0.60709E-04  8424   0.312E-03 0.614E-03
CGA:  83    -0.669112963371E+03   -0.32544E-03    0.76845E-04  8424   0.455E-03 0.105E-03
CGA:  84    -0.669114068969E+03   -0.11056E-02    0.52022E-04  8424   0.324E-03 0.582E-03
CGA:  85    -0.669114578870E+03   -0.50990E-03    0.34707E-04  8424   0.412E-03 0.107E-03
CGA:  86    -0.669115554378E+03   -0.97551E-03    0.48199E-04  8424   0.343E-03 0.516E-03
CGA:  87    -0.669115935304E+03   -0.38093E-03    0.72568E-04  8424   0.344E-03 0.120E-03
CGA:  88    -0.669116838241E+03   -0.90294E-03    0.35891E-04  8424   0.337E-03 0.437E-03
CGA:  89    -0.669117320603E+03   -0.48236E-03    0.42761E-04  8424   0.279E-03 0.156E-03
CGA:  90    -0.669118119258E+03   -0.79866E-03    0.31162E-04  8424   0.309E-03 0.387E-03
CGA:  91    -0.669118567753E+03   -0.44850E-03    0.38060E-04  8424   0.246E-03 0.186E-03
CGA:  92    -0.669119024971E+03   -0.45722E-03    0.20233E-04  8424   0.232E-03 0.209E-03
CGA:  93    -0.669119464155E+03   -0.43918E-03    0.18523E-04  8424   0.226E-03 0.216E-03
CGA:  94    -0.669119922663E+03   -0.45851E-03    0.16410E-04  8424   0.224E-03 0.218E-03
CGA:  95    -0.669120360279E+03   -0.43762E-03    0.17196E-04  8424   0.224E-03 0.218E-03
CGA:  96    -0.669120827056E+03   -0.46678E-03    0.15585E-04  8424   0.225E-03 0.216E-03
CGA:  97    -0.669121254957E+03   -0.42790E-03    0.17956E-04  8424   0.229E-03 0.212E-03
CGA:  98    -0.669121739871E+03   -0.48491E-03    0.15635E-04  8424   0.239E-03 0.203E-03
CGA:  99    -0.669122140070E+03   -0.40020E-03    0.23308E-04  8424   0.262E-03 0.186E-03
CGA: 100    -0.669122659946E+03   -0.51988E-03    0.19587E-04  8424   0.310E-03 0.152E-03
CGA: 101    -0.669122996332E+03   -0.33639E-03    0.69685E-04  8424   0.412E-03 0.798E-04
CGA: 102    -0.669124077914E+03   -0.10816E-02    0.35882E-04  8424   0.340E-03 0.510E-03
CGA: 103    -0.669124639669E+03   -0.56176E-03    0.33773E-04  8424   0.455E-03 0.370E-04
CGA: 104    -0.669125710877E+03   -0.10712E-02    0.34257E-04  8424   0.418E-03 0.499E-03
CGA: 105    -0.669125993596E+03   -0.28272E-03    0.10369E-02  8424   0.575E-03-0.666E-04
CGA: 106    -0.669127064636E+03   -0.10710E-02    0.30864E-04  8424   0.638E-03 0.475E-03
CGA: 107    -0.669127701647E+03   -0.63701E-03    0.17755E-03  8424   0.897E-03-0.339E-03
CGA: 108    -0.669127899383E+03   -0.19774E-03   -0.18485E-03  8424   0.357E-03-0.117E-03
CGA: 109    -0.669128559939E+03   -0.66056E-03    0.20073E-04  8424   0.274E-03 0.300E-03
CGA: 110    -0.669129089053E+03   -0.52911E-03    0.20341E-04  8424   0.299E-03 0.122E-03
CGA: 111    -0.669130032232E+03   -0.94318E-03    0.27036E-04  8424   0.271E-03 0.428E-03
CGA: 112    -0.669130401235E+03   -0.36900E-03    0.35925E-04  8424   0.289E-03 0.122E-03
CGA: 113    -0.669131344202E+03   -0.94297E-03    0.25086E-04  8424   0.269E-03 0.415E-03
CGA: 114    -0.669131870200E+03   -0.52600E-03    0.19602E-04  8424   0.278E-03 0.124E-03
CGA: 115    -0.669132787754E+03   -0.91755E-03    0.24074E-04  8424   0.265E-03 0.401E-03
CGA: 116    -0.669133168127E+03   -0.38037E-03    0.31886E-04  8424   0.265E-03 0.126E-03
CGA: 117    -0.669134076278E+03   -0.90815E-03    0.22420E-04  8424   0.261E-03 0.386E-03
CGA: 118    -0.669134594482E+03   -0.51820E-03    0.18579E-04  8424   0.250E-03 0.132E-03
CGA: 119    -0.669134981449E+03   -0.38697E-03    0.26331E-04  8424   0.246E-03 0.136E-03
CGA: 120    -0.669135498491E+03   -0.51704E-03    0.16213E-04  8424   0.245E-03 0.137E-03
CGA: 121    -0.669135883550E+03   -0.38506E-03    0.25122E-04  8424   0.245E-03 0.136E-03
CGA: 122    -0.669136401707E+03   -0.51816E-03    0.15944E-04  8424   0.245E-03 0.134E-03
CGA: 123    -0.669136784779E+03   -0.38307E-03    0.25441E-04  8424   0.246E-03 0.131E-03
CGA: 124    -0.669137305062E+03   -0.52028E-03    0.16098E-04  8424   0.248E-03 0.128E-03
CGA: 125    -0.669137685149E+03   -0.38009E-03    0.26507E-04  8424   0.250E-03 0.125E-03
CGA: 126    -0.669138208536E+03   -0.52339E-03    0.16543E-04  8424   0.253E-03 0.121E-03
CGA: 127    -0.669139118215E+03   -0.90968E-03    0.20228E-04  8424   0.247E-03 0.373E-03
CGA: 128    -0.669139496048E+03   -0.37783E-03    0.26464E-04  8424   0.250E-03 0.118E-03
CGA: 129    -0.669140409722E+03   -0.91367E-03    0.19583E-04  8424   0.244E-03 0.369E-03
CGA: 130    -0.669140931897E+03   -0.52217E-03    0.15597E-04  8424   0.247E-03 0.117E-03
CGA: 131    -0.669141840690E+03   -0.90879E-03    0.19051E-04  8424   0.241E-03 0.363E-03
CGA: 132    -0.669142218308E+03   -0.37762E-03    0.24776E-04  8424   0.244E-03 0.115E-03
CGA: 133    -0.669143128782E+03   -0.91047E-03    0.18400E-04  8424   0.238E-03 0.358E-03
CGA: 134    -0.669143649070E+03   -0.52029E-03    0.14776E-04  8424   0.240E-03 0.113E-03
CGA: 135    -0.669144553872E+03   -0.90480E-03    0.17864E-04  8424   0.235E-03 0.352E-03
CGA: 136    -0.669144931214E+03   -0.37734E-03    0.23257E-04  8424   0.237E-03 0.111E-03
CGA: 137    -0.669145835616E+03   -0.90440E-03    0.17254E-04  8424   0.232E-03 0.347E-03
CGA: 138    -0.669146353564E+03   -0.51795E-03    0.14028E-04  8424   0.233E-03 0.110E-03
CGA: 139    -0.669147252410E+03   -0.89885E-03    0.16718E-04  8424   0.229E-03 0.341E-03
CGA: 140    -0.669147629178E+03   -0.37677E-03    0.21861E-04  8424   0.229E-03 0.108E-03
CGA: 141    -0.669148525858E+03   -0.89668E-03    0.16165E-04  8424   0.226E-03 0.336E-03
CGA: 142    -0.669149041054E+03   -0.51520E-03    0.13316E-04  8424   0.225E-03 0.107E-03
CGA: 143    -0.669149932681E+03   -0.89163E-03    0.15636E-04  8424   0.223E-03 0.330E-03
CGA: 144    -0.669150308535E+03   -0.37585E-03    0.20532E-04  8424   0.222E-03 0.105E-03
CGA: 145    -0.669151196534E+03   -0.88800E-03    0.15139E-04  8424   0.220E-03 0.325E-03
CGA: 146    -0.669151708497E+03   -0.51196E-03    0.12614E-04  8424   0.218E-03 0.104E-03
CGA: 147    -0.669152591938E+03   -0.88344E-03    0.14622E-04  8424   0.217E-03 0.319E-03
CGA: 148    -0.669152966629E+03   -0.37469E-03    0.19219E-04  8424   0.214E-03 0.102E-03
CGA: 149    -0.669153845181E+03   -0.87855E-03    0.14171E-04  8424   0.214E-03 0.313E-03
CGA: 150    -0.669154353273E+03   -0.50809E-03    0.11907E-04  8424   0.210E-03 0.102E-03
CGA: 151    -0.669155227444E+03   -0.87417E-03    0.13668E-04  8424   0.211E-03 0.307E-03
CGA: 152    -0.669155600949E+03   -0.37351E-03    0.17872E-04  8424   0.206E-03 0.100E-03
CGA: 153    -0.669156468978E+03   -0.86803E-03    0.13249E-04  8424   0.207E-03 0.302E-03
CGA: 154    -0.669156972274E+03   -0.50330E-03    0.11182E-04  8424   0.201E-03 0.998E-04
CGA: 155    -0.669157835470E+03   -0.86320E-03    0.12757E-04  8424   0.204E-03 0.296E-03
CGA: 156    -0.669158208228E+03   -0.37276E-03    0.16437E-04  8424   0.197E-03 0.991E-04
CGA: 157    -0.669159063780E+03   -0.85555E-03    0.12351E-04  8424   0.200E-03 0.290E-03
CGA: 158    -0.669159560865E+03   -0.49709E-03    0.10431E-04  8424   0.191E-03 0.992E-04
CGA: 159    -0.669160410221E+03   -0.84936E-03    0.11863E-04  8424   0.196E-03 0.283E-03
CGA: 160    -0.669160783423E+03   -0.37320E-03    0.14853E-04  8424   0.186E-03 0.992E-04
CGA: 161    -0.669161271470E+03   -0.48805E-03    0.90133E-05  8424   0.179E-03 0.106E-03
CGA: 162    -0.669161649560E+03   -0.37809E-03    0.11735E-04  8424   0.175E-03 0.109E-03
CGA: 163    -0.669162129921E+03   -0.48036E-03    0.79895E-05  8424   0.171E-03 0.112E-03
CGA: 164    -0.669162511275E+03   -0.38135E-03    0.10370E-04  8424   0.168E-03 0.113E-03
CGA: 165    -0.669162986492E+03   -0.47522E-03    0.74500E-05  8424   0.166E-03 0.114E-03
CGA: 166    -0.669163368955E+03   -0.38246E-03    0.96492E-05  8424   0.165E-03 0.114E-03
CGA: 167    -0.669163841033E+03   -0.47208E-03    0.71479E-05  8424   0.164E-03 0.114E-03
CGA: 168    -0.669164222726E+03   -0.38169E-03    0.93186E-05  8424   0.163E-03 0.113E-03
CGA: 169    -0.669164693232E+03   -0.47051E-03    0.70085E-05  8424   0.163E-03 0.112E-03
CGA: 170    -0.669165072619E+03   -0.37939E-03    0.92743E-05  8424   0.163E-03 0.111E-03
CGA: 171    -0.669165542735E+03   -0.47012E-03    0.70050E-05  8424   0.163E-03 0.109E-03
CGA: 172    -0.669165918609E+03   -0.37587E-03    0.94862E-05  8424   0.164E-03 0.106E-03
CGA: 173    -0.669166389200E+03   -0.47059E-03    0.71460E-05  8424   0.166E-03 0.103E-03
CGA: 174    -0.669166760601E+03   -0.37140E-03    0.99958E-05  8424   0.168E-03 0.999E-04
CGA: 175    -0.669167232296E+03   -0.47170E-03    0.74903E-05  8424   0.171E-03 0.957E-04
CGA: 176    -0.669167598351E+03   -0.36605E-03    0.10975E-04  8424   0.175E-03 0.905E-04
CGA: 177    -0.669168071657E+03   -0.47331E-03    0.82101E-05  8424   0.181E-03 0.839E-04
CGA: 178    -0.669168925870E+03   -0.85421E-03    0.10166E-04  8424   0.172E-03 0.266E-03
CGA: 179    -0.669169283804E+03   -0.35793E-03    0.11459E-04  8424   0.178E-03 0.821E-04
CGA: 180    -0.669170133989E+03   -0.85019E-03    0.97893E-05  8424   0.168E-03 0.261E-03
CGA: 181    -0.669170605108E+03   -0.47112E-03    0.75472E-05  8424   0.173E-03 0.809E-04
CGA: 182    -0.669171443827E+03   -0.83872E-03    0.94286E-05  8424   0.165E-03 0.254E-03
CGA: 183    -0.669171794127E+03   -0.35030E-03    0.10760E-04  8424   0.170E-03 0.792E-04
CGA: 184    -0.669172628050E+03   -0.83392E-03    0.90324E-05  8424   0.162E-03 0.249E-03
CGA: 185    -0.669173093882E+03   -0.46583E-03    0.70179E-05  8424   0.165E-03 0.779E-04
CGA: 186    -0.669173915436E+03   -0.82155E-03    0.86843E-05  8424   0.159E-03 0.242E-03
CGA: 187    -0.669174259621E+03   -0.34419E-03    0.10061E-04  8424   0.161E-03 0.762E-04
CGA: 188    -0.669175074997E+03   -0.81538E-03    0.83141E-05  8424   0.156E-03 0.237E-03
CGA: 189    -0.669175534026E+03   -0.45903E-03    0.65531E-05  8424   0.157E-03 0.748E-04
CGA: 190    -0.669176337770E+03   -0.80374E-03    0.79780E-05  8424   0.153E-03 0.231E-03
CGA: 191    -0.669176676200E+03   -0.33843E-03    0.93849E-05  8424   0.153E-03 0.731E-04
CGA: 192    -0.669177472448E+03   -0.79625E-03    0.76458E-05  8424   0.150E-03 0.225E-03
CGA: 193    -0.669177923892E+03   -0.45144E-03    0.61203E-05  8424   0.149E-03 0.717E-04
CGA: 194    -0.669178709708E+03   -0.78582E-03    0.73245E-05  8424   0.147E-03 0.219E-03
CGA: 195    -0.669179042319E+03   -0.33261E-03    0.87321E-05  8424   0.146E-03 0.700E-04
CGA: 196    -0.669179819635E+03   -0.77732E-03    0.70308E-05  8424   0.144E-03 0.214E-03
CGA: 197    -0.669180263034E+03   -0.44340E-03    0.57041E-05  8424   0.142E-03 0.687E-04
CGA: 198    -0.669181031133E+03   -0.76810E-03    0.67276E-05  8424   0.141E-03 0.208E-03
CGA: 199    -0.669181357732E+03   -0.32660E-03    0.81001E-05  8424   0.139E-03 0.671E-04
CGA: 200    -0.669182116672E+03   -0.75894E-03    0.64688E-05  8424   0.138E-03 0.203E-03
   1 F= -.66918212E+03 E0= -.66918212E+03  d E =-.669182E+03  mag=     2.0000
       N       E                     dE             d eps       ncg     rms          ort
SDA:   1    -0.669182298810E+03   -0.94108E-03    0.00000E+00  8424   0.136E-01 0.000E+00
CGA:   2    -0.669186430024E+03   -0.41312E-02   -0.41180E-02  8424   0.915E-02-0.161E-02
CGA:   3    -0.669188036568E+03   -0.16065E-02   -0.15085E-02  8424   0.225E-02-0.791E-03
CGA:   4    -0.669188591058E+03   -0.55449E-03   -0.48774E-03  8424   0.156E-02-0.977E-03
CGA:   5    -0.669189187009E+03   -0.59595E-03    0.11293E-02  8424   0.168E-02-0.878E-03
CGA:   6    -0.669189619828E+03   -0.43282E-03   -0.37932E-03  8424   0.126E-02-0.707E-03
CGA:   7    -0.669190245228E+03   -0.62540E-03    0.24646E-03  8424   0.870E-03-0.456E-03
CGA:   8    -0.669191086882E+03   -0.84165E-03    0.53428E-04  8424   0.553E-03 0.717E-04
CGA:   9    -0.669191898932E+03   -0.81205E-03    0.70026E-04  8424   0.486E-03-0.958E-04
CGA:  10    -0.669192977566E+03   -0.10786E-02    0.17114E-04  8424   0.399E-03 0.145E-03
CGA:  11    -0.669194269156E+03   -0.12916E-02    0.24309E-04  8424   0.365E-03 0.192E-03
CGA:  12    -0.669195742429E+03   -0.14733E-02    0.22537E-04  8424   0.235E-03 0.241E-03
CGA:  13    -0.669196091677E+03   -0.34925E-03    0.23410E-04  8424   0.111E-03 0.576E-04
CGA:  14    -0.669196576112E+03   -0.48444E-03    0.42447E-05  8424   0.105E-03 0.102E-03
CGA:  15    -0.669196906853E+03   -0.33074E-03    0.36167E-05  8424   0.822E-04 0.761E-04
CGA:  16    -0.669197233325E+03   -0.32647E-03    0.21676E-05  8424   0.820E-04 0.763E-04
CGA:  17    -0.669197550813E+03   -0.31749E-03    0.22232E-05  8424   0.850E-04 0.736E-04
CGA:  18    -0.669197876782E+03   -0.32597E-03    0.23310E-05  8424   0.936E-04 0.672E-04
CGA:  19    -0.669198184256E+03   -0.30747E-03    0.30912E-05  8424   0.116E-03 0.521E-04
CGA:  20    -0.669198509651E+03   -0.32539E-03    0.46645E-05  8424   0.174E-03 0.150E-04
CGA:  21    -0.669199310359E+03   -0.80071E-03    0.50265E-05  8424   0.147E-03 0.194E-03
CGA:  22    -0.669199588847E+03   -0.27849E-03    0.10092E-04  8424   0.257E-03-0.397E-04
CGA:  23    -0.669200429891E+03   -0.84104E-03    0.42783E-05  8424   0.354E-03 0.179E-03
CGA:  24    -0.669200745509E+03   -0.31562E-03    0.10630E-03  8424   0.774E-03-0.369E-03
CGA:  25    -0.669200942738E+03   -0.19723E-03   -0.15348E-03  8424   0.449E-03-0.439E-03
CGA:  26    -0.669201212015E+03   -0.26928E-03    0.27642E-02  8424   0.102E-02-0.525E-03
CGA:  27    -0.669201447234E+03   -0.23522E-03   -0.18035E-03  8424   0.383E-03-0.470E-03
CGA:  28    -0.669201874948E+03   -0.42771E-03    0.11491E-04  8424   0.815E-04 0.103E-03
CGA:  29    -0.669202280934E+03   -0.40599E-03    0.25477E-05  8424   0.111E-03 0.658E-04
CGA:  30    -0.669202531100E+03   -0.25017E-03    0.54732E-05  8424   0.154E-03 0.101E-04
CGA:  31    -0.669203222644E+03   -0.69154E-03    0.39112E-05  8424   0.141E-03 0.165E-03
CGA:  32    -0.669203559704E+03   -0.33706E-03    0.64127E-05  8424   0.201E-03-0.308E-04
CGA:  33    -0.669204266036E+03   -0.70633E-03    0.33010E-05  8424   0.236E-03 0.152E-03
CGA:  34    -0.669204442862E+03   -0.17683E-03    0.11032E-03  8424   0.346E-03-0.152E-03
CGA:  35    -0.669204812305E+03   -0.36944E-03    0.57962E-04  8424   0.528E-03-0.294E-03
CGA:  36    -0.669204954983E+03   -0.14268E-03   -0.12524E-03  8424   0.438E-03-0.348E-03
CGA:  37    -0.669205292308E+03   -0.33732E-03    0.17634E-03  8424   0.702E-03-0.419E-03
CGA:  38    -0.669205466611E+03   -0.17430E-03   -0.14491E-03  8424   0.377E-03-0.376E-03
CGA:  39    -0.669205749921E+03   -0.28331E-03    0.15653E-03  8424   0.646E-03-0.359E-03
CGA:  40    -0.669205931761E+03   -0.18184E-03   -0.17506E-03  8424   0.108E-02-0.700E-03
CGA:  41    -0.669206194270E+03   -0.26251E-03   -0.20797E-03  8424   0.527E-03-0.617E-03
CGA:  42    -0.669205942828E+03    0.25144E-03   -0.30465E-03  8424   0.800E-02-0.184E-02
CGA:  43    -0.669206903634E+03   -0.96081E-03   -0.92228E-03  8424   0.786E-04-0.206E-03
CGA:  44    -0.669207206841E+03   -0.30321E-03    0.17968E-05  8424   0.835E-04 0.468E-04
CGA:  45    -0.669207427551E+03   -0.22071E-03    0.32044E-05  8424   0.111E-03 0.289E-04
CGA:  46    -0.669208064032E+03   -0.63648E-03    0.32405E-05  8424   0.845E-04 0.146E-03
CGA:  47    -0.669208377735E+03   -0.31370E-03    0.21362E-05  8424   0.112E-03 0.251E-04
CGA:  48    -0.669208993957E+03   -0.61622E-03    0.31605E-05  8424   0.889E-04 0.142E-03
CGA:  49    -0.669209194936E+03   -0.20098E-03    0.41742E-05  8424   0.118E-03 0.170E-04
CGA:  50    -0.669209813058E+03   -0.61812E-03    0.29387E-05  8424   0.102E-03 0.139E-03
CGA:  51    -0.669210139007E+03   -0.32595E-03    0.30726E-05  8424   0.136E-03-0.849E-06
CGA:  52    -0.669210743865E+03   -0.60486E-03    0.27327E-05  8424   0.135E-03 0.132E-03
CGA:  53    -0.669210901715E+03   -0.15785E-03    0.17755E-04  8424   0.179E-03-0.415E-04
CGA:  54    -0.669211487018E+03   -0.58530E-03    0.23744E-05  8424   0.213E-03 0.119E-03
CGA:  55    -0.669211860921E+03   -0.37390E-03    0.14302E-04  8424   0.271E-03-0.129E-03
CGA:  56    -0.669211936327E+03   -0.75406E-04   -0.91914E-04  8424   0.605E-03-0.290E-03
CGA:  57    -0.669212408214E+03   -0.47189E-03    0.23435E-03  8424   0.820E-03-0.593E-03
CGA:  58    -0.669212491812E+03   -0.83598E-04   -0.10025E-03  8424   0.590E-04 0.102E-03
CGA:  59    -0.669212711013E+03   -0.21920E-03    0.18550E-05  8424   0.909E-04 0.341E-04
CGA:  60    -0.669213016002E+03   -0.30499E-03    0.24891E-05  8424   0.944E-04 0.149E-04
CGA:  61    -0.669213511690E+03   -0.49569E-03    0.21310E-05  8424   0.920E-04 0.109E-03
CGA:  62    -0.669213690876E+03   -0.17919E-03    0.50700E-05  8424   0.921E-04 0.135E-04
CGA:  63    -0.669214173921E+03   -0.48305E-03    0.20144E-05  8424   0.911E-04 0.105E-03
CGA:  64    -0.669214473255E+03   -0.29933E-03    0.25591E-05  8424   0.876E-04 0.143E-04
CGA:  65    -0.669214940445E+03   -0.46719E-03    0.19202E-05  8424   0.879E-04 0.101E-03
CGA:  66    -0.669215120214E+03   -0.17977E-03    0.45174E-05  8424   0.817E-04 0.173E-04
CGA:  67    -0.669215574560E+03   -0.45435E-03    0.18334E-05  8424   0.832E-04 0.971E-04
CGA:  68    -0.669215861952E+03   -0.28739E-03    0.21985E-05  8424   0.754E-04 0.213E-04
CGA:  69    -0.669216307579E+03   -0.44563E-03    0.17499E-05  8424   0.782E-04 0.940E-04
CGA:  70    -0.669216491182E+03   -0.18360E-03    0.33433E-05  8424   0.700E-04 0.250E-04
CGA:  71    -0.669216925804E+03   -0.43462E-03    0.17053E-05  8424   0.738E-04 0.916E-04
CGA:  72    -0.669217200568E+03   -0.27476E-03    0.17863E-05  8424   0.655E-04 0.280E-04
CGA:  73    -0.669217633887E+03   -0.43332E-03    0.16351E-05  8424   0.702E-04 0.896E-04
CGA:  74    -0.669217819348E+03   -0.18546E-03    0.25791E-05  8424   0.623E-04 0.299E-04
CGA:  75    -0.669218242009E+03   -0.42266E-03    0.16228E-05  8424   0.673E-04 0.881E-04
CGA:  76    -0.669218506898E+03   -0.26489E-03    0.15285E-05  8424   0.597E-04 0.313E-04
CGA:  77    -0.669218931978E+03   -0.42508E-03    0.15602E-05  8424   0.651E-04 0.867E-04
CGA:  78    -0.669219116720E+03   -0.18474E-03    0.21846E-05  8424   0.579E-04 0.320E-04
CGA:  79    -0.669219530761E+03   -0.41404E-03    0.15624E-05  8424   0.632E-04 0.855E-04
CGA:  80    -0.669219788157E+03   -0.25740E-03    0.13790E-05  8424   0.563E-04 0.325E-04
CGA:  81    -0.669219978654E+03   -0.19050E-03    0.15273E-05  8424   0.521E-04 0.374E-04
CGA:  82    -0.669220220136E+03   -0.24148E-03    0.98126E-06  8424   0.497E-04 0.402E-04
CGA:  83    -0.669220419147E+03   -0.19901E-03    0.11030E-05  8424   0.481E-04 0.418E-04
CGA:  84    -0.669220652059E+03   -0.23291E-03    0.86240E-06  8424   0.473E-04 0.426E-04
CGA:  85    -0.669220854341E+03   -0.20228E-03    0.97310E-06  8424   0.467E-04 0.429E-04
CGA:  86    -0.669221083482E+03   -0.22914E-03    0.82414E-06  8424   0.465E-04 0.429E-04
CGA:  87    -0.669221285298E+03   -0.20182E-03    0.94013E-06  8424   0.464E-04 0.428E-04
CGA:  88    -0.669221513736E+03   -0.22844E-03    0.81314E-06  8424   0.465E-04 0.424E-04
CGA:  89    -0.669221712262E+03   -0.19853E-03    0.95874E-06  8424   0.468E-04 0.418E-04
CGA:  90    -0.669221942360E+03   -0.23010E-03    0.82290E-06  8424   0.474E-04 0.410E-04
CGA:  91    -0.669222135154E+03   -0.19279E-03    0.10373E-05  8424   0.485E-04 0.398E-04
CGA:  92    -0.669222369187E+03   -0.23403E-03    0.87229E-06  8424   0.503E-04 0.381E-04
CGA:  93    -0.669222553687E+03   -0.18450E-03    0.12379E-05  8424   0.530E-04 0.355E-04
CGA:  94    -0.669222794217E+03   -0.24053E-03    0.10204E-05  8424   0.573E-04 0.318E-04
CGA:  95    -0.669222967072E+03   -0.17286E-03    0.17817E-05  8424   0.639E-04 0.261E-04
CGA:  96    -0.669223413985E+03   -0.44691E-03    0.16820E-05  8424   0.563E-04 0.922E-04
CGA:  97    -0.669223657954E+03   -0.24397E-03    0.11448E-05  8424   0.623E-04 0.263E-04
CGA:  98    -0.669224093258E+03   -0.43530E-03    0.16665E-05  8424   0.554E-04 0.906E-04
CGA:  99    -0.669224259928E+03   -0.16667E-03    0.17331E-05  8424   0.607E-04 0.265E-04
CGA: 100    -0.669224693481E+03   -0.43355E-03    0.16123E-05  8424   0.545E-04 0.891E-04
CGA: 101    -0.669224934517E+03   -0.24104E-03    0.10811E-05  8424   0.588E-04 0.270E-04
CGA: 102    -0.669225355389E+03   -0.42087E-03    0.15922E-05  8424   0.536E-04 0.872E-04
CGA: 103    -0.669225518002E+03   -0.16261E-03    0.16596E-05  8424   0.571E-04 0.273E-04
CGA: 104    -0.669225760754E+03   -0.24275E-03    0.11853E-05  8424   0.616E-04 0.230E-04
CGA: 105    -0.669226176445E+03   -0.41569E-03    0.15604E-05  8424   0.572E-04 0.860E-04
CGA: 106    -0.669226330681E+03   -0.15424E-03    0.20497E-05  8424   0.610E-04 0.225E-04
CGA: 107    -0.669226742707E+03   -0.41203E-03    0.15151E-05  8424   0.574E-04 0.845E-04
CGA: 108    -0.669226983747E+03   -0.24104E-03    0.12060E-05  8424   0.602E-04 0.220E-04
CGA: 109    -0.669227385946E+03   -0.40220E-03    0.14946E-05  8424   0.575E-04 0.829E-04
CGA: 110    -0.669227535137E+03   -0.14919E-03    0.21630E-05  8424   0.595E-04 0.216E-04
CGA: 111    -0.669227932316E+03   -0.39718E-03    0.14591E-05  8424   0.576E-04 0.815E-04
CGA: 112    -0.669228170820E+03   -0.23850E-03    0.12316E-05  8424   0.586E-04 0.214E-04
CGA: 113    -0.669228559775E+03   -0.38896E-03    0.14360E-05  8424   0.575E-04 0.800E-04
CGA: 114    -0.669228705383E+03   -0.14561E-03    0.22308E-05  8424   0.576E-04 0.213E-04
CGA: 115    -0.669229088245E+03   -0.38286E-03    0.14121E-05  8424   0.572E-04 0.787E-04
CGA: 116    -0.669229323108E+03   -0.23486E-03    0.12372E-05  8424   0.565E-04 0.216E-04
CGA: 117    -0.669229699819E+03   -0.37671E-03    0.13890E-05  8424   0.568E-04 0.775E-04
CGA: 118    -0.669229843404E+03   -0.14358E-03    0.22035E-05  8424   0.553E-04 0.220E-04
CGA: 119    -0.669230213464E+03   -0.37006E-03    0.13771E-05  8424   0.561E-04 0.764E-04
CGA: 120    -0.669230443605E+03   -0.23014E-03    0.12130E-05  8424   0.539E-04 0.226E-04
CGA: 121    -0.669230809742E+03   -0.36614E-03    0.13556E-05  8424   0.553E-04 0.754E-04
CGA: 122    -0.669230952499E+03   -0.14276E-03    0.20953E-05  8424   0.527E-04 0.233E-04
CGA: 123    -0.669231311770E+03   -0.35927E-03    0.13555E-05  8424   0.545E-04 0.746E-04
CGA: 124    -0.669231536600E+03   -0.22483E-03    0.11713E-05  8424   0.515E-04 0.241E-04
CGA: 125    -0.669231893984E+03   -0.35738E-03    0.13361E-05  8424   0.537E-04 0.739E-04
CGA: 126    -0.669232036493E+03   -0.14251E-03    0.19619E-05  8424   0.504E-04 0.248E-04
CGA: 127    -0.669232386869E+03   -0.35038E-03    0.13465E-05  8424   0.529E-04 0.733E-04
CGA: 128    -0.669232606372E+03   -0.21950E-03    0.11298E-05  8424   0.493E-04 0.256E-04
CGA: 129    -0.669232956440E+03   -0.35007E-03    0.13290E-05  8424   0.522E-04 0.728E-04
CGA: 130    -0.669233098841E+03   -0.14240E-03    0.18440E-05  8424   0.485E-04 0.263E-04
CGA: 131    -0.669233310484E+03   -0.21164E-03    0.97635E-06  8424   0.460E-04 0.292E-04
CGA: 132    -0.669233460230E+03   -0.14975E-03    0.13090E-05  8424   0.443E-04 0.312E-04
CGA: 133    -0.669233663941E+03   -0.20371E-03    0.84045E-06  8424   0.431E-04 0.327E-04
CGA: 134    -0.669233818337E+03   -0.15440E-03    0.10908E-05  8424   0.423E-04 0.337E-04
CGA: 135    -0.669234017024E+03   -0.19869E-03    0.78151E-06  8424   0.417E-04 0.343E-04
CGA: 136    -0.669234173523E+03   -0.15650E-03    0.10021E-05  8424   0.415E-04 0.347E-04
CGA: 137    -0.669234369729E+03   -0.19621E-03    0.76119E-06  8424   0.414E-04 0.349E-04
CGA: 138    -0.669234526080E+03   -0.15635E-03    0.98489E-06  8424   0.415E-04 0.349E-04
CGA: 139    -0.669234721938E+03   -0.19586E-03    0.76400E-06  8424   0.418E-04 0.348E-04
CGA: 140    -0.669234876146E+03   -0.15421E-03    0.10225E-05  8424   0.423E-04 0.344E-04
CGA: 141    -0.669235073534E+03   -0.19739E-03    0.78937E-06  8424   0.431E-04 0.338E-04
CGA: 142    -0.669235223714E+03   -0.15018E-03    0.11281E-05  8424   0.442E-04 0.329E-04
CGA: 143    -0.669235424473E+03   -0.20076E-03    0.85197E-06  8424   0.459E-04 0.315E-04
CGA: 144    -0.669235568587E+03   -0.14411E-03    0.13612E-05  8424   0.483E-04 0.296E-04
CGA: 145    -0.669235774775E+03   -0.20619E-03    0.99538E-06  8424   0.517E-04 0.268E-04
CGA: 146    -0.669235910236E+03   -0.13546E-03    0.19177E-05  8424   0.567E-04 0.227E-04
CGA: 147    -0.669236275857E+03   -0.36562E-03    0.15960E-05  8424   0.519E-04 0.814E-04
CGA: 148    -0.669236486404E+03   -0.21055E-03    0.11352E-05  8424   0.568E-04 0.228E-04
CGA: 149    -0.669236846205E+03   -0.35980E-03    0.16278E-05  8424   0.521E-04 0.815E-04
CGA: 150    -0.669236976049E+03   -0.12984E-03    0.20648E-05  8424   0.570E-04 0.227E-04
CGA: 151    -0.669237336938E+03   -0.36089E-03    0.16278E-05  8424   0.525E-04 0.817E-04
CGA: 152    -0.669237548333E+03   -0.21140E-03    0.11599E-05  8424   0.570E-04 0.227E-04
CGA: 153    -0.669237901964E+03   -0.35363E-03    0.16586E-05  8424   0.530E-04 0.815E-04
CGA: 154    -0.669238027578E+03   -0.12561E-03    0.22351E-05  8424   0.571E-04 0.227E-04
CGA: 155    -0.669238381702E+03   -0.35412E-03    0.16542E-05  8424   0.535E-04 0.815E-04
CGA: 156    -0.669238593244E+03   -0.21154E-03    0.12074E-05  8424   0.571E-04 0.227E-04
CGA: 157    -0.669238940245E+03   -0.34700E-03    0.16837E-05  8424   0.541E-04 0.813E-04
CGA: 158    -0.669239062589E+03   -0.12234E-03    0.24324E-05  8424   0.574E-04 0.226E-04
CGA: 159    -0.669239409325E+03   -0.34674E-03    0.16825E-05  8424   0.548E-04 0.813E-04
CGA: 160    -0.669239620658E+03   -0.21133E-03    0.12710E-05  8424   0.574E-04 0.227E-04
CGA: 161    -0.669239961190E+03   -0.34053E-03    0.17095E-05  8424   0.554E-04 0.811E-04
CGA: 162    -0.669240081067E+03   -0.11988E-03    0.26407E-05  8424   0.575E-04 0.227E-04
CGA: 163    -0.669240420443E+03   -0.33938E-03    0.17151E-05  8424   0.560E-04 0.811E-04
CGA: 164    -0.669240631151E+03   -0.21071E-03    0.13388E-05  8424   0.575E-04 0.229E-04
CGA: 165    -0.669240965469E+03   -0.33432E-03    0.17391E-05  8424   0.565E-04 0.809E-04
CGA: 166    -0.669241083935E+03   -0.11847E-03    0.28083E-05  8424   0.574E-04 0.232E-04
CGA: 167    -0.669241416238E+03   -0.33230E-03    0.17522E-05  8424   0.568E-04 0.809E-04
CGA: 168    -0.669241625515E+03   -0.20928E-03    0.13929E-05  8424   0.570E-04 0.239E-04
CGA: 169    -0.669241953809E+03   -0.32829E-03    0.17733E-05  8424   0.570E-04 0.807E-04
CGA: 170    -0.669242072367E+03   -0.11856E-03    0.28600E-05  8424   0.565E-04 0.246E-04
CGA: 171    -0.669242397987E+03   -0.32562E-03    0.17931E-05  8424   0.569E-04 0.806E-04
CGA: 172    -0.669242604565E+03   -0.20658E-03    0.14163E-05  8424   0.557E-04 0.258E-04
CGA: 173    -0.669242927063E+03   -0.32250E-03    0.18122E-05  8424   0.565E-04 0.804E-04
CGA: 174    -0.669243047548E+03   -0.12048E-03    0.27507E-05  8424   0.548E-04 0.271E-04
CGA: 175    -0.669243367041E+03   -0.31949E-03    0.18378E-05  8424   0.560E-04 0.803E-04
CGA: 176    -0.669243569447E+03   -0.20241E-03    0.14049E-05  8424   0.537E-04 0.287E-04
CGA: 177    -0.669243693150E+03   -0.12370E-03    0.23522E-05  8424   0.530E-04 0.299E-04
CGA: 178    -0.669243891750E+03   -0.19860E-03    0.12712E-05  8424   0.524E-04 0.307E-04
CGA: 179    -0.669244017240E+03   -0.12549E-03    0.21825E-05  8424   0.519E-04 0.315E-04
CGA: 180    -0.669244213867E+03   -0.19663E-03    0.12314E-05  8424   0.515E-04 0.321E-04
CGA: 181    -0.669244340567E+03   -0.12670E-03    0.20768E-05  8424   0.513E-04 0.327E-04
CGA: 182    -0.669244535899E+03   -0.19533E-03    0.12103E-05  8424   0.512E-04 0.331E-04
CGA: 183    -0.669244663019E+03   -0.12712E-03    0.20397E-05  8424   0.513E-04 0.333E-04
CGA: 184    -0.669244858025E+03   -0.19501E-03    0.12132E-05  8424   0.516E-04 0.334E-04
CGA: 185    -0.669244984494E+03   -0.12647E-03    0.20872E-05  8424   0.521E-04 0.332E-04
CGA: 186    -0.669245180379E+03   -0.19588E-03    0.12466E-05  8424   0.528E-04 0.328E-04
CGA: 187    -0.669245304892E+03   -0.12451E-03    0.22493E-05  8424   0.539E-04 0.322E-04
CGA: 188    -0.669245503054E+03   -0.19816E-03    0.13240E-05  8424   0.553E-04 0.312E-04
CGA: 189    -0.669245624043E+03   -0.12099E-03    0.26005E-05  8424   0.573E-04 0.298E-04
CGA: 190    -0.669245826131E+03   -0.20209E-03    0.14775E-05  8424   0.599E-04 0.278E-04
CGA: 191    -0.669246154760E+03   -0.32863E-03    0.21722E-05  8424   0.576E-04 0.890E-04
CGA: 192    -0.669246272157E+03   -0.11740E-03    0.29833E-05  8424   0.605E-04 0.280E-04
CGA: 193    -0.669246603069E+03   -0.33091E-03    0.22029E-05  8424   0.580E-04 0.900E-04
CGA: 194    -0.669246806125E+03   -0.20306E-03    0.15087E-05  8424   0.608E-04 0.284E-04
CGA: 195    -0.669247133926E+03   -0.32780E-03    0.22675E-05  8424   0.584E-04 0.907E-04
CGA: 196    -0.669247250074E+03   -0.11615E-03    0.31185E-05  8424   0.611E-04 0.287E-04
CGA: 197    -0.669247580331E+03   -0.33026E-03    0.22827E-05  8424   0.587E-04 0.914E-04
CGA: 198    -0.669247783633E+03   -0.20330E-03    0.15501E-05  8424   0.612E-04 0.292E-04
CGA: 199    -0.669248109748E+03   -0.32612E-03    0.23428E-05  8424   0.591E-04 0.918E-04
CGA: 200    -0.669248225470E+03   -0.11572E-03    0.32349E-05  8424   0.615E-04 0.296E-04
   2 F= -.66924823E+03 E0= -.66924823E+03  d E =-.661088E-01  mag=     2.0000
       N       E                     dE             d eps       ncg     rms          ort
SDA:   1    -0.657241517683E+03    0.12007E+02    0.00000E+00  8424   0.305E+02 0.000E+00
CGA:   2    -0.665742099681E+03   -0.85006E+01   -0.85006E+01  8424   0.158E+02-0.140E-01
CGA:   3    -0.668595634704E+03   -0.28535E+01   -0.28565E+01  8424   0.355E+01 0.609E-02
CGA:   4    -0.669177092223E+03   -0.58146E+00   -0.58156E+00  8424   0.831E+00-0.303E-06
CGA:   5    -0.669321615980E+03   -0.14452E+00   -0.14452E+00  8424   0.181E+00-0.257E-04
CGA:   6    -0.669358507121E+03   -0.36891E-01   -0.36954E-01  8424   0.426E-01 0.104E-02
CGA:   7    -0.669368456063E+03   -0.99489E-02   -0.99428E-02  8424   0.134E-01-0.231E-03
CGA:   8    -0.669371855834E+03   -0.33998E-02   -0.33997E-02  8424   0.467E-02-0.291E-04
CGA:   9    -0.669373234145E+03   -0.13783E-02   -0.13840E-02  8424   0.183E-02-0.146E-03
CGA:  10    -0.669373898496E+03   -0.66435E-03   -0.80310E-03  8424   0.147E-02-0.723E-03
CGA:  11    -0.669374151135E+03   -0.25264E-03   -0.25855E-03  8424   0.645E-03-0.290E-03
CGA:  12    -0.669371256117E+03    0.28950E-02   -0.15589E-02  8424   0.153E-01-0.260E-02
CGA:  13    -0.669374651478E+03   -0.33954E-02   -0.34878E-02  8424   0.202E-02 0.346E-03
CGA:  14    -0.669375309402E+03   -0.65792E-03   -0.57440E-03  8424   0.104E-02-0.415E-03
CGA:  15    -0.669375475709E+03   -0.16631E-03   -0.17887E-03  8424   0.291E-03 0.493E-04
CGA:  16    -0.669375629006E+03   -0.15330E-03   -0.16132E-03  8424   0.474E-03-0.113E-03
CGA:  17    -0.669375927253E+03   -0.29825E-03    0.58397E-03  8424   0.110E-02-0.453E-03
CGA:  18    -0.669376077072E+03   -0.14982E-03   -0.18805E-03  8424   0.282E-03 0.132E-03
CGA:  19    -0.669375789868E+03    0.28720E-03   -0.38407E-03  8424   0.351E-02-0.879E-03
CGA:  20    -0.669376444897E+03   -0.65503E-03   -0.70137E-03  8424   0.902E-03 0.165E-03
CGA:  21    -0.669376750166E+03   -0.30527E-03   -0.25045E-03  8424   0.264E-03-0.268E-03
CGA:  22    -0.669376803944E+03   -0.53779E-04   -0.14191E-03  8424   0.141E-02-0.293E-03
CGA:  23    -0.669377087828E+03   -0.28388E-03   -0.21355E-03  8424   0.246E-03-0.219E-03
CGA:  24    -0.669377085775E+03    0.20533E-05   -0.21089E-03  8424   0.202E-02-0.386E-03
CGA:  25    -0.669377463100E+03   -0.37733E-03   -0.30102E-03  8424   0.345E-03-0.229E-03
CGA:  26    -0.669377605967E+03   -0.14287E-03   -0.14192E-03  8424   0.341E-03-0.156E-03
CGA:  27    -0.669377887959E+03   -0.28199E-03    0.71692E-04  8424   0.559E-03-0.159E-03
CGA:  28    -0.669378487688E+03   -0.59973E-03    0.61081E-04  8424   0.465E-03 0.162E-04
CGA:  29    -0.669379330901E+03   -0.84321E-03    0.12867E-03  8424   0.148E-03 0.171E-03
CGA:  30    -0.669379746792E+03   -0.41589E-03    0.40087E-04  8424   0.166E-03 0.257E-04
CGA:  31    -0.669380268905E+03   -0.52211E-03    0.24879E-04  8424   0.341E-03 0.106E-04
CGA:  32    -0.669381657283E+03   -0.13884E-02    0.27643E-04  8424   0.445E-03 0.204E-03
CGA:  33    -0.669381873637E+03   -0.21635E-03   -0.24865E-03  8424   0.913E-03-0.361E-03
CGA:  34    -0.669382053061E+03   -0.17942E-03   -0.16364E-03  8424   0.120E-03-0.556E-04
CGA:  35    -0.669382258156E+03   -0.20509E-03    0.26565E-04  8424   0.295E-03-0.717E-04
CGA:  36    -0.669382318672E+03   -0.60516E-04   -0.52236E-04  8424   0.796E-04-0.297E-04
CGA:  37    -0.669382540772E+03   -0.22210E-03    0.64160E-05  8424   0.890E-04 0.245E-04
CGA:  38    -0.669382944140E+03   -0.40337E-03    0.89672E-05  8424   0.556E-04 0.962E-04
CGA:  39    -0.669383103317E+03   -0.15918E-03    0.55884E-05  8424   0.802E-04 0.225E-04
CGA:  40    -0.669383522890E+03   -0.41957E-03    0.78699E-05  8424   0.783E-04 0.813E-04
CGA:  41    -0.669383668794E+03   -0.14590E-03    0.15983E-04  8424   0.117E-03 0.117E-05
CGA:  42    -0.669384096372E+03   -0.42758E-03    0.86122E-05  8424   0.158E-03 0.435E-04
CGA:  43    -0.669384867070E+03   -0.77070E-03    0.16083E-04  8424   0.115E-03 0.179E-03
CGA:  44    -0.669384995249E+03   -0.12818E-03    0.99222E-04  8424   0.273E-03-0.615E-04
CGA:  45    -0.669385120997E+03   -0.12575E-03   -0.11603E-03  8424   0.129E-02-0.482E-03
CGA:  46    -0.669385263197E+03   -0.14220E-03   -0.15861E-03  8424   0.468E-04 0.521E-04
CGA:  47    -0.669385432452E+03   -0.16926E-03    0.34149E-05  8424   0.731E-04 0.297E-04
CGA:  48    -0.669385601588E+03   -0.16914E-03    0.92024E-05  8424   0.173E-03-0.198E-04
CGA:  49    -0.669386146486E+03   -0.54490E-03    0.66620E-05  8424   0.301E-03 0.101E-03
CGA:  50    -0.669386257314E+03   -0.11083E-03   -0.85891E-04  8424   0.251E-03-0.175E-03
CGA:  51    -0.669386358726E+03   -0.10141E-03   -0.11221E-03  8424   0.114E-02-0.425E-03
CGA:  52    -0.669386524830E+03   -0.16610E-03   -0.15833E-03  8424   0.565E-04-0.273E-04
CGA:  53    -0.669386706758E+03   -0.18193E-03    0.36999E-05  8424   0.659E-04 0.291E-04
CGA:  54    -0.669386844692E+03   -0.13793E-03    0.85841E-05  8424   0.102E-03 0.617E-05
CGA:  55    -0.669387275848E+03   -0.43116E-03    0.60907E-05  8424   0.103E-03 0.984E-04
CGA:  56    -0.669387443851E+03   -0.16800E-03    0.20971E-04  8424   0.116E-03-0.258E-04
CGA:  57    -0.669387793062E+03   -0.34921E-03    0.45420E-05  8424   0.128E-03 0.853E-04
CGA:  58    -0.669387958364E+03   -0.16530E-03    0.45166E-04  8424   0.113E-03-0.358E-04
CGA:  59    -0.669388272476E+03   -0.31411E-03    0.44683E-05  8424   0.108E-03 0.785E-04
CGA:  60    -0.669388449927E+03   -0.17745E-03    0.21879E-04  8424   0.793E-04-0.556E-05
CGA:  61    -0.669388739954E+03   -0.29003E-03    0.41206E-05  8424   0.768E-04 0.721E-04
CGA:  62    -0.669388911312E+03   -0.17136E-03    0.90315E-05  8424   0.557E-04 0.228E-04
CGA:  63    -0.669389198589E+03   -0.28728E-03    0.38182E-05  8424   0.630E-04 0.696E-04
CGA:  64    -0.669389372886E+03   -0.17430E-03    0.53737E-05  8424   0.486E-04 0.330E-04
CGA:  65    -0.669389540964E+03   -0.16808E-03    0.30670E-05  8424   0.450E-04 0.397E-04
CGA:  66    -0.669389711356E+03   -0.17039E-03    0.25281E-05  8424   0.440E-04 0.418E-04
CGA:  67    -0.669389879728E+03   -0.16837E-03    0.24395E-05  8424   0.438E-04 0.425E-04
CGA:  68    -0.669390051786E+03   -0.17206E-03    0.23474E-05  8424   0.440E-04 0.428E-04
CGA:  69    -0.669390219545E+03   -0.16776E-03    0.24446E-05  8424   0.447E-04 0.427E-04
CGA:  70    -0.669390395655E+03   -0.17611E-03    0.23839E-05  8424   0.471E-04 0.417E-04
CGA:  71    -0.669390557301E+03   -0.16165E-03    0.30001E-05  8424   0.561E-04 0.374E-04
CGA:  72    -0.669390741663E+03   -0.18436E-03    0.37826E-05  8424   0.931E-04 0.196E-04
CGA:  73    -0.669391203406E+03   -0.46174E-03    0.73226E-05  8424   0.545E-04 0.120E-03
CGA:  74    -0.669391356603E+03   -0.15320E-03    0.45499E-05  8424   0.876E-04 0.236E-04
CGA:  75    -0.669391821426E+03   -0.46482E-03    0.72468E-05  8424   0.509E-04 0.116E-03
CGA:  76    -0.669392003925E+03   -0.18250E-03    0.30688E-05  8424   0.569E-04 0.361E-04
CGA:  77    -0.669392161779E+03   -0.15785E-03    0.48508E-05  8424   0.814E-04 0.243E-04
CGA:  78    -0.669392600408E+03   -0.43863E-03    0.65237E-05  8424   0.630E-04 0.105E-03
CGA:  79    -0.669392774109E+03   -0.17370E-03    0.53980E-05  8424   0.663E-04 0.254E-04
CGA:  80    -0.669393138634E+03   -0.36453E-03    0.49971E-05  8424   0.652E-04 0.901E-04
CGA:  81    -0.669393312377E+03   -0.17374E-03    0.58659E-05  8424   0.605E-04 0.284E-04
CGA:  82    -0.669393654689E+03   -0.34231E-03    0.46252E-05  8424   0.639E-04 0.830E-04
CGA:  83    -0.669393832740E+03   -0.17805E-03    0.54074E-05  8424   0.547E-04 0.333E-04
CGA:  84    -0.669394014623E+03   -0.18188E-03    0.36321E-05  8424   0.539E-04 0.368E-04
CGA:  85    -0.669394182144E+03   -0.16752E-03    0.39197E-05  8424   0.595E-04 0.352E-04
CGA:  86    -0.669394373736E+03   -0.19159E-03    0.41249E-05  8424   0.839E-04 0.233E-04
CGA:  87    -0.669394799722E+03   -0.42599E-03    0.68665E-05  8424   0.612E-04 0.109E-03
CGA:  88    -0.669394969803E+03   -0.17008E-03    0.51999E-05  8424   0.650E-04 0.293E-04
CGA:  89    -0.669395345973E+03   -0.37617E-03    0.51672E-05  8424   0.650E-04 0.906E-04
CGA:  90    -0.669395522015E+03   -0.17604E-03    0.57333E-05  8424   0.593E-04 0.299E-04
CGA:  91    -0.669395867868E+03   -0.34585E-03    0.45286E-05  8424   0.649E-04 0.851E-04
CGA:  92    -0.669396048592E+03   -0.18072E-03    0.55000E-05  8424   0.560E-04 0.321E-04
CGA:  93    -0.669396384430E+03   -0.33584E-03    0.43602E-05  8424   0.637E-04 0.825E-04
CGA:  94    -0.669396564678E+03   -0.18025E-03    0.52628E-05  8424   0.534E-04 0.345E-04
CGA:  95    -0.669396748366E+03   -0.18369E-03    0.33972E-05  8424   0.493E-04 0.411E-04
CGA:  96    -0.669396926338E+03   -0.17797E-03    0.29462E-05  8424   0.482E-04 0.436E-04
CGA:  97    -0.669397112073E+03   -0.18573E-03    0.26405E-05  8424   0.486E-04 0.442E-04
CGA:  98    -0.669397286472E+03   -0.17440E-03    0.29159E-05  8424   0.513E-04 0.432E-04
CGA:  99    -0.669397479343E+03   -0.19287E-03    0.28978E-05  8424   0.607E-04 0.383E-04
CGA: 100    -0.669397636816E+03   -0.15747E-03    0.56953E-05  8424   0.946E-04 0.207E-04
CGA: 101    -0.669398117428E+03   -0.48061E-03    0.71152E-05  8424   0.610E-04 0.122E-03
CGA: 102    -0.669398316968E+03   -0.19954E-03    0.41389E-05  8424   0.966E-04 0.206E-04
CGA: 103    -0.669398793336E+03   -0.47637E-03    0.75095E-05  8424   0.627E-04 0.122E-03
CGA: 104    -0.669398957517E+03   -0.16418E-03    0.57918E-05  8424   0.854E-04 0.232E-04
CGA: 105    -0.669399404544E+03   -0.44703E-03    0.64791E-05  8424   0.704E-04 0.105E-03
CGA: 106    -0.669399591993E+03   -0.18745E-03    0.63454E-05  8424   0.699E-04 0.229E-04
CGA: 107    -0.669399962111E+03   -0.37012E-03    0.48527E-05  8424   0.706E-04 0.914E-04
CGA: 108    -0.669400146458E+03   -0.18435E-03    0.65478E-05  8424   0.637E-04 0.260E-04
CGA: 109    -0.669400497567E+03   -0.35111E-03    0.45262E-05  8424   0.678E-04 0.859E-04
CGA: 110    -0.669400685930E+03   -0.18836E-03    0.57593E-05  8424   0.578E-04 0.306E-04
CGA: 111    -0.669401028222E+03   -0.34229E-03    0.42814E-05  8424   0.644E-04 0.822E-04
CGA: 112    -0.669401214037E+03   -0.18582E-03    0.51860E-05  8424   0.538E-04 0.342E-04
CGA: 113    -0.669401400727E+03   -0.18669E-03    0.33830E-05  8424   0.496E-04 0.404E-04
CGA: 114    -0.669401585082E+03   -0.18436E-03    0.28463E-05  8424   0.478E-04 0.431E-04
CGA: 115    -0.669401771613E+03   -0.18653E-03    0.25822E-05  8424   0.471E-04 0.443E-04
CGA: 116    -0.669401955900E+03   -0.18429E-03    0.25321E-05  8424   0.469E-04 0.447E-04
CGA: 117    -0.669402144251E+03   -0.18835E-03    0.24364E-05  8424   0.471E-04 0.447E-04
CGA: 118    -0.669402326655E+03   -0.18240E-03    0.25627E-05  8424   0.482E-04 0.442E-04
CGA: 119    -0.669402519675E+03   -0.19302E-03    0.25193E-05  8424   0.524E-04 0.419E-04
CGA: 120    -0.669402691592E+03   -0.17192E-03    0.35476E-05  8424   0.683E-04 0.337E-04
CGA: 121    -0.669402894861E+03   -0.20327E-03    0.52757E-05  8424   0.132E-03 0.211E-05
CGA: 122    -0.669403444914E+03   -0.55005E-03    0.69743E-05  8424   0.121E-03 0.133E-03
CGA: 123    -0.669403559191E+03   -0.11428E-03    0.16114E-03  8424   0.344E-03-0.103E-03
CGA: 124    -0.669403695274E+03   -0.13608E-03   -0.14630E-03  8424   0.151E-02-0.609E-03
CGA: 125    -0.669403881546E+03   -0.18627E-03   -0.19692E-03  8424   0.474E-04 0.408E-04
CGA: 126    -0.669404062616E+03   -0.18107E-03    0.25921E-05  8424   0.593E-04 0.399E-04
CGA: 127    -0.669404253244E+03   -0.19063E-03    0.38191E-05  8424   0.929E-04 0.190E-04
CGA: 128    -0.669404713823E+03   -0.46058E-03    0.64435E-05  8424   0.648E-04 0.114E-03
CGA: 129    -0.669404887091E+03   -0.17327E-03    0.53631E-05  8424   0.810E-04 0.172E-04
CGA: 130    -0.669405300010E+03   -0.41292E-03    0.49440E-05  8424   0.738E-04 0.962E-04
CGA: 131    -0.669405475151E+03   -0.17514E-03    0.72856E-05  8424   0.725E-04 0.141E-04
CGA: 132    -0.669405833297E+03   -0.35815E-03    0.40155E-05  8424   0.733E-04 0.838E-04
CGA: 133    -0.669406016272E+03   -0.18298E-03    0.67072E-05  8424   0.625E-04 0.190E-04
CGA: 134    -0.669406346113E+03   -0.32984E-03    0.36106E-05  8424   0.660E-04 0.765E-04
CGA: 135    -0.669406526686E+03   -0.18057E-03    0.52945E-05  8424   0.534E-04 0.269E-04
CGA: 136    -0.669406847676E+03   -0.32099E-03    0.33684E-05  8424   0.595E-04 0.726E-04
CGA: 137    -0.669407027322E+03   -0.17965E-03    0.41581E-05  8424   0.482E-04 0.317E-04
CGA: 138    -0.669407205125E+03   -0.17780E-03    0.25910E-05  8424   0.443E-04 0.372E-04
CGA: 139    -0.669407381850E+03   -0.17672E-03    0.21628E-05  8424   0.427E-04 0.393E-04
CGA: 140    -0.669407558892E+03   -0.17704E-03    0.19845E-05  8424   0.419E-04 0.401E-04
CGA: 141    -0.669407735150E+03   -0.17626E-03    0.19159E-05  8424   0.415E-04 0.403E-04
CGA: 142    -0.669407912562E+03   -0.17741E-03    0.18600E-05  8424   0.413E-04 0.402E-04
CGA: 143    -0.669408087775E+03   -0.17521E-03    0.18700E-05  8424   0.414E-04 0.399E-04
CGA: 144    -0.669408266568E+03   -0.17879E-03    0.18351E-05  8424   0.424E-04 0.392E-04
CGA: 145    -0.669408437895E+03   -0.17133E-03    0.20342E-05  8424   0.463E-04 0.368E-04
CGA: 146    -0.669408620497E+03   -0.18260E-03    0.22899E-05  8424   0.616E-04 0.286E-04
CGA: 147    -0.669408771578E+03   -0.15108E-03    0.57886E-05  8424   0.124E-03-0.252E-05
CGA: 148    -0.669409302044E+03   -0.53047E-03    0.50518E-05  8424   0.130E-03 0.116E-03
CGA: 149    -0.669409473548E+03   -0.17150E-03    0.38092E-04  8424   0.407E-03-0.141E-03
CGA: 150    -0.669409561366E+03   -0.87818E-04   -0.69327E-04  8424   0.801E-04-0.822E-04
CGA: 151    -0.669409778811E+03   -0.21744E-03    0.35767E-05  8424   0.455E-04 0.390E-04
CGA: 152    -0.669410059517E+03   -0.28071E-03    0.29458E-05  8424   0.409E-04 0.617E-04
CGA: 153    -0.669410227284E+03   -0.16777E-03    0.18036E-05  8424   0.459E-04 0.324E-04
CGA: 154    -0.669410391102E+03   -0.16382E-03    0.24154E-05  8424   0.620E-04 0.227E-04
CGA: 155    -0.669410784431E+03   -0.39333E-03    0.39362E-05  8424   0.433E-04 0.872E-04
CGA: 156    -0.669410954579E+03   -0.17015E-03    0.20181E-05  8424   0.466E-04 0.277E-04
CGA: 157    -0.669411109916E+03   -0.15534E-03    0.26753E-05  8424   0.522E-04 0.228E-04
CGA: 158    -0.669411460740E+03   -0.35082E-03    0.30559E-05  8424   0.462E-04 0.750E-04
CGA: 159    -0.669411631131E+03   -0.17039E-03    0.23282E-05  8424   0.448E-04 0.243E-04
CGA: 160    -0.669411783282E+03   -0.15215E-03    0.25113E-05  8424   0.438E-04 0.250E-04
CGA: 161    -0.669411956682E+03   -0.17340E-03    0.20222E-05  8424   0.443E-04 0.246E-04
CGA: 162    -0.669412102324E+03   -0.14564E-03    0.25879E-05  8424   0.468E-04 0.226E-04
CGA: 163    -0.669412277289E+03   -0.17497E-03    0.23208E-05  8424   0.521E-04 0.181E-04
CGA: 164    -0.669412616564E+03   -0.33927E-03    0.27059E-05  8424   0.465E-04 0.703E-04
CGA: 165    -0.669412754807E+03   -0.13824E-03    0.31109E-05  8424   0.487E-04 0.178E-04
CGA: 166    -0.669413077965E+03   -0.32316E-03    0.24625E-05  8424   0.457E-04 0.652E-04
CGA: 167    -0.669413254156E+03   -0.17619E-03    0.21816E-05  8424   0.440E-04 0.187E-04
CGA: 168    -0.669413557835E+03   -0.30368E-03    0.22088E-05  8424   0.439E-04 0.596E-04
CGA: 169    -0.669413694472E+03   -0.13664E-03    0.27584E-05  8424   0.390E-04 0.203E-04
CGA: 170    -0.669413985283E+03   -0.29081E-03    0.19400E-05  8424   0.415E-04 0.550E-04
CGA: 171    -0.669414151978E+03   -0.16670E-03    0.18815E-05  8424   0.351E-04 0.217E-04
CGA: 172    -0.669414289706E+03   -0.13773E-03    0.16388E-05  8424   0.329E-04 0.249E-04
CGA: 173    -0.669414453763E+03   -0.16406E-03    0.11457E-05  8424   0.324E-04 0.256E-04
CGA: 174    -0.669414589360E+03   -0.13560E-03    0.13951E-05  8424   0.328E-04 0.250E-04
CGA: 175    -0.669414753808E+03   -0.16445E-03    0.11404E-05  8424   0.342E-04 0.236E-04
CGA: 176    -0.669414885438E+03   -0.13163E-03    0.16303E-05  8424   0.366E-04 0.212E-04
CGA: 177    -0.669415051298E+03   -0.16586E-03    0.14334E-05  8424   0.407E-04 0.173E-04
CGA: 178    -0.669415365380E+03   -0.31408E-03    0.19769E-05  8424   0.352E-04 0.589E-04
CGA: 179    -0.669415488993E+03   -0.12361E-03    0.18883E-05  8424   0.391E-04 0.168E-04
CGA: 180    -0.669415798253E+03   -0.30926E-03    0.18589E-05  8424   0.337E-04 0.567E-04
CGA: 181    -0.669415965122E+03   -0.16687E-03    0.11876E-05  8424   0.373E-04 0.165E-04
CGA: 182    -0.669416266631E+03   -0.30151E-03    0.17522E-05  8424   0.322E-04 0.544E-04
CGA: 183    -0.669416382371E+03   -0.11574E-03    0.16755E-05  8424   0.353E-04 0.162E-04
CGA: 184    -0.669416551703E+03   -0.16933E-03    0.12925E-05  8424   0.406E-04 0.115E-04
CGA: 185    -0.669416852793E+03   -0.30109E-03    0.16404E-05  8424   0.354E-04 0.527E-04
CGA: 186    -0.669416956597E+03   -0.10380E-03    0.24027E-05  8424   0.410E-04 0.931E-05
CGA: 187    -0.669417256325E+03   -0.29973E-03    0.15190E-05  8424   0.363E-04 0.506E-04
CGA: 188    -0.669417427720E+03   -0.17139E-03    0.13519E-05  8424   0.418E-04 0.647E-05
CGA: 189    -0.669417717450E+03   -0.28973E-03    0.14170E-05  8424   0.382E-04 0.479E-04
CGA: 190    -0.669417808395E+03   -0.90945E-04    0.34921E-05  8424   0.433E-04 0.284E-05
CGA: 191    -0.669418092992E+03   -0.28460E-03    0.12794E-05  8424   0.410E-04 0.448E-04
CGA: 192    -0.669418266445E+03   -0.17345E-03    0.17458E-05  8424   0.441E-04-0.835E-06
CGA: 193    -0.669418532120E+03   -0.26568E-03    0.11843E-05  8424   0.428E-04 0.409E-04
CGA: 194    -0.669418616810E+03   -0.84690E-04    0.51929E-05  8424   0.417E-04-0.219E-05
CGA: 195    -0.669418873426E+03   -0.25662E-03    0.10184E-05  8424   0.401E-04 0.366E-04
CGA: 196    -0.669419034008E+03   -0.16058E-03    0.18253E-05  8424   0.339E-04 0.151E-05
CGA: 197    -0.669419255204E+03   -0.22120E-03    0.93897E-06  8424   0.331E-04 0.327E-04
CGA: 198    -0.669419358353E+03   -0.10315E-03    0.20705E-05  8424   0.253E-04 0.783E-05
CGA: 199    -0.669419577193E+03   -0.21884E-03    0.74006E-06  8424   0.270E-04 0.299E-04
CGA: 200    -0.669419708503E+03   -0.13131E-03    0.96928E-06  8424   0.207E-04 0.115E-04
   3 F= -.66941971E+03 E0= -.66941971E+03  d E =-.171483E+00  mag=     2.0000
       N       E                     dE             d eps       ncg     rms          ort
SDA:   1    -0.594484233329E+03    0.74935E+02    0.00000E+00  8424   0.191E+03 0.000E+00
CGA:   2    -0.646470024164E+03   -0.51986E+02   -0.52007E+02  8424   0.993E+02 0.103E+00
CGA:   3    -0.664665123522E+03   -0.18195E+02   -0.18311E+02  8424   0.219E+02 0.116E+00
CGA:   4    -0.668250903904E+03   -0.35858E+01   -0.35886E+01  8424   0.519E+01 0.317E-01
CGA:   5    -0.669167013437E+03   -0.91611E+00   -0.91633E+00  8424   0.119E+01 0.249E-02
CGA:   6    -0.669413643534E+03   -0.24663E+00   -0.24719E+00  8424   0.299E+00 0.307E-02
CGA:   7    -0.669484341016E+03   -0.70697E-01   -0.70690E-01  8424   0.101E+00-0.220E-03
CGA:   8    -0.669510961439E+03   -0.26620E-01   -0.26671E-01  8424   0.373E-01 0.682E-03
CGA:   9    -0.669521986079E+03   -0.11025E-01   -0.11029E-01  8424   0.140E-01 0.988E-04
CGA:  10    -0.669526607475E+03   -0.46214E-02   -0.46203E-02  8424   0.530E-02-0.708E-03
CGA:  11    -0.669527914757E+03   -0.13073E-02   -0.13160E-02  8424   0.134E-02 0.123E-03
CGA:  12    -0.669528415095E+03   -0.50034E-03   -0.51541E-03  8424   0.649E-03-0.319E-03
CGA:  13    -0.669528542473E+03   -0.12738E-03   -0.13131E-03  8424   0.287E-03 0.589E-04
CGA:  14    -0.669528679548E+03   -0.13708E-03   -0.14804E-03  8424   0.330E-03-0.781E-04
CGA:  15    -0.669528781247E+03   -0.10170E-03   -0.15906E-03  8424   0.714E-03-0.187E-03
CGA:  16    -0.669528940871E+03   -0.15962E-03   -0.17228E-03  8424   0.200E-03 0.115E-03
CGA:  17    -0.669529019462E+03   -0.78590E-04   -0.78445E-04  8424   0.115E-03-0.192E-04
CGA:  18    -0.669529056719E+03   -0.37257E-04   -0.37012E-04  8424   0.957E-04 0.207E-04
CGA:  19    -0.669529075231E+03   -0.18512E-04   -0.27166E-04  8424   0.699E-04 0.807E-04
CGA:  20    -0.669529115060E+03   -0.39830E-04   -0.61196E-04  8424   0.301E-03-0.411E-04
CGA:  21    -0.669529137089E+03   -0.22028E-04   -0.38640E-04  8424   0.478E-04 0.695E-04
CGA:  22    -0.669529139408E+03   -0.23188E-05   -0.92522E-05  8424   0.415E-04 0.348E-04
CGA:  23    -0.669529168446E+03   -0.29038E-04    0.53004E-03  8424   0.492E-04 0.185E-04
CGA:  24    -0.669529245949E+03   -0.77503E-04   -0.54465E-04  8424   0.481E-04 0.502E-04
CGA:  25    -0.669529247868E+03   -0.19186E-05   -0.82473E-05  8424   0.333E-04 0.323E-04
CGA:  26    -0.669529273120E+03   -0.25252E-04    0.94644E-04  8424   0.315E-04 0.256E-04
CGA:  27    -0.669529274338E+03   -0.12181E-05   -0.55884E-05  8424   0.276E-04 0.242E-04
CGA:  28    -0.669529296962E+03   -0.22624E-04    0.26622E-04  8424   0.308E-04 0.235E-04
CGA:  29    -0.669529298574E+03   -0.16120E-05   -0.54820E-05  8424   0.273E-04 0.227E-04
CGA:  30    -0.669529321008E+03   -0.22434E-04    0.21495E-04  8424   0.327E-04 0.217E-04
CGA:  31    -0.669529322321E+03   -0.13130E-05   -0.51975E-05  8424   0.266E-04 0.214E-04
CGA:  32    -0.669529342922E+03   -0.20601E-04    0.24882E-04  8424   0.319E-04 0.212E-04
CGA:  33    -0.669529345640E+03   -0.27182E-05   -0.56748E-05  8424   0.278E-04 0.193E-04
CGA:  34    -0.669529366012E+03   -0.20371E-04    0.32953E-04  8424   0.395E-04 0.167E-04
CGA:  35    -0.669529368625E+03   -0.26132E-05   -0.57398E-05  8424   0.263E-04 0.175E-04
CGA:  36    -0.669529406128E+03   -0.37503E-04   -0.25832E-04  8424   0.923E-04 0.300E-04
CGA:  37    -0.669529435009E+03   -0.28880E-04   -0.22445E-04  8424   0.153E-03-0.729E-04
CGA:  38    -0.669529441290E+03   -0.62812E-05   -0.14239E-04  8424   0.232E-04 0.339E-04
   4 F= -.66952944E+03 E0= -.66952944E+03  d E =-.109733E+00  mag=     2.0000
       N       E                     dE             d eps       ncg     rms          ort
SDA:   1    -0.583465283773E+03    0.86064E+02    0.00000E+00  8424   0.218E+03 0.000E+00
CGA:   2    -0.642977402261E+03   -0.59512E+02   -0.59515E+02  8424   0.115E+03 0.356E-01
CGA:   3    -0.664013016746E+03   -0.21036E+02   -0.21102E+02  8424   0.252E+02 0.172E+00
CGA:   4    -0.668099885946E+03   -0.40869E+01   -0.40904E+01  8424   0.597E+01 0.185E-01
CGA:   5    -0.669151014145E+03   -0.10511E+01   -0.10515E+01  8424   0.135E+01 0.146E-02
CGA:   6    -0.669435004110E+03   -0.28399E+00   -0.28424E+00  8424   0.339E+00 0.267E-02
CGA:   7    -0.669514663438E+03   -0.79659E-01   -0.79664E-01  8424   0.114E+00-0.497E-04
CGA:   8    -0.669545160859E+03   -0.30497E-01   -0.30500E-01  8424   0.428E-01 0.202E-03
CGA:   9    -0.669557910524E+03   -0.12750E-01   -0.12760E-01  8424   0.165E-01-0.610E-03
CGA:  10    -0.669563350169E+03   -0.54396E-02   -0.55208E-02  8424   0.635E-02-0.140E-02
CGA:  11    -0.669564950639E+03   -0.16005E-02   -0.15977E-02  8424   0.170E-02-0.303E-03
CGA:  12    -0.669565484042E+03   -0.53340E-03   -0.84355E-03  8424   0.215E-02-0.131E-02
CGA:  13    -0.669565856089E+03   -0.37205E-03   -0.39426E-03  8424   0.375E-03 0.198E-03
CGA:  14    -0.669566116959E+03   -0.26087E-03    0.60565E-03  8424   0.166E-03 0.207E-04
CGA:  15    -0.669566290137E+03   -0.17318E-03    0.35859E-04  8424   0.103E-03 0.735E-04
CGA:  16    -0.669566487489E+03   -0.19735E-03    0.16605E-04  8424   0.825E-04 0.861E-04
CGA:  17    -0.669566613238E+03   -0.12575E-03    0.73481E-05  8424   0.626E-04 0.363E-04
CGA:  18    -0.669566769452E+03   -0.15621E-03    0.65783E-05  8424   0.526E-04 0.664E-04
CGA:  19    -0.669566860423E+03   -0.90970E-04    0.38450E-05  8424   0.413E-04 0.395E-04
CGA:  20    -0.669566950831E+03   -0.90409E-04    0.21636E-05  8424   0.397E-04 0.392E-04
CGA:  21    -0.669567034891E+03   -0.84060E-04    0.21675E-05  8424   0.389E-04 0.378E-04
CGA:  22    -0.669567124285E+03   -0.89393E-04    0.19050E-05  8424   0.388E-04 0.361E-04
CGA:  23    -0.669567203297E+03   -0.79012E-04    0.22394E-05  8424   0.398E-04 0.338E-04
CGA:  24    -0.669567292990E+03   -0.89693E-04    0.19980E-05  8424   0.431E-04 0.300E-04
CGA:  25    -0.669567365152E+03   -0.72162E-04    0.33027E-05  8424   0.511E-04 0.231E-04
CGA:  26    -0.669567455802E+03   -0.90650E-04    0.35993E-05  8424   0.698E-04 0.919E-05
CGA:  27    -0.669567649584E+03   -0.19378E-03    0.39064E-05  8424   0.565E-04 0.793E-04
CGA:  28    -0.669567707606E+03   -0.58022E-04    0.10601E-04  8424   0.805E-04-0.345E-05
CGA:  29    -0.669567892573E+03   -0.18497E-03    0.34035E-05  8424   0.805E-04 0.728E-04
CGA:  30    -0.669567991593E+03   -0.99021E-04    0.10422E-04  8424   0.121E-03-0.392E-04
CGA:  31    -0.669568182646E+03   -0.19105E-03    0.21076E-05  8424   0.177E-03 0.552E-04
CGA:  32    -0.669568494647E+03   -0.31200E-03    0.34345E-04  8424   0.172E-03 0.307E-05
CGA:  33    -0.669568906126E+03   -0.41148E-03    0.83330E-05  8424   0.905E-04 0.143E-03
CGA:  34    -0.669569017665E+03   -0.11154E-03    0.11659E-04  8424   0.110E-03-0.549E-04
CGA:  35    -0.669569037468E+03   -0.19803E-04   -0.19462E-04  8424   0.297E-04-0.316E-05
CGA:  36    -0.669569119061E+03   -0.81594E-04    0.10326E-05  8424   0.273E-04 0.280E-04
CGA:  37    -0.669569198151E+03   -0.79090E-04    0.94959E-06  8424   0.267E-04 0.159E-04
CGA:  38    -0.669569248164E+03   -0.50013E-04    0.16515E-05  8424   0.258E-04 0.160E-04
CGA:  39    -0.669569324440E+03   -0.76276E-04    0.87076E-06  8424   0.248E-04 0.163E-04
CGA:  40    -0.669569376466E+03   -0.52026E-04    0.13080E-05  8424   0.238E-04 0.166E-04
CGA:  41    -0.669569448799E+03   -0.72333E-04    0.78006E-06  8424   0.230E-04 0.168E-04
CGA:  42    -0.669569503091E+03   -0.54292E-04    0.10376E-05  8424   0.224E-04 0.169E-04
CGA:  43    -0.669569571863E+03   -0.68772E-04    0.72122E-06  8424   0.219E-04 0.168E-04
CGA:  44    -0.669569627732E+03   -0.55869E-04    0.89535E-06  8424   0.217E-04 0.166E-04
CGA:  45    -0.669569693819E+03   -0.66087E-04    0.70908E-06  8424   0.218E-04 0.161E-04
CGA:  46    -0.669569750477E+03   -0.56657E-04    0.86436E-06  8424   0.222E-04 0.153E-04
CGA:  47    -0.669569814459E+03   -0.63982E-04    0.77454E-06  8424   0.232E-04 0.140E-04
CGA:  48    -0.669569871394E+03   -0.56935E-04    0.99349E-06  8424   0.252E-04 0.120E-04
CGA:  49    -0.669569933163E+03   -0.61769E-04    0.10831E-05  8424   0.291E-04 0.866E-05
CGA:  50    -0.669570063464E+03   -0.13030E-03    0.11421E-05  8424   0.245E-04 0.381E-04
CGA:  51    -0.669570117136E+03   -0.53672E-04    0.12209E-05  8424   0.290E-04 0.737E-05
CGA:  52    -0.669570244293E+03   -0.12716E-03    0.10865E-05  8424   0.243E-04 0.367E-04
CGA:  53    -0.669570307873E+03   -0.63580E-04    0.96310E-06  8424   0.292E-04 0.565E-05
CGA:  54    -0.669570435506E+03   -0.12763E-03    0.97893E-06  8424   0.252E-04 0.351E-04
CGA:  55    -0.669570481367E+03   -0.45861E-04    0.16228E-05  8424   0.303E-04 0.305E-05
CGA:  56    -0.669570603677E+03   -0.12231E-03    0.90656E-06  8424   0.276E-04 0.331E-04
CGA:  57    -0.669570671115E+03   -0.67439E-04    0.11882E-05  8424   0.327E-04-0.954E-06
CGA:  58    -0.669570792895E+03   -0.12178E-03    0.77586E-06  8424   0.320E-04 0.307E-04
CGA:  59    -0.669570828530E+03   -0.35635E-04    0.47451E-05  8424   0.364E-04-0.657E-05
CGA:  60    -0.669570940083E+03   -0.11155E-03    0.70890E-06  8424   0.375E-04 0.280E-04
CGA:  61    -0.669571014333E+03   -0.74250E-04    0.21455E-05  8424   0.393E-04-0.123E-04
CGA:  62    -0.669571123985E+03   -0.10965E-03    0.59655E-06  8424   0.398E-04 0.255E-04
CGA:  63    -0.669571150723E+03   -0.26738E-04    0.31169E-04  8424   0.375E-04-0.138E-04
CGA:  64    -0.669571248300E+03   -0.97577E-04    0.57919E-06  8424   0.356E-04 0.237E-04
CGA:  65    -0.669571324084E+03   -0.75783E-04    0.18405E-05  8424   0.301E-04-0.900E-05
CGA:  66    -0.669571418283E+03   -0.94199E-04    0.50353E-06  8424   0.274E-04 0.219E-04
CGA:  67    -0.669571446749E+03   -0.28465E-04    0.47262E-05  8424   0.218E-04-0.168E-05
CGA:  68    -0.669571533567E+03   -0.86818E-04    0.45181E-06  8424   0.208E-04 0.201E-04
CGA:  69    -0.669571600370E+03   -0.66803E-04    0.63940E-06  8424   0.164E-04 0.336E-05
CGA:  70    -0.669571687958E+03   -0.87588E-04    0.38409E-06  8424   0.170E-04 0.187E-04
CGA:  71    -0.669571720475E+03   -0.32517E-04    0.10290E-05  8424   0.137E-04 0.568E-05
CGA:  72    -0.669571802738E+03   -0.82263E-04    0.37518E-06  8424   0.149E-04 0.179E-04
CGA:  73    -0.669571863044E+03   -0.60306E-04    0.34790E-06  8424   0.122E-04 0.655E-05
CGA:  74    -0.669571949150E+03   -0.86106E-04    0.32993E-06  8424   0.136E-04 0.172E-04
CGA:  75    -0.669571982066E+03   -0.32917E-04    0.59496E-06  8424   0.114E-04 0.679E-05
CGA:  76    -0.669572062108E+03   -0.80042E-04    0.33325E-06  8424   0.127E-04 0.166E-04
CGA:  77    -0.669572119126E+03   -0.57018E-04    0.26094E-06  8424   0.107E-04 0.676E-05
CGA:  78    -0.669572155511E+03   -0.36385E-04    0.30683E-06  8424   0.978E-05 0.785E-05
CGA:  79    -0.669572204598E+03   -0.49086E-04    0.17762E-06  8424   0.930E-05 0.827E-05
CGA:  80    -0.669572244669E+03   -0.40071E-04    0.20078E-06  8424   0.901E-05 0.840E-05
CGA:  81    -0.669572290750E+03   -0.46081E-04    0.16024E-06  8424   0.882E-05 0.839E-05
CGA:  82    -0.669572331682E+03   -0.40932E-04    0.17510E-06  8424   0.868E-05 0.832E-05
CGA:  83    -0.669572376536E+03   -0.44855E-04    0.15254E-06  8424   0.858E-05 0.821E-05
CGA:  84    -0.669572417163E+03   -0.40626E-04    0.16626E-06  8424   0.851E-05 0.805E-05
CGA:  85    -0.669572461459E+03   -0.44297E-04    0.14829E-06  8424   0.850E-05 0.786E-05
CGA:  86    -0.669572501212E+03   -0.39752E-04    0.16717E-06  8424   0.858E-05 0.759E-05
CGA:  87    -0.669572545252E+03   -0.44040E-04    0.15212E-06  8424   0.885E-05 0.719E-05
CGA:  88    -0.669572583820E+03   -0.38568E-04    0.18881E-06  8424   0.946E-05 0.655E-05
CGA:  89    -0.669572627727E+03   -0.43908E-04    0.18788E-06  8424   0.108E-04 0.542E-05
CGA:  90    -0.669572664760E+03   -0.37032E-04    0.30336E-06  8424   0.135E-04 0.330E-05
CGA:  91    -0.669572756296E+03   -0.91537E-04    0.30977E-06  8424   0.108E-04 0.172E-04
CGA:  92    -0.669572800496E+03   -0.44199E-04    0.24941E-06  8424   0.137E-04 0.246E-05
CGA:  93    -0.669572891103E+03   -0.90608E-04    0.28272E-06  8424   0.115E-04 0.164E-04
CGA:  94    -0.669572922669E+03   -0.31566E-04    0.42485E-06  8424   0.147E-04 0.963E-06
CGA:  95    -0.669573009910E+03   -0.87240E-04    0.26200E-06  8424   0.134E-04 0.155E-04
CGA:  96    -0.669573056818E+03   -0.46908E-04    0.37198E-06  8424   0.171E-04-0.188E-05
CGA:  97    -0.669573143780E+03   -0.86962E-04    0.22147E-06  8424   0.178E-04 0.142E-04
CGA:  98    -0.669573166330E+03   -0.22550E-04    0.20614E-05  8424   0.218E-04-0.710E-05
CGA:  99    -0.669573244797E+03   -0.78468E-04    0.19516E-06  8424   0.252E-04 0.124E-04
CGA: 100    -0.669573299212E+03   -0.54414E-04    0.12755E-05  8424   0.281E-04-0.146E-04
CGA: 101    -0.669573316050E+03   -0.16838E-04    0.72051E-04  8424   0.313E-04-0.178E-04
CGA: 102    -0.669573368082E+03   -0.52032E-04    0.23042E-05  8424   0.354E-04-0.215E-04
CGA: 103    -0.669572858391E+03    0.50969E-03   -0.27841E-03  8424   0.472E-02-0.368E-03
CGA: 104    -0.669573600408E+03   -0.74202E-03   -0.66620E-03  8424   0.267E-04-0.203E-03
CGA: 105    -0.669573663901E+03   -0.63493E-04    0.42998E-05  8424   0.165E-03-0.496E-04
CGA: 106    -0.669573682429E+03   -0.18528E-04   -0.20559E-04  8424   0.519E-05 0.540E-05
CGA: 107    -0.669573734819E+03   -0.52390E-04    0.14050E-06  8424   0.804E-05 0.428E-05
CGA: 108    -0.669573800327E+03   -0.65509E-04    0.25870E-06  8424   0.302E-04-0.389E-05
CGA: 109    -0.669574061778E+03   -0.26145E-03    0.22845E-06  8424   0.124E-03 0.440E-05
CGA: 110    -0.669575160836E+03   -0.10991E-02    0.48593E-05  8424   0.839E-04 0.314E-04
CGA: 111    -0.669575959090E+03   -0.79825E-03    0.36694E-05  8424   0.230E-03-0.519E-04
CGA: 112    -0.669575991317E+03   -0.32227E-04   -0.28756E-04  8424   0.420E-05-0.980E-05
CGA: 113    -0.669576016739E+03   -0.25422E-04    0.15960E-06  8424   0.866E-05-0.191E-05
CGA: 114    -0.669576082502E+03   -0.65763E-04    0.78019E-07  8424   0.147E-04 0.123E-07
CGA: 115    -0.669576219284E+03   -0.13678E-03    0.37988E-06  8424   0.188E-04 0.564E-05
CGA: 116    -0.669576418995E+03   -0.19971E-03    0.82321E-06  8424   0.567E-04-0.138E-04
CGA: 117    -0.669576428437E+03   -0.94412E-05   -0.84156E-05  8424   0.745E-05-0.327E-05
   5 F= -.66957643E+03 E0= -.66957643E+03  d E =-.469871E-01  mag=     2.0000
       N       E                     dE             d eps       ncg     rms          ort
SDA:   1    -0.589292224798E+03    0.80284E+02    0.00000E+00  8424   0.205E+03 0.000E+00
CGA:   2    -0.644361762055E+03   -0.55070E+02   -0.55153E+02  8424   0.108E+03 0.176E+00
CGA:   3    -0.664361851079E+03   -0.20000E+02   -0.20104E+02  8424   0.235E+02 0.511E+00
CGA:   4    -0.668209722148E+03   -0.38479E+01   -0.38509E+01  8424   0.557E+01 0.671E-01
CGA:   5    -0.669193805295E+03   -0.98408E+00   -0.98485E+00  8424   0.126E+01 0.297E-02
CGA:   6    -0.669457681537E+03   -0.26388E+00   -0.26434E+00  8424   0.315E+00 0.167E-02
CGA:   7    -0.669531698634E+03   -0.74017E-01   -0.74004E-01  8424   0.105E+00-0.298E-03
CGA:   8    -0.669559568265E+03   -0.27870E-01   -0.27905E-01  8424   0.389E-01 0.274E-03
CGA:   9    -0.669571233914E+03   -0.11666E-01   -0.11614E-01  8424   0.150E-01-0.658E-03
CGA:  10    -0.669576173200E+03   -0.49393E-02   -0.49009E-02  8424   0.561E-02-0.924E-03
CGA:  11    -0.669577710639E+03   -0.15374E-02   -0.15010E-02  8424   0.159E-02-0.425E-03
CGA:  12    -0.669578296259E+03   -0.58562E-03   -0.64703E-03  8424   0.134E-02-0.850E-03
CGA:  13    -0.669578576261E+03   -0.28000E-03   -0.27074E-03  8424   0.332E-03-0.553E-04
CGA:  14    -0.669578839520E+03   -0.26326E-03    0.40287E-03  8424   0.243E-03-0.780E-04
CGA:  15    -0.669579132727E+03   -0.29321E-03    0.28544E-04  8424   0.146E-03 0.120E-04
CGA:  16    -0.669579439039E+03   -0.30631E-03    0.15734E-04  8424   0.788E-04 0.560E-04
CGA:  17    -0.669579760086E+03   -0.32105E-03    0.64542E-05  8424   0.709E-04 0.403E-04
CGA:  18    -0.669579846143E+03   -0.86057E-04    0.19064E-04  8424   0.102E-03-0.112E-04
CGA:  19    -0.669580147298E+03   -0.30116E-03    0.40451E-05  8424   0.803E-04 0.385E-04
CGA:  20    -0.669580518610E+03   -0.37131E-03    0.55212E-05  8424   0.138E-03 0.225E-04
CGA:  21    -0.669581188136E+03   -0.66953E-03    0.75767E-05  8424   0.127E-03 0.875E-04
CGA:  22    -0.669581229327E+03   -0.41191E-04   -0.66768E-04  8424   0.415E-03-0.156E-03
CGA:  23    -0.669581371328E+03   -0.14200E-03   -0.17355E-03  8424   0.125E-02-0.657E-03
CGA:  24    -0.669581497957E+03   -0.12663E-03   -0.16407E-03  8424   0.387E-04 0.155E-03
CGA:  25    -0.669581552283E+03   -0.54326E-04    0.10739E-04  8424   0.764E-04-0.176E-04
CGA:  26    -0.669581799056E+03   -0.24677E-03    0.10471E-05  8424   0.190E-03 0.776E-05
CGA:  27    -0.669582645280E+03   -0.84622E-03    0.82178E-05  8424   0.184E-03 0.476E-04
CGA:  28    -0.669583558827E+03   -0.91355E-03    0.91803E-05  8424   0.120E-03 0.129E-03
CGA:  29    -0.669583569523E+03   -0.10697E-04   -0.17798E-04  8424   0.237E-04 0.334E-04
CGA:  30    -0.669583631457E+03   -0.61934E-04    0.27841E-05  8424   0.378E-04 0.584E-05
CGA:  31    -0.669583841374E+03   -0.20992E-03    0.15422E-05  8424   0.434E-04 0.181E-04
CGA:  32    -0.669584174371E+03   -0.33300E-03    0.17491E-05  8424   0.640E-04 0.175E-04
CGA:  33    -0.669584681806E+03   -0.50744E-03    0.22317E-05  8424   0.746E-04 0.443E-04
CGA:  34    -0.669584702123E+03   -0.20316E-04   -0.20670E-04  8424   0.364E-04 0.472E-05
CGA:  35    -0.669584812981E+03   -0.11086E-03    0.21451E-05  8424   0.208E-04 0.233E-04
CGA:  36    -0.669584888421E+03   -0.75440E-04    0.84875E-06  8424   0.153E-04 0.711E-05
CGA:  37    -0.669584987610E+03   -0.99189E-04    0.59654E-06  8424   0.147E-04 0.181E-04
CGA:  38    -0.669585041166E+03   -0.53556E-04    0.59490E-06  8424   0.113E-04 0.784E-05
CGA:  39    -0.669585103078E+03   -0.61912E-04    0.28459E-06  8424   0.103E-04 0.924E-05
CGA:  40    -0.669585155001E+03   -0.51923E-04    0.28723E-06  8424   0.101E-04 0.950E-05
CGA:  41    -0.669585216720E+03   -0.61719E-04    0.22188E-06  8424   0.998E-05 0.944E-05
CGA:  42    -0.669585266041E+03   -0.49321E-04    0.28198E-06  8424   0.100E-04 0.926E-05
CGA:  43    -0.669585330186E+03   -0.64145E-04    0.21161E-06  8424   0.103E-04 0.894E-05
CGA:  44    -0.669585373201E+03   -0.43014E-04    0.35620E-06  8424   0.110E-04 0.832E-05
CGA:  45    -0.669585444432E+03   -0.71231E-04    0.22906E-06  8424   0.126E-04 0.709E-05
CGA:  46    -0.669585474130E+03   -0.29698E-04    0.91286E-06  8424   0.162E-04 0.453E-05
CGA:  47    -0.669585601808E+03   -0.12768E-03    0.51931E-06  8424   0.126E-04 0.215E-04
CGA:  48    -0.669585679752E+03   -0.77944E-04    0.27518E-06  8424   0.163E-04 0.401E-05
CGA:  49    -0.669585797144E+03   -0.11739E-03    0.54169E-06  8424   0.130E-04 0.211E-04
CGA:  50    -0.669585819966E+03   -0.22821E-04    0.14596E-05  8424   0.171E-04 0.300E-05
CGA:  51    -0.669585942452E+03   -0.12249E-03    0.49385E-06  8424   0.143E-04 0.207E-04
CGA:  52    -0.669586024003E+03   -0.81551E-04    0.34227E-06  8424   0.195E-04 0.807E-06
CGA:  53    -0.669586140912E+03   -0.11691E-03    0.49639E-06  8424   0.184E-04 0.203E-04
CGA:  54    -0.669586146698E+03   -0.57863E-05   -0.57005E-05  8424   0.206E-04-0.248E-05
   6 F= -.66958615E+03 E0= -.66958615E+03  d E =-.971826E-02  mag=     2.0000
       N       E                     dE             d eps       ncg     rms          ort
SDA:   1    -0.612920369830E+03    0.56666E+02    0.00000E+00  8424   0.145E+03 0.000E+00
CGA:   2    -0.651637413643E+03   -0.38717E+02   -0.38748E+02  8424   0.768E+02 0.108E+00
CGA:   3    -0.665865554927E+03   -0.14228E+02   -0.14243E+02  8424   0.172E+02 0.161E+00
CGA:   4    -0.668626464460E+03   -0.27609E+01   -0.27636E+01  8424   0.400E+01 0.124E-01
CGA:   5    -0.669327039035E+03   -0.70057E+00   -0.70105E+00  8424   0.887E+00 0.283E-03
CGA:   6    -0.669512252623E+03   -0.18521E+00   -0.18532E+00  8424   0.216E+00 0.766E-03
CGA:   7    -0.669562504985E+03   -0.50252E-01   -0.50242E-01  8424   0.690E-01-0.217E-03
CGA:   8    -0.669580635060E+03   -0.18130E-01   -0.18122E-01  8424   0.252E-01-0.196E-03
CGA:   9    -0.669588232871E+03   -0.75978E-02   -0.75947E-02  8424   0.101E-01-0.109E-02
CGA:  10    -0.669591584689E+03   -0.33518E-02   -0.34241E-02  8424   0.434E-02-0.144E-02
CGA:  11    -0.669592767109E+03   -0.11824E-02   -0.11965E-02  8424   0.165E-02-0.101E-02
CGA:  12    -0.669592420094E+03    0.34702E-03   -0.10218E-02  8424   0.817E-02-0.275E-02
CGA:  13    -0.669593809909E+03   -0.13898E-02   -0.13892E-02  8424   0.133E-02-0.473E-05
CGA:  14    -0.669594292301E+03   -0.48239E-03   -0.57888E-03  8424   0.160E-02-0.874E-03
CGA:  15    -0.669594595206E+03   -0.30290E-03   -0.27839E-03  8424   0.334E-03-0.157E-03
CGA:  16    -0.669594863213E+03   -0.26801E-03    0.12779E-03  8424   0.184E-03-0.678E-04
CGA:  17    -0.669595179039E+03   -0.31583E-03    0.10203E-04  8424   0.880E-04 0.628E-04
CGA:  18    -0.669595507803E+03   -0.32876E-03    0.57531E-05  8424   0.537E-04 0.626E-04
CGA:  19    -0.669595680866E+03   -0.17306E-03    0.21736E-05  8424   0.528E-04 0.259E-04
CGA:  20    -0.669596013457E+03   -0.33259E-03    0.22660E-05  8424   0.475E-04 0.605E-04
CGA:  21    -0.669596175056E+03   -0.16160E-03    0.18002E-05  8424   0.378E-04 0.301E-04
CGA:  22    -0.669596344827E+03   -0.16977E-03    0.10232E-05  8424   0.430E-04 0.281E-04
CGA:  23    -0.669596487328E+03   -0.14250E-03    0.16773E-05  8424   0.678E-04 0.146E-04
CGA:  24    -0.669596905102E+03   -0.41777E-03    0.23979E-05  8424   0.393E-04 0.848E-04
CGA:  25    -0.669597072148E+03   -0.16705E-03    0.11369E-05  8424   0.587E-04 0.159E-04
CGA:  26    -0.669597452842E+03   -0.38069E-03    0.21664E-05  8424   0.352E-04 0.749E-04
CGA:  27    -0.669597589236E+03   -0.13639E-03    0.11339E-05  8424   0.390E-04 0.218E-04
CGA:  28    -0.669597752990E+03   -0.16375E-03    0.11454E-05  8424   0.602E-04 0.107E-04
CGA:  29    -0.669598124158E+03   -0.37117E-03    0.19088E-05  8424   0.411E-04 0.697E-04
CGA:  30    -0.669598245236E+03   -0.12108E-03    0.18643E-05  8424   0.513E-04 0.938E-05
CGA:  31    -0.669598568896E+03   -0.32366E-03    0.14661E-05  8424   0.456E-04 0.528E-04
CGA:  32    -0.669598720330E+03   -0.15143E-03    0.17807E-05  8424   0.356E-04 0.111E-04
CGA:  33    -0.669598960502E+03   -0.24017E-03    0.96200E-06  8424   0.382E-04 0.409E-04
CGA:  34    -0.669599091782E+03   -0.13128E-03    0.14297E-05  8424   0.277E-04 0.169E-04
CGA:  35    -0.669599318694E+03   -0.22691E-03    0.82627E-06  8424   0.324E-04 0.376E-04
CGA:  36    -0.669599454848E+03   -0.13615E-03    0.94907E-06  8424   0.241E-04 0.195E-04
CGA:  37    -0.669599583380E+03   -0.12853E-03    0.53874E-06  8424   0.228E-04 0.219E-04
CGA:  38    -0.669599710695E+03   -0.12732E-03    0.48248E-06  8424   0.226E-04 0.218E-04
CGA:  39    -0.669599839804E+03   -0.12911E-03    0.46676E-06  8424   0.233E-04 0.209E-04
CGA:  40    -0.669599961290E+03   -0.12149E-03    0.53108E-06  8424   0.263E-04 0.187E-04
CGA:  41    -0.669600092045E+03   -0.13076E-03    0.63668E-06  8424   0.380E-04 0.121E-04
CGA:  42    -0.669600394363E+03   -0.30232E-03    0.11995E-05  8424   0.224E-04 0.518E-04
CGA:  43    -0.669600509867E+03   -0.11550E-03    0.51901E-06  8424   0.275E-04 0.160E-04
CGA:  44    -0.669600635371E+03   -0.12550E-03    0.73389E-06  8424   0.478E-04 0.510E-05
CGA:  45    -0.669600960805E+03   -0.32543E-03    0.11584E-05  8424   0.329E-04 0.544E-04
CGA:  46    -0.669601061954E+03   -0.10115E-03    0.14130E-05  8424   0.697E-04-0.812E-05
CGA:  47    -0.669601415642E+03   -0.35369E-03    0.89840E-06  8424   0.105E-03 0.482E-04
CGA:  48    -0.669601523796E+03   -0.10815E-03    0.28778E-04  8424   0.332E-03-0.147E-03
CGA:  49    -0.669601582764E+03   -0.58968E-04   -0.46452E-04  8424   0.419E-04-0.683E-04
CGA:  50    -0.669601714732E+03   -0.13197E-03    0.98027E-06  8424   0.290E-04 0.954E-05
CGA:  51    -0.669601896307E+03   -0.18158E-03    0.78282E-06  8424   0.191E-04 0.275E-04
CGA:  52    -0.669602005581E+03   -0.10927E-03    0.36817E-06  8424   0.255E-04 0.113E-04
CGA:  53    -0.669602092926E+03   -0.87345E-04    0.89890E-06  8424   0.504E-04-0.180E-05
CGA:  54    -0.669602394599E+03   -0.30167E-03    0.79255E-06  8424   0.549E-04 0.451E-04
CGA:  55    -0.669602508910E+03   -0.11431E-03    0.37167E-05  8424   0.153E-03-0.584E-04
CGA:  56    -0.669602545707E+03   -0.36797E-04   -0.26960E-04  8424   0.702E-04-0.714E-04
CGA:  57    -0.669602696741E+03   -0.15103E-03    0.10309E-05  8424   0.205E-04 0.226E-04
CGA:  58    -0.669602839524E+03   -0.14278E-03    0.55142E-06  8424   0.338E-04 0.924E-05
CGA:  59    -0.669603151551E+03   -0.31203E-03    0.80312E-06  8424   0.344E-04 0.448E-04
CGA:  60    -0.669603226182E+03   -0.74631E-04    0.20864E-05  8424   0.471E-04-0.130E-04
CGA:  61    -0.669603434949E+03   -0.20877E-03    0.42494E-06  8424   0.594E-04 0.257E-04
CGA:  62    -0.669603539717E+03   -0.10477E-03    0.48620E-05  8424   0.638E-04-0.351E-04
CGA:  63    -0.669603602310E+03   -0.62593E-04    0.16418E-04  8424   0.727E-04-0.422E-04
CGA:  64    -0.669603709310E+03   -0.10700E-03    0.79887E-05  8424   0.863E-04-0.539E-04
CGA:  65    -0.669603766569E+03   -0.57259E-04    0.16507E-03  8424   0.104E-03-0.698E-04
CGA:  66    -0.669603870591E+03   -0.10402E-03    0.24998E-04  8424   0.124E-03-0.891E-04
CGA:  67    -0.669603842176E+03    0.28415E-04   -0.75769E-04  8424   0.115E-02-0.345E-03
CGA:  68    -0.669604080842E+03   -0.23867E-03   -0.20415E-03  8424   0.702E-04-0.240E-03
[...]
CGA:  12    -0.669663883834E+03   -0.45539E-04   -0.53256E-04  8424   0.133E-03 0.214E-03
CGA:  13    -0.669663889157E+03   -0.53233E-05   -0.14195E-04  8424   0.983E-04 0.112E-03
  26 F= -.66966389E+03 E0= -.66966389E+03  d E =-.874451E+00  mag=     2.0000
       N       E                     dE             d eps       ncg     rms          ort
SDA:   1    -0.665036780168E+03    0.46271E+01    0.00000E+00  8424   0.146E+02 0.000E+00
CGA:   2    -0.668047917729E+03   -0.30111E+01   -0.30101E+01  8424   0.615E+01 0.272E-01
CGA:   3    -0.669350825132E+03   -0.13029E+01   -0.13031E+01  8424   0.196E+01-0.729E-02
CGA:   4    -0.669665116246E+03   -0.31429E+00   -0.31431E+00  8424   0.464E+00 0.399E-03
CGA:   5    -0.669746372599E+03   -0.81256E-01   -0.81263E-01  8424   0.991E-01 0.126E-02
CGA:   6    -0.669765941509E+03   -0.19569E-01   -0.19569E-01  8424   0.231E-01-0.453E-05
CGA:   7    -0.669770885395E+03   -0.49439E-02   -0.49234E-02  8424   0.655E-02 0.619E-03
CGA:   8    -0.669772555935E+03   -0.16705E-02   -0.16682E-02  8424   0.202E-02 0.351E-04
CGA:   9    -0.669773102020E+03   -0.54608E-03   -0.54372E-03  8424   0.675E-03 0.283E-04
CGA:  10    -0.669773290659E+03   -0.18864E-03   -0.18037E-03  8424   0.253E-03 0.111E-03
CGA:  11    -0.669773387540E+03   -0.96882E-04   -0.92764E-04  8424   0.116E-03 0.332E-04
CGA:  12    -0.669773415942E+03   -0.28401E-04   -0.27648E-04  8424   0.573E-04 0.630E-04
CGA:  13    -0.669773446748E+03   -0.30807E-04   -0.27717E-04  8424   0.511E-04 0.105E-04
CGA:  14    -0.669773464602E+03   -0.17854E-04   -0.15766E-04  8424   0.372E-04 0.439E-04
CGA:  15    -0.669773493891E+03   -0.29289E-04   -0.28195E-04  8424   0.697E-04 0.141E-05
CGA:  16    -0.669773505389E+03   -0.11498E-04   -0.14127E-04  8424   0.529E-04 0.532E-04
CGA:  17    -0.669773532418E+03   -0.27029E-04   -0.29175E-04  8424   0.465E-04-0.732E-05
CGA:  18    -0.669773542368E+03   -0.99500E-05   -0.10098E-04  8424   0.404E-04 0.314E-04
CGA:  19    -0.669773535364E+03    0.70042E-05   -0.50752E-04  8424   0.331E-03-0.586E-04
CGA:  20    -0.669773566607E+03   -0.31243E-04   -0.46550E-04  8424   0.748E-04 0.924E-04
CGA:  21    -0.669773591790E+03   -0.25183E-04   -0.25331E-04  8424   0.279E-04 0.418E-05
CGA:  22    -0.669773613657E+03   -0.21867E-04    0.17145E-04  8424   0.437E-04 0.266E-05
CGA:  23    -0.669773646123E+03   -0.32466E-04   -0.25210E-04  8424   0.688E-04 0.283E-04
CGA:  24    -0.669773647527E+03   -0.14039E-05   -0.80520E-05  8424   0.275E-04 0.348E-04
CGA:  25    -0.669773661339E+03   -0.13812E-04   -0.12183E-04  8424   0.138E-04 0.111E-04
CGA:  26    -0.669773667437E+03   -0.60984E-05   -0.60091E-05  8424   0.138E-04 0.160E-04
  27 F= -.66977367E+03 E0= -.66977367E+03  d E =-.109778E+00  mag=     2.0000
       N       E                     dE             d eps       ncg     rms          ort
SDA:   1    -0.647183414628E+03    0.22590E+02    0.00000E+00  8424   0.674E+02 0.000E+00
CGA:   2    -0.660963443192E+03   -0.13780E+02   -0.13829E+02  8424   0.285E+02 0.432E-01
CGA:   3    -0.667049762034E+03   -0.60863E+01   -0.60769E+01  8424   0.887E+01 0.271E-02
CGA:   4    -0.668479044170E+03   -0.14293E+01   -0.14311E+01  8424   0.208E+01 0.236E-02
CGA:   5    -0.668838080502E+03   -0.35904E+00   -0.35973E+00  8424   0.451E+00 0.313E-02
CGA:   6    -0.668927632325E+03   -0.89552E-01   -0.89484E-01  8424   0.106E+00-0.605E-03
CGA:   7    -0.668950862097E+03   -0.23230E-01   -0.23307E-01  8424   0.312E-01 0.106E-02
CGA:   8    -0.668958700426E+03   -0.78383E-02   -0.78362E-02  8424   0.986E-02-0.553E-04
CGA:   9    -0.668961592269E+03   -0.28918E-02   -0.28984E-02  8424   0.391E-02-0.807E-03
CGA:  10    -0.668962717132E+03   -0.11249E-02   -0.11339E-02  8424   0.178E-02-0.315E-03
CGA:  11    -0.668963271461E+03   -0.55433E-03   -0.83033E-03  8424   0.235E-02-0.126E-02
CGA:  12    -0.668963687030E+03   -0.41557E-03   -0.42098E-03  8424   0.428E-03 0.452E-04
CGA:  13    -0.668964002480E+03   -0.31545E-03    0.27654E-03  8424   0.208E-03 0.294E-04
CGA:  14    -0.668964247392E+03   -0.24491E-03    0.37214E-04  8424   0.132E-03 0.799E-04
CGA:  15    -0.668964550784E+03   -0.30339E-03    0.14638E-04  8424   0.102E-03 0.117E-03
CGA:  16    -0.668964725545E+03   -0.17476E-03    0.78096E-05  8424   0.816E-04 0.494E-04
CGA:  17    -0.668964977347E+03   -0.25180E-03    0.69769E-05  8424   0.683E-04 0.912E-04
CGA:  18    -0.668965123530E+03   -0.14618E-03    0.37758E-05  8424   0.556E-04 0.508E-04
CGA:  19    -0.668965266222E+03   -0.14269E-03    0.24115E-05  8424   0.537E-04 0.500E-04
CGA:  20    -0.668965407131E+03   -0.14091E-03    0.22714E-05  8424   0.541E-04 0.472E-04
CGA:  21    -0.668965545220E+03   -0.13809E-03    0.23635E-05  8424   0.573E-04 0.425E-04
CGA:  22    -0.668965684552E+03   -0.13933E-03    0.26689E-05  8424   0.676E-04 0.336E-04
CGA:  23    -0.668965813414E+03   -0.12886E-03    0.44097E-05  8424   0.962E-04 0.135E-04
CGA:  24    -0.668966148145E+03   -0.33473E-03    0.42940E-05  8424   0.719E-04 0.110E-03
CGA:  25    -0.668966278494E+03   -0.13035E-03    0.50514E-05  8424   0.112E-03-0.403E-05
CGA:  26    -0.668966612238E+03   -0.33374E-03    0.35462E-05  8424   0.110E-03 0.100E-03
CGA:  27    -0.668966729487E+03   -0.11725E-03    0.19962E-04  8424   0.198E-03-0.691E-04
CGA:  28    -0.668963152882E+03    0.35766E-02   -0.19647E-02  8424   0.387E-01-0.245E-02
CGA:  29    -0.668967576405E+03   -0.44235E-02   -0.44142E-02  8424   0.149E-03 0.225E-03
CGA:  30    -0.668967754762E+03   -0.17836E-03    0.24776E-03  8424   0.966E-03-0.308E-03
CGA:  31    -0.668967866376E+03   -0.11161E-03   -0.12896E-03  8424   0.390E-04 0.461E-04
CGA:  32    -0.668968058656E+03   -0.19228E-03    0.26882E-05  8424   0.892E-04 0.245E-05
CGA:  33    -0.668968698169E+03   -0.63951E-03    0.40369E-05  8424   0.111E-03 0.782E-04
CGA:  34    -0.668968841759E+03   -0.14359E-03    0.89335E-04  8424   0.256E-03-0.117E-03
CGA:  35    -0.668968968488E+03   -0.12673E-03   -0.12676E-03  8424   0.684E-03-0.365E-03
CGA:  36    -0.668969107707E+03   -0.13922E-03   -0.13022E-03  8424   0.559E-04-0.289E-04
CGA:  37    -0.668969313409E+03   -0.20570E-03    0.42662E-05  8424   0.172E-03-0.420E-04
CGA:  38    -0.668969352965E+03   -0.39556E-04   -0.31998E-04  8424   0.424E-04-0.257E-04
CGA:  39    -0.668969557450E+03   -0.20448E-03    0.16460E-05  8424   0.436E-04 0.132E-04
CGA:  40    -0.668969907133E+03   -0.34968E-03    0.23894E-05  8424   0.215E-04 0.414E-04
CGA:  41    -0.668970044348E+03   -0.13722E-03    0.84975E-06  8424   0.246E-04 0.139E-04
CGA:  42    -0.668970195222E+03   -0.15087E-03    0.10237E-05  8424   0.358E-04 0.660E-05
CGA:  43    -0.668970535796E+03   -0.34057E-03    0.14930E-05  8424   0.281E-04 0.396E-04
CGA:  44    -0.668970659254E+03   -0.12346E-03    0.17547E-05  8424   0.346E-04 0.121E-06
CGA:  45    -0.668970949823E+03   -0.29057E-03    0.10119E-05  8424   0.346E-04 0.311E-04
CGA:  46    -0.668971087062E+03   -0.13724E-03    0.24650E-05  8424   0.383E-04-0.834E-05
CGA:  47    -0.668971342714E+03   -0.25565E-03    0.79702E-06  8424   0.405E-04 0.247E-04
CGA:  48    -0.668971451505E+03   -0.10879E-03    0.49991E-05  8424   0.396E-04-0.144E-04
CGA:  49    -0.668971676800E+03   -0.22530E-03    0.69915E-06  8424   0.398E-04 0.201E-04
CGA:  50    -0.668971804962E+03   -0.12816E-03    0.37615E-05  8424   0.359E-04-0.138E-04
CGA:  51    -0.668972009954E+03   -0.20499E-03    0.64513E-06  8424   0.356E-04 0.162E-04
CGA:  52    -0.668972313889E+03   -0.30393E-03    0.22592E-05  8424   0.246E-04 0.132E-04
CGA:  53    -0.668972633905E+03   -0.32002E-03    0.85172E-06  8424   0.206E-04 0.265E-04
CGA:  54    -0.668972727682E+03   -0.93777E-04    0.12358E-05  8424   0.296E-04-0.596E-05
CGA:  55    -0.668972957832E+03   -0.23015E-03    0.45518E-06  8424   0.363E-04 0.103E-04
CGA:  56    -0.668973324765E+03   -0.36693E-03    0.16080E-05  8424   0.381E-04 0.164E-04
CGA:  57    -0.668973768857E+03   -0.44409E-03    0.16813E-05  8424   0.575E-04 0.276E-05
CGA:  58    -0.668974551137E+03   -0.78228E-03    0.11349E-05  8424   0.563E-04 0.465E-04
CGA:  59    -0.668974619530E+03   -0.68393E-04    0.42624E-04  8424   0.169E-03-0.823E-04
CGA:  60    -0.668974649975E+03   -0.30445E-04   -0.27844E-04  8424   0.654E-05-0.840E-05
CGA:  61    -0.668974709103E+03   -0.59128E-04    0.14595E-06  8424   0.583E-05 0.208E-05
CGA:  62    -0.668974816008E+03   -0.10691E-03    0.11938E-06  8424   0.466E-05 0.705E-05
CGA:  63    -0.668974871163E+03   -0.55155E-04    0.86320E-07  8424   0.417E-05 0.267E-05
CGA:  64    -0.668974923706E+03   -0.52543E-04    0.72249E-07  8424   0.388E-05 0.288E-05
CGA:  65    -0.668974975098E+03   -0.51392E-04    0.63727E-07  8424   0.389E-05 0.287E-05
CGA:  66    -0.668975029140E+03   -0.54043E-04    0.60655E-07  8424   0.471E-05 0.242E-05
CGA:  67    -0.668975072062E+03   -0.42922E-04    0.11626E-06  8424   0.914E-05 0.311E-06
CGA:  68    -0.668975222594E+03   -0.15053E-03    0.13551E-06  8424   0.729E-05 0.875E-05
CGA:  69    -0.668975276937E+03   -0.54343E-04    0.22548E-06  8424   0.175E-04-0.461E-05
CGA:  70    -0.668975295078E+03   -0.18141E-04    0.25351E-04  8424   0.720E-04-0.281E-04
CGA:  71    -0.668974230405E+03    0.10647E-02   -0.13259E-03  8424   0.111E-01-0.860E-03
CGA:  72    -0.668975520229E+03   -0.12898E-02   -0.14093E-02  8424   0.359E-04 0.434E-03
CGA:  73    -0.668975538916E+03   -0.18686E-04   -0.12841E-04  8424   0.578E-04-0.375E-04
CGA:  74    -0.668975541110E+03   -0.21942E-05   -0.38633E-04  8424   0.835E-03-0.206E-03
CGA:  75    -0.668975623873E+03   -0.82763E-04   -0.10282E-03  8424   0.108E-04 0.554E-04
CGA:  76    -0.668975663745E+03   -0.39872E-04    0.10645E-05  8424   0.404E-04-0.161E-04
CGA:  77    -0.668975602811E+03    0.60934E-04   -0.39510E-04  8424   0.117E-02-0.202E-03
CGA:  78    -0.668975757561E+03   -0.15475E-03   -0.16226E-03  8424   0.238E-04 0.229E-04
CGA:  79    -0.668975815970E+03   -0.58410E-04    0.40386E-05  8424   0.678E-04-0.360E-04
CGA:  80    -0.668975823287E+03   -0.73170E-05   -0.10471E-04  8424   0.488E-05 0.947E-05
  28 F= -.66897582E+03 E0= -.66897582E+03  d E =0.797844E+00  mag=     2.0000
       N       E                     dE             d eps       ncg     rms          ort
SDA:   1    -0.658788948988E+03    0.10187E+02    0.00000E+00  8424   0.344E+02 0.000E+00
CGA:   2    -0.665673834002E+03   -0.68849E+01   -0.69268E+01  8424   0.144E+02-0.524E-01
CGA:   3    -0.668717056389E+03   -0.30432E+01   -0.30320E+01  8424   0.448E+01 0.380E-01
CGA:   4    -0.669453894750E+03   -0.73684E+00   -0.73823E+00  8424   0.108E+01 0.228E-02
CGA:   5    -0.669642208605E+03   -0.18831E+00   -0.18893E+00  8424   0.240E+00 0.977E-03
CGA:   6    -0.669689623564E+03   -0.47415E-01   -0.47159E-01  8424   0.547E-01-0.103E-02
CGA:   7    -0.669701513971E+03   -0.11890E-01   -0.12001E-01  8424   0.159E-01 0.582E-03
CGA:   8    -0.669705366858E+03   -0.38529E-02   -0.39060E-02  8424   0.476E-02 0.339E-03
CGA:   9    -0.669706709315E+03   -0.13425E-02   -0.13396E-02  8424   0.167E-02-0.255E-04
CGA:  10    -0.669707125306E+03   -0.41599E-03   -0.44271E-03  8424   0.641E-03 0.226E-03
CGA:  11    -0.669707347599E+03   -0.22229E-03   -0.22707E-03  8424   0.292E-03 0.704E-04
CGA:  12    -0.669707393363E+03   -0.45765E-04   -0.68918E-04  8424   0.138E-03 0.141E-03
CGA:  13    -0.669707399476E+03   -0.61124E-05   -0.33509E-04  8424   0.951E-04 0.133E-03
CGA:  14    -0.669707401015E+03   -0.15395E-05   -0.15919E-04  8424   0.705E-04 0.755E-04
  29 F= -.66970740E+03 E0= -.66970740E+03  d E =-.731578E+00  mag=     2.0000
       N       E                     dE             d eps       ncg     rms          ort
SDA:   1    -0.668462509934E+03    0.12449E+01    0.00000E+00  8424   0.403E+01 0.000E+00
CGA:   2    -0.669290072736E+03   -0.82756E+00   -0.82813E+00  8424   0.171E+01 0.213E-02
CGA:   3    -0.669651437424E+03   -0.36136E+00   -0.36113E+00  8424   0.548E+00-0.134E-02
CGA:   4    -0.669739272226E+03   -0.87835E-01   -0.87932E-01  8424   0.129E+00 0.449E-03
CGA:   5    -0.669761877850E+03   -0.22606E-01   -0.22679E-01  8424   0.274E-01 0.488E-03
CGA:   6    -0.669767385847E+03   -0.55080E-02   -0.54900E-02  8424   0.640E-02-0.169E-03
CGA:   7    -0.669768704183E+03   -0.13183E-02   -0.13458E-02  8424   0.181E-02 0.298E-03
CGA:   8    -0.669769109888E+03   -0.40570E-03   -0.42517E-03  8424   0.530E-03 0.260E-03
CGA:   9    -0.669769230165E+03   -0.12028E-03   -0.13355E-03  8424   0.203E-03 0.177E-03
CGA:  10    -0.669769247240E+03   -0.17075E-04   -0.40889E-04  8424   0.123E-03 0.168E-03
CGA:  11    -0.669769247276E+03   -0.36638E-07   -0.15677E-04  8424   0.883E-04 0.995E-04
  30 F= -.66976925E+03 E0= -.66976925E+03  d E =-.618463E-01  mag=     2.0000
       N       E                     dE             d eps       ncg     rms          ort
SDA:   1    -0.665990579734E+03    0.37787E+01    0.00000E+00  8424   0.993E+01 0.000E+00
CGA:   2    -0.668436992004E+03   -0.24464E+01   -0.24466E+01  8424   0.520E+01 0.502E-02
CGA:   3    -0.669450556912E+03   -0.10136E+01   -0.10132E+01  8424   0.131E+01-0.289E-02
CGA:   4    -0.669653794027E+03   -0.20324E+00   -0.20338E+00  8424   0.290E+00 0.877E-03
CGA:   5    -0.669704762113E+03   -0.50968E-01   -0.51045E-01  8424   0.615E-01 0.848E-03
CGA:   6    -0.669717364217E+03   -0.12602E-01   -0.12596E-01  8424   0.149E-01-0.128E-03
CGA:   7    -0.669720495016E+03   -0.31308E-02   -0.31516E-02  8424   0.409E-02 0.528E-03
CGA:   8    -0.669721482214E+03   -0.98720E-03   -0.99271E-03  8424   0.124E-02 0.366E-03
CGA:   9    -0.669721805388E+03   -0.32317E-03   -0.32544E-03  8424   0.441E-03 0.277E-03
CGA:  10    -0.669721883283E+03   -0.77895E-04   -0.97186E-04  8424   0.219E-03 0.282E-03
CGA:  11    -0.669721903764E+03   -0.20481E-04   -0.34165E-04  8424   0.128E-03 0.154E-03
CGA:  12    -0.669721905350E+03   -0.15865E-05   -0.15536E-04  8424   0.107E-03 0.116E-03
CGA:  13    -0.669721902853E+03    0.24967E-05   -0.10861E-04  8424   0.950E-04 0.101E-03
  31 F= -.66972190E+03 E0= -.66972190E+03  d E =0.473444E-01  mag=     2.0000
       N       E                     dE             d eps       ncg     rms          ort
SDA:   1    -0.625273977693E+03    0.44448E+02    0.00000E+00  8424   0.129E+03 0.000E+00
CGA:   2    -0.653025725062E+03   -0.27752E+02   -0.27761E+02  8424   0.586E+02 0.835E+00
CGA:   3    -0.665507072874E+03   -0.12481E+02   -0.12479E+02  8424   0.168E+02-0.135E+00
CGA:   4    -0.668188484012E+03   -0.26814E+01   -0.26834E+01  8424   0.383E+01 0.115E-01
CGA:   5    -0.668842013175E+03   -0.65353E+00   -0.65414E+00  8424   0.823E+00 0.845E-02
CGA:   6    -0.669009841774E+03   -0.16783E+00   -0.16782E+00  8424   0.200E+00-0.643E-03
CGA:   7    -0.669054517581E+03   -0.44676E-01   -0.44655E-01  8424   0.585E-01 0.242E-02
CGA:   8    -0.669069226257E+03   -0.14709E-01   -0.14688E-01  8424   0.190E-01 0.621E-03
CGA:   9    -0.669074672386E+03   -0.54461E-02   -0.54756E-02  8424   0.719E-02-0.433E-03
CGA:  10    -0.669076745123E+03   -0.20727E-02   -0.20481E-02  8424   0.271E-02 0.343E-03
CGA:  11    -0.669077610762E+03   -0.86564E-03   -0.87577E-03  8424   0.986E-03-0.121E-03
CGA:  12    -0.669077831472E+03   -0.22071E-03   -0.21983E-03  8424   0.307E-03 0.154E-03
CGA:  13    -0.669077949259E+03   -0.11779E-03   -0.11489E-03  8424   0.175E-03 0.287E-04
CGA:  14    -0.669078029302E+03   -0.80043E-04   -0.75166E-04  8424   0.157E-03 0.279E-04
CGA:  15    -0.669078086247E+03   -0.56945E-04   -0.52284E-04  8424   0.125E-03 0.961E-04
CGA:  16    -0.669078150711E+03   -0.64464E-04   -0.64702E-04  8424   0.124E-03-0.171E-05
CGA:  17    -0.669078179840E+03   -0.29129E-04   -0.29882E-04  8424   0.778E-04 0.608E-04
CGA:  18    -0.669078261527E+03   -0.81687E-04   -0.79023E-04  8424   0.223E-03 0.103E-05
CGA:  19    -0.669078117859E+03    0.14367E-03   -0.12348E-03  8424   0.383E-02-0.541E-03
CGA:  20    -0.669078896356E+03   -0.77850E-03   -0.83252E-03  8424   0.913E-03 0.186E-03
CGA:  21    -0.669079195300E+03   -0.29894E-03   -0.26649E-03  8424   0.310E-03-0.152E-03
CGA:  22    -0.669079310416E+03   -0.11512E-03   -0.11363E-03  8424   0.240E-03-0.363E-04
CGA:  23    -0.669079411524E+03   -0.10111E-03   -0.12003E-03  8424   0.571E-03-0.218E-03
CGA:  24    -0.669079470164E+03   -0.58640E-04   -0.74783E-04  8424   0.668E-04 0.463E-04
CGA:  25    -0.669079501436E+03   -0.31272E-04   -0.31104E-04  8424   0.436E-04-0.505E-05
CGA:  26    -0.669079517797E+03   -0.16361E-04   -0.27983E-04  8424   0.228E-03-0.511E-04
CGA:  27    -0.669079541847E+03   -0.24050E-04   -0.30892E-04  8424   0.262E-04 0.202E-04
CGA:  28    -0.669079475782E+03    0.66065E-04   -0.50140E-04  8424   0.558E-03-0.901E-04
CGA:  29    -0.669079575563E+03   -0.99781E-04   -0.11119E-03  8424   0.716E-04 0.351E-04
CGA:  30    -0.669079605930E+03   -0.30366E-04   -0.29918E-04  8424   0.181E-04-0.404E-05
CGA:  31    -0.669079611001E+03   -0.50711E-05   -0.53025E-05  8424   0.148E-04 0.110E-05
CGA:  32    -0.669079623408E+03   -0.12407E-04   -0.16001E-04  8424   0.406E-04-0.770E-05
CGA:  33    -0.669079634499E+03   -0.11092E-04   -0.11540E-04  8424   0.215E-04 0.187E-05
CGA:  34    -0.669079641226E+03   -0.67267E-05   -0.66923E-05  8424   0.961E-05-0.284E-06
  32 F= -.66907964E+03 E0= -.66907964E+03  d E =0.642262E+00  mag=     2.0000
       N       E                     dE             d eps       ncg     rms          ort
SDA:   1    -0.634238323239E+03    0.34841E+02    0.00000E+00  8424   0.119E+03 0.000E+00
CGA:   2    -0.656341736167E+03   -0.22103E+02   -0.22472E+02  8424   0.456E+02-0.248E-01
CGA:   3    -0.666213593776E+03   -0.98719E+01   -0.98142E+01  8424   0.143E+02 0.367E+00
CGA:   4    -0.668677262806E+03   -0.24637E+01   -0.24733E+01  8424   0.363E+01 0.270E-01
CGA:   5    -0.669298187012E+03   -0.62092E+00   -0.62433E+00  8424   0.806E+00 0.356E-03
CGA:   6    -0.669457884217E+03   -0.15970E+00   -0.15901E+00  8424   0.185E+00-0.135E-02
CGA:   7    -0.669499271004E+03   -0.41387E-01   -0.41681E-01  8424   0.561E-01 0.138E-02
CGA:   8    -0.669512883824E+03   -0.13613E-01   -0.13726E-01  8424   0.173E-01 0.610E-03
CGA:   9    -0.669517845270E+03   -0.49614E-02   -0.48936E-02  8424   0.610E-02-0.497E-03
CGA:  10    -0.669519573390E+03   -0.17281E-02   -0.17466E-02  8424   0.244E-02 0.156E-03
CGA:  11    -0.669520494168E+03   -0.92078E-03   -0.90448E-03  8424   0.127E-02-0.377E-03
CGA:  12    -0.669520738679E+03   -0.24451E-03   -0.26548E-03  8424   0.520E-03 0.133E-03
CGA:  13    -0.669520941848E+03   -0.20317E-03   -0.20369E-03  8424   0.419E-03 0.964E-05
CGA:  14    -0.669521109737E+03   -0.16789E-03   -0.16785E-03  8424   0.401E-03 0.711E-04
CGA:  15    -0.669521257407E+03   -0.14767E-03   -0.15963E-03  8424   0.325E-03 0.218E-03
CGA:  16    -0.669521350852E+03   -0.93445E-04   -0.99674E-04  8424   0.163E-03 0.730E-04
CGA:  17    -0.669521363657E+03   -0.12805E-04   -0.37739E-04  8424   0.102E-03 0.126E-03
CGA:  18    -0.669521379426E+03   -0.15769E-04   -0.25373E-04  8424   0.786E-04 0.751E-04
CGA:  19    -0.669521382540E+03   -0.31137E-05   -0.15674E-04  8424   0.740E-04 0.731E-04
CGA:  20    -0.669521392912E+03   -0.10373E-04   -0.18380E-04  8424   0.715E-04 0.701E-04
CGA:  21    -0.669521394510E+03   -0.15979E-05   -0.13247E-04  8424   0.690E-04 0.678E-04
CGA:  22    -0.669521403561E+03   -0.90505E-05   -0.16365E-04  8424   0.674E-04 0.659E-04
CGA:  23    -0.669521405084E+03   -0.15228E-05   -0.12058E-04  8424   0.655E-04 0.642E-04
CGA:  24    -0.669521412695E+03   -0.76114E-05   -0.14607E-04  8424   0.644E-04 0.627E-04
CGA:  25    -0.669521414745E+03   -0.20497E-05   -0.11386E-04  8424   0.628E-04 0.613E-04
CGA:  26    -0.669521420524E+03   -0.57789E-05   -0.12826E-04  8424   0.619E-04 0.601E-04
CGA:  27    -0.669521423826E+03   -0.33027E-05   -0.11209E-04  8424   0.607E-04 0.587E-04
CGA:  28    -0.669521427335E+03   -0.35081E-05   -0.10942E-04  8424   0.597E-04 0.577E-04
CGA:  29    -0.669521432393E+03   -0.50579E-05   -0.11378E-04  8424   0.590E-04 0.565E-04
