       N       E                     dE             d eps       ncg     rms          ort
DAV:   1     0.826148117028E+04    0.82615E+04   -0.24662E+05  8424   0.238E+03
DAV:   2     0.915561740939E+03   -0.73459E+04   -0.68950E+04  8424   0.656E+02
DAV:   3    -0.674829956726E+03   -0.15904E+04   -0.13985E+04  8424   0.282E+02
DAV:   4    -0.830337317248E+03   -0.15551E+03   -0.15280E+03  8424   0.857E+01
DAV:   5    -0.832822471193E+03   -0.24852E+01   -0.24744E+01  8424   0.121E+01
SDA:   6    -0.255343844674E+03    0.57748E+03   -0.24744E+01  8424   0.416E+04 0.000E+00
CGA:   7    -0.578878609099E+03   -0.32353E+03   -0.40365E+03  8424   0.313E+04-0.125E+03
CGA:   8    -0.586777101696E+03   -0.78985E+01   -0.17278E+03  8424   0.746E+03-0.638E+03
CGA:   9    -0.577442079660E+03    0.93350E+01   -0.15789E+02  8424   0.343E+04-0.184E+04
CGA:  10    -0.519675714615E+03    0.57766E+02   -0.20042E+03  8424   0.314E+04-0.169E+04
CGA:  11    -0.599202668422E+03   -0.79527E+02   -0.64335E+02  8424   0.170E+04-0.247E+04
CGA:  12    -0.525149528960E+03    0.74053E+02   -0.70568E+02  8424   0.136E+04-0.841E+03
CGA:  13    -0.618105039724E+03   -0.92956E+02   -0.17195E+02  8424   0.638E+03-0.970E+03
CGA:  14    -0.621159945107E+03   -0.30549E+01   -0.13619E+02  8424   0.111E+04-0.860E+03
CGA:  15    -0.606750360828E+03    0.14410E+02   -0.33284E+02  8424   0.115E+04-0.901E+03
CGA:  16    -0.627621674707E+03   -0.20871E+02   -0.30443E+02  8424   0.159E+04-0.181E+04
CGA:  17    -0.613076019376E+03    0.14546E+02   -0.52692E+02  8424   0.958E+03-0.727E+03
CGA:  18    -0.657334891526E+03   -0.44259E+02   -0.79918E+01  8424   0.446E+03 0.123E+04
CGA:  19    -0.634794691616E+03    0.22540E+02   -0.21192E+02  8424   0.405E+03-0.105E+03
CGA:  20    -0.651718526242E+03   -0.16924E+02   -0.68694E+01  8424   0.112E+04-0.135E+04
CGA:  21    -0.639413563832E+03    0.12305E+02   -0.45090E+02  8424   0.707E+03-0.240E+03
CGA:  22    -0.653553135134E+03   -0.14140E+02   -0.18210E+02  8424   0.150E+04-0.187E+04
CGA:  23    -0.642122980113E+03    0.11430E+02   -0.69896E+02  8424   0.544E+03-0.337E+03
CGA:  24    -0.662295455220E+03   -0.20172E+02   -0.11643E+02  8424   0.128E+03-0.362E+03
CGA:  25    -0.663885958351E+03   -0.15905E+01   -0.30268E+01  8424   0.876E+02-0.600E+02
CGA:  26    -0.663772456577E+03    0.11350E+00   -0.11028E+01  8424   0.156E+03-0.476E+02
CGA:  27    -0.663324748097E+03    0.44771E+00   -0.56349E+01  8424   0.168E+03-0.814E+02
CGA:  28    -0.665757493777E+03   -0.24327E+01   -0.42499E+01  8424   0.125E+02-0.766E+01
CGA:  29    -0.666332857605E+03   -0.57536E+00   -0.37328E+00  8424   0.565E+01 0.669E+01
CGA:  30    -0.666615789388E+03   -0.28293E+00   -0.26393E+00  8424   0.747E+01 0.658E-01
CGA:  31    -0.667242252148E+03   -0.62646E+00   -0.62647E+00  8424   0.109E+02-0.339E+01
CGA:  32    -0.667471856616E+03   -0.22960E+00   -0.17038E+00  8424   0.867E+01 0.349E+01
CGA:  33    -0.667698069104E+03   -0.22621E+00   -0.28888E+00  8424   0.114E+02-0.507E+01
CGA:  34    -0.667933103080E+03   -0.23503E+00   -0.44082E+00  8424   0.454E+01-0.185E+01
CGA:  35    -0.668191278591E+03   -0.25818E+00   -0.26128E+00  8424   0.183E+01 0.185E+00
CGA:  36    -0.668391854511E+03   -0.20058E+00   -0.19369E+00  8424   0.122E+01 0.193E+00
CGA:  37    -0.668556986902E+03   -0.16513E+00   -0.15181E+00  8424   0.422E+00 0.275E+00
CGA:  38    -0.668621380783E+03   -0.64394E-01   -0.60465E-01  8424   0.247E+00 0.746E-01
CGA:  39    -0.668682592183E+03   -0.61211E-01   -0.61770E-01  8424   0.269E+00-0.451E-02
CGA:  40    -0.668715953868E+03   -0.33362E-01   -0.34020E-01  8424   0.107E+00-0.166E-01
CGA:  41    -0.668731087448E+03   -0.15134E-01   -0.16616E-01  8424   0.845E-01-0.192E-01
CGA:  42    -0.668745830690E+03   -0.14743E-01   -0.18081E-01  8424   0.110E+00-0.187E-01
CGA:  43    -0.668756611806E+03   -0.10781E-01   -0.11334E-01  8424   0.428E-01-0.177E-01
CGA:  44    -0.668762863694E+03   -0.62519E-02   -0.87738E-02  8424   0.688E-01-0.178E-01
CGA:  45    -0.668767423050E+03   -0.45594E-02   -0.11585E-01  8424   0.949E-01-0.392E-01
CGA:  46    -0.668775388601E+03   -0.79656E-02   -0.78530E-02  8424   0.345E-01-0.171E-02
CGA:  47    -0.668781974582E+03   -0.65860E-02   -0.67295E-02  8424   0.188E-01-0.178E-02
CGA:  48    -0.668787434850E+03   -0.54603E-02   -0.62096E-02  8424   0.270E-01-0.335E-02
CGA:  49    -0.668791539861E+03   -0.41050E-02   -0.42455E-02  8424   0.179E-01-0.238E-02
CGA:  50    -0.668793419719E+03   -0.18799E-02   -0.18255E-02  8424   0.967E-02-0.213E-02
CGA:  51    -0.668796175598E+03   -0.27559E-02   -0.36839E-02  8424   0.206E-01-0.321E-02
CGA:  52    -0.668798540281E+03   -0.23647E-02   -0.34682E-02  8424   0.664E-01-0.113E-01
CGA:  53    -0.668802673448E+03   -0.41332E-02   -0.42549E-02  8424   0.210E-01 0.160E-02
CGA:  54    -0.668808469093E+03   -0.57956E-02   -0.61907E-02  8424   0.134E-01-0.293E-02
CGA:  55    -0.668812161789E+03   -0.36927E-02   -0.66187E-02  8424   0.543E-01-0.707E-02
CGA:  56    -0.668819605417E+03   -0.74436E-02   -0.73812E-02  8424   0.273E-01-0.210E-02
CGA:  57    -0.668822176820E+03   -0.25714E-02   -0.25862E-02  8424   0.210E-01 0.408E-03
CGA:  58    -0.668829080815E+03   -0.69040E-02   -0.10079E-01  8424   0.567E-01-0.110E-01
CGA:  59    -0.668839881853E+03   -0.10801E-01   -0.10808E-01  8424   0.453E-01-0.142E-02
CGA:  60    -0.668846750527E+03   -0.68687E-02   -0.66337E-02  8424   0.725E-01-0.791E-02
CGA:  61    -0.668860550816E+03   -0.13800E-01   -0.14833E-01  8424   0.974E-01-0.164E-01
CGA:  62    -0.668894511828E+03   -0.33961E-01    0.35828E-01  8424   0.188E+00 0.723E-01
CGA:  63    -0.668932020576E+03   -0.37509E-01   -0.37279E-01  8424   0.182E+00 0.505E-02
CGA:  64    -0.668964103898E+03   -0.32083E-01   -0.31854E-01  8424   0.985E-01-0.897E-02
CGA:  65    -0.669001538779E+03   -0.37435E-01   -0.52344E-01  8424   0.401E+00-0.425E-01
CGA:  66    -0.669044757918E+03   -0.43219E-01   -0.39148E-01  8424   0.643E+00-0.729E-01
CGA:  67    -0.669108129349E+03   -0.63371E-01   -0.54196E-01  8424   0.418E+00-0.349E-01
CGA:  68    -0.669149293436E+03   -0.41164E-01   -0.39979E-01  8424   0.215E+00-0.417E-01
CGA:  69    -0.669174434756E+03   -0.25141E-01   -0.24216E-01  8424   0.134E+00-0.213E-01
CGA:  70    -0.669190325614E+03   -0.15891E-01   -0.15143E-01  8424   0.748E-01-0.118E-01
CGA:  71    -0.669199104461E+03   -0.87788E-02   -0.85095E-02  8424   0.513E-01-0.435E-02
CGA:  72    -0.669206714283E+03   -0.76098E-02   -0.75637E-02  8424   0.505E-01-0.174E-02
CGA:  73    -0.669214289788E+03   -0.75755E-02   -0.75485E-02  8424   0.411E-01-0.119E-02
CGA:  74    -0.669220231744E+03   -0.59420E-02   -0.59325E-02  8424   0.334E-01-0.558E-03
CGA:  75    -0.669225395948E+03   -0.51642E-02   -0.51978E-02  8424   0.290E-01 0.139E-02
CGA:  76    -0.669229337487E+03   -0.39415E-02   -0.40721E-02  8424   0.189E-01 0.324E-02
CGA:  77    -0.669231935842E+03   -0.25984E-02   -0.27424E-02  8424   0.129E-01 0.324E-02
CGA:  78    -0.669234048137E+03   -0.21123E-02   -0.21772E-02  8424   0.871E-02 0.214E-02
CGA:  79    -0.669235557226E+03   -0.15091E-02   -0.15219E-02  8424   0.566E-02 0.518E-03
CGA:  80    -0.669236592015E+03   -0.10348E-02   -0.10348E-02  8424   0.543E-02-0.148E-04
CGA:  81    -0.669237513226E+03   -0.92121E-03   -0.92138E-03  8424   0.538E-02 0.556E-04
CGA:  82    -0.669238558289E+03   -0.10451E-02   -0.10597E-02  8424   0.683E-02-0.680E-03
CGA:  83    -0.669239516779E+03   -0.95849E-03   -0.23307E-02  8424   0.225E-01-0.648E-02
CGA:  84    -0.669243953947E+03   -0.44372E-02   -0.44801E-02  8424   0.816E-02-0.276E-02
CGA:  85    -0.669246634522E+03   -0.26806E-02   -0.36771E-02  8424   0.649E-02-0.306E-02
CGA:  86    -0.669238275262E+03    0.83593E-02   -0.46372E-02  8424   0.887E-01-0.123E-01
CGA:  87    -0.669250472906E+03   -0.12198E-01   -0.12339E-01  8424   0.826E-02 0.156E-02
CGA:  88    -0.669253734221E+03   -0.32613E-02   -0.32768E-02  8424   0.459E-02-0.457E-03
CGA:  89    -0.669255503692E+03   -0.17695E-02   -0.17753E-02  8424   0.182E-02-0.125E-03
CGA:  90    -0.669251776702E+03    0.37270E-02   -0.22457E-02  8424   0.530E-01-0.416E-02
CGA:  91    -0.669260431662E+03   -0.86550E-02   -0.87582E-02  8424   0.626E-02 0.279E-03
CGA:  92    -0.669263006272E+03   -0.25746E-02   -0.24454E-02  8424   0.320E-02-0.539E-03
CGA:  93    -0.669265005161E+03   -0.19989E-02   -0.22212E-02  8424   0.618E-02-0.160E-02
CGA:  94    -0.669266206291E+03   -0.12011E-02   -0.94938E-03  8424   0.451E-02-0.822E-03
CGA:  95    -0.669268491482E+03   -0.22852E-02   -0.21961E-02  8424   0.106E-01-0.196E-02
CGA:  96    -0.669271760471E+03   -0.32690E-02   -0.44142E-02  8424   0.393E-01-0.979E-02
CGA:  97    -0.669281533805E+03   -0.97733E-02   -0.99810E-02  8424   0.808E-02 0.644E-03
CGA:  98    -0.669284631224E+03   -0.30974E-02   -0.27853E-02  8424   0.473E-02-0.124E-02
CGA:  99    -0.669286066751E+03   -0.14355E-02   -0.13573E-02  8424   0.185E-02-0.315E-03
CGA: 100    -0.669287078473E+03   -0.10117E-02   -0.16091E-02  8424   0.785E-02-0.169E-02
CGA: 101    -0.669288693565E+03   -0.16151E-02   -0.14884E-02  8424   0.126E-02-0.306E-03
CGA: 102    -0.669289152309E+03   -0.45874E-03   -0.10751E-02  8424   0.893E-02-0.195E-02
CGA: 103    -0.669290506609E+03   -0.13543E-02   -0.14464E-02  8424   0.118E-02 0.261E-03
CGA: 104    -0.669291167381E+03   -0.66077E-03   -0.81142E-03  8424   0.375E-02-0.142E-02
CGA: 105    -0.669292017668E+03   -0.85029E-03   -0.83426E-03  8424   0.971E-03-0.399E-04
CGA: 106    -0.669290611845E+03    0.14058E-02   -0.12354E-02  8424   0.260E-01-0.362E-02
CGA: 107    -0.669294234052E+03   -0.36222E-02   -0.38392E-02  8424   0.255E-02 0.846E-03
CGA: 108    -0.669295336375E+03   -0.11023E-02   -0.94546E-03  8424   0.840E-03-0.764E-03
CGA: 109    -0.669296499967E+03   -0.11636E-02    0.21002E-03  8424   0.670E-03 0.240E-03
CGA: 110    -0.669298277770E+03   -0.17778E-02    0.28022E-03  8424   0.991E-03 0.247E-03
CGA: 111    -0.669301687175E+03   -0.34094E-02    0.29984E-03  8424   0.138E-02 0.576E-03
CGA: 112    -0.669302412811E+03   -0.72564E-03   -0.63595E-03  8424   0.277E-02-0.949E-03
CGA: 113    -0.669302932534E+03   -0.51972E-03   -0.43875E-03  8424   0.416E-03-0.202E-03
CGA: 114    -0.669303939675E+03   -0.10071E-02    0.70484E-04  8424   0.425E-03 0.202E-03
CGA: 115    -0.669305740489E+03   -0.18008E-02    0.10014E-03  8424   0.450E-03 0.501E-03
CGA: 116    -0.669306590846E+03   -0.85036E-03    0.15416E-03  8424   0.181E-02-0.249E-03
CGA: 117    -0.669306879356E+03   -0.28851E-03   -0.27198E-03  8424   0.330E-03-0.395E-04
CGA: 118    -0.669307883091E+03   -0.10037E-02    0.40689E-04  8424   0.323E-03 0.279E-03
CGA: 119    -0.669308706166E+03   -0.82307E-03    0.55551E-04  8424   0.678E-03 0.966E-04
CGA: 120    -0.669311308633E+03   -0.26025E-02    0.12004E-03  8424   0.517E-03 0.685E-03
CGA: 121    -0.669312122986E+03   -0.81435E-03    0.24788E-03  8424   0.962E-03-0.148E-03
CGA: 122    -0.669314307167E+03   -0.21842E-02    0.83602E-04  8424   0.177E-02 0.225E-03
CGA: 123    -0.669319948968E+03   -0.56418E-02    0.36997E-03  8424   0.144E-02 0.118E-02
CGA: 124    -0.669320596770E+03   -0.64780E-03   -0.48218E-03  8424   0.173E-02-0.932E-03
CGA: 125    -0.669321043188E+03   -0.44642E-03   -0.33291E-03  8424   0.537E-03-0.362E-03
CGA: 126    -0.669322152314E+03   -0.11091E-02    0.61801E-04  8424   0.501E-03 0.177E-03
CGA: 127    -0.669324051852E+03   -0.18995E-02    0.84707E-04  8424   0.382E-03 0.404E-03
CGA: 128    -0.669324762646E+03   -0.71079E-03    0.10279E-03  8424   0.896E-03-0.766E-04
CGA: 129    -0.669327473314E+03   -0.27107E-02    0.60768E-04  8424   0.146E-02 0.541E-03
CGA: 130    -0.669328131627E+03   -0.65831E-03   -0.53474E-03  8424   0.153E-02-0.102E-02
CGA: 131    -0.669328726136E+03   -0.59451E-03   -0.46146E-03  8424   0.103E-02-0.741E-03
CGA: 132    -0.669330123471E+03   -0.13973E-02    0.71005E-04  8424   0.849E-03 0.222E-03
CGA: 133    -0.669332032189E+03   -0.19087E-02    0.25468E-03  8424   0.103E-02-0.661E-04
CGA: 134    -0.669335227167E+03   -0.31950E-02    0.87979E-04  8424   0.117E-02 0.665E-03
CGA: 135    -0.669335774854E+03   -0.54769E-03   -0.58373E-03  8424   0.285E-02-0.134E-02
CGA: 136    -0.669336613336E+03   -0.83848E-03   -0.67765E-03  8424   0.639E-03-0.679E-03
CGA: 137    -0.669337556904E+03   -0.94357E-03    0.10293E-03  8424   0.679E-03-0.672E-05
CGA: 138    -0.669339465229E+03   -0.19083E-02    0.75017E-04  8424   0.272E-03 0.407E-03
CGA: 139    -0.669340221154E+03   -0.75593E-03    0.31508E-04  8424   0.345E-03 0.103E-03
CGA: 140    -0.669342044644E+03   -0.18235E-02    0.35005E-04  8424   0.307E-03 0.435E-03
CGA: 141    -0.669342782176E+03   -0.73753E-03    0.44458E-04  8424   0.386E-03 0.542E-04
CGA: 142    -0.669344586291E+03   -0.18041E-02    0.31914E-04  8424   0.407E-03 0.397E-03
CGA: 143    -0.669345292357E+03   -0.70607E-03    0.10748E-03  8424   0.527E-03-0.651E-04
CGA: 144    -0.669347087847E+03   -0.17955E-02    0.30235E-04  8424   0.685E-03 0.308E-03
CGA: 145    -0.669347778487E+03   -0.69064E-03    0.17522E-02  8424   0.812E-03-0.342E-03
CGA: 146    -0.669348580622E+03   -0.80214E-03    0.27591E-02  8424   0.173E-02-0.705E-03
CGA: 147    -0.669348966589E+03   -0.38597E-03   -0.32802E-03  8424   0.377E-03-0.206E-03
CGA: 148    -0.669349918122E+03   -0.95153E-03    0.33942E-04  8424   0.363E-03 0.826E-04
CGA: 149    -0.669351558300E+03   -0.16402E-02    0.31797E-04  8424   0.204E-03 0.403E-03
CGA: 150    -0.669352251012E+03   -0.69271E-03    0.16493E-04  8424   0.262E-03 0.128E-03
CGA: 151    -0.669353025422E+03   -0.77441E-03    0.25572E-04  8424   0.627E-03-0.203E-04
CGA: 152    -0.669355496683E+03   -0.24713E-02    0.34587E-04  8424   0.733E-03 0.506E-03
CGA: 153    -0.669355827491E+03   -0.33081E-03   -0.29806E-03  8424   0.197E-02-0.773E-03
CGA: 154    -0.669356508489E+03   -0.68100E-03   -0.43884E-03  8424   0.114E-02-0.109E-02
CGA: 155    -0.669356764758E+03   -0.25627E-03   -0.19604E-03  8424   0.325E-03-0.226E-03
CGA: 156    -0.669357685739E+03   -0.92098E-03    0.17202E-04  8424   0.167E-03 0.202E-03
CGA: 157    -0.669358355726E+03   -0.66999E-03    0.94754E-05  8424   0.191E-03 0.147E-03
CGA: 158    -0.669359020513E+03   -0.66479E-03    0.12861E-04  8424   0.341E-03 0.858E-04
CGA: 159    -0.669360908826E+03   -0.18883E-02    0.29620E-04  8424   0.171E-03 0.431E-03
CGA: 160    -0.669361581069E+03   -0.67224E-03    0.99205E-05  8424   0.238E-03 0.116E-03
CGA: 161    -0.669362129375E+03   -0.54831E-03    0.29032E-04  8424   0.672E-03-0.547E-04
CGA: 162    -0.669364573261E+03   -0.24439E-02    0.23783E-04  8424   0.124E-02 0.429E-03
CGA: 163    -0.669365069608E+03   -0.49635E-03   -0.33728E-03  8424   0.158E-02-0.105E-02
CGA: 164    -0.669365368284E+03   -0.29868E-03   -0.23735E-03  8424   0.264E-03-0.230E-03
CGA: 165    -0.669366127112E+03   -0.75883E-03    0.14148E-04  8424   0.256E-03 0.107E-03
CGA: 166    -0.669367400989E+03   -0.12739E-02    0.21278E-04  8424   0.211E-03 0.258E-03
CGA: 167    -0.669367999854E+03   -0.59886E-03    0.16661E-04  8424   0.534E-03-0.279E-04
CGA: 168    -0.669370101484E+03   -0.21016E-02    0.20033E-04  8424   0.744E-03 0.430E-03
CGA: 169    -0.669370395034E+03   -0.29355E-03   -0.21788E-03  8424   0.131E-02-0.698E-03
CGA: 170    -0.669370830834E+03   -0.43580E-03   -0.28581E-03  8424   0.976E-03-0.847E-03
CGA: 171    -0.669371107171E+03   -0.27634E-03   -0.19023E-03  8424   0.545E-03-0.448E-03
CGA: 172    -0.669372015226E+03   -0.90806E-03    0.18091E-04  8424   0.224E-03 0.203E-03
CGA: 173    -0.669372882577E+03   -0.86735E-03    0.21297E-04  8424   0.597E-03-0.390E-05
CGA: 174    -0.669375720743E+03   -0.28382E-02    0.20521E-04  8424   0.151E-02 0.460E-03
CGA: 175    -0.669376083951E+03   -0.36321E-03   -0.26897E-03  8424   0.392E-03-0.473E-03
CGA: 176    -0.669376736107E+03   -0.65216E-03    0.21572E-04  8424   0.196E-03 0.956E-04
CGA: 177    -0.669377601692E+03   -0.86559E-03    0.11691E-04  8424   0.191E-03 0.144E-03
CGA: 178    -0.669378007510E+03   -0.40582E-03    0.18613E-04  8424   0.359E-03-0.139E-04
CGA: 179    -0.669379446056E+03   -0.14385E-02    0.12568E-04  8424   0.407E-03 0.298E-03
CGA: 180    -0.669380005582E+03   -0.55953E-03    0.86069E-04  8424   0.741E-03-0.310E-03
CGA: 181    -0.669380238285E+03   -0.23270E-03   -0.19112E-03  8424   0.537E-03-0.379E-03
CGA: 182    -0.669380801013E+03   -0.56273E-03    0.21727E-03  8424   0.141E-02-0.615E-03
CGA: 183    -0.669381015757E+03   -0.21474E-03   -0.20259E-03  8424   0.148E-03-0.543E-04
CGA: 184    -0.669381532845E+03   -0.51709E-03    0.59581E-05  8424   0.153E-03 0.990E-04
CGA: 185    -0.669381994411E+03   -0.46157E-03    0.81033E-05  8424   0.221E-03 0.429E-04
CGA: 186    -0.669383137523E+03   -0.11431E-02    0.10445E-04  8424   0.175E-03 0.262E-03
CGA: 187    -0.669383542900E+03   -0.40538E-03    0.13313E-04  8424   0.203E-03 0.276E-04
CGA: 188    -0.669384519774E+03   -0.97687E-03    0.83878E-05  8424   0.194E-03 0.222E-03
CGA: 189    -0.669385011986E+03   -0.49221E-03    0.13093E-04  8424   0.181E-03 0.233E-04
CGA: 190    -0.669385854706E+03   -0.84272E-03    0.72098E-05  8424   0.183E-03 0.192E-03
CGA: 191    -0.669386274718E+03   -0.42001E-03    0.14213E-04  8424   0.143E-03 0.461E-04
CGA: 192    -0.669387053720E+03   -0.77900E-03    0.60440E-05  8424   0.156E-03 0.173E-03
CGA: 193    -0.669387505242E+03   -0.45152E-03    0.87913E-05  8424   0.119E-03 0.692E-04
CGA: 194    -0.669388256247E+03   -0.75100E-03    0.57562E-05  8424   0.139E-03 0.166E-03
CGA: 195    -0.669388681703E+03   -0.42546E-03    0.73264E-05  8424   0.109E-03 0.789E-04
CGA: 196    -0.669389110941E+03   -0.42924E-03    0.41374E-05  8424   0.101E-03 0.931E-04
CGA: 197    -0.669389527906E+03   -0.41696E-03    0.36212E-05  8424   0.986E-04 0.962E-04
CGA: 198    -0.669389952605E+03   -0.42470E-03    0.33756E-05  8424   0.978E-04 0.967E-04
CGA: 199    -0.669390366885E+03   -0.41428E-03    0.34135E-05  8424   0.973E-04 0.965E-04
CGA: 200    -0.669390789842E+03   -0.42296E-03    0.32962E-05  8424   0.971E-04 0.960E-04
   1 F= -.66939079E+03 E0= -.66939079E+03  d E =-.669391E+03  mag=     2.0000
       N       E                     dE             d eps       ncg     rms          ort
SDA:   1    -0.669396992232E+03   -0.66253E-02    0.00000E+00  8424   0.167E-01 0.000E+00
CGA:   2    -0.669400675921E+03   -0.36837E-02   -0.35992E-02  8424   0.771E-02-0.627E-03
CGA:   3    -0.669402514409E+03   -0.18385E-02   -0.17298E-02  8424   0.317E-02-0.978E-03
CGA:   4    -0.669403210080E+03   -0.69567E-03   -0.56333E-03  8424   0.151E-02-0.982E-03
CGA:   5    -0.669402281577E+03    0.92850E-03   -0.80387E-03  8424   0.189E-01-0.396E-02
CGA:   6    -0.669404544962E+03   -0.22634E-02   -0.21961E-02  8424   0.203E-02-0.287E-03
CGA:   7    -0.669405257175E+03   -0.71221E-03   -0.75060E-03  8424   0.201E-02-0.116E-02
CGA:   8    -0.669405732694E+03   -0.47552E-03   -0.39553E-03  8424   0.660E-03-0.545E-03
CGA:   9    -0.669406237919E+03   -0.50523E-03    0.14412E-03  8424   0.516E-03-0.203E-03
CGA:  10    -0.669407055366E+03   -0.81745E-03    0.24995E-04  8424   0.220E-03 0.143E-03
CGA:  11    -0.669407766539E+03   -0.71117E-03    0.17160E-04  8424   0.210E-03 0.900E-04
CGA:  12    -0.669408799236E+03   -0.10327E-02    0.11858E-04  8424   0.186E-03 0.170E-03
CGA:  13    -0.669409194691E+03   -0.39545E-03    0.14431E-04  8424   0.104E-03 0.695E-04
CGA:  14    -0.669409746946E+03   -0.55226E-03    0.50283E-05  8424   0.115E-03 0.115E-03
CGA:  15    -0.669410128635E+03   -0.38169E-03    0.49104E-05  8424   0.902E-04 0.824E-04
CGA:  16    -0.669410470076E+03   -0.34144E-03    0.32817E-05  8424   0.922E-04 0.824E-04
CGA:  17    -0.669410855689E+03   -0.38561E-03    0.29786E-05  8424   0.104E-03 0.756E-04
CGA:  18    -0.669411156196E+03   -0.30051E-03    0.53520E-05  8424   0.147E-03 0.523E-04
CGA:  19    -0.669411585306E+03   -0.42911E-03    0.73709E-05  8424   0.297E-03-0.276E-04
CGA:  20    -0.669412666713E+03   -0.10814E-02    0.71524E-05  8424   0.410E-03 0.232E-03
CGA:  21    -0.669412766716E+03   -0.10000E-03   -0.81363E-04  8424   0.237E-03-0.136E-03
CGA:  22    -0.669413336625E+03   -0.56991E-03    0.58763E-05  8424   0.136E-03 0.141E-03
CGA:  23    -0.669413748255E+03   -0.41163E-03    0.62426E-05  8424   0.229E-03-0.338E-05
CGA:  24    -0.669414660098E+03   -0.91184E-03    0.70672E-05  8424   0.235E-03 0.219E-03
CGA:  25    -0.669414828912E+03   -0.16881E-03    0.44326E-03  8424   0.453E-03-0.155E-03
CGA:  26    -0.669415310502E+03   -0.48159E-03    0.12189E-03  8424   0.968E-03-0.492E-03
CGA:  27    -0.669415424916E+03   -0.11441E-03   -0.12780E-03  8424   0.843E-04 0.676E-04
CGA:  28    -0.669415749364E+03   -0.32445E-03    0.31164E-05  8424   0.117E-03 0.754E-04
CGA:  29    -0.669416124517E+03   -0.37515E-03    0.46201E-05  8424   0.155E-03 0.313E-04
CGA:  30    -0.669416866866E+03   -0.74235E-03    0.63710E-05  8424   0.129E-03 0.194E-03
CGA:  31    -0.669417111221E+03   -0.24436E-03    0.10491E-04  8424   0.166E-03 0.167E-04
CGA:  32    -0.669417841292E+03   -0.73007E-03    0.59221E-05  8424   0.155E-03 0.187E-03
CGA:  33    -0.669418230198E+03   -0.38891E-03    0.85006E-05  8424   0.192E-03-0.117E-04
CGA:  34    -0.669418932891E+03   -0.70269E-03    0.54918E-05  8424   0.201E-03 0.176E-03
CGA:  35    -0.669419134931E+03   -0.20204E-03    0.55769E-04  8424   0.235E-03-0.579E-04
CGA:  36    -0.669419795765E+03   -0.66083E-03    0.51540E-05  8424   0.259E-03 0.163E-03
CGA:  37    -0.669420222332E+03   -0.42657E-03    0.26370E-04  8424   0.278E-03-0.110E-03
CGA:  38    -0.669420858326E+03   -0.63599E-03    0.48890E-05  8424   0.294E-03 0.154E-03
CGA:  39    -0.669419043946E+03    0.18144E-02   -0.46478E-03  8424   0.166E-01-0.182E-02
CGA:  40    -0.669422505582E+03   -0.34616E-02   -0.30474E-02  8424   0.436E-03-0.214E-02
CGA:  41    -0.669421139077E+03    0.13665E-02   -0.54840E-03  8424   0.139E-01-0.179E-02
CGA:  42    -0.669424040533E+03   -0.29015E-02   -0.25713E-02  8424   0.340E-03-0.142E-02
CGA:  43    -0.669424371122E+03   -0.33059E-03    0.20583E-03  8424   0.346E-03-0.142E-03
CGA:  44    -0.669425138263E+03   -0.76714E-03    0.11564E-04  8424   0.213E-03 0.139E-03
CGA:  45    -0.669426047491E+03   -0.90923E-03    0.23047E-04  8424   0.322E-03 0.192E-04
CGA:  46    -0.669427713192E+03   -0.16657E-02    0.15355E-04  8424   0.424E-03 0.216E-03
CGA:  47    -0.669427855726E+03   -0.14253E-03   -0.26455E-03  8424   0.148E-02-0.585E-03
CGA:  48    -0.669428473895E+03   -0.61817E-03   -0.55240E-03  8424   0.152E-02-0.129E-02
CGA:  49    -0.669428767864E+03   -0.29397E-03   -0.28935E-03  8424   0.863E-04-0.182E-04
CGA:  50    -0.669429112422E+03   -0.34456E-03    0.44700E-05  8424   0.866E-04 0.683E-04
CGA:  51    -0.669429524456E+03   -0.41203E-03    0.37066E-05  8424   0.101E-03 0.534E-04
CGA:  52    -0.669429781036E+03   -0.25658E-03    0.99861E-05  8424   0.150E-03 0.264E-04
CGA:  53    -0.669430670978E+03   -0.88994E-03    0.81697E-05  8424   0.116E-03 0.180E-03
CGA:  54    -0.669431123598E+03   -0.45262E-03    0.63030E-05  8424   0.174E-03 0.615E-05
CGA:  55    -0.669431994290E+03   -0.87069E-03    0.79085E-05  8424   0.164E-03 0.176E-03
CGA:  56    -0.669432166047E+03   -0.17176E-03    0.12179E-03  8424   0.280E-03-0.654E-04
CGA:  57    -0.669433055807E+03   -0.88976E-03    0.63540E-05  8424   0.430E-03 0.146E-03
CGA:  58    -0.669433623037E+03   -0.56723E-03    0.14562E-03  8424   0.863E-03-0.451E-03
CGA:  59    -0.669433702605E+03   -0.79568E-04   -0.12238E-03  8424   0.832E-04 0.159E-03
CGA:  60    -0.669433956808E+03   -0.25420E-03    0.87024E-05  8424   0.191E-03 0.102E-04
CGA:  61    -0.669435046929E+03   -0.10901E-02    0.78710E-05  8424   0.389E-03 0.176E-03
CGA:  62    -0.669435571631E+03   -0.52470E-03    0.11122E-03  8424   0.596E-03-0.332E-03
CGA:  63    -0.669435651439E+03   -0.79807E-04   -0.97815E-04  8424   0.728E-04 0.771E-04
CGA:  64    -0.669435957478E+03   -0.30604E-03    0.41463E-05  8424   0.109E-03 0.528E-04
CGA:  65    -0.669436348262E+03   -0.39078E-03    0.58061E-05  8424   0.126E-03 0.194E-04
CGA:  66    -0.669436998764E+03   -0.65050E-03    0.60866E-05  8424   0.116E-03 0.141E-03
CGA:  67    -0.669437227724E+03   -0.22896E-03    0.14459E-04  8424   0.119E-03 0.172E-04
CGA:  68    -0.669437860781E+03   -0.63306E-03    0.52700E-05  8424   0.116E-03 0.128E-03
CGA:  69    -0.669438217567E+03   -0.35679E-03    0.74970E-05  8424   0.976E-04 0.265E-04
CGA:  70    -0.669438753352E+03   -0.53578E-03    0.48212E-05  8424   0.103E-03 0.114E-03
CGA:  71    -0.669439033325E+03   -0.27997E-03    0.79437E-05  8424   0.784E-04 0.415E-04
CGA:  72    -0.669439554798E+03   -0.52147E-03    0.41113E-05  8424   0.916E-04 0.107E-03
CGA:  73    -0.669439864695E+03   -0.30990E-03    0.52089E-05  8424   0.705E-04 0.498E-04
CGA:  74    -0.669440149774E+03   -0.28508E-03    0.32036E-05  8424   0.651E-04 0.598E-04
CGA:  75    -0.669440448426E+03   -0.29865E-03    0.25397E-05  8424   0.638E-04 0.620E-04
CGA:  76    -0.669440731834E+03   -0.28341E-03    0.25861E-05  8424   0.634E-04 0.624E-04
CGA:  77    -0.669441030640E+03   -0.29881E-03    0.23919E-05  8424   0.633E-04 0.622E-04
CGA:  78    -0.669441308350E+03   -0.27771E-03    0.26061E-05  8424   0.636E-04 0.617E-04
CGA:  79    -0.669441613905E+03   -0.30556E-03    0.23482E-05  8424   0.649E-04 0.606E-04
CGA:  80    -0.669441874107E+03   -0.26020E-03    0.29833E-05  8424   0.690E-04 0.578E-04
CGA:  81    -0.669442203686E+03   -0.32958E-03    0.25605E-05  8424   0.813E-04 0.502E-04
CGA:  82    -0.669442409389E+03   -0.20570E-03    0.68779E-05  8424   0.119E-03 0.282E-04
CGA:  83    -0.669443138731E+03   -0.72934E-03    0.63038E-05  8424   0.818E-04 0.155E-03
CGA:  84    -0.669443490803E+03   -0.35207E-03    0.34403E-05  8424   0.120E-03 0.254E-04
CGA:  85    -0.669444174198E+03   -0.68340E-03    0.65146E-05  8424   0.853E-04 0.152E-03
CGA:  86    -0.669444365660E+03   -0.19146E-03    0.86007E-05  8424   0.128E-03 0.178E-04
CGA:  87    -0.669445080332E+03   -0.71467E-03    0.60164E-05  8424   0.998E-04 0.151E-03
CGA:  88    -0.669445442991E+03   -0.36266E-03    0.51889E-05  8424   0.160E-03-0.533E-05
CGA:  89    -0.669446153395E+03   -0.71040E-03    0.57494E-05  8424   0.166E-03 0.145E-03
CGA:  90    -0.669446054950E+03    0.98445E-04   -0.15289E-03  8424   0.268E-02-0.469E-03
CGA:  91    -0.669446966316E+03   -0.91137E-03   -0.65629E-03  8424   0.106E-02-0.153E-02
CGA:  92    -0.669447041767E+03   -0.75451E-04   -0.13431E-03  8424   0.814E-04 0.213E-03
CGA:  93    -0.669447194574E+03   -0.15281E-03    0.19056E-04  8424   0.254E-03-0.432E-04
CGA:  94    -0.669447632919E+03   -0.43834E-03    0.40736E-04  8424   0.546E-03-0.255E-03
CGA:  95    -0.669447681097E+03   -0.48179E-04   -0.74596E-04  8424   0.607E-04 0.104E-03
CGA:  96    -0.669447886750E+03   -0.20565E-03    0.49311E-05  8424   0.145E-03 0.176E-04
CGA:  97    -0.669448795119E+03   -0.90837E-03    0.65013E-05  8424   0.240E-03 0.177E-03
CGA:  98    -0.669449211970E+03   -0.41685E-03    0.34921E-04  8424   0.459E-03-0.220E-03
CGA:  99    -0.669449258056E+03   -0.46086E-04   -0.65290E-04  8424   0.561E-04 0.815E-04
CGA: 100    -0.669449469133E+03   -0.21108E-03    0.35872E-05  8424   0.115E-03 0.302E-04
CGA: 101    -0.669449813579E+03   -0.34445E-03    0.68237E-05  8424   0.177E-03-0.338E-04
CGA: 102    -0.669450433335E+03   -0.61976E-03    0.39485E-05  8424   0.232E-03 0.121E-03
CGA: 103    -0.669450487153E+03   -0.53818E-04   -0.50507E-04  8424   0.846E-04-0.228E-04
CGA: 104    -0.669450820928E+03   -0.33378E-03    0.26814E-05  8424   0.675E-04 0.734E-04
CGA: 105    -0.669451102279E+03   -0.28135E-03    0.25144E-05  8424   0.763E-04 0.326E-04
CGA: 106    -0.669451590685E+03   -0.48841E-03    0.40369E-05  8424   0.659E-04 0.111E-03
CGA: 107    -0.669451775490E+03   -0.18481E-03    0.40525E-05  8424   0.706E-04 0.343E-04
CGA: 108    -0.669452058411E+03   -0.28292E-03    0.27536E-05  8424   0.797E-04 0.271E-04
CGA: 109    -0.669452539929E+03   -0.48152E-03    0.38886E-05  8424   0.707E-04 0.108E-03
CGA: 110    -0.669452712113E+03   -0.17218E-03    0.52812E-05  8424   0.765E-04 0.269E-04
CGA: 111    -0.669453190959E+03   -0.47885E-03    0.35534E-05  8424   0.706E-04 0.103E-03
CGA: 112    -0.669453461053E+03   -0.27009E-03    0.29147E-05  8424   0.700E-04 0.286E-04
CGA: 113    -0.669453897836E+03   -0.43678E-03    0.33914E-05  8424   0.690E-04 0.953E-04
CGA: 114    -0.669454083538E+03   -0.18570E-03    0.44954E-05  8424   0.622E-04 0.319E-04
CGA: 115    -0.669454506132E+03   -0.42259E-03    0.29688E-05  8424   0.663E-04 0.880E-04
CGA: 116    -0.669454750828E+03   -0.24470E-03    0.28629E-05  8424   0.555E-04 0.356E-04
CGA: 117    -0.669454945177E+03   -0.19435E-03    0.25614E-05  8424   0.520E-04 0.414E-04
CGA: 118    -0.669455184418E+03   -0.23924E-03    0.17172E-05  8424   0.513E-04 0.428E-04
CGA: 119    -0.669455375166E+03   -0.19075E-03    0.21917E-05  8424   0.518E-04 0.424E-04
CGA: 120    -0.669455617708E+03   -0.24254E-03    0.16755E-05  8424   0.533E-04 0.410E-04
CGA: 121    -0.669455798611E+03   -0.18090E-03    0.25578E-05  8424   0.561E-04 0.384E-04
CGA: 122    -0.669456050895E+03   -0.25228E-03    0.19088E-05  8424   0.609E-04 0.343E-04
CGA: 123    -0.669456214053E+03   -0.16316E-03    0.39900E-05  8424   0.687E-04 0.277E-04
CGA: 124    -0.669456672680E+03   -0.45863E-03    0.33150E-05  8424   0.598E-04 0.989E-04
CGA: 125    -0.669456931070E+03   -0.25839E-03    0.21334E-05  8424   0.678E-04 0.273E-04
CGA: 126    -0.669457375142E+03   -0.44407E-03    0.33508E-05  8424   0.587E-04 0.976E-04
CGA: 127    -0.669457532016E+03   -0.15687E-03    0.38634E-05  8424   0.667E-04 0.269E-04
CGA: 128    -0.669457982955E+03   -0.45094E-03    0.31871E-05  8424   0.576E-04 0.962E-04
CGA: 129    -0.669458235462E+03   -0.25251E-03    0.20163E-05  8424   0.652E-04 0.269E-04
CGA: 130    -0.669458668150E+03   -0.43269E-03    0.32260E-05  8424   0.564E-04 0.945E-04
CGA: 131    -0.669458822547E+03   -0.15440E-03    0.35820E-05  8424   0.633E-04 0.270E-04
CGA: 132    -0.669459260773E+03   -0.43823E-03    0.30374E-05  8424   0.551E-04 0.924E-04
CGA: 133    -0.669459504764E+03   -0.24399E-03    0.19034E-05  8424   0.607E-04 0.276E-04
CGA: 134    -0.669459647072E+03   -0.14231E-03    0.47845E-05  8424   0.701E-04 0.198E-04
CGA: 135    -0.669460083374E+03   -0.43630E-03    0.30027E-05  8424   0.621E-04 0.918E-04
CGA: 136    -0.669460336454E+03   -0.25308E-03    0.23747E-05  8424   0.713E-04 0.171E-04
CGA: 137    -0.669460756065E+03   -0.41961E-03    0.30033E-05  8424   0.647E-04 0.896E-04
CGA: 138    -0.669460890222E+03   -0.13416E-03    0.61254E-05  8424   0.723E-04 0.140E-04
CGA: 139    -0.669461307900E+03   -0.41768E-03    0.28008E-05  8424   0.677E-04 0.861E-04
CGA: 140    -0.669461558520E+03   -0.25062E-03    0.29092E-05  8424   0.715E-04 0.116E-04
CGA: 141    -0.669461947820E+03   -0.38930E-03    0.27328E-05  8424   0.690E-04 0.812E-04
CGA: 142    -0.669462084575E+03   -0.13675E-03    0.70140E-05  8424   0.663E-04 0.123E-04
CGA: 143    -0.669462462954E+03   -0.37838E-03    0.24323E-05  8424   0.661E-04 0.752E-04
CGA: 144    -0.669462694325E+03   -0.23137E-03    0.30519E-05  8424   0.569E-04 0.176E-04
CGA: 145    -0.669463035674E+03   -0.34135E-03    0.23006E-05  8424   0.599E-04 0.695E-04
CGA: 146    -0.669463195147E+03   -0.15947E-03    0.39599E-05  8424   0.483E-04 0.242E-04
CGA: 147    -0.669463530236E+03   -0.33509E-03    0.20635E-05  8424   0.545E-04 0.659E-04
CGA: 148    -0.669463734103E+03   -0.20387E-03    0.23173E-05  8424   0.435E-04 0.284E-04
CGA: 149    -0.669463901815E+03   -0.16771E-03    0.17791E-05  8424   0.400E-04 0.341E-04
CGA: 150    -0.669464097256E+03   -0.19544E-03    0.12350E-05  8424   0.390E-04 0.357E-04
CGA: 151    -0.669464265281E+03   -0.16802E-03    0.13968E-05  8424   0.388E-04 0.360E-04
CGA: 152    -0.669464460631E+03   -0.19535E-03    0.11522E-05  8424   0.389E-04 0.358E-04
CGA: 153    -0.669464624159E+03   -0.16353E-03    0.14361E-05  8424   0.396E-04 0.352E-04
CGA: 154    -0.669464824933E+03   -0.20077E-03    0.11668E-05  8424   0.410E-04 0.339E-04
CGA: 155    -0.669464976825E+03   -0.15189E-03    0.17651E-05  8424   0.440E-04 0.315E-04
CGA: 156    -0.669465190612E+03   -0.21379E-03    0.13644E-05  8424   0.501E-04 0.270E-04
CGA: 157    -0.669465319100E+03   -0.12849E-03    0.34796E-05  8424   0.627E-04 0.179E-04
CGA: 158    -0.669465727363E+03   -0.40826E-03    0.26796E-05  8424   0.508E-04 0.835E-04
CGA: 159    -0.669465955607E+03   -0.22824E-03    0.17305E-05  8424   0.641E-04 0.156E-04
CGA: 160    -0.669466349042E+03   -0.39344E-03    0.27066E-05  8424   0.531E-04 0.826E-04
CGA: 161    -0.669466460699E+03   -0.11166E-03    0.49271E-05  8424   0.684E-04 0.113E-04
CGA: 162    -0.669466865227E+03   -0.40453E-03    0.25608E-05  8424   0.593E-04 0.820E-04
CGA: 163    -0.669467103231E+03   -0.23800E-03    0.23069E-05  8424   0.791E-04 0.204E-05
CGA: 164    -0.669467502734E+03   -0.39950E-03    0.25200E-05  8424   0.764E-04 0.809E-04
CGA: 165    -0.669467577361E+03   -0.74627E-04    0.37669E-04  8424   0.108E-03-0.213E-04
CGA: 166    -0.669467974580E+03   -0.39722E-03    0.22753E-05  8424   0.132E-03 0.756E-04
CGA: 167    -0.669468266287E+03   -0.29171E-03    0.11267E-04  8424   0.197E-03-0.924E-04
CGA: 168    -0.669468288037E+03   -0.21750E-04   -0.29795E-04  8424   0.339E-04 0.387E-04
CGA: 169    -0.669468438690E+03   -0.15065E-03    0.16246E-05  8424   0.634E-04 0.251E-04
CGA: 170    -0.669468670152E+03   -0.23146E-03    0.25977E-05  8424   0.832E-04-0.549E-05
CGA: 171    -0.669469041857E+03   -0.37170E-03    0.21929E-05  8424   0.872E-04 0.751E-04
CGA: 172    -0.669467890609E+03    0.11512E-02   -0.62430E-03  8424   0.101E-01-0.709E-03
CGA: 173    -0.669470170101E+03   -0.22795E-02   -0.17549E-02  8424   0.192E-03-0.118E-02
CGA: 174    -0.669470203073E+03   -0.32972E-04   -0.36214E-04  8424   0.370E-04 0.794E-05
CGA: 175    -0.669470522135E+03   -0.31906E-03    0.18966E-05  8424   0.347E-04 0.377E-04
CGA: 176    -0.669470812323E+03   -0.29019E-03    0.16892E-05  8424   0.569E-04 0.221E-04
CGA: 177    -0.669470948245E+03   -0.13592E-03    0.16536E-04  8424   0.233E-03-0.415E-04
CGA: 178    -0.669471248419E+03   -0.30017E-03    0.78507E-03  8424   0.158E-02-0.531E-03
CGA: 179    -0.669471388994E+03   -0.14057E-03   -0.22397E-03  8424   0.480E-04 0.188E-03
CGA: 180    -0.669471500784E+03   -0.11179E-03    0.18484E-04  8424   0.246E-03-0.470E-04
CGA: 181    -0.669471848954E+03   -0.34817E-03    0.28695E-03  8424   0.140E-02-0.514E-03
CGA: 182    -0.669471947154E+03   -0.98200E-04   -0.19451E-03  8424   0.587E-04 0.226E-03
CGA: 183    -0.669471609428E+03    0.33773E-03   -0.11254E-03  8424   0.411E-02-0.410E-03
CGA: 184    -0.669472779303E+03   -0.11699E-02   -0.82545E-03  8424   0.232E-03-0.869E-03
CGA: 185    -0.669472835784E+03   -0.56482E-04   -0.52092E-04  8424   0.483E-04-0.149E-04
CGA: 186    -0.669473150123E+03   -0.31434E-03    0.25078E-05  8424   0.420E-04 0.276E-04
CGA: 187    -0.669473350592E+03   -0.20047E-03    0.37321E-05  8424   0.110E-03-0.379E-05
CGA: 188    -0.669474178193E+03   -0.82760E-03    0.45007E-05  8424   0.143E-03 0.949E-04
CGA: 189    -0.669474388613E+03   -0.21042E-03    0.13559E-03  8424   0.655E-03-0.240E-03
CGA: 190    -0.669474517279E+03   -0.12867E-03   -0.11955E-03  8424   0.360E-04-0.230E-04
CGA: 191    -0.669474733359E+03   -0.21608E-03    0.20481E-05  8424   0.442E-04 0.205E-04
CGA: 192    -0.669474970175E+03   -0.23682E-03    0.31299E-05  8424   0.103E-03-0.727E-05
CGA: 193    -0.669475680068E+03   -0.70989E-03    0.36455E-05  8424   0.152E-03 0.732E-04
CGA: 194    -0.669475763346E+03   -0.83279E-04   -0.72062E-04  8424   0.287E-03-0.151E-03
CGA: 195    -0.669475503870E+03    0.25948E-03   -0.29539E-03  8424   0.551E-02-0.115E-02
CGA: 196    -0.669476293062E+03   -0.78919E-03   -0.92044E-03  8424   0.129E-03 0.340E-03
CGA: 197    -0.669471232782E+03    0.50603E-02   -0.27748E-02  8424   0.281E-01-0.184E-02
CGA: 198    -0.669477791923E+03   -0.65591E-02   -0.63958E-02  8424   0.397E-03-0.730E-03
CGA: 199    -0.669477829285E+03   -0.37362E-04   -0.62117E-04  8424   0.373E-04 0.320E-04
CGA: 200    -0.669478112045E+03   -0.28276E-03    0.66335E-05  8424   0.197E-03-0.154E-04
   2 F= -.66947811E+03 E0= -.66947811E+03  d E =-.873222E-01  mag=     2.0000
       N       E                     dE             d eps       ncg     rms          ort
SDA:   1    -0.669022235691E+03    0.45559E+00    0.00000E+00  8424   0.164E+01 0.000E+00
CGA:   2    -0.669361275037E+03   -0.33904E+00   -0.33942E+00  8424   0.698E+00 0.938E-03
CGA:   3    -0.669509502161E+03   -0.14823E+00   -0.14820E+00  8424   0.219E+00 0.125E-03
CGA:   4    -0.669544695446E+03   -0.35193E-01   -0.35079E-01  8424   0.531E-01-0.105E-03
CGA:   5    -0.669554098285E+03   -0.94028E-02   -0.93618E-02  8424   0.110E-01-0.672E-04
CGA:   6    -0.669556262313E+03   -0.21640E-02   -0.21490E-02  8424   0.267E-02-0.277E-04
CGA:   7    -0.669556910640E+03   -0.64833E-03   -0.60358E-03  8424   0.828E-03-0.849E-04
CGA:   8    -0.669557206246E+03   -0.29561E-03   -0.23564E-03  8424   0.372E-03-0.138E-03
CGA:   9    -0.669557396673E+03   -0.19043E-03   -0.13319E-03  8424   0.421E-03-0.207E-03
CGA:  10    -0.669557523368E+03   -0.12670E-03   -0.91702E-04  8424   0.141E-03-0.737E-04
CGA:  11    -0.669557706250E+03   -0.18288E-03    0.23305E-03  8424   0.342E-03-0.112E-03
CGA:  12    -0.669557834123E+03   -0.12787E-03   -0.85825E-04  8424   0.139E-03-0.100E-03
CGA:  13    -0.669558039513E+03   -0.20539E-03    0.52799E-04  8424   0.287E-03-0.873E-04
CGA:  14    -0.669558144595E+03   -0.10508E-03   -0.70699E-04  8424   0.158E-03-0.855E-04
CGA:  15    -0.669558321977E+03   -0.17738E-03    0.13033E-03  8424   0.522E-03-0.160E-03
CGA:  16    -0.669558436844E+03   -0.11487E-03   -0.91757E-04  8424   0.138E-03-0.510E-04
CGA:  17    -0.669558611472E+03   -0.17463E-03    0.23650E-03  8424   0.453E-03-0.159E-03
CGA:  18    -0.669558689826E+03   -0.78354E-04   -0.71774E-04  8424   0.104E-03-0.145E-04
CGA:  19    -0.669558853257E+03   -0.16343E-03    0.75974E-04  8424   0.295E-03-0.109E-03
CGA:  20    -0.669558923595E+03   -0.70338E-04   -0.56639E-04  8424   0.112E-03-0.349E-04
CGA:  21    -0.669559107611E+03   -0.18402E-03    0.43374E-04  8424   0.425E-03-0.139E-03
CGA:  22    -0.669559172356E+03   -0.64745E-04   -0.64167E-04  8424   0.932E-04-0.107E-05
CGA:  23    -0.669559329807E+03   -0.15745E-03    0.45388E-04  8424   0.244E-03-0.960E-04
CGA:  24    -0.669559394308E+03   -0.64501E-04   -0.51804E-04  8424   0.111E-03-0.384E-04
CGA:  25    -0.669559577878E+03   -0.18357E-03    0.28393E-04  8424   0.443E-03-0.140E-03
CGA:  26    -0.669559636140E+03   -0.58262E-04   -0.62353E-04  8424   0.820E-04 0.110E-04
CGA:  27    -0.669559784457E+03   -0.14832E-03    0.28960E-04  8424   0.170E-03-0.718E-04
CGA:  28    -0.669559853487E+03   -0.69031E-04   -0.53580E-04  8424   0.173E-03-0.806E-04
CGA:  29    -0.669560071060E+03   -0.21757E-03    0.16263E-04  8424   0.596E-03-0.187E-03
CGA:  30    -0.669560160773E+03   -0.89713E-04   -0.96054E-04  8424   0.125E-03 0.191E-04
CGA:  31    -0.669560292500E+03   -0.13173E-03    0.53138E-03  8424   0.384E-03-0.174E-03
CGA:  32    -0.669560354493E+03   -0.61993E-04   -0.60872E-04  8424   0.878E-04-0.330E-05
CGA:  33    -0.669560508768E+03   -0.15428E-03    0.22452E-04  8424   0.199E-03-0.823E-04
CGA:  34    -0.669560553003E+03   -0.44234E-04   -0.38453E-04  8424   0.775E-04-0.213E-04
CGA:  35    -0.669560713845E+03   -0.16084E-03    0.99609E-05  8424   0.180E-03-0.566E-04
CGA:  36    -0.669560758417E+03   -0.44572E-04   -0.35921E-04  8424   0.850E-04-0.344E-04
CGA:  37    -0.669560932926E+03   -0.17451E-03    0.79959E-05  8424   0.157E-03-0.473E-04
CGA:  38    -0.669560976565E+03   -0.43638E-04   -0.35551E-04  8424   0.936E-04-0.382E-04
CGA:  39    -0.669561149529E+03   -0.17296E-03    0.82089E-05  8424   0.187E-03-0.569E-04
CGA:  40    -0.669561200294E+03   -0.50765E-04   -0.41252E-04  8424   0.101E-03-0.458E-04
CGA:  41    -0.669561371622E+03   -0.17133E-03    0.95230E-05  8424   0.205E-03-0.690E-04
CGA:  42    -0.669561413344E+03   -0.41722E-04   -0.37349E-04  8424   0.704E-04-0.186E-04
CGA:  43    -0.669561555618E+03   -0.14227E-03    0.75159E-05  8424   0.129E-03-0.400E-04
CGA:  44    -0.669561599193E+03   -0.43575E-04   -0.34394E-04  8424   0.142E-03-0.659E-04
CGA:  45    -0.669561479200E+03    0.11999E-03   -0.10263E-03  8424   0.425E-02-0.690E-03
CGA:  46    -0.669561836766E+03   -0.35757E-03   -0.42003E-03  8424   0.319E-04 0.213E-03
CGA:  47    -0.669561903629E+03   -0.66863E-04    0.44831E-05  8424   0.127E-03-0.167E-04
CGA:  48    -0.669561317437E+03    0.58619E-03   -0.14205E-03  8424   0.103E-01-0.102E-02
CGA:  49    -0.669562230065E+03   -0.91263E-03   -0.10147E-02  8424   0.456E-04 0.361E-03
CGA:  50    -0.669562295905E+03   -0.65840E-04    0.14830E-04  8424   0.165E-03-0.369E-04
CGA:  51    -0.669562367931E+03   -0.72026E-04   -0.66740E-04  8424   0.110E-02-0.363E-03
CGA:  52    -0.669562453182E+03   -0.85251E-04   -0.10850E-03  8424   0.276E-04 0.747E-04
CGA:  53    -0.669562534237E+03   -0.81055E-04    0.24538E-05  8424   0.775E-04-0.196E-05
CGA:  54    -0.669562898342E+03   -0.36410E-03    0.27412E-05  8424   0.160E-03 0.347E-04
CGA:  55    -0.669563803051E+03   -0.90471E-03    0.12069E-04  8424   0.364E-03 0.831E-04
CGA:  56    -0.669563841652E+03   -0.38602E-04   -0.42562E-04  8424   0.326E-04 0.141E-04
CGA:  57    -0.669563942729E+03   -0.10108E-03    0.23058E-05  8424   0.338E-04 0.772E-05
CGA:  58    -0.669564139467E+03   -0.19674E-03    0.15959E-05  8424   0.553E-04 0.302E-04
CGA:  59    -0.669564201961E+03   -0.62495E-04    0.23535E-04  8424   0.148E-03-0.366E-04
CGA:  60    -0.669564262991E+03   -0.61030E-04   -0.54215E-04  8424   0.865E-03-0.305E-03
CGA:  61    -0.669564339519E+03   -0.76528E-04   -0.85197E-04  8424   0.289E-04 0.303E-04
CGA:  62    -0.669564409176E+03   -0.69657E-04    0.26248E-05  8424   0.847E-04-0.709E-05
CGA:  63    -0.669564736561E+03   -0.32739E-03    0.20262E-05  8424   0.210E-03 0.395E-04
CGA:  64    -0.669565717611E+03   -0.98105E-03    0.17473E-04  8424   0.404E-03 0.518E-04
CGA:  65    -0.669567706851E+03   -0.19892E-02    0.21771E-04  8424   0.390E-03 0.281E-03
CGA:  66    -0.669567787111E+03   -0.80260E-04   -0.66728E-04  8424   0.499E-04-0.675E-04
CGA:  67    -0.669567883395E+03   -0.96284E-04    0.33650E-05  8424   0.824E-04-0.110E-04
CGA:  68    -0.669568102755E+03   -0.21936E-03    0.31327E-05  8424   0.624E-04 0.328E-04
CGA:  69    -0.669568347783E+03   -0.24503E-03    0.54983E-05  8424   0.883E-04 0.170E-04
CGA:  70    -0.669568771376E+03   -0.42359E-03    0.48434E-05  8424   0.134E-03 0.457E-04
CGA:  71    -0.669568813198E+03   -0.41822E-04   -0.35046E-04  8424   0.106E-03-0.669E-04
CGA:  72    -0.669568948520E+03   -0.13532E-03    0.36931E-05  8424   0.137E-03-0.246E-04
CGA:  73    -0.669569199762E+03   -0.25124E-03    0.79727E-05  8424   0.100E-03 0.289E-04
CGA:  74    -0.669569429309E+03   -0.22955E-03    0.13142E-04  8424   0.190E-03-0.336E-04
CGA:  75    -0.669569974580E+03   -0.54527E-03    0.44905E-05  8424   0.356E-03-0.726E-06
CGA:  76    -0.669571138030E+03   -0.11634E-02    0.17585E-04  8424   0.702E-03 0.136E-04
CGA:  77    -0.669573504110E+03   -0.23661E-02    0.36711E-04  8424   0.109E-02-0.490E-04
CGA:  78    -0.669577672401E+03   -0.41683E-02    0.38347E-04  8424   0.142E-02 0.127E-03
CGA:  79    -0.669583509738E+03   -0.58373E-02    0.67764E-04  8424   0.307E-02-0.121E-02
CGA:  80    -0.669583840195E+03   -0.33046E-03   -0.37967E-03  8424   0.283E-03 0.214E-03
CGA:  81    -0.669583903634E+03   -0.63439E-04   -0.60929E-04  8424   0.459E-04-0.176E-04
CGA:  82    -0.669583912333E+03   -0.86991E-05   -0.97805E-05  8424   0.146E-04 0.965E-05
   3 F= -.66958391E+03 E0= -.66958391E+03  d E =-.105800E+00  mag=     2.0000
       N       E                     dE             d eps       ncg     rms          ort
SDA:   1    -0.650375673601E+03    0.19208E+02    0.00000E+00  8424   0.569E+02 0.000E+00
CGA:   2    -0.662467641876E+03   -0.12092E+02   -0.12123E+02  8424   0.251E+02 0.382E-01
CGA:   3    -0.667743074387E+03   -0.52754E+01   -0.52684E+01  8424   0.761E+01 0.171E-02
CGA:   4    -0.668964953217E+03   -0.12219E+01   -0.12230E+01  8424   0.176E+01 0.197E-02
CGA:   5    -0.669269479730E+03   -0.30453E+00   -0.30507E+00  8424   0.376E+00 0.271E-02
CGA:   6    -0.669343938695E+03   -0.74459E-01   -0.74440E-01  8424   0.889E-01-0.171E-03
CGA:   7    -0.669363443159E+03   -0.19504E-01   -0.19591E-01  8424   0.259E-01 0.118E-02
CGA:   8    -0.669369829380E+03   -0.63862E-02   -0.64004E-02  8424   0.802E-02 0.309E-03
CGA:   9    -0.669372057074E+03   -0.22277E-02   -0.22282E-02  8424   0.282E-02 0.351E-04
CGA:  10    -0.669372835201E+03   -0.77813E-03   -0.78188E-03  8424   0.108E-02 0.345E-03
CGA:  11    -0.669373183955E+03   -0.34875E-03   -0.34842E-03  8424   0.412E-03 0.170E-03
CGA:  12    -0.669373288721E+03   -0.10477E-03   -0.11366E-03  8424   0.188E-03 0.185E-03
CGA:  13    -0.669373343085E+03   -0.54364E-04   -0.62621E-04  8424   0.137E-03 0.150E-03
CGA:  14    -0.669373391685E+03   -0.48600E-04   -0.44895E-04  8424   0.106E-03 0.782E-04
CGA:  15    -0.669373407700E+03   -0.16015E-04   -0.22196E-04  8424   0.892E-04 0.832E-04
CGA:  16    -0.669373447200E+03   -0.39500E-04   -0.32591E-04  8424   0.907E-04 0.798E-04
CGA:  17    -0.669373458292E+03   -0.11091E-04   -0.17843E-04  8424   0.834E-04 0.769E-04
CGA:  18    -0.669373505691E+03   -0.47399E-04   -0.36137E-04  8424   0.947E-04 0.722E-04
CGA:  19    -0.669373513101E+03   -0.74101E-05   -0.15855E-04  8424   0.790E-04 0.700E-04
CGA:  20    -0.669373567780E+03   -0.54679E-04   -0.39801E-04  8424   0.103E-03 0.657E-04
CGA:  21    -0.669373574310E+03   -0.65298E-05   -0.15570E-04  8424   0.753E-04 0.637E-04
CGA:  22    -0.669373635607E+03   -0.61296E-04   -0.43595E-04  8424   0.119E-03 0.590E-04
CGA:  23    -0.669373643368E+03   -0.77615E-05   -0.16749E-04  8424   0.723E-04 0.561E-04
CGA:  24    -0.669373671926E+03   -0.28558E-04   -0.29715E-04  8424   0.130E-03 0.902E-04
CGA:  25    -0.669373713036E+03   -0.41110E-04   -0.44981E-04  8424   0.368E-03-0.715E-04
CGA:  26    -0.669373735911E+03   -0.22874E-04   -0.37902E-04  8424   0.657E-04 0.785E-04
CGA:  27    -0.669373744601E+03   -0.86902E-05   -0.14355E-04  8424   0.981E-04 0.537E-04
CGA:  28    -0.669373776013E+03   -0.31412E-04   -0.54835E-04  8424   0.709E-03-0.850E-04
CGA:  29    -0.669373824927E+03   -0.48915E-04   -0.69028E-04  8424   0.646E-04 0.103E-03
CGA:  30    -0.669373832641E+03   -0.77139E-05   -0.12896E-04  8424   0.865E-04 0.471E-04
CGA:  31    -0.669373815103E+03    0.17538E-04   -0.82010E-04  8424   0.179E-02-0.150E-03
CGA:  32    -0.669373953995E+03   -0.13889E-03   -0.17263E-03  8424   0.640E-04 0.158E-03
CGA:  33    -0.669373961053E+03   -0.70574E-05   -0.12329E-04  8424   0.758E-04 0.422E-04
CGA:  34    -0.669373681815E+03    0.27924E-03   -0.15291E-03  8424   0.591E-02-0.278E-03
CGA:  35    -0.669374187741E+03   -0.50593E-03   -0.59028E-03  8424   0.572E-04 0.208E-03
CGA:  36    -0.669374198455E+03   -0.10714E-04   -0.17744E-04  8424   0.904E-04 0.321E-04
CGA:  37    -0.669374211741E+03   -0.13286E-04   -0.71151E-04  8424   0.169E-02-0.206E-03
CGA:  38    -0.669374315624E+03   -0.10388E-03   -0.16771E-03  8424   0.566E-04 0.154E-03
CGA:  39    -0.669374321327E+03   -0.57031E-05   -0.13557E-04  8424   0.768E-04 0.279E-04
CGA:  40    -0.669374446363E+03   -0.12504E-03    0.21839E-03  8424   0.926E-04 0.108E-03
CGA:  41    -0.669374485045E+03   -0.38682E-04   -0.56313E-04  8424   0.782E-03-0.143E-03
CGA:  42    -0.669374539868E+03   -0.54823E-04   -0.89859E-04  8424   0.502E-04 0.936E-04
CGA:  43    -0.669374562396E+03   -0.22527E-04   -0.23131E-04  8424   0.132E-03 0.940E-05
CGA:  44    -0.669374748527E+03   -0.18613E-03    0.13925E-03  8424   0.210E-03 0.131E-03
CGA:  45    -0.669374804162E+03   -0.55635E-04   -0.47778E-04  8424   0.846E-04-0.329E-04
CGA:  46    -0.669374829241E+03   -0.25080E-04   -0.14527E-03  8424   0.123E-02-0.808E-04
CGA:  47    -0.669375119343E+03   -0.29010E-03   -0.25465E-03  8424   0.167E-03-0.108E-03
CGA:  48    -0.669375155568E+03   -0.36225E-04   -0.40228E-04  8424   0.477E-04 0.154E-04
CGA:  49    -0.669375229113E+03   -0.73544E-04    0.33368E-04  8424   0.482E-04 0.384E-04
CGA:  50    -0.669375279903E+03   -0.50790E-04    0.30236E-03  8424   0.715E-04 0.128E-04
CGA:  51    -0.669375410803E+03   -0.13090E-03    0.53709E-04  8424   0.597E-04 0.650E-04
CGA:  52    -0.669375454618E+03   -0.43815E-04   -0.48801E-04  8424   0.137E-03-0.168E-04
CGA:  53    -0.669375610456E+03   -0.15584E-03    0.49880E-04  8424   0.254E-03 0.105E-04
CGA:  54    -0.669375998883E+03   -0.38843E-03    0.19852E-03  8424   0.198E-03 0.163E-03
CGA:  55    -0.669376056426E+03   -0.57543E-04   -0.58646E-04  8424   0.710E-04 0.454E-05
CGA:  56    -0.669376137247E+03   -0.80821E-04    0.20759E-03  8424   0.133E-03-0.268E-04
CGA:  57    -0.669376231839E+03   -0.94591E-04    0.17585E-03  8424   0.207E-03-0.158E-04
CGA:  58    -0.669376502317E+03   -0.27048E-03    0.10364E-03  8424   0.412E-03 0.627E-04
CGA:  59    -0.669377248905E+03   -0.74659E-03    0.37726E-03  8424   0.362E-03 0.803E-04
CGA:  60    -0.669377708146E+03   -0.45924E-03    0.27363E-02  8424   0.667E-03-0.406E-04
CGA:  61    -0.669378959755E+03   -0.12516E-02    0.14114E-03  8424   0.408E-03 0.848E-04
CGA:  62    -0.669379906657E+03   -0.94690E-03    0.11530E-03  8424   0.851E-03-0.928E-04
CGA:  63    -0.669381216889E+03   -0.13102E-02    0.17626E-03  8424   0.127E-02-0.825E-03
CGA:  64    -0.669381538261E+03   -0.32137E-03   -0.34825E-03  8424   0.257E-03 0.113E-03
CGA:  65    -0.669381551145E+03   -0.12884E-04   -0.42556E-04  8424   0.486E-04 0.855E-04
CGA:  66    -0.669381544712E+03    0.64328E-05   -0.79502E-05  8424   0.286E-04 0.399E-04
   4 F= -.66938154E+03 E0= -.66938154E+03  d E =0.202368E+00  mag=     2.0000
       N       E                     dE             d eps       ncg     rms          ort
SDA:   1    -0.667691359830E+03    0.16902E+01    0.00000E+00  8424   0.543E+01 0.000E+00
CGA:   2    -0.668856817452E+03   -0.11655E+01   -0.11671E+01  8424   0.247E+01-0.125E-03
CGA:   3    -0.669366875962E+03   -0.51006E+00   -0.50932E+00  8424   0.756E+00 0.235E-03
CGA:   4    -0.669486898889E+03   -0.12002E+00   -0.12021E+00  8424   0.172E+00 0.466E-03
CGA:   5    -0.669517017110E+03   -0.30118E-01   -0.30236E-01  8424   0.364E-01 0.427E-03
CGA:   6    -0.669524277883E+03   -0.72608E-02   -0.72210E-02  8424   0.864E-02-0.199E-03
CGA:   7    -0.669526093821E+03   -0.18159E-02   -0.18556E-02  8424   0.244E-02 0.229E-03
CGA:   8    -0.669526660498E+03   -0.56668E-03   -0.58796E-03  8424   0.712E-03 0.147E-03
CGA:   9    -0.669526838630E+03   -0.17813E-03   -0.19000E-03  8424   0.241E-03 0.986E-04
CGA:  10    -0.669526874851E+03   -0.36222E-04   -0.55739E-04  8424   0.108E-03 0.120E-03
CGA:  11    -0.669526882000E+03   -0.71483E-05   -0.26117E-04  8424   0.635E-04 0.962E-04
   5 F= -.66952688E+03 E0= -.66952688E+03  d E =-.145337E+00  mag=     2.0000
       N       E                     dE             d eps       ncg     rms          ort
SDA:   1    -0.614601123414E+03    0.54926E+02    0.00000E+00  8424   0.175E+03 0.000E+00
CGA:   2    -0.647912402178E+03   -0.33311E+02   -0.33628E+02  8424   0.732E+02 0.143E+00
CGA:   3    -0.663671873495E+03   -0.15759E+02   -0.15725E+02  8424   0.217E+02 0.106E+00
CGA:   4    -0.667326648728E+03   -0.36548E+01   -0.36664E+01  8424   0.523E+01 0.209E-01
CGA:   5    -0.668209867315E+03   -0.88322E+00   -0.88680E+00  8424   0.117E+01 0.754E-02
CGA:   6    -0.668442840074E+03   -0.23297E+00   -0.23263E+00  8424   0.283E+00-0.177E-02
CGA:   7    -0.668505361360E+03   -0.62521E-01   -0.62782E-01  8424   0.860E-01 0.316E-02
CGA:   8    -0.668526516034E+03   -0.21155E-01   -0.21219E-01  8424   0.278E-01 0.114E-02
CGA:   9    -0.668534488968E+03   -0.79729E-02   -0.79627E-02  8424   0.104E-01-0.708E-03
CGA:  10    -0.668537558806E+03   -0.30698E-02   -0.30687E-02  8424   0.424E-02 0.206E-03
CGA:  11    -0.668539007136E+03   -0.14483E-02   -0.14636E-02  8424   0.175E-02-0.372E-03
CGA:  12    -0.668539460562E+03   -0.45343E-03   -0.45555E-03  8424   0.731E-03 0.147E-03
CGA:  13    -0.668539781476E+03   -0.32091E-03   -0.31802E-03  8424   0.675E-03 0.230E-04
CGA:  14    -0.668540033596E+03   -0.25212E-03   -0.24323E-03  8424   0.629E-03 0.184E-03
CGA:  15    -0.668540416572E+03   -0.38298E-03   -0.34246E-03  8424   0.593E-03 0.314E-03
CGA:  16    -0.668540799025E+03   -0.38245E-03   -0.34562E-03  8424   0.482E-03 0.454E-03
CGA:  17    -0.668540946487E+03   -0.14746E-03   -0.14825E-03  8424   0.310E-03 0.944E-04
CGA:  18    -0.668541024646E+03   -0.78159E-04   -0.90646E-04  8424   0.198E-03 0.174E-03
CGA:  19    -0.668541099569E+03   -0.74923E-04   -0.70654E-04  8424   0.186E-03 0.925E-04
CGA:  20    -0.668541240441E+03   -0.14087E-03   -0.11938E-03  8424   0.253E-03 0.168E-03
CGA:  21    -0.668541287090E+03   -0.46649E-04   -0.54651E-04  8424   0.175E-03 0.762E-04
CGA:  22    -0.668541416810E+03   -0.12972E-03   -0.11132E-03  8424   0.237E-03 0.101E-03
CGA:  23    -0.668541512824E+03   -0.96014E-04   -0.92318E-04  8424   0.144E-03 0.545E-04
CGA:  24    -0.668541853614E+03   -0.34079E-03   -0.82482E-05  8424   0.242E-02-0.326E-04
CGA:  25    -0.668542456212E+03   -0.60260E-03   -0.62880E-03  8424   0.515E-02-0.416E-03
CGA:  26    -0.668543507379E+03   -0.10512E-02   -0.87763E-03  8424   0.616E-02-0.175E-02
CGA:  27    -0.668545894970E+03   -0.23876E-02   -0.20208E-02  8424   0.155E-01-0.103E-01
CGA:  28    -0.668548405118E+03   -0.25101E-02   -0.24028E-02  8424   0.294E-02-0.322E-03
CGA:  29    -0.668549255368E+03   -0.85025E-03   -0.97120E-03  8424   0.126E-02 0.591E-03
CGA:  30    -0.668549670377E+03   -0.41501E-03   -0.51048E-03  8424   0.870E-03 0.492E-03
CGA:  31    -0.668550113530E+03   -0.44315E-03   -0.50499E-03  8424   0.837E-03 0.584E-03
CGA:  32    -0.668550244931E+03   -0.13140E-03   -0.19815E-03  8424   0.501E-03 0.238E-03
CGA:  33    -0.668550525055E+03   -0.28012E-03   -0.29427E-03  8424   0.493E-03 0.310E-03
CGA:  34    -0.668550648493E+03   -0.12344E-03   -0.15560E-03  8424   0.328E-03 0.173E-03
CGA:  35    -0.668550802846E+03   -0.15435E-03   -0.18191E-03  8424   0.358E-03 0.339E-03
CGA:  36    -0.668550891990E+03   -0.89144E-04   -0.11579E-03  8424   0.263E-03 0.162E-03
CGA:  37    -0.668551082703E+03   -0.19071E-03   -0.18742E-03  8424   0.349E-03 0.278E-03
CGA:  38    -0.668551160542E+03   -0.77839E-04   -0.10236E-03  8424   0.236E-03 0.131E-03
CGA:  39    -0.668551304994E+03   -0.14445E-03   -0.14758E-03  8424   0.324E-03 0.203E-03
CGA:  40    -0.668551377963E+03   -0.72969E-04   -0.94361E-04  8424   0.200E-03 0.119E-03
CGA:  41    -0.668551528477E+03   -0.15051E-03   -0.14141E-03  8424   0.338E-03 0.159E-03
CGA:  42    -0.668551599236E+03   -0.70759E-04   -0.90532E-04  8424   0.192E-03 0.101E-03
CGA:  43    -0.668551727956E+03   -0.12872E-03   -0.12342E-03  8424   0.328E-03 0.117E-03
CGA:  44    -0.668551795108E+03   -0.67151E-04   -0.85960E-04  8424   0.171E-03 0.966E-04
CGA:  45    -0.668551926117E+03   -0.13101E-03   -0.12149E-03  8424   0.357E-03 0.900E-04
CGA:  46    -0.668551995555E+03   -0.69438E-04   -0.87205E-04  8424   0.168E-03 0.854E-04
CGA:  47    -0.668552114181E+03   -0.11863E-03   -0.11223E-03  8424   0.357E-03 0.619E-04
CGA:  48    -0.668552606223E+03   -0.49204E-03   -0.36256E-03  8424   0.421E-03 0.409E-03
CGA:  49    -0.668552724953E+03   -0.11873E-03   -0.12724E-03  8424   0.160E-03 0.528E-04
CGA:  50    -0.668552835556E+03   -0.11060E-03   -0.13715E-03  8424   0.981E-03-0.897E-04
CGA:  51    -0.668552937874E+03   -0.10232E-03   -0.14128E-03  8424   0.172E-03 0.122E-03
CGA:  52    -0.668553018208E+03   -0.80334E-04   -0.81423E-04  8424   0.184E-03 0.349E-04
CGA:  53    -0.668553215094E+03   -0.19689E-03   -0.27240E-03  8424   0.254E-02-0.109E-03
CGA:  54    -0.668553514644E+03   -0.29955E-03   -0.35525E-03  8424   0.284E-03 0.166E-03
CGA:  55    -0.668553655053E+03   -0.14041E-03   -0.14009E-03  8424   0.199E-03-0.397E-04
CGA:  56    -0.668553360003E+03    0.29505E-03   -0.20759E-03  8424   0.108E-01-0.365E-03
CGA:  57    -0.668554620848E+03   -0.12608E-02   -0.13981E-02  8424   0.564E-03 0.313E-03
CGA:  58    -0.668554864111E+03   -0.24326E-03   -0.24235E-03  8424   0.161E-03-0.343E-05
CGA:  59    -0.668554974865E+03   -0.11075E-03   -0.17935E-03  8424   0.235E-02-0.219E-03
CGA:  60    -0.668555207444E+03   -0.23258E-03   -0.30440E-03  8424   0.180E-03 0.116E-03
CGA:  61    -0.668555329180E+03   -0.12174E-03   -0.12067E-03  8424   0.258E-03-0.898E-05
CGA:  62    -0.668555192787E+03    0.13639E-03   -0.41276E-03  8424   0.767E-02-0.622E-03
CGA:  63    -0.668556088992E+03   -0.89620E-03   -0.10697E-02  8424   0.818E-03 0.306E-03
CGA:  64    -0.668556426539E+03   -0.33755E-03   -0.33807E-03  8424   0.249E-03-0.728E-07
CGA:  65    -0.668556618336E+03   -0.19180E-03   -0.13447E-03  8424   0.888E-03-0.252E-03
CGA:  66    -0.668556672217E+03   -0.53881E-04   -0.13136E-03  8424   0.128E-03 0.128E-03
CGA:  67    -0.668556765094E+03   -0.92877E-04   -0.91961E-04  8424   0.336E-03-0.111E-04
CGA:  68    -0.668555354781E+03    0.14103E-02   -0.69236E-03  8424   0.117E-01-0.143E-02
CGA:  69    -0.668557835623E+03   -0.24808E-02   -0.27991E-02  8424   0.359E-02 0.589E-03
CGA:  70    -0.668559091337E+03   -0.12557E-02   -0.11169E-02  8424   0.243E-03-0.294E-03
CGA:  71    -0.668559155509E+03   -0.64173E-04   -0.68472E-04  8424   0.232E-03 0.626E-05
CGA:  72    -0.668559287916E+03   -0.13241E-03   -0.12120E-03  8424   0.444E-03 0.437E-04
CGA:  73    -0.668557421044E+03    0.18669E-02   -0.41269E-04  8424   0.602E-02 0.159E-03
CGA:  74    -0.668252922284E+03    0.30450E+00   -0.50826E-04  8424   0.116E+01 0.202E+00
CGA:  75    -0.668137757846E+03    0.11516E+00   -0.33969E+00  8424   0.150E+01 0.353E+00
CGA:  76    -0.667676100616E+03    0.46166E+00   -0.42401E+00  8424   0.183E+01 0.921E+00
CGA:  77    -0.667946479736E+03   -0.27038E+00   -0.56044E+00  8424   0.152E+01 0.760E+00
CGA:  78    -0.667872357726E+03    0.74122E-01   -0.51617E+00  8424   0.103E+01 0.972E+00
CGA:  79    -0.668197811742E+03   -0.32545E+00   -0.37461E+00  8424   0.607E+00 0.420E+00
CGA:  80    -0.668433048701E+03   -0.23524E+00   -0.28594E+00  8424   0.354E+00 0.135E+00
CGA:  81    -0.668481712473E+03   -0.48664E-01   -0.12763E+00  8424   0.165E+00 0.649E-01
CGA:  82    -0.668511229740E+03   -0.29517E-01   -0.53196E-01  8424   0.335E-01-0.410E-01
CGA:  83    -0.668522866471E+03   -0.11637E-01   -0.15670E-01  8424   0.256E-01-0.270E-01
CGA:  84    -0.668551166639E+03   -0.28300E-01   -0.27275E-01  8424   0.278E-01 0.213E-02
CGA:  85    -0.668557926881E+03   -0.67602E-02   -0.60622E-02  8424   0.515E-02-0.151E-02
CGA:  86    -0.668559888539E+03   -0.19617E-02   -0.20076E-02  8424   0.167E-02 0.405E-03
CGA:  87    -0.668560605421E+03   -0.71688E-03   -0.65384E-03  8424   0.167E-02-0.357E-03
CGA:  88    -0.668561010724E+03   -0.40530E-03   -0.39163E-03  8424   0.364E-03-0.470E-04
CGA:  89    -0.668561107287E+03   -0.96563E-04   -0.10646E-03  8424   0.352E-03 0.464E-04
CGA:  90    -0.668560849874E+03    0.25741E-03   -0.53892E-03  8424   0.398E-02-0.945E-03
CGA:  91    -0.668561466252E+03   -0.61638E-03   -0.71150E-03  8424   0.104E-02 0.260E-03
CGA:  92    -0.668561974185E+03   -0.50793E-03   -0.48903E-03  8424   0.336E-03-0.214E-03
CGA:  93    -0.668562129447E+03   -0.15526E-03   -0.16155E-03  8424   0.378E-03-0.794E-04
CGA:  94    -0.668560272529E+03    0.18569E-02   -0.67992E-03  8424   0.152E-01-0.140E-02
CGA:  95    -0.668562465646E+03   -0.21931E-02   -0.23003E-02  8424   0.183E-02 0.194E-03
CGA:  96    -0.668563050906E+03   -0.58526E-03   -0.60278E-03  8424   0.655E-03 0.633E-04
CGA:  97    -0.668563423793E+03   -0.37289E-03   -0.33387E-03  8424   0.139E-02-0.436E-03
CGA:  98    -0.668563504676E+03   -0.80883E-04   -0.18039E-03  8424   0.177E-03 0.223E-03
CGA:  99    -0.668563564596E+03   -0.59920E-04   -0.64349E-04  8424   0.148E-03 0.178E-04
CGA: 100    -0.668563769664E+03   -0.20507E-03    0.28029E-03  8424   0.470E-03-0.137E-03
CGA: 101    -0.668563795690E+03   -0.26027E-04   -0.70084E-04  8424   0.110E-03 0.112E-03
CGA: 102    -0.668563867234E+03   -0.71543E-04   -0.71871E-04  8424   0.165E-03-0.704E-04
CGA: 103    -0.667596132867E+03    0.96773E+00   -0.42140E-03  8424   0.302E+00-0.603E-01
CGA: 104    -0.668467460810E+03   -0.87133E+00    0.72155E-01  8424   0.582E+00-0.164E+00
CGA: 105    -0.668561593723E+03   -0.94133E-01   -0.92792E-01  8424   0.142E-01-0.114E-01
CGA: 106    -0.668564076154E+03   -0.24824E-02   -0.26408E-02  8424   0.102E-02 0.412E-03
CGA: 107    -0.668564306493E+03   -0.23034E-03   -0.26755E-03  8424   0.298E-03 0.114E-03
CGA: 108    -0.668564484607E+03   -0.17811E-03   -0.15909E-03  8424   0.452E-03-0.223E-03
CGA: 109    -0.668564516154E+03   -0.31547E-04   -0.64840E-04  8424   0.697E-04 0.800E-04
CGA: 110    -0.668564559431E+03   -0.43277E-04   -0.61006E-04  8424   0.314E-03-0.881E-04
CGA: 111    -0.668564716426E+03   -0.15699E-03   -0.11882E-03  8424   0.317E-03-0.222E-03
CGA: 112    -0.668564722171E+03   -0.57458E-05   -0.41815E-04  8424   0.415E-04 0.881E-04
CGA: 113    -0.668564729781E+03   -0.76095E-05   -0.11151E-04  8424   0.356E-04 0.112E-04
   6 F= -.66856473E+03 E0= -.66856473E+03  d E =0.962152E+00  mag=     2.0000
       N       E                     dE             d eps       ncg     rms          ort
SDA:   1    -0.648698529380E+03    0.19866E+02    0.00000E+00  8424   0.677E+02 0.000E+00
CGA:   2    -0.661867061552E+03   -0.13169E+02   -0.13314E+02  8424   0.267E+02-0.167E+00
CGA:   3    -0.667580835065E+03   -0.57138E+01   -0.56885E+01  8424   0.861E+01 0.135E+00
CGA:   4    -0.669004365282E+03   -0.14235E+01   -0.14273E+01  8424   0.209E+01 0.951E-02
CGA:   5    -0.669371995374E+03   -0.36763E+00   -0.36885E+00  8424   0.462E+00 0.922E-03
CGA:   6    -0.669462396466E+03   -0.90401E-01   -0.90125E-01  8424   0.107E+00-0.791E-03
CGA:   7    -0.669485716081E+03   -0.23320E-01   -0.23494E-01  8424   0.312E-01 0.812E-03
CGA:   8    -0.669493473083E+03   -0.77570E-02   -0.77780E-02  8424   0.953E-02 0.116E-03
CGA:   9    -0.669496139478E+03   -0.26664E-02   -0.26300E-02  8424   0.330E-02-0.263E-03
CGA:  10    -0.669497103062E+03   -0.96358E-03   -0.95973E-03  8424   0.139E-02-0.370E-04
CGA:  11    -0.669497659231E+03   -0.55617E-03   -0.55683E-03  8424   0.100E-02-0.454E-03
CGA:  12    -0.669497862119E+03   -0.20289E-03   -0.18986E-03  8424   0.480E-03-0.111E-03
CGA:  13    -0.669496958176E+03    0.90394E-03   -0.61355E-03  8424   0.830E-02-0.147E-02
CGA:  14    -0.669498471689E+03   -0.15135E-02   -0.15722E-02  8424   0.137E-02 0.230E-03
CGA:  15    -0.669498919182E+03   -0.44749E-03   -0.39107E-03  8424   0.696E-03-0.358E-03
CGA:  16    -0.669499061980E+03   -0.14280E-03   -0.13738E-03  8424   0.267E-03-0.346E-04
CGA:  17    -0.669499291673E+03   -0.22969E-03    0.67318E-03  8424   0.141E-03 0.172E-04
CGA:  18    -0.669499511673E+03   -0.22000E-03    0.42209E-04  8424   0.170E-03 0.174E-04
CGA:  19    -0.669499809628E+03   -0.29795E-03    0.46993E-04  8424   0.210E-03 0.390E-05
CGA:  20    -0.669500332321E+03   -0.52269E-03    0.23609E-04  8424   0.192E-03 0.955E-04
CGA:  21    -0.669500943661E+03   -0.61134E-03    0.36741E-04  8424   0.188E-03 0.130E-03
CGA:  22    -0.669501015362E+03   -0.71701E-04   -0.65092E-04  8424   0.295E-03-0.916E-04
CGA:  23    -0.669501209867E+03   -0.19450E-03    0.57333E-04  8424   0.307E-03-0.830E-04
CGA:  24    -0.669501461971E+03   -0.25210E-03    0.12269E-03  8424   0.814E-03-0.246E-03
CGA:  25    -0.669501585557E+03   -0.12359E-03   -0.12182E-03  8424   0.116E-03-0.625E-05
CGA:  26    -0.669501704441E+03   -0.11888E-03    0.83288E-04  8424   0.511E-04 0.264E-04
CGA:  27    -0.669501819551E+03   -0.11511E-03    0.98767E-05  8424   0.788E-04 0.474E-06
CGA:  28    -0.669502045158E+03   -0.22561E-03    0.63552E-05  8424   0.600E-04 0.286E-04
CGA:  29    -0.669502264590E+03   -0.21943E-03    0.70379E-05  8424   0.122E-03 0.225E-04
CGA:  30    -0.669502817516E+03   -0.55293E-03    0.10924E-04  8424   0.112E-03 0.942E-04
CGA:  31    -0.669502927937E+03   -0.11042E-03    0.99956E-04  8424   0.161E-03-0.609E-04
CGA:  32    -0.669502946508E+03   -0.18572E-04   -0.24599E-04  8424   0.225E-04 0.241E-04
CGA:  33    -0.669502997515E+03   -0.51006E-04    0.33102E-05  8424   0.320E-04 0.110E-04
CGA:  34    -0.669503150569E+03   -0.15305E-03    0.29751E-05  8424   0.245E-04 0.276E-04
CGA:  35    -0.669503205425E+03   -0.54856E-04    0.25684E-05  8424   0.234E-04 0.148E-05
CGA:  36    -0.669503297209E+03   -0.91784E-04    0.12977E-05  8424   0.227E-04 0.193E-04
CGA:  37    -0.669503350225E+03   -0.53016E-04    0.22270E-05  8424   0.170E-04 0.394E-05
CGA:  38    -0.669503427032E+03   -0.76807E-04    0.98676E-06  8424   0.175E-04 0.168E-04
CGA:  39    -0.669503478114E+03   -0.51081E-04    0.12449E-05  8424   0.136E-04 0.668E-05
CGA:  40    -0.669503553564E+03   -0.75450E-04    0.88056E-06  8424   0.146E-04 0.160E-04
CGA:  41    -0.669503600228E+03   -0.46665E-04    0.92270E-06  8424   0.115E-04 0.759E-05
CGA:  42    -0.669503638698E+03   -0.38470E-04    0.68710E-06  8424   0.121E-04 0.765E-05
CGA:  43    -0.669503688282E+03   -0.49584E-04    0.55622E-06  8424   0.161E-04 0.535E-05
CGA:  44    -0.669503783187E+03   -0.94905E-04    0.10693E-05  8424   0.108E-04 0.213E-04
CGA:  45    -0.669503819521E+03   -0.36334E-04    0.64071E-06  8424   0.114E-04 0.658E-05
CGA:  46    -0.669503865735E+03   -0.46213E-04    0.53479E-06  8424   0.157E-04 0.429E-05
CGA:  47    -0.669503955648E+03   -0.89914E-04    0.96760E-06  8424   0.110E-04 0.193E-04
CGA:  48    -0.669503990788E+03   -0.35139E-04    0.69773E-06  8424   0.109E-04 0.507E-05
CGA:  49    -0.669504067895E+03   -0.77107E-04    0.59531E-06  8424   0.109E-04 0.146E-04
CGA:  50    -0.669504101271E+03   -0.33376E-04    0.72224E-06  8424   0.932E-05 0.488E-05
CGA:  51    -0.669504168460E+03   -0.67189E-04    0.49035E-06  8424   0.101E-04 0.129E-04
CGA:  52    -0.669504203316E+03   -0.34857E-04    0.57103E-06  8424   0.816E-05 0.503E-05
CGA:  53    -0.669504265744E+03   -0.62428E-04    0.43082E-06  8424   0.915E-05 0.117E-04
CGA:  54    -0.669504297303E+03   -0.31559E-04    0.52243E-06  8424   0.728E-05 0.514E-05
CGA:  55    -0.669504331131E+03   -0.33828E-04    0.28621E-06  8424   0.664E-05 0.594E-05
CGA:  56    -0.669504361544E+03   -0.30413E-04    0.26632E-06  8424   0.644E-05 0.606E-05
CGA:  57    -0.669504395067E+03   -0.33523E-04    0.22138E-06  8424   0.646E-05 0.591E-05
CGA:  58    -0.669504422887E+03   -0.27820E-04    0.27884E-06  8424   0.689E-05 0.550E-05
CGA:  59    -0.669504458523E+03   -0.35635E-04    0.23896E-06  8424   0.859E-05 0.439E-05
CGA:  60    -0.669504478914E+03   -0.20391E-04    0.81939E-06  8424   0.147E-04 0.955E-06
CGA:  61    -0.669504561830E+03   -0.82916E-04    0.57925E-06  8424   0.113E-04 0.157E-04
CGA:  62    -0.669504601625E+03   -0.39795E-04    0.63117E-06  8424   0.273E-04-0.579E-05
CGA:  63    -0.669504605697E+03   -0.40720E-05   -0.42784E-05  8424   0.624E-05 0.869E-06
   7 F= -.66950461E+03 E0= -.66950461E+03  d E =-.939876E+00  mag=     2.0000
       N       E                     dE             d eps       ncg     rms          ort
SDA:   1    -0.668579611898E+03    0.92499E+00    0.00000E+00  8424   0.265E+01 0.000E+00
CGA:   2    -0.669167150889E+03   -0.58754E+00   -0.58776E+00  8424   0.122E+01 0.505E-03
CGA:   3    -0.669417805134E+03   -0.25065E+00   -0.25062E+00  8424   0.359E+00-0.362E-03
CGA:   4    -0.669474909008E+03   -0.57104E-01   -0.57080E-01  8424   0.825E-01-0.175E-03
CGA:   5    -0.669489410264E+03   -0.14501E-01   -0.14496E-01  8424   0.173E-01-0.434E-04
CGA:   6    -0.669492870000E+03   -0.34597E-02   -0.34489E-02  8424   0.413E-02-0.793E-04
CGA:   7    -0.669493828780E+03   -0.95878E-03   -0.94307E-03  8424   0.128E-02-0.148E-03
CGA:   8    -0.669494201992E+03   -0.37321E-03   -0.36326E-03  8424   0.582E-03-0.269E-03
CGA:   9    -0.669494362592E+03   -0.16060E-03   -0.19949E-03  8424   0.649E-03-0.373E-03
CGA:  10    -0.669494519113E+03   -0.15652E-03   -0.14065E-03  8424   0.191E-03-0.135E-03
CGA:  11    -0.669494624106E+03   -0.10499E-03    0.41563E-03  8424   0.604E-04-0.304E-04
CGA:  12    -0.669494733023E+03   -0.10892E-03    0.36710E-05  8424   0.278E-04 0.499E-05
CGA:  13    -0.669494834622E+03   -0.10160E-03    0.11964E-05  8424   0.214E-04 0.110E-04
CGA:  14    -0.669494986683E+03   -0.15206E-03    0.72743E-06  8424   0.182E-04 0.176E-04
CGA:  15    -0.669495044511E+03   -0.57828E-04    0.78263E-06  8424   0.146E-04 0.551E-05
CGA:  16    -0.669495158353E+03   -0.11384E-03    0.38516E-06  8424   0.155E-04 0.120E-04
CGA:  17    -0.669495212422E+03   -0.54069E-04    0.58776E-06  8424   0.168E-04 0.380E-05
CGA:  18    -0.669495341105E+03   -0.12868E-03    0.41122E-06  8424   0.164E-04 0.115E-04
CGA:  19    -0.669495393063E+03   -0.51958E-04    0.70536E-06  8424   0.139E-04 0.391E-05
CGA:  20    -0.669495502297E+03   -0.10923E-03    0.32387E-06  8424   0.174E-04 0.806E-05
CGA:  21    -0.669495549638E+03   -0.47341E-04    0.90625E-06  8424   0.234E-04-0.101E-05
CGA:  22    -0.669495682940E+03   -0.13330E-03    0.44264E-06  8424   0.221E-04 0.569E-05
CGA:  23    -0.669495861344E+03   -0.17840E-03    0.50815E-06  8424   0.228E-04 0.222E-04
CGA:  24    -0.669495895231E+03   -0.33886E-04    0.29601E-05  8424   0.520E-04-0.147E-04
CGA:  25    -0.669495958978E+03   -0.63747E-04    0.98454E-05  8424   0.221E-03-0.915E-04
CGA:  26    -0.669495975740E+03   -0.16762E-04   -0.21270E-04  8424   0.725E-05 0.196E-04
CGA:  27    -0.669496017146E+03   -0.41406E-04    0.17183E-06  8424   0.181E-04 0.181E-05
CGA:  28    -0.669496185118E+03   -0.16797E-03    0.33406E-06  8424   0.180E-04 0.217E-04
CGA:  29    -0.669496242153E+03   -0.57035E-04    0.71651E-06  8424   0.611E-04-0.198E-04
CGA:  30    -0.669496251302E+03   -0.91495E-05   -0.76232E-05  8424   0.918E-05-0.795E-05
   8 F= -.66949625E+03 E0= -.66949625E+03  d E =0.835439E-02  mag=     2.0000
       N       E                     dE             d eps       ncg     rms          ort
SDA:   1    -0.662717718215E+03    0.67785E+01    0.00000E+00  8424   0.177E+02 0.000E+00
CGA:   2    -0.667046330793E+03   -0.43286E+01   -0.43306E+01  8424   0.920E+01 0.975E-02
CGA:   3    -0.668865111753E+03   -0.18188E+01   -0.18182E+01  8424   0.236E+01-0.620E-03
CGA:   4    -0.669233066775E+03   -0.36796E+00   -0.36805E+00  8424   0.513E+00 0.139E-03
CGA:   5    -0.669322135241E+03   -0.89068E-01   -0.89158E-01  8424   0.108E+00 0.591E-03
CGA:   6    -0.669344214332E+03   -0.22079E-01   -0.22082E-01  8424   0.264E-01 0.178E-04
CGA:   7    -0.669350039145E+03   -0.58248E-02   -0.58254E-02  8424   0.740E-02 0.534E-05
CGA:   8    -0.669351938466E+03   -0.18993E-02   -0.18964E-02  8424   0.250E-02-0.131E-03
CGA:   9    -0.669352671112E+03   -0.73265E-03   -0.73676E-03  8424   0.105E-02-0.187E-03
CGA:  10    -0.669353019571E+03   -0.34846E-03   -0.36340E-03  8424   0.573E-03-0.157E-03
CGA:  11    -0.669353184030E+03   -0.16446E-03   -0.26407E-03  8424   0.782E-03-0.388E-03
CGA:  12    -0.669353349850E+03   -0.16582E-03   -0.16594E-03  8424   0.193E-03 0.965E-06
CGA:  13    -0.669353472707E+03   -0.12286E-03    0.32276E-03  8424   0.964E-04 0.508E-04
CGA:  14    -0.669353558087E+03   -0.85380E-04    0.88557E-04  8424   0.714E-04 0.574E-04
CGA:  15    -0.669353619888E+03   -0.61801E-04    0.21687E-04  8424   0.502E-04 0.359E-04
CGA:  16    -0.669353661829E+03   -0.41942E-04    0.17060E-04  8424   0.469E-04 0.347E-04
CGA:  17    -0.669353722594E+03   -0.60764E-04    0.56097E-05  8424   0.504E-04 0.306E-04
CGA:  18    -0.669353584472E+03    0.13812E-03   -0.76908E-04  8424   0.283E-02-0.147E-03
CGA:  19    -0.669354048348E+03   -0.46388E-03   -0.35901E-03  8424   0.732E-04-0.261E-03
CGA:  20    -0.669354067962E+03   -0.19614E-04   -0.19299E-04  8424   0.750E-04-0.176E-05
CGA:  21    -0.669354231079E+03   -0.16312E-03    0.15026E-04  8424   0.434E-04 0.566E-04
CGA:  22    -0.669354295533E+03   -0.64454E-04    0.22697E-04  8424   0.997E-04-0.196E-06
CGA:  23    -0.669354500170E+03   -0.20464E-03    0.23577E-04  8424   0.166E-03 0.337E-04
CGA:  24    -0.669354939601E+03   -0.43943E-03    0.57033E-04  8424   0.855E-04 0.141E-03
CGA:  25    -0.669354039525E+03    0.90008E-03   -0.16640E-03  8424   0.935E-02-0.739E-03
CGA:  26    -0.669355128626E+03   -0.10891E-02   -0.12543E-02  8424   0.268E-03 0.375E-03
CGA:  27    -0.669355196395E+03   -0.67769E-04   -0.61995E-04  8424   0.583E-04-0.178E-04
CGA:  28    -0.669355281652E+03   -0.85257E-04    0.31531E-04  8424   0.756E-04-0.229E-04
CGA:  29    -0.669355352996E+03   -0.71344E-04    0.27454E-04  8424   0.126E-03 0.726E-05
CGA:  30    -0.669355659956E+03   -0.30696E-03    0.34580E-04  8424   0.919E-04 0.372E-04
CGA:  31    -0.669355920729E+03   -0.26077E-03    0.30414E-04  8424   0.114E-03 0.976E-05
CGA:  32    -0.669356244535E+03   -0.32381E-03    0.23948E-04  8424   0.109E-03 0.336E-04
CGA:  33    -0.669356613740E+03   -0.36920E-03    0.26281E-04  8424   0.147E-03-0.534E-05
CGA:  34    -0.669357156871E+03   -0.54313E-03    0.14314E-04  8424   0.149E-03 0.870E-05
CGA:  35    -0.669357641634E+03   -0.48476E-03    0.22581E-04  8424   0.178E-03-0.222E-04
CGA:  36    -0.669358372314E+03   -0.73068E-03    0.11541E-04  8424   0.143E-03-0.793E-04
CGA:  37    -0.669358891650E+03   -0.51934E-03    0.41239E-05  8424   0.128E-03-0.667E-04
CGA:  38    -0.669359360126E+03   -0.46848E-03    0.33941E-05  8424   0.936E-04-0.745E-04
CGA:  39    -0.669359376050E+03   -0.15925E-04   -0.18909E-04  8424   0.182E-04 0.896E-05
CGA:  40    -0.669359372726E+03    0.33241E-05   -0.24060E-05  8424   0.114E-04 0.144E-04
   9 F= -.66935937E+03 E0= -.66935937E+03  d E =0.136879E+00  mag=     2.0000
       N       E                     dE             d eps       ncg     rms          ort
SDA:   1    -0.607069399212E+03    0.62290E+02    0.00000E+00  8424   0.204E+03 0.000E+00
CGA:   2    -0.645134216737E+03   -0.38065E+02   -0.38763E+02  8424   0.805E+02 0.574E+00
CGA:   3    -0.662723631562E+03   -0.17589E+02   -0.17508E+02  8424   0.239E+02 0.707E+00
CGA:   4    -0.666851170827E+03   -0.41275E+01   -0.41484E+01  8424   0.588E+01 0.685E-01
CGA:   5    -0.667850616833E+03   -0.99945E+00   -0.10055E+01  8424   0.132E+01 0.164E-02
CGA:   6    -0.668112639933E+03   -0.26202E+00   -0.26150E+00  8424   0.317E+00 0.625E-04
CGA:   7    -0.668183310982E+03   -0.70671E-01   -0.71209E-01  8424   0.971E-01 0.289E-02
CGA:   8    -0.668207061530E+03   -0.23751E-01   -0.23953E-01  8424   0.313E-01 0.128E-02
CGA:   9    -0.668215856559E+03   -0.87950E-02   -0.87755E-02  8424   0.112E-01-0.163E-03
CGA:  10    -0.668219070921E+03   -0.32144E-02   -0.32749E-02  8424   0.431E-02 0.633E-03
CGA:  11    -0.668220429075E+03   -0.13582E-02   -0.13754E-02  8424   0.148E-02 0.207E-03
CGA:  12    -0.668220733701E+03   -0.30463E-03   -0.36810E-03  8424   0.535E-03 0.445E-03
CGA:  13    -0.668220825495E+03   -0.91794E-04   -0.14756E-03  8424   0.300E-03 0.344E-03
CGA:  14    -0.668220854333E+03   -0.28839E-04   -0.62126E-04  8424   0.199E-03 0.211E-03
CGA:  15    -0.668220846391E+03    0.79421E-05   -0.30308E-04  8424   0.179E-03 0.186E-03
CGA:  16    -0.668220836173E+03    0.10219E-04   -0.25376E-04  8424   0.169E-03 0.173E-03
CGA:  17    -0.668220823860E+03    0.12313E-04   -0.21816E-04  8424   0.161E-03 0.164E-03
CGA:  18    -0.668220810541E+03    0.13318E-04   -0.19338E-04  8424   0.155E-03 0.158E-03
CGA:  19    -0.668220796776E+03    0.13765E-04   -0.17450E-04  8424   0.151E-03 0.153E-03
CGA:  20    -0.668220782848E+03    0.13928E-04   -0.15916E-04  8424   0.147E-03 0.149E-03
CGA:  21    -0.668220768941E+03    0.13907E-04   -0.14631E-04  8424   0.144E-03 0.145E-03
CGA:  22    -0.668220755176E+03    0.13766E-04   -0.13530E-04  8424   0.141E-03 0.142E-03
CGA:  23    -0.668220741633E+03    0.13542E-04   -0.12572E-04  8424   0.138E-03 0.139E-03
CGA:  24    -0.668220728368E+03    0.13265E-04   -0.11727E-04  8424   0.136E-03 0.137E-03
CGA:  25    -0.668220715419E+03    0.12949E-04   -0.10976E-04  8424   0.134E-03 0.135E-03
CGA:  26    -0.668220702812E+03    0.12607E-04   -0.10302E-04  8424   0.132E-03 0.133E-03
CGA:  27    -0.668220690561E+03    0.12251E-04   -0.96928E-05  8424   0.130E-03 0.131E-03
CGA:  28    -0.668220678676E+03    0.11886E-04   -0.91390E-05  8424   0.129E-03 0.130E-03
CGA:  29    -0.668220667159E+03    0.11517E-04   -0.86328E-05  8424   0.128E-03 0.128E-03
CGA:  30    -0.668220656010E+03    0.11148E-04   -0.81678E-05  8424   0.126E-03 0.127E-03
CGA:  31    -0.668220645228E+03    0.10783E-04   -0.77389E-05  8424   0.125E-03 0.126E-03
CGA:  32    -0.668220634806E+03    0.10422E-04   -0.73417E-05  8424   0.124E-03 0.125E-03
CGA:  33    -0.668220624739E+03    0.10067E-04   -0.69726E-05  8424   0.123E-03 0.124E-03
CGA:  34    -0.668220615018E+03    0.97203E-05   -0.66288E-05  8424   0.122E-03 0.123E-03
  10 F= -.66822062E+03 E0= -.66822062E+03  d E =0.113876E+01  mag=     2.0000
       N       E                     dE             d eps       ncg     rms          ort
SDA:   1    -0.649012137194E+03    0.19208E+02    0.00000E+00  8424   0.664E+02 0.000E+00
CGA:   2    -0.661825886703E+03   -0.12814E+02   -0.12804E+02  8424   0.258E+02 0.348E+00
CGA:   3    -0.667400965213E+03   -0.55751E+01   -0.55791E+01  8424   0.860E+01-0.831E-01
CGA:   4    -0.668807347251E+03   -0.14064E+01   -0.14066E+01  8424   0.208E+01 0.905E-02
CGA:   5    -0.669172912376E+03   -0.36557E+00   -0.36557E+00  8424   0.457E+00 0.704E-02
CGA:   6    -0.669262177063E+03   -0.89265E-01   -0.89309E-01  8424   0.106E+00-0.240E-02
CGA:   7    -0.669285089483E+03   -0.22912E-01   -0.22819E-01  8424   0.300E-01 0.238E-02
CGA:   8    -0.669292629283E+03   -0.75398E-02   -0.74868E-02  8424   0.892E-02 0.817E-03
CGA:   9    -0.669295109494E+03   -0.24802E-02   -0.24805E-02  8424   0.305E-02-0.435E-05
CGA:  10    -0.669295889588E+03   -0.78009E-03   -0.74878E-03  8424   0.106E-02 0.534E-03
CGA:  11    -0.669296266921E+03   -0.37733E-03   -0.36345E-03  8424   0.419E-03 0.135E-03
CGA:  12    -0.669296347500E+03   -0.80579E-04   -0.84199E-04  8424   0.166E-03 0.218E-03
CGA:  13    -0.669296365894E+03   -0.18393E-04   -0.24105E-04  8424   0.936E-04 0.117E-03
CGA:  14    -0.669296370200E+03   -0.43069E-05   -0.10742E-04  8424   0.760E-04 0.838E-04
  11 F= -.66929637E+03 E0= -.66929637E+03  d E =-.107576E+01  mag=     2.0000
       N       E                     dE             d eps       ncg     rms          ort
SDA:   1    -0.667374111987E+03    0.19223E+01    0.00000E+00  8424   0.590E+01 0.000E+00
CGA:   2    -0.668603797950E+03   -0.12297E+01   -0.12294E+01  8424   0.251E+01 0.827E-02
CGA:   3    -0.669131456816E+03   -0.52766E+00   -0.52768E+00  8424   0.805E+00-0.116E-02
CGA:   4    -0.669260751618E+03   -0.12929E+00   -0.12931E+00  8424   0.188E+00 0.581E-03
CGA:   5    -0.669293828646E+03   -0.33077E-01   -0.33085E-01  8424   0.394E-01 0.891E-03
CGA:   6    -0.669301539333E+03   -0.77107E-02   -0.77061E-02  8424   0.912E-02 0.424E-03
CGA:   7    -0.669303477260E+03   -0.19379E-02   -0.19234E-02  8424   0.249E-02 0.598E-03
CGA:   8    -0.669304066076E+03   -0.58882E-03   -0.57581E-03  8424   0.702E-03 0.416E-03
CGA:   9    -0.669304204473E+03   -0.13840E-03   -0.14279E-03  8424   0.254E-03 0.340E-03
CGA:  10    -0.669304227525E+03   -0.23051E-04   -0.41790E-04  8424   0.148E-03 0.247E-03
CGA:  11    -0.669304227757E+03   -0.23211E-06   -0.12668E-04  8424   0.114E-03 0.128E-03
  12 F= -.66930423E+03 E0= -.66930423E+03  d E =-.785756E-02  mag=     2.0000
       N       E                     dE             d eps       ncg     rms          ort
SDA:   1    -0.667137230409E+03    0.21670E+01    0.00000E+00  8424   0.549E+01 0.000E+00
CGA:   2    -0.668508309145E+03   -0.13711E+01   -0.13706E+01  8424   0.285E+01 0.459E-02
[...]
CGA:   3    -0.667207195311E+03   -0.97475E-01   -0.97455E-01  8424   0.124E+00-0.346E-03
CGA:   4    -0.667227296568E+03   -0.20101E-01   -0.20117E-01  8424   0.281E-01 0.192E-03
CGA:   5    -0.667232135747E+03   -0.48392E-02   -0.48654E-02  8424   0.575E-02 0.422E-03
CGA:   6    -0.667233297323E+03   -0.11616E-02   -0.11705E-02  8424   0.139E-02 0.290E-03
CGA:   7    -0.667233592726E+03   -0.29540E-03   -0.30007E-03  8424   0.383E-03 0.196E-03
CGA:   8    -0.667233667874E+03   -0.75148E-04   -0.81673E-04  8424   0.139E-03 0.156E-03
CGA:   9    -0.667233678890E+03   -0.11016E-04   -0.23806E-04  8424   0.780E-04 0.122E-03
CGA:  10    -0.667233676863E+03    0.20266E-05   -0.68373E-05  8424   0.586E-04 0.663E-04
  41 F= -.66723368E+03 E0= -.66723368E+03  d E =0.915924E-01  mag=     2.0000
       N       E                     dE             d eps       ncg     rms          ort
SDA:   1    -0.653648176918E+03    0.13586E+02    0.00000E+00  8424   0.394E+02 0.000E+00
CGA:   2    -0.662041265400E+03   -0.83931E+01   -0.83916E+01  8424   0.175E+02 0.148E+00
CGA:   3    -0.665646248020E+03   -0.36050E+01   -0.36049E+01  8424   0.530E+01-0.327E-01
CGA:   4    -0.666506585634E+03   -0.86034E+00   -0.86054E+00  8424   0.122E+01 0.125E-02
CGA:   5    -0.666719676997E+03   -0.21309E+00   -0.21322E+00  8424   0.250E+00 0.338E-02
CGA:   6    -0.666770431917E+03   -0.50755E-01   -0.50754E-01  8424   0.609E-01-0.416E-03
CGA:   7    -0.666783700125E+03   -0.13268E-01   -0.13247E-01  8424   0.172E-01 0.148E-02
CGA:   8    -0.666788074149E+03   -0.43740E-02   -0.43468E-02  8424   0.531E-02 0.644E-03
CGA:   9    -0.666789526194E+03   -0.14520E-02   -0.14301E-02  8424   0.185E-02 0.412E-03
CGA:  10    -0.666789988332E+03   -0.46214E-03   -0.45116E-03  8424   0.706E-03 0.653E-03
CGA:  11    -0.666790143472E+03   -0.15514E-03   -0.17052E-03  8424   0.326E-03 0.490E-03
CGA:  12    -0.666790178477E+03   -0.35004E-04   -0.48763E-04  8424   0.195E-03 0.233E-03
CGA:  13    -0.666790179700E+03   -0.12236E-05   -0.19839E-04  8424   0.165E-03 0.179E-03
CGA:  14    -0.666790176863E+03    0.28378E-05   -0.14595E-04  8424   0.147E-03 0.156E-03
CGA:  15    -0.666790172043E+03    0.48200E-05   -0.11563E-04  8424   0.135E-03 0.141E-03
  42 F= -.66679017E+03 E0= -.66679017E+03  d E =0.443505E+00  mag=     2.0000
       N       E                     dE             d eps       ncg     rms          ort
SDA:   1    -0.661082143466E+03    0.57080E+01    0.00000E+00  8424   0.176E+02 0.000E+00
CGA:   2    -0.664886697398E+03   -0.38046E+01   -0.38027E+01  8424   0.794E+01 0.400E-01
CGA:   3    -0.666500052846E+03   -0.16134E+01   -0.16136E+01  8424   0.235E+01-0.951E-02
CGA:   4    -0.666880266336E+03   -0.38021E+00   -0.38027E+00  8424   0.542E+00 0.145E-02
CGA:   5    -0.666975694911E+03   -0.95429E-01   -0.95441E-01  8424   0.112E+00 0.140E-02
CGA:   6    -0.666998468222E+03   -0.22773E-01   -0.22792E-01  8424   0.270E-01-0.981E-03
CGA:   7    -0.667004266545E+03   -0.57983E-02   -0.57710E-02  8424   0.742E-02 0.885E-03
CGA:   8    -0.667006113786E+03   -0.18472E-02   -0.18160E-02  8424   0.211E-02 0.617E-03
CGA:   9    -0.667006720092E+03   -0.60631E-03   -0.59096E-03  8424   0.733E-03 0.221E-03
CGA:  10    -0.667006882558E+03   -0.16247E-03   -0.16049E-03  8424   0.292E-03 0.341E-03
CGA:  11    -0.667006943133E+03   -0.60575E-04   -0.68230E-04  8424   0.138E-03 0.229E-03
CGA:  12    -0.667006959179E+03   -0.16046E-04   -0.20385E-04  8424   0.828E-04 0.996E-04
CGA:  13    -0.667006957598E+03    0.15808E-05   -0.67150E-05  8424   0.714E-04 0.769E-04
  43 F= -.66700696E+03 E0= -.66700696E+03  d E =-.216786E+00  mag=     2.0000
       N       E                     dE             d eps       ncg     rms          ort
SDA:   1    -0.666593164242E+03    0.41379E+00    0.00000E+00  8424   0.114E+01 0.000E+00
CGA:   2    -0.666849764443E+03   -0.25660E+00   -0.25653E+00  8424   0.530E+00 0.143E-02
CGA:   3    -0.666955014544E+03   -0.10525E+00   -0.10524E+00  8424   0.152E+00 0.263E-03
CGA:   4    -0.666979600761E+03   -0.24586E-01   -0.24593E-01  8424   0.348E-01 0.311E-03
CGA:   5    -0.666985725551E+03   -0.61248E-02   -0.61260E-02  8424   0.709E-02 0.260E-03
CGA:   6    -0.666987162920E+03   -0.14374E-02   -0.14346E-02  8424   0.170E-02 0.131E-03
CGA:   7    -0.666987513508E+03   -0.35059E-03   -0.34629E-03  8424   0.455E-03 0.222E-03
CGA:   8    -0.666987605106E+03   -0.91598E-04   -0.92131E-04  8424   0.154E-03 0.187E-03
CGA:   9    -0.666987625550E+03   -0.20444E-04   -0.27430E-04  8424   0.798E-04 0.126E-03
CGA:  10    -0.666987628206E+03   -0.26553E-05   -0.79211E-05  8424   0.577E-04 0.659E-04
  44 F= -.66698763E+03 E0= -.66698763E+03  d E =0.193294E-01  mag=     2.0000
       N       E                     dE             d eps       ncg     rms          ort
SDA:   1    -0.666800299232E+03    0.18733E+00    0.00000E+00  8424   0.378E+00 0.000E+00
CGA:   2    -0.666893665179E+03   -0.93366E-01   -0.93307E-01  8424   0.182E+00 0.717E-03
CGA:   3    -0.666928014583E+03   -0.34349E-01   -0.34348E-01  8424   0.494E-01 0.698E-04
CGA:   4    -0.666936103829E+03   -0.80892E-02   -0.80932E-02  8424   0.114E-01 0.359E-03
CGA:   5    -0.666938064546E+03   -0.19607E-02   -0.19619E-02  8424   0.223E-02 0.357E-03
CGA:   6    -0.666938502090E+03   -0.43754E-03   -0.43419E-03  8424   0.530E-03 0.233E-03
CGA:   7    -0.666938596384E+03   -0.94294E-04   -0.96333E-04  8424   0.166E-03 0.201E-03
CGA:   8    -0.666938613460E+03   -0.17076E-04   -0.25659E-04  8424   0.880E-04 0.138E-03
CGA:   9    -0.666938614678E+03   -0.12183E-05   -0.74908E-05  8424   0.638E-04 0.729E-04
  45 F= -.66693861E+03 E0= -.66693861E+03  d E =0.490135E-01  mag=     2.0000
       N       E                     dE             d eps       ncg     rms          ort
SDA:   1    -0.666326451848E+03    0.61216E+00    0.00000E+00  8424   0.120E+01 0.000E+00
CGA:   2    -0.666677967804E+03   -0.35152E+00   -0.35135E+00  8424   0.587E+00 0.106E-02
CGA:   3    -0.666781247368E+03   -0.10328E+00   -0.10329E+00  8424   0.139E+00-0.110E-02
CGA:   4    -0.666804439857E+03   -0.23192E-01   -0.23194E-01  8424   0.333E-01 0.897E-03
CGA:   5    -0.666810129528E+03   -0.56897E-02   -0.56886E-02  8424   0.657E-02 0.825E-03
CGA:   6    -0.666811495773E+03   -0.13662E-02   -0.13544E-02  8424   0.170E-02 0.366E-03
CGA:   7    -0.666811840281E+03   -0.34451E-03   -0.33731E-03  8424   0.484E-03 0.409E-03
CGA:   8    -0.666811925809E+03   -0.85528E-04   -0.91155E-04  8424   0.212E-03 0.290E-03
CGA:   9    -0.666811941852E+03   -0.16043E-04   -0.24505E-04  8424   0.131E-03 0.155E-03
CGA:  10    -0.666811941846E+03    0.61882E-08   -0.10447E-04  8424   0.111E-03 0.119E-03
  46 F= -.66681194E+03 E0= -.66681194E+03  d E =0.126673E+00  mag=     2.0000
       N       E                     dE             d eps       ncg     rms          ort
SDA:   1    -0.658264568945E+03    0.85474E+01    0.00000E+00  8424   0.241E+02 0.000E+00
CGA:   2    -0.663707082319E+03   -0.54425E+01   -0.54353E+01  8424   0.109E+02 0.876E-01
CGA:   3    -0.665872210262E+03   -0.21651E+01   -0.21662E+01  8424   0.313E+01-0.244E-01
CGA:   4    -0.666384931273E+03   -0.51272E+00   -0.51272E+00  8424   0.746E+00 0.742E-03
CGA:   5    -0.666515531429E+03   -0.13060E+00   -0.13056E+00  8424   0.151E+00 0.300E-02
CGA:   6    -0.666546400256E+03   -0.30869E-01   -0.30864E-01  8424   0.371E-01 0.106E-03
CGA:   7    -0.666554694386E+03   -0.82941E-02   -0.82216E-02  8424   0.109E-01 0.130E-02
CGA:   8    -0.666557500626E+03   -0.28062E-02   -0.27367E-02  8424   0.338E-02 0.939E-03
CGA:   9    -0.666558471875E+03   -0.97125E-03   -0.92402E-03  8424   0.121E-02 0.593E-03
CGA:  10    -0.666558738477E+03   -0.26660E-03   -0.26141E-03  8424   0.536E-03 0.695E-03
CGA:  11    -0.666558817586E+03   -0.79109E-04   -0.85388E-04  8424   0.289E-03 0.360E-03
CGA:  12    -0.666558838945E+03   -0.21359E-04   -0.35255E-04  8424   0.231E-03 0.257E-03
CGA:  13    -0.666558847131E+03   -0.81856E-05   -0.23528E-04  8424   0.200E-03 0.215E-03
CGA:  14    -0.666558849851E+03   -0.27201E-05   -0.17953E-04  8424   0.180E-03 0.190E-03
CGA:  15    -0.666558849671E+03    0.18000E-06   -0.14548E-04  8424   0.166E-03 0.173E-03
CGA:  16    -0.666558847786E+03    0.18856E-05   -0.12216E-04  8424   0.155E-03 0.160E-03
CGA:  17    -0.666558844845E+03    0.29407E-05   -0.10506E-04  8424   0.146E-03 0.151E-03
  47 F= -.66655884E+03 E0= -.66655884E+03  d E =0.253097E+00  mag=     2.0000
       N       E                     dE             d eps       ncg     rms          ort
SDA:   1    -0.663658929612E+03    0.28999E+01    0.00000E+00  8424   0.891E+01 0.000E+00
CGA:   2    -0.665610967399E+03   -0.19520E+01   -0.19505E+01  8424   0.401E+01 0.186E-01
CGA:   3    -0.666416916689E+03   -0.80595E+00   -0.80606E+00  8424   0.118E+01-0.237E-02
CGA:   4    -0.666608310583E+03   -0.19139E+00   -0.19138E+00  8424   0.276E+00 0.110E-02
CGA:   5    -0.666657081545E+03   -0.48771E-01   -0.48752E-01  8424   0.560E-01 0.799E-03
CGA:   6    -0.666668479967E+03   -0.11398E-01   -0.11416E-01  8424   0.136E-01-0.383E-03
CGA:   7    -0.666671440877E+03   -0.29609E-02   -0.29293E-02  8424   0.378E-02 0.536E-03
CGA:   8    -0.666672381365E+03   -0.94049E-03   -0.90704E-03  8424   0.108E-02 0.478E-03
CGA:   9    -0.666672688980E+03   -0.30762E-03   -0.28956E-03  8424   0.379E-03 0.243E-03
CGA:  10    -0.666672777876E+03   -0.88897E-04   -0.85305E-04  8424   0.181E-03 0.232E-03
CGA:  11    -0.666672808861E+03   -0.30985E-04   -0.30792E-04  8424   0.986E-04 0.120E-03
CGA:  12    -0.666672817008E+03   -0.81460E-05   -0.12181E-04  8424   0.809E-04 0.887E-04
  48 F= -.66667282E+03 E0= -.66667282E+03  d E =-.113972E+00  mag=     2.0000
       N       E                     dE             d eps       ncg     rms          ort
SDA:   1    -0.666215221165E+03    0.45759E+00    0.00000E+00  8424   0.128E+01 0.000E+00
CGA:   2    -0.666506063341E+03   -0.29084E+00   -0.29071E+00  8424   0.597E+00 0.190E-02
CGA:   3    -0.666622863688E+03   -0.11680E+00   -0.11679E+00  8424   0.170E+00 0.179E-03
CGA:   4    -0.666650297750E+03   -0.27434E-01   -0.27437E-01  8424   0.390E-01 0.454E-03
CGA:   5    -0.666657231568E+03   -0.69338E-02   -0.69315E-02  8424   0.801E-02 0.246E-03
CGA:   6    -0.666658881732E+03   -0.16502E-02   -0.16516E-02  8424   0.200E-02-0.416E-04
CGA:   7    -0.666659292602E+03   -0.41087E-03   -0.40356E-03  8424   0.554E-03 0.226E-03
CGA:   8    -0.666659417597E+03   -0.12500E-03   -0.12035E-03  8424   0.191E-03 0.197E-03
CGA:   9    -0.666659458049E+03   -0.40452E-04   -0.41893E-04  8424   0.987E-04 0.130E-03
CGA:  10    -0.666659469600E+03   -0.11551E-04   -0.13901E-04  8424   0.660E-04 0.745E-04
CGA:  11    -0.666659473823E+03   -0.42228E-05   -0.76135E-05  8424   0.576E-04 0.611E-04
  49 F= -.66665947E+03 E0= -.66665947E+03  d E =0.133432E-01  mag=     2.0000
       N       E                     dE             d eps       ncg     rms          ort
SDA:   1    -0.666543597227E+03    0.11587E+00    0.00000E+00  8424   0.262E+00 0.000E+00
CGA:   2    -0.666605563175E+03   -0.61966E-01   -0.61901E-01  8424   0.121E+00 0.882E-03
CGA:   3    -0.666629200917E+03   -0.23638E-01   -0.23643E-01  8424   0.341E-01-0.207E-03
CGA:   4    -0.666634745418E+03   -0.55445E-02   -0.55471E-02  8424   0.810E-02 0.394E-03
CGA:   5    -0.666636148143E+03   -0.14027E-02   -0.14021E-02  8424   0.158E-02 0.349E-03
CGA:   6    -0.666636475115E+03   -0.32697E-03   -0.32359E-03  8424   0.416E-03 0.127E-03
CGA:   7    -0.666636537408E+03   -0.62293E-04   -0.66509E-04  8424   0.145E-03 0.187E-03
CGA:   8    -0.666636547426E+03   -0.10018E-04   -0.20163E-04  8424   0.874E-04 0.138E-03
CGA:   9    -0.666636548473E+03   -0.10475E-05   -0.72565E-05  8424   0.672E-04 0.749E-04
  50 F= -.66663655E+03 E0= -.66663655E+03  d E =0.229253E-01  mag=     2.0000
       N       E                     dE             d eps       ncg     rms          ort
SDA:   1    -0.665843373680E+03    0.79317E+00    0.00000E+00  8424   0.185E+01 0.000E+00
CGA:   2    -0.666368704373E+03   -0.52533E+00   -0.52508E+00  8424   0.883E+00 0.150E-02
CGA:   3    -0.666527340381E+03   -0.15864E+00   -0.15868E+00  8424   0.210E+00-0.253E-02
CGA:   4    -0.666562599586E+03   -0.35259E-01   -0.35254E-01  8424   0.526E-01 0.121E-02
CGA:   5    -0.666571694534E+03   -0.90949E-02   -0.90876E-02  8424   0.104E-01 0.978E-03
CGA:   6    -0.666573914808E+03   -0.22203E-02   -0.22112E-02  8424   0.292E-02 0.208E-03
CGA:   7    -0.666574500711E+03   -0.58590E-03   -0.57206E-03  8424   0.812E-03 0.545E-03
CGA:   8    -0.666574668281E+03   -0.16757E-03   -0.16588E-03  8424   0.333E-03 0.410E-03
CGA:   9    -0.666574713618E+03   -0.45337E-04   -0.49473E-04  8424   0.180E-03 0.207E-03
CGA:  10    -0.666574717906E+03   -0.42883E-05   -0.16574E-04  8424   0.152E-03 0.163E-03
CGA:  11    -0.666574718496E+03   -0.58919E-06   -0.12271E-04  8424   0.134E-03 0.141E-03
  51 F= -.66657472E+03 E0= -.66657472E+03  d E =0.618300E-01  mag=     2.0000
       N       E                     dE             d eps       ncg     rms          ort
SDA:   1    -0.662148951195E+03    0.44258E+01    0.00000E+00  8424   0.123E+02 0.000E+00
CGA:   2    -0.665040284901E+03   -0.28913E+01   -0.28885E+01  8424   0.581E+01 0.305E-01
CGA:   3    -0.666163437622E+03   -0.11232E+01   -0.11235E+01  8424   0.159E+01-0.103E-01
CGA:   4    -0.666424979580E+03   -0.26154E+00   -0.26154E+00  8424   0.377E+00-0.208E-03
CGA:   5    -0.666491419565E+03   -0.66440E-01   -0.66414E-01  8424   0.776E-01 0.160E-02
CGA:   6    -0.666507213793E+03   -0.15794E-01   -0.15788E-01  8424   0.189E-01 0.132E-03
CGA:   7    -0.666511477029E+03   -0.42632E-02   -0.42360E-02  8424   0.568E-02 0.452E-03
CGA:   8    -0.666512981230E+03   -0.15042E-02   -0.14788E-02  8424   0.188E-02 0.288E-03
CGA:   9    -0.666513540936E+03   -0.55971E-03   -0.54197E-03  8424   0.730E-03 0.169E-03
CGA:  10    -0.666513728209E+03   -0.18727E-03   -0.17380E-03  8424   0.305E-03 0.318E-03
CGA:  11    -0.666513811950E+03   -0.83741E-04   -0.81844E-04  8424   0.158E-03 0.226E-03
CGA:  12    -0.666513851394E+03   -0.39444E-04   -0.35079E-04  8424   0.960E-04 0.100E-03
CGA:  13    -0.666513860248E+03   -0.88544E-05   -0.12938E-04  8424   0.836E-04 0.883E-04
CGA:  14    -0.666513870715E+03   -0.10466E-04   -0.12650E-04  8424   0.763E-04 0.797E-04
CGA:  15    -0.666513878819E+03   -0.81042E-05   -0.10770E-04  8424   0.712E-04 0.736E-04
  52 F= -.66651388E+03 E0= -.66651388E+03  d E =0.608397E-01  mag=     2.0000
       N       E                     dE             d eps       ncg     rms          ort
SDA:   1    -0.665068033729E+03    0.14458E+01    0.00000E+00  8424   0.447E+01 0.000E+00
CGA:   2    -0.666035280401E+03   -0.96725E+00   -0.96697E+00  8424   0.202E+01 0.543E-02
CGA:   3    -0.666442821261E+03   -0.40754E+00   -0.40755E+00  8424   0.602E+00-0.462E-03
CGA:   4    -0.666540396150E+03   -0.97575E-01   -0.97591E-01  8424   0.139E+00 0.936E-03
CGA:   5    -0.666565184702E+03   -0.24789E-01   -0.24787E-01  8424   0.290E-01 0.537E-03
CGA:   6    -0.666571062845E+03   -0.58781E-02   -0.58843E-02  8424   0.687E-02-0.246E-03
CGA:   7    -0.666572498664E+03   -0.14358E-02   -0.14218E-02  8424   0.184E-02 0.452E-03
CGA:   8    -0.666572934687E+03   -0.43602E-03   -0.42209E-03  8424   0.525E-03 0.388E-03
CGA:   9    -0.666573063509E+03   -0.12882E-03   -0.12524E-03  8424   0.200E-03 0.223E-03
CGA:  10    -0.666573095026E+03   -0.31517E-04   -0.39269E-04  8424   0.118E-03 0.177E-03
CGA:  11    -0.666573102417E+03   -0.73910E-05   -0.13613E-04  8424   0.847E-04 0.969E-04
  53 F= -.66657310E+03 E0= -.66657310E+03  d E =-.592236E-01  mag=     2.0000
       N       E                     dE             d eps       ncg     rms          ort
SDA:   1    -0.666317515676E+03    0.25558E+00    0.00000E+00  8424   0.753E+00 0.000E+00
CGA:   2    -0.666493253626E+03   -0.17574E+00   -0.17564E+00  8424   0.345E+00 0.142E-02
CGA:   3    -0.666559576326E+03   -0.66323E-01   -0.66321E-01  8424   0.961E-01 0.445E-04
CGA:   4    -0.666575414184E+03   -0.15838E-01   -0.15842E-01  8424   0.232E-01 0.365E-03
CGA:   5    -0.666579515824E+03   -0.41016E-02   -0.41015E-02  8424   0.471E-02 0.194E-03
CGA:   6    -0.666580473946E+03   -0.95812E-03   -0.95736E-03  8424   0.117E-02 0.286E-04
CGA:   7    -0.666580697892E+03   -0.22395E-03   -0.22147E-03  8424   0.327E-03 0.236E-03
CGA:   8    -0.666580753717E+03   -0.55825E-04   -0.60326E-04  8424   0.140E-03 0.188E-03
CGA:   9    -0.666580768583E+03   -0.14866E-04   -0.18850E-04  8424   0.811E-04 0.958E-04
CGA:  10    -0.666580770278E+03   -0.16947E-05   -0.76112E-05  8424   0.683E-04 0.735E-04
  54 F= -.66658077E+03 E0= -.66658077E+03  d E =-.766786E-02  mag=     2.0000
       N       E                     dE             d eps       ncg     rms          ort
SDA:   1    -0.666486882138E+03    0.93886E-01    0.00000E+00  8424   0.283E+00 0.000E+00
CGA:   2    -0.666561294611E+03   -0.74412E-01   -0.74329E-01  8424   0.125E+00 0.837E-03
CGA:   3    -0.666583976849E+03   -0.22682E-01   -0.22685E-01  8424   0.331E-01-0.258E-03
CGA:   4    -0.666589631343E+03   -0.56545E-02   -0.56545E-02  8424   0.836E-02 0.234E-03
CGA:   5    -0.666591084920E+03   -0.14536E-02   -0.14533E-02  8424   0.164E-02 0.180E-03
CGA:   6    -0.666591419631E+03   -0.33471E-03   -0.33247E-03  8424   0.432E-03 0.828E-04
CGA:   7    -0.666591491643E+03   -0.72012E-04   -0.73743E-04  8424   0.145E-03 0.170E-03
CGA:   8    -0.666591506252E+03   -0.14610E-04   -0.22356E-04  8424   0.826E-04 0.125E-03
CGA:   9    -0.666591509138E+03   -0.28861E-05   -0.78898E-05  8424   0.603E-04 0.680E-04
  55 F= -.66659151E+03 E0= -.66659151E+03  d E =-.107389E-01  mag=     2.0000
       N       E                     dE             d eps       ncg     rms          ort
SDA:   1    -0.666186203861E+03    0.40530E+00    0.00000E+00  8424   0.116E+01 0.000E+00
CGA:   2    -0.666516749532E+03   -0.33055E+00   -0.33039E+00  8424   0.528E+00 0.107E-02
CGA:   3    -0.666609595109E+03   -0.92846E-01   -0.92861E-01  8424   0.130E+00-0.176E-02
CGA:   4    -0.666631898458E+03   -0.22303E-01   -0.22301E-01  8424   0.335E-01 0.431E-03
CGA:   5    -0.666637737365E+03   -0.58389E-02   -0.58371E-02  8424   0.678E-02 0.302E-03
CGA:   6    -0.666639179893E+03   -0.14425E-02   -0.14477E-02  8424   0.199E-02-0.120E-03
CGA:   7    -0.666639583278E+03   -0.40338E-03   -0.39461E-03  8424   0.561E-03 0.274E-03
CGA:   8    -0.666639721377E+03   -0.13810E-03   -0.13157E-03  8424   0.211E-03 0.190E-03
CGA:   9    -0.666639771130E+03   -0.49753E-04   -0.49491E-04  8424   0.111E-03 0.135E-03
CGA:  10    -0.666639779874E+03   -0.87443E-05   -0.13283E-04  8424   0.735E-04 0.849E-04
  56 F= -.66663978E+03 E0= -.66663978E+03  d E =-.482707E-01  mag=     2.0000
       N       E                     dE             d eps       ncg     rms          ort
SDA:   1    -0.663814227871E+03    0.28255E+01    0.00000E+00  8424   0.824E+01 0.000E+00
CGA:   2    -0.665704215590E+03   -0.18900E+01   -0.18888E+01  8424   0.379E+01 0.147E-01
CGA:   3    -0.666443701120E+03   -0.73949E+00   -0.73962E+00  8424   0.108E+01-0.541E-02
CGA:   4    -0.666623370934E+03   -0.17967E+00   -0.17967E+00  8424   0.257E+00-0.301E-03
CGA:   5    -0.666668618089E+03   -0.45247E-01   -0.45243E-01  8424   0.520E-01 0.949E-03
CGA:   6    -0.666679164820E+03   -0.10547E-01   -0.10544E-01  8424   0.126E-01 0.825E-04
CGA:   7    -0.666682002656E+03   -0.28378E-02   -0.28180E-02  8424   0.370E-02 0.396E-03
CGA:   8    -0.666682957570E+03   -0.95491E-03   -0.93443E-03  8424   0.113E-02 0.297E-03
CGA:   9    -0.666683279092E+03   -0.32152E-03   -0.30656E-03  8424   0.399E-03 0.210E-03
CGA:  10    -0.666683360685E+03   -0.81592E-04   -0.83270E-04  8424   0.185E-03 0.246E-03
CGA:  11    -0.666683385409E+03   -0.24724E-04   -0.28409E-04  8424   0.104E-03 0.129E-03
CGA:  12    -0.666683392889E+03   -0.74800E-05   -0.12874E-04  8424   0.841E-04 0.932E-04
