       N       E                     dE             d eps       ncg     rms          ort
DAV:   1     0.826240088497E+04    0.82624E+04   -0.24654E+05  8424   0.238E+03
DAV:   2     0.915938369797E+03   -0.73465E+04   -0.68954E+04  8424   0.656E+02
DAV:   3    -0.675079751093E+03   -0.15910E+04   -0.13988E+04  8424   0.282E+02
DAV:   4    -0.830451693533E+03   -0.15537E+03   -0.15268E+03  8424   0.855E+01
DAV:   5    -0.832930030910E+03   -0.24783E+01   -0.24677E+01  8424   0.121E+01
SDA:   6    -0.264388352457E+03    0.56854E+03   -0.24677E+01  8424   0.362E+04 0.000E+00
CGA:   7    -0.606486264423E+03   -0.34210E+03   -0.39788E+03  8424   0.503E+03 0.494E+02
CGA:   8    -0.633306742540E+03   -0.26820E+02   -0.32691E+02  8424   0.256E+03 0.287E+02
CGA:   9    -0.633945645158E+03   -0.63890E+00   -0.20007E+02  8424   0.523E+03-0.172E+02
CGA:  10    -0.650342798474E+03   -0.16397E+02   -0.19176E+02  8424   0.149E+03-0.877E+02
CGA:  11    -0.650481043226E+03   -0.13824E+00   -0.84779E+01  8424   0.169E+03-0.347E+02
CGA:  12    -0.652763695850E+03   -0.22827E+01   -0.79070E+01  8424   0.228E+03-0.708E+02
CGA:  13    -0.659635175258E+03   -0.68715E+01   -0.64214E+01  8424   0.102E+03-0.118E+02
CGA:  14    -0.659936673217E+03   -0.30150E+00   -0.61087E+01  8424   0.174E+03 0.732E+00
CGA:  15    -0.643190959379E+03    0.16746E+02   -0.73230E+01  8424   0.752E+03-0.105E+03
CGA:  16    -0.654677832840E+03   -0.11487E+02   -0.36891E+02  8424   0.356E+03-0.208E+03
CGA:  17    -0.656027078826E+03   -0.13492E+01   -0.16323E+02  8424   0.429E+03-0.179E+02
CGA:  18    -0.646299124171E+03    0.97280E+01   -0.22834E+02  8424   0.225E+03-0.945E+02
CGA:  19    -0.664346992605E+03   -0.18048E+02   -0.41516E+01  8424   0.360E+02 0.126E+03
CGA:  20    -0.665648796813E+03   -0.13018E+01   -0.10206E+01  8424   0.330E+02 0.143E+02
CGA:  21    -0.666483403884E+03   -0.83461E+00   -0.80244E+00  8424   0.454E+02-0.991E+02
CGA:  22    -0.666388956681E+03    0.94447E-01   -0.21579E+01  8424   0.332E+02-0.184E+02
CGA:  23    -0.667631104484E+03   -0.12421E+01   -0.95073E+00  8424   0.553E+01 0.786E+01
CGA:  24    -0.667762233871E+03   -0.13113E+00   -0.13416E+00  8424   0.184E+01-0.599E+00
CGA:  25    -0.667956122741E+03   -0.19389E+00   -0.58276E+00  8424   0.190E+02-0.166E+01
CGA:  26    -0.668070551738E+03   -0.11443E+00   -0.88030E+00  8424   0.122E+02-0.104E+02
CGA:  27    -0.668426147707E+03   -0.35560E+00   -0.25934E+00  8424   0.514E+00 0.229E+01
CGA:  28    -0.668442599371E+03   -0.16452E-01   -0.16059E-01  8424   0.355E+00 0.214E-01
CGA:  29    -0.668500926765E+03   -0.58327E-01   -0.55840E-01  8424   0.106E+01 0.361E-01
CGA:  30    -0.668548370952E+03   -0.47444E-01   -0.52423E-01  8424   0.509E+00-0.148E+00
CGA:  31    -0.668570725999E+03   -0.22355E-01   -0.22227E-01  8424   0.259E+00 0.103E-01
CGA:  32    -0.668603136368E+03   -0.32410E-01   -0.32893E-01  8424   0.498E+00-0.144E-01
CGA:  33    -0.668629578597E+03   -0.26442E-01   -0.28612E-01  8424   0.329E+00-0.333E-01
CGA:  34    -0.668670408441E+03   -0.40830E-01   -0.41496E-01  8424   0.194E+00-0.256E-01
CGA:  35    -0.668698845106E+03   -0.28437E-01   -0.38229E-01  8424   0.409E+00-0.876E-01
CGA:  36    -0.668717687918E+03   -0.18843E-01   -0.17487E-01  8424   0.428E+00-0.599E-01
CGA:  37    -0.668763236297E+03   -0.45548E-01   -0.55232E-01  8424   0.522E+00-0.196E+00
CGA:  38    -0.668785130040E+03   -0.21894E-01   -0.18526E-01  8424   0.579E+00-0.682E-01
CGA:  39    -0.668834272974E+03   -0.49143E-01   -0.48263E-01  8424   0.527E+00-0.980E-01
CGA:  40    -0.668881759193E+03   -0.47486E-01   -0.47579E-01  8424   0.392E+00-0.909E-01
CGA:  41    -0.668926009979E+03   -0.44251E-01   -0.48825E-01  8424   0.317E+00-0.106E+00
CGA:  42    -0.668960280813E+03   -0.34271E-01   -0.44048E-01  8424   0.304E+00-0.115E+00
CGA:  43    -0.668985646203E+03   -0.25365E-01   -0.27492E-01  8424   0.232E+00-0.717E-01
CGA:  44    -0.669010481295E+03   -0.24835E-01   -0.26412E-01  8424   0.183E+00-0.463E-01
CGA:  45    -0.669033579657E+03   -0.23098E-01   -0.24185E-01  8424   0.163E+00-0.223E-01
CGA:  46    -0.669054715322E+03   -0.21136E-01   -0.21087E-01  8424   0.131E+00 0.223E-02
CGA:  47    -0.669074020612E+03   -0.19305E-01   -0.18853E-01  8424   0.109E+00 0.214E-01
CGA:  48    -0.669092454588E+03   -0.18434E-01   -0.17828E-01  8424   0.801E-01 0.320E-01
CGA:  49    -0.669106884664E+03   -0.14430E-01   -0.14034E-01  8424   0.507E-01 0.303E-01
CGA:  50    -0.669117132043E+03   -0.10247E-01   -0.98072E-02  8424   0.367E-01 0.254E-01
CGA:  51    -0.669126480050E+03   -0.93480E-02   -0.83905E-02  8424   0.157E-01 0.915E-02
CGA:  52    -0.669132692781E+03   -0.62127E-02   -0.49060E-02  8424   0.823E-02 0.107E-01
CGA:  53    -0.669134557874E+03   -0.18651E-02   -0.15724E-02  8424   0.498E-02 0.524E-02
CGA:  54    -0.669135578689E+03   -0.10208E-02   -0.86552E-03  8424   0.399E-02 0.433E-02
CGA:  55    -0.669136369559E+03   -0.79087E-03   -0.68030E-03  8424   0.334E-02 0.362E-02
CGA:  56    -0.669136951482E+03   -0.58192E-03   -0.52931E-03  8424   0.287E-02 0.308E-02
CGA:  57    -0.669137404523E+03   -0.45304E-03   -0.43117E-03  8424   0.250E-02 0.267E-02
CGA:  58    -0.669137761273E+03   -0.35675E-03   -0.35680E-03  8424   0.221E-02 0.235E-02
CGA:  59    -0.669138049641E+03   -0.28837E-03   -0.30177E-03  8424   0.198E-02 0.209E-02
CGA:  60    -0.669138286980E+03   -0.23734E-03   -0.25929E-03  8424   0.179E-02 0.188E-02
CGA:  61    -0.669138485857E+03   -0.19888E-03   -0.22600E-03  8424   0.164E-02 0.171E-02
CGA:  62    -0.669138655138E+03   -0.16928E-03   -0.19937E-03  8424   0.150E-02 0.157E-02
CGA:  63    -0.669138801344E+03   -0.14621E-03   -0.17775E-03  8424   0.139E-02 0.144E-02
CGA:  64    -0.669138929345E+03   -0.12800E-03   -0.15998E-03  8424   0.129E-02 0.134E-02
CGA:  65    -0.669139042844E+03   -0.11350E-03   -0.14521E-03  8424   0.121E-02 0.125E-02
CGA:  66    -0.669139144700E+03   -0.10186E-03   -0.13281E-03  8424   0.113E-02 0.117E-02
CGA:  67    -0.669139237148E+03   -0.92447E-04   -0.12232E-03  8424   0.107E-02 0.110E-02
CGA:  68    -0.669139321952E+03   -0.84805E-04   -0.11337E-03  8424   0.101E-02 0.104E-02
CGA:  69    -0.669139400526E+03   -0.78574E-04   -0.10570E-03  8424   0.956E-03 0.981E-03
CGA:  70    -0.669139474009E+03   -0.73483E-04   -0.99072E-04  8424   0.909E-03 0.931E-03
CGA:  71    -0.669139543331E+03   -0.69321E-04   -0.93325E-04  8424   0.866E-03 0.887E-03
CGA:  72    -0.669139609259E+03   -0.65928E-04   -0.88321E-04  8424   0.828E-03 0.846E-03
CGA:  73    -0.669139672436E+03   -0.63177E-04   -0.83950E-04  8424   0.792E-03 0.809E-03
CGA:  74    -0.669139733406E+03   -0.60970E-04   -0.80124E-04  8424   0.760E-03 0.776E-03
CGA:  75    -0.669139792634E+03   -0.59229E-04   -0.76772E-04  8424   0.730E-03 0.744E-03
CGA:  76    -0.669139850531E+03   -0.57896E-04   -0.73838E-04  8424   0.703E-03 0.716E-03
CGA:  77    -0.669139907451E+03   -0.56921E-04   -0.71271E-04  8424   0.677E-03 0.689E-03
CGA:  78    -0.669139963731E+03   -0.56280E-04   -0.69040E-04  8424   0.653E-03 0.664E-03
CGA:  79    -0.669140019643E+03   -0.55912E-04   -0.67096E-04  8424   0.630E-03 0.641E-03
CGA:  80    -0.669140075431E+03   -0.55789E-04   -0.65415E-04  8424   0.611E-03 0.618E-03
CGA:  81    -0.669140129999E+03   -0.54568E-04   -0.63362E-04  8424   0.616E-03 0.588E-03
CGA:  82    -0.669140175873E+03   -0.45874E-04   -0.57968E-04  8424   0.738E-03 0.507E-03
CGA:  83    -0.669140207662E+03   -0.31789E-04   -0.49142E-04  8424   0.826E-03 0.345E-03
CGA:  84    -0.669140323274E+03   -0.11561E-03   -0.12669E-03  8424   0.702E-03 0.115E-02
CGA:  85    -0.669140362386E+03   -0.39112E-04   -0.52257E-04  8424   0.688E-03 0.334E-03
CGA:  86    -0.669140472388E+03   -0.11000E-03   -0.11169E-03  8424   0.690E-03 0.972E-03
CGA:  87    -0.669140519131E+03   -0.46743E-04   -0.56235E-04  8424   0.596E-03 0.314E-03
CGA:  88    -0.669140626808E+03   -0.10768E-03   -0.10167E-03  8424   0.678E-03 0.825E-03
CGA:  89    -0.669140683529E+03   -0.56721E-04   -0.62246E-04  8424   0.532E-03 0.294E-03
CGA:  90    -0.669140796258E+03   -0.11273E-03   -0.98506E-04  8424   0.646E-03 0.718E-03
CGA:  91    -0.669140864989E+03   -0.68731E-04   -0.69512E-04  8424   0.493E-03 0.273E-03
CGA:  92    -0.669140996138E+03   -0.13115E-03   -0.10527E-03  8424   0.622E-03 0.645E-03
CGA:  93    -0.669141075870E+03   -0.79732E-04   -0.77032E-04  8424   0.506E-03 0.232E-03
CGA:  94    -0.669141221508E+03   -0.14564E-03   -0.11627E-03  8424   0.735E-03 0.533E-03
CGA:  95    -0.669141306389E+03   -0.84881E-04   -0.84903E-04  8424   0.600E-03 0.133E-03
CGA:  96    -0.669141451105E+03   -0.14472E-03   -0.12357E-03  8424   0.802E-03 0.352E-03
CGA:  97    -0.669141571528E+03   -0.12042E-03   -0.11765E-03  8424   0.556E-03 0.969E-04
CGA:  98    -0.669141728976E+03   -0.15745E-03   -0.13634E-03  8424   0.103E-02 0.206E-03
CGA:  99    -0.669143533480E+03   -0.18045E-02   -0.15896E-02  8424   0.157E-02 0.838E-03
CGA: 100    -0.669143693774E+03   -0.16029E-03   -0.14691E-03  8424   0.428E-03-0.167E-03
CGA: 101    -0.669143908816E+03   -0.21504E-03    0.15562E-03  8424   0.414E-03 0.157E-03
CGA: 102    -0.669144287894E+03   -0.37908E-03    0.12207E-03  8424   0.384E-03 0.383E-03
CGA: 103    -0.669142390119E+03    0.18978E-02   -0.10350E-02  8424   0.282E-01-0.162E-02
CGA: 104    -0.669145055286E+03   -0.26652E-02   -0.30522E-02  8424   0.345E-02-0.214E-02
CGA: 105    -0.669145452757E+03   -0.39747E-03   -0.42569E-03  8424   0.945E-03-0.348E-03
CGA: 106    -0.669145679513E+03   -0.22676E-03   -0.19797E-03  8424   0.755E-03-0.236E-03
CGA: 107    -0.669146184703E+03   -0.50519E-03    0.50064E-03  8424   0.704E-03 0.174E-03
CGA: 108    -0.669146885653E+03   -0.70095E-03    0.16327E-02  8424   0.993E-03 0.111E-03
CGA: 109    -0.669148189908E+03   -0.13043E-02    0.39357E-03  8424   0.762E-03 0.638E-03
CGA: 110    -0.669148433372E+03   -0.24346E-03   -0.22387E-03  8424   0.661E-03-0.264E-03
CGA: 111    -0.669148849823E+03   -0.41645E-03    0.24420E-03  8424   0.713E-03 0.360E-04
CGA: 112    -0.669149653738E+03   -0.80391E-03    0.29586E-03  8424   0.629E-03 0.335E-03
CGA: 113    -0.669150630540E+03   -0.97680E-03    0.37778E-03  8424   0.546E-03 0.326E-03
CGA: 114    -0.669150816857E+03   -0.18632E-03   -0.30085E-03  8424   0.183E-02-0.619E-03
CGA: 115    -0.669151227575E+03   -0.41072E-03   -0.37765E-03  8424   0.294E-03-0.197E-03
CGA: 116    -0.669151549513E+03   -0.32194E-03    0.71066E-04  8424   0.278E-03 0.117E-03
CGA: 117    -0.669152096765E+03   -0.54725E-03    0.76880E-04  8424   0.300E-03 0.252E-03
CGA: 118    -0.669152357580E+03   -0.26082E-03    0.29516E-03  8424   0.459E-03-0.196E-04
CGA: 119    -0.669152995417E+03   -0.63784E-03    0.76026E-04  8424   0.561E-03 0.208E-03
CGA: 120    -0.669154171019E+03   -0.11756E-02    0.15354E-03  8424   0.476E-03 0.593E-03
CGA: 121    -0.669154342032E+03   -0.17101E-03   -0.19089E-03  8424   0.205E-02-0.569E-03
CGA: 122    -0.669154629446E+03   -0.28741E-03   -0.25613E-03  8424   0.207E-03-0.130E-03
CGA: 123    -0.669154922921E+03   -0.29348E-03    0.30675E-04  8424   0.190E-03 0.151E-03
CGA: 124    -0.669155223892E+03   -0.30097E-03    0.27687E-04  8424   0.343E-03 0.720E-04
CGA: 125    -0.669156014703E+03   -0.79081E-03    0.62253E-04  8424   0.182E-03 0.434E-03
CGA: 126    -0.669156266179E+03   -0.25148E-03    0.34545E-04  8424   0.245E-03 0.105E-03
CGA: 127    -0.669156578535E+03   -0.31236E-03    0.54782E-04  8424   0.520E-03-0.281E-04
CGA: 128    -0.669157469346E+03   -0.89081E-03    0.47563E-04  8424   0.649E-03 0.439E-03
CGA: 129    -0.669157605516E+03   -0.13617E-03   -0.12068E-03  8424   0.298E-03-0.927E-04
CGA: 130    -0.669158047114E+03   -0.44160E-03    0.29641E-04  8424   0.221E-03 0.206E-03
CGA: 131    -0.669158356807E+03   -0.30969E-03    0.37569E-04  8424   0.258E-03 0.751E-04
CGA: 132    -0.669158974020E+03   -0.61721E-03    0.38251E-04  8424   0.251E-03 0.300E-03
CGA: 133    -0.669159277699E+03   -0.30368E-03    0.58421E-04  8424   0.198E-03 0.888E-04
CGA: 134    -0.669159802721E+03   -0.52502E-03    0.25385E-04  8424   0.231E-03 0.252E-03
CGA: 135    -0.669160112323E+03   -0.30960E-03    0.42975E-04  8424   0.185E-03 0.111E-03
CGA: 136    -0.669160652070E+03   -0.53975E-03    0.25791E-04  8424   0.228E-03 0.240E-03
CGA: 137    -0.669160952458E+03   -0.30039E-03    0.44041E-04  8424   0.207E-03 0.109E-03
CGA: 138    -0.669161536738E+03   -0.58428E-03    0.30214E-04  8424   0.248E-03 0.234E-03
CGA: 139    -0.669161838437E+03   -0.30170E-03    0.57146E-04  8424   0.255E-03 0.869E-04
CGA: 140    -0.669162472678E+03   -0.63424E-03    0.36169E-04  8424   0.288E-03 0.218E-03
CGA: 141    -0.669162775844E+03   -0.30317E-03    0.97245E-04  8424   0.293E-03 0.642E-04
CGA: 142    -0.669163408848E+03   -0.63300E-03    0.40112E-04  8424   0.346E-03 0.174E-03
CGA: 143    -0.669163722046E+03   -0.31320E-03    0.19786E-03  8424   0.375E-03 0.196E-04
CGA: 144    -0.669164380767E+03   -0.65872E-03    0.49430E-04  8424   0.441E-03 0.114E-03
CGA: 145    -0.669165527336E+03   -0.11466E-02    0.53063E-04  8424   0.378E-03 0.550E-03
CGA: 146    -0.669165813222E+03   -0.28589E-03    0.73259E-03  8424   0.604E-03-0.701E-04
CGA: 147    -0.669166628207E+03   -0.81499E-03    0.61659E-04  8424   0.589E-03 0.989E-04
CGA: 148    -0.669167857004E+03   -0.12288E-02    0.75258E-04  8424   0.971E-03 0.392E-03
CGA: 149    -0.669168071334E+03   -0.21433E-03   -0.18326E-03  8424   0.494E-03-0.197E-03
CGA: 150    -0.669168620511E+03   -0.54918E-03    0.63225E-04  8424   0.233E-03 0.136E-03
CGA: 151    -0.669169215759E+03   -0.59525E-03    0.25770E-04  8424   0.314E-03 0.234E-03
CGA: 152    -0.669169475008E+03   -0.25925E-03    0.24318E-03  8424   0.693E-03-0.983E-04
CGA: 153    -0.669170497001E+03   -0.10220E-02    0.37257E-04  8424   0.106E-02 0.307E-03
CGA: 154    -0.669172422887E+03   -0.19259E-02    0.30570E-03  8424   0.320E-02-0.449E-03
CGA: 155    -0.669178178343E+03   -0.57555E-02    0.87052E-04  8424   0.161E-01 0.123E-03
CGA: 156    -0.669222075617E+03   -0.43897E-01    0.98892E-03  8424   0.113E-01 0.107E-01
CGA: 157    -0.669223337354E+03   -0.12617E-02   -0.13259E-02  8424   0.774E-03 0.309E-03
CGA: 158    -0.669223859021E+03   -0.52167E-03    0.38940E+00  8424   0.356E-03-0.417E-04
CGA: 159    -0.669224477817E+03   -0.61880E-03    0.30725E-04  8424   0.333E-03 0.209E-03
CGA: 160    -0.669224862024E+03   -0.38421E-03    0.72167E-04  8424   0.285E-03 0.105E-03
CGA: 161    -0.669225646491E+03   -0.78447E-03    0.27937E-04  8424   0.299E-03 0.228E-03
CGA: 162    -0.669226049964E+03   -0.40347E-03    0.46499E-04  8424   0.261E-03 0.116E-03
CGA: 163    -0.669226821670E+03   -0.77171E-03    0.26552E-04  8424   0.297E-03 0.231E-03
CGA: 164    -0.669227232063E+03   -0.41039E-03    0.43862E-04  8424   0.287E-03 0.997E-04
CGA: 165    -0.669228056637E+03   -0.82457E-03    0.27533E-04  8424   0.312E-03 0.232E-03
CGA: 166    -0.669228475209E+03   -0.41857E-03    0.48980E-04  8424   0.285E-03 0.940E-04
CGA: 167    -0.669229278912E+03   -0.80370E-03    0.26404E-04  8424   0.330E-03 0.210E-03
CGA: 168    -0.669229696083E+03   -0.41717E-03    0.58406E-04  8424   0.333E-03 0.680E-04
CGA: 169    -0.669230549982E+03   -0.85390E-03    0.29450E-04  8424   0.366E-03 0.192E-03
CGA: 170    -0.669230982450E+03   -0.43247E-03    0.75209E-04  8424   0.334E-03 0.592E-04
CGA: 171    -0.669231796549E+03   -0.81410E-03    0.28920E-04  8424   0.404E-03 0.150E-03
CGA: 172    -0.669233243869E+03   -0.14473E-02    0.34636E-04  8424   0.345E-03 0.570E-03
CGA: 173    -0.669233654756E+03   -0.41089E-03    0.69483E-04  8424   0.463E-03 0.100E-04
CGA: 174    -0.669234670980E+03   -0.10162E-02    0.34763E-04  8424   0.409E-03 0.189E-03
CGA: 175    -0.669236057525E+03   -0.13865E-02    0.35261E-04  8424   0.453E-03 0.491E-03
CGA: 176    -0.669236406022E+03   -0.34850E-03    0.43220E-03  8424   0.944E-03-0.230E-03
CGA: 177    -0.669236723287E+03   -0.31727E-03   -0.28811E-03  8424   0.285E-02-0.127E-02
CGA: 178    -0.669237087613E+03   -0.36433E-03   -0.33498E-03  8424   0.196E-03-0.136E-03
CGA: 179    -0.669237557304E+03   -0.46969E-03    0.99449E-05  8424   0.163E-03 0.171E-03
CGA: 180    -0.669237982814E+03   -0.42551E-03    0.82866E-05  8424   0.167E-03 0.159E-03
CGA: 181    -0.669238418448E+03   -0.43563E-03    0.84217E-05  8424   0.183E-03 0.151E-03
CGA: 182    -0.669238826094E+03   -0.40765E-03    0.11559E-04  8424   0.264E-03 0.113E-03
CGA: 183    -0.669239250691E+03   -0.42460E-03    0.27189E-04  8424   0.652E-03-0.646E-04
CGA: 184    -0.669240716969E+03   -0.14663E-02    0.21039E-04  8424   0.114E-02 0.462E-03
CGA: 185    -0.669240947125E+03   -0.23016E-03   -0.17215E-03  8424   0.429E-03-0.352E-03
CGA: 186    -0.669241568150E+03   -0.62102E-03    0.19047E-04  8424   0.165E-03 0.222E-03
CGA: 187    -0.669241998681E+03   -0.43053E-03    0.78089E-05  8424   0.173E-03 0.147E-03
CGA: 188    -0.669242402503E+03   -0.40382E-03    0.96135E-05  8424   0.214E-03 0.127E-03
CGA: 189    -0.669242841187E+03   -0.43868E-03    0.14161E-04  8424   0.393E-03 0.411E-04
CGA: 190    -0.669244053065E+03   -0.12119E-02    0.22516E-04  8424   0.273E-03 0.448E-03
CGA: 191    -0.669244405062E+03   -0.35200E-03    0.38375E-04  8424   0.537E-03-0.500E-04
CGA: 192    -0.669245640484E+03   -0.12354E-02    0.18925E-04  8424   0.696E-03 0.364E-03
CGA: 193    -0.669246086507E+03   -0.44602E-03    0.27141E-02  8424   0.142E-02-0.616E-03
CGA: 194    -0.669246332477E+03   -0.24597E-03   -0.20593E-03  8424   0.316E-03-0.245E-03
CGA: 195    -0.669246872538E+03   -0.54006E-03    0.16122E-04  8424   0.215E-03 0.135E-03
CGA: 196    -0.669247648314E+03   -0.77578E-03    0.14369E-04  8424   0.185E-03 0.261E-03
CGA: 197    -0.669248027671E+03   -0.37936E-03    0.11474E-04  8424   0.230E-03 0.989E-04
CGA: 198    -0.669248479517E+03   -0.45185E-03    0.15239E-04  8424   0.377E-03 0.147E-04
CGA: 199    -0.669249579089E+03   -0.10996E-02    0.16838E-04  8424   0.343E-03 0.389E-03
CGA: 200    -0.669249881947E+03   -0.30286E-03    0.10857E-03  8424   0.636E-03-0.158E-03
   1 F= -.66924988E+03 E0= -.66924988E+03  d E =-.669250E+03  mag=     2.0000
       N       E                     dE             d eps       ncg     rms          ort
SDA:   1    -0.669259108912E+03   -0.95298E-02    0.00000E+00  8424   0.189E-01 0.000E+00
CGA:   2    -0.669261858573E+03   -0.27497E-02   -0.28005E-02  8424   0.563E-02 0.368E-03
CGA:   3    -0.669263619395E+03   -0.17608E-02   -0.17906E-02  8424   0.365E-02-0.152E-02
CGA:   4    -0.669264394167E+03   -0.77477E-03   -0.75466E-03  8424   0.301E-02-0.199E-02
CGA:   5    -0.669264949651E+03   -0.55548E-03   -0.46958E-03  8424   0.130E-02-0.628E-03
CGA:   6    -0.669265659793E+03   -0.71014E-03    0.72683E-03  8424   0.538E-03-0.136E-03
CGA:   7    -0.669266333291E+03   -0.67350E-03    0.47831E-04  8424   0.435E-03 0.130E-04
CGA:   8    -0.669267241844E+03   -0.90855E-03    0.24780E-04  8424   0.318E-03 0.226E-03
CGA:   9    -0.669267632841E+03   -0.39100E-03    0.39526E-04  8424   0.259E-03 0.496E-04
CGA:  10    -0.669268353235E+03   -0.72039E-03    0.13393E-04  8424   0.229E-03 0.194E-03
CGA:  11    -0.669268757804E+03   -0.40457E-03    0.15679E-04  8424   0.167E-03 0.987E-04
CGA:  12    -0.669269437569E+03   -0.67977E-03    0.86139E-05  8424   0.191E-03 0.199E-03
CGA:  13    -0.669269828731E+03   -0.39116E-03    0.10583E-04  8424   0.149E-03 0.118E-03
CGA:  14    -0.669270229959E+03   -0.40123E-03    0.57662E-05  8424   0.166E-03 0.113E-03
CGA:  15    -0.669270594852E+03   -0.36489E-03    0.83814E-05  8424   0.224E-03 0.792E-04
CGA:  16    -0.669271525470E+03   -0.93062E-03    0.12031E-04  8424   0.152E-03 0.318E-03
CGA:  17    -0.669271925863E+03   -0.40039E-03    0.60735E-05  8424   0.185E-03 0.990E-04
CGA:  18    -0.669272278847E+03   -0.35298E-03    0.11261E-04  8424   0.286E-03 0.404E-04
CGA:  19    -0.669273284178E+03   -0.10053E-02    0.12381E-04  8424   0.215E-03 0.341E-03
CGA:  20    -0.669273686971E+03   -0.40279E-03    0.13507E-04  8424   0.365E-03-0.109E-04
CGA:  21    -0.669274728305E+03   -0.10413E-02    0.11652E-04  8424   0.379E-03 0.332E-03
CGA:  22    -0.669275023869E+03   -0.29556E-03    0.14870E-03  8424   0.749E-03-0.258E-03
CGA:  23    -0.669273338358E+03    0.16855E-02   -0.63336E-03  8424   0.300E-01-0.414E-02
CGA:  24    -0.669276388078E+03   -0.30497E-02   -0.31165E-02  8424   0.228E-03 0.468E-03
CGA:  25    -0.669276787647E+03   -0.39957E-03    0.19107E-04  8424   0.241E-03 0.121E-04
CGA:  26    -0.669277630304E+03   -0.84266E-03    0.86085E-05  8424   0.269E-03 0.237E-03
CGA:  27    -0.669278034787E+03   -0.40448E-03    0.27602E-04  8424   0.215E-03 0.807E-05
CGA:  28    -0.669278761501E+03   -0.72671E-03    0.75955E-05  8424   0.220E-03 0.207E-03
CGA:  29    -0.669279172445E+03   -0.41094E-03    0.16135E-04  8424   0.155E-03 0.651E-04
CGA:  30    -0.669279854492E+03   -0.68205E-03    0.66065E-05  8424   0.177E-03 0.192E-03
CGA:  31    -0.669280262451E+03   -0.40796E-03    0.95546E-05  8424   0.131E-03 0.957E-04
CGA:  32    -0.669280662600E+03   -0.40015E-03    0.49346E-05  8424   0.122E-03 0.114E-03
CGA:  33    -0.669281060173E+03   -0.39757E-03    0.42144E-05  8424   0.120E-03 0.117E-03
CGA:  34    -0.669281459743E+03   -0.39957E-03    0.40251E-05  8424   0.119E-03 0.118E-03
CGA:  35    -0.669281855471E+03   -0.39573E-03    0.40245E-05  8424   0.119E-03 0.117E-03
CGA:  36    -0.669282256326E+03   -0.40086E-03    0.39554E-05  8424   0.119E-03 0.116E-03
CGA:  37    -0.669282648838E+03   -0.39251E-03    0.41055E-05  8424   0.122E-03 0.114E-03
CGA:  38    -0.669283052059E+03   -0.40322E-03    0.41528E-05  8424   0.130E-03 0.109E-03
CGA:  39    -0.669283435021E+03   -0.38296E-03    0.50820E-05  8424   0.154E-03 0.944E-04
CGA:  40    -0.669283839644E+03   -0.40462E-03    0.70384E-05  8424   0.234E-03 0.495E-04
CGA:  41    -0.669284844070E+03   -0.10044E-02    0.10779E-04  8424   0.156E-03 0.300E-03
CGA:  42    -0.669285205875E+03   -0.36180E-03    0.84272E-05  8424   0.253E-03 0.390E-04
CGA:  43    -0.669286247480E+03   -0.10416E-02    0.10837E-04  8424   0.173E-03 0.308E-03
CGA:  44    -0.669286649239E+03   -0.40176E-03    0.93233E-05  8424   0.326E-03 0.541E-06
CGA:  45    -0.669287781974E+03   -0.11327E-02    0.10581E-04  8424   0.315E-03 0.322E-03
CGA:  46    -0.669288064679E+03   -0.28270E-03    0.10033E-03  8424   0.854E-03-0.272E-03
CGA:  47    -0.669288319730E+03   -0.25505E-03   -0.26565E-03  8424   0.319E-02-0.139E-02
CGA:  48    -0.669288701829E+03   -0.38210E-03   -0.35216E-03  8424   0.134E-03-0.150E-03
CGA:  49    -0.669289100887E+03   -0.39906E-03    0.43755E-05  8424   0.119E-03 0.107E-03
CGA:  50    -0.669289465580E+03   -0.36469E-03    0.41354E-05  8424   0.138E-03 0.942E-04
CGA:  51    -0.669289842844E+03   -0.37726E-03    0.55707E-05  8424   0.209E-03 0.564E-04
CGA:  52    -0.669290785410E+03   -0.94257E-03    0.97648E-05  8424   0.130E-03 0.280E-03
CGA:  53    -0.669291141710E+03   -0.35630E-03    0.52328E-05  8424   0.164E-03 0.737E-04
CGA:  54    -0.669291516681E+03   -0.37497E-03    0.83861E-05  8424   0.275E-03 0.119E-04
CGA:  55    -0.669292504277E+03   -0.98760E-03    0.92372E-05  8424   0.246E-03 0.282E-03
CGA:  56    -0.669292827214E+03   -0.32294E-03    0.29479E-04  8424   0.423E-03-0.983E-04
CGA:  57    -0.669293788471E+03   -0.96126E-03    0.68895E-05  8424   0.647E-03 0.193E-03
CGA:  58    -0.669295731029E+03   -0.19426E-02    0.55566E-04  8424   0.815E-03 0.132E-03
CGA:  59    -0.669298489284E+03   -0.27583E-02    0.38162E-04  8424   0.669E-03 0.542E-03
CGA:  60    -0.669294284691E+03    0.42046E-02   -0.94713E-03  8424   0.372E-01-0.460E-02
CGA:  61    -0.669300422092E+03   -0.61374E-02   -0.60177E-02  8424   0.568E-03-0.669E-03
CGA:  62    -0.669300402904E+03    0.19189E-04   -0.31673E-03  8424   0.600E-02-0.148E-02
CGA:  63    -0.669301301700E+03   -0.89880E-03   -0.78022E-03  8424   0.242E-03-0.547E-03
CGA:  64    -0.669301682042E+03   -0.38034E-03    0.24537E-04  8424   0.332E-03-0.415E-04
CGA:  65    -0.669302686811E+03   -0.10048E-02    0.10786E-04  8424   0.215E-03 0.220E-03
CGA:  66    -0.669303098473E+03   -0.41166E-03    0.20222E-04  8424   0.242E-03-0.830E-05
CGA:  67    -0.669303920699E+03   -0.82223E-03    0.95120E-05  8424   0.261E-03 0.130E-03
CGA:  68    -0.669304359833E+03   -0.43913E-03    0.30277E-04  8424   0.177E-03 0.836E-05
CGA:  69    -0.669304996558E+03   -0.63673E-03    0.75680E-05  8424   0.200E-03 0.112E-03
CGA:  70    -0.669305429846E+03   -0.43329E-03    0.15619E-04  8424   0.202E-03 0.265E-04
CGA:  71    -0.669306187636E+03   -0.75779E-03    0.10131E-04  8424   0.211E-03 0.113E-03
CGA:  72    -0.669306615965E+03   -0.42833E-03    0.18222E-04  8424   0.159E-03 0.443E-04
CGA:  73    -0.669307271806E+03   -0.65584E-03    0.81978E-05  8424   0.195E-03 0.103E-03
CGA:  74    -0.669307697745E+03   -0.42594E-03    0.15192E-04  8424   0.218E-03 0.216E-04
CGA:  75    -0.669308489536E+03   -0.79179E-03    0.10922E-04  8424   0.214E-03 0.115E-03
CGA:  76    -0.669308914440E+03   -0.42490E-03    0.19059E-04  8424   0.135E-03 0.537E-04
CGA:  77    -0.669309520259E+03   -0.60582E-03    0.67560E-05  8424   0.173E-03 0.107E-03
CGA:  78    -0.669309937433E+03   -0.41717E-03    0.11671E-04  8424   0.197E-03 0.352E-04
CGA:  79    -0.669310736324E+03   -0.79889E-03    0.10316E-04  8424   0.187E-03 0.134E-03
CGA:  80    -0.669311149896E+03   -0.41357E-03    0.14208E-04  8424   0.121E-03 0.647E-04
CGA:  81    -0.669311760338E+03   -0.61044E-03    0.61709E-05  8424   0.155E-03 0.120E-03
CGA:  82    -0.669312169371E+03   -0.40903E-03    0.91723E-05  8424   0.158E-03 0.557E-04
CGA:  83    -0.669312917902E+03   -0.74853E-03    0.88764E-05  8424   0.163E-03 0.140E-03
CGA:  84    -0.669313323408E+03   -0.40551E-03    0.10468E-04  8424   0.135E-03 0.627E-04
CGA:  85    -0.669313994631E+03   -0.67122E-03    0.74636E-05  8424   0.163E-03 0.127E-03
CGA:  86    -0.669314401734E+03   -0.40710E-03    0.10499E-04  8424   0.164E-03 0.492E-04
CGA:  87    -0.669315133438E+03   -0.73170E-03    0.89969E-05  8424   0.176E-03 0.131E-03
CGA:  88    -0.669315538763E+03   -0.40532E-03    0.12633E-04  8424   0.149E-03 0.525E-04
CGA:  89    -0.669316205874E+03   -0.66711E-03    0.81158E-05  8424   0.181E-03 0.117E-03
CGA:  90    -0.669316613727E+03   -0.40785E-03    0.13368E-04  8424   0.186E-03 0.346E-04
CGA:  91    -0.669317343000E+03   -0.72927E-03    0.98445E-05  8424   0.200E-03 0.117E-03
CGA:  92    -0.669317750598E+03   -0.40760E-03    0.17072E-04  8424   0.157E-03 0.426E-04
CGA:  93    -0.669318386117E+03   -0.63552E-03    0.83985E-05  8424   0.198E-03 0.102E-03
CGA:  94    -0.669318794522E+03   -0.40840E-03    0.16795E-04  8424   0.220E-03 0.149E-04
CGA:  95    -0.669319543979E+03   -0.74946E-03    0.11103E-04  8424   0.226E-03 0.106E-03
CGA:  96    -0.669320735423E+03   -0.11914E-02    0.13576E-04  8424   0.208E-03 0.302E-03
CGA:  97    -0.669321132790E+03   -0.39737E-03    0.19739E-04  8424   0.370E-03-0.510E-04
CGA:  98    -0.669322123258E+03   -0.99047E-03    0.11362E-04  8424   0.410E-03 0.144E-03
CGA:  99    -0.669323530420E+03   -0.14072E-02    0.36947E-04  8424   0.101E-02 0.362E-04
CGA: 100    -0.669327620251E+03   -0.40898E-02    0.42296E-04  8424   0.189E-02 0.696E-03
CGA: 101    -0.669328057366E+03   -0.43711E-03   -0.31829E-03  8424   0.531E-03-0.690E-03
CGA: 102    -0.669328501663E+03   -0.44430E-03    0.57031E-04  8424   0.186E-03 0.101E-04
CGA: 103    -0.669329042159E+03   -0.54050E-03    0.96196E-05  8424   0.121E-03 0.118E-03
CGA: 104    -0.669329362117E+03   -0.31996E-03    0.67629E-05  8424   0.192E-03 0.459E-04
CGA: 105    -0.669330286261E+03   -0.92414E-03    0.10320E-04  8424   0.117E-03 0.243E-03
CGA: 106    -0.669330651363E+03   -0.36510E-03    0.52834E-05  8424   0.134E-03 0.703E-04
CGA: 107    -0.669330959262E+03   -0.30790E-03    0.90123E-05  8424   0.241E-03 0.209E-04
CGA: 108    -0.669331952856E+03   -0.99359E-03    0.10630E-04  8424   0.181E-03 0.264E-03
CGA: 109    -0.669332327017E+03   -0.37416E-03    0.14252E-04  8424   0.345E-03-0.426E-04
CGA: 110    -0.669333314434E+03   -0.98742E-03    0.94739E-05  8424   0.463E-03 0.196E-03
CGA: 111    -0.669333090685E+03    0.22375E-03   -0.34335E-03  8424   0.668E-02-0.139E-02
CGA: 112    -0.669334239733E+03   -0.11490E-02   -0.97389E-03  8424   0.603E-03-0.864E-03
CGA: 113    -0.669333510504E+03    0.72923E-03   -0.49298E-03  8424   0.128E-01-0.205E-02
CGA: 114    -0.669335409444E+03   -0.18989E-02   -0.17232E-02  8424   0.735E-03-0.787E-03
CGA: 115    -0.669335627369E+03   -0.21792E-03   -0.32946E-03  8424   0.222E-02-0.955E-03
CGA: 116    -0.669336177203E+03   -0.54983E-03   -0.42931E-03  8424   0.682E-03-0.702E-03
CGA: 117    -0.669336577554E+03   -0.40035E-03    0.41663E-03  8424   0.683E-03-0.288E-03
CGA: 118    -0.669337533389E+03   -0.95583E-03    0.29606E-04  8424   0.177E-03 0.250E-03
CGA: 119    -0.669338145532E+03   -0.61214E-03    0.17004E-04  8424   0.287E-03 0.382E-04
CGA: 120    -0.669339418265E+03   -0.12727E-02    0.15244E-04  8424   0.392E-03 0.185E-03
CGA: 121    -0.669339842877E+03   -0.42461E-03    0.13670E-03  8424   0.159E-03-0.316E-04
CGA: 122    -0.669340375535E+03   -0.53266E-03    0.64105E-05  8424   0.160E-03 0.114E-03
CGA: 123    -0.669340724330E+03   -0.34880E-03    0.13949E-04  8424   0.171E-03 0.441E-04
CGA: 124    -0.669341494243E+03   -0.76991E-03    0.99607E-05  8424   0.177E-03 0.136E-03
CGA: 125    -0.669341865447E+03   -0.37120E-03    0.16375E-04  8424   0.137E-03 0.526E-04
CGA: 126    -0.669342521646E+03   -0.65620E-03    0.75827E-05  8424   0.174E-03 0.117E-03
CGA: 127    -0.669342870989E+03   -0.34934E-03    0.17109E-04  8424   0.184E-03 0.336E-04
CGA: 128    -0.669343630139E+03   -0.75915E-03    0.10206E-04  8424   0.197E-03 0.120E-03
CGA: 129    -0.669343998450E+03   -0.36831E-03    0.21851E-04  8424   0.152E-03 0.389E-04
CGA: 130    -0.669344651629E+03   -0.65318E-03    0.80960E-05  8424   0.196E-03 0.101E-03
CGA: 131    -0.669344994303E+03   -0.34267E-03    0.24278E-04  8424   0.222E-03 0.951E-05
CGA: 132    -0.669345772781E+03   -0.77848E-03    0.11374E-04  8424   0.233E-03 0.997E-04
CGA: 133    -0.669346983816E+03   -0.12110E-02    0.15010E-04  8424   0.206E-03 0.300E-03
CGA: 134    -0.669347288391E+03   -0.30458E-03    0.34592E-04  8424   0.397E-03-0.695E-04
CGA: 135    -0.669348303089E+03   -0.10147E-02    0.10697E-04  8424   0.531E-03 0.125E-03
CGA: 136    -0.669350075905E+03   -0.17728E-02    0.48808E-04  8424   0.139E-02-0.821E-04
CGA: 137    -0.669355041068E+03   -0.49652E-02    0.43027E-04  8424   0.363E-02 0.558E-03
CGA: 138    -0.669368624448E+03   -0.13583E-01    0.33136E-03  8424   0.654E-02-0.154E-02
CGA: 139    -0.669396011183E+03   -0.27387E-01    0.73059E-04  8424   0.116E-01-0.108E-02
CGA: 140    -0.669445919743E+03   -0.49909E-01    0.27834E-03  8424   0.202E-01-0.322E-01
CGA: 141    -0.669447749794E+03   -0.18301E-02   -0.22497E-02  8424   0.101E-02 0.184E-02
CGA: 142    -0.669447616099E+03    0.13369E-03   -0.92601E-04  8424   0.764E-03 0.867E-03
CGA: 143    -0.669447495983E+03    0.12012E-03   -0.59410E-04  8424   0.654E-03 0.705E-03
CGA: 144    -0.669447381706E+03    0.11428E-03   -0.43872E-04  8424   0.598E-03 0.626E-03
CGA: 145    -0.669447274715E+03    0.10699E-03   -0.36149E-04  8424   0.561E-03 0.580E-03
CGA: 146    -0.669447174504E+03    0.10021E-03   -0.31145E-04  8424   0.535E-03 0.549E-03
CGA: 147    -0.669447080439E+03    0.94065E-04   -0.27508E-04  8424   0.515E-03 0.525E-03
CGA: 148    -0.669446991949E+03    0.88490E-04   -0.24685E-04  8424   0.498E-03 0.507E-03
CGA: 149    -0.669446908545E+03    0.83404E-04   -0.22396E-04  8424   0.485E-03 0.492E-03
CGA: 150    -0.669446829810E+03    0.78735E-04   -0.20479E-04  8424   0.473E-03 0.479E-03
CGA: 151    -0.669446755384E+03    0.74426E-04   -0.18838E-04  8424   0.463E-03 0.468E-03
CGA: 152    -0.669446684953E+03    0.70431E-04   -0.17409E-04  8424   0.454E-03 0.459E-03
CGA: 153    -0.669446618237E+03    0.66715E-04   -0.16149E-04  8424   0.447E-03 0.450E-03
CGA: 154    -0.669446554988E+03    0.63249E-04   -0.15026E-04  8424   0.440E-03 0.443E-03
CGA: 155    -0.669446494981E+03    0.60007E-04   -0.14018E-04  8424   0.434E-03 0.436E-03
CGA: 156    -0.669446438011E+03    0.56970E-04   -0.13108E-04  8424   0.428E-03 0.431E-03
CGA: 157    -0.669446383877E+03    0.54133E-04   -0.12290E-04  8424   0.424E-03 0.425E-03
CGA: 158    -0.669446332387E+03    0.51491E-04   -0.11557E-04  8424   0.419E-03 0.421E-03
CGA: 159    -0.669446283376E+03    0.49011E-04   -0.10890E-04  8424   0.416E-03 0.417E-03
CGA: 160    -0.669446236703E+03    0.46673E-04   -0.10275E-04  8424   0.413E-03 0.414E-03
CGA: 161    -0.669446192238E+03    0.44465E-04   -0.97050E-05  8424   0.409E-03 0.410E-03
CGA: 162    -0.669446149863E+03    0.42376E-04   -0.91761E-05  8424   0.407E-03 0.408E-03
CGA: 163    -0.669446109466E+03    0.40396E-04   -0.86826E-05  8424   0.404E-03 0.405E-03
CGA: 164    -0.669446070945E+03    0.38522E-04   -0.82234E-05  8424   0.402E-03 0.402E-03
CGA: 165    -0.669446034200E+03    0.36744E-04   -0.77942E-05  8424   0.400E-03 0.400E-03
CGA: 166    -0.669445999144E+03    0.35057E-04   -0.73924E-05  8424   0.398E-03 0.398E-03
CGA: 167    -0.669445965690E+03    0.33454E-04   -0.70155E-05  8424   0.396E-03 0.396E-03
CGA: 168    -0.669445933760E+03    0.31931E-04   -0.66616E-05  8424   0.394E-03 0.394E-03
CGA: 169    -0.669445903277E+03    0.30482E-04   -0.63288E-05  8424   0.392E-03 0.393E-03
CGA: 170    -0.669445874173E+03    0.29104E-04   -0.60155E-05  8424   0.391E-03 0.391E-03
CGA: 171    -0.669445846380E+03    0.27793E-04   -0.57202E-05  8424   0.389E-03 0.390E-03
CGA: 172    -0.669445819836E+03    0.26544E-04   -0.54415E-05  8424   0.388E-03 0.388E-03
CGA: 173    -0.669445794482E+03    0.25355E-04   -0.51782E-05  8424   0.387E-03 0.387E-03
CGA: 174    -0.669445770261E+03    0.24221E-04   -0.49293E-05  8424   0.386E-03 0.386E-03
CGA: 175    -0.669445747120E+03    0.23141E-04   -0.46937E-05  8424   0.385E-03 0.385E-03
CGA: 176    -0.669445725009E+03    0.22111E-04   -0.44708E-05  8424   0.384E-03 0.384E-03
CGA: 177    -0.669445703880E+03    0.21129E-04   -0.42598E-05  8424   0.383E-03 0.383E-03
CGA: 178    -0.669445683687E+03    0.20193E-04   -0.40598E-05  8424   0.382E-03 0.382E-03
CGA: 179    -0.669445664388E+03    0.19300E-04   -0.38700E-05  8424   0.381E-03 0.381E-03
CGA: 180    -0.669445645940E+03    0.18447E-04   -0.36900E-05  8424   0.380E-03 0.380E-03
CGA: 181    -0.669445628306E+03    0.17634E-04   -0.35191E-05  8424   0.380E-03 0.380E-03
CGA: 182    -0.669445611448E+03    0.16858E-04   -0.33568E-05  8424   0.379E-03 0.379E-03
CGA: 183    -0.669445595331E+03    0.16117E-04   -0.32026E-05  8424   0.378E-03 0.378E-03
CGA: 184    -0.669445579921E+03    0.15410E-04   -0.30561E-05  8424   0.378E-03 0.378E-03
CGA: 185    -0.669445565186E+03    0.14735E-04   -0.29169E-05  8424   0.377E-03 0.377E-03
CGA: 186    -0.669445551096E+03    0.14090E-04   -0.27844E-05  8424   0.377E-03 0.377E-03
CGA: 187    -0.669445537622E+03    0.13474E-04   -0.26583E-05  8424   0.376E-03 0.376E-03
CGA: 188    -0.669445524736E+03    0.12886E-04   -0.25383E-05  8424   0.376E-03 0.376E-03
CGA: 189    -0.669445512412E+03    0.12324E-04   -0.24240E-05  8424   0.375E-03 0.375E-03
CGA: 190    -0.669445500625E+03    0.11787E-04   -0.23153E-05  8424   0.375E-03 0.375E-03
CGA: 191    -0.669445489351E+03    0.11274E-04   -0.22117E-05  8424   0.375E-03 0.375E-03
CGA: 192    -0.669445478567E+03    0.10784E-04   -0.21129E-05  8424   0.374E-03 0.374E-03
CGA: 193    -0.669445468251E+03    0.10316E-04   -0.20189E-05  8424   0.374E-03 0.374E-03
CGA: 194    -0.669445458382E+03    0.98683E-05   -0.19292E-05  8424   0.374E-03 0.374E-03
   2 F= -.66944546E+03 E0= -.66944546E+03  d E =-.195576E+00  mag=     2.0000
       N       E                     dE             d eps       ncg     rms          ort
SDA:   1    -0.669073361154E+03    0.37211E+00    0.00000E+00  8424   0.139E+01 0.000E+00
CGA:   2    -0.669396674308E+03   -0.32331E+00   -0.25433E-01  8424   0.562E+00 0.905E-01
CGA:   3    -0.669521528784E+03   -0.12485E+00   -0.12343E+00  8424   0.170E+00 0.976E-02
CGA:   4    -0.669550562147E+03   -0.29033E-01   -0.28329E-01  8424   0.414E-01 0.739E-02
CGA:   5    -0.669557698988E+03   -0.71368E-02   -0.66670E-02  8424   0.758E-02 0.579E-02
CGA:   6    -0.669558924182E+03   -0.12252E-02   -0.10508E-02  8424   0.243E-02 0.394E-02
CGA:   7    -0.669559082041E+03   -0.15786E-03   -0.17353E-03  8424   0.157E-02 0.191E-02
CGA:   8    -0.669559126224E+03   -0.44183E-04   -0.82152E-04  8424   0.127E-02 0.141E-02
CGA:   9    -0.669559139659E+03   -0.13434E-04   -0.54578E-04  8424   0.110E-02 0.118E-02
CGA:  10    -0.669559139563E+03    0.95584E-07   -0.40519E-04  8424   0.982E-03 0.104E-02
CGA:  11    -0.669559132514E+03    0.70491E-05   -0.31949E-04  8424   0.899E-03 0.937E-03
CGA:  12    -0.669559121632E+03    0.10881E-04   -0.26179E-04  8424   0.835E-03 0.864E-03
CGA:  13    -0.669559108590E+03    0.13042E-04   -0.22034E-04  8424   0.784E-03 0.806E-03
CGA:  14    -0.669559094355E+03    0.14235E-04   -0.18915E-04  8424   0.742E-03 0.761E-03
CGA:  15    -0.669559079519E+03    0.14837E-04   -0.16485E-04  8424   0.708E-03 0.723E-03
CGA:  16    -0.669559064455E+03    0.15064E-04   -0.14540E-04  8424   0.679E-03 0.691E-03
CGA:  17    -0.669559049418E+03    0.15037E-04   -0.12976E-04  8424   0.655E-03 0.665E-03
CGA:  18    -0.669559034563E+03    0.14855E-04   -0.11672E-04  8424   0.634E-03 0.642E-03
CGA:  19    -0.669559019991E+03    0.14572E-04   -0.10564E-04  8424   0.615E-03 0.622E-03
CGA:  20    -0.669559005770E+03    0.14221E-04   -0.96119E-05  8424   0.598E-03 0.605E-03
CGA:  21    -0.669558991943E+03    0.13827E-04   -0.87853E-05  8424   0.583E-03 0.589E-03
CGA:  22    -0.669558978539E+03    0.13404E-04   -0.80613E-05  8424   0.570E-03 0.575E-03
CGA:  23    -0.669558965572E+03    0.12966E-04   -0.74222E-05  8424   0.558E-03 0.562E-03
CGA:  24    -0.669558953052E+03    0.12521E-04   -0.68544E-05  8424   0.547E-03 0.551E-03
CGA:  25    -0.669558940977E+03    0.12074E-04   -0.63470E-05  8424   0.536E-03 0.540E-03
CGA:  26    -0.669558929347E+03    0.11631E-04   -0.58911E-05  8424   0.527E-03 0.531E-03
CGA:  27    -0.669558918153E+03    0.11193E-04   -0.54798E-05  8424   0.518E-03 0.522E-03
CGA:  28    -0.669558907388E+03    0.10765E-04   -0.51071E-05  8424   0.511E-03 0.514E-03
CGA:  29    -0.669558897042E+03    0.10346E-04   -0.47682E-05  8424   0.503E-03 0.506E-03
CGA:  30    -0.669558887102E+03    0.99397E-05   -0.44590E-05  8424   0.496E-03 0.499E-03
   3 F= -.66955889E+03 E0= -.66955889E+03  d E =-.113429E+00  mag=     2.0000
       N       E                     dE             d eps       ncg     rms          ort
SDA:   1    -0.652746509050E+03    0.16812E+02    0.00000E+00  8424   0.460E+02 0.000E+00
CGA:   2    -0.664479469103E+03   -0.11733E+02   -0.12715E+01  8424   0.168E+02 0.574E+01
CGA:   3    -0.668557366941E+03   -0.40779E+01   -0.40824E+01  8424   0.564E+01-0.351E-01
CGA:   4    -0.669496279689E+03   -0.93891E+00   -0.93844E+00  8424   0.136E+01 0.476E-02
CGA:   5    -0.669727252383E+03   -0.23097E+00   -0.23054E+00  8424   0.284E+00 0.451E-02
CGA:   6    -0.669784773633E+03   -0.57521E-01   -0.56991E-01  8424   0.685E-01 0.443E-02
CGA:   7    -0.669800948172E+03   -0.16175E-01   -0.15234E-01  8424   0.219E-01 0.710E-02
CGA:   8    -0.669806534406E+03   -0.55862E-02   -0.48683E-02  8424   0.674E-02 0.662E-02
CGA:   9    -0.669808105894E+03   -0.15715E-02   -0.13350E-02  8424   0.302E-02 0.443E-02
CGA:  10    -0.669808491000E+03   -0.38511E-03   -0.35115E-03  8424   0.190E-02 0.228E-02
CGA:  11    -0.669808632533E+03   -0.14153E-03   -0.16626E-03  8424   0.155E-02 0.170E-02
CGA:  12    -0.669808706737E+03   -0.74204E-04   -0.11397E-03  8424   0.134E-02 0.143E-02
CGA:  13    -0.669808747525E+03   -0.40788E-04   -0.85917E-04  8424   0.119E-02 0.126E-02
CGA:  14    -0.669808768964E+03   -0.21439E-04   -0.68153E-04  8424   0.109E-02 0.114E-02
CGA:  15    -0.669808778268E+03   -0.93040E-05   -0.55857E-04  8424   0.100E-02 0.104E-02
CGA:  16    -0.669808779594E+03   -0.13269E-05   -0.46849E-04  8424   0.934E-03 0.965E-03
CGA:  17    -0.669808775528E+03    0.40667E-05   -0.39981E-04  8424   0.878E-03 0.903E-03
CGA:  18    -0.669808767758E+03    0.77696E-05   -0.34586E-04  8424   0.830E-03 0.852E-03
CGA:  19    -0.669808757435E+03    0.10323E-04   -0.30248E-04  8424   0.790E-03 0.808E-03
CGA:  20    -0.669808745363E+03    0.12072E-04   -0.26695E-04  8424   0.754E-03 0.770E-03
CGA:  21    -0.669808732118E+03    0.13245E-04   -0.23740E-04  8424   0.723E-03 0.738E-03
CGA:  22    -0.669808718118E+03    0.14000E-04   -0.21251E-04  8424   0.696E-03 0.709E-03
CGA:  23    -0.669808703673E+03    0.14445E-04   -0.19132E-04  8424   0.672E-03 0.683E-03
CGA:  24    -0.669808689013E+03    0.14661E-04   -0.17312E-04  8424   0.651E-03 0.660E-03
CGA:  25    -0.669808674307E+03    0.14705E-04   -0.15736E-04  8424   0.631E-03 0.640E-03
CGA:  26    -0.669808659685E+03    0.14622E-04   -0.14362E-04  8424   0.614E-03 0.622E-03
CGA:  27    -0.669808645241E+03    0.14444E-04   -0.13155E-04  8424   0.598E-03 0.605E-03
CGA:  28    -0.669808631045E+03    0.14196E-04   -0.12090E-04  8424   0.584E-03 0.590E-03
CGA:  29    -0.669808617148E+03    0.13897E-04   -0.11144E-04  8424   0.570E-03 0.577E-03
CGA:  30    -0.669808603587E+03    0.13561E-04   -0.10299E-04  8424   0.558E-03 0.564E-03
CGA:  31    -0.669808590388E+03    0.13199E-04   -0.95432E-05  8424   0.547E-03 0.553E-03
CGA:  32    -0.669808577568E+03    0.12820E-04   -0.88625E-05  8424   0.537E-03 0.542E-03
CGA:  33    -0.669808565138E+03    0.12430E-04   -0.82475E-05  8424   0.528E-03 0.532E-03
CGA:  34    -0.669808553102E+03    0.12035E-04   -0.76899E-05  8424   0.519E-03 0.523E-03
CGA:  35    -0.669808541463E+03    0.11639E-04   -0.71826E-05  8424   0.511E-03 0.515E-03
CGA:  36    -0.669808530219E+03    0.11244E-04   -0.67199E-05  8424   0.504E-03 0.508E-03
CGA:  37    -0.669808519366E+03    0.10853E-04   -0.62965E-05  8424   0.497E-03 0.500E-03
CGA:  38    -0.669808508898E+03    0.10468E-04   -0.59082E-05  8424   0.491E-03 0.494E-03
CGA:  39    -0.669808498807E+03    0.10091E-04   -0.55512E-05  8424   0.485E-03 0.488E-03
CGA:  40    -0.669808489086E+03    0.97218E-05   -0.52221E-05  8424   0.479E-03 0.482E-03
   4 F= -.66980849E+03 E0= -.66980849E+03  d E =-.249602E+00  mag=     2.0000
       N       E                     dE             d eps       ncg     rms          ort
SDA:   1    -0.669324985452E+03    0.48351E+00    0.00000E+00  8424   0.149E+01 0.000E+00
CGA:   2    -0.669648165554E+03   -0.32318E+00   -0.52942E-02  8424   0.877E+00-0.199E+00
CGA:   3    -0.669786776386E+03   -0.13861E+00   -0.13822E+00  8424   0.229E+00 0.339E-02
CGA:   4    -0.669823176191E+03   -0.36400E-01   -0.36044E-01  8424   0.493E-01 0.440E-02
CGA:   5    -0.669831343507E+03   -0.81673E-02   -0.78071E-02  8424   0.956E-02 0.479E-02
CGA:   6    -0.669833021630E+03   -0.16781E-02   -0.14890E-02  8424   0.257E-02 0.326E-02
CGA:   7    -0.669833314105E+03   -0.29247E-03   -0.29516E-03  8424   0.125E-02 0.208E-02
CGA:   8    -0.669833351185E+03   -0.37080E-04   -0.69918E-04  8424   0.927E-03 0.107E-02
CGA:   9    -0.669833356778E+03   -0.55934E-05   -0.40620E-04  8424   0.775E-03 0.845E-03
CGA:  10    -0.669833351661E+03    0.51176E-05   -0.28503E-04  8424   0.681E-03 0.724E-03
CGA:  11    -0.669833341847E+03    0.98136E-05   -0.21773E-04  8424   0.616E-03 0.645E-03
CGA:  12    -0.669833329802E+03    0.12046E-04   -0.17473E-04  8424   0.568E-03 0.589E-03
CGA:  13    -0.669833316718E+03    0.13084E-04   -0.14486E-04  8424   0.530E-03 0.546E-03
CGA:  14    -0.669833303235E+03    0.13483E-04   -0.12289E-04  8424   0.500E-03 0.513E-03
CGA:  15    -0.669833289714E+03    0.13520E-04   -0.10608E-04  8424   0.475E-03 0.485E-03
CGA:  16    -0.669833276371E+03    0.13344E-04   -0.92814E-05  8424   0.454E-03 0.463E-03
CGA:  17    -0.669833263330E+03    0.13041E-04   -0.82094E-05  8424   0.436E-03 0.443E-03
CGA:  18    -0.669833250668E+03    0.12662E-04   -0.73257E-05  8424   0.421E-03 0.427E-03
CGA:  19    -0.669833238427E+03    0.12241E-04   -0.65854E-05  8424   0.408E-03 0.413E-03
CGA:  20    -0.669833226630E+03    0.11798E-04   -0.59567E-05  8424   0.396E-03 0.400E-03
CGA:  21    -0.669833215284E+03    0.11345E-04   -0.54165E-05  8424   0.385E-03 0.389E-03
CGA:  22    -0.669833204391E+03    0.10894E-04   -0.49478E-05  8424   0.376E-03 0.379E-03
CGA:  23    -0.669833193943E+03    0.10448E-04   -0.45376E-05  8424   0.367E-03 0.370E-03
CGA:  24    -0.669833183932E+03    0.10011E-04   -0.41760E-05  8424   0.360E-03 0.363E-03
CGA:  25    -0.669833174345E+03    0.95870E-05   -0.38550E-05  8424   0.353E-03 0.355E-03
   5 F= -.66983317E+03 E0= -.66983317E+03  d E =-.246853E-01  mag=     2.0000
       N       E                     dE             d eps       ncg     rms          ort
SDA:   1    -0.665395608652E+03    0.44376E+01    0.00000E+00  8424   0.117E+02 0.000E+00
CGA:   2    -0.668383887128E+03   -0.29883E+01   -0.56246E-01  8424   0.740E+01-0.144E+01
CGA:   3    -0.669496612001E+03   -0.11127E+01   -0.11133E+01  8424   0.168E+01-0.711E-02
CGA:   4    -0.669763945289E+03   -0.26733E+00   -0.26712E+00  8424   0.374E+00 0.273E-02
CGA:   5    -0.669827817064E+03   -0.63872E-01   -0.63446E-01  8424   0.809E-01 0.531E-02
CGA:   6    -0.669844192826E+03   -0.16376E-01   -0.16067E-01  8424   0.199E-01 0.301E-02
CGA:   7    -0.669848274647E+03   -0.40818E-02   -0.37772E-02  8424   0.534E-02 0.361E-02
CGA:   8    -0.669849214529E+03   -0.93988E-03   -0.84936E-03  8424   0.203E-02 0.288E-02
CGA:   9    -0.669849421821E+03   -0.20729E-03   -0.20956E-03  8424   0.116E-02 0.146E-02
CGA:  10    -0.669849472114E+03   -0.50293E-04   -0.83306E-04  8424   0.909E-03 0.101E-02
CGA:  11    -0.669849488025E+03   -0.15910E-04   -0.53047E-04  8424   0.775E-03 0.831E-03
CGA:  12    -0.669849489602E+03   -0.15779E-05   -0.38495E-04  8424   0.686E-03 0.723E-03
CGA:  13    -0.669849483973E+03    0.56298E-05   -0.29846E-04  8424   0.622E-03 0.648E-03
CGA:  14    -0.669849474410E+03    0.95626E-05   -0.24103E-04  8424   0.574E-03 0.593E-03
CGA:  15    -0.669849462643E+03    0.11767E-04   -0.20017E-04  8424   0.535E-03 0.550E-03
CGA:  16    -0.669849449665E+03    0.12978E-04   -0.16968E-04  8424   0.504E-03 0.516E-03
CGA:  17    -0.669849436079E+03    0.13586E-04   -0.14612E-04  8424   0.477E-03 0.487E-03
CGA:  18    -0.669849422265E+03    0.13814E-04   -0.12741E-04  8424   0.455E-03 0.464E-03
CGA:  19    -0.669849408468E+03    0.13797E-04   -0.11223E-04  8424   0.436E-03 0.443E-03
CGA:  20    -0.669849394848E+03    0.13619E-04   -0.99699E-05  8424   0.419E-03 0.426E-03
CGA:  21    -0.669849381512E+03    0.13336E-04   -0.89198E-05  8424   0.405E-03 0.410E-03
CGA:  22    -0.669849368528E+03    0.12985E-04   -0.80289E-05  8424   0.392E-03 0.397E-03
CGA:  23    -0.669849355937E+03    0.12590E-04   -0.72649E-05  8424   0.380E-03 0.385E-03
CGA:  24    -0.669849343767E+03    0.12170E-04   -0.66040E-05  8424   0.370E-03 0.374E-03
CGA:  25    -0.669849332031E+03    0.11736E-04   -0.60278E-05  8424   0.361E-03 0.364E-03
CGA:  26    -0.669849320733E+03    0.11298E-04   -0.55218E-05  8424   0.352E-03 0.355E-03
CGA:  27    -0.669849309872E+03    0.10861E-04   -0.50748E-05  8424   0.345E-03 0.348E-03
CGA:  28    -0.669849299443E+03    0.10429E-04   -0.46777E-05  8424   0.338E-03 0.340E-03
CGA:  29    -0.669849289436E+03    0.10007E-04   -0.43232E-05  8424   0.331E-03 0.334E-03
CGA:  30    -0.669849279841E+03    0.95948E-05   -0.40052E-05  8424   0.325E-03 0.328E-03
   6 F= -.66984928E+03 E0= -.66984928E+03  d E =-.161055E-01  mag=     2.0000
       N       E                     dE             d eps       ncg     rms          ort
SDA:   1    -0.652915547617E+03    0.16934E+02    0.00000E+00  8424   0.431E+02 0.000E+00
CGA:   2    -0.663993895597E+03   -0.11078E+02   -0.67525E-01  8424   0.336E+02-0.862E+01
CGA:   3    -0.668229824722E+03   -0.42359E+01   -0.42352E+01  8424   0.756E+01 0.790E-02
CGA:   4    -0.669374452420E+03   -0.11446E+01   -0.11442E+01  8424   0.173E+01 0.555E-02
CGA:   5    -0.669679185178E+03   -0.30473E+00   -0.30416E+00  8424   0.434E+00 0.688E-02
CGA:   6    -0.669765411311E+03   -0.86226E-01   -0.85961E-01  8424   0.126E+00 0.267E-02
CGA:   7    -0.669791114912E+03   -0.25704E-01   -0.25454E-01  8424   0.371E-01 0.259E-02
CGA:   8    -0.669799172994E+03   -0.80581E-02   -0.77075E-02  8424   0.112E-01 0.376E-02
CGA:   9    -0.669801699334E+03   -0.25263E-02   -0.23317E-02  8424   0.356E-02 0.262E-02
CGA:  10    -0.669802446685E+03   -0.74735E-03   -0.68174E-03  8424   0.143E-02 0.180E-02
CGA:  11    -0.669802624647E+03   -0.17796E-03   -0.17535E-03  8424   0.785E-03 0.103E-02
CGA:  12    -0.669802664388E+03   -0.39741E-04   -0.65524E-04  8424   0.613E-03 0.697E-03
CGA:  13    -0.669802676182E+03   -0.11795E-04   -0.41111E-04  8424   0.521E-03 0.569E-03
CGA:  14    -0.669802676779E+03   -0.59684E-06   -0.29734E-04  8424   0.462E-03 0.494E-03
CGA:  15    -0.669802671903E+03    0.48758E-05   -0.23099E-04  8424   0.420E-03 0.443E-03
CGA:  16    -0.669802664109E+03    0.77948E-05   -0.18742E-04  8424   0.389E-03 0.406E-03
CGA:  17    -0.669802654710E+03    0.93983E-05   -0.15662E-04  8424   0.364E-03 0.377E-03
CGA:  18    -0.669802644450E+03    0.10260E-04   -0.13369E-04  8424   0.344E-03 0.355E-03
CGA:  19    -0.669802633772E+03    0.10679E-04   -0.11599E-04  8424   0.327E-03 0.336E-03
CGA:  20    -0.669802622951E+03    0.10820E-04   -0.10191E-04  8424   0.313E-03 0.320E-03
CGA:  21    -0.669802612165E+03    0.10786E-04   -0.90477E-05  8424   0.301E-03 0.307E-03
CGA:  22    -0.669802601527E+03    0.10638E-04   -0.81009E-05  8424   0.290E-03 0.296E-03
CGA:  23    -0.669802591113E+03    0.10415E-04   -0.73051E-05  8424   0.281E-03 0.286E-03
CGA:  24    -0.669802580969E+03    0.10144E-04   -0.66280E-05  8424   0.273E-03 0.278E-03
CGA:  25    -0.669802571126E+03    0.98432E-05   -0.60474E-05  8424   0.267E-03 0.270E-03
   7 F= -.66980257E+03 E0= -.66980257E+03  d E =0.467087E-01  mag=     2.0000
       N       E                     dE             d eps       ncg     rms          ort
SDA:   1    -0.630286869652E+03    0.39516E+02    0.00000E+00  8424   0.115E+03 0.000E+00
CGA:   2    -0.655610550741E+03   -0.25324E+02   -0.25132E+02  8424   0.504E+02 0.158E+01
CGA:   3    -0.666263370664E+03   -0.10653E+02   -0.10676E+02  8424   0.150E+02-0.224E+00
CGA:   4    -0.668716269459E+03   -0.24529E+01   -0.24507E+01  8424   0.350E+01 0.256E-01
CGA:   5    -0.669303011589E+03   -0.58674E+00   -0.58547E+00  8424   0.726E+00 0.163E-01
CGA:   6    -0.669452217330E+03   -0.14921E+00   -0.14899E+00  8424   0.177E+00 0.184E-02
CGA:   7    -0.669492846230E+03   -0.40629E-01   -0.40340E-01  8424   0.532E-01 0.229E-02
CGA:   8    -0.669505981718E+03   -0.13135E-01   -0.12824E-01  8424   0.163E-01 0.239E-02
CGA:   9    -0.669510923934E+03   -0.49422E-02   -0.49183E-02  8424   0.628E-02 0.135E-03
CGA:  10    -0.669512684263E+03   -0.17603E-02   -0.16136E-02  8424   0.218E-02 0.111E-02
CGA:  11    -0.669513376149E+03   -0.69189E-03   -0.61945E-03  8424   0.677E-03 0.643E-03
CGA:  12    -0.669513551026E+03   -0.17488E-03   -0.15628E-03  8424   0.282E-03 0.431E-03
CGA:  13    -0.669513573428E+03   -0.22402E-04   -0.29717E-04  8424   0.193E-03 0.229E-03
CGA:  14    -0.669513582207E+03   -0.87788E-05   -0.17117E-04  8424   0.160E-03 0.176E-03
CGA:  15    -0.669513585710E+03   -0.35034E-05   -0.12196E-04  8424   0.142E-03 0.151E-03
   8 F= -.66951359E+03 E0= -.66951359E+03  d E =0.288985E+00  mag=     2.0000
       N       E                     dE             d eps       ncg     rms          ort
SDA:   1    -0.663167757002E+03    0.63458E+01    0.00000E+00  8424   0.209E+02 0.000E+00
CGA:   2    -0.667394552934E+03   -0.42268E+01   -0.42197E+01  8424   0.850E+01 0.867E-01
CGA:   3    -0.669201923024E+03   -0.18074E+01   -0.18097E+01  8424   0.273E+01-0.292E-01
CGA:   4    -0.669651872290E+03   -0.44995E+00   -0.44987E+00  8424   0.674E+00 0.176E-02
CGA:   5    -0.669766894363E+03   -0.11502E+00   -0.11492E+00  8424   0.142E+00 0.283E-02
CGA:   6    -0.669795247462E+03   -0.28353E-01   -0.28486E-01  8424   0.326E-01-0.218E-02
CGA:   7    -0.669802239757E+03   -0.69923E-02   -0.69452E-02  8424   0.935E-02 0.627E-03
CGA:   8    -0.669804559466E+03   -0.23197E-02   -0.23069E-02  8424   0.271E-02 0.130E-03
CGA:   9    -0.669805356487E+03   -0.79702E-03   -0.96524E-03  8424   0.168E-02-0.835E-03
CGA:  10    -0.669805647373E+03   -0.29089E-03   -0.29401E-03  8424   0.681E-03-0.349E-04
CGA:  11    -0.669805577690E+03    0.69683E-04   -0.45984E-03  8424   0.229E-02-0.101E-02
CGA:  12    -0.669806054953E+03   -0.47726E-03   -0.47643E-03  8424   0.273E-03 0.492E-04
CGA:  13    -0.669805432426E+03    0.62253E-03   -0.34070E-03  8424   0.554E-02-0.920E-03
CGA:  14    -0.669806185611E+03   -0.75318E-03   -0.80163E-03  8424   0.663E-03 0.240E-03
CGA:  15    -0.669806398357E+03   -0.21275E-03   -0.20611E-03  8424   0.199E-03-0.159E-03
CGA:  16    -0.669806449434E+03   -0.51077E-04   -0.51062E-04  8424   0.126E-03-0.324E-04
CGA:  17    -0.669806547702E+03   -0.98268E-04    0.47420E-04  8424   0.860E-04 0.300E-04
CGA:  18    -0.669806642914E+03   -0.95212E-04    0.55471E-04  8424   0.564E-04 0.470E-04
CGA:  19    -0.669806693966E+03   -0.51052E-04    0.27870E-04  8424   0.389E-04 0.183E-04
CGA:  20    -0.669806759633E+03   -0.65667E-04    0.98014E-05  8424   0.373E-04 0.391E-04
CGA:  21    -0.669806805574E+03   -0.45942E-04    0.76495E-05  8424   0.286E-04 0.243E-04
CGA:  22    -0.669806841434E+03   -0.35860E-04    0.56603E-05  8424   0.301E-04 0.233E-04
CGA:  23    -0.669806888838E+03   -0.47404E-04    0.38161E-05  8424   0.367E-04 0.190E-04
CGA:  24    -0.669806678640E+03    0.21020E-03   -0.11351E-03  8424   0.324E-02-0.164E-03
CGA:  25    -0.669807166078E+03   -0.48744E-03   -0.41286E-03  8424   0.422E-04-0.155E-03
CGA:  26    -0.669807176725E+03   -0.10647E-04   -0.39460E-04  8424   0.646E-03-0.745E-04
CGA:  27    -0.669807303639E+03   -0.12691E-03   -0.94521E-04  8424   0.474E-04-0.702E-04
CGA:  28    -0.669807326563E+03   -0.22924E-04   -0.32483E-04  8424   0.396E-03-0.534E-04
CGA:  29    -0.669807419831E+03   -0.93268E-04   -0.60973E-04  8424   0.522E-04-0.733E-04
CGA:  30    -0.669807399629E+03    0.20202E-04   -0.56474E-04  8424   0.125E-02-0.103E-03
CGA:  31    -0.669807611880E+03   -0.21225E-03   -0.16106E-03  8424   0.454E-04-0.108E-03
CGA:  32    -0.669807634473E+03   -0.22593E-04   -0.19847E-04  8424   0.139E-03-0.256E-04
CGA:  33    -0.669807697957E+03   -0.63484E-04   -0.31928E-04  8424   0.126E-03-0.896E-04
CGA:  34    -0.669807705665E+03   -0.77077E-05   -0.14695E-04  8424   0.192E-04 0.156E-04
   9 F= -.66980771E+03 E0= -.66980771E+03  d E =-.294120E+00  mag=     2.0000
       N       E                     dE             d eps       ncg     rms          ort
SDA:   1    -0.668759346298E+03    0.10484E+01    0.00000E+00  8424   0.302E+01 0.000E+00
CGA:   2    -0.669451156699E+03   -0.69181E+00   -0.69248E+00  8424   0.143E+01 0.145E-03
CGA:   3    -0.669738983411E+03   -0.28783E+00   -0.28733E+00  8424   0.403E+00-0.380E-03
CGA:   4    -0.669803651341E+03   -0.64668E-01   -0.64692E-01  8424   0.939E-01 0.256E-04
CGA:   5    -0.669819711527E+03   -0.16060E-01   -0.16090E-01  8424   0.193E-01 0.668E-04
CGA:   6    -0.669823719858E+03   -0.40083E-02   -0.39396E-02  8424   0.469E-02-0.254E-03
CGA:   7    -0.669824782989E+03   -0.10631E-02   -0.10421E-02  8424   0.142E-02-0.893E-04
CGA:   8    -0.669825199138E+03   -0.41615E-03   -0.38495E-03  8424   0.555E-03-0.178E-03
CGA:   9    -0.669825417530E+03   -0.21839E-03   -0.24762E-03  8424   0.919E-03-0.435E-03
CGA:  10    -0.669825595458E+03   -0.17793E-03   -0.16948E-03  8424   0.160E-03-0.326E-04
CGA:  11    -0.669825758874E+03   -0.16342E-03    0.14965E-03  8424   0.136E-03-0.554E-04
CGA:  12    -0.669825950127E+03   -0.19125E-03    0.13008E-04  8424   0.115E-03-0.291E-05
CGA:  13    -0.669826268471E+03   -0.31834E-03    0.10645E-04  8424   0.998E-04 0.319E-04
CGA:  14    -0.669826615830E+03   -0.34736E-03    0.12900E-04  8424   0.947E-04 0.344E-04
CGA:  15    -0.669827062804E+03   -0.44697E-03    0.90199E-05  8424   0.774E-04 0.573E-04
CGA:  16    -0.669827157030E+03   -0.94226E-04    0.41388E-04  8424   0.126E-03-0.272E-04
CGA:  17    -0.669827360673E+03   -0.20364E-03    0.94154E-05  8424   0.200E-03-0.720E-04
CGA:  18    -0.669827435609E+03   -0.74936E-04   -0.12030E-03  8424   0.842E-03-0.268E-03
CGA:  19    -0.669827556251E+03   -0.12064E-03   -0.11243E-03  8424   0.811E-04-0.258E-04
CGA:  20    -0.669827661025E+03   -0.10477E-03    0.29748E-04  8424   0.819E-04-0.354E-04
CGA:  21    -0.669827819299E+03   -0.15827E-03    0.32578E-05  8424   0.106E-03 0.335E-05
CGA:  22    -0.669828173323E+03   -0.35402E-03    0.85944E-05  8424   0.505E-04 0.477E-04
CGA:  23    -0.669828406506E+03   -0.23318E-03    0.56717E-05  8424   0.388E-04 0.330E-04
CGA:  24    -0.669828505612E+03   -0.99107E-04    0.41493E-05  8424   0.822E-04-0.171E-04
CGA:  25    -0.669828730017E+03   -0.22440E-03    0.20782E-05  8424   0.140E-03-0.200E-06
CGA:  26    -0.669829169643E+03   -0.43963E-03    0.11016E-04  8424   0.327E-03-0.150E-04
CGA:  27    -0.669830446225E+03   -0.12766E-02    0.15042E-04  8424   0.452E-03 0.881E-04
CGA:  28    -0.669832399419E+03   -0.19532E-02    0.40859E-04  8424   0.956E-03-0.189E-03
CGA:  29    -0.669836485725E+03   -0.40863E-02    0.15531E-04  8424   0.221E-02-0.475E-03
CGA:  30    -0.669847267137E+03   -0.10781E-01    0.22943E-04  8424   0.559E-02-0.285E-02
CGA:  31    -0.669848265430E+03   -0.99829E-03   -0.95903E-03  8424   0.607E-03-0.158E-03
CGA:  32    -0.669848313098E+03   -0.47668E-04   -0.10217E-03  8424   0.128E-03 0.227E-03
CGA:  33    -0.669848291611E+03    0.21487E-04   -0.16057E-04  8424   0.765E-04 0.121E-03
CGA:  34    -0.669848275534E+03    0.16077E-04   -0.57271E-05  8424   0.641E-04 0.700E-04
CGA:  35    -0.669848260912E+03    0.14622E-04   -0.40364E-05  8424   0.573E-04 0.606E-04
CGA:  36    -0.669848247556E+03    0.13356E-04   -0.31599E-05  8424   0.528E-04 0.550E-04
CGA:  37    -0.669848235265E+03    0.12292E-04   -0.26181E-05  8424   0.498E-04 0.513E-04
CGA:  38    -0.669848223878E+03    0.11387E-04   -0.22469E-05  8424   0.475E-04 0.486E-04
CGA:  39    -0.669848213275E+03    0.10603E-04   -0.19742E-05  8424   0.457E-04 0.466E-04
CGA:  40    -0.669848203361E+03    0.99145E-05   -0.17638E-05  8424   0.443E-04 0.450E-04
  10 F= -.66984820E+03 E0= -.66984820E+03  d E =-.404977E-01  mag=     2.0000
       N       E                     dE             d eps       ncg     rms          ort
SDA:   1    -0.667402368624E+03    0.24458E+01    0.00000E+00  8424   0.633E+01 0.000E+00
CGA:   2    -0.669040282341E+03   -0.16379E+01   -0.16380E+01  8424   0.335E+01 0.169E-02
CGA:   3    -0.669675035687E+03   -0.63475E+00   -0.63463E+00  8424   0.805E+00-0.119E-02
CGA:   4    -0.669801374984E+03   -0.12634E+00   -0.12643E+00  8424   0.182E+00 0.663E-03
CGA:   5    -0.669832678379E+03   -0.31303E-01   -0.31366E-01  8424   0.382E-01 0.664E-03
CGA:   6    -0.669840525101E+03   -0.78467E-02   -0.78583E-02  8424   0.914E-02 0.213E-03
CGA:   7    -0.669842424127E+03   -0.18990E-02   -0.19222E-02  8424   0.247E-02 0.504E-03
CGA:   8    -0.669842958716E+03   -0.53459E-03   -0.55434E-03  8424   0.723E-03 0.488E-03
CGA:   9    -0.669843083518E+03   -0.12480E-03   -0.15285E-03  8424   0.293E-03 0.378E-03
CGA:  10    -0.669843095775E+03   -0.12257E-04   -0.37473E-04  8424   0.174E-03 0.211E-03
CGA:  11    -0.669843089295E+03    0.64800E-05   -0.16546E-04  8424   0.143E-03 0.157E-03
CGA:  12    -0.669843079704E+03    0.95907E-05   -0.11238E-04  8424   0.126E-03 0.134E-03
  11 F= -.66984308E+03 E0= -.66984308E+03  d E =0.512366E-02  mag=     2.0000
       N       E                     dE             d eps       ncg     rms          ort
SDA:   1    -0.626820157361E+03    0.43023E+02    0.00000E+00  8424   0.112E+03 0.000E+00
CGA:   2    -0.655511742793E+03   -0.28692E+02   -0.28668E+02  8424   0.584E+02 0.390E+00
CGA:   3    -0.666689539453E+03   -0.11178E+02   -0.11176E+02  8424   0.135E+02-0.142E-01
CGA:   4    -0.668853403434E+03   -0.21639E+01   -0.21647E+01  8424   0.312E+01 0.343E-02
CGA:   5    -0.669393485591E+03   -0.54008E+00   -0.54029E+00  8424   0.688E+00 0.286E-02
CGA:   6    -0.669535028322E+03   -0.14154E+00   -0.14156E+00  8424   0.168E+00 0.161E-02
CGA:   7    -0.669573424743E+03   -0.38396E-01   -0.38390E-01  8424   0.518E-01 0.391E-03
CGA:   8    -0.669586495720E+03   -0.13071E-01   -0.13012E-01  8424   0.175E-01 0.159E-02
CGA:   9    -0.669591697083E+03   -0.52014E-02   -0.51553E-02  8424   0.651E-02 0.662E-03
CGA:  10    -0.669593666011E+03   -0.19689E-02   -0.19084E-02  8424   0.224E-02 0.955E-03
CGA:  11    -0.669594232436E+03   -0.56642E-03   -0.56778E-03  8424   0.644E-03 0.784E-03
CGA:  12    -0.669594330513E+03   -0.98077E-04   -0.13265E-03  8424   0.308E-03 0.496E-03
CGA:  13    -0.669594336335E+03   -0.58217E-05   -0.33753E-04  8424   0.221E-03 0.255E-03
CGA:  14    -0.669594329444E+03    0.68910E-05   -0.19070E-04  8424   0.189E-03 0.204E-03
CGA:  15    -0.669594319616E+03    0.98273E-05   -0.14090E-04  8424   0.171E-03 0.180E-03
CGA:  16    -0.669594308835E+03    0.10781E-04   -0.11384E-04  8424   0.159E-03 0.165E-03
CGA:  17    -0.669594297809E+03    0.11026E-04   -0.96377E-05  8424   0.151E-03 0.155E-03
CGA:  18    -0.669594286849E+03    0.10960E-04   -0.83969E-05  8424   0.144E-03 0.147E-03
CGA:  19    -0.669594276107E+03    0.10742E-04   -0.74590E-05  8424   0.139E-03 0.141E-03
CGA:  20    -0.669594265660E+03    0.10447E-04   -0.67182E-05  8424   0.134E-03 0.137E-03
CGA:  21    -0.669594255546E+03    0.10114E-04   -0.61134E-05  8424   0.131E-03 0.133E-03
CGA:  22    -0.669594245782E+03    0.97643E-05   -0.56067E-05  8424   0.128E-03 0.129E-03
  12 F= -.66959425E+03 E0= -.66959425E+03  d E =0.248834E+00  mag=     2.0000
       N       E                     dE             d eps       ncg     rms          ort
SDA:   1    -0.658431499096E+03    0.11163E+02    0.00000E+00  8424   0.356E+02 0.000E+00
CGA:   2    -0.665655877636E+03   -0.72244E+01   -0.72147E+01  8424   0.147E+02 0.150E+00
CGA:   3    -0.668787486244E+03   -0.31316E+01   -0.31342E+01  8424   0.471E+01-0.405E-01
CGA:   4    -0.669560521276E+03   -0.77304E+00   -0.77298E+00  8424   0.115E+01 0.477E-02
CGA:   5    -0.669757241124E+03   -0.19672E+00   -0.19662E+00  8424   0.239E+00 0.638E-02
CGA:   6    -0.669805125144E+03   -0.47884E-01   -0.47885E-01  8424   0.542E-01-0.693E-04
CGA:   7    -0.669816741736E+03   -0.11617E-01   -0.11446E-01  8424   0.151E-01 0.323E-02
CGA:   8    -0.669820275550E+03   -0.35338E-02   -0.34014E-02  8424   0.403E-02 0.260E-02
CGA:   9    -0.669821244503E+03   -0.96895E-03   -0.92051E-03  8424   0.137E-02 0.157E-02
CGA:  10    -0.669821425611E+03   -0.18111E-03   -0.23276E-03  8424   0.754E-03 0.120E-02
CGA:  11    -0.669821445301E+03   -0.19689E-04   -0.67138E-04  8424   0.559E-03 0.638E-03
CGA:  12    -0.669821442185E+03    0.31155E-05   -0.41122E-04  8424   0.476E-03 0.513E-03
CGA:  13    -0.669821430901E+03    0.11284E-04   -0.30071E-04  8424   0.425E-03 0.448E-03
CGA:  14    -0.669821416011E+03    0.14890E-04   -0.23720E-04  8424   0.390E-03 0.406E-03
CGA:  15    -0.669821399466E+03    0.16545E-04   -0.19531E-04  8424   0.364E-03 0.376E-03
CGA:  16    -0.669821382241E+03    0.17225E-04   -0.16535E-04  8424   0.343E-03 0.352E-03
CGA:  17    -0.669821364866E+03    0.17374E-04   -0.14273E-04  8424   0.326E-03 0.334E-03
CGA:  18    -0.669821347650E+03    0.17216E-04   -0.12499E-04  8424   0.312E-03 0.318E-03
CGA:  19    -0.669821330774E+03    0.16876E-04   -0.11066E-04  8424   0.300E-03 0.305E-03
CGA:  20    -0.669821314348E+03    0.16426E-04   -0.98828E-05  8424   0.289E-03 0.294E-03
CGA:  21    -0.669821298437E+03    0.15911E-04   -0.88883E-05  8424   0.280E-03 0.284E-03
CGA:  22    -0.669821283076E+03    0.15361E-04   -0.80412E-05  8424   0.272E-03 0.276E-03
CGA:  23    -0.669821268283E+03    0.14793E-04   -0.73109E-05  8424   0.265E-03 0.268E-03
CGA:  24    -0.669821254064E+03    0.14220E-04   -0.66751E-05  8424   0.258E-03 0.261E-03
CGA:  25    -0.669821240413E+03    0.13651E-04   -0.61172E-05  8424   0.252E-03 0.255E-03
CGA:  26    -0.669821227322E+03    0.13091E-04   -0.56241E-05  8424   0.247E-03 0.249E-03
CGA:  27    -0.669821214779E+03    0.12544E-04   -0.51857E-05  8424   0.242E-03 0.244E-03
CGA:  28    -0.669821202766E+03    0.12012E-04   -0.47941E-05  8424   0.238E-03 0.239E-03
CGA:  29    -0.669821191268E+03    0.11498E-04   -0.44425E-05  8424   0.233E-03 0.235E-03
CGA:  30    -0.669821180267E+03    0.11002E-04   -0.41255E-05  8424   0.230E-03 0.231E-03
CGA:  31    -0.669821169742E+03    0.10524E-04   -0.38388E-05  8424   0.226E-03 0.228E-03
CGA:  32    -0.669821159677E+03    0.10065E-04   -0.35784E-05  8424   0.223E-03 0.224E-03
CGA:  33    -0.669821150052E+03    0.96251E-05   -0.33413E-05  8424   0.220E-03 0.221E-03
  13 F= -.66982115E+03 E0= -.66982115E+03  d E =-.226904E+00  mag=     2.0000
       N       E                     dE             d eps       ncg     rms          ort
SDA:   1    -0.669509043082E+03    0.31212E+00    0.00000E+00  8424   0.919E+00 0.000E+00
CGA:   2    -0.669717626089E+03   -0.20858E+00   -0.20785E+00  8424   0.431E+00 0.449E-02
CGA:   3    -0.669805671773E+03   -0.88046E-01   -0.87419E-01  8424   0.119E+00 0.490E-02
CGA:   4    -0.669824962686E+03   -0.19291E-01   -0.19065E-01  8424   0.268E-01 0.293E-02
CGA:   5    -0.669829566160E+03   -0.46035E-02   -0.44096E-02  8424   0.518E-02 0.260E-02
CGA:   6    -0.669830471764E+03   -0.90560E-03   -0.80192E-03  8424   0.136E-02 0.201E-02
CGA:   7    -0.669830620757E+03   -0.14899E-03   -0.15846E-03  8424   0.699E-03 0.119E-02
CGA:   8    -0.669830640710E+03   -0.19953E-04   -0.40528E-04  8424   0.536E-03 0.607E-03
CGA:   9    -0.669830643694E+03   -0.29841E-05   -0.24694E-04  8424   0.456E-03 0.492E-03
CGA:  10    -0.669830640572E+03    0.31223E-05   -0.17805E-04  8424   0.405E-03 0.428E-03
CGA:  11    -0.669830634646E+03    0.59262E-05   -0.13843E-04  8424   0.369E-03 0.385E-03
CGA:  12    -0.669830627327E+03    0.73182E-05   -0.11251E-04  8424   0.342E-03 0.354E-03
  14 F= -.66983063E+03 E0= -.66983063E+03  d E =-.947728E-02  mag=     2.0000
       N       E                     dE             d eps       ncg     rms          ort
SDA:   1    -0.666338026440E+03    0.34926E+01    0.00000E+00  8424   0.865E+01 0.000E+00
CGA:   2    -0.668764949684E+03   -0.24269E+01   -0.24277E+01  8424   0.469E+01-0.412E-02
CGA:   3    -0.669608768114E+03   -0.84382E+00   -0.84334E+00  8424   0.100E+01 0.474E-02
CGA:   4    -0.669768851937E+03   -0.16008E+00   -0.15987E+00  8424   0.233E+00 0.304E-02
CGA:   5    -0.669809544255E+03   -0.40692E-01   -0.40493E-01  8424   0.500E-01 0.254E-02
CGA:   6    -0.669819698523E+03   -0.10154E-01   -0.99381E-02  8424   0.110E-01 0.222E-02
CGA:   7    -0.669822126013E+03   -0.24275E-02   -0.22712E-02  8424   0.295E-02 0.168E-02
CGA:   8    -0.669822732496E+03   -0.60648E-03   -0.53577E-03  8424   0.106E-02 0.145E-02
CGA:   9    -0.669822880944E+03   -0.14845E-03   -0.15931E-03  8424   0.582E-03 0.101E-02
CGA:  10    -0.669822907052E+03   -0.26109E-04   -0.43966E-04  8424   0.445E-03 0.503E-03
CGA:  11    -0.669822914092E+03   -0.70400E-05   -0.26956E-04  8424   0.381E-03 0.410E-03
CGA:  12    -0.669822914244E+03   -0.15202E-06   -0.19811E-04  8424   0.341E-03 0.359E-03
CGA:  13    -0.669822911020E+03    0.32245E-05   -0.15650E-04  8424   0.312E-03 0.325E-03
CGA:  14    -0.669822905946E+03    0.50735E-05   -0.12875E-04  8424   0.290E-03 0.300E-03
CGA:  15    -0.669822899819E+03    0.61277E-05   -0.10875E-04  8424   0.273E-03 0.280E-03
  15 F= -.66982290E+03 E0= -.66982290E+03  d E =0.772751E-02  mag=     2.0000
       N       E                     dE             d eps       ncg     rms          ort
SDA:   1    -0.625923587989E+03    0.43899E+02    0.00000E+00  8424   0.111E+03 0.000E+00
CGA:   2    -0.655818580474E+03   -0.29895E+02   -0.29875E+02  8424   0.594E+02 0.162E+00
CGA:   3    -0.666834041481E+03   -0.11015E+02   -0.11015E+02  8424   0.133E+02-0.272E-02
CGA:   4    -0.668955014867E+03   -0.21210E+01   -0.21200E+01  8424   0.310E+01 0.132E-01
CGA:   5    -0.669495924627E+03   -0.54091E+00   -0.54044E+00  8424   0.685E+00 0.635E-02
CGA:   6    -0.669637758131E+03   -0.14183E+00   -0.14178E+00  8424   0.168E+00 0.551E-03
CGA:   7    -0.669675848869E+03   -0.38091E-01   -0.38081E-01  8424   0.525E-01 0.839E-04
CGA:   8    -0.669689454653E+03   -0.13606E-01   -0.13554E-01  8424   0.183E-01 0.381E-03
CGA:   9    -0.669694895345E+03   -0.54407E-02   -0.55683E-02  8424   0.743E-02-0.732E-03
CGA:  10    -0.669697155883E+03   -0.22605E-02   -0.23415E-02  8424   0.286E-02-0.424E-03
CGA:  11    -0.669697912947E+03   -0.75706E-03   -0.77974E-03  8424   0.824E-03-0.161E-03
CGA:  12    -0.669698137159E+03   -0.22421E-03   -0.21976E-03  8424   0.277E-03 0.333E-04
CGA:  13    -0.669698207251E+03   -0.70092E-04   -0.63294E-04  8424   0.127E-03 0.113E-03
CGA:  14    -0.669698246413E+03   -0.39163E-04   -0.35513E-04  8424   0.884E-04 0.104E-03
CGA:  15    -0.669698261558E+03   -0.15144E-04   -0.14896E-04  8424   0.640E-04 0.677E-04
CGA:  16    -0.669698267814E+03   -0.62564E-05   -0.83535E-05  8424   0.586E-04 0.605E-04
  16 F= -.66969827E+03 E0= -.66969827E+03  d E =0.124632E+00  mag=     2.0000
       N       E                     dE             d eps       ncg     rms          ort
SDA:   1    -0.660301530380E+03    0.93967E+01    0.00000E+00  8424   0.283E+02 0.000E+00
CGA:   2    -0.666288056505E+03   -0.59865E+01   -0.59792E+01  8424   0.125E+02 0.113E+00
CGA:   3    -0.668925099403E+03   -0.26370E+01   -0.26383E+01  8424   0.380E+01-0.231E-01
CGA:   4    -0.669540448700E+03   -0.61535E+00   -0.61536E+00  8424   0.893E+00 0.991E-03
CGA:   5    -0.669692812410E+03   -0.15236E+00   -0.15236E+00  8424   0.182E+00 0.144E-02
CGA:   6    -0.669729872206E+03   -0.37060E-01   -0.37121E-01  8424   0.425E-01-0.168E-02
CGA:   7    -0.669739437931E+03   -0.95657E-02   -0.95755E-02  8424   0.126E-01-0.170E-03
CGA:   8    -0.669742528689E+03   -0.30908E-02   -0.31234E-02  8424   0.388E-02-0.416E-03
CGA:   9    -0.669743641285E+03   -0.11126E-02   -0.13622E-02  8424   0.248E-02-0.133E-02
CGA:  10    -0.669744012770E+03   -0.37149E-03   -0.74904E-03  8424   0.245E-02-0.137E-02
CGA:  11    -0.669744613802E+03   -0.60103E-03   -0.67273E-03  8424   0.133E-02-0.933E-03
CGA:  12    -0.669744843606E+03   -0.22980E-03   -0.28008E-03  8424   0.591E-03-0.366E-03
CGA:  13    -0.669745111854E+03   -0.26825E-03    0.89750E-04  8424   0.216E-03 0.792E-04
CGA:  14    -0.669745304308E+03   -0.19245E-03    0.29049E-04  8424   0.869E-04 0.782E-04
CGA:  15    -0.669745429027E+03   -0.12472E-03    0.81341E-05  8424   0.554E-04 0.363E-04
CGA:  16    -0.669745589892E+03   -0.16087E-03    0.21032E-05  8424   0.555E-04 0.536E-04
CGA:  17    -0.669745686501E+03   -0.96609E-04    0.18299E-05  8424   0.365E-04 0.308E-04
CGA:  18    -0.669745751930E+03   -0.65429E-04    0.11589E-05  8424   0.329E-04 0.274E-04
CGA:  19    -0.669745837959E+03   -0.86028E-04    0.65296E-06  8424   0.311E-04 0.269E-04
CGA:  20    -0.669745904708E+03   -0.66749E-04    0.78812E-06  8424   0.300E-04 0.266E-04
CGA:  21    -0.669745986710E+03   -0.82002E-04    0.56691E-06  8424   0.291E-04 0.264E-04
CGA:  22    -0.669746053808E+03   -0.67098E-04    0.67499E-06  8424   0.284E-04 0.261E-04
CGA:  23    -0.669746133124E+03   -0.79316E-04    0.52332E-06  8424   0.278E-04 0.257E-04
CGA:  24    -0.669746199740E+03   -0.66616E-04    0.61379E-06  8424   0.273E-04 0.253E-04
CGA:  25    -0.669746277141E+03   -0.77401E-04    0.49225E-06  8424   0.268E-04 0.248E-04
CGA:  26    -0.669746342761E+03   -0.65619E-04    0.57643E-06  8424   0.264E-04 0.243E-04
CGA:  27    -0.669746418729E+03   -0.75969E-04    0.46865E-06  8424   0.260E-04 0.238E-04
CGA:  28    -0.669746483063E+03   -0.64334E-04    0.55387E-06  8424   0.257E-04 0.233E-04
CGA:  29    -0.669746557889E+03   -0.74826E-04    0.45156E-06  8424   0.255E-04 0.228E-04
CGA:  30    -0.669746620794E+03   -0.62905E-04    0.54253E-06  8424   0.253E-04 0.222E-04
CGA:  31    -0.669746694625E+03   -0.73831E-04    0.44116E-06  8424   0.251E-04 0.216E-04
CGA:  32    -0.669746756068E+03   -0.61443E-04    0.54095E-06  8424   0.250E-04 0.209E-04
CGA:  33    -0.669746828955E+03   -0.72887E-04    0.43802E-06  8424   0.250E-04 0.202E-04
CGA:  34    -0.669746888977E+03   -0.60022E-04    0.54883E-06  8424   0.250E-04 0.195E-04
CGA:  35    -0.669746960909E+03   -0.71932E-04    0.44277E-06  8424   0.250E-04 0.188E-04
CGA:  36    -0.669747019590E+03   -0.58681E-04    0.56656E-06  8424   0.251E-04 0.180E-04
CGA:  37    -0.669747090528E+03   -0.70937E-04    0.45616E-06  8424   0.253E-04 0.172E-04
CGA:  38    -0.669747147959E+03   -0.57431E-04    0.59526E-06  8424   0.255E-04 0.164E-04
CGA:  39    -0.669747217859E+03   -0.69900E-04    0.47923E-06  8424   0.258E-04 0.155E-04
CGA:  40    -0.669747274123E+03   -0.56264E-04    0.63687E-06  8424   0.261E-04 0.145E-04
CGA:  41    -0.669747342956E+03   -0.68832E-04    0.51350E-06  8424   0.265E-04 0.135E-04
CGA:  42    -0.669747398114E+03   -0.55158E-04    0.69447E-06  8424   0.269E-04 0.125E-04
CGA:  43    -0.669747522264E+03   -0.12415E-03    0.63876E-06  8424   0.253E-04 0.390E-04
CGA:  44    -0.669747589163E+03   -0.66899E-04    0.49461E-06  8424   0.255E-04 0.121E-04
CGA:  45    -0.669747709713E+03   -0.12055E-03    0.59010E-06  8424   0.241E-04 0.370E-04
CGA:  46    -0.669747761378E+03   -0.51666E-04    0.60747E-06  8424   0.243E-04 0.115E-04
CGA:  47    -0.669747878807E+03   -0.11743E-03    0.55242E-06  8424   0.230E-04 0.354E-04
CGA:  48    -0.669747942934E+03   -0.64127E-04    0.42209E-06  8424   0.230E-04 0.111E-04
CGA:  49    -0.669748057037E+03   -0.11410E-03    0.51214E-06  8424   0.219E-04 0.337E-04
CGA:  50    -0.669748105498E+03   -0.48461E-04    0.53173E-06  8424   0.220E-04 0.107E-04
CGA:  51    -0.669748216678E+03   -0.11118E-03    0.48023E-06  8424   0.209E-04 0.322E-04
CGA:  52    -0.669748278116E+03   -0.61439E-04    0.36135E-06  8424   0.209E-04 0.103E-04
CGA:  53    -0.669748386218E+03   -0.10810E-03    0.44610E-06  8424   0.199E-04 0.307E-04
CGA:  54    -0.669748431694E+03   -0.45477E-04    0.46604E-06  8424   0.200E-04 0.986E-05
CGA:  55    -0.669748537025E+03   -0.10533E-03    0.41891E-06  8424   0.190E-04 0.294E-04
CGA:  56    -0.669748595883E+03   -0.58859E-04    0.30998E-06  8424   0.189E-04 0.953E-05
CGA:  57    -0.669748639638E+03   -0.43755E-04    0.43694E-06  8424   0.189E-04 0.912E-05
CGA:  58    -0.669748741209E+03   -0.10157E-03    0.38271E-06  8424   0.181E-04 0.276E-04
CGA:  59    -0.669748798265E+03   -0.57056E-04    0.28960E-06  8424   0.179E-04 0.885E-05
CGA:  60    -0.669748896948E+03   -0.98684E-04    0.35488E-06  8424   0.173E-04 0.263E-04
CGA:  61    -0.669748937998E+03   -0.41050E-04    0.38507E-06  8424   0.172E-04 0.843E-05
CGA:  62    -0.669749034314E+03   -0.96317E-04    0.33523E-06  8424   0.165E-04 0.253E-04
CGA:  63    -0.669749089011E+03   -0.54697E-04    0.24921E-06  8424   0.163E-04 0.816E-05
CGA:  64    -0.669749182729E+03   -0.93718E-04    0.31148E-06  8424   0.158E-04 0.240E-04
CGA:  65    -0.669749221205E+03   -0.38476E-04    0.34002E-06  8424   0.157E-04 0.780E-05
CGA:  66    -0.669749312538E+03   -0.91333E-04    0.29407E-06  8424   0.151E-04 0.231E-04
CGA:  67    -0.669749364997E+03   -0.52459E-04    0.21468E-06  8424   0.149E-04 0.755E-05
CGA:  68    -0.669749402117E+03   -0.37119E-04    0.31288E-06  8424   0.148E-04 0.735E-05
CGA:  69    -0.669749490182E+03   -0.88066E-04    0.26935E-06  8424   0.142E-04 0.217E-04
CGA:  70    -0.669749540931E+03   -0.50748E-04    0.19776E-06  8424   0.140E-04 0.713E-05
CGA:  71    -0.669749576845E+03   -0.35914E-04    0.28375E-06  8424   0.138E-04 0.702E-05
CGA:  72    -0.669749626224E+03   -0.49379E-04    0.19078E-06  8424   0.136E-04 0.693E-05
CGA:  73    -0.669749661978E+03   -0.35755E-04    0.26862E-06  8424   0.135E-04 0.678E-05
CGA:  74    -0.669749745524E+03   -0.83546E-04    0.23674E-06  8424   0.130E-04 0.199E-04
CGA:  75    -0.669749793246E+03   -0.47722E-04    0.17515E-06  8424   0.128E-04 0.658E-05
CGA:  76    -0.669749827853E+03   -0.34607E-04    0.24275E-06  8424   0.126E-04 0.650E-05
CGA:  77    -0.669749874260E+03   -0.46407E-04    0.16791E-06  8424   0.124E-04 0.644E-05
CGA:  78    -0.669749908723E+03   -0.34462E-04    0.22848E-06  8424   0.122E-04 0.631E-05
CGA:  79    -0.669749953949E+03   -0.45226E-04    0.16328E-06  8424   0.121E-04 0.620E-05
CGA:  80    -0.669749988166E+03   -0.34217E-04    0.21927E-06  8424   0.120E-04 0.604E-05
CGA:  81    -0.669750066306E+03   -0.78140E-04    0.20050E-06  8424   0.116E-04 0.177E-04
CGA:  82    -0.669750110039E+03   -0.43734E-04    0.15063E-06  8424   0.114E-04 0.586E-05
CGA:  83    -0.669750143097E+03   -0.33058E-04    0.20045E-06  8424   0.113E-04 0.574E-05
CGA:  84    -0.669750185751E+03   -0.42653E-04    0.14652E-06  8424   0.112E-04 0.564E-05
CGA:  85    -0.669750260727E+03   -0.74976E-04    0.17969E-06  8424   0.108E-04 0.165E-04
CGA:  86    -0.669750292624E+03   -0.31898E-04    0.18503E-06  8424   0.107E-04 0.539E-05
CGA:  87    -0.669750365721E+03   -0.73097E-04    0.17017E-06  8424   0.103E-04 0.159E-04
CGA:  88    -0.669750406595E+03   -0.40874E-04    0.12683E-06  8424   0.102E-04 0.521E-05
CGA:  89    -0.669750437354E+03   -0.30759E-04    0.17158E-06  8424   0.101E-04 0.506E-05
CGA:  90    -0.669750507931E+03   -0.70577E-04    0.15650E-06  8424   0.977E-05 0.150E-04
CGA:  91    -0.669750547487E+03   -0.39556E-04    0.11755E-06  8424   0.962E-05 0.491E-05
CGA:  92    -0.669750577195E+03   -0.29707E-04    0.15747E-06  8424   0.954E-05 0.480E-05
CGA:  93    -0.669750645251E+03   -0.68056E-04    0.14373E-06  8424   0.922E-05 0.141E-04
CGA:  94    -0.669750683485E+03   -0.38235E-04    0.10808E-06  8424   0.904E-05 0.467E-05
CGA:  95    -0.669750712227E+03   -0.28741E-04    0.14286E-06  8424   0.892E-05 0.461E-05
CGA:  96    -0.669750749468E+03   -0.37241E-04    0.10369E-06  8424   0.879E-05 0.456E-05
CGA:  97    -0.669750778018E+03   -0.28550E-04    0.13554E-06  8424   0.871E-05 0.446E-05
CGA:  98    -0.669750814371E+03   -0.36353E-04    0.10122E-06  8424   0.862E-05 0.437E-05
CGA:  99    -0.669750842651E+03   -0.28280E-04    0.13148E-06  8424   0.858E-05 0.424E-05
CGA: 100    -0.669750906362E+03   -0.63711E-04    0.12252E-06  8424   0.826E-05 0.126E-04
CGA: 101    -0.669750941529E+03   -0.35167E-04    0.93900E-07  8424   0.815E-05 0.412E-05
CGA: 102    -0.669751003537E+03   -0.62008E-04    0.11438E-06  8424   0.789E-05 0.120E-04
CGA: 103    -0.669751030117E+03   -0.26580E-04    0.11663E-06  8424   0.786E-05 0.392E-05
CGA: 104    -0.669751090724E+03   -0.60607E-04    0.10874E-06  8424   0.755E-05 0.116E-04
CGA: 105    -0.669751124403E+03   -0.33679E-04    0.81587E-07  8424   0.748E-05 0.380E-05
CGA: 106    -0.669751150027E+03   -0.25624E-04    0.10854E-06  8424   0.744E-05 0.369E-05
CGA: 107    -0.669751208513E+03   -0.58485E-04    0.10018E-06  8424   0.717E-05 0.110E-04
CGA: 108    -0.669751241114E+03   -0.32602E-04    0.75812E-07  8424   0.706E-05 0.359E-05
CGA: 109    -0.669751265859E+03   -0.24745E-04    0.99962E-07  8424   0.701E-05 0.350E-05
CGA: 110    -0.669751322254E+03   -0.56396E-04    0.92218E-07  8424   0.678E-05 0.103E-04
CGA: 111    -0.669751353773E+03   -0.31519E-04    0.69881E-07  8424   0.664E-05 0.341E-05
CGA: 112    -0.669751377705E+03   -0.23932E-04    0.91068E-07  8424   0.656E-05 0.336E-05
CGA: 113    -0.669751408433E+03   -0.30728E-04    0.67218E-07  8424   0.647E-05 0.332E-05
CGA: 114    -0.669751432179E+03   -0.23746E-04    0.86936E-07  8424   0.642E-05 0.325E-05
CGA: 115    -0.669751462200E+03   -0.30021E-04    0.65889E-07  8424   0.637E-05 0.317E-05
[...]
CGA:  12    -0.669380326573E+03    0.58675E-04   -0.25147E-03  8424   0.167E-02-0.570E-03
CGA:  13    -0.669380674165E+03   -0.34759E-03   -0.33991E-03  8424   0.399E-03-0.120E-03
CGA:  14    -0.669380794987E+03   -0.12082E-03   -0.12695E-03  8424   0.231E-03-0.783E-04
CGA:  15    -0.669380901682E+03   -0.10669E-03    0.34134E-03  8424   0.862E-04 0.398E-04
CGA:  16    -0.669380971142E+03   -0.69460E-04    0.47906E-04  8424   0.498E-04 0.493E-04
CGA:  17    -0.669381009857E+03   -0.38715E-04    0.14769E-04  8424   0.398E-04 0.191E-04
CGA:  18    -0.669381075958E+03   -0.66100E-04    0.59668E-05  8424   0.309E-04 0.425E-04
CGA:  19    -0.669381109916E+03   -0.33958E-04    0.39272E-05  8424   0.268E-04 0.222E-04
CGA:  20    -0.669381144455E+03   -0.34540E-04    0.25579E-05  8424   0.264E-04 0.216E-04
CGA:  21    -0.669381177982E+03   -0.33527E-04    0.25706E-05  8424   0.262E-04 0.209E-04
CGA:  22    -0.669381210421E+03   -0.32439E-04    0.26638E-05  8424   0.261E-04 0.201E-04
CGA:  23    -0.669381244557E+03   -0.34135E-04    0.24334E-05  8424   0.264E-04 0.191E-04
CGA:  24    -0.669381274830E+03   -0.30274E-04    0.30835E-05  8424   0.270E-04 0.179E-04
CGA:  25    -0.669381309743E+03   -0.34913E-04    0.25499E-05  8424   0.282E-04 0.162E-04
CGA:  26    -0.669381337396E+03   -0.27653E-04    0.45549E-05  8424   0.305E-04 0.137E-04
CGA:  27    -0.669381404673E+03   -0.67277E-04    0.34408E-05  8424   0.263E-04 0.443E-04
CGA:  28    -0.669381438403E+03   -0.33730E-04    0.25345E-05  8424   0.284E-04 0.134E-04
CGA:  29    -0.669381464062E+03   -0.25659E-04    0.55539E-05  8424   0.321E-04 0.992E-05
CGA:  30    -0.669381530151E+03   -0.66089E-04    0.31411E-05  8424   0.276E-04 0.423E-04
CGA:  31    -0.669381563014E+03   -0.32863E-04    0.30092E-05  8424   0.310E-04 0.879E-05
CGA:  32    -0.669381624713E+03   -0.61699E-04    0.30097E-05  8424   0.269E-04 0.399E-04
CGA:  33    -0.669381649746E+03   -0.25033E-04    0.49050E-05  8424   0.300E-04 0.751E-05
CGA:  34    -0.669381711232E+03   -0.61487E-04    0.25902E-05  8424   0.267E-04 0.375E-04
CGA:  35    -0.669381740439E+03   -0.29207E-04    0.34452E-05  8424   0.289E-04 0.624E-05
CGA:  36    -0.669381796222E+03   -0.55782E-04    0.24795E-05  8424   0.266E-04 0.348E-04
CGA:  37    -0.669381821854E+03   -0.25632E-04    0.44352E-05  8424   0.273E-04 0.527E-05
CGA:  38    -0.669381876987E+03   -0.55133E-04    0.20495E-05  8424   0.260E-04 0.320E-04
CGA:  39    -0.669381902080E+03   -0.25093E-04    0.43192E-05  8424   0.250E-04 0.509E-05
CGA:  40    -0.669381950580E+03   -0.48500E-04    0.19784E-05  8424   0.244E-04 0.292E-04
CGA:  41    -0.669381977535E+03   -0.26955E-04    0.30921E-05  8424   0.220E-04 0.588E-05
CGA:  42    -0.669382025685E+03   -0.48150E-04    0.16020E-05  8424   0.222E-04 0.267E-04
CGA:  43    -0.669382047063E+03   -0.21378E-04    0.37530E-05  8424   0.191E-04 0.715E-05
CGA:  44    -0.669382089455E+03   -0.42392E-04    0.15794E-05  8424   0.200E-04 0.247E-04
CGA:  45    -0.669382116544E+03   -0.27089E-04    0.17572E-05  8424   0.167E-04 0.821E-05
CGA:  46    -0.669382159782E+03   -0.43238E-04    0.13028E-05  8424   0.182E-04 0.230E-04
CGA:  47    -0.669382178561E+03   -0.18779E-04    0.26210E-05  8424   0.150E-04 0.878E-05
CGA:  48    -0.669382217033E+03   -0.38473E-04    0.13433E-05  8424   0.167E-04 0.217E-04
CGA:  49    -0.669382243122E+03   -0.26088E-04    0.11730E-05  8424   0.138E-04 0.895E-05
CGA:  50    -0.669382262726E+03   -0.19604E-04    0.11229E-05  8424   0.125E-04 0.105E-04
CGA:  51    -0.669382284275E+03   -0.21549E-04    0.75835E-06  8424   0.119E-04 0.110E-04
CGA:  52    -0.669382305170E+03   -0.20895E-04    0.70196E-06  8424   0.116E-04 0.111E-04
CGA:  53    -0.669382325294E+03   -0.20124E-04    0.68976E-06  8424   0.113E-04 0.110E-04
CGA:  54    -0.669382346225E+03   -0.20931E-04    0.62013E-06  8424   0.111E-04 0.109E-04
CGA:  55    -0.669382365519E+03   -0.19294E-04    0.66933E-06  8424   0.110E-04 0.107E-04
CGA:  56    -0.669382386373E+03   -0.20854E-04    0.58061E-06  8424   0.109E-04 0.105E-04
CGA:  57    -0.669382404676E+03   -0.18303E-04    0.68473E-06  8424   0.109E-04 0.102E-04
CGA:  58    -0.669382425726E+03   -0.21050E-04    0.55886E-06  8424   0.110E-04 0.987E-05
CGA:  59    -0.669382442550E+03   -0.16824E-04    0.79762E-06  8424   0.114E-04 0.929E-05
CGA:  60    -0.669382464306E+03   -0.21757E-04    0.60102E-06  8424   0.124E-04 0.830E-05
CGA:  61    -0.669382478731E+03   -0.14425E-04    0.14336E-05  8424   0.147E-04 0.648E-05
CGA:  62    -0.669382501945E+03   -0.23213E-04    0.10025E-05  8424   0.194E-04 0.294E-05
CGA:  63    -0.669382544694E+03   -0.42750E-04    0.12790E-05  8424   0.160E-04 0.226E-04
CGA:  64    -0.669382554822E+03   -0.10127E-04    0.11607E-04  8424   0.224E-04-0.818E-07
CGA:  65    -0.669382596726E+03   -0.41905E-04    0.11843E-05  8424   0.213E-04 0.217E-04
CGA:  66    -0.669382621813E+03   -0.25087E-04    0.23957E-05  8424   0.335E-04-0.881E-05
CGA:  67    -0.669382664805E+03   -0.42992E-04    0.85501E-06  8424   0.479E-04 0.181E-04
CGA:  68    -0.669382668775E+03   -0.39701E-05   -0.53322E-05  8424   0.838E-05 0.865E-05
  36 F= -.66938267E+03 E0= -.66938267E+03  d E =-.215490E-01  mag=     2.0000
       N       E                     dE             d eps       ncg     rms          ort
SDA:   1    -0.642782492185E+03    0.26600E+02    0.00000E+00  8424   0.663E+02 0.000E+00
CGA:   2    -0.661151933997E+03   -0.18369E+02   -0.18370E+02  8424   0.352E+02-0.259E-01
CGA:   3    -0.667539996996E+03   -0.63881E+01   -0.63949E+01  8424   0.769E+01 0.226E-01
CGA:   4    -0.668784332169E+03   -0.12443E+01   -0.12447E+01  8424   0.180E+01 0.793E-03
CGA:   5    -0.669098584062E+03   -0.31425E+00   -0.31422E+00  8424   0.395E+00-0.464E-03
CGA:   6    -0.669180563013E+03   -0.81979E-01   -0.81998E-01  8424   0.955E-01 0.378E-03
CGA:   7    -0.669202605003E+03   -0.22042E-01   -0.22032E-01  8424   0.298E-01-0.621E-03
CGA:   8    -0.669210351556E+03   -0.77466E-02   -0.77522E-02  8424   0.107E-01-0.351E-03
CGA:   9    -0.669213493571E+03   -0.31420E-02   -0.31680E-02  8424   0.422E-02-0.481E-03
CGA:  10    -0.669214899459E+03   -0.14059E-02   -0.15022E-02  8424   0.203E-02-0.780E-03
CGA:  11    -0.669215369708E+03   -0.47025E-03   -0.47804E-03  8424   0.629E-03-0.231E-03
CGA:  12    -0.669212664212E+03    0.27055E-02   -0.14573E-02  8424   0.143E-01-0.257E-02
CGA:  13    -0.669215505417E+03   -0.28412E-02   -0.29410E-02  8424   0.229E-02 0.378E-03
CGA:  14    -0.669216247470E+03   -0.74205E-03   -0.66987E-03  8424   0.793E-03-0.424E-03
CGA:  15    -0.669216396594E+03   -0.14912E-03   -0.15241E-03  8424   0.207E-03 0.153E-04
CGA:  16    -0.669215139341E+03    0.12573E-02   -0.45813E-03  8424   0.702E-02-0.992E-03
CGA:  17    -0.669216759858E+03   -0.16205E-02   -0.15624E-02  8424   0.152E-02-0.193E-03
CGA:  18    -0.669217089895E+03   -0.33004E-03   -0.31034E-03  8424   0.239E-03-0.666E-04
CGA:  19    -0.669217212150E+03   -0.12226E-03   -0.13540E-03  8424   0.432E-03-0.134E-03
CGA:  20    -0.669217365965E+03   -0.15381E-03   -0.10081E-03  8424   0.240E-03-0.201E-03
CGA:  21    -0.669217425950E+03   -0.59985E-04   -0.73771E-04  8424   0.437E-03-0.156E-03
CGA:  22    -0.669217555053E+03   -0.12910E-03   -0.93258E-04  8424   0.169E-03-0.130E-03
CGA:  23    -0.669217610635E+03   -0.55582E-04   -0.48113E-04  8424   0.203E-03-0.107E-03
CGA:  24    -0.669217692075E+03   -0.81441E-04   -0.54623E-04  8424   0.210E-03-0.132E-03
CGA:  25    -0.669217715761E+03   -0.23685E-04   -0.25365E-04  8424   0.162E-04 0.497E-05
CGA:  26    -0.669217789814E+03   -0.74053E-04    0.91283E-06  8424   0.192E-04 0.143E-04
CGA:  27    -0.669217860691E+03   -0.70878E-04    0.13556E-05  8424   0.446E-04 0.231E-05
CGA:  28    -0.669218079339E+03   -0.21865E-03    0.28410E-05  8424   0.352E-04 0.415E-04
CGA:  29    -0.669218135370E+03   -0.56031E-04    0.99490E-05  8424   0.702E-04-0.238E-04
CGA:  30    -0.669218092203E+03    0.43167E-04   -0.63219E-04  8424   0.103E-02-0.234E-03
CGA:  31    -0.669218277647E+03   -0.18544E-03   -0.18177E-03  8424   0.385E-04-0.123E-04
CGA:  32    -0.669218345446E+03   -0.67799E-04    0.89142E-05  8424   0.141E-03-0.437E-04
CGA:  33    -0.669218363741E+03   -0.18295E-04   -0.19468E-04  8424   0.145E-04 0.374E-05
CGA:  34    -0.669218422276E+03   -0.58534E-04    0.93455E-06  8424   0.170E-04 0.810E-05
CGA:  35    -0.669218476818E+03   -0.54542E-04    0.13988E-05  8424   0.206E-04 0.326E-05
CGA:  36    -0.669218588991E+03   -0.11217E-03    0.12713E-05  8424   0.207E-04 0.207E-04
CGA:  37    -0.669218639224E+03   -0.50233E-04    0.25368E-05  8424   0.236E-04-0.113E-05
CGA:  38    -0.669218733234E+03   -0.94010E-04    0.12757E-05  8424   0.281E-04 0.144E-04
CGA:  39    -0.669218788978E+03   -0.55743E-04    0.48392E-05  8424   0.297E-04-0.770E-05
CGA:  40    -0.669218868816E+03   -0.79838E-04    0.14614E-05  8424   0.395E-04 0.576E-05
CGA:  41    -0.669219035136E+03   -0.16632E-03    0.34000E-05  8424   0.221E-04 0.280E-04
CGA:  42    -0.669219079418E+03   -0.44282E-04    0.37337E-05  8424   0.445E-04-0.127E-04
CGA:  43    -0.669219089500E+03   -0.10082E-04   -0.87124E-05  8424   0.139E-04-0.570E-05
CGA:  44    -0.669219139982E+03   -0.50481E-04    0.66516E-06  8424   0.107E-04 0.763E-05
CGA:  45    -0.669219171155E+03   -0.31173E-04    0.93974E-06  8424   0.110E-04 0.344E-05
CGA:  46    -0.669219240703E+03   -0.69548E-04    0.66278E-06  8424   0.105E-04 0.138E-04
CGA:  47    -0.669219270392E+03   -0.29690E-04    0.96361E-06  8424   0.972E-05 0.322E-05
CGA:  48    -0.669219331355E+03   -0.60963E-04    0.58076E-06  8424   0.984E-05 0.119E-04
CGA:  49    -0.669219357810E+03   -0.26454E-04    0.96822E-06  8424   0.838E-05 0.346E-05
CGA:  50    -0.669219411657E+03   -0.53848E-04    0.52435E-06  8424   0.887E-05 0.105E-04
CGA:  51    -0.669219436725E+03   -0.25068E-04    0.81210E-06  8424   0.730E-05 0.374E-05
CGA:  52    -0.669219485923E+03   -0.49198E-04    0.48218E-06  8424   0.794E-05 0.960E-05
CGA:  53    -0.669219508615E+03   -0.22691E-04    0.71550E-06  8424   0.646E-05 0.387E-05
CGA:  54    -0.669219553183E+03   -0.44568E-04    0.45825E-06  8424   0.717E-05 0.893E-05
CGA:  55    -0.669219574532E+03   -0.21349E-04    0.60968E-06  8424   0.579E-05 0.387E-05
CGA:  56    -0.669219598500E+03   -0.23968E-04    0.31853E-06  8424   0.558E-05 0.430E-05
CGA:  57    -0.669219615547E+03   -0.17047E-04    0.45690E-06  8424   0.631E-05 0.390E-05
CGA:  58    -0.669219642225E+03   -0.26679E-04    0.33751E-06  8424   0.947E-05 0.211E-05
CGA:  59    -0.669219691294E+03   -0.49069E-04    0.75417E-06  8424   0.590E-05 0.117E-04
CGA:  60    -0.669219703320E+03   -0.12025E-04    0.89682E-06  8424   0.847E-05 0.210E-05
CGA:  61    -0.669219749892E+03   -0.46572E-04    0.64789E-06  8424   0.582E-05 0.101E-04
CGA:  62    -0.669219768901E+03   -0.19008E-04    0.43576E-06  8424   0.560E-05 0.252E-05
CGA:  63    -0.669219798409E+03   -0.29508E-04    0.51327E-06  8424   0.574E-05 0.738E-05
CGA:  64    -0.669219814917E+03   -0.16508E-04    0.51199E-06  8424   0.510E-05 0.229E-05
CGA:  65    -0.669219839858E+03   -0.24941E-04    0.48849E-06  8424   0.547E-05 0.661E-05
CGA:  66    -0.669219854797E+03   -0.14939E-04    0.52508E-06  8424   0.456E-05 0.226E-05
CGA:  67    -0.669219876908E+03   -0.22112E-04    0.45080E-06  8424   0.502E-05 0.601E-05
CGA:  68    -0.669219890162E+03   -0.13253E-04    0.50706E-06  8424   0.405E-05 0.231E-05
CGA:  69    -0.669219909428E+03   -0.19266E-04    0.44570E-06  8424   0.457E-05 0.556E-05
CGA:  70    -0.669219921049E+03   -0.11621E-04    0.48712E-06  8424   0.364E-05 0.235E-05
CGA:  71    -0.669219929602E+03   -0.85529E-05    0.43955E-06  8424   0.345E-05 0.271E-05
  37 F= -.66921993E+03 E0= -.66921993E+03  d E =0.162739E+00  mag=     2.0000
       N       E                     dE             d eps       ncg     rms          ort
SDA:   1    -0.620533694820E+03    0.48686E+02    0.00000E+00  8424   0.127E+03 0.000E+00
CGA:   2    -0.653525863866E+03   -0.32992E+02   -0.33074E+02  8424   0.663E+02 0.264E-01
CGA:   3    -0.666026625827E+03   -0.12501E+02   -0.12501E+02  8424   0.148E+02 0.282E+00
CGA:   4    -0.668468407084E+03   -0.24418E+01   -0.24451E+01  8424   0.350E+01 0.187E-01
CGA:   5    -0.669076764928E+03   -0.60836E+00   -0.60911E+00  8424   0.779E+00 0.602E-03
CGA:   6    -0.669238346801E+03   -0.16158E+00   -0.16163E+00  8424   0.188E+00 0.197E-03
CGA:   7    -0.669282487168E+03   -0.44140E-01   -0.44153E-01  8424   0.602E-01 0.553E-05
CGA:   8    -0.669298088384E+03   -0.15601E-01   -0.15646E-01  8424   0.216E-01 0.406E-03
CGA:   9    -0.669304590282E+03   -0.65019E-02   -0.64726E-02  8424   0.833E-02-0.460E-03
CGA:  10    -0.669307260066E+03   -0.26698E-02   -0.26595E-02  8424   0.311E-02-0.323E-03
CGA:  11    -0.669308176206E+03   -0.91614E-03   -0.89914E-03  8424   0.101E-02-0.304E-03
CGA:  12    -0.669308481273E+03   -0.30507E-03   -0.30099E-03  8424   0.489E-03-0.181E-03
CGA:  13    -0.669308639373E+03   -0.15810E-03   -0.18632E-03  8424   0.706E-03-0.257E-03
CGA:  14    -0.669308793035E+03   -0.15366E-03   -0.13944E-03  8424   0.273E-03-0.889E-04
CGA:  15    -0.669308872708E+03   -0.79673E-04   -0.16299E-03  8424   0.845E-03-0.252E-03
CGA:  16    -0.669309039181E+03   -0.16647E-03   -0.15127E-03  8424   0.237E-03-0.813E-04
CGA:  17    -0.669309119298E+03   -0.80117E-04   -0.82721E-04  8424   0.199E-03-0.917E-04
CGA:  18    -0.669309254959E+03   -0.13566E-03    0.40050E-04  8424   0.136E-03 0.362E-04
CGA:  19    -0.669309426508E+03   -0.17155E-03    0.59927E-04  8424   0.750E-04 0.764E-04
CGA:  20    -0.669309491399E+03   -0.64891E-04    0.65634E-04  8424   0.725E-04 0.129E-04
CGA:  21    -0.669309595718E+03   -0.10432E-03    0.21451E-04  8424   0.754E-04 0.300E-04
CGA:  22    -0.669309762450E+03   -0.16673E-03    0.16247E-04  8424   0.538E-04 0.847E-04
CGA:  23    -0.669309823716E+03   -0.61266E-04    0.16423E-04  8424   0.486E-04 0.234E-04
CGA:  24    -0.669309920614E+03   -0.96898E-04    0.13396E-04  8424   0.452E-04 0.316E-04
CGA:  25    -0.669309967870E+03   -0.47255E-04    0.17744E-04  8424   0.702E-04 0.588E-05
CGA:  26    -0.669310093483E+03   -0.12561E-03    0.11816E-04  8424   0.440E-04 0.477E-04
CGA:  27    -0.669310147840E+03   -0.54357E-04    0.10960E-04  8424   0.317E-04 0.188E-04
CGA:  28    -0.669310228726E+03   -0.80887E-04    0.54339E-05  8424   0.361E-04 0.292E-04
CGA:  29    -0.669310274228E+03   -0.45502E-04    0.85862E-05  8424   0.431E-04 0.110E-04
CGA:  30    -0.669310372106E+03   -0.97878E-04    0.70893E-05  8424   0.354E-04 0.342E-04
CGA:  31    -0.669310426376E+03   -0.54271E-04    0.56084E-05  8424   0.264E-04 0.156E-04
CGA:  32    -0.669310499272E+03   -0.72896E-04    0.41109E-05  8424   0.312E-04 0.263E-04
CGA:  33    -0.669310546216E+03   -0.46944E-04    0.50917E-05  8424   0.349E-04 0.102E-04
CGA:  34    -0.669310630921E+03   -0.84705E-04    0.53718E-05  8424   0.320E-04 0.277E-04
CGA:  35    -0.669310682437E+03   -0.51516E-04    0.46047E-05  8424   0.268E-04 0.110E-04
CGA:  36    -0.669310755463E+03   -0.73026E-04    0.35495E-05  8424   0.315E-04 0.211E-04
CGA:  37    -0.669310796926E+03   -0.41463E-04    0.68018E-05  8424   0.373E-04 0.445E-05
CGA:  38    -0.669310878153E+03   -0.81227E-04    0.45962E-05  8424   0.352E-04 0.197E-04
CGA:  39    -0.669310928126E+03   -0.49973E-04    0.64778E-05  8424   0.240E-04 0.701E-05
CGA:  40    -0.669310992785E+03   -0.64658E-04    0.24242E-05  8424   0.313E-04 0.145E-04
CGA:  41    -0.669311026407E+03   -0.33622E-04    0.11257E-04  8424   0.437E-04-0.215E-05
CGA:  42    -0.669311110903E+03   -0.84497E-04    0.38563E-05  8424   0.399E-04 0.148E-04
CGA:  43    -0.669311237240E+03   -0.12634E-03    0.41735E-05  8424   0.466E-04 0.363E-04
CGA:  44    -0.669310310612E+03    0.92663E-03   -0.50705E-03  8424   0.954E-02-0.526E-03
CGA:  45    -0.669311453996E+03   -0.11434E-02   -0.11418E-02  8424   0.146E-03-0.149E-04
CGA:  46    -0.669311510809E+03   -0.56812E-04   -0.52487E-04  8424   0.221E-04-0.164E-04
CGA:  47    -0.669311595910E+03   -0.85101E-04    0.23921E-05  8424   0.695E-04-0.633E-05
CGA:  48    -0.669311817783E+03   -0.22187E-03    0.57790E-05  8424   0.138E-03-0.910E-05
CGA:  49    -0.669312350674E+03   -0.53289E-03    0.14079E-04  8424   0.208E-03 0.368E-04
CGA:  50    -0.669313190007E+03   -0.83933E-03    0.51104E-04  8424   0.120E-02-0.334E-03
CGA:  51    -0.669313286509E+03   -0.96502E-04   -0.14796E-03  8424   0.601E-04 0.106E-03
CGA:  52    -0.669313312513E+03   -0.26004E-04   -0.20840E-04  8424   0.217E-04-0.191E-04
CGA:  53    -0.669313353162E+03   -0.40648E-04    0.30714E-05  8424   0.146E-03-0.422E-04
CGA:  54    -0.669313350001E+03    0.31606E-05   -0.14723E-04  8424   0.139E-04 0.376E-04
  38 F= -.66931335E+03 E0= -.66931335E+03  d E =-.934204E-01  mag=     2.0000
       N       E                     dE             d eps       ncg     rms          ort
SDA:   1    -0.655496539747E+03    0.13817E+02    0.00000E+00  8424   0.363E+02 0.000E+00
CGA:   2    -0.664730365444E+03   -0.92338E+01   -0.92504E+01  8424   0.191E+02-0.849E-02
CGA:   3    -0.668376900474E+03   -0.36465E+01   -0.36439E+01  8424   0.450E+01 0.566E-01
CGA:   4    -0.669095221732E+03   -0.71832E+00   -0.71876E+00  8424   0.102E+01 0.539E-02
CGA:   5    -0.669274818952E+03   -0.17960E+00   -0.17978E+00  8424   0.220E+00 0.383E-03
CGA:   6    -0.669320011820E+03   -0.45193E-01   -0.45170E-01  8424   0.524E-01-0.939E-04
CGA:   7    -0.669331811820E+03   -0.11800E-01   -0.11776E-01  8424   0.154E-01-0.107E-03
CGA:   8    -0.669335754884E+03   -0.39431E-02   -0.39045E-02  8424   0.510E-02-0.202E-03
CGA:   9    -0.669337279873E+03   -0.15250E-02   -0.14884E-02  8424   0.195E-02-0.267E-03
CGA:  10    -0.669337974011E+03   -0.69414E-03   -0.67437E-03  8424   0.949E-03-0.324E-03
CGA:  11    -0.669338277472E+03   -0.30346E-03   -0.28357E-03  8424   0.473E-03-0.309E-03
CGA:  12    -0.669338322471E+03   -0.44999E-04   -0.23232E-03  8424   0.158E-02-0.609E-03
CGA:  13    -0.669338648261E+03   -0.32579E-03   -0.30145E-03  8424   0.336E-03-0.997E-04
CGA:  14    -0.669338776321E+03   -0.12806E-03   -0.12443E-03  8424   0.288E-03-0.134E-03
CGA:  15    -0.669338945777E+03   -0.16946E-03    0.23043E-03  8424   0.252E-03-0.119E-03
CGA:  16    -0.669339139125E+03   -0.19335E-03    0.57060E-04  8424   0.148E-03-0.443E-04
CGA:  17    -0.669339358737E+03   -0.21961E-03    0.22527E-04  8424   0.144E-03-0.360E-04
CGA:  18    -0.669339594891E+03   -0.23615E-03    0.14712E-04  8424   0.143E-03-0.403E-04
CGA:  19    -0.669339915754E+03   -0.32086E-03    0.81165E-05  8424   0.939E-04 0.180E-04
CGA:  20    -0.669340221132E+03   -0.30538E-03    0.91842E-05  8424   0.640E-04 0.204E-04
CGA:  21    -0.669340415579E+03   -0.19445E-03    0.83656E-05  8424   0.795E-04-0.167E-04
CGA:  22    -0.669340742418E+03   -0.32684E-03    0.22157E-05  8424   0.703E-04-0.148E-04
CGA:  23    -0.669341097970E+03   -0.35555E-03    0.18932E-05  8424   0.893E-04 0.197E-04
CGA:  24    -0.669341534571E+03   -0.43660E-03    0.68268E-05  8424   0.761E-04 0.574E-05
CGA:  25    -0.669341969640E+03   -0.43507E-03    0.31840E-05  8424   0.521E-04 0.138E-05
CGA:  26    -0.669342286624E+03   -0.31698E-03    0.18355E-05  8424   0.404E-04 0.428E-05
CGA:  27    -0.669342510888E+03   -0.22426E-03    0.18140E-05  8424   0.356E-04-0.690E-06
CGA:  28    -0.669342757253E+03   -0.24636E-03    0.10022E-05  8424   0.302E-04-0.628E-05
CGA:  29    -0.669342941473E+03   -0.18422E-03    0.67408E-06  8424   0.226E-04-0.651E-06
CGA:  30    -0.669343084011E+03   -0.14254E-03    0.70038E-06  8424   0.158E-04 0.129E-05
CGA:  31    -0.669343202196E+03   -0.11818E-03    0.47690E-06  8424   0.171E-04-0.568E-05
CGA:  32    -0.669343278424E+03   -0.76229E-04    0.31788E-06  8424   0.158E-04-0.887E-05
CGA:  33    -0.669343295587E+03   -0.17162E-04    0.11477E-04  8424   0.206E-04-0.638E-05
CGA:  34    -0.669343292273E+03    0.33141E-05   -0.42209E-06  8424   0.162E-04 0.964E-05
