       N       E                     dE             d eps       ncg     rms          ort
DAV:   1     0.827771327976E+04    0.82777E+04   -0.24669E+05  8424   0.238E+03
DAV:   2     0.921644687459E+03   -0.73561E+04   -0.69027E+04  8424   0.656E+02
DAV:   3    -0.671932782174E+03   -0.15936E+04   -0.14031E+04  8424   0.283E+02
DAV:   4    -0.828260635024E+03   -0.15633E+03   -0.15354E+03  8424   0.860E+01
DAV:   5    -0.830753982658E+03   -0.24933E+01   -0.24828E+01  8424   0.121E+01
SDA:   6    -0.225558288052E+03    0.60520E+03   -0.24828E+01  8424   0.591E+04 0.000E+00
CGA:   7    -0.419474902293E+03   -0.19392E+03   -0.48280E+03  8424   0.422E+04-0.417E+03
CGA:   8    -0.493256078971E+03   -0.73781E+02   -0.19956E+03  8424   0.344E+04-0.120E+04
CGA:   9    -0.574220705522E+03   -0.80965E+02   -0.64361E+02  8424   0.133E+04-0.709E+03
CGA:  10    -0.541819163715E+03    0.32402E+02   -0.56428E+02  8424   0.117E+04-0.310E+03
CGA:  11    -0.614246917960E+03   -0.72428E+02   -0.29476E+02  8424   0.134E+04 0.112E+04
CGA:  12    -0.622775943774E+03   -0.85290E+01   -0.73587E+02  8424   0.686E+03-0.200E+03
CGA:  13    -0.594281317165E+03    0.28495E+02   -0.17567E+02  8424   0.398E+04-0.144E+04
CGA:  14    -0.551211816732E+03    0.43070E+02   -0.21063E+03  8424   0.880E+03-0.522E+03
CGA:  15    -0.639165790935E+03   -0.87954E+02   -0.18087E+02  8424   0.334E+03 0.712E+03
CGA:  16    -0.633824900327E+03    0.53409E+01   -0.89545E+01  8424   0.149E+04-0.927E+03
CGA:  17    -0.631660976052E+03    0.21639E+01   -0.82228E+02  8424   0.268E+03-0.169E+03
CGA:  18    -0.641261313014E+03   -0.96003E+01   -0.47631E+01  8424   0.235E+03 0.254E+03
CGA:  19    -0.639737765818E+03    0.15235E+01   -0.43000E+01  8424   0.231E+04-0.160E+04
CGA:  20    -0.638603506340E+03    0.11343E+01   -0.11063E+03  8424   0.273E+03-0.152E+03
CGA:  21    -0.651849928893E+03   -0.13246E+02   -0.50012E+01  8424   0.218E+03 0.411E+03
CGA:  22    -0.658423029877E+03   -0.65731E+01   -0.43162E+01  8424   0.913E+02 0.377E+01
CGA:  23    -0.658878423652E+03   -0.45539E+00   -0.22485E+01  8424   0.188E+03-0.130E+03
CGA:  24    -0.654173913517E+03    0.47045E+01   -0.64622E+01  8424   0.531E+03-0.287E+03
CGA:  25    -0.656288931056E+03   -0.21150E+01   -0.16301E+02  8424   0.210E+03-0.192E+03
CGA:  26    -0.662057582496E+03   -0.57687E+01   -0.42476E+01  8424   0.736E+02-0.157E+03
CGA:  27    -0.661271145702E+03    0.78644E+00   -0.24255E+01  8424   0.116E+03-0.585E+02
CGA:  28    -0.661929554004E+03   -0.65841E+00   -0.28605E+01  8424   0.121E+03-0.124E+03
CGA:  29    -0.661350063277E+03    0.57949E+00   -0.42156E+01  8424   0.106E+03-0.669E+02
CGA:  30    -0.663542696690E+03   -0.21926E+01   -0.23270E+01  8424   0.154E+02-0.338E+02
CGA:  31    -0.664139957128E+03   -0.59726E+00   -0.68639E+00  8424   0.439E+01 0.168E+01
CGA:  32    -0.664531024340E+03   -0.39107E+00   -0.39163E+00  8424   0.411E+01 0.857E+00
CGA:  33    -0.664786350678E+03   -0.25533E+00   -0.66639E+00  8424   0.199E+02-0.745E+01
CGA:  34    -0.665273841367E+03   -0.48749E+00   -0.81769E+00  8424   0.273E+01-0.388E+01
CGA:  35    -0.665440720339E+03   -0.16688E+00   -0.16670E+00  8424   0.911E+00 0.131E-01
CGA:  36    -0.665616820308E+03   -0.17610E+00   -0.14456E+00  8424   0.284E+00 0.357E+00
CGA:  37    -0.665736958931E+03   -0.12014E+00   -0.11977E+00  8424   0.906E+00 0.873E-03
CGA:  38    -0.665824731955E+03   -0.87773E-01   -0.87885E-01  8424   0.426E+00-0.722E-01
CGA:  39    -0.665849646146E+03   -0.24914E-01   -0.25300E-01  8424   0.181E+00-0.281E-01
CGA:  40    -0.665883714742E+03   -0.34069E-01   -0.33611E-01  8424   0.230E+00 0.254E-02
CGA:  41    -0.665928591695E+03   -0.44877E-01   -0.63370E-01  8424   0.586E+00-0.111E+00
CGA:  42    -0.665958068849E+03   -0.29477E-01   -0.27702E-01  8424   0.643E+00-0.898E-01
CGA:  43    -0.666003975425E+03   -0.45907E-01   -0.44368E-01  8424   0.350E+00-0.973E-01
CGA:  44    -0.666039725968E+03   -0.35751E-01   -0.36953E-01  8424   0.299E+00-0.776E-01
CGA:  45    -0.666073537589E+03   -0.33812E-01   -0.48655E-01  8424   0.485E+00-0.144E+00
CGA:  46    -0.666102927615E+03   -0.29390E-01   -0.33806E-01  8424   0.505E+00-0.179E+00
CGA:  47    -0.666130116706E+03   -0.27189E-01   -0.23713E-01  8424   0.298E+00-0.916E-01
CGA:  48    -0.666154200810E+03   -0.24084E-01   -0.23133E-01  8424   0.220E+00-0.672E-01
CGA:  49    -0.666176763506E+03   -0.22563E-01   -0.25268E-01  8424   0.249E+00-0.726E-01
CGA:  50    -0.666194060761E+03   -0.17297E-01   -0.16725E-01  8424   0.179E+00-0.465E-01
CGA:  51    -0.666207550539E+03   -0.13490E-01   -0.13042E-01  8424   0.128E+00-0.197E-01
CGA:  52    -0.666219743925E+03   -0.12193E-01   -0.12168E-01  8424   0.126E+00-0.727E-02
CGA:  53    -0.666233300894E+03   -0.13557E-01   -0.13553E-01  8424   0.127E+00 0.693E-03
CGA:  54    -0.666248037676E+03   -0.14737E-01   -0.14695E-01  8424   0.118E+00 0.857E-02
CGA:  55    -0.666261612889E+03   -0.13575E-01   -0.13625E-01  8424   0.890E-01 0.158E-01
CGA:  56    -0.666271218979E+03   -0.96061E-02   -0.98525E-02  8424   0.636E-01 0.186E-01
CGA:  57    -0.666279110669E+03   -0.78917E-02   -0.80097E-02  8424   0.551E-01 0.199E-01
CGA:  58    -0.666286766829E+03   -0.76562E-02   -0.77158E-02  8424   0.407E-01 0.192E-01
CGA:  59    -0.666292284999E+03   -0.55182E-02   -0.56152E-02  8424   0.270E-01 0.130E-01
CGA:  60    -0.666296129111E+03   -0.38441E-02   -0.38555E-02  8424   0.222E-01 0.979E-02
CGA:  61    -0.666299241832E+03   -0.31127E-02   -0.31602E-02  8424   0.179E-01 0.101E-01
CGA:  62    -0.666301715202E+03   -0.24734E-02   -0.25744E-02  8424   0.142E-01 0.979E-02
CGA:  63    -0.666304560091E+03   -0.28449E-02   -0.27588E-02  8424   0.749E-02 0.984E-03
CGA:  64    -0.666309166877E+03   -0.46068E-02   -0.22432E-04  8424   0.116E-01-0.171E-02
CGA:  65    -0.666311349419E+03   -0.21825E-02   -0.21445E-02  8424   0.659E-02 0.985E-03
CGA:  66    -0.666313626740E+03   -0.22773E-02   -0.21544E-02  8424   0.447E-02 0.122E-02
CGA:  67    -0.666315406810E+03   -0.17801E-02   -0.17904E-02  8424   0.411E-02-0.164E-03
CGA:  68    -0.666316724163E+03   -0.13174E-02   -0.12676E-02  8424   0.390E-02 0.379E-03
CGA:  69    -0.666318841485E+03   -0.21173E-02   -0.21036E-02  8424   0.563E-02-0.168E-03
CGA:  70    -0.666317051314E+03    0.17902E-02   -0.46299E-02  8424   0.462E-01-0.112E-01
CGA:  71    -0.666324099639E+03   -0.70483E-02   -0.71927E-02  8424   0.961E-02 0.154E-02
CGA:  72    -0.666328088491E+03   -0.39889E-02   -0.60603E-02  8424   0.127E-01-0.598E-02
CGA:  73    -0.666330811952E+03   -0.27235E-02   -0.26969E-02  8424   0.360E-02-0.388E-03
CGA:  74    -0.666329578916E+03    0.12330E-02   -0.29207E-02  8424   0.346E-01-0.744E-02
CGA:  75    -0.666333945263E+03   -0.43663E-02   -0.45536E-02  8424   0.369E-02 0.126E-02
CGA:  76    -0.666335120762E+03   -0.11755E-02   -0.24026E-02  8424   0.815E-02-0.371E-02
CGA:  77    -0.666336845839E+03   -0.17251E-02   -0.17045E-02  8424   0.221E-02-0.199E-03
CGA:  78    -0.666335894052E+03    0.95179E-03   -0.17694E-02  8424   0.286E-01-0.533E-02
CGA:  79    -0.666339355565E+03   -0.34615E-02   -0.35563E-02  8424   0.255E-02 0.702E-03
CGA:  80    -0.666340174247E+03   -0.81868E-03   -0.16253E-02  8424   0.622E-02-0.271E-02
CGA:  81    -0.666341776714E+03   -0.16025E-02   -0.15584E-02  8424   0.152E-02-0.511E-03
CGA:  82    -0.666342737367E+03   -0.96065E-03    0.65675E-02  8424   0.232E-02-0.391E-03
CGA:  83    -0.666344747008E+03   -0.20096E-02    0.38341E-03  8424   0.191E-02 0.108E-02
CGA:  84    -0.666346772771E+03   -0.20258E-02    0.55165E-02  8424   0.459E-02-0.311E-04
CGA:  85    -0.666352553325E+03   -0.57806E-02    0.81653E-03  8424   0.105E-01 0.205E-02
CGA:  86    -0.666366728300E+03   -0.14175E-01    0.62292E-02  8424   0.223E-01-0.275E-02
CGA:  87    -0.666395419795E+03   -0.28691E-01    0.16969E-02  8424   0.549E-01-0.701E-02
CGA:  88    -0.666435401054E+03   -0.39981E-01    0.10582E-01  8424   0.116E+00-0.187E+00
CGA:  89    -0.666454710592E+03   -0.19310E-01   -0.19877E-01  8424   0.341E-01 0.305E-02
CGA:  90    -0.666464438805E+03   -0.97282E-02   -0.10086E-01  8424   0.138E-01 0.979E-02
CGA:  91    -0.666468621322E+03   -0.41825E-02   -0.47032E-02  8424   0.102E-01 0.897E-02
CGA:  92    -0.666470716948E+03   -0.20956E-02   -0.24089E-02  8424   0.748E-02 0.369E-02
CGA:  93    -0.666472686582E+03   -0.19696E-02   -0.24861E-02  8424   0.478E-02 0.717E-02
CGA:  94    -0.666473362944E+03   -0.67636E-03   -0.10036E-02  8424   0.362E-02 0.319E-02
CGA:  95    -0.666473852242E+03   -0.48930E-03   -0.76818E-03  8424   0.312E-02 0.293E-02
CGA:  96    -0.666474160980E+03   -0.30874E-03   -0.60412E-03  8424   0.275E-02 0.271E-02
CGA:  97    -0.666474435618E+03   -0.27464E-03   -0.53387E-03  8424   0.248E-02 0.250E-02
CGA:  98    -0.666474612586E+03   -0.17697E-03   -0.44142E-03  8424   0.226E-02 0.232E-02
CGA:  99    -0.666474765883E+03   -0.15330E-03   -0.39463E-03  8424   0.208E-02 0.215E-02
CGA: 100    -0.666474869357E+03   -0.10347E-03   -0.33982E-03  8424   0.194E-02 0.201E-02
CGA: 101    -0.666474951985E+03   -0.82628E-04   -0.30430E-03  8424   0.182E-02 0.188E-02
CGA: 102    -0.666475009914E+03   -0.57928E-04   -0.27007E-03  8424   0.171E-02 0.176E-02
CGA: 103    -0.666475052115E+03   -0.42201E-04   -0.24314E-03  8424   0.162E-02 0.166E-02
CGA: 104    -0.666475080524E+03   -0.28409E-04   -0.21940E-03  8424   0.153E-02 0.157E-02
CGA: 105    -0.666475098419E+03   -0.17895E-04   -0.19919E-03  8424   0.146E-02 0.150E-02
CGA: 106    -0.666475107795E+03   -0.93760E-05   -0.18157E-03  8424   0.139E-02 0.143E-02
CGA: 107    -0.666475110384E+03   -0.25889E-05   -0.16619E-03  8424   0.134E-02 0.137E-02
CGA: 108    -0.666475107529E+03    0.28553E-05   -0.15266E-03  8424   0.128E-02 0.131E-02
CGA: 109    -0.666475100311E+03    0.72181E-05   -0.14069E-03  8424   0.124E-02 0.126E-02
CGA: 110    -0.666475089602E+03    0.10709E-04   -0.13005E-03  8424   0.119E-02 0.121E-02
CGA: 111    -0.666475076112E+03    0.13491E-04   -0.12053E-03  8424   0.115E-02 0.117E-02
CGA: 112    -0.666475060417E+03    0.15694E-04   -0.11200E-03  8424   0.112E-02 0.113E-02
CGA: 113    -0.666475042992E+03    0.17425E-04   -0.10430E-03  8424   0.108E-02 0.110E-02
CGA: 114    -0.666475024225E+03    0.18768E-04   -0.97335E-04  8424   0.105E-02 0.107E-02
CGA: 115    -0.666475004435E+03    0.19790E-04   -0.91009E-04  8424   0.102E-02 0.104E-02
CGA: 116    -0.666474983885E+03    0.20550E-04   -0.85246E-04  8424   0.999E-03 0.101E-02
CGA: 117    -0.666474962794E+03    0.21091E-04   -0.79978E-04  8424   0.975E-03 0.986E-03
CGA: 118    -0.666474941343E+03    0.21451E-04   -0.75150E-04  8424   0.952E-03 0.963E-03
CGA: 119    -0.666474919681E+03    0.21662E-04   -0.70714E-04  8424   0.931E-03 0.941E-03
CGA: 120    -0.666474897932E+03    0.21749E-04   -0.66627E-04  8424   0.912E-03 0.921E-03
CGA: 121    -0.666474876198E+03    0.21733E-04   -0.62853E-04  8424   0.893E-03 0.902E-03
CGA: 122    -0.666474854569E+03    0.21629E-04   -0.59361E-04  8424   0.876E-03 0.885E-03
CGA: 123    -0.666474833116E+03    0.21454E-04   -0.56120E-04  8424   0.860E-03 0.868E-03
CGA: 124    -0.666474811903E+03    0.21213E-04   -0.53110E-04  8424   0.845E-03 0.852E-03
CGA: 125    -0.666474790976E+03    0.20927E-04   -0.50305E-04  8424   0.830E-03 0.837E-03
CGA: 126    -0.666474770387E+03    0.20589E-04   -0.47694E-04  8424   0.817E-03 0.823E-03
CGA: 127    -0.666474750155E+03    0.20232E-04   -0.45250E-04  8424   0.804E-03 0.810E-03
CGA: 128    -0.666474730321E+03    0.19834E-04   -0.42973E-04  8424   0.792E-03 0.798E-03
CGA: 129    -0.666474710886E+03    0.19435E-04   -0.40834E-04  8424   0.781E-03 0.786E-03
CGA: 130    -0.666474691879E+03    0.19008E-04   -0.38839E-04  8424   0.770E-03 0.775E-03
CGA: 131    -0.666474673290E+03    0.18588E-04   -0.36960E-04  8424   0.760E-03 0.765E-03
CGA: 132    -0.666474655140E+03    0.18151E-04   -0.35202E-04  8424   0.750E-03 0.755E-03
CGA: 133    -0.666474637416E+03    0.17724E-04   -0.33544E-04  8424   0.741E-03 0.745E-03
CGA: 134    -0.666474620133E+03    0.17283E-04   -0.31991E-04  8424   0.733E-03 0.737E-03
CGA: 135    -0.666474603279E+03    0.16854E-04   -0.30521E-04  8424   0.724E-03 0.728E-03
CGA: 136    -0.666474586866E+03    0.16413E-04   -0.29140E-04  8424   0.717E-03 0.720E-03
CGA: 137    -0.666474570881E+03    0.15985E-04   -0.27831E-04  8424   0.709E-03 0.713E-03
CGA: 138    -0.666474555331E+03    0.15550E-04   -0.26599E-04  8424   0.702E-03 0.706E-03
CGA: 139    -0.666474540203E+03    0.15128E-04   -0.25429E-04  8424   0.696E-03 0.699E-03
CGA: 140    -0.666474525499E+03    0.14704E-04   -0.24325E-04  8424   0.689E-03 0.692E-03
CGA: 141    -0.666474511206E+03    0.14293E-04   -0.23275E-04  8424   0.683E-03 0.686E-03
CGA: 142    -0.666474497323E+03    0.13883E-04   -0.22282E-04  8424   0.678E-03 0.680E-03
CGA: 143    -0.666474483836E+03    0.13487E-04   -0.21337E-04  8424   0.672E-03 0.675E-03
CGA: 144    -0.666474470742E+03    0.13094E-04   -0.20442E-04  8424   0.667E-03 0.669E-03
CGA: 145    -0.666474458027E+03    0.12715E-04   -0.19590E-04  8424   0.662E-03 0.664E-03
CGA: 146    -0.666474445686E+03    0.12341E-04   -0.18781E-04  8424   0.657E-03 0.659E-03
CGA: 147    -0.666474433707E+03    0.11978E-04   -0.18011E-04  8424   0.652E-03 0.654E-03
CGA: 148    -0.666474422084E+03    0.11623E-04   -0.17279E-04  8424   0.648E-03 0.650E-03
CGA: 149    -0.666474410805E+03    0.11279E-04   -0.16580E-04  8424   0.644E-03 0.646E-03
CGA: 150    -0.666474399865E+03    0.10940E-04   -0.15915E-04  8424   0.640E-03 0.642E-03
CGA: 151    -0.666474389252E+03    0.10613E-04   -0.15280E-04  8424   0.636E-03 0.638E-03
CGA: 152    -0.666474378963E+03    0.10289E-04   -0.14675E-04  8424   0.632E-03 0.634E-03
CGA: 153    -0.666474368986E+03    0.99774E-05   -0.14096E-04  8424   0.629E-03 0.631E-03
CGA: 154    -0.666474359316E+03    0.96701E-05   -0.13545E-04  8424   0.625E-03 0.627E-03
CGA: 155    -0.666474349941E+03    0.93749E-05   -0.13017E-04  8424   0.622E-03 0.624E-03
CGA: 156    -0.666474340857E+03    0.90842E-05   -0.12514E-04  8424   0.619E-03 0.621E-03
CGA: 157    -0.666474332051E+03    0.88054E-05   -0.12031E-04  8424   0.616E-03 0.618E-03
CGA: 158    -0.666474323520E+03    0.85313E-05   -0.11571E-04  8424   0.613E-03 0.615E-03
CGA: 159    -0.666474315252E+03    0.82683E-05   -0.11129E-04  8424   0.611E-03 0.612E-03
CGA: 160    -0.666474307242E+03    0.80102E-05   -0.10707E-04  8424   0.608E-03 0.609E-03
CGA: 161    -0.666474299479E+03    0.77623E-05   -0.10302E-04  8424   0.605E-03 0.607E-03
   1 F= -.66647430E+03 E0= -.66647430E+03  d E =-.666474E+03  mag=     2.0000
       N       E                     dE             d eps       ncg     rms          ort
SDA:   1    -0.666478668716E+03   -0.43615E-02    0.00000E+00  8424   0.458E-02 0.000E+00
CGA:   2    -0.666479246839E+03   -0.57812E-03   -0.42538E-03  8424   0.244E-02 0.310E-02
CGA:   3    -0.666479464260E+03   -0.21742E-03   -0.16925E-03  8424   0.182E-02 0.208E-02
CGA:   4    -0.666479583435E+03   -0.11918E-03   -0.10372E-03  8424   0.149E-02 0.163E-02
CGA:   5    -0.666479657449E+03   -0.74014E-04   -0.72741E-04  8424   0.128E-02 0.137E-02
CGA:   6    -0.666479706363E+03   -0.48914E-04   -0.54804E-04  8424   0.112E-02 0.119E-02
CGA:   7    -0.666479739856E+03   -0.33493E-04   -0.43250E-04  8424   0.101E-02 0.106E-02
CGA:   8    -0.666479763250E+03   -0.23393E-04   -0.35276E-04  8424   0.924E-03 0.963E-03
CGA:   9    -0.666479779725E+03   -0.16475E-04   -0.29498E-04  8424   0.855E-03 0.886E-03
CGA:  10    -0.666479791303E+03   -0.11578E-04   -0.25153E-04  8424   0.799E-03 0.824E-03
CGA:  11    -0.666479799328E+03   -0.80247E-05   -0.21789E-04  8424   0.753E-03 0.774E-03
CGA:  12    -0.666479804723E+03   -0.53951E-05   -0.19123E-04  8424   0.714E-03 0.732E-03
CGA:  13    -0.666479808143E+03   -0.34201E-05   -0.16967E-04  8424   0.681E-03 0.696E-03
CGA:  14    -0.666479810062E+03   -0.19189E-05   -0.15194E-04  8424   0.653E-03 0.666E-03
CGA:  15    -0.666479810830E+03   -0.76831E-06   -0.13714E-04  8424   0.628E-03 0.640E-03
CGA:  16    -0.666479810711E+03    0.11941E-06   -0.12464E-04  8424   0.607E-03 0.617E-03
CGA:  17    -0.666479809904E+03    0.80683E-06   -0.11396E-04  8424   0.588E-03 0.597E-03
CGA:  18    -0.666479808565E+03    0.13396E-05   -0.10474E-04  8424   0.572E-03 0.579E-03
   2 F= -.66647981E+03 E0= -.66647981E+03  d E =-.550909E-02  mag=     2.0000
       N       E                     dE             d eps       ncg     rms          ort
SDA:   1    -0.666477627236E+03    0.21827E-02    0.00000E+00  8424   0.719E-01 0.000E+00
CGA:   2    -0.666496371911E+03   -0.18745E-01   -0.19925E-02  8424   0.278E-01 0.929E-02
CGA:   3    -0.666502663264E+03   -0.62914E-02   -0.58877E-02  8424   0.765E-02 0.332E-02
CGA:   4    -0.666504005046E+03   -0.13418E-02   -0.11678E-02  8424   0.186E-02 0.270E-02
CGA:   5    -0.666504268380E+03   -0.26333E-03   -0.23517E-03  8424   0.890E-03 0.156E-02
CGA:   6    -0.666504318186E+03   -0.49806E-04   -0.58026E-04  8424   0.650E-03 0.748E-03
CGA:   7    -0.666504336297E+03   -0.18111E-04   -0.33031E-04  8424   0.558E-03 0.602E-03
CGA:   8    -0.666504344541E+03   -0.82434E-05   -0.24444E-04  8424   0.503E-03 0.530E-03
CGA:   9    -0.666504347896E+03   -0.33557E-05   -0.19668E-04  8424   0.465E-03 0.484E-03
CGA:  10    -0.666504348436E+03   -0.53985E-06   -0.16555E-04  8424   0.437E-03 0.451E-03
CGA:  11    -0.666504347221E+03    0.12157E-05   -0.14338E-04  8424   0.415E-03 0.426E-03
CGA:  12    -0.666504344858E+03    0.23622E-05   -0.12665E-04  8424   0.397E-03 0.406E-03
CGA:  13    -0.666504341728E+03    0.31309E-05   -0.11348E-04  8424   0.383E-03 0.390E-03
CGA:  14    -0.666504338075E+03    0.36527E-05   -0.10277E-04  8424   0.371E-03 0.376E-03
   3 F= -.66650434E+03 E0= -.66650434E+03  d E =-.245295E-01  mag=     2.0000
       N       E                     dE             d eps       ncg     rms          ort
SDA:   1    -0.648495716728E+03    0.18009E+02    0.00000E+00  8424   0.488E+02 0.000E+00
CGA:   2    -0.661357549119E+03   -0.12862E+02   -0.12862E+02  8424   0.222E+02 0.361E-01
CGA:   3    -0.665383856383E+03   -0.40263E+01   -0.40230E+01  8424   0.571E+01 0.187E-01
CGA:   4    -0.666384688622E+03   -0.10008E+01   -0.10021E+01  8424   0.145E+01-0.121E-01
CGA:   5    -0.666633659303E+03   -0.24897E+00   -0.24899E+00  8424   0.292E+00-0.271E-03
CGA:   6    -0.666692427037E+03   -0.58768E-01   -0.58403E-01  8424   0.738E-01 0.317E-02
CGA:   7    -0.666710381846E+03   -0.17955E-01   -0.17740E-01  8424   0.264E-01 0.144E-02
CGA:   8    -0.666717287515E+03   -0.69057E-02   -0.63098E-02  8424   0.869E-02 0.438E-02
CGA:   9    -0.666719948906E+03   -0.26614E-02   -0.23303E-02  8424   0.327E-02 0.265E-02
CGA:  10    -0.666720916140E+03   -0.96723E-03   -0.80245E-03  8424   0.157E-02 0.214E-02
CGA:  11    -0.666721192068E+03   -0.27593E-03   -0.23738E-03  8424   0.895E-03 0.109E-02
CGA:  12    -0.666721324144E+03   -0.13208E-03   -0.11926E-03  8424   0.711E-03 0.791E-03
CGA:  13    -0.666721399499E+03   -0.75355E-04   -0.79468E-04  8424   0.619E-03 0.663E-03
CGA:  14    -0.666721453768E+03   -0.54268E-04   -0.63287E-04  8424   0.557E-03 0.587E-03
CGA:  15    -0.666721494840E+03   -0.41072E-04   -0.52816E-04  8424   0.511E-03 0.534E-03
CGA:  16    -0.666721527095E+03   -0.32255E-04   -0.45477E-04  8424   0.476E-03 0.493E-03
CGA:  17    -0.666721553078E+03   -0.25983E-04   -0.39994E-04  8424   0.447E-03 0.461E-03
CGA:  18    -0.666721574406E+03   -0.21329E-04   -0.35719E-04  8424   0.424E-03 0.435E-03
CGA:  19    -0.666721592174E+03   -0.17768E-04   -0.32280E-04  8424   0.404E-03 0.414E-03
CGA:  20    -0.666721607156E+03   -0.14981E-04   -0.29448E-04  8424   0.387E-03 0.395E-03
CGA:  21    -0.666721619915E+03   -0.12760E-04   -0.27072E-04  8424   0.372E-03 0.379E-03
CGA:  22    -0.666721630879E+03   -0.10964E-04   -0.25047E-04  8424   0.359E-03 0.366E-03
CGA:  23    -0.666721640373E+03   -0.94938E-05   -0.23301E-04  8424   0.348E-03 0.354E-03
CGA:  24    -0.666721648652E+03   -0.82800E-05   -0.21778E-04  8424   0.338E-03 0.343E-03
CGA:  25    -0.666721655920E+03   -0.72676E-05   -0.20437E-04  8424   0.329E-03 0.333E-03
CGA:  26    -0.666721662337E+03   -0.64166E-05   -0.19247E-04  8424   0.321E-03 0.325E-03
CGA:  27    -0.666721668035E+03   -0.56980E-05   -0.18186E-04  8424   0.314E-03 0.317E-03
CGA:  28    -0.666721673119E+03   -0.50842E-05   -0.17229E-04  8424   0.307E-03 0.310E-03
CGA:  29    -0.666721677676E+03   -0.45572E-05   -0.16363E-04  8424   0.301E-03 0.304E-03
CGA:  30    -0.666721681779E+03   -0.41026E-05   -0.15572E-04  8424   0.296E-03 0.298E-03
CGA:  31    -0.666721685486E+03   -0.37077E-05   -0.14848E-04  8424   0.291E-03 0.293E-03
CGA:  32    -0.666721688850E+03   -0.33640E-05   -0.14181E-04  8424   0.286E-03 0.288E-03
CGA:  33    -0.666721691914E+03   -0.30630E-05   -0.13565E-04  8424   0.282E-03 0.284E-03
CGA:  34    -0.666721694712E+03   -0.27987E-05   -0.12994E-04  8424   0.278E-03 0.280E-03
CGA:  35    -0.666721697277E+03   -0.25652E-05   -0.12461E-04  8424   0.274E-03 0.276E-03
CGA:  36    -0.666721699636E+03   -0.23583E-05   -0.11964E-04  8424   0.270E-03 0.272E-03
CGA:  37    -0.666721701810E+03   -0.21742E-05   -0.11499E-04  8424   0.267E-03 0.269E-03
CGA:  38    -0.666721703820E+03   -0.20101E-05   -0.11061E-04  8424   0.264E-03 0.266E-03
CGA:  39    -0.666721705683E+03   -0.18627E-05   -0.10650E-04  8424   0.261E-03 0.263E-03
CGA:  40    -0.666721707413E+03   -0.17301E-05   -0.10261E-04  8424   0.259E-03 0.260E-03
   4 F= -.66672171E+03 E0= -.66672171E+03  d E =-.217369E+00  mag=     2.0000
       N       E                     dE             d eps       ncg     rms          ort
SDA:   1    -0.665227609014E+03    0.14941E+01    0.00000E+00  8424   0.529E+01 0.000E+00
CGA:   2    -0.666243517093E+03   -0.10159E+01   -0.10121E+01  8424   0.196E+01 0.315E-01
CGA:   3    -0.666665401302E+03   -0.42188E+00   -0.42223E+00  8424   0.703E+00-0.337E-02
CGA:   4    -0.666784028505E+03   -0.11863E+00   -0.11855E+00  8424   0.172E+00 0.767E-03
CGA:   5    -0.666814090194E+03   -0.30062E-01   -0.29878E-01  8424   0.350E-01 0.210E-02
CGA:   6    -0.666821096311E+03   -0.70061E-02   -0.69439E-02  8424   0.772E-02 0.583E-03
CGA:   7    -0.666822715101E+03   -0.16188E-02   -0.14818E-02  8424   0.200E-02 0.147E-02
CGA:   8    -0.666823164837E+03   -0.44974E-03   -0.38842E-03  8424   0.715E-03 0.980E-03
CGA:   9    -0.666823300309E+03   -0.13547E-03   -0.12611E-03  8424   0.380E-03 0.634E-03
CGA:  10    -0.666823331295E+03   -0.30986E-04   -0.34968E-04  8424   0.287E-03 0.323E-03
CGA:  11    -0.666823344912E+03   -0.13617E-04   -0.21412E-04  8424   0.252E-03 0.267E-03
CGA:  12    -0.666823352913E+03   -0.80013E-05   -0.16698E-04  8424   0.232E-03 0.240E-03
CGA:  13    -0.666823357986E+03   -0.50723E-05   -0.14006E-04  8424   0.217E-03 0.223E-03
CGA:  14    -0.666823361235E+03   -0.32494E-05   -0.12169E-04  8424   0.206E-03 0.210E-03
CGA:  15    -0.666823363237E+03   -0.20017E-05   -0.10790E-04  8424   0.196E-03 0.200E-03
   5 F= -.66682336E+03 E0= -.66682336E+03  d E =-.101656E+00  mag=     2.0000
       N       E                     dE             d eps       ncg     rms          ort
SDA:   1    -0.666387585400E+03    0.43578E+00    0.00000E+00  8424   0.150E+01 0.000E+00
CGA:   2    -0.666680563364E+03   -0.29298E+00   -0.29209E+00  8424   0.563E+00 0.849E-02
CGA:   3    -0.666801441028E+03   -0.12088E+00   -0.12108E+00  8424   0.203E+00-0.189E-02
CGA:   4    -0.666835746730E+03   -0.34306E-01   -0.34287E-01  8424   0.494E-01 0.235E-03
CGA:   5    -0.666844254767E+03   -0.85080E-02   -0.84408E-02  8424   0.982E-02 0.104E-02
CGA:   6    -0.666846212843E+03   -0.19581E-02   -0.19131E-02  8424   0.217E-02 0.551E-03
CGA:   7    -0.666846632400E+03   -0.41956E-03   -0.38079E-03  8424   0.642E-03 0.739E-03
CGA:   8    -0.666846740296E+03   -0.10790E-03   -0.10502E-03  8424   0.318E-03 0.486E-03
CGA:   9    -0.666846771095E+03   -0.30798E-04   -0.33519E-04  8424   0.215E-03 0.249E-03
CGA:  10    -0.666846780222E+03   -0.91269E-05   -0.16668E-04  8424   0.185E-03 0.197E-03
CGA:  11    -0.666846784620E+03   -0.43981E-05   -0.12485E-04  8424   0.167E-03 0.174E-03
CGA:  12    -0.666846786665E+03   -0.20451E-05   -0.10160E-04  8424   0.155E-03 0.160E-03
   6 F= -.66684679E+03 E0= -.66684679E+03  d E =-.234234E-01  mag=     2.0000
       N       E                     dE             d eps       ncg     rms          ort
SDA:   1    -0.666576554876E+03    0.27023E+00    0.00000E+00  8424   0.878E+00 0.000E+00
CGA:   2    -0.666783177849E+03   -0.20662E+00   -0.20605E+00  8424   0.402E+00 0.439E-02
CGA:   3    -0.666863015023E+03   -0.79837E-01   -0.80074E-01  8424   0.119E+00-0.284E-02
CGA:   4    -0.666882684146E+03   -0.19669E-01   -0.19668E-01  8424   0.270E-01-0.898E-06
CGA:   5    -0.666887296588E+03   -0.46124E-02   -0.45755E-02  8424   0.536E-02 0.739E-03
CGA:   6    -0.666888385677E+03   -0.10891E-02   -0.10590E-02  8424   0.131E-02 0.427E-03
CGA:   7    -0.666888627583E+03   -0.24191E-03   -0.22418E-03  8424   0.431E-03 0.541E-03
CGA:   8    -0.666888689629E+03   -0.62047E-04   -0.67813E-04  8424   0.237E-03 0.366E-03
CGA:   9    -0.666888707170E+03   -0.17541E-04   -0.23149E-04  8424   0.172E-03 0.195E-03
CGA:  10    -0.666888711561E+03   -0.43910E-05   -0.12638E-04  8424   0.151E-03 0.160E-03
   7 F= -.66688871E+03 E0= -.66688871E+03  d E =-.419249E-01  mag=     2.0000
       N       E                     dE             d eps       ncg     rms          ort
SDA:   1    -0.649181849063E+03    0.17707E+02    0.00000E+00  8424   0.575E+02 0.000E+00
CGA:   2    -0.660245735667E+03   -0.11064E+02   -0.11007E+02  8424   0.217E+02 0.708E+00
CGA:   3    -0.664973039290E+03   -0.47273E+01   -0.47358E+01  8424   0.723E+01-0.987E-01
CGA:   4    -0.666189632400E+03   -0.12166E+01   -0.12163E+01  8424   0.178E+01 0.335E-02
CGA:   5    -0.666497862097E+03   -0.30823E+00   -0.30795E+00  8424   0.374E+00 0.568E-02
CGA:   6    -0.666573024499E+03   -0.75162E-01   -0.75322E-01  8424   0.853E-01-0.237E-02
CGA:   7    -0.666592669726E+03   -0.19645E-01   -0.19593E-01  8424   0.256E-01 0.537E-03
CGA:   8    -0.666599058129E+03   -0.63884E-02   -0.63004E-02  8424   0.765E-02 0.838E-03
CGA:   9    -0.666601330986E+03   -0.22729E-02   -0.23404E-02  8424   0.320E-02-0.451E-03
CGA:  10    -0.666602148647E+03   -0.81766E-03   -0.75975E-03  8424   0.122E-02 0.578E-03
CGA:  11    -0.666602625054E+03   -0.47641E-03   -0.44929E-03  8424   0.599E-03 0.172E-03
CGA:  12    -0.666602858627E+03   -0.23357E-03   -0.20886E-03  8424   0.373E-03 0.172E-03
CGA:  13    -0.666603035987E+03   -0.17736E-03   -0.14588E-03  8424   0.298E-03 0.234E-03
CGA:  14    -0.666603041269E+03   -0.52820E-05   -0.52883E-04  8424   0.211E-02-0.351E-03
CGA:  15    -0.666603413124E+03   -0.37185E-03   -0.40028E-03  8424   0.283E-03 0.206E-03
CGA:  16    -0.666603495483E+03   -0.82359E-04   -0.22973E-03  8424   0.150E-02-0.354E-03
CGA:  17    -0.666603677338E+03   -0.18185E-03   -0.22674E-03  8424   0.262E-03 0.236E-03
CGA:  18    -0.666603807300E+03   -0.12996E-03   -0.18030E-03  8424   0.566E-03-0.194E-03
CGA:  19    -0.666604016007E+03   -0.20871E-03   -0.21088E-03  8424   0.210E-03-0.792E-04
CGA:  20    -0.666604141547E+03   -0.12554E-03    0.99314E-02  8424   0.208E-03 0.973E-04
CGA:  21    -0.666604383772E+03   -0.24222E-03    0.35273E-03  8424   0.134E-03 0.201E-03
CGA:  22    -0.666604517296E+03   -0.13352E-03    0.51924E-04  8424   0.118E-03 0.745E-04
CGA:  23    -0.666604581483E+03   -0.64187E-04   -0.59897E-04  8424   0.289E-03 0.254E-04
CGA:  24    -0.666604988451E+03   -0.40697E-03    0.97228E-04  8424   0.169E-03 0.298E-03
CGA:  25    -0.666605153274E+03   -0.16482E-03    0.80267E-04  8424   0.176E-03 0.816E-05
CGA:  26    -0.666605339674E+03   -0.18640E-03    0.76556E-04  8424   0.173E-03 0.143E-03
CGA:  27    -0.666605469483E+03   -0.12981E-03    0.53843E-03  8424   0.126E-03 0.271E-04
CGA:  28    -0.666605658732E+03   -0.18925E-03    0.30997E-04  8424   0.132E-03 0.122E-03
CGA:  29    -0.666605793875E+03   -0.13514E-03    0.51762E-04  8424   0.972E-04 0.555E-04
CGA:  30    -0.666605976634E+03   -0.18276E-03    0.28207E-04  8424   0.112E-03 0.117E-03
CGA:  31    -0.666606119371E+03   -0.14274E-03    0.24640E-04  8424   0.873E-04 0.627E-04
CGA:  32    -0.666606213779E+03   -0.94408E-04    0.29324E-04  8424   0.983E-04 0.608E-04
CGA:  33    -0.666606365873E+03   -0.15209E-03    0.14706E-04  8424   0.146E-03 0.346E-04
CGA:  34    -0.666606663127E+03   -0.29725E-03    0.31163E-04  8424   0.932E-04 0.187E-03
CGA:  35    -0.666606745441E+03   -0.82314E-04    0.66832E-04  8424   0.133E-03 0.373E-04
CGA:  36    -0.666607058880E+03   -0.31344E-03    0.23846E-04  8424   0.895E-04 0.169E-03
CGA:  37    -0.666607204402E+03   -0.14552E-03    0.12236E-04  8424   0.926E-04 0.480E-04
CGA:  38    -0.666607293972E+03   -0.89570E-04    0.44815E-04  8424   0.118E-03 0.351E-04
CGA:  39    -0.666607597513E+03   -0.30354E-03    0.17820E-04  8424   0.971E-04 0.146E-03
CGA:  40    -0.666607735650E+03   -0.13814E-03    0.17052E-04  8424   0.890E-04 0.379E-04
CGA:  41    -0.666607973616E+03   -0.23797E-03    0.12748E-04  8424   0.923E-04 0.120E-03
CGA:  42    -0.666608100233E+03   -0.12662E-03    0.17457E-04  8424   0.764E-04 0.439E-04
CGA:  43    -0.666608329804E+03   -0.22957E-03    0.10639E-04  8424   0.849E-04 0.108E-03
CGA:  44    -0.666608467082E+03   -0.13728E-03    0.11718E-04  8424   0.678E-04 0.491E-04
CGA:  45    -0.666608591842E+03   -0.12476E-03    0.75193E-05  8424   0.632E-04 0.560E-04
CGA:  46    -0.666608724941E+03   -0.13310E-03    0.56581E-05  8424   0.613E-04 0.575E-04
CGA:  47    -0.666608849264E+03   -0.12432E-03    0.58123E-05  8424   0.603E-04 0.577E-04
CGA:  48    -0.666608985071E+03   -0.13581E-03    0.48917E-05  8424   0.600E-04 0.573E-04
CGA:  49    -0.666609105181E+03   -0.12011E-03    0.58046E-05  8424   0.609E-04 0.560E-04
CGA:  50    -0.666609250276E+03   -0.14509E-03    0.45559E-05  8424   0.657E-04 0.526E-04
CGA:  51    -0.666609351307E+03   -0.10103E-03    0.99459E-05  8424   0.852E-04 0.418E-04
CGA:  52    -0.666609522070E+03   -0.17076E-03    0.82437E-05  8424   0.163E-03 0.199E-05
CGA:  53    -0.666609906817E+03   -0.38475E-03    0.13092E-04  8424   0.149E-03 0.162E-03
CGA:  54    -0.666609935818E+03   -0.29001E-04   -0.28605E-04  8424   0.915E-04-0.276E-05
CGA:  55    -0.666610141727E+03   -0.20591E-03    0.67181E-05  8424   0.858E-04 0.853E-04
CGA:  56    -0.666610310490E+03   -0.16876E-03    0.80453E-05  8424   0.163E-03-0.518E-05
CGA:  57    -0.666610680132E+03   -0.36964E-03    0.10668E-04  8424   0.176E-03 0.140E-03
CGA:  58    -0.666610718693E+03   -0.38561E-04   -0.36420E-04  8424   0.951E-04-0.158E-04
CGA:  59    -0.666610925571E+03   -0.20688E-03    0.58133E-05  8424   0.902E-04 0.670E-04
CGA:  60    -0.666611060614E+03   -0.13504E-03    0.12641E-04  8424   0.959E-04 0.644E-05
CGA:  61    -0.666611320267E+03   -0.25965E-03    0.63937E-05  8424   0.952E-04 0.101E-03
CGA:  62    -0.666611436849E+03   -0.11658E-03    0.20013E-04  8424   0.855E-04 0.686E-05
CGA:  63    -0.666611674941E+03   -0.23809E-03    0.54860E-05  8424   0.858E-04 0.894E-04
CGA:  64    -0.666611811453E+03   -0.13651E-03    0.10798E-04  8424   0.685E-04 0.190E-04
CGA:  65    -0.666612036150E+03   -0.22470E-03    0.47885E-05  8424   0.726E-04 0.814E-04
CGA:  66    -0.666612157439E+03   -0.12129E-03    0.84113E-05  8424   0.568E-04 0.296E-04
CGA:  67    -0.666612376894E+03   -0.21945E-03    0.44416E-05  8424   0.643E-04 0.775E-04
CGA:  68    -0.666612509714E+03   -0.13282E-03    0.53306E-05  8424   0.510E-04 0.343E-04
CGA:  69    -0.666612631616E+03   -0.12190E-03    0.34278E-05  8424   0.465E-04 0.410E-04
CGA:  70    -0.666612757739E+03   -0.12612E-03    0.26319E-05  8424   0.449E-04 0.429E-04
CGA:  71    -0.666612881236E+03   -0.12350E-03    0.24951E-05  8424   0.442E-04 0.434E-04
CGA:  72    -0.666613006197E+03   -0.12496E-03    0.23659E-05  8424   0.438E-04 0.434E-04
CGA:  73    -0.666613130416E+03   -0.12422E-03    0.23299E-05  8424   0.434E-04 0.432E-04
CGA:  74    -0.666613255165E+03   -0.12475E-03    0.22762E-05  8424   0.432E-04 0.430E-04
CGA:  75    -0.666613379657E+03   -0.12449E-03    0.22483E-05  8424   0.429E-04 0.427E-04
CGA:  76    -0.666613504258E+03   -0.12460E-03    0.22197E-05  8424   0.429E-04 0.423E-04
CGA:  77    -0.666613628777E+03   -0.12452E-03    0.22154E-05  8424   0.434E-04 0.416E-04
CGA:  78    -0.666613752669E+03   -0.12389E-03    0.22962E-05  8424   0.463E-04 0.397E-04
CGA:  79    -0.666613876109E+03   -0.12344E-03    0.26736E-05  8424   0.583E-04 0.333E-04
CGA:  80    -0.666613993785E+03   -0.11768E-03    0.49917E-05  8424   0.108E-03 0.831E-05
CGA:  81    -0.666614353248E+03   -0.35946E-03    0.63917E-05  8424   0.800E-04 0.120E-03
CGA:  82    -0.666614465558E+03   -0.11231E-03    0.12676E-04  8424   0.195E-03-0.368E-04
CGA:  83    -0.666614860792E+03   -0.39523E-03    0.39320E-05  8424   0.465E-03 0.760E-04
CGA:  84    -0.666616000578E+03   -0.11398E-02    0.68373E-04  8424   0.571E-03 0.428E-04
CGA:  85    -0.666617617418E+03   -0.16168E-02    0.37431E-04  8424   0.148E-03 0.432E-03
CGA:  86    -0.666617719632E+03   -0.10221E-03    0.14188E-02  8424   0.320E-03-0.141E-03
CGA:  87    -0.666617807821E+03   -0.88189E-04   -0.68376E-04  8424   0.175E-03-0.158E-03
CGA:  88    -0.666618000152E+03   -0.19233E-03    0.65082E-05  8424   0.848E-04 0.465E-04
CGA:  89    -0.666618202594E+03   -0.20244E-03    0.97516E-05  8424   0.113E-03 0.224E-05
CGA:  90    -0.666618578799E+03   -0.37621E-03    0.49453E-05  8424   0.144E-03 0.906E-04
CGA:  91    -0.666618695728E+03   -0.11693E-03    0.11004E-03  8424   0.140E-03-0.741E-04
CGA:  92    -0.666618814284E+03   -0.11856E-03    0.84358E-04  8424   0.136E-03-0.686E-04
CGA:  93    -0.666619032911E+03   -0.21863E-03    0.30905E-05  8424   0.141E-03 0.540E-04
CGA:  94    -0.666619391971E+03   -0.35906E-03    0.18886E-04  8424   0.101E-03 0.367E-04
CGA:  95    -0.666619770049E+03   -0.37808E-03    0.61681E-05  8424   0.102E-03 0.835E-04
CGA:  96    -0.666619878009E+03   -0.10796E-03    0.28332E-04  8424   0.949E-04-0.256E-04
CGA:  97    -0.666620096166E+03   -0.21816E-03    0.32600E-05  8424   0.928E-04 0.513E-04
CGA:  98    -0.666620224543E+03   -0.12838E-03    0.14313E-04  8424   0.575E-04-0.449E-05
CGA:  99    -0.666620410010E+03   -0.18547E-03    0.22279E-05  8424   0.558E-04 0.541E-04
CGA: 100    -0.666620521986E+03   -0.11198E-03    0.46106E-05  8424   0.402E-04 0.213E-04
CGA: 101    -0.666620714320E+03   -0.19233E-03    0.21972E-05  8424   0.479E-04 0.541E-04
CGA: 102    -0.666620834623E+03   -0.12030E-03    0.28759E-05  8424   0.370E-04 0.263E-04
CGA: 103    -0.666620946697E+03   -0.11207E-03    0.17363E-05  8424   0.344E-04 0.316E-04
CGA: 104    -0.666621060987E+03   -0.11429E-03    0.14358E-05  8424   0.338E-04 0.330E-04
CGA: 105    -0.666621174820E+03   -0.11383E-03    0.13896E-05  8424   0.338E-04 0.334E-04
CGA: 106    -0.666621288531E+03   -0.11371E-03    0.13828E-05  8424   0.338E-04 0.336E-04
CGA: 107    -0.666621403376E+03   -0.11484E-03    0.13686E-05  8424   0.339E-04 0.337E-04
CGA: 108    -0.666621516905E+03   -0.11353E-03    0.13950E-05  8424   0.340E-04 0.338E-04
CGA: 109    -0.666621632947E+03   -0.11604E-03    0.13661E-05  8424   0.341E-04 0.338E-04
CGA: 110    -0.666621745458E+03   -0.11251E-03    0.14331E-05  8424   0.344E-04 0.338E-04
CGA: 111    -0.666621864120E+03   -0.11866E-03    0.13671E-05  8424   0.352E-04 0.335E-04
CGA: 112    -0.666621972151E+03   -0.10803E-03    0.16261E-05  8424   0.383E-04 0.320E-04
CGA: 113    -0.666622098255E+03   -0.12610E-03    0.16112E-05  8424   0.500E-04 0.262E-04
CGA: 114    -0.666622185297E+03   -0.87042E-04    0.51581E-05  8424   0.982E-04 0.274E-05
CGA: 115    -0.666622528435E+03   -0.34314E-03    0.43313E-05  8424   0.873E-04 0.103E-03
CGA: 116    -0.666622671425E+03   -0.14299E-03    0.99343E-05  8424   0.259E-03-0.732E-04
CGA: 117    -0.666622704221E+03   -0.32796E-04   -0.32344E-04  8424   0.408E-04-0.213E-05
CGA: 118    -0.666622831732E+03   -0.12751E-03    0.16772E-05  8424   0.396E-04 0.400E-04
CGA: 119    -0.666622960358E+03   -0.12863E-03    0.15788E-05  8424   0.539E-04 0.251E-04
CGA: 120    -0.666623031498E+03   -0.71140E-04    0.82798E-05  8424   0.114E-03-0.386E-05
CGA: 121    -0.666623374442E+03   -0.34294E-03    0.42052E-05  8424   0.132E-03 0.105E-03
CGA: 122    -0.666623538115E+03   -0.16367E-03    0.22921E-04  8424   0.434E-03-0.160E-03
CGA: 123    -0.666623565008E+03   -0.26893E-04   -0.42029E-04  8424   0.382E-04 0.672E-04
CGA: 124    -0.666623645775E+03   -0.80767E-04    0.35427E-05  8424   0.108E-03 0.928E-05
CGA: 125    -0.666624069600E+03   -0.42382E-03    0.51063E-05  8424   0.176E-03 0.128E-03
CGA: 126    -0.666624249089E+03   -0.17949E-03    0.42953E-04  8424   0.553E-03-0.231E-03
CGA: 127    -0.666624274401E+03   -0.25312E-04   -0.49696E-04  8424   0.476E-04 0.110E-03
CGA: 128    -0.666624326974E+03   -0.52572E-04    0.16082E-04  8424   0.170E-03-0.228E-04
CGA: 129    -0.666624674368E+03   -0.34739E-03    0.24190E-05  8424   0.108E-02-0.754E-04
CGA: 130    -0.666627472809E+03   -0.27984E-02    0.13387E-04  8424   0.607E-02-0.314E-03
CGA: 131    -0.666649299741E+03   -0.21827E-01    0.86799E-04  8424   0.235E-01-0.249E-02
CGA: 132    -0.666746749118E+03   -0.97449E-01    0.19299E-03  8424   0.866E-01-0.251E+00
CGA: 133    -0.666759272655E+03   -0.12524E-01   -0.13685E-01  8424   0.135E-01 0.848E-02
CGA: 134    -0.666761154868E+03   -0.18822E-02   -0.26124E-02  8424   0.566E-02 0.624E-02
CGA: 135    -0.666761326410E+03   -0.17154E-03   -0.10999E-02  8424   0.480E-02 0.600E-02
CGA: 136    -0.666761303345E+03    0.23065E-04   -0.60487E-03  8424   0.383E-02 0.411E-02
CGA: 137    -0.666761185561E+03    0.11778E-03   -0.44754E-03  8424   0.350E-02 0.365E-02
CGA: 138    -0.666761029404E+03    0.15616E-03   -0.37567E-03  8424   0.330E-02 0.339E-02
CGA: 139    -0.666760857363E+03    0.17204E-03   -0.32941E-03  8424   0.314E-02 0.321E-02
CGA: 140    -0.666760677635E+03    0.17973E-03   -0.29425E-03  8424   0.301E-02 0.307E-02
CGA: 141    -0.666760494718E+03    0.18292E-03   -0.26590E-03  8424   0.290E-02 0.295E-02
CGA: 142    -0.666760311391E+03    0.18333E-03   -0.24230E-03  8424   0.280E-02 0.285E-02
CGA: 143    -0.666760129478E+03    0.18191E-03   -0.22224E-03  8424   0.272E-02 0.276E-02
CGA: 144    -0.666759950209E+03    0.17927E-03   -0.20492E-03  8424   0.265E-02 0.269E-02
CGA: 145    -0.666759774425E+03    0.17578E-03   -0.18979E-03  8424   0.259E-02 0.262E-02
CGA: 146    -0.666759602695E+03    0.17173E-03   -0.17644E-03  8424   0.253E-02 0.256E-02
CGA: 147    -0.666759435399E+03    0.16730E-03   -0.16457E-03  8424   0.248E-02 0.251E-02
CGA: 148    -0.666759272774E+03    0.16262E-03   -0.15393E-03  8424   0.244E-02 0.246E-02
CGA: 149    -0.666759114965E+03    0.15781E-03   -0.14434E-03  8424   0.240E-02 0.242E-02
CGA: 150    -0.666758962042E+03    0.15292E-03   -0.13564E-03  8424   0.236E-02 0.238E-02
CGA: 151    -0.666758814024E+03    0.14802E-03   -0.12770E-03  8424   0.232E-02 0.234E-02
CGA: 152    -0.666758670890E+03    0.14313E-03   -0.12044E-03  8424   0.229E-02 0.231E-02
CGA: 153    -0.666758532586E+03    0.13830E-03   -0.11377E-03  8424   0.226E-02 0.228E-02
CGA: 154    -0.666758399036E+03    0.13355E-03   -0.10762E-03  8424   0.223E-02 0.225E-02
CGA: 155    -0.666758270146E+03    0.12889E-03   -0.10192E-03  8424   0.221E-02 0.222E-02
CGA: 156    -0.666758145807E+03    0.12434E-03   -0.96634E-04  8424   0.219E-02 0.220E-02
CGA: 157    -0.666758025904E+03    0.11990E-03   -0.91718E-04  8424   0.216E-02 0.217E-02
CGA: 158    -0.666757910310E+03    0.11559E-03   -0.87133E-04  8424   0.214E-02 0.215E-02
CGA: 159    -0.666757798897E+03    0.11141E-03   -0.82846E-04  8424   0.212E-02 0.213E-02
CGA: 160    -0.666757691534E+03    0.10736E-03   -0.78830E-04  8424   0.211E-02 0.212E-02
CGA: 161    -0.666757588093E+03    0.10344E-03   -0.75060E-04  8424   0.209E-02 0.210E-02
CGA: 162    -0.666757488443E+03    0.99650E-04   -0.71515E-04  8424   0.207E-02 0.208E-02
CGA: 163    -0.666757392456E+03    0.95987E-04   -0.68177E-04  8424   0.206E-02 0.207E-02
CGA: 164    -0.666757300006E+03    0.92450E-04   -0.65030E-04  8424   0.204E-02 0.205E-02
CGA: 165    -0.666757210970E+03    0.89036E-04   -0.62059E-04  8424   0.203E-02 0.204E-02
CGA: 166    -0.666757125228E+03    0.85742E-04   -0.59252E-04  8424   0.202E-02 0.202E-02
CGA: 167    -0.666757042662E+03    0.82566E-04   -0.56596E-04  8424   0.200E-02 0.201E-02
CGA: 168    -0.666756963159E+03    0.79503E-04   -0.54081E-04  8424   0.199E-02 0.200E-02
CGA: 169    -0.666756886608E+03    0.76551E-04   -0.51698E-04  8424   0.198E-02 0.199E-02
CGA: 170    -0.666756812902E+03    0.73705E-04   -0.49438E-04  8424   0.197E-02 0.198E-02
CGA: 171    -0.666756741940E+03    0.70963E-04   -0.47293E-04  8424   0.196E-02 0.197E-02
CGA: 172    -0.666756673621E+03    0.68319E-04   -0.45257E-04  8424   0.195E-02 0.196E-02
CGA: 173    -0.666756607850E+03    0.65771E-04   -0.43323E-04  8424   0.194E-02 0.195E-02
CGA: 174    -0.666756544534E+03    0.63316E-04   -0.41484E-04  8424   0.193E-02 0.194E-02
CGA: 175    -0.666756483593E+03    0.60942E-04   -0.39738E-04  8424   0.193E-02 0.193E-02
CGA: 176    -0.666756424931E+03    0.58662E-04   -0.38069E-04  8424   0.192E-02 0.192E-02
CGA: 177    -0.666756368524E+03    0.56407E-04   -0.36498E-04  8424   0.191E-02 0.191E-02
CGA: 178    -0.666756314232E+03    0.54292E-04   -0.34950E-04  8424   0.191E-02 0.190E-02
CGA: 179    -0.666756262272E+03    0.51960E-04   -0.33579E-04  8424   0.191E-02 0.189E-02
CGA: 180    -0.666756212210E+03    0.50062E-04   -0.32034E-04  8424   0.191E-02 0.188E-02
CGA: 181    -0.666756164983E+03    0.47227E-04   -0.30982E-04  8424   0.193E-02 0.185E-02
CGA: 182    -0.666756119186E+03    0.45797E-04   -0.29346E-04  8424   0.193E-02 0.183E-02
CGA: 183    -0.666756076401E+03    0.42786E-04   -0.28763E-04  8424   0.193E-02 0.182E-02
CGA: 184    -0.666756034144E+03    0.42257E-04   -0.27271E-04  8424   0.190E-02 0.183E-02
CGA: 185    -0.666755993827E+03    0.40317E-04   -0.26603E-04  8424   0.188E-02 0.184E-02
CGA: 186    -0.666755954149E+03    0.39677E-04   -0.25250E-04  8424   0.186E-02 0.185E-02
CGA: 187    -0.666755915975E+03    0.38174E-04   -0.24286E-04  8424   0.185E-02 0.185E-02
CGA: 188    -0.666755879048E+03    0.36927E-04   -0.23240E-04  8424   0.185E-02 0.185E-02
CGA: 189    -0.666755843478E+03    0.35570E-04   -0.22317E-04  8424   0.184E-02 0.185E-02
CGA: 190    -0.666755809192E+03    0.34286E-04   -0.21422E-04  8424   0.184E-02 0.184E-02
CGA: 191    -0.666755776171E+03    0.33021E-04   -0.20580E-04  8424   0.184E-02 0.184E-02
CGA: 192    -0.666755744360E+03    0.31810E-04   -0.19769E-04  8424   0.183E-02 0.183E-02
CGA: 193    -0.666755713726E+03    0.30634E-04   -0.18998E-04  8424   0.183E-02 0.183E-02
CGA: 194    -0.666755684218E+03    0.29508E-04   -0.18255E-04  8424   0.182E-02 0.183E-02
CGA: 195    -0.666755655804E+03    0.28414E-04   -0.17548E-04  8424   0.182E-02 0.182E-02
CGA: 196    -0.666755628434E+03    0.27370E-04   -0.16865E-04  8424   0.182E-02 0.182E-02
CGA: 197    -0.666755602082E+03    0.26352E-04   -0.16217E-04  8424   0.181E-02 0.182E-02
CGA: 198    -0.666755576697E+03    0.25385E-04   -0.15588E-04  8424   0.181E-02 0.181E-02
CGA: 199    -0.666755552259E+03    0.24438E-04   -0.14993E-04  8424   0.181E-02 0.181E-02
CGA: 200    -0.666755528719E+03    0.23540E-04   -0.14415E-04  8424   0.181E-02 0.181E-02
   8 F= -.66675553E+03 E0= -.66675553E+03  d E =0.133183E+00  mag=     2.0000
       N       E                     dE             d eps       ncg     rms          ort
SDA:   1    -0.653044944308E+03    0.13711E+02    0.00000E+00  8424   0.477E+02 0.000E+00
CGA:   2    -0.661978074256E+03   -0.89331E+01   -0.75166E+00  8424   0.157E+02 0.368E+01
CGA:   3    -0.665855433737E+03   -0.38774E+01   -0.38830E+01  8424   0.590E+01-0.565E-01
CGA:   4    -0.666852760961E+03   -0.99733E+00   -0.99221E+00  8424   0.149E+01 0.470E-01
CGA:   5    -0.667116016213E+03   -0.26326E+00   -0.25938E+00  8424   0.315E+00 0.359E-01
CGA:   6    -0.667179555720E+03   -0.63540E-01   -0.61601E-01  8424   0.689E-01 0.158E-01
CGA:   7    -0.667194151865E+03   -0.14596E-01   -0.12598E-01  8424   0.198E-01 0.202E-01
CGA:   8    -0.667198050752E+03   -0.38989E-02   -0.32543E-02  8424   0.884E-02 0.137E-01
CGA:   9    -0.667199091308E+03   -0.10406E-02   -0.90652E-03  8424   0.553E-02 0.668E-02
CGA:  10    -0.667199468279E+03   -0.37697E-03   -0.41718E-03  8424   0.451E-02 0.495E-02
CGA:  11    -0.667199675396E+03   -0.20712E-03   -0.28784E-03  8424   0.392E-02 0.418E-02
CGA:  12    -0.667199799133E+03   -0.12374E-03   -0.21989E-03  8424   0.352E-02 0.369E-02
CGA:  13    -0.667199874548E+03   -0.75415E-04   -0.17741E-03  8424   0.323E-02 0.335E-02
CGA:  14    -0.667199919278E+03   -0.44730E-04   -0.14814E-03  8424   0.300E-02 0.310E-02
CGA:  15    -0.667199943360E+03   -0.24083E-04   -0.12665E-03  8424   0.282E-02 0.289E-02
CGA:  16    -0.667199952977E+03   -0.96170E-05   -0.11012E-03  8424   0.267E-02 0.273E-02
CGA:  17    -0.667199952171E+03    0.80675E-06   -0.96960E-04  8424   0.254E-02 0.259E-02
CGA:  18    -0.667199943746E+03    0.84250E-05   -0.86237E-04  8424   0.243E-02 0.248E-02
CGA:  19    -0.667199929769E+03    0.13977E-04   -0.77403E-04  8424   0.234E-02 0.238E-02
CGA:  20    -0.667199911697E+03    0.18072E-04   -0.69960E-04  8424   0.226E-02 0.229E-02
CGA:  21    -0.667199890631E+03    0.21066E-04   -0.63626E-04  8424   0.219E-02 0.222E-02
CGA:  22    -0.667199867396E+03    0.23235E-04   -0.58169E-04  8424   0.212E-02 0.215E-02
CGA:  23    -0.667199842610E+03    0.24785E-04   -0.53407E-04  8424   0.206E-02 0.209E-02
CGA:  24    -0.667199816757E+03    0.25854E-04   -0.49221E-04  8424   0.201E-02 0.204E-02
CGA:  25    -0.667199790220E+03    0.26536E-04   -0.45526E-04  8424   0.197E-02 0.199E-02
CGA:  26    -0.667199763309E+03    0.26912E-04   -0.42253E-04  8424   0.193E-02 0.194E-02
CGA:  27    -0.667199736252E+03    0.27057E-04   -0.39320E-04  8424   0.189E-02 0.190E-02
CGA:  28    -0.667199709234E+03    0.27017E-04   -0.36685E-04  8424   0.185E-02 0.187E-02
CGA:  29    -0.667199682408E+03    0.26826E-04   -0.34315E-04  8424   0.182E-02 0.184E-02
CGA:  30    -0.667199655888E+03    0.26520E-04   -0.32169E-04  8424   0.179E-02 0.181E-02
CGA:  31    -0.667199629759E+03    0.26129E-04   -0.30210E-04  8424   0.177E-02 0.178E-02
CGA:  32    -0.667199604090E+03    0.25669E-04   -0.28418E-04  8424   0.174E-02 0.175E-02
CGA:  33    -0.667199578931E+03    0.25159E-04   -0.26772E-04  8424   0.172E-02 0.173E-02
CGA:  34    -0.667199554323E+03    0.24608E-04   -0.25259E-04  8424   0.170E-02 0.171E-02
CGA:  35    -0.667199530294E+03    0.24029E-04   -0.23862E-04  8424   0.168E-02 0.169E-02
CGA:  36    -0.667199506867E+03    0.23427E-04   -0.22571E-04  8424   0.166E-02 0.167E-02
CGA:  37    -0.667199484055E+03    0.22812E-04   -0.21375E-04  8424   0.164E-02 0.165E-02
CGA:  38    -0.667199461866E+03    0.22189E-04   -0.20263E-04  8424   0.163E-02 0.163E-02
CGA:  39    -0.667199440303E+03    0.21563E-04   -0.19228E-04  8424   0.161E-02 0.162E-02
CGA:  40    -0.667199419366E+03    0.20937E-04   -0.18261E-04  8424   0.160E-02 0.160E-02
CGA:  41    -0.667199399052E+03    0.20314E-04   -0.17358E-04  8424   0.159E-02 0.159E-02
CGA:  42    -0.667199379355E+03    0.19697E-04   -0.16512E-04  8424   0.157E-02 0.158E-02
CGA:  43    -0.667199360266E+03    0.19089E-04   -0.15719E-04  8424   0.156E-02 0.157E-02
CGA:  44    -0.667199341777E+03    0.18490E-04   -0.14974E-04  8424   0.155E-02 0.156E-02
CGA:  45    -0.667199323875E+03    0.17901E-04   -0.14273E-04  8424   0.154E-02 0.155E-02
CGA:  46    -0.667199306551E+03    0.17325E-04   -0.13613E-04  8424   0.153E-02 0.154E-02
CGA:  47    -0.667199289790E+03    0.16761E-04   -0.12990E-04  8424   0.152E-02 0.153E-02
CGA:  48    -0.667199273580E+03    0.16210E-04   -0.12403E-04  8424   0.151E-02 0.152E-02
CGA:  49    -0.667199257907E+03    0.15673E-04   -0.11847E-04  8424   0.151E-02 0.151E-02
CGA:  50    -0.667199242757E+03    0.15150E-04   -0.11322E-04  8424   0.150E-02 0.150E-02
CGA:  51    -0.667199228117E+03    0.14640E-04   -0.10824E-04  8424   0.149E-02 0.149E-02
CGA:  52    -0.667199213972E+03    0.14145E-04   -0.10352E-04  8424   0.148E-02 0.149E-02
CGA:  53    -0.667199200308E+03    0.13664E-04   -0.99043E-05  8424   0.148E-02 0.148E-02
CGA:  54    -0.667199187111E+03    0.13197E-04   -0.94793E-05  8424   0.147E-02 0.147E-02
CGA:  55    -0.667199174367E+03    0.12744E-04   -0.90755E-05  8424   0.147E-02 0.147E-02
CGA:  56    -0.667199162063E+03    0.12304E-04   -0.86916E-05  8424   0.146E-02 0.146E-02
CGA:  57    -0.667199150184E+03    0.11879E-04   -0.83264E-05  8424   0.146E-02 0.146E-02
CGA:  58    -0.667199138718E+03    0.11466E-04   -0.79787E-05  8424   0.145E-02 0.145E-02
CGA:  59    -0.667199127652E+03    0.11067E-04   -0.76475E-05  8424   0.145E-02 0.145E-02
CGA:  60    -0.667199116972E+03    0.10680E-04   -0.73319E-05  8424   0.144E-02 0.144E-02
CGA:  61    -0.667199106666E+03    0.10306E-04   -0.70309E-05  8424   0.144E-02 0.144E-02
CGA:  62    -0.667199096723E+03    0.99437E-05   -0.67438E-05  8424   0.143E-02 0.143E-02
   9 F= -.66719910E+03 E0= -.66719910E+03  d E =-.443568E+00  mag=     2.0000
       N       E                     dE             d eps       ncg     rms          ort
SDA:   1    -0.667163737115E+03    0.35370E-01    0.00000E+00  8424   0.142E+00 0.000E+00
CGA:   2    -0.667185174507E+03   -0.21437E-01   -0.13165E-01  8424   0.582E-01 0.793E-01
CGA:   3    -0.667200578120E+03   -0.15404E-01   -0.87498E-02  8424   0.218E-01 0.319E-01
CGA:   4    -0.667205648442E+03   -0.50703E-02   -0.35021E-02  8424   0.111E-01 0.142E-01
CGA:   5    -0.667207295373E+03   -0.16469E-02   -0.12046E-02  8424   0.714E-02 0.839E-02
CGA:   6    -0.667208040039E+03   -0.74467E-03   -0.59449E-03  8424   0.537E-02 0.610E-02
CGA:   7    -0.667208437877E+03   -0.39784E-03   -0.36187E-03  8424   0.435E-02 0.480E-02
CGA:   8    -0.667208669114E+03   -0.23124E-03   -0.24602E-03  8424   0.368E-02 0.398E-02
CGA:   9    -0.667208809158E+03   -0.14004E-03   -0.17901E-03  8424   0.320E-02 0.341E-02
CGA:  10    -0.667208895136E+03   -0.85978E-04   -0.13667E-03  8424   0.285E-02 0.301E-02
CGA:  11    -0.667208947216E+03   -0.52080E-04   -0.10815E-03  8424   0.258E-02 0.270E-02
CGA:  12    -0.667208977162E+03   -0.29946E-04   -0.87996E-04  8424   0.237E-02 0.247E-02
CGA:  13    -0.667208992220E+03   -0.15058E-04   -0.73192E-04  8424   0.220E-02 0.227E-02
CGA:  14    -0.667208997048E+03   -0.48280E-05   -0.61982E-04  8424   0.206E-02 0.212E-02
CGA:  15    -0.667208994742E+03    0.23057E-05   -0.53273E-04  8424   0.194E-02 0.199E-02
CGA:  16    -0.667208987420E+03    0.73225E-05   -0.46361E-04  8424   0.184E-02 0.188E-02
CGA:  17    -0.667208976561E+03    0.10859E-04   -0.40775E-04  8424   0.175E-02 0.179E-02
CGA:  18    -0.667208963222E+03    0.13340E-04   -0.36187E-04  8424   0.168E-02 0.171E-02
CGA:  19    -0.667208948165E+03    0.15057E-04   -0.32368E-04  8424   0.161E-02 0.164E-02
CGA:  20    -0.667208931951E+03    0.16214E-04   -0.29150E-04  8424   0.156E-02 0.158E-02
CGA:  21    -0.667208914994E+03    0.16956E-04   -0.26409E-04  8424   0.151E-02 0.153E-02
CGA:  22    -0.667208897605E+03    0.17390E-04   -0.24052E-04  8424   0.147E-02 0.149E-02
CGA:  23    -0.667208880015E+03    0.17590E-04   -0.22007E-04  8424   0.143E-02 0.144E-02
CGA:  24    -0.667208862399E+03    0.17616E-04   -0.20220E-04  8424   0.139E-02 0.141E-02
CGA:  25    -0.667208844890E+03    0.17509E-04   -0.18647E-04  8424   0.136E-02 0.137E-02
CGA:  26    -0.667208827586E+03    0.17304E-04   -0.17254E-04  8424   0.133E-02 0.134E-02
CGA:  27    -0.667208810562E+03    0.17024E-04   -0.16012E-04  8424   0.130E-02 0.132E-02
CGA:  28    -0.667208793873E+03    0.16688E-04   -0.14900E-04  8424   0.128E-02 0.129E-02
CGA:  29    -0.667208777560E+03    0.16313E-04   -0.13899E-04  8424   0.126E-02 0.127E-02
CGA:  30    -0.667208761651E+03    0.15909E-04   -0.12993E-04  8424   0.124E-02 0.125E-02
CGA:  31    -0.667208746167E+03    0.15485E-04   -0.12172E-04  8424   0.122E-02 0.123E-02
CGA:  32    -0.667208731118E+03    0.15048E-04   -0.11423E-04  8424   0.121E-02 0.121E-02
CGA:  33    -0.667208716514E+03    0.14605E-04   -0.10738E-04  8424   0.119E-02 0.120E-02
CGA:  34    -0.667208702355E+03    0.14158E-04   -0.10110E-04  8424   0.118E-02 0.118E-02
CGA:  35    -0.667208688643E+03    0.13713E-04   -0.95322E-05  8424   0.116E-02 0.117E-02
CGA:  36    -0.667208675373E+03    0.13270E-04   -0.89988E-05  8424   0.115E-02 0.116E-02
CGA:  37    -0.667208662540E+03    0.12833E-04   -0.85053E-05  8424   0.114E-02 0.114E-02
CGA:  38    -0.667208650136E+03    0.12403E-04   -0.80477E-05  8424   0.113E-02 0.113E-02
CGA:  39    -0.667208638155E+03    0.11981E-04   -0.76225E-05  8424   0.112E-02 0.112E-02
CGA:  40    -0.667208626586E+03    0.11569E-04   -0.72264E-05  8424   0.111E-02 0.111E-02
CGA:  41    -0.667208615419E+03    0.11166E-04   -0.68568E-05  8424   0.110E-02 0.111E-02
CGA:  42    -0.667208604645E+03    0.10774E-04   -0.65113E-05  8424   0.109E-02 0.110E-02
CGA:  43    -0.667208594253E+03    0.10393E-04   -0.61878E-05  8424   0.109E-02 0.109E-02
CGA:  44    -0.667208584231E+03    0.10022E-04   -0.58845E-05  8424   0.108E-02 0.108E-02
CGA:  45    -0.667208574569E+03    0.96621E-05   -0.55996E-05  8424   0.107E-02 0.108E-02
  10 F= -.66720857E+03 E0= -.66720857E+03  d E =-.947785E-02  mag=     2.0000
       N       E                     dE             d eps       ncg     rms          ort
SDA:   1    -0.666569173634E+03    0.63941E+00    0.00000E+00  8424   0.207E+01 0.000E+00
CGA:   2    -0.666930863864E+03   -0.36169E+00   -0.17775E+00  8424   0.763E+00 0.102E+01
CGA:   3    -0.667195228265E+03   -0.26436E+00   -0.24012E-01  8424   0.328E+00 0.105E+00
CGA:   4    -0.667265432247E+03   -0.70204E-01   -0.68370E-01  8424   0.886E-01 0.148E-01
CGA:   5    -0.667282121600E+03   -0.16689E-01   -0.15436E-01  8424   0.236E-01 0.124E-01
CGA:   6    -0.667286236261E+03   -0.41147E-02   -0.35652E-02  8424   0.791E-02 0.897E-02
CGA:   7    -0.667287328540E+03   -0.10923E-02   -0.99103E-03  8424   0.390E-02 0.607E-02
CGA:   8    -0.667287610205E+03   -0.28166E-03   -0.28656E-03  8424   0.272E-02 0.322E-02
CGA:   9    -0.667287713470E+03   -0.10326E-03   -0.15059E-03  8424   0.220E-02 0.243E-02
CGA:  10    -0.667287756827E+03   -0.43358E-04   -0.10051E-03  8424   0.189E-02 0.203E-02
CGA:  11    -0.667287772262E+03   -0.15435E-04   -0.74299E-04  8424   0.168E-02 0.177E-02
CGA:  12    -0.667287772714E+03   -0.45134E-06   -0.58253E-04  8424   0.153E-02 0.160E-02
CGA:  13    -0.667287764499E+03    0.82147E-05   -0.47470E-04  8424   0.141E-02 0.146E-02
CGA:  14    -0.667287751071E+03    0.13428E-04   -0.39758E-04  8424   0.132E-02 0.136E-02
CGA:  15    -0.667287734465E+03    0.16606E-04   -0.33989E-04  8424   0.125E-02 0.128E-02
CGA:  16    -0.667287715945E+03    0.18520E-04   -0.29522E-04  8424   0.119E-02 0.121E-02
CGA:  17    -0.667287696328E+03    0.19617E-04   -0.25970E-04  8424   0.114E-02 0.116E-02
CGA:  18    -0.667287676156E+03    0.20172E-04   -0.23084E-04  8424   0.109E-02 0.111E-02
CGA:  19    -0.667287655797E+03    0.20359E-04   -0.20695E-04  8424   0.105E-02 0.107E-02
CGA:  20    -0.667287635504E+03    0.20293E-04   -0.18688E-04  8424   0.102E-02 0.103E-02
CGA:  21    -0.667287615451E+03    0.20053E-04   -0.16981E-04  8424   0.992E-03 0.100E-02
CGA:  22    -0.667287595759E+03    0.19692E-04   -0.15511E-04  8424   0.966E-03 0.977E-03
CGA:  23    -0.667287576510E+03    0.19249E-04   -0.14235E-04  8424   0.944E-03 0.953E-03
CGA:  24    -0.667287557760E+03    0.18750E-04   -0.13116E-04  8424   0.923E-03 0.931E-03
CGA:  25    -0.667287539546E+03    0.18215E-04   -0.12128E-04  8424   0.905E-03 0.912E-03
CGA:  26    -0.667287521888E+03    0.17658E-04   -0.11250E-04  8424   0.888E-03 0.895E-03
CGA:  27    -0.667287504798E+03    0.17090E-04   -0.10465E-04  8424   0.873E-03 0.879E-03
CGA:  28    -0.667287488279E+03    0.16519E-04   -0.97583E-05  8424   0.859E-03 0.865E-03
CGA:  29    -0.667287472330E+03    0.15949E-04   -0.91200E-05  8424   0.847E-03 0.852E-03
CGA:  30    -0.667287456944E+03    0.15386E-04   -0.85407E-05  8424   0.835E-03 0.840E-03
CGA:  31    -0.667287442112E+03    0.14832E-04   -0.80127E-05  8424   0.825E-03 0.829E-03
CGA:  32    -0.667287427822E+03    0.14290E-04   -0.75298E-05  8424   0.815E-03 0.819E-03
CGA:  33    -0.667287414061E+03    0.13761E-04   -0.70866E-05  8424   0.806E-03 0.810E-03
CGA:  34    -0.667287400814E+03    0.13246E-04   -0.66786E-05  8424   0.798E-03 0.801E-03
CGA:  35    -0.667287388067E+03    0.12747E-04   -0.63019E-05  8424   0.790E-03 0.794E-03
CGA:  36    -0.667287375805E+03    0.12262E-04   -0.59533E-05  8424   0.783E-03 0.786E-03
CGA:  37    -0.667287364011E+03    0.11793E-04   -0.56299E-05  8424   0.777E-03 0.779E-03
CGA:  38    -0.667287352671E+03    0.11340E-04   -0.53292E-05  8424   0.771E-03 0.773E-03
CGA:  39    -0.667287341769E+03    0.10902E-04   -0.50490E-05  8424   0.765E-03 0.767E-03
CGA:  40    -0.667287331289E+03    0.10480E-04   -0.47875E-05  8424   0.759E-03 0.762E-03
CGA:  41    -0.667287321215E+03    0.10073E-04   -0.45430E-05  8424   0.754E-03 0.756E-03
CGA:  42    -0.667287311535E+03    0.96805E-05   -0.43141E-05  8424   0.750E-03 0.752E-03
  11 F= -.66728731E+03 E0= -.66728731E+03  d E =-.787370E-01  mag=     2.0000
       N       E                     dE             d eps       ncg     rms          ort
SDA:   1    -0.657816131480E+03    0.94712E+01    0.00000E+00  8424   0.269E+02 0.000E+00
CGA:   2    -0.663194033549E+03   -0.53779E+01   -0.16241E+01  8424   0.897E+01 0.984E+01
CGA:   3    -0.666457840188E+03   -0.32638E+01   -0.17218E+00  8424   0.347E+01-0.176E-01
CGA:   4    -0.667077146416E+03   -0.61931E+00   -0.61775E+00  8424   0.950E+00 0.144E-01
CGA:   5    -0.667239976188E+03   -0.16283E+00   -0.16199E+00  8424   0.245E+00 0.924E-02
CGA:   6    -0.667289924671E+03   -0.49948E-01   -0.49005E-01  8424   0.713E-01 0.826E-02
CGA:   7    -0.667306670626E+03   -0.16746E-01   -0.15569E-01  8424   0.246E-01 0.971E-02
CGA:   8    -0.667312247622E+03   -0.55770E-02   -0.49826E-02  8424   0.807E-02 0.723E-02
CGA:   9    -0.667313821297E+03   -0.15737E-02   -0.14065E-02  8424   0.336E-02 0.486E-02
CGA:  10    -0.667314193449E+03   -0.37215E-03   -0.35988E-03  8424   0.198E-02 0.250E-02
CGA:  11    -0.667314295726E+03   -0.10228E-03   -0.14945E-03  8424   0.156E-02 0.175E-02
CGA:  12    -0.667314333368E+03   -0.37641E-04   -0.94919E-04  8424   0.133E-02 0.143E-02
CGA:  13    -0.667314344233E+03   -0.10865E-04   -0.69286E-04  8424   0.118E-02 0.125E-02
CGA:  14    -0.667314341623E+03    0.26097E-05   -0.54385E-04  8424   0.108E-02 0.113E-02
CGA:  15    -0.667314331525E+03    0.10098E-04   -0.44636E-04  8424   0.100E-02 0.104E-02
CGA:  16    -0.667314317048E+03    0.14477E-04   -0.37753E-04  8424   0.944E-03 0.969E-03
CGA:  17    -0.667314299959E+03    0.17089E-04   -0.32624E-04  8424   0.896E-03 0.916E-03
CGA:  18    -0.667314281330E+03    0.18629E-04   -0.28646E-04  8424   0.857E-03 0.873E-03
CGA:  19    -0.667314261845E+03    0.19485E-04   -0.25465E-04  8424   0.824E-03 0.837E-03
CGA:  20    -0.667314241954E+03    0.19891E-04   -0.22857E-04  8424   0.796E-03 0.807E-03
CGA:  21    -0.667314221962E+03    0.19992E-04   -0.20678E-04  8424   0.771E-03 0.781E-03
CGA:  22    -0.667314202078E+03    0.19884E-04   -0.18827E-04  8424   0.750E-03 0.758E-03
CGA:  23    -0.667314182448E+03    0.19630E-04   -0.17235E-04  8424   0.731E-03 0.738E-03
CGA:  24    -0.667314163174E+03    0.19274E-04   -0.15849E-04  8424   0.714E-03 0.721E-03
CGA:  25    -0.667314144327E+03    0.18848E-04   -0.14631E-04  8424   0.699E-03 0.705E-03
CGA:  26    -0.667314125954E+03    0.18372E-04   -0.13553E-04  8424   0.685E-03 0.691E-03
CGA:  27    -0.667314108089E+03    0.17865E-04   -0.12592E-04  8424   0.673E-03 0.678E-03
CGA:  28    -0.667314090751E+03    0.17338E-04   -0.11729E-04  8424   0.662E-03 0.666E-03
CGA:  29    -0.667314073951E+03    0.16800E-04   -0.10951E-04  8424   0.652E-03 0.656E-03
CGA:  30    -0.667314057694E+03    0.16257E-04   -0.10246E-04  8424   0.642E-03 0.646E-03
CGA:  31    -0.667314041979E+03    0.15716E-04   -0.96045E-05  8424   0.634E-03 0.637E-03
CGA:  32    -0.667314026800E+03    0.15179E-04   -0.90183E-05  8424   0.626E-03 0.629E-03
CGA:  33    -0.667314012150E+03    0.14650E-04   -0.84810E-05  8424   0.618E-03 0.621E-03
CGA:  34    -0.667313998019E+03    0.14131E-04   -0.79869E-05  8424   0.611E-03 0.614E-03
CGA:  35    -0.667313984396E+03    0.13623E-04   -0.75311E-05  8424   0.605E-03 0.608E-03
CGA:  36    -0.667313971269E+03    0.13128E-04   -0.71096E-05  8424   0.599E-03 0.602E-03
CGA:  37    -0.667313958623E+03    0.12646E-04   -0.67189E-05  8424   0.594E-03 0.596E-03
CGA:  38    -0.667313946445E+03    0.12178E-04   -0.63560E-05  8424   0.589E-03 0.591E-03
CGA:  39    -0.667313934721E+03    0.11724E-04   -0.60181E-05  8424   0.584E-03 0.586E-03
CGA:  40    -0.667313923437E+03    0.11284E-04   -0.57029E-05  8424   0.579E-03 0.581E-03
CGA:  41    -0.667313912578E+03    0.10859E-04   -0.54085E-05  8424   0.575E-03 0.577E-03
CGA:  42    -0.667313902130E+03    0.10448E-04   -0.51330E-05  8424   0.571E-03 0.573E-03
CGA:  43    -0.667313892079E+03    0.10051E-04   -0.48748E-05  8424   0.568E-03 0.569E-03
CGA:  44    -0.667313882411E+03    0.96676E-05   -0.46324E-05  8424   0.564E-03 0.566E-03
  12 F= -.66731388E+03 E0= -.66731388E+03  d E =-.265709E-01  mag=     2.0000
       N       E                     dE             d eps       ncg     rms          ort
SDA:   1    -0.617364914156E+03    0.49949E+02    0.00000E+00  8424   0.178E+03 0.000E+00
CGA:   2    -0.647206138169E+03   -0.29841E+02   -0.36519E+00  8424   0.853E+02-0.266E+02
CGA:   3    -0.661356798532E+03   -0.14151E+02   -0.14076E+02  8424   0.229E+02 0.383E+00
CGA:   4    -0.665334550125E+03   -0.39778E+01   -0.39830E+01  8424   0.557E+01-0.600E-01
CGA:   5    -0.666260984939E+03   -0.92643E+00   -0.91908E+00  8424   0.122E+01 0.794E-01
CGA:   6    -0.666505720249E+03   -0.24474E+00   -0.24415E+00  8424   0.296E+00 0.419E-02
CGA:   7    -0.666573722522E+03   -0.68002E-01   -0.66742E-01  8424   0.881E-01 0.863E-02
CGA:   8    -0.666594295860E+03   -0.20573E-01   -0.19032E-01  8424   0.262E-01 0.126E-01
CGA:   9    -0.666602047094E+03   -0.77512E-02   -0.71134E-02  8424   0.961E-02 0.442E-02
CGA:  10    -0.666604628143E+03   -0.25810E-02   -0.21764E-02  8424   0.423E-02 0.432E-02
CGA:  11    -0.666605595977E+03   -0.96783E-03   -0.84578E-03  8424   0.231E-02 0.373E-02
CGA:  12    -0.666605869922E+03   -0.27394E-03   -0.26197E-03  8424   0.151E-02 0.178E-02
CGA:  13    -0.666605981030E+03   -0.11111E-03   -0.13536E-03  8424   0.126E-02 0.138E-02
CGA:  14    -0.666606044633E+03   -0.63603E-04   -0.97664E-04  8424   0.111E-02 0.118E-02
CGA:  15    -0.666606083497E+03   -0.38864E-04   -0.76950E-04  8424   0.102E-02 0.106E-02
CGA:  16    -0.666606107576E+03   -0.24080E-04   -0.63651E-04  8424   0.944E-03 0.980E-03
CGA:  17    -0.666606122024E+03   -0.14448E-04   -0.54268E-04  8424   0.887E-03 0.915E-03
CGA:  18    -0.666606129849E+03   -0.78246E-05   -0.47237E-04  8424   0.842E-03 0.865E-03
CGA:  19    -0.666606132952E+03   -0.31038E-05   -0.41743E-04  8424   0.804E-03 0.823E-03
CGA:  20    -0.666606132607E+03    0.34558E-06   -0.37312E-04  8424   0.772E-03 0.788E-03
CGA:  21    -0.666606129699E+03    0.29076E-05   -0.33654E-04  8424   0.744E-03 0.758E-03
CGA:  22    -0.666606124873E+03    0.48261E-05   -0.30579E-04  8424   0.721E-03 0.733E-03
CGA:  23    -0.666606118608E+03    0.62647E-05   -0.27961E-04  8424   0.700E-03 0.710E-03
CGA:  24    -0.666606111270E+03    0.73385E-05   -0.25708E-04  8424   0.682E-03 0.691E-03
CGA:  25    -0.666606103131E+03    0.81389E-05   -0.23742E-04  8424   0.665E-03 0.673E-03
CGA:  26    -0.666606094404E+03    0.87267E-05   -0.22010E-04  8424   0.651E-03 0.658E-03
CGA:  27    -0.666606085259E+03    0.91448E-05   -0.20476E-04  8424   0.638E-03 0.644E-03
CGA:  28    -0.666606075832E+03    0.94279E-05   -0.19111E-04  8424   0.626E-03 0.631E-03
CGA:  29    -0.666606066222E+03    0.96094E-05   -0.17882E-04  8424   0.615E-03 0.620E-03
CGA:  30    -0.666606056512E+03    0.97102E-05   -0.16768E-04  8424   0.605E-03 0.610E-03
CGA:  31    -0.666606046767E+03    0.97447E-05   -0.15754E-04  8424   0.596E-03 0.600E-03
CGA:  32    -0.666606037042E+03    0.97248E-05   -0.14830E-04  8424   0.587E-03 0.591E-03
CGA:  33    -0.666606027381E+03    0.96617E-05   -0.13983E-04  8424   0.580E-03 0.583E-03
CGA:  34    -0.666606017817E+03    0.95639E-05   -0.13204E-04  8424   0.573E-03 0.576E-03
CGA:  35    -0.666606008380E+03    0.94372E-05   -0.12487E-04  8424   0.566E-03 0.569E-03
CGA:  36    -0.666605999091E+03    0.92886E-05   -0.11824E-04  8424   0.560E-03 0.563E-03
CGA:  37    -0.666605989969E+03    0.91218E-05   -0.11209E-04  8424   0.554E-03 0.557E-03
CGA:  38    -0.666605981028E+03    0.89412E-05   -0.10639E-04  8424   0.549E-03 0.551E-03
CGA:  39    -0.666605972277E+03    0.87505E-05   -0.10108E-04  8424   0.544E-03 0.546E-03
  13 F= -.66660597E+03 E0= -.66660597E+03  d E =0.707910E+00  mag=     2.0000
       N       E                     dE             d eps       ncg     rms          ort
SDA:   1    -0.656822914150E+03    0.97831E+01    0.00000E+00  8424   0.351E+02 0.000E+00
CGA:   2    -0.663480960973E+03   -0.66580E+01   -0.65976E+01  8424   0.133E+02 0.512E+00
CGA:   3    -0.666353959193E+03   -0.28730E+01   -0.28850E+01  8424   0.446E+01-0.974E-01
CGA:   4    -0.667110748361E+03   -0.75679E+00   -0.75454E+00  8424   0.108E+01 0.222E-01
CGA:   5    -0.667300309892E+03   -0.18956E+00   -0.18827E+00  8424   0.237E+00 0.126E-01
CGA:   6    -0.667346520119E+03   -0.46210E-01   -0.46551E-01  8424   0.550E-01-0.295E-02
CGA:   7    -0.667357952469E+03   -0.11432E-01   -0.10711E-01  8424   0.144E-01 0.620E-02
CGA:   8    -0.667361642209E+03   -0.36897E-02   -0.32894E-02  8424   0.407E-02 0.336E-02
CGA:   9    -0.667362671569E+03   -0.10294E-02   -0.86402E-03  8424   0.154E-02 0.207E-02
CGA:  10    -0.667362869954E+03   -0.19839E-03   -0.17727E-03  8424   0.935E-03 0.112E-02
CGA:  11    -0.667362958874E+03   -0.88920E-04   -0.89985E-04  8424   0.756E-03 0.832E-03
CGA:  12    -0.667363006119E+03   -0.47245E-04   -0.59942E-04  8424   0.659E-03 0.701E-03
CGA:  13    -0.667363034791E+03   -0.28672E-04   -0.45626E-04  8424   0.594E-03 0.622E-03
CGA:  14    -0.667363052719E+03   -0.17929E-04   -0.36751E-04  8424   0.545E-03 0.566E-03
CGA:  15    -0.667363063739E+03   -0.11019E-04   -0.30599E-04  8424   0.508E-03 0.524E-03
CGA:  16    -0.667363070036E+03   -0.62975E-05   -0.26043E-04  8424   0.477E-03 0.490E-03
CGA:  17    -0.667363072978E+03   -0.29417E-05   -0.22512E-04  8424   0.451E-03 0.462E-03
CGA:  18    -0.667363073486E+03   -0.50851E-06   -0.19699E-04  8424   0.429E-03 0.438E-03
CGA:  19    -0.667363072214E+03    0.12723E-05   -0.17416E-04  8424   0.410E-03 0.418E-03
CGA:  20    -0.667363069624E+03    0.25901E-05   -0.15523E-04  8424   0.394E-03 0.401E-03
CGA:  21    -0.667363066057E+03    0.35674E-05   -0.13931E-04  8424   0.379E-03 0.385E-03
CGA:  22    -0.667363061769E+03    0.42881E-05   -0.12577E-04  8424   0.366E-03 0.372E-03
CGA:  23    -0.667363056957E+03    0.48118E-05   -0.11416E-04  8424   0.355E-03 0.360E-03
CGA:  24    -0.667363051771E+03    0.51856E-05   -0.10412E-04  8424   0.345E-03 0.349E-03
  14 F= -.66736305E+03 E0= -.66736305E+03  d E =-.757079E+00  mag=     2.0000
       N       E                     dE             d eps       ncg     rms          ort
SDA:   1    -0.663115476033E+03    0.42476E+01    0.00000E+00  8424   0.140E+02 0.000E+00
CGA:   2    -0.665898359241E+03   -0.27829E+01   -0.27717E+01  8424   0.550E+01 0.920E-01
CGA:   3    -0.667061126907E+03   -0.11628E+01   -0.11651E+01  8424   0.183E+01-0.204E-01
CGA:   4    -0.667367419132E+03   -0.30629E+00   -0.30557E+00  8424   0.441E+00 0.830E-02
CGA:   5    -0.667444837780E+03   -0.77419E-01   -0.76898E-01  8424   0.916E-01 0.594E-02
CGA:   6    -0.667462928065E+03   -0.18090E-01   -0.17997E-01  8424   0.208E-01 0.892E-03
CGA:   7    -0.667467238178E+03   -0.43101E-02   -0.39775E-02  8424   0.531E-02 0.357E-02
CGA:   8    -0.667468460818E+03   -0.12226E-02   -0.10650E-02  8424   0.171E-02 0.225E-02
CGA:   9    -0.667468763813E+03   -0.30299E-03   -0.28499E-03  8424   0.841E-03 0.143E-02
CGA:  10    -0.667468812175E+03   -0.48362E-04   -0.66727E-04  8424   0.620E-03 0.710E-03
CGA:  11    -0.667468828279E+03   -0.16104E-04   -0.39250E-04  8424   0.530E-03 0.569E-03
CGA:  12    -0.667468833281E+03   -0.50021E-05   -0.28748E-04  8424   0.475E-03 0.498E-03
CGA:  13    -0.667468832843E+03    0.43777E-06   -0.22852E-04  8424   0.437E-03 0.453E-03
CGA:  14    -0.667468829325E+03    0.35186E-05   -0.18964E-04  8424   0.408E-03 0.420E-03
CGA:  15    -0.667468823930E+03    0.53944E-05   -0.16157E-04  8424   0.385E-03 0.394E-03
CGA:  16    -0.667468817355E+03    0.65752E-05   -0.14011E-04  8424   0.366E-03 0.373E-03
CGA:  17    -0.667468810033E+03    0.73218E-05   -0.12302E-04  8424   0.350E-03 0.356E-03
CGA:  18    -0.667468802252E+03    0.77813E-05   -0.10902E-04  8424   0.335E-03 0.341E-03
  15 F= -.66746880E+03 E0= -.66746880E+03  d E =-.105750E+00  mag=     2.0000
       N       E                     dE             d eps       ncg     rms          ort
SDA:   1    -0.667358753262E+03    0.11006E+00    0.00000E+00  8424   0.347E+00 0.000E+00
CGA:   2    -0.667437055844E+03   -0.78303E-01   -0.77704E-01  8424   0.159E+00 0.414E-02
CGA:   3    -0.667469264338E+03   -0.32208E-01   -0.32050E-01  8424   0.450E-01 0.140E-02
CGA:   4    -0.667476580607E+03   -0.73163E-02   -0.71622E-02  8424   0.983E-02 0.238E-02
CGA:   5    -0.667478198520E+03   -0.16179E-02   -0.15069E-02  8424   0.193E-02 0.226E-02
CGA:   6    -0.667478440733E+03   -0.24221E-03   -0.23961E-03  8424   0.807E-03 0.131E-02
CGA:   7    -0.667478472546E+03   -0.31813E-04   -0.53372E-04  8424   0.548E-03 0.655E-03
CGA:   8    -0.667478475518E+03   -0.29719E-05   -0.26904E-04  8424   0.449E-03 0.495E-03
CGA:   9    -0.667478470934E+03    0.45837E-05   -0.18211E-04  8424   0.392E-03 0.418E-03
CGA:  10    -0.667478463362E+03    0.75718E-05   -0.13681E-04  8424   0.353E-03 0.371E-03
CGA:  11    -0.667478454499E+03    0.88635E-05   -0.10886E-04  8424   0.324E-03 0.337E-03
  16 F= -.66747845E+03 E0= -.66747845E+03  d E =-.965225E-02  mag=     2.0000
       N       E                     dE             d eps       ncg     rms          ort
SDA:   1    -0.664686429583E+03    0.27920E+01    0.00000E+00  8424   0.717E+01 0.000E+00
CGA:   2    -0.666707162384E+03   -0.20207E+01   -0.20200E+01  8424   0.351E+01 0.384E-02
CGA:   3    -0.667330840396E+03   -0.62368E+00   -0.62444E+00  8424   0.794E+00-0.926E-02
CGA:   4    -0.667464287067E+03   -0.13345E+00   -0.13326E+00  8424   0.196E+00 0.255E-02
CGA:   5    -0.667498239029E+03   -0.33952E-01   -0.33632E-01  8424   0.390E-01 0.454E-02
CGA:   6    -0.667506173131E+03   -0.79341E-02   -0.76781E-02  8424   0.914E-02 0.292E-02
CGA:   7    -0.667508165816E+03   -0.19927E-02   -0.18094E-02  8424   0.264E-02 0.244E-02
CGA:   8    -0.667508674822E+03   -0.50901E-03   -0.46360E-03  8424   0.123E-02 0.176E-02
CGA:   9    -0.667508787245E+03   -0.11242E-03   -0.12441E-03  8424   0.798E-03 0.943E-03
CGA:  10    -0.667508818635E+03   -0.31390E-04   -0.59473E-04  8424   0.665E-03 0.720E-03
CGA:  11    -0.667508829983E+03   -0.11348E-04   -0.41671E-04  8424   0.587E-03 0.619E-03
CGA:  12    -0.667508831883E+03   -0.19001E-05   -0.32098E-04  8424   0.532E-03 0.555E-03
CGA:  13    -0.667508828564E+03    0.33193E-05   -0.25967E-04  8424   0.492E-03 0.508E-03
CGA:  14    -0.667508822145E+03    0.64192E-05   -0.21662E-04  8424   0.459E-03 0.472E-03
CGA:  15    -0.667508813826E+03    0.83184E-05   -0.18460E-04  8424   0.433E-03 0.444E-03
CGA:  16    -0.667508804343E+03    0.94830E-05   -0.15982E-04  8424   0.411E-03 0.420E-03
CGA:  17    -0.667508794168E+03    0.10175E-04   -0.14007E-04  8424   0.393E-03 0.400E-03
CGA:  18    -0.667508783618E+03    0.10550E-04   -0.12396E-04  8424   0.377E-03 0.383E-03
CGA:  19    -0.667508772908E+03    0.10710E-04   -0.11060E-04  8424   0.363E-03 0.368E-03
CGA:  20    -0.667508762190E+03    0.10718E-04   -0.99340E-05  8424   0.350E-03 0.355E-03
CGA:  21    -0.667508751570E+03    0.10621E-04   -0.89745E-05  8424   0.339E-03 0.344E-03
CGA:  22    -0.667508741121E+03    0.10448E-04   -0.81484E-05  8424   0.329E-03 0.333E-03
CGA:  23    -0.667508730897E+03    0.10224E-04   -0.74314E-05  8424   0.321E-03 0.324E-03
CGA:  24    -0.667508720934E+03    0.99633E-05   -0.68045E-05  8424   0.313E-03 0.316E-03
  17 F= -.66750872E+03 E0= -.66750872E+03  d E =-.302664E-01  mag=     2.0000
       N       E                     dE             d eps       ncg     rms          ort
SDA:   1    -0.650798384728E+03    0.16710E+02    0.00000E+00  8424   0.509E+02 0.000E+00
CGA:   2    -0.661270374492E+03   -0.10472E+02   -0.10402E+02  8424   0.217E+02 0.585E+00
CGA:   3    -0.665854268915E+03   -0.45839E+01   -0.45959E+01  8424   0.671E+01-0.109E+00
CGA:   4    -0.666959011019E+03   -0.11047E+01   -0.11027E+01  8424   0.155E+01 0.235E-01
CGA:   5    -0.667230329692E+03   -0.27132E+00   -0.27031E+00  8424   0.334E+00 0.114E-01
CGA:   6    -0.667296997375E+03   -0.66668E-01   -0.67011E-01  8424   0.814E-01-0.325E-02
CGA:   7    -0.667314251301E+03   -0.17254E-01   -0.16625E-01  8424   0.214E-01 0.573E-02
CGA:   8    -0.667319885502E+03   -0.56342E-02   -0.52778E-02  8424   0.645E-02 0.278E-02
CGA:   9    -0.667321733116E+03   -0.18476E-02   -0.16673E-02  8424   0.220E-02 0.149E-02
CGA:  10    -0.667322323637E+03   -0.59052E-03   -0.49786E-03  8424   0.104E-02 0.133E-02
CGA:  11    -0.667322546682E+03   -0.22305E-03   -0.18357E-03  8424   0.553E-03 0.664E-03
CGA:  12    -0.667322618545E+03   -0.71862E-04   -0.69456E-04  8424   0.442E-03 0.489E-03
CGA:  13    -0.667322662855E+03   -0.44310E-04   -0.48726E-04  8424   0.381E-03 0.410E-03
CGA:  14    -0.667322690831E+03   -0.27976E-04   -0.36684E-04  8424   0.341E-03 0.360E-03
CGA:  15    -0.667322709978E+03   -0.19147E-04   -0.29642E-04  8424   0.311E-03 0.325E-03
CGA:  16    -0.667322723414E+03   -0.13436E-04   -0.24791E-04  8424   0.288E-03 0.299E-03
CGA:  17    -0.667322732922E+03   -0.95080E-05   -0.21228E-04  8424   0.270E-03 0.278E-03
CGA:  18    -0.667322739615E+03   -0.66935E-05   -0.18492E-04  8424   0.254E-03 0.262E-03
CGA:  19    -0.667322744233E+03   -0.46174E-05   -0.16323E-04  8424   0.242E-03 0.248E-03
CGA:  20    -0.667322747285E+03   -0.30525E-05   -0.14560E-04  8424   0.231E-03 0.236E-03
CGA:  21    -0.667322749140E+03   -0.18545E-05   -0.13100E-04  8424   0.221E-03 0.226E-03
CGA:  22    -0.667322750066E+03   -0.92647E-06   -0.11871E-04  8424   0.213E-03 0.217E-03
CGA:  23    -0.667322750268E+03   -0.20160E-06   -0.10822E-04  8424   0.206E-03 0.209E-03
  18 F= -.66732275E+03 E0= -.66732275E+03  d E =0.185971E+00  mag=     2.0000
       N       E                     dE             d eps       ncg     rms          ort
SDA:   1    -0.662931801505E+03    0.43909E+01    0.00000E+00  8424   0.139E+02 0.000E+00
CGA:   2    -0.665884020383E+03   -0.29522E+01   -0.29438E+01  8424   0.617E+01 0.746E-01
CGA:   3    -0.667149038970E+03   -0.12650E+01   -0.12678E+01  8424   0.181E+01-0.284E-01
CGA:   4    -0.667444838024E+03   -0.29580E+00   -0.29548E+00  8424   0.423E+00 0.522E-02
CGA:   5    -0.667519243834E+03   -0.74406E-01   -0.74178E-01  8424   0.924E-01 0.343E-02
CGA:   6    -0.667537539928E+03   -0.18296E-01   -0.18370E-01  8424   0.220E-01-0.894E-03
CGA:   7    -0.667542195649E+03   -0.46557E-02   -0.44938E-02  8424   0.578E-02 0.183E-02
CGA:   8    -0.667543698589E+03   -0.15029E-02   -0.14144E-02  8424   0.175E-02 0.851E-03
CGA:   9    -0.667544143484E+03   -0.44489E-03   -0.39802E-03  8424   0.612E-03 0.659E-03
CGA:  10    -0.667544255285E+03   -0.11180E-03   -0.11115E-03  8424   0.346E-03 0.528E-03
CGA:  11    -0.667544285033E+03   -0.29748E-04   -0.36760E-04  8424   0.244E-03 0.283E-03
CGA:  12    -0.667544296195E+03   -0.11162E-04   -0.20973E-04  8424   0.207E-03 0.224E-03
CGA:  13    -0.667544301077E+03   -0.48821E-05   -0.15313E-04  8424   0.185E-03 0.195E-03
CGA:  14    -0.667544302758E+03   -0.16814E-05   -0.12132E-04  8424   0.170E-03 0.177E-03
CGA:  15    -0.667544302585E+03    0.17267E-06   -0.10055E-04  8424   0.158E-03 0.163E-03
  19 F= -.66754430E+03 E0= -.66754430E+03  d E =-.221552E+00  mag=     2.0000
       N       E                     dE             d eps       ncg     rms          ort
SDA:   1    -0.666752897041E+03    0.79141E+00    0.00000E+00  8424   0.237E+01 0.000E+00
CGA:   2    -0.667287127305E+03   -0.53423E+00   -0.53358E+00  8424   0.110E+01 0.563E-02
CGA:   3    -0.667506346791E+03   -0.21922E+00   -0.21941E+00  8424   0.301E+00-0.259E-02
CGA:   4    -0.667555207415E+03   -0.48861E-01   -0.48798E-01  8424   0.704E-01 0.160E-02
CGA:   5    -0.667567588773E+03   -0.12381E-01   -0.12294E-01  8424   0.145E-01 0.184E-02
CGA:   6    -0.667570505928E+03   -0.29172E-02   -0.28581E-02  8424   0.331E-02 0.939E-03
CGA:   7    -0.667571142578E+03   -0.63665E-03   -0.59805E-03  8424   0.935E-03 0.103E-02
CGA:   8    -0.667571279460E+03   -0.13688E-03   -0.14685E-03  8424   0.462E-03 0.700E-03
CGA:   9    -0.667571306336E+03   -0.26876E-04   -0.42285E-04  8424   0.316E-03 0.369E-03
CGA:  10    -0.667571309276E+03   -0.29405E-05   -0.21307E-04  8424   0.267E-03 0.287E-03
CGA:  11    -0.667571306639E+03    0.26373E-05   -0.15189E-04  8424   0.238E-03 0.250E-03
CGA:  12    -0.667571301617E+03    0.50218E-05   -0.11888E-04  8424   0.219E-03 0.226E-03
  20 F= -.66757130E+03 E0= -.66757130E+03  d E =-.269990E-01  mag=     2.0000
       N       E                     dE             d eps       ncg     rms          ort
SDA:   1    -0.667183099136E+03    0.38821E+00    0.00000E+00  8424   0.111E+01 0.000E+00
CGA:   2    -0.667447609404E+03   -0.26451E+00   -0.26412E+00  8424   0.528E+00 0.309E-02
CGA:   3    -0.667550479939E+03   -0.10287E+00   -0.10293E+00  8424   0.138E+00-0.838E-03
CGA:   4    -0.667572960042E+03   -0.22480E-01   -0.22426E-01  8424   0.323E-01 0.146E-02
CGA:   5    -0.667578537911E+03   -0.55779E-02   -0.55014E-02  8424   0.620E-02 0.190E-02
CGA:   6    -0.667579718644E+03   -0.11807E-02   -0.11276E-02  8424   0.142E-02 0.128E-02
CGA:   7    -0.667579923899E+03   -0.20526E-03   -0.21248E-03  8424   0.577E-03 0.874E-03
CGA:   8    -0.667579952521E+03   -0.28622E-04   -0.49576E-04  8424   0.382E-03 0.454E-03
CGA:   9    -0.667579954469E+03   -0.19484E-05   -0.24471E-04  8424   0.315E-03 0.343E-03
CGA:  10    -0.667579949689E+03    0.47807E-05   -0.16677E-04  8424   0.276E-03 0.292E-03
CGA:  11    -0.667579942251E+03    0.74382E-05   -0.12625E-04  8424   0.250E-03 0.260E-03
CGA:  12    -0.667579933659E+03    0.85918E-05   -0.10105E-04  8424   0.231E-03 0.238E-03
  21 F= -.66757993E+03 E0= -.66757993E+03  d E =-.863204E-02  mag=     2.0000
       N       E                     dE             d eps       ncg     rms          ort
SDA:   1    -0.666475477027E+03    0.11045E+01    0.00000E+00  8424   0.280E+01 0.000E+00
CGA:   2    -0.667259317930E+03   -0.78384E+00   -0.78348E+00  8424   0.145E+01 0.190E-02
CGA:   3    -0.667520394765E+03   -0.26108E+00   -0.26126E+00  8424   0.321E+00-0.311E-02
CGA:   4    -0.667572815870E+03   -0.52421E-01   -0.52315E-01  8424   0.750E-01 0.257E-02
CGA:   5    -0.667585838757E+03   -0.13023E-01   -0.12898E-01  8424   0.148E-01 0.269E-02
CGA:   6    -0.667588893336E+03   -0.30546E-02   -0.29560E-02  8424   0.350E-02 0.149E-02
CGA:   7    -0.667589561124E+03   -0.66779E-03   -0.62682E-03  8424   0.104E-02 0.127E-02
CGA:   8    -0.667589696437E+03   -0.13531E-03   -0.15476E-03  8424   0.558E-03 0.862E-03
[...]
SDA:   1    -0.668291350679E+03    0.11930E+00    0.00000E+00  8424   0.391E+00 0.000E+00
CGA:   2    -0.668381637671E+03   -0.90287E-01   -0.90255E-01  8424   0.176E+00 0.952E-03
CGA:   3    -0.668416525762E+03   -0.34888E-01   -0.34886E-01  8424   0.490E-01-0.729E-03
CGA:   4    -0.668424684023E+03   -0.81583E-02   -0.81695E-02  8424   0.119E-01 0.337E-03
CGA:   5    -0.668426617273E+03   -0.19332E-02   -0.19610E-02  8424   0.221E-02 0.808E-03
CGA:   6    -0.668426976939E+03   -0.35967E-03   -0.38017E-03  8424   0.515E-03 0.576E-03
CGA:   7    -0.668427028885E+03   -0.51946E-04   -0.77541E-04  8424   0.221E-03 0.338E-03
CGA:   8    -0.668427030873E+03   -0.19876E-05   -0.19704E-04  8424   0.146E-03 0.174E-03
  41 F= -.66842703E+03 E0= -.66842703E+03  d E =-.163947E-01  mag=     2.0000
       N       E                     dE             d eps       ncg     rms          ort
SDA:   1    -0.668049575589E+03    0.37745E+00    0.00000E+00  8424   0.111E+01 0.000E+00
CGA:   2    -0.668335934509E+03   -0.28636E+00   -0.28622E+00  8424   0.495E+00 0.166E-02
CGA:   3    -0.668428574679E+03   -0.92640E-01   -0.92646E-01  8424   0.129E+00-0.191E-02
CGA:   4    -0.668450734067E+03   -0.22159E-01   -0.22164E-01  8424   0.321E-01 0.435E-03
CGA:   5    -0.668456033682E+03   -0.52996E-02   -0.53242E-02  8424   0.585E-02 0.133E-02
CGA:   6    -0.668457121646E+03   -0.10880E-02   -0.10911E-02  8424   0.133E-02 0.899E-03
CGA:   7    -0.668457358763E+03   -0.23712E-03   -0.24853E-03  8424   0.449E-03 0.559E-03
CGA:   8    -0.668457402503E+03   -0.43741E-04   -0.70873E-04  8424   0.238E-03 0.386E-03
CGA:   9    -0.668457401148E+03    0.13550E-05   -0.18544E-04  8424   0.174E-03 0.199E-03
CGA:  10    -0.668457393107E+03    0.80415E-05   -0.10205E-04  8424   0.149E-03 0.160E-03
  42 F= -.66845739E+03 E0= -.66845739E+03  d E =-.303622E-01  mag=     2.0000
       N       E                     dE             d eps       ncg     rms          ort
SDA:   1    -0.668170732339E+03    0.28667E+00    0.00000E+00  8424   0.879E+00 0.000E+00
CGA:   2    -0.668384708417E+03   -0.21398E+00   -0.21378E+00  8424   0.437E+00 0.223E-02
CGA:   3    -0.668470472346E+03   -0.85764E-01   -0.85801E-01  8424   0.117E+00-0.125E-02
CGA:   4    -0.668489502337E+03   -0.19030E-01   -0.19032E-01  8424   0.257E-01 0.427E-03
CGA:   5    -0.668493802060E+03   -0.42997E-02   -0.43000E-02  8424   0.497E-02 0.112E-02
CGA:   6    -0.668494733365E+03   -0.93131E-03   -0.92178E-03  8424   0.113E-02 0.853E-03
CGA:   7    -0.668494910559E+03   -0.17719E-03   -0.19061E-03  8424   0.391E-03 0.565E-03
CGA:   8    -0.668494936297E+03   -0.25738E-04   -0.53634E-04  8424   0.214E-03 0.375E-03
CGA:   9    -0.668494932253E+03    0.40438E-05   -0.14006E-04  8424   0.167E-03 0.186E-03
  43 F= -.66849493E+03 E0= -.66849493E+03  d E =-.375391E-01  mag=     2.0000
       N       E                     dE             d eps       ncg     rms          ort
SDA:   1    -0.659523604364E+03    0.89713E+01    0.00000E+00  8424   0.259E+02 0.000E+00
CGA:   2    -0.665361354162E+03   -0.58377E+01   -0.58243E+01  8424   0.115E+02 0.155E+00
CGA:   3    -0.667685800499E+03   -0.23244E+01   -0.23256E+01  8424   0.320E+01-0.185E-01
CGA:   4    -0.668226994356E+03   -0.54119E+00   -0.54114E+00  8424   0.777E+00 0.256E-02
CGA:   5    -0.668361823164E+03   -0.13483E+00   -0.13485E+00  8424   0.159E+00-0.179E-02
CGA:   6    -0.668394252583E+03   -0.32429E-01   -0.32507E-01  8424   0.386E-01-0.172E-02
CGA:   7    -0.668403066667E+03   -0.88141E-02   -0.87920E-02  8424   0.115E-01 0.318E-03
CGA:   8    -0.668406014678E+03   -0.29480E-02   -0.28898E-02  8424   0.358E-02 0.691E-03
CGA:   9    -0.668407187302E+03   -0.11726E-02   -0.12625E-02  8424   0.182E-02-0.551E-03
CGA:  10    -0.668407663773E+03   -0.47647E-03   -0.68247E-03  8424   0.158E-02-0.778E-03
CGA:  11    -0.668404001926E+03    0.36618E-02   -0.19718E-02  8424   0.202E-01-0.456E-02
CGA:  12    -0.668407099551E+03   -0.30976E-02   -0.32627E-02  8424   0.331E-02 0.886E-03
CGA:  13    -0.668408232298E+03   -0.11327E-02   -0.11289E-02  8424   0.176E-02-0.337E-03
CGA:  14    -0.668408650110E+03   -0.41781E-03   -0.42796E-03  8424   0.669E-03 0.152E-03
CGA:  15    -0.668408946077E+03   -0.29597E-03   -0.41939E-03  8424   0.108E-02-0.509E-03
CGA:  16    -0.668409115652E+03   -0.16957E-03   -0.17528E-03  8424   0.198E-03 0.313E-04
CGA:  17    -0.668409099252E+03    0.16400E-04   -0.14435E-03  8424   0.131E-02-0.433E-03
CGA:  18    -0.668409263280E+03   -0.16403E-03   -0.18605E-03  8424   0.194E-03 0.104E-03
CGA:  19    -0.668409228352E+03    0.34928E-04   -0.16040E-03  8424   0.116E-02-0.466E-03
CGA:  20    -0.668409423329E+03   -0.19498E-03   -0.21397E-03  8424   0.227E-03 0.105E-03
CGA:  21    -0.668409476639E+03   -0.53310E-04   -0.13215E-03  8424   0.101E-02-0.444E-03
CGA:  22    -0.668409565276E+03   -0.88636E-04   -0.12336E-03  8424   0.124E-03 0.143E-03
CGA:  23    -0.668409593730E+03   -0.28454E-04   -0.94703E-04  8424   0.402E-03-0.212E-03
CGA:  24    -0.668409745607E+03   -0.15188E-03   -0.19016E-03  8424   0.664E-03-0.373E-03
CGA:  25    -0.668409793600E+03   -0.47993E-04   -0.77826E-04  8424   0.689E-04 0.116E-03
CGA:  26    -0.668409817914E+03   -0.24313E-04   -0.45513E-04  8424   0.249E-03-0.106E-03
CGA:  27    -0.668409822217E+03   -0.43034E-05   -0.15656E-03  8424   0.202E-02-0.593E-03
CGA:  28    -0.668409992024E+03   -0.16981E-03   -0.23433E-03  8424   0.104E-03 0.243E-03
CGA:  29    -0.668410025973E+03   -0.33948E-04   -0.31315E-04  8424   0.576E-04-0.258E-04
CGA:  30    -0.668410123465E+03   -0.97492E-04    0.38241E-05  8424   0.114E-03-0.356E-04
CGA:  31    -0.668410141341E+03   -0.17876E-04   -0.19623E-04  8424   0.273E-04 0.896E-05
CGA:  32    -0.668410220367E+03   -0.79026E-04    0.18957E-05  8424   0.250E-04 0.224E-05
CGA:  33    -0.668410329326E+03   -0.10896E-03    0.10359E-05  8424   0.302E-04 0.247E-04
CGA:  34    -0.668410362048E+03   -0.32722E-04    0.10341E-04  8424   0.278E-04 0.159E-05
CGA:  35    -0.668410466580E+03   -0.10453E-03    0.12953E-05  8424   0.331E-04 0.103E-04
CGA:  36    -0.668410635381E+03   -0.16880E-03    0.19111E-05  8424   0.265E-04 0.402E-04
CGA:  37    -0.668410662324E+03   -0.26943E-04    0.11024E-04  8424   0.427E-04-0.576E-05
CGA:  38    -0.668410795633E+03   -0.13331E-03    0.12935E-05  8424   0.424E-04 0.156E-04
CGA:  39    -0.668410989692E+03   -0.19406E-03    0.27927E-05  8424   0.862E-04 0.123E-04
CGA:  40    -0.668411369941E+03   -0.38025E-03    0.52199E-05  8424   0.809E-04 0.582E-04
CGA:  41    -0.668411387995E+03   -0.18054E-04   -0.16388E-04  8424   0.280E-04-0.109E-04
CGA:  42    -0.668411465276E+03   -0.77281E-04    0.11822E-05  8424   0.243E-04-0.140E-05
CGA:  43    -0.668411550332E+03   -0.85057E-04    0.93925E-06  8424   0.167E-04 0.199E-04
CGA:  44    -0.668411586431E+03   -0.36099E-04    0.13773E-05  8424   0.166E-04 0.311E-05
CGA:  45    -0.668411673595E+03   -0.87165E-04    0.64523E-06  8424   0.174E-04 0.117E-04
CGA:  46    -0.668411709931E+03   -0.36336E-04    0.15309E-05  8424   0.136E-04 0.364E-05
CGA:  47    -0.668411794802E+03   -0.84871E-04    0.44704E-06  8424   0.169E-04 0.993E-05
CGA:  48    -0.668411817742E+03   -0.22939E-04    0.31213E-05  8424   0.178E-04 0.152E-05
CGA:  49    -0.668411908839E+03   -0.91098E-04    0.59042E-06  8424   0.192E-04 0.945E-05
CGA:  50    -0.668411946608E+03   -0.37768E-04    0.18380E-05  8424   0.137E-04 0.202E-05
CGA:  51    -0.668412026779E+03   -0.80172E-04    0.40147E-06  8424   0.174E-04 0.803E-05
CGA:  52    -0.668412046438E+03   -0.19659E-04    0.48848E-05  8424   0.201E-04-0.527E-06
CGA:  53    -0.668412137627E+03   -0.91189E-04    0.59315E-06  8424   0.207E-04 0.780E-05
CGA:  54    -0.668412274342E+03   -0.13672E-03    0.86224E-06  8424   0.187E-04 0.232E-04
CGA:  55    -0.668412287472E+03   -0.13130E-04    0.37129E-03  8424   0.389E-04-0.982E-05
CGA:  56    -0.668412362971E+03   -0.75499E-04    0.38137E-05  8424   0.136E-03-0.563E-04
CGA:  57    -0.668412362323E+03    0.64821E-06   -0.11044E-04  8424   0.177E-04 0.438E-04
  44 F= -.66841236E+03 E0= -.66841236E+03  d E =0.825699E-01  mag=     2.0000
       N       E                     dE             d eps       ncg     rms          ort
SDA:   1    -0.663677736532E+03    0.47346E+01    0.00000E+00  8424   0.156E+02 0.000E+00
CGA:   2    -0.666764497297E+03   -0.30868E+01   -0.31006E+01  8424   0.632E+01 0.114E-02
CGA:   3    -0.668114192785E+03   -0.13497E+01   -0.13474E+01  8424   0.198E+01-0.333E-02
CGA:   4    -0.668447597473E+03   -0.33340E+00   -0.33356E+00  8424   0.479E+00-0.402E-03
CGA:   5    -0.668530761971E+03   -0.83164E-01   -0.83402E-01  8424   0.100E+00 0.131E-02
CGA:   6    -0.668550844672E+03   -0.20083E-01   -0.20104E-01  8424   0.223E-01 0.235E-03
CGA:   7    -0.668555865204E+03   -0.50205E-02   -0.50458E-02  8424   0.627E-02 0.368E-03
CGA:   8    -0.668557428073E+03   -0.15629E-02   -0.15713E-02  8424   0.183E-02 0.193E-03
CGA:   9    -0.668557901086E+03   -0.47301E-03   -0.47803E-03  8424   0.565E-03 0.146E-03
CGA:  10    -0.668557991788E+03   -0.90702E-04   -0.11601E-03  8424   0.220E-03 0.263E-03
CGA:  11    -0.668558007825E+03   -0.16037E-04   -0.43991E-04  8424   0.114E-03 0.192E-03
CGA:  12    -0.668558007811E+03    0.14297E-07   -0.13826E-04  8424   0.768E-04 0.901E-04
  45 F= -.66855801E+03 E0= -.66855801E+03  d E =-.145645E+00  mag=     2.0000
       N       E                     dE             d eps       ncg     rms          ort
SDA:   1    -0.668370166874E+03    0.18784E+00    0.00000E+00  8424   0.599E+00 0.000E+00
CGA:   2    -0.668505197877E+03   -0.13503E+00   -0.13506E+00  8424   0.258E+00 0.666E-03
CGA:   3    -0.668556282404E+03   -0.51085E-01   -0.51030E-01  8424   0.743E-01-0.966E-03
CGA:   4    -0.668568869317E+03   -0.12587E-01   -0.12595E-01  8424   0.188E-01 0.845E-04
CGA:   5    -0.668572017629E+03   -0.31483E-02   -0.31928E-02  8424   0.353E-02 0.559E-03
CGA:   6    -0.668572667177E+03   -0.64955E-03   -0.67156E-03  8424   0.774E-03 0.365E-03
CGA:   7    -0.668572801928E+03   -0.13475E-03   -0.15113E-03  8424   0.239E-03 0.252E-03
CGA:   8    -0.668572822440E+03   -0.20512E-04   -0.40380E-04  8424   0.117E-03 0.178E-03
CGA:   9    -0.668572819255E+03    0.31853E-05   -0.10402E-04  8424   0.810E-04 0.944E-04
  46 F= -.66857282E+03 E0= -.66857282E+03  d E =-.148114E-01  mag=     2.0000
       N       E                     dE             d eps       ncg     rms          ort
SDA:   1    -0.668095050732E+03    0.47777E+00    0.00000E+00  8424   0.141E+01 0.000E+00
CGA:   2    -0.668425469107E+03   -0.33042E+00   -0.33038E+00  8424   0.602E+00 0.173E-02
CGA:   3    -0.668542086054E+03   -0.11662E+00   -0.11656E+00  8424   0.170E+00-0.231E-02
CGA:   4    -0.668571243737E+03   -0.29158E-01   -0.29161E-01  8424   0.439E-01 0.675E-04
CGA:   5    -0.668578662415E+03   -0.74187E-02   -0.74659E-02  8424   0.824E-02 0.104E-02
CGA:   6    -0.668580238233E+03   -0.15758E-02   -0.15903E-02  8424   0.183E-02 0.593E-03
CGA:   7    -0.668580614147E+03   -0.37591E-03   -0.38296E-03  8424   0.542E-03 0.422E-03
CGA:   8    -0.668580701112E+03   -0.86965E-04   -0.10399E-03  8424   0.221E-03 0.311E-03
CGA:   9    -0.668580707788E+03   -0.66756E-05   -0.23419E-04  8424   0.135E-03 0.164E-03
  47 F= -.66858071E+03 E0= -.66858071E+03  d E =-.788853E-02  mag=     2.0000
       N       E                     dE             d eps       ncg     rms          ort
SDA:   1    -0.668547732270E+03    0.32969E-01    0.00000E+00  8424   0.122E+00 0.000E+00
CGA:   2    -0.668575909981E+03   -0.28178E-01   -0.28153E-01  8424   0.529E-01 0.734E-03
CGA:   3    -0.668586499822E+03   -0.10590E-01   -0.10590E-01  8424   0.154E-01-0.188E-03
CGA:   4    -0.668589034733E+03   -0.25349E-02   -0.25448E-02  8424   0.365E-02 0.308E-03
CGA:   5    -0.668589584062E+03   -0.54933E-03   -0.57084E-03  8424   0.650E-03 0.498E-03
CGA:   6    -0.668589650039E+03   -0.65977E-04   -0.90014E-04  8424   0.213E-03 0.332E-03
CGA:   7    -0.668589650484E+03   -0.44449E-06   -0.17626E-04  8424   0.128E-03 0.159E-03
  48 F= -.66858965E+03 E0= -.66858965E+03  d E =-.894270E-02  mag=     2.0000
       N       E                     dE             d eps       ncg     rms          ort
SDA:   1    -0.661523725200E+03    0.70659E+01    0.00000E+00  8424   0.207E+02 0.000E+00
CGA:   2    -0.666195323948E+03   -0.46716E+01   -0.46687E+01  8424   0.876E+01 0.471E-01
CGA:   3    -0.667929775617E+03   -0.17345E+01   -0.17345E+01  8424   0.245E+01-0.122E-02
CGA:   4    -0.668345480211E+03   -0.41570E+00   -0.41573E+00  8424   0.624E+00 0.118E-02
CGA:   5    -0.668455317382E+03   -0.10984E+00   -0.10983E+00  8424   0.125E+00-0.775E-03
CGA:   6    -0.668480444695E+03   -0.25127E-01   -0.25138E-01  8424   0.293E-01-0.581E-03
CGA:   7    -0.668487214446E+03   -0.67698E-02   -0.67494E-02  8424   0.911E-02 0.411E-03
CGA:   8    -0.668489551142E+03   -0.23367E-02   -0.23073E-02  8424   0.280E-02 0.449E-03
CGA:   9    -0.668490430341E+03   -0.87920E-03   -0.89100E-03  8424   0.118E-02-0.103E-03
CGA:  10    -0.668490827168E+03   -0.39683E-03   -0.45603E-03  8424   0.769E-03-0.288E-03
CGA:  11    -0.668490983314E+03   -0.15615E-03   -0.26838E-03  8424   0.714E-03-0.438E-03
CGA:  12    -0.668491125893E+03   -0.14258E-03   -0.14353E-03  8424   0.181E-03 0.603E-04
CGA:  13    -0.668490824114E+03    0.30178E-03   -0.17600E-03  8424   0.272E-02-0.511E-03
CGA:  14    -0.668491262037E+03   -0.43792E-03   -0.46166E-03  8424   0.514E-03 0.106E-03
CGA:  15    -0.668491473353E+03   -0.21132E-03   -0.21862E-03  8424   0.305E-03-0.276E-03
CGA:  16    -0.668491512650E+03   -0.39297E-04   -0.50860E-04  8424   0.680E-04 0.531E-04
CGA:  17    -0.668490570787E+03    0.94186E-03   -0.50917E-03  8424   0.495E-02-0.558E-03
CGA:  18    -0.668491598415E+03   -0.10276E-02   -0.10637E-02  8424   0.114E-02 0.809E-04
CGA:  19    -0.668491887393E+03   -0.28898E-03   -0.22343E-03  8424   0.103E-03-0.142E-03
CGA:  20    -0.668491925013E+03   -0.37620E-04   -0.30648E-04  8424   0.842E-04-0.237E-04
CGA:  21    -0.668492035360E+03   -0.11035E-03    0.53801E-04  8424   0.296E-03-0.712E-04
CGA:  22    -0.668492066207E+03   -0.30847E-04   -0.39774E-04  8424   0.483E-04 0.188E-04
CGA:  23    -0.668492134636E+03   -0.68429E-04    0.12960E-03  8424   0.690E-04-0.257E-04
CGA:  24    -0.668492174771E+03   -0.40135E-04   -0.37885E-04  8424   0.989E-04-0.492E-04
CGA:  25    -0.668492229155E+03   -0.54384E-04   -0.64230E-04  8424   0.524E-03-0.175E-03
CGA:  26    -0.668492268296E+03   -0.39141E-04   -0.70849E-04  8424   0.475E-04 0.689E-04
CGA:  27    -0.668492239954E+03    0.28342E-04   -0.59630E-04  8424   0.672E-03-0.165E-03
CGA:  28    -0.668492419082E+03   -0.17913E-03   -0.16697E-03  8424   0.771E-04-0.350E-04
CGA:  29    -0.668492449529E+03   -0.30447E-04   -0.19793E-04  8424   0.562E-04-0.344E-04
CGA:  30    -0.668492535225E+03   -0.85697E-04    0.61971E-05  8424   0.480E-04 0.699E-05
CGA:  31    -0.668492712817E+03   -0.17759E-03    0.80317E-05  8424   0.111E-03-0.713E-05
CGA:  32    -0.668493022981E+03   -0.31016E-03    0.14258E-04  8424   0.199E-03-0.159E-04
CGA:  33    -0.668493704467E+03   -0.68149E-03    0.19069E-04  8424   0.277E-03 0.550E-04
CGA:  34    -0.668494834666E+03   -0.11302E-02    0.55266E-04  8424   0.103E-02-0.298E-03
CGA:  35    -0.668494893357E+03   -0.58691E-04   -0.12545E-03  8424   0.637E-04 0.151E-03
CGA:  36    -0.668494903775E+03   -0.10417E-04   -0.13515E-04  8424   0.161E-04 0.858E-05
CGA:  37    -0.668494959320E+03   -0.55545E-04    0.25355E-05  8424   0.651E-04-0.301E-04
CGA:  38    -0.668494956693E+03    0.26273E-05   -0.73122E-05  8424   0.133E-04 0.240E-04
  49 F= -.66849496E+03 E0= -.66849496E+03  d E =0.946938E-01  mag=     2.0000
       N       E                     dE             d eps       ncg     rms          ort
SDA:   1    -0.660545331083E+03    0.79496E+01    0.00000E+00  8424   0.257E+02 0.000E+00
CGA:   2    -0.665765344508E+03   -0.52200E+01   -0.52880E+01  8424   0.104E+02-0.112E+00
CGA:   3    -0.667910256677E+03   -0.21449E+01   -0.21360E+01  8424   0.310E+01 0.482E-01
CGA:   4    -0.668442956851E+03   -0.53270E+00   -0.53328E+00  8424   0.798E+00 0.190E-02
CGA:   5    -0.668582328726E+03   -0.13937E+00   -0.13980E+00  8424   0.164E+00 0.364E-03
CGA:   6    -0.668614959288E+03   -0.32631E-01   -0.32554E-01  8424   0.373E-01-0.229E-03
CGA:   7    -0.668623611520E+03   -0.86522E-02   -0.87034E-02  8424   0.112E-01 0.260E-03
CGA:   8    -0.668626410556E+03   -0.27990E-02   -0.28169E-02  8424   0.343E-02 0.107E-03
CGA:   9    -0.668627356279E+03   -0.94572E-03   -0.94397E-03  8424   0.120E-02-0.139E-04
CGA:  10    -0.668627640286E+03   -0.28401E-03   -0.31116E-03  8424   0.414E-03 0.197E-03
CGA:  11    -0.668627744902E+03   -0.10462E-03   -0.12142E-03  8424   0.140E-03 0.120E-03
CGA:  12    -0.668627759862E+03   -0.14960E-04   -0.33615E-04  8424   0.663E-04 0.939E-04
CGA:  13    -0.668627755914E+03    0.39481E-05   -0.88071E-05  8424   0.452E-04 0.527E-04
  50 F= -.66862776E+03 E0= -.66862776E+03  d E =-.132799E+00  mag=     2.0000
       N       E                     dE             d eps       ncg     rms          ort
SDA:   1    -0.668206071413E+03    0.42169E+00    0.00000E+00  8424   0.145E+01 0.000E+00
CGA:   2    -0.668497308375E+03   -0.29124E+00   -0.29149E+00  8424   0.572E+00 0.248E-03
CGA:   3    -0.668618117810E+03   -0.12081E+00   -0.12077E+00  8424   0.186E+00-0.127E-03
CGA:   4    -0.668649257061E+03   -0.31139E-01   -0.31163E-01  8424   0.456E-01 0.960E-04
CGA:   5    -0.668657305769E+03   -0.80487E-02   -0.80778E-02  8424   0.929E-02 0.181E-03
CGA:   6    -0.668659115736E+03   -0.18100E-02   -0.18253E-02  8424   0.204E-02 0.122E-03
CGA:   7    -0.668659549157E+03   -0.43342E-03   -0.44661E-03  8424   0.569E-03 0.135E-03
CGA:   8    -0.668659666010E+03   -0.11685E-03   -0.12851E-03  8424   0.154E-03 0.120E-03
CGA:   9    -0.668659682067E+03   -0.16057E-04   -0.29298E-04  8424   0.622E-04 0.900E-04
CGA:  10    -0.668659679808E+03    0.22592E-05   -0.67778E-05  8424   0.405E-04 0.481E-04
  51 F= -.66865968E+03 E0= -.66865968E+03  d E =-.319239E-01  mag=     2.0000
       N       E                     dE             d eps       ncg     rms          ort
SDA:   1    -0.668483817009E+03    0.17587E+00    0.00000E+00  8424   0.590E+00 0.000E+00
CGA:   2    -0.668602631021E+03   -0.11881E+00   -0.11886E+00  8424   0.237E+00 0.420E-03
CGA:   3    -0.668653034578E+03   -0.50404E-01   -0.50377E-01  8424   0.774E-01-0.451E-03
CGA:   4    -0.668665840025E+03   -0.12805E-01   -0.12814E-01  8424   0.185E-01 0.732E-04
CGA:   5    -0.668669049896E+03   -0.32099E-02   -0.32427E-02  8424   0.374E-02 0.362E-03
CGA:   6    -0.668669739187E+03   -0.68929E-03   -0.71085E-03  8424   0.786E-03 0.290E-03
CGA:   7    -0.668669878723E+03   -0.13954E-03   -0.15447E-03  8424   0.214E-03 0.200E-03
CGA:   8    -0.668669899397E+03   -0.20674E-04   -0.36781E-04  8424   0.902E-04 0.138E-03
CGA:   9    -0.668669896310E+03    0.30867E-05   -0.80754E-05  8424   0.591E-04 0.707E-04
  52 F= -.66866990E+03 E0= -.66866990E+03  d E =-.102165E-01  mag=     2.0000
       N       E                     dE             d eps       ncg     rms          ort
SDA:   1    -0.668540576081E+03    0.12932E+00    0.00000E+00  8424   0.424E+00 0.000E+00
CGA:   2    -0.668639992462E+03   -0.99416E-01   -0.99414E-01  8424   0.193E+00 0.638E-03
CGA:   3    -0.668677906794E+03   -0.37914E-01   -0.37876E-01  8424   0.536E-01-0.111E-02
CGA:   4    -0.668686803680E+03   -0.88969E-02   -0.89031E-02  8424   0.131E-01 0.945E-04
CGA:   5    -0.668688966550E+03   -0.21629E-02   -0.22006E-02  8424   0.247E-02 0.647E-03
CGA:   6    -0.668689388371E+03   -0.42182E-03   -0.44544E-03  8424   0.544E-03 0.463E-03
CGA:   7    -0.668689463461E+03   -0.75090E-04   -0.94591E-04  8424   0.190E-03 0.263E-03
CGA:   8    -0.668689470897E+03   -0.74359E-05   -0.28142E-04  8424   0.105E-03 0.177E-03
