       N       E                     dE             d eps       ncg     rms          ort
DAV:   1     0.827016421511E+04    0.82702E+04   -0.24654E+05  8424   0.238E+03
DAV:   2     0.919936174188E+03   -0.73502E+04   -0.68987E+04  8424   0.656E+02
DAV:   3    -0.674736763118E+03   -0.15947E+04   -0.14024E+04  8424   0.282E+02
DAV:   4    -0.830577816319E+03   -0.15584E+03   -0.15313E+03  8424   0.857E+01
DAV:   5    -0.833080043169E+03   -0.25022E+01   -0.24910E+01  8424   0.122E+01
SDA:   6    -0.259494998885E+03    0.57359E+03   -0.24910E+01  8424   0.394E+04 0.000E+00
CGA:   7    -0.570796741457E+03   -0.31130E+03   -0.38688E+03  8424   0.605E+04-0.685E+03
CGA:   8    -0.526750553174E+03    0.44046E+02   -0.25198E+03  8424   0.204E+04-0.183E+04
CGA:   9    -0.513054455643E+03    0.13696E+02   -0.50988E+02  8424   0.655E+04-0.464E+04
CGA:  10    -0.489064949222E+03    0.23990E+02   -0.49819E+03  8424   0.165E+04-0.483E+03
CGA:  11    -0.555006876009E+03   -0.65942E+02   -0.55479E+02  8424   0.451E+04-0.169E+04
CGA:  12    -0.558168265755E+03   -0.31614E+01   -0.23609E+03  8424   0.127E+04-0.405E+03
CGA:  13    -0.571698590480E+03   -0.13530E+02   -0.39975E+02  8424   0.967E+03-0.876E+03
CGA:  14    -0.591590869828E+03   -0.19892E+02   -0.27275E+02  8424   0.733E+03-0.827E+03
CGA:  15    -0.647423554825E+03   -0.55833E+02   -0.13890E+02  8424   0.195E+03-0.552E+03
CGA:  16    -0.653413938851E+03   -0.59904E+01   -0.43534E+01  8424   0.725E+02 0.110E+03
CGA:  17    -0.655257189218E+03   -0.18433E+01   -0.91685E+00  8424   0.530E+02 0.715E+02
CGA:  18    -0.656583055671E+03   -0.13259E+01   -0.75135E+00  8424   0.251E+02 0.353E+02
CGA:  19    -0.657772841957E+03   -0.11898E+01   -0.80154E+00  8424   0.169E+02 0.954E+01
CGA:  20    -0.659063049697E+03   -0.12902E+01   -0.93646E+00  8424   0.328E+02 0.653E+01
CGA:  21    -0.659381830757E+03   -0.31878E+00   -0.15402E+01  8424   0.112E+03-0.239E+02
CGA:  22    -0.659965880492E+03   -0.58405E+00   -0.52555E+01  8424   0.479E+02-0.289E+02
CGA:  23    -0.661396053105E+03   -0.14302E+01   -0.65926E+00  8424   0.468E+02 0.442E+02
CGA:  24    -0.662921720926E+03   -0.15257E+01   -0.10312E+01  8424   0.147E+02-0.739E+01
CGA:  25    -0.663178747730E+03   -0.25703E+00   -0.37248E+00  8424   0.192E+02-0.319E+01
CGA:  26    -0.663998553762E+03   -0.81981E+00   -0.83841E+00  8424   0.252E+02-0.422E+01
CGA:  27    -0.665005849198E+03   -0.10073E+01   -0.12815E+01  8424   0.918E+01 0.212E+01
CGA:  28    -0.665583604591E+03   -0.57776E+00   -0.68825E+00  8424   0.813E+01 0.871E+00
CGA:  29    -0.665842830396E+03   -0.25923E+00   -0.15599E+00  8424   0.448E+01 0.502E+01
CGA:  30    -0.666059439370E+03   -0.21661E+00   -0.15078E+00  8424   0.200E+01 0.123E+01
CGA:  31    -0.666264076025E+03   -0.20464E+00   -0.27614E+00  8424   0.941E+01-0.226E+01
CGA:  32    -0.666514018715E+03   -0.24994E+00   -0.34743E+00  8424   0.164E+01-0.166E+01
CGA:  33    -0.666598532040E+03   -0.84513E-01   -0.78350E-01  8424   0.115E+01-0.351E-01
CGA:  34    -0.666795071382E+03   -0.19654E+00   -0.18022E+00  8424   0.118E+01 0.168E+00
CGA:  35    -0.666981327463E+03   -0.18626E+00   -0.16472E+00  8424   0.188E+00 0.419E+00
CGA:  36    -0.667043312495E+03   -0.61985E-01   -0.59636E-01  8424   0.581E+00 0.198E-01
CGA:  37    -0.667119699659E+03   -0.76387E-01   -0.74695E-01  8424   0.282E+00 0.376E-01
CGA:  38    -0.667151589619E+03   -0.31890E-01   -0.31790E-01  8424   0.594E-01-0.252E-02
CGA:  39    -0.667163735682E+03   -0.12146E-01   -0.18518E-01  8424   0.104E+00-0.289E-01
CGA:  40    -0.667170461763E+03   -0.67261E-02   -0.16761E-01  8424   0.116E+00-0.487E-01
CGA:  41    -0.667178233057E+03   -0.77713E-02   -0.79053E-02  8424   0.783E-01-0.132E-01
CGA:  42    -0.667189260376E+03   -0.11027E-01   -0.11202E-01  8424   0.552E-01-0.400E-02
CGA:  43    -0.667197347534E+03   -0.80872E-02   -0.79847E-02  8424   0.451E-01 0.318E-02
CGA:  44    -0.667206930656E+03   -0.95831E-02   -0.88905E-02  8424   0.462E-01 0.108E-01
CGA:  45    -0.667216464242E+03   -0.95336E-02   -0.90613E-02  8424   0.327E-01 0.146E-01
CGA:  46    -0.667224485038E+03   -0.80208E-02   -0.73680E-02  8424   0.294E-01 0.148E-01
CGA:  47    -0.667232060909E+03   -0.75759E-02   -0.70622E-02  8424   0.192E-01 0.144E-01
CGA:  48    -0.667236735846E+03   -0.46749E-02   -0.44324E-02  8424   0.128E-01 0.101E-01
CGA:  49    -0.667240791984E+03   -0.40561E-02   -0.35937E-02  8424   0.993E-02 0.310E-02
CGA:  50    -0.667244585450E+03   -0.37935E-02   -0.32477E-02  8424   0.755E-02 0.439E-02
CGA:  51    -0.667248216339E+03   -0.36309E-02   -0.28889E-02  8424   0.558E-02 0.617E-02
CGA:  52    -0.667250089573E+03   -0.18732E-02   -0.15977E-02  8424   0.452E-02 0.204E-02
CGA:  53    -0.667252877772E+03   -0.27882E-02   -0.20686E-02  8424   0.386E-02 0.404E-02
CGA:  54    -0.667255070047E+03   -0.21923E-02   -0.17116E-02  8424   0.464E-02 0.172E-02
CGA:  55    -0.667258209734E+03   -0.31397E-02   -0.25020E-02  8424   0.734E-02 0.328E-02
CGA:  56    -0.667259450387E+03   -0.12407E-02   -0.12484E-02  8424   0.489E-02 0.392E-03
CGA:  57    -0.667261981141E+03   -0.25308E-02   -0.20435E-02  8424   0.407E-02 0.233E-02
CGA:  58    -0.667266081406E+03   -0.41003E-02   -0.30801E-02  8424   0.118E-01 0.321E-02
CGA:  59    -0.667267641888E+03   -0.15605E-02   -0.15447E-02  8424   0.352E-02-0.668E-04
CGA:  60    -0.667270334424E+03   -0.26925E-02   -0.22144E-02  8424   0.480E-02 0.110E-02
CGA:  61    -0.667274267947E+03   -0.39335E-02   -0.32608E-02  8424   0.116E-01 0.224E-02
CGA:  62    -0.667293679233E+03   -0.19411E-01   -0.14989E-01  8424   0.190E-01 0.553E-02
CGA:  63    -0.667306499309E+03   -0.12820E-01   -0.13399E-01  8424   0.493E-01-0.526E-02
CGA:  64    -0.667318169255E+03   -0.11670E-01   -0.13306E-01  8424   0.435E-01-0.318E-01
CGA:  65    -0.667326135106E+03   -0.79659E-02   -0.81277E-02  8424   0.126E-01 0.172E-02
CGA:  66    -0.667329637886E+03   -0.35028E-02   -0.35287E-02  8424   0.533E-02 0.146E-02
CGA:  67    -0.667333603372E+03   -0.39655E-02   -0.41105E-02  8424   0.717E-02-0.394E-03
CGA:  68    -0.667336391716E+03   -0.27883E-02   -0.32895E-02  8424   0.777E-02-0.277E-02
CGA:  69    -0.667337521165E+03   -0.11294E-02   -0.23100E-02  8424   0.140E-01-0.725E-02
CGA:  70    -0.667340127271E+03   -0.26061E-02   -0.24827E-02  8424   0.493E-02-0.824E-03
CGA:  71    -0.667321461743E+03    0.18666E-01   -0.10204E-01  8424   0.168E+00-0.161E-01
CGA:  72    -0.667344009897E+03   -0.22548E-01   -0.23901E-01  8424   0.251E-01-0.965E-02
CGA:  73    -0.667349310199E+03   -0.53003E-02   -0.50523E-02  8424   0.542E-02-0.359E-03
CGA:  74    -0.667351305235E+03   -0.19950E-02   -0.18899E-02  8424   0.382E-02-0.583E-03
CGA:  75    -0.667352671326E+03   -0.13661E-02   -0.11882E-02  8424   0.355E-02-0.971E-03
CGA:  76    -0.667353946811E+03   -0.12755E-02   -0.18963E-02  8424   0.876E-02-0.328E-02
CGA:  77    -0.667355898590E+03   -0.19518E-02   -0.16872E-02  8424   0.353E-02-0.709E-03
CGA:  78    -0.667357580924E+03   -0.16823E-02   -0.17958E-02  8424   0.990E-02-0.289E-02
CGA:  79    -0.667359079302E+03   -0.14984E-02   -0.13746E-02  8424   0.153E-02-0.137E-03
CGA:  80    -0.667359808123E+03   -0.72882E-03   -0.66306E-03  8424   0.295E-02-0.114E-02
CGA:  81    -0.667360581810E+03   -0.77369E-03   -0.59269E-03  8424   0.129E-02-0.586E-03
CGA:  82    -0.667361711790E+03   -0.11300E-02    0.17146E-02  8424   0.352E-02-0.781E-03
CGA:  83    -0.667362431101E+03   -0.71931E-03   -0.58130E-03  8424   0.994E-03-0.406E-03
CGA:  84    -0.667363385999E+03   -0.95490E-03    0.11971E-02  8424   0.230E-02-0.474E-03
CGA:  85    -0.667366788948E+03   -0.34029E-02    0.13653E-03  8424   0.320E-02 0.705E-03
CGA:  86    -0.667372755256E+03   -0.59663E-02    0.18078E-02  8424   0.984E-02-0.101E-02
CGA:  87    -0.667389363762E+03   -0.16609E-01    0.93902E-03  8424   0.326E-01-0.609E-02
CGA:  88    -0.667396256385E+03   -0.68926E-02   -0.68026E-02  8424   0.225E-02-0.392E-03
CGA:  89    -0.667396881557E+03   -0.62517E-03   -0.48155E-03  8424   0.132E-02-0.579E-03
CGA:  90    -0.667398106951E+03   -0.12254E-02    0.50936E-03  8424   0.108E-02-0.264E-03
CGA:  91    -0.667400208484E+03   -0.21015E-02    0.10652E-03  8424   0.557E-03 0.657E-03
CGA:  92    -0.667401202002E+03   -0.99352E-03    0.11881E-03  8424   0.346E-03 0.140E-03
CGA:  93    -0.667402577116E+03   -0.13751E-02    0.36493E-04  8424   0.464E-03 0.304E-03
CGA:  94    -0.667403362619E+03   -0.78550E-03    0.11000E-03  8424   0.987E-03-0.246E-04
CGA:  95    -0.667405764422E+03   -0.24018E-02    0.10680E-03  8424   0.112E-02 0.143E-03
CGA:  96    -0.667409733627E+03   -0.39692E-02    0.11173E-03  8424   0.142E-02 0.981E-03
CGA:  97    -0.667410358208E+03   -0.62458E-03   -0.56437E-03  8424   0.436E-02-0.147E-02
CGA:  98    -0.667411051886E+03   -0.69368E-03   -0.57242E-03  8424   0.410E-03-0.489E-03
CGA:  99    -0.667411885157E+03   -0.83327E-03    0.44951E-04  8424   0.693E-03 0.636E-04
CGA: 100    -0.667414198839E+03   -0.23137E-02    0.69729E-04  8424   0.311E-03 0.571E-03
CGA: 101    -0.667414971396E+03   -0.77256E-03    0.33739E-04  8424   0.654E-03 0.494E-04
CGA: 102    -0.667417406180E+03   -0.24348E-02    0.56925E-04  8424   0.589E-03 0.507E-03
CGA: 103    -0.667418103212E+03   -0.69703E-03    0.30971E-03  8424   0.105E-02-0.218E-03
CGA: 104    -0.667419839118E+03   -0.17359E-02    0.65742E-04  8424   0.211E-02-0.358E-03
CGA: 105    -0.667424819202E+03   -0.49801E-02    0.90162E-04  8424   0.355E-02 0.801E-03
CGA: 106    -0.667434635200E+03   -0.98160E-02    0.75551E-03  8424   0.505E-02-0.299E-03
CGA: 107    -0.667448215906E+03   -0.13581E-01    0.39343E-03  8424   0.109E-01-0.196E-02
CGA: 108    -0.667481730090E+03   -0.33514E-01    0.28337E-03  8424   0.136E-01-0.237E-03
CGA: 109    -0.667523038534E+03   -0.41308E-01    0.10535E-02  8424   0.482E-01-0.225E-01
CGA: 110    -0.667528031177E+03   -0.49926E-02   -0.54147E-02  8424   0.189E-02-0.190E-02
CGA: 111    -0.667528229951E+03   -0.19877E-03   -0.34127E-03  8424   0.403E-03 0.652E-03
CGA: 112    -0.667528156977E+03    0.72974E-04   -0.52115E-04  8424   0.278E-03 0.417E-03
CGA: 113    -0.667528094849E+03    0.62128E-04   -0.18763E-04  8424   0.242E-03 0.258E-03
CGA: 114    -0.667528037432E+03    0.57417E-04   -0.14059E-04  8424   0.223E-03 0.233E-03
CGA: 115    -0.667527984295E+03    0.53137E-04   -0.11577E-04  8424   0.211E-03 0.217E-03
CGA: 116    -0.667527934891E+03    0.49404E-04   -0.99314E-05  8424   0.201E-03 0.206E-03
CGA: 117    -0.667527888766E+03    0.46125E-04   -0.87329E-05  8424   0.194E-03 0.198E-03
CGA: 118    -0.667527845559E+03    0.43207E-04   -0.78082E-05  8424   0.188E-03 0.191E-03
CGA: 119    -0.667527804973E+03    0.40586E-04   -0.70655E-05  8424   0.184E-03 0.186E-03
CGA: 120    -0.667527766767E+03    0.38207E-04   -0.64506E-05  8424   0.180E-03 0.182E-03
CGA: 121    -0.667527730736E+03    0.36030E-04   -0.59296E-05  8424   0.177E-03 0.178E-03
CGA: 122    -0.667527696707E+03    0.34030E-04   -0.54799E-05  8424   0.174E-03 0.175E-03
CGA: 123    -0.667527664528E+03    0.32178E-04   -0.50859E-05  8424   0.171E-03 0.172E-03
CGA: 124    -0.667527634070E+03    0.30459E-04   -0.47364E-05  8424   0.169E-03 0.170E-03
CGA: 125    -0.667527605213E+03    0.28856E-04   -0.44235E-05  8424   0.167E-03 0.168E-03
CGA: 126    -0.667527577853E+03    0.27360E-04   -0.41425E-05  8424   0.166E-03 0.166E-03
CGA: 127    -0.667527551886E+03    0.25967E-04   -0.38905E-05  8424   0.164E-03 0.165E-03
CGA: 128    -0.667527527225E+03    0.24660E-04   -0.36614E-05  8424   0.163E-03 0.163E-03
CGA: 129    -0.667527503796E+03    0.23430E-04   -0.34503E-05  8424   0.162E-03 0.162E-03
CGA: 130    -0.667527481525E+03    0.22270E-04   -0.32549E-05  8424   0.161E-03 0.161E-03
CGA: 131    -0.667527460351E+03    0.21175E-04   -0.30736E-05  8424   0.160E-03 0.160E-03
CGA: 132    -0.667527440212E+03    0.20138E-04   -0.29048E-05  8424   0.159E-03 0.159E-03
CGA: 133    -0.667527421053E+03    0.19159E-04   -0.27475E-05  8424   0.158E-03 0.158E-03
CGA: 134    -0.667527402821E+03    0.18233E-04   -0.26007E-05  8424   0.157E-03 0.157E-03
CGA: 135    -0.667527385466E+03    0.17355E-04   -0.24635E-05  8424   0.156E-03 0.156E-03
CGA: 136    -0.667527368943E+03    0.16523E-04   -0.23350E-05  8424   0.155E-03 0.156E-03
CGA: 137    -0.667527353207E+03    0.15736E-04   -0.22144E-05  8424   0.155E-03 0.155E-03
CGA: 138    -0.667527338219E+03    0.14988E-04   -0.21012E-05  8424   0.154E-03 0.154E-03
CGA: 139    -0.667527323940E+03    0.14279E-04   -0.19948E-05  8424   0.154E-03 0.154E-03
CGA: 140    -0.667527310333E+03    0.13607E-04   -0.18946E-05  8424   0.153E-03 0.153E-03
CGA: 141    -0.667527297366E+03    0.12967E-04   -0.18001E-05  8424   0.153E-03 0.153E-03
CGA: 142    -0.667527285006E+03    0.12360E-04   -0.17110E-05  8424   0.152E-03 0.152E-03
CGA: 143    -0.667527273223E+03    0.11783E-04   -0.16268E-05  8424   0.152E-03 0.152E-03
CGA: 144    -0.667527261988E+03    0.11234E-04   -0.15473E-05  8424   0.152E-03 0.152E-03
CGA: 145    -0.667527251276E+03    0.10712E-04   -0.14721E-05  8424   0.151E-03 0.151E-03
CGA: 146    -0.667527241061E+03    0.10215E-04   -0.14009E-05  8424   0.151E-03 0.151E-03
CGA: 147    -0.667527231317E+03    0.97437E-05   -0.13335E-05  8424   0.151E-03 0.151E-03
   1 F= -.66752723E+03 E0= -.66752722E+03  d E =-.667527E+03  mag=     6.0000
       N       E                     dE             d eps       ncg     rms          ort
SDA:   1    -0.667533201874E+03   -0.59608E-02    0.00000E+00  8424   0.942E-02 0.000E+00
CGA:   2    -0.667535113056E+03   -0.19112E-02   -0.16382E-02  8424   0.322E-02 0.276E-02
CGA:   3    -0.667535617191E+03   -0.50414E-03   -0.44002E-03  8424   0.141E-02 0.250E-02
CGA:   4    -0.667535697826E+03   -0.80636E-04   -0.95967E-04  8424   0.984E-03 0.115E-02
CGA:   5    -0.667535727432E+03   -0.29605E-04   -0.53137E-04  8424   0.799E-03 0.880E-03
CGA:   6    -0.667535738460E+03   -0.11029E-04   -0.36161E-04  8424   0.685E-03 0.735E-03
CGA:   7    -0.667535740334E+03   -0.18740E-05   -0.26682E-04  8424   0.605E-03 0.640E-03
CGA:   8    -0.667535737210E+03    0.31245E-05   -0.20656E-04  8424   0.545E-03 0.571E-03
CGA:   9    -0.667535731237E+03    0.59724E-05   -0.16530E-04  8424   0.499E-03 0.519E-03
CGA:  10    -0.667535723633E+03    0.76043E-05   -0.13561E-04  8424   0.461E-03 0.478E-03
CGA:  11    -0.667535715122E+03    0.85113E-05   -0.11343E-04  8424   0.431E-03 0.444E-03
   2 F= -.66753572E+03 E0= -.66753570E+03  d E =-.848380E-02  mag=     6.0000
       N       E                     dE             d eps       ncg     rms          ort
SDA:   1    -0.667225048103E+03    0.31068E+00    0.00000E+00  8424   0.114E+01 0.000E+00
CGA:   2    -0.667505798311E+03   -0.28075E+00   -0.27995E+00  8424   0.542E+00 0.425E-02
CGA:   3    -0.667608601913E+03   -0.10280E+00   -0.10191E+00  8424   0.140E+00 0.776E-02
CGA:   4    -0.667632152022E+03   -0.23550E-01   -0.23273E-01  8424   0.347E-01 0.325E-02
CGA:   5    -0.667638152453E+03   -0.60004E-02   -0.58507E-02  8424   0.664E-02 0.184E-02
CGA:   6    -0.667639329932E+03   -0.11775E-02   -0.10532E-02  8424   0.160E-02 0.198E-02
CGA:   7    -0.667639513290E+03   -0.18336E-03   -0.18540E-03  8424   0.840E-03 0.132E-02
CGA:   8    -0.667639543436E+03   -0.30146E-04   -0.51505E-04  8424   0.631E-03 0.720E-03
CGA:   9    -0.667639550559E+03   -0.71238E-05   -0.30701E-04  8424   0.534E-03 0.578E-03
CGA:  10    -0.667639549643E+03    0.91618E-06   -0.22149E-04  8424   0.475E-03 0.502E-03
CGA:  11    -0.667639544952E+03    0.46912E-05   -0.17290E-04  8424   0.433E-03 0.451E-03
CGA:  12    -0.667639538287E+03    0.66649E-05   -0.14117E-04  8424   0.401E-03 0.415E-03
CGA:  13    -0.667639530560E+03    0.77270E-05   -0.11870E-04  8424   0.377E-03 0.387E-03
CGA:  14    -0.667639522280E+03    0.82804E-05   -0.10190E-04  8424   0.357E-03 0.365E-03
   3 F= -.66763952E+03 E0= -.66763952E+03  d E =-.103807E+00  mag=     6.0000
       N       E                     dE             d eps       ncg     rms          ort
SDA:   1    -0.633196831351E+03    0.34443E+02    0.00000E+00  8424   0.952E+02 0.000E+00
CGA:   2    -0.656873290099E+03   -0.23676E+02   -0.23622E+02  8424   0.441E+02 0.418E+00
CGA:   3    -0.665262175329E+03   -0.83889E+01   -0.83836E+01  8424   0.115E+02 0.341E-01
CGA:   4    -0.667202936743E+03   -0.19408E+01   -0.19391E+01  8424   0.292E+01 0.166E-01
CGA:   5    -0.667694895210E+03   -0.49196E+00   -0.49205E+00  8424   0.594E+00-0.164E-02
CGA:   6    -0.667814298143E+03   -0.11940E+00   -0.11934E+00  8424   0.150E+00 0.523E-03
CGA:   7    -0.667849125635E+03   -0.34827E-01   -0.34477E-01  8424   0.514E-01 0.268E-02
CGA:   8    -0.667861977652E+03   -0.12852E-01   -0.12381E-01  8424   0.175E-01 0.360E-02
CGA:   9    -0.667867075673E+03   -0.50980E-02   -0.47189E-02  8424   0.621E-02 0.273E-02
CGA:  10    -0.667869180295E+03   -0.21046E-02   -0.18638E-02  8424   0.251E-02 0.172E-02
CGA:  11    -0.667869929266E+03   -0.74897E-03   -0.64495E-03  8424   0.970E-03 0.139E-02
CGA:  12    -0.667870095834E+03   -0.16657E-03   -0.15039E-03  8424   0.542E-03 0.665E-03
CGA:  13    -0.667870161179E+03   -0.65345E-04   -0.68230E-04  8424   0.439E-03 0.486E-03
CGA:  14    -0.667870199058E+03   -0.37879E-04   -0.47546E-04  8424   0.386E-03 0.412E-03
CGA:  15    -0.667870224753E+03   -0.25695E-04   -0.37776E-04  8424   0.352E-03 0.369E-03
CGA:  16    -0.667870243297E+03   -0.18544E-04   -0.31692E-04  8424   0.326E-03 0.339E-03
CGA:  17    -0.667870257138E+03   -0.13841E-04   -0.27432E-04  8424   0.307E-03 0.317E-03
CGA:  18    -0.667870267661E+03   -0.10523E-04   -0.24230E-04  8424   0.291E-03 0.299E-03
CGA:  19    -0.667870275733E+03   -0.80718E-05   -0.21708E-04  8424   0.278E-03 0.285E-03
CGA:  20    -0.667870281935E+03   -0.62022E-05   -0.19654E-04  8424   0.267E-03 0.272E-03
CGA:  21    -0.667870286680E+03   -0.47449E-05   -0.17943E-04  8424   0.257E-03 0.262E-03
CGA:  22    -0.667870290269E+03   -0.35883E-05   -0.16489E-04  8424   0.249E-03 0.253E-03
CGA:  23    -0.667870292926E+03   -0.26579E-05   -0.15235E-04  8424   0.241E-03 0.245E-03
CGA:  24    -0.667870294826E+03   -0.18995E-05   -0.14140E-04  8424   0.235E-03 0.238E-03
CGA:  25    -0.667870296105E+03   -0.12788E-05   -0.13176E-04  8424   0.229E-03 0.232E-03
CGA:  26    -0.667870296873E+03   -0.76804E-06   -0.12320E-04  8424   0.224E-03 0.226E-03
CGA:  27    -0.667870297219E+03   -0.34583E-06   -0.11554E-04  8424   0.219E-03 0.221E-03
CGA:  28    -0.667870297215E+03    0.37908E-08   -0.10866E-04  8424   0.215E-03 0.217E-03
CGA:  29    -0.667870296923E+03    0.29141E-06   -0.10249E-04  8424   0.211E-03 0.213E-03
   4 F= -.66787030E+03 E0= -.66787030E+03  d E =-.230775E+00  mag=     6.0000
       N       E                     dE             d eps       ncg     rms          ort
SDA:   1    -0.662240597330E+03    0.56297E+01    0.00000E+00  8424   0.186E+02 0.000E+00
CGA:   2    -0.665892042063E+03   -0.36514E+01   -0.36416E+01  8424   0.725E+01 0.957E-01
CGA:   3    -0.667472294963E+03   -0.15803E+01   -0.15824E+01  8424   0.246E+01-0.207E-01
CGA:   4    -0.667881931620E+03   -0.40964E+00   -0.40955E+00  8424   0.610E+00 0.797E-03
CGA:   5    -0.667985692158E+03   -0.10376E+00   -0.10351E+00  8424   0.121E+00 0.384E-02
CGA:   6    -0.668009951706E+03   -0.24260E-01   -0.24265E-01  8424   0.273E-01-0.857E-04
CGA:   7    -0.668015967155E+03   -0.60154E-02   -0.58224E-02  8424   0.764E-02 0.195E-02
CGA:   8    -0.668017843402E+03   -0.18762E-02   -0.17476E-02  8424   0.211E-02 0.136E-02
CGA:   9    -0.668018464550E+03   -0.62115E-03   -0.55303E-03  8424   0.792E-03 0.691E-03
CGA:  10    -0.668018638998E+03   -0.17445E-03   -0.15981E-03  8424   0.455E-03 0.630E-03
CGA:  11    -0.668018694408E+03   -0.55410E-04   -0.57058E-04  8424   0.318E-03 0.364E-03
CGA:  12    -0.668018724506E+03   -0.30098E-04   -0.35469E-04  8424   0.273E-03 0.292E-03
CGA:  13    -0.668018743021E+03   -0.18515E-04   -0.26644E-04  8424   0.248E-03 0.259E-03
CGA:  14    -0.668018756005E+03   -0.12984E-04   -0.22135E-04  8424   0.232E-03 0.239E-03
CGA:  15    -0.668018765621E+03   -0.96167E-05   -0.19204E-04  8424   0.219E-03 0.225E-03
CGA:  16    -0.668018772958E+03   -0.73373E-05   -0.17081E-04  8424   0.210E-03 0.214E-03
CGA:  17    -0.668018778652E+03   -0.56937E-05   -0.15441E-04  8424   0.202E-03 0.205E-03
CGA:  18    -0.668018783110E+03   -0.44578E-05   -0.14120E-04  8424   0.195E-03 0.198E-03
CGA:  19    -0.668018786612E+03   -0.35022E-05   -0.13024E-04  8424   0.190E-03 0.192E-03
CGA:  20    -0.668018789361E+03   -0.27483E-05   -0.12094E-04  8424   0.185E-03 0.187E-03
CGA:  21    -0.668018791506E+03   -0.21450E-05   -0.11293E-04  8424   0.180E-03 0.182E-03
CGA:  22    -0.668018793163E+03   -0.16575E-05   -0.10595E-04  8424   0.177E-03 0.178E-03
   5 F= -.66801879E+03 E0= -.66801879E+03  d E =-.148496E+00  mag=     6.0000
       N       E                     dE             d eps       ncg     rms          ort
SDA:   1    -0.661732143715E+03    0.62866E+01    0.00000E+00  8424   0.179E+02 0.000E+00
CGA:   2    -0.665718616348E+03   -0.39865E+01   -0.39805E+01  8424   0.835E+01 0.497E-01
CGA:   3    -0.667457479048E+03   -0.17389E+01   -0.17400E+01  8424   0.242E+01-0.137E-01
CGA:   4    -0.667845591566E+03   -0.38811E+00   -0.38805E+00  8424   0.553E+00 0.772E-03
CGA:   5    -0.667939202834E+03   -0.93611E-01   -0.93444E-01  8424   0.112E+00 0.308E-02
CGA:   6    -0.667962061856E+03   -0.22859E-01   -0.22773E-01  8424   0.268E-01 0.102E-02
CGA:   7    -0.667968019763E+03   -0.59579E-02   -0.58096E-02  8424   0.756E-02 0.163E-02
CGA:   8    -0.667969875017E+03   -0.18553E-02   -0.17455E-02  8424   0.229E-02 0.122E-02
CGA:   9    -0.667970532066E+03   -0.65705E-03   -0.58435E-03  8424   0.911E-03 0.835E-03
CGA:  10    -0.667970753025E+03   -0.22096E-03   -0.20227E-03  8424   0.527E-03 0.722E-03
CGA:  11    -0.667970826112E+03   -0.73087E-04   -0.72986E-04  8424   0.356E-03 0.411E-03
CGA:  12    -0.667970862445E+03   -0.36333E-04   -0.42551E-04  8424   0.306E-03 0.328E-03
CGA:  13    -0.667970885536E+03   -0.23091E-04   -0.32314E-04  8424   0.278E-03 0.291E-03
CGA:  14    -0.667970902197E+03   -0.16661E-04   -0.26987E-04  8424   0.258E-03 0.267E-03
CGA:  15    -0.667970914867E+03   -0.12670E-04   -0.23475E-04  8424   0.244E-03 0.251E-03
CGA:  16    -0.667970924804E+03   -0.99369E-05   -0.20916E-04  8424   0.233E-03 0.238E-03
CGA:  17    -0.667970932754E+03   -0.79499E-05   -0.18935E-04  8424   0.224E-03 0.228E-03
CGA:  18    -0.667970939200E+03   -0.64465E-05   -0.17337E-04  8424   0.216E-03 0.220E-03
CGA:  19    -0.667970944477E+03   -0.52770E-05   -0.16011E-04  8424   0.210E-03 0.213E-03
CGA:  20    -0.667970948827E+03   -0.43491E-05   -0.14887E-04  8424   0.204E-03 0.207E-03
CGA:  21    -0.667970952427E+03   -0.36008E-05   -0.13917E-04  8424   0.199E-03 0.201E-03
CGA:  22    -0.667970955419E+03   -0.29922E-05   -0.13071E-04  8424   0.195E-03 0.197E-03
CGA:  23    -0.667970957910E+03   -0.24902E-05   -0.12322E-04  8424   0.191E-03 0.193E-03
CGA:  24    -0.667970959982E+03   -0.20722E-05   -0.11654E-04  8424   0.187E-03 0.189E-03
CGA:  25    -0.667970961704E+03   -0.17217E-05   -0.11053E-04  8424   0.184E-03 0.186E-03
CGA:  26    -0.667970963130E+03   -0.14263E-05   -0.10508E-04  8424   0.181E-03 0.183E-03
CGA:  27    -0.667970964307E+03   -0.11767E-05   -0.10011E-04  8424   0.179E-03 0.180E-03
   6 F= -.66797096E+03 E0= -.66797096E+03  d E =0.478289E-01  mag=     6.0000
       N       E                     dE             d eps       ncg     rms          ort
SDA:   1    -0.647169928189E+03    0.20801E+02    0.00000E+00  8424   0.682E+02 0.000E+00
CGA:   2    -0.660340078614E+03   -0.13170E+02   -0.13106E+02  8424   0.255E+02 0.685E+00
CGA:   3    -0.665894111883E+03   -0.55540E+01   -0.55627E+01  8424   0.857E+01-0.894E-01
CGA:   4    -0.667333278483E+03   -0.14392E+01   -0.14385E+01  8424   0.219E+01 0.754E-02
CGA:   5    -0.667709816372E+03   -0.37654E+00   -0.37601E+00  8424   0.450E+00 0.830E-02
CGA:   6    -0.667799987657E+03   -0.90171E-01   -0.90433E-01  8424   0.101E+00-0.320E-02
CGA:   7    -0.667822600582E+03   -0.22613E-01   -0.22420E-01  8424   0.305E-01 0.185E-02
CGA:   8    -0.667830169980E+03   -0.75694E-02   -0.74736E-02  8424   0.906E-02 0.825E-03
CGA:   9    -0.667832811336E+03   -0.26414E-02   -0.27617E-02  8424   0.369E-02-0.730E-03
CGA:  10    -0.667833747116E+03   -0.93578E-03   -0.87603E-03  8424   0.139E-02 0.498E-03
CGA:  11    -0.667834305220E+03   -0.55810E-03   -0.63259E-03  8424   0.968E-03-0.297E-03
CGA:  12    -0.667834556546E+03   -0.25133E-03   -0.34216E-03  8424   0.983E-03-0.320E-03
CGA:  13    -0.667834017834E+03    0.53871E-03   -0.34576E-03  8424   0.614E-02-0.148E-02
CGA:  14    -0.667835411726E+03   -0.13939E-02   -0.13781E-02  8424   0.187E-02-0.180E-03
CGA:  15    -0.667835928081E+03   -0.51636E-03   -0.50928E-03  8424   0.984E-03-0.237E-03
CGA:  16    -0.667836161592E+03   -0.23351E-03   -0.67737E-03  8424   0.313E-02-0.931E-03
CGA:  17    -0.667836709853E+03   -0.54826E-03   -0.52599E-03  8424   0.645E-03-0.132E-03
CGA:  18    -0.667836940300E+03   -0.23045E-03   -0.25875E-03  8424   0.741E-03-0.301E-03
CGA:  19    -0.667837206769E+03   -0.26647E-03    0.27357E-02  8424   0.445E-03-0.741E-04
CGA:  20    -0.667837548240E+03   -0.34147E-03    0.22092E-03  8424   0.358E-03 0.996E-04
CGA:  21    -0.667837927689E+03   -0.37945E-03    0.22733E-03  8424   0.363E-03 0.115E-03
CGA:  22    -0.667838416495E+03   -0.48881E-03    0.14435E-03  8424   0.205E-03 0.167E-03
CGA:  23    -0.667838823053E+03   -0.40656E-03    0.46171E-04  8424   0.208E-03 0.188E-03
CGA:  24    -0.667837619502E+03    0.12036E-02   -0.64961E-03  8424   0.118E-01-0.942E-03
CGA:  25    -0.667839351641E+03   -0.17321E-02   -0.16186E-02  8424   0.109E-02-0.182E-03
CGA:  26    -0.667839769485E+03   -0.41784E-03   -0.38010E-03  8424   0.363E-03-0.170E-03
CGA:  27    -0.667839923058E+03   -0.15357E-03   -0.13066E-03  8424   0.496E-03-0.167E-03
CGA:  28    -0.667840425509E+03   -0.50245E-03    0.11028E-03  8424   0.655E-03-0.135E-03
CGA:  29    -0.667841243746E+03   -0.81824E-03    0.24709E-03  8424   0.122E-02-0.159E-03
CGA:  30    -0.667843487693E+03   -0.22439E-02    0.21847E-03  8424   0.697E-03 0.497E-03
CGA:  31    -0.667844753040E+03   -0.12653E-02    0.17867E-02  8424   0.257E-02-0.747E-03
CGA:  32    -0.667845165424E+03   -0.41238E-03   -0.42559E-03  8424   0.212E-03 0.366E-04
CGA:  33    -0.667844048825E+03    0.11166E-02   -0.37785E-03  8424   0.117E-01-0.123E-02
CGA:  34    -0.667845803392E+03   -0.17546E-02   -0.18117E-02  8424   0.760E-03 0.215E-03
CGA:  35    -0.667846069914E+03   -0.26652E-03   -0.21244E-03  8424   0.227E-03-0.180E-03
CGA:  36    -0.667846346080E+03   -0.27617E-03    0.11796E-03  8424   0.167E-03-0.207E-04
CGA:  37    -0.667846779378E+03   -0.43330E-03    0.27641E-04  8424   0.305E-03-0.614E-05
CGA:  38    -0.667847698657E+03   -0.91928E-03    0.46250E-04  8424   0.289E-03 0.565E-04
CGA:  39    -0.667848930810E+03   -0.12322E-02    0.43716E-04  8424   0.159E-03 0.215E-03
CGA:  40    -0.667849167658E+03   -0.23685E-03    0.13919E-03  8424   0.220E-03-0.583E-04
CGA:  41    -0.667849623534E+03   -0.45588E-03    0.20552E-04  8424   0.318E-03-0.198E-04
CGA:  42    -0.667850523590E+03   -0.90006E-03    0.46081E-04  8424   0.385E-03-0.699E-05
CGA:  43    -0.667851995014E+03   -0.14714E-02    0.42835E-04  8424   0.400E-03 0.143E-03
CGA:  44    -0.667853677198E+03   -0.16822E-02    0.89408E-04  8424   0.631E-03 0.182E-04
CGA:  45    -0.667856717709E+03   -0.30405E-02    0.59862E-04  8424   0.690E-03 0.279E-03
CGA:  46    -0.667860423855E+03   -0.37061E-02    0.12101E-03  8424   0.105E-02-0.203E-03
CGA:  47    -0.667866031292E+03   -0.56074E-02    0.36400E-04  8424   0.211E-02-0.383E-03
CGA:  48    -0.667878598943E+03   -0.12568E-01    0.51258E-04  8424   0.298E-02-0.185E-02
CGA:  49    -0.667879406908E+03   -0.80796E-03   -0.75145E-03  8424   0.890E-03-0.186E-03
CGA:  50    -0.667879536788E+03   -0.12988E-03   -0.20081E-03  8424   0.198E-03 0.232E-03
CGA:  51    -0.667879524568E+03    0.12220E-04   -0.40194E-04  8424   0.115E-03 0.141E-03
CGA:  52    -0.667879522371E+03    0.21961E-05   -0.22676E-04  8424   0.718E-04 0.788E-04
   7 F= -.66787952E+03 E0= -.66787952E+03  d E =0.914419E-01  mag=     6.0000
       N       E                     dE             d eps       ncg     rms          ort
SDA:   1    -0.661795773441E+03    0.60838E+01    0.00000E+00  8424   0.207E+02 0.000E+00
CGA:   2    -0.665861921661E+03   -0.40661E+01   -0.40824E+01  8424   0.798E+01-0.134E-01
CGA:   3    -0.667565161455E+03   -0.17032E+01   -0.17003E+01  8424   0.261E+01 0.100E-01
CGA:   4    -0.668006111455E+03   -0.44095E+00   -0.44122E+00  8424   0.672E+00 0.197E-03
CGA:   5    -0.668122421940E+03   -0.11631E+00   -0.11658E+00  8424   0.138E+00 0.444E-03
CGA:   6    -0.668149870462E+03   -0.27449E-01   -0.27375E-01  8424   0.304E-01-0.315E-03
CGA:   7    -0.668156644947E+03   -0.67745E-02   -0.68466E-02  8424   0.917E-02 0.379E-03
CGA:   8    -0.668158826067E+03   -0.21811E-02   -0.22205E-02  8424   0.266E-02 0.237E-03
CGA:   9    -0.668159584698E+03   -0.75863E-03   -0.75621E-03  8424   0.924E-03-0.218E-04
CGA:  10    -0.668159817019E+03   -0.23232E-03   -0.24890E-03  8424   0.365E-03 0.139E-03
CGA:  11    -0.668159933565E+03   -0.11655E-03   -0.12362E-03  8424   0.157E-03 0.779E-04
CGA:  12    -0.668159954085E+03   -0.20519E-04   -0.38963E-04  8424   0.873E-04 0.104E-03
CGA:  13    -0.668159956471E+03   -0.23863E-05   -0.15225E-04  8424   0.578E-04 0.652E-04
   8 F= -.66815996E+03 E0= -.66815996E+03  d E =-.280434E+00  mag=     6.0000
       N       E                     dE             d eps       ncg     rms          ort
SDA:   1    -0.667266923463E+03    0.89303E+00    0.00000E+00  8424   0.279E+01 0.000E+00
CGA:   2    -0.667843066361E+03   -0.57614E+00   -0.57654E+00  8424   0.114E+01 0.177E-02
CGA:   3    -0.668083395752E+03   -0.24033E+00   -0.24028E+00  8424   0.358E+00-0.315E-03
CGA:   4    -0.668142843801E+03   -0.59448E-01   -0.59468E-01  8424   0.896E-01 0.413E-04
CGA:   5    -0.668158337521E+03   -0.15494E-01   -0.15550E-01  8424   0.181E-01 0.340E-03
CGA:   6    -0.668161886661E+03   -0.35491E-02   -0.35758E-02  8424   0.404E-02 0.211E-03
CGA:   7    -0.668162736746E+03   -0.85008E-03   -0.88059E-03  8424   0.118E-02 0.306E-03
CGA:   8    -0.668162978291E+03   -0.24154E-03   -0.26788E-03  8424   0.351E-03 0.264E-03
CGA:   9    -0.668163030617E+03   -0.52327E-04   -0.76772E-04  8424   0.152E-03 0.193E-03
CGA:  10    -0.668163033726E+03   -0.31089E-05   -0.20902E-04  8424   0.955E-04 0.110E-03
CGA:  11    -0.668163027625E+03    0.61009E-05   -0.10126E-04  8424   0.822E-04 0.878E-04
   9 F= -.66816303E+03 E0= -.66816303E+03  d E =-.307115E-02  mag=     6.0000
       N       E                     dE             d eps       ncg     rms          ort
SDA:   1    -0.663303806394E+03    0.48592E+01    0.00000E+00  8424   0.137E+02 0.000E+00
CGA:   2    -0.666374471027E+03   -0.30707E+01   -0.30725E+01  8424   0.631E+01 0.150E-01
CGA:   3    -0.667672464889E+03   -0.12980E+01   -0.12974E+01  8424   0.176E+01-0.340E-02
CGA:   4    -0.667958722558E+03   -0.28626E+00   -0.28631E+00  8424   0.420E+00-0.253E-03
CGA:   5    -0.668030858649E+03   -0.72136E-01   -0.72221E-01  8424   0.849E-01 0.725E-03
CGA:   6    -0.668048054529E+03   -0.17196E-01   -0.17212E-01  8424   0.202E-01 0.288E-03
CGA:   7    -0.668052571532E+03   -0.45170E-02   -0.45310E-02  8424   0.596E-02 0.458E-03
CGA:   8    -0.668054029075E+03   -0.14575E-02   -0.14611E-02  8424   0.184E-02 0.284E-03
CGA:   9    -0.668054549015E+03   -0.51994E-03   -0.51727E-03  8424   0.670E-03 0.154E-03
CGA:  10    -0.668054731466E+03   -0.18245E-03   -0.18269E-03  8424   0.280E-03 0.211E-03
CGA:  11    -0.668054790551E+03   -0.59085E-04   -0.70490E-04  8424   0.133E-03 0.187E-03
CGA:  12    -0.668054801681E+03   -0.11130E-04   -0.20511E-04  8424   0.854E-04 0.985E-04
CGA:  13    -0.668054802663E+03   -0.98160E-06   -0.10575E-04  8424   0.742E-04 0.792E-04
  10 F= -.66805480E+03 E0= -.66805480E+03  d E =0.108225E+00  mag=     6.0000
       N       E                     dE             d eps       ncg     rms          ort
SDA:   1    -0.633253588946E+03    0.34801E+02    0.00000E+00  8424   0.117E+03 0.000E+00
CGA:   2    -0.655048017737E+03   -0.21794E+02   -0.21879E+02  8424   0.429E+02 0.587E+00
CGA:   3    -0.664489838114E+03   -0.94418E+01   -0.94395E+01  8424   0.143E+02-0.104E+00
CGA:   4    -0.666918561338E+03   -0.24287E+01   -0.24301E+01  8424   0.365E+01 0.571E-02
CGA:   5    -0.667538988816E+03   -0.62043E+00   -0.62110E+00  8424   0.756E+00 0.690E-02
CGA:   6    -0.667691332277E+03   -0.15234E+00   -0.15230E+00  8424   0.170E+00-0.209E-02
CGA:   7    -0.667729959599E+03   -0.38627E-01   -0.38619E-01  8424   0.519E-01 0.139E-02
CGA:   8    -0.667742661404E+03   -0.12702E-01   -0.12689E-01  8424   0.156E-01 0.654E-03
CGA:   9    -0.667747143811E+03   -0.44824E-02   -0.45414E-02  8424   0.582E-02-0.918E-03
CGA:  10    -0.667748715441E+03   -0.15716E-02   -0.15566E-02  8424   0.222E-02 0.260E-03
CGA:  11    -0.667749527069E+03   -0.81163E-03   -0.91370E-03  8424   0.134E-02-0.627E-03
CGA:  12    -0.667749808471E+03   -0.28140E-03   -0.29319E-03  8424   0.643E-03-0.181E-03
CGA:  13    -0.667750082683E+03   -0.27421E-03    0.31267E-02  8424   0.289E-03 0.122E-03
CGA:  14    -0.667750303807E+03   -0.22112E-03    0.12543E-03  8424   0.173E-03 0.124E-03
CGA:  15    -0.667750485882E+03   -0.18208E-03    0.57306E-04  8424   0.135E-03 0.114E-03
CGA:  16    -0.667750591727E+03   -0.10585E-03    0.25826E-04  8424   0.783E-04 0.697E-04
CGA:  17    -0.667750667452E+03   -0.75725E-04    0.94384E-05  8424   0.708E-04 0.556E-04
CGA:  18    -0.667750758651E+03   -0.91198E-04    0.51331E-05  8424   0.698E-04 0.476E-04
CGA:  19    -0.667750825094E+03   -0.66444E-04    0.86613E-05  8424   0.732E-04 0.395E-04
CGA:  20    -0.667750918743E+03   -0.93649E-04    0.53466E-05  8424   0.807E-04 0.296E-04
CGA:  21    -0.667751081866E+03   -0.16312E-03    0.69108E-05  8424   0.656E-04 0.108E-03
CGA:  22    -0.667751143391E+03   -0.61525E-04    0.84023E-05  8424   0.747E-04 0.270E-04
CGA:  23    -0.667751310654E+03   -0.16726E-03    0.55622E-05  8424   0.622E-04 0.103E-03
CGA:  24    -0.667751398860E+03   -0.88207E-04    0.38696E-05  8424   0.704E-04 0.258E-04
CGA:  25    -0.667751560157E+03   -0.16130E-03    0.51104E-05  8424   0.595E-04 0.974E-04
CGA:  26    -0.667751622070E+03   -0.61913E-04    0.62320E-05  8424   0.676E-04 0.247E-04
CGA:  27    -0.667751784873E+03   -0.16280E-03    0.45673E-05  8424   0.575E-04 0.934E-04
CGA:  28    -0.667751870299E+03   -0.85425E-04    0.33435E-05  8424   0.635E-04 0.245E-04
CGA:  29    -0.667752026503E+03   -0.15620E-03    0.42443E-05  8424   0.555E-04 0.883E-04
CGA:  30    -0.667752089164E+03   -0.62660E-04    0.49967E-05  8424   0.588E-04 0.249E-04
CGA:  31    -0.667752242164E+03   -0.15300E-03    0.37826E-05  8424   0.534E-04 0.829E-04
CGA:  32    -0.667752324840E+03   -0.82676E-04    0.29238E-05  8424   0.525E-04 0.265E-04
CGA:  33    -0.667752468933E+03   -0.14409E-03    0.33932E-05  8424   0.511E-04 0.762E-04
CGA:  34    -0.667752533900E+03   -0.64966E-04    0.37792E-05  8424   0.464E-04 0.287E-04
CGA:  35    -0.667752613393E+03   -0.79493E-04    0.21981E-05  8424   0.451E-04 0.305E-04
CGA:  36    -0.667752678142E+03   -0.64749E-04    0.27555E-05  8424   0.454E-04 0.302E-04
CGA:  37    -0.667752756849E+03   -0.78707E-04    0.21167E-05  8424   0.468E-04 0.286E-04
CGA:  38    -0.667752820224E+03   -0.63375E-04    0.31351E-05  8424   0.495E-04 0.259E-04
CGA:  39    -0.667752899684E+03   -0.79460E-04    0.25698E-05  8424   0.539E-04 0.218E-04
CGA:  40    -0.667753048572E+03   -0.14889E-03    0.31563E-05  8424   0.480E-04 0.767E-04
CGA:  41    -0.667753109621E+03   -0.61049E-04    0.35520E-05  8424   0.530E-04 0.211E-04
CGA:  42    -0.667753259528E+03   -0.14991E-03    0.29964E-05  8424   0.466E-04 0.752E-04
CGA:  43    -0.667753337920E+03   -0.78392E-04    0.22655E-05  8424   0.519E-04 0.204E-04
CGA:  44    -0.667753485283E+03   -0.14736E-03    0.29179E-05  8424   0.453E-04 0.736E-04
CGA:  45    -0.667753544961E+03   -0.59678E-04    0.31584E-05  8424   0.505E-04 0.200E-04
CGA:  46    -0.667753693128E+03   -0.14817E-03    0.27299E-05  8424   0.440E-04 0.716E-04
CGA:  47    -0.667753769883E+03   -0.76755E-04    0.20293E-05  8424   0.485E-04 0.198E-04
CGA:  48    -0.667753913492E+03   -0.14361E-03    0.26353E-05  8424   0.427E-04 0.692E-04
CGA:  49    -0.667753972890E+03   -0.59398E-04    0.27334E-05  8424   0.461E-04 0.200E-04
CGA:  50    -0.667754115688E+03   -0.14280E-03    0.24219E-05  8424   0.413E-04 0.664E-04
CGA:  51    -0.667754190074E+03   -0.74387E-04    0.18310E-05  8424   0.428E-04 0.206E-04
CGA:  52    -0.667754326079E+03   -0.13600E-03    0.22855E-05  8424   0.400E-04 0.629E-04
CGA:  53    -0.667754386671E+03   -0.60592E-04    0.22582E-05  8424   0.392E-04 0.216E-04
CGA:  54    -0.667754459899E+03   -0.73228E-04    0.16488E-05  8424   0.398E-04 0.212E-04
CGA:  55    -0.667754518237E+03   -0.58338E-04    0.23556E-05  8424   0.415E-04 0.195E-04
CGA:  56    -0.667754654459E+03   -0.13622E-03    0.20954E-05  8424   0.385E-04 0.610E-04
CGA:  57    -0.667754727144E+03   -0.72685E-04    0.16017E-05  8424   0.396E-04 0.197E-04
CGA:  58    -0.667754784237E+03   -0.57093E-04    0.24035E-05  8424   0.418E-04 0.176E-04
CGA:  59    -0.667754919692E+03   -0.13546E-03    0.19950E-05  8424   0.386E-04 0.596E-04
CGA:  60    -0.667754992027E+03   -0.72335E-04    0.16192E-05  8424   0.402E-04 0.175E-04
CGA:  61    -0.667755123757E+03   -0.13173E-03    0.19213E-05  8424   0.375E-04 0.576E-04
CGA:  62    -0.667755180864E+03   -0.57107E-04    0.21063E-05  8424   0.384E-04 0.176E-04
CGA:  63    -0.667755311636E+03   -0.13077E-03    0.17923E-05  8424   0.365E-04 0.555E-04
CGA:  64    -0.667755381566E+03   -0.69930E-04    0.14839E-05  8424   0.359E-04 0.182E-04
CGA:  65    -0.667755507021E+03   -0.12546E-03    0.16941E-05  8424   0.353E-04 0.528E-04
CGA:  66    -0.667755565174E+03   -0.58154E-04    0.17699E-05  8424   0.332E-04 0.189E-04
CGA:  67    -0.667755633509E+03   -0.68334E-04    0.12323E-05  8424   0.325E-04 0.198E-04
CGA:  68    -0.667755690469E+03   -0.56960E-04    0.14952E-05  8424   0.325E-04 0.197E-04
CGA:  69    -0.667755759101E+03   -0.68632E-04    0.11642E-05  8424   0.330E-04 0.191E-04
CGA:  70    -0.667755814565E+03   -0.55464E-04    0.16017E-05  8424   0.339E-04 0.181E-04
CGA:  71    -0.667755884099E+03   -0.69534E-04    0.12609E-05  8424   0.355E-04 0.165E-04
CGA:  72    -0.667756010922E+03   -0.12682E-03    0.15955E-05  8424   0.330E-04 0.522E-04
CGA:  73    -0.667756065072E+03   -0.54150E-04    0.16576E-05  8424   0.347E-04 0.162E-04
CGA:  74    -0.667756192603E+03   -0.12753E-03    0.15239E-05  8424   0.320E-04 0.513E-04
CGA:  75    -0.667756260255E+03   -0.67652E-04    0.11449E-05  8424   0.338E-04 0.160E-04
CGA:  76    -0.667756385204E+03   -0.12495E-03    0.14930E-05  8424   0.311E-04 0.502E-04
CGA:  77    -0.667756439212E+03   -0.54007E-04    0.14435E-05  8424   0.327E-04 0.159E-04
CGA:  78    -0.667756506690E+03   -0.67478E-04    0.12095E-05  8424   0.351E-04 0.135E-04
CGA:  79    -0.667756631048E+03   -0.12436E-03    0.14306E-05  8424   0.322E-04 0.491E-04
CGA:  80    -0.667756683487E+03   -0.52439E-04    0.16404E-05  8424   0.343E-04 0.131E-04
CGA:  81    -0.667756807836E+03   -0.12435E-03    0.13445E-05  8424   0.317E-04 0.478E-04
CGA:  82    -0.667756873210E+03   -0.65374E-04    0.11681E-05  8424   0.335E-04 0.127E-04
CGA:  83    -0.667756994137E+03   -0.12093E-03    0.13062E-05  8424   0.312E-04 0.464E-04
CGA:  84    -0.667757046747E+03   -0.52610E-04    0.15107E-05  8424   0.324E-04 0.125E-04
CGA:  85    -0.667757167051E+03   -0.12030E-03    0.12185E-05  8424   0.307E-04 0.449E-04
CGA:  86    -0.667757229983E+03   -0.62932E-04    0.11388E-05  8424   0.312E-04 0.123E-04
CGA:  87    -0.667757346091E+03   -0.11611E-03    0.11711E-05  8424   0.300E-04 0.432E-04
CGA:  88    -0.667757399370E+03   -0.53280E-04    0.13558E-05  8424   0.297E-04 0.124E-04
CGA:  89    -0.667757514098E+03   -0.11473E-03    0.10841E-05  8424   0.292E-04 0.414E-04
CGA:  90    -0.667757574335E+03   -0.60237E-04    0.10812E-05  8424   0.279E-04 0.128E-04
CGA:  91    -0.667757684497E+03   -0.11016E-03    0.10333E-05  8424   0.283E-04 0.395E-04
CGA:  92    -0.667757738688E+03   -0.54191E-04    0.11509E-05  8424   0.261E-04 0.133E-04
CGA:  93    -0.667757847171E+03   -0.10848E-03    0.95419E-06  8424   0.272E-04 0.377E-04
CGA:  94    -0.667757904755E+03   -0.57584E-04    0.97184E-06  8424   0.243E-04 0.139E-04
CGA:  95    -0.667757958446E+03   -0.53691E-04    0.82328E-06  8424   0.228E-04 0.157E-04
CGA:  96    -0.667758016213E+03   -0.57768E-04    0.64534E-06  8424   0.218E-04 0.166E-04
CGA:  97    -0.667758068841E+03   -0.52627E-04    0.65712E-06  8424   0.212E-04 0.171E-04
CGA:  98    -0.667758126677E+03   -0.57836E-04    0.54857E-06  8424   0.208E-04 0.173E-04
CGA:  99    -0.667758178468E+03   -0.51791E-04    0.60228E-06  8424   0.205E-04 0.173E-04
CGA: 100    -0.667758236534E+03   -0.58066E-04    0.51078E-06  8424   0.204E-04 0.172E-04
CGA: 101    -0.667758287190E+03   -0.50656E-04    0.59687E-06  8424   0.205E-04 0.170E-04
CGA: 102    -0.667758345894E+03   -0.58704E-04    0.49987E-06  8424   0.206E-04 0.166E-04
CGA: 103    -0.667758394868E+03   -0.48974E-04    0.63584E-06  8424   0.210E-04 0.161E-04
CGA: 104    -0.667758454789E+03   -0.59921E-04    0.51551E-06  8424   0.216E-04 0.153E-04
CGA: 105    -0.667758501332E+03   -0.46542E-04    0.75216E-06  8424   0.226E-04 0.143E-04
CGA: 106    -0.667758563231E+03   -0.61899E-04    0.58167E-06  8424   0.241E-04 0.128E-04
CGA: 107    -0.667758606303E+03   -0.43072E-04    0.10724E-05  8424   0.264E-04 0.106E-04
CGA: 108    -0.667758719449E+03   -0.11315E-03    0.88822E-06  8424   0.235E-04 0.376E-04
CGA: 109    -0.667758781824E+03   -0.62375E-04    0.62911E-06  8424   0.257E-04 0.104E-04
CGA: 110    -0.667758891827E+03   -0.11000E-03    0.87302E-06  8424   0.229E-04 0.367E-04
CGA: 111    -0.667758934188E+03   -0.42361E-04    0.97146E-06  8424   0.253E-04 0.101E-04
CGA: 112    -0.667759045294E+03   -0.11111E-03    0.82529E-06  8424   0.223E-04 0.359E-04
CGA: 113    -0.667759106029E+03   -0.60735E-04    0.57853E-06  8424   0.246E-04 0.987E-05
CGA: 114    -0.667759213872E+03   -0.10784E-03    0.80724E-06  8424   0.217E-04 0.350E-04
CGA: 115    -0.667759255496E+03   -0.41624E-04    0.87921E-06  8424   0.239E-04 0.965E-05
CGA: 116    -0.667759363916E+03   -0.10842E-03    0.75967E-06  8424   0.211E-04 0.341E-04
CGA: 117    -0.667759422996E+03   -0.59079E-04    0.53129E-06  8424   0.232E-04 0.949E-05
CGA: 118    -0.667759528069E+03   -0.10507E-03    0.73933E-06  8424   0.205E-04 0.331E-04
CGA: 119    -0.667759569084E+03   -0.41015E-04    0.78945E-06  8424   0.224E-04 0.935E-05
CGA: 120    -0.667759674243E+03   -0.10516E-03    0.69319E-06  8424   0.199E-04 0.322E-04
CGA: 121    -0.667759731525E+03   -0.57282E-04    0.48657E-06  8424   0.215E-04 0.929E-05
CGA: 122    -0.667759833196E+03   -0.10167E-03    0.67082E-06  8424   0.193E-04 0.311E-04
CGA: 123    -0.667759873880E+03   -0.40684E-04    0.69502E-06  8424   0.206E-04 0.929E-05
CGA: 124    -0.667759975065E+03   -0.10118E-03    0.62605E-06  8424   0.187E-04 0.300E-04
CGA: 125    -0.667760030268E+03   -0.55203E-04    0.44115E-06  8424   0.195E-04 0.942E-05
CGA: 126    -0.667760069693E+03   -0.39425E-04    0.73787E-06  8424   0.208E-04 0.806E-05
CGA: 127    -0.667760169372E+03   -0.99678E-04    0.59090E-06  8424   0.191E-04 0.291E-04
CGA: 128    -0.667760224501E+03   -0.55130E-04    0.46499E-06  8424   0.201E-04 0.786E-05
CGA: 129    -0.667760320864E+03   -0.96363E-04    0.56899E-06  8424   0.187E-04 0.281E-04
CGA: 130    -0.667760359770E+03   -0.38906E-04    0.68447E-06  8424   0.195E-04 0.766E-05
CGA: 131    -0.667760455585E+03   -0.95815E-04    0.53245E-06  8424   0.183E-04 0.271E-04
CGA: 132    -0.667760508823E+03   -0.53238E-04    0.44087E-06  8424   0.187E-04 0.758E-05
CGA: 133    -0.667760601208E+03   -0.92385E-04    0.51042E-06  8424   0.178E-04 0.260E-04
CGA: 134    -0.667760640063E+03   -0.38855E-04    0.61346E-06  8424   0.178E-04 0.760E-05
CGA: 135    -0.667760731391E+03   -0.91328E-04    0.47503E-06  8424   0.173E-04 0.250E-04
CGA: 136    -0.667760782330E+03   -0.50939E-04    0.40882E-06  8424   0.168E-04 0.776E-05
CGA: 137    -0.667760870191E+03   -0.87861E-04    0.45365E-06  8424   0.166E-04 0.239E-04
CGA: 138    -0.667760909466E+03   -0.39275E-04    0.51603E-06  8424   0.158E-04 0.802E-05
CGA: 139    -0.667760996077E+03   -0.86611E-04    0.42187E-06  8424   0.159E-04 0.229E-04
CGA: 140    -0.667761044411E+03   -0.48334E-04    0.36355E-06  8424   0.147E-04 0.833E-05
CGA: 141    -0.667761083580E+03   -0.39169E-04    0.39451E-06  8424   0.141E-04 0.886E-05
CGA: 142    -0.667761131605E+03   -0.48025E-04    0.28225E-06  8424   0.137E-04 0.919E-05
CGA: 143    -0.667761170264E+03   -0.38659E-04    0.33924E-06  8424   0.133E-04 0.940E-05
CGA: 144    -0.667761218008E+03   -0.47743E-04    0.24978E-06  8424   0.130E-04 0.951E-05
CGA: 145    -0.667761256168E+03   -0.38160E-04    0.31138E-06  8424   0.129E-04 0.953E-05
CGA: 146    -0.667761303777E+03   -0.47609E-04    0.23340E-06  8424   0.128E-04 0.948E-05
CGA: 147    -0.667761341207E+03   -0.37431E-04    0.30453E-06  8424   0.128E-04 0.934E-05
CGA: 148    -0.667761388983E+03   -0.47776E-04    0.22831E-06  8424   0.128E-04 0.913E-05
CGA: 149    -0.667761425319E+03   -0.36336E-04    0.31876E-06  8424   0.130E-04 0.882E-05
CGA: 150    -0.667761473656E+03   -0.48337E-04    0.23472E-06  8424   0.133E-04 0.841E-05
CGA: 151    -0.667761508427E+03   -0.34771E-04    0.36461E-06  8424   0.138E-04 0.784E-05
CGA: 152    -0.667761557814E+03   -0.49387E-04    0.25939E-06  8424   0.145E-04 0.708E-05
CGA: 153    -0.667761590412E+03   -0.32598E-04    0.47815E-06  8424   0.155E-04 0.605E-05
CGA: 154    -0.667761676880E+03   -0.86469E-04    0.37182E-06  8424   0.142E-04 0.218E-04
CGA: 155    -0.667761726428E+03   -0.49548E-04    0.27429E-06  8424   0.152E-04 0.580E-05
CGA: 156    -0.667761810823E+03   -0.84395E-04    0.36345E-06  8424   0.139E-04 0.212E-04
CGA: 157    -0.667761842280E+03   -0.31457E-04    0.45278E-06  8424   0.151E-04 0.551E-05
CGA: 158    -0.667761927075E+03   -0.84794E-04    0.34556E-06  8424   0.136E-04 0.208E-04
CGA: 159    -0.667761975548E+03   -0.48473E-04    0.25851E-06  8424   0.148E-04 0.523E-05
CGA: 160    -0.667762058059E+03   -0.82511E-04    0.33703E-06  8424   0.134E-04 0.203E-04
CGA: 161    -0.667762088309E+03   -0.30250E-04    0.44220E-06  8424   0.146E-04 0.490E-05
CGA: 162    -0.667762170960E+03   -0.82651E-04    0.31887E-06  8424   0.133E-04 0.198E-04
CGA: 163    -0.667762218482E+03   -0.47522E-04    0.25090E-06  8424   0.145E-04 0.454E-05
CGA: 164    -0.667762298804E+03   -0.80322E-04    0.31010E-06  8424   0.132E-04 0.192E-04
CGA: 165    -0.667762327778E+03   -0.28974E-04    0.45188E-06  8424   0.144E-04 0.414E-05
CGA: 166    -0.667762407963E+03   -0.80185E-04    0.29268E-06  8424   0.133E-04 0.187E-04
CGA: 167    -0.667762454661E+03   -0.46698E-04    0.25391E-06  8424   0.143E-04 0.369E-05
CGA: 168    -0.667762532512E+03   -0.77851E-04    0.28358E-06  8424   0.133E-04 0.181E-04
CGA: 169    -0.667762560175E+03   -0.27663E-04    0.48804E-06  8424   0.143E-04 0.320E-05
CGA: 170    -0.667762637557E+03   -0.77382E-04    0.26711E-06  8424   0.135E-04 0.175E-04
CGA: 171    -0.667762683473E+03   -0.45916E-04    0.26845E-06  8424   0.143E-04 0.270E-05
CGA: 172    -0.667762758402E+03   -0.74929E-04    0.25781E-06  8424   0.136E-04 0.169E-04
CGA: 173    -0.667762784956E+03   -0.26554E-04    0.54012E-06  8424   0.142E-04 0.226E-05
CGA: 174    -0.667762859070E+03   -0.74114E-04    0.24206E-06  8424   0.137E-04 0.163E-04
CGA: 175    -0.667762903893E+03   -0.44824E-04    0.28450E-06  8424   0.140E-04 0.196E-05
CGA: 176    -0.667762975196E+03   -0.71302E-04    0.23338E-06  8424   0.135E-04 0.157E-04
CGA: 177    -0.667763001397E+03   -0.26202E-04    0.54046E-06  8424   0.134E-04 0.193E-05
CGA: 178    -0.667763071726E+03   -0.70329E-04    0.21796E-06  8424   0.131E-04 0.150E-04
CGA: 179    -0.667763114567E+03   -0.42841E-04    0.27255E-06  8424   0.126E-04 0.222E-05
CGA: 180    -0.667763181733E+03   -0.67166E-04    0.21047E-06  8424   0.123E-04 0.144E-04
CGA: 181    -0.667763208742E+03   -0.27009E-04    0.42223E-06  8424   0.115E-04 0.279E-05
CGA: 182    -0.667763275101E+03   -0.66359E-04    0.19544E-06  8424   0.115E-04 0.138E-04
CGA: 183    -0.667763315014E+03   -0.39914E-04    0.22239E-06  8424   0.104E-04 0.349E-05
CGA: 184    -0.667763378543E+03   -0.63529E-04    0.18879E-06  8424   0.106E-04 0.132E-04
CGA: 185    -0.667763406890E+03   -0.28346E-04    0.27942E-06  8424   0.942E-05 0.413E-05
CGA: 186    -0.667763469929E+03   -0.63039E-04    0.17664E-06  8424   0.977E-05 0.127E-04
CGA: 187    -0.667763506908E+03   -0.36979E-04    0.17259E-06  8424   0.864E-05 0.461E-05
CGA: 188    -0.667763568051E+03   -0.61143E-04    0.17151E-06  8424   0.915E-05 0.124E-04
CGA: 189    -0.667763597255E+03   -0.29203E-04    0.19684E-06  8424   0.806E-05 0.492E-05
CGA: 190    -0.667763632642E+03   -0.35387E-04    0.12023E-06  8424   0.756E-05 0.545E-05
CGA: 191    -0.667763661700E+03   -0.29059E-04    0.13128E-06  8424   0.724E-05 0.576E-05
CGA: 192    -0.667763696482E+03   -0.34782E-04    0.97644E-07  8424   0.703E-05 0.592E-05
CGA: 193    -0.667763725528E+03   -0.29046E-04    0.11216E-06  8424   0.688E-05 0.601E-05
CGA: 194    -0.667763759886E+03   -0.34357E-04    0.88991E-07  8424   0.679E-05 0.603E-05
CGA: 195    -0.667763788677E+03   -0.28791E-04    0.10536E-06  8424   0.673E-05 0.602E-05
CGA: 196    -0.667763822920E+03   -0.34244E-04    0.85270E-07  8424   0.671E-05 0.597E-05
CGA: 197    -0.667763851117E+03   -0.28197E-04    0.10507E-06  8424   0.671E-05 0.589E-05
CGA: 198    -0.667763885585E+03   -0.34468E-04    0.84085E-07  8424   0.675E-05 0.578E-05
CGA: 199    -0.667763912822E+03   -0.27237E-04    0.11084E-06  8424   0.684E-05 0.563E-05
CGA: 200    -0.667763947877E+03   -0.35054E-04    0.85861E-07  8424   0.699E-05 0.543E-05
  11 F= -.66776395E+03 E0= -.66776395E+03  d E =0.290855E+00  mag=     6.0000
       N       E                     dE             d eps       ncg     rms          ort
SDA:   1    -0.661948213349E+03    0.58157E+01    0.00000E+00  8424   0.201E+02 0.000E+00
CGA:   2    -0.665929250984E+03   -0.39810E+01   -0.39842E+01  8424   0.784E+01 0.317E-01
CGA:   3    -0.667605332448E+03   -0.16761E+01   -0.16757E+01  8424   0.256E+01-0.843E-02
CGA:   4    -0.668034856769E+03   -0.42952E+00   -0.42963E+00  8424   0.651E+00 0.184E-03
CGA:   5    -0.668147430359E+03   -0.11257E+00   -0.11267E+00  8424   0.133E+00 0.125E-02
CGA:   6    -0.668173979004E+03   -0.26549E-01   -0.26529E-01  8424   0.297E-01-0.635E-03
CGA:   7    -0.668180546738E+03   -0.65677E-02   -0.65730E-02  8424   0.873E-02 0.732E-03
CGA:   8    -0.668182642574E+03   -0.20958E-02   -0.20935E-02  8424   0.245E-02 0.501E-03
CGA:   9    -0.668183346512E+03   -0.70394E-03   -0.69993E-03  8424   0.843E-03 0.986E-04
CGA:  10    -0.668183534718E+03   -0.18821E-03   -0.19190E-03  8424   0.319E-03 0.289E-03
CGA:  11    -0.668183607956E+03   -0.73238E-04   -0.81523E-04  8424   0.150E-03 0.202E-03
CGA:  12    -0.668183625549E+03   -0.17593E-04   -0.24368E-04  8424   0.885E-04 0.102E-03
CGA:  13    -0.668183622829E+03    0.27202E-05   -0.82666E-05  8424   0.783E-04 0.829E-04
  12 F= -.66818362E+03 E0= -.66818362E+03  d E =-.419675E+00  mag=     6.0000
       N       E                     dE             d eps       ncg     rms          ort
SDA:   1    -0.664935242886E+03    0.32484E+01    0.00000E+00  8424   0.102E+02 0.000E+00
CGA:   2    -0.667031050385E+03   -0.20958E+01   -0.20960E+01  8424   0.422E+01 0.176E-01
CGA:   3    -0.667927630286E+03   -0.89658E+00   -0.89658E+00  8424   0.134E+01-0.531E-02
CGA:   4    -0.668148620432E+03   -0.22099E+00   -0.22101E+00  8424   0.327E+00-0.748E-04
CGA:   5    -0.668204924217E+03   -0.56304E-01   -0.56341E-01  8424   0.660E-01 0.856E-03
CGA:   6    -0.668218172029E+03   -0.13248E-01   -0.13246E-01  8424   0.152E-01-0.243E-03
CGA:   7    -0.668221551243E+03   -0.33792E-02   -0.33737E-02  8424   0.447E-02 0.342E-03
CGA:   8    -0.668222648946E+03   -0.10977E-02   -0.10926E-02  8424   0.133E-02 0.166E-03
CGA:   9    -0.668223060197E+03   -0.41125E-03   -0.41914E-03  8424   0.587E-03-0.853E-04
CGA:  10    -0.668223217453E+03   -0.15726E-03   -0.15146E-03  8424   0.259E-03 0.928E-04
CGA:  11    -0.668223323445E+03   -0.10599E-03   -0.10123E-03  8424   0.155E-03 0.376E-04
CGA:  12    -0.668223372230E+03   -0.48785E-04   -0.45654E-04  8424   0.107E-03 0.897E-04
CGA:  13    -0.668223401051E+03   -0.28821E-04   -0.27091E-04  8424   0.635E-04 0.637E-04
CGA:  14    -0.668223430945E+03   -0.29894E-04   -0.22702E-04  8424   0.585E-04 0.542E-04
CGA:  15    -0.668223440218E+03   -0.92735E-05   -0.11375E-04  8424   0.545E-04 0.538E-04
CGA:  16    -0.668223472564E+03   -0.32345E-04   -0.22596E-04  8424   0.547E-04 0.523E-04
CGA:  17    -0.668223476981E+03   -0.44167E-05   -0.86624E-05  8424   0.525E-04 0.513E-04
CGA:  18    -0.668223515908E+03   -0.38927E-04   -0.25877E-04  8424   0.570E-04 0.499E-04
CGA:  19    -0.668223516835E+03   -0.92734E-06   -0.71168E-05  8424   0.510E-04 0.496E-04
CGA:  20    -0.668223554602E+03   -0.37767E-04   -0.25179E-04  8424   0.545E-04 0.492E-04
CGA:  21    -0.668223556850E+03   -0.22475E-05   -0.77175E-05  8424   0.507E-04 0.478E-04
CGA:  22    -0.668223644662E+03   -0.87812E-04   -0.53928E-04  8424   0.145E-03 0.394E-04
CGA:  23    -0.668223640805E+03    0.38573E-05   -0.10996E-04  8424   0.528E-04 0.690E-04
  13 F= -.66822364E+03 E0= -.66822364E+03  d E =-.400180E-01  mag=     6.0000
       N       E                     dE             d eps       ncg     rms          ort
SDA:   1    -0.666226426834E+03    0.19972E+01    0.00000E+00  8424   0.513E+01 0.000E+00
CGA:   2    -0.667537596298E+03   -0.13112E+01   -0.13112E+01  8424   0.270E+01 0.143E-02
CGA:   3    -0.668057202628E+03   -0.51961E+00   -0.51951E+00  8424   0.642E+00-0.875E-03
CGA:   4    -0.668158681925E+03   -0.10148E+00   -0.10149E+00  8424   0.146E+00 0.414E-04
CGA:   5    -0.668183925608E+03   -0.25244E-01   -0.25271E-01  8424   0.304E-01 0.273E-03
CGA:   6    -0.668190177154E+03   -0.62515E-02   -0.62553E-02  8424   0.735E-02 0.690E-04
CGA:   7    -0.668191812014E+03   -0.16349E-02   -0.16371E-02  8424   0.215E-02 0.714E-04
CGA:   8    -0.668192348309E+03   -0.53629E-03   -0.53647E-03  8424   0.735E-03 0.420E-04
CGA:   9    -0.668192578347E+03   -0.23004E-03   -0.23095E-03  8424   0.346E-03-0.173E-04
CGA:  10    -0.668192700098E+03   -0.12175E-03   -0.12080E-03  8424   0.202E-03 0.730E-05
CGA:  11    -0.668192777769E+03   -0.77670E-04   -0.75730E-04  8424   0.133E-03 0.152E-04
CGA:  12    -0.668192857400E+03   -0.79631E-04   -0.72549E-04  8424   0.163E-03 0.243E-04
CGA:  13    -0.668193077694E+03   -0.22029E-03   -0.24942E-03  8424   0.964E-03-0.635E-04
CGA:  14    -0.668193502412E+03   -0.42472E-03    0.94485E-03  8424   0.171E-02-0.585E-04
CGA:  15    -0.668195043307E+03   -0.15409E-02    0.56251E-03  8424   0.213E-02 0.126E-04
CGA:  16    -0.668197933712E+03   -0.28904E-02    0.33341E-03  8424   0.198E-02-0.412E-03
CGA:  17    -0.668201180786E+03   -0.32471E-02    0.12415E-03  8424   0.138E-02-0.125E-02
CGA:  18    -0.668201616413E+03   -0.43563E-03   -0.43749E-03  8424   0.694E-03 0.166E-03
CGA:  19    -0.668201848509E+03   -0.23210E-03   -0.23375E-03  8424   0.472E-03 0.615E-04
CGA:  20    -0.668202050291E+03   -0.20178E-03   -0.19226E-03  8424   0.231E-03 0.194E-03
CGA:  21    -0.668202212404E+03   -0.16211E-03   -0.15176E-03  8424   0.177E-03 0.713E-04
CGA:  22    -0.668202319463E+03   -0.10706E-03   -0.11024E-03  8424   0.270E-03-0.273E-04
CGA:  23    -0.668202407529E+03   -0.88066E-04   -0.91787E-04  8424   0.219E-03-0.745E-04
CGA:  24    -0.668200574395E+03    0.18331E-02   -0.99323E-03  8424   0.812E-02-0.122E-02
CGA:  25    -0.668202101104E+03   -0.15267E-02   -0.15503E-02  8424   0.875E-03 0.488E-04
CGA:  26    -0.668202665867E+03   -0.56476E-03   -0.57654E-03  8424   0.124E-02-0.250E-03
CGA:  27    -0.668203009314E+03   -0.34345E-03   -0.30774E-03  8424   0.894E-03-0.144E-03
CGA:  28    -0.668203490407E+03   -0.48109E-03   -0.48535E-03  8424   0.829E-03-0.255E-03
CGA:  29    -0.668203761769E+03   -0.27136E-03   -0.19423E-03  8424   0.388E-03-0.292E-03
CGA:  30    -0.668203859573E+03   -0.97805E-04   -0.80544E-04  8424   0.188E-03-0.668E-04
CGA:  31    -0.668203909490E+03   -0.49917E-04   -0.47274E-04  8424   0.100E-03-0.104E-04
CGA:  32    -0.668203959544E+03   -0.50054E-04   -0.79127E-04  8424   0.300E-03-0.106E-03
CGA:  33    -0.668204001109E+03   -0.41565E-04   -0.58047E-04  8424   0.605E-04 0.434E-04
CGA:  34    -0.668204042102E+03   -0.40993E-04   -0.51884E-04  8424   0.111E-03-0.555E-04
CGA:  35    -0.668204084132E+03   -0.42031E-04   -0.38240E-04  8424   0.319E-04-0.176E-04
CGA:  36    -0.668204048919E+03    0.35213E-04   -0.37937E-04  8424   0.522E-03-0.850E-04
CGA:  37    -0.668204166593E+03   -0.11767E-03   -0.99868E-04  8424   0.574E-04-0.441E-04
CGA:  38    -0.668204191022E+03   -0.24429E-04   -0.21172E-04  8424   0.325E-04-0.190E-04
CGA:  39    -0.668204224752E+03   -0.33730E-04    0.16576E-04  8424   0.803E-04-0.326E-04
CGA:  40    -0.668204243256E+03   -0.18504E-04   -0.14358E-04  8424   0.152E-04-0.108E-04
CGA:  41    -0.668204267762E+03   -0.24506E-04    0.51538E-05  8424   0.168E-04-0.694E-05
CGA:  42    -0.668204318929E+03   -0.51167E-04    0.60900E-06  8424   0.350E-04-0.119E-04
CGA:  43    -0.668204327191E+03   -0.82621E-05   -0.70338E-05  8424   0.126E-04-0.353E-05
  14 F= -.66820433E+03 E0= -.66820433E+03  d E =0.193136E-01  mag=     6.0000
       N       E                     dE             d eps       ncg     rms          ort
SDA:   1    -0.641737312252E+03    0.26467E+02    0.00000E+00  8424   0.796E+02 0.000E+00
CGA:   2    -0.658411627934E+03   -0.16674E+02   -0.16931E+02  8424   0.348E+02-0.412E+00
CGA:   3    -0.665723654588E+03   -0.73120E+01   -0.72740E+01  8424   0.100E+02 0.268E+00
CGA:   4    -0.667400144565E+03   -0.16765E+01   -0.16799E+01  8424   0.239E+01 0.207E-01
CGA:   5    -0.667810360535E+03   -0.41022E+00   -0.41150E+00  8424   0.501E+00 0.735E-03
CGA:   6    -0.667911593426E+03   -0.10123E+00   -0.10107E+00  8424   0.117E+00-0.337E-03
CGA:   7    -0.667938392479E+03   -0.26799E-01   -0.26911E-01  8424   0.353E-01 0.446E-03
CGA:   8    -0.667947029303E+03   -0.86368E-02   -0.86858E-02  8424   0.110E-01 0.246E-03
CGA:   9    -0.667950205794E+03   -0.31765E-02   -0.31509E-02  8424   0.402E-02-0.176E-03
CGA:  10    -0.667951386695E+03   -0.11809E-02   -0.12006E-02  8424   0.161E-02 0.160E-03
CGA:  11    -0.667951945115E+03   -0.55842E-03   -0.54880E-03  8424   0.672E-03-0.109E-03
CGA:  12    -0.667952135863E+03   -0.19075E-03   -0.19315E-03  8424   0.319E-03 0.200E-04
CGA:  13    -0.667952269105E+03   -0.13324E-03   -0.26893E-03  8424   0.138E-02-0.338E-03
CGA:  14    -0.667952506911E+03   -0.23781E-03   -0.25077E-03  8424   0.328E-03 0.516E-04
CGA:  15    -0.667952658931E+03   -0.15202E-03   -0.17467E-03  8424   0.643E-03-0.235E-03
CGA:  16    -0.667952772928E+03   -0.11400E-03   -0.11402E-03  8424   0.174E-03-0.480E-06
CGA:  17    -0.667950584462E+03    0.21885E-02   -0.11822E-02  8424   0.158E-01-0.118E-02
CGA:  18    -0.667953030443E+03   -0.24460E-02   -0.25034E-02  8424   0.260E-02 0.340E-04
CGA:  19    -0.667953655170E+03   -0.62473E-03   -0.58932E-03  8424   0.187E-03-0.711E-04
CGA:  20    -0.667953774259E+03   -0.11909E-03   -0.15458E-03  8424   0.871E-03-0.226E-03
CGA:  21    -0.667953914387E+03   -0.14013E-03   -0.14471E-03  8424   0.180E-03 0.943E-05
CGA:  22    -0.667954031512E+03   -0.11713E-03   -0.96966E-04  8424   0.375E-03-0.144E-03
CGA:  23    -0.667954118992E+03   -0.87480E-04   -0.74714E-04  8424   0.124E-03-0.274E-04
CGA:  24    -0.667952565764E+03    0.15532E-02   -0.31372E-03  8424   0.143E-01-0.903E-03
CGA:  25    -0.667954548361E+03   -0.19826E-02   -0.20171E-02  8424   0.153E-02 0.193E-03
CGA:  26    -0.667954977244E+03   -0.42888E-03   -0.40205E-03  8424   0.117E-03-0.596E-04
CGA:  27    -0.667954930232E+03    0.47012E-04   -0.15756E-03  8424   0.161E-02-0.293E-03
CGA:  28    -0.667955283201E+03   -0.35297E-03   -0.33221E-03  8424   0.267E-03-0.423E-04
CGA:  29    -0.667955365497E+03   -0.82296E-04   -0.63610E-04  8424   0.110E-03-0.408E-04
CGA:  30    -0.667955532694E+03   -0.16720E-03    0.98799E-04  8424   0.223E-03-0.607E-04
CGA:  31    -0.667955594092E+03   -0.61398E-04   -0.49854E-04  8424   0.968E-04-0.252E-04
CGA:  32    -0.667955736270E+03   -0.14218E-03    0.10914E-03  8424   0.282E-03-0.698E-04
CGA:  33    -0.667955796656E+03   -0.60386E-04   -0.50718E-04  8424   0.721E-04-0.199E-04
CGA:  34    -0.667955926856E+03   -0.13020E-03    0.39932E-04  8424   0.188E-03-0.418E-04
CGA:  35    -0.667955973576E+03   -0.46720E-04   -0.37451E-04  8424   0.604E-04-0.212E-04
CGA:  36    -0.667956099195E+03   -0.12562E-03    0.17956E-04  8424   0.174E-03-0.302E-04
CGA:  37    -0.667956524061E+03   -0.42487E-03    0.88884E-05  8424   0.296E-03-0.563E-05
CGA:  38    -0.667957348409E+03   -0.82435E-03    0.65079E-04  8424   0.114E-02-0.134E-03
CGA:  39    -0.667960545305E+03   -0.31969E-02    0.60022E-04  8424   0.330E-02-0.106E-02
CGA:  40    -0.667961310000E+03   -0.76470E-03   -0.75521E-03  8424   0.350E-03-0.266E-04
CGA:  41    -0.667961359606E+03   -0.49606E-04   -0.56974E-04  8424   0.409E-04 0.180E-04
CGA:  42    -0.667961374869E+03   -0.15263E-04   -0.14101E-04  8424   0.846E-05-0.482E-05
CGA:  43    -0.667961376249E+03   -0.13796E-05   -0.21115E-05  8424   0.342E-05 0.262E-05
  15 F= -.66796138E+03 E0= -.66796138E+03  d E =0.242951E+00  mag=     6.0000
       N       E                     dE             d eps       ncg     rms          ort
SDA:   1    -0.658303793255E+03    0.96576E+01    0.00000E+00  8424   0.318E+02 0.000E+00
CGA:   2    -0.664679210831E+03   -0.63754E+01   -0.64259E+01  8424   0.127E+02-0.541E-01
CGA:   3    -0.667374499044E+03   -0.26953E+01   -0.26867E+01  8424   0.398E+01 0.520E-01
CGA:   4    -0.668046056694E+03   -0.67156E+00   -0.67235E+00  8424   0.101E+01 0.331E-02
CGA:   5    -0.668219996142E+03   -0.17394E+00   -0.17449E+00  8424   0.207E+00 0.352E-03
CGA:   6    -0.668261311072E+03   -0.41315E-01   -0.41237E-01  8424   0.465E-01-0.197E-03
CGA:   7    -0.668271741632E+03   -0.10431E-01   -0.10573E-01  8424   0.140E-01 0.549E-03
CGA:   8    -0.668275032381E+03   -0.32907E-02   -0.33824E-02  8424   0.408E-02 0.395E-03
CGA:   9    -0.668276135452E+03   -0.11031E-02   -0.11254E-02  8424   0.135E-02 0.117E-03
CGA:  10    -0.668276428763E+03   -0.29331E-03   -0.34986E-03  8424   0.489E-03 0.288E-03
CGA:  11    -0.668276515427E+03   -0.86663E-04   -0.13261E-03  8424   0.181E-03 0.213E-03
CGA:  12    -0.668276507971E+03    0.74559E-05   -0.38102E-04  8424   0.101E-03 0.162E-03
CGA:  13    -0.668276491469E+03    0.16502E-04   -0.10500E-04  8424   0.772E-04 0.870E-04
CGA:  14    -0.668276475804E+03    0.15666E-04   -0.68113E-05  8424   0.681E-04 0.724E-04
CGA:  15    -0.668276461080E+03    0.14723E-04   -0.52841E-05  8424   0.629E-04 0.655E-04
CGA:  16    -0.668276447252E+03    0.13829E-04   -0.44063E-05  8424   0.595E-04 0.612E-04
CGA:  17    -0.668276434238E+03    0.13013E-04   -0.38126E-05  8424   0.570E-04 0.583E-04
CGA:  18    -0.668276421968E+03    0.12271E-04   -0.33728E-05  8424   0.550E-04 0.560E-04
CGA:  19    -0.668276410377E+03    0.11591E-04   -0.30277E-05  8424   0.535E-04 0.543E-04
CGA:  20    -0.668276399412E+03    0.10965E-04   -0.27463E-05  8424   0.522E-04 0.528E-04
CGA:  21    -0.668276389026E+03    0.10386E-04   -0.25105E-05  8424   0.511E-04 0.516E-04
CGA:  22    -0.668276379179E+03    0.98469E-05   -0.23088E-05  8424   0.501E-04 0.506E-04
  16 F= -.66827638E+03 E0= -.66827638E+03  d E =-.315003E+00  mag=     6.0000
       N       E                     dE             d eps       ncg     rms          ort
SDA:   1    -0.667662193325E+03    0.61420E+00    0.00000E+00  8424   0.163E+01 0.000E+00
CGA:   2    -0.668064805807E+03   -0.40261E+00   -0.40263E+00  8424   0.856E+00 0.102E-02
CGA:   3    -0.668233194935E+03   -0.16839E+00   -0.16839E+00  8424   0.211E+00 0.184E-04
CGA:   4    -0.668266264927E+03   -0.33070E-01   -0.33093E-01  8424   0.471E-01 0.202E-03
CGA:   5    -0.668274292494E+03   -0.80276E-02   -0.80637E-02  8424   0.972E-02 0.433E-03
CGA:   6    -0.668276205436E+03   -0.19129E-02   -0.19367E-02  8424   0.225E-02 0.463E-03
CGA:   7    -0.668276624403E+03   -0.41897E-03   -0.44366E-03  8424   0.592E-03 0.427E-03
CGA:   8    -0.668276696951E+03   -0.72548E-04   -0.10383E-03  8424   0.231E-03 0.327E-03
CGA:   9    -0.668276699287E+03   -0.23362E-05   -0.24814E-04  8424   0.143E-03 0.172E-03
CGA:  10    -0.668276690583E+03    0.87045E-05   -0.11056E-04  8424   0.118E-03 0.128E-03
  17 F= -.66827669E+03 E0= -.66827669E+03  d E =-.311403E-03  mag=     6.0000
       N       E                     dE             d eps       ncg     rms          ort
SDA:   1    -0.645160761141E+03    0.23116E+02    0.00000E+00  8424   0.587E+02 0.000E+00
CGA:   2    -0.660753242838E+03   -0.15592E+02   -0.15584E+02  8424   0.316E+02 0.108E+00
CGA:   3    -0.666705976931E+03   -0.59527E+01   -0.59522E+01  8424   0.703E+01-0.546E-02
CGA:   4    -0.667819346046E+03   -0.11134E+01   -0.11137E+01  8424   0.161E+01 0.180E-02
CGA:   5    -0.668098571514E+03   -0.27923E+00   -0.27931E+00  8424   0.351E+00 0.139E-02
CGA:   6    -0.668170918679E+03   -0.72347E-01   -0.72353E-01  8424   0.850E-01 0.913E-03
CGA:   7    -0.668190073457E+03   -0.19155E-01   -0.19154E-01  8424   0.256E-01 0.664E-04
CGA:   8    -0.668196562536E+03   -0.64891E-02   -0.64800E-02  8424   0.887E-02 0.221E-03
CGA:   9    -0.668199118980E+03   -0.25564E-02   -0.25491E-02  8424   0.337E-02 0.103E-03
CGA:  10    -0.668200224936E+03   -0.11060E-02   -0.11067E-02  8424   0.137E-02-0.935E-05
CGA:  11    -0.668200594217E+03   -0.36928E-03   -0.36448E-03  8424   0.393E-03 0.107E-03
CGA:  12    -0.668200744618E+03   -0.15040E-03   -0.15539E-03  8424   0.228E-03-0.372E-04
CGA:  13    -0.668200815442E+03   -0.70823E-04   -0.67204E-04  8424   0.163E-03 0.361E-04
CGA:  14    -0.668200931822E+03   -0.11638E-03   -0.13012E-03  8424   0.360E-03-0.384E-04
CGA:  15    -0.668200569699E+03    0.36212E-03   -0.22716E-03  8424   0.408E-02-0.741E-03
CGA:  16    -0.668201643947E+03   -0.10742E-02   -0.10698E-02  8424   0.147E-02-0.226E-04
CGA:  17    -0.668202054141E+03   -0.41019E-03   -0.36342E-03  8424   0.511E-03-0.217E-03
CGA:  18    -0.668202259221E+03   -0.20508E-03   -0.21756E-03  8424   0.719E-03-0.268E-03
CGA:  19    -0.668202410432E+03   -0.15121E-03   -0.13128E-03  8424   0.209E-03-0.731E-04
CGA:  20    -0.668202403983E+03    0.64493E-05   -0.16980E-03  8424   0.168E-02-0.383E-03
CGA:  21    -0.668202673944E+03   -0.26996E-03   -0.25116E-03  8424   0.249E-03-0.578E-04
CGA:  22    -0.668202774786E+03   -0.10084E-03   -0.93896E-04  8424   0.177E-03-0.122E-03
CGA:  23    -0.668202889531E+03   -0.11474E-03    0.47153E-04  8424   0.210E-03-0.592E-04
CGA:  24    -0.668203099875E+03   -0.21034E-03    0.44832E-04  8424   0.174E-03-0.504E-04
CGA:  25    -0.668203349757E+03   -0.24988E-03    0.26097E-04  8424   0.127E-03 0.118E-04
CGA:  26    -0.668203559088E+03   -0.20933E-03    0.41203E-04  8424   0.159E-03-0.542E-04
CGA:  27    -0.668203816902E+03   -0.25781E-03    0.93964E-05  8424   0.233E-03-0.785E-04
CGA:  28    -0.668204298996E+03   -0.48209E-03    0.73449E-05  8424   0.171E-03 0.245E-04
CGA:  29    -0.668204706684E+03   -0.40769E-03    0.29429E-04  8424   0.235E-03-0.369E-04
CGA:  30    -0.668205196412E+03   -0.48973E-03    0.20605E-04  8424   0.442E-03-0.200E-03
CGA:  31    -0.668205290476E+03   -0.94064E-04   -0.87258E-04  8424   0.149E-03-0.276E-04
CGA:  32    -0.668205332821E+03   -0.42345E-04   -0.38758E-04  8424   0.261E-04-0.231E-04
CGA:  33    -0.668205357425E+03   -0.24605E-04    0.15189E-04  8424   0.270E-04-0.324E-05
CGA:  34    -0.668205402186E+03   -0.44761E-04    0.40981E-05  8424   0.182E-04 0.342E-06
CGA:  35    -0.668205457900E+03   -0.55713E-04    0.15382E-05  8424   0.206E-04 0.201E-05
CGA:  36    -0.668205537495E+03   -0.79595E-04    0.15713E-05  8424   0.737E-05 0.636E-05
CGA:  37    -0.668205591074E+03   -0.53579E-04    0.37091E-06  8424   0.593E-05 0.246E-05
CGA:  38    -0.668205654212E+03   -0.63139E-04    0.20088E-06  8424   0.576E-05 0.360E-05
CGA:  39    -0.668205682697E+03   -0.28485E-04    0.25513E-06  8424   0.101E-04-0.203E-05
CGA:  40    -0.668205743353E+03   -0.60656E-04    0.14179E-06  8424   0.131E-04-0.128E-05
CGA:  41    -0.668205841177E+03   -0.97823E-04    0.27033E-06  8424   0.217E-04 0.277E-05
CGA:  42    -0.668206035294E+03   -0.19412E-03    0.72837E-06  8424   0.219E-04-0.255E-05
CGA:  43    -0.668206244991E+03   -0.20970E-03    0.35028E-06  8424   0.167E-04 0.750E-05
CGA:  44    -0.668206412656E+03   -0.16767E-03    0.61319E-06  8424   0.137E-04 0.138E-05
CGA:  45    -0.668206565684E+03   -0.15303E-03    0.28493E-06  8424   0.206E-04-0.335E-05
CGA:  46    -0.668206794337E+03   -0.22865E-03    0.20475E-06  8424   0.201E-04 0.397E-05
CGA:  47    -0.668207011370E+03   -0.21703E-03    0.53142E-06  8424   0.375E-04-0.881E-05
CGA:  48    -0.668207435365E+03   -0.42400E-03    0.19845E-06  8424   0.566E-04-0.208E-04
CGA:  49    -0.668207459064E+03   -0.23700E-04   -0.22466E-04  8424   0.619E-04-0.430E-04
CGA:  50    -0.668207460376E+03   -0.13115E-05   -0.66283E-05  8424   0.538E-05 0.168E-04
  18 F= -.66820746E+03 E0= -.66820746E+03  d E =0.692302E-01  mag=     6.0000
       N       E                     dE             d eps       ncg     rms          ort
SDA:   1    -0.647643173357E+03    0.20564E+02    0.00000E+00  8424   0.633E+02 0.000E+00
CGA:   2    -0.660514476660E+03   -0.12871E+02   -0.12999E+02  8424   0.272E+02-0.145E+00
CGA:   3    -0.666337059752E+03   -0.58226E+01   -0.58038E+01  8424   0.818E+01 0.619E-01
CGA:   4    -0.667691702114E+03   -0.13546E+01   -0.13566E+01  8424   0.196E+01 0.338E-02
CGA:   5    -0.668023003964E+03   -0.33130E+00   -0.33222E+00  8424   0.401E+00 0.974E-03
CGA:   6    -0.668104564028E+03   -0.81560E-01   -0.81451E-01  8424   0.939E-01-0.569E-03
CGA:   7    -0.668125903771E+03   -0.21340E-01   -0.21431E-01  8424   0.278E-01 0.742E-03
CGA:   8    -0.668132673013E+03   -0.67692E-02   -0.68021E-02  8424   0.843E-02 0.335E-03
CGA:   9    -0.668135134187E+03   -0.24612E-02   -0.24445E-02  8424   0.315E-02-0.346E-03
CGA:  10    -0.668136040930E+03   -0.90674E-03   -0.90818E-03  8424   0.127E-02 0.434E-04
CGA:  11    -0.668136480056E+03   -0.43913E-03   -0.44173E-03  8424   0.593E-03-0.216E-03
CGA:  12    -0.668136583038E+03   -0.10298E-03   -0.11157E-03  8424   0.216E-03 0.806E-04
CGA:  13    -0.668136665802E+03   -0.82764E-04   -0.82730E-04  8424   0.149E-03 0.146E-05
CGA:  14    -0.668136736493E+03   -0.70692E-04   -0.11332E-03  8424   0.474E-03-0.106E-03
CGA:  15    -0.668136790275E+03   -0.53781E-04   -0.79234E-04  8424   0.124E-03 0.140E-03
CGA:  16    -0.668136832697E+03   -0.42422E-04   -0.44489E-04  8424   0.626E-04 0.325E-04
CGA:  17    -0.668136857713E+03   -0.25017E-04   -0.25405E-04  8424   0.663E-04 0.257E-04
CGA:  18    -0.668136858988E+03   -0.12741E-05   -0.14622E-04  8424   0.597E-04 0.732E-04
  19 F= -.66813686E+03 E0= -.66813686E+03  d E =0.706014E-01  mag=     6.0000
       N       E                     dE             d eps       ncg     rms          ort
SDA:   1    -0.664840315734E+03    0.32965E+01    0.00000E+00  8424   0.109E+02 0.000E+00
CGA:   2    -0.667032142903E+03   -0.21918E+01   -0.21952E+01  8424   0.438E+01 0.410E-02
CGA:   3    -0.667964358123E+03   -0.93222E+00   -0.93170E+00  8424   0.142E+01-0.176E-02
CGA:   4    -0.668201316273E+03   -0.23696E+00   -0.23702E+00  8424   0.355E+00-0.206E-03
CGA:   5    -0.668262665951E+03   -0.61350E-01   -0.61389E-01  8424   0.721E-01 0.166E-03
CGA:   6    -0.668277168736E+03   -0.14503E-01   -0.14454E-01  8424   0.161E-01-0.531E-03
CGA:   7    -0.668280830725E+03   -0.36620E-02   -0.36560E-02  8424   0.488E-02-0.101E-03
CGA:   8    -0.668282078289E+03   -0.12476E-02   -0.12405E-02  8424   0.154E-02-0.233E-03
CGA:   9    -0.668282553171E+03   -0.47488E-03   -0.49744E-03  8424   0.816E-03-0.411E-03
CGA:  10    -0.668282753963E+03   -0.20079E-03   -0.28095E-03  8424   0.862E-03-0.440E-03
CGA:  11    -0.668282997929E+03   -0.24397E-03   -0.23549E-03  8424   0.472E-03-0.366E-03
CGA:  12    -0.668282894728E+03    0.10320E-03   -0.23045E-03  8424   0.202E-02-0.604E-03
CGA:  13    -0.668283400717E+03   -0.50599E-03   -0.44661E-03  8424   0.730E-03-0.582E-03
CGA:  14    -0.668283500664E+03   -0.99947E-04   -0.10219E-03  8424   0.113E-03 0.182E-04
CGA:  15    -0.668282095242E+03    0.14054E-02   -0.76304E-03  8424   0.982E-02-0.963E-03
CGA:  16    -0.668284137200E+03   -0.20420E-02   -0.18142E-02  8424   0.706E-03-0.588E-03
CGA:  17    -0.668284168641E+03   -0.31442E-04   -0.82687E-04  8424   0.793E-04 0.121E-03
CGA:  18    -0.668284199705E+03   -0.31063E-04   -0.27986E-04  8424   0.109E-03-0.138E-04
CGA:  19    -0.668284466289E+03   -0.26658E-03    0.12567E-04  8424   0.236E-03-0.153E-03
CGA:  20    -0.668284576996E+03   -0.11071E-03   -0.10345E-03  8424   0.214E-03-0.923E-04
CGA:  21    -0.668284745398E+03   -0.16840E-03    0.12936E-03  8424   0.719E-03-0.288E-03
CGA:  22    -0.668284818531E+03   -0.73133E-04   -0.96071E-04  8424   0.101E-03 0.605E-04
CGA:  23    -0.668284942266E+03   -0.12373E-03    0.18356E-03  8424   0.567E-04-0.322E-04
CGA:  24    -0.668285119005E+03   -0.17674E-03    0.26169E-05  8424   0.147E-03-0.323E-04
CGA:  25    -0.668285131786E+03   -0.12781E-04   -0.19881E-04  8424   0.277E-04 0.198E-04
CGA:  26    -0.668285230468E+03   -0.98683E-04    0.32446E-05  8424   0.291E-04 0.369E-05
CGA:  27    -0.668285442781E+03   -0.21231E-03    0.13646E-05  8424   0.101E-03-0.218E-04
CGA:  28    -0.668285452107E+03   -0.93265E-05   -0.14578E-04  8424   0.241E-04 0.158E-04
  20 F= -.66828545E+03 E0= -.66828545E+03  d E =-.148593E+00  mag=     6.0000
       N       E                     dE             d eps       ncg     rms          ort
SDA:   1    -0.667733045588E+03    0.55240E+00    0.00000E+00  8424   0.139E+01 0.000E+00
CGA:   2    -0.668112440410E+03   -0.37939E+00   -0.37937E+00  8424   0.772E+00-0.285E-03
CGA:   3    -0.668255142064E+03   -0.14270E+00   -0.14270E+00  8424   0.167E+00-0.956E-04
CGA:   4    -0.668281204328E+03   -0.26062E-01   -0.26057E-01  8424   0.380E-01-0.422E-04
CGA:   5    -0.668287790239E+03   -0.65859E-02   -0.65803E-02  8424   0.808E-02-0.289E-04
CGA:   6    -0.668289458694E+03   -0.16685E-02   -0.16668E-02  8424   0.194E-02-0.943E-05
CGA:   7    -0.668289892718E+03   -0.43402E-03   -0.42855E-03  8424   0.579E-03-0.309E-04
CGA:   8    -0.668290048796E+03   -0.15608E-03   -0.15131E-03  8424   0.222E-03-0.381E-04
CGA:   9    -0.668290123688E+03   -0.74891E-04   -0.73086E-04  8424   0.139E-03-0.551E-04
CGA:  10    -0.668290126965E+03   -0.32777E-05   -0.86471E-04  8424   0.557E-03-0.188E-03
CGA:  11    -0.668290231547E+03   -0.10458E-03   -0.10313E-03  8424   0.909E-04-0.670E-05
CGA:  12    -0.668290231050E+03    0.49698E-06   -0.87091E-04  8424   0.493E-03-0.153E-03
CGA:  13    -0.668290323708E+03   -0.92658E-04   -0.97563E-04  8424   0.725E-04 0.216E-04
CGA:  14    -0.668290199401E+03    0.12431E-03   -0.93192E-04  8424   0.133E-02-0.266E-03
CGA:  15    -0.668290360597E+03   -0.16120E-03   -0.19436E-03  8424   0.225E-03 0.108E-03
CGA:  16    -0.668290444004E+03   -0.83408E-04   -0.77955E-04  8424   0.431E-04-0.467E-04
CGA:  17    -0.668290487981E+03   -0.43976E-04    0.14963E-04  8424   0.457E-04-0.149E-04
CGA:  18    -0.668290496736E+03   -0.87551E-05   -0.21984E-04  8424   0.237E-03-0.447E-04
CGA:  19    -0.668290589054E+03   -0.92319E-04   -0.59334E-04  8424   0.228E-03-0.168E-03
CGA:  20    -0.668290591827E+03   -0.27728E-05   -0.20868E-04  8424   0.176E-04 0.524E-04
  21 F= -.66829059E+03 E0= -.66829059E+03  d E =-.513972E-02  mag=     6.0000
       N       E                     dE             d eps       ncg     rms          ort
SDA:   1    -0.643528009825E+03    0.24763E+02    0.00000E+00  8424   0.617E+02 0.000E+00
CGA:   2    -0.660323734816E+03   -0.16796E+02   -0.16800E+02  8424   0.344E+02 0.735E-02
CGA:   3    -0.666727000297E+03   -0.64033E+01   -0.64092E+01  8424   0.737E+01 0.551E-01
CGA:   4    -0.667881620573E+03   -0.11546E+01   -0.11555E+01  8424   0.166E+01 0.633E-02
CGA:   5    -0.668169715683E+03   -0.28810E+00   -0.28835E+00  8424   0.360E+00 0.885E-03
CGA:   6    -0.668244950280E+03   -0.75235E-01   -0.75349E-01  8424   0.881E-01 0.670E-03
CGA:   7    -0.668264205612E+03   -0.19255E-01   -0.19299E-01  8424   0.262E-01 0.296E-03
CGA:   8    -0.668270815014E+03   -0.66094E-02   -0.66535E-02  8424   0.907E-02 0.452E-03
CGA:   9    -0.668273341908E+03   -0.25269E-02   -0.25521E-02  8424   0.334E-02 0.368E-03
CGA:  10    -0.668274368355E+03   -0.10264E-02   -0.10405E-02  8424   0.122E-02 0.334E-03
CGA:  11    -0.668274650098E+03   -0.28174E-03   -0.31699E-03  8424   0.337E-03 0.338E-03
CGA:  12    -0.668274694907E+03   -0.44809E-04   -0.77308E-04  8424   0.148E-03 0.210E-03
CGA:  13    -0.668274694068E+03    0.83910E-06   -0.20674E-04  8424   0.986E-04 0.115E-03
CGA:  14    -0.668274685157E+03    0.89111E-05   -0.10342E-04  8424   0.847E-04 0.905E-04
  22 F= -.66827469E+03 E0= -.66827469E+03  d E =0.159067E-01  mag=     6.0000
       N       E                     dE             d eps       ncg     rms          ort
SDA:   1    -0.640254316853E+03    0.28020E+02    0.00000E+00  8424   0.743E+02 0.000E+00
CGA:   2    -0.658622030791E+03   -0.18368E+02   -0.18386E+02  8424   0.386E+02 0.128E+00
CGA:   3    -0.666181089947E+03   -0.75591E+01   -0.75516E+01  8424   0.930E+01 0.160E-01
CGA:   4    -0.667660254419E+03   -0.14792E+01   -0.14805E+01  8424   0.213E+01 0.288E-02
CGA:   5    -0.668024961771E+03   -0.36471E+00   -0.36518E+00  8424   0.454E+00 0.231E-02
CGA:   6    -0.668118604805E+03   -0.93643E-01   -0.93664E-01  8424   0.111E+00 0.305E-03
CGA:   7    -0.668143534224E+03   -0.24929E-01   -0.24973E-01  8424   0.329E-01 0.864E-03
CGA:   8    -0.668151686140E+03   -0.81519E-02   -0.81707E-02  8424   0.110E-01 0.767E-03
CGA:   9    -0.668154860766E+03   -0.31746E-02   -0.31721E-02  8424   0.415E-02 0.183E-03
CGA:  10    -0.668156073140E+03   -0.12124E-02   -0.12051E-02  8424   0.149E-02 0.457E-03
CGA:  11    -0.668156471945E+03   -0.39880E-03   -0.40742E-03  8424   0.418E-03 0.342E-03
CGA:  12    -0.668156536919E+03   -0.64974E-04   -0.89516E-04  8424   0.175E-03 0.257E-03
CGA:  13    -0.668156539977E+03   -0.30575E-05   -0.22091E-04  8424   0.116E-03 0.137E-03
CGA:  14    -0.668156534701E+03    0.52760E-05   -0.11562E-04  8424   0.980E-04 0.106E-03
  23 F= -.66815653E+03 E0= -.66815653E+03  d E =0.118150E+00  mag=     6.0000
       N       E                     dE             d eps       ncg     rms          ort
SDA:   1    -0.657081071540E+03    0.11075E+02    0.00000E+00  8424   0.349E+02 0.000E+00
CGA:   2    -0.664134648458E+03   -0.70536E+01   -0.70633E+01  8424   0.145E+02 0.933E-01
CGA:   3    -0.667254114735E+03   -0.31195E+01   -0.31184E+01  8424   0.463E+01-0.218E-01
CGA:   4    -0.668014463464E+03   -0.76035E+00   -0.76069E+00  8424   0.111E+01 0.513E-03
CGA:   5    -0.668203509497E+03   -0.18905E+00   -0.18921E+00  8424   0.225E+00 0.171E-02
CGA:   6    -0.668248907456E+03   -0.45398E-01   -0.45369E-01  8424   0.521E-01-0.945E-03
CGA:   7    -0.668260441624E+03   -0.11534E-01   -0.11539E-01  8424   0.151E-01 0.658E-03
CGA:   8    -0.668264099399E+03   -0.36578E-02   -0.36549E-02  8424   0.437E-02 0.283E-03
[...]
  31 F= -.66819940E+03 E0= -.66819940E+03  d E =0.876970E-01  mag=     6.0000
       N       E                     dE             d eps       ncg     rms          ort
SDA:   1    -0.665333981020E+03    0.28654E+01    0.00000E+00  8424   0.905E+01 0.000E+00
CGA:   2    -0.667212366704E+03   -0.18784E+01   -0.18790E+01  8424   0.383E+01 0.117E-01
CGA:   3    -0.668026714542E+03   -0.81435E+00   -0.81423E+00  8424   0.121E+01-0.391E-02
CGA:   4    -0.668224101631E+03   -0.19739E+00   -0.19742E+00  8424   0.290E+00 0.102E-03
CGA:   5    -0.668273820639E+03   -0.49719E-01   -0.49771E-01  8424   0.581E-01 0.771E-03
CGA:   6    -0.668285581477E+03   -0.11761E-01   -0.11756E-01  8424   0.133E-01-0.189E-03
CGA:   7    -0.668288490961E+03   -0.29095E-02   -0.29125E-02  8424   0.379E-02 0.425E-03
CGA:   8    -0.668289378283E+03   -0.88732E-03   -0.88700E-03  8424   0.104E-02 0.342E-03
CGA:   9    -0.668289671720E+03   -0.29344E-03   -0.28955E-03  8424   0.353E-03 0.127E-03
CGA:  10    -0.668289742950E+03   -0.71231E-04   -0.77041E-04  8424   0.152E-03 0.175E-03
CGA:  11    -0.668289766680E+03   -0.23730E-04   -0.34026E-04  8424   0.852E-04 0.135E-03
CGA:  12    -0.668289774712E+03   -0.80318E-05   -0.12715E-04  8424   0.562E-04 0.642E-04
  32 F= -.66828977E+03 E0= -.66828977E+03  d E =-.903784E-01  mag=     6.0000
       N       E                     dE             d eps       ncg     rms          ort
SDA:   1    -0.668011605815E+03    0.27816E+00    0.00000E+00  8424   0.717E+00 0.000E+00
CGA:   2    -0.668197403668E+03   -0.18580E+00   -0.18578E+00  8424   0.392E+00 0.253E-03
CGA:   3    -0.668272225422E+03   -0.74822E-01   -0.74813E-01  8424   0.908E-01-0.399E-03
CGA:   4    -0.668286306557E+03   -0.14081E-01   -0.14089E-01  8424   0.202E-01 0.117E-03
CGA:   5    -0.668289751566E+03   -0.34450E-02   -0.34532E-02  8424   0.422E-02 0.204E-03
CGA:   6    -0.668290615186E+03   -0.86362E-03   -0.86438E-03  8424   0.100E-02 0.135E-03
CGA:   7    -0.668290817515E+03   -0.20233E-03   -0.20384E-03  8424   0.275E-03 0.136E-03
CGA:   8    -0.668290869323E+03   -0.51808E-04   -0.55375E-04  8424   0.102E-03 0.117E-03
CGA:   9    -0.668290881758E+03   -0.12435E-04   -0.19074E-04  8424   0.594E-04 0.877E-04
CGA:  10    -0.668290884005E+03   -0.22467E-05   -0.66655E-05  8424   0.436E-04 0.490E-04
  33 F= -.66829088E+03 E0= -.66829088E+03  d E =-.110929E-02  mag=     6.0000
       N       E                     dE             d eps       ncg     rms          ort
SDA:   1    -0.655628855809E+03    0.12662E+02    0.00000E+00  8424   0.312E+02 0.000E+00
CGA:   2    -0.664290690710E+03   -0.86618E+01   -0.86612E+01  8424   0.175E+02 0.275E-02
CGA:   3    -0.667487981503E+03   -0.31973E+01   -0.31973E+01  8424   0.369E+01-0.108E-02
CGA:   4    -0.668063854089E+03   -0.57587E+00   -0.57595E+00  8424   0.841E+00 0.102E-02
CGA:   5    -0.668209438904E+03   -0.14558E+00   -0.14561E+00  8424   0.181E+00 0.829E-03
CGA:   6    -0.668247098817E+03   -0.37660E-01   -0.37655E-01  8424   0.434E-01 0.316E-03
CGA:   7    -0.668256614436E+03   -0.95156E-02   -0.95177E-02  8424   0.129E-01-0.877E-04
CGA:   8    -0.668259868573E+03   -0.32541E-02   -0.32534E-02  8424   0.442E-02 0.112E-04
CGA:   9    -0.668261167580E+03   -0.12990E-02   -0.13240E-02  8424   0.184E-02-0.248E-03
CGA:  10    -0.668261758045E+03   -0.59047E-03   -0.65033E-03  8424   0.957E-03-0.351E-03
CGA:  11    -0.668261987558E+03   -0.22951E-03   -0.26849E-03  8424   0.423E-03-0.290E-03
CGA:  12    -0.668260962808E+03    0.10248E-02   -0.55354E-03  8424   0.626E-02-0.121E-02
CGA:  13    -0.668262134371E+03   -0.11716E-02   -0.11836E-02  8424   0.103E-02 0.578E-04
CGA:  14    -0.668262434975E+03   -0.30060E-03   -0.28517E-03  8424   0.421E-03-0.135E-03
CGA:  15    -0.668262537671E+03   -0.10270E-03   -0.97936E-04  8424   0.152E-03-0.420E-04
CGA:  16    -0.668262641926E+03   -0.10425E-03    0.26569E-02  8424   0.624E-04 0.167E-04
CGA:  17    -0.668262719501E+03   -0.77575E-04    0.26658E-04  8424   0.470E-04 0.119E-04
CGA:  18    -0.668262802678E+03   -0.83177E-04    0.10779E-04  8424   0.540E-04 0.762E-05
CGA:  19    -0.668262940930E+03   -0.13825E-03    0.61247E-05  8424   0.466E-04 0.282E-04
CGA:  20    -0.668262980476E+03   -0.39545E-04    0.67738E-04  8424   0.322E-04 0.106E-04
CGA:  21    -0.668263040896E+03   -0.60420E-04    0.72330E-05  8424   0.463E-04 0.479E-05
CGA:  22    -0.668263143808E+03   -0.10291E-03    0.63587E-05  8424   0.343E-04 0.255E-04
CGA:  23    -0.668263178124E+03   -0.34316E-04    0.19512E-04  8424   0.203E-04 0.127E-04
CGA:  24    -0.668263226786E+03   -0.48661E-04    0.39535E-05  8424   0.194E-04 0.110E-04
CGA:  25    -0.668263242131E+03   -0.15346E-04    0.74577E-04  8424   0.291E-04 0.312E-05
CGA:  26    -0.668263309910E+03   -0.67778E-04    0.38056E-05  8424   0.197E-04 0.218E-04
CGA:  27    -0.668263335888E+03   -0.25978E-04    0.49252E-05  8424   0.176E-04 0.594E-05
CGA:  28    -0.668263376581E+03   -0.40693E-04    0.31790E-05  8424   0.146E-04 0.161E-04
CGA:  29    -0.668263400394E+03   -0.23813E-04    0.23597E-05  8424   0.116E-04 0.924E-05
CGA:  30    -0.668263416697E+03   -0.16303E-04    0.24954E-05  8424   0.145E-04 0.746E-05
CGA:  31    -0.668263439990E+03   -0.23293E-04    0.23789E-05  8424   0.282E-04 0.702E-06
CGA:  32    -0.668263498132E+03   -0.58142E-04    0.34340E-05  8424   0.239E-04 0.274E-04
CGA:  33    -0.668263501520E+03   -0.33878E-05   -0.42631E-05  8424   0.111E-04 0.437E-05
  34 F= -.66826350E+03 E0= -.66826350E+03  d E =0.273825E-01  mag=     6.0000
       N       E                     dE             d eps       ncg     rms          ort
SDA:   1    -0.646576971025E+03    0.21687E+02    0.00000E+00  8424   0.628E+02 0.000E+00
CGA:   2    -0.660109509578E+03   -0.13533E+02   -0.13605E+02  8424   0.295E+02-0.276E-01
CGA:   3    -0.666329810157E+03   -0.62203E+01   -0.62069E+01  8424   0.842E+01 0.372E-01
CGA:   4    -0.667679562362E+03   -0.13498E+01   -0.13514E+01  8424   0.192E+01 0.293E-02
CGA:   5    -0.668003546522E+03   -0.32398E+00   -0.32462E+00  8424   0.394E+00 0.116E-02
CGA:   6    -0.668084445921E+03   -0.80899E-01   -0.80803E-01  8424   0.948E-01-0.685E-03
CGA:   7    -0.668105333268E+03   -0.20887E-01   -0.20964E-01  8424   0.270E-01 0.703E-03
CGA:   8    -0.668111857182E+03   -0.65239E-02   -0.65582E-02  8424   0.825E-02 0.421E-03
CGA:   9    -0.668114165557E+03   -0.23084E-02   -0.23065E-02  8424   0.299E-02-0.474E-04
CGA:  10    -0.668114996677E+03   -0.83112E-03   -0.84118E-03  8424   0.112E-02 0.305E-03
CGA:  11    -0.668115357300E+03   -0.36062E-03   -0.36269E-03  8424   0.385E-03 0.963E-04
CGA:  12    -0.668115423315E+03   -0.66016E-04   -0.84559E-04  8424   0.148E-03 0.167E-03
CGA:  13    -0.668115443456E+03   -0.20141E-04   -0.36256E-04  8424   0.858E-04 0.118E-03
CGA:  14    -0.668115457300E+03   -0.13844E-04   -0.18759E-04  8424   0.580E-04 0.598E-04
CGA:  15    -0.668115455244E+03    0.20564E-05   -0.72412E-05  8424   0.520E-04 0.540E-04
  35 F= -.66811546E+03 E0= -.66811546E+03  d E =0.148046E+00  mag=     6.0000
       N       E                     dE             d eps       ncg     rms          ort
SDA:   1    -0.665537274695E+03    0.25782E+01    0.00000E+00  8424   0.844E+01 0.000E+00
CGA:   2    -0.667286605882E+03   -0.17493E+01   -0.17507E+01  8424   0.354E+01 0.685E-02
CGA:   3    -0.668030681387E+03   -0.74408E+00   -0.74386E+00  8424   0.110E+01-0.210E-02
CGA:   4    -0.668210841693E+03   -0.18016E+00   -0.18021E+00  8424   0.272E+00-0.741E-05
CGA:   5    -0.668257749381E+03   -0.46908E-01   -0.46966E-01  8424   0.550E-01 0.520E-03
CGA:   6    -0.668268815373E+03   -0.11066E-01   -0.11063E-01  8424   0.124E-01-0.575E-04
CGA:   7    -0.668271515205E+03   -0.26998E-02   -0.27145E-02  8424   0.353E-02 0.362E-03
CGA:   8    -0.668272351375E+03   -0.83617E-03   -0.84320E-03  8424   0.979E-03 0.272E-03
CGA:   9    -0.668272605395E+03   -0.25402E-03   -0.25615E-03  8424   0.311E-03 0.156E-03
CGA:  10    -0.668272659381E+03   -0.53985E-04   -0.66279E-04  8424   0.136E-03 0.171E-03
CGA:  11    -0.668272672498E+03   -0.13117E-04   -0.21569E-04  8424   0.731E-04 0.904E-04
CGA:  12    -0.668272672157E+03    0.34034E-06   -0.83550E-05  8424   0.589E-04 0.652E-04
  36 F= -.66827267E+03 E0= -.66827267E+03  d E =-.157217E+00  mag=     6.0000
       N       E                     dE             d eps       ncg     rms          ort
SDA:   1    -0.667159834824E+03    0.11128E+01    0.00000E+00  8424   0.323E+01 0.000E+00
CGA:   2    -0.667891942791E+03   -0.73211E+00   -0.73214E+00  8424   0.153E+01 0.286E-02
CGA:   3    -0.668203818228E+03   -0.31188E+00   -0.31184E+00  8424   0.424E+00-0.129E-02
CGA:   4    -0.668271453101E+03   -0.67635E-01   -0.67647E-01  8424   0.995E-01 0.665E-04
CGA:   5    -0.668288526780E+03   -0.17074E-01   -0.17101E-01  8424   0.201E-01 0.471E-03
CGA:   6    -0.668292587007E+03   -0.40602E-02   -0.40672E-02  8424   0.460E-02 0.286E-03
CGA:   7    -0.668293565043E+03   -0.97804E-03   -0.98261E-03  8424   0.125E-02 0.343E-03
CGA:   8    -0.668293837073E+03   -0.27203E-03   -0.27695E-03  8424   0.354E-03 0.282E-03
CGA:   9    -0.668293896431E+03   -0.59358E-04   -0.71126E-04  8424   0.146E-03 0.201E-03
CGA:  10    -0.668293902251E+03   -0.58204E-05   -0.17066E-04  8424   0.914E-04 0.110E-03
  37 F= -.66829390E+03 E0= -.66829390E+03  d E =-.212301E-01  mag=     6.0000
       N       E                     dE             d eps       ncg     rms          ort
SDA:   1    -0.667803514409E+03    0.49038E+00    0.00000E+00  8424   0.120E+01 0.000E+00
CGA:   2    -0.668148185299E+03   -0.34467E+00   -0.34467E+00  8424   0.666E+00-0.955E-04
CGA:   3    -0.668267213243E+03   -0.11903E+00   -0.11902E+00  8424   0.137E+00-0.314E-03
CGA:   4    -0.668288713622E+03   -0.21500E-01   -0.21506E-01  8424   0.321E-01 0.903E-04
CGA:   5    -0.668294233561E+03   -0.55199E-02   -0.55308E-02  8424   0.675E-02 0.303E-03
CGA:   6    -0.668295581435E+03   -0.13479E-02   -0.13504E-02  8424   0.151E-02 0.323E-03
CGA:   7    -0.668295889103E+03   -0.30767E-03   -0.30988E-03  8424   0.413E-03 0.224E-03
CGA:   8    -0.668295960628E+03   -0.71525E-04   -0.78938E-04  8424   0.152E-03 0.192E-03
CGA:   9    -0.668295971561E+03   -0.10933E-04   -0.24273E-04  8424   0.864E-04 0.141E-03
CGA:  10    -0.668295970379E+03    0.11814E-05   -0.72929E-05  8424   0.658E-04 0.742E-04
  38 F= -.66829597E+03 E0= -.66829597E+03  d E =-.206813E-02  mag=     6.0000
       N       E                     dE             d eps       ncg     rms          ort
SDA:   1    -0.637062934015E+03    0.31233E+02    0.00000E+00  8424   0.774E+02 0.000E+00
CGA:   2    -0.658486278768E+03   -0.21423E+02   -0.21416E+02  8424   0.426E+02 0.683E-01
CGA:   3    -0.666275975655E+03   -0.77897E+01   -0.77898E+01  8424   0.898E+01 0.609E-02
CGA:   4    -0.667698432607E+03   -0.14225E+01   -0.14227E+01  8424   0.210E+01 0.176E-02
CGA:   5    -0.668061547047E+03   -0.36311E+00   -0.36314E+00  8424   0.460E+00 0.895E-03
CGA:   6    -0.668156794686E+03   -0.95248E-01   -0.95227E-01  8424   0.113E+00 0.106E-02
CGA:   7    -0.668182253572E+03   -0.25459E-01   -0.25491E-01  8424   0.355E-01-0.936E-03
CGA:   8    -0.668191333937E+03   -0.90804E-02   -0.91140E-02  8424   0.130E-01-0.499E-03
CGA:   9    -0.668195132737E+03   -0.37988E-02   -0.39051E-02  8424   0.558E-02-0.970E-03
CGA:  10    -0.668196860586E+03   -0.17278E-02   -0.20597E-02  8424   0.336E-02-0.167E-02
CGA:  11    -0.668197498534E+03   -0.63795E-03   -0.74049E-03  8424   0.134E-02-0.983E-03
CGA:  12    -0.668197919121E+03   -0.42059E-03    0.34660E-02  8424   0.518E-03 0.175E-03
CGA:  13    -0.668198218952E+03   -0.29983E-03    0.33104E-03  8424   0.253E-03 0.154E-03
CGA:  14    -0.668198452517E+03   -0.23357E-03    0.53499E-04  8424   0.152E-03 0.131E-03
CGA:  15    -0.668198591089E+03   -0.13857E-03    0.14586E-04  8424   0.785E-04 0.847E-04
CGA:  16    -0.668198697422E+03   -0.10633E-03    0.39236E-05  8424   0.600E-04 0.624E-04
CGA:  17    -0.668198805695E+03   -0.10827E-03    0.20126E-05  8424   0.498E-04 0.511E-04
CGA:  18    -0.668198904063E+03   -0.98368E-04    0.14853E-05  8424   0.431E-04 0.439E-04
CGA:  19    -0.668199004470E+03   -0.10041E-03    0.10480E-05  8424   0.385E-04 0.389E-04
CGA:  20    -0.668199099195E+03   -0.94726E-04    0.87747E-06  8424   0.353E-04 0.352E-04
CGA:  21    -0.668199195898E+03   -0.96702E-04    0.70549E-06  8424   0.330E-04 0.324E-04
CGA:  22    -0.668199288152E+03   -0.92254E-04    0.64417E-06  8424   0.314E-04 0.303E-04
CGA:  23    -0.668199382881E+03   -0.94729E-04    0.56036E-06  8424   0.303E-04 0.285E-04
CGA:  24    -0.668199473121E+03   -0.90240E-04    0.55093E-06  8424   0.297E-04 0.270E-04
CGA:  25    -0.668199566754E+03   -0.93633E-04    0.50463E-06  8424   0.295E-04 0.255E-04
CGA:  26    -0.668199655148E+03   -0.88394E-04    0.53111E-06  8424   0.296E-04 0.240E-04
CGA:  27    -0.668199748152E+03   -0.93003E-04    0.50589E-06  8424   0.302E-04 0.224E-04
CGA:  28    -0.668199834682E+03   -0.86531E-04    0.57337E-06  8424   0.312E-04 0.205E-04
CGA:  29    -0.668199927299E+03   -0.92617E-04    0.56938E-06  8424   0.329E-04 0.182E-04
CGA:  30    -0.668200011823E+03   -0.84523E-04    0.70957E-06  8424   0.353E-04 0.153E-04
CGA:  31    -0.668200195899E+03   -0.18408E-03    0.76225E-06  8424   0.311E-04 0.506E-04
CGA:  32    -0.668200286870E+03   -0.90971E-04    0.57428E-06  8424   0.331E-04 0.148E-04
CGA:  33    -0.668200466538E+03   -0.17967E-03    0.69382E-06  8424   0.295E-04 0.479E-04
CGA:  34    -0.668200548069E+03   -0.81531E-04    0.58237E-06  8424   0.313E-04 0.144E-04
CGA:  35    -0.668200724771E+03   -0.17670E-03    0.63827E-06  8424   0.280E-04 0.457E-04
CGA:  36    -0.668200812712E+03   -0.87940E-04    0.47731E-06  8424   0.295E-04 0.141E-04
CGA:  37    -0.668200891816E+03   -0.79104E-04    0.60437E-06  8424   0.317E-04 0.117E-04
CGA:  38    -0.668201065437E+03   -0.17362E-03    0.58416E-06  8424   0.286E-04 0.435E-04
CGA:  39    -0.668201151873E+03   -0.86435E-04    0.50962E-06  8424   0.304E-04 0.111E-04
CGA:  40    -0.668201321051E+03   -0.16918E-03    0.54389E-06  8424   0.277E-04 0.415E-04
CGA:  41    -0.668201397049E+03   -0.75998E-04    0.55274E-06  8424   0.296E-04 0.103E-04
CGA:  42    -0.668201563995E+03   -0.16695E-03    0.51006E-06  8424   0.270E-04 0.400E-04
CGA:  43    -0.668201647618E+03   -0.83622E-04    0.46703E-06  8424   0.286E-04 0.970E-05
CGA:  44    -0.668201810390E+03   -0.16277E-03    0.47835E-06  8424   0.263E-04 0.383E-04
CGA:  45    -0.668201883396E+03   -0.73006E-04    0.51636E-06  8424   0.279E-04 0.903E-05
CGA:  46    -0.668202043698E+03   -0.16030E-03    0.44918E-06  8424   0.256E-04 0.368E-04
CGA:  47    -0.668202124546E+03   -0.80848E-04    0.43521E-06  8424   0.270E-04 0.849E-05
CGA:  48    -0.668202280645E+03   -0.15610E-03    0.42306E-06  8424   0.250E-04 0.352E-04
CGA:  49    -0.668202350849E+03   -0.70204E-04    0.48354E-06  8424   0.261E-04 0.804E-05
CGA:  50    -0.668202504167E+03   -0.15332E-03    0.39749E-06  8424   0.242E-04 0.337E-04
CGA:  51    -0.668202582227E+03   -0.78061E-04    0.39939E-06  8424   0.249E-04 0.789E-05
CGA:  52    -0.668202730935E+03   -0.14871E-03    0.37522E-06  8424   0.232E-04 0.321E-04
CGA:  53    -0.668202798746E+03   -0.67811E-04    0.42830E-06  8424   0.235E-04 0.805E-05
CGA:  54    -0.668202944174E+03   -0.14543E-03    0.35175E-06  8424   0.219E-04 0.305E-04
CGA:  55    -0.668203019218E+03   -0.75044E-04    0.33680E-06  8424   0.216E-04 0.865E-05
CGA:  56    -0.668203159392E+03   -0.14017E-03    0.33083E-06  8424   0.203E-04 0.289E-04
CGA:  57    -0.668203225456E+03   -0.66064E-04    0.33234E-06  8424   0.195E-04 0.952E-05
CGA:  58    -0.668203361826E+03   -0.13637E-03    0.30690E-06  8424   0.187E-04 0.273E-04
CGA:  59    -0.668203433431E+03   -0.71605E-04    0.25308E-06  8424   0.174E-04 0.105E-04
CGA:  60    -0.668203498089E+03   -0.64659E-04    0.24423E-06  8424   0.176E-04 0.102E-04
CGA:  61    -0.668203568813E+03   -0.70724E-04    0.22701E-06  8424   0.180E-04 0.954E-05
CGA:  62    -0.668203632251E+03   -0.63437E-04    0.26933E-06  8424   0.186E-04 0.873E-05
CGA:  63    -0.668203768457E+03   -0.13621E-03    0.28366E-06  8424   0.174E-04 0.273E-04
CGA:  64    -0.668203837638E+03   -0.69181E-04    0.22569E-06  8424   0.179E-04 0.852E-05
CGA:  65    -0.668203970658E+03   -0.13302E-03    0.26941E-06  8424   0.167E-04 0.263E-04
CGA:  66    -0.668204031869E+03   -0.61211E-04    0.23813E-06  8424   0.173E-04 0.825E-05
CGA:  67    -0.668204163301E+03   -0.13143E-03    0.25619E-06  8424   0.161E-04 0.255E-04
CGA:  68    -0.668204229706E+03   -0.66404E-04    0.20022E-06  8424   0.165E-04 0.810E-05
CGA:  69    -0.668204289131E+03   -0.59425E-04    0.24168E-06  8424   0.173E-04 0.721E-05
CGA:  70    -0.668204417841E+03   -0.12871E-03    0.24023E-06  8424   0.160E-04 0.245E-04
CGA:  71    -0.668204482870E+03   -0.65029E-04    0.20448E-06  8424   0.166E-04 0.701E-05
CGA:  72    -0.668204607901E+03   -0.12503E-03    0.22805E-06  8424   0.155E-04 0.235E-04
CGA:  73    -0.668204665361E+03   -0.57461E-04    0.21812E-06  8424   0.161E-04 0.673E-05
CGA:  74    -0.668204789055E+03   -0.12369E-03    0.21642E-06  8424   0.150E-04 0.228E-04
CGA:  75    -0.668204851362E+03   -0.62308E-04    0.18613E-06  8424   0.154E-04 0.657E-05
CGA:  76    -0.668204971394E+03   -0.12003E-03    0.20563E-06  8424   0.145E-04 0.219E-04
CGA:  77    -0.668205027117E+03   -0.55722E-04    0.19584E-06  8424   0.148E-04 0.640E-05
CGA:  78    -0.668205145317E+03   -0.11820E-03    0.19373E-06  8424   0.140E-04 0.211E-04
CGA:  79    -0.668205204880E+03   -0.59563E-04    0.16893E-06  8424   0.141E-04 0.635E-05
CGA:  80    -0.668205319032E+03   -0.11415E-03    0.18324E-06  8424   0.135E-04 0.201E-04
CGA:  81    -0.668205373275E+03   -0.54243E-04    0.17275E-06  8424   0.133E-04 0.636E-05
CGA:  82    -0.668205484863E+03   -0.11159E-03    0.17074E-06  8424   0.129E-04 0.192E-04
CGA:  83    -0.668205541678E+03   -0.56815E-04    0.15040E-06  8424   0.123E-04 0.651E-05
CGA:  84    -0.668205594602E+03   -0.52924E-04    0.14699E-06  8424   0.121E-04 0.665E-05
CGA:  85    -0.668205651161E+03   -0.56558E-04    0.13185E-06  8424   0.121E-04 0.657E-05
CGA:  86    -0.668205703022E+03   -0.51862E-04    0.14367E-06  8424   0.121E-04 0.636E-05
CGA:  87    -0.668205759273E+03   -0.56251E-04    0.13269E-06  8424   0.122E-04 0.608E-05
CGA:  88    -0.668205810078E+03   -0.50805E-04    0.15175E-06  8424   0.124E-04 0.571E-05
CGA:  89    -0.668205917919E+03   -0.10784E-03    0.15397E-06  8424   0.118E-04 0.180E-04
CGA:  90    -0.668205972891E+03   -0.54972E-04    0.12961E-06  8424   0.120E-04 0.556E-05
CGA:  91    -0.668206078240E+03   -0.10535E-03    0.14741E-06  8424   0.114E-04 0.175E-04
CGA:  92    -0.668206127372E+03   -0.49132E-04    0.13610E-06  8424   0.117E-04 0.536E-05
CGA:  93    -0.668206231684E+03   -0.10431E-03    0.14093E-06  8424   0.110E-04 0.170E-04
CGA:  94    -0.668206284361E+03   -0.52678E-04    0.11734E-06  8424   0.113E-04 0.523E-05
CGA:  95    -0.668206386103E+03   -0.10174E-03    0.13499E-06  8424   0.107E-04 0.164E-04
CGA:  96    -0.668206433698E+03   -0.47595E-04    0.12183E-06  8424   0.109E-04 0.507E-05
CGA:  97    -0.668206534236E+03   -0.10054E-03    0.12848E-06  8424   0.103E-04 0.159E-04
CGA:  98    -0.668206584634E+03   -0.50399E-04    0.10641E-06  8424   0.105E-04 0.496E-05
CGA:  99    -0.668206682485E+03   -0.97851E-04    0.12291E-06  8424   0.993E-05 0.154E-04
CGA: 100    -0.668206728680E+03   -0.46194E-04    0.10869E-06  8424   0.101E-04 0.485E-05
CGA: 101    -0.668206825107E+03   -0.96428E-04    0.11643E-06  8424   0.959E-05 0.149E-04
CGA: 102    -0.668206873246E+03   -0.48139E-04    0.96489E-07  8424   0.966E-05 0.479E-05
CGA: 103    -0.668206966767E+03   -0.93521E-04    0.11095E-06  8424   0.925E-05 0.143E-04
CGA: 104    -0.668207011697E+03   -0.44930E-04    0.96425E-07  8424   0.920E-05 0.474E-05
CGA: 105    -0.668207058692E+03   -0.46995E-04    0.90900E-07  8424   0.926E-05 0.458E-05
