       N       E                     dE             d eps       ncg     rms          ort
DAV:   1     0.112444511236E+05    0.11244E+05   -0.46610E+05  8540   0.170E+03
DAV:   2     0.281732473079E+02   -0.11216E+05   -0.10205E+05  8540   0.487E+02
DAV:   3    -0.160821156371E+04   -0.16364E+04   -0.15508E+04  8540   0.198E+02
DAV:   4    -0.169246162668E+04   -0.84250E+02   -0.83026E+02  8540   0.457E+01
DAV:   5    -0.169353897572E+04   -0.10773E+01   -0.10740E+01  8540   0.559E+00
SDA:   6    -0.804350461440E+03    0.88919E+03   -0.10740E+01  8540   0.299E+04 0.000E+00
CGA:   7    -0.122318911298E+04   -0.41884E+03   -0.42268E+03  8540   0.429E+03 0.117E+02
CGA:   8    -0.127706581181E+04   -0.53877E+02   -0.55444E+02  8540   0.107E+03 0.603E+02
CGA:   9    -0.129895801585E+04   -0.21892E+02   -0.19644E+02  8540   0.171E+03-0.116E+03
CGA:  10    -0.130721327105E+04   -0.82553E+01   -0.19110E+02  8540   0.322E+02 0.146E+02
CGA:  11    -0.131393229277E+04   -0.67190E+01   -0.39566E+01  8540   0.128E+02 0.161E+02
CGA:  12    -0.132295796965E+04   -0.90257E+01   -0.91306E+01  8540   0.413E+01-0.760E+00
CGA:  13    -0.132328504749E+04   -0.32708E+00   -0.20083E+00  8540   0.168E+01 0.227E+01
CGA:  14    -0.132360273739E+04   -0.31769E+00   -0.31690E+00  8540   0.110E+01-0.293E-01
CGA:  15    -0.132371134284E+04   -0.10861E+00   -0.14007E+00  8540   0.453E+00-0.825E-02
CGA:  16    -0.132383746206E+04   -0.12612E+00   -0.14250E+00  8540   0.239E+00-0.139E+00
CGA:  17    -0.132388791225E+04   -0.50450E-01   -0.54689E-01  8540   0.108E+00-0.388E-01
CGA:  18    -0.132377234872E+04    0.11556E+00   -0.66533E-01  8540   0.381E+01-0.712E+00
CGA:  19    -0.132390804192E+04   -0.13569E+00   -0.44782E+00  8540   0.290E+00-0.329E+00
CGA:  20    -0.132394907366E+04   -0.41032E-01   -0.31406E-01  8540   0.276E-01 0.779E-01
CGA:  21    -0.132395240681E+04   -0.33331E-02   -0.34159E-02  8540   0.116E-01 0.836E-02
CGA:  22    -0.132395472018E+04   -0.23134E-02   -0.25654E-02  8540   0.107E-01 0.517E-02
CGA:  23    -0.132395628756E+04   -0.15674E-02   -0.19384E-02  8540   0.345E-02 0.354E-02
CGA:  24    -0.132395661260E+04   -0.32503E-03   -0.54756E-03  8540   0.211E-02 0.243E-02
CGA:  25    -0.132395679114E+04   -0.17854E-03   -0.27534E-03  8540   0.102E-02 0.127E-02
CGA:  26    -0.132395690551E+04   -0.11437E-03   -0.15461E-03  8540   0.635E-03 0.781E-03
CGA:  27    -0.132395692174E+04   -0.16226E-04   -0.68310E-04  8540   0.498E-03 0.559E-03
CGA:  28    -0.132395692539E+04   -0.36481E-05   -0.48309E-04  8540   0.411E-03 0.451E-03
CGA:  29    -0.132395692159E+04    0.37953E-05   -0.35746E-04  8540   0.352E-03 0.379E-03
CGA:  30    -0.132395691427E+04    0.73201E-05   -0.27801E-04  8540   0.308E-03 0.328E-03
CGA:  31    -0.132395690535E+04    0.89206E-05   -0.22368E-04  8540   0.274E-03 0.290E-03
CGA:  32    -0.132395689582E+04    0.95354E-05   -0.18434E-04  8540   0.247E-03 0.259E-03
CGA:  33    -0.132395688620E+04    0.96202E-05   -0.15471E-04  8540   0.224E-03 0.234E-03
CGA:  34    -0.132395687678E+04    0.94193E-05   -0.13170E-04  8540   0.205E-03 0.214E-03
CGA:  35    -0.132395686770E+04    0.90726E-05   -0.11337E-04  8540   0.189E-03 0.196E-03
   1 F= -.13239569E+04 E0= -.13239563E+04  d E =-.132396E+04  mag=   125.9883
       N       E                     dE             d eps       ncg     rms          ort
SDA:   1    -0.132395568004E+04    0.11967E-02    0.00000E+00  8540   0.104E-01 0.000E+00
CGA:   2    -0.132395820532E+04   -0.25253E-02   -0.25219E-02  8540   0.459E-02 0.373E-04
CGA:   3    -0.132395915672E+04   -0.95140E-03   -0.93626E-03  8540   0.928E-03 0.304E-03
CGA:   4    -0.132395938837E+04   -0.23165E-03   -0.24144E-03  8540   0.246E-03-0.111E-03
CGA:   5    -0.132395941052E+04   -0.22152E-04   -0.25918E-04  8540   0.716E-04 0.918E-04
CGA:   6    -0.132395942293E+04   -0.12414E-04   -0.13050E-04  8540   0.256E-04 0.248E-04
CGA:   7    -0.132395944151E+04   -0.18580E-04    0.37770E-05  8540   0.143E-04 0.130E-04
CGA:   8    -0.132395945016E+04   -0.86492E-05    0.12212E-05  8540   0.670E-05 0.803E-05
   2 F= -.13239595E+04 E0= -.13239590E+04  d E =-.258246E-02  mag=   125.9904
       N       E                     dE             d eps       ncg     rms          ort
SDA:   1    -0.132390107457E+04    0.58367E-01    0.00000E+00  8540   0.185E+00 0.000E+00
CGA:   2    -0.132394747789E+04   -0.46403E-01   -0.46576E-01  8540   0.850E-01-0.185E-02
CGA:   3    -0.132396524547E+04   -0.17768E-01   -0.17732E-01  8540   0.174E-01 0.699E-03
CGA:   4    -0.132396891909E+04   -0.36736E-02   -0.36814E-02  8540   0.312E-02-0.159E-03
CGA:   5    -0.132396961176E+04   -0.69266E-03   -0.70316E-03  8540   0.760E-03-0.173E-03
CGA:   6    -0.132396979332E+04   -0.18156E-03   -0.28788E-03  8540   0.702E-03-0.460E-03
CGA:   7    -0.132396988245E+04   -0.89130E-04   -0.94997E-04  8540   0.753E-04 0.128E-03
CGA:   8    -0.132396988995E+04   -0.74932E-05   -0.10419E-04  8540   0.306E-04 0.473E-04
   3 F= -.13239699E+04 E0= -.13239697E+04  d E =-.104398E-01  mag=   125.9973
       N       E                     dE             d eps       ncg     rms          ort
SDA:   1    -0.131869776676E+04    0.52721E+01    0.00000E+00  8540   0.139E+02 0.000E+00
CGA:   2    -0.132235136848E+04   -0.36536E+01   -0.36523E+01  8540   0.623E+01 0.919E-02
CGA:   3    -0.132364401445E+04   -0.12926E+01   -0.12923E+01  8540   0.127E+01 0.953E-02
CGA:   4    -0.132390793564E+04   -0.26392E+00   -0.26383E+00  8540   0.212E+00 0.283E-02
CGA:   5    -0.132395485466E+04   -0.46919E-01   -0.46975E-01  8540   0.491E-01-0.149E-02
CGA:   6    -0.132396767780E+04   -0.12823E-01   -0.12962E-01  8540   0.137E-01-0.171E-02
CGA:   7    -0.132397124598E+04   -0.35682E-02   -0.35515E-02  8540   0.395E-02 0.204E-03
CGA:   8    -0.132397231512E+04   -0.10691E-02   -0.10171E-02  8540   0.107E-02 0.838E-03
CGA:   9    -0.132397272293E+04   -0.40781E-03   -0.38688E-03  8540   0.386E-03 0.203E-03
CGA:  10    -0.132397288459E+04   -0.16165E-03   -0.15877E-03  8540   0.150E-03 0.197E-04
CGA:  11    -0.132397294162E+04   -0.57032E-04   -0.61009E-04  8540   0.555E-04-0.221E-04
CGA:  12    -0.132397294481E+04   -0.31938E-05   -0.59072E-05  8540   0.290E-04 0.297E-04
   4 F= -.13239729E+04 E0= -.13239729E+04  d E =-.305486E-02  mag=   126.0000
       N       E                     dE             d eps       ncg     rms          ort
SDA:   1    -0.132318689391E+04    0.78605E+00    0.00000E+00  8540   0.222E+01 0.000E+00
CGA:   2    -0.132372274263E+04   -0.53585E+00   -0.53559E+00  8540   0.987E+00 0.692E-02
CGA:   3    -0.132394163964E+04   -0.21890E+00   -0.21893E+00  8540   0.214E+00-0.269E-02
CGA:   4    -0.132398571035E+04   -0.44071E-01   -0.44071E-01  8540   0.370E-01 0.435E-04
CGA:   5    -0.132399361954E+04   -0.79092E-02   -0.79062E-02  8540   0.809E-02 0.688E-03
CGA:   6    -0.132399558546E+04   -0.19659E-02   -0.19482E-02  8540   0.194E-02 0.653E-03
CGA:   7    -0.132399613793E+04   -0.55248E-03   -0.54220E-03  8540   0.544E-03 0.217E-03
CGA:   8    -0.132399633454E+04   -0.19660E-03   -0.33339E-03  8540   0.747E-03-0.404E-03
CGA:   9    -0.132399643926E+04   -0.10473E-03   -0.11739E-03  8540   0.941E-04 0.174E-03
CGA:  10    -0.132399645969E+04   -0.20431E-04   -0.21760E-04  8540   0.272E-04 0.342E-04
CGA:  11    -0.132399646542E+04   -0.57280E-05   -0.64996E-05  8540   0.109E-04 0.156E-04
   5 F= -.13239965E+04 E0= -.13239965E+04  d E =-.235206E-01  mag=   126.0000
       N       E                     dE             d eps       ncg     rms          ort
SDA:   1    -0.132396108224E+04    0.35377E-01    0.00000E+00  8540   0.965E-01 0.000E+00
CGA:   2    -0.132398717364E+04   -0.26091E-01   -0.26052E-01  8540   0.441E-01 0.735E-03
CGA:   3    -0.132399623588E+04   -0.90622E-02   -0.90506E-02  8540   0.863E-02-0.687E-03
CGA:   4    -0.132399806969E+04   -0.18338E-02   -0.18325E-02  8540   0.160E-02-0.298E-03
CGA:   5    -0.132399835660E+04   -0.28692E-03   -0.29190E-03  8540   0.298E-03 0.162E-03
CGA:   6    -0.132399840280E+04   -0.46195E-04   -0.53381E-04  8540   0.878E-04 0.128E-03
CGA:   7    -0.132399841843E+04   -0.15632E-04   -0.19026E-04  8540   0.345E-04 0.529E-04
CGA:   8    -0.132399843402E+04   -0.15591E-04    0.58002E-04  8540   0.154E-04 0.174E-04
CGA:   9    -0.132399844196E+04   -0.79388E-05   -0.68023E-05  8540   0.862E-05 0.498E-05
CGA:  10    -0.132399841793E+04    0.24024E-04   -0.13470E-04  8540   0.173E-03-0.345E-04
CGA:  11    -0.132399843751E+04   -0.19579E-04   -0.25525E-04  8540   0.126E-04 0.228E-04
CGA:  12    -0.132399844385E+04   -0.63397E-05   -0.64936E-05  8540   0.161E-04-0.256E-05
   6 F= -.13239984E+04 E0= -.13239984E+04  d E =-.197843E-02  mag=   126.0000
       N       E                     dE             d eps       ncg     rms          ort
SDA:   1    -0.132379857832E+04    0.19986E+00    0.00000E+00  8540   0.482E+00 0.000E+00
CGA:   2    -0.132396168762E+04   -0.16311E+00   -0.16310E+00  8540   0.159E+00-0.225E-03
CGA:   3    -0.132399190394E+04   -0.30216E-01   -0.30195E-01  8540   0.349E-01-0.180E-03
CGA:   4    -0.132399919452E+04   -0.72906E-02   -0.72497E-02  8540   0.531E-02-0.243E-03
CGA:   5    -0.132400031273E+04   -0.11182E-02   -0.11408E-02  8540   0.124E-02 0.144E-03
CGA:   6    -0.132400059244E+04   -0.27971E-03   -0.29618E-03  8540   0.286E-03 0.126E-03
CGA:   7    -0.132400069367E+04   -0.10123E-03   -0.10070E-03  8540   0.128E-03-0.137E-04
CGA:   8    -0.132400074158E+04   -0.47915E-04   -0.49359E-04  8540   0.643E-04-0.285E-04
CGA:   9    -0.132400075548E+04   -0.13900E-04   -0.13881E-04  8540   0.175E-04-0.230E-06
CGA:  10    -0.132400075940E+04   -0.39194E-05   -0.42506E-05  8540   0.535E-05 0.300E-05
   7 F= -.13240008E+04 E0= -.13240008E+04  d E =-.231555E-02  mag=   126.0000
       N       E                     dE             d eps       ncg     rms          ort
SDA:   1    -0.132380640798E+04    0.19435E+00    0.00000E+00  8540   0.466E+00 0.000E+00
CGA:   2    -0.132396518856E+04   -0.15878E+00   -0.15877E+00  8540   0.150E+00-0.117E-02
CGA:   3    -0.132399373458E+04   -0.28546E-01   -0.28738E-01  8540   0.328E-01 0.120E-02
CGA:   4    -0.132400040604E+04   -0.66715E-02   -0.66978E-02  8540   0.468E-02 0.191E-03
CGA:   5    -0.132400157438E+04   -0.11683E-02   -0.11468E-02  8540   0.135E-02-0.247E-03
CGA:   6    -0.132400188379E+04   -0.30941E-03   -0.30909E-03  8540   0.300E-03-0.397E-05
CGA:   7    -0.132400195310E+04   -0.69314E-04   -0.73217E-04  8540   0.889E-04 0.499E-04
CGA:   8    -0.132400197211E+04   -0.19014E-04   -0.22885E-04  8540   0.321E-04 0.395E-04
CGA:   9    -0.132400197850E+04   -0.63829E-05   -0.89597E-05  8540   0.135E-04 0.214E-04
   8 F= -.13240020E+04 E0= -.13240020E+04  d E =-.121910E-02  mag=   126.0000
       N       E                     dE             d eps       ncg     rms          ort
SDA:   1    -0.132327834486E+04    0.72363E+00    0.00000E+00  8540   0.177E+01 0.000E+00
CGA:   2    -0.132383397749E+04   -0.55563E+00   -0.55561E+00  8540   0.685E+00-0.362E-02
CGA:   3    -0.132396386522E+04   -0.12989E+00   -0.13025E+00  8540   0.140E+00 0.255E-02
CGA:   4    -0.132399301914E+04   -0.29154E-01   -0.29189E-01  8540   0.213E-01 0.313E-03
CGA:   5    -0.132399792728E+04   -0.49081E-02   -0.48735E-02  8540   0.550E-02-0.445E-03
CGA:   6    -0.132399932523E+04   -0.13980E-02   -0.13905E-02  8540   0.138E-02-0.166E-03
CGA:   7    -0.132399969376E+04   -0.36853E-03   -0.36936E-03  8540   0.434E-03 0.317E-04
CGA:   8    -0.132399979742E+04   -0.10366E-03   -0.10977E-03  8540   0.124E-03 0.115E-03
CGA:   9    -0.132399984213E+04   -0.44709E-04   -0.44986E-04  8540   0.457E-04 0.291E-04
CGA:  10    -0.132399986509E+04   -0.22961E-04   -0.24953E-04  8540   0.283E-04-0.137E-04
CGA:  11    -0.132399986864E+04   -0.35559E-05   -0.39847E-05  8540   0.112E-04 0.415E-05
   9 F= -.13239999E+04 E0= -.13239999E+04  d E =0.210985E-02  mag=   126.0000
       N       E                     dE             d eps       ncg     rms          ort
SDA:   1    -0.132385432946E+04    0.14554E+00    0.00000E+00  8540   0.391E+00 0.000E+00
CGA:   2    -0.132395688430E+04   -0.10255E+00   -0.10259E+00  8540   0.173E+00 0.121E-02
CGA:   3    -0.132399288575E+04   -0.36001E-01   -0.35941E-01  8540   0.350E-01-0.784E-03
CGA:   4    -0.132400024033E+04   -0.73546E-02   -0.73472E-02  8540   0.597E-02-0.102E-03
CGA:   5    -0.132400151747E+04   -0.12771E-02   -0.12821E-02  8540   0.133E-02 0.743E-04
CGA:   6    -0.132400183808E+04   -0.32061E-03   -0.32416E-03  8540   0.318E-03 0.973E-04
CGA:   7    -0.132400193850E+04   -0.10042E-03   -0.10050E-03  8540   0.110E-03-0.403E-05
CGA:   8    -0.132400136746E+04    0.57104E-03   -0.30760E-03  8540   0.294E-02-0.503E-03
CGA:   9    -0.132400187456E+04   -0.50710E-03   -0.55576E-03  8540   0.327E-03 0.154E-03
CGA:  10    -0.132400197898E+04   -0.10442E-03   -0.10831E-03  8540   0.109E-03 0.223E-04
CGA:  11    -0.132400199366E+04   -0.14681E-04   -0.25600E-04  8540   0.357E-04 0.420E-04
CGA:  12    -0.132400201886E+04   -0.25198E-04   -0.27535E-04  8540   0.471E-04-0.261E-04
CGA:  13    -0.132400202591E+04   -0.70470E-05   -0.92609E-05  8540   0.441E-05 0.805E-05
  10 F= -.13240020E+04 E0= -.13240020E+04  d E =-.215727E-02  mag=   126.0000
       N       E                     dE             d eps       ncg     rms          ort
SDA:   1    -0.132390550138E+04    0.96517E-01    0.00000E+00  8540   0.237E+00 0.000E+00
CGA:   2    -0.132398133447E+04   -0.75833E-01   -0.75857E-01  8540   0.866E-01 0.174E-03
CGA:   3    -0.132399812344E+04   -0.16789E-01   -0.16677E-01  8540   0.183E-01-0.478E-03
CGA:   4    -0.132400191190E+04   -0.37885E-02   -0.37736E-02  8540   0.273E-02-0.683E-04
CGA:   5    -0.132400248348E+04   -0.57158E-03   -0.59004E-03  8540   0.643E-03 0.943E-04
CGA:   6    -0.132400264225E+04   -0.15877E-03   -0.16411E-03  8540   0.153E-03 0.343E-04
CGA:   7    -0.132400269987E+04   -0.57617E-04   -0.56516E-04  8540   0.779E-04-0.250E-04
CGA:   8    -0.132400272708E+04   -0.27215E-04   -0.36458E-04  8540   0.928E-04-0.551E-04
CGA:   9    -0.132400274006E+04   -0.12973E-04   -0.16323E-04  8540   0.115E-04 0.149E-04
CGA:  10    -0.132400274147E+04   -0.14133E-05   -0.25635E-05  8540   0.394E-05 0.582E-05
  11 F= -.13240027E+04 E0= -.13240027E+04  d E =-.715561E-03  mag=   126.0000
       N       E                     dE             d eps       ncg     rms          ort
SDA:   1    -0.132398891811E+04    0.13822E-01    0.00000E+00  8540   0.375E-01 0.000E+00
CGA:   2    -0.132399782563E+04   -0.89075E-02   -0.89054E-02  8540   0.183E-01-0.337E-04
CGA:   3    -0.132400187905E+04   -0.40534E-02   -0.40582E-02  8540   0.372E-02 0.263E-04
CGA:   4    -0.132400262767E+04   -0.74862E-03   -0.75000E-03  8540   0.634E-03 0.762E-05
CGA:   5    -0.132400277227E+04   -0.14459E-03   -0.14360E-03  8540   0.149E-03-0.793E-05
CGA:   6    -0.132400280790E+04   -0.35639E-04   -0.35681E-04  8540   0.355E-04 0.359E-06
CGA:   7    -0.132400281600E+04   -0.80995E-05   -0.85772E-05  8540   0.859E-05 0.469E-05
  12 F= -.13240028E+04 E0= -.13240028E+04  d E =-.745335E-04  mag=   126.0000
       N       E                     dE             d eps       ncg     rms          ort
SDA:   1    -0.132393485025E+04    0.67958E-01    0.00000E+00  8540   0.173E+00 0.000E+00
CGA:   2    -0.132398056408E+04   -0.45714E-01   -0.45713E-01  8540   0.890E-01-0.802E-04
CGA:   3    -0.132399868103E+04   -0.18117E-01   -0.18128E-01  8540   0.156E-01 0.716E-04
CGA:   4    -0.132400185946E+04   -0.31784E-02   -0.31842E-02  8540   0.272E-02 0.462E-04
CGA:   5    -0.132400247378E+04   -0.61432E-03   -0.61235E-03  8540   0.629E-03-0.227E-04
CGA:   6    -0.132400262538E+04   -0.15160E-03   -0.15174E-03  8540   0.152E-03 0.193E-05
CGA:   7    -0.132400266276E+04   -0.37373E-04   -0.38235E-04  8540   0.389E-04 0.156E-04
CGA:   8    -0.132400267140E+04   -0.86399E-05   -0.96984E-05  8540   0.118E-04 0.136E-04
  13 F= -.13240027E+04 E0= -.13240027E+04  d E =0.144608E-03  mag=   126.0000
       N       E                     dE             d eps       ncg     rms          ort
SDA:   1    -0.132386205689E+04    0.14061E+00    0.00000E+00  8540   0.368E+00 0.000E+00
CGA:   2    -0.132395368126E+04   -0.91624E-01   -0.91634E-01  8540   0.183E+00 0.358E-04
CGA:   3    -0.132399270382E+04   -0.39023E-01   -0.39012E-01  8540   0.342E-01-0.141E-03
CGA:   4    -0.132399970788E+04   -0.70041E-02   -0.69963E-02  8540   0.596E-02-0.965E-04
CGA:   5    -0.132400103887E+04   -0.13310E-02   -0.13329E-02  8540   0.134E-02 0.291E-04
CGA:   6    -0.132400135744E+04   -0.31856E-03   -0.32056E-03  8540   0.309E-03 0.447E-04
CGA:   7    -0.132400144499E+04   -0.87557E-04   -0.87618E-04  8540   0.878E-04 0.113E-04
CGA:   8    -0.132400147008E+04   -0.25087E-04   -0.25130E-04  8540   0.251E-04 0.126E-04
CGA:   9    -0.132400147923E+04   -0.91471E-05   -0.90106E-05  8540   0.831E-05 0.396E-05
  14 F= -.13240015E+04 E0= -.13240015E+04  d E =0.119217E-02  mag=   126.0000
       N       E                     dE             d eps       ncg     rms          ort
SDA:   1    -0.132395012153E+04    0.51349E-01    0.00000E+00  8540   0.141E+00 0.000E+00
CGA:   2    -0.132398390794E+04   -0.33786E-01   -0.33800E-01  8540   0.691E-01 0.289E-03
CGA:   3    -0.132399913727E+04   -0.15229E-01   -0.15229E-01  8540   0.139E-01-0.162E-04
CGA:   4    -0.132400191388E+04   -0.27766E-02   -0.27836E-02  8540   0.234E-02 0.940E-04
CGA:   5    -0.132400243333E+04   -0.51945E-03   -0.52149E-03  8540   0.528E-03 0.409E-04
CGA:   6    -0.132400256609E+04   -0.13277E-03   -0.13277E-03  8540   0.130E-03 0.188E-06
CGA:   7    -0.132400260073E+04   -0.34633E-04   -0.34639E-04  8540   0.346E-04 0.615E-05
CGA:   8    -0.132400261421E+04   -0.13479E-04   -0.15723E-04  8540   0.241E-04-0.134E-04
CGA:   9    -0.132400261559E+04   -0.13851E-05   -0.21712E-05  8540   0.116E-04 0.616E-05
  15 F= -.13240026E+04 E0= -.13240026E+04  d E =-.113636E-02  mag=   126.0000
       N       E                     dE             d eps       ncg     rms          ort
SDA:   1    -0.132399685175E+04    0.57625E-02    0.00000E+00  8540   0.176E-01 0.000E+00
CGA:   2    -0.132400051920E+04   -0.36674E-02   -0.36689E-02  8540   0.722E-02 0.197E-04
CGA:   3    -0.132400229060E+04   -0.17714E-02   -0.17718E-02  8540   0.176E-02 0.283E-04
CGA:   4    -0.132400265877E+04   -0.36817E-03   -0.36694E-03  8540   0.316E-03-0.253E-04
CGA:   5    -0.132400272279E+04   -0.64014E-04   -0.64640E-04  8540   0.648E-04 0.131E-04
CGA:   6    -0.132400273618E+04   -0.13391E-04   -0.13974E-04  8540   0.141E-04 0.128E-04
CGA:   7    -0.132400274193E+04   -0.57495E-05   -0.65413E-05  8540   0.100E-04-0.581E-05
  16 F= -.13240027E+04 E0= -.13240027E+04  d E =-.126338E-03  mag=   126.0000
