       N       E                     dE             d eps       ncg     rms          rms(c)
DAV:   1     0.103695096281E+05    0.10370E+05   -0.37705E+05 32000   0.141E+03
DAV:   2     0.523975951421E+03   -0.98455E+04   -0.92924E+04 31380   0.452E+02
DAV:   3    -0.852444298401E+03   -0.13764E+04   -0.12742E+04 34710   0.173E+02
DAV:   4    -0.936998298142E+03   -0.84554E+02   -0.82209E+02 39290   0.448E+01
DAV:   5    -0.939525042338E+03   -0.25267E+01   -0.25187E+01 38410   0.838E+00    0.189E+02
DAV:   6    -0.425051070813E+03    0.51447E+03   -0.12056E+03 38930   0.770E+01    0.915E+01
DAV:   7    -0.660477094173E+03   -0.23543E+03   -0.40862E+02 40060   0.631E+01    0.757E+01
DAV:   8    -0.690620373274E+03   -0.30143E+02   -0.55075E+01 40960   0.193E+01    0.502E+01
DAV:   9    -0.736622940075E+03   -0.46003E+02   -0.39550E+01 40110   0.146E+01    0.383E+01
DAV:  10    -0.770293924227E+03   -0.33671E+02   -0.36365E+01 41760   0.155E+01    0.294E+01
DAV:  11    -0.790361951483E+03   -0.20068E+02   -0.30023E+01 39450   0.103E+01    0.153E+01
DAV:  12    -0.793816270933E+03   -0.34543E+01   -0.89983E+00 39410   0.702E+00    0.114E+01
DAV:  13    -0.794859755991E+03   -0.10435E+01   -0.18410E+00 40040   0.468E+00    0.714E+00
DAV:  14    -0.795303883067E+03   -0.44413E+00   -0.72181E-01 38210   0.228E+00    0.436E+00
DAV:  15    -0.795580390056E+03   -0.27651E+00   -0.31434E-01 40520   0.164E+00    0.248E+00
DAV:  16    -0.795642768068E+03   -0.62378E-01   -0.12824E-01 36200   0.108E+00    0.135E+00
DAV:  17    -0.795661546896E+03   -0.18779E-01   -0.41743E-02 34450   0.569E-01    0.870E-01
DAV:  18    -0.795669781977E+03   -0.82351E-02   -0.11421E-02 33800   0.292E-01    0.712E-01
DAV:  19    -0.795676102574E+03   -0.63206E-02   -0.40241E-03 38980   0.176E-01    0.560E-01
DAV:  20    -0.795683738375E+03   -0.76358E-02   -0.45999E-03 41410   0.205E-01    0.424E-01
DAV:  21    -0.795688667798E+03   -0.49294E-02   -0.46278E-03 39180   0.163E-01    0.362E-01
DAV:  22    -0.795691710442E+03   -0.30426E-02   -0.21628E-03 38340   0.107E-01    0.313E-01
DAV:  23    -0.795695858398E+03   -0.41480E-02   -0.30552E-03 43800   0.159E-01    0.254E-01
DAV:  24    -0.795699452033E+03   -0.35936E-02   -0.60955E-03 42760   0.220E-01    0.208E-01
DAV:  25    -0.795701579398E+03   -0.21274E-02   -0.49055E-03 41110   0.161E-01    0.154E-01
DAV:  26    -0.795702608683E+03   -0.10293E-02   -0.17524E-03 38300   0.853E-02    0.120E-01
DAV:  27    -0.795703025511E+03   -0.41683E-03   -0.51138E-04 35670   0.427E-02    0.823E-02
DAV:  28    -0.795703293452E+03   -0.26794E-03   -0.31010E-04 43130   0.517E-02    0.608E-02
DAV:  29    -0.795703455148E+03   -0.16170E-03   -0.36163E-04 39460   0.427E-02    0.474E-02
DAV:  30    -0.795703539016E+03   -0.83867E-04   -0.14476E-04 33260   0.236E-02    0.374E-02
DAV:  31    -0.795703586736E+03   -0.47721E-04   -0.41728E-05 26210   0.157E-02    0.316E-02
DAV:  32    -0.795703630837E+03   -0.44101E-04   -0.52496E-05 33980   0.208E-02    0.239E-02
DAV:  33    -0.795703659028E+03   -0.28190E-04   -0.63329E-05 32590   0.180E-02    0.211E-02
DAV:  34    -0.795703675668E+03   -0.16640E-04   -0.28861E-05 24920   0.115E-02    0.151E-02
DAV:  35    -0.795703684143E+03   -0.84747E-05   -0.12693E-05 20650   0.800E-03
   1 F= -.79570368E+03 E0= -.79570368E+03  d E =-.795704E+03  mag=    47.0005
       N       E                     dE             d eps       ncg     rms          rms(c)
DAV:   1    -0.795736617506E+03   -0.32942E-01   -0.65626E-02 35060   0.805E-01    0.129E-01
DAV:   2    -0.795737479457E+03   -0.86195E-03   -0.92839E-03 33560   0.167E-01    0.130E-01
DAV:   3    -0.795737519781E+03   -0.40324E-04   -0.33105E-04 37800   0.434E-02    0.731E-02
DAV:   4    -0.795737519828E+03   -0.46741E-07   -0.53916E-05 37070   0.219E-02
   2 F= -.79573752E+03 E0= -.79573752E+03  d E =-.338357E-01  mag=    47.0000
       N       E                     dE             d eps       ncg     rms          rms(c)
DAV:   1    -0.795438618969E+03    0.29890E+00   -0.83772E+01 34510   0.286E+01    0.410E+00
DAV:   2    -0.796532506092E+03   -0.10939E+01   -0.11710E+01 33670   0.623E+00    0.437E+00
DAV:   3    -0.796576105414E+03   -0.43599E-01   -0.43770E-01 40470   0.165E+00    0.232E+00
DAV:   4    -0.796574976564E+03    0.11288E-02   -0.53827E-02 43340   0.716E-01    0.210E+00
DAV:   5    -0.796569862578E+03    0.51140E-02   -0.45836E-02 39890   0.568E-01    0.592E-01
DAV:   6    -0.796570361541E+03   -0.49896E-03   -0.98961E-03 41010   0.273E-01    0.368E-01
DAV:   7    -0.796570508738E+03   -0.14720E-03   -0.37090E-03 39140   0.124E-01    0.230E-01
DAV:   8    -0.796570671859E+03   -0.16312E-03   -0.36849E-04 41820   0.736E-02    0.148E-01
DAV:   9    -0.796570879631E+03   -0.20777E-03   -0.30327E-04 41070   0.555E-02    0.109E-01
DAV:  10    -0.796571069252E+03   -0.18962E-03   -0.19160E-04 39140   0.368E-02    0.860E-02
DAV:  11    -0.796571236325E+03   -0.16707E-03   -0.14618E-04 38440   0.274E-02    0.743E-02
DAV:  12    -0.796571441312E+03   -0.20499E-03   -0.15561E-04 39160   0.345E-02    0.615E-02
DAV:  13    -0.796571623088E+03   -0.18178E-03   -0.32867E-04 41930   0.498E-02    0.471E-02
DAV:  14    -0.796571722808E+03   -0.99720E-04   -0.28698E-04 39730   0.372E-02    0.360E-02
DAV:  15    -0.796571768153E+03   -0.45345E-04   -0.97449E-05 30540   0.195E-02    0.229E-02
DAV:  16    -0.796571784650E+03   -0.16497E-04   -0.29344E-05 22790   0.106E-02    0.148E-02
DAV:  17    -0.796571791912E+03   -0.72627E-05   -0.95243E-06 20780   0.714E-03
   3 F= -.79657179E+03 E0= -.79657179E+03  d E =-.834272E+00  mag=    47.0000
       N       E                     dE             d eps       ncg     rms          rms(c)
DAV:   1    -0.795551494161E+03    0.10203E+01   -0.76152E+01 34410   0.292E+01    0.419E+00
DAV:   2    -0.796737324461E+03   -0.11858E+01   -0.12630E+01 33650   0.636E+00    0.342E+00
DAV:   3    -0.796796638589E+03   -0.59314E-01   -0.48560E-01 41600   0.172E+00    0.170E+00
DAV:   4    -0.796790684725E+03    0.59539E-02   -0.47725E-02 43150   0.657E-01    0.138E+00
DAV:   5    -0.796786844832E+03    0.38399E-02   -0.36968E-02 38400   0.474E-01    0.482E-01
DAV:   6    -0.796788044452E+03   -0.11996E-02   -0.62597E-03 38110   0.240E-01    0.270E-01
DAV:   7    -0.796788292731E+03   -0.24828E-03   -0.31526E-03 38950   0.119E-01    0.170E-01
DAV:   8    -0.796788446694E+03   -0.15396E-03   -0.32887E-04 41030   0.623E-02    0.116E-01
DAV:   9    -0.796788633210E+03   -0.18652E-03   -0.22675E-04 41090   0.484E-02    0.890E-02
DAV:  10    -0.796788778971E+03   -0.14576E-03   -0.13305E-04 36530   0.305E-02    0.723E-02
DAV:  11    -0.796788893981E+03   -0.11501E-03   -0.76448E-05 32630   0.227E-02    0.636E-02
DAV:  12    -0.796789055475E+03   -0.16149E-03   -0.13157E-04 40680   0.319E-02    0.522E-02
DAV:  13    -0.796789200417E+03   -0.14494E-03   -0.23021E-04 41190   0.420E-02    0.405E-02
DAV:  14    -0.796789286403E+03   -0.85986E-04   -0.21886E-04 39300   0.363E-02    0.322E-02
DAV:  15    -0.796789330901E+03   -0.44498E-04   -0.97910E-05 31610   0.198E-02    0.222E-02
DAV:  16    -0.796789348085E+03   -0.17184E-04   -0.26484E-05 22520   0.107E-02    0.158E-02
DAV:  17    -0.796789357097E+03   -0.90120E-05   -0.12249E-05 22710   0.769E-03
   4 F= -.79678936E+03 E0= -.79678936E+03  d E =-.217565E+00  mag=    47.0000
       N       E                     dE             d eps       ncg     rms          rms(c)
DAV:   1    -0.796786487988E+03    0.28601E-02   -0.80840E-01 35020   0.289E+00    0.350E-01
DAV:   2    -0.796795812613E+03   -0.93246E-02   -0.97760E-02 33540   0.578E-01    0.252E-01
DAV:   3    -0.796796268952E+03   -0.45634E-03   -0.31240E-03 40800   0.137E-01    0.136E-01
DAV:   4    -0.796796218445E+03    0.50507E-04   -0.30096E-04 44300   0.516E-02    0.104E-01
DAV:   5    -0.796796200698E+03    0.17747E-04   -0.22424E-04 38710   0.412E-02    0.389E-02
DAV:   6    -0.796796209423E+03   -0.87248E-05   -0.47357E-05 32950   0.220E-02
   5 F= -.79679621E+03 E0= -.79679621E+03  d E =-.685233E-02  mag=    47.0000
       N       E                     dE             d eps       ncg     rms          rms(c)
DAV:   1    -0.795541672570E+03    0.12545E+01   -0.12713E+02 34580   0.342E+01    0.402E+00
DAV:   2    -0.796699211615E+03   -0.11575E+01   -0.11896E+01 33410   0.640E+00    0.269E+00
DAV:   3    -0.796750044553E+03   -0.50833E-01   -0.27689E-01 38500   0.133E+00    0.142E+00
DAV:   4    -0.796745725220E+03    0.43193E-02   -0.29602E-02 44220   0.544E-01    0.110E+00
DAV:   5    -0.796745886894E+03   -0.16167E-03   -0.18560E-02 41700   0.395E-01    0.384E-01
DAV:   6    -0.796747395797E+03   -0.15089E-02   -0.54110E-03 39870   0.206E-01    0.276E-01
DAV:   7    -0.796747927363E+03   -0.53157E-03   -0.12185E-03 39400   0.869E-02    0.201E-01
DAV:   8    -0.796748581704E+03   -0.65434E-03   -0.44307E-04 42190   0.636E-02    0.167E-01
DAV:   9    -0.796749279071E+03   -0.69737E-03   -0.53724E-04 41680   0.632E-02    0.139E-01
DAV:  10    -0.796749770686E+03   -0.49161E-03   -0.46958E-04 40590   0.513E-02    0.123E-01
DAV:  11    -0.796750328038E+03   -0.55735E-03   -0.54195E-04 43010   0.622E-02    0.964E-02
DAV:  12    -0.796750815181E+03   -0.48714E-03   -0.13025E-03 42720   0.958E-02    0.672E-02
DAV:  13    -0.796751082362E+03   -0.26718E-03   -0.97783E-04 42170   0.627E-02    0.483E-02
DAV:  14    -0.796751191096E+03   -0.10873E-03   -0.23266E-04 34870   0.260E-02    0.336E-02
DAV:  15    -0.796751216690E+03   -0.25594E-04   -0.25895E-05 23150   0.101E-02    0.259E-02
DAV:  16    -0.796751236200E+03   -0.19510E-04   -0.11793E-05 19430   0.112E-02    0.198E-02
DAV:  17    -0.796751253702E+03   -0.17502E-04   -0.56156E-05 32350   0.167E-02    0.164E-02
DAV:  18    -0.796751263714E+03   -0.10013E-04   -0.20683E-05 22550   0.880E-03    0.142E-02
DAV:  19    -0.796751271008E+03   -0.72933E-05   -0.56961E-06 17590   0.707E-03
   6 F= -.79675127E+03 E0= -.79675127E+03  d E =0.449384E-01  mag=    47.0000
       N       E                     dE             d eps       ncg     rms          rms(c)
DAV:   1    -0.789586290985E+03    0.71650E+01   -0.48394E+02 34800   0.683E+01    0.100E+01
DAV:   2    -0.795564260275E+03   -0.59780E+01   -0.62507E+01 33860   0.153E+01    0.941E+00
DAV:   3    -0.795720136426E+03   -0.15588E+00   -0.30104E+00 41870   0.500E+00    0.416E+00
DAV:   4    -0.795670823308E+03    0.49313E-01   -0.26751E-01 42520   0.170E+00    0.304E+00
DAV:   5    -0.795646430193E+03    0.24393E-01   -0.15602E-01 38610   0.816E-01    0.170E+00
DAV:   6    -0.795651470963E+03   -0.50408E-02   -0.51444E-02 40770   0.699E-01    0.718E-01
DAV:   7    -0.795652064767E+03   -0.59380E-03   -0.12365E-02 42020   0.303E-01    0.456E-01
DAV:   8    -0.795652968011E+03   -0.90324E-03   -0.22443E-03 41760   0.158E-01    0.302E-01
DAV:   9    -0.795654163961E+03   -0.11960E-02   -0.15904E-03 40410   0.122E-01    0.199E-01
DAV:  10    -0.795654855499E+03   -0.69154E-03   -0.91775E-04 37680   0.731E-02    0.151E-01
DAV:  11    -0.795655236752E+03   -0.38125E-03   -0.35664E-04 37860   0.450E-02    0.140E-01
DAV:  12    -0.795655672356E+03   -0.43560E-03   -0.30054E-04 42220   0.511E-02    0.115E-01
DAV:  13    -0.795656227951E+03   -0.55559E-03   -0.71430E-04 43050   0.848E-02    0.870E-02
DAV:  14    -0.795656598591E+03   -0.37064E-03   -0.78561E-04 40900   0.688E-02    0.801E-02
DAV:  15    -0.795656808175E+03   -0.20958E-03   -0.30515E-04 38320   0.382E-02    0.613E-02
DAV:  16    -0.795656941035E+03   -0.13286E-03   -0.15060E-04 34420   0.260E-02    0.510E-02
DAV:  17    -0.795657052598E+03   -0.11156E-03   -0.15286E-04 39720   0.332E-02    0.386E-02
DAV:  18    -0.795657136514E+03   -0.83916E-04   -0.23718E-04 40150   0.378E-02    0.318E-02
DAV:  19    -0.795657191248E+03   -0.54734E-04   -0.11950E-04 32310   0.199E-02    0.250E-02
DAV:  20    -0.795657212651E+03   -0.21403E-04   -0.15115E-05 20710   0.106E-02    0.205E-02
DAV:  21    -0.795657231595E+03   -0.18944E-04   -0.23888E-05 29600   0.129E-02    0.164E-02
DAV:  22    -0.795657245800E+03   -0.14205E-04   -0.35239E-05 29210   0.137E-02    0.145E-02
DAV:  23    -0.795657255779E+03   -0.99783E-05   -0.20253E-05 22660   0.852E-03
   7 F= -.79565726E+03 E0= -.79565726E+03  d E =0.109402E+01  mag=    47.0000
       N       E                     dE             d eps       ncg     rms          rms(c)
DAV:   1    -0.793914449582E+03    0.17428E+01   -0.17873E+02 35060   0.463E+01    0.616E+00
DAV:   2    -0.796535084909E+03   -0.26206E+01   -0.27799E+01 33590   0.957E+00    0.489E+00
DAV:   3    -0.796674537726E+03   -0.13945E+00   -0.96861E-01 41260   0.240E+00    0.263E+00
DAV:   4    -0.796663340068E+03    0.11198E-01   -0.99002E-02 42210   0.104E+00    0.217E+00
DAV:   5    -0.796658146795E+03    0.51933E-02   -0.83989E-02 39320   0.690E-01    0.871E-01
DAV:   6    -0.796661489345E+03   -0.33425E-02   -0.14257E-02 38950   0.392E-01    0.523E-01
DAV:   7    -0.796662011883E+03   -0.52254E-03   -0.85412E-03 41310   0.207E-01    0.276E-01
DAV:   8    -0.796662483781E+03   -0.47190E-03   -0.87916E-04 40110   0.942E-02    0.185E-01
DAV:   9    -0.796662948762E+03   -0.46498E-03   -0.58960E-04 40030   0.652E-02    0.137E-01
DAV:  10    -0.796663273868E+03   -0.32511E-03   -0.30232E-04 39330   0.466E-02    0.118E-01
DAV:  11    -0.796663562491E+03   -0.28862E-03   -0.19329E-04 38750   0.347E-02    0.106E-01
DAV:  12    -0.796664003803E+03   -0.44131E-03   -0.35314E-04 42930   0.460E-02    0.948E-02
DAV:  13    -0.796664485974E+03   -0.48217E-03   -0.73534E-04 41990   0.645E-02    0.834E-02
DAV:  14    -0.796664882556E+03   -0.39658E-03   -0.95390E-04 41930   0.723E-02    0.687E-02
DAV:  15    -0.796665161525E+03   -0.27897E-03   -0.61593E-04 40170   0.486E-02    0.575E-02
DAV:  16    -0.796665316029E+03   -0.15450E-03   -0.23267E-04 35930   0.319E-02    0.441E-02
DAV:  17    -0.796665416833E+03   -0.10080E-03   -0.21144E-04 36930   0.307E-02    0.357E-02
DAV:  18    -0.796665488273E+03   -0.71441E-04   -0.18233E-04 36700   0.279E-02    0.276E-02
DAV:  19    -0.796665535997E+03   -0.47724E-04   -0.93737E-05 28410   0.166E-02    0.222E-02
DAV:  20    -0.796665556883E+03   -0.20886E-04   -0.16478E-05 21640   0.960E-03    0.194E-02
DAV:  21    -0.796665577278E+03   -0.20394E-04   -0.44247E-05 30680   0.164E-02    0.158E-02
DAV:  22    -0.796665590357E+03   -0.13079E-04   -0.96614E-05 36770   0.219E-02    0.131E-02
DAV:  23    -0.796665606185E+03   -0.15828E-04   -0.36782E-05 25290   0.112E-02    0.103E-02
DAV:  24    -0.796665610135E+03   -0.39498E-05   -0.68782E-06 19380   0.501E-03
   8 F= -.79666561E+03 E0= -.79666561E+03  d E =-.100835E+01  mag=    47.0000
       N       E                     dE             d eps       ncg     rms          rms(c)
DAV:   1    -0.796392101792E+03    0.27350E+00   -0.25965E+01 34220   0.165E+01    0.226E+00
DAV:   2    -0.796741322442E+03   -0.34922E+00   -0.37180E+00 33790   0.337E+00    0.159E+00
DAV:   3    -0.796760636941E+03   -0.19314E-01   -0.13290E-01 40180   0.856E-01    0.867E-01
DAV:   4    -0.796758583474E+03    0.20535E-02   -0.13283E-02 43510   0.317E-01    0.636E-01
DAV:   5    -0.796757808850E+03    0.77462E-03   -0.96806E-03 38270   0.265E-01    0.252E-01
DAV:   6    -0.796757991463E+03   -0.18261E-03   -0.18505E-03 40000   0.144E-01    0.132E-01
DAV:   7    -0.796758057115E+03   -0.65652E-04   -0.77913E-04 40200   0.624E-02    0.824E-02
DAV:   8    -0.796758092893E+03   -0.35779E-04   -0.90933E-05 34340   0.287E-02    0.564E-02
DAV:   9    -0.796758133212E+03   -0.40318E-04   -0.51637E-05 35970   0.213E-02    0.393E-02
DAV:  10    -0.796758158664E+03   -0.25453E-04   -0.25463E-05 26290   0.147E-02    0.326E-02
DAV:  11    -0.796758177621E+03   -0.18957E-04   -0.13367E-05 20490   0.106E-02    0.278E-02
DAV:  12    -0.796758202280E+03   -0.24658E-04   -0.17279E-05 25780   0.107E-02    0.235E-02
DAV:  13    -0.796758231218E+03   -0.28938E-04   -0.33355E-05 31160   0.169E-02    0.187E-02
DAV:  14    -0.796758248994E+03   -0.17776E-04   -0.44341E-05 26570   0.132E-02    0.145E-02
DAV:  15    -0.796758258686E+03   -0.96922E-05   -0.15563E-05 23210   0.969E-03
   9 F= -.79675826E+03 E0= -.79675826E+03  d E =-.926486E-01  mag=    47.0000
       N       E                     dE             d eps       ncg     rms          rms(c)
DAV:   1    -0.796625905224E+03    0.13234E+00   -0.14103E+01 33550   0.102E+01    0.136E+00
DAV:   2    -0.796760712804E+03   -0.13481E+00   -0.13981E+00 33570   0.212E+00    0.125E+00
DAV:   3    -0.796764610589E+03   -0.38978E-02   -0.41012E-02 37280   0.530E-01    0.642E-01
DAV:   4    -0.796763968953E+03    0.64164E-03   -0.52536E-03 44050   0.222E-01    0.567E-01
DAV:   5    -0.796763533831E+03    0.43512E-03   -0.42407E-03 39720   0.181E-01    0.165E-01
DAV:   6    -0.796763660230E+03   -0.12640E-03   -0.99905E-04 40050   0.827E-02    0.107E-01
DAV:   7    -0.796763714932E+03   -0.54702E-04   -0.27202E-04 38490   0.343E-02    0.715E-02
DAV:   8    -0.796763769505E+03   -0.54573E-04   -0.39747E-05 32820   0.211E-02    0.591E-02
DAV:   9    -0.796763835867E+03   -0.66363E-04   -0.52464E-05 35070   0.208E-02    0.471E-02
DAV:  10    -0.796763887803E+03   -0.51935E-04   -0.44904E-05 29320   0.166E-02    0.415E-02
DAV:  11    -0.796763940435E+03   -0.52633E-04   -0.40034E-05 31840   0.166E-02    0.358E-02
DAV:  12    -0.796764002694E+03   -0.62258E-04   -0.89765E-05 36690   0.242E-02    0.270E-02
DAV:  13    -0.796764043506E+03   -0.40813E-04   -0.14961E-04 38720   0.310E-02    0.203E-02
DAV:  14    -0.796764072347E+03   -0.28840E-04   -0.78199E-05 28490   0.165E-02    0.138E-02
DAV:  15    -0.796764080637E+03   -0.82902E-05   -0.13881E-05 20570   0.704E-03
  10 F= -.79676408E+03 E0= -.79676408E+03  d E =-.582195E-02  mag=    47.0000
       N       E                     dE             d eps       ncg     rms          rms(c)
DAV:   1    -0.796479537812E+03    0.28453E+00   -0.35011E+01 34430   0.162E+01    0.195E+00
DAV:   2    -0.796746177568E+03   -0.26664E+00   -0.27355E+00 33390   0.319E+00    0.198E+00
DAV:   3    -0.796752792424E+03   -0.66149E-02   -0.71377E-02 34670   0.769E-01    0.102E+00
DAV:   4    -0.796752307249E+03    0.48517E-03   -0.93048E-03 42730   0.332E-01    0.931E-01
DAV:   5    -0.796751670388E+03    0.63686E-03   -0.74136E-03 41730   0.249E-01    0.265E-01
DAV:   6    -0.796752021234E+03   -0.35085E-03   -0.17786E-03 41680   0.111E-01    0.153E-01
DAV:   7    -0.796752130632E+03   -0.10940E-03   -0.36148E-04 39140   0.470E-02    0.116E-01
DAV:   8    -0.796752259355E+03   -0.12872E-03   -0.10109E-04 39240   0.352E-02    0.891E-02
DAV:   9    -0.796752424757E+03   -0.16540E-03   -0.14964E-04 39690   0.352E-02    0.678E-02
DAV:  10    -0.796752543901E+03   -0.11914E-03   -0.11797E-04 36160   0.256E-02    0.602E-02
DAV:  11    -0.796752664695E+03   -0.12079E-03   -0.99895E-05 37890   0.258E-02    0.500E-02
DAV:  12    -0.796752777348E+03   -0.11265E-03   -0.19220E-04 40360   0.382E-02    0.362E-02
DAV:  13    -0.796752840554E+03   -0.63206E-04   -0.23672E-04 39260   0.361E-02    0.257E-02
DAV:  14    -0.796752880698E+03   -0.40144E-04   -0.10890E-04 29090   0.183E-02    0.170E-02
DAV:  15    -0.796752890367E+03   -0.96697E-05   -0.11305E-05 19450   0.740E-03
  11 F= -.79675289E+03 E0= -.79675289E+03  d E =0.111903E-01  mag=    47.0000
       N       E                     dE             d eps       ncg     rms          rms(c)
DAV:   1    -0.787863441583E+03    0.88894E+01   -0.57776E+02 34410   0.733E+01    0.112E+01
DAV:   2    -0.795477870094E+03   -0.76144E+01   -0.77373E+01 33820   0.165E+01    0.110E+01
DAV:   3    -0.795658352066E+03   -0.18048E+00   -0.37880E+00 41140   0.566E+00    0.503E+00
DAV:   4    -0.795605873633E+03    0.52478E-01   -0.31762E-01 42740   0.193E+00    0.321E+00
DAV:   5    -0.795594446471E+03    0.11427E-01   -0.14307E-01 40150   0.843E-01    0.261E+00
DAV:   6    -0.795608019093E+03   -0.13573E-01   -0.10522E-01 41060   0.929E-01    0.171E+00
DAV:   7    -0.795606580656E+03    0.14384E-02   -0.16731E-02 41910   0.432E-01    0.119E+00
DAV:   8    -0.795609881471E+03   -0.33008E-02   -0.73194E-03 43350   0.301E-01    0.906E-01
DAV:   9    -0.795617495611E+03   -0.76141E-02   -0.18504E-02 43330   0.459E-01    0.729E-01
DAV:  10    -0.795623238564E+03   -0.57430E-02   -0.22625E-02 42490   0.357E-01    0.785E-01
DAV:  11    -0.795624685064E+03   -0.14465E-02   -0.55324E-03 38140   0.132E-01    0.813E-01
DAV:  12    -0.795624258476E+03    0.42659E-03   -0.38845E-04 33930   0.497E-02    0.824E-01
DAV:  13    -0.795621834496E+03    0.24240E-02   -0.27192E-03 42140   0.126E-01    0.761E-01
DAV:  14    -0.795612878601E+03    0.89559E-02   -0.31644E-02 41890   0.563E-01    0.888E-01
DAV:  15    -0.795617080714E+03   -0.42021E-02   -0.46414E-03 41660   0.186E-01    0.826E-01
DAV:  16    -0.795620821896E+03   -0.37412E-02   -0.42943E-03 44990   0.338E-01    0.557E-01
DAV:  17    -0.795628635210E+03   -0.78133E-02   -0.31739E-02 43580   0.682E-01    0.339E-01
DAV:  18    -0.795634868446E+03   -0.62332E-02   -0.44071E-02 43160   0.470E-01    0.394E-01
DAV:  19    -0.795638847191E+03   -0.39787E-02   -0.11893E-02 43530   0.251E-01    0.431E-01
DAV:  20    -0.795638648072E+03    0.19912E-03   -0.23414E-03 36730   0.122E-01    0.483E-01
DAV:  21    -0.795638096918E+03    0.55115E-03   -0.42237E-04 41610   0.351E-02    0.460E-01
DAV:  22    -0.795637975292E+03    0.12163E-03   -0.66687E-05 33990   0.141E-02    0.447E-01
DAV:  23    -0.795638982288E+03   -0.10070E-02   -0.56201E-04 40720   0.738E-02    0.459E-01
DAV:  24    -0.795640452426E+03   -0.14701E-02   -0.13196E-03 44130   0.118E-01    0.467E-01
DAV:  25    -0.795639928016E+03    0.52441E-03   -0.41006E-04 42480   0.538E-02    0.477E-01
DAV:  26    -0.795641906609E+03   -0.19786E-02   -0.17737E-03 42990   0.138E-01    0.490E-01
DAV:  27    -0.795645754489E+03   -0.38479E-02   -0.11303E-02 43050   0.370E-01    0.445E-01
DAV:  28    -0.795650743637E+03   -0.49891E-02   -0.28016E-02 42980   0.506E-01    0.416E-01
DAV:  29    -0.795654349023E+03   -0.36054E-02   -0.11449E-02 42960   0.201E-01    0.477E-01
DAV:  30    -0.795655934578E+03   -0.15856E-02   -0.18990E-03 40500   0.929E-02    0.498E-01
DAV:  31    -0.795655929382E+03    0.51962E-05   -0.50411E-04 33350   0.565E-02    0.535E-01
DAV:  32    -0.795655865194E+03    0.64188E-04   -0.16338E-05 25920   0.934E-03    0.537E-01
DAV:  33    -0.795655574110E+03    0.29108E-03   -0.69057E-05 31690   0.209E-02    0.548E-01
DAV:  34    -0.795654299693E+03    0.12744E-02   -0.89738E-04 42340   0.892E-02    0.565E-01
DAV:  35    -0.795655008529E+03   -0.70884E-03   -0.24061E-04 41530   0.496E-02    0.548E-01
DAV:  36    -0.795656077697E+03   -0.10692E-02   -0.77109E-04 42130   0.980E-02    0.523E-01
DAV:  37    -0.795658984602E+03   -0.29069E-02   -0.88647E-03 43560   0.279E-01    0.475E-01
DAV:  38    -0.795661982743E+03   -0.29981E-02   -0.80771E-03 43210   0.238E-01    0.452E-01
DAV:  39    -0.795662463957E+03   -0.48121E-03   -0.15559E-03 33010   0.817E-02    0.504E-01
DAV:  40    -0.795662570959E+03   -0.10700E-03   -0.45066E-05 34740   0.146E-02    0.507E-01
DAV:  41    -0.795662704191E+03   -0.13323E-03   -0.13738E-05 21610   0.945E-03    0.504E-01
DAV:  42    -0.795662951181E+03   -0.24699E-03   -0.37622E-05 31460   0.142E-02    0.505E-01
DAV:  43    -0.795662596752E+03    0.35443E-03   -0.46377E-05 31110   0.252E-02    0.508E-01
DAV:  44    -0.795663545015E+03   -0.94826E-03   -0.32181E-04 42940   0.639E-02    0.513E-01
DAV:  45    -0.795666824993E+03   -0.32800E-02   -0.86972E-03 43920   0.284E-01    0.554E-01
DAV:  46    -0.795668329985E+03   -0.15050E-02   -0.26801E-03 39540   0.103E-01    0.618E-01
DAV:  47    -0.795668177342E+03    0.15264E-03   -0.35432E-04 40980   0.596E-02    0.601E-01
DAV:  48    -0.795667920805E+03    0.25654E-03   -0.20918E-04 40070   0.275E-02    0.615E-01
DAV:  49    -0.795667773376E+03    0.14743E-03   -0.70644E-05 32270   0.166E-02    0.615E-01
DAV:  50    -0.795666930484E+03    0.84289E-03   -0.30348E-04 43450   0.481E-02    0.628E-01
DAV:  51    -0.795666254129E+03    0.67636E-03   -0.49798E-04 41340   0.491E-02    0.626E-01
DAV:  52    -0.795667672623E+03   -0.14185E-02   -0.73727E-04 43740   0.835E-02    0.640E-01
DAV:  53    -0.795667416589E+03    0.25603E-03   -0.54067E-04 42270   0.933E-02    0.655E-01
DAV:  54    -0.795667566824E+03   -0.15023E-03   -0.79321E-05 34180   0.371E-02    0.650E-01
DAV:  55    -0.795667475036E+03    0.91788E-04   -0.10676E-04 34140   0.222E-02    0.664E-01
DAV:  56    -0.795667969334E+03   -0.49430E-03   -0.11140E-04 39540   0.338E-02    0.648E-01
DAV:  57    -0.795670450102E+03   -0.24808E-02   -0.38302E-03 43930   0.195E-01    0.661E-01
DAV:  58    -0.795670986101E+03   -0.53600E-03   -0.95100E-04 35290   0.588E-02    0.695E-01
DAV:  59    -0.795671703986E+03   -0.71788E-03   -0.44517E-04 43050   0.760E-02    0.679E-01
DAV:  60    -0.795671506876E+03    0.19711E-03   -0.75288E-04 42770   0.919E-02    0.624E-01
DAV:  61    -0.795666547552E+03    0.49593E-02   -0.73575E-03 44190   0.234E-01    0.535E-01
DAV:  62    -0.795664517755E+03    0.20298E-02   -0.53597E-03 42190   0.256E-01    0.507E-01
DAV:  63    -0.795664118884E+03    0.39887E-03   -0.22922E-03 39080   0.874E-02    0.457E-01
DAV:  64    -0.795664804453E+03   -0.68557E-03   -0.26360E-04 37060   0.468E-02    0.452E-01
DAV:  65    -0.795665959950E+03   -0.11555E-02   -0.87702E-04 42200   0.699E-02    0.461E-01
DAV:  66    -0.795667617801E+03   -0.16579E-02   -0.68738E-03 43430   0.236E-01    0.453E-01
DAV:  67    -0.795669840177E+03   -0.22224E-02   -0.99178E-03 41720   0.198E-01    0.491E-01
DAV:  68    -0.795671891565E+03   -0.20514E-02   -0.17623E-03 32220   0.789E-02    0.501E-01
DAV:  69    -0.795671998431E+03   -0.10687E-03   -0.27665E-05 29290   0.947E-03    0.501E-01
DAV:  70    -0.795672080944E+03   -0.82513E-04   -0.51838E-06 19320   0.619E-03    0.502E-01
DAV:  71    -0.795671859805E+03    0.22114E-03   -0.47296E-05 31530   0.255E-02    0.504E-01
DAV:  72    -0.795671775214E+03    0.84591E-04   -0.48983E-04 43750   0.980E-02    0.492E-01
DAV:  73    -0.795671293607E+03    0.48161E-03   -0.66148E-04 43560   0.712E-02    0.485E-01
DAV:  74    -0.795671106800E+03    0.18681E-03   -0.37588E-04 41120   0.441E-02    0.477E-01
DAV:  75    -0.795671668525E+03   -0.56172E-03   -0.60673E-04 42860   0.652E-02    0.478E-01
DAV:  76    -0.795671818223E+03   -0.14970E-03   -0.10492E-04 34070   0.169E-02    0.481E-01
DAV:  77    -0.795672081783E+03   -0.26356E-03   -0.85589E-05 36760   0.372E-02    0.495E-01
DAV:  78    -0.795672409080E+03   -0.32730E-03   -0.24984E-04 42150   0.422E-02    0.504E-01
DAV:  79    -0.795671986263E+03    0.42282E-03   -0.24353E-04 42400   0.468E-02    0.489E-01
DAV:  80    -0.795671948251E+03    0.38012E-04   -0.90565E-05 36040   0.189E-02    0.474E-01
DAV:  81    -0.795672049136E+03   -0.10088E-03   -0.56491E-04 43080   0.496E-02    0.475E-01
DAV:  82    -0.795671827191E+03    0.22195E-03   -0.36593E-03 43380   0.137E-01    0.557E-01
DAV:  83    -0.795672011407E+03   -0.18422E-03   -0.36064E-03 43090   0.159E-01    0.502E-01
DAV:  84    -0.795673047635E+03   -0.10362E-02   -0.89745E-04 42970   0.841E-02    0.545E-01
DAV:  85    -0.795673761214E+03   -0.71358E-03   -0.65454E-04 39200   0.480E-02    0.602E-01
DAV:  86    -0.795674031665E+03   -0.27045E-03   -0.11283E-04 34520   0.188E-02    0.620E-01
DAV:  87    -0.795673809051E+03    0.22261E-03   -0.66521E-04 43680   0.104E-01    0.632E-01
DAV:  88    -0.795673600021E+03    0.20903E-03   -0.31423E-04 38950   0.324E-02    0.623E-01
DAV:  89    -0.795673789531E+03   -0.18951E-03   -0.12060E-04 40380   0.292E-02    0.627E-01
DAV:  90    -0.795674031350E+03   -0.24182E-03   -0.57237E-04 42390   0.544E-02    0.641E-01
DAV:  91    -0.795674187355E+03   -0.15600E-03   -0.10837E-04 28740   0.194E-02    0.647E-01
DAV:  92    -0.795672264607E+03    0.19227E-02   -0.35406E-03 43740   0.144E-01    0.754E-01
DAV:  93    -0.795673295142E+03   -0.10305E-02   -0.37512E-03 43320   0.157E-01    0.674E-01
DAV:  94    -0.795673620830E+03   -0.32569E-03   -0.47707E-04 33020   0.351E-02    0.684E-01
DAV:  95    -0.795673675401E+03   -0.54570E-04   -0.94169E-05 37140   0.205E-02    0.692E-01
DAV:  96    -0.795673648352E+03    0.27049E-04   -0.24459E-05 23750   0.968E-03    0.691E-01
DAV:  97    -0.795673284810E+03    0.36354E-03   -0.19591E-04 41650   0.384E-02    0.690E-01
DAV:  98    -0.795673080905E+03    0.20390E-03   -0.37322E-04 43060   0.568E-02    0.678E-01
DAV:  99    -0.795673057839E+03    0.23065E-04   -0.51747E-05 26930   0.120E-02    0.674E-01
DAV: 100    -0.795673052270E+03    0.55692E-05   -0.69630E-06 18170   0.596E-03
  12 F= -.79567305E+03 E0= -.79567305E+03  d E =0.107984E+01  mag=    47.0000
       N       E                     dE             d eps       ncg     rms          rms(c)
DAV:   1    -0.788939919739E+03    0.67331E+01   -0.47383E+02 35140   0.694E+01    0.108E+01
DAV:   2    -0.796153095059E+03   -0.72132E+01   -0.71984E+01 34560   0.155E+01    0.120E+01
DAV:   3    -0.796305256492E+03   -0.15216E+00   -0.29370E+00 41380   0.526E+00    0.484E+00
DAV:   4    -0.796326748825E+03   -0.21492E-01   -0.26627E-01 37310   0.122E+00    0.398E+00
DAV:   5    -0.796311130644E+03    0.15618E-01   -0.15889E-01 43110   0.132E+00    0.151E+00
DAV:   6    -0.796318164008E+03   -0.70334E-02   -0.54461E-02 42600   0.741E-01    0.710E-01
DAV:   7    -0.796319326857E+03   -0.11628E-02   -0.16611E-02 39910   0.356E-01    0.445E-01
DAV:   8    -0.796320025975E+03   -0.69912E-03   -0.34350E-03 40210   0.164E-01    0.329E-01
DAV:   9    -0.796320786205E+03   -0.76023E-03   -0.11937E-03 40980   0.113E-01    0.214E-01
DAV:  10    -0.796321462622E+03   -0.67642E-03   -0.71414E-04 41470   0.707E-02    0.164E-01
DAV:  11    -0.796322047277E+03   -0.58466E-03   -0.46943E-04 39770   0.534E-02    0.148E-01
DAV:  12    -0.796322624375E+03   -0.57710E-03   -0.33754E-04 39730   0.453E-02    0.136E-01
DAV:  13    -0.796323435310E+03   -0.81094E-03   -0.66450E-04 42550   0.637E-02    0.119E-01
DAV:  14    -0.796324436360E+03   -0.10010E-02   -0.17395E-03 42050   0.104E-01    0.107E-01
DAV:  15    -0.796325128081E+03   -0.69172E-03   -0.13099E-03 41180   0.705E-02    0.948E-02
DAV:  16    -0.796325531576E+03   -0.40349E-03   -0.43103E-04 37990   0.413E-02    0.837E-02
DAV:  17    -0.796325835118E+03   -0.30354E-03   -0.27138E-04 36390   0.311E-02    0.782E-02
DAV:  18    -0.796326230837E+03   -0.39572E-03   -0.44851E-04 42220   0.466E-02    0.740E-02
DAV:  19    -0.796326598389E+03   -0.36755E-03   -0.49160E-04 40520   0.426E-02    0.732E-02
DAV:  20    -0.796326830053E+03   -0.23166E-03   -0.19199E-04 35500   0.237E-02    0.722E-02
DAV:  21    -0.796326883557E+03   -0.53504E-04   -0.40506E-05 24570   0.106E-02    0.714E-02
DAV:  22    -0.796326914774E+03   -0.31217E-04   -0.38557E-06 17110   0.425E-03    0.713E-02
DAV:  23    -0.796326873524E+03    0.41249E-04   -0.23223E-06 17250   0.536E-03    0.714E-02
DAV:  24    -0.796326699012E+03    0.17451E-03   -0.43906E-05 28600   0.163E-02    0.720E-02
DAV:  25    -0.796326738554E+03   -0.39542E-04   -0.13065E-05 21260   0.766E-03    0.711E-02
DAV:  26    -0.796326643677E+03    0.94876E-04   -0.14375E-05 19900   0.982E-03    0.749E-02
DAV:  27    -0.796326660846E+03   -0.17169E-04   -0.84008E-05 36690   0.228E-02    0.133E-01
DAV:  28    -0.796327042994E+03   -0.38215E-03   -0.64021E-04 42310   0.656E-02    0.221E-01
DAV:  29    -0.796327364937E+03   -0.32194E-03   -0.27043E-04 38940   0.290E-02    0.235E-01
DAV:  30    -0.796327390683E+03   -0.25746E-04   -0.32602E-05 26050   0.138E-02    0.238E-01
DAV:  31    -0.796327380280E+03    0.10403E-04   -0.28451E-06 17270   0.382E-03    0.236E-01
DAV:  32    -0.796327382747E+03   -0.24672E-05   -0.66609E-07 16710   0.205E-03
  13 F= -.79632738E+03 E0= -.79632738E+03  d E =-.654330E+00  mag=    47.0000
       N       E                     dE             d eps       ncg     rms          rms(c)
DAV:   1    -0.796076360915E+03    0.25102E+00   -0.29555E+01 34740   0.184E+01    0.248E+00
DAV:   2    -0.796484253182E+03   -0.40789E+00   -0.43163E+00 33740   0.364E+00    0.172E+00
DAV:   3    -0.796508664323E+03   -0.24411E-01   -0.14184E-01 40660   0.924E-01    0.919E-01
DAV:   4    -0.796507211726E+03    0.14526E-02   -0.14491E-02 43330   0.357E-01    0.688E-01
DAV:   5    -0.796507252595E+03   -0.40869E-04   -0.11182E-02 40180   0.270E-01    0.301E-01
DAV:   6    -0.796508008063E+03   -0.75547E-03   -0.22097E-03 39190   0.145E-01    0.209E-01
DAV:   7    -0.796508417275E+03   -0.40921E-03   -0.10263E-03 39870   0.738E-02    0.160E-01
DAV:   8    -0.796508925607E+03   -0.50833E-03   -0.36852E-04 41110   0.483E-02    0.143E-01
DAV:   9    -0.796509468427E+03   -0.54282E-03   -0.34954E-04 40220   0.431E-02    0.134E-01
DAV:  10    -0.796509936194E+03   -0.46777E-03   -0.26170E-04 38220   0.334E-02    0.132E-01
DAV:  11    -0.796510250217E+03   -0.31402E-03   -0.12012E-04 33850   0.205E-02    0.132E-01
DAV:  12    -0.796510232928E+03    0.17289E-04   -0.29645E-05 24370   0.110E-02    0.131E-01
DAV:  13    -0.796510128923E+03    0.10401E-03   -0.55913E-06 19040   0.698E-03    0.132E-01
DAV:  14    -0.796510161207E+03   -0.32285E-04   -0.12935E-06 16850   0.349E-03    0.132E-01
DAV:  15    -0.796510802478E+03   -0.64127E-03   -0.20573E-04 40260   0.387E-02    0.144E-01
DAV:  16    -0.796511800217E+03   -0.99774E-03   -0.98104E-04 42330   0.737E-02    0.262E-01
DAV:  17    -0.796512866966E+03   -0.10667E-02   -0.13342E-03 41860   0.808E-02    0.504E-01
DAV:  18    -0.796513546172E+03   -0.67921E-03   -0.61244E-04 42580   0.511E-02    0.741E-01
DAV:  19    -0.796513795102E+03   -0.24893E-03   -0.14512E-04 38750   0.283E-02    0.885E-01
DAV:  20    -0.796513893458E+03   -0.98356E-04   -0.64601E-04 41510   0.653E-02    0.120E+00
DAV:  21    -0.796513874054E+03    0.19404E-04   -0.13607E-03 41740   0.893E-02    0.161E+00
DAV:  22    -0.796514184738E+03   -0.31068E-03   -0.79897E-04 41680   0.588E-02    0.185E+00
DAV:  23    -0.796514796181E+03   -0.61144E-03   -0.30004E-04 37840   0.351E-02    0.196E+00
DAV:  24    -0.796515304822E+03   -0.50864E-03   -0.74917E-05 27330   0.188E-02    0.196E+00
DAV:  25    -0.796515342461E+03   -0.37639E-04   -0.31920E-06 17240   0.402E-03    0.197E+00
DAV:  26    -0.796515114646E+03    0.22782E-03   -0.24458E-05 25920   0.142E-02    0.206E+00
DAV:  27    -0.796514783260E+03    0.33139E-03   -0.53235E-04 40570   0.529E-02    0.200E+00
DAV:  28    -0.796513723077E+03    0.10602E-02   -0.41467E-04 40950   0.405E-02    0.206E+00
DAV:  29    -0.796512749729E+03    0.97335E-03   -0.46993E-04 39980   0.456E-02    0.205E+00
DAV:  30    -0.796512307075E+03    0.44265E-03   -0.17822E-04 35880   0.359E-02    0.207E+00
DAV:  31    -0.796512440727E+03   -0.13365E-03   -0.17207E-05 22840   0.691E-03    0.207E+00
DAV:  32    -0.796512492374E+03   -0.51647E-04   -0.18125E-06 16950   0.233E-03    0.207E+00
DAV:  33    -0.796512469125E+03    0.23249E-04   -0.10720E-05 20370   0.964E-03    0.206E+00
DAV:  34    -0.796512068603E+03    0.40052E-03   -0.34233E-04 40060   0.404E-02    0.203E+00
DAV:  35    -0.796510944671E+03    0.11239E-02   -0.96861E-04 41770   0.658E-02    0.200E+00
DAV:  36    -0.796510331581E+03    0.61309E-03   -0.18704E-04 31730   0.232E-02    0.197E+00
DAV:  37    -0.796509730863E+03    0.60072E-03   -0.39758E-04 40840   0.457E-02    0.196E+00
DAV:  38    -0.796509007721E+03    0.72314E-03   -0.31517E-04 39440   0.331E-02    0.195E+00
DAV:  39    -0.796508634439E+03    0.37328E-03   -0.55981E-05 25810   0.153E-02    0.195E+00
DAV:  40    -0.796508580322E+03    0.54117E-04   -0.30741E-06 17430   0.360E-03    0.195E+00
DAV:  41    -0.796508336785E+03    0.24354E-03   -0.36881E-04 40300   0.476E-02    0.192E+00
DAV:  42    -0.796507641247E+03    0.69554E-03   -0.47680E-04 41820   0.440E-02    0.189E+00
DAV:  43    -0.796507262055E+03    0.37919E-03   -0.46283E-04 40810   0.533E-02    0.185E+00
DAV:  44    -0.796507310194E+03   -0.48139E-04   -0.37466E-04 41380   0.543E-02    0.185E+00
DAV:  45    -0.796507203566E+03    0.10663E-03   -0.53427E-04 42410   0.644E-02    0.179E+00
DAV:  46    -0.796508231840E+03   -0.10283E-02   -0.30715E-03 41370   0.123E-01    0.167E+00
DAV:  47    -0.796509273845E+03   -0.10420E-02   -0.12803E-02 41650   0.242E-01    0.147E+00
DAV:  48    -0.796514314583E+03   -0.50407E-02   -0.27471E-03 32860   0.884E-02    0.148E+00
DAV:  49    -0.796515033417E+03   -0.71883E-03   -0.79083E-05 31000   0.164E-02    0.145E+00
DAV:  50    -0.796515430401E+03   -0.39698E-03   -0.35785E-05 29080   0.163E-02    0.143E+00
DAV:  51    -0.796515643971E+03   -0.21357E-03   -0.70235E-06 19620   0.697E-03    0.143E+00
DAV:  52    -0.796516324934E+03   -0.68096E-03   -0.34881E-04 39620   0.427E-02    0.143E+00
DAV:  53    -0.796516722273E+03   -0.39734E-03   -0.62032E-05 25710   0.136E-02    0.143E+00
DAV:  54    -0.796516778643E+03   -0.56371E-04   -0.12286E-06 16810   0.272E-03    0.143E+00
DAV:  55    -0.796516731533E+03    0.47111E-04   -0.17190E-04 35840   0.290E-02    0.142E+00
DAV:  56    -0.796516615899E+03    0.11563E-03   -0.36582E-05 25350   0.984E-03    0.144E+00
DAV:  57    -0.796510742517E+03    0.58734E-02   -0.17699E-02 42880   0.308E-01    0.695E-01
DAV:  58    -0.796513451546E+03   -0.27090E-02   -0.39740E-03 33950   0.118E-01    0.724E-01
DAV:  59    -0.796515701296E+03   -0.22498E-02   -0.57517E-04 40580   0.606E-02    0.642E-01
DAV:  60    -0.796520859059E+03   -0.51578E-02   -0.23158E-03 41860   0.100E-01    0.454E-01
DAV:  61    -0.796522497217E+03   -0.16382E-02   -0.66338E-04 39290   0.523E-02    0.435E-01
DAV:  62    -0.796522355653E+03    0.14156E-03   -0.13670E-03 42010   0.714E-02    0.391E-01
DAV:  63    -0.796524409232E+03   -0.20536E-02   -0.35223E-03 41370   0.133E-01    0.442E-01
DAV:  64    -0.796526195136E+03   -0.17859E-02   -0.87964E-04 40310   0.516E-02    0.446E-01
DAV:  65    -0.796526970537E+03   -0.77540E-03   -0.22419E-04 37450   0.266E-02    0.463E-01
DAV:  66    -0.796527271672E+03   -0.30113E-03   -0.61211E-05 27740   0.150E-02    0.469E-01
DAV:  67    -0.796528001736E+03   -0.73006E-03   -0.29848E-04 39820   0.371E-02    0.488E-01
DAV:  68    -0.796527909832E+03    0.91903E-04   -0.37040E-04 40470   0.390E-02    0.510E-01
DAV:  69    -0.796528168120E+03   -0.25829E-03   -0.74739E-05 31650   0.189E-02    0.527E-01
DAV:  70    -0.796528575634E+03   -0.40751E-03   -0.14821E-04 35560   0.218E-02    0.559E-01
DAV:  71    -0.796527944218E+03    0.63142E-03   -0.25661E-04 38140   0.337E-02    0.590E-01
DAV:  72    -0.796526255972E+03    0.16882E-02   -0.85927E-04 40370   0.528E-02    0.574E-01
DAV:  73    -0.796526286641E+03   -0.30669E-04   -0.12198E-04 27360   0.205E-02    0.564E-01
DAV:  74    -0.796526287303E+03   -0.66168E-06   -0.28566E-06 17330   0.349E-03
  14 F= -.79652629E+03 E0= -.79652629E+03  d E =-.198905E+00  mag=    47.0000
       N       E                     dE             d eps       ncg     rms          rms(c)
DAV:   1    -0.796441022590E+03    0.85264E-01   -0.10249E+01 34240   0.101E+01    0.140E+00
DAV:   2    -0.796564553184E+03   -0.12353E+00   -0.12863E+00 33580   0.204E+00    0.101E+00
DAV:   3    -0.796572253991E+03   -0.77008E-02   -0.44921E-02 41090   0.527E-01    0.565E-01
DAV:   4    -0.796572583907E+03   -0.32992E-03   -0.49502E-03 43650   0.202E-01    0.454E-01
DAV:   5    -0.796574080244E+03   -0.14963E-02   -0.38807E-03 43200   0.188E-01    0.277E-01
DAV:   6    -0.796575225249E+03   -0.11450E-02   -0.11849E-03 39380   0.959E-02    0.241E-01
DAV:   7    -0.796576256838E+03   -0.10316E-02   -0.50892E-04 40500   0.537E-02    0.227E-01
DAV:   8    -0.796577780918E+03   -0.15241E-02   -0.56471E-04 40940   0.510E-02    0.222E-01
DAV:   9    -0.796579579501E+03   -0.17986E-02   -0.74391E-04 41020   0.606E-02    0.218E-01
DAV:  10    -0.796581211369E+03   -0.16319E-02   -0.74322E-04 39640   0.515E-02    0.217E-01
DAV:  11    -0.796581923459E+03   -0.71209E-03   -0.25149E-04 35110   0.275E-02    0.216E-01
DAV:  12    -0.796581763705E+03    0.15975E-03   -0.41283E-05 25130   0.144E-02    0.215E-01
DAV:  13    -0.796580689398E+03    0.10743E-02   -0.15034E-04 37000   0.305E-02    0.219E-01
DAV:  14    -0.796585107835E+03   -0.44184E-02   -0.39280E-03 42370   0.160E-01    0.216E-01
DAV:  15    -0.796589679904E+03   -0.45721E-02   -0.11674E-02 41890   0.238E-01    0.230E-01
DAV:  16    -0.796588465362E+03    0.12145E-02   -0.51314E-03 40040   0.180E-01    0.236E-01
DAV:  17    -0.796592962054E+03   -0.44967E-02   -0.18610E-02 43170   0.339E-01    0.261E-01
DAV:  18    -0.796598306446E+03   -0.53444E-02   -0.45334E-03 39170   0.121E-01    0.184E-01
DAV:  19    -0.796596241413E+03    0.20650E-02   -0.15292E-02 42850   0.270E-01    0.368E-01
DAV:  20    -0.796601226637E+03   -0.49852E-02   -0.53226E-03 41390   0.192E-01    0.164E-01
DAV:  21    -0.796602338567E+03   -0.11119E-02   -0.99379E-04 41930   0.904E-02    0.154E-01
DAV:  22    -0.796602222046E+03    0.11652E-03   -0.49155E-04 39650   0.572E-02    0.130E-01
DAV:  23    -0.796601781683E+03    0.44036E-03   -0.20488E-04 37820   0.305E-02    0.134E-01
DAV:  24    -0.796602380467E+03   -0.59878E-03   -0.19886E-04 39440   0.389E-02    0.126E-01
DAV:  25    -0.796603024425E+03   -0.64396E-03   -0.54796E-04 41710   0.489E-02    0.117E-01
DAV:  26    -0.796603400186E+03   -0.37576E-03   -0.52562E-03 42070   0.159E-01    0.145E-01
DAV:  27    -0.796604127406E+03   -0.72722E-03   -0.31311E-03 41320   0.101E-01    0.170E-01
DAV:  28    -0.796605115151E+03   -0.98775E-03   -0.49940E-04 35340   0.425E-02    0.133E-01
DAV:  29    -0.796605263866E+03   -0.14872E-03   -0.33720E-05 26130   0.101E-02    0.123E-01
DAV:  30    -0.796605409536E+03   -0.14567E-03   -0.80407E-05 34880   0.212E-02    0.115E-01
DAV:  31    -0.796605858809E+03   -0.44927E-03   -0.17609E-04 38290   0.303E-02    0.527E-02
DAV:  32    -0.796605974576E+03   -0.11577E-03   -0.15586E-04 38060   0.277E-02    0.555E-02
DAV:  33    -0.796605987754E+03   -0.13178E-04   -0.43768E-05 27020   0.143E-02    0.365E-02
DAV:  34    -0.796606055377E+03   -0.67624E-04   -0.13306E-04 39010   0.296E-02    0.300E-02
DAV:  35    -0.796606088765E+03   -0.33388E-04   -0.70365E-05 32290   0.151E-02    0.314E-02
DAV:  36    -0.796606131886E+03   -0.43121E-04   -0.22544E-05 26320   0.106E-02    0.213E-02
DAV:  37    -0.796606158002E+03   -0.26116E-04   -0.71222E-05 34830   0.186E-02    0.205E-02
DAV:  38    -0.796606144041E+03    0.13961E-04   -0.17728E-04 39970   0.271E-02    0.318E-02
DAV:  39    -0.796606196551E+03   -0.52511E-04   -0.37834E-05 25800   0.119E-02    0.253E-02
DAV:  40    -0.796606205145E+03   -0.85933E-05   -0.30809E-06 17870   0.430E-03
  15 F= -.79660621E+03 E0= -.79660621E+03  d E =-.799178E-01  mag=    47.0000
       N       E                     dE             d eps       ncg     rms          rms(c)
DAV:   1    -0.795965336106E+03    0.64086E+00   -0.55789E+01 34360   0.226E+01    0.294E+00
DAV:   2    -0.796591628663E+03   -0.62629E+00   -0.64333E+00 33600   0.454E+00    0.227E+00
DAV:   3    -0.796621949530E+03   -0.30321E-01   -0.17689E-01 41060   0.112E+00    0.108E+00
DAV:   4    -0.796621413947E+03    0.53558E-03   -0.17543E-02 42640   0.446E-01    0.912E-01
DAV:   5    -0.796621131857E+03    0.28209E-03   -0.11909E-02 42990   0.329E-01    0.305E-01
DAV:   6    -0.796622202561E+03   -0.10707E-02   -0.27331E-03 39400   0.144E-01    0.176E-01
DAV:   7    -0.796622433212E+03   -0.23065E-03   -0.74531E-04 39580   0.643E-02    0.128E-01
DAV:   8    -0.796622665341E+03   -0.23213E-03   -0.16498E-04 40820   0.403E-02    0.106E-01
DAV:   9    -0.796622918509E+03   -0.25317E-03   -0.16634E-04 41550   0.390E-02    0.908E-02
DAV:  10    -0.796623129931E+03   -0.21142E-03   -0.16048E-04 36510   0.306E-02    0.798E-02
DAV:  11    -0.796623377379E+03   -0.24745E-03   -0.17396E-04 41130   0.363E-02    0.689E-02
DAV:  12    -0.796623673090E+03   -0.29571E-03   -0.50089E-04 43490   0.624E-02    0.549E-02
DAV:  13    -0.796623871696E+03   -0.19861E-03   -0.55394E-04 41520   0.554E-02    0.417E-02
DAV:  14    -0.796623994670E+03   -0.12297E-03   -0.23013E-04 37980   0.316E-02    0.334E-02
DAV:  15    -0.796624044487E+03   -0.49818E-04   -0.56873E-05 27500   0.138E-02    0.272E-02
DAV:  16    -0.796624065332E+03   -0.20845E-04   -0.13440E-05 21180   0.795E-03    0.229E-02
DAV:  17    -0.796624089616E+03   -0.24283E-04   -0.28871E-05 29140   0.151E-02    0.184E-02
DAV:  18    -0.796624107786E+03   -0.18171E-04   -0.47282E-05 29610   0.126E-02    0.158E-02
DAV:  19    -0.796624120927E+03   -0.13141E-04   -0.16180E-05 23140   0.855E-03    0.136E-02
DAV:  20    -0.796624131759E+03   -0.10832E-04   -0.15222E-05 24860   0.983E-03    0.107E-02
DAV:  21    -0.796624138687E+03   -0.69287E-05   -0.25506E-05 28840   0.112E-02
  16 F= -.79662414E+03 E0= -.79662414E+03  d E =-.179335E-01  mag=    47.0000
       N       E                     dE             d eps       ncg     rms          rms(c)
DAV:   1    -0.795231190198E+03    0.13929E+01   -0.14444E+02 34350   0.347E+01    0.419E+00
DAV:   2    -0.796501409576E+03   -0.12702E+01   -0.12913E+01 33060   0.660E+00    0.270E+00
DAV:   3    -0.796565294837E+03   -0.63885E-01   -0.28217E-01 39830   0.132E+00    0.144E+00
DAV:   4    -0.796563190294E+03    0.21045E-02   -0.27298E-02 43350   0.543E-01    0.110E+00
DAV:   5    -0.796565265324E+03   -0.20750E-02   -0.17997E-02 43310   0.399E-01    0.426E-01
DAV:   6    -0.796567827965E+03   -0.25626E-02   -0.56228E-03 39540   0.208E-01    0.315E-01
DAV:   7    -0.796568662389E+03   -0.83442E-03   -0.11608E-03 39620   0.976E-02    0.246E-01
DAV:   8    -0.796569988022E+03   -0.13256E-02   -0.81828E-04 43020   0.856E-02    0.208E-01
DAV:   9    -0.796571360958E+03   -0.13729E-02   -0.11551E-03 41530   0.915E-02    0.177E-01
DAV:  10    -0.796572250430E+03   -0.88947E-03   -0.83700E-04 40230   0.687E-02    0.156E-01
DAV:  11    -0.796573320480E+03   -0.10701E-02   -0.10306E-03 43810   0.915E-02    0.124E-01
DAV:  12    -0.796574224324E+03   -0.90384E-03   -0.27378E-03 43200   0.145E-01    0.920E-02
DAV:  13    -0.796574810573E+03   -0.58625E-03   -0.17441E-03 42350   0.822E-02    0.751E-02
DAV:  14    -0.796575003641E+03   -0.19307E-03   -0.25688E-04 34650   0.285E-02    0.601E-02
DAV:  15    -0.796575063357E+03   -0.59716E-04   -0.36731E-05 25570   0.131E-02    0.521E-02
DAV:  16    -0.796575177389E+03   -0.11403E-03   -0.10527E-04 37370   0.321E-02    0.400E-02
DAV:  17    -0.796575270666E+03   -0.93277E-04   -0.30042E-04 41630   0.386E-02    0.351E-02
DAV:  18    -0.796575330667E+03   -0.60001E-04   -0.98218E-05 35010   0.188E-02    0.289E-02
DAV:  19    -0.796575371942E+03   -0.41275E-04   -0.48100E-05 32310   0.189E-02    0.254E-02
DAV:  20    -0.796575405518E+03   -0.33576E-04   -0.12463E-04 37410   0.270E-02    0.198E-02
DAV:  21    -0.796575434959E+03   -0.29441E-04   -0.79777E-05 32060   0.184E-02    0.171E-02
DAV:  22    -0.796575448346E+03   -0.13387E-04   -0.19886E-05 21240   0.857E-03    0.138E-02
DAV:  23    -0.796575450323E+03   -0.19771E-05   -0.24669E-06 16840   0.422E-03
  17 F= -.79657545E+03 E0= -.79657545E+03  d E =0.486884E-01  mag=    47.0000
       N       E                     dE             d eps       ncg     rms          rms(c)
DAV:   1    -0.786953160029E+03    0.96223E+01   -0.59872E+02 35250   0.809E+01    0.114E+01
DAV:   2    -0.795158876655E+03   -0.82057E+01   -0.86952E+01 33590   0.174E+01    0.837E+00
DAV:   3    -0.795561514673E+03   -0.40264E+00   -0.29039E+00 41040   0.419E+00    0.444E+00
DAV:   4    -0.795529294769E+03    0.32220E-01   -0.28224E-01 40280   0.152E+00    0.339E+00
DAV:   5    -0.795510672102E+03    0.18623E-01   -0.17117E-01 40540   0.106E+00    0.150E+00
DAV:   6    -0.795523979257E+03   -0.13307E-01   -0.44172E-02 39200   0.636E-01    0.741E-01
DAV:   7    -0.795526307954E+03   -0.23287E-02   -0.15985E-02 40220   0.323E-01    0.494E-01
DAV:   8    -0.795528802848E+03   -0.24949E-02   -0.25614E-03 39820   0.145E-01    0.364E-01
DAV:   9    -0.795531441201E+03   -0.26384E-02   -0.18768E-03 40480   0.134E-01    0.298E-01
DAV:  10    -0.795533467165E+03   -0.20260E-02   -0.15960E-03 39420   0.101E-01    0.258E-01
DAV:  11    -0.795534848050E+03   -0.13809E-02   -0.87909E-04 39770   0.706E-02    0.231E-01
DAV:  12    -0.795537637041E+03   -0.27890E-02   -0.23745E-03 43930   0.138E-01    0.197E-01
DAV:  13    -0.795539996520E+03   -0.23595E-02   -0.46615E-03 42420   0.178E-01    0.163E-01
DAV:  14    -0.795541568976E+03   -0.15725E-02   -0.24696E-03 41660   0.110E-01    0.134E-01
DAV:  15    -0.795542354504E+03   -0.78553E-03   -0.71683E-04 37040   0.569E-02    0.114E-01
DAV:  16    -0.795542867494E+03   -0.51299E-03   -0.38407E-04 38960   0.451E-02    0.937E-02
DAV:  17    -0.795543401172E+03   -0.53368E-03   -0.95823E-04 43120   0.813E-02    0.753E-02
DAV:  18    -0.795543820634E+03   -0.41946E-03   -0.75615E-04 41010   0.579E-02    0.631E-02
DAV:  19    -0.795544060249E+03   -0.23962E-03   -0.29855E-04 36830   0.352E-02    0.518E-02
DAV:  20    -0.795544230476E+03   -0.17023E-03   -0.36497E-04 42760   0.470E-02    0.436E-02
DAV:  21    -0.795544350341E+03   -0.11986E-03   -0.40741E-04 40890   0.445E-02    0.360E-02
DAV:  22    -0.795544451064E+03   -0.10072E-03   -0.20543E-04 35550   0.258E-02    0.267E-02
DAV:  23    -0.795544495891E+03   -0.44827E-04   -0.50779E-05 27660   0.147E-02    0.207E-02
DAV:  24    -0.795544516082E+03   -0.20191E-04   -0.23133E-05 24620   0.114E-02    0.161E-02
DAV:  25    -0.795544528435E+03   -0.12354E-04   -0.25837E-05 29980   0.129E-02    0.132E-02
DAV:  26    -0.795544537507E+03   -0.90720E-05   -0.19398E-05 23340   0.836E-03
  18 F= -.79554454E+03 E0= -.79554454E+03  d E =0.103091E+01  mag=    47.0000
       N       E                     dE             d eps       ncg     rms          rms(c)
DAV:   1    -0.794280924190E+03    0.12636E+01   -0.14238E+02 35010   0.423E+01    0.560E+00
DAV:   2    -0.796448510581E+03   -0.21676E+01   -0.23107E+01 33590   0.865E+00    0.426E+00
DAV:   3    -0.796568538347E+03   -0.12003E+00   -0.76708E-01 41610   0.219E+00    0.218E+00
DAV:   4    -0.796561131469E+03    0.74069E-02   -0.76764E-02 42390   0.825E-01    0.172E+00
DAV:   5    -0.796556901435E+03    0.42300E-02   -0.52150E-02 39210   0.583E-01    0.635E-01
DAV:   6    -0.796559803709E+03   -0.29023E-02   -0.10504E-02 38370   0.315E-01    0.392E-01
DAV:   7    -0.796560303759E+03   -0.50005E-03   -0.43535E-03 40900   0.153E-01    0.237E-01
DAV:   8    -0.796560791334E+03   -0.48758E-03   -0.60401E-04 42490   0.770E-02    0.171E-01
DAV:   9    -0.796561239014E+03   -0.44768E-03   -0.43464E-04 39980   0.636E-02    0.135E-01
DAV:  10    -0.796561602751E+03   -0.36374E-03   -0.30180E-04 39520   0.460E-02    0.114E-01
DAV:  11    -0.796561930346E+03   -0.32760E-03   -0.22008E-04 38760   0.391E-02    0.985E-02
DAV:  12    -0.796562398198E+03   -0.46785E-03   -0.47278E-04 43790   0.630E-02    0.799E-02
DAV:  13    -0.796562733392E+03   -0.33519E-03   -0.67888E-04 41780   0.652E-02    0.606E-02
DAV:  14    -0.796562925604E+03   -0.19221E-03   -0.43720E-04 41150   0.528E-02    0.471E-02
DAV:  15    -0.796563027331E+03   -0.10173E-03   -0.23636E-04 35970   0.291E-02    0.344E-02
DAV:  16    -0.796563065454E+03   -0.38123E-04   -0.43575E-05 24980   0.126E-02    0.268E-02
DAV:  17    -0.796563089468E+03   -0.24014E-04   -0.17989E-05 24440   0.109E-02    0.225E-02
DAV:  18    -0.796563109891E+03   -0.20423E-04   -0.26887E-05 29140   0.142E-02    0.182E-02
DAV:  19    -0.796563125663E+03   -0.15772E-04   -0.32633E-05 26870   0.115E-02    0.161E-02
DAV:  20    -0.796563138068E+03   -0.12406E-04   -0.14171E-05 21820   0.939E-03    0.127E-02
DAV:  21    -0.796563148023E+03   -0.99544E-05   -0.22986E-05 27600   0.127E-02
  19 F= -.79656315E+03 E0= -.79656315E+03  d E =-.101861E+01  mag=    47.0000
       N       E                     dE             d eps       ncg     rms          rms(c)
DAV:   1    -0.796135131512E+03    0.42801E+00   -0.34356E+01 34950   0.207E+01    0.277E+00
DAV:   2    -0.796671964255E+03   -0.53683E+00   -0.57256E+00 33740   0.415E+00    0.188E+00
DAV:   3    -0.796704354866E+03   -0.32391E-01   -0.18234E-01 40580   0.101E+00    0.102E+00
DAV:   4    -0.796702243857E+03    0.21110E-02   -0.17805E-02 43330   0.379E-01    0.730E-01
DAV:   5    -0.796701611632E+03    0.63222E-03   -0.11372E-02 39100   0.283E-01    0.284E-01
DAV:   6    -0.796702097081E+03   -0.48545E-03   -0.23182E-03 38430   0.159E-01    0.172E-01
DAV:   7    -0.796702194921E+03   -0.97840E-04   -0.95272E-04 40670   0.768E-02    0.105E-01
DAV:   8    -0.796702297623E+03   -0.10270E-03   -0.14243E-04 41030   0.363E-02    0.787E-02
DAV:   9    -0.796702399302E+03   -0.10168E-03   -0.92984E-05 38010   0.285E-02    0.594E-02
DAV:  10    -0.796702471406E+03   -0.72104E-04   -0.60681E-05 31130   0.208E-02    0.510E-02
DAV:  11    -0.796702532015E+03   -0.60609E-04   -0.38670E-05 28260   0.173E-02    0.447E-02
DAV:  12    -0.796702623210E+03   -0.91195E-04   -0.78924E-05 36320   0.261E-02    0.354E-02
DAV:  13    -0.796702701264E+03   -0.78053E-04   -0.18271E-04 38600   0.332E-02    0.282E-02
DAV:  14    -0.796702746020E+03   -0.44756E-04   -0.94776E-05 34440   0.209E-02    0.223E-02
DAV:  15    -0.796702767568E+03   -0.21548E-04   -0.32771E-05 23830   0.121E-02    0.172E-02
DAV:  16    -0.796702778482E+03   -0.10915E-04   -0.13844E-05 22180   0.761E-03    0.146E-02
DAV:  17    -0.796702786533E+03   -0.80507E-05   -0.75303E-06 18780   0.692E-03
  20 F= -.79670279E+03 E0= -.79670279E+03  d E =-.139639E+00  mag=    47.0000
       N       E                     dE             d eps       ncg     rms          rms(c)
DAV:   1    -0.796669698559E+03    0.33080E-01   -0.30851E+00 34300   0.551E+00    0.730E-01
DAV:   2    -0.796707922431E+03   -0.38224E-01   -0.39815E-01 33440   0.110E+00    0.523E-01
DAV:   3    -0.796710182908E+03   -0.22605E-02   -0.11028E-02 37880   0.242E-01    0.296E-01
DAV:   4    -0.796710069994E+03    0.11291E-03   -0.10974E-03 43510   0.911E-02    0.214E-01
DAV:   5    -0.796710110703E+03   -0.40708E-04   -0.71326E-04 39750   0.724E-02    0.760E-02
DAV:   6    -0.796710150479E+03   -0.39776E-04   -0.17730E-04 41730   0.421E-02    0.496E-02
DAV:   7    -0.796710159066E+03   -0.85870E-05   -0.54423E-05 33750   0.205E-02
  21 F= -.79671016E+03 E0= -.79671016E+03  d E =-.737253E-02  mag=    47.0000
       N       E                     dE             d eps       ncg     rms          rms(c)
DAV:   1    -0.795994270529E+03    0.71588E+00   -0.61749E+01 34300   0.218E+01    0.287E+00
DAV:   2    -0.796576249077E+03   -0.58198E+00   -0.60194E+00 33360   0.433E+00    0.228E+00
DAV:   3    -0.796607060539E+03   -0.30811E-01   -0.15966E-01 37520   0.943E-01    0.128E+00
DAV:   4    -0.796605395819E+03    0.16647E-02   -0.17232E-02 43570   0.387E-01    0.984E-01
DAV:   5    -0.796605867670E+03   -0.47185E-03   -0.11928E-02 41620   0.302E-01    0.317E-01
DAV:   6    -0.796606624070E+03   -0.75640E-03   -0.32849E-03 41940   0.166E-01    0.200E-01
DAV:   7    -0.796606707368E+03   -0.83298E-04   -0.76231E-04 41340   0.767E-02    0.127E-01
DAV:   8    -0.796606907061E+03   -0.19969E-03   -0.18446E-04 42070   0.415E-02    0.102E-01
DAV:   9    -0.796607143036E+03   -0.23597E-03   -0.18684E-04 41750   0.364E-02    0.804E-02
DAV:  10    -0.796607294052E+03   -0.15102E-03   -0.12428E-04 35690   0.263E-02    0.710E-02
DAV:  11    -0.796607459989E+03   -0.16594E-03   -0.10034E-04 37580   0.288E-02    0.612E-02
DAV:  12    -0.796607672545E+03   -0.21256E-03   -0.31229E-04 43650   0.497E-02    0.463E-02
DAV:  13    -0.796607810610E+03   -0.13806E-03   -0.37112E-04 41950   0.450E-02    0.381E-02
DAV:  14    -0.796607888436E+03   -0.77826E-04   -0.12948E-04 36090   0.239E-02    0.286E-02
DAV:  15    -0.796607919797E+03   -0.31361E-04   -0.35913E-05 23570   0.109E-02    0.246E-02
DAV:  16    -0.796607936302E+03   -0.16505E-04   -0.92973E-06 20560   0.689E-03    0.210E-02
DAV:  17    -0.796607958051E+03   -0.21749E-04   -0.25252E-05 28390   0.135E-02    0.172E-02
DAV:  18    -0.796607973673E+03   -0.15622E-04   -0.35994E-05 25790   0.107E-02    0.145E-02
DAV:  19    -0.796607986127E+03   -0.12454E-04   -0.17306E-05 26740   0.982E-03    0.129E-02
DAV:  20    -0.796607996116E+03   -0.99894E-05   -0.26740E-05 27130   0.111E-02
  22 F= -.79660800E+03 E0= -.79660800E+03  d E =0.102163E+00  mag=    47.0000
       N       E                     dE             d eps       ncg     rms          rms(c)
DAV:   1    -0.785389202212E+03    0.11219E+02   -0.66757E+02 34980   0.825E+01    0.123E+01
DAV:   2    -0.795024133980E+03   -0.96349E+01   -0.10018E+02 33590   0.180E+01    0.959E+00
DAV:   3    -0.795448991280E+03   -0.42486E+00   -0.31401E+00 40920   0.457E+00    0.484E+00
DAV:   4    -0.795432324698E+03    0.16667E-01   -0.30907E-01 39950   0.157E+00    0.381E+00
DAV:   5    -0.795421271596E+03    0.11053E-01   -0.17281E-01 42070   0.109E+00    0.171E+00
DAV:   6    -0.795435155271E+03   -0.13884E-01   -0.51107E-02 39920   0.702E-01    0.811E-01
DAV:   7    -0.795436596511E+03   -0.14412E-02   -0.16813E-02 41280   0.366E-01    0.447E-01
DAV:   8    -0.795438313564E+03   -0.17171E-02   -0.28143E-03 40490   0.159E-01    0.350E-01
DAV:   9    -0.795440202578E+03   -0.18890E-02   -0.15963E-03 41600   0.118E-01    0.255E-01
DAV:  10    -0.795441511514E+03   -0.13089E-02   -0.10924E-03 39540   0.854E-02    0.216E-01
DAV:  11    -0.795442525904E+03   -0.10144E-02   -0.62522E-04 39810   0.653E-02    0.195E-01
DAV:  12    -0.795443958777E+03   -0.14329E-02   -0.92530E-04 43490   0.814E-02    0.165E-01
DAV:  13    -0.795445660379E+03   -0.17016E-02   -0.25305E-03 43220   0.148E-01    0.136E-01
DAV:  14    -0.795446752187E+03   -0.10918E-02   -0.23019E-03 40880   0.105E-01    0.112E-01
DAV:  15    -0.795447328857E+03   -0.57667E-03   -0.69828E-04 39060   0.588E-02    0.903E-02
DAV:  16    -0.795447638898E+03   -0.31004E-03   -0.33702E-04 35820   0.347E-02    0.762E-02
DAV:  17    -0.795447917205E+03   -0.27831E-03   -0.24345E-04 43200   0.430E-02    0.615E-02
DAV:  18    -0.795448148976E+03   -0.23177E-03   -0.44575E-04 41130   0.507E-02    0.536E-02
DAV:  19    -0.795448316698E+03   -0.16772E-03   -0.26507E-04 37470   0.326E-02    0.445E-02
DAV:  20    -0.795448439015E+03   -0.12232E-03   -0.17653E-04 38070   0.333E-02    0.379E-02
DAV:  21    -0.795448519324E+03   -0.80309E-04   -0.33854E-04 41380   0.460E-02    0.298E-02
DAV:  22    -0.795448608579E+03   -0.89254E-04   -0.22810E-04 35620   0.264E-02    0.233E-02
DAV:  23    -0.795448636062E+03   -0.27483E-04   -0.30229E-05 23180   0.104E-02    0.172E-02
DAV:  24    -0.795448643765E+03   -0.77027E-05   -0.51706E-06 17720   0.574E-03
  23 F= -.79544864E+03 E0= -.79544864E+03  d E =0.115935E+01  mag=    47.0000
       N       E                     dE             d eps       ncg     rms          rms(c)
DAV:   1    -0.793469163971E+03    0.19795E+01   -0.18996E+02 35140   0.483E+01    0.659E+00
DAV:   2    -0.796400653614E+03   -0.29315E+01   -0.31007E+01 33590   0.985E+00    0.482E+00
DAV:   3    -0.796559762602E+03   -0.15911E+00   -0.98146E-01 41480   0.248E+00    0.248E+00
DAV:   4    -0.796551379287E+03    0.83833E-02   -0.10149E-01 41860   0.954E-01    0.192E+00
DAV:   5    -0.796547192062E+03    0.41872E-02   -0.62430E-02 39470   0.631E-01    0.724E-01
DAV:   6    -0.796551162072E+03   -0.39700E-02   -0.12912E-02 37720   0.349E-01    0.468E-01
DAV:   7    -0.796551836901E+03   -0.67483E-03   -0.53605E-03 41140   0.177E-01    0.276E-01
DAV:   8    -0.796552518379E+03   -0.68148E-03   -0.79827E-04 42080   0.886E-02    0.201E-01
DAV:   9    -0.796553162142E+03   -0.64376E-03   -0.60633E-04 40440   0.732E-02    0.156E-01
DAV:  10    -0.796553659320E+03   -0.49718E-03   -0.40581E-04 39510   0.536E-02    0.132E-01
DAV:  11    -0.796554125076E+03   -0.46576E-03   -0.31545E-04 40650   0.480E-02    0.114E-01
DAV:  12    -0.796554737535E+03   -0.61246E-03   -0.61869E-04 44160   0.723E-02    0.913E-02
DAV:  13    -0.796555178570E+03   -0.44103E-03   -0.86822E-04 41810   0.756E-02    0.703E-02
DAV:  14    -0.796555430544E+03   -0.25197E-03   -0.58489E-04 40970   0.599E-02    0.546E-02
DAV:  15    -0.796555560774E+03   -0.13023E-03   -0.28372E-04 36430   0.311E-02    0.406E-02
DAV:  16    -0.796555605890E+03   -0.45116E-04   -0.42126E-05 24870   0.127E-02    0.329E-02
DAV:  17    -0.796555642678E+03   -0.36788E-04   -0.23621E-05 27080   0.144E-02    0.277E-02
DAV:  18    -0.796555675353E+03   -0.32675E-04   -0.58234E-05 34290   0.191E-02    0.227E-02
DAV:  19    -0.796555700429E+03   -0.25076E-04   -0.47399E-05 25920   0.141E-02    0.199E-02
DAV:  20    -0.796555720593E+03   -0.20164E-04   -0.25775E-05 30250   0.140E-02    0.158E-02
DAV:  21    -0.796555734965E+03   -0.14372E-04   -0.47140E-05 29660   0.165E-02    0.118E-02
DAV:  22    -0.796555745716E+03   -0.10751E-04   -0.30021E-05 24820   0.982E-03    0.948E-03
DAV:  23    -0.796555748958E+03   -0.32416E-05   -0.40568E-06 17870   0.455E-03
  24 F= -.79655575E+03 E0= -.79655575E+03  d E =-.110711E+01  mag=    47.0000
       N       E                     dE             d eps       ncg     rms          rms(c)
DAV:   1    -0.796187353022E+03    0.36839E+00   -0.30494E+01 34630   0.188E+01    0.259E+00
DAV:   2    -0.796653667023E+03   -0.46631E+00   -0.48929E+00 33570   0.372E+00    0.165E+00
DAV:   3    -0.796682625182E+03   -0.28958E-01   -0.14334E-01 38830   0.854E-01    0.915E-01
DAV:   4    -0.796681372382E+03    0.12528E-02   -0.13420E-02 43000   0.320E-01    0.628E-01
DAV:   5    -0.796681400421E+03   -0.28039E-04   -0.76350E-03 39120   0.239E-01    0.246E-01
DAV:   6    -0.796681815758E+03   -0.41534E-03   -0.18061E-03 39480   0.141E-01    0.157E-01
DAV:   7    -0.796681903348E+03   -0.87590E-04   -0.65171E-04 40630   0.683E-02    0.971E-02
DAV:   8    -0.796682010789E+03   -0.10744E-03   -0.11683E-04 40640   0.333E-02    0.751E-02
DAV:   9    -0.796682119721E+03   -0.10893E-03   -0.87689E-05 38350   0.263E-02    0.583E-02
DAV:  10    -0.796682199713E+03   -0.79992E-04   -0.60889E-05 30560   0.202E-02    0.513E-02
DAV:  11    -0.796682267899E+03   -0.68186E-04   -0.43985E-05 29470   0.181E-02    0.444E-02
DAV:  12    -0.796682369876E+03   -0.10198E-03   -0.11620E-04 38800   0.304E-02    0.335E-02
DAV:  13    -0.796682443604E+03   -0.73728E-04   -0.17667E-04 38180   0.330E-02    0.273E-02
DAV:  14    -0.796682484873E+03   -0.41269E-04   -0.80957E-05 32860   0.194E-02    0.215E-02
DAV:  15    -0.796682503516E+03   -0.18643E-04   -0.27030E-05 22550   0.108E-02    0.172E-02
DAV:  16    -0.796682512871E+03   -0.93556E-05   -0.10685E-05 20460   0.681E-03
  25 F= -.79668251E+03 E0= -.79668251E+03  d E =-.126764E+00  mag=    47.0000
       N       E                     dE             d eps       ncg     rms          rms(c)
DAV:   1    -0.796547611403E+03    0.13489E+00   -0.13462E+01 34970   0.108E+01    0.150E+00
DAV:   2    -0.796694581141E+03   -0.14697E+00   -0.15123E+00 33330   0.208E+00    0.102E+00
DAV:   3    -0.796704270742E+03   -0.96896E-02   -0.38777E-02 37150   0.448E-01    0.564E-01
DAV:   4    -0.796703996790E+03    0.27395E-03   -0.39239E-03 43570   0.186E-01    0.410E-01
DAV:   5    -0.796704237779E+03   -0.24099E-03   -0.23080E-03 41810   0.137E-01    0.137E-01
DAV:   6    -0.796704399093E+03   -0.16131E-03   -0.61110E-04 41510   0.781E-02    0.937E-02
DAV:   7    -0.796704428575E+03   -0.29483E-04   -0.15169E-04 40820   0.372E-02    0.586E-02
DAV:   8    -0.796704477243E+03   -0.48668E-04   -0.38163E-05 31950   0.195E-02    0.492E-02
DAV:   9    -0.796704536327E+03   -0.59084E-04   -0.46438E-05 34560   0.172E-02    0.396E-02
DAV:  10    -0.796704576776E+03   -0.40449E-04   -0.30555E-05 25000   0.128E-02    0.359E-02
DAV:  11    -0.796704621435E+03   -0.44660E-04   -0.26397E-05 29170   0.147E-02    0.316E-02
DAV:  12    -0.796704684384E+03   -0.62949E-04   -0.11291E-04 37560   0.287E-02    0.237E-02
DAV:  13    -0.796704727293E+03   -0.42908E-04   -0.16003E-04 37260   0.279E-02    0.196E-02
DAV:  14    -0.796704754602E+03   -0.27309E-04   -0.50624E-05 27780   0.134E-02    0.151E-02
DAV:  15    -0.796704763117E+03   -0.85150E-05   -0.94974E-06 19630   0.591E-03
  26 F= -.79670476E+03 E0= -.79670476E+03  d E =-.222502E-01  mag=    47.0000
       N       E                     dE             d eps       ncg     rms          rms(c)
DAV:   1    -0.796320801345E+03    0.38395E+00   -0.38132E+01 34360   0.174E+01    0.221E+00
DAV:   2    -0.796665635220E+03   -0.34483E+00   -0.35163E+00 33210   0.338E+00    0.164E+00
DAV:   3    -0.796683532307E+03   -0.17897E-01   -0.82850E-02 36830   0.714E-01    0.899E-01
DAV:   4    -0.796682697591E+03    0.83472E-03   -0.86168E-03 43810   0.310E-01    0.712E-01
DAV:   5    -0.796682853502E+03   -0.15591E-03   -0.58211E-03 43290   0.234E-01    0.216E-01
DAV:   6    -0.796683314982E+03   -0.46148E-03   -0.15806E-03 41750   0.119E-01    0.132E-01
DAV:   7    -0.796683344020E+03   -0.29038E-04   -0.23496E-04 40300   0.514E-02    0.830E-02
DAV:   8    -0.796683424029E+03   -0.80009E-04   -0.88190E-05 39290   0.289E-02    0.643E-02
DAV:   9    -0.796683515816E+03   -0.91787E-04   -0.83377E-05 37850   0.244E-02    0.522E-02
DAV:  10    -0.796683567802E+03   -0.51986E-04   -0.44271E-05 26930   0.157E-02    0.467E-02
DAV:  11    -0.796683647877E+03   -0.80075E-04   -0.47911E-05 31130   0.195E-02    0.410E-02
DAV:  12    -0.796683757275E+03   -0.10940E-03   -0.20172E-04 41610   0.377E-02    0.320E-02
DAV:  13    -0.796683831940E+03   -0.74665E-04   -0.24307E-04 39140   0.342E-02    0.261E-02
DAV:  14    -0.796683875733E+03   -0.43793E-04   -0.77032E-05 32410   0.177E-02    0.203E-02
DAV:  15    -0.796683892619E+03   -0.16886E-04   -0.20583E-05 21700   0.881E-03    0.168E-02
DAV:  16    -0.796683902267E+03   -0.96477E-05   -0.91868E-06 20850   0.652E-03
  27 F= -.79668390E+03 E0= -.79668390E+03  d E =0.208609E-01  mag=    47.0000
       N       E                     dE             d eps       ncg     rms          rms(c)
DAV:   1    -0.795708259641E+03    0.97563E+00   -0.91159E+01 34730   0.299E+01    0.338E+00
DAV:   2    -0.796583179501E+03   -0.87492E+00   -0.89510E+00 32630   0.548E+00    0.189E+00
DAV:   3    -0.796624622980E+03   -0.41443E-01   -0.17601E-01 39710   0.931E-01    0.103E+00
DAV:   4    -0.796622323065E+03    0.22999E-02   -0.14867E-02 45580   0.317E-01    0.671E-01
DAV:   5    -0.796623455956E+03   -0.11329E-02   -0.64563E-03 43970   0.252E-01    0.239E-01
DAV:   6    -0.796624076415E+03   -0.62046E-03   -0.22410E-03 42350   0.151E-01    0.160E-01
DAV:   7    -0.796624167668E+03   -0.91253E-04   -0.35470E-04 40060   0.689E-02    0.108E-01
DAV:   8    -0.796624339780E+03   -0.17211E-03   -0.17648E-04 42920   0.417E-02    0.804E-02
DAV:   9    -0.796624473545E+03   -0.13377E-03   -0.11947E-04 37930   0.266E-02    0.688E-02
DAV:  10    -0.796624568780E+03   -0.95235E-04   -0.57159E-05 31450   0.194E-02    0.626E-02
DAV:  11    -0.796624704644E+03   -0.13586E-03   -0.87543E-05 37700   0.276E-02    0.523E-02
DAV:  12    -0.796624875506E+03   -0.17086E-03   -0.38613E-04 42660   0.580E-02    0.373E-02
DAV:  13    -0.796624972207E+03   -0.96701E-04   -0.34756E-04 41520   0.394E-02    0.300E-02
DAV:  14    -0.796625013123E+03   -0.40916E-04   -0.80202E-05 32190   0.177E-02    0.219E-02
DAV:  15    -0.796625027868E+03   -0.14746E-04   -0.22581E-05 22040   0.817E-03    0.181E-02
DAV:  16    -0.796625035797E+03   -0.79285E-05   -0.40583E-06 17730   0.525E-03
  28 F= -.79662504E+03 E0= -.79662504E+03  d E =0.588665E-01  mag=    47.0000
       N       E                     dE             d eps       ncg     rms          rms(c)
DAV:   1    -0.787194961645E+03    0.94301E+01   -0.56100E+02 35360   0.763E+01    0.113E+01
DAV:   2    -0.795308011432E+03   -0.81130E+01   -0.84458E+01 33520   0.165E+01    0.887E+00
DAV:   3    -0.795676900499E+03   -0.36889E+00   -0.26248E+00 40820   0.414E+00    0.441E+00
DAV:   4    -0.795664643818E+03    0.12257E-01   -0.26342E-01 39980   0.145E+00    0.352E+00
DAV:   5    -0.795655434911E+03    0.92089E-02   -0.14039E-01 42270   0.994E-01    0.156E+00
DAV:   6    -0.795667693577E+03   -0.12259E-01   -0.41134E-02 40160   0.631E-01    0.746E-01
DAV:   7    -0.795668940964E+03   -0.12474E-02   -0.13338E-02 41570   0.323E-01    0.404E-01
DAV:   8    -0.795670447496E+03   -0.15065E-02   -0.22689E-03 40720   0.145E-01    0.319E-01
DAV:   9    -0.795672052129E+03   -0.16046E-02   -0.13333E-03 42180   0.108E-01    0.234E-01
DAV:  10    -0.795673137966E+03   -0.10858E-02   -0.90894E-04 39810   0.770E-02    0.197E-01
DAV:  11    -0.795674032502E+03   -0.89454E-03   -0.52479E-04 40900   0.617E-02    0.176E-01
DAV:  12    -0.795675294117E+03   -0.12616E-02   -0.89573E-04 43940   0.824E-02    0.145E-01
DAV:  13    -0.795676563528E+03   -0.12694E-02   -0.20623E-03 43170   0.131E-01    0.115E-01
DAV:  14    -0.795677324200E+03   -0.76067E-03   -0.17236E-03 41310   0.903E-02    0.924E-02
DAV:  15    -0.795677687094E+03   -0.36289E-03   -0.46874E-04 38150   0.467E-02    0.710E-02
DAV:  16    -0.795677858605E+03   -0.17151E-03   -0.18501E-04 33440   0.250E-02    0.598E-02
DAV:  17    -0.795678003657E+03   -0.14505E-03   -0.92156E-05 37140   0.261E-02    0.494E-02
DAV:  18    -0.795678134771E+03   -0.13111E-03   -0.19532E-04 39470   0.348E-02    0.421E-02
DAV:  19    -0.795678228990E+03   -0.94219E-04   -0.13950E-04 33990   0.241E-02    0.364E-02
DAV:  20    -0.795678304052E+03   -0.75063E-04   -0.89207E-05 35210   0.238E-02    0.308E-02
DAV:  21    -0.795678360690E+03   -0.56637E-04   -0.23105E-04 42030   0.394E-02    0.246E-02
DAV:  22    -0.795678420673E+03   -0.59983E-04   -0.12677E-04 32450   0.206E-02    0.194E-02
DAV:  23    -0.795678436771E+03   -0.16097E-04   -0.17479E-05 20420   0.794E-03    0.140E-02
DAV:  24    -0.795678446140E+03   -0.93696E-05   -0.83013E-06 20140   0.701E-03
  29 F= -.79567845E+03 E0= -.79567845E+03  d E =0.946590E+00  mag=    47.0000
       N       E                     dE             d eps       ncg     rms          rms(c)
DAV:   1    -0.794574779805E+03    0.11037E+01   -0.11167E+02 34850   0.371E+01    0.516E+00
DAV:   2    -0.796438807015E+03   -0.18640E+01   -0.19659E+01 33600   0.760E+00    0.375E+00
DAV:   3    -0.796539427924E+03   -0.10062E+00   -0.60889E-01 41150   0.190E+00    0.192E+00
DAV:   4    -0.796534986982E+03    0.44409E-02   -0.63183E-02 42640   0.744E-01    0.149E+00
DAV:   5    -0.796532988773E+03    0.19982E-02   -0.36492E-02 40430   0.493E-01    0.556E-01
DAV:   6    -0.796535334245E+03   -0.23455E-02   -0.74432E-03 38070   0.266E-01    0.360E-01
DAV:   7    -0.796535723022E+03   -0.38878E-03   -0.29612E-03 41010   0.134E-01    0.210E-01
DAV:   8    -0.796536141230E+03   -0.41821E-03   -0.45722E-04 42420   0.680E-02    0.156E-01
DAV:   9    -0.796536530937E+03   -0.38971E-03   -0.35015E-04 40920   0.558E-02    0.120E-01
DAV:  10    -0.796536835154E+03   -0.30422E-03   -0.25178E-04 39640   0.419E-02    0.102E-01
DAV:  11    -0.796537127737E+03   -0.29258E-03   -0.20575E-04 38990   0.384E-02    0.866E-02
DAV:  12    -0.796537491376E+03   -0.36364E-03   -0.38111E-04 43910   0.561E-02    0.705E-02
DAV:  13    -0.796537742042E+03   -0.25067E-03   -0.46783E-04 41470   0.538E-02    0.538E-02
DAV:  14    -0.796537890692E+03   -0.14865E-03   -0.32558E-04 40710   0.461E-02    0.426E-02
DAV:  15    -0.796537973213E+03   -0.82521E-04   -0.18715E-04 34630   0.252E-02    0.313E-02
DAV:  16    -0.796538002604E+03   -0.29391E-04   -0.28384E-05 22770   0.101E-02    0.256E-02
DAV:  17    -0.796538025985E+03   -0.23382E-04   -0.12871E-05 22460   0.107E-02    0.218E-02
DAV:  18    -0.796538047750E+03   -0.21764E-04   -0.37754E-05 31040   0.149E-02    0.185E-02
DAV:  19    -0.796538064635E+03   -0.16885E-04   -0.29570E-05 25100   0.109E-02    0.166E-02
DAV:  20    -0.796538079237E+03   -0.14602E-04   -0.17526E-05 27130   0.128E-02    0.132E-02
DAV:  21    -0.796538090179E+03   -0.10942E-04   -0.43353E-05 29780   0.137E-02    0.104E-02
DAV:  22    -0.796538098334E+03   -0.81545E-05   -0.19527E-05 21950   0.789E-03
  30 F= -.79653810E+03 E0= -.79653810E+03  d E =-.859652E+00  mag=    47.0000
       N       E                     dE             d eps       ncg     rms          rms(c)
DAV:   1    -0.796151888271E+03    0.38620E+00   -0.32132E+01 34860   0.196E+01    0.271E+00
DAV:   2    -0.796666557818E+03   -0.51467E+00   -0.54193E+00 33560   0.392E+00    0.173E+00
DAV:   3    -0.796698249607E+03   -0.31692E-01   -0.16412E-01 39400   0.925E-01    0.970E-01
DAV:   4    -0.796696866831E+03    0.13828E-02   -0.15554E-02 43080   0.348E-01    0.661E-01
DAV:   5    -0.796696766814E+03    0.10002E-03   -0.88033E-03 40050   0.258E-01    0.263E-01
DAV:   6    -0.796697227134E+03   -0.46032E-03   -0.19351E-03 39270   0.147E-01    0.162E-01
DAV:   7    -0.796697322792E+03   -0.95657E-04   -0.70562E-04 40890   0.707E-02    0.101E-01
DAV:   8    -0.796697438239E+03   -0.11545E-03   -0.12438E-04 41280   0.348E-02    0.777E-02
DAV:   9    -0.796697552731E+03   -0.11449E-03   -0.90805E-05 38570   0.272E-02    0.606E-02
DAV:  10    -0.796697637427E+03   -0.84696E-04   -0.65141E-05 31010   0.209E-02    0.529E-02
DAV:  11    -0.796697714335E+03   -0.76909E-04   -0.49745E-05 31470   0.194E-02    0.456E-02
DAV:  12    -0.796697823735E+03   -0.10940E-03   -0.12213E-04 38820   0.314E-02    0.351E-02
DAV:  13    -0.796697902567E+03   -0.78832E-04   -0.17769E-04 37480   0.322E-02    0.290E-02
DAV:  14    -0.796697947969E+03   -0.45402E-04   -0.85791E-05 33340   0.209E-02    0.223E-02
DAV:  15    -0.796697970807E+03   -0.22838E-04   -0.36350E-05 23670   0.118E-02    0.179E-02
DAV:  16    -0.796697981288E+03   -0.10482E-04   -0.10385E-05 20470   0.674E-03    0.155E-02
DAV:  17    -0.796697990962E+03   -0.96735E-05   -0.75471E-06 18670   0.777E-03
  31 F= -.79669799E+03 E0= -.79669799E+03  d E =-.159893E+00  mag=    47.0000
       N       E                     dE             d eps       ncg     rms          rms(c)
DAV:   1    -0.796670995566E+03    0.26986E-01   -0.36729E+00 35000   0.582E+00    0.804E-01
DAV:   2    -0.796713440617E+03   -0.42445E-01   -0.43905E-01 33360   0.112E+00    0.561E-01
DAV:   3    -0.796716257650E+03   -0.28170E-02   -0.11805E-02 37410   0.248E-01    0.314E-01
DAV:   4    -0.796716164194E+03    0.93455E-04   -0.12356E-03 43740   0.102E-01    0.231E-01
DAV:   5    -0.796716226326E+03   -0.62132E-04   -0.74895E-04 40690   0.776E-02    0.768E-02
DAV:   6    -0.796716270816E+03   -0.44490E-04   -0.19491E-04 41660   0.441E-02    0.520E-02
DAV:   7    -0.796716279766E+03   -0.89499E-05   -0.50508E-05 32830   0.209E-02
  32 F= -.79671628E+03 E0= -.79671628E+03  d E =-.182888E-01  mag=    47.0000
       N       E                     dE             d eps       ncg     rms          rms(c)
DAV:   1    -0.796530030982E+03    0.18624E+00   -0.20082E+01 34270   0.117E+01    0.165E+00
DAV:   2    -0.796703462567E+03   -0.17343E+00   -0.17725E+00 33310   0.230E+00    0.133E+00
DAV:   3    -0.796713521285E+03   -0.10059E-01   -0.45978E-02 36630   0.530E-01    0.740E-01
DAV:   4    -0.796713198264E+03    0.32302E-03   -0.51868E-03 43450   0.238E-01    0.595E-01
DAV:   5    -0.796713307802E+03   -0.10954E-03   -0.38888E-03 41990   0.182E-01    0.172E-01
DAV:   6    -0.796713566805E+03   -0.25900E-03   -0.96642E-04 40780   0.912E-02    0.110E-01
DAV:   7    -0.796713599013E+03   -0.32208E-04   -0.17181E-04 41360   0.401E-02    0.716E-02
DAV:   8    -0.796713668539E+03   -0.69527E-04   -0.57756E-05 37570   0.227E-02    0.581E-02
DAV:   9    -0.796713756278E+03   -0.87739E-04   -0.67631E-05 37120   0.217E-02    0.480E-02
DAV:  10    -0.796713808642E+03   -0.52364E-04   -0.40786E-05 27060   0.145E-02    0.435E-02
DAV:  11    -0.796713882661E+03   -0.74019E-04   -0.42279E-05 31710   0.180E-02    0.384E-02
DAV:  12    -0.796713984297E+03   -0.10164E-03   -0.20086E-04 41010   0.352E-02    0.304E-02
DAV:  13    -0.796714055673E+03   -0.71376E-04   -0.23893E-04 39520   0.341E-02    0.250E-02
DAV:  14    -0.796714103986E+03   -0.48312E-04   -0.76923E-05 32330   0.168E-02    0.197E-02
DAV:  15    -0.796714120561E+03   -0.16575E-04   -0.17262E-05 21350   0.811E-03    0.163E-02
DAV:  16    -0.796714130483E+03   -0.99222E-05   -0.98799E-06 21580   0.648E-03
  33 F= -.79671413E+03 E0= -.79671413E+03  d E =0.214928E-02  mag=    47.0000
       N       E                     dE             d eps       ncg     rms          rms(c)
DAV:   1    -0.796624528190E+03    0.89592E-01   -0.74412E+00 34490   0.752E+00    0.894E-01
DAV:   2    -0.796685503974E+03   -0.60976E-01   -0.62804E-01 33320   0.146E+00    0.740E-01
DAV:   3    -0.796688094977E+03   -0.25910E-02   -0.15908E-02 38730   0.314E-01    0.424E-01
DAV:   4    -0.796687879133E+03    0.21584E-03   -0.17109E-03 43220   0.135E-01    0.350E-01
DAV:   5    -0.796687895180E+03   -0.16047E-04   -0.15819E-03 42110   0.119E-01    0.118E-01
DAV:   6    -0.796688006938E+03   -0.11176E-03   -0.43494E-04 40610   0.619E-02    0.772E-02
DAV:   7    -0.796688039131E+03   -0.32193E-04   -0.10712E-04 38840   0.268E-02    0.567E-02
DAV:   8    -0.796688092234E+03   -0.53103E-04   -0.33654E-05 31160   0.174E-02    0.479E-02
DAV:   9    -0.796688154195E+03   -0.61961E-04   -0.46315E-05 33870   0.178E-02    0.407E-02
DAV:  10    -0.796688201297E+03   -0.47102E-04   -0.37265E-05 27890   0.142E-02    0.363E-02
DAV:  11    -0.796688256343E+03   -0.55046E-04   -0.41482E-05 32420   0.170E-02    0.314E-02
DAV:  12    -0.796688325167E+03   -0.68824E-04   -0.17727E-04 41060   0.334E-02    0.236E-02
DAV:  13    -0.796688371824E+03   -0.46658E-04   -0.13778E-04 36740   0.250E-02    0.194E-02
DAV:  14    -0.796688396599E+03   -0.24775E-04   -0.39141E-05 26350   0.119E-02    0.156E-02
DAV:  15    -0.796688404353E+03   -0.77543E-05   -0.76216E-06 19360   0.544E-03
  34 F= -.79668840E+03 E0= -.79668840E+03  d E =0.257261E-01  mag=    47.0000
       N       E                     dE             d eps       ncg     rms          rms(c)
DAV:   1    -0.783887170485E+03    0.12801E+02   -0.77206E+02 35110   0.862E+01    0.128E+01
DAV:   2    -0.794805737518E+03   -0.10919E+02   -0.11143E+02 33420   0.190E+01    0.109E+01
DAV:   3    -0.795164055896E+03   -0.35832E+00   -0.34927E+00 41300   0.522E+00    0.505E+00
DAV:   4    -0.795156598556E+03    0.74573E-02   -0.34672E-01 40840   0.176E+00    0.414E+00
DAV:   5    -0.795142849010E+03    0.13750E-01   -0.16180E-01 43170   0.110E+00    0.205E+00
DAV:   6    -0.795161592249E+03   -0.18743E-01   -0.60215E-02 40860   0.714E-01    0.874E-01
DAV:   7    -0.795164058949E+03   -0.24667E-02   -0.16703E-02 39740   0.370E-01    0.492E-01
DAV:   8    -0.795166616311E+03   -0.25574E-02   -0.32141E-03 40910   0.170E-01    0.397E-01
DAV:   9    -0.795169331105E+03   -0.27148E-02   -0.19465E-03 42220   0.136E-01    0.309E-01
DAV:  10    -0.795171350654E+03   -0.20195E-02   -0.15601E-03 40090   0.102E-01    0.263E-01
DAV:  11    -0.795173086993E+03   -0.17363E-02   -0.10191E-03 40510   0.825E-02    0.236E-01
DAV:  12    -0.795175419327E+03   -0.23323E-02   -0.17548E-03 43640   0.115E-01    0.194E-01
DAV:  13    -0.795177764660E+03   -0.23453E-02   -0.45602E-03 43480   0.197E-01    0.152E-01
DAV:  14    -0.795179188410E+03   -0.14238E-02   -0.34727E-03 42140   0.121E-01    0.127E-01
DAV:  15    -0.795179779946E+03   -0.59154E-03   -0.68492E-04 37430   0.537E-02    0.980E-02
DAV:  16    -0.795180062910E+03   -0.28296E-03   -0.26736E-04 35580   0.306E-02    0.847E-02
DAV:  17    -0.795180381432E+03   -0.31852E-03   -0.26966E-04 43940   0.462E-02    0.679E-02
DAV:  18    -0.795180633253E+03   -0.25182E-03   -0.43767E-04 41620   0.504E-02    0.607E-02
DAV:  19    -0.795180802031E+03   -0.16878E-03   -0.21675E-04 36980   0.299E-02    0.529E-02
DAV:  20    -0.795180951508E+03   -0.14948E-03   -0.17812E-04 40450   0.353E-02    0.453E-02
[...]
DAV:   4    -0.796723661004E+03    0.21492E-02   -0.11214E-02 41000   0.250E-01    0.548E-01
DAV:   5    -0.796724694943E+03   -0.10339E-02   -0.44068E-03 41460   0.182E-01    0.163E-01
DAV:   6    -0.796725020899E+03   -0.32596E-03   -0.13862E-03 42440   0.104E-01    0.103E-01
DAV:   7    -0.796725023702E+03   -0.28025E-05   -0.15238E-04 42420   0.487E-02    0.590E-02
DAV:   8    -0.796725029277E+03   -0.55750E-05   -0.47469E-05 32570   0.273E-02
 180 F= -.79672503E+03 E0= -.79672503E+03  d E =0.507032E-02  mag=    47.0000
       N       E                     dE             d eps       ncg     rms          rms(c)
DAV:   1    -0.796702812983E+03    0.22211E-01   -0.23823E+00 35020   0.503E+00    0.586E-01
DAV:   2    -0.796728461003E+03   -0.25648E-01   -0.27027E-01 33400   0.977E-01    0.385E-01
DAV:   3    -0.796729924876E+03   -0.14639E-02   -0.83234E-03 40640   0.221E-01    0.210E-01
DAV:   4    -0.796729800524E+03    0.12435E-03   -0.70966E-04 44810   0.808E-02    0.151E-01
DAV:   5    -0.796729771100E+03    0.29424E-04   -0.51263E-04 40040   0.660E-02    0.584E-02
DAV:   6    -0.796729785114E+03   -0.14014E-04   -0.99066E-05 39130   0.358E-02    0.334E-02
DAV:   7    -0.796729786739E+03   -0.16250E-05   -0.45696E-05 30220   0.165E-02
 181 F= -.79672979E+03 E0= -.79672979E+03  d E =-.475746E-02  mag=    47.0000
       N       E                     dE             d eps       ncg     rms          rms(c)
DAV:   1    -0.796723304264E+03    0.64809E-02   -0.66282E-01 34960   0.259E+00    0.289E-01
DAV:   2    -0.796729613362E+03   -0.63091E-02   -0.64440E-02 32750   0.468E-01    0.162E-01
DAV:   3    -0.796729918628E+03   -0.30527E-03   -0.13223E-03 40260   0.865E-02    0.884E-02
DAV:   4    -0.796729902937E+03    0.15691E-04   -0.11847E-04 41070   0.326E-02    0.595E-02
DAV:   5    -0.796729905098E+03   -0.21611E-05   -0.57958E-05 35180   0.260E-02
 182 F= -.79672991E+03 E0= -.79672991E+03  d E =-.118358E-03  mag=    47.0000
       N       E                     dE             d eps       ncg     rms          rms(c)
DAV:   1    -0.796700363528E+03    0.29539E-01   -0.31167E+00 35000   0.554E+00    0.613E-01
DAV:   2    -0.796728294078E+03   -0.27931E-01   -0.28429E-01 31680   0.986E-01    0.333E-01
DAV:   3    -0.796729670915E+03   -0.13768E-02   -0.52513E-03 39860   0.164E-01    0.180E-01
DAV:   4    -0.796729610356E+03    0.60560E-04   -0.46469E-04 45220   0.595E-02    0.116E-01
DAV:   5    -0.796729645604E+03   -0.35248E-04   -0.19050E-04 44170   0.468E-02    0.395E-02
DAV:   6    -0.796729660587E+03   -0.14983E-04   -0.64011E-05 36510   0.271E-02    0.240E-02
DAV:   7    -0.796729660412E+03    0.17518E-06   -0.64124E-06 18660   0.108E-02
 183 F= -.79672966E+03 E0= -.79672966E+03  d E =0.244686E-03  mag=    47.0000
       N       E                     dE             d eps       ncg     rms          rms(c)
DAV:   1    -0.795828216756E+03    0.90144E+00   -0.99439E+01 34860   0.308E+01    0.341E+00
DAV:   2    -0.796686577448E+03   -0.85836E+00   -0.87570E+00 31500   0.548E+00    0.182E+00
DAV:   3    -0.796727441349E+03   -0.40864E-01   -0.15846E-01 38840   0.875E-01    0.983E-01
DAV:   4    -0.796724888754E+03    0.25526E-02   -0.13615E-02 40890   0.277E-01    0.598E-01
DAV:   5    -0.796726212501E+03   -0.13237E-02   -0.50980E-03 42240   0.203E-01    0.182E-01
DAV:   6    -0.796726590859E+03   -0.37836E-03   -0.16110E-03 42840   0.122E-01    0.116E-01
DAV:   7    -0.796726581159E+03    0.96991E-05   -0.16878E-04 42240   0.565E-02    0.626E-02
DAV:   8    -0.796726580630E+03    0.52931E-06   -0.54256E-05 33430   0.286E-02
 184 F= -.79672658E+03 E0= -.79672658E+03  d E =0.307978E-02  mag=    47.0000
       N       E                     dE             d eps       ncg     rms          rms(c)
DAV:   1    -0.796680540729E+03    0.46040E-01   -0.47426E+00 35240   0.690E+00    0.791E-01
DAV:   2    -0.796727305762E+03   -0.46765E-01   -0.48939E-01 33320   0.132E+00    0.540E-01
DAV:   3    -0.796729844549E+03   -0.25388E-02   -0.14417E-02 40570   0.307E-01    0.285E-01
DAV:   4    -0.796729638290E+03    0.20626E-03   -0.12843E-03 44130   0.118E-01    0.216E-01
DAV:   5    -0.796729574579E+03    0.63711E-04   -0.92184E-04 41200   0.910E-02    0.790E-02
DAV:   6    -0.796729613197E+03   -0.38618E-04   -0.18858E-04 40970   0.453E-02    0.447E-02
DAV:   7    -0.796729618371E+03   -0.51739E-05   -0.77634E-05 34720   0.206E-02
 185 F= -.79672962E+03 E0= -.79672962E+03  d E =-.303774E-02  mag=    47.0000
       N       E                     dE             d eps       ncg     rms          rms(c)
DAV:   1    -0.796722682707E+03    0.69305E-02   -0.73480E-01 34740   0.267E+00    0.302E-01
DAV:   2    -0.796729554100E+03   -0.68714E-02   -0.71092E-02 33170   0.493E-01    0.186E-01
DAV:   3    -0.796729900275E+03   -0.34618E-03   -0.17322E-03 39470   0.104E-01    0.988E-02
DAV:   4    -0.796729874448E+03    0.25827E-04   -0.15102E-04 42500   0.401E-02    0.708E-02
DAV:   5    -0.796729868142E+03    0.63064E-05   -0.93524E-05 39040   0.309E-02
 186 F= -.79672987E+03 E0= -.79672987E+03  d E =-.249771E-03  mag=    47.0000
       N       E                     dE             d eps       ncg     rms          rms(c)
DAV:   1    -0.796710330254E+03    0.19544E-01   -0.20837E+00 34850   0.449E+00    0.500E-01
DAV:   2    -0.796728732253E+03   -0.18402E-01   -0.18780E-01 32360   0.801E-01    0.279E-01
DAV:   3    -0.796729645223E+03   -0.91297E-03   -0.36099E-03 39810   0.142E-01    0.150E-01
DAV:   4    -0.796729603785E+03    0.41438E-04   -0.32433E-04 44160   0.541E-02    0.101E-01
DAV:   5    -0.796729619493E+03   -0.15708E-04   -0.15236E-04 43660   0.427E-02    0.350E-02
DAV:   6    -0.796729631053E+03   -0.11559E-04   -0.44958E-05 32480   0.228E-02    0.204E-02
DAV:   7    -0.796729631328E+03   -0.27497E-06   -0.69523E-06 17790   0.909E-03
 187 F= -.79672963E+03 E0= -.79672963E+03  d E =0.236814E-03  mag=    47.0000
       N       E                     dE             d eps       ncg     rms          rms(c)
DAV:   1    -0.795740704608E+03    0.98893E+00   -0.11021E+02 34890   0.324E+01    0.356E+00
DAV:   2    -0.796682483310E+03   -0.94178E+00   -0.96009E+00 31490   0.574E+00    0.192E+00
DAV:   3    -0.796727419130E+03   -0.44936E-01   -0.17496E-01 39400   0.937E-01    0.104E+00
DAV:   4    -0.796724852856E+03    0.25663E-02   -0.15313E-02 44160   0.328E-01    0.653E-01
DAV:   5    -0.796726007641E+03   -0.11548E-02   -0.62557E-03 45550   0.251E-01    0.217E-01
DAV:   6    -0.796726479884E+03   -0.47224E-03   -0.20475E-03 43100   0.148E-01    0.134E-01
DAV:   7    -0.796726461371E+03    0.18513E-04   -0.19482E-04 42130   0.591E-02    0.647E-02
DAV:   8    -0.796726461879E+03   -0.50788E-06   -0.68427E-05 34370   0.285E-02
 188 F= -.79672646E+03 E0= -.79672646E+03  d E =0.316945E-02  mag=    47.0000
       N       E                     dE             d eps       ncg     rms          rms(c)
DAV:   1    -0.796384371838E+03    0.34209E+00   -0.35705E+01 35040   0.184E+01    0.209E+00
DAV:   2    -0.796709030504E+03   -0.32466E+00   -0.33298E+00 32940   0.337E+00    0.122E+00
DAV:   3    -0.796725274160E+03   -0.16244E-01   -0.75025E-02 39830   0.660E-01    0.658E-01
DAV:   4    -0.796724333779E+03    0.94038E-03   -0.64605E-03 43500   0.252E-01    0.458E-01
DAV:   5    -0.796724234625E+03    0.99154E-04   -0.36869E-03 43780   0.198E-01    0.169E-01
DAV:   6    -0.796724492274E+03   -0.25765E-03   -0.10205E-03 42100   0.100E-01    0.906E-02
DAV:   7    -0.796724505923E+03   -0.13649E-04   -0.22460E-04 42310   0.399E-02    0.479E-02
DAV:   8    -0.796724508693E+03   -0.27694E-05   -0.27858E-05 26610   0.197E-02
 189 F= -.79672451E+03 E0= -.79672451E+03  d E =0.195319E-02  mag=    47.0000
       N       E                     dE             d eps       ncg     rms          rms(c)
DAV:   1    -0.796698821992E+03    0.25684E-01   -0.28554E+00 34900   0.517E+00    0.611E-01
DAV:   2    -0.796727264432E+03   -0.28442E-01   -0.29565E-01 33270   0.985E-01    0.360E-01
DAV:   3    -0.796728758980E+03   -0.14945E-02   -0.77572E-03 39670   0.200E-01    0.203E-01
DAV:   4    -0.796728650111E+03    0.10887E-03   -0.61402E-04 44390   0.672E-02    0.133E-01
DAV:   5    -0.796728640223E+03    0.98877E-05   -0.38487E-04 40650   0.560E-02    0.528E-02
DAV:   6    -0.796728654932E+03   -0.14709E-04   -0.88490E-05 38380   0.327E-02    0.309E-02
DAV:   7    -0.796728655673E+03   -0.74094E-06   -0.29062E-05 25320   0.158E-02
 190 F= -.79672866E+03 E0= -.79672866E+03  d E =-.414698E-02  mag=    47.0000
       N       E                     dE             d eps       ncg     rms          rms(c)
DAV:   1    -0.796700146046E+03    0.28509E-01   -0.30224E+00 34830   0.540E+00    0.605E-01
DAV:   2    -0.796727429740E+03   -0.27284E-01   -0.28062E-01 32900   0.977E-01    0.357E-01
DAV:   3    -0.796728796151E+03   -0.13664E-02   -0.61872E-03 39320   0.195E-01    0.191E-01
DAV:   4    -0.796728715675E+03    0.80476E-04   -0.55957E-04 43810   0.758E-02    0.134E-01
DAV:   5    -0.796728706897E+03    0.87779E-05   -0.31374E-04 43670   0.588E-02    0.491E-02
DAV:   6    -0.796728729677E+03   -0.22780E-04   -0.83599E-05 37880   0.285E-02    0.261E-02
DAV:   7    -0.796728730983E+03   -0.13061E-05   -0.14967E-05 18990   0.116E-02
 191 F= -.79672873E+03 E0= -.79672873E+03  d E =-.753098E-04  mag=    47.0000
       N       E                     dE             d eps       ncg     rms          rms(c)
DAV:   1    -0.796670514675E+03    0.58215E-01   -0.63999E+00 34860   0.782E+00    0.860E-01
DAV:   2    -0.796725430846E+03   -0.54916E-01   -0.55991E-01 31570   0.139E+00    0.469E-01
DAV:   3    -0.796728055083E+03   -0.26242E-02   -0.10327E-02 39450   0.236E-01    0.253E-01
DAV:   4    -0.796727915283E+03    0.13980E-03   -0.94295E-04 44030   0.887E-02    0.166E-01
DAV:   5    -0.796727969304E+03   -0.54020E-04   -0.41031E-04 45360   0.685E-02    0.568E-02
DAV:   6    -0.796728002640E+03   -0.33337E-04   -0.13122E-04 42410   0.372E-02    0.340E-02
DAV:   7    -0.796728002568E+03    0.72323E-07   -0.10853E-05 21250   0.138E-02
 192 F= -.79672800E+03 E0= -.79672800E+03  d E =0.728415E-03  mag=    47.0000
       N       E                     dE             d eps       ncg     rms          rms(c)
DAV:   1    -0.795389553951E+03    0.13384E+01   -0.14926E+02 35120   0.377E+01    0.415E+00
DAV:   2    -0.796663388946E+03   -0.12738E+01   -0.12982E+01 31490   0.667E+00    0.222E+00
DAV:   3    -0.796724513551E+03   -0.61125E-01   -0.23718E-01 39350   0.107E+00    0.120E+00
DAV:   4    -0.796720855188E+03    0.36584E-02   -0.19855E-02 42550   0.350E-01    0.739E-01
DAV:   5    -0.796722669958E+03   -0.18148E-02   -0.79199E-03 43930   0.264E-01    0.232E-01
DAV:   6    -0.796723253108E+03   -0.58315E-03   -0.25602E-03 43080   0.161E-01    0.151E-01
DAV:   7    -0.796723232292E+03    0.20816E-04   -0.28737E-04 42290   0.718E-02    0.763E-02
DAV:   8    -0.796723235411E+03   -0.31183E-05   -0.89223E-05 37600   0.344E-02
 193 F= -.79672324E+03 E0= -.79672324E+03  d E =0.476716E-02  mag=    47.0000
       N       E                     dE             d eps       ncg     rms          rms(c)
DAV:   1    -0.796409011067E+03    0.31422E+00   -0.34677E+01 34950   0.179E+01    0.201E+00
DAV:   2    -0.796714464953E+03   -0.30545E+00   -0.31206E+00 32710   0.330E+00    0.121E+00
DAV:   3    -0.796728457375E+03   -0.13992E-01   -0.65554E-02 39650   0.651E-01    0.635E-01
DAV:   4    -0.796727618723E+03    0.83865E-03   -0.61114E-03 43040   0.257E-01    0.470E-01
DAV:   5    -0.796727504328E+03    0.11440E-03   -0.33363E-03 43670   0.192E-01    0.156E-01
DAV:   6    -0.796727789241E+03   -0.28491E-03   -0.96547E-04 41930   0.897E-02    0.885E-02
DAV:   7    -0.796727791950E+03   -0.27087E-05   -0.15028E-04 41580   0.371E-02    0.437E-02
DAV:   8    -0.796727792149E+03   -0.19919E-06   -0.21985E-05 24050   0.186E-02
 194 F= -.79672779E+03 E0= -.79672779E+03  d E =-.455674E-02  mag=    47.0000
       N       E                     dE             d eps       ncg     rms          rms(c)
DAV:   1    -0.796681500101E+03    0.46292E-01   -0.50810E+00 34860   0.698E+00    0.765E-01
DAV:   2    -0.796725674367E+03   -0.44174E-01   -0.44994E-01 31670   0.125E+00    0.430E-01
DAV:   3    -0.796727752838E+03   -0.20785E-02   -0.85770E-03 39770   0.222E-01    0.230E-01
DAV:   4    -0.796727640309E+03    0.11253E-03   -0.77861E-04 42930   0.864E-02    0.157E-01
DAV:   5    -0.796727657972E+03   -0.17663E-04   -0.36227E-04 44540   0.656E-02    0.535E-02
DAV:   6    -0.796727690315E+03   -0.32342E-04   -0.12167E-04 41300   0.341E-02    0.305E-02
DAV:   7    -0.796727690066E+03    0.24914E-06   -0.96772E-06 19880   0.122E-02
 195 F= -.79672769E+03 E0= -.79672769E+03  d E =0.102084E-03  mag=    47.0000
       N       E                     dE             d eps       ncg     rms          rms(c)
DAV:   1    -0.794215569693E+03    0.25121E+01   -0.28225E+02 35090   0.516E+01    0.572E+00
DAV:   2    -0.796606179277E+03   -0.23906E+01   -0.24376E+01 31580   0.918E+00    0.317E+00
DAV:   3    -0.796719479495E+03   -0.11330E+00   -0.45250E-01 39640   0.155E+00    0.169E+00
DAV:   4    -0.796713051549E+03    0.64279E-02   -0.39717E-02 43960   0.577E-01    0.111E+00
DAV:   5    -0.796715132532E+03   -0.20810E-02   -0.18241E-02 45910   0.438E-01    0.374E-01
DAV:   6    -0.796716589114E+03   -0.14566E-02   -0.58918E-03 43080   0.244E-01    0.226E-01
DAV:   7    -0.796716573584E+03    0.15530E-04   -0.57556E-04 41720   0.936E-02    0.109E-01
DAV:   8    -0.796716597975E+03   -0.24390E-04   -0.20625E-04 40490   0.485E-02    0.530E-02
DAV:   9    -0.796716628179E+03   -0.30204E-04   -0.84930E-05 36890   0.260E-02    0.376E-02
DAV:  10    -0.796716643677E+03   -0.15498E-04   -0.20242E-05 22920   0.152E-02    0.315E-02
DAV:  11    -0.796716663076E+03   -0.19399E-04   -0.11173E-05 19800   0.913E-03    0.282E-02
DAV:  12    -0.796716692025E+03   -0.28949E-04   -0.17704E-05 26440   0.116E-02    0.239E-02
DAV:  13    -0.796716730938E+03   -0.38912E-04   -0.89457E-05 36350   0.246E-02    0.176E-02
DAV:  14    -0.796716752614E+03   -0.21677E-04   -0.60133E-05 29590   0.146E-02    0.144E-02
DAV:  15    -0.796716761948E+03   -0.93337E-05   -0.12410E-05 21470   0.860E-03
 196 F= -.79671676E+03 E0= -.79671676E+03  d E =0.109281E-01  mag=    47.0000
       N       E                     dE             d eps       ncg     rms          rms(c)
DAV:   1    -0.794627225228E+03    0.20895E+01   -0.23123E+02 35080   0.470E+01    0.521E+00
DAV:   2    -0.796619917172E+03   -0.19927E+01   -0.20320E+01 31490   0.835E+00    0.280E+00
DAV:   3    -0.796715656525E+03   -0.95739E-01   -0.36563E-01 39190   0.133E+00    0.151E+00
DAV:   4    -0.796709879905E+03    0.57766E-02   -0.30742E-02 41080   0.415E-01    0.916E-01
DAV:   5    -0.796712885275E+03   -0.30054E-02   -0.11514E-02 42480   0.309E-01    0.279E-01
DAV:   6    -0.796713790777E+03   -0.90550E-03   -0.36932E-03 42660   0.179E-01    0.176E-01
DAV:   7    -0.796713779296E+03    0.11480E-04   -0.37440E-04 42050   0.839E-02    0.963E-02
DAV:   8    -0.796713794334E+03   -0.15038E-04   -0.13903E-04 41810   0.427E-02    0.440E-02
DAV:   9    -0.796713816132E+03   -0.21798E-04   -0.58994E-05 32160   0.188E-02    0.291E-02
DAV:  10    -0.796713828129E+03   -0.11996E-04   -0.12793E-05 18910   0.108E-02    0.258E-02
DAV:  11    -0.796713838907E+03   -0.10779E-04   -0.69478E-06 17740   0.716E-03    0.233E-02
DAV:  12    -0.796713859724E+03   -0.20816E-04   -0.11006E-05 21920   0.113E-02    0.196E-02
DAV:  13    -0.796713883588E+03   -0.23864E-04   -0.60667E-05 33280   0.180E-02    0.148E-02
DAV:  14    -0.796713897210E+03   -0.13622E-04   -0.33528E-05 25110   0.122E-02    0.116E-02
DAV:  15    -0.796713903815E+03   -0.66044E-05   -0.11040E-05 23130   0.792E-03
 197 F= -.79671390E+03 E0= -.79671390E+03  d E =0.285813E-02  mag=    47.0000
       N       E                     dE             d eps       ncg     rms          rms(c)
DAV:   1    -0.795974862110E+03    0.73904E+00   -0.83232E+01 35250   0.278E+01    0.308E+00
DAV:   2    -0.796689505289E+03   -0.71464E+00   -0.72786E+00 31860   0.506E+00    0.175E+00
DAV:   3    -0.796722683727E+03   -0.33178E-01   -0.13995E-01 39730   0.913E-01    0.924E-01
DAV:   4    -0.796720858418E+03    0.18253E-02   -0.12638E-02 43180   0.357E-01    0.661E-01
DAV:   5    -0.796721003649E+03   -0.14523E-03   -0.63446E-03 44350   0.279E-01    0.221E-01
DAV:   6    -0.796721606115E+03   -0.60247E-03   -0.19854E-03 42440   0.133E-01    0.125E-01
DAV:   7    -0.796721616925E+03   -0.10810E-04   -0.20052E-04 41480   0.500E-02    0.631E-02
DAV:   8    -0.796721626760E+03   -0.98344E-05   -0.66487E-05 35120   0.286E-02
 198 F= -.79672163E+03 E0= -.79672163E+03  d E =-.772295E-02  mag=    47.0000
       N       E                     dE             d eps       ncg     rms          rms(c)
DAV:   1    -0.792813570606E+03    0.39080E+01   -0.42586E+02 35360   0.632E+01    0.710E+00
DAV:   2    -0.796553926286E+03   -0.37404E+01   -0.38045E+01 31480   0.115E+01    0.385E+00
DAV:   3    -0.796727071628E+03   -0.17315E+00   -0.69509E-01 39820   0.189E+00    0.205E+00
DAV:   4    -0.796717769072E+03    0.93026E-02   -0.59374E-02 44190   0.657E-01    0.134E+00
DAV:   5    -0.796721611856E+03   -0.38428E-02   -0.25169E-02 45330   0.531E-01    0.487E-01
DAV:   6    -0.796723708864E+03   -0.20970E-02   -0.89292E-03 42790   0.309E-01    0.282E-01
DAV:   7    -0.796723669801E+03    0.39064E-04   -0.97579E-04 41790   0.127E-01    0.138E-01
DAV:   8    -0.796723720604E+03   -0.50804E-04   -0.35664E-04 40400   0.622E-02    0.658E-02
DAV:   9    -0.796723776880E+03   -0.56276E-04   -0.13298E-04 38760   0.303E-02    0.496E-02
DAV:  10    -0.796723805360E+03   -0.28481E-04   -0.32902E-05 26430   0.192E-02    0.424E-02
DAV:  11    -0.796723841695E+03   -0.36334E-04   -0.20265E-05 23920   0.128E-02    0.376E-02
DAV:  12    -0.796723905951E+03   -0.64256E-04   -0.51149E-05 32660   0.221E-02    0.298E-02
DAV:  13    -0.796723964247E+03   -0.58296E-04   -0.22277E-04 39520   0.364E-02    0.214E-02
DAV:  14    -0.796723997703E+03   -0.33456E-04   -0.80902E-05 31470   0.176E-02    0.178E-02
DAV:  15    -0.796724008164E+03   -0.10462E-04   -0.12619E-05 19260   0.863E-03    0.121E-02
DAV:  16    -0.796724014670E+03   -0.65056E-05   -0.11614E-05 20970   0.691E-03
 199 F= -.79672401E+03 E0= -.79672401E+03  d E =-.238791E-02  mag=    47.0000
       N       E                     dE             d eps       ncg     rms          rms(c)
DAV:   1    -0.791544164916E+03    0.51798E+01   -0.55388E+02 35370   0.723E+01    0.820E+00
DAV:   2    -0.796494981538E+03   -0.49508E+01   -0.50347E+01 31440   0.132E+01    0.439E+00
DAV:   3    -0.796725877155E+03   -0.23090E+00   -0.91309E-01 39170   0.209E+00    0.234E+00
DAV:   4    -0.796713349590E+03    0.12528E-01   -0.73840E-02 41400   0.639E-01    0.145E+00
DAV:   5    -0.796719985544E+03   -0.66360E-02   -0.27463E-02 44710   0.506E-01    0.487E-01
DAV:   6    -0.796722349557E+03   -0.23640E-02   -0.95896E-03 42990   0.309E-01    0.292E-01
DAV:   7    -0.796722248185E+03    0.10137E-03   -0.11640E-03 42500   0.149E-01    0.152E-01
DAV:   8    -0.796722258629E+03   -0.10444E-04   -0.37604E-04 41530   0.697E-02    0.622E-02
DAV:   9    -0.796722302564E+03   -0.43935E-04   -0.14301E-04 38400   0.277E-02    0.410E-02
DAV:  10    -0.796722322947E+03   -0.20383E-04   -0.22645E-05 23220   0.153E-02    0.349E-02
DAV:  11    -0.796722341132E+03   -0.18185E-04   -0.11157E-05 19160   0.982E-03    0.309E-02
DAV:  12    -0.796722384382E+03   -0.43250E-04   -0.32683E-05 28800   0.195E-02    0.242E-02
DAV:  13    -0.796722418955E+03   -0.34573E-04   -0.11855E-04 35990   0.233E-02    0.175E-02
DAV:  14    -0.796722437363E+03   -0.18408E-04   -0.42648E-05 25950   0.134E-02    0.138E-02
DAV:  15    -0.796722445344E+03   -0.79808E-05   -0.13909E-05 21530   0.884E-03
 200 F= -.79672245E+03 E0= -.79672245E+03  d E =0.156933E-02  mag=    47.0000
