       N       E                     dE             d eps       ncg     rms          ort
DAV:   1     0.102909567073E+05    0.10291E+05   -0.42484E+05 10640   0.155E+03
DAV:   2    -0.141829759663E+03   -0.10433E+05   -0.98369E+04 10640   0.475E+02
DAV:   3    -0.154749456806E+04   -0.14057E+04   -0.13142E+04 10640   0.182E+02
DAV:   4    -0.162830005579E+04   -0.80805E+02   -0.78632E+02 10640   0.460E+01
DAV:   5    -0.163064226971E+04   -0.23422E+01   -0.23349E+01 10640   0.833E+00
SDA:   6    -0.765533336356E+03    0.86511E+03   -0.23349E+01 10640   0.283E+04 0.000E+00
CGA:   7    -0.117283468608E+04   -0.40730E+03   -0.40313E+03 10640   0.811E+03-0.129E+02
CGA:   8    -0.119813676677E+04   -0.25302E+02   -0.45598E+02 10640   0.772E+03-0.318E+03
CGA:   9    -0.123565350659E+04   -0.37517E+02   -0.27118E+02 10640   0.378E+03-0.470E+02
CGA:  10    -0.125272071545E+04   -0.17067E+02   -0.22052E+02 10640   0.409E+03-0.736E+02
CGA:  11    -0.126738277949E+04   -0.14662E+02   -0.17944E+02 10640   0.399E+03-0.111E+03
CGA:  12    -0.127410558323E+04   -0.67228E+01   -0.14132E+02 10640   0.517E+03-0.135E+03
CGA:  13    -0.127305807908E+04    0.10475E+01   -0.10420E+02 10640   0.568E+03-0.323E+03
CGA:  14    -0.127328997205E+04   -0.23189E+00   -0.26967E+02 10640   0.646E+03-0.359E+03
CGA:  15    -0.127349109926E+04   -0.20113E+00   -0.25122E+02 10640   0.105E+04-0.855E+03
CGA:  16    -0.126378337469E+04    0.97077E+01   -0.45622E+02 10640   0.111E+04-0.794E+03
CGA:  17    -0.127373554862E+04   -0.99522E+01   -0.39419E+02 10640   0.114E+04-0.126E+04
CGA:  18    -0.127001444860E+04    0.37211E+01   -0.45209E+02 10640   0.104E+04-0.899E+03
CGA:  19    -0.128119316212E+04   -0.11179E+02   -0.35041E+02 10640   0.914E+03-0.111E+04
CGA:  20    -0.128153210965E+04   -0.33895E+00   -0.33536E+02 10640   0.788E+03-0.747E+03
CGA:  21    -0.129078965840E+04   -0.92575E+01   -0.24859E+02 10640   0.519E+03-0.689E+03
CGA:  22    -0.129458970893E+04   -0.38001E+01   -0.16699E+02 10640   0.323E+03-0.376E+03
CGA:  23    -0.129990116819E+04   -0.53115E+01   -0.83517E+01 10640   0.709E+02-0.138E+03
CGA:  24    -0.130171728347E+04   -0.18161E+01   -0.18584E+01 10640   0.105E+02-0.535E+00
CGA:  25    -0.130251419772E+04   -0.79691E+00   -0.83747E+00 10640   0.201E+02 0.191E+00
CGA:  26    -0.130463791675E+04   -0.21237E+01   -0.21252E+01 10640   0.753E+01 0.790E+00
CGA:  27    -0.130497292013E+04   -0.33500E+00   -0.36779E+00 10640   0.261E+01-0.580E+00
CGA:  28    -0.130527778487E+04   -0.30486E+00   -0.30239E+00 10640   0.387E+01 0.137E-01
CGA:  29    -0.130570274417E+04   -0.42496E+00   -0.42388E+00 10640   0.248E+01-0.305E-01
CGA:  30    -0.130587976757E+04   -0.17702E+00   -0.17484E+00 10640   0.100E+01-0.158E+00
CGA:  31    -0.130599761862E+04   -0.11785E+00   -0.12019E+00 10640   0.123E+01-0.119E+00
CGA:  32    -0.130613690039E+04   -0.13928E+00   -0.14536E+00 10640   0.107E+01-0.242E+00
CGA:  33    -0.130622135395E+04   -0.84454E-01   -0.83045E-01 10640   0.519E+00-0.218E+00
CGA:  34    -0.130627295634E+04   -0.51602E-01   -0.59699E-01 10640   0.936E+00-0.212E+00
CGA:  35    -0.130626996626E+04    0.29901E-02   -0.16408E+00 10640   0.215E+01-0.859E+00
CGA:  36    -0.130636997427E+04   -0.10001E+00   -0.10034E+00 10640   0.380E+00-0.140E-01
CGA:  37    -0.130644954807E+04   -0.79574E-01   -0.79505E-01 10640   0.413E+00 0.180E-02
CGA:  38    -0.130649395691E+04   -0.44409E-01   -0.44605E-01 10640   0.157E+00 0.211E-01
CGA:  39    -0.130653038031E+04   -0.36423E-01   -0.33256E-01 10640   0.114E+00 0.380E-01
CGA:  40    -0.130654236689E+04   -0.11987E-01   -0.12577E-01 10640   0.394E-01 0.185E-01
CGA:  41    -0.130654708484E+04   -0.47179E-02   -0.48790E-02 10640   0.321E-01 0.125E-01
CGA:  42    -0.130655396649E+04   -0.68817E-02   -0.63533E-02 10640   0.141E-01 0.165E-01
CGA:  43    -0.130655509950E+04   -0.11330E-02   -0.11619E-02 10640   0.966E-02 0.760E-03
CGA:  44    -0.130655688794E+04   -0.17884E-02   -0.16496E-02 10640   0.956E-02 0.307E-02
CGA:  45    -0.130655831340E+04   -0.14255E-02   -0.14481E-02 10640   0.534E-02 0.375E-02
CGA:  46    -0.130655956419E+04   -0.12508E-02   -0.11241E-02 10640   0.561E-02 0.368E-02
CGA:  47    -0.130655996850E+04   -0.40431E-03   -0.39511E-03 10640   0.266E-02-0.180E-03
CGA:  48    -0.130655965649E+04    0.31201E-03   -0.45188E-03 10640   0.450E-01-0.421E-02
CGA:  49    -0.130656257321E+04   -0.29167E-02   -0.27253E-02 10640   0.737E-02-0.120E-02
CGA:  50    -0.130656383017E+04   -0.12570E-02   -0.10678E-02 10640   0.880E-02-0.311E-02
CGA:  51    -0.130656485006E+04   -0.10199E-02   -0.68641E-03 10640   0.386E-02-0.467E-02
CGA:  52    -0.130656540221E+04   -0.55215E-03   -0.54488E-03 10640   0.373E-02-0.113E-03
CGA:  53    -0.130656575063E+04   -0.34843E-03   -0.27939E-03 10640   0.669E-03-0.563E-03
CGA:  54    -0.130656628217E+04   -0.53154E-03    0.38975E-04 10640   0.163E-02-0.215E-03
CGA:  55    -0.130656811331E+04   -0.18311E-02    0.32658E-04 10640   0.215E-02 0.330E-03
CGA:  56    -0.130657075156E+04   -0.26383E-02    0.15271E-03 10640   0.302E-02-0.123E-02
CGA:  57    -0.130657098670E+04   -0.23514E-03   -0.21021E-03 10640   0.255E-03-0.196E-03
CGA:  58    -0.130657111129E+04   -0.12459E-03    0.56779E-04 10640   0.145E-02-0.376E-03
CGA:  59    -0.130657122112E+04   -0.10983E-03   -0.73964E-04 10640   0.134E-03-0.261E-03
CGA:  60    -0.130657140635E+04   -0.18523E-03    0.27214E-05 10640   0.450E-03-0.106E-03
CGA:  61    -0.130657148866E+04   -0.82317E-04   -0.40399E-04 10640   0.660E-03-0.460E-03
CGA:  62    -0.130657156057E+04   -0.71910E-04   -0.38607E-04 10640   0.190E-03-0.282E-03
CGA:  63    -0.130657176527E+04   -0.20469E-03    0.20368E-05 10640   0.169E-03-0.283E-04
CGA:  64    -0.130657208579E+04   -0.32053E-03    0.22063E-05 10640   0.385E-03-0.789E-04
CGA:  65    -0.130657297049E+04   -0.88470E-03    0.15002E-05 10640   0.688E-04 0.111E-03
CGA:  66    -0.130657319545E+04   -0.22496E-03    0.11681E-05 10640   0.513E-03-0.134E-03
CGA:  67    -0.130657323850E+04   -0.43045E-04   -0.26686E-04 10640   0.662E-04-0.138E-03
CGA:  68    -0.130657331855E+04   -0.80057E-04    0.98889E-06 10640   0.180E-03-0.566E-04
CGA:  69    -0.130657335055E+04   -0.31992E-04   -0.16613E-04 10640   0.311E-03-0.213E-03
CGA:  70    -0.130657338508E+04   -0.34531E-04   -0.18590E-04 10640   0.994E-04-0.157E-03
CGA:  71    -0.130657341781E+04   -0.32731E-04    0.13484E-03 10640   0.856E-03-0.271E-03
CGA:  72    -0.130657346786E+04   -0.50056E-04   -0.37505E-04 10640   0.238E-04-0.111E-03
CGA:  73    -0.130657352479E+04   -0.56928E-04    0.19074E-06 10640   0.816E-04-0.210E-04
CGA:  74    -0.130657355927E+04   -0.34478E-04    0.15011E-04 10640   0.638E-03-0.211E-03
CGA:  75    -0.130657359831E+04   -0.39040E-04   -0.28589E-04 10640   0.235E-04-0.984E-04
CGA:  76    -0.130657364957E+04   -0.51259E-04    0.18210E-06 10640   0.706E-04-0.199E-04
CGA:  77    -0.130657368089E+04   -0.31318E-04    0.96403E-05 10640   0.504E-03-0.174E-03
CGA:  78    -0.130657371507E+04   -0.34185E-04   -0.23694E-04 10640   0.303E-04-0.106E-03
CGA:  79    -0.130657376083E+04   -0.45755E-04    0.28563E-06 10640   0.747E-04-0.253E-04
CGA:  80    -0.130657378840E+04   -0.27570E-04    0.16406E-04 10640   0.494E-03-0.180E-03
CGA:  81    -0.130657381967E+04   -0.31268E-04   -0.22650E-04 10640   0.231E-04-0.909E-04
CGA:  82    -0.130657386035E+04   -0.40681E-04    0.18246E-06 10640   0.569E-04-0.193E-04
CGA:  83    -0.130657388715E+04   -0.26802E-04    0.51793E-05 10640   0.340E-03-0.129E-03
CGA:  84    -0.130657391316E+04   -0.26016E-04   -0.17211E-04 10640   0.381E-04-0.103E-03
CGA:  85    -0.130657395173E+04   -0.38569E-04    0.38090E-06 10640   0.544E-04-0.230E-04
CGA:  86    -0.130657397678E+04   -0.25044E-04    0.47225E-05 10640   0.301E-03-0.119E-03
CGA:  87    -0.130657399929E+04   -0.22516E-04   -0.15173E-04 10640   0.330E-04-0.907E-04
CGA:  88    -0.130657403418E+04   -0.34890E-04    0.29546E-06 10640   0.433E-04-0.191E-04
CGA:  89    -0.130657405736E+04   -0.23174E-04    0.24779E-05 10640   0.218E-03-0.900E-04
CGA:  90    -0.130657407732E+04   -0.19961E-04   -0.12587E-04 10640   0.580E-04-0.106E-03
CGA:  91    -0.130657411441E+04   -0.37092E-04    0.45494E-06 10640   0.181E-04-0.104E-04
CGA:  92    -0.130657415229E+04   -0.37882E-04    0.97906E-07 10640   0.295E-04-0.112E-04
CGA:  93    -0.130657417368E+04   -0.21385E-04    0.94125E-06 10640   0.136E-03-0.579E-04
CGA:  94    -0.130657418979E+04   -0.16117E-04   -0.10050E-04 10640   0.117E-03-0.122E-03
CGA:  95    -0.130657420437E+04   -0.14573E-04   -0.95354E-05 10640   0.148E-03-0.127E-03
CGA:  96    -0.130657422023E+04   -0.15865E-04   -0.10145E-04 10640   0.931E-04-0.113E-03
CGA:  97    -0.130657423124E+04   -0.11006E-04   -0.10675E-04 10640   0.363E-03-0.179E-03
CGA:  98    -0.130657425353E+04   -0.22293E-04   -0.16932E-04 10640   0.188E-04-0.762E-04
CGA:  99    -0.130657427482E+04   -0.21288E-04    0.15694E-06 10640   0.279E-04-0.140E-04
CGA: 100    -0.130657429236E+04   -0.17545E-04    0.88100E-06 10640   0.101E-03-0.490E-04
CGA: 101    -0.130657430443E+04   -0.12068E-04   -0.90112E-05 10640   0.178E-03-0.131E-03
CGA: 102    -0.130657431958E+04   -0.15151E-04   -0.10345E-04 10640   0.479E-04-0.889E-04
CGA: 103    -0.130657434406E+04   -0.24482E-04    0.35819E-06 10640   0.727E-05-0.582E-05
CGA: 104    -0.130657436505E+04   -0.20986E-04    0.24788E-07 10640   0.107E-04-0.409E-05
CGA: 105    -0.130657438096E+04   -0.15914E-04    0.99888E-07 10640   0.330E-04-0.158E-04
CGA: 106    -0.130657439482E+04   -0.13853E-04    0.19489E-05 10640   0.109E-03-0.572E-04
CGA: 107    -0.130657440601E+04   -0.11198E-04   -0.77290E-05 10640   0.782E-04-0.900E-04
CGA: 108    -0.130657441318E+04   -0.71659E-05   -0.94798E-05 10640   0.361E-03-0.165E-03
CGA: 109    -0.130657443240E+04   -0.19223E-04   -0.15875E-04 10640   0.896E-05-0.519E-04
CGA: 110    -0.130657444719E+04   -0.14790E-04    0.48986E-07 10640   0.138E-04-0.714E-05
CGA: 111    -0.130657446010E+04   -0.12906E-04    0.20675E-06 10640   0.390E-04-0.209E-04
CGA: 112    -0.130657447125E+04   -0.11149E-04    0.56208E-05 10640   0.115E-03-0.648E-04
CGA: 113    -0.130657448148E+04   -0.10237E-04   -0.72196E-05 10640   0.474E-04-0.718E-04
CGA: 114    -0.130657449152E+04   -0.10031E-04    0.75009E-04 10640   0.131E-03-0.768E-04
CGA: 115    -0.130657450194E+04   -0.10427E-04   -0.75308E-05 10640   0.329E-04-0.638E-04
CGA: 116    -0.130657451838E+04   -0.16440E-04    0.22190E-06 10640   0.359E-05-0.356E-05
CGA: 117    -0.130657453165E+04   -0.13263E-04    0.81931E-08 10640   0.436E-05-0.163E-05
CGA: 118    -0.130657455934E+04   -0.27698E-04    0.21087E-08 10640   0.228E-05 0.213E-05
CGA: 119    -0.130657458437E+04   -0.25026E-04    0.47378E-08 10640   0.621E-05-0.168E-05
CGA: 120    -0.130657459396E+04   -0.95939E-05    0.46490E-07 10640   0.152E-04-0.840E-05
   1 F= -.13065746E+04 E0= -.13065542E+04  d E =-.130657E+04  mag=    47.0000
       N       E                     dE             d eps       ncg     rms          ort
SDA:   1    -0.130657964711E+04   -0.50627E-02    0.00000E+00 10640   0.470E-01 0.000E+00
CGA:   2    -0.130658162620E+04   -0.19791E-02   -0.19780E-02 10640   0.539E-02 0.590E-04
CGA:   3    -0.130658318027E+04   -0.15541E-02   -0.14758E-02 10640   0.193E-02 0.445E-03
CGA:   4    -0.130658346780E+04   -0.28752E-03   -0.29566E-03 10640   0.177E-02-0.229E-03
CGA:   5    -0.130658365279E+04   -0.18499E-03   -0.19415E-03 10640   0.686E-03-0.559E-03
CGA:   6    -0.130658369084E+04   -0.38051E-04   -0.33172E-04 10640   0.284E-03-0.127E-03
CGA:   7    -0.130658372220E+04   -0.31364E-04   -0.36720E-04 10640   0.229E-03-0.103E-03
CGA:   8    -0.130658373803E+04   -0.15826E-04   -0.15605E-04 10640   0.132E-03-0.968E-04
CGA:   9    -0.130658373065E+04    0.73825E-05   -0.25419E-04 10640   0.706E-03-0.146E-03
CGA:  10    -0.130658376459E+04   -0.33948E-04   -0.33378E-04 10640   0.565E-04-0.712E-05
CGA:  11    -0.130658377780E+04   -0.13208E-04    0.32486E-03 10640   0.279E-04 0.133E-04
CGA:  12    -0.130658378882E+04   -0.11021E-04    0.54921E-05 10640   0.115E-04 0.120E-05
CGA:  13    -0.130658379585E+04   -0.70289E-05    0.46810E-06 10640   0.108E-04-0.256E-05
   2 F= -.13065838E+04 E0= -.13065634E+04  d E =-.920189E-02  mag=    47.0000
       N       E                     dE             d eps       ncg     rms          ort
SDA:   1    -0.130598132294E+04    0.60247E+00    0.00000E+00 10640   0.197E+01 0.000E+00
CGA:   2    -0.130635857156E+04   -0.37725E+00   -0.37697E+00 10640   0.293E+01 0.468E-02
CGA:   3    -0.130658219113E+04   -0.22362E+00   -0.22395E+00 10640   0.640E+00 0.361E-02
CGA:   4    -0.130665810875E+04   -0.75918E-01   -0.75918E-01 10640   0.396E+00-0.262E-02
CGA:   5    -0.130669512590E+04   -0.37017E-01   -0.36915E-01 10640   0.684E-01-0.408E-02
CGA:   6    -0.130670191881E+04   -0.67929E-02   -0.67741E-02 10640   0.436E-01-0.102E-02
CGA:   7    -0.130670677010E+04   -0.48513E-02   -0.48493E-02 10640   0.147E-01-0.535E-03
CGA:   8    -0.130670808367E+04   -0.13136E-02   -0.13150E-02 10640   0.578E-02 0.659E-04
CGA:   9    -0.130670894115E+04   -0.85747E-03   -0.83367E-03 10640   0.261E-02 0.833E-03
CGA:  10    -0.130670916059E+04   -0.21944E-03   -0.23415E-03 10640   0.117E-02 0.390E-03
CGA:  11    -0.130670932252E+04   -0.16193E-03   -0.15979E-03 10640   0.573E-03 0.455E-03
CGA:  12    -0.130670939351E+04   -0.70986E-04   -0.76202E-04 10640   0.261E-03 0.275E-03
CGA:  13    -0.130670944418E+04   -0.50670E-04   -0.48524E-04 10640   0.151E-03 0.178E-03
CGA:  14    -0.130670946669E+04   -0.22509E-04   -0.23872E-04 10640   0.308E-03-0.313E-04
CGA:  15    -0.130670949534E+04   -0.28651E-04   -0.28614E-04 10640   0.236E-03 0.505E-04
CGA:  16    -0.130670950565E+04   -0.10316E-04   -0.15532E-04 10640   0.731E-04 0.871E-04
CGA:  17    -0.130670950634E+04   -0.69047E-06   -0.43112E-05 10640   0.388E-04 0.514E-04
   3 F= -.13067095E+04 E0= -.13066893E+04  d E =-.125710E+00  mag=    47.0000
       N       E                     dE             d eps       ncg     rms          ort
SDA:   1    -0.130222650980E+04    0.44830E+01    0.00000E+00 10640   0.141E+02 0.000E+00
CGA:   2    -0.130431503245E+04   -0.20885E+01   -0.20943E+01 10640   0.176E+02-0.104E+00
CGA:   3    -0.130588363575E+04   -0.15686E+01   -0.15692E+01 10640   0.487E+01 0.269E-01
CGA:   4    -0.130647189465E+04   -0.58826E+00   -0.58819E+00 10640   0.309E+01 0.408E-02
CGA:   5    -0.130675299867E+04   -0.28110E+00   -0.28105E+00 10640   0.538E+00-0.415E-02
CGA:   6    -0.130680198623E+04   -0.48988E-01   -0.48955E-01 10640   0.321E+00-0.130E-02
CGA:   7    -0.130683957296E+04   -0.37587E-01   -0.37605E-01 10640   0.113E+00-0.137E-02
CGA:   8    -0.130685036067E+04   -0.10788E-01   -0.10788E-01 10640   0.466E-01 0.373E-04
CGA:   9    -0.130685837689E+04   -0.80162E-02   -0.79122E-02 10640   0.192E-01 0.167E-02
CGA:  10    -0.130686020328E+04   -0.18264E-02   -0.18410E-02 10640   0.123E-01 0.860E-03
CGA:  11    -0.130686197939E+04   -0.17761E-02   -0.17430E-02 10640   0.662E-02 0.125E-02
CGA:  12    -0.130686259469E+04   -0.61530E-03   -0.62884E-03 10640   0.278E-02 0.560E-03
CGA:  13    -0.130686311980E+04   -0.52511E-03   -0.50534E-03 10640   0.250E-02 0.339E-03
CGA:  14    -0.130686345783E+04   -0.33803E-03   -0.33802E-03 10640   0.112E-02 0.439E-06
CGA:  15    -0.130686358880E+04   -0.13098E-03   -0.13029E-03 10640   0.721E-03 0.176E-03
CGA:  16    -0.130686368549E+04   -0.96686E-04   -0.96336E-04 10640   0.438E-03 0.133E-03
CGA:  17    -0.130686375070E+04   -0.65211E-04   -0.64059E-04 10640   0.229E-03 0.107E-03
CGA:  18    -0.130686377077E+04   -0.20071E-04   -0.24540E-04 10640   0.115E-03 0.162E-03
CGA:  19    -0.130686378100E+04   -0.10232E-04   -0.11231E-04 10640   0.995E-04 0.683E-04
CGA:  20    -0.130686378728E+04   -0.62797E-05   -0.79319E-05 10640   0.866E-04 0.520E-04
   4 F= -.13068638E+04 E0= -.13068439E+04  d E =-.154281E+00  mag=    47.0000
       N       E                     dE             d eps       ncg     rms          ort
SDA:   1    -0.130586092128E+04    0.10029E+01    0.00000E+00 10640   0.317E+01 0.000E+00
CGA:   2    -0.130643426936E+04   -0.57335E+00   -0.57312E+00 10640   0.271E+01 0.403E-02
CGA:   3    -0.130666427530E+04   -0.23001E+00   -0.23012E+00 10640   0.119E+01 0.432E-02
CGA:   4    -0.130682403230E+04   -0.15976E+00   -0.15968E+00 10640   0.554E+00 0.323E-02
CGA:   5    -0.130686802303E+04   -0.43991E-01   -0.43951E-01 10640   0.964E-01-0.526E-03
CGA:   6    -0.130687969618E+04   -0.11673E-01   -0.11667E-01 10640   0.643E-01 0.592E-03
CGA:   7    -0.130688509241E+04   -0.53962E-02   -0.53954E-02 10640   0.183E-01 0.200E-04
CGA:   8    -0.130688707419E+04   -0.19818E-02   -0.19817E-02 10640   0.116E-01-0.767E-04
CGA:   9    -0.130688854636E+04   -0.14722E-02   -0.14692E-02 10640   0.309E-02 0.169E-03
CGA:  10    -0.130688894767E+04   -0.40130E-03   -0.39854E-03 10640   0.275E-02 0.166E-03
CGA:  11    -0.130688926453E+04   -0.31686E-03   -0.31727E-03 10640   0.101E-02 0.259E-03
CGA:  12    -0.130688937625E+04   -0.11172E-03   -0.11327E-03 10640   0.568E-03 0.194E-03
CGA:  13    -0.130688952055E+04   -0.14430E-03   -0.12744E-03 10640   0.356E-03 0.214E-03
CGA:  14    -0.130688957396E+04   -0.53404E-04   -0.53866E-04 10640   0.357E-03 0.103E-03
CGA:  15    -0.130688964313E+04   -0.69179E-04   -0.65294E-04 10640   0.215E-03 0.135E-03
CGA:  16    -0.130688968289E+04   -0.39752E-04   -0.38385E-04 10640   0.142E-03 0.952E-04
CGA:  17    -0.130688972248E+04   -0.39596E-04   -0.33544E-04 10640   0.848E-04 0.124E-03
CGA:  18    -0.130688973923E+04   -0.16751E-04   -0.16291E-04 10640   0.177E-03 0.609E-05
CGA:  19    -0.130688976544E+04   -0.26206E-04   -0.25435E-04 10640   0.105E-03 0.640E-04
CGA:  20    -0.130688977913E+04   -0.13690E-04   -0.14529E-04 10640   0.591E-04 0.380E-04
CGA:  21    -0.130688981452E+04   -0.35389E-04   -0.34204E-04 10640   0.338E-03 0.736E-06
CGA:  22    -0.130688985424E+04   -0.39719E-04   -0.39375E-04 10640   0.150E-03-0.485E-04
CGA:  23    -0.130688986451E+04   -0.10274E-04   -0.95087E-05 10640   0.949E-04-0.171E-04
CGA:  24    -0.130688987668E+04   -0.12164E-04   -0.20800E-04 10640   0.398E-03-0.821E-04
CGA:  25    -0.130688990250E+04   -0.25820E-04   -0.24039E-04 10640   0.521E-04-0.224E-04
CGA:  26    -0.130688990972E+04   -0.72283E-05   -0.74649E-05 10640   0.982E-04-0.138E-04
CGA:  27    -0.130688975646E+04    0.15326E-03   -0.82779E-04 10640   0.169E-02-0.287E-03
CGA:  28    -0.130688986851E+04   -0.11205E-03   -0.10228E-03 10640   0.466E-03-0.494E-04
CGA:  29    -0.130688993637E+04   -0.67860E-04   -0.61924E-04 10640   0.343E-03-0.586E-04
CGA:  30    -0.130688995987E+04   -0.23500E-04   -0.24792E-04 10640   0.779E-04 0.895E-05
CGA:  31    -0.130688997396E+04   -0.14089E-04   -0.14648E-04 10640   0.791E-04 0.134E-04
CGA:  32    -0.130688998398E+04   -0.10016E-04   -0.10449E-04 10640   0.293E-04 0.401E-05
CGA:  33    -0.130688998616E+04   -0.21799E-05   -0.24177E-05 10640   0.133E-04 0.174E-05
   5 F= -.13068900E+04 E0= -.13068704E+04  d E =-.261989E-01  mag=    47.0000
       N       E                     dE             d eps       ncg     rms          ort
SDA:   1    -0.130389135358E+04    0.29986E+01    0.00000E+00 10640   0.841E+01 0.000E+00
CGA:   2    -0.130570571899E+04   -0.18144E+01   -0.18144E+01 10640   0.772E+01 0.964E-03
CGA:   3    -0.130632852467E+04   -0.62281E+00   -0.62241E+00 10640   0.333E+01 0.214E-01
CGA:   4    -0.130675694721E+04   -0.42842E+00   -0.42853E+00 10640   0.127E+01-0.185E-02
CGA:   5    -0.130685584494E+04   -0.98898E-01   -0.97767E-01 10640   0.266E+00 0.608E-02
CGA:   6    -0.130688673481E+04   -0.30890E-01   -0.30931E-01 10640   0.181E+00 0.259E-03
CGA:   7    -0.130690300595E+04   -0.16271E-01   -0.16331E-01 10640   0.458E-01 0.667E-03
CGA:   8    -0.130690877788E+04   -0.57719E-02   -0.57219E-02 10640   0.319E-01-0.759E-03
CGA:   9    -0.130691255300E+04   -0.37751E-02   -0.37134E-02 10640   0.108E-01-0.913E-03
CGA:  10    -0.130691373597E+04   -0.11830E-02   -0.11499E-02 10640   0.788E-02-0.446E-03
CGA:  11    -0.130691504642E+04   -0.13104E-02   -0.12999E-02 10640   0.587E-02-0.150E-02
CGA:  12    -0.130691552316E+04   -0.47675E-03   -0.40789E-03 10640   0.270E-02-0.756E-03
CGA:  13    -0.130691605179E+04   -0.52862E-03   -0.83572E-03 10640   0.929E-02-0.171E-02
CGA:  14    -0.130691661090E+04   -0.55911E-03   -0.50737E-03 10640   0.125E-02-0.399E-03
CGA:  15    -0.130691678882E+04   -0.17792E-03   -0.16596E-03 10640   0.193E-02-0.316E-03
CGA:  16    -0.130691706244E+04   -0.27362E-03   -0.30234E-03 10640   0.129E-02-0.826E-03
CGA:  17    -0.130691718079E+04   -0.11835E-03   -0.15545E-03 10640   0.364E-02-0.112E-02
CGA:  18    -0.130691739297E+04   -0.21218E-03   -0.22179E-03 10640   0.717E-03 0.888E-04
CGA:  19    -0.130691753515E+04   -0.14218E-03   -0.15094E-03 10640   0.158E-02-0.264E-03
CGA:  20    -0.130691766001E+04   -0.12486E-03   -0.92715E-04 10640   0.637E-03-0.400E-03
CGA:  21    -0.130691771037E+04   -0.50354E-04   -0.34356E-04 10640   0.392E-03-0.164E-03
CGA:  22    -0.130691574829E+04    0.19621E-02   -0.10641E-02 10640   0.434E-01-0.253E-02
CGA:  23    -0.130691799668E+04   -0.22484E-02   -0.22064E-02 10640   0.374E-02-0.257E-03
CGA:  24    -0.130691825964E+04   -0.26296E-03   -0.25835E-03 10640   0.803E-03-0.159E-04
CGA:  25    -0.130691839756E+04   -0.13792E-03   -0.14213E-03 10640   0.366E-03 0.424E-04
CGA:  26    -0.130691843377E+04   -0.36212E-04   -0.30916E-04 10640   0.969E-04-0.269E-04
CGA:  27    -0.130691844647E+04   -0.12693E-04   -0.14154E-04 10640   0.632E-04 0.139E-04
CGA:  28    -0.130691845576E+04   -0.92919E-05   -0.89676E-05 10640   0.520E-04-0.247E-05
CGA:  29    -0.130691844765E+04    0.81082E-05   -0.23614E-04 10640   0.962E-03-0.144E-03
CGA:  30    -0.130691848705E+04   -0.39395E-04   -0.43396E-04 10640   0.625E-04 0.202E-04
CGA:  31    -0.130691849974E+04   -0.12698E-04   -0.11095E-04 10640   0.916E-04-0.206E-04
CGA:  32    -0.130691849952E+04    0.22716E-06   -0.22613E-04 10640   0.593E-03-0.190E-03
CGA:  33    -0.130691852501E+04   -0.25492E-04   -0.33792E-04 10640   0.135E-03 0.430E-04
CGA:  34    -0.130691853874E+04   -0.13736E-04   -0.17348E-04 10640   0.398E-04 0.291E-04
CGA:  35    -0.130691854568E+04   -0.69345E-05   -0.48209E-05 10640   0.241E-04-0.153E-04
   6 F= -.13069185E+04 E0= -.13068999E+04  d E =-.285595E-01  mag=    47.0000
       N       E                     dE             d eps       ncg     rms          ort
SDA:   1    -0.130402958639E+04    0.28890E+01    0.00000E+00 10640   0.783E+01 0.000E+00
CGA:   2    -0.130575439956E+04   -0.17248E+01   -0.17248E+01 10640   0.850E+01-0.590E-02
CGA:   3    -0.130639144432E+04   -0.63704E+00   -0.63016E+00 10640   0.299E+01 0.928E-01
CGA:   4    -0.130678277546E+04   -0.39133E+00   -0.39201E+00 10640   0.120E+01 0.424E-02
CGA:   5    -0.130688011114E+04   -0.97336E-01   -0.96980E-01 10640   0.214E+00 0.662E-02
CGA:   6    -0.130691100009E+04   -0.30889E-01   -0.30969E-01 10640   0.142E+00 0.121E-02
CGA:   7    -0.130692334274E+04   -0.12343E-01   -0.12369E-01 10640   0.399E-01 0.382E-03
CGA:   8    -0.130692823980E+04   -0.48971E-02   -0.48220E-02 10640   0.279E-01-0.979E-03
CGA:   9    -0.130693139350E+04   -0.31537E-02   -0.30687E-02 10640   0.794E-02-0.106E-02
CGA:  10    -0.130693240960E+04   -0.10161E-02   -0.98423E-03 10640   0.800E-02-0.530E-03
CGA:  11    -0.130693346361E+04   -0.10540E-02   -0.98813E-03 10640   0.379E-02-0.124E-02
CGA:  12    -0.130693385089E+04   -0.38729E-03   -0.33729E-03 10640   0.264E-02-0.649E-03
CGA:  13    -0.130693434594E+04   -0.49504E-03   -0.54474E-03 10640   0.302E-02-0.716E-03
CGA:  14    -0.130693460989E+04   -0.26395E-03   -0.20282E-03 10640   0.108E-02-0.686E-03
CGA:  15    -0.130693476058E+04   -0.15070E-03   -0.23952E-03 10640   0.469E-02-0.817E-03
CGA:  16    -0.130693496578E+04   -0.20520E-03   -0.21459E-03 10640   0.399E-03 0.732E-04
CGA:  17    -0.130693502306E+04   -0.57285E-04   -0.57732E-04 10640   0.479E-03 0.135E-04
CGA:  18    -0.130693483446E+04    0.18861E-03   -0.33632E-03 10640   0.440E-02-0.105E-02
CGA:  19    -0.130693507553E+04   -0.24107E-03   -0.28167E-03 10640   0.934E-03 0.305E-03
CGA:  20    -0.130693528960E+04   -0.21407E-03   -0.21214E-03 10640   0.537E-03 0.101E-03
CGA:  21    -0.130693534422E+04   -0.54620E-04   -0.46627E-04 10640   0.162E-03-0.684E-04
CGA:  22    -0.130693537185E+04   -0.27636E-04   -0.28353E-04 10640   0.314E-03-0.616E-04
CGA:  23    -0.130693540051E+04   -0.28663E-04   -0.21889E-04 10640   0.109E-03-0.888E-04
CGA:  24    -0.130693543128E+04   -0.30762E-04    0.11811E-03 10640   0.250E-03-0.621E-04
CGA:  25    -0.130693544232E+04   -0.11043E-04   -0.13996E-04 10640   0.443E-04 0.231E-04
CGA:  26    -0.130693526614E+04    0.17618E-03   -0.94879E-04 10640   0.326E-02-0.236E-03
CGA:  27    -0.130693547397E+04   -0.20783E-03   -0.19508E-03 10640   0.341E-03-0.421E-04
CGA:  28    -0.130693550252E+04   -0.28551E-04   -0.27999E-04 10640   0.140E-03-0.207E-05
CGA:  29    -0.130693552559E+04   -0.23073E-04   -0.22753E-04 10640   0.680E-04-0.224E-05
CGA:  30    -0.130693554139E+04   -0.15792E-04   -0.98703E-05 10640   0.856E-04-0.403E-04
CGA:  31    -0.130693554209E+04   -0.70598E-06   -0.42858E-05 10640   0.122E-04 0.152E-04
   7 F= -.13069355E+04 E0= -.13069176E+04  d E =-.169964E-01  mag=    47.0000
       N       E                     dE             d eps       ncg     rms          ort
SDA:   1    -0.130620118753E+04    0.73435E+00    0.00000E+00 10640   0.202E+01 0.000E+00
CGA:   2    -0.130667205465E+04   -0.47087E+00   -0.47098E+00 10640   0.150E+01 0.380E-02
CGA:   3    -0.130682154521E+04   -0.14949E+00   -0.14896E+00 10640   0.837E+00-0.420E-02
CGA:   4    -0.130691173976E+04   -0.90195E-01   -0.89768E-01 10640   0.283E+00-0.229E-02
CGA:   5    -0.130693203235E+04   -0.20293E-01   -0.20223E-01 10640   0.596E-01 0.112E-02
CGA:   6    -0.130694054637E+04   -0.85140E-02   -0.84629E-02 10640   0.328E-01-0.528E-03
CGA:   7    -0.130694351044E+04   -0.29641E-02   -0.29755E-02 10640   0.878E-02 0.131E-03
CGA:   8    -0.130694488120E+04   -0.13708E-02   -0.13404E-02 10640   0.727E-02-0.399E-03
CGA:   9    -0.130694549944E+04   -0.61824E-03   -0.57192E-03 10640   0.186E-02-0.326E-03
CGA:  10    -0.130694585583E+04   -0.35640E-03   -0.34381E-03 10640   0.285E-02-0.544E-03
CGA:  11    -0.130694615698E+04   -0.30115E-03   -0.21795E-03 10640   0.940E-03-0.772E-03
CGA:  12    -0.130694630144E+04   -0.14446E-03   -0.14227E-03 10640   0.279E-02-0.762E-03
CGA:  13    -0.130694646092E+04   -0.15949E-03   -0.15976E-03 10640   0.404E-03 0.671E-05
CGA:  14    -0.130694653873E+04   -0.77812E-04   -0.72389E-04 10640   0.987E-03-0.226E-03
CGA:  15    -0.130694660184E+04   -0.63102E-04   -0.54262E-04 10640   0.140E-03-0.588E-04
CGA:  16    -0.130694665561E+04   -0.53777E-04    0.23448E-03 10640   0.525E-03-0.129E-03
CGA:  17    -0.130694669099E+04   -0.35378E-04   -0.28955E-04 10640   0.781E-04-0.452E-04
CGA:  18    -0.130694673524E+04   -0.44252E-04    0.10199E-04 10640   0.280E-03-0.712E-04
CGA:  19    -0.130694676030E+04   -0.25054E-04   -0.17434E-04 10640   0.696E-04-0.606E-04
CGA:  20    -0.130694680629E+04   -0.45997E-04    0.37088E-05 10640   0.201E-03-0.514E-04
CGA:  21    -0.130694682458E+04   -0.18289E-04   -0.12489E-04 10640   0.528E-04-0.483E-04
CGA:  22    -0.130694686444E+04   -0.39856E-04    0.19091E-05 10640   0.122E-03-0.306E-04
CGA:  23    -0.130694688153E+04   -0.17089E-04   -0.10283E-04 10640   0.979E-04-0.745E-04
CGA:  24    -0.130694689723E+04   -0.15701E-04   -0.83022E-05 10640   0.119E-03-0.863E-04
CGA:  25    -0.130694690962E+04   -0.12392E-04   -0.72838E-05 10640   0.412E-04-0.484E-04
CGA:  26    -0.130694694793E+04   -0.38308E-04    0.50729E-06 10640   0.148E-04 0.741E-05
CGA:  27    -0.130694698509E+04   -0.37165E-04    0.25037E-06 10640   0.287E-04 0.399E-05
CGA:  28    -0.130694708260E+04   -0.97508E-04    0.39999E-06 10640   0.623E-05 0.247E-04
CGA:  29    -0.130694710066E+04   -0.18061E-04    0.62620E-07 10640   0.799E-05 0.320E-05
CGA:  30    -0.130694711818E+04   -0.17518E-04    0.11067E-06 10640   0.181E-04-0.169E-05
CGA:  31    -0.130694717287E+04   -0.54690E-04    0.10528E-06 10640   0.294E-04 0.763E-05
CGA:  32    -0.130694727516E+04   -0.10229E-03    0.51027E-06 10640   0.371E-04-0.401E-06
CGA:  33    -0.130694741089E+04   -0.13573E-03    0.27908E-06 10640   0.856E-04-0.146E-04
CGA:  34    -0.130694771710E+04   -0.30621E-03    0.24030E-06 10640   0.709E-04-0.622E-04
CGA:  35    -0.130694771669E+04    0.41020E-06   -0.25473E-05 10640   0.987E-05 0.237E-04
   8 F= -.13069477E+04 E0= -.13069301E+04  d E =-.121746E-01  mag=    47.0000
       N       E                     dE             d eps       ncg     rms          ort
SDA:   1    -0.130668254763E+04    0.26517E+00    0.00000E+00 10640   0.758E+00 0.000E+00
CGA:   2    -0.130685594448E+04   -0.17340E+00   -0.17341E+00 10640   0.472E+00-0.435E-05
CGA:   3    -0.130690802724E+04   -0.52083E-01   -0.52033E-01 10640   0.319E+00-0.175E-02
CGA:   4    -0.130694125270E+04   -0.33225E-01   -0.33317E-01 10640   0.732E-01 0.230E-02
CGA:   5    -0.130694695011E+04   -0.56974E-02   -0.57689E-02 10640   0.238E-01 0.114E-02
CGA:   6    -0.130695028426E+04   -0.33341E-02   -0.33344E-02 10640   0.913E-02 0.523E-04
CGA:   7    -0.130695109126E+04   -0.80701E-03   -0.81338E-03 10640   0.351E-02 0.125E-03
CGA:   8    -0.130695158131E+04   -0.49005E-03   -0.49021E-03 10640   0.207E-02 0.537E-04
CGA:   9    -0.130695176602E+04   -0.18471E-03   -0.17870E-03 10640   0.787E-03-0.106E-03
CGA:  10    -0.130695187557E+04   -0.10955E-03   -0.10976E-03 10640   0.543E-03-0.221E-04
CGA:  11    -0.130695193457E+04   -0.59007E-04   -0.57990E-04 10640   0.200E-03-0.353E-04
CGA:  12    -0.130695195688E+04   -0.22307E-04   -0.22730E-04 10640   0.133E-03 0.280E-04
CGA:  13    -0.130695197274E+04   -0.15856E-04   -0.16758E-04 10640   0.603E-04 0.354E-04
CGA:  14    -0.130695197716E+04   -0.44269E-05   -0.63452E-05 10640   0.222E-04 0.370E-04
   9 F= -.13069520E+04 E0= -.13069344E+04  d E =-.426048E-02  mag=    47.0000
       N       E                     dE             d eps       ncg     rms          ort
SDA:   1    -0.130649351844E+04    0.45845E+00    0.00000E+00 10640   0.125E+01 0.000E+00
CGA:   2    -0.130678776041E+04   -0.29424E+00   -0.29419E+00 10640   0.903E+00 0.729E-03
CGA:   3    -0.130688286176E+04   -0.95101E-01   -0.95034E-01 10640   0.464E+00-0.142E-02
CGA:   4    -0.130693784593E+04   -0.54984E-01   -0.55015E-01 10640   0.116E+00 0.208E-02
CGA:   5    -0.130694684691E+04   -0.90010E-02   -0.89940E-02 10640   0.385E-01 0.888E-04
CGA:   6    -0.130695159925E+04   -0.47523E-02   -0.47521E-02 10640   0.205E-01-0.945E-05
CGA:   7    -0.130695328659E+04   -0.16873E-02   -0.17049E-02 10640   0.486E-02 0.399E-03
CGA:   8    -0.130695421499E+04   -0.92840E-03   -0.96454E-03 10640   0.411E-02-0.532E-03
CGA:   9    -0.130695446795E+04   -0.25296E-03   -0.25155E-03 10640   0.113E-02-0.192E-04
CGA:  10    -0.130695465895E+04   -0.19101E-03   -0.19869E-03 10640   0.134E-02-0.156E-03
CGA:  11    -0.130695481027E+04   -0.15132E-03   -0.15267E-03 10640   0.702E-03-0.522E-03
CGA:  12    -0.130695486249E+04   -0.52217E-04   -0.51118E-04 10640   0.594E-03-0.104E-03
CGA:  13    -0.130695494517E+04   -0.82681E-04   -0.10993E-03 10640   0.111E-02-0.312E-03
CGA:  14    -0.130695500797E+04   -0.62802E-04   -0.58599E-04 10640   0.175E-03-0.504E-04
CGA:  15    -0.130695503954E+04   -0.31565E-04   -0.43506E-04 10640   0.596E-03-0.908E-04
CGA:  16    -0.130695506377E+04   -0.24234E-04   -0.26940E-04 10640   0.452E-04 0.306E-04
CGA:  17    -0.130695506642E+04   -0.26506E-05   -0.14845E-04 10640   0.415E-03-0.675E-04
CGA:  18    -0.130695509584E+04   -0.29412E-04   -0.26320E-04 10640   0.338E-04-0.392E-04
CGA:  19    -0.130695509013E+04    0.57088E-05   -0.11162E-04 10640   0.650E-03-0.740E-04
CGA:  20    -0.130695512020E+04   -0.30076E-04   -0.28320E-04 10640   0.201E-04-0.157E-04
CGA:  21    -0.130695512972E+04   -0.95139E-05    0.20124E-05 10640   0.312E-04-0.290E-05
  10 F= -.13069551E+04 E0= -.13069378E+04  d E =-.315255E-02  mag=    47.0000
       N       E                     dE             d eps       ncg     rms          ort
SDA:   1    -0.130632869623E+04    0.62642E+00    0.00000E+00 10640   0.180E+01 0.000E+00
CGA:   2    -0.130671738713E+04   -0.38869E+00   -0.38886E+00 10640   0.120E+01-0.203E-02
CGA:   3    -0.130684933560E+04   -0.13195E+00   -0.13201E+00 10640   0.698E+00 0.295E-02
CGA:   4    -0.130693222595E+04   -0.82890E-01   -0.82987E-01 10640   0.179E+00 0.420E-02
CGA:   5    -0.130694575064E+04   -0.13525E-01   -0.13512E-01 10640   0.535E-01 0.706E-04
CGA:   6    -0.130695267153E+04   -0.69209E-02   -0.69271E-02 10640   0.243E-01 0.582E-03
CGA:   7    -0.130695489915E+04   -0.22276E-02   -0.22447E-02 10640   0.702E-02 0.392E-03
CGA:   8    -0.130695618492E+04   -0.12858E-02   -0.13125E-02 10640   0.472E-02-0.572E-03
CGA:   9    -0.130695651494E+04   -0.33002E-03   -0.33617E-03 10640   0.140E-02 0.104E-03
CGA:  10    -0.130695678175E+04   -0.26681E-03   -0.27071E-03 10640   0.139E-02-0.751E-04
CGA:  11    -0.130695693064E+04   -0.14889E-03   -0.13918E-03 10640   0.570E-03-0.293E-03
CGA:  12    -0.130695699948E+04   -0.68836E-04   -0.68838E-04 10640   0.494E-03-0.610E-06
CGA:  13    -0.130695708648E+04   -0.87002E-04   -0.95417E-04 10640   0.479E-03-0.155E-03
CGA:  14    -0.130695712064E+04   -0.34163E-04   -0.32648E-04 10640   0.216E-03-0.374E-04
CGA:  15    -0.130695715046E+04   -0.29818E-04   -0.30741E-04 10640   0.340E-03-0.590E-04
CGA:  16    -0.130695719003E+04   -0.39570E-04   -0.47744E-04 10640   0.264E-03-0.157E-03
CGA:  17    -0.130695720473E+04   -0.14699E-04   -0.12893E-04 10640   0.171E-03-0.365E-04
CGA:  18    -0.130695686964E+04    0.33509E-03   -0.18103E-03 10640   0.615E-02-0.633E-03
CGA:  19    -0.130695724983E+04   -0.38019E-03   -0.36496E-03 10640   0.775E-03-0.587E-04
CGA:  20    -0.130695732173E+04   -0.71908E-04   -0.73930E-04 10640   0.420E-03 0.144E-04
CGA:  21    -0.130695737041E+04   -0.48678E-04   -0.51351E-04 10640   0.139E-03 0.230E-04
CGA:  22    -0.130695739510E+04   -0.24691E-04   -0.18213E-04 10640   0.123E-03-0.601E-04
CGA:  23    -0.130695740723E+04   -0.12122E-04   -0.11077E-04 10640   0.846E-04-0.156E-04
CGA:  24    -0.130695741928E+04   -0.12052E-04   -0.88406E-05 10640   0.598E-04-0.310E-04
CGA:  25    -0.130695743897E+04   -0.19697E-04    0.21503E-04 10640   0.106E-03-0.295E-04
CGA:  26    -0.130695744515E+04   -0.61726E-05   -0.41778E-05 10640   0.289E-04-0.142E-04
  11 F= -.13069574E+04 E0= -.13069404E+04  d E =-.231543E-02  mag=    47.0000
       N       E                     dE             d eps       ncg     rms          ort
SDA:   1    -0.130668784420E+04    0.26959E+00    0.00000E+00 10640   0.778E+00 0.000E+00
CGA:   2    -0.130686028338E+04   -0.17244E+00   -0.17246E+00 10640   0.438E+00-0.101E-02
CGA:   3    -0.130691746372E+04   -0.57180E-01   -0.57349E-01 10640   0.317E+00 0.197E-02
CGA:   4    -0.130694775216E+04   -0.30288E-01   -0.30279E-01 10640   0.805E-01 0.159E-03
CGA:   5    -0.130695383728E+04   -0.60851E-02   -0.60610E-02 10640   0.234E-01-0.119E-03
CGA:   6    -0.130695693969E+04   -0.31024E-02   -0.31200E-02 10640   0.925E-02 0.334E-03
CGA:   7    -0.130695775791E+04   -0.81822E-03   -0.83622E-03 10640   0.365E-02 0.197E-03
CGA:   8    -0.130695829270E+04   -0.53479E-03   -0.52812E-03 10640   0.228E-02-0.167E-03
CGA:   9    -0.130695845644E+04   -0.16374E-03   -0.17312E-03 10640   0.603E-03 0.964E-04
CGA:  10    -0.130695854982E+04   -0.93384E-04   -0.95312E-04 10640   0.419E-03 0.850E-04
CGA:  11    -0.130695861919E+04   -0.69365E-04   -0.65667E-04 10640   0.283E-03-0.103E-03
CGA:  12    -0.130695863179E+04   -0.12607E-04   -0.17048E-04 10640   0.116E-03 0.486E-04
CGA:  13    -0.130695863803E+04   -0.62376E-05   -0.10859E-04 10640   0.779E-04 0.532E-04
CGA:  14    -0.130695865257E+04   -0.14544E-04   -0.15030E-04 10640   0.710E-04 0.159E-04
CGA:  15    -0.130695865980E+04   -0.72286E-05   -0.76488E-05 10640   0.272E-04 0.580E-05
  12 F= -.13069587E+04 E0= -.13069417E+04  d E =-.121465E-02  mag=    47.0000
       N       E                     dE             d eps       ncg     rms          ort
SDA:   1    -0.130687950622E+04    0.79146E-01    0.00000E+00 10640   0.234E+00 0.000E+00
CGA:   2    -0.130692716585E+04   -0.47660E-01   -0.47648E-01 10640   0.190E+00 0.276E-03
CGA:   3    -0.130694405567E+04   -0.16890E-01   -0.16855E-01 10640   0.925E-01-0.148E-03
CGA:   4    -0.130695589547E+04   -0.11840E-01   -0.11806E-01 10640   0.379E-01-0.142E-02
CGA:   5    -0.130695868591E+04   -0.27904E-02   -0.27444E-02 10640   0.691E-02-0.528E-03
CGA:   6    -0.130695968776E+04   -0.10019E-02   -0.10019E-02 10640   0.431E-02-0.161E-03
CGA:   7    -0.130695999883E+04   -0.31107E-03   -0.31787E-03 10640   0.108E-02 0.100E-03
CGA:   8    -0.130696016575E+04   -0.16692E-03   -0.16775E-03 10640   0.878E-03-0.971E-04
CGA:   9    -0.130696025268E+04   -0.86922E-04   -0.82861E-04 10640   0.249E-03-0.102E-03
CGA:  10    -0.130696028889E+04   -0.36210E-04   -0.40048E-04 10640   0.391E-03-0.942E-04
CGA:  11    -0.130696032331E+04   -0.34428E-04   -0.32740E-04 10640   0.221E-03-0.193E-03
CGA:  12    -0.130696032012E+04    0.31988E-05   -0.26511E-04 10640   0.990E-03-0.319E-03
CGA:  13    -0.130696036830E+04   -0.48184E-04   -0.53132E-04 10640   0.118E-03 0.537E-04
CGA:  14    -0.130696038581E+04   -0.17506E-04   -0.17440E-04 10640   0.144E-03-0.250E-04
CGA:  15    -0.130696037753E+04    0.82778E-05   -0.38621E-04 10640   0.549E-03-0.238E-03
CGA:  16    -0.130696040776E+04   -0.30231E-04   -0.32529E-04 10640   0.140E-03 0.253E-04
CGA:  17    -0.130696043025E+04   -0.22494E-04   -0.22493E-04 10640   0.913E-04 0.227E-06
CGA:  18    -0.130696044367E+04   -0.13417E-04   -0.14329E-04 10640   0.163E-03-0.109E-03
CGA:  19    -0.130696044754E+04   -0.38699E-05   -0.69557E-05 10640   0.150E-04 0.292E-04
  13 F= -.13069604E+04 E0= -.13069434E+04  d E =-.178774E-02  mag=    47.0000
       N       E                     dE             d eps       ncg     rms          ort
SDA:   1    -0.130689115330E+04    0.69290E-01    0.00000E+00 10640   0.201E+00 0.000E+00
CGA:   2    -0.130693384241E+04   -0.42689E-01   -0.42668E-01 10640   0.145E+00 0.330E-03
CGA:   3    -0.130694932939E+04   -0.15487E-01   -0.15455E-01 10640   0.783E-01-0.803E-03
CGA:   4    -0.130695854324E+04   -0.92139E-02   -0.92365E-02 10640   0.244E-01 0.105E-02
CGA:   5    -0.130696034548E+04   -0.18022E-02   -0.18038E-02 10640   0.563E-02 0.238E-04
CGA:   6    -0.130696111831E+04   -0.77283E-03   -0.77281E-03 10640   0.288E-02 0.335E-04
CGA:   7    -0.130696134767E+04   -0.22936E-03   -0.24323E-03 10640   0.704E-03 0.267E-03
CGA:   8    -0.130696149652E+04   -0.14886E-03   -0.20091E-03 10640   0.150E-02-0.408E-03
CGA:   9    -0.130696156708E+04   -0.70561E-04   -0.76565E-04 10640   0.165E-03 0.698E-04
CGA:  10    -0.130696159488E+04   -0.27801E-04   -0.32879E-04 10640   0.351E-03-0.932E-04
CGA:  11    -0.130696162221E+04   -0.27328E-04   -0.22853E-04 10640   0.666E-04-0.603E-04
CGA:  12    -0.130696132139E+04    0.30082E-03   -0.16338E-03 10640   0.894E-02-0.475E-03
CGA:  13    -0.130696168348E+04   -0.36209E-03   -0.37081E-03 10640   0.173E-03 0.584E-04
CGA:  14    -0.130696169686E+04   -0.13379E-04   -0.13698E-04 10640   0.273E-04 0.225E-05
CGA:  15    -0.130696169636E+04    0.49967E-06   -0.12735E-04 10640   0.263E-03-0.570E-04
CGA:  16    -0.130696171085E+04   -0.14483E-04   -0.13855E-04 10640   0.383E-04-0.317E-05
CGA:  17    -0.130696171959E+04   -0.87478E-05   -0.87930E-05 10640   0.419E-04-0.185E-04
  14 F= -.13069617E+04 E0= -.13069448E+04  d E =-.127205E-02  mag=    47.0000
       N       E                     dE             d eps       ncg     rms          ort
SDA:   1    -0.130321469758E+04    0.37470E+01    0.00000E+00 10640   0.111E+02 0.000E+00
CGA:   2    -0.130529922323E+04   -0.20845E+01   -0.20845E+01 10640   0.965E+01-0.678E-03
CGA:   3    -0.130617429473E+04   -0.87507E+00   -0.87101E+00 10640   0.461E+01 0.473E-01
CGA:   4    -0.130670212473E+04   -0.52783E+00   -0.52616E+00 10640   0.212E+01 0.139E-01
CGA:   5    -0.130689087728E+04   -0.18875E+00   -0.18964E+00 10640   0.284E+00-0.319E-02
CGA:   6    -0.130692860884E+04   -0.37732E-01   -0.37804E-01 10640   0.211E+00 0.115E-02
CGA:   7    -0.130694618240E+04   -0.17574E-01   -0.17719E-01 10640   0.506E-01 0.146E-02
CGA:   8    -0.130695272792E+04   -0.65455E-02   -0.64884E-02 10640   0.354E-01-0.835E-03
CGA:   9    -0.130695679936E+04   -0.40714E-02   -0.39894E-02 10640   0.101E-01-0.107E-02
CGA:  10    -0.130695811207E+04   -0.13127E-02   -0.12797E-02 10640   0.824E-02-0.582E-03
CGA:  11    -0.130695921579E+04   -0.11037E-02   -0.10443E-02 10640   0.428E-02-0.117E-02
CGA:  12    -0.130695961200E+04   -0.39621E-03   -0.34126E-03 10640   0.231E-02-0.614E-03
CGA:  13    -0.130696003882E+04   -0.42682E-03   -0.46593E-03 10640   0.344E-02-0.683E-03
CGA:  14    -0.130696033301E+04   -0.29419E-03   -0.22553E-03 10640   0.863E-03-0.787E-03
CGA:  15    -0.130696021330E+04    0.11971E-03   -0.31238E-03 10640   0.106E-01-0.148E-02
CGA:  16    -0.130696073683E+04   -0.52353E-03   -0.53014E-03 10640   0.647E-03 0.664E-04
CGA:  17    -0.130696079441E+04   -0.57582E-04   -0.56972E-04 10640   0.389E-03-0.571E-05
CGA:  18    -0.130696078757E+04    0.68442E-05   -0.22903E-03 10640   0.245E-02-0.569E-03
CGA:  19    -0.130696093185E+04   -0.14428E-03   -0.14589E-03 10640   0.584E-03 0.134E-04
CGA:  20    -0.130696104829E+04   -0.11644E-03   -0.11762E-03 10640   0.780E-03-0.156E-03
CGA:  21    -0.130696109585E+04   -0.47558E-04   -0.37562E-04 10640   0.111E-03-0.779E-04
CGA:  22    -0.130696111113E+04   -0.15283E-04   -0.11831E-04 10640   0.173E-03-0.500E-04
CGA:  23    -0.130696096863E+04    0.14250E-03   -0.50699E-04 10640   0.315E-02-0.556E-03
CGA:  24    -0.130696117411E+04   -0.20548E-03   -0.20407E-03 10640   0.568E-03-0.660E-05
CGA:  25    -0.130696124231E+04   -0.68198E-04   -0.56569E-04 10640   0.363E-03-0.123E-03
CGA:  26    -0.130696129713E+04   -0.54824E-04   -0.61562E-04 10640   0.321E-03-0.246E-03
CGA:  27    -0.130696131309E+04   -0.15961E-04   -0.18843E-04 10640   0.894E-04 0.221E-04
CGA:  28    -0.130696131926E+04   -0.61674E-05   -0.89169E-05 10640   0.231E-04 0.303E-04
  15 F= -.13069613E+04 E0= -.13069445E+04  d E =0.400335E-03  mag=    47.0000
       N       E                     dE             d eps       ncg     rms          ort
SDA:   1    -0.130539041446E+04    0.15709E+01    0.00000E+00 10640   0.469E+01 0.000E+00
CGA:   2    -0.130628928073E+04   -0.89887E+00   -0.89878E+00 10640   0.368E+01 0.463E-02
CGA:   3    -0.130665104107E+04   -0.36176E+00   -0.36088E+00 10640   0.183E+01 0.950E-02
CGA:   4    -0.130686968477E+04   -0.21864E+00   -0.21824E+00 10640   0.867E+00-0.229E-02
CGA:   5    -0.130693504024E+04   -0.65355E-01   -0.65228E-01 10640   0.135E+00-0.343E-02
CGA:   6    -0.130695128901E+04   -0.16249E-01   -0.16264E-01 10640   0.832E-01 0.579E-03
CGA:   7    -0.130695987348E+04   -0.85845E-02   -0.84938E-02 10640   0.231E-01-0.141E-02
CGA:   8    -0.130696234592E+04   -0.24724E-02   -0.24925E-02 10640   0.138E-01 0.397E-03
CGA:   9    -0.130696398208E+04   -0.16362E-02   -0.16503E-02 10640   0.457E-02 0.337E-03
CGA:  10    -0.130696450841E+04   -0.52633E-03   -0.52208E-03 10640   0.294E-02-0.829E-04
CGA:  11    -0.130696485875E+04   -0.35035E-03   -0.36001E-03 10640   0.104E-02 0.311E-03
CGA:  12    -0.130696496300E+04   -0.10425E-03   -0.11207E-03 10640   0.664E-03 0.138E-03
CGA:  13    -0.130696511743E+04   -0.15443E-03   -0.15912E-03 10640   0.798E-03-0.785E-04
CGA:  14    -0.130696516134E+04   -0.43911E-04   -0.51453E-04 10640   0.205E-03 0.919E-04
CGA:  15    -0.130696518244E+04   -0.21099E-04   -0.24670E-04 10640   0.204E-03 0.829E-04
CGA:  16    -0.130696522772E+04   -0.45283E-04   -0.45415E-04 10640   0.170E-03-0.141E-04
CGA:  17    -0.130696523859E+04   -0.10864E-04   -0.11519E-04 10640   0.696E-04 0.809E-05
CGA:  18    -0.130696524161E+04   -0.30192E-05   -0.58690E-05 10640   0.662E-04 0.438E-04
  16 F= -.13069652E+04 E0= -.13069484E+04  d E =-.392235E-02  mag=    47.0000
       N       E                     dE             d eps       ncg     rms          ort
SDA:   1    -0.130686504626E+04    0.10019E+00    0.00000E+00 10640   0.316E+00 0.000E+00
CGA:   2    -0.130691901961E+04   -0.53973E-01   -0.54004E-01 10640   0.304E+00-0.883E-03
CGA:   3    -0.130694260221E+04   -0.23583E-01   -0.23626E-01 10640   0.111E+00 0.159E-02
CGA:   4    -0.130696025567E+04   -0.17653E-01   -0.17637E-01 10640   0.452E-01 0.853E-03
CGA:   5    -0.130696376452E+04   -0.35089E-02   -0.34881E-02 10640   0.949E-02-0.300E-03
CGA:   6    -0.130696493939E+04   -0.11749E-02   -0.11768E-02 10640   0.494E-02 0.189E-03
CGA:   7    -0.130696541378E+04   -0.47439E-03   -0.47047E-03 10640   0.157E-02-0.898E-04
CGA:   8    -0.130696562913E+04   -0.21535E-03   -0.21665E-03 10640   0.121E-02-0.173E-03
CGA:   9    -0.130696570793E+04   -0.78800E-04   -0.84858E-04 10640   0.245E-03 0.112E-03
CGA:  10    -0.130696574217E+04   -0.34247E-04   -0.34292E-04 10640   0.216E-03 0.191E-04
CGA:  11    -0.130696577424E+04   -0.32070E-04   -0.32381E-04 10640   0.125E-03-0.342E-04
CGA:  12    -0.130696577770E+04   -0.34566E-05   -0.56695E-05 10640   0.438E-04 0.288E-04
  17 F= -.13069658E+04 E0= -.13069490E+04  d E =-.536091E-03  mag=    47.0000
       N       E                     dE             d eps       ncg     rms          ort
SDA:   1    -0.130693696719E+04    0.28807E-01    0.00000E+00 10640   0.987E-01 0.000E+00
CGA:   2    -0.130695163280E+04   -0.14666E-01   -0.14639E-01 10640   0.891E-01 0.118E-02
CGA:   3    -0.130695983123E+04   -0.81984E-02   -0.81610E-02 10640   0.330E-01-0.110E-02
CGA:   4    -0.130696498119E+04   -0.51500E-02   -0.51426E-02 10640   0.161E-01 0.219E-03
CGA:   5    -0.130696609281E+04   -0.11116E-02   -0.11342E-02 10640   0.310E-02 0.420E-03
CGA:   6    -0.130696644407E+04   -0.35126E-03   -0.35170E-03 10640   0.157E-02 0.414E-04
CGA:   7    -0.130696659968E+04   -0.15561E-03   -0.15673E-03 10640   0.487E-03 0.497E-04
CGA:   8    -0.130696664236E+04   -0.42680E-04   -0.45468E-04 10640   0.200E-03 0.932E-04
CGA:   9    -0.130696668785E+04   -0.45487E-04   -0.55691E-04 10640   0.192E-03-0.888E-04
CGA:  10    -0.130696669229E+04   -0.44400E-05   -0.58016E-05 10640   0.882E-04 0.194E-04
  18 F= -.13069667E+04 E0= -.13069499E+04  d E =-.914589E-03  mag=    47.0000
       N       E                     dE             d eps       ncg     rms          ort
SDA:   1    -0.130691932848E+04    0.47359E-01    0.00000E+00 10640   0.161E+00 0.000E+00
CGA:   2    -0.130694482251E+04   -0.25494E-01   -0.25452E-01 10640   0.130E+00 0.112E-02
CGA:   3    -0.130695622597E+04   -0.11403E-01   -0.11382E-01 10640   0.542E-01-0.618E-03
CGA:   4    -0.130696500888E+04   -0.87829E-02   -0.87462E-02 10640   0.228E-01 0.840E-03
CGA:   5    -0.130696656556E+04   -0.15567E-02   -0.15788E-02 10640   0.485E-02 0.442E-03
CGA:   6    -0.130696721166E+04   -0.64610E-03   -0.64456E-03 10640   0.201E-02 0.127E-03
CGA:   7    -0.130696738953E+04   -0.17787E-03   -0.18027E-03 10640   0.794E-03 0.793E-04
CGA:   8    -0.130696748337E+04   -0.93846E-04   -0.94095E-04 10640   0.396E-03 0.826E-04
CGA:   9    -0.130696754376E+04   -0.60387E-04   -0.62664E-04 10640   0.263E-03-0.857E-04
CGA:  10    -0.130696755486E+04   -0.11099E-04   -0.13909E-04 10640   0.853E-04 0.556E-04
CGA:  11    -0.130696756129E+04   -0.64336E-05   -0.77661E-05 10640   0.530E-04 0.329E-04
CGA:  12    -0.130696757194E+04   -0.10646E-04   -0.11995E-04 10640   0.873E-04-0.271E-04
CGA:  13    -0.130696757414E+04   -0.22023E-05   -0.38385E-05 10640   0.162E-04 0.228E-04
  19 F= -.13069676E+04 E0= -.13069508E+04  d E =-.881853E-03  mag=    47.0000
       N       E                     dE             d eps       ncg     rms          ort
SDA:   1    -0.130623286238E+04    0.73471E+00    0.00000E+00 10640   0.213E+01 0.000E+00
CGA:   2    -0.130669703089E+04   -0.46417E+00   -0.46441E+00 10640   0.117E+01-0.163E-02
CGA:   3    -0.130686085545E+04   -0.16382E+00   -0.16375E+00 10640   0.817E+00 0.517E-02
CGA:   4    -0.130694499427E+04   -0.84139E-01   -0.84095E-01 10640   0.155E+00-0.419E-02
CGA:   5    -0.130695853553E+04   -0.13541E-01   -0.13579E-01 10640   0.597E-01 0.159E-02
CGA:   6    -0.130696554586E+04   -0.70103E-02   -0.70069E-02 10640   0.207E-01 0.141E-02
CGA:   7    -0.130696763277E+04   -0.20869E-02   -0.20778E-02 10640   0.109E-01-0.576E-03
CGA:   8    -0.130696902222E+04   -0.13894E-02   -0.13844E-02 10640   0.317E-02 0.294E-03
CGA:   9    -0.130696942552E+04   -0.40330E-03   -0.40474E-03 10640   0.232E-02-0.134E-03
CGA:  10    -0.130696972659E+04   -0.30107E-03   -0.30609E-03 10640   0.117E-02-0.215E-03
CGA:  11    -0.130696982984E+04   -0.10324E-03   -0.10057E-03 10640   0.560E-03-0.129E-03
CGA:  12    -0.130696991303E+04   -0.83197E-04   -0.82084E-04 10640   0.403E-03 0.219E-04
CGA:  13    -0.130696995901E+04   -0.45977E-04   -0.46148E-04 10640   0.174E-03 0.245E-04
CGA:  14    -0.130696998885E+04   -0.29837E-04   -0.29411E-04 10640   0.187E-03 0.971E-05
CGA:  15    -0.130697000687E+04   -0.18018E-04   -0.18557E-04 10640   0.645E-04 0.214E-04
CGA:  16    -0.130697001296E+04   -0.60961E-05   -0.68530E-05 10640   0.352E-04 0.338E-04
CGA:  17    -0.130697001270E+04    0.26276E-06   -0.16327E-04 10640   0.450E-03-0.480E-04
CGA:  18    -0.130697002830E+04   -0.15604E-04   -0.20756E-04 10640   0.220E-04 0.593E-04
CGA:  19    -0.130697002817E+04    0.13335E-06   -0.10489E-05 10640   0.122E-04 0.135E-04
  20 F= -.13069700E+04 E0= -.13069533E+04  d E =-.245403E-02  mag=    47.0000
       N       E                     dE             d eps       ncg     rms          ort
SDA:   1    -0.130690630506E+04    0.63723E-01    0.00000E+00 10640   0.212E+00 0.000E+00
CGA:   2    -0.130694590212E+04   -0.39597E-01   -0.39608E-01 10640   0.991E-01-0.160E-03
CGA:   3    -0.130695906289E+04   -0.13161E-01   -0.13160E-01 10640   0.859E-01 0.282E-03
CGA:   4    -0.130696828155E+04   -0.92187E-02   -0.92107E-02 10640   0.205E-01-0.353E-03
CGA:   5    -0.130696985434E+04   -0.15728E-02   -0.15711E-02 10640   0.634E-02-0.270E-04
CGA:   6    -0.130697060966E+04   -0.75533E-03   -0.75593E-03 10640   0.201E-02 0.118E-03
CGA:   7    -0.130697085428E+04   -0.24462E-03   -0.24233E-03 10640   0.161E-02-0.377E-03
CGA:   8    -0.130697099343E+04   -0.13915E-03   -0.13984E-03 10640   0.414E-03 0.419E-04
CGA:   9    -0.130697103510E+04   -0.41662E-04   -0.41431E-04 10640   0.270E-03-0.858E-05
CGA:  10    -0.130697039015E+04    0.64494E-03   -0.34743E-03 10640   0.887E-02-0.128E-02
CGA:  11    -0.130697084016E+04   -0.45000E-03   -0.49462E-03 10640   0.148E-02 0.291E-03
CGA:  12    -0.130697110409E+04   -0.26393E-03   -0.26415E-03 10640   0.831E-03 0.596E-05
CGA:  13    -0.130697117974E+04   -0.75652E-04   -0.61881E-04 10640   0.183E-03-0.992E-04
CGA:  14    -0.130697119927E+04   -0.19529E-04   -0.19715E-04 10640   0.116E-03 0.239E-05
CGA:  15    -0.130697122283E+04   -0.23559E-04   -0.23552E-04 10640   0.116E-03-0.406E-04
CGA:  16    -0.130697123483E+04   -0.11999E-04   -0.74761E-05 10640   0.655E-04-0.445E-04
CGA:  17    -0.130697097492E+04    0.25991E-03   -0.39006E-04 10640   0.542E-02-0.386E-03
CGA:  18    -0.130697123186E+04   -0.25694E-03   -0.26400E-03 10640   0.370E-03 0.566E-04
CGA:  19    -0.130697125759E+04   -0.25728E-04   -0.28297E-04 10640   0.125E-03 0.175E-04
CGA:  20    -0.130697128311E+04   -0.25517E-04   -0.25855E-04 10640   0.829E-04 0.172E-04
CGA:  21    -0.130697129862E+04   -0.15516E-04   -0.13251E-04 10640   0.844E-04-0.296E-04
CGA:  22    -0.130697130297E+04   -0.43534E-05   -0.52444E-05 10640   0.454E-04 0.770E-05
  21 F= -.13069713E+04 E0= -.13069545E+04  d E =-.127480E-02  mag=    47.0000
       N       E                     dE             d eps       ncg     rms          ort
SDA:   1    -0.130696262649E+04    0.86721E-02    0.00000E+00 10640   0.293E-01 0.000E+00
CGA:   2    -0.130696704371E+04   -0.44172E-02   -0.44275E-02 10640   0.259E-01 0.225E-03
CGA:   3    -0.130696944096E+04   -0.23972E-02   -0.23654E-02 10640   0.996E-02-0.254E-03
CGA:   4    -0.130697087748E+04   -0.14365E-02   -0.14369E-02 10640   0.589E-02 0.895E-05
CGA:   5    -0.130697124699E+04   -0.36950E-03   -0.39424E-03 10640   0.817E-03 0.209E-03
CGA:   6    -0.130697138041E+04   -0.13342E-03   -0.13107E-03 10640   0.473E-03-0.812E-04
CGA:   7    -0.130697141224E+04   -0.31826E-04   -0.37143E-04 10640   0.109E-03 0.563E-04
CGA:   8    -0.130697142725E+04   -0.15012E-04   -0.15203E-04 10640   0.836E-04 0.368E-05
CGA:   9    -0.130697143988E+04   -0.12626E-04   -0.11846E-04 10640   0.415E-04-0.206E-04
CGA:  10    -0.130697144008E+04   -0.20638E-06   -0.16188E-05 10640   0.180E-04 0.117E-04
  22 F= -.13069714E+04 E0= -.13069547E+04  d E =-.137107E-03  mag=    47.0000
