       N       E                     dE             d eps       ncg     rms          ort
DAV:   1     0.284495658267E+04    0.28450E+04   -0.29323E+05  2880   0.141E+03
DAV:   2    -0.970985642636E+03   -0.38159E+04   -0.36782E+04  2880   0.312E+02
DAV:   3    -0.123083203008E+04   -0.25985E+03   -0.25821E+03  2880   0.851E+01
DAV:   4    -0.123387587999E+04   -0.30438E+01   -0.30334E+01  2880   0.981E+00
DAV:   5    -0.123392550880E+04   -0.49629E-01   -0.49520E-01  2880   0.115E+00
SDA:   6    -0.873338747264E+03    0.36059E+03   -0.49520E-01  2880   0.618E+03 0.000E+00
CGA:   7    -0.986093436361E+03   -0.11275E+03   -0.11256E+03  2880   0.441E+02-0.263E+01
CGA:   8    -0.999232070822E+03   -0.13139E+02   -0.13112E+02  2880   0.105E+02 0.225E+00
CGA:   9    -0.100307039653E+04   -0.38383E+01   -0.38396E+01  2880   0.401E+01-0.130E-01
CGA:  10    -0.100434315099E+04   -0.12728E+01   -0.12766E+01  2880   0.869E+00-0.327E-01
CGA:  11    -0.100467714196E+04   -0.33399E+00   -0.33415E+00  2880   0.189E+00-0.749E-03
CGA:  12    -0.100474265069E+04   -0.65509E-01   -0.65492E-01  2880   0.432E-01 0.102E-03
CGA:  13    -0.100475901152E+04   -0.16361E-01   -0.16488E-01  2880   0.995E-02-0.872E-03
CGA:  14    -0.100476272269E+04   -0.37112E-02   -0.36333E-02  2880   0.217E-02 0.580E-03
CGA:  15    -0.100476367486E+04   -0.95216E-03   -0.92182E-03  2880   0.537E-03 0.194E-03
CGA:  16    -0.100476395114E+04   -0.27628E-03   -0.37778E-03  2880   0.411E-03-0.259E-03
CGA:  17    -0.100476401381E+04   -0.62671E-04   -0.62656E-04  2880   0.171E-03 0.189E-06
CGA:  18    -0.100476404367E+04   -0.29860E-04   -0.33519E-04  2880   0.688E-04 0.467E-04
CGA:  19    -0.100476405746E+04   -0.13785E-04   -0.16571E-04  2880   0.367E-04 0.341E-04
CGA:  20    -0.100476406788E+04   -0.10426E-04   -0.11406E-04  2880   0.167E-04 0.167E-04
CGA:  21    -0.100476407573E+04   -0.78459E-05   -0.81315E-05  2880   0.915E-05-0.400E-05
   1 F= -.10047641E+04 E0= -.10047641E+04  d E =-.100476E+04  mag=    -0.0000
       N       E                     dE             d eps       ncg     rms          ort
SDA:   1    -0.100476396465E+04    0.10323E-03    0.00000E+00  2880   0.632E-03 0.000E+00
CGA:   2    -0.100476419587E+04   -0.23122E-03   -0.23346E-03  2880   0.168E-03-0.220E-04
CGA:   3    -0.100476423370E+04   -0.37826E-04   -0.38048E-04  2880   0.225E-04 0.585E-05
CGA:   4    -0.100476423816E+04   -0.44640E-05   -0.49106E-05  2880   0.427E-05 0.743E-05
   2 F= -.10047642E+04 E0= -.10047642E+04  d E =-.162431E-03  mag=    -0.0000
       N       E                     dE             d eps       ncg     rms          ort
SDA:   1    -0.100476409464E+04    0.13905E-03    0.00000E+00  2880   0.510E-03 0.000E+00
CGA:   2    -0.100476428376E+04   -0.18912E-03   -0.19006E-03  2880   0.123E-03-0.876E-05
CGA:   3    -0.100476431332E+04   -0.29552E-04   -0.29695E-04  2880   0.175E-04 0.557E-05
CGA:   4    -0.100476431875E+04   -0.54370E-05   -0.54171E-05  2880   0.301E-05 0.715E-06
   3 F= -.10047643E+04 E0= -.10047643E+04  d E =-.805927E-04  mag=    -0.0000
       N       E                     dE             d eps       ncg     rms          ort
SDA:   1    -0.100476383061E+04    0.48270E-03    0.00000E+00  2880   0.118E-02 0.000E+00
CGA:   2    -0.100476426277E+04   -0.43215E-03   -0.43358E-03  2880   0.278E-03-0.153E-04
CGA:   3    -0.100476432786E+04   -0.65088E-04   -0.65443E-04  2880   0.410E-04 0.860E-05
CGA:   4    -0.100476433956E+04   -0.11708E-04   -0.11711E-04  2880   0.623E-05 0.304E-05
CGA:   5    -0.100476434201E+04   -0.24423E-05   -0.24809E-05  2880   0.220E-05-0.415E-06
   4 F= -.10047643E+04 E0= -.10047643E+04  d E =-.232544E-04  mag=    -0.0000
       N       E                     dE             d eps       ncg     rms          ort
SDA:   1    -0.100476423649E+04    0.10308E-03    0.00000E+00  2880   0.225E-03 0.000E+00
CGA:   2    -0.100476431825E+04   -0.81763E-04   -0.82009E-04  2880   0.462E-04-0.314E-05
CGA:   3    -0.100476432910E+04   -0.10844E-04   -0.10929E-04  2880   0.662E-05 0.167E-05
CGA:   4    -0.100476433078E+04   -0.16869E-05   -0.17118E-05  2880   0.862E-06 0.641E-06
   5 F= -.10047643E+04 E0= -.10047643E+04  d E =0.112238E-04  mag=     0.0000
       N       E                     dE             d eps       ncg     rms          ort
SDA:   1    -0.100475867926E+04    0.56498E-02    0.00000E+00  2880   0.130E-01 0.000E+00
CGA:   2    -0.100476341216E+04   -0.47329E-02   -0.47323E-02  2880   0.256E-02 0.884E-05
CGA:   3    -0.100476405404E+04   -0.64188E-03   -0.64181E-03  2880   0.393E-03-0.169E-05
CGA:   4    -0.100476415640E+04   -0.10236E-03   -0.10218E-03  2880   0.530E-04-0.584E-05
CGA:   5    -0.100476417184E+04   -0.15449E-04   -0.15441E-04  2880   0.904E-05 0.117E-05
CGA:   6    -0.100476417537E+04   -0.35287E-05   -0.34934E-05  2880   0.274E-05 0.397E-06
   6 F= -.10047642E+04 E0= -.10047642E+04  d E =0.155409E-03  mag=     0.0000
       N       E                     dE             d eps       ncg     rms          ort
SDA:   1    -0.100476325055E+04    0.92129E-03    0.00000E+00  2880   0.209E-02 0.000E+00
CGA:   2    -0.100476403546E+04   -0.78491E-03   -0.78601E-03  2880   0.465E-03-0.168E-04
CGA:   3    -0.100476414687E+04   -0.11141E-03   -0.11174E-03  2880   0.653E-04 0.457E-05
CGA:   4    -0.100476416393E+04   -0.17063E-04   -0.17308E-04  2880   0.967E-05 0.501E-05
CGA:   5    -0.100476416745E+04   -0.35142E-05   -0.35135E-05  2880   0.266E-05 0.228E-07
   7 F= -.10047642E+04 E0= -.10047642E+04  d E =0.792683E-05  mag=     0.0000
       N       E                     dE             d eps       ncg     rms          ort
SDA:   1    -0.100476384104E+04    0.32289E-03    0.00000E+00  2880   0.934E-03 0.000E+00
CGA:   2    -0.100476418083E+04   -0.33979E-03   -0.33948E-03  2880   0.203E-03 0.749E-05
CGA:   3    -0.100476423361E+04   -0.52779E-04   -0.52384E-04  2880   0.338E-04-0.591E-05
CGA:   4    -0.100476424210E+04   -0.84874E-05   -0.84951E-05  2880   0.465E-05 0.125E-06
   8 F= -.10047642E+04 E0= -.10047642E+04  d E =-.746503E-04  mag=    -0.0000
