       N       E                     dE             d eps       ncg     rms          ort
DAV:   1     0.572180429149E+04    0.57218E+04   -0.22992E+05  4144   0.175E+03
DAV:   2     0.894405282398E+02   -0.56324E+04   -0.51186E+04  4144   0.502E+02
DAV:   3    -0.748894040621E+03   -0.83833E+03   -0.78840E+03  4144   0.204E+02
DAV:   4    -0.792240189897E+03   -0.43346E+02   -0.42839E+02  4144   0.474E+01
DAV:   5    -0.792765985788E+03   -0.52580E+00   -0.52468E+00  4144   0.569E+00
SDA:   6    -0.274328162147E+03    0.51844E+03   -0.52468E+00  4144   0.187E+04 0.000E+00
CGA:   7    -0.541412387449E+03   -0.26708E+03   -0.26080E+03  4144   0.211E+03 0.194E+02
CGA:   8    -0.581407231980E+03   -0.39995E+02   -0.40021E+02  4144   0.587E+02 0.194E+01
CGA:   9    -0.596310913200E+03   -0.14904E+02   -0.14880E+02  4144   0.290E+02 0.363E+00
CGA:  10    -0.603025070035E+03   -0.67142E+01   -0.67159E+01  4144   0.797E+01-0.126E+00
CGA:  11    -0.604852176463E+03   -0.18271E+01   -0.18341E+01  4144   0.209E+01-0.241E+00
CGA:  12    -0.605364272368E+03   -0.51210E+00   -0.51998E+00  4144   0.652E+00-0.147E+00
CGA:  13    -0.605550976925E+03   -0.18670E+00   -0.19516E+00  4144   0.280E+00-0.734E-01
CGA:  14    -0.605638425708E+03   -0.87449E-01   -0.10220E+00  4144   0.200E+00-0.752E-01
CGA:  15    -0.605659502274E+03   -0.21077E-01   -0.99641E-01  4144   0.358E+00-0.173E+00
CGA:  16    -0.605745460042E+03   -0.85958E-01   -0.85997E-01  4144   0.665E-01 0.116E-01
CGA:  17    -0.605768209196E+03   -0.22749E-01   -0.23484E-01  4144   0.208E-01-0.751E-02
CGA:  18    -0.605773974151E+03   -0.57650E-02   -0.56497E-02  4144   0.528E-02 0.207E-02
CGA:  19    -0.605776697767E+03   -0.27236E-02   -0.34868E-02  4144   0.564E-02-0.218E-02
CGA:  20    -0.605762208563E+03    0.14489E-01   -0.77870E-02  4144   0.545E-01-0.140E-01
CGA:  21    -0.605777882755E+03   -0.15674E-01   -0.15198E-01  4144   0.127E-01-0.226E-02
CGA:  22    -0.605783559763E+03   -0.56770E-02   -0.56293E-02  4144   0.747E-02-0.301E-02
CGA:  23    -0.605786310997E+03   -0.27512E-02   -0.31080E-02  4144   0.106E-01-0.534E-02
CGA:  24    -0.605787521981E+03   -0.12110E-02   -0.17383E-02  4144   0.127E-02 0.168E-02
CGA:  25    -0.605787680962E+03   -0.15898E-03   -0.31078E-03  4144   0.484E-03 0.595E-03
CGA:  26    -0.605787710396E+03   -0.29434E-04   -0.11719E-03  4144   0.152E-03 0.303E-03
CGA:  27    -0.605787675246E+03    0.35150E-04   -0.12308E-04  4144   0.117E-03 0.132E-03
CGA:  28    -0.605787644394E+03    0.30852E-04   -0.75541E-05  4144   0.997E-04 0.108E-03
CGA:  29    -0.605787617280E+03    0.27114E-04   -0.55214E-05  4144   0.887E-04 0.937E-04
CGA:  30    -0.605787593162E+03    0.24117E-04   -0.43514E-05  4144   0.809E-04 0.844E-04
CGA:  31    -0.605787571494E+03    0.21668E-04   -0.35768E-05  4144   0.750E-04 0.776E-04
CGA:  32    -0.605787551875E+03    0.19619E-04   -0.30199E-05  4144   0.703E-04 0.724E-04
CGA:  33    -0.605787534003E+03    0.17873E-04   -0.25975E-05  4144   0.664E-04 0.681E-04
CGA:  34    -0.605787517641E+03    0.16362E-04   -0.22649E-05  4144   0.632E-04 0.646E-04
CGA:  35    -0.605787502601E+03    0.15040E-04   -0.19957E-05  4144   0.604E-04 0.616E-04
CGA:  36    -0.605787488730E+03    0.13871E-04   -0.17734E-05  4144   0.580E-04 0.591E-04
CGA:  37    -0.605787475901E+03    0.12830E-04   -0.15868E-05  4144   0.559E-04 0.568E-04
CGA:  38    -0.605787464004E+03    0.11896E-04   -0.14280E-05  4144   0.541E-04 0.549E-04
CGA:  39    -0.605787452949E+03    0.11055E-04   -0.12916E-05  4144   0.524E-04 0.532E-04
CGA:  40    -0.605787442655E+03    0.10294E-04   -0.11732E-05  4144   0.510E-04 0.516E-04
CGA:  41    -0.605787433055E+03    0.96005E-05   -0.10697E-05  4144   0.496E-04 0.502E-04
   1 F= -.60578743E+03 E0= -.60578743E+03  d E =-.605787E+03  mag=    55.0000
       N       E                     dE             d eps       ncg     rms          ort
SDA:   1    -0.605783648001E+03    0.37947E-02    0.00000E+00  4144   0.847E-02 0.000E+00
CGA:   2    -0.605785520111E+03   -0.18721E-02   -0.18698E-02  4144   0.353E-02 0.281E-03
CGA:   3    -0.605786250985E+03   -0.73087E-03   -0.73632E-03  4144   0.810E-03 0.495E-03
CGA:   4    -0.605786370786E+03   -0.11980E-03   -0.13778E-03  4144   0.169E-03 0.284E-03
CGA:   5    -0.605786373378E+03   -0.25917E-05   -0.20300E-04  4144   0.825E-04 0.147E-03
   2 F= -.60578637E+03 E0= -.60578637E+03  d E =0.105968E-02  mag=    55.0000
       N       E                     dE             d eps       ncg     rms          ort
SDA:   1    -0.605785218149E+03    0.11526E-02    0.00000E+00  4144   0.244E-02 0.000E+00
CGA:   2    -0.605785659105E+03   -0.44096E-03   -0.44416E-03  4144   0.763E-03 0.226E-03
CGA:   3    -0.605785825597E+03   -0.16649E-03   -0.16583E-03  4144   0.216E-03 0.180E-03
CGA:   4    -0.605785855388E+03   -0.29791E-04   -0.36504E-04  4144   0.582E-04 0.114E-03
CGA:   5    -0.605785854125E+03    0.12631E-05   -0.42088E-05  4144   0.369E-04 0.455E-04
   3 F= -.60578585E+03 E0= -.60578585E+03  d E =0.519253E-03  mag=    55.0000
       N       E                     dE             d eps       ncg     rms          ort
SDA:   1    -0.605785630346E+03    0.22504E-03    0.00000E+00  4144   0.267E-03 0.000E+00
CGA:   2    -0.605785680530E+03   -0.50184E-04   -0.50285E-04  4144   0.708E-04-0.122E-04
CGA:   3    -0.605785682122E+03   -0.15920E-05   -0.56367E-05  4144   0.303E-04 0.418E-04
CGA:   4    -0.605785680761E+03    0.13609E-05   -0.15690E-05  4144   0.189E-04 0.237E-04
   4 F= -.60578568E+03 E0= -.60578568E+03  d E =0.173364E-03  mag=    55.0000
       N       E                     dE             d eps       ncg     rms          ort
SDA:   1    -0.605785497709E+03    0.18441E-03    0.00000E+00  4144   0.722E-04 0.000E+00
CGA:   2    -0.605785524602E+03   -0.26892E-04   -0.27836E-04  4144   0.377E-04-0.427E-05
CGA:   3    -0.605785523104E+03    0.14979E-05   -0.17051E-05  4144   0.197E-04 0.255E-04
CGA:   4    -0.605785521655E+03    0.14487E-05   -0.66170E-06  4144   0.122E-04 0.158E-04
   5 F= -.60578552E+03 E0= -.60578552E+03  d E =0.159106E-03  mag=    55.0000
       N       E                     dE             d eps       ncg     rms          ort
SDA:   1    -0.580625367238E+03    0.25160E+02    0.00000E+00  4144   0.740E+02 0.000E+00
CGA:   2    -0.596627744787E+03   -0.16002E+02   -0.15935E+02  4144   0.289E+02 0.923E+00
CGA:   3    -0.603367034954E+03   -0.67393E+01   -0.67401E+01  4144   0.847E+01-0.256E-01
CGA:   4    -0.605018656973E+03   -0.16516E+01   -0.16504E+01  4144   0.162E+01 0.220E-01
CGA:   5    -0.605337595397E+03   -0.31894E+00   -0.31868E+00  4144   0.378E+00 0.638E-02
CGA:   6    -0.605424272670E+03   -0.86677E-01   -0.86708E-01  4144   0.106E+00-0.649E-03
CGA:   7    -0.605451848291E+03   -0.27576E-01   -0.27292E-01  4144   0.301E-01 0.308E-02
CGA:   8    -0.605460438286E+03   -0.85900E-02   -0.83303E-02  4144   0.104E-01 0.268E-02
CGA:   9    -0.605464069997E+03   -0.36317E-02   -0.34742E-02  4144   0.393E-02 0.121E-02
CGA:  10    -0.605465429625E+03   -0.13596E-02   -0.12424E-02  4144   0.151E-02 0.117E-02
CGA:  11    -0.605466027515E+03   -0.59789E-03   -0.53870E-03  4144   0.669E-03 0.680E-03
CGA:  12    -0.605466283853E+03   -0.25634E-03   -0.23398E-03  4144   0.347E-03 0.459E-03
CGA:  13    -0.605466351565E+03   -0.67712E-04   -0.67719E-04  4144   0.210E-03 0.244E-03
CGA:  14    -0.605466402221E+03   -0.50656E-04   -0.46151E-04  4144   0.167E-03 0.184E-03
CGA:  15    -0.605466427841E+03   -0.25620E-04   -0.29039E-04  4144   0.145E-03 0.155E-03
CGA:  16    -0.605466450942E+03   -0.23101E-04   -0.25647E-04  4144   0.128E-03 0.136E-03
CGA:  17    -0.605466467985E+03   -0.17043E-04   -0.20830E-04  4144   0.114E-03 0.121E-03
CGA:  18    -0.605466481644E+03   -0.13659E-04   -0.17718E-04  4144   0.103E-03 0.108E-03
CGA:  19    -0.605466492438E+03   -0.10794E-04   -0.15085E-04  4144   0.930E-04 0.976E-04
CGA:  20    -0.605466501070E+03   -0.86315E-05   -0.12984E-04  4144   0.848E-04 0.887E-04
CGA:  21    -0.605466508008E+03   -0.69383E-05   -0.11261E-04  4144   0.776E-04 0.811E-04
   6 F= -.60546651E+03 E0= -.60546651E+03  d E =0.319014E+00  mag=    55.0000
       N       E                     dE             d eps       ncg     rms          ort
SDA:   1    -0.584050320801E+03    0.21416E+02    0.00000E+00  4144   0.660E+02 0.000E+00
CGA:   2    -0.597886869479E+03   -0.13837E+02   -0.13814E+02  4144   0.257E+02 0.584E+00
CGA:   3    -0.603973327254E+03   -0.60865E+01   -0.60883E+01  4144   0.733E+01-0.233E-01
CGA:   4    -0.605390303599E+03   -0.14170E+01   -0.14169E+01  4144   0.143E+01 0.138E-02
CGA:   5    -0.605666594601E+03   -0.27629E+00   -0.27624E+00  4144   0.329E+00 0.550E-02
CGA:   6    -0.605743376782E+03   -0.76782E-01   -0.76898E-01  4144   0.919E-01-0.260E-02
CGA:   7    -0.605767685962E+03   -0.24309E-01   -0.24517E-01  4144   0.290E-01-0.259E-02
CGA:   8    -0.605775632705E+03   -0.79467E-02   -0.80130E-02  4144   0.105E-01-0.720E-03
CGA:   9    -0.605779108998E+03   -0.34763E-02   -0.38619E-02  4144   0.532E-02-0.215E-02
CGA:  10    -0.605780495022E+03   -0.13860E-02   -0.14693E-02  4144   0.207E-02-0.592E-03
CGA:  11    -0.605781157509E+03   -0.66249E-03   -0.74031E-03  4144   0.928E-03-0.411E-03
CGA:  12    -0.605781450494E+03   -0.29298E-03   -0.39157E-03  4144   0.775E-03-0.326E-03
CGA:  13    -0.605781644687E+03   -0.19419E-03   -0.19565E-03  4144   0.382E-03-0.108E-04
CGA:  14    -0.605781775909E+03   -0.13122E-03   -0.12603E-03  4144   0.161E-03 0.575E-04
CGA:  15    -0.605781819634E+03   -0.43724E-04   -0.44401E-04  4144   0.609E-04 0.701E-04
CGA:  16    -0.605781832693E+03   -0.13060E-04   -0.16056E-04  4144   0.300E-04 0.458E-04
CGA:  17    -0.605781838232E+03   -0.55391E-05   -0.62737E-05  4144   0.166E-04 0.199E-04
   7 F= -.60578184E+03 E0= -.60578184E+03  d E =-.315330E+00  mag=    55.0000
       N       E                     dE             d eps       ncg     rms          ort
SDA:   1    -0.605675969070E+03    0.10586E+00    0.00000E+00  4144   0.299E+00 0.000E+00
CGA:   2    -0.605748050205E+03   -0.72081E-01   -0.72079E-01  4144   0.126E+00 0.943E-03
CGA:   3    -0.605775496465E+03   -0.27446E-01   -0.27423E-01  4144   0.332E-01-0.103E-02
CGA:   4    -0.605782007286E+03   -0.65108E-02   -0.64872E-02  4144   0.671E-02-0.582E-03
CGA:   5    -0.605783299439E+03   -0.12922E-02   -0.12922E-02  4144   0.145E-02-0.138E-05
CGA:   6    -0.605783656249E+03   -0.35681E-03   -0.35839E-03  4144   0.483E-03-0.130E-03
CGA:   7    -0.605783744043E+03   -0.87794E-04   -0.23135E-03  4144   0.965E-03-0.493E-03
CGA:   8    -0.605783901127E+03   -0.15708E-03   -0.15687E-03  4144   0.110E-03-0.276E-05
CGA:   9    -0.605783841342E+03    0.59785E-04   -0.95788E-04  4144   0.758E-03-0.248E-03
CGA:  10    -0.605783977975E+03   -0.13663E-03   -0.13743E-03  4144   0.788E-04 0.809E-05
CGA:  11    -0.605784004509E+03   -0.26534E-04   -0.31980E-04  4144   0.357E-04-0.419E-04
CGA:  12    -0.605784009681E+03   -0.51725E-05   -0.19827E-04  4144   0.937E-04-0.528E-04
CGA:  13    -0.605784033845E+03   -0.24164E-04   -0.23015E-04  4144   0.114E-04-0.248E-04
CGA:  14    -0.605784039412E+03   -0.55674E-05    0.84447E-05  4144   0.963E-06-0.460E-06
   8 F= -.60578404E+03 E0= -.60578404E+03  d E =-.220118E-02  mag=    55.0000
       N       E                     dE             d eps       ncg     rms          ort
SDA:   1    -0.605749047386E+03    0.34986E-01    0.00000E+00  4144   0.998E-01 0.000E+00
CGA:   2    -0.605772223187E+03   -0.23176E-01   -0.23160E-01  4144   0.414E-01-0.324E-03
CGA:   3    -0.605781201799E+03   -0.89786E-02   -0.90069E-02  4144   0.111E-01 0.396E-03
CGA:   4    -0.605783319674E+03   -0.21179E-02   -0.21409E-02  4144   0.217E-02 0.248E-03
CGA:   5    -0.605783766880E+03   -0.44721E-03   -0.44739E-03  4144   0.496E-03 0.160E-05
CGA:   6    -0.605783866735E+03   -0.99855E-04   -0.10266E-03  4144   0.124E-03 0.411E-04
CGA:   7    -0.605783881763E+03   -0.15028E-04   -0.21379E-04  4144   0.378E-04 0.566E-04
CGA:   8    -0.605783881873E+03   -0.10998E-06   -0.56213E-05  4144   0.187E-04 0.336E-04
   9 F= -.60578388E+03 E0= -.60578388E+03  d E =0.157539E-03  mag=    55.0000
