       N       E                     dE             d eps       ncg     rms          rms(c)
DAV:   1     0.668385745301E+04    0.66839E+04   -0.19126E+05  5088   0.163E+03
DAV:   2     0.845111888823E+03   -0.58387E+04   -0.53691E+04  4824   0.520E+02
DAV:   3    -0.349312429440E+03   -0.11944E+04   -0.10411E+04  5020   0.241E+02
DAV:   4    -0.508917950112E+03   -0.15961E+03   -0.15529E+03  7504   0.890E+01
DAV:   5    -0.512362924291E+03   -0.34450E+01   -0.34108E+01  7384   0.190E+01    0.781E+01
RMM:   6    -0.453222308228E+03    0.59141E+02   -0.59639E+02  5337   0.624E+01    0.765E+01
RMM:   7    -0.456205445703E+03   -0.29831E+01   -0.68832E+01  6055   0.224E+01    0.592E+01
RMM:   8    -0.417039610046E+03    0.39166E+02   -0.21607E+01  5630   0.134E+01    0.321E+01
RMM:   9    -0.427492073577E+03   -0.10452E+02   -0.95565E+00  5515   0.780E+00    0.433E+01
RMM:  10    -0.416376187662E+03    0.11116E+02   -0.51518E+00  5713   0.579E+00    0.209E+01
RMM:  11    -0.418868859209E+03   -0.24927E+01   -0.30968E+00  5148   0.408E+00    0.152E+01
RMM:  12    -0.418954709514E+03   -0.85850E-01   -0.11474E+00  5624   0.271E+00    0.156E+01
RMM:  13    -0.420018256577E+03   -0.10635E+01   -0.10593E+00  5324   0.222E+00    0.928E+00
RMM:  14    -0.420109020954E+03   -0.90764E-01   -0.21029E+00  5442   0.329E+00    0.843E+00
RMM:  15    -0.420015766444E+03    0.93255E-01   -0.23114E-01  5942   0.955E-01    0.672E+00
RMM:  16    -0.419991415008E+03    0.24351E-01   -0.13964E-01  5923   0.848E-01    0.534E+00
RMM:  17    -0.419971808828E+03    0.19606E-01   -0.11828E-01  5587   0.949E-01    0.333E+00
RMM:  18    -0.419989874680E+03   -0.18066E-01   -0.52169E-02  5550   0.603E-01    0.191E+00
RMM:  19    -0.419986865258E+03    0.30094E-02   -0.30287E-02  5652   0.428E-01    0.143E+00
RMM:  20    -0.419987819619E+03   -0.95436E-03   -0.12710E-02  5422   0.330E-01    0.734E-01
RMM:  21    -0.419987966433E+03   -0.14681E-03   -0.45042E-03  5923   0.155E-01    0.564E-01
RMM:  22    -0.419987766937E+03    0.19950E-03   -0.11777E-03  5440   0.944E-02    0.453E-01
RMM:  23    -0.419987775117E+03   -0.81798E-05   -0.43315E-04  5167   0.558E-02    0.347E-01
RMM:  24    -0.419988213166E+03   -0.43805E-03   -0.24977E-04  5201   0.377E-02    0.345E-01
RMM:  25    -0.419988408066E+03   -0.19490E-03   -0.25512E-04  5057   0.399E-02    0.111E-01
RMM:  26    -0.419988474129E+03   -0.66062E-04   -0.13100E-04  4695   0.263E-02    0.714E-02
RMM:  27    -0.419988460315E+03    0.13814E-04   -0.47793E-05  4045   0.194E-02    0.533E-02
RMM:  28    -0.419988470337E+03   -0.10023E-04   -0.13706E-05  3037   0.117E-02    0.343E-02
RMM:  29    -0.419988476932E+03   -0.65945E-05   -0.62781E-06  2784   0.889E-03
   1 F= -.41998848E+03 E0= -.41997594E+03  d E =-.419988E+03  mag=    62.0013
       N       E                     dE             d eps       ncg     rms          rms(c)
DAV:   1    -0.413302260493E+03    0.66862E+01   -0.25277E+02  6232   0.123E+02    0.998E+00
RMM:   2    -0.420455407486E+03   -0.71531E+01   -0.67795E+01  7322   0.221E+01    0.883E+00
RMM:   3    -0.420473368239E+03   -0.17961E-01   -0.24967E+00  5869   0.439E+00    0.716E+00
RMM:   4    -0.420278436281E+03    0.19493E+00   -0.32980E-01  5854   0.162E+00    0.324E+00
RMM:   5    -0.420268612856E+03    0.98234E-02   -0.66622E-02  6071   0.642E-01    0.189E+00
RMM:   6    -0.420253045202E+03    0.15568E-01   -0.31950E-02  5992   0.395E-01    0.164E+00
RMM:   7    -0.420250081691E+03    0.29635E-02   -0.14637E-02  5725   0.315E-01    0.173E+00
RMM:   8    -0.420241609981E+03    0.84717E-02   -0.21635E-02  5667   0.371E-01    0.604E-01
RMM:   9    -0.420242157035E+03   -0.54705E-03   -0.52058E-03  6216   0.184E-01    0.432E-01
RMM:  10    -0.420241829336E+03    0.32770E-03   -0.10246E-03  5962   0.872E-02    0.266E-01
RMM:  11    -0.420241687428E+03    0.14191E-03   -0.28015E-04  5204   0.476E-02    0.127E-01
RMM:  12    -0.420241745279E+03   -0.57850E-04   -0.11927E-04  4654   0.331E-02    0.131E-01
RMM:  13    -0.420241709285E+03    0.35994E-04   -0.59650E-05  4204   0.237E-02    0.440E-02
RMM:  14    -0.420241715378E+03   -0.60935E-05   -0.18916E-05  3205   0.147E-02
   2 F= -.42024172E+03 E0= -.42022812E+03  d E =-.253238E+00  mag=    62.0000
       N       E                     dE             d eps       ncg     rms          rms(c)
DAV:   1    -0.419679009066E+03    0.56270E+00   -0.19192E+01  6264   0.384E+01    0.305E+00
RMM:   2    -0.420304535175E+03   -0.62553E+00   -0.60040E+00  7150   0.617E+00    0.182E+00
RMM:   3    -0.420353305608E+03   -0.48770E-01   -0.30257E-01  6257   0.158E+00    0.261E+00
RMM:   4    -0.420331573628E+03    0.21732E-01   -0.28063E-02  5904   0.442E-01    0.533E-01
RMM:   5    -0.420333012991E+03   -0.14394E-02   -0.55273E-03  5965   0.173E-01    0.783E-01
RMM:   6    -0.420331203595E+03    0.18094E-02   -0.16228E-03  5803   0.107E-01    0.298E-01
RMM:   7    -0.420331238718E+03   -0.35123E-04   -0.25783E-03  5575   0.124E-01    0.341E-01
RMM:   8    -0.420331050856E+03    0.18786E-03   -0.75673E-04  5556   0.776E-02    0.332E-01
RMM:   9    -0.420330814612E+03    0.23624E-03   -0.29188E-04  5141   0.516E-02    0.732E-02
RMM:  10    -0.420330835265E+03   -0.20653E-04   -0.61841E-05  4252   0.241E-02    0.320E-02
RMM:  11    -0.420330837818E+03   -0.25528E-05   -0.13627E-05  3043   0.127E-02
   3 F= -.42033084E+03 E0= -.42031711E+03  d E =-.891224E-01  mag=    62.0000
       N       E                     dE             d eps       ncg     rms          rms(c)
DAV:   1    -0.420307594703E+03    0.23241E-01   -0.34371E+00  5992   0.124E+01    0.114E+00
RMM:   2    -0.420384392870E+03   -0.76798E-01   -0.65470E-01  7191   0.217E+00    0.195E+00
RMM:   3    -0.420380417792E+03    0.39751E-02   -0.32311E-02  5759   0.517E-01    0.127E+00
RMM:   4    -0.420377308314E+03    0.31095E-02   -0.43520E-03  5705   0.206E-01    0.334E-01
RMM:   5    -0.420377274743E+03    0.33571E-04   -0.59261E-04  5545   0.673E-02    0.213E-01
RMM:   6    -0.420377062183E+03    0.21256E-03   -0.41081E-04  5271   0.444E-02    0.106E-01
RMM:   7    -0.420377019585E+03    0.42598E-04   -0.38079E-04  5281   0.497E-02    0.116E-01
RMM:   8    -0.420377014830E+03    0.47550E-05   -0.11446E-04  4759   0.306E-02    0.140E-01
RMM:   9    -0.420376972191E+03    0.42639E-04   -0.34790E-05  3588   0.200E-02    0.360E-02
RMM:  10    -0.420376975599E+03   -0.34085E-05   -0.82929E-06  2914   0.118E-02
   4 F= -.42037698E+03 E0= -.42036290E+03  d E =-.461378E-01  mag=    62.0000
       N       E                     dE             d eps       ncg     rms          rms(c)
DAV:   1    -0.419804348811E+03    0.57262E+00   -0.61532E+01  5384   0.391E+01    0.377E+00
RMM:   2    -0.420683327684E+03   -0.87898E+00   -0.71542E+00  7144   0.765E+00    0.747E+00
RMM:   3    -0.420520135284E+03    0.16319E+00   -0.36495E-01  5765   0.170E+00    0.260E+00
RMM:   4    -0.420511489376E+03    0.86459E-02   -0.47417E-02  6031   0.625E-01    0.210E+00
RMM:   5    -0.420502769498E+03    0.87199E-02   -0.82434E-03  5835   0.258E-01    0.957E-01
RMM:   6    -0.420498992434E+03    0.37771E-02   -0.67411E-03  5565   0.177E-01    0.397E-01
RMM:   7    -0.420498346715E+03    0.64572E-03   -0.63268E-03  5416   0.204E-01    0.511E-01
RMM:   8    -0.420497992266E+03    0.35445E-03   -0.10174E-03  5762   0.862E-02    0.321E-01
RMM:   9    -0.420497863007E+03    0.12926E-03   -0.39004E-04  5406   0.549E-02    0.204E-01
RMM:  10    -0.420497821214E+03    0.41793E-04   -0.87683E-05  4305   0.297E-02    0.121E-01
RMM:  11    -0.420497807332E+03    0.13882E-04   -0.44696E-05  4028   0.195E-02    0.257E-02
RMM:  12    -0.420497817371E+03   -0.10039E-04   -0.10803E-05  3045   0.127E-02    0.316E-02
RMM:  13    -0.420497816372E+03    0.99951E-06   -0.75419E-06  2764   0.992E-03
   5 F= -.42049782E+03 E0= -.42048307E+03  d E =-.120841E+00  mag=    62.0000
       N       E                     dE             d eps       ncg     rms          rms(c)
DAV:   1    -0.420437761313E+03    0.60056E-01   -0.12817E+01  5448   0.145E+01    0.155E+00
RMM:   2    -0.420582790609E+03   -0.14503E+00   -0.10673E+00  6936   0.290E+00    0.432E+00
RMM:   3    -0.420533374269E+03    0.49416E-01   -0.67083E-02  5781   0.725E-01    0.105E+00
RMM:   4    -0.420535151548E+03   -0.17773E-02   -0.93787E-03  5921   0.279E-01    0.764E-01
RMM:   5    -0.420534221987E+03    0.92956E-03   -0.16922E-03  5726   0.116E-01    0.568E-01
RMM:   6    -0.420533166600E+03    0.10554E-02   -0.14197E-03  5535   0.834E-02    0.265E-01
RMM:   7    -0.420533263485E+03   -0.96885E-04   -0.87027E-04  5332   0.747E-02    0.404E-01
RMM:   8    -0.420532904975E+03    0.35851E-03   -0.58909E-04  5369   0.644E-02    0.133E-01
RMM:   9    -0.420532938993E+03   -0.34018E-04   -0.10721E-04  4584   0.315E-02    0.830E-02
RMM:  10    -0.420532926397E+03    0.12596E-04   -0.21442E-05  3344   0.159E-02    0.354E-02
RMM:  11    -0.420532929896E+03   -0.34993E-05   -0.84174E-06  2928   0.109E-02
   6 F= -.42053293E+03 E0= -.42051849E+03  d E =-.351135E-01  mag=    62.0000
       N       E                     dE             d eps       ncg     rms          rms(c)
DAV:   1    -0.420369450380E+03    0.16348E+00   -0.24327E+01  5264   0.204E+01    0.203E+00
RMM:   2    -0.420630796760E+03   -0.26135E+00   -0.21190E+00  6952   0.410E+00    0.441E+00
RMM:   3    -0.420568825775E+03    0.61971E-01   -0.11845E-01  5831   0.961E-01    0.163E+00
RMM:   4    -0.420569371346E+03   -0.54557E-03   -0.17527E-02  5939   0.384E-01    0.128E+00
RMM:   5    -0.420564529239E+03    0.48421E-02   -0.33032E-03  5703   0.167E-01    0.401E-01
RMM:   6    -0.420563738296E+03    0.79094E-03   -0.30714E-03  5691   0.108E-01    0.355E-01
RMM:   7    -0.420563915423E+03   -0.17713E-03   -0.14673E-03  5474   0.100E-01    0.611E-01
RMM:   8    -0.420563227538E+03    0.68788E-03   -0.76924E-04  5442   0.737E-02    0.184E-01
RMM:   9    -0.420563286635E+03   -0.59097E-04   -0.17813E-04  5022   0.380E-02    0.110E-01
RMM:  10    -0.420563289388E+03   -0.27534E-05   -0.38628E-05  3651   0.205E-02
   7 F= -.42056329E+03 E0= -.42054982E+03  d E =-.303595E-01  mag=    62.0000
       N       E                     dE             d eps       ncg     rms          rms(c)
DAV:   1    -0.420502503578E+03    0.60783E-01   -0.10110E+01  5224   0.130E+01    0.127E+00
RMM:   2    -0.420610244565E+03   -0.10774E+00   -0.83710E-01  6923   0.260E+00    0.313E+00
RMM:   3    -0.420582974011E+03    0.27271E-01   -0.46364E-02  5837   0.599E-01    0.142E+00
RMM:   4    -0.420581974670E+03    0.99934E-03   -0.83821E-03  5788   0.278E-01    0.506E-01
RMM:   5    -0.420581105519E+03    0.86915E-03   -0.13451E-03  5483   0.107E-01    0.248E-01
RMM:   6    -0.420581054571E+03    0.50948E-04   -0.91650E-04  5596   0.700E-02    0.374E-01
RMM:   7    -0.420580588236E+03    0.46634E-03   -0.95518E-04  5481   0.685E-02    0.229E-01
RMM:   8    -0.420580546035E+03    0.42201E-04   -0.24209E-04  5261   0.452E-02    0.852E-02
RMM:   9    -0.420580550978E+03   -0.49424E-05   -0.43081E-05  3769   0.207E-02
   8 F= -.42058055E+03 E0= -.42056799E+03  d E =-.172616E-01  mag=    62.0000
       N       E                     dE             d eps       ncg     rms          rms(c)
DAV:   1    -0.420395456031E+03    0.18509E+00   -0.27870E+01  5184   0.215E+01    0.201E+00
RMM:   2    -0.420695867419E+03   -0.30041E+00   -0.22925E+00  6949   0.431E+00    0.479E+00
RMM:   3    -0.420618216588E+03    0.77651E-01   -0.12251E-01  5856   0.975E-01    0.168E+00
RMM:   4    -0.420617687213E+03    0.52938E-03   -0.17635E-02  5930   0.395E-01    0.624E-01
RMM:   5    -0.420616655371E+03    0.10318E-02   -0.30465E-03  5885   0.148E-01    0.607E-01
RMM:   6    -0.420615191475E+03    0.14639E-02   -0.17093E-03  5603   0.100E-01    0.304E-01
RMM:   7    -0.420614973478E+03    0.21800E-03   -0.29475E-03  5526   0.114E-01    0.377E-01
RMM:   8    -0.420614552007E+03    0.42147E-03   -0.44858E-04  5394   0.658E-02    0.810E-02
RMM:   9    -0.420614641711E+03   -0.89705E-04   -0.88991E-05  4444   0.272E-02    0.940E-02
RMM:  10    -0.420614629426E+03    0.12285E-04   -0.23115E-05  3325   0.165E-02    0.291E-02
RMM:  11    -0.420614632877E+03   -0.34510E-05   -0.11283E-05  2899   0.124E-02
   9 F= -.42061463E+03 E0= -.42060334E+03  d E =-.340819E-01  mag=    62.0000
       N       E                     dE             d eps       ncg     rms          rms(c)
DAV:   1    -0.420544576723E+03    0.70053E-01   -0.10771E+01  5400   0.143E+01    0.129E+00
RMM:   2    -0.420678449497E+03   -0.13387E+00   -0.10569E+00  7142   0.280E+00    0.352E+00
RMM:   3    -0.420650785455E+03    0.27664E-01   -0.47380E-02  5870   0.590E-01    0.161E+00
RMM:   4    -0.420649986792E+03    0.79866E-03   -0.75729E-03  5622   0.275E-01    0.281E-01
RMM:   5    -0.420650051134E+03   -0.64341E-04   -0.13347E-03  5555   0.996E-02    0.320E-01
RMM:   6    -0.420649482227E+03    0.56891E-03   -0.91005E-04  5472   0.664E-02    0.173E-01
RMM:   7    -0.420649350605E+03    0.13162E-03   -0.94662E-04  5318   0.754E-02    0.133E-01
RMM:   8    -0.420649348082E+03    0.25231E-05   -0.16089E-04  5018   0.346E-02    0.122E-01
RMM:   9    -0.420649314053E+03    0.34029E-04   -0.35198E-05  3613   0.189E-02    0.426E-02
RMM:  10    -0.420649315959E+03   -0.19063E-05   -0.84609E-06  2945   0.113E-02
  10 F= -.42064932E+03 E0= -.42063842E+03  d E =-.346831E-01  mag=    62.0000
       N       E                     dE             d eps       ncg     rms          rms(c)
DAV:   1    -0.420499469385E+03    0.14984E+00   -0.16117E+01  5568   0.197E+01    0.174E+00
RMM:   2    -0.420735479641E+03   -0.23601E+00   -0.18714E+00  7248   0.376E+00    0.446E+00
RMM:   3    -0.420689906758E+03    0.45573E-01   -0.80428E-02  5778   0.777E-01    0.215E+00
RMM:   4    -0.420687390469E+03    0.25163E-02   -0.13023E-02  5666   0.362E-01    0.477E-01
RMM:   5    -0.420687355788E+03    0.34681E-04   -0.20940E-03  5653   0.129E-01    0.345E-01
RMM:   6    -0.420686425320E+03    0.93047E-03   -0.16580E-03  5538   0.838E-02    0.193E-01
RMM:   7    -0.420686347593E+03    0.77727E-04   -0.12616E-03  5354   0.967E-02    0.254E-01
RMM:   8    -0.420686235004E+03    0.11259E-03   -0.40240E-04  5452   0.521E-02    0.155E-01
RMM:   9    -0.420686194589E+03    0.40415E-04   -0.10582E-04  4523   0.303E-02    0.570E-02
RMM:  10    -0.420686191286E+03    0.33031E-05   -0.13802E-05  3147   0.130E-02
  11 F= -.42068619E+03 E0= -.42067573E+03  d E =-.368753E-01  mag=    62.0000
       N       E                     dE             d eps       ncg     rms          rms(c)
DAV:   1    -0.420614549661E+03    0.71645E-01   -0.71340E+00  5744   0.141E+01    0.127E+00
RMM:   2    -0.420738052796E+03   -0.12350E+00   -0.92786E-01  7251   0.265E+00    0.388E+00
RMM:   3    -0.420706772223E+03    0.31281E-01   -0.41575E-02  5704   0.573E-01    0.155E+00
RMM:   4    -0.420708362272E+03   -0.15900E-02   -0.73708E-03  5580   0.279E-01    0.456E-01
RMM:   5    -0.420707899618E+03    0.46265E-03   -0.10522E-03  5463   0.948E-02    0.270E-01
RMM:   6    -0.420707460398E+03    0.43922E-03   -0.81557E-04  5356   0.588E-02    0.125E-01
RMM:   7    -0.420707552375E+03   -0.91977E-04   -0.56828E-04  5080   0.673E-02    0.261E-01
RMM:   8    -0.420707404192E+03    0.14818E-03   -0.21965E-04  5075   0.417E-02    0.100E-01
RMM:   9    -0.420707403875E+03    0.31674E-06   -0.39655E-05  3699   0.203E-02
  12 F= -.42070740E+03 E0= -.42069723E+03  d E =-.212126E-01  mag=    62.0000
       N       E                     dE             d eps       ncg     rms          rms(c)
DAV:   1    -0.420576918992E+03    0.13049E+00   -0.11706E+01  5488   0.176E+01    0.170E+00
RMM:   2    -0.420796912613E+03   -0.21999E+00   -0.15424E+00  7201   0.341E+00    0.527E+00
RMM:   3    -0.420725740194E+03    0.71172E-01   -0.79173E-02  5657   0.791E-01    0.171E+00
RMM:   4    -0.420730065286E+03   -0.43251E-02   -0.12882E-02  5644   0.353E-01    0.554E-01
RMM:   5    -0.420728924438E+03    0.11408E-02   -0.18598E-03  5601   0.121E-01    0.288E-01
RMM:   6    -0.420728273259E+03    0.65118E-03   -0.11997E-03  5477   0.735E-02    0.168E-01
RMM:   7    -0.420728363396E+03   -0.90137E-04   -0.98129E-04  5311   0.798E-02    0.352E-01
RMM:   8    -0.420728059297E+03    0.30410E-03   -0.35338E-04  5321   0.517E-02    0.886E-02
RMM:   9    -0.420728082347E+03   -0.23050E-04   -0.59515E-05  4061   0.252E-02    0.363E-02
RMM:  10    -0.420728086017E+03   -0.36703E-05   -0.12638E-05  3083   0.135E-02
  13 F= -.42072809E+03 E0= -.42071835E+03  d E =-.206821E-01  mag=    62.0000
       N       E                     dE             d eps       ncg     rms          rms(c)
DAV:   1    -0.420682357084E+03    0.45725E-01   -0.42318E+00  5528   0.107E+01    0.105E+00
RMM:   2    -0.420771649336E+03   -0.89292E-01   -0.59444E-01  7201   0.208E+00    0.408E+00
RMM:   3    -0.420736318195E+03    0.35331E-01   -0.32050E-02  5651   0.502E-01    0.107E+00
RMM:   4    -0.420741337132E+03   -0.50189E-02   -0.60598E-03  5449   0.247E-01    0.451E-01
RMM:   5    -0.420740512213E+03    0.82492E-03   -0.94968E-04  5472   0.888E-02    0.224E-01
RMM:   6    -0.420740272315E+03    0.23990E-03   -0.48702E-04  5252   0.469E-02    0.133E-01
RMM:   7    -0.420740327196E+03   -0.54880E-04   -0.30186E-04  5006   0.472E-02    0.241E-01
RMM:   8    -0.420740208551E+03    0.11865E-03   -0.19366E-04  4995   0.386E-02    0.109E-01
RMM:   9    -0.420740198178E+03    0.10372E-04   -0.33121E-05  3643   0.199E-02    0.211E-02
RMM:  10    -0.420740205123E+03   -0.69446E-05   -0.77368E-06  2906   0.113E-02
  14 F= -.42074021E+03 E0= -.42073074E+03  d E =-.121191E-01  mag=    62.0000
       N       E                     dE             d eps       ncg     rms          rms(c)
DAV:   1    -0.420699714399E+03    0.40484E-01   -0.37894E+00  5616   0.108E+01    0.108E+00
RMM:   2    -0.420792646525E+03   -0.92932E-01   -0.55097E-01  7200   0.205E+00    0.455E+00
RMM:   3    -0.420746783424E+03    0.45863E-01   -0.33673E-02  5600   0.527E-01    0.952E-01
RMM:   4    -0.420753592520E+03   -0.68091E-02   -0.61312E-03  5425   0.250E-01    0.426E-01
RMM:   5    -0.420752782946E+03    0.80957E-03   -0.97865E-04  5458   0.931E-02    0.199E-01
RMM:   6    -0.420752585991E+03    0.19696E-03   -0.47088E-04  5298   0.470E-02    0.128E-01
RMM:   7    -0.420752620517E+03   -0.34526E-04   -0.27853E-04  4984   0.466E-02    0.225E-01
RMM:   8    -0.420752524995E+03    0.95522E-04   -0.15685E-04  4887   0.358E-02    0.114E-01
RMM:   9    -0.420752510420E+03    0.14575E-04   -0.28867E-05  3522   0.188E-02    0.165E-02
RMM:  10    -0.420752519132E+03   -0.87115E-05   -0.71348E-06  2858   0.112E-02
  15 F= -.42075252E+03 E0= -.42074339E+03  d E =-.123140E-01  mag=    62.0000
       N       E                     dE             d eps       ncg     rms          rms(c)
DAV:   1    -0.420725291287E+03    0.27219E-01   -0.23317E+00  5648   0.890E+00    0.935E-01
RMM:   2    -0.420795085636E+03   -0.69794E-01   -0.39022E-01  7210   0.170E+00    0.423E+00
RMM:   3    -0.420757370416E+03    0.37715E-01   -0.25208E-02  5570   0.460E-01    0.795E-01
RMM:   4    -0.420763728229E+03   -0.63578E-02   -0.45797E-03  5334   0.220E-01    0.371E-01
RMM:   5    -0.420763159246E+03    0.56898E-03   -0.74923E-04  5411   0.837E-02    0.191E-01
RMM:   6    -0.420763020573E+03    0.13867E-03   -0.30523E-04  5131   0.401E-02    0.120E-01
RMM:   7    -0.420763040261E+03   -0.19688E-04   -0.18975E-04  4878   0.404E-02    0.186E-01
RMM:   8    -0.420762986687E+03    0.53574E-04   -0.11125E-04  4590   0.313E-02    0.113E-01
RMM:   9    -0.420762967183E+03    0.19504E-04   -0.23815E-05  3337   0.175E-02    0.138E-02
RMM:  10    -0.420762975715E+03   -0.85319E-05   -0.60522E-06  2801   0.105E-02
  16 F= -.42076298E+03 E0= -.42075418E+03  d E =-.104566E-01  mag=    62.0000
       N       E                     dE             d eps       ncg     rms          rms(c)
DAV:   1    -0.420723015813E+03    0.39951E-01   -0.39099E+00  5416   0.101E+01    0.118E+00
RMM:   2    -0.420830235126E+03   -0.10722E+00   -0.55345E-01  7133   0.203E+00    0.525E+00
RMM:   3    -0.420766762639E+03    0.63472E-01   -0.40341E-02  5560   0.575E-01    0.923E-01
RMM:   4    -0.420775432089E+03   -0.86695E-02   -0.65632E-03  5335   0.259E-01    0.410E-01
RMM:   5    -0.420774752464E+03    0.67963E-03   -0.10124E-03  5479   0.971E-02    0.241E-01
RMM:   6    -0.420774508282E+03    0.24418E-03   -0.51200E-04  5290   0.502E-02    0.140E-01
RMM:   7    -0.420774539113E+03   -0.30831E-04   -0.30391E-04  4923   0.506E-02    0.221E-01
RMM:   8    -0.420774468916E+03    0.70197E-04   -0.15398E-04  4842   0.363E-02    0.136E-01
RMM:   9    -0.420774438752E+03    0.30164E-04   -0.33640E-05  3680   0.196E-02    0.161E-02
RMM:  10    -0.420774451895E+03   -0.13143E-04   -0.65344E-06  2824   0.110E-02    0.175E-02
RMM:  11    -0.420774451845E+03    0.49731E-07   -0.30963E-06  2710   0.717E-03
  17 F= -.42077445E+03 E0= -.42076622E+03  d E =-.114761E-01  mag=    62.0000
       N       E                     dE             d eps       ncg     rms          rms(c)
DAV:   1    -0.420755854260E+03    0.18598E-01   -0.24527E+00  5320   0.692E+00    0.859E-01
RMM:   2    -0.420813276853E+03   -0.57423E-01   -0.28419E-01  7073   0.145E+00    0.425E+00
RMM:   3    -0.420775907420E+03    0.37369E-01   -0.22205E-02  5561   0.430E-01    0.695E-01
RMM:   4    -0.420782189797E+03   -0.62824E-02   -0.38491E-03  5288   0.201E-01    0.352E-01
RMM:   5    -0.420781789447E+03    0.40035E-03   -0.61742E-04  5324   0.779E-02    0.237E-01
RMM:   6    -0.420781606445E+03    0.18300E-03   -0.32077E-04  5012   0.408E-02    0.131E-01
RMM:   7    -0.420781617443E+03   -0.10998E-04   -0.19429E-04  4818   0.415E-02    0.159E-01
RMM:   8    -0.420781605279E+03    0.12164E-04   -0.80892E-05  4271   0.278E-02    0.123E-01
RMM:   9    -0.420781576487E+03    0.28792E-04   -0.20770E-05  3192   0.164E-02    0.160E-02
RMM:  10    -0.420781585731E+03   -0.92439E-05   -0.52853E-06  2784   0.962E-03
  18 F= -.42078159E+03 E0= -.42077390E+03  d E =-.713389E-02  mag=    62.0000
       N       E                     dE             d eps       ncg     rms          rms(c)
DAV:   1    -0.420761316991E+03    0.20259E-01   -0.34142E+00  5400   0.780E+00    0.101E+00
RMM:   2    -0.420833840029E+03   -0.72523E-01   -0.33181E-01  6988   0.161E+00    0.491E+00
RMM:   3    -0.420783237342E+03    0.50603E-01   -0.29033E-02  5564   0.498E-01    0.810E-01
RMM:   4    -0.420790947791E+03   -0.77104E-02   -0.48534E-03  5341   0.226E-01    0.414E-01
RMM:   5    -0.420790464375E+03    0.48342E-03   -0.77549E-04  5349   0.878E-02    0.302E-01
RMM:   6    -0.420790198901E+03    0.26547E-03   -0.44091E-04  5212   0.463E-02    0.156E-01
RMM:   7    -0.420790213205E+03   -0.14303E-04   -0.26216E-04  4915   0.475E-02    0.169E-01
RMM:   8    -0.420790215182E+03   -0.19776E-05   -0.94870E-05  4310   0.309E-02
  19 F= -.42079022E+03 E0= -.42078301E+03  d E =-.862945E-02  mag=    62.0000
       N       E                     dE             d eps       ncg     rms          rms(c)
DAV:   1    -0.420772753475E+03    0.17460E-01   -0.20951E+00  5352   0.724E+00    0.798E-01
RMM:   2    -0.420816533889E+03   -0.43780E-01   -0.25792E-01  7265   0.142E+00    0.340E+00
RMM:   3    -0.420794628063E+03    0.21906E-01   -0.17563E-02  5567   0.390E-01    0.746E-01
RMM:   4    -0.420798200255E+03   -0.35722E-02   -0.29946E-03  5386   0.183E-01    0.337E-01
RMM:   5    -0.420797891686E+03    0.30857E-03   -0.43175E-04  5336   0.673E-02    0.260E-01
RMM:   6    -0.420797720727E+03    0.17096E-03   -0.25682E-04  5264   0.360E-02    0.142E-01
RMM:   7    -0.420797718076E+03    0.26505E-05   -0.18415E-04  4960   0.384E-02    0.125E-01
RMM:   8    -0.420797724299E+03   -0.62228E-05   -0.74373E-05  4264   0.273E-02
  20 F= -.42079772E+03 E0= -.42079134E+03  d E =-.750912E-02  mag=    62.0000
       N       E                     dE             d eps       ncg     rms          rms(c)
DAV:   1    -0.420771444094E+03    0.26274E-01   -0.22135E+00  5424   0.819E+00    0.846E-01
RMM:   2    -0.420819854360E+03   -0.48410E-01   -0.33780E-01  7266   0.157E+00    0.301E+00
RMM:   3    -0.420803731896E+03    0.16122E-01   -0.19788E-02  5604   0.408E-01    0.824E-01
RMM:   4    -0.420805843864E+03   -0.21120E-02   -0.31869E-03  5410   0.189E-01    0.329E-01
RMM:   5    -0.420805570915E+03    0.27295E-03   -0.44095E-04  5445   0.671E-02    0.263E-01
RMM:   6    -0.420805387174E+03    0.18374E-03   -0.26358E-04  5447   0.367E-02    0.141E-01
RMM:   7    -0.420805372327E+03    0.14847E-04   -0.22041E-04  5017   0.418E-02    0.112E-01
RMM:   8    -0.420805384611E+03   -0.12284E-04   -0.69318E-05  4202   0.268E-02    0.101E-01
RMM:   9    -0.420805360383E+03    0.24228E-04   -0.19050E-05  3230   0.153E-02    0.346E-02
RMM:  10    -0.420805361644E+03   -0.12606E-05   -0.61425E-06  2842   0.100E-02
  21 F= -.42080536E+03 E0= -.42080011E+03  d E =-.763734E-02  mag=    61.9999
       N       E                     dE             d eps       ncg     rms          rms(c)
DAV:   1    -0.420796595662E+03    0.87647E-02   -0.91525E-01  5640   0.540E+00    0.544E-01
RMM:   2    -0.420815528615E+03   -0.18933E-01   -0.13324E-01  7220   0.994E-01    0.178E+00
RMM:   3    -0.420809270269E+03    0.62583E-02   -0.72913E-03  5632   0.250E-01    0.502E-01
RMM:   4    -0.420809961655E+03   -0.69139E-03   -0.12318E-03  5434   0.116E-01    0.169E-01
RMM:   5    -0.420809879165E+03    0.82490E-04   -0.16427E-04  4928   0.399E-02    0.134E-01
RMM:   6    -0.420809815542E+03    0.63623E-04   -0.10306E-04  4599   0.234E-02    0.690E-02
RMM:   7    -0.420809811278E+03    0.42640E-05   -0.79050E-05  4305   0.262E-02
  22 F= -.42080981E+03 E0= -.42080495E+03  d E =-.444963E-02  mag=    61.9999
       N       E                     dE             d eps       ncg     rms          rms(c)
DAV:   1    -0.420785174558E+03    0.24641E-01   -0.22215E+00  5624   0.815E+00    0.776E-01
RMM:   2    -0.420823232547E+03   -0.38058E-01   -0.30266E-01  7231   0.153E+00    0.204E+00
RMM:   3    -0.420816222770E+03    0.70098E-02   -0.15325E-02  5663   0.362E-01    0.757E-01
RMM:   4    -0.420816124770E+03    0.98000E-04   -0.24926E-03  5590   0.159E-01    0.257E-01
RMM:   5    -0.420815960337E+03    0.16443E-03   -0.33056E-04  5504   0.534E-02    0.206E-01
RMM:   6    -0.420815809954E+03    0.15038E-03   -0.26117E-04  5272   0.358E-02    0.101E-01
RMM:   7    -0.420815799075E+03    0.10879E-04   -0.20090E-04  4967   0.393E-02    0.884E-02
RMM:   8    -0.420815789429E+03    0.96461E-05   -0.52203E-05  4089   0.221E-02
  23 F= -.42081579E+03 E0= -.42081183E+03  d E =-.597815E-02  mag=    61.9997
       N       E                     dE             d eps       ncg     rms          rms(c)
DAV:   1    -0.420807317397E+03    0.84817E-02   -0.51358E-01  5768   0.476E+00    0.420E-01
RMM:   2    -0.420820146330E+03   -0.12829E-01   -0.11165E-01  7267   0.871E-01    0.813E-01
RMM:   3    -0.420819383746E+03    0.76258E-03   -0.52282E-03  5700   0.208E-01    0.434E-01
RMM:   4    -0.420819038920E+03    0.34483E-03   -0.70184E-04  5504   0.837E-02    0.100E-01
RMM:   5    -0.420819032370E+03    0.65502E-05   -0.85501E-05  4445   0.269E-02
  24 F= -.42081903E+03 E0= -.42081578E+03  d E =-.324294E-02  mag=    61.9996
       N       E                     dE             d eps       ncg     rms          rms(c)
DAV:   1    -0.420778155806E+03    0.40883E-01   -0.21217E+00  5648   0.953E+00    0.819E-01
RMM:   2    -0.420827317559E+03   -0.49162E-01   -0.43968E-01  7221   0.174E+00    0.143E+00
RMM:   3    -0.420825679462E+03    0.16381E-02   -0.20237E-02  5805   0.405E-01    0.769E-01
RMM:   4    -0.420824215307E+03    0.14642E-02   -0.25337E-03  5646   0.154E-01    0.228E-01
RMM:   5    -0.420824107288E+03    0.10802E-03   -0.39156E-04  5635   0.524E-02    0.177E-01
RMM:   6    -0.420823964803E+03    0.14248E-03   -0.32367E-04  5276   0.429E-02    0.958E-02
RMM:   7    -0.420823958261E+03    0.65428E-05   -0.20878E-04  5093   0.414E-02    0.862E-02
RMM:   8    -0.420823933667E+03    0.24593E-04   -0.53766E-05  4079   0.222E-02    0.267E-02
RMM:   9    -0.420823932547E+03    0.11207E-05   -0.83435E-06  2906   0.114E-02
  25 F= -.42082393E+03 E0= -.42082134E+03  d E =-.490018E-02  mag=    61.9990
       N       E                     dE             d eps       ncg     rms          rms(c)
DAV:   1    -0.420818548324E+03    0.53853E-02   -0.21113E-01  6008   0.360E+00    0.285E-01
RMM:   2    -0.420824917656E+03   -0.63693E-02   -0.60657E-02  7202   0.622E-01    0.253E-01
RMM:   3    -0.420825336425E+03   -0.41877E-03   -0.27906E-03  5880   0.151E-01    0.288E-01
RMM:   4    -0.420825047244E+03    0.28918E-03   -0.32111E-04  5219   0.516E-02    0.474E-02
RMM:   5    -0.420825054428E+03   -0.71844E-05   -0.42100E-05  3809   0.176E-02
  26 F= -.42082505E+03 E0= -.42082264E+03  d E =-.112188E-02  mag=    61.9989
       N       E                     dE             d eps       ncg     rms          rms(c)
DAV:   1    -0.420773457657E+03    0.51590E-01   -0.17049E+00  5752   0.101E+01    0.776E-01
RMM:   2    -0.420825756724E+03   -0.52299E-01   -0.50093E-01  7218   0.176E+00    0.615E-01
RMM:   3    -0.420828839031E+03   -0.30823E-02   -0.22357E-02  6023   0.422E-01    0.656E-01
RMM:   4    -0.420827107040E+03    0.17320E-02   -0.23914E-03  5699   0.131E-01    0.140E-01
RMM:   5    -0.420827095154E+03    0.11886E-04   -0.39067E-04  5658   0.441E-02    0.109E-01
RMM:   6    -0.420827045633E+03    0.49520E-04   -0.24796E-04  5261   0.400E-02    0.989E-02
RMM:   7    -0.420827003386E+03    0.42247E-04   -0.13885E-04  4920   0.339E-02    0.435E-02
RMM:   8    -0.420826995155E+03    0.82314E-05   -0.22885E-05  3281   0.156E-02
  27 F= -.42082700E+03 E0= -.42082497E+03  d E =-.194073E-02  mag=    61.9983
       N       E                     dE             d eps       ncg     rms          rms(c)
DAV:   1    -0.420822851986E+03    0.41514E-02   -0.13956E-01  6080   0.308E+00    0.235E-01
RMM:   2    -0.420827426575E+03   -0.45746E-02   -0.44009E-02  7205   0.534E-01    0.141E-01
RMM:   3    -0.420827725411E+03   -0.29884E-03   -0.20054E-03  5970   0.126E-01    0.170E-01
RMM:   4    -0.420827615737E+03    0.10967E-03   -0.17558E-04  4778   0.362E-02    0.364E-02
RMM:   5    -0.420827614141E+03    0.15962E-05   -0.22808E-05  3334   0.147E-02
  28 F= -.42082761E+03 E0= -.42082564E+03  d E =-.618986E-03  mag=    61.9982
       N       E                     dE             d eps       ncg     rms          rms(c)
DAV:   1    -0.420776161460E+03    0.51454E-01   -0.17334E+00  5920   0.103E+01    0.795E-01
RMM:   2    -0.420826521888E+03   -0.50360E-01   -0.48337E-01  7212   0.177E+00    0.456E-01
RMM:   3    -0.420829677399E+03   -0.31555E-02   -0.21711E-02  6205   0.411E-01    0.455E-01
RMM:   4    -0.420828873591E+03    0.80381E-03   -0.18555E-03  5787   0.108E-01    0.126E-01
RMM:   5    -0.420828809936E+03    0.63655E-04   -0.29270E-04  5400   0.402E-02    0.927E-02
RMM:   6    -0.420828782727E+03    0.27209E-04   -0.20704E-04  5271   0.363E-02    0.979E-02
RMM:   7    -0.420828728281E+03    0.54446E-04   -0.13807E-04  4924   0.326E-02    0.249E-02
RMM:   8    -0.420828727648E+03    0.63283E-06   -0.13248E-05  3062   0.126E-02
  29 F= -.42082873E+03 E0= -.42082687E+03  d E =-.111351E-02  mag=    61.9977
       N       E                     dE             d eps       ncg     rms          rms(c)
DAV:   1    -0.420827282937E+03    0.14453E-02   -0.60712E-02  5768   0.152E+00    0.124E-01
RMM:   2    -0.420828469951E+03   -0.11870E-02   -0.11314E-02  7246   0.279E-01    0.971E-02
RMM:   3    -0.420828534535E+03   -0.64584E-04   -0.43058E-04  5411   0.581E-02    0.111E-01
RMM:   4    -0.420828488670E+03    0.45865E-04   -0.52408E-05  3714   0.244E-02    0.205E-02
RMM:   5    -0.420828489522E+03   -0.85120E-06   -0.10090E-05  2851   0.114E-02
  30 F= -.42082849E+03 E0= -.42082653E+03  d E =0.238126E-03  mag=    61.9978
       N       E                     dE             d eps       ncg     rms          rms(c)
DAV:   1    -0.420796318413E+03    0.32170E-01   -0.24499E+00  5312   0.733E+00    0.697E-01
RMM:   2    -0.420827593027E+03   -0.31275E-01   -0.27044E-01  7153   0.145E+00    0.112E+00
RMM:   3    -0.420823901171E+03    0.36919E-02   -0.12447E-02  5675   0.313E-01    0.543E-01
RMM:   4    -0.420823169062E+03    0.73211E-03   -0.15087E-03  5660   0.119E-01    0.129E-01
RMM:   5    -0.420823109205E+03    0.59857E-04   -0.29323E-04  5340   0.445E-02    0.107E-01
RMM:   6    -0.420823006964E+03    0.10224E-03   -0.28974E-04  5127   0.366E-02    0.889E-02
RMM:   7    -0.420822969416E+03    0.37548E-04   -0.12940E-04  4771   0.312E-02    0.202E-02
RMM:   8    -0.420822971225E+03   -0.18096E-05   -0.13170E-05  2906   0.127E-02
  31 F= -.42082297E+03 E0= -.42082028E+03  d E =0.551830E-02  mag=    61.9987
       N       E                     dE             d eps       ncg     rms          rms(c)
DAV:   1    -0.420819126488E+03    0.38429E-02   -0.34911E-01  5472   0.333E+00    0.280E-01
RMM:   2    -0.420825335839E+03   -0.62094E-02   -0.57125E-02  7259   0.645E-01    0.408E-01
RMM:   3    -0.420825218519E+03    0.11732E-03   -0.23064E-03  5773   0.131E-01    0.267E-01
RMM:   4    -0.420825007495E+03    0.21102E-03   -0.32239E-04  5324   0.551E-02    0.566E-02
RMM:   5    -0.420825003214E+03    0.42808E-05   -0.40595E-05  3640   0.191E-02
  32 F= -.42082500E+03 E0= -.42082262E+03  d E =-.203199E-02  mag=    61.9984
       N       E                     dE             d eps       ncg     rms          rms(c)
DAV:   1    -0.420598584248E+03    0.22642E+00   -0.18564E+01  5328   0.216E+01    0.171E+00
RMM:   2    -0.420843192222E+03   -0.24461E+00   -0.23457E+00  7236   0.425E+00    0.171E+00
RMM:   3    -0.420846747040E+03   -0.35548E-02   -0.87223E-02  5957   0.785E-01    0.126E+00
RMM:   4    -0.420837952396E+03    0.87946E-02   -0.10687E-02  5776   0.300E-01    0.407E-01
RMM:   5    -0.420837128623E+03    0.82377E-03   -0.20821E-03  5879   0.106E-01    0.276E-01
RMM:   6    -0.420836539257E+03    0.58937E-03   -0.23641E-03  5495   0.114E-01    0.185E-01
RMM:   7    -0.420836487518E+03    0.51739E-04   -0.65955E-04  5471   0.736E-02    0.125E-01
RMM:   8    -0.420836412406E+03    0.75112E-04   -0.17494E-04  5068   0.357E-02    0.399E-02
RMM:   9    -0.420836407561E+03    0.48445E-05   -0.22089E-05  3363   0.163E-02
  33 F= -.42083641E+03 E0= -.42083544E+03  d E =-.114043E-01  mag=    61.9938
       N       E                     dE             d eps       ncg     rms          rms(c)
DAV:   1    -0.420693960596E+03    0.14245E+00   -0.10252E+01  5272   0.159E+01    0.136E+00
RMM:   2    -0.420835265434E+03   -0.14130E+00   -0.13243E+00  7249   0.318E+00    0.147E+00
RMM:   3    -0.420833199826E+03    0.20656E-02   -0.51606E-02  5880   0.606E-01    0.120E+00
RMM:   4    -0.420828812012E+03    0.43878E-02   -0.63056E-03  5745   0.233E-01    0.288E-01
RMM:   5    -0.420828695578E+03    0.11643E-03   -0.12021E-03  5778   0.876E-02    0.207E-01
RMM:   6    -0.420828345484E+03    0.35009E-03   -0.96438E-04  5615   0.688E-02    0.186E-01
RMM:   7    -0.420828194057E+03    0.15143E-03   -0.61442E-04  5450   0.630E-02    0.104E-01
RMM:   8    -0.420828154655E+03    0.39402E-04   -0.10319E-04  4605   0.299E-02    0.330E-02
RMM:   9    -0.420828157218E+03   -0.25626E-05   -0.12798E-05  3122   0.124E-02
  34 F= -.42082816E+03 E0= -.42082603E+03  d E =0.825034E-02  mag=    61.9980
       N       E                     dE             d eps       ncg     rms          rms(c)
DAV:   1    -0.420813307574E+03    0.14847E-01   -0.91286E-01  5384   0.468E+00    0.458E-01
RMM:   2    -0.420826541062E+03   -0.13233E-01   -0.11352E-01  7165   0.926E-01    0.769E-01
RMM:   3    -0.420824983592E+03    0.15575E-02   -0.56952E-03  5649   0.214E-01    0.374E-01
RMM:   4    -0.420824665844E+03    0.31775E-03   -0.72493E-04  5649   0.794E-02    0.789E-02
RMM:   5    -0.420824653484E+03    0.12360E-04   -0.10826E-04  4576   0.285E-02    0.687E-02
RMM:   6    -0.420824619379E+03    0.34105E-04   -0.87355E-05  4446   0.219E-02    0.540E-02
RMM:   7    -0.420824607063E+03    0.12316E-04   -0.48872E-05  4134   0.213E-02    0.858E-03
RMM:   8    -0.420824609297E+03   -0.22341E-05   -0.66441E-06  2757   0.866E-03
  35 F= -.42082461E+03 E0= -.42082197E+03  d E =0.354792E-02  mag=    61.9988
       N       E                     dE             d eps       ncg     rms          rms(c)
DAV:   1    -0.420783718564E+03    0.40888E-01   -0.23088E+00  5448   0.816E+00    0.846E-01
RMM:   2    -0.420827471709E+03   -0.43753E-01   -0.35176E-01  7199   0.158E+00    0.156E+00
RMM:   3    -0.420819453998E+03    0.80177E-02   -0.18844E-02  5604   0.390E-01    0.618E-01
RMM:   4    -0.420819016042E+03    0.43796E-03   -0.23699E-03  5785   0.143E-01    0.161E-01
RMM:   5    -0.420818942846E+03    0.73196E-04   -0.37795E-04  5561   0.505E-02    0.113E-01
RMM:   6    -0.420818862909E+03    0.79937E-04   -0.23595E-04  5304   0.350E-02    0.107E-01
RMM:   7    -0.420818809264E+03    0.53645E-04   -0.14065E-04  4838   0.321E-02    0.228E-02
RMM:   8    -0.420818813231E+03   -0.39669E-05   -0.18639E-05  3087   0.153E-02
  36 F= -.42081881E+03 E0= -.42081532E+03  d E =0.579607E-02  mag=    61.9996
       N       E                     dE             d eps       ncg     rms          rms(c)
DAV:   1    -0.420817293680E+03    0.15156E-02   -0.86952E-02  5448   0.166E+00    0.123E-01
RMM:   2    -0.420818743459E+03   -0.14498E-02   -0.14126E-02  7332   0.316E-01    0.584E-02
RMM:   3    -0.420818785891E+03   -0.42432E-04   -0.39736E-04  5617   0.486E-02    0.522E-02
RMM:   4    -0.420818777768E+03    0.81227E-05   -0.33597E-05  3466   0.171E-02
  37 F= -.42081878E+03 E0= -.42081530E+03  d E =0.354635E-04  mag=    61.9996
       N       E                     dE             d eps       ncg     rms          rms(c)
DAV:   1    -0.420651646780E+03    0.16714E+00   -0.11333E+01  5344   0.179E+01    0.232E+00
RMM:   2    -0.420917740677E+03   -0.26609E+00   -0.16608E+00  7140   0.346E+00    0.463E+00
RMM:   3    -0.420801650946E+03    0.11609E+00   -0.12251E-01  5529   0.101E+00    0.682E-01
RMM:   4    -0.420804403622E+03   -0.27527E-02   -0.17676E-02  6296   0.331E-01    0.528E-01
RMM:   5    -0.420803177429E+03    0.12262E-02   -0.28233E-03  6297   0.127E-01    0.282E-01
RMM:   6    -0.420802863377E+03    0.31405E-03   -0.93056E-04  5582   0.777E-02    0.242E-01
RMM:   7    -0.420802714742E+03    0.14863E-03   -0.77687E-04  5572   0.709E-02    0.269E-01
RMM:   8    -0.420802497085E+03    0.21766E-03   -0.60913E-04  5474   0.548E-02    0.787E-02
RMM:   9    -0.420802507328E+03   -0.10243E-04   -0.60827E-05  4249   0.250E-02    0.779E-02
RMM:  10    -0.420802499970E+03    0.73574E-05   -0.16672E-05  3154   0.148E-02
  38 F= -.42080250E+03 E0= -.42079669E+03  d E =0.162778E-01  mag=    62.0000
       N       E                     dE             d eps       ncg     rms          rms(c)
DAV:   1    -0.420745999438E+03    0.56508E-01   -0.51861E+00  5272   0.119E+01    0.123E+00
RMM:   2    -0.420849866312E+03   -0.10387E+00   -0.69545E-01  7229   0.227E+00    0.459E+00
RMM:   3    -0.420809910855E+03    0.39955E-01   -0.42696E-02  5614   0.605E-01    0.108E+00
RMM:   4    -0.420814698552E+03   -0.47877E-02   -0.64215E-03  5537   0.264E-01    0.524E-01
RMM:   5    -0.420814096822E+03    0.60173E-03   -0.92478E-04  5610   0.943E-02    0.438E-01
RMM:   6    -0.420813499284E+03    0.59754E-03   -0.63738E-04  5659   0.577E-02    0.214E-01
RMM:   7    -0.420813476794E+03    0.22490E-04   -0.50352E-04  5228   0.644E-02    0.171E-01
RMM:   8    -0.420813469536E+03    0.72575E-05   -0.15436E-04  4781   0.390E-02    0.834E-02
RMM:   9    -0.420813450069E+03    0.19468E-04   -0.22770E-05  3349   0.175E-02    0.186E-02
RMM:  10    -0.420813455593E+03   -0.55242E-05   -0.65220E-06  2834   0.951E-03
  39 F= -.42081346E+03 E0= -.42080914E+03  d E =-.109556E-01  mag=    61.9999
