       N       E                     dE             d eps       ncg     rms          ort
DAV:   1     0.112988972550E+05    0.11299E+05   -0.46656E+05  8540   0.170E+03
DAV:   2     0.805982700414E+02   -0.11218E+05   -0.10210E+05  8540   0.487E+02
DAV:   3    -0.154292649747E+04   -0.16235E+04   -0.15386E+04  8540   0.197E+02
DAV:   4    -0.162596415205E+04   -0.83038E+02   -0.81904E+02  8540   0.454E+01
DAV:   5    -0.162700644913E+04   -0.10423E+01   -0.10394E+01  8540   0.554E+00
SDA:   6    -0.790232652679E+03    0.83677E+03   -0.10394E+01  8540   0.286E+04 0.000E+00
CGA:   7    -0.117895854597E+04   -0.38873E+03   -0.38790E+03  8540   0.809E+03-0.469E+02
CGA:   8    -0.122701653589E+04   -0.48058E+02   -0.77448E+02  8540   0.176E+03 0.275E+01
CGA:   9    -0.125405944018E+04   -0.27043E+02   -0.18334E+02  8540   0.611E+02 0.855E+02
CGA:  10    -0.125675104366E+04   -0.26916E+01   -0.60683E+01  8540   0.234E+03-0.741E+02
CGA:  11    -0.126457324754E+04   -0.78222E+01   -0.22600E+02  8540   0.470E+02-0.688E+01
CGA:  12    -0.127144194506E+04   -0.68687E+01   -0.36994E+01  8540   0.297E+02 0.461E+02
CGA:  13    -0.127385613370E+04   -0.24142E+01   -0.15847E+01  8540   0.269E+02-0.147E+02
CGA:  14    -0.127358878976E+04    0.26734E+00   -0.86959E+00  8540   0.153E+03-0.124E+02
CGA:  15    -0.127709560922E+04   -0.35068E+01   -0.31815E+01  8540   0.119E+03 0.824E+01
CGA:  16    -0.128205314936E+04   -0.49575E+01   -0.58249E+01  8540   0.938E+01-0.383E+02
CGA:  17    -0.128225117220E+04   -0.19802E+00   -0.37843E+00  8540   0.674E+01-0.243E+01
CGA:  18    -0.128305961325E+04   -0.80844E+00   -0.80657E+00  8540   0.380E+01 0.939E-01
CGA:  19    -0.128348441920E+04   -0.42481E+00   -0.42819E+00  8540   0.403E+01 0.391E-01
CGA:  20    -0.128407799161E+04   -0.59357E+00   -0.59322E+00  8540   0.104E+01 0.906E-01
CGA:  21    -0.128425206420E+04   -0.17407E+00   -0.17303E+00  8540   0.129E+01 0.166E-01
CGA:  22    -0.128439557071E+04   -0.14351E+00   -0.14054E+00  8540   0.243E+00-0.193E-01
CGA:  23    -0.128445750593E+04   -0.61935E-01   -0.61060E-01  8540   0.209E+00 0.776E-02
CGA:  24    -0.128447512706E+04   -0.17621E-01   -0.18042E-01  8540   0.745E-01-0.734E-02
CGA:  25    -0.128448833177E+04   -0.13205E-01   -0.13255E-01  8540   0.444E-01-0.412E-03
CGA:  26    -0.128449406832E+04   -0.57365E-02   -0.56717E-02  8540   0.294E-01-0.412E-02
CGA:  27    -0.128449922941E+04   -0.51611E-02   -0.53332E-02  8540   0.111E-01-0.313E-02
CGA:  28    -0.128450161822E+04   -0.23888E-02   -0.24773E-02  8540   0.938E-02-0.888E-03
CGA:  29    -0.128450237859E+04   -0.76037E-03   -0.77221E-03  8540   0.352E-02 0.395E-03
CGA:  30    -0.128449479956E+04    0.75790E-02   -0.40951E-02  8540   0.984E-01-0.137E-01
CGA:  31    -0.128450021818E+04   -0.54186E-02   -0.49268E-02  8540   0.158E-01 0.167E-01
CGA:  32    -0.128450266463E+04   -0.24465E-02   -0.25385E-02  8540   0.168E-01 0.763E-03
CGA:  33    -0.128450404233E+04   -0.13777E-02   -0.14534E-02  8540   0.642E-02-0.101E-03
CGA:  34    -0.128450445015E+04   -0.40781E-03   -0.56060E-03  8540   0.385E-02 0.106E-02
CGA:  35    -0.128450465282E+04   -0.20267E-03   -0.34256E-03  8540   0.112E-02 0.897E-03
CGA:  36    -0.128450473917E+04   -0.86351E-04   -0.10246E-03  8540   0.552E-03 0.863E-04
CGA:  37    -0.128450480430E+04   -0.65130E-04   -0.77951E-04  8540   0.318E-03 0.137E-03
CGA:  38    -0.128450482671E+04   -0.22405E-04   -0.29790E-04  8540   0.172E-03 0.527E-04
CGA:  39    -0.128450498170E+04   -0.15500E-03    0.26027E-04  8540   0.112E-03-0.200E-04
CGA:  40    -0.128450510868E+04   -0.12698E-03    0.52617E-05  8540   0.457E-03-0.155E-03
CGA:  41    -0.128450509915E+04    0.95298E-05   -0.16440E-04  8540   0.712E-04 0.151E-03
   1 F= -.12845051E+04 E0= -.12844972E+04  d E =-.128451E+04  mag=   126.0000
       N       E                     dE             d eps       ncg     rms          ort
SDA:   1    -0.128451161445E+04   -0.65058E-02    0.00000E+00  8540   0.128E-01 0.000E+00
CGA:   2    -0.128451263059E+04   -0.10161E-02   -0.10962E-02  8540   0.817E-02 0.991E-03
CGA:   3    -0.128451421093E+04   -0.15803E-02   -0.15671E-02  8540   0.421E-02-0.116E-02
CGA:   4    -0.128451453761E+04   -0.32668E-03   -0.36206E-03  8540   0.164E-02 0.421E-03
CGA:   5    -0.128451477238E+04   -0.23476E-03   -0.22764E-03  8540   0.393E-03-0.125E-03
CGA:   6    -0.128451479966E+04   -0.27282E-04   -0.36366E-04  8540   0.147E-03 0.112E-03
CGA:   7    -0.128451481220E+04   -0.12538E-04   -0.68780E-04  8540   0.697E-03-0.300E-03
CGA:   8    -0.128451481870E+04   -0.65021E-05   -0.34624E-04  8540   0.173E-03 0.209E-03
CGA:   9    -0.128451483127E+04   -0.12569E-04   -0.18841E-04  8540   0.707E-04 0.652E-04
CGA:  10    -0.128451470726E+04    0.12400E-03   -0.47193E-04  8540   0.348E-02-0.553E-03
CGA:  11    -0.128451479502E+04   -0.87756E-04   -0.15016E-03  8540   0.301E-03 0.481E-03
CGA:  12    -0.128451482793E+04   -0.32910E-04   -0.36438E-04  8540   0.219E-03 0.462E-04
CGA:  13    -0.128451485822E+04   -0.30285E-04   -0.56994E-04  8540   0.127E-02-0.578E-03
CGA:  14    -0.128451486401E+04   -0.57987E-05   -0.50097E-04  8540   0.173E-03 0.327E-03
   2 F= -.12845149E+04 E0= -.12845071E+04  d E =-.976486E-02  mag=   126.0000
       N       E                     dE             d eps       ncg     rms          ort
SDA:   1    -0.128282865157E+04    0.16862E+01    0.00000E+00  8540   0.616E+01 0.000E+00
CGA:   2    -0.128359411300E+04   -0.76546E+00   -0.68935E+00  8540   0.581E+01-0.614E-01
CGA:   3    -0.128434522840E+04   -0.75112E+00   -0.75988E+00  8540   0.160E+01 0.513E-01
CGA:   4    -0.128462724522E+04   -0.28202E+00   -0.28171E+00  8540   0.639E+00 0.117E-01
CGA:   5    -0.128467906316E+04   -0.51818E-01   -0.46197E-01  8540   0.174E+00 0.660E-01
CGA:   6    -0.128471329282E+04   -0.34230E-01   -0.34242E-01  8540   0.686E-01-0.675E-03
CGA:   7    -0.128471910100E+04   -0.58082E-02   -0.57324E-02  8540   0.340E-01-0.600E-02
CGA:   8    -0.128472433994E+04   -0.52389E-02   -0.52414E-02  8540   0.103E-01-0.144E-03
CGA:   9    -0.128472559772E+04   -0.12578E-02   -0.12630E-02  8540   0.762E-02 0.306E-03
CGA:  10    -0.128472705304E+04   -0.14553E-02   -0.15528E-02  8540   0.564E-02-0.232E-02
CGA:  11    -0.128472730932E+04   -0.25628E-03   -0.27608E-03  8540   0.220E-02 0.295E-03
CGA:  12    -0.128472763001E+04   -0.32070E-03   -0.32227E-03  8540   0.327E-02 0.120E-03
CGA:  13    -0.128472816549E+04   -0.53547E-03   -0.55287E-03  8540   0.186E-02-0.221E-02
CGA:  14    -0.128472842004E+04   -0.25455E-03   -0.25778E-03  8540   0.927E-03 0.231E-03
CGA:  15    -0.128472849948E+04   -0.79440E-04   -0.31386E-03  8540   0.445E-02-0.157E-02
CGA:  16    -0.128472867562E+04   -0.17614E-03   -0.23804E-03  8540   0.504E-03 0.759E-03
CGA:  17    -0.128472877039E+04   -0.94770E-04   -0.95357E-04  8540   0.612E-03-0.768E-04
CGA:  18    -0.128472686721E+04    0.19032E-02   -0.35516E-03  8540   0.235E-01-0.423E-02
CGA:  19    -0.128472823864E+04   -0.13714E-02   -0.15112E-02  8540   0.443E-02 0.293E-02
CGA:  20    -0.128472909222E+04   -0.85358E-03   -0.85427E-03  8540   0.134E-02 0.182E-03
CGA:  21    -0.128472928687E+04   -0.19465E-03   -0.15475E-03  8540   0.852E-03-0.646E-03
CGA:  22    -0.128472931009E+04   -0.23221E-04   -0.31841E-04  8540   0.325E-03 0.912E-04
CGA:  23    -0.128472931308E+04   -0.29949E-05   -0.14357E-04  8540   0.778E-04 0.953E-04
   3 F= -.12847293E+04 E0= -.12847245E+04  d E =-.214449E+00  mag=   126.0000
       N       E                     dE             d eps       ncg     rms          ort
SDA:   1    -0.125317212422E+04    0.31557E+02    0.00000E+00  8540   0.839E+02 0.000E+00
CGA:   2    -0.127580267276E+04   -0.22631E+02   -0.22802E+02  8540   0.365E+02-0.167E+01
CGA:   3    -0.128312748450E+04   -0.73248E+01   -0.72896E+01  8540   0.754E+01 0.575E+00
CGA:   4    -0.128471520153E+04   -0.15877E+01   -0.15860E+01  8540   0.140E+01 0.350E-01
CGA:   5    -0.128503844673E+04   -0.32325E+00   -0.32318E+00  8540   0.340E+00 0.536E-03
CGA:   6    -0.128513115282E+04   -0.92706E-01   -0.93322E-01  8540   0.128E+00-0.622E-02
CGA:   7    -0.128516851572E+04   -0.37363E-01   -0.38028E-01  8540   0.465E-01-0.547E-02
CGA:   8    -0.128518368919E+04   -0.15173E-01   -0.15708E-01  8540   0.195E-01-0.317E-02
CGA:   9    -0.128518995387E+04   -0.62647E-02   -0.69424E-02  8540   0.880E-02-0.357E-02
CGA:  10    -0.128518587678E+04    0.40771E-02   -0.69313E-02  8540   0.457E-01-0.144E-01
CGA:  11    -0.128519425742E+04   -0.83806E-02   -0.85268E-02  8540   0.508E-02 0.288E-02
CGA:  12    -0.128519629003E+04   -0.20326E-02   -0.22801E-02  8540   0.331E-02-0.133E-02
CGA:  13    -0.128519696980E+04   -0.67977E-03   -0.68492E-03  8540   0.124E-02-0.148E-03
CGA:  14    -0.128519689647E+04    0.73337E-04   -0.99067E-03  8540   0.349E-02-0.180E-02
CGA:  15    -0.128519791622E+04   -0.10198E-02   -0.10226E-02  8540   0.394E-03-0.165E-03
CGA:  16    -0.128519797956E+04   -0.63335E-04   -0.70878E-04  8540   0.936E-04 0.859E-04
CGA:  17    -0.128519806437E+04   -0.84815E-04    0.42655E-04  8540   0.434E-04 0.347E-04
CGA:  18    -0.128519814696E+04   -0.82590E-04    0.52291E-05  8540   0.229E-04 0.138E-04
CGA:  19    -0.128519820252E+04   -0.55558E-04    0.17283E-05  8540   0.839E-05 0.919E-05
CGA:  20    -0.128519824870E+04   -0.46181E-04    0.25842E-06  8540   0.551E-05 0.374E-05
CGA:  21    -0.128519830223E+04   -0.53523E-04    0.95786E-07  8540   0.336E-05 0.345E-05
CGA:  22    -0.128519830919E+04   -0.69671E-05    0.16320E-06  8540   0.163E-05 0.160E-05
   4 F= -.12851983E+04 E0= -.12851983E+04  d E =-.468996E+00  mag=   126.0000
       N       E                     dE             d eps       ncg     rms          ort
SDA:   1    -0.128251328721E+04    0.26850E+01    0.00000E+00  8540   0.762E+01 0.000E+00
CGA:   2    -0.128443264714E+04   -0.19194E+01   -0.19190E+01  8540   0.334E+01-0.551E-02
CGA:   3    -0.128513919083E+04   -0.70654E+00   -0.70642E+00  8540   0.716E+00-0.228E-02
CGA:   4    -0.128528841904E+04   -0.14923E+00   -0.14929E+00  8540   0.126E+00 0.440E-03
CGA:   5    -0.128531553422E+04   -0.27115E-01   -0.27102E-01  8540   0.290E-01-0.327E-03
CGA:   6    -0.128532313188E+04   -0.75977E-02   -0.75973E-02  8540   0.891E-02-0.145E-02
CGA:   7    -0.128532556556E+04   -0.24337E-02   -0.24478E-02  8540   0.305E-02-0.543E-03
CGA:   8    -0.128532652118E+04   -0.95562E-03   -0.98585E-03  8540   0.129E-02-0.381E-03
CGA:   9    -0.128532689531E+04   -0.37413E-03   -0.64360E-03  8540   0.168E-02-0.897E-03
CGA:  10    -0.128532729529E+04   -0.39998E-03   -0.39042E-03  8540   0.299E-03-0.189E-03
CGA:  11    -0.128532593655E+04    0.13587E-02   -0.73227E-03  8540   0.822E-02-0.121E-02
CGA:  12    -0.128532759204E+04   -0.16555E-02   -0.16485E-02  8540   0.654E-03-0.240E-04
CGA:  13    -0.128532776410E+04   -0.17206E-03   -0.18705E-03  8540   0.951E-04 0.713E-04
CGA:  14    -0.128532494601E+04    0.28181E-02   -0.15429E-02  8540   0.167E-01-0.118E-02
CGA:  15    -0.128532729920E+04   -0.23532E-02   -0.27006E-02  8540   0.157E-02 0.667E-03
CGA:  16    -0.128532792867E+04   -0.62947E-03   -0.56127E-03  8540   0.357E-03-0.135E-03
CGA:  17    -0.128532800760E+04   -0.78924E-04   -0.96631E-04  8540   0.381E-04 0.335E-04
CGA:  18    -0.128532800920E+04   -0.16050E-05   -0.93628E-05  8540   0.109E-04 0.135E-04
   5 F= -.12853280E+04 E0= -.12853280E+04  d E =-.129700E+00  mag=   126.0000
       N       E                     dE             d eps       ncg     rms          ort
SDA:   1    -0.127867738744E+04    0.66506E+01    0.00000E+00  8540   0.173E+02 0.000E+00
CGA:   2    -0.128361647334E+04   -0.49391E+01   -0.49182E+01  8540   0.697E+01 0.127E+00
CGA:   3    -0.128502577003E+04   -0.14093E+01   -0.14081E+01  8540   0.151E+01 0.285E-01
CGA:   4    -0.128534384332E+04   -0.31807E+00   -0.31864E+00  8540   0.258E+00-0.792E-03
CGA:   5    -0.128540083465E+04   -0.56991E-01   -0.57086E-01  8540   0.604E-01-0.131E-03
CGA:   6    -0.128541673067E+04   -0.15896E-01   -0.15634E-01  8540   0.187E-01-0.746E-03
CGA:   7    -0.128542241803E+04   -0.56874E-02   -0.55031E-02  8540   0.688E-02-0.559E-03
CGA:   8    -0.128542496219E+04   -0.25442E-02   -0.24008E-02  8540   0.310E-02-0.575E-03
CGA:   9    -0.128542630152E+04   -0.13393E-02   -0.12009E-02  8540   0.171E-02-0.788E-03
CGA:  10    -0.128542704340E+04   -0.74188E-03   -0.70488E-03  8540   0.175E-02-0.979E-03
CGA:  11    -0.128542752920E+04   -0.48580E-03   -0.45216E-03  8540   0.416E-03-0.102E-03
CGA:  12    -0.128542777055E+04   -0.24135E-03   -0.30605E-03  8540   0.760E-03-0.311E-03
CGA:  13    -0.128542805079E+04   -0.28024E-03   -0.21934E-03  8540   0.215E-03-0.207E-03
CGA:  14    -0.128542810621E+04   -0.55424E-04   -0.50181E-04  8540   0.539E-04-0.212E-04
CGA:  15    -0.128542826894E+04   -0.16272E-03    0.67102E-05  8540   0.106E-03-0.400E-04
CGA:  16    -0.128542827151E+04   -0.25683E-05   -0.14761E-04  8540   0.139E-04 0.293E-04
   6 F= -.12854283E+04 E0= -.12854283E+04  d E =-.100262E+00  mag=   126.0000
       N       E                     dE             d eps       ncg     rms          ort
SDA:   1    -0.128323414744E+04    0.21941E+01    0.00000E+00  8540   0.577E+01 0.000E+00
CGA:   2    -0.128483889703E+04   -0.16047E+01   -0.16045E+01  8540   0.244E+01 0.414E-03
CGA:   3    -0.128532471993E+04   -0.48582E+00   -0.48496E+00  8540   0.513E+00-0.154E-02
CGA:   4    -0.128543363363E+04   -0.10891E+00   -0.10883E+00  8540   0.862E-01-0.822E-03
CGA:   5    -0.128545223962E+04   -0.18606E-01   -0.18607E-01  8540   0.200E-01-0.304E-04
CGA:   6    -0.128545753384E+04   -0.52942E-02   -0.52033E-02  8540   0.578E-02-0.428E-03
CGA:   7    -0.128545926910E+04   -0.17353E-02   -0.16782E-02  8540   0.212E-02-0.337E-03
CGA:   8    -0.128546003727E+04   -0.76816E-03   -0.73522E-03  8540   0.101E-02-0.364E-03
CGA:   9    -0.128546043506E+04   -0.39779E-03   -0.46492E-03  8540   0.118E-02-0.674E-03
CGA:  10    -0.128546069491E+04   -0.25985E-03   -0.25530E-03  8540   0.182E-03-0.191E-04
CGA:  11    -0.128545821971E+04    0.24752E-02   -0.13380E-02  8540   0.118E-01-0.122E-02
CGA:  12    -0.128546073680E+04   -0.25171E-02   -0.25934E-02  8540   0.130E-02 0.127E-03
CGA:  13    -0.128546125224E+04   -0.51545E-03   -0.47499E-03  8540   0.198E-03-0.956E-04
CGA:  14    -0.128546126850E+04   -0.16259E-04   -0.45797E-04  8540   0.542E-04 0.575E-04
CGA:  15    -0.128546130791E+04   -0.39408E-04   -0.32806E-04  8540   0.357E-04-0.246E-04
CGA:  16    -0.128546131423E+04   -0.63205E-05   -0.59012E-05  8540   0.183E-04-0.999E-06
   7 F= -.12854613E+04 E0= -.12854613E+04  d E =-.330427E-01  mag=   126.0000
       N       E                     dE             d eps       ncg     rms          ort
SDA:   1    -0.128207731584E+04    0.33840E+01    0.00000E+00  8540   0.920E+01 0.000E+00
CGA:   2    -0.128441007574E+04   -0.23328E+01   -0.23355E+01  8540   0.408E+01 0.434E-02
CGA:   3    -0.128525055830E+04   -0.84048E+00   -0.83951E+00  8540   0.855E+00 0.857E-02
CGA:   4    -0.128543034053E+04   -0.17978E+00   -0.17973E+00  8540   0.153E+00 0.280E-03
CGA:   5    -0.128546332683E+04   -0.32986E-01   -0.32943E-01  8540   0.342E-01-0.191E-03
CGA:   6    -0.128547215606E+04   -0.88292E-02   -0.86993E-02  8540   0.956E-02-0.398E-03
CGA:   7    -0.128547483053E+04   -0.26745E-02   -0.26399E-02  8540   0.294E-02-0.119E-03
CGA:   8    -0.128547578608E+04   -0.95554E-03   -0.93455E-03  8540   0.103E-02-0.888E-04
CGA:   9    -0.128547620823E+04   -0.42216E-03   -0.39124E-03  8540   0.476E-03-0.199E-03
CGA:  10    -0.128547641225E+04   -0.20402E-03   -0.19680E-03  8540   0.417E-03-0.256E-03
CGA:  11    -0.128547652964E+04   -0.11739E-03   -0.10601E-03  8540   0.922E-04-0.400E-04
CGA:  12    -0.128547655370E+04   -0.24060E-04   -0.79255E-04  8540   0.398E-03-0.130E-03
CGA:  13    -0.128547668146E+04   -0.12776E-03   -0.10321E-03  8540   0.724E-04-0.856E-04
CGA:  14    -0.128547669215E+04   -0.10690E-04   -0.13437E-04  8540   0.990E-05 0.930E-05
CGA:  15    -0.128547672972E+04   -0.37561E-04    0.12828E-05  8540   0.211E-04-0.103E-04
CGA:  16    -0.128547673341E+04   -0.36944E-05   -0.43656E-05  8540   0.194E-05 0.216E-05
   8 F= -.12854767E+04 E0= -.12854767E+04  d E =-.154192E-01  mag=   126.0000
       N       E                     dE             d eps       ncg     rms          ort
SDA:   1    -0.127763383866E+04    0.78429E+01    0.00000E+00  8540   0.213E+02 0.000E+00
CGA:   2    -0.128289361978E+04   -0.52598E+01   -0.52729E+01  8540   0.979E+01-0.429E-02
CGA:   3    -0.128492489484E+04   -0.20313E+01   -0.20324E+01  8540   0.200E+01 0.242E-01
CGA:   4    -0.128533828906E+04   -0.41339E+00   -0.41348E+00  8540   0.362E+00 0.221E-02
CGA:   5    -0.128541682952E+04   -0.78540E-01   -0.78492E-01  8540   0.821E-01-0.464E-03
CGA:   6    -0.128543745968E+04   -0.20630E-01   -0.20511E-01  8540   0.224E-01-0.637E-03
CGA:   7    -0.128544366879E+04   -0.62091E-02   -0.62039E-02  8540   0.678E-02-0.361E-04
CGA:   8    -0.128544577056E+04   -0.21018E-02   -0.21128E-02  8540   0.223E-02 0.904E-04
CGA:   9    -0.128544661960E+04   -0.84904E-03   -0.83714E-03  8540   0.877E-03-0.221E-03
CGA:  10    -0.128544697402E+04   -0.35442E-03   -0.36802E-03  8540   0.544E-03-0.315E-03
CGA:  11    -0.128544712584E+04   -0.15183E-03   -0.20347E-03  8540   0.556E-03-0.325E-03
CGA:  12    -0.128544727639E+04   -0.15055E-03   -0.14992E-03  8540   0.124E-03-0.396E-05
CGA:  13    -0.128544725966E+04    0.16733E-04   -0.14535E-03  8540   0.693E-03-0.215E-03
CGA:  14    -0.128544739201E+04   -0.13235E-03   -0.14736E-03  8540   0.786E-04 0.601E-04
CGA:  15    -0.128544748141E+04   -0.89398E-04    0.11730E-03  8540   0.444E-04-0.330E-04
CGA:  16    -0.128544748067E+04    0.73802E-06   -0.30172E-05  8540   0.220E-04 0.113E-04
   9 F= -.12854475E+04 E0= -.12854475E+04  d E =0.292527E-01  mag=   126.0000
       N       E                     dE             d eps       ncg     rms          ort
SDA:   1    -0.127260693545E+04    0.12841E+02    0.00000E+00  8540   0.350E+02 0.000E+00
CGA:   2    -0.128109345927E+04   -0.84865E+01   -0.85097E+01  8540   0.160E+02 0.148E-02
CGA:   3    -0.128453235672E+04   -0.34389E+01   -0.34398E+01  8540   0.321E+01 0.287E-01
CGA:   4    -0.128518785611E+04   -0.65550E+00   -0.65611E+00  8540   0.580E+00 0.431E-02
CGA:   5    -0.128531616074E+04   -0.12830E+00   -0.12829E+00  8540   0.132E+00-0.658E-03
CGA:   6    -0.128534921023E+04   -0.33049E-01   -0.32959E-01  8540   0.348E-01-0.744E-03
CGA:   7    -0.128535860529E+04   -0.93951E-02   -0.94630E-02  8540   0.103E-01 0.679E-03
CGA:   8    -0.128536165033E+04   -0.30450E-02   -0.30999E-02  8540   0.318E-02 0.752E-03
CGA:   9    -0.128536274708E+04   -0.10967E-02   -0.11068E-02  8540   0.107E-02 0.252E-03
CGA:  10    -0.128536314481E+04   -0.39772E-03   -0.39883E-03  8540   0.374E-03 0.693E-04
CGA:  11    -0.128536325262E+04   -0.10781E-03   -0.11502E-03  8540   0.122E-03 0.984E-04
CGA:  12    -0.128536327392E+04   -0.21298E-04   -0.32777E-04  8540   0.578E-04 0.788E-04
CGA:  13    -0.128536328299E+04   -0.90718E-05   -0.13522E-04  8540   0.324E-04 0.381E-04
  10 F= -.12853633E+04 E0= -.12853633E+04  d E =0.841977E-01  mag=   126.0000
       N       E                     dE             d eps       ncg     rms          ort
SDA:   1    -0.128003065181E+04    0.53326E+01    0.00000E+00  8540   0.138E+02 0.000E+00
CGA:   2    -0.128403697700E+04   -0.40063E+01   -0.40061E+01  8540   0.555E+01-0.393E-02
CGA:   3    -0.128510919206E+04   -0.10722E+01   -0.10732E+01  8540   0.116E+01 0.314E-02
CGA:   4    -0.128535851770E+04   -0.24933E+00   -0.24961E+00  8540   0.198E+00 0.236E-02
CGA:   5    -0.128540179047E+04   -0.43273E-01   -0.43207E-01  8540   0.453E-01-0.706E-03
CGA:   6    -0.128541359465E+04   -0.11804E-01   -0.11809E-01  8540   0.133E-01 0.722E-04
CGA:   7    -0.128541716325E+04   -0.35686E-02   -0.36002E-02  8540   0.395E-02 0.703E-03
CGA:   8    -0.128541837135E+04   -0.12081E-02   -0.12200E-02  8540   0.127E-02 0.625E-03
CGA:   9    -0.128541876387E+04   -0.39251E-03   -0.40490E-03  8540   0.388E-03 0.346E-03
CGA:  10    -0.128541886765E+04   -0.10378E-03   -0.11749E-03  8540   0.141E-03 0.190E-03
CGA:  11    -0.128541888574E+04   -0.18094E-04   -0.35520E-04  8540   0.745E-04 0.127E-03
CGA:  12    -0.128541888565E+04    0.91408E-07   -0.99627E-05  8540   0.523E-04 0.606E-04
  11 F= -.12854189E+04 E0= -.12854189E+04  d E =-.556027E-01  mag=   126.0000
       N       E                     dE             d eps       ncg     rms          ort
SDA:   1    -0.127027794821E+04    0.15141E+02    0.00000E+00  8540   0.413E+02 0.000E+00
CGA:   2    -0.128045534393E+04   -0.10177E+02   -0.10182E+02  8540   0.182E+02 0.588E-01
CGA:   3    -0.128437674688E+04   -0.39214E+01   -0.39230E+01  8540   0.367E+01 0.749E-02
CGA:   4    -0.128514060346E+04   -0.76386E+00   -0.76357E+00  8540   0.692E+00-0.495E-02
CGA:   5    -0.128529256689E+04   -0.15196E+00   -0.15200E+00  8540   0.154E+00 0.314E-03
CGA:   6    -0.128533113552E+04   -0.38569E-01   -0.38579E-01  8540   0.431E-01 0.451E-03
CGA:   7    -0.128534342983E+04   -0.12294E-01   -0.12300E-01  8540   0.135E-01-0.429E-03
CGA:   8    -0.128534792569E+04   -0.44959E-02   -0.45560E-02  8540   0.523E-02-0.858E-03
CGA:   9    -0.128534970966E+04   -0.17840E-02   -0.18852E-02  8540   0.222E-02-0.916E-03
CGA:  10    -0.128535036468E+04   -0.65502E-03   -0.69051E-03  8540   0.826E-03-0.364E-03
CGA:  11    -0.128535055029E+04   -0.18561E-03   -0.48433E-03  8540   0.146E-02-0.719E-03
CGA:  12    -0.128535091627E+04   -0.36599E-03   -0.36433E-03  8540   0.209E-03-0.303E-04
CGA:  13    -0.128534993802E+04    0.97825E-03   -0.52883E-03  8540   0.535E-02-0.843E-03
CGA:  14    -0.128535095080E+04   -0.10128E-02   -0.11184E-02  8540   0.515E-03 0.310E-03
CGA:  15    -0.128535120528E+04   -0.25448E-03   -0.23905E-03  8540   0.201E-03-0.160E-03
CGA:  16    -0.128535120403E+04    0.12505E-05   -0.19994E-04  8540   0.763E-04 0.552E-04
CGA:  17    -0.128535120216E+04    0.18669E-05   -0.12187E-04  8540   0.305E-04 0.365E-04
CGA:  18    -0.128535121586E+04   -0.13700E-04   -0.12256E-04  8540   0.183E-04-0.660E-05
CGA:  19    -0.128535126166E+04   -0.45800E-04    0.14852E-05  8540   0.473E-04-0.277E-04
CGA:  20    -0.128535125443E+04    0.72318E-05   -0.43432E-05  8540   0.199E-04 0.298E-04
  12 F= -.12853513E+04 E0= -.12853513E+04  d E =0.676312E-01  mag=   126.0000
       N       E                     dE             d eps       ncg     rms          ort
SDA:   1    -0.128239997440E+04    0.29513E+01    0.00000E+00  8540   0.944E+01 0.000E+00
CGA:   2    -0.128431709544E+04   -0.19171E+01   -0.19224E+01  8540   0.372E+01-0.433E-02
CGA:   3    -0.128522631399E+04   -0.90922E+00   -0.91007E+00  8540   0.946E+00 0.444E-02
CGA:   4    -0.128542183201E+04   -0.19552E+00   -0.19595E+00  8540   0.179E+00 0.160E-02
CGA:   5    -0.128546077983E+04   -0.38948E-01   -0.38966E-01  8540   0.397E-01-0.537E-05
CGA:   6    -0.128547063186E+04   -0.98520E-02   -0.97738E-02  8540   0.105E-01-0.514E-03
CGA:   7    -0.128547343795E+04   -0.28061E-02   -0.28199E-02  8540   0.292E-02 0.113E-03
CGA:   8    -0.128547421010E+04   -0.77215E-03   -0.80546E-03  8540   0.813E-03 0.289E-03
CGA:   9    -0.128547444913E+04   -0.23903E-03   -0.25672E-03  8540   0.270E-03 0.187E-03
CGA:  10    -0.128547453154E+04   -0.82408E-04   -0.92590E-04  8540   0.107E-03 0.104E-03
CGA:  11    -0.128547455599E+04   -0.24456E-04   -0.34050E-04  8540   0.467E-04 0.677E-04
CGA:  12    -0.128547455964E+04   -0.36439E-05   -0.89562E-05  8540   0.253E-04 0.306E-04
  13 F= -.12854746E+04 E0= -.12854746E+04  d E =-.123305E+00  mag=   126.0000
       N       E                     dE             d eps       ncg     rms          ort
SDA:   1    -0.128540642283E+04    0.68133E-01    0.00000E+00  8540   0.213E+00 0.000E+00
CGA:   2    -0.128545619626E+04   -0.49773E-01   -0.49779E-01  8540   0.976E-01-0.702E-04
CGA:   3    -0.128547781649E+04   -0.21620E-01   -0.21682E-01  8540   0.208E-01 0.478E-03
CGA:   4    -0.128548200459E+04   -0.41881E-02   -0.42287E-02  8540   0.371E-02 0.304E-03
CGA:   5    -0.128548279801E+04   -0.79342E-03   -0.80530E-03  8540   0.822E-03 0.103E-03
CGA:   6    -0.128548298167E+04   -0.18366E-03   -0.19204E-03  8540   0.202E-03 0.884E-04
CGA:   7    -0.128548301555E+04   -0.33881E-04   -0.43578E-04  8540   0.612E-04 0.792E-04
CGA:   8    -0.128548301924E+04   -0.36920E-05   -0.11934E-04  8540   0.295E-04 0.482E-04
  14 F= -.12854830E+04 E0= -.12854830E+04  d E =-.845961E-02  mag=   126.0000
       N       E                     dE             d eps       ncg     rms          ort
SDA:   1    -0.128462982195E+04    0.85319E+00    0.00000E+00  8540   0.229E+01 0.000E+00
CGA:   2    -0.128522141694E+04   -0.59159E+00   -0.59166E+00  8540   0.107E+01 0.681E-03
CGA:   3    -0.128544266362E+04   -0.22125E+00   -0.22135E+00  8540   0.213E+00 0.874E-03
CGA:   4    -0.128548661361E+04   -0.43950E-01   -0.43998E-01  8540   0.375E-01 0.571E-03
CGA:   5    -0.128549472203E+04   -0.81084E-02   -0.81395E-02  8540   0.840E-02 0.453E-03
CGA:   6    -0.128549671597E+04   -0.19939E-02   -0.20154E-02  8540   0.209E-02 0.495E-03
CGA:   7    -0.128549725259E+04   -0.53661E-03   -0.54686E-03  8540   0.587E-03 0.334E-03
CGA:   8    -0.128549741320E+04   -0.16061E-03   -0.16677E-03  8540   0.198E-03 0.196E-03
CGA:   9    -0.128549744853E+04   -0.35328E-04   -0.48075E-04  8540   0.877E-04 0.138E-03
CGA:  10    -0.128549745081E+04   -0.22801E-05   -0.11536E-04  8540   0.546E-04 0.667E-04
  15 F= -.12854975E+04 E0= -.12854975E+04  d E =-.144316E-01  mag=   126.0000
       N       E                     dE             d eps       ncg     rms          ort
SDA:   1    -0.128521617186E+04    0.28128E+00    0.00000E+00  8540   0.731E+00 0.000E+00
CGA:   2    -0.128542476089E+04   -0.20859E+00   -0.20860E+00  8540   0.331E+00-0.439E-03
CGA:   3    -0.128548896615E+04   -0.64205E-01   -0.64247E-01  8540   0.608E-01 0.620E-03
CGA:   4    -0.128550165734E+04   -0.12691E-01   -0.12693E-01  8540   0.106E-01 0.464E-04
CGA:   5    -0.128550392517E+04   -0.22678E-02   -0.22786E-02  8540   0.235E-02 0.290E-03
CGA:   6    -0.128550443891E+04   -0.51374E-03   -0.52494E-03  8540   0.543E-03 0.352E-03
CGA:   7    -0.128550458233E+04   -0.14341E-03   -0.14560E-03  8540   0.177E-03 0.146E-03
CGA:   8    -0.128550462652E+04   -0.44192E-04   -0.47468E-04  8540   0.739E-04 0.927E-04
CGA:   9    -0.128550463263E+04   -0.61061E-05   -0.10960E-04  8540   0.400E-04 0.500E-04
  16 F= -.12855046E+04 E0= -.12855046E+04  d E =-.718182E-02  mag=   126.0000
       N       E                     dE             d eps       ncg     rms          ort
SDA:   1    -0.128351423609E+04    0.19904E+01    0.00000E+00  8540   0.496E+01 0.000E+00
CGA:   2    -0.128497770886E+04   -0.14635E+01   -0.14636E+01  8540   0.225E+01-0.231E-02
CGA:   3    -0.128540302454E+04   -0.42532E+00   -0.42549E+00  8540   0.400E+00 0.291E-02
CGA:   4    -0.128548644029E+04   -0.83416E-01   -0.83449E-01  8540   0.704E-01 0.125E-02
CGA:   5    -0.128550191443E+04   -0.15474E-01   -0.15483E-01  8540   0.160E-01 0.603E-03
CGA:   6    -0.128550577747E+04   -0.38630E-02   -0.38586E-02  8540   0.393E-02 0.717E-03
CGA:   7    -0.128550691085E+04   -0.11334E-02   -0.11221E-02  8540   0.127E-02 0.283E-03
CGA:   8    -0.128550731895E+04   -0.40810E-03   -0.39517E-03  8540   0.432E-03 0.231E-03
CGA:   9    -0.128550744545E+04   -0.12650E-03   -0.12520E-03  8540   0.151E-03 0.183E-03
CGA:  10    -0.128550747754E+04   -0.32094E-04   -0.38922E-04  8540   0.705E-04 0.118E-03
CGA:  11    -0.128550748391E+04   -0.63710E-05   -0.10787E-04  8540   0.446E-04 0.534E-04
  17 F= -.12855075E+04 E0= -.12855075E+04  d E =-.285128E-02  mag=   126.0000
       N       E                     dE             d eps       ncg     rms          ort
SDA:   1    -0.128348041650E+04    0.20271E+01    0.00000E+00  8540   0.511E+01 0.000E+00
CGA:   2    -0.128490475085E+04   -0.14243E+01   -0.14242E+01  8540   0.244E+01-0.705E-04
CGA:   3    -0.128538380369E+04   -0.47905E+00   -0.47913E+00  8540   0.427E+00 0.178E-02
CGA:   4    -0.128547188886E+04   -0.88085E-01   -0.88098E-01  8540   0.773E-01 0.611E-03
CGA:   5    -0.128548893023E+04   -0.17041E-01   -0.17045E-01  8540   0.176E-01 0.631E-03
CGA:   6    -0.128549327129E+04   -0.43411E-02   -0.43338E-02  8540   0.443E-02 0.398E-03
CGA:   7    -0.128549454371E+04   -0.12724E-02   -0.12684E-02  8540   0.144E-02 0.747E-04
CGA:   8    -0.128549501325E+04   -0.46954E-03   -0.46322E-03  8540   0.509E-03 0.723E-04
CGA:   9    -0.128549518656E+04   -0.17332E-03   -0.16874E-03  8540   0.168E-03 0.556E-04
CGA:  10    -0.128549523150E+04   -0.44933E-04   -0.44762E-04  8540   0.563E-04 0.674E-04
CGA:  11    -0.128549524397E+04   -0.12470E-04   -0.14659E-04  8540   0.279E-04 0.418E-04
CGA:  12    -0.128549525031E+04   -0.63389E-05   -0.64297E-05  8540   0.160E-04 0.184E-04
  18 F= -.12854953E+04 E0= -.12854953E+04  d E =0.122336E-01  mag=   126.0000
       N       E                     dE             d eps       ncg     rms          ort
SDA:   1    -0.128531752369E+04    0.17772E+00    0.00000E+00  8540   0.484E+00 0.000E+00
CGA:   2    -0.128543291700E+04   -0.11539E+00   -0.11539E+00  8540   0.223E+00 0.763E-03
CGA:   3    -0.128548161372E+04   -0.48697E-01   -0.48679E-01  8540   0.464E-01-0.142E-02
CGA:   4    -0.128549119873E+04   -0.95850E-02   -0.95697E-02  8540   0.859E-02-0.677E-03
CGA:   5    -0.128549303565E+04   -0.18369E-02   -0.18366E-02  8540   0.190E-02-0.283E-04
CGA:   6    -0.128549351251E+04   -0.47685E-03   -0.47807E-03  8540   0.518E-03-0.509E-04
CGA:   7    -0.128549366958E+04   -0.15708E-03   -0.16914E-03  8540   0.230E-03-0.114E-03
CGA:   8    -0.128549372308E+04   -0.53502E-04   -0.81661E-04  8540   0.205E-03-0.127E-03
CGA:   9    -0.128549376767E+04   -0.44582E-04   -0.44009E-04  8540   0.382E-04-0.185E-04
CGA:  10    -0.128549372949E+04    0.38179E-04   -0.37971E-04  8540   0.333E-03-0.898E-04
CGA:  11    -0.128549379628E+04   -0.66792E-04   -0.66098E-04  8540   0.318E-04-0.794E-05
CGA:  12    -0.128549380806E+04   -0.11783E-04   -0.15767E-04  8540   0.170E-04-0.176E-04
CGA:  13    -0.128549381363E+04   -0.55685E-05   -0.72890E-05  8540   0.143E-04-0.128E-04
  19 F= -.12854938E+04 E0= -.12854938E+04  d E =0.143667E-02  mag=   126.0000
       N       E                     dE             d eps       ncg     rms          ort
SDA:   1    -0.128544471143E+04    0.49097E-01    0.00000E+00  8540   0.137E+00 0.000E+00
CGA:   2    -0.128547612372E+04   -0.31412E-01   -0.31426E-01  8540   0.605E-01 0.147E-03
CGA:   3    -0.128548986155E+04   -0.13738E-01   -0.13727E-01  8540   0.133E-01-0.182E-03
CGA:   4    -0.128549254164E+04   -0.26801E-02   -0.26808E-02  8540   0.238E-02 0.689E-05
CGA:   5    -0.128549306811E+04   -0.52647E-03   -0.52520E-03  8540   0.546E-03-0.205E-04
CGA:   6    -0.128549321523E+04   -0.14712E-03   -0.14650E-03  8540   0.172E-03-0.587E-04
CGA:   7    -0.128549325584E+04   -0.40608E-04   -0.40469E-04  8540   0.480E-04-0.815E-05
CGA:   8    -0.128549327053E+04   -0.14684E-04   -0.15018E-04  8540   0.177E-04-0.697E-05
CGA:   9    -0.128549325357E+04    0.16956E-04   -0.16686E-04  8540   0.150E-03-0.410E-04
CGA:  10    -0.128549328636E+04   -0.32787E-04   -0.31628E-04  8540   0.175E-04-0.104E-04
CGA:  11    -0.128549329085E+04   -0.44949E-05   -0.45345E-05  8540   0.284E-05 0.973E-06
  20 F= -.12854933E+04 E0= -.12854933E+04  d E =0.522780E-03  mag=   126.0000
       N       E                     dE             d eps       ncg     rms          ort
SDA:   1    -0.128512231335E+04    0.37097E+00    0.00000E+00  8540   0.907E+00 0.000E+00
CGA:   2    -0.128537231448E+04   -0.25000E+00   -0.25002E+00  8540   0.451E+00-0.326E-04
CGA:   3    -0.128546124371E+04   -0.88929E-01   -0.88910E-01  8540   0.772E-01-0.193E-03
CGA:   4    -0.128547699104E+04   -0.15747E-01   -0.15747E-01  8540   0.142E-01-0.858E-05
CGA:   5    -0.128548008971E+04   -0.30987E-02   -0.31059E-02  8540   0.315E-02 0.704E-04
CGA:   6    -0.128548087359E+04   -0.78387E-03   -0.78309E-03  8540   0.820E-03-0.126E-04
CGA:   7    -0.128548110910E+04   -0.23551E-03   -0.23486E-03  8540   0.267E-03-0.306E-04
CGA:   8    -0.128548119862E+04   -0.89523E-04   -0.90932E-04  8540   0.112E-03-0.311E-04
CGA:   9    -0.128548123751E+04   -0.38895E-04   -0.46832E-04  8540   0.810E-04-0.494E-04
CGA:  10    -0.128548125348E+04   -0.15964E-04   -0.19815E-04  8540   0.481E-04-0.328E-04
CGA:  11    -0.128548126457E+04   -0.11090E-04   -0.13708E-04  8540   0.331E-04-0.169E-04
CGA:  12    -0.128548127415E+04   -0.95766E-05   -0.11987E-04  8540   0.260E-04-0.107E-04
CGA:  13    -0.128548125205E+04    0.22099E-04   -0.23188E-04  8540   0.145E-03-0.466E-04
CGA:  14    -0.128548128085E+04   -0.28804E-04   -0.32563E-04  8540   0.169E-04 0.225E-04
CGA:  15    -0.128548109500E+04    0.18585E-03   -0.10015E-03  8540   0.767E-03-0.112E-03
CGA:  16    -0.128548121182E+04   -0.11682E-03   -0.16708E-03  8540   0.142E-03 0.105E-03
CGA:  17    -0.128548129116E+04   -0.79342E-04   -0.60642E-04  8540   0.498E-04-0.623E-04
CGA:  18    -0.128548128633E+04    0.48284E-05   -0.34247E-05  8540   0.256E-04 0.154E-04
  21 F= -.12854813E+04 E0= -.12854813E+04  d E =0.120045E-01  mag=   126.0000
       N       E                     dE             d eps       ncg     rms          ort
SDA:   1    -0.127858217170E+04    0.68991E+01    0.00000E+00  8540   0.173E+02 0.000E+00
CGA:   2    -0.128324697650E+04   -0.46648E+01   -0.46715E+01  8540   0.873E+01-0.617E-03
CGA:   3    -0.128499162772E+04   -0.17447E+01   -0.17455E+01  8540   0.150E+01 0.296E-01
CGA:   4    -0.128529422108E+04   -0.30259E+00   -0.30283E+00  8540   0.276E+00 0.149E-02
CGA:   5    -0.128535489574E+04   -0.60675E-01   -0.60848E-01  8540   0.639E-01 0.380E-03
CGA:   6    -0.128537029797E+04   -0.15402E-01   -0.15457E-01  8540   0.163E-01 0.171E-03
CGA:   7    -0.128537485024E+04   -0.45523E-02   -0.45475E-02  8540   0.508E-02-0.226E-04
CGA:   8    -0.128537645648E+04   -0.16062E-02   -0.16110E-02  8540   0.180E-02 0.232E-04
CGA:   9    -0.128537709312E+04   -0.63664E-03   -0.63162E-03  8540   0.644E-03-0.344E-04
CGA:  10    -0.128537732236E+04   -0.22924E-03   -0.22675E-03  8540   0.229E-03-0.193E-04
CGA:  11    -0.128537740861E+04   -0.86255E-04   -0.85802E-04  8540   0.977E-04-0.504E-05
CGA:  12    -0.128537746453E+04   -0.55918E-04   -0.63249E-04  8540   0.117E-03-0.409E-04
CGA:  13    -0.128537750000E+04   -0.35469E-04   -0.45528E-04  8540   0.118E-03-0.569E-04
CGA:  14    -0.128537752773E+04   -0.27732E-04   -0.24879E-04  8540   0.607E-04-0.333E-04
CGA:  15    -0.128537754676E+04   -0.19025E-04   -0.29447E-04  8540   0.887E-04-0.571E-04
CGA:  16    -0.128537755731E+04   -0.10553E-04   -0.19377E-04  8540   0.210E-04 0.310E-04
CGA:  17    -0.128537756999E+04   -0.12683E-04   -0.12627E-04  8540   0.187E-04-0.128E-05
CGA:  18    -0.128537757262E+04   -0.26263E-05   -0.45056E-05  8540   0.144E-04 0.814E-05
  22 F= -.12853776E+04 E0= -.12853776E+04  d E =0.103714E+00  mag=   126.0000
       N       E                     dE             d eps       ncg     rms          ort
SDA:   1    -0.127494051438E+04    0.10437E+02    0.00000E+00  8540   0.259E+02 0.000E+00
CGA:   2    -0.128200941091E+04   -0.70689E+01   -0.70786E+01  8540   0.131E+02-0.139E-02
CGA:   3    -0.128462433082E+04   -0.26149E+01   -0.26154E+01  8540   0.222E+01 0.269E-01
CGA:   4    -0.128507185297E+04   -0.44752E+00   -0.44769E+00  8540   0.410E+00 0.206E-02
CGA:   5    -0.128516211790E+04   -0.90265E-01   -0.90522E-01  8540   0.944E-01 0.986E-03
CGA:   6    -0.128518481114E+04   -0.22693E-01   -0.22800E-01  8540   0.247E-01 0.576E-03
CGA:   7    -0.128519164830E+04   -0.68372E-02   -0.68558E-02  8540   0.784E-02 0.137E-03
CGA:   8    -0.128519407155E+04   -0.24233E-02   -0.24419E-02  8540   0.278E-02 0.202E-03
CGA:   9    -0.128519501720E+04   -0.94565E-03   -0.95328E-03  8540   0.943E-03 0.121E-03
CGA:  10    -0.128519532683E+04   -0.30963E-03   -0.31715E-03  8540   0.303E-03 0.105E-03
CGA:  11    -0.128519542068E+04   -0.93844E-04   -0.10139E-03  8540   0.116E-03 0.848E-04
CGA:  12    -0.128519546919E+04   -0.48512E-04   -0.50557E-04  8540   0.666E-04 0.455E-04
CGA:  13    -0.128519549824E+04   -0.29048E-04   -0.31104E-04  8540   0.425E-04 0.423E-04
CGA:  14    -0.128519551011E+04   -0.11874E-04   -0.13294E-04  8540   0.197E-04 0.206E-04
CGA:  15    -0.128519552076E+04   -0.10649E-04   -0.10800E-04  8540   0.155E-04 0.178E-04
CGA:  16    -0.128519552930E+04   -0.85389E-05   -0.76168E-05  8540   0.104E-04 0.789E-05
  23 F= -.12851955E+04 E0= -.12851955E+04  d E =0.182043E+00  mag=   126.0000
       N       E                     dE             d eps       ncg     rms          ort
SDA:   1    -0.127287271182E+04    0.12323E+02    0.00000E+00  8540   0.300E+02 0.000E+00
CGA:   2    -0.128193682106E+04   -0.90641E+01   -0.90633E+01  8540   0.136E+02-0.731E-02
CGA:   3    -0.128451008366E+04   -0.25733E+01   -0.25756E+01  8540   0.234E+01 0.811E-02
CGA:   4    -0.128500139686E+04   -0.49131E+00   -0.49152E+00  8540   0.431E+00 0.409E-02
CGA:   5    -0.128509872681E+04   -0.97330E-01   -0.97569E-01  8540   0.104E+00 0.156E-02
CGA:   6    -0.128512418801E+04   -0.25461E-01   -0.25589E-01  8540   0.294E-01 0.118E-02
CGA:   7    -0.128513262409E+04   -0.84361E-02   -0.84642E-02  8540   0.101E-01 0.486E-03
CGA:   8    -0.128513597643E+04   -0.33523E-02   -0.33561E-02  8540   0.396E-02 0.275E-03
CGA:   9    -0.128513724619E+04   -0.12698E-02   -0.12785E-02  8540   0.123E-02 0.353E-03
CGA:  10    -0.128513762424E+04   -0.37805E-03   -0.39167E-03  8540   0.398E-03 0.294E-03
CGA:  11    -0.128513774925E+04   -0.12501E-03   -0.13596E-03  8540   0.187E-03 0.183E-03
CGA:  12    -0.128513780837E+04   -0.59121E-04   -0.70134E-04  8540   0.118E-03 0.144E-03
CGA:  13    -0.128513784124E+04   -0.32871E-04   -0.35131E-04  8540   0.695E-04 0.706E-04
CGA:  14    -0.128513785302E+04   -0.11779E-04   -0.16886E-04  8540   0.568E-04 0.606E-04
CGA:  15    -0.128513785942E+04   -0.63999E-05   -0.12155E-04  8540   0.497E-04 0.528E-04
  24 F= -.12851379E+04 E0= -.12851379E+04  d E =0.576699E-01  mag=   126.0000
       N       E                     dE             d eps       ncg     rms          ort
SDA:   1    -0.128032958208E+04    0.48083E+01    0.00000E+00  8540   0.131E+02 0.000E+00
CGA:   2    -0.128363777754E+04   -0.33082E+01   -0.33104E+01  8540   0.643E+01 0.129E-01
CGA:   3    -0.128498687231E+04   -0.13491E+01   -0.13493E+01  8540   0.118E+01 0.242E-02
CGA:   4    -0.128522448268E+04   -0.23761E+00   -0.23762E+00  8540   0.216E+00 0.628E-03
CGA:   5    -0.128527208035E+04   -0.47598E-01   -0.47588E-01  8540   0.500E-01-0.215E-03
CGA:   6    -0.128528416186E+04   -0.12082E-01   -0.12065E-01  8540   0.132E-01-0.328E-03
CGA:   7    -0.128528772589E+04   -0.35640E-02   -0.35649E-02  8540   0.400E-02 0.383E-04
CGA:   8    -0.128528893609E+04   -0.12102E-02   -0.12089E-02  8540   0.133E-02 0.119E-03
CGA:   9    -0.128528940853E+04   -0.47245E-03   -0.47199E-03  8540   0.481E-03 0.779E-05
CGA:  10    -0.128528959171E+04   -0.18318E-03   -0.18629E-03  8540   0.197E-03-0.347E-04
CGA:  11    -0.128528966693E+04   -0.75211E-04   -0.11228E-03  8540   0.237E-03-0.118E-03
CGA:  12    -0.128528973557E+04   -0.68641E-04   -0.68004E-04  8540   0.565E-04-0.233E-04
CGA:  13    -0.128528949660E+04    0.23897E-03   -0.12932E-03  8540   0.144E-02-0.201E-03
CGA:  14    -0.128528980849E+04   -0.31189E-03   -0.30289E-03  8540   0.155E-03-0.253E-04
CGA:  15    -0.128528983239E+04   -0.23905E-04   -0.34663E-04  8540   0.303E-04 0.332E-04
CGA:  16    -0.128528982025E+04    0.12145E-04   -0.42668E-04  8540   0.252E-03-0.883E-04
CGA:  17    -0.128528983781E+04   -0.17566E-04   -0.45925E-04  8540   0.394E-04 0.735E-04
CGA:  18    -0.128528985146E+04   -0.13643E-04   -0.14289E-04  8540   0.107E-04 0.240E-05
CGA:  19    -0.128528987187E+04   -0.20411E-04    0.45228E-05  8540   0.113E-04-0.956E-05
CGA:  20    -0.128528986862E+04    0.32479E-05   -0.70929E-06  8540   0.619E-05 0.838E-05
  25 F= -.12852899E+04 E0= -.12852899E+04  d E =-.152009E+00  mag=   126.0000
       N       E                     dE             d eps       ncg     rms          ort
SDA:   1    -0.128096160995E+04    0.43283E+01    0.00000E+00  8540   0.115E+02 0.000E+00
CGA:   2    -0.128398661427E+04   -0.30250E+01   -0.30269E+01  8540   0.557E+01-0.112E-02
CGA:   3    -0.128511501192E+04   -0.11284E+01   -0.11289E+01  8540   0.104E+01 0.830E-02
CGA:   4    -0.128532721196E+04   -0.21220E+00   -0.21265E+00  8540   0.189E+00 0.165E-02
CGA:   5    -0.128536880857E+04   -0.41597E-01   -0.41516E-01  8540   0.428E-01-0.497E-03
CGA:   6    -0.128537963573E+04   -0.10827E-01   -0.10702E-01  8540   0.118E-01-0.678E-03
CGA:   7    -0.128538287876E+04   -0.32430E-02   -0.32345E-02  8540   0.368E-02-0.583E-04
CGA:   8    -0.128538398918E+04   -0.11104E-02   -0.11232E-02  8540   0.126E-02 0.109E-03
CGA:   9    -0.128538445773E+04   -0.46855E-03   -0.46603E-03  8540   0.503E-03-0.456E-04
CGA:  10    -0.128538468724E+04   -0.22951E-03   -0.25993E-03  8540   0.470E-03-0.249E-03
CGA:  11    -0.128538476547E+04   -0.78233E-04   -0.14863E-03  8540   0.592E-03-0.341E-03
CGA:  12    -0.128538493410E+04   -0.16863E-03   -0.17050E-03  8540   0.163E-03 0.130E-04
CGA:  13    -0.128538501954E+04   -0.85433E-04   -0.10101E-03  8540   0.161E-03-0.841E-04
CGA:  14    -0.128538505809E+04   -0.38547E-04   -0.38103E-04  8540   0.283E-04-0.224E-05
CGA:  15    -0.128538509020E+04   -0.32115E-04    0.16309E-04  8540   0.169E-04-0.952E-05
CGA:  16    -0.128538511000E+04   -0.19804E-04    0.21672E-05  8540   0.129E-04-0.529E-05
CGA:  17    -0.128538512543E+04   -0.15428E-04    0.17756E-05  8540   0.411E-05-0.295E-06
CGA:  18    -0.128538513961E+04   -0.14182E-04    0.26680E-06  8540   0.261E-05-0.769E-06
CGA:  19    -0.128538514256E+04   -0.29409E-05    0.70262E-06  8540   0.141E-05-0.372E-06
  26 F= -.12853851E+04 E0= -.12853851E+04  d E =-.952739E-01  mag=   126.0000
       N       E                     dE             d eps       ncg     rms          ort
SDA:   1    -0.128469640110E+04    0.68874E+00    0.00000E+00  8540   0.180E+01 0.000E+00
CGA:   2    -0.128514977476E+04   -0.45337E+00   -0.45357E+00  8540   0.893E+00 0.205E-03
CGA:   3    -0.128533660597E+04   -0.18683E+00   -0.18668E+00  8540   0.162E+00-0.934E-03
CGA:   4    -0.128536934003E+04   -0.32734E-01   -0.32676E-01  8540   0.298E-01-0.284E-03
CGA:   5    -0.128537580855E+04   -0.64685E-02   -0.65080E-02  8540   0.670E-02 0.218E-03
CGA:   6    -0.128537737432E+04   -0.15658E-02   -0.15938E-02  8540   0.165E-02 0.187E-03
CGA:   7    -0.128537783616E+04   -0.46185E-03   -0.46632E-03  8540   0.500E-03 0.433E-04
CGA:   8    -0.128537799834E+04   -0.16217E-03   -0.16208E-03  8540   0.181E-03-0.175E-05
CGA:   9    -0.128537805443E+04   -0.56090E-04   -0.56824E-04  8540   0.572E-04 0.136E-04
CGA:  10    -0.128537806412E+04   -0.96960E-05   -0.13359E-04  8540   0.189E-04 0.245E-04
  27 F= -.12853781E+04 E0= -.12853781E+04  d E =0.707843E-02  mag=   126.0000
       N       E                     dE             d eps       ncg     rms          ort
SDA:   1    -0.128486626668E+04    0.51179E+00    0.00000E+00  8540   0.138E+01 0.000E+00
CGA:   2    -0.128524201071E+04   -0.37574E+00   -0.37577E+00  8540   0.670E+00-0.529E-04
CGA:   3    -0.128537564439E+04   -0.13363E+00   -0.13358E+00  8540   0.117E+00-0.442E-03
CGA:   4    -0.128539973889E+04   -0.24094E-01   -0.24114E-01  8540   0.211E-01 0.149E-03
CGA:   5    -0.128540447104E+04   -0.47322E-02   -0.47190E-02  8540   0.490E-02-0.127E-03
CGA:   6    -0.128540571256E+04   -0.12415E-02   -0.12306E-02  8540   0.131E-02-0.150E-03
CGA:   7    -0.128540606270E+04   -0.35014E-03   -0.34964E-03  8540   0.403E-03-0.108E-04
CGA:   8    -0.128540619649E+04   -0.13379E-03   -0.13417E-03  8540   0.156E-03-0.241E-04
CGA:   9    -0.128540625352E+04   -0.57030E-04   -0.60513E-04  8540   0.804E-04-0.382E-04
CGA:  10    -0.128540624577E+04    0.77520E-05   -0.51888E-04  8540   0.277E-03-0.113E-03
CGA:  11    -0.128540630306E+04   -0.57292E-04   -0.58266E-04  8540   0.332E-04 0.686E-05
CGA:  12    -0.128540630866E+04   -0.55937E-05   -0.30412E-04  8540   0.108E-03-0.452E-04
CGA:  13    -0.128540632994E+04   -0.21283E-04   -0.23291E-04  8540   0.104E-04 0.128E-04
CGA:  14    -0.128540633980E+04   -0.98638E-05    0.12394E-04  8540   0.204E-05-0.210E-05
  28 F= -.12854063E+04 E0= -.12854063E+04  d E =-.282757E-01  mag=   126.0000
       N       E                     dE             d eps       ncg     rms          ort
SDA:   1    -0.125979894944E+04    0.25607E+02    0.00000E+00  8540   0.668E+02 0.000E+00
CGA:   2    -0.127748231128E+04   -0.17683E+02   -0.17697E+02  8540   0.313E+02 0.446E-01
CGA:   3    -0.128392529160E+04   -0.64430E+01   -0.64467E+01  8540   0.583E+01 0.461E-01
CGA:   4    -0.128511897785E+04   -0.11937E+01   -0.11948E+01  8540   0.104E+01 0.106E-01
CGA:   5    -0.128535514888E+04   -0.23617E+00   -0.23628E+00  8540   0.247E+00 0.680E-04
CGA:   6    -0.128541783630E+04   -0.62687E-01   -0.62616E-01  8540   0.678E-01-0.114E-02
CGA:   7    -0.128543675038E+04   -0.18914E-01   -0.18942E-01  8540   0.216E-01 0.667E-03
CGA:   8    -0.128544383459E+04   -0.70842E-02   -0.70816E-02  8540   0.762E-02 0.518E-03
CGA:   9    -0.128544653864E+04   -0.27041E-02   -0.27028E-02  8540   0.269E-02 0.445E-04
CGA:  10    -0.128544757332E+04   -0.10347E-02   -0.10502E-02  8540   0.111E-02-0.235E-03
CGA:  11    -0.128544798838E+04   -0.41506E-03   -0.42647E-03  8540   0.548E-03-0.119E-03
CGA:  12    -0.128544822619E+04   -0.23782E-03   -0.34998E-03  8540   0.770E-03-0.293E-03
CGA:  13    -0.128544845356E+04   -0.22736E-03   -0.22482E-03  8540   0.175E-03-0.448E-04
CGA:  14    -0.128544852962E+04   -0.76061E-04   -0.84216E-04  8540   0.148E-03-0.501E-04
CGA:  15    -0.128544856604E+04   -0.36424E-04   -0.79506E-04  8540   0.272E-03-0.109E-03
CGA:  16    -0.128544865006E+04   -0.84013E-04   -0.76301E-04  8540   0.115E-03-0.820E-04
CGA:  17    -0.128544866546E+04   -0.15405E-04   -0.18756E-04  8540   0.262E-04 0.247E-04
CGA:  18    -0.128544867690E+04   -0.11441E-04   -0.11295E-04  8540   0.370E-04-0.182E-04
CGA:  19    -0.128544868451E+04   -0.76039E-05   -0.19655E-04  8540   0.172E-03-0.713E-04
CGA:  20    -0.128544869416E+04   -0.96508E-05   -0.20695E-04  8540   0.131E-04 0.443E-04
  29 F= -.12854487E+04 E0= -.12854487E+04  d E =-.423544E-01  mag=   126.0000
       N       E                     dE             d eps       ncg     rms          ort
SDA:   1    -0.127688216083E+04    0.85665E+01    0.00000E+00  8540   0.224E+02 0.000E+00
CGA:   2    -0.128257724132E+04   -0.56951E+01   -0.56995E+01  8540   0.111E+02 0.145E-01
CGA:   3    -0.128492102891E+04   -0.23438E+01   -0.23439E+01  8540   0.207E+01 0.722E-04
CGA:   4    -0.128533381939E+04   -0.41279E+00   -0.41270E+00  8540   0.370E+00-0.646E-03
CGA:   5    -0.128541558913E+04   -0.81770E-01   -0.81899E-01  8540   0.857E-01 0.108E-02
CGA:   6    -0.128543624944E+04   -0.20660E-01   -0.20709E-01  8540   0.213E-01 0.570E-03
CGA:   7    -0.128544215556E+04   -0.59061E-02   -0.59160E-02  8540   0.637E-02 0.228E-03
CGA:   8    -0.128544418195E+04   -0.20264E-02   -0.20265E-02  8540   0.223E-02 0.372E-04
CGA:   9    -0.128544495463E+04   -0.77268E-03   -0.77234E-03  8540   0.805E-03 0.112E-04
CGA:  10    -0.128544522854E+04   -0.27391E-03   -0.27310E-03  8540   0.268E-03 0.395E-04
CGA:  11    -0.128544533251E+04   -0.10396E-03   -0.10342E-03  8540   0.106E-03 0.107E-04
CGA:  12    -0.128544538623E+04   -0.53728E-04   -0.55399E-04  8540   0.754E-04-0.966E-05
CGA:  13    -0.128544540515E+04   -0.18918E-04   -0.70432E-04  8540   0.213E-03-0.747E-04
CGA:  14    -0.128544543634E+04   -0.31192E-04   -0.40870E-04  8540   0.380E-04 0.560E-04
CGA:  15    -0.128544545680E+04   -0.20451E-04   -0.24424E-04  8540   0.401E-04-0.260E-04
CGA:  16    -0.128544546141E+04   -0.46158E-05   -0.72264E-05  8540   0.704E-05 0.142E-04
  30 F= -.12854455E+04 E0= -.12854455E+04  d E =0.323275E-02  mag=   126.0000
       N       E                     dE             d eps       ncg     rms          ort
SDA:   1    -0.127338576631E+04    0.12060E+02    0.00000E+00  8540   0.321E+02 0.000E+00
CGA:   2    -0.128132240808E+04   -0.79366E+01   -0.79427E+01  8540   0.152E+02 0.152E-01
CGA:   3    -0.128459877773E+04   -0.32764E+01   -0.32773E+01  8540   0.298E+01 0.466E-02
CGA:   4    -0.128520591547E+04   -0.60714E+00   -0.60714E+00  8540   0.530E+00-0.133E-03
CGA:   5    -0.128532214647E+04   -0.11623E+00   -0.11635E+00  8540   0.123E+00 0.759E-03
CGA:   6    -0.128535273438E+04   -0.30588E-01   -0.30602E-01  8540   0.323E-01 0.133E-03
CGA:   7    -0.128536151776E+04   -0.87834E-02   -0.87964E-02  8540   0.972E-02 0.237E-03
CGA:   8    -0.128536447127E+04   -0.29535E-02   -0.29615E-02  8540   0.321E-02 0.385E-03
CGA:   9    -0.128536556822E+04   -0.10969E-02   -0.10958E-02  8540   0.108E-02 0.181E-03
CGA:  10    -0.128536593167E+04   -0.36345E-03   -0.36391E-03  8540   0.348E-03 0.157E-03
CGA:  11    -0.128536604477E+04   -0.11309E-03   -0.11631E-03  8540   0.125E-03 0.105E-03
CGA:  12    -0.128536608048E+04   -0.35717E-04   -0.40816E-04  8540   0.608E-04 0.738E-04
CGA:  13    -0.128536609268E+04   -0.12199E-04   -0.14967E-04  8540   0.338E-04 0.388E-04
CGA:  14    -0.128536609914E+04   -0.64586E-05   -0.83851E-05  8540   0.264E-04 0.293E-04
  31 F= -.12853661E+04 E0= -.12853661E+04  d E =0.793623E-01  mag=   126.0000
       N       E                     dE             d eps       ncg     rms          ort
SDA:   1    -0.128260574384E+04    0.27603E+01    0.00000E+00  8540   0.735E+01 0.000E+00
CGA:   2    -0.128447873478E+04   -0.18730E+01   -0.18731E+01  8540   0.360E+01-0.640E-03
CGA:   3    -0.128523231378E+04   -0.75358E+00   -0.75361E+00  8540   0.642E+00-0.586E-03
CGA:   4    -0.128536353927E+04   -0.13123E+00   -0.13134E+00  8540   0.117E+00 0.106E-02
CGA:   5    -0.128538982697E+04   -0.26288E-01   -0.26257E-01  8540   0.271E-01-0.469E-03
CGA:   6    -0.128539656209E+04   -0.67351E-02   -0.67089E-02  8540   0.720E-02-0.641E-03
CGA:   7    -0.128539846237E+04   -0.19003E-02   -0.19019E-02  8540   0.206E-02 0.920E-04
CGA:   8    -0.128539905018E+04   -0.58782E-03   -0.58876E-03  8540   0.624E-03 0.208E-03
CGA:   9    -0.128539927692E+04   -0.22674E-03   -0.22414E-03  8540   0.215E-03 0.650E-04
CGA:  10    -0.128539937143E+04   -0.94501E-04   -0.97196E-04  8540   0.105E-03-0.224E-04
CGA:  11    -0.128539940469E+04   -0.33269E-04   -0.33342E-04  8540   0.395E-04-0.136E-05
CGA:  12    -0.128539941245E+04   -0.77592E-05   -0.89181E-05  8540   0.166E-04 0.167E-04
  32 F= -.12853994E+04 E0= -.12853994E+04  d E =-.333133E-01  mag=   126.0000
       N       E                     dE             d eps       ncg     rms          ort
SDA:   1    -0.126519225712E+04    0.20207E+02    0.00000E+00  8540   0.570E+02 0.000E+00
CGA:   2    -0.127787466250E+04   -0.12682E+02   -0.12698E+02  8540   0.252E+02 0.777E-01
CGA:   3    -0.128366626367E+04   -0.57916E+01   -0.57929E+01  8540   0.543E+01 0.108E-01
CGA:   4    -0.128479047062E+04   -0.11242E+01   -0.11238E+01  8540   0.982E+00-0.568E-02
CGA:   5    -0.128500540953E+04   -0.21494E+00   -0.21509E+00  8540   0.224E+00 0.201E-02
CGA:   6    -0.128506060047E+04   -0.55191E-01   -0.55261E-01  8540   0.582E-01 0.201E-02
CGA:   7    -0.128507684682E+04   -0.16246E-01   -0.16247E-01  8540   0.170E-01 0.598E-03
CGA:   8    -0.128508224101E+04   -0.53942E-02   -0.54099E-02  8540   0.597E-02-0.437E-03
CGA:   9    -0.128508428192E+04   -0.20409E-02   -0.20698E-02  8540   0.222E-02-0.381E-03
CGA:  10    -0.128508491046E+04   -0.62854E-03   -0.62415E-03  8540   0.627E-03 0.249E-03
CGA:  11    -0.128508512640E+04   -0.21595E-03   -0.21356E-03  8540   0.205E-03 0.109E-03
CGA:  12    -0.128508523909E+04   -0.11268E-03   -0.12195E-03  8540   0.175E-03-0.423E-04
CGA:  13    -0.128508528583E+04   -0.46743E-04   -0.45972E-04  8540   0.970E-04 0.215E-04
CGA:  14    -0.128508532216E+04   -0.36328E-04   -0.35985E-04  8540   0.523E-04 0.102E-04
CGA:  15    -0.128508534736E+04   -0.25202E-04   -0.27613E-04  8540   0.383E-04-0.139E-04
CGA:  16    -0.128508534866E+04   -0.13016E-05   -0.40102E-05  8540   0.266E-04 0.162E-04
  33 F= -.12850853E+04 E0= -.12850853E+04  d E =0.314064E+00  mag=   126.0000
       N       E                     dE             d eps       ncg     rms          ort
SDA:   1    -0.127725687155E+04    0.78285E+01    0.00000E+00  8540   0.247E+02 0.000E+00
CGA:   2    -0.128234494883E+04   -0.50881E+01   -0.50951E+01  8540   0.996E+01 0.265E-01
CGA:   3    -0.128475887262E+04   -0.24139E+01   -0.24143E+01  8540   0.243E+01 0.431E-02
CGA:   4    -0.128526358476E+04   -0.50471E+00   -0.50481E+00  8540   0.449E+00 0.293E-03
CGA:   5    -0.128536204603E+04   -0.98461E-01   -0.98424E-01  8540   0.103E+00-0.816E-03
CGA:   6    -0.128538746058E+04   -0.25415E-01   -0.25356E-01  8540   0.272E-01-0.194E-02
CGA:   7    -0.128539486113E+04   -0.74006E-02   -0.74009E-02  8540   0.790E-02-0.269E-03
CGA:   8    -0.128539706575E+04   -0.22046E-02   -0.22029E-02  8540   0.230E-02 0.331E-03
CGA:   9    -0.128539784683E+04   -0.78108E-03   -0.77409E-03  8540   0.786E-03 0.149E-03
CGA:  10    -0.128539816261E+04   -0.31579E-03   -0.31569E-03  8540   0.316E-03 0.264E-06
CGA:  11    -0.128539829393E+04   -0.13132E-03   -0.14938E-03  8540   0.182E-03-0.965E-04
CGA:  12    -0.128539832254E+04   -0.28611E-04   -0.30305E-04  8540   0.699E-04 0.316E-04
CGA:  13    -0.128539834563E+04   -0.23088E-04   -0.23136E-04  8540   0.330E-04 0.543E-05
CGA:  14    -0.128539836645E+04   -0.20820E-04    0.57685E-03  8540   0.177E-04 0.882E-05
CGA:  15    -0.128539835549E+04    0.10961E-04   -0.25231E-04  8540   0.126E-03-0.434E-04
CGA:  16    -0.128539839813E+04   -0.42637E-04   -0.42923E-04  8540   0.271E-04-0.325E-04
CGA:  17    -0.128539840062E+04   -0.24961E-05   -0.38054E-05  8540   0.801E-05 0.914E-05
  34 F= -.12853984E+04 E0= -.12853984E+04  d E =-.313052E+00  mag=   126.0000
       N       E                     dE             d eps       ncg     rms          ort
SDA:   1    -0.128516583015E+04    0.23257E+00    0.00000E+00  8540   0.738E+00 0.000E+00
CGA:   2    -0.128532809690E+04   -0.16227E+00   -0.16231E+00  8540   0.319E+00 0.656E-04
CGA:   3    -0.128540168472E+04   -0.73588E-01   -0.73580E-01  8540   0.706E-01-0.216E-03
CGA:   4    -0.128541650019E+04   -0.14815E-01   -0.14831E-01  8540   0.127E-01 0.134E-03
CGA:   5    -0.128541934421E+04   -0.28440E-02   -0.28341E-02  8540   0.291E-02-0.118E-03
CGA:   6    -0.128542011738E+04   -0.77316E-03   -0.76479E-03  8540   0.869E-03-0.208E-03
CGA:   7    -0.128542033264E+04   -0.21526E-03   -0.21512E-03  8540   0.232E-03-0.378E-05
CGA:   8    -0.128542037879E+04   -0.46157E-04   -0.50839E-04  8540   0.593E-04 0.572E-04
CGA:   9    -0.128542038935E+04   -0.10559E-04   -0.14043E-04  8540   0.231E-04 0.324E-04
CGA:  10    -0.128542039631E+04   -0.69540E-05   -0.68948E-05  8540   0.103E-04 0.872E-05
  35 F= -.12854204E+04 E0= -.12854204E+04  d E =-.219957E-01  mag=   126.0000
       N       E                     dE             d eps       ncg     rms          ort
SDA:   1    -0.128438332790E+04    0.10371E+01    0.00000E+00  8540   0.301E+01 0.000E+00
CGA:   2    -0.128506745570E+04   -0.68413E+00   -0.68433E+00  8540   0.135E+01 0.182E-02
CGA:   3    -0.128537029520E+04   -0.30284E+00   -0.30281E+00  8540   0.285E+00-0.704E-03
CGA:   4    -0.128542986928E+04   -0.59574E-01   -0.59566E-01  8540   0.513E-01-0.147E-03
CGA:   5    -0.128544123009E+04   -0.11361E-01   -0.11346E-01  8540   0.116E-01-0.272E-03
CGA:   6    -0.128544418827E+04   -0.29582E-02   -0.29513E-02  8540   0.320E-02-0.347E-03
CGA:   7    -0.128544502976E+04   -0.84149E-03   -0.84152E-03  8540   0.893E-03 0.736E-05
CGA:   8    -0.128544526086E+04   -0.23109E-03   -0.23281E-03  8540   0.245E-03 0.121E-03
CGA:   9    -0.128544533450E+04   -0.73643E-04   -0.74156E-04  8540   0.789E-04 0.704E-04
CGA:  10    -0.128544536428E+04   -0.29777E-04   -0.29356E-04  8540   0.332E-04 0.266E-04
CGA:  11    -0.128544537688E+04   -0.12608E-04   -0.12494E-04  8540   0.141E-04 0.146E-04
CGA:  12    -0.128544538006E+04   -0.31727E-05   -0.40304E-05  8540   0.728E-05 0.113E-04
  36 F= -.12854454E+04 E0= -.12854454E+04  d E =-.249838E-01  mag=   126.0000
       N       E                     dE             d eps       ncg     rms          ort
SDA:   1    -0.128507176684E+04    0.37361E+00    0.00000E+00  8540   0.102E+01 0.000E+00
CGA:   2    -0.128533026654E+04   -0.25850E+00   -0.25851E+00  8540   0.498E+00 0.547E-03
CGA:   3    -0.128543438278E+04   -0.10412E+00   -0.10407E+00  8540   0.903E-01-0.855E-03
CGA:   4    -0.128545306491E+04   -0.18682E-01   -0.18674E-01  8540   0.162E-01-0.159E-03
CGA:   5    -0.128545665106E+04   -0.35862E-02   -0.35841E-02  8540   0.370E-02-0.606E-04
CGA:   6    -0.128545757579E+04   -0.92473E-03   -0.92440E-03  8540   0.975E-03-0.516E-04
CGA:   7    -0.128545783381E+04   -0.25802E-03   -0.25769E-03  8540   0.280E-03 0.308E-04
CGA:   8    -0.128545791182E+04   -0.78011E-04   -0.77506E-04  8540   0.851E-04 0.489E-04
CGA:   9    -0.128545793569E+04   -0.23867E-04   -0.24375E-04  8540   0.308E-04 0.357E-04
CGA:  10    -0.128545794344E+04   -0.77482E-05   -0.89183E-05  8540   0.148E-04 0.218E-04
  37 F= -.12854579E+04 E0= -.12854579E+04  d E =-.125634E-01  mag=   126.0000
       N       E                     dE             d eps       ncg     rms          ort
SDA:   1    -0.127754654620E+04    0.79114E+01    0.00000E+00  8540   0.200E+02 0.000E+00
CGA:   2    -0.128306315322E+04   -0.55166E+01   -0.55161E+01  8540   0.101E+02 0.837E-02
CGA:   3    -0.128503565760E+04   -0.19725E+01   -0.19726E+01  8540   0.169E+01 0.945E-03
CGA:   4    -0.128538334033E+04   -0.34768E+00   -0.34781E+00  8540   0.304E+00 0.281E-02
CGA:   5    -0.128545097427E+04   -0.67634E-01   -0.67644E-01  8540   0.690E-01 0.271E-03
CGA:   6    -0.128546806417E+04   -0.17090E-01   -0.17090E-01  8540   0.179E-01 0.239E-04
CGA:   7    -0.128547305388E+04   -0.49897E-02   -0.49800E-02  8540   0.546E-02 0.323E-03
CGA:   8    -0.128547481415E+04   -0.17603E-02   -0.17410E-02  8540   0.190E-02 0.301E-03
CGA:   9    -0.128547548763E+04   -0.67348E-03   -0.65860E-03  8540   0.630E-03 0.197E-03
CGA:  10    -0.128547571958E+04   -0.23195E-03   -0.22473E-03  8540   0.222E-03 0.108E-03
CGA:  11    -0.128547580777E+04   -0.88182E-04   -0.83919E-04  8540   0.964E-04 0.671E-04
CGA:  12    -0.128547585112E+04   -0.43358E-04   -0.40378E-04  8540   0.547E-04 0.507E-04
CGA:  13    -0.128547586687E+04   -0.15742E-04   -0.15326E-04  8540   0.273E-04 0.292E-04
CGA:  14    -0.128547587794E+04   -0.11078E-04   -0.93991E-05  8540   0.199E-04 0.216E-04
CGA:  15    -0.128547588122E+04   -0.32752E-05   -0.42790E-05  8540   0.167E-04 0.179E-04
  38 F= -.12854759E+04 E0= -.12854759E+04  d E =-.179378E-01  mag=   126.0000
       N       E                     dE             d eps       ncg     rms          ort
SDA:   1    -0.126537718996E+04    0.20099E+02    0.00000E+00  8540   0.608E+02 0.000E+00
CGA:   2    -0.127770434021E+04   -0.12327E+02   -0.12355E+02  8540   0.242E+02 0.149E+00
CGA:   3    -0.128365619675E+04   -0.59519E+01   -0.59527E+01  8540   0.610E+01 0.288E-01
CGA:   4    -0.128493133099E+04   -0.12751E+01   -0.12750E+01  8540   0.109E+01-0.514E-02
CGA:   5    -0.128516794800E+04   -0.23662E+00   -0.23664E+00  8540   0.245E+00-0.560E-04
CGA:   6    -0.128522821409E+04   -0.60266E-01   -0.60275E-01  8540   0.627E-01 0.613E-03
CGA:   7    -0.128524560616E+04   -0.17392E-01   -0.17384E-01  8540   0.179E-01 0.442E-03
CGA:   8    -0.128525112774E+04   -0.55216E-02   -0.55378E-02  8540   0.605E-02-0.337E-03
CGA:   9    -0.128525318577E+04   -0.20580E-02   -0.20833E-02  8540   0.224E-02-0.286E-03
CGA:  10    -0.128525385412E+04   -0.66835E-03   -0.65787E-03  8540   0.653E-03 0.242E-03
CGA:  11    -0.128525407489E+04   -0.22077E-03   -0.21699E-03  8540   0.188E-03 0.119E-03
CGA:  12    -0.128525416851E+04   -0.93621E-04   -0.95996E-04  8540   0.112E-03-0.150E-04
CGA:  13    -0.128525420615E+04   -0.37645E-04   -0.36338E-04  8540   0.516E-04 0.170E-04
CGA:  14    -0.128525423022E+04   -0.24066E-04   -0.23482E-04  8540   0.278E-04 0.490E-05
CGA:  15    -0.128525424257E+04   -0.12353E-04   -0.23264E-04  8540   0.487E-04-0.231E-04
CGA:  16    -0.128525425083E+04   -0.82597E-05   -0.99908E-05  8540   0.917E-05 0.163E-04
CGA:  17    -0.128525417586E+04    0.74972E-04   -0.40376E-04  8540   0.289E-03-0.599E-04
CGA:  18    -0.128525425220E+04   -0.76336E-04   -0.84299E-04  8540   0.213E-04 0.298E-04
CGA:  19    -0.128525426007E+04   -0.78740E-05   -0.80959E-05  8540   0.215E-05 0.110E-05
  39 F= -.12852543E+04 E0= -.12852543E+04  d E =0.221621E+00  mag=   126.0000
       N       E                     dE             d eps       ncg     rms          ort
SDA:   1    -0.128097036539E+04    0.42839E+01    0.00000E+00  8540   0.140E+02 0.000E+00
CGA:   2    -0.128378706935E+04   -0.28167E+01   -0.28288E+01  8540   0.542E+01-0.805E-02
CGA:   3    -0.128511938073E+04   -0.13323E+01   -0.13335E+01  8540   0.136E+01 0.473E-02
CGA:   4    -0.128540834493E+04   -0.28896E+00   -0.28903E+00  8540   0.252E+00 0.326E-03
CGA:   5    -0.128546341323E+04   -0.55068E-01   -0.55016E-01  8540   0.560E-01-0.345E-03
CGA:   6    -0.128547745430E+04   -0.14041E-01   -0.13913E-01  8540   0.146E-01-0.632E-03
CGA:   7    -0.128548155462E+04   -0.41003E-02   -0.40794E-02  8540   0.419E-02-0.131E-03
CGA:   8    -0.128548276309E+04   -0.12085E-02   -0.12175E-02  8540   0.130E-02 0.607E-04
CGA:   9    -0.128548322634E+04   -0.46324E-03   -0.46102E-03  8540   0.473E-03-0.282E-04
CGA:  10    -0.128548341916E+04   -0.19282E-03   -0.19194E-03  8540   0.214E-03-0.715E-04
CGA:  11    -0.128548350361E+04   -0.84455E-04   -0.94559E-04  8540   0.154E-03-0.106E-03
CGA:  12    -0.128548353512E+04   -0.31507E-04   -0.30476E-04  8540   0.719E-04-0.282E-04
CGA:  13    -0.128548356328E+04   -0.28163E-04   -0.38800E-04  8540   0.946E-04-0.461E-04
CGA:  14    -0.128548359680E+04   -0.33519E-04   -0.32207E-04  8540   0.192E-04-0.131E-04
CGA:  15    -0.128548360418E+04   -0.73834E-05   -0.73721E-05  8540   0.624E-05 0.106E-05
  40 F= -.12854836E+04 E0= -.12854836E+04  d E =-.229344E+00  mag=   126.0000
       N       E                     dE             d eps       ncg     rms          ort
SDA:   1    -0.128472035730E+04    0.76324E+00    0.00000E+00  8540   0.243E+01 0.000E+00
CGA:   2    -0.128521252179E+04   -0.49216E+00   -0.49299E+00  8540   0.963E+00 0.745E-03
CGA:   3    -0.128544908697E+04   -0.23657E+00   -0.23669E+00  8540   0.242E+00 0.120E-03
CGA:   4    -0.128550025643E+04   -0.51169E-01   -0.51125E-01  8540   0.441E-01-0.229E-03
CGA:   5    -0.128550994413E+04   -0.96877E-02   -0.96622E-02  8540   0.984E-02-0.153E-03
CGA:   6    -0.128551241963E+04   -0.24755E-02   -0.24478E-02  8540   0.257E-02-0.192E-03
CGA:   7    -0.128551312443E+04   -0.70480E-03   -0.70245E-03  8540   0.726E-03-0.217E-04
CGA:   8    -0.128551332497E+04   -0.20055E-03   -0.20326E-03  8540   0.214E-03 0.266E-04
CGA:   9    -0.128551339662E+04   -0.71645E-04   -0.72302E-04  8540   0.711E-04 0.124E-04
CGA:  10    -0.128551342636E+04   -0.29744E-04   -0.29838E-04  8540   0.302E-04-0.460E-05
CGA:  11    -0.128551343886E+04   -0.12499E-04   -0.14048E-04  8540   0.186E-04-0.129E-04
CGA:  12    -0.128551344071E+04   -0.18539E-05   -0.22995E-05  8540   0.775E-05 0.265E-05
  41 F= -.12855134E+04 E0= -.12855134E+04  d E =-.298365E-01  mag=   126.0000
       N       E                     dE             d eps       ncg     rms          ort
SDA:   1    -0.128530067019E+04    0.21277E+00    0.00000E+00  8540   0.659E+00 0.000E+00
CGA:   2    -0.128544116059E+04   -0.14049E+00   -0.14064E+00  8540   0.283E+00 0.665E-03
CGA:   3    -0.128550878012E+04   -0.67620E-01   -0.67582E-01  8540   0.660E-01-0.433E-03
CGA:   4    -0.128552249775E+04   -0.13718E-01   -0.13673E-01  8540   0.117E-01-0.316E-03
CGA:   5    -0.128552508060E+04   -0.25828E-02   -0.25694E-02  8540   0.267E-02-0.114E-03
CGA:   6    -0.128552574418E+04   -0.66358E-03   -0.65914E-03  8540   0.698E-03-0.508E-04
CGA:   7    -0.128552592246E+04   -0.17828E-03   -0.18000E-03  8540   0.182E-03 0.243E-04
CGA:   8    -0.128552597497E+04   -0.52512E-04   -0.53178E-04  8540   0.541E-04 0.140E-04
CGA:   9    -0.128552599372E+04   -0.18746E-04   -0.18777E-04  8540   0.184E-04 0.589E-05
CGA:  10    -0.128552600128E+04   -0.75674E-05   -0.75255E-05  8540   0.732E-05 0.101E-05
  42 F= -.12855260E+04 E0= -.12855260E+04  d E =-.125606E-01  mag=   126.0000
       N       E                     dE             d eps       ncg     rms          ort
SDA:   1    -0.128520373941E+04    0.32225E+00    0.00000E+00  8540   0.938E+00 0.000E+00
CGA:   2    -0.128541132839E+04   -0.20759E+00   -0.20777E+00  8540   0.424E+00 0.107E-02
CGA:   3    -0.128550949405E+04   -0.98166E-01   -0.98135E-01  8540   0.920E-01-0.378E-03
CGA:   4    -0.128552846251E+04   -0.18968E-01   -0.18920E-01  8540   0.161E-01-0.397E-03
CGA:   5    -0.128553205316E+04   -0.35907E-02   -0.35783E-02  8540   0.368E-02-0.130E-03
CGA:   6    -0.128553294332E+04   -0.89016E-03   -0.89129E-03  8540   0.904E-03 0.143E-04
CGA:   7    -0.128553317232E+04   -0.22900E-03   -0.23276E-03  8540   0.231E-03 0.648E-04
CGA:   8    -0.128553324139E+04   -0.69071E-04   -0.69829E-04  8540   0.699E-04 0.258E-04
CGA:   9    -0.128553326429E+04   -0.22897E-04   -0.23081E-04  8540   0.228E-04 0.140E-04
CGA:  10    -0.128553326988E+04   -0.55946E-05   -0.64207E-05  8540   0.839E-05 0.110E-04
  43 F= -.12855333E+04 E0= -.12855333E+04  d E =-.726860E-02  mag=   126.0000
       N       E                     dE             d eps       ncg     rms          ort
SDA:   1    -0.128531985275E+04    0.21341E+00    0.00000E+00  8540   0.585E+00 0.000E+00
CGA:   2    -0.128545974411E+04   -0.13989E+00   -0.13994E+00  8540   0.281E+00 0.503E-03
CGA:   3    -0.128552083552E+04   -0.61091E-01   -0.61108E-01  8540   0.540E-01 0.203E-03
CGA:   4    -0.128553191034E+04   -0.11075E-01   -0.11071E-01  8540   0.956E-02-0.505E-04
CGA:   5    -0.128553405258E+04   -0.21422E-02   -0.21386E-02  8540   0.219E-02-0.606E-04
CGA:   6    -0.128553457074E+04   -0.51816E-03   -0.52070E-03  8540   0.520E-03 0.563E-04
CGA:   7    -0.128553469568E+04   -0.12494E-03   -0.12813E-03  8540   0.133E-03 0.763E-04
CGA:   8    -0.128553473336E+04   -0.37679E-04   -0.38613E-04  8540   0.423E-04 0.351E-04
CGA:   9    -0.128553474580E+04   -0.12434E-04   -0.13062E-04  8540   0.161E-04 0.186E-04
CGA:  10    -0.128553474809E+04   -0.22981E-05   -0.38129E-05  8540   0.782E-05 0.135E-04
  44 F= -.12855347E+04 E0= -.12855347E+04  d E =-.147821E-02  mag=   126.0000
       N       E                     dE             d eps       ncg     rms          ort
SDA:   1    -0.128329415836E+04    0.22406E+01    0.00000E+00  8540   0.563E+01 0.000E+00
CGA:   2    -0.128484134571E+04   -0.15472E+01   -0.15471E+01  8540   0.284E+01 0.163E-02
CGA:   3    -0.128540073832E+04   -0.55939E+00   -0.55944E+00  8540   0.466E+00 0.519E-03
CGA:   4    -0.128549732550E+04   -0.96587E-01   -0.96602E-01  8540   0.853E-01 0.287E-03
CGA:   5    -0.128551634652E+04   -0.19021E-01   -0.19017E-01  8540   0.192E-01-0.132E-03
CGA:   6    -0.128552102614E+04   -0.46796E-02   -0.46823E-02  8540   0.475E-02 0.220E-03
CGA:   7    -0.128552231134E+04   -0.12852E-02   -0.12819E-02  8540   0.137E-02 0.287E-03
CGA:   8    -0.128552277356E+04   -0.46223E-03   -0.45766E-03  8540   0.488E-03 0.761E-04
CGA:   9    -0.128552294891E+04   -0.17535E-03   -0.17293E-03  8540   0.164E-03 0.313E-04
CGA:  10    -0.128552299363E+04   -0.44721E-04   -0.44946E-04  8540   0.483E-04 0.484E-04
CGA:  11    -0.128552300338E+04   -0.97471E-05   -0.11953E-04  8540   0.208E-04 0.308E-04
  45 F= -.12855230E+04 E0= -.12855230E+04  d E =0.117447E-01  mag=   126.0000
       N       E                     dE             d eps       ncg     rms          ort
SDA:   1    -0.128418927588E+04    0.13337E+01    0.00000E+00  8540   0.369E+01 0.000E+00
CGA:   2    -0.128502961498E+04   -0.84034E+00   -0.84044E+00  8540   0.174E+01 0.141E-02
CGA:   3    -0.128542480208E+04   -0.39519E+00   -0.39524E+00  8540   0.345E+00 0.119E-02
CGA:   4    -0.128549480558E+04   -0.70003E-01   -0.70002E-01  8540   0.617E-01-0.107E-03
CGA:   5    -0.128550875357E+04   -0.13948E-01   -0.13946E-01  8540   0.146E-01-0.101E-03
CGA:   6    -0.128551228706E+04   -0.35335E-02   -0.35338E-02  8540   0.356E-02 0.490E-04
CGA:   7    -0.128551327008E+04   -0.98302E-03   -0.98094E-03  8540   0.101E-02 0.781E-04
CGA:   8    -0.128551357901E+04   -0.30893E-03   -0.30652E-03  8540   0.323E-03 0.511E-04
CGA:   9    -0.128551370930E+04   -0.13028E-03   -0.13625E-03  8540   0.152E-03-0.401E-04
CGA:  10    -0.128551375585E+04   -0.46554E-04   -0.47441E-04  8540   0.556E-04-0.919E-05
CGA:  11    -0.128551376882E+04   -0.12967E-04   -0.13150E-04  8540   0.175E-04 0.142E-04
CGA:  12    -0.128551377472E+04   -0.59031E-05   -0.58809E-05  8540   0.830E-05 0.580E-05
  46 F= -.12855138E+04 E0= -.12855138E+04  d E =0.922866E-02  mag=   126.0000
       N       E                     dE             d eps       ncg     rms          ort
SDA:   1    -0.128479258140E+04    0.72119E+00    0.00000E+00  8540   0.201E+01 0.000E+00
CGA:   2    -0.128527075377E+04   -0.47817E+00   -0.47826E+00  8540   0.938E+00 0.161E-02
CGA:   3    -0.128547804661E+04   -0.20729E+00   -0.20730E+00  8540   0.186E+00-0.241E-03
CGA:   4    -0.128551636283E+04   -0.38316E-01   -0.38320E-01  8540   0.334E-01 0.331E-04
CGA:   5    -0.128552367642E+04   -0.73136E-02   -0.73158E-02  8540   0.754E-02 0.375E-04
CGA:   6    -0.128552562424E+04   -0.19478E-02   -0.19467E-02  8540   0.208E-02-0.217E-03
CGA:   7    -0.128552620987E+04   -0.58564E-03   -0.59020E-03  8540   0.663E-03-0.151E-03
CGA:   8    -0.128552640092E+04   -0.19105E-03   -0.19312E-03  8540   0.219E-03-0.415E-04
CGA:   9    -0.128552647343E+04   -0.72505E-04   -0.76105E-04  8540   0.853E-04-0.347E-04
CGA:  10    -0.128552649271E+04   -0.19279E-04   -0.45445E-04  8540   0.128E-03-0.725E-04
CGA:  11    -0.128552652725E+04   -0.34542E-04   -0.33863E-04  8540   0.267E-04-0.261E-04
CGA:  12    -0.128552653512E+04   -0.78661E-05   -0.85408E-05  8540   0.865E-05-0.598E-05
  47 F= -.12855265E+04 E0= -.12855265E+04  d E =-.127604E-01  mag=   126.0000
       N       E                     dE             d eps       ncg     rms          ort
SDA:   1    -0.128512245356E+04    0.40407E+00    0.00000E+00  8540   0.103E+01 0.000E+00
CGA:   2    -0.128539791900E+04   -0.27547E+00   -0.27545E+00  8540   0.515E+00-0.902E-03
CGA:   3    -0.128550182477E+04   -0.10391E+00   -0.10390E+00  8540   0.891E-01-0.132E-03
CGA:   4    -0.128552013967E+04   -0.18315E-01   -0.18332E-01  8540   0.160E-01 0.197E-03
CGA:   5    -0.128552366622E+04   -0.35266E-02   -0.35294E-02  8540   0.361E-02 0.400E-04
CGA:   6    -0.128552458881E+04   -0.92259E-03   -0.92028E-03  8540   0.964E-03-0.869E-04
CGA:   7    -0.128552486615E+04   -0.27734E-03   -0.27851E-03  8540   0.321E-03-0.718E-04
CGA:   8    -0.128552495273E+04   -0.86578E-04   -0.86485E-04  8540   0.960E-04 0.881E-05
CGA:   9    -0.128552498953E+04   -0.36800E-04   -0.38787E-04  8540   0.426E-04-0.177E-04
CGA:  10    -0.128552498272E+04    0.68124E-05   -0.30215E-04  8540   0.152E-03-0.634E-04
CGA:  11    -0.128552501627E+04   -0.33548E-04   -0.33586E-04  8540   0.175E-04 0.380E-06
CGA:  12    -0.128552502364E+04   -0.73781E-05   -0.78700E-05  8540   0.732E-05-0.357E-05
  48 F= -.12855250E+04 E0= -.12855250E+04  d E =0.151147E-02  mag=   126.0000
       N       E                     dE             d eps       ncg     rms          ort
SDA:   1    -0.128410767161E+04    0.14173E+01    0.00000E+00  8540   0.344E+01 0.000E+00
CGA:   2    -0.128511119588E+04   -0.10035E+01   -0.10035E+01  8540   0.170E+01-0.146E-02
CGA:   3    -0.128543417412E+04   -0.32298E+00   -0.32305E+00  8540   0.275E+00 0.277E-03
CGA:   4    -0.128549100301E+04   -0.56829E-01   -0.56886E-01  8540   0.503E-01 0.512E-03
CGA:   5    -0.128550220626E+04   -0.11203E-01   -0.11202E-01  8540   0.113E-01-0.207E-04
CGA:   6    -0.128550501563E+04   -0.28094E-02   -0.28023E-02  8540   0.292E-02-0.137E-03
CGA:   7    -0.128550583520E+04   -0.81957E-03   -0.81858E-03  8540   0.916E-03-0.673E-04
CGA:   8    -0.128550610896E+04   -0.27376E-03   -0.27347E-03  8540   0.295E-03 0.356E-04
CGA:   9    -0.128550621943E+04   -0.11047E-03   -0.11151E-03  8540   0.107E-03-0.159E-04
CGA:  10    -0.128550625973E+04   -0.40299E-04   -0.47924E-04  8540   0.697E-04-0.442E-04
CGA:  11    -0.128550627462E+04   -0.14889E-04   -0.18747E-04  8540   0.421E-04-0.259E-04
CGA:  12    -0.128550628535E+04   -0.10724E-04   -0.15187E-04  8540   0.360E-04-0.174E-04
CGA:  13    -0.128550630154E+04   -0.16192E-04    0.21542E-04  8540   0.174E-04 0.302E-05
CGA:  14    -0.128550630856E+04   -0.70176E-05   -0.70855E-05  8540   0.828E-05-0.152E-05
CGA:  15    -0.128550625806E+04    0.50494E-04   -0.27196E-04  8540   0.180E-03-0.373E-04
CGA:  16    -0.128550630481E+04   -0.46751E-04   -0.50058E-04  8540   0.273E-04 0.100E-04
CGA:  17    -0.128550631321E+04   -0.84016E-05   -0.94271E-05  8540   0.737E-05 0.390E-05
CGA:  18    -0.128550630583E+04    0.73840E-05   -0.12892E-04  8540   0.786E-04-0.213E-04
CGA:  19    -0.128550630570E+04    0.13437E-06   -0.12587E-04  8540   0.146E-04 0.274E-04
  49 F= -.12855063E+04 E0= -.12855063E+04  d E =0.187179E-01  mag=   126.0000
       N       E                     dE             d eps       ncg     rms          ort
SDA:   1    -0.126236911252E+04    0.23137E+02    0.00000E+00  8540   0.681E+02 0.000E+00
CGA:   2    -0.127646577550E+04   -0.14097E+02   -0.14221E+02  8540   0.280E+02 0.571E-01
CGA:   3    -0.128330105983E+04   -0.68353E+01   -0.68483E+01  8540   0.663E+01 0.785E-01
CGA:   4    -0.128466077423E+04   -0.13597E+01   -0.13583E+01  8540   0.118E+01 0.603E-02
CGA:   5    -0.128492326187E+04   -0.26249E+00   -0.26241E+00  8540   0.277E+00-0.902E-03
CGA:   6    -0.128499091712E+04   -0.67655E-01   -0.67762E-01  8540   0.697E-01 0.297E-03
CGA:   7    -0.128501032417E+04   -0.19407E-01   -0.19500E-01  8540   0.202E-01 0.403E-03
CGA:   8    -0.128501635113E+04   -0.60270E-02   -0.60941E-02  8540   0.638E-02 0.345E-03
CGA:   9    -0.128501859462E+04   -0.22435E-02   -0.22423E-02  8540   0.224E-02-0.123E-04
CGA:  10    -0.128501930289E+04   -0.70827E-03   -0.73483E-03  8540   0.687E-03 0.183E-03
CGA:  11    -0.128501949242E+04   -0.18954E-03   -0.21619E-03  8540   0.193E-03 0.151E-03
CGA:  12    -0.128501955285E+04   -0.60429E-04   -0.70777E-04  8540   0.801E-04 0.658E-04
CGA:  13    -0.128501956862E+04   -0.15771E-04   -0.26873E-04  8540   0.425E-04 0.554E-04
CGA:  14    -0.128501957569E+04   -0.70700E-05   -0.11534E-04  8540   0.230E-04 0.265E-04
  50 F= -.12850196E+04 E0= -.12850196E+04  d E =0.486730E+00  mag=   126.0000
       N       E                     dE             d eps       ncg     rms          ort
SDA:   1    -0.127332217967E+04    0.11697E+02    0.00000E+00  8540   0.365E+02 0.000E+00
CGA:   2    -0.128087137063E+04   -0.75492E+01   -0.75837E+01  8540   0.150E+02-0.123E-01
CGA:   3    -0.128451516794E+04   -0.36438E+01   -0.36461E+01  8540   0.352E+01 0.123E-01
CGA:   4    -0.128524649055E+04   -0.73132E+00   -0.73112E+00  8540   0.638E+00-0.149E-02
CGA:   5    -0.128538787191E+04   -0.14138E+00   -0.14134E+00  8540   0.148E+00-0.639E-03
CGA:   6    -0.128542457187E+04   -0.36700E-01   -0.36623E-01  8540   0.388E-01-0.605E-03
CGA:   7    -0.128543552263E+04   -0.10951E-01   -0.10943E-01  8540   0.115E-01-0.832E-04
CGA:   8    -0.128543904596E+04   -0.35233E-02   -0.35129E-02  8540   0.376E-02-0.159E-03
CGA:   9    -0.128544031980E+04   -0.12738E-02   -0.12709E-02  8540   0.130E-02-0.106E-03
CGA:  10    -0.128544073676E+04   -0.41696E-03   -0.41985E-03  8540   0.398E-03 0.749E-04
CGA:  11    -0.128544090791E+04   -0.17116E-03   -0.17357E-03  8540   0.170E-03-0.543E-04
CGA:  12    -0.128544096678E+04   -0.58863E-04   -0.58792E-04  8540   0.732E-04 0.200E-05
CGA:  13    -0.128544100597E+04   -0.39194E-04   -0.43317E-04  8540   0.602E-04-0.196E-04
CGA:  14    -0.128544102742E+04   -0.21454E-04   -0.22154E-04  8540   0.383E-04-0.608E-05
CGA:  15    -0.128544103648E+04   -0.90530E-05   -0.10006E-04  8540   0.160E-04 0.971E-05
CGA:  16    -0.128544104591E+04   -0.94362E-05   -0.10443E-04  8540   0.156E-04-0.736E-05
  51 F= -.12854410E+04 E0= -.12854410E+04  d E =-.421470E+00  mag=   126.0000
       N       E                     dE             d eps       ncg     rms          ort
SDA:   1    -0.128531597269E+04    0.12506E+00    0.00000E+00  8540   0.389E+00 0.000E+00
CGA:   2    -0.128540051044E+04   -0.84538E-01   -0.84615E-01  8540   0.172E+00 0.261E-03
CGA:   3    -0.128544094926E+04   -0.40439E-01   -0.40418E-01  8540   0.378E-01-0.224E-03
CGA:   4    -0.128544873568E+04   -0.77864E-02   -0.77545E-02  8540   0.681E-02-0.202E-03
CGA:   5    -0.128545022678E+04   -0.14911E-02   -0.14932E-02  8540   0.156E-02 0.129E-04
CGA:   6    -0.128545060070E+04   -0.37392E-03   -0.37708E-03  8540   0.381E-03 0.276E-04
CGA:   7    -0.128545071666E+04   -0.11596E-03   -0.11493E-03  8540   0.125E-03-0.200E-04
CGA:   8    -0.128545076320E+04   -0.46537E-04   -0.54504E-04  8540   0.118E-03-0.688E-04
CGA:   9    -0.128545078882E+04   -0.25619E-04   -0.24606E-04  8540   0.185E-04-0.712E-05
CGA:  10    -0.128545079424E+04   -0.54230E-05   -0.11491E-04  8540   0.419E-04-0.192E-04
CGA:  11    -0.128545080877E+04   -0.14532E-04   -0.13525E-04  8540   0.262E-04-0.269E-04
CGA:  12    -0.128545081253E+04   -0.37554E-05   -0.42366E-05  8540   0.795E-06 0.244E-05
  52 F= -.12854508E+04 E0= -.12854508E+04  d E =-.976662E-02  mag=   126.0000
       N       E                     dE             d eps       ncg     rms          ort
SDA:   1    -0.128467648121E+04    0.77433E+00    0.00000E+00  8540   0.214E+01 0.000E+00
CGA:   2    -0.128518037762E+04   -0.50390E+00   -0.50412E+00  8540   0.103E+01 0.828E-03
CGA:   3    -0.128540766861E+04   -0.22729E+00   -0.22726E+00  8540   0.200E+00-0.520E-03
CGA:   4    -0.128544842496E+04   -0.40756E-01   -0.40693E-01  8540   0.355E-01-0.494E-03
CGA:   5    -0.128545628604E+04   -0.78611E-02   -0.78745E-02  8540   0.821E-02 0.113E-03
CGA:   6    -0.128545828496E+04   -0.19989E-02   -0.20070E-02  8540   0.203E-02 0.972E-04
CGA:   7    -0.128545886935E+04   -0.58439E-03   -0.58355E-03  8540   0.622E-03-0.236E-04
CGA:   8    -0.128545907978E+04   -0.21043E-03   -0.21259E-03  8540   0.257E-03-0.802E-04
CGA:   9    -0.128545916777E+04   -0.87988E-04   -0.10977E-03  8540   0.210E-03-0.129E-03
CGA:  10    -0.128545920076E+04   -0.32986E-04   -0.32274E-04  8540   0.861E-04-0.330E-04
CGA:  11    -0.128545922744E+04   -0.26686E-04   -0.34475E-04  8540   0.907E-04-0.530E-04
CGA:  12    -0.128545925989E+04   -0.32443E-04   -0.34152E-04  8540   0.509E-04-0.409E-04
CGA:  13    -0.128545926779E+04   -0.78989E-05   -0.24234E-04  8540   0.733E-04-0.309E-04
CGA:  14    -0.128545929321E+04   -0.25421E-04   -0.24729E-04  8540   0.218E-04-0.264E-04
CGA:  15    -0.128545929367E+04   -0.46265E-06   -0.20251E-05  8540   0.784E-05 0.721E-05
  53 F= -.12854593E+04 E0= -.12854593E+04  d E =-.848114E-02  mag=   126.0000
       N       E                     dE             d eps       ncg     rms          ort
SDA:   1    -0.128528194437E+04    0.17735E+00    0.00000E+00  8540   0.460E+00 0.000E+00
CGA:   2    -0.128540101424E+04   -0.11907E+00   -0.11912E+00  8540   0.232E+00 0.409E-03
CGA:   3    -0.128544908202E+04   -0.48068E-01   -0.48016E-01  8540   0.405E-01-0.429E-03
CGA:   4    -0.128545737184E+04   -0.82898E-02   -0.82627E-02  8540   0.729E-02-0.222E-03
CGA:   5    -0.128545898067E+04   -0.16088E-02   -0.16132E-02  8540   0.165E-02 0.411E-04
CGA:   6    -0.128545938253E+04   -0.40186E-03   -0.40271E-03  8540   0.411E-03 0.110E-04
[...]
  89 F= -.12853111E+04 E0= -.12853111E+04  d E =0.807723E-01  mag=   126.0000
       N       E                     dE             d eps       ncg     rms          ort
SDA:   1    -0.124358798847E+04    0.41723E+02    0.00000E+00  8540   0.111E+03 0.000E+00
CGA:   2    -0.127088710060E+04   -0.27299E+02   -0.27368E+02  8540   0.536E+02 0.633E-01
CGA:   3    -0.128252281120E+04   -0.11636E+02   -0.11642E+02  8540   0.967E+01 0.778E-01
CGA:   4    -0.128450776336E+04   -0.19850E+01   -0.19870E+01  8540   0.179E+01 0.733E-02
CGA:   5    -0.128490944187E+04   -0.40168E+00   -0.40192E+00  8540   0.428E+00 0.697E-03
CGA:   6    -0.128501457225E+04   -0.10513E+00   -0.10492E+00  8540   0.113E+00-0.214E-02
CGA:   7    -0.128504562819E+04   -0.31056E-01   -0.31098E-01  8540   0.347E-01 0.616E-03
CGA:   8    -0.128505599901E+04   -0.10371E-01   -0.10419E-01  8540   0.116E-01 0.113E-02
CGA:   9    -0.128506000117E+04   -0.40022E-02   -0.40035E-02  8540   0.378E-02 0.373E-03
CGA:  10    -0.128506127926E+04   -0.12781E-02   -0.12807E-02  8540   0.115E-02 0.255E-03
CGA:  11    -0.128506166071E+04   -0.38145E-03   -0.38585E-03  8540   0.357E-03 0.189E-03
CGA:  12    -0.128506177581E+04   -0.11510E-03   -0.12135E-03  8540   0.151E-03 0.140E-03
CGA:  13    -0.128506181155E+04   -0.35745E-04   -0.48304E-04  8540   0.865E-04 0.120E-03
CGA:  14    -0.128506183168E+04   -0.20131E-04   -0.23456E-04  8540   0.506E-04 0.574E-04
CGA:  15    -0.128506184037E+04   -0.86905E-05   -0.12353E-04  8540   0.405E-04 0.445E-04
  90 F= -.12850618E+04 E0= -.12850618E+04  d E =0.249249E+00  mag=   126.0000
       N       E                     dE             d eps       ncg     rms          ort
SDA:   1    -0.127065735029E+04    0.14404E+02    0.00000E+00  8540   0.427E+02 0.000E+00
CGA:   2    -0.127983335303E+04   -0.91760E+01   -0.91969E+01  8540   0.184E+02 0.514E-01
CGA:   3    -0.128416274194E+04   -0.43294E+01   -0.43306E+01  8540   0.418E+01 0.914E-02
CGA:   4    -0.128501485215E+04   -0.85211E+00   -0.85184E+00  8540   0.775E+00-0.401E-02
CGA:   5    -0.128518451673E+04   -0.16966E+00   -0.16974E+00  8540   0.180E+00 0.554E-03
CGA:   6    -0.128522748040E+04   -0.42964E-01   -0.43010E-01  8540   0.455E-01 0.724E-03
CGA:   7    -0.128523992420E+04   -0.12444E-01   -0.12462E-01  8540   0.133E-01 0.791E-03
CGA:   8    -0.128524398530E+04   -0.40611E-02   -0.40607E-02  8540   0.452E-02 0.650E-04
CGA:   9    -0.128524557351E+04   -0.15882E-02   -0.15908E-02  8540   0.176E-02-0.479E-04
CGA:  10    -0.128524608985E+04   -0.51635E-03   -0.51671E-03  8540   0.561E-03 0.317E-03
CGA:  11    -0.128524626869E+04   -0.17884E-03   -0.18289E-03  8540   0.212E-03 0.194E-03
CGA:  12    -0.128524634085E+04   -0.72157E-04   -0.75702E-04  8540   0.109E-03 0.117E-03
CGA:  13    -0.128524637679E+04   -0.35942E-04   -0.34621E-04  8540   0.576E-04 0.560E-04
CGA:  14    -0.128524639249E+04   -0.15697E-04   -0.16292E-04  8540   0.434E-04 0.456E-04
CGA:  15    -0.128524639765E+04   -0.51574E-05   -0.88018E-05  8540   0.369E-04 0.394E-04
  91 F= -.12852464E+04 E0= -.12852464E+04  d E =-.184557E+00  mag=   126.0000
       N       E                     dE             d eps       ncg     rms          ort
SDA:   1    -0.128048757681E+04    0.47588E+01    0.00000E+00  8540   0.121E+02 0.000E+00
CGA:   2    -0.128366598121E+04   -0.31784E+01   -0.31787E+01  8540   0.615E+01 0.727E-02
CGA:   3    -0.128492915841E+04   -0.12632E+01   -0.12630E+01  8540   0.104E+01-0.410E-02
CGA:   4    -0.128513886295E+04   -0.20970E+00   -0.20957E+00  8540   0.190E+00-0.182E-02
CGA:   5    -0.128518112724E+04   -0.42264E-01   -0.42324E-01  8540   0.439E-01 0.105E-02
CGA:   6    -0.128519154120E+04   -0.10414E-01   -0.10452E-01  8540   0.107E-01 0.973E-03
CGA:   7    -0.128519457845E+04   -0.30372E-02   -0.30365E-02  8540   0.337E-02 0.199E-03
CGA:   8    -0.128519572512E+04   -0.11467E-02   -0.11571E-02  8540   0.144E-02-0.165E-03
CGA:   9    -0.128519620166E+04   -0.47653E-03   -0.47841E-03  8540   0.548E-03-0.252E-04
CGA:  10    -0.128519635091E+04   -0.14925E-03   -0.14955E-03  8540   0.180E-03 0.123E-03
CGA:  11    -0.128519641330E+04   -0.62395E-04   -0.62237E-04  8540   0.836E-04 0.677E-04
CGA:  12    -0.128519645762E+04   -0.44320E-04   -0.41762E-04  8540   0.571E-04 0.309E-04
CGA:  13    -0.128519648986E+04   -0.32241E-04   -0.29576E-04  8540   0.391E-04 0.287E-04
CGA:  14    -0.128519650032E+04   -0.10455E-04   -0.10718E-04  8540   0.149E-04 0.180E-04
CGA:  15    -0.128519650423E+04   -0.39115E-05   -0.48641E-05  8540   0.102E-04 0.146E-04
  92 F= -.12851965E+04 E0= -.12851965E+04  d E =0.498934E-01  mag=   126.0000
       N       E                     dE             d eps       ncg     rms          ort
SDA:   1    -0.124396649183E+04    0.41230E+02    0.00000E+00  8540   0.104E+03 0.000E+00
CGA:   2    -0.127222653760E+04   -0.28260E+02   -0.28263E+02  8540   0.519E+02 0.102E+00
CGA:   3    -0.128275906985E+04   -0.10533E+02   -0.10536E+02  8540   0.832E+01 0.215E-01
CGA:   4    -0.128448107456E+04   -0.17220E+01   -0.17223E+01  8540   0.156E+01 0.590E-02
CGA:   5    -0.128483205829E+04   -0.35098E+00   -0.35128E+00  8540   0.371E+00 0.510E-02
CGA:   6    -0.128492297916E+04   -0.90921E-01   -0.90967E-01  8540   0.982E-01 0.139E-02
CGA:   7    -0.128495047352E+04   -0.27494E-01   -0.27488E-01  8540   0.325E-01 0.107E-02
CGA:   8    -0.128496081496E+04   -0.10341E-01   -0.10315E-01  8540   0.120E-01 0.657E-03
CGA:   9    -0.128496502388E+04   -0.42089E-02   -0.41858E-02  8540   0.410E-02 0.359E-03
CGA:  10    -0.128496631833E+04   -0.12944E-02   -0.12789E-02  8540   0.125E-02 0.643E-03
CGA:  11    -0.128496677615E+04   -0.45782E-03   -0.44736E-03  8540   0.514E-03 0.364E-03
CGA:  12    -0.128496697138E+04   -0.19523E-03   -0.19269E-03  8540   0.284E-03 0.280E-03
CGA:  13    -0.128496707002E+04   -0.98646E-04   -0.92401E-04  8540   0.149E-03 0.144E-03
CGA:  14    -0.128496709574E+04   -0.25710E-04   -0.33249E-04  8540   0.116E-03 0.124E-03
CGA:  15    -0.128496712649E+04   -0.30758E-04   -0.31667E-04  8540   0.955E-04 0.104E-03
CGA:  16    -0.128496713490E+04   -0.84043E-05   -0.17268E-04  8540   0.840E-04 0.888E-04
CGA:  17    -0.128496714718E+04   -0.12279E-04   -0.17519E-04  8540   0.730E-04 0.781E-04
CGA:  18    -0.128496715256E+04   -0.53837E-05   -0.12418E-04  8540   0.652E-04 0.689E-04
CGA:  19    -0.128496715717E+04   -0.46132E-05   -0.10842E-04  8540   0.585E-04 0.617E-04
  93 F= -.12849672E+04 E0= -.12849670E+04  d E =0.229347E+00  mag=   126.0000
       N       E                     dE             d eps       ncg     rms          ort
SDA:   1    -0.124820874482E+04    0.36758E+02    0.00000E+00  8540   0.208E+03 0.000E+00
CGA:   2    -0.126849116015E+04   -0.20282E+02   -0.32628E+02  8540   0.443E+02 0.193E+02
CGA:   3    -0.127902187774E+04   -0.10531E+02   -0.76085E+01  8540   0.118E+02 0.197E+02
CGA:   4    -0.127833932941E+04    0.68255E+00   -0.17567E+01  8540   0.129E+03-0.228E+02
CGA:   5    -0.128089629897E+04   -0.25570E+01   -0.14726E+02  8540   0.163E+02-0.134E+02
CGA:   6    -0.128259837322E+04   -0.17021E+01   -0.10328E+01  8540   0.659E+01 0.948E+01
CGA:   7    -0.128307938151E+04   -0.48101E+00   -0.26323E+00  8540   0.452E+01 0.568E+01
CGA:   8    -0.128338226181E+04   -0.30288E+00   -0.13745E+00  8540   0.468E+01 0.592E+01
CGA:   9    -0.128368407176E+04   -0.30181E+00   -0.14552E+00  8540   0.251E+01 0.415E+01
CGA:  10    -0.128383594537E+04   -0.15187E+00   -0.10332E+00  8540   0.171E+01 0.994E+00
CGA:  11    -0.128432899149E+04   -0.49305E+00   -0.49673E+00  8540   0.117E+02-0.112E+00
CGA:  12    -0.128458401247E+04   -0.25502E+00   -0.27590E+00  8540   0.345E+01-0.772E+00
CGA:  13    -0.128455364837E+04    0.30364E-01   -0.10515E+00  8540   0.186E+01-0.358E+01
CGA:  14    -0.128461088693E+04   -0.57239E-01   -0.47870E-01  8540   0.394E+00 0.330E+00
CGA:  15    -0.128466732414E+04   -0.56437E-01   -0.57320E-01  8540   0.110E+01 0.128E-01
CGA:  16    -0.128470156961E+04   -0.34245E-01   -0.43844E-01  8540   0.208E+00-0.202E+00
CGA:  17    -0.128471736453E+04   -0.15795E-01   -0.16220E-01  8540   0.408E+00-0.575E-02
CGA:  18    -0.128474350164E+04   -0.26137E-01   -0.25370E-01  8540   0.374E-01 0.104E-01
CGA:  19    -0.128474727869E+04   -0.37771E-02   -0.37977E-02  8540   0.709E-01 0.134E-02
CGA:  20    -0.128475190179E+04   -0.46231E-02   -0.45145E-02  8540   0.118E-01-0.135E-02
CGA:  21    -0.128475511045E+04   -0.32087E-02   -0.29292E-02  8540   0.181E-01 0.254E-02
CGA:  22    -0.128475604319E+04   -0.93273E-03   -0.11311E-02  8540   0.127E-01 0.219E-02
CGA:  23    -0.128475843506E+04   -0.23919E-02   -0.23438E-02  8540   0.655E-02 0.253E-02
CGA:  24    -0.128475934732E+04   -0.91227E-03   -0.95641E-03  8540   0.133E-01 0.175E-02
CGA:  25    -0.128476074379E+04   -0.13965E-02   -0.14400E-02  8540   0.622E-02 0.967E-03
CGA:  26    -0.128476114430E+04   -0.40051E-03   -0.49538E-03  8540   0.512E-02 0.128E-02
CGA:  27    -0.128476186615E+04   -0.72185E-03   -0.74158E-03  8540   0.510E-02 0.114E-02
CGA:  28    -0.128476219640E+04   -0.33025E-03   -0.42995E-03  8540   0.318E-02 0.131E-02
CGA:  29    -0.128476265867E+04   -0.46226E-03   -0.47302E-03  8540   0.340E-02 0.699E-03
CGA:  30    -0.128476285702E+04   -0.19835E-03   -0.25537E-03  8540   0.141E-02 0.756E-03
CGA:  31    -0.128476310566E+04   -0.24864E-03   -0.24753E-03  8540   0.297E-02 0.743E-04
CGA:  32    -0.128476325643E+04   -0.15077E-03   -0.18786E-03  8540   0.758E-03 0.492E-03
CGA:  33    -0.128476339601E+04   -0.13958E-03   -0.13026E-03  8540   0.339E-03 0.445E-03
CGA:  34    -0.128476345138E+04   -0.55367E-04   -0.50631E-04  8540   0.167E-03 0.218E-03
CGA:  35    -0.128476349844E+04   -0.47065E-04   -0.36529E-04  8540   0.110E-03 0.116E-03
CGA:  36    -0.128476350197E+04   -0.35260E-05   -0.74764E-05  8540   0.139E-03 0.603E-04
CGA:  37    -0.128476351666E+04   -0.14695E-04   -0.12176E-04  8540   0.449E-03-0.602E-04
CGA:  38    -0.128476354159E+04   -0.24926E-04   -0.26723E-04  8540   0.151E-02 0.771E-04
CGA:  39    -0.128476358811E+04   -0.46519E-04   -0.73838E-04  8540   0.627E-04 0.346E-03
CGA:  40    -0.128476359328E+04   -0.51757E-05   -0.84687E-05  8540   0.413E-02-0.938E-04
CGA:  41    -0.128476366672E+04   -0.73440E-04   -0.93645E-04  8540   0.414E-04 0.248E-03
CGA:  42    -0.128476366560E+04    0.11250E-05   -0.16800E-05  8540   0.363E-04 0.160E-04
  94 F= -.12847637E+04 E0= -.12847532E+04  d E =0.203492E+00  mag=   126.0000
       N       E                     dE             d eps       ncg     rms          ort
SDA:   1    -0.127260630208E+04    0.12157E+02    0.00000E+00  8540   0.670E+02 0.000E+00
CGA:   2    -0.127661865720E+04   -0.40124E+01   -0.75885E+01  8540   0.277E+02 0.853E+00
CGA:   3    -0.128102031476E+04   -0.44017E+01   -0.37307E+01  8540   0.478E+02-0.323E+02
CGA:   4    -0.128112496902E+04   -0.10465E+00   -0.40029E+01  8540   0.151E+02-0.894E+01
CGA:   5    -0.128318147585E+04   -0.20565E+01   -0.10040E+01  8540   0.255E+02-0.321E+02
CGA:   6    -0.128237521692E+04    0.80626E+00   -0.18615E+01  8540   0.204E+02-0.106E+02
CGA:   7    -0.128368056096E+04   -0.13053E+01   -0.10265E+01  8540   0.240E+02-0.175E+02
CGA:   8    -0.128286033441E+04    0.82023E+00   -0.15663E+01  8540   0.264E+02-0.165E+02
CGA:   9    -0.128268182414E+04    0.17851E+00   -0.17160E+01  8540   0.166E+02-0.141E+02
CGA:  10    -0.128345581013E+04   -0.77399E+00   -0.87934E+00  8540   0.304E+02-0.392E+02
CGA:  11    -0.128296859265E+04    0.48722E+00   -0.19472E+01  8540   0.175E+02-0.134E+02
CGA:  12    -0.128459010792E+04   -0.16215E+01   -0.59282E+00  8540   0.331E+00 0.205E+01
CGA:  13    -0.128460314861E+04   -0.13041E-01   -0.13442E-01  8540   0.380E+00-0.635E-02
CGA:  14    -0.128469115641E+04   -0.88008E-01   -0.87398E-01  8540   0.162E+01 0.548E-02
CGA:  15    -0.128472701853E+04   -0.35862E-01   -0.50223E-01  8540   0.878E-01-0.465E+00
CGA:  16    -0.128473219674E+04   -0.51782E-02   -0.53261E-02  8540   0.781E-01 0.337E-02
CGA:  17    -0.128473704464E+04   -0.48479E-02   -0.51832E-02  8540   0.485E-01-0.127E-02
CGA:  18    -0.128474144706E+04   -0.44024E-02   -0.45067E-02  8540   0.575E-01 0.272E-02
CGA:  19    -0.128474820837E+04   -0.67613E-02   -0.67704E-02  8540   0.583E-01-0.114E-02
CGA:  20    -0.128475125040E+04   -0.30420E-02   -0.30224E-02  8540   0.159E-01-0.218E-03
CGA:  21    -0.128475305910E+04   -0.18087E-02   -0.17507E-02  8540   0.218E-01-0.348E-02
CGA:  22    -0.128475402967E+04   -0.97056E-03   -0.88784E-03  8540   0.826E-02-0.108E-02
CGA:  23    -0.128475659270E+04   -0.25630E-02   -0.34225E-02  8540   0.310E-01-0.287E-02
CGA:  24    -0.128475729713E+04   -0.70443E-03   -0.66586E-03  8540   0.117E-01-0.419E-02
CGA:  25    -0.128475843331E+04   -0.11362E-02   -0.11146E-02  8540   0.338E-01-0.135E-02
CGA:  26    -0.128475982573E+04   -0.13924E-02   -0.13497E-02  8540   0.824E-02 0.224E-03
CGA:  27    -0.128476011145E+04   -0.28572E-03   -0.29805E-03  8540   0.660E-02 0.215E-03
CGA:  28    -0.128476130715E+04   -0.11957E-02   -0.16891E-02  8540   0.322E-01-0.395E-02
CGA:  29    -0.128476236099E+04   -0.10538E-02   -0.99077E-03  8540   0.318E-02-0.275E-02
CGA:  30    -0.128476268542E+04   -0.32443E-03   -0.33370E-03  8540   0.192E-02 0.948E-03
CGA:  31    -0.128476293159E+04   -0.24617E-03   -0.23709E-03  8540   0.328E-02-0.326E-03
CGA:  32    -0.128476308726E+04   -0.15567E-03   -0.17886E-03  8540   0.107E-02 0.423E-03
CGA:  33    -0.128476312956E+04   -0.42291E-04   -0.51906E-04  8540   0.986E-03 0.138E-03
CGA:  34    -0.128476131638E+04    0.18132E-02   -0.98164E-03  8540   0.206E-01-0.433E-02
CGA:  35    -0.128476246885E+04   -0.11525E-02   -0.12047E-02  8540   0.179E-01-0.642E-03
CGA:  36    -0.128476336860E+04   -0.89975E-03   -0.11423E-02  8540   0.858E-03 0.201E-02
CGA:  37    -0.128476340001E+04   -0.31403E-04   -0.63764E-04  8540   0.121E-02 0.250E-03
CGA:  38    -0.128476366088E+04   -0.26087E-03   -0.26220E-03  8540   0.391E-03 0.569E-04
CGA:  39    -0.128476372509E+04   -0.64205E-04   -0.59127E-04  8540   0.116E-02-0.113E-03
CGA:  40    -0.128476386071E+04   -0.13562E-03   -0.60144E-04  8540   0.231E-03-0.665E-03
CGA:  41    -0.128476386487E+04   -0.41621E-05   -0.18618E-04  8540   0.112E-03 0.143E-03
  95 F= -.12847639E+04 E0= -.12847542E+04  d E =-.199270E-03  mag=   126.0000
       N       E                     dE             d eps       ncg     rms          ort
SDA:   1    -0.123110967756E+04    0.53654E+02    0.00000E+00  8540   0.140E+03 0.000E+00
CGA:   2    -0.126303455329E+04   -0.31925E+02   -0.34683E+02  8540   0.156E+03-0.785E+01
CGA:   3    -0.127648875625E+04   -0.13454E+02   -0.15797E+02  8540   0.414E+02-0.554E+01
CGA:   4    -0.128289280850E+04   -0.64041E+01   -0.64062E+01  8540   0.772E+01 0.144E+00
CGA:   5    -0.128440208153E+04   -0.15093E+01   -0.15090E+01  8540   0.177E+01 0.167E-01
CGA:   6    -0.128478494479E+04   -0.38286E+00   -0.38302E+00  8540   0.544E+00-0.481E-02
CGA:   7    -0.128491904935E+04   -0.13410E+00   -0.13438E+00  8540   0.186E+00-0.414E-02
CGA:   8    -0.128497116537E+04   -0.52116E-01   -0.52286E-01  8540   0.795E-01-0.171E-02
CGA:   9    -0.128499406012E+04   -0.22895E-01   -0.23455E-01  8540   0.373E-01-0.490E-02
CGA:  10    -0.128500625847E+04   -0.12198E-01   -0.13204E-01  8540   0.198E-01-0.535E-02
CGA:  11    -0.128501205112E+04   -0.57926E-02   -0.78034E-02  8540   0.163E-01-0.767E-02
CGA:  12    -0.128501307689E+04   -0.10258E-02   -0.64810E-02  8540   0.256E-01-0.125E-01
CGA:  13    -0.128501932407E+04   -0.62472E-02   -0.62305E-02  8540   0.551E-02 0.166E-02
CGA:  14    -0.128502143631E+04   -0.21122E-02   -0.22268E-02  8540   0.265E-02-0.782E-03
CGA:  15    -0.128502206306E+04   -0.62676E-03   -0.61432E-03  8540   0.747E-03 0.425E-03
CGA:  16    -0.128502240892E+04   -0.34585E-03   -0.35338E-03  8540   0.357E-03-0.461E-04
CGA:  17    -0.128502259182E+04   -0.18290E-03    0.46058E-03  8540   0.136E-03 0.346E-05
CGA:  18    -0.128502266193E+04   -0.70118E-04    0.87755E-03  8540   0.427E-04 0.348E-04
CGA:  19    -0.128502267001E+04   -0.80746E-05   -0.94284E-05  8540   0.162E-04 0.181E-04
CGA:  20    -0.128502268308E+04   -0.13068E-04    0.18742E-04  8540   0.997E-05 0.804E-05
CGA:  21    -0.128502270672E+04   -0.23640E-04    0.83353E-06  8540   0.726E-05 0.528E-05
CGA:  22    -0.128502271635E+04   -0.96355E-05    0.52945E-06  8540   0.356E-05 0.402E-05
  96 F= -.12850227E+04 E0= -.12850227E+04  d E =-.258851E+00  mag=   126.0000
       N       E                     dE             d eps       ncg     rms          ort
SDA:   1    -0.126933815221E+04    0.15685E+02    0.00000E+00  8540   0.399E+02 0.000E+00
CGA:   2    -0.128064049514E+04   -0.11302E+02   -0.11303E+02  8540   0.176E+02-0.223E-01
CGA:   3    -0.128409728487E+04   -0.34568E+01   -0.34571E+01  8540   0.335E+01-0.153E-02
CGA:   4    -0.128481597005E+04   -0.71869E+00   -0.71883E+00  8540   0.576E+00 0.402E-02
CGA:   5    -0.128494424715E+04   -0.12828E+00   -0.12825E+00  8540   0.141E+00-0.164E-02
CGA:   6    -0.128498103411E+04   -0.36787E-01   -0.36837E-01  8540   0.418E-01-0.284E-02
CGA:   7    -0.128499296383E+04   -0.11930E-01   -0.11956E-01  8540   0.148E-01-0.555E-03
CGA:   8    -0.128499777138E+04   -0.48076E-02   -0.48066E-02  8540   0.585E-02 0.107E-04
CGA:   9    -0.128499995227E+04   -0.21809E-02   -0.22859E-02  8540   0.264E-02-0.749E-03
CGA:  10    -0.128500086022E+04   -0.90795E-03   -0.11508E-02  8540   0.194E-02-0.101E-02
CGA:  11    -0.128500105713E+04   -0.19691E-03   -0.88680E-03  8540   0.311E-02-0.147E-02
CGA:  12    -0.128500181870E+04   -0.76157E-03   -0.77101E-03  8540   0.562E-03 0.207E-03
CGA:  13    -0.128500206985E+04   -0.25115E-03   -0.24501E-03  8540   0.184E-03 0.520E-04
CGA:  14    -0.128500214322E+04   -0.73370E-04   -0.70441E-04  8540   0.547E-04 0.549E-04
CGA:  15    -0.128500188753E+04    0.25568E-03   -0.13952E-03  8540   0.975E-03-0.236E-03
CGA:  16    -0.128500213350E+04   -0.24597E-03   -0.26288E-03  8540   0.162E-03 0.612E-04
CGA:  17    -0.128500218037E+04   -0.46874E-04   -0.49818E-04  8540   0.541E-04 0.121E-04
CGA:  18    -0.128500220781E+04   -0.27439E-04   -0.27200E-04  8540   0.300E-04-0.455E-05
CGA:  19    -0.128500220816E+04   -0.34506E-06   -0.50650E-05  8540   0.110E-04 0.142E-04
  97 F= -.12850022E+04 E0= -.12850022E+04  d E =0.205082E-01  mag=   126.0000
       N       E                     dE             d eps       ncg     rms          ort
SDA:   1    -0.121888043535E+04    0.66122E+02    0.00000E+00  8540   0.166E+03 0.000E+00
CGA:   2    -0.126725763411E+04   -0.48377E+02   -0.48565E+02  8540   0.690E+02 0.358E+00
CGA:   3    -0.128076482485E+04   -0.13507E+02   -0.13622E+02  8540   0.136E+02 0.434E+00
CGA:   4    -0.128366420720E+04   -0.28994E+01   -0.28967E+01  8540   0.245E+01 0.579E-01
CGA:   5    -0.128424223892E+04   -0.57803E+00   -0.57943E+00  8540   0.688E+00-0.158E-02
CGA:   6    -0.128442143741E+04   -0.17920E+00   -0.17931E+00  8540   0.217E+00-0.197E-02
CGA:   7    -0.128448717444E+04   -0.65737E-01   -0.65698E-01  8540   0.827E-01-0.320E-03
CGA:   8    -0.128451450797E+04   -0.27334E-01   -0.27411E-01  8540   0.309E-01 0.766E-03
CGA:   9    -0.128452480131E+04   -0.10293E-01   -0.10268E-01  8540   0.951E-02-0.315E-03
CGA:  10    -0.128452840686E+04   -0.36055E-02   -0.35765E-02  8540   0.355E-02-0.820E-03
CGA:  11    -0.128452971416E+04   -0.13073E-02   -0.13054E-02  8540   0.159E-02-0.175E-03
CGA:  12    -0.128453051110E+04   -0.79694E-03   -0.83163E-03  8540   0.121E-02-0.262E-03
CGA:  13    -0.128453091242E+04   -0.40132E-03   -0.40321E-03  8540   0.507E-03 0.902E-04
CGA:  14    -0.128453111031E+04   -0.19789E-03   -0.20067E-03  8540   0.178E-03 0.530E-04
CGA:  15    -0.128453117077E+04   -0.60458E-04   -0.63905E-04  8540   0.568E-04 0.372E-04
CGA:  16    -0.128453118690E+04   -0.16134E-04   -0.19269E-04  8540   0.203E-04 0.237E-04
CGA:  17    -0.128453118803E+04   -0.11306E-05   -0.50943E-05  8540   0.106E-04 0.173E-04
