       N       E                     dE             d eps       ncg     rms          ort
DAV:   1     0.283985152253E+04    0.28399E+04   -0.29344E+05  2880   0.141E+03
DAV:   2    -0.971746423957E+03   -0.38116E+04   -0.36721E+04  2880   0.312E+02
DAV:   3    -0.123091465772E+04   -0.25917E+03   -0.25754E+03  2880   0.850E+01
DAV:   4    -0.123393427725E+04   -0.30196E+01   -0.30094E+01  2880   0.977E+00
DAV:   5    -0.123398356877E+04   -0.49292E-01   -0.49187E-01  2880   0.115E+00
SDA:   6    -0.873314377263E+03    0.36067E+03   -0.49187E-01  2880   0.618E+03 0.000E+00
CGA:   7    -0.986121861687E+03   -0.11281E+03   -0.11262E+03  2880   0.441E+02-0.264E+01
CGA:   8    -0.999259919690E+03   -0.13138E+02   -0.13111E+02  2880   0.105E+02 0.223E+00
CGA:   9    -0.100310045229E+04   -0.38405E+01   -0.38419E+01  2880   0.401E+01-0.133E-01
CGA:  10    -0.100437281742E+04   -0.12724E+01   -0.12762E+01  2880   0.870E+00-0.325E-01
CGA:  11    -0.100470708258E+04   -0.33427E+00   -0.33444E+00  2880   0.189E+00-0.838E-03
CGA:  12    -0.100477261959E+04   -0.65537E-01   -0.65520E-01  2880   0.433E-01 0.105E-03
CGA:  13    -0.100478899179E+04   -0.16372E-01   -0.16496E-01  2880   0.996E-02-0.847E-03
CGA:  14    -0.100479271464E+04   -0.37229E-02   -0.36449E-02  2880   0.218E-02 0.577E-03
CGA:  15    -0.100479366936E+04   -0.95472E-03   -0.92393E-03  2880   0.539E-03 0.197E-03
CGA:  16    -0.100479394837E+04   -0.27901E-03   -0.37780E-03  2880   0.405E-03-0.255E-03
CGA:  17    -0.100479401231E+04   -0.63940E-04   -0.63907E-04  2880   0.165E-03 0.781E-06
CGA:  18    -0.100479404160E+04   -0.29297E-04   -0.32772E-04  2880   0.666E-04 0.457E-04
CGA:  19    -0.100479405526E+04   -0.13659E-04   -0.16270E-04  2880   0.351E-04 0.329E-04
CGA:  20    -0.100479406549E+04   -0.10232E-04   -0.11086E-04  2880   0.157E-04 0.155E-04
CGA:  21    -0.100479407300E+04   -0.75099E-05   -0.78986E-05  2880   0.898E-05-0.456E-05
   1 F= -.10047941E+04 E0= -.10047941E+04  d E =-.100479E+04  mag=    -0.0000
       N       E                     dE             d eps       ncg     rms          ort
SDA:   1    -0.100479392322E+04    0.14227E-03    0.00000E+00  2880   0.112E-02 0.000E+00
CGA:   2    -0.100479432833E+04   -0.40511E-03   -0.40676E-03  2880   0.281E-03-0.172E-04
CGA:   3    -0.100479439634E+04   -0.68006E-04   -0.68100E-04  2880   0.399E-04 0.362E-05
CGA:   4    -0.100479440679E+04   -0.10455E-04   -0.10520E-04  2880   0.595E-05 0.630E-05
CGA:   5    -0.100479440926E+04   -0.24631E-05   -0.24563E-05  2880   0.210E-05 0.793E-07
   2 F= -.10047944E+04 E0= -.10047944E+04  d E =-.336252E-03  mag=    -0.0000
       N       E                     dE             d eps       ncg     rms          ort
SDA:   1    -0.100479423123E+04    0.17557E-03    0.00000E+00  2880   0.901E-03 0.000E+00
CGA:   2    -0.100479455196E+04   -0.32073E-03   -0.32096E-03  2880   0.217E-03-0.310E-05
CGA:   3    -0.100479460523E+04   -0.53271E-04   -0.53374E-04  2880   0.311E-04 0.252E-05
CGA:   4    -0.100479461545E+04   -0.10219E-04   -0.10264E-04  2880   0.571E-05-0.112E-05
CGA:   5    -0.100479461714E+04   -0.16929E-05   -0.16863E-05  2880   0.134E-05 0.343E-06
   3 F= -.10047946E+04 E0= -.10047946E+04  d E =-.207882E-03  mag=    -0.0000
       N       E                     dE             d eps       ncg     rms          ort
SDA:   1    -0.100479388036E+04    0.73508E-03    0.00000E+00  2880   0.219E-02 0.000E+00
CGA:   2    -0.100479466967E+04   -0.78930E-03   -0.78943E-03  2880   0.495E-03-0.165E-05
CGA:   3    -0.100479479329E+04   -0.12362E-03   -0.12381E-03  2880   0.734E-04 0.419E-05
CGA:   4    -0.100479481607E+04   -0.22781E-04   -0.22835E-04  2880   0.133E-04-0.340E-05
CGA:   5    -0.100479481981E+04   -0.37407E-05   -0.37385E-05  2880   0.282E-05 0.950E-06
   4 F= -.10047948E+04 E0= -.10047948E+04  d E =-.202670E-03  mag=    -0.0000
       N       E                     dE             d eps       ncg     rms          ort
SDA:   1    -0.100479470634E+04    0.10973E-03    0.00000E+00  2880   0.560E-03 0.000E+00
CGA:   2    -0.100479491027E+04   -0.20393E-03   -0.20376E-03  2880   0.107E-03 0.253E-05
CGA:   3    -0.100479493768E+04   -0.27414E-04   -0.27453E-04  2880   0.157E-04 0.847E-06
CGA:   4    -0.100479494229E+04   -0.46120E-05   -0.46005E-05  2880   0.292E-05-0.159E-05
   5 F= -.10047949E+04 E0= -.10047949E+04  d E =-.122486E-03  mag=     0.0000
       N       E                     dE             d eps       ncg     rms          ort
SDA:   1    -0.100477602529E+04    0.18912E-01    0.00000E+00  2880   0.465E-01 0.000E+00
CGA:   2    -0.100479354793E+04   -0.17523E-01   -0.17523E-01  2880   0.878E-02 0.415E-05
CGA:   3    -0.100479572524E+04   -0.21773E-02   -0.21774E-02  2880   0.131E-02 0.186E-05
CGA:   4    -0.100479606254E+04   -0.33729E-03   -0.33716E-03  2880   0.185E-03-0.331E-05
CGA:   5    -0.100479611859E+04   -0.56058E-04   -0.56050E-04  2880   0.314E-04 0.966E-06
CGA:   6    -0.100479613051E+04   -0.11919E-04   -0.11885E-04  2880   0.994E-05 0.413E-06
CGA:   7    -0.100479613468E+04   -0.41645E-05   -0.41707E-05  2880   0.322E-05-0.530E-07
   6 F= -.10047961E+04 E0= -.10047961E+04  d E =-.119238E-02  mag=     0.0000
       N       E                     dE             d eps       ncg     rms          ort
SDA:   1    -0.100479330080E+04    0.28297E-02    0.00000E+00  2880   0.728E-02 0.000E+00
CGA:   2    -0.100479586480E+04   -0.25640E-02   -0.25647E-02  2880   0.157E-02-0.147E-04
CGA:   3    -0.100479626965E+04   -0.40485E-03   -0.40569E-03  2880   0.241E-03 0.160E-04
CGA:   4    -0.100479633860E+04   -0.68948E-04   -0.68822E-04  2880   0.389E-04-0.468E-05
CGA:   5    -0.100479635101E+04   -0.12406E-04   -0.12401E-04  2880   0.927E-05 0.307E-06
CGA:   6    -0.100479635430E+04   -0.32955E-05   -0.32560E-05  2880   0.247E-05 0.999E-06
   7 F= -.10047964E+04 E0= -.10047964E+04  d E =-.219625E-03  mag=     0.0000
       N       E                     dE             d eps       ncg     rms          ort
SDA:   1    -0.100479466443E+04    0.16866E-02    0.00000E+00  2880   0.361E-02 0.000E+00
CGA:   2    -0.100479597088E+04   -0.13065E-02   -0.13063E-02  2880   0.770E-03 0.496E-05
CGA:   3    -0.100479616803E+04   -0.19715E-03   -0.19652E-03  2880   0.121E-03-0.961E-05
CGA:   4    -0.100479619964E+04   -0.31614E-04   -0.31770E-04  2880   0.167E-04 0.300E-05
CGA:   5    -0.100479620550E+04   -0.58598E-05   -0.58774E-05  2880   0.427E-05-0.602E-06
   8 F= -.10047962E+04 E0= -.10047962E+04  d E =0.148802E-03  mag=    -0.0000
