       N       E                     dE             d eps       ncg     rms          rms(c)
DAV:   1     0.824578775206E+04    0.82458E+04   -0.23566E+05 34272   0.218E+03
DAV:   2     0.116265391949E+04   -0.70831E+04   -0.66361E+04 33696   0.632E+02
DAV:   3    -0.384981390265E+03   -0.15476E+04   -0.13603E+04 35904   0.272E+02
DAV:   4    -0.541884380123E+03   -0.15690E+03   -0.15416E+03 36840   0.836E+01
DAV:   5    -0.544632395285E+03   -0.27480E+01   -0.27347E+01 36720   0.125E+01    0.106E+02
DAV:   6    -0.555273440181E+03   -0.10641E+02   -0.92723E+02 44784   0.118E+02    0.126E+02
DAV:   7    -0.434843423461E+03    0.12043E+03   -0.33895E+02 36924   0.120E+02    0.359E+01
DAV:   8    -0.438015539329E+03   -0.31721E+01   -0.77619E+01 41124   0.264E+01    0.187E+01
DAV:   9    -0.446637778431E+03   -0.86222E+01   -0.47556E+01 39588   0.326E+01    0.618E+01
DAV:  10    -0.438972899753E+03    0.76649E+01   -0.38410E+01 37452   0.237E+01    0.154E+01
DAV:  11    -0.438100419036E+03    0.87248E+00   -0.14007E+01 37692   0.133E+01    0.927E+00
DAV:  12    -0.437832262535E+03    0.26816E+00   -0.41207E+00 37044   0.803E+00    0.705E+00
DAV:  13    -0.437746605640E+03    0.85657E-01   -0.36521E+00 38064   0.529E+00    0.497E+00
DAV:  14    -0.437758716860E+03   -0.12111E-01   -0.13372E+00 38640   0.433E+00    0.457E+00
DAV:  15    -0.437688171626E+03    0.70545E-01   -0.78256E-01 41400   0.349E+00    0.322E+00
DAV:  16    -0.437679168427E+03    0.90032E-02   -0.40487E-01 40476   0.307E+00    0.249E+00
DAV:  17    -0.437665662879E+03    0.13506E-01   -0.18014E-01 39708   0.193E+00    0.173E+00
DAV:  18    -0.437664738450E+03    0.92443E-03   -0.79127E-02 39384   0.180E+00    0.147E+00
DAV:  19    -0.437667819515E+03   -0.30811E-02   -0.50373E-02 37236   0.110E+00    0.132E+00
DAV:  20    -0.437666414469E+03    0.14050E-02   -0.29307E-02 38388   0.106E+00    0.109E+00
DAV:  21    -0.437664570265E+03    0.18442E-02   -0.15020E-02 39420   0.605E-01    0.592E-01
DAV:  22    -0.437665676449E+03   -0.11062E-02   -0.10926E-02 38376   0.458E-01    0.585E-01
DAV:  23    -0.437665742340E+03   -0.65891E-04   -0.30961E-03 36744   0.303E-01    0.537E-01
DAV:  24    -0.437666035563E+03   -0.29322E-03   -0.59980E-04 39072   0.144E-01    0.461E-01
DAV:  25    -0.437666113519E+03   -0.77956E-04   -0.39055E-03 43764   0.318E-01    0.331E-01
DAV:  26    -0.437666130462E+03   -0.16943E-04   -0.19953E-03 44352   0.260E-01    0.364E-01
DAV:  27    -0.437666090586E+03    0.39876E-04   -0.73474E-04 37968   0.177E-01    0.271E-01
DAV:  28    -0.437665964333E+03    0.12625E-03   -0.69738E-04 42276   0.153E-01    0.168E-01
DAV:  29    -0.437665932615E+03    0.31718E-04   -0.42453E-04 44592   0.825E-02    0.120E-01
DAV:  30    -0.437665942374E+03   -0.97585E-05   -0.14521E-04 35988   0.832E-02    0.105E-01
DAV:  31    -0.437665920433E+03    0.21940E-04   -0.94894E-05 27312   0.648E-02    0.629E-02
DAV:  32    -0.437665925386E+03   -0.49528E-05   -0.41349E-05 20352   0.331E-02
   1 F= -.43766593E+03 E0= -.43765084E+03  d E =-.301680E-01  mag=     1.9734
