       N       E                     dE             d eps       ncg     rms          rms(c)
DAV:   1     0.581265822634E+04    0.58127E+04   -0.20837E+05 16808   0.162E+03
DAV:   2     0.354355582982E+03   -0.54583E+04   -0.49381E+04 16576   0.492E+02
DAV:   3    -0.472539785401E+03   -0.82690E+03   -0.77532E+03 17640   0.201E+02
DAV:   4    -0.516544160596E+03   -0.44004E+02   -0.43419E+02 18368   0.471E+01
DAV:   5    -0.517080764774E+03   -0.53660E+00   -0.53529E+00 18080   0.564E+00    0.121E+02
DAV:   6    -0.452097902334E+03    0.64983E+02   -0.51550E+02 20584   0.878E+01    0.100E+02
DAV:   7    -0.428272108190E+03    0.23826E+02   -0.26500E+02 18368   0.961E+01    0.602E+01
DAV:   8    -0.445731144774E+03   -0.17459E+02   -0.22488E+02 20552   0.363E+01    0.500E+01
DAV:   9    -0.418134901826E+03    0.27596E+02   -0.25792E+01 19720   0.202E+01    0.232E+01
DAV:  10    -0.418471970867E+03   -0.33707E+00   -0.11751E+01 19360   0.161E+01    0.301E+01
DAV:  11    -0.417206992099E+03    0.12650E+01   -0.71160E+00 18312   0.129E+01    0.118E+01
DAV:  12    -0.417374001837E+03   -0.16701E+00   -0.11403E+00 17608   0.499E+00    0.866E+00
DAV:  13    -0.417373655726E+03    0.34611E-03   -0.37353E-01 18880   0.369E+00    0.542E+00
DAV:  14    -0.417751054033E+03   -0.37740E+00   -0.17805E+00 19560   0.279E+00    0.574E+00
DAV:  15    -0.417731627842E+03    0.19426E-01   -0.12989E-01 18440   0.218E+00    0.341E+00
DAV:  16    -0.417704560395E+03    0.27067E-01   -0.10374E-01 18944   0.210E+00    0.277E+00
DAV:  17    -0.417677585220E+03    0.26975E-01   -0.60049E-02 18864   0.163E+00    0.155E+00
DAV:  18    -0.417670275314E+03    0.73099E-02   -0.14721E-02 19704   0.763E-01    0.790E-01
DAV:  19    -0.417672159606E+03   -0.18843E-02   -0.85130E-03 17976   0.561E-01    0.707E-01
DAV:  20    -0.417671777996E+03    0.38161E-03   -0.60692E-03 18424   0.669E-01    0.638E-01
DAV:  21    -0.417671432287E+03    0.34571E-03   -0.27597E-03 18680   0.386E-01    0.262E-01
DAV:  22    -0.417671692059E+03   -0.25977E-03   -0.83407E-04 18168   0.220E-01    0.257E-01
DAV:  23    -0.417671516197E+03    0.17586E-03   -0.66049E-04 18328   0.223E-01    0.148E-01
DAV:  24    -0.417671487318E+03    0.28879E-04   -0.17055E-04 17152   0.997E-02    0.696E-02
DAV:  25    -0.417671522357E+03   -0.35039E-04   -0.74995E-05 16248   0.586E-02    0.497E-02
DAV:  26    -0.417671517571E+03    0.47857E-05   -0.30733E-05 13640   0.452E-02
   1 F= -.41767152E+03 E0= -.41766429E+03  d E =-.417672E+03  mag=    40.9996
       N       E                     dE             d eps       ncg     rms          rms(c)
DAV:   1    -0.417672871348E+03   -0.13490E-02   -0.10681E-02 23312   0.887E-01    0.920E-02
DAV:   2    -0.417673330959E+03   -0.45961E-03   -0.44279E-03 17624   0.153E-01    0.710E-02
DAV:   3    -0.417673376521E+03   -0.45562E-04   -0.27244E-04 17160   0.114E-01    0.926E-02
DAV:   4    -0.417673342781E+03    0.33740E-04   -0.55169E-05 14304   0.640E-02    0.228E-02
DAV:   5    -0.417673343613E+03   -0.83148E-06   -0.86640E-06  9416   0.126E-02
   2 F= -.41767334E+03 E0= -.41766612E+03  d E =-.182604E-02  mag=    41.0000
       N       E                     dE             d eps       ncg     rms          rms(c)
DAV:   1    -0.417623061682E+03    0.50281E-01   -0.15016E+00 23208   0.105E+01    0.108E+00
DAV:   2    -0.417686814292E+03   -0.63753E-01   -0.61972E-01 17552   0.176E+00    0.719E-01
DAV:   3    -0.417692470621E+03   -0.56563E-02   -0.32520E-02 17792   0.111E+00    0.934E-01
DAV:   4    -0.417689011396E+03    0.34592E-02   -0.70198E-03 17528   0.609E-01    0.272E-01
DAV:   5    -0.417689072917E+03   -0.61521E-04   -0.13191E-03 18752   0.144E-01    0.220E-01
DAV:   6    -0.417689153062E+03   -0.80144E-04   -0.65896E-04 18456   0.199E-01    0.232E-01
DAV:   7    -0.417689007634E+03    0.14543E-03   -0.33156E-04 18616   0.158E-01    0.703E-02
DAV:   8    -0.417689028340E+03   -0.20706E-04   -0.11720E-04 18152   0.662E-02    0.555E-02
DAV:   9    -0.417689020797E+03    0.75426E-05   -0.55688E-05 15336   0.595E-02
   3 F= -.41768902E+03 E0= -.41768185E+03  d E =-.156772E-01  mag=    41.0000
       N       E                     dE             d eps       ncg     rms          rms(c)
DAV:   1    -0.417618215191E+03    0.70813E-01   -0.21158E+00 22768   0.115E+01    0.117E+00
DAV:   2    -0.417694236315E+03   -0.76021E-01   -0.73557E-01 17608   0.195E+00    0.797E-01
DAV:   3    -0.417701046159E+03   -0.68098E-02   -0.39837E-02 17760   0.119E+00    0.103E+00
DAV:   4    -0.417696788540E+03    0.42576E-02   -0.80971E-03 17728   0.676E-01    0.293E-01
DAV:   5    -0.417696891106E+03   -0.10257E-03   -0.15328E-03 18784   0.167E-01    0.250E-01
DAV:   6    -0.417696933806E+03   -0.42699E-04   -0.82201E-04 18608   0.226E-01    0.242E-01
DAV:   7    -0.417696797679E+03    0.13613E-03   -0.38891E-04 18840   0.169E-01    0.764E-02
DAV:   8    -0.417696821703E+03   -0.24024E-04   -0.15495E-04 18528   0.730E-02    0.598E-02
DAV:   9    -0.417696812890E+03    0.88134E-05   -0.71780E-05 15608   0.659E-02
   4 F= -.41769681E+03 E0= -.41768971E+03  d E =-.779209E-02  mag=    41.0000
       N       E                     dE             d eps       ncg     rms          rms(c)
DAV:   1    -0.417690948215E+03    0.58735E-02   -0.64647E-01 19800   0.394E+00    0.366E-01
DAV:   2    -0.417699631861E+03   -0.86836E-02   -0.84354E-02 17800   0.708E-01    0.259E-01
DAV:   3    -0.417700207066E+03   -0.57521E-03   -0.40306E-03 17880   0.392E-01    0.312E-01
DAV:   4    -0.417699794862E+03    0.41220E-03   -0.88176E-04 18824   0.242E-01    0.938E-02
DAV:   5    -0.417699790998E+03    0.38642E-05   -0.18949E-04 19080   0.638E-02    0.846E-02
DAV:   6    -0.417699788981E+03    0.20168E-05   -0.12101E-04 17760   0.890E-02    0.810E-02
DAV:   7    -0.417699769500E+03    0.19481E-04   -0.56338E-05 16824   0.575E-02    0.169E-02
DAV:   8    -0.417699773297E+03   -0.37976E-05   -0.17671E-05 10536   0.249E-02
   5 F= -.41769977E+03 E0= -.41769270E+03  d E =-.296041E-02  mag=    41.0000
       N       E                     dE             d eps       ncg     rms          rms(c)
DAV:   1    -0.417654223677E+03    0.45546E-01   -0.45202E+00 19632   0.939E+00    0.858E-01
DAV:   2    -0.417703958747E+03   -0.49735E-01   -0.48175E-01 17888   0.176E+00    0.696E-01
DAV:   3    -0.417706796836E+03   -0.28381E-02   -0.26774E-02 17752   0.991E-01    0.760E-01
DAV:   4    -0.417704221831E+03    0.25750E-02   -0.50351E-03 19112   0.556E-01    0.222E-01
DAV:   5    -0.417704128119E+03    0.93711E-04   -0.11801E-03 19816   0.139E-01    0.181E-01
DAV:   6    -0.417704208226E+03   -0.80107E-04   -0.72273E-04 18704   0.217E-01    0.225E-01
DAV:   7    -0.417704018127E+03    0.19010E-03   -0.36572E-04 18864   0.154E-01    0.430E-02
DAV:   8    -0.417704044951E+03   -0.26824E-04   -0.11655E-04 18328   0.657E-02    0.575E-02
DAV:   9    -0.417704033586E+03    0.11364E-04   -0.55151E-05 15472   0.546E-02    0.196E-02
DAV:  10    -0.417704033307E+03    0.27903E-06   -0.54906E-06  9144   0.131E-02
   6 F= -.41770403E+03 E0= -.41769703E+03  d E =-.426001E-02  mag=    41.0000
       N       E                     dE             d eps       ncg     rms          rms(c)
DAV:   1    -0.417689959318E+03    0.14074E-01   -0.85454E-01 20864   0.506E+00    0.478E-01
DAV:   2    -0.417704375480E+03   -0.14416E-01   -0.13967E-01 18280   0.919E-01    0.383E-01
DAV:   3    -0.417705296453E+03   -0.92097E-03   -0.77580E-03 17568   0.552E-01    0.424E-01
DAV:   4    -0.417704521090E+03    0.77536E-03   -0.15328E-03 18592   0.330E-01    0.127E-01
DAV:   5    -0.417704504690E+03    0.16400E-04   -0.33399E-04 19528   0.653E-02    0.946E-02
DAV:   6    -0.417704551151E+03   -0.46461E-04   -0.19403E-04 18232   0.121E-01    0.126E-01
DAV:   7    -0.417704487189E+03    0.63962E-04   -0.11213E-04 17712   0.959E-02    0.234E-02
DAV:   8    -0.417704493133E+03   -0.59438E-05   -0.27068E-05 13712   0.257E-02
   7 F= -.41770449E+03 E0= -.41769745E+03  d E =-.459825E-03  mag=    41.0000
