       N       E                     dE             d eps       ncg     rms          ort
DAV:   1     0.289105309774E+04    0.28911E+04   -0.21105E+05  2592   0.138E+03
DAV:   2    -0.724577219201E+03   -0.36156E+04   -0.34664E+04  2592   0.242E+02
DAV:   3    -0.120093318576E+04   -0.47636E+03   -0.47100E+03  2592   0.949E+01
DAV:   4    -0.122455875085E+04   -0.23626E+02   -0.23443E+02  2592   0.233E+01
DAV:   5    -0.122583122411E+04   -0.12725E+01   -0.12705E+01  2592   0.532E+00
SDA:   6    -0.109642083203E+04    0.12941E+03   -0.12705E+01  2592   0.671E+02 0.000E+00
CGA:   7    -0.111141970857E+04   -0.14999E+02   -0.15000E+02  2592   0.634E+01 0.113E+00
CGA:   8    -0.111327649064E+04   -0.18568E+01   -0.18470E+01  2592   0.149E+01 0.931E-01
CGA:   9    -0.111376341445E+04   -0.48692E+00   -0.48656E+00  2592   0.401E+00 0.292E-02
CGA:  10    -0.111391206618E+04   -0.14865E+00   -0.15016E+00  2592   0.114E+00-0.100E-01
CGA:  11    -0.111395046339E+04   -0.38397E-01   -0.38553E-01  2592   0.351E-01-0.128E-02
CGA:  12    -0.111396070886E+04   -0.10245E-01   -0.10224E-01  2592   0.790E-02 0.307E-03
CGA:  13    -0.111396363987E+04   -0.29310E-02   -0.30141E-02  2592   0.259E-02-0.563E-03
CGA:  14    -0.111396455059E+04   -0.91072E-03   -0.95037E-03  2592   0.734E-03-0.253E-03
CGA:  15    -0.111396475000E+04   -0.19942E-03   -0.19363E-03  2592   0.194E-03 0.122E-03
CGA:  16    -0.111396479161E+04   -0.41614E-04   -0.46112E-04  2592   0.657E-04 0.104E-03
CGA:  17    -0.111396480308E+04   -0.11470E-04   -0.13221E-04  2592   0.317E-04 0.400E-04
CGA:  18    -0.111396480772E+04   -0.46379E-05   -0.59495E-05  2592   0.195E-04 0.237E-04
   1 F= -.11139648E+04 E0= -.11139569E+04  d E =-.111396E+04  mag=     0.0083
       N       E                     dE             d eps       ncg     rms          ort
SDA:   1    -0.111396507876E+04   -0.27567E-03    0.00000E+00  2592   0.287E-03 0.000E+00
CGA:   2    -0.111396514821E+04   -0.69454E-04   -0.69337E-04  2592   0.656E-04 0.230E-04
CGA:   3    -0.111396516349E+04   -0.15277E-04   -0.15639E-04  2592   0.164E-04 0.225E-04
CGA:   4    -0.111396516725E+04   -0.37639E-05   -0.42205E-05  2592   0.627E-05 0.101E-04
   2 F= -.11139652E+04 E0= -.11139572E+04  d E =-.359531E-03  mag=     0.0016
       N       E                     dE             d eps       ncg     rms          ort
SDA:   1    -0.111394917846E+04    0.15985E-01    0.00000E+00  2592   0.565E-01 0.000E+00
CGA:   2    -0.111396343016E+04   -0.14252E-01   -0.14253E-01  2592   0.138E-01-0.693E-04
CGA:   3    -0.111396747998E+04   -0.40498E-02   -0.40458E-02  2592   0.361E-02 0.682E-04
CGA:   4    -0.111396858270E+04   -0.11027E-02   -0.11022E-02  2592   0.895E-03 0.786E-05
CGA:   5    -0.111396886204E+04   -0.27934E-03   -0.27918E-03  2592   0.230E-03 0.189E-05
CGA:   6    -0.111396894404E+04   -0.81999E-04   -0.81777E-04  2592   0.629E-04 0.196E-05
CGA:   7    -0.111396896335E+04   -0.19315E-04   -0.19120E-04  2592   0.162E-04 0.392E-05
CGA:   8    -0.111396896930E+04   -0.59517E-05   -0.58948E-05  2592   0.442E-05 0.648E-06
   3 F= -.11139690E+04 E0= -.11139610E+04  d E =-.380205E-02  mag=     0.0001
       N       E                     dE             d eps       ncg     rms          ort
SDA:   1    -0.111388925608E+04    0.79707E-01    0.00000E+00  2592   0.254E+00 0.000E+00
CGA:   2    -0.111394983226E+04   -0.60576E-01   -0.60579E-01  2592   0.580E-01-0.614E-04
CGA:   3    -0.111396700938E+04   -0.17177E-01   -0.17174E-01  2592   0.154E-01 0.752E-04
CGA:   4    -0.111397168666E+04   -0.46773E-02   -0.46779E-02  2592   0.379E-02-0.221E-04
CGA:   5    -0.111397285524E+04   -0.11686E-02   -0.11679E-02  2592   0.904E-03 0.169E-04
CGA:   6    -0.111397318545E+04   -0.33021E-03   -0.33012E-03  2592   0.240E-03 0.620E-06
CGA:   7    -0.111397325997E+04   -0.74515E-04   -0.74321E-04  2592   0.628E-04 0.598E-05
CGA:   8    -0.111397328219E+04   -0.22223E-04   -0.22166E-04  2592   0.164E-04 0.843E-06
CGA:   9    -0.111397328880E+04   -0.66060E-05   -0.67844E-05  2592   0.574E-05-0.143E-05
   4 F= -.11139733E+04 E0= -.11139653E+04  d E =-.431949E-02  mag=     0.0000
       N       E                     dE             d eps       ncg     rms          ort
SDA:   1    -0.111394412532E+04    0.29157E-01    0.00000E+00  2592   0.921E-01 0.000E+00
CGA:   2    -0.111396570665E+04   -0.21581E-01   -0.21581E-01  2592   0.223E-01-0.376E-04
CGA:   3    -0.111397220454E+04   -0.64979E-02   -0.64978E-02  2592   0.576E-02 0.172E-04
CGA:   4    -0.111397401923E+04   -0.18147E-02   -0.18159E-02  2592   0.145E-02-0.479E-04
CGA:   5    -0.111397446404E+04   -0.44481E-03   -0.44462E-03  2592   0.362E-03 0.905E-05
CGA:   6    -0.111397459183E+04   -0.12779E-03   -0.12770E-03  2592   0.106E-03 0.134E-05
CGA:   7    -0.111397462525E+04   -0.33423E-04   -0.33446E-04  2592   0.287E-04-0.114E-05
CGA:   8    -0.111397463503E+04   -0.97748E-05   -0.97742E-05  2592   0.732E-05 0.922E-08
   5 F= -.11139746E+04 E0= -.11139667E+04  d E =-.134623E-02  mag=     0.0000
       N       E                     dE             d eps       ncg     rms          ort
SDA:   1    -0.111383052277E+04    0.14410E+00    0.00000E+00  2592   0.395E+00 0.000E+00
CGA:   2    -0.111393071701E+04   -0.10019E+00   -0.10019E+00  2592   0.992E-01-0.155E-03
CGA:   3    -0.111395915579E+04   -0.28439E-01   -0.28442E-01  2592   0.271E-01 0.181E-03
CGA:   4    -0.111396749655E+04   -0.83408E-02   -0.83411E-02  2592   0.655E-02-0.507E-04
CGA:   5    -0.111396961783E+04   -0.21213E-02   -0.21211E-02  2592   0.180E-02 0.489E-05
CGA:   6    -0.111397023547E+04   -0.61764E-03   -0.61722E-03  2592   0.533E-03 0.902E-05
CGA:   7    -0.111397040110E+04   -0.16563E-03   -0.16556E-03  2592   0.139E-03 0.103E-04
CGA:   8    -0.111397045313E+04   -0.52028E-04   -0.52416E-04  2592   0.397E-04-0.592E-05
CGA:   9    -0.111397046638E+04   -0.13247E-04   -0.13232E-04  2592   0.109E-04 0.337E-06
CGA:  10    -0.111397046990E+04   -0.35257E-05   -0.35188E-05  2592   0.289E-05 0.587E-06
   6 F= -.11139705E+04 E0= -.11139625E+04  d E =0.416512E-02  mag=     0.0000
       N       E                     dE             d eps       ncg     rms          ort
SDA:   1    -0.111388356532E+04    0.86901E-01    0.00000E+00  2592   0.251E+00 0.000E+00
CGA:   2    -0.111395066848E+04   -0.67103E-01   -0.67104E-01  2592   0.542E-01 0.169E-04
CGA:   3    -0.111396813681E+04   -0.17468E-01   -0.17468E-01  2592   0.146E-01 0.386E-05
CGA:   4    -0.111397255592E+04   -0.44191E-02   -0.44191E-02  2592   0.392E-02-0.918E-05
CGA:   5    -0.111397375590E+04   -0.12000E-02   -0.12000E-02  2592   0.119E-02 0.304E-04
CGA:   6    -0.111397416369E+04   -0.40779E-03   -0.40812E-03  2592   0.334E-03-0.101E-04
CGA:   7    -0.111397427846E+04   -0.11477E-03   -0.11478E-03  2592   0.874E-04-0.576E-06
CGA:   8    -0.111397430869E+04   -0.30231E-04   -0.30268E-04  2592   0.242E-04-0.103E-05
CGA:   9    -0.111397431615E+04   -0.74612E-05   -0.74612E-05  2592   0.628E-05 0.116E-05
   7 F= -.11139743E+04 E0= -.11139664E+04  d E =-.384625E-02  mag=    -0.0000
       N       E                     dE             d eps       ncg     rms          ort
SDA:   1    -0.111396174653E+04    0.12562E-01    0.00000E+00  2592   0.409E-01 0.000E+00
CGA:   2    -0.111397178373E+04   -0.10037E-01   -0.10039E-01  2592   0.972E-02 0.239E-04
CGA:   3    -0.111397467612E+04   -0.28924E-02   -0.28916E-02  2592   0.266E-02-0.577E-04
CGA:   4    -0.111397548014E+04   -0.80402E-03   -0.80395E-03  2592   0.656E-03-0.976E-05
CGA:   5    -0.111397569292E+04   -0.21278E-03   -0.21295E-03  2592   0.176E-03-0.119E-04
CGA:   6    -0.111397575345E+04   -0.60523E-04   -0.60462E-04  2592   0.471E-04 0.157E-05
CGA:   7    -0.111397576963E+04   -0.16186E-04   -0.16247E-04  2592   0.147E-04-0.219E-05
CGA:   8    -0.111397577390E+04   -0.42710E-05   -0.42793E-05  2592   0.316E-05 0.713E-06
   8 F= -.11139758E+04 E0= -.11139678E+04  d E =-.145775E-02  mag=    -0.0000
       N       E                     dE             d eps       ncg     rms          ort
SDA:   1    -0.111396984953E+04    0.59201E-02    0.00000E+00  2592   0.177E-01 0.000E+00
CGA:   2    -0.111397430391E+04   -0.44544E-02   -0.44546E-02  2592   0.465E-02 0.270E-05
CGA:   3    -0.111397562074E+04   -0.13168E-02   -0.13159E-02  2592   0.129E-02-0.319E-04
CGA:   4    -0.111397601459E+04   -0.39385E-03   -0.39370E-03  2592   0.326E-03-0.305E-04
CGA:   5    -0.111397611352E+04   -0.98933E-04   -0.98935E-04  2592   0.789E-04 0.163E-05
CGA:   6    -0.111397614198E+04   -0.28453E-04   -0.28495E-04  2592   0.233E-04-0.898E-06
CGA:   7    -0.111397614969E+04   -0.77136E-05   -0.77510E-05  2592   0.728E-05-0.173E-05
   9 F= -.11139761E+04 E0= -.11139682E+04  d E =-.375786E-03  mag=    -0.0000
       N       E                     dE             d eps       ncg     rms          ort
SDA:   1    -0.111386361538E+04    0.11253E+00    0.00000E+00  2592   0.319E+00 0.000E+00
CGA:   2    -0.111394229692E+04   -0.78682E-01   -0.78689E-01  2592   0.844E-01 0.250E-05
CGA:   3    -0.111396527755E+04   -0.22981E-01   -0.22982E-01  2592   0.227E-01 0.285E-04
CGA:   4    -0.111397225223E+04   -0.69747E-02   -0.69747E-02  2592   0.528E-02-0.608E-06
CGA:   5    -0.111397398500E+04   -0.17328E-02   -0.17327E-02  2592   0.133E-02 0.186E-05
CGA:   6    -0.111397446375E+04   -0.47875E-03   -0.47838E-03  2592   0.359E-03 0.703E-05
CGA:   7    -0.111397458115E+04   -0.11740E-03   -0.11738E-03  2592   0.104E-03 0.136E-05
CGA:   8    -0.111397461534E+04   -0.34186E-04   -0.34197E-04  2592   0.286E-04-0.955E-06
CGA:   9    -0.111397462566E+04   -0.10325E-04   -0.10363E-04  2592   0.863E-05-0.748E-06
CGA:  10    -0.111397462816E+04   -0.24964E-05   -0.25137E-05  2592   0.200E-05 0.953E-06
  10 F= -.11139746E+04 E0= -.11139667E+04  d E =0.152153E-02  mag=    -0.0000
       N       E                     dE             d eps       ncg     rms          ort
SDA:   1    -0.111374032286E+04    0.23430E+00    0.00000E+00  2592   0.625E+00 0.000E+00
CGA:   2    -0.111390768934E+04   -0.16737E+00   -0.16736E+00  2592   0.150E+00-0.121E-03
CGA:   3    -0.111395174987E+04   -0.44061E-01   -0.44063E-01  2592   0.434E-01 0.648E-04
CGA:   4    -0.111396436288E+04   -0.12613E-01   -0.12612E-01  2592   0.111E-01-0.421E-04
CGA:   5    -0.111396787577E+04   -0.35129E-02   -0.35129E-02  2592   0.302E-02-0.703E-05
CGA:   6    -0.111396894646E+04   -0.10707E-02   -0.10704E-02  2592   0.835E-03 0.586E-05
CGA:   7    -0.111396922377E+04   -0.27732E-03   -0.27723E-03  2592   0.237E-03 0.553E-05
CGA:   8    -0.111396930180E+04   -0.78031E-04   -0.78033E-04  2592   0.662E-04-0.388E-06
CGA:   9    -0.111396932512E+04   -0.23319E-04   -0.23363E-04  2592   0.191E-04-0.129E-05
CGA:  10    -0.111396933103E+04   -0.59041E-05   -0.59108E-05  2592   0.452E-05 0.156E-05
  11 F= -.11139693E+04 E0= -.11139614E+04  d E =0.529713E-02  mag=    -0.0000
       N       E                     dE             d eps       ncg     rms          ort
SDA:   1    -0.111386530376E+04    0.10402E+00    0.00000E+00  2592   0.317E+00 0.000E+00
CGA:   2    -0.111394488947E+04   -0.79586E-01   -0.79593E-01  2592   0.811E-01 0.474E-04
CGA:   3    -0.111396762837E+04   -0.22739E-01   -0.22738E-01  2592   0.226E-01-0.650E-04
CGA:   4    -0.111397438613E+04   -0.67578E-02   -0.67565E-02  2592   0.557E-02-0.736E-04
CGA:   5    -0.111397616782E+04   -0.17817E-02   -0.17817E-02  2592   0.142E-02 0.225E-05
CGA:   6    -0.111397668837E+04   -0.52054E-03   -0.52044E-03  2592   0.389E-03 0.171E-05
CGA:   7    -0.111397681933E+04   -0.13096E-03   -0.13102E-03  2592   0.114E-03-0.392E-05
CGA:   8    -0.111397685540E+04   -0.36078E-04   -0.36079E-04  2592   0.304E-04 0.605E-06
CGA:   9    -0.111397686582E+04   -0.10415E-04   -0.10395E-04  2592   0.807E-05 0.986E-06
CGA:  10    -0.111397686928E+04   -0.34598E-05   -0.36488E-05  2592   0.370E-05-0.162E-05
  12 F= -.11139769E+04 E0= -.11139689E+04  d E =-.753825E-02  mag=     0.0000
       N       E                     dE             d eps       ncg     rms          ort
SDA:   1    -0.111395608903E+04    0.20777E-01    0.00000E+00  2592   0.573E-01 0.000E+00
CGA:   2    -0.111397127768E+04   -0.15189E-01   -0.15190E-01  2592   0.116E-01 0.125E-05
CGA:   3    -0.111397516439E+04   -0.38867E-02   -0.38857E-02  2592   0.305E-02 0.639E-04
CGA:   4    -0.111397610600E+04   -0.94161E-03   -0.94212E-03  2592   0.809E-03 0.345E-04
CGA:   5    -0.111397637032E+04   -0.26432E-03   -0.26434E-03  2592   0.274E-03-0.589E-05
CGA:   6    -0.111397645430E+04   -0.83977E-04   -0.84079E-04  2592   0.720E-04 0.925E-05
CGA:   7    -0.111397648015E+04   -0.25851E-04   -0.25844E-04  2592   0.194E-04 0.223E-06
CGA:   8    -0.111397648735E+04   -0.71993E-05   -0.72522E-05  2592   0.549E-05-0.105E-05
  13 F= -.11139765E+04 E0= -.11139685E+04  d E =0.381928E-03  mag=    -0.0000
       N       E                     dE             d eps       ncg     rms          ort
SDA:   1    -0.111397258799E+04    0.38922E-02    0.00000E+00  2592   0.124E-01 0.000E+00
CGA:   2    -0.111397605022E+04   -0.34622E-02   -0.34618E-02  2592   0.285E-02-0.100E-04
CGA:   3    -0.111397692472E+04   -0.87451E-03   -0.87460E-03  2592   0.822E-03 0.677E-05
CGA:   4    -0.111397716786E+04   -0.24314E-03   -0.24291E-03  2592   0.229E-03-0.960E-05
CGA:   5    -0.111397723675E+04   -0.68884E-04   -0.68914E-04  2592   0.621E-04 0.204E-05
CGA:   6    -0.111397725937E+04   -0.22618E-04   -0.22659E-04  2592   0.172E-04-0.949E-06
CGA:   7    -0.111397726511E+04   -0.57411E-05   -0.57337E-05  2592   0.442E-05 0.394E-06
  14 F= -.11139773E+04 E0= -.11139693E+04  d E =-.777756E-03  mag=     0.0000
