       N       E                     dE             d eps       ncg     rms          ort
DAV:   1     0.290006742403E+04    0.29001E+04   -0.21099E+05  2592   0.138E+03
DAV:   2    -0.721307987805E+03   -0.36214E+04   -0.34693E+04  2592   0.242E+02
DAV:   3    -0.120119909088E+04   -0.47989E+03   -0.47464E+03  2592   0.954E+01
DAV:   4    -0.122438038400E+04   -0.23181E+02   -0.23001E+02  2592   0.232E+01
DAV:   5    -0.122568894708E+04   -0.13086E+01   -0.13066E+01  2592   0.537E+00
SDA:   6    -0.109628625345E+04    0.12940E+03   -0.13066E+01  2592   0.672E+02 0.000E+00
CGA:   7    -0.111131260021E+04   -0.15026E+02   -0.15028E+02  2592   0.634E+01 0.113E+00
CGA:   8    -0.111317117305E+04   -0.18586E+01   -0.18489E+01  2592   0.149E+01 0.924E-01
CGA:   9    -0.111365837789E+04   -0.48720E+00   -0.48687E+00  2592   0.400E+00 0.275E-02
CGA:  10    -0.111380692906E+04   -0.14855E+00   -0.15006E+00  2592   0.112E+00-0.100E-01
CGA:  11    -0.111384528257E+04   -0.38354E-01   -0.38504E-01  2592   0.343E-01-0.121E-02
CGA:  12    -0.111385532069E+04   -0.10038E-01   -0.10019E-01  2592   0.786E-02 0.268E-03
CGA:  13    -0.111385820445E+04   -0.28838E-02   -0.29655E-02  2592   0.260E-02-0.569E-03
CGA:  14    -0.111385910802E+04   -0.90357E-03   -0.94080E-03  2592   0.732E-03-0.246E-03
CGA:  15    -0.111385930696E+04   -0.19893E-03   -0.19315E-03  2592   0.192E-03 0.124E-03
CGA:  16    -0.111385934854E+04   -0.41585E-04   -0.45945E-04  2592   0.653E-04 0.104E-03
CGA:  17    -0.111385936012E+04   -0.11576E-04   -0.13245E-04  2592   0.314E-04 0.395E-04
CGA:  18    -0.111385936473E+04   -0.46097E-05   -0.59013E-05  2592   0.193E-04 0.233E-04
   1 F= -.11138594E+04 E0= -.11138515E+04  d E =-.111386E+04  mag=     0.0080
       N       E                     dE             d eps       ncg     rms          ort
SDA:   1    -0.111386089831E+04   -0.15382E-02    0.00000E+00  2592   0.173E-02 0.000E+00
CGA:   2    -0.111386133222E+04   -0.43392E-03   -0.43352E-03  2592   0.409E-03 0.262E-04
CGA:   3    -0.111386145291E+04   -0.12069E-03   -0.11940E-03  2592   0.992E-04 0.253E-04
CGA:   4    -0.111386148677E+04   -0.33865E-04   -0.33985E-04  2592   0.295E-04-0.149E-05
CGA:   5    -0.111386149492E+04   -0.81506E-05   -0.80729E-05  2592   0.654E-05 0.228E-05
   2 F= -.11138615E+04 E0= -.11138536E+04  d E =-.213020E-02  mag=     0.0009
       N       E                     dE             d eps       ncg     rms          ort
SDA:   1    -0.111374874647E+04    0.11274E+00    0.00000E+00  2592   0.390E+00 0.000E+00
CGA:   2    -0.111384746317E+04   -0.98717E-01   -0.98716E-01  2592   0.936E-01-0.698E-06
CGA:   3    -0.111387560479E+04   -0.28142E-01   -0.28144E-01  2592   0.245E-01-0.522E-04
CGA:   4    -0.111388298524E+04   -0.73805E-02   -0.73884E-02  2592   0.636E-02-0.171E-03
CGA:   5    -0.111388489762E+04   -0.19124E-02   -0.19116E-02  2592   0.155E-02 0.149E-04
CGA:   6    -0.111388545832E+04   -0.56069E-03   -0.55971E-03  2592   0.422E-03 0.919E-05
CGA:   7    -0.111388559348E+04   -0.13517E-03   -0.13486E-03  2592   0.115E-03 0.542E-05
CGA:   8    -0.111388563437E+04   -0.40885E-04   -0.41300E-04  2592   0.342E-04-0.465E-05
CGA:   9    -0.111388564578E+04   -0.11411E-04   -0.11451E-04  2592   0.922E-05-0.515E-06
CGA:  10    -0.111388564908E+04   -0.33000E-05   -0.33249E-05  2592   0.259E-05-0.270E-06
   3 F= -.11138856E+04 E0= -.11138778E+04  d E =-.241542E-01  mag=     0.0000
       N       E                     dE             d eps       ncg     rms          ort
SDA:   1    -0.111331462304E+04    0.57102E+00    0.00000E+00  2592   0.178E+01 0.000E+00
CGA:   2    -0.111374689106E+04   -0.43227E+00   -0.43239E+00  2592   0.410E+00 0.539E-03
CGA:   3    -0.111386979008E+04   -0.12290E+00   -0.12291E+00  2592   0.109E+00-0.210E-03
CGA:   4    -0.111390259098E+04   -0.32801E-01   -0.32808E-01  2592   0.278E-01-0.300E-03
CGA:   5    -0.111391102320E+04   -0.84322E-02   -0.84299E-02  2592   0.661E-02 0.809E-04
CGA:   6    -0.111391339624E+04   -0.23730E-02   -0.23712E-02  2592   0.182E-02 0.209E-04
CGA:   7    -0.111391396621E+04   -0.56997E-03   -0.56980E-03  2592   0.492E-03 0.532E-05
CGA:   8    -0.111391413463E+04   -0.16842E-03   -0.16865E-03  2592   0.133E-03-0.424E-05
CGA:   9    -0.111391418204E+04   -0.47409E-04   -0.47429E-04  2592   0.381E-04-0.335E-06
CGA:  10    -0.111391419622E+04   -0.14183E-04   -0.14369E-04  2592   0.118E-04-0.214E-05
CGA:  11    -0.111391419922E+04   -0.30004E-05   -0.30247E-05  2592   0.217E-05 0.107E-05
   4 F= -.11139142E+04 E0= -.11139064E+04  d E =-.285501E-01  mag=    -0.0000
       N       E                     dE             d eps       ncg     rms          ort
SDA:   1    -0.111363552706E+04    0.27867E+00    0.00000E+00  2592   0.816E+00 0.000E+00
CGA:   2    -0.111384593223E+04   -0.21041E+00   -0.21040E+00  2592   0.208E+00-0.224E-03
CGA:   3    -0.111390532890E+04   -0.59397E-01   -0.59400E-01  2592   0.537E-01 0.331E-03
CGA:   4    -0.111392209992E+04   -0.16771E-01   -0.16772E-01  2592   0.136E-01-0.864E-04
CGA:   5    -0.111392623638E+04   -0.41365E-02   -0.41357E-02  2592   0.346E-02 0.619E-04
CGA:   6    -0.111392740987E+04   -0.11735E-02   -0.11730E-02  2592   0.102E-02 0.836E-05
CGA:   7    -0.111392772161E+04   -0.31174E-03   -0.31166E-03  2592   0.260E-03 0.911E-05
CGA:   8    -0.111392781462E+04   -0.93013E-04   -0.93253E-04  2592   0.718E-04-0.400E-05
CGA:   9    -0.111392784068E+04   -0.26060E-04   -0.26098E-04  2592   0.208E-04-0.567E-06
CGA:  10    -0.111392784791E+04   -0.72320E-05   -0.72267E-05  2592   0.586E-05 0.101E-06
   5 F= -.11139278E+04 E0= -.11139200E+04  d E =-.136487E-01  mag=    -0.0000
       N       E                     dE             d eps       ncg     rms          ort
SDA:   1    -0.111269240397E+04    0.12354E+01    0.00000E+00  2592   0.336E+01 0.000E+00
CGA:   2    -0.111359547137E+04   -0.90307E+00   -0.90313E+00  2592   0.861E+00 0.461E-03
CGA:   3    -0.111384013673E+04   -0.24467E+00   -0.24467E+00  2592   0.225E+00 0.228E-03
CGA:   4    -0.111391014669E+04   -0.70010E-01   -0.70013E-01  2592   0.550E-01-0.383E-03
CGA:   5    -0.111392697105E+04   -0.16824E-01   -0.16824E-01  2592   0.146E-01 0.760E-04
CGA:   6    -0.111393179247E+04   -0.48214E-02   -0.48213E-02  2592   0.437E-02 0.275E-05
CGA:   7    -0.111393311396E+04   -0.13215E-02   -0.13215E-02  2592   0.113E-02 0.258E-04
CGA:   8    -0.111393351003E+04   -0.39606E-03   -0.39654E-03  2592   0.301E-03-0.107E-04
CGA:   9    -0.111393362305E+04   -0.11302E-03   -0.11327E-03  2592   0.861E-04-0.338E-05
CGA:  10    -0.111393365274E+04   -0.29688E-04   -0.29691E-04  2592   0.254E-04-0.110E-06
CGA:  11    -0.111393366040E+04   -0.76638E-05   -0.76700E-05  2592   0.533E-05 0.793E-06
   6 F= -.11139337E+04 E0= -.11139259E+04  d E =-.581249E-02  mag=    -0.0000
       N       E                     dE             d eps       ncg     rms          ort
SDA:   1    -0.111366465007E+04    0.26900E+00    0.00000E+00  2592   0.745E+00 0.000E+00
CGA:   2    -0.111387039667E+04   -0.20575E+00   -0.20575E+00  2592   0.180E+00-0.672E-04
CGA:   3    -0.111392292486E+04   -0.52528E-01   -0.52531E-01  2592   0.508E-01 0.351E-04
CGA:   4    -0.111393812156E+04   -0.15197E-01   -0.15197E-01  2592   0.132E-01 0.187E-05
CGA:   5    -0.111394210420E+04   -0.39826E-02   -0.39827E-02  2592   0.366E-02 0.184E-05
CGA:   6    -0.111394338029E+04   -0.12761E-02   -0.12761E-02  2592   0.100E-02-0.243E-05
CGA:   7    -0.111394370608E+04   -0.32578E-03   -0.32558E-03  2592   0.282E-03 0.150E-04
CGA:   8    -0.111394380060E+04   -0.94525E-04   -0.94649E-04  2592   0.852E-04-0.689E-05
CGA:   9    -0.111394382859E+04   -0.27987E-04   -0.27958E-04  2592   0.214E-04 0.120E-05
CGA:  10    -0.111394383649E+04   -0.79019E-05   -0.78876E-05  2592   0.587E-05 0.291E-06
   7 F= -.11139438E+04 E0= -.11139361E+04  d E =-.101761E-01  mag=     0.0000
       N       E                     dE             d eps       ncg     rms          ort
SDA:   1    -0.111383675349E+04    0.10708E+00    0.00000E+00  2592   0.302E+00 0.000E+00
CGA:   2    -0.111391711661E+04   -0.80363E-01   -0.80361E-01  2592   0.749E-01 0.410E-04
CGA:   3    -0.111393893063E+04   -0.21814E-01   -0.21815E-01  2592   0.198E-01 0.151E-04
CGA:   4    -0.111394500436E+04   -0.60737E-02   -0.60741E-02  2592   0.497E-02 0.634E-04
CGA:   5    -0.111394654163E+04   -0.15373E-02   -0.15371E-02  2592   0.132E-02-0.343E-04
CGA:   6    -0.111394697965E+04   -0.43803E-03   -0.43766E-03  2592   0.371E-03 0.164E-04
CGA:   7    -0.111394709657E+04   -0.11691E-03   -0.11691E-03  2592   0.104E-03-0.193E-05
CGA:   8    -0.111394713123E+04   -0.34662E-04   -0.34649E-04  2592   0.273E-04 0.584E-06
CGA:   9    -0.111394714114E+04   -0.99099E-05   -0.98675E-05  2592   0.736E-05 0.940E-06
   8 F= -.11139471E+04 E0= -.11139394E+04  d E =-.330465E-02  mag=     0.0000
       N       E                     dE             d eps       ncg     rms          ort
SDA:   1    -0.111389443577E+04    0.52695E-01    0.00000E+00  2592   0.154E+00 0.000E+00
CGA:   2    -0.111393484495E+04   -0.40409E-01   -0.40402E-01  2592   0.373E-01-0.864E-04
CGA:   3    -0.111394617322E+04   -0.11328E-01   -0.11330E-01  2592   0.965E-02 0.837E-04
CGA:   4    -0.111394914405E+04   -0.29708E-02   -0.29711E-02  2592   0.248E-02 0.454E-04
CGA:   5    -0.111394990168E+04   -0.75763E-03   -0.75763E-03  2592   0.676E-03-0.535E-06
CGA:   6    -0.111395012727E+04   -0.22559E-03   -0.22562E-03  2592   0.190E-03-0.185E-05
CGA:   7    -0.111395018485E+04   -0.57585E-04   -0.57646E-04  2592   0.486E-04 0.644E-05
CGA:   8    -0.111395020228E+04   -0.17433E-04   -0.17468E-04  2592   0.146E-04-0.104E-05
CGA:   9    -0.111395020737E+04   -0.50817E-05   -0.50723E-05  2592   0.383E-05 0.229E-06
   9 F= -.11139502E+04 E0= -.11139424E+04  d E =-.306623E-02  mag=     0.0000
       N       E                     dE             d eps       ncg     rms          ort
SDA:   1    -0.111305808313E+04    0.89212E+00    0.00000E+00  2592   0.241E+01 0.000E+00
CGA:   2    -0.111371662308E+04   -0.65854E+00   -0.65854E+00  2592   0.589E+00-0.140E-04
CGA:   3    -0.111388957770E+04   -0.17295E+00   -0.17296E+00  2592   0.156E+00-0.277E-04
CGA:   4    -0.111393689652E+04   -0.47319E-01   -0.47319E-01  2592   0.374E-01-0.287E-04
CGA:   5    -0.111394852486E+04   -0.11628E-01   -0.11628E-01  2592   0.994E-02-0.292E-04
CGA:   6    -0.111395177972E+04   -0.32549E-02   -0.32546E-02  2592   0.282E-02 0.189E-04
CGA:   7    -0.111395263935E+04   -0.85963E-03   -0.85990E-03  2592   0.769E-03 0.212E-04
CGA:   8    -0.111395289895E+04   -0.25960E-03   -0.25975E-03  2592   0.211E-03-0.807E-05
CGA:   9    -0.111395297772E+04   -0.78777E-04   -0.78750E-04  2592   0.569E-04 0.351E-06
CGA:  10    -0.111395299875E+04   -0.21026E-04   -0.21051E-04  2592   0.163E-04-0.515E-06
CGA:  11    -0.111395300364E+04   -0.48955E-05   -0.49067E-05  2592   0.355E-05 0.599E-06
  10 F= -.11139530E+04 E0= -.11139452E+04  d E =-.279628E-02  mag=     0.0000
       N       E                     dE             d eps       ncg     rms          ort
SDA:   1    -0.111290678710E+04    0.10462E+01    0.00000E+00  2592   0.277E+01 0.000E+00
CGA:   2    -0.111368214395E+04   -0.77536E+00   -0.77540E+00  2592   0.654E+00 0.162E-03
CGA:   3    -0.111388071123E+04   -0.19857E+00   -0.19857E+00  2592   0.174E+00-0.121E-03
CGA:   4    -0.111393361133E+04   -0.52900E-01   -0.52900E-01  2592   0.420E-01-0.692E-04
CGA:   5    -0.111394687573E+04   -0.13264E-01   -0.13264E-01  2592   0.112E-01-0.504E-04
CGA:   6    -0.111395063650E+04   -0.37608E-02   -0.37605E-02  2592   0.312E-02 0.260E-04
CGA:   7    -0.111395161236E+04   -0.97586E-03   -0.97615E-03  2592   0.899E-03 0.171E-04
CGA:   8    -0.111395190569E+04   -0.29333E-03   -0.29332E-03  2592   0.254E-03-0.504E-05
CGA:   9    -0.111395199975E+04   -0.94058E-04   -0.94106E-04  2592   0.665E-04-0.115E-05
CGA:  10    -0.111395202476E+04   -0.25004E-04   -0.25043E-04  2592   0.181E-04-0.809E-06
CGA:  11    -0.111395203026E+04   -0.55087E-05   -0.55225E-05  2592   0.400E-05 0.624E-06
  11 F= -.11139520E+04 E0= -.11139444E+04  d E =0.973380E-03  mag=     0.0000
       N       E                     dE             d eps       ncg     rms          ort
SDA:   1    -0.111342211550E+04    0.52991E+00    0.00000E+00  2592   0.146E+01 0.000E+00
CGA:   2    -0.111381645019E+04   -0.39433E+00   -0.39434E+00  2592   0.354E+00 0.842E-04
CGA:   3    -0.111392160268E+04   -0.10515E+00   -0.10517E+00  2592   0.941E-01 0.184E-03
CGA:   4    -0.111395044849E+04   -0.28846E-01   -0.28844E-01  2592   0.227E-01-0.124E-03
CGA:   5    -0.111395754962E+04   -0.71011E-02   -0.71021E-02  2592   0.608E-02 0.440E-04
CGA:   6    -0.111395959656E+04   -0.20469E-02   -0.20468E-02  2592   0.170E-02 0.247E-04
CGA:   7    -0.111396012871E+04   -0.53216E-03   -0.53218E-03  2592   0.481E-03 0.422E-06
CGA:   8    -0.111396029054E+04   -0.16183E-03   -0.16186E-03  2592   0.130E-03-0.410E-05
CGA:   9    -0.111396033800E+04   -0.47456E-04   -0.47387E-04  2592   0.341E-04 0.170E-05
CGA:  10    -0.111396035004E+04   -0.12046E-04   -0.12012E-04  2592   0.862E-05 0.207E-05
CGA:  11    -0.111396035332E+04   -0.32727E-05   -0.32877E-05  2592   0.256E-05-0.565E-06
  12 F= -.11139604E+04 E0= -.11139526E+04  d E =-.832305E-02  mag=    -0.0000
       N       E                     dE             d eps       ncg     rms          ort
SDA:   1    -0.111393218168E+04    0.28168E-01    0.00000E+00  2592   0.793E-01 0.000E+00
CGA:   2    -0.111395313076E+04   -0.20949E-01   -0.20953E-01  2592   0.190E-01 0.383E-04
CGA:   3    -0.111395895115E+04   -0.58204E-02   -0.58185E-02  2592   0.558E-02-0.858E-04
CGA:   4    -0.111396057092E+04   -0.16198E-02   -0.16196E-02  2592   0.150E-02-0.681E-05
CGA:   5    -0.111396103633E+04   -0.46541E-03   -0.46535E-03  2592   0.413E-03-0.432E-05
CGA:   6    -0.111396118315E+04   -0.14682E-03   -0.14679E-03  2592   0.113E-03 0.863E-06
CGA:   7    -0.111396122232E+04   -0.39167E-04   -0.39254E-04  2592   0.342E-04-0.423E-05
CGA:   8    -0.111396123224E+04   -0.99173E-05   -0.99596E-05  2592   0.790E-05 0.170E-05
  13 F= -.11139612E+04 E0= -.11139535E+04  d E =-.878919E-03  mag=     0.0000
       N       E                     dE             d eps       ncg     rms          ort
SDA:   1    -0.111395191778E+04    0.93045E-02    0.00000E+00  2592   0.276E-01 0.000E+00
CGA:   2    -0.111395938713E+04   -0.74694E-02   -0.74688E-02  2592   0.641E-02-0.139E-04
CGA:   3    -0.111396135948E+04   -0.19724E-02   -0.19722E-02  2592   0.171E-02-0.112E-04
CGA:   4    -0.111396187345E+04   -0.51397E-03   -0.51393E-03  2592   0.426E-03-0.223E-05
CGA:   5    -0.111396200561E+04   -0.13216E-03   -0.13214E-03  2592   0.117E-03-0.213E-05
CGA:   6    -0.111396204434E+04   -0.38726E-04   -0.38739E-04  2592   0.337E-04-0.123E-05
CGA:   7    -0.111396205434E+04   -0.99985E-05   -0.10027E-04  2592   0.869E-05 0.125E-05
  14 F= -.11139621E+04 E0= -.11139544E+04  d E =-.822100E-03  mag=     0.0000
