       N       E                     dE             d eps       ncg     rms          ort
DAV:   1     0.112926286260E+05    0.11293E+05   -0.46600E+05  8540   0.170E+03
DAV:   2     0.791522196694E+02   -0.11213E+05   -0.10207E+05  8540   0.487E+02
DAV:   3    -0.154292098255E+04   -0.16221E+04   -0.15370E+04  8540   0.197E+02
DAV:   4    -0.162590423133E+04   -0.82983E+02   -0.81866E+02  8540   0.454E+01
DAV:   5    -0.162693992531E+04   -0.10357E+01   -0.10329E+01  8540   0.553E+00
SDA:   6    -0.793058939898E+03    0.83388E+03   -0.10329E+01  8540   0.284E+04 0.000E+00
CGA:   7    -0.119800360325E+04   -0.40494E+03   -0.40669E+03  8540   0.290E+03 0.204E+02
CGA:   8    -0.125168065460E+04   -0.53677E+02   -0.53697E+02  8540   0.662E+02 0.197E+01
CGA:   9    -0.127312430623E+04   -0.21444E+02   -0.21423E+02  8540   0.347E+02 0.141E+00
CGA:  10    -0.128133620203E+04   -0.82119E+01   -0.82395E+01  8540   0.945E+01-0.761E+00
CGA:  11    -0.128366192184E+04   -0.23257E+01   -0.23515E+01  8540   0.231E+01-0.523E+00
CGA:  12    -0.128421073047E+04   -0.54881E+00   -0.55454E+00  8540   0.649E+00-0.122E+00
CGA:  13    -0.128438432014E+04   -0.17359E+00   -0.17340E+00  8540   0.206E+00 0.191E-02
CGA:  14    -0.128445410287E+04   -0.69783E-01   -0.74033E-01  8540   0.981E-01-0.297E-01
CGA:  15    -0.128446934230E+04   -0.15239E-01   -0.57346E-01  8540   0.164E+00-0.920E-01
CGA:  16    -0.128451109749E+04   -0.41755E-01   -0.41776E-01  8540   0.271E-01-0.182E-02
CGA:  17    -0.128452044699E+04   -0.93495E-02   -0.98981E-02  8540   0.112E-01-0.435E-02
CGA:  18    -0.128450848517E+04    0.11962E-01   -0.10228E-01  8540   0.111E+00-0.264E-01
CGA:  19    -0.128452572539E+04   -0.17240E-01   -0.17879E-01  8540   0.900E-02 0.597E-02
CGA:  20    -0.128452856909E+04   -0.28437E-02   -0.28183E-02  8540   0.220E-02 0.222E-02
CGA:  21    -0.128452947995E+04   -0.91086E-03   -0.90576E-03  8540   0.938E-03 0.117E-03
CGA:  22    -0.128452966574E+04   -0.18579E-03   -0.19845E-03  8540   0.141E-03 0.144E-03
CGA:  23    -0.128452984403E+04   -0.17829E-03    0.24797E-04  8540   0.997E-04 0.476E-04
CGA:  24    -0.128453017969E+04   -0.33567E-03    0.55218E-05  8540   0.458E-04 0.355E-04
CGA:  25    -0.128453048064E+04   -0.30095E-03    0.11738E-05  8540   0.340E-04 0.332E-04
CGA:  26    -0.128453056407E+04   -0.83433E-04    0.14563E-05  8540   0.193E-04 0.110E-04
CGA:  27    -0.128453068720E+04   -0.12312E-03    0.48582E-06  8540   0.984E-05 0.149E-04
CGA:  28    -0.128453073370E+04   -0.46499E-04    0.19095E-06  8540   0.720E-05 0.685E-05
CGA:  29    -0.128453077701E+04   -0.43309E-04    0.10676E-06  8540   0.578E-05 0.547E-05
CGA:  30    -0.128453082278E+04   -0.45776E-04    0.63393E-07  8540   0.468E-05 0.446E-05
CGA:  31    -0.128453085669E+04   -0.33909E-04    0.56459E-07  8540   0.381E-05 0.364E-05
CGA:  32    -0.128453089297E+04   -0.36282E-04    0.34299E-07  8540   0.310E-05 0.297E-05
CGA:  33    -0.128453091960E+04   -0.26630E-04    0.31155E-07  8540   0.253E-05 0.243E-05
CGA:  34    -0.128453094846E+04   -0.28861E-04    0.18848E-07  8540   0.206E-05 0.198E-05
CGA:  35    -0.128453096954E+04   -0.21074E-04    0.17289E-07  8540   0.169E-05 0.162E-05
CGA:  36    -0.128453099259E+04   -0.23053E-04    0.10434E-07  8540   0.138E-05 0.132E-05
CGA:  37    -0.128453100932E+04   -0.16735E-04    0.96650E-08  8540   0.113E-05 0.108E-05
CGA:  38    -0.128453102779E+04   -0.18463E-04    0.58125E-08  8540   0.928E-06 0.883E-06
CGA:  39    -0.128453104113E+04   -0.13342E-04    0.54260E-08  8540   0.762E-06 0.723E-06
CGA:  40    -0.128453105594E+04   -0.14813E-04    0.32553E-08  8540   0.625E-06 0.592E-06
CGA:  41    -0.128453106663E+04   -0.10686E-04    0.30509E-08  8540   0.513E-06 0.485E-06
CGA:  42    -0.128453107852E+04   -0.11896E-04    0.18312E-08  8540   0.421E-06 0.398E-06
CGA:  43    -0.128453108712E+04   -0.85970E-05    0.17152E-08  8540   0.346E-06 0.327E-06
   1 F= -.12845311E+04 E0= -.12845311E+04  d E =-.128453E+04  mag=   126.0000
       N       E                     dE             d eps       ncg     rms          ort
SDA:   1    -0.128452920993E+04    0.18686E-02    0.00000E+00  8540   0.142E-01 0.000E+00
CGA:   2    -0.128453314996E+04   -0.39400E-02   -0.39397E-02  8540   0.717E-02-0.608E-04
CGA:   3    -0.128453454033E+04   -0.13904E-02   -0.13924E-02  8540   0.115E-02 0.214E-04
CGA:   4    -0.128453477664E+04   -0.23631E-03   -0.23711E-03  8540   0.212E-03 0.106E-04
CGA:   5    -0.128453482863E+04   -0.51982E-04   -0.51444E-04  8540   0.554E-04-0.151E-04
CGA:   6    -0.128453484355E+04   -0.14924E-04   -0.15244E-04  8540   0.230E-04-0.142E-04
CGA:   7    -0.128453484721E+04   -0.36557E-05   -0.37232E-05  8540   0.586E-05 0.118E-05
   2 F= -.12845348E+04 E0= -.12845348E+04  d E =-.376008E-02  mag=   126.0000
       N       E                     dE             d eps       ncg     rms          ort
SDA:   1    -0.126349491183E+04    0.21040E+02    0.00000E+00  8540   0.534E+02 0.000E+00
CGA:   2    -0.127821116358E+04   -0.14716E+02   -0.14716E+02  8540   0.265E+02 0.198E-01
CGA:   3    -0.128343621403E+04   -0.52251E+01   -0.52262E+01  8540   0.436E+01 0.516E-02
CGA:   4    -0.128433907350E+04   -0.90286E+00   -0.90323E+00  8540   0.817E+00 0.513E-02
CGA:   5    -0.128452207364E+04   -0.18300E+00   -0.18308E+00  8540   0.189E+00 0.173E-02
CGA:   6    -0.128456879891E+04   -0.46725E-01   -0.46722E-01  8540   0.507E-01-0.271E-03
CGA:   7    -0.128458277441E+04   -0.13976E-01   -0.13958E-01  8540   0.160E-01 0.114E-02
CGA:   8    -0.128458779500E+04   -0.50206E-02   -0.49769E-02  8540   0.556E-02 0.100E-02
CGA:   9    -0.128458980133E+04   -0.20063E-02   -0.19867E-02  8540   0.186E-02 0.267E-03
CGA:  10    -0.128459044880E+04   -0.64747E-03   -0.63685E-03  8540   0.590E-03 0.178E-03
CGA:  11    -0.128459066300E+04   -0.21420E-03   -0.20780E-03  8540   0.215E-03 0.122E-03
CGA:  12    -0.128459073479E+04   -0.71792E-04   -0.71503E-04  8540   0.104E-03 0.112E-03
CGA:  13    -0.128459075939E+04   -0.24596E-04   -0.26012E-04  8540   0.552E-04 0.639E-04
CGA:  14    -0.128459077414E+04   -0.14750E-04   -0.14858E-04  8540   0.416E-04 0.467E-04
CGA:  15    -0.128459078177E+04   -0.76322E-05   -0.93662E-05  8540   0.344E-04 0.375E-04
   3 F= -.12845908E+04 E0= -.12845908E+04  d E =-.559346E-01  mag=   126.0000
       N       E                     dE             d eps       ncg     rms          ort
SDA:   1    -0.121224215538E+04    0.72349E+02    0.00000E+00  8540   0.183E+03 0.000E+00
CGA:   2    -0.126243225266E+04   -0.50190E+02   -0.50188E+02  8540   0.900E+02 0.774E-01
CGA:   3    -0.128043704198E+04   -0.18005E+02   -0.18017E+02  8540   0.147E+02 0.763E-01
CGA:   4    -0.128349014729E+04   -0.30531E+01   -0.30541E+01  8540   0.278E+01 0.155E-01
CGA:   5    -0.128412769761E+04   -0.63755E+00   -0.63780E+00  8540   0.682E+00 0.680E-02
CGA:   6    -0.128429748482E+04   -0.16979E+00   -0.16978E+00  8540   0.187E+00-0.724E-03
CGA:   7    -0.128435112134E+04   -0.53637E-01   -0.53595E-01  8540   0.643E-01 0.139E-02
CGA:   8    -0.128437168472E+04   -0.20563E-01   -0.20472E-01  8540   0.229E-01 0.160E-02
CGA:   9    -0.128437981129E+04   -0.81266E-02   -0.81611E-02  8540   0.762E-02-0.412E-03
CGA:  10    -0.128438228682E+04   -0.24755E-02   -0.24654E-02  8540   0.220E-02 0.158E-03
CGA:  11    -0.128438312212E+04   -0.83529E-03   -0.83778E-03  8540   0.813E-03-0.267E-04
CGA:  12    -0.128438346334E+04   -0.34123E-03   -0.33444E-03  8540   0.397E-03 0.459E-04
CGA:  13    -0.128438362479E+04   -0.16145E-03   -0.15101E-03  8540   0.178E-03 0.132E-03
CGA:  14    -0.128438370241E+04   -0.77615E-04   -0.74754E-04  8540   0.827E-04 0.982E-04
CGA:  15    -0.128438373014E+04   -0.27727E-04   -0.26526E-04  8540   0.359E-04 0.360E-04
CGA:  16    -0.128438373919E+04   -0.90504E-05   -0.11523E-04  8540   0.253E-04 0.376E-04
   4 F= -.12843837E+04 E0= -.12843837E+04  d E =0.207043E+00  mag=   126.0000
       N       E                     dE             d eps       ncg     rms          ort
SDA:   1    -0.123358113682E+04    0.50803E+02    0.00000E+00  8540   0.133E+03 0.000E+00
CGA:   2    -0.126764976814E+04   -0.34069E+02   -0.34083E+02  8540   0.652E+02 0.237E+00
CGA:   3    -0.128128930016E+04   -0.13640E+02   -0.13643E+02  8540   0.113E+02 0.311E-01
CGA:   4    -0.128360319745E+04   -0.23139E+01   -0.23147E+01  8540   0.211E+01 0.817E-02
CGA:   5    -0.128407701271E+04   -0.47382E+00   -0.47418E+00  8540   0.494E+00 0.628E-02
CGA:   6    -0.128419830470E+04   -0.12129E+00   -0.12129E+00  8540   0.133E+00-0.719E-04
CGA:   7    -0.128423482483E+04   -0.36520E-01   -0.36511E-01  8540   0.416E-01 0.195E-02
CGA:   8    -0.128424754764E+04   -0.12723E-01   -0.12673E-01  8540   0.140E-01 0.163E-02
CGA:   9    -0.128425247688E+04   -0.49292E-02   -0.49099E-02  8540   0.455E-02 0.299E-03
CGA:  10    -0.128425386619E+04   -0.13893E-02   -0.13766E-02  8540   0.122E-02 0.593E-03
CGA:  11    -0.128425426199E+04   -0.39580E-03   -0.39301E-03  8540   0.362E-03 0.286E-03
CGA:  12    -0.128425438019E+04   -0.11821E-03   -0.11962E-03  8540   0.146E-03 0.155E-03
CGA:  13    -0.128425440856E+04   -0.28372E-04   -0.39540E-04  8540   0.830E-04 0.128E-03
CGA:  14    -0.128425441691E+04   -0.83432E-05   -0.14547E-04  8540   0.543E-04 0.642E-04
   5 F= -.12842544E+04 E0= -.12842544E+04  d E =0.129322E+00  mag=   126.0000
       N       E                     dE             d eps       ncg     rms          ort
SDA:   1    -0.127308264850E+04    0.11172E+02    0.00000E+00  8540   0.329E+02 0.000E+00
CGA:   2    -0.128032163807E+04   -0.72390E+01   -0.72437E+01  8540   0.145E+02 0.535E-01
CGA:   3    -0.128374712533E+04   -0.34255E+01   -0.34257E+01  8540   0.313E+01 0.252E-02
CGA:   4    -0.128438449220E+04   -0.63737E+00   -0.63733E+00  8540   0.562E+00-0.163E-02
CGA:   5    -0.128450934060E+04   -0.12485E+00   -0.12486E+00  8540   0.133E+00 0.224E-03
CGA:   6    -0.128454131212E+04   -0.31972E-01   -0.31970E-01  8540   0.345E-01-0.183E-03
CGA:   7    -0.128455050459E+04   -0.91925E-02   -0.91875E-02  8540   0.995E-02 0.375E-03
CGA:   8    -0.128455347243E+04   -0.29678E-02   -0.29621E-02  8540   0.321E-02 0.137E-03
CGA:   9    -0.128455457312E+04   -0.11007E-02   -0.11031E-02  8540   0.115E-02-0.307E-04
CGA:  10    -0.128455491777E+04   -0.34465E-03   -0.33859E-03  8540   0.332E-03 0.160E-03
CGA:  11    -0.128455504405E+04   -0.12628E-03   -0.12395E-03  8540   0.108E-03 0.354E-04
CGA:  12    -0.128455508238E+04   -0.38330E-04   -0.37131E-04  8540   0.408E-04 0.258E-04
CGA:  13    -0.128455510051E+04   -0.18133E-04   -0.17122E-04  8540   0.185E-04 0.141E-04
CGA:  14    -0.128455511147E+04   -0.10958E-04   -0.10174E-04  8540   0.108E-04 0.560E-05
CGA:  15    -0.128455511633E+04   -0.48611E-05   -0.45958E-05  8540   0.526E-05 0.554E-05
   6 F= -.12845551E+04 E0= -.12845551E+04  d E =-.300699E+00  mag=   126.0000
       N       E                     dE             d eps       ncg     rms          ort
SDA:   1    -0.127990760427E+04    0.46475E+01    0.00000E+00  8540   0.119E+02 0.000E+00
CGA:   2    -0.128302797857E+04   -0.31204E+01   -0.31206E+01  8540   0.612E+01 0.479E-02
CGA:   3    -0.128429819875E+04   -0.12702E+01   -0.12702E+01  8540   0.988E+00-0.207E-02
CGA:   4    -0.128449859620E+04   -0.20040E+00   -0.20041E+00  8540   0.182E+00 0.383E-04
CGA:   5    -0.128453983403E+04   -0.41238E-01   -0.41272E-01  8540   0.424E-01 0.711E-03
CGA:   6    -0.128454995655E+04   -0.10123E-01   -0.10129E-01  8540   0.104E-01 0.185E-03
CGA:   7    -0.128455280696E+04   -0.28504E-02   -0.28502E-02  8540   0.315E-02 0.524E-04
CGA:   8    -0.128455378437E+04   -0.97741E-03   -0.97765E-03  8540   0.109E-02-0.692E-05
CGA:   9    -0.128455417147E+04   -0.38710E-03   -0.39372E-03  8540   0.390E-03-0.728E-04
CGA:  10    -0.128455427811E+04   -0.10664E-03   -0.10604E-03  8540   0.100E-03 0.372E-04
CGA:  11    -0.128455431891E+04   -0.40803E-04   -0.42274E-04  8540   0.384E-04-0.137E-04
CGA:  12    -0.128455417275E+04    0.14616E-03   -0.78992E-04  8540   0.689E-03-0.135E-03
CGA:  13    -0.128455433961E+04   -0.16686E-03   -0.16943E-03  8540   0.730E-04 0.953E-05
CGA:  14    -0.128455436764E+04   -0.28027E-04   -0.28280E-04  8540   0.166E-04 0.214E-05
CGA:  15    -0.128455408652E+04    0.28112E-03   -0.15208E-03  8540   0.127E-02-0.125E-03
CGA:  16    -0.128455427906E+04   -0.19254E-03   -0.25035E-03  8540   0.175E-03 0.833E-04
CGA:  17    -0.128455437959E+04   -0.10052E-03   -0.78055E-04  8540   0.948E-04-0.502E-04
CGA:  18    -0.128455437511E+04    0.44784E-05   -0.12577E-04  8540   0.357E-04 0.260E-04
   7 F= -.12845544E+04 E0= -.12845544E+04  d E =0.741225E-03  mag=   126.0000
       N       E                     dE             d eps       ncg     rms          ort
SDA:   1    -0.122535134267E+04    0.59203E+02    0.00000E+00  8540   0.152E+03 0.000E+00
CGA:   2    -0.126554912479E+04   -0.40198E+02   -0.40391E+02  8540   0.740E+02 0.894E+00
CGA:   3    -0.128109938174E+04   -0.15550E+02   -0.15630E+02  8540   0.120E+02 0.121E+01
CGA:   4    -0.128362099954E+04   -0.25216E+01   -0.25237E+01  8540   0.233E+01 0.478E-01
CGA:   5    -0.128415062116E+04   -0.52962E+00   -0.53146E+00  8540   0.560E+00 0.286E-02
CGA:   6    -0.128428842810E+04   -0.13781E+00   -0.13787E+00  8540   0.149E+00-0.144E-03
CGA:   7    -0.128432976218E+04   -0.41334E-01   -0.41556E-01  8540   0.478E-01 0.525E-03
CGA:   8    -0.128434436537E+04   -0.14603E-01   -0.14767E-01  8540   0.164E-01 0.483E-03
CGA:   9    -0.128434996673E+04   -0.56014E-02   -0.55776E-02  8540   0.510E-02-0.882E-04
CGA:  10    -0.128435149922E+04   -0.15325E-02   -0.15998E-02  8540   0.135E-02 0.232E-03
CGA:  11    -0.128435197073E+04   -0.47151E-03   -0.48018E-03  8540   0.395E-03 0.340E-04
CGA:  12    -0.128435212507E+04   -0.15434E-03   -0.15575E-03  8540   0.155E-03 0.677E-05
CGA:  13    -0.128435218566E+04   -0.60591E-04   -0.63463E-04  8540   0.658E-04 0.171E-04
CGA:  14    -0.128435222168E+04   -0.36019E-04   -0.36083E-04  8540   0.369E-04 0.677E-06
CGA:  15    -0.128435222789E+04   -0.62163E-05   -0.10246E-04  8540   0.151E-04 0.142E-04
   8 F= -.12843522E+04 E0= -.12843522E+04  d E =0.202147E+00  mag=   126.0000
       N       E                     dE             d eps       ncg     rms          ort
SDA:   1    -0.126606172401E+04    0.18290E+02    0.00000E+00  8540   0.547E+02 0.000E+00
CGA:   2    -0.127781828453E+04   -0.11757E+02   -0.11847E+02  8540   0.229E+02-0.490E-01
CGA:   3    -0.128329903370E+04   -0.54807E+01   -0.54837E+01  8540   0.520E+01 0.480E-01
CGA:   4    -0.128437371550E+04   -0.10747E+01   -0.10749E+01  8540   0.953E+00 0.170E-02
CGA:   5    -0.128458389029E+04   -0.21017E+00   -0.21029E+00  8540   0.221E+00-0.151E-03
CGA:   6    -0.128463753063E+04   -0.53640E-01   -0.53571E-01  8540   0.591E-01-0.333E-03
CGA:   7    -0.128465339301E+04   -0.15862E-01   -0.15937E-01  8540   0.172E-01 0.378E-03
CGA:   8    -0.128465850014E+04   -0.51071E-02   -0.51319E-02  8540   0.555E-02 0.154E-03
CGA:   9    -0.128466036712E+04   -0.18670E-02   -0.18671E-02  8540   0.194E-02-0.206E-05
CGA:  10    -0.128466095256E+04   -0.58544E-03   -0.60915E-03  8540   0.580E-03 0.190E-03
CGA:  11    -0.128466116854E+04   -0.21598E-03   -0.21862E-03  8540   0.189E-03 0.291E-04
CGA:  12    -0.128466121971E+04   -0.51161E-04   -0.57874E-04  8540   0.645E-04 0.491E-04
CGA:  13    -0.128466124680E+04   -0.27098E-04   -0.28363E-04  8540   0.290E-04 0.174E-04
CGA:  14    -0.128466125575E+04   -0.89444E-05   -0.10857E-04  8540   0.141E-04 0.154E-04
   9 F= -.12846613E+04 E0= -.12846613E+04  d E =-.309028E+00  mag=   126.0000
       N       E                     dE             d eps       ncg     rms          ort
SDA:   1    -0.128379225688E+04    0.86899E+00    0.00000E+00  8540   0.274E+01 0.000E+00
CGA:   2    -0.128438428766E+04   -0.59203E+00   -0.59265E+00  8540   0.116E+01 0.122E-02
CGA:   3    -0.128466015787E+04   -0.27587E+00   -0.27603E+00  8540   0.270E+00 0.430E-03
CGA:   4    -0.128471553001E+04   -0.55372E-01   -0.55386E-01  8540   0.494E-01 0.822E-05
CGA:   5    -0.128472630656E+04   -0.10777E-01   -0.10811E-01  8540   0.111E-01 0.204E-03
CGA:   6    -0.128472901341E+04   -0.27069E-02   -0.27061E-02  8540   0.298E-02-0.889E-05
CGA:   7    -0.128472981874E+04   -0.80533E-03   -0.80567E-03  8540   0.867E-03 0.316E-05
CGA:   8    -0.128473007469E+04   -0.25595E-03   -0.25546E-03  8540   0.275E-03-0.818E-05
CGA:   9    -0.128473017434E+04   -0.99648E-04   -0.10014E-03  8540   0.115E-03-0.350E-04
CGA:  10    -0.128473020908E+04   -0.34749E-04   -0.34671E-04  8540   0.378E-04-0.761E-05
CGA:  11    -0.128473022102E+04   -0.11932E-04   -0.11914E-04  8540   0.106E-04-0.109E-05
CGA:  12    -0.128473022856E+04   -0.75434E-05    0.46450E-04  8540   0.377E-05 0.412E-06
  10 F= -.12847302E+04 E0= -.12847302E+04  d E =-.689728E-01  mag=   126.0000
       N       E                     dE             d eps       ncg     rms          ort
SDA:   1    -0.128272205647E+04    0.20082E+01    0.00000E+00  8540   0.529E+01 0.000E+00
CGA:   2    -0.128410565999E+04   -0.13836E+01   -0.13840E+01  8540   0.268E+01 0.157E-02
CGA:   3    -0.128465880869E+04   -0.55315E+00   -0.55312E+00  8540   0.450E+00-0.841E-03
CGA:   4    -0.128475029097E+04   -0.91482E-01   -0.91488E-01  8540   0.830E-01 0.190E-05
CGA:   5    -0.128476872884E+04   -0.18438E-01   -0.18497E-01  8540   0.189E-01 0.507E-03
CGA:   6    -0.128477329164E+04   -0.45628E-02   -0.45745E-02  8540   0.475E-02 0.128E-03
CGA:   7    -0.128477458757E+04   -0.12959E-02   -0.12986E-02  8540   0.142E-02 0.491E-04
CGA:   8    -0.128477503074E+04   -0.44317E-03   -0.44320E-03  8540   0.489E-03 0.135E-05
CGA:   9    -0.128477519916E+04   -0.16841E-03   -0.16874E-03  8540   0.163E-03-0.140E-04
CGA:  10    -0.128477523777E+04   -0.38613E-04   -0.40861E-04  8540   0.416E-04 0.346E-04
CGA:  11    -0.128477524873E+04   -0.10962E-04   -0.12094E-04  8540   0.132E-04 0.143E-04
CGA:  12    -0.128477525630E+04   -0.75652E-05   -0.85771E-05  8540   0.124E-04-0.598E-05
  11 F= -.12847753E+04 E0= -.12847753E+04  d E =-.450277E-01  mag=   126.0000
       N       E                     dE             d eps       ncg     rms          ort
SDA:   1    -0.125648083512E+04    0.28294E+02    0.00000E+00  8540   0.709E+02 0.000E+00
CGA:   2    -0.127629702496E+04   -0.19816E+02   -0.19818E+02  8540   0.362E+02 0.728E-02
CGA:   3    -0.128341254781E+04   -0.71155E+01   -0.71188E+01  8540   0.561E+01 0.126E-01
CGA:   4    -0.128457056589E+04   -0.11580E+01   -0.11588E+01  8540   0.105E+01 0.772E-02
CGA:   5    -0.128480864797E+04   -0.23808E+00   -0.23841E+00  8540   0.245E+00 0.359E-02
CGA:   6    -0.128486813905E+04   -0.59491E-01   -0.59515E-01  8540   0.630E-01 0.307E-03
CGA:   7    -0.128488574389E+04   -0.17605E-01   -0.17617E-01  8540   0.200E-01 0.550E-03
CGA:   8    -0.128489206100E+04   -0.63171E-02   -0.63117E-02  8540   0.702E-02 0.407E-03
CGA:   9    -0.128489448720E+04   -0.24262E-02   -0.24249E-02  8540   0.216E-02 0.334E-04
CGA:  10    -0.128489512962E+04   -0.64242E-03   -0.64374E-03  8540   0.538E-03 0.243E-03
CGA:  11    -0.128489532857E+04   -0.19896E-03   -0.19783E-03  8540   0.160E-03 0.392E-04
CGA:  12    -0.128489540591E+04   -0.77331E-04   -0.10595E-03  8540   0.188E-03-0.920E-04
CGA:  13    -0.128489544903E+04   -0.43123E-04   -0.45204E-04  8540   0.287E-04 0.265E-04
CGA:  14    -0.128489547156E+04   -0.22535E-04    0.57755E-04  8540   0.123E-04 0.125E-04
CGA:  15    -0.128489548443E+04   -0.12867E-04    0.17713E-04  8540   0.809E-05 0.842E-05
CGA:  16    -0.128489547764E+04    0.67916E-05   -0.54867E-05  8540   0.106E-03-0.150E-04
CGA:  17    -0.128489551553E+04   -0.37893E-04   -0.31965E-04  8540   0.169E-04-0.218E-04
CGA:  18    -0.128489551627E+04   -0.73395E-06   -0.23508E-05  8540   0.296E-05 0.419E-05
  12 F= -.12848955E+04 E0= -.12848955E+04  d E =-.120260E+00  mag=   126.0000
       N       E                     dE             d eps       ncg     rms          ort
SDA:   1    -0.123447624148E+04    0.50419E+02    0.00000E+00  8540   0.146E+03 0.000E+00
CGA:   2    -0.126640366836E+04   -0.31927E+02   -0.32347E+02  8540   0.611E+02-0.498E-01
CGA:   3    -0.128077722194E+04   -0.14374E+02   -0.14391E+02  8540   0.134E+02 0.317E+00
CGA:   4    -0.128356273878E+04   -0.27855E+01   -0.27853E+01  8540   0.246E+01 0.244E-01
CGA:   5    -0.128410998877E+04   -0.54725E+00   -0.54818E+00  8540   0.588E+00 0.912E-03
CGA:   6    -0.128425568213E+04   -0.14569E+00   -0.14568E+00  8540   0.160E+00-0.390E-03
CGA:   7    -0.128430036016E+04   -0.44678E-01   -0.44841E-01  8540   0.493E-01 0.883E-03
CGA:   8    -0.128431551992E+04   -0.15160E-01   -0.15214E-01  8540   0.166E-01 0.378E-03
CGA:   9    -0.128432113103E+04   -0.56111E-02   -0.56220E-02  8540   0.559E-02 0.982E-04
CGA:  10    -0.128432281797E+04   -0.16869E-02   -0.17586E-02  8540   0.164E-02 0.589E-03
CGA:  11    -0.128432338085E+04   -0.56287E-03   -0.58501E-03  8540   0.532E-03 0.211E-03
CGA:  12    -0.128432353381E+04   -0.15296E-03   -0.17595E-03  8540   0.208E-03 0.177E-03
CGA:  13    -0.128432359623E+04   -0.62422E-04   -0.78207E-04  8540   0.100E-03 0.118E-03
CGA:  14    -0.128432361375E+04   -0.17519E-04   -0.26139E-04  8540   0.512E-04 0.582E-04
CGA:  15    -0.128432361412E+04   -0.37201E-06   -0.98156E-05  8540   0.408E-04 0.449E-04
  13 F= -.12843236E+04 E0= -.12843236E+04  d E =0.571902E+00  mag=   126.0000
       N       E                     dE             d eps       ncg     rms          ort
SDA:   1    -0.127512380617E+04    0.91998E+01    0.00000E+00  8540   0.301E+02 0.000E+00
CGA:   2    -0.128135461430E+04   -0.62308E+01   -0.62512E+01  8540   0.122E+02 0.215E-03
CGA:   3    -0.128432686357E+04   -0.29722E+01   -0.29736E+01  8540   0.295E+01 0.983E-02
CGA:   4    -0.128493474656E+04   -0.60788E+00   -0.60856E+00  8540   0.538E+00 0.240E-02
CGA:   5    -0.128505289722E+04   -0.11815E+00   -0.11828E+00  8540   0.123E+00 0.641E-03
CGA:   6    -0.128508292650E+04   -0.30029E-01   -0.29955E-01  8540   0.327E-01-0.713E-03
CGA:   7    -0.128509170312E+04   -0.87766E-02   -0.87911E-02  8540   0.940E-02 0.183E-03
CGA:   8    -0.128509445618E+04   -0.27531E-02   -0.27602E-02  8540   0.289E-02 0.139E-03
CGA:   9    -0.128509542521E+04   -0.96903E-03   -0.96936E-03  8540   0.983E-03 0.351E-04
CGA:  10    -0.128509575755E+04   -0.33234E-03   -0.33263E-03  8540   0.311E-03 0.609E-04
CGA:  11    -0.128509587330E+04   -0.11575E-03   -0.11564E-03  8540   0.948E-04 0.955E-05
CGA:  12    -0.128509589846E+04   -0.25164E-04   -0.26923E-04  8540   0.301E-04 0.273E-04
CGA:  13    -0.128509591340E+04   -0.14944E-04   -0.14762E-04  8540   0.153E-04 0.401E-05
CGA:  14    -0.128509591954E+04   -0.61405E-05   -0.60835E-05  8540   0.729E-05 0.421E-05
  14 F= -.12850959E+04 E0= -.12850959E+04  d E =-.772305E+00  mag=   126.0000
       N       E                     dE             d eps       ncg     rms          ort
SDA:   1    -0.128219711708E+04    0.28988E+01    0.00000E+00  8540   0.895E+01 0.000E+00
CGA:   2    -0.128409718296E+04   -0.19001E+01   -0.19020E+01  8540   0.370E+01 0.540E-02
CGA:   3    -0.128498736293E+04   -0.89018E+00   -0.89041E+00  8540   0.881E+00 0.424E-03
CGA:   4    -0.128516949113E+04   -0.18213E+00   -0.18214E+00  8540   0.162E+00-0.160E-03
CGA:   5    -0.128520474661E+04   -0.35255E-01   -0.35306E-01  8540   0.366E-01 0.445E-03
CGA:   6    -0.128521367530E+04   -0.89287E-02   -0.89295E-02  8540   0.968E-02 0.253E-05
CGA:   7    -0.128521631751E+04   -0.26422E-02   -0.26429E-02  8540   0.283E-02 0.169E-04
CGA:   8    -0.128521719198E+04   -0.87446E-03   -0.87442E-03  8540   0.972E-03-0.110E-03
CGA:   9    -0.128521753016E+04   -0.33818E-03   -0.34665E-03  8540   0.420E-03-0.137E-03
CGA:  10    -0.128521766083E+04   -0.13067E-03   -0.13386E-03  8540   0.159E-03-0.543E-04
CGA:  11    -0.128521771461E+04   -0.53774E-04   -0.76861E-04  8540   0.149E-03-0.962E-04
CGA:  12    -0.128521776539E+04   -0.50783E-04   -0.52176E-04  8540   0.664E-04-0.582E-04
CGA:  13    -0.128521779392E+04   -0.28528E-04    0.86915E-04  8540   0.183E-04 0.117E-05
CGA:  14    -0.128521780914E+04   -0.15224E-04    0.12323E-04  8540   0.683E-05-0.392E-06
CGA:  15    -0.128521782047E+04   -0.11324E-04    0.69392E-06  8540   0.263E-05 0.472E-06
CGA:  16    -0.128521782925E+04   -0.87792E-05    0.12269E-06  8540   0.129E-05 0.785E-06
  15 F= -.12852178E+04 E0= -.12852178E+04  d E =-.121910E+00  mag=   126.0000
       N       E                     dE             d eps       ncg     rms          ort
SDA:   1    -0.128513314179E+04    0.84679E-01    0.00000E+00  8540   0.270E+00 0.000E+00
CGA:   2    -0.128520543665E+04   -0.72295E-01   -0.72325E-01  8540   0.130E+00 0.390E-03
CGA:   3    -0.128523184106E+04   -0.26404E-01   -0.26352E-01  8540   0.227E-01-0.460E-03
CGA:   4    -0.128523658612E+04   -0.47451E-02   -0.47282E-02  8540   0.414E-02-0.155E-03
CGA:   5    -0.128523745270E+04   -0.86657E-03   -0.87994E-03  8540   0.897E-03 0.133E-03
CGA:   6    -0.128523765959E+04   -0.20689E-03   -0.21291E-03  8540   0.215E-03 0.764E-04
CGA:   7    -0.128523773574E+04   -0.76156E-04   -0.76940E-04  8540   0.982E-04-0.305E-04
CGA:   8    -0.128523744363E+04    0.29211E-03   -0.12699E-03  8540   0.176E-02-0.349E-03
CGA:   9    -0.128523774825E+04   -0.30462E-03   -0.31947E-03  8540   0.193E-03 0.803E-04
CGA:  10    -0.128523779161E+04   -0.43366E-04   -0.50089E-04  8540   0.553E-04 0.616E-04
CGA:  11    -0.128523781488E+04   -0.23265E-04   -0.23603E-04  8540   0.236E-04 0.122E-04
CGA:  12    -0.128523779255E+04    0.22324E-04   -0.34586E-04  8540   0.182E-03-0.668E-04
CGA:  13    -0.128523782589E+04   -0.33333E-04   -0.37487E-04  8540   0.265E-04 0.222E-04
CGA:  14    -0.128523783452E+04   -0.86363E-05   -0.92889E-05  8540   0.868E-05 0.920E-05
  16 F= -.12852378E+04 E0= -.12852378E+04  d E =-.200053E-01  mag=   126.0000
       N       E                     dE             d eps       ncg     rms          ort
SDA:   1    -0.126008942972E+04    0.25148E+02    0.00000E+00  8540   0.650E+02 0.000E+00
CGA:   2    -0.127799909457E+04   -0.17910E+02   -0.17933E+02  8540   0.296E+02 0.508E-01
CGA:   3    -0.128394345251E+04   -0.59444E+01   -0.59557E+01  8540   0.556E+01 0.501E-01
CGA:   4    -0.128509784075E+04   -0.11544E+01   -0.11539E+01  8540   0.999E+00 0.959E-02
CGA:   5    -0.128533266665E+04   -0.23483E+00   -0.23543E+00  8540   0.258E+00 0.308E-02
CGA:   6    -0.128539780768E+04   -0.65141E-01   -0.65305E-01  8540   0.750E-01 0.102E-02
CGA:   7    -0.128542049065E+04   -0.22683E-01   -0.22683E-01  8540   0.266E-01-0.912E-05
CGA:   8    -0.128542946837E+04   -0.89777E-02   -0.89737E-02  8540   0.103E-01-0.443E-03
CGA:   9    -0.128543285884E+04   -0.33905E-02   -0.33879E-02  8540   0.316E-02-0.253E-03
CGA:  10    -0.128543386729E+04   -0.10084E-02   -0.10110E-02  8540   0.915E-03 0.147E-03
CGA:  11    -0.128543425211E+04   -0.38482E-03   -0.38721E-03  8540   0.434E-03-0.415E-04
CGA:  12    -0.128543442739E+04   -0.17528E-03   -0.35500E-03  8540   0.931E-03-0.356E-03
CGA:  13    -0.128543467034E+04   -0.24295E-03   -0.24494E-03  8540   0.142E-03 0.179E-04
CGA:  14    -0.128543472006E+04   -0.49726E-04   -0.50354E-04  8540   0.381E-04 0.313E-04
CGA:  15    -0.128543475707E+04   -0.37012E-04    0.96591E-04  8540   0.177E-04 0.137E-04
CGA:  16    -0.128543477207E+04   -0.14995E-04   -0.15406E-04  8540   0.180E-04-0.170E-05
CGA:  17    -0.128543479299E+04   -0.20925E-04    0.44666E-05  8540   0.109E-04 0.106E-05
CGA:  18    -0.128543480527E+04   -0.12275E-04    0.55273E-05  8540   0.576E-05 0.917E-06
CGA:  19    -0.128543481405E+04   -0.87781E-05    0.13991E-05  8540   0.277E-05 0.427E-06
  17 F= -.12854348E+04 E0= -.12854348E+04  d E =-.196980E+00  mag=   126.0000
       N       E                     dE             d eps       ncg     rms          ort
SDA:   1    -0.124819890708E+04    0.37236E+02    0.00000E+00  8540   0.105E+03 0.000E+00
CGA:   2    -0.127199289608E+04   -0.23794E+02   -0.23902E+02  8540   0.465E+02 0.341E-01
CGA:   3    -0.128258734998E+04   -0.10594E+02   -0.10596E+02  8540   0.976E+01 0.704E-01
CGA:   4    -0.128461326286E+04   -0.20259E+01   -0.20274E+01  8540   0.177E+01 0.634E-02
CGA:   5    -0.128501070317E+04   -0.39744E+00   -0.39770E+00  8540   0.424E+00 0.483E-03
CGA:   6    -0.128511643172E+04   -0.10573E+00   -0.10555E+00  8540   0.116E+00-0.199E-02
CGA:   7    -0.128514854985E+04   -0.32118E-01   -0.32224E-01  8540   0.357E-01 0.156E-02
CGA:   8    -0.128515924981E+04   -0.10700E-01   -0.10780E-01  8540   0.116E-01 0.179E-02
CGA:   9    -0.128516316000E+04   -0.39102E-02   -0.39273E-02  8540   0.388E-02 0.104E-02
CGA:  10    -0.128516449324E+04   -0.13332E-02   -0.13471E-02  8540   0.129E-02 0.672E-03
CGA:  11    -0.128516488707E+04   -0.39383E-03   -0.42243E-03  8540   0.475E-03 0.475E-03
CGA:  12    -0.128516498243E+04   -0.95362E-04   -0.13853E-03  8540   0.247E-03 0.353E-03
CGA:  13    -0.128516501306E+04   -0.30624E-04   -0.51758E-04  8540   0.151E-03 0.177E-03
CGA:  14    -0.128516502213E+04   -0.90719E-05   -0.27923E-04  8540   0.124E-03 0.136E-03
CGA:  15    -0.128516502474E+04   -0.26143E-05   -0.20185E-04  8540   0.107E-03 0.115E-03
CGA:  16    -0.128516502452E+04    0.22560E-06   -0.15853E-04  8540   0.944E-04 0.100E-03
CGA:  17    -0.128516502264E+04    0.18741E-05   -0.12839E-04  8540   0.847E-04 0.893E-04
CGA:  18    -0.128516501979E+04    0.28585E-05   -0.10612E-04  8540   0.768E-04 0.805E-04
  18 F= -.12851650E+04 E0= -.12851650E+04  d E =0.269794E+00  mag=   126.0000
       N       E                     dE             d eps       ncg     rms          ort
SDA:   1    -0.127884868653E+04    0.63163E+01    0.00000E+00  8540   0.198E+02 0.000E+00
CGA:   2    -0.128304871454E+04   -0.42000E+01   -0.42042E+01  8540   0.829E+01 0.286E-01
CGA:   3    -0.128504506386E+04   -0.19963E+01   -0.19965E+01  8540   0.194E+01 0.164E-02
CGA:   4    -0.128544201044E+04   -0.39695E+00   -0.39686E+00  8540   0.349E+00-0.190E-02
CGA:   5    -0.128551936672E+04   -0.77356E-01   -0.77371E-01  8540   0.808E-01 0.203E-03
CGA:   6    -0.128553874468E+04   -0.19378E-01   -0.19385E-01  8540   0.209E-01 0.243E-03
CGA:   7    -0.128554448228E+04   -0.57376E-02   -0.57365E-02  8540   0.614E-02 0.120E-03
CGA:   8    -0.128554641867E+04   -0.19364E-02   -0.19587E-02  8540   0.222E-02-0.425E-03
CGA:   9    -0.128554714843E+04   -0.72975E-03   -0.76303E-03  8540   0.942E-03-0.325E-03
CGA:  10    -0.128554738439E+04   -0.23597E-03   -0.23474E-03  8540   0.260E-03 0.618E-04
CGA:  11    -0.128554748362E+04   -0.99234E-04   -0.10176E-03  8540   0.102E-03-0.273E-04
CGA:  12    -0.128554749747E+04   -0.13849E-04   -0.72675E-04  8540   0.267E-03-0.114E-03
CGA:  13    -0.128554756643E+04   -0.68960E-04   -0.68219E-04  8540   0.380E-04-0.153E-04
CGA:  14    -0.128554757769E+04   -0.11253E-04   -0.11195E-04  8540   0.811E-05 0.496E-05
CGA:  15    -0.128554759001E+04   -0.12324E-04    0.11302E-05  8540   0.375E-05 0.208E-05
CGA:  16    -0.128554758733E+04    0.26832E-05   -0.68292E-05  8540   0.333E-04-0.835E-05
CGA:  17    -0.128554761880E+04   -0.31472E-04    0.18935E-04  8540   0.330E-04-0.208E-04
CGA:  18    -0.128554761472E+04    0.40737E-05   -0.19553E-05  8540   0.123E-04 0.201E-04
  19 F= -.12855476E+04 E0= -.12855476E+04  d E =-.382595E+00  mag=   126.0000
       N       E                     dE             d eps       ncg     rms          ort
SDA:   1    -0.128414396924E+04    0.14036E+01    0.00000E+00  8540   0.422E+01 0.000E+00
CGA:   2    -0.128507261518E+04   -0.92865E+00   -0.92949E+00  8540   0.185E+01 0.418E-02
CGA:   3    -0.128550425847E+04   -0.43164E+00   -0.43163E+00  8540   0.410E+00-0.101E-02
CGA:   4    -0.128558868097E+04   -0.84422E-01   -0.84246E-01  8540   0.748E-01-0.159E-02
CGA:   5    -0.128560505682E+04   -0.16376E-01   -0.16399E-01  8540   0.171E-01 0.227E-03
CGA:   6    -0.128560907965E+04   -0.40228E-02   -0.40533E-02  8540   0.426E-02 0.419E-03
CGA:   7    -0.128561031575E+04   -0.12361E-02   -0.12350E-02  8540   0.133E-02-0.481E-04
CGA:   8    -0.128561080323E+04   -0.48747E-03   -0.53828E-03  8540   0.890E-03-0.485E-03
CGA:   9    -0.128561099536E+04   -0.19213E-03   -0.25869E-03  8540   0.671E-03-0.450E-03
CGA:  10    -0.128561112078E+04   -0.12542E-03   -0.13722E-03  8540   0.130E-03 0.105E-03
CGA:  11    -0.128561117287E+04   -0.52092E-04   -0.51869E-04  8540   0.370E-04 0.628E-05
CGA:  12    -0.128561121111E+04   -0.38246E-04    0.10603E-04  8540   0.137E-04 0.976E-05
CGA:  13    -0.128561124350E+04   -0.32389E-04    0.13555E-05  8540   0.514E-05 0.427E-05
CGA:  14    -0.128561126387E+04   -0.20370E-04    0.27585E-06  8540   0.278E-05 0.266E-05
CGA:  15    -0.128561127033E+04   -0.64545E-05    0.16105E-06  8540   0.127E-05 0.128E-05
  20 F= -.12856113E+04 E0= -.12856113E+04  d E =-.636556E-01  mag=   126.0000
       N       E                     dE             d eps       ncg     rms          ort
SDA:   1    -0.128456196535E+04    0.10493E+01    0.00000E+00  8540   0.295E+01 0.000E+00
CGA:   2    -0.128526350174E+04   -0.70154E+00   -0.70188E+00  8540   0.139E+01 0.281E-02
CGA:   3    -0.128557049109E+04   -0.30699E+00   -0.30697E+00  8540   0.274E+00-0.751E-03
CGA:   4    -0.128562666944E+04   -0.56178E-01   -0.56062E-01  8540   0.490E-01-0.118E-02
CGA:   5    -0.128563733492E+04   -0.10665E-01   -0.10699E-01  8540   0.113E-01 0.396E-03
CGA:   6    -0.128564000998E+04   -0.26751E-02   -0.27005E-02  8540   0.273E-02 0.436E-03
CGA:   7    -0.128564083232E+04   -0.82234E-03   -0.82213E-03  8540   0.906E-03-0.661E-04
CGA:   8    -0.128564116688E+04   -0.33457E-03   -0.42284E-03  8540   0.866E-03-0.476E-03
CGA:   9    -0.128564134556E+04   -0.17868E-03   -0.17838E-03  8540   0.129E-03-0.322E-05
CGA:  10    -0.128564139500E+04   -0.49439E-04   -0.51681E-04  8540   0.616E-04-0.217E-04
CGA:  11    -0.128564144710E+04   -0.52095E-04    0.11392E-04  8540   0.218E-04 0.125E-04
CGA:  12    -0.128564148635E+04   -0.39257E-04    0.26861E-05  8540   0.106E-04 0.865E-05
CGA:  13    -0.128564151616E+04   -0.29812E-04    0.95426E-06  8540   0.610E-05 0.587E-05
CGA:  14    -0.128564152514E+04   -0.89721E-05    0.64336E-06  8540   0.274E-05 0.273E-05
  21 F= -.12856415E+04 E0= -.12856415E+04  d E =-.302548E-01  mag=   126.0000
       N       E                     dE             d eps       ncg     rms          ort
SDA:   1    -0.128220387687E+04    0.34376E+01    0.00000E+00  8540   0.882E+01 0.000E+00
CGA:   2    -0.128460939155E+04   -0.24055E+01   -0.24058E+01  8540   0.437E+01 0.374E-02
CGA:   3    -0.128548549013E+04   -0.87610E+00   -0.87607E+00  8540   0.742E+00-0.112E-02
CGA:   4    -0.128563826516E+04   -0.15278E+00   -0.15275E+00  8540   0.133E+00-0.357E-03
CGA:   5    -0.128566768573E+04   -0.29421E-01   -0.29480E-01  8540   0.307E-01 0.812E-03
CGA:   6    -0.128567523229E+04   -0.75466E-02   -0.75618E-02  8540   0.774E-02 0.349E-03
CGA:   7    -0.128567748629E+04   -0.22540E-02   -0.22543E-02  8540   0.260E-02-0.125E-03
CGA:   8    -0.128567842572E+04   -0.93943E-03   -0.98429E-03  8540   0.133E-02-0.457E-03
CGA:   9    -0.128567883922E+04   -0.41349E-03   -0.45854E-03  8540   0.686E-03-0.359E-03
CGA:  10    -0.128567901255E+04   -0.17333E-03   -0.17797E-03  8540   0.257E-03-0.810E-04
CGA:  11    -0.128567901727E+04   -0.47196E-05   -0.21016E-03  8540   0.861E-03-0.329E-03
CGA:  12    -0.128567924876E+04   -0.23149E-03   -0.23006E-03  8540   0.105E-03-0.224E-04
CGA:  13    -0.128567919301E+04    0.55745E-04   -0.10928E-03  8540   0.746E-03-0.222E-03
CGA:  14    -0.128567929940E+04   -0.10639E-03   -0.13067E-03  8540   0.722E-04 0.128E-03
CGA:  15    -0.128567932861E+04   -0.29207E-04   -0.28974E-04  8540   0.242E-04-0.178E-04
CGA:  16    -0.128567933157E+04   -0.29615E-05   -0.36170E-05  8540   0.682E-05 0.417E-05
  22 F= -.12856793E+04 E0= -.12856793E+04  d E =-.378064E-01  mag=   126.0000
       N       E                     dE             d eps       ncg     rms          ort
SDA:   1    -0.125581669517E+04    0.29863E+02    0.00000E+00  8540   0.818E+02 0.000E+00
CGA:   2    -0.127515811971E+04   -0.19341E+02   -0.19378E+02  8540   0.378E+02 0.737E-01
CGA:   3    -0.128351564011E+04   -0.83575E+01   -0.83595E+01  8540   0.747E+01 0.280E-01
CGA:   4    -0.128505669142E+04   -0.15411E+01   -0.15423E+01  8540   0.137E+01 0.498E-02
CGA:   5    -0.128536184541E+04   -0.30515E+00   -0.30520E+00  8540   0.320E+00-0.347E-03
CGA:   6    -0.128544171011E+04   -0.79865E-01   -0.79654E-01  8540   0.870E-01-0.319E-02
CGA:   7    -0.128546570598E+04   -0.23996E-01   -0.24023E-01  8540   0.265E-01 0.758E-03
CGA:   8    -0.128547376103E+04   -0.80551E-02   -0.80669E-02  8540   0.880E-02 0.115E-02
CGA:   9    -0.128547693426E+04   -0.31732E-02   -0.31600E-02  8540   0.321E-02 0.398E-03
CGA:  10    -0.128547817468E+04   -0.12404E-02   -0.12353E-02  8540   0.126E-02 0.898E-04
CGA:  11    -0.128547868324E+04   -0.50856E-03   -0.50467E-03  8540   0.557E-03 0.508E-04
CGA:  12    -0.128547887574E+04   -0.19250E-03   -0.19071E-03  8540   0.245E-03 0.180E-03
CGA:  13    -0.128547900682E+04   -0.13108E-03   -0.12497E-03  8540   0.143E-03 0.924E-04
CGA:  14    -0.128547909164E+04   -0.84826E-04   -0.79980E-04  8540   0.762E-04 0.566E-04
CGA:  15    -0.128547912653E+04   -0.34883E-04   -0.34866E-04  8540   0.309E-04 0.413E-04
CGA:  16    -0.128547902432E+04    0.10220E-03   -0.56713E-04  8540   0.561E-03-0.958E-04
CGA:  17    -0.128547915176E+04   -0.12744E-03   -0.14413E-03  8540   0.478E-04 0.490E-04
CGA:  18    -0.128547918185E+04   -0.30083E-04   -0.30900E-04  8540   0.106E-03-0.553E-04
CGA:  19    -0.128547917237E+04    0.94781E-05   -0.10970E-04  8540   0.201E-04 0.429E-04
  23 F= -.12854792E+04 E0= -.12854792E+04  d E =0.200159E+00  mag=   126.0000
       N       E                     dE             d eps       ncg     rms          ort
SDA:   1    -0.127886466084E+04    0.66145E+01    0.00000E+00  8540   0.203E+02 0.000E+00
CGA:   2    -0.128321087502E+04   -0.43462E+01   -0.43638E+01  8540   0.852E+01-0.736E-02
CGA:   3    -0.128523138222E+04   -0.20205E+01   -0.20212E+01  8540   0.195E+01 0.698E-02
CGA:   4    -0.128563430528E+04   -0.40292E+00   -0.40246E+00  8540   0.361E+00-0.125E-02
CGA:   5    -0.128571368865E+04   -0.79383E-01   -0.79456E-01  8540   0.824E-01 0.121E-03
CGA:   6    -0.128573344316E+04   -0.19755E-01   -0.19831E-01  8540   0.211E-01 0.308E-03
CGA:   7    -0.128573934079E+04   -0.58976E-02   -0.58976E-02  8540   0.622E-02-0.304E-05
CGA:   8    -0.128574136633E+04   -0.20255E-02   -0.19720E-02  8540   0.222E-02-0.393E-03
CGA:   9    -0.128574218929E+04   -0.82297E-03   -0.79928E-03  8540   0.100E-02-0.378E-03
CGA:  10    -0.128574247353E+04   -0.28424E-03   -0.27714E-03  8540   0.316E-03-0.652E-04
CGA:  11    -0.128574261122E+04   -0.13769E-03   -0.14655E-03  8540   0.224E-03-0.152E-03
CGA:  12    -0.128574056002E+04    0.20512E-02   -0.11127E-02  8540   0.844E-02-0.100E-02
CGA:  13    -0.128574261529E+04   -0.20553E-02   -0.20331E-02  8540   0.104E-02-0.379E-04
CGA:  14    -0.128574289296E+04   -0.27767E-03   -0.34515E-03  8540   0.288E-03 0.152E-03
CGA:  15    -0.128574304802E+04   -0.15507E-03   -0.14036E-03  8540   0.209E-03-0.447E-04
CGA:  16    -0.128574303804E+04    0.99808E-05   -0.31473E-04  8540   0.793E-04 0.740E-04
CGA:  17    -0.128574302167E+04    0.16375E-04   -0.13533E-04  8540   0.366E-04 0.512E-04
CGA:  18    -0.128574302814E+04   -0.64700E-05   -0.11458E-04  8540   0.152E-04 0.135E-04
  24 F= -.12857430E+04 E0= -.12857430E+04  d E =-.263856E+00  mag=   126.0000
       N       E                     dE             d eps       ncg     rms          ort
SDA:   1    -0.128519726705E+04    0.54575E+00    0.00000E+00  8540   0.163E+01 0.000E+00
CGA:   2    -0.128555965281E+04   -0.36239E+00   -0.36304E+00  8540   0.732E+00 0.434E-03
CGA:   3    -0.128572897401E+04   -0.16932E+00   -0.16928E+00  8540   0.155E+00-0.485E-03
CGA:   4    -0.128576102798E+04   -0.32054E-01   -0.31816E-01  8540   0.282E-01-0.607E-03
CGA:   5    -0.128576712798E+04   -0.61000E-02   -0.61444E-02  8540   0.642E-02 0.117E-03
CGA:   6    -0.128576859195E+04   -0.14640E-02   -0.15340E-02  8540   0.156E-02 0.218E-03
CGA:   7    -0.128576905039E+04   -0.45844E-03   -0.45816E-03  8540   0.475E-03-0.133E-05
CGA:   8    -0.128576926175E+04   -0.21136E-03   -0.19256E-03  8540   0.295E-03-0.154E-03
CGA:   9    -0.128576935913E+04   -0.97383E-04   -0.86244E-04  8540   0.179E-03-0.123E-03
CGA:  10    -0.128576938402E+04   -0.24894E-04   -0.26087E-04  8540   0.655E-04 0.438E-05
CGA:  11    -0.128576939963E+04   -0.15607E-04   -0.16792E-04  8540   0.293E-04 0.463E-05
CGA:  12    -0.128576936729E+04    0.32338E-04   -0.40446E-04  8540   0.290E-03-0.914E-04
CGA:  13    -0.128576943538E+04   -0.68090E-04   -0.73703E-04  8540   0.433E-04 0.202E-04
CGA:  14    -0.128576933287E+04    0.10251E-03   -0.71553E-04  8540   0.689E-03-0.169E-03
CGA:  15    -0.128576941737E+04   -0.84500E-04   -0.13703E-03  8540   0.994E-04 0.142E-03
CGA:  16    -0.128576946491E+04   -0.47540E-04   -0.43479E-04  8540   0.301E-04-0.216E-04
CGA:  17    -0.128576946233E+04    0.25868E-05   -0.26573E-05  8540   0.128E-04 0.122E-04
  25 F= -.12857695E+04 E0= -.12857695E+04  d E =-.264342E-01  mag=   126.0000
       N       E                     dE             d eps       ncg     rms          ort
SDA:   1    -0.128395765068E+04    0.18118E+01    0.00000E+00  8540   0.484E+01 0.000E+00
CGA:   2    -0.128515814425E+04   -0.12005E+01   -0.12015E+01  8540   0.240E+01 0.896E-03
CGA:   3    -0.128567006108E+04   -0.51192E+00   -0.51175E+00  8540   0.434E+00-0.130E-02
CGA:   4    -0.128575882901E+04   -0.88768E-01   -0.88467E-01  8540   0.786E-01-0.106E-02
CGA:   5    -0.128577605397E+04   -0.17225E-01   -0.17316E-01  8540   0.180E-01 0.365E-03
CGA:   6    -0.128578031503E+04   -0.42611E-02   -0.43511E-02  8540   0.441E-02 0.433E-03
CGA:   7    -0.128578159739E+04   -0.12824E-02   -0.12805E-02  8540   0.137E-02-0.132E-04
CGA:   8    -0.128578212144E+04   -0.52405E-03   -0.51053E-03  8540   0.672E-03-0.250E-03
CGA:   9    -0.128578234617E+04   -0.22473E-03   -0.22030E-03  8540   0.318E-03-0.177E-03
CGA:  10    -0.128578241148E+04   -0.65305E-04   -0.66568E-04  8540   0.946E-04 0.884E-05
CGA:  11    -0.128578245311E+04   -0.41633E-04   -0.42148E-04  8540   0.661E-04-0.323E-04
CGA:  12    -0.128578249885E+04   -0.45744E-04    0.35459E-04  8540   0.458E-04-0.160E-04
CGA:  13    -0.128578253995E+04   -0.41099E-04    0.17476E-04  8540   0.271E-04-0.890E-05
CGA:  14    -0.128578256101E+04   -0.21062E-04    0.29638E-04  8540   0.150E-04-0.749E-05
CGA:  15    -0.128578250340E+04    0.57609E-04   -0.19921E-04  8540   0.228E-03-0.549E-04
CGA:  16    -0.128578256436E+04   -0.60960E-04   -0.65066E-04  8540   0.264E-04 0.201E-04
CGA:  17    -0.128578257953E+04   -0.15164E-04   -0.15843E-04  8540   0.148E-04-0.950E-05
CGA:  18    -0.128578257897E+04    0.55444E-06   -0.12113E-05  8540   0.777E-05 0.498E-05
  26 F= -.12857826E+04 E0= -.12857826E+04  d E =-.131166E-01  mag=   126.0000
       N       E                     dE             d eps       ncg     rms          ort
SDA:   1    -0.128301344367E+04    0.27691E+01    0.00000E+00  8540   0.692E+01 0.000E+00
CGA:   2    -0.128494342338E+04   -0.19300E+01   -0.19304E+01  8540   0.357E+01-0.250E-03
CGA:   3    -0.128564029485E+04   -0.69687E+00   -0.69677E+00  8540   0.564E+00-0.803E-03
CGA:   4    -0.128575604452E+04   -0.11575E+00   -0.11569E+00  8540   0.104E+00-0.235E-03
CGA:   5    -0.128577918816E+04   -0.23144E-01   -0.23210E-01  8540   0.236E-01 0.324E-03
CGA:   6    -0.128578485786E+04   -0.56697E-02   -0.57104E-02  8540   0.584E-02 0.244E-03
CGA:   7    -0.128578649843E+04   -0.16406E-02   -0.16487E-02  8540   0.182E-02 0.688E-04
CGA:   8    -0.128578712659E+04   -0.62816E-03   -0.62508E-03  8540   0.729E-03-0.596E-04
CGA:   9    -0.128578738914E+04   -0.26256E-03   -0.26163E-03  8540   0.279E-03-0.541E-04
CGA:  10    -0.128578746591E+04   -0.76765E-04   -0.78986E-04  8540   0.835E-04 0.269E-04
CGA:  11    -0.128578750348E+04   -0.37575E-04   -0.37715E-04  8540   0.447E-04-0.503E-05
CGA:  12    -0.128578748762E+04    0.15870E-04   -0.54925E-04  8540   0.271E-03-0.771E-04
CGA:  13    -0.128578754619E+04   -0.58577E-04   -0.64403E-04  8540   0.318E-04 0.301E-04
CGA:  14    -0.128578755917E+04   -0.12975E-04   -0.13123E-04  8540   0.689E-05 0.299E-05
CGA:  15    -0.128578756017E+04   -0.10026E-05   -0.16603E-05  8540   0.226E-05 0.331E-05
  27 F= -.12857876E+04 E0= -.12857876E+04  d E =-.498120E-02  mag=   126.0000
       N       E                     dE             d eps       ncg     rms          ort
SDA:   1    -0.125937101291E+04    0.26417E+02    0.00000E+00  8540   0.761E+02 0.000E+00
CGA:   2    -0.127594474341E+04   -0.16574E+02   -0.16647E+02  8540   0.327E+02-0.135E-02
CGA:   3    -0.128360164501E+04   -0.76569E+01   -0.76603E+01  8540   0.724E+01 0.393E-01
CGA:   4    -0.128510096917E+04   -0.14993E+01   -0.15006E+01  8540   0.132E+01 0.156E-02
CGA:   5    -0.128539344270E+04   -0.29247E+00   -0.29237E+00  8540   0.307E+00-0.164E-02
CGA:   6    -0.128546975862E+04   -0.76316E-01   -0.75944E-01  8540   0.814E-01-0.325E-02
CGA:   7    -0.128549199269E+04   -0.22234E-01   -0.22263E-01  8540   0.238E-01 0.340E-03
CGA:   8    -0.128549882812E+04   -0.68354E-02   -0.69161E-02  8540   0.731E-02 0.122E-02
CGA:   9    -0.128550130516E+04   -0.24770E-02   -0.24955E-02  8540   0.247E-02 0.670E-03
CGA:  10    -0.128550223632E+04   -0.93117E-03   -0.93244E-03  8540   0.895E-03 0.262E-03
CGA:  11    -0.128550254394E+04   -0.30762E-03   -0.31398E-03  8540   0.303E-03 0.190E-03
CGA:  12    -0.128550260202E+04   -0.58071E-04   -0.81760E-04  8540   0.138E-03 0.187E-03
CGA:  13    -0.128550261892E+04   -0.16907E-04   -0.29155E-04  8540   0.774E-04 0.937E-04
CGA:  14    -0.128550262479E+04   -0.58711E-05   -0.15260E-04  8540   0.603E-04 0.675E-04
CGA:  15    -0.128550262697E+04   -0.21793E-05   -0.10618E-04  8540   0.507E-04 0.551E-04
  28 F= -.12855026E+04 E0= -.12855026E+04  d E =0.284933E+00  mag=   126.0000
       N       E                     dE             d eps       ncg     rms          ort
SDA:   1    -0.127770302727E+04    0.77996E+01    0.00000E+00  8540   0.240E+02 0.000E+00
CGA:   2    -0.128278557234E+04   -0.50825E+01   -0.50902E+01  8540   0.101E+02 0.198E-01
CGA:   3    -0.128518592751E+04   -0.24004E+01   -0.24010E+01  8540   0.230E+01 0.394E-02
CGA:   4    -0.128566557002E+04   -0.47964E+00   -0.47932E+00  8540   0.427E+00-0.363E-02
CGA:   5    -0.128575915908E+04   -0.93589E-01   -0.93650E-01  8540   0.971E-01 0.595E-03
CGA:   6    -0.128578255232E+04   -0.23393E-01   -0.23458E-01  8540   0.246E-01 0.115E-02
CGA:   7    -0.128578951195E+04   -0.69596E-02   -0.69629E-02  8540   0.725E-02 0.230E-03
CGA:   8    -0.128579187318E+04   -0.23612E-02   -0.23784E-02  8540   0.268E-02-0.534E-03
CGA:   9    -0.128579279061E+04   -0.91744E-03   -0.95967E-03  8540   0.117E-02-0.461E-03
CGA:  10    -0.128579306005E+04   -0.26943E-03   -0.27152E-03  8540   0.319E-03 0.109E-03
CGA:  11    -0.128579316308E+04   -0.10303E-03   -0.10309E-03  8540   0.102E-03 0.292E-04
CGA:  12    -0.128579299689E+04    0.16619E-03   -0.15038E-03  8540   0.113E-02-0.302E-03
CGA:  13    -0.128579324856E+04   -0.25167E-03   -0.26047E-03  8540   0.125E-03 0.734E-04
CGA:  14    -0.128579326799E+04   -0.19428E-04   -0.11770E-03  8540   0.329E-03-0.183E-03
CGA:  15    -0.128579331853E+04   -0.50544E-04   -0.66620E-04  8540   0.481E-04 0.955E-04
CGA:  16    -0.128579333876E+04   -0.20228E-04   -0.20015E-04  8540   0.834E-05-0.534E-05
CGA:  17    -0.128579334167E+04   -0.29116E-05   -0.38991E-05  8540   0.830E-05-0.599E-05
  29 F= -.12857933E+04 E0= -.12857933E+04  d E =-.290715E+00  mag=   126.0000
       N       E                     dE             d eps       ncg     rms          ort
SDA:   1    -0.128493181067E+04    0.86153E+00    0.00000E+00  8540   0.258E+01 0.000E+00
CGA:   2    -0.128549006830E+04   -0.55826E+00   -0.55879E+00  8540   0.111E+01 0.198E-02
CGA:   3    -0.128575109891E+04   -0.26103E+00   -0.26102E+00  8540   0.248E+00-0.743E-03
CGA:   4    -0.128580305893E+04   -0.51960E-01   -0.51771E-01  8540   0.458E-01-0.145E-02
CGA:   5    -0.128581287464E+04   -0.98157E-02   -0.98664E-02  8540   0.103E-01 0.415E-03
CGA:   6    -0.128581519295E+04   -0.23183E-02   -0.23835E-02  8540   0.247E-02 0.658E-03
CGA:   7    -0.128581591998E+04   -0.72703E-03   -0.73120E-03  8540   0.744E-03 0.908E-04
CGA:   8    -0.128581622437E+04   -0.30439E-03   -0.36257E-03  8540   0.707E-03-0.393E-03
CGA:   9    -0.128581636363E+04   -0.13926E-03   -0.14151E-03  8540   0.941E-04 0.173E-04
CGA:  10    -0.128581639477E+04   -0.31133E-04   -0.31132E-04  8540   0.281E-04 0.599E-05
CGA:  11    -0.128581642635E+04   -0.31586E-04    0.75423E-05  8540   0.103E-04 0.853E-05
CGA:  12    -0.128581644998E+04   -0.23631E-04    0.12477E-05  8540   0.455E-05 0.477E-05
CGA:  13    -0.128581646694E+04   -0.16952E-04    0.36614E-06  8540   0.231E-05 0.279E-05
CGA:  14    -0.128581647168E+04   -0.47442E-05    0.17061E-06  8540   0.105E-05 0.889E-06
  30 F= -.12858165E+04 E0= -.12858165E+04  d E =-.231300E-01  mag=   126.0000
       N       E                     dE             d eps       ncg     rms          ort
SDA:   1    -0.128522577119E+04    0.59070E+00    0.00000E+00  8540   0.161E+01 0.000E+00
CGA:   2    -0.128561312040E+04   -0.38735E+00   -0.38758E+00  8540   0.771E+00 0.201E-02
CGA:   3    -0.128578141225E+04   -0.16829E+00   -0.16821E+00  8540   0.147E+00-0.110E-02
CGA:   4    -0.128581202060E+04   -0.30608E-01   -0.30483E-01  8540   0.269E-01-0.118E-02
CGA:   5    -0.128581772675E+04   -0.57061E-02   -0.57492E-02  8540   0.597E-02 0.455E-03
CGA:   6    -0.128581906313E+04   -0.13364E-02   -0.13789E-02  8540   0.140E-02 0.554E-03
CGA:   7    -0.128581948808E+04   -0.42495E-03   -0.42639E-03  8540   0.437E-03 0.674E-04
CGA:   8    -0.128581964661E+04   -0.15853E-03   -0.27256E-03  8540   0.752E-03-0.386E-03
CGA:   9    -0.128581977634E+04   -0.12973E-03   -0.13852E-03  8540   0.769E-04 0.677E-04
CGA:  10    -0.128581979300E+04   -0.16651E-04   -0.18825E-04  8540   0.187E-04 0.263E-04
CGA:  11    -0.128581980838E+04   -0.15388E-04    0.34615E-03  8540   0.792E-05 0.357E-05
CGA:  12    -0.128581982539E+04   -0.17005E-04    0.72387E-06  8540   0.356E-05 0.243E-05
CGA:  13    -0.128581983898E+04   -0.13595E-04    0.18437E-06  8540   0.232E-05 0.167E-05
CGA:  14    -0.128581985038E+04   -0.11396E-04    0.11502E-06  8540   0.135E-05 0.138E-05
CGA:  15    -0.128581985163E+04   -0.12527E-05    0.38290E-06  8540   0.505E-06 0.532E-06
  31 F= -.12858199E+04 E0= -.12858199E+04  d E =-.337995E-02  mag=   126.0000
       N       E                     dE             d eps       ncg     rms          ort
SDA:   1    -0.128474831609E+04    0.10715E+01    0.00000E+00  8540   0.271E+01 0.000E+00
CGA:   2    -0.128547740440E+04   -0.72909E+00   -0.72920E+00  8540   0.139E+01 0.206E-02
CGA:   3    -0.128575787995E+04   -0.28048E+00   -0.28044E+00  8540   0.231E+00-0.664E-03
CGA:   4    -0.128580489163E+04   -0.47012E-01   -0.46967E-01  8540   0.425E-01-0.501E-03
CGA:   5    -0.128581422888E+04   -0.93373E-02   -0.93625E-02  8540   0.958E-02 0.346E-03
CGA:   6    -0.128581647735E+04   -0.22485E-02   -0.22666E-02  8540   0.229E-02 0.337E-03
CGA:   7    -0.128581713539E+04   -0.65804E-03   -0.65841E-03  8540   0.704E-03 0.480E-04
CGA:   8    -0.128581740700E+04   -0.27161E-03   -0.29633E-03  8540   0.436E-03-0.194E-03
CGA:   9    -0.128581750874E+04   -0.10173E-03   -0.10370E-03  8540   0.157E-03-0.533E-04
CGA:  10    -0.128581754249E+04   -0.33749E-04   -0.34709E-04  8540   0.506E-04 0.228E-04
CGA:  11    -0.128581756107E+04   -0.18583E-04   -0.18665E-04  8540   0.238E-04-0.267E-05
CGA:  12    -0.128581757772E+04   -0.16648E-04    0.12585E-04  8540   0.113E-04 0.405E-05
CGA:  13    -0.128581759208E+04   -0.14358E-04    0.22370E-05  8540   0.573E-05 0.286E-05
CGA:  14    -0.128581760059E+04   -0.85105E-05    0.10274E-05  8540   0.286E-05 0.192E-05
  32 F= -.12858176E+04 E0= -.12858176E+04  d E =0.225105E-02  mag=   126.0000
       N       E                     dE             d eps       ncg     rms          ort
SDA:   1    -0.126393261129E+04    0.21885E+02    0.00000E+00  8540   0.617E+02 0.000E+00
CGA:   2    -0.127771503232E+04   -0.13782E+02   -0.13797E+02  8540   0.274E+02 0.710E-01
CGA:   3    -0.128400593588E+04   -0.62909E+01   -0.62924E+01  8540   0.586E+01 0.165E-01
CGA:   4    -0.128521801513E+04   -0.12121E+01   -0.12127E+01  8540   0.107E+01 0.411E-02
CGA:   5    -0.128545613928E+04   -0.23812E+00   -0.23802E+00  8540   0.249E+00-0.234E-02
CGA:   6    -0.128551799120E+04   -0.61852E-01   -0.61724E-01  8540   0.674E-01-0.426E-02
CGA:   7    -0.128553629324E+04   -0.18302E-01   -0.18302E-01  8540   0.194E-01 0.156E-03
CGA:   8    -0.128554177759E+04   -0.54844E-02   -0.54779E-02  8540   0.577E-02 0.138E-02
CGA:   9    -0.128554378206E+04   -0.20045E-02   -0.19780E-02  8540   0.188E-02 0.628E-03
CGA:  10    -0.128554453763E+04   -0.75557E-03   -0.74449E-03  8540   0.720E-03 0.143E-03
CGA:  11    -0.128554478924E+04   -0.25162E-03   -0.24714E-03  8540   0.239E-03 0.127E-03
CGA:  12    -0.128554484197E+04   -0.52728E-04   -0.61794E-04  8540   0.103E-03 0.138E-03
CGA:  13    -0.128554486268E+04   -0.20706E-04   -0.23988E-04  8540   0.535E-04 0.651E-04
CGA:  14    -0.128554487298E+04   -0.10297E-04   -0.12439E-04  8540   0.397E-04 0.452E-04
CGA:  15    -0.128554487862E+04   -0.56450E-05   -0.81924E-05  8540   0.325E-04 0.357E-04
  33 F= -.12855449E+04 E0= -.12855449E+04  d E =0.272722E+00  mag=   126.0000
       N       E                     dE             d eps       ncg     rms          ort
SDA:   1    -0.127792414558E+04    0.76207E+01    0.00000E+00  8540   0.233E+02 0.000E+00
CGA:   2    -0.128287715038E+04   -0.49530E+01   -0.49566E+01  8540   0.980E+01 0.294E-01
CGA:   3    -0.128520555083E+04   -0.23284E+01   -0.23285E+01  8540   0.224E+01-0.611E-03
CGA:   4    -0.128567351362E+04   -0.46796E+00   -0.46766E+00  8540   0.414E+00-0.567E-02
CGA:   5    -0.128576409169E+04   -0.90578E-01   -0.90636E-01  8540   0.937E-01 0.123E-02
CGA:   6    -0.128578666422E+04   -0.22573E-01   -0.22600E-01  8540   0.241E-01 0.137E-02
CGA:   7    -0.128579356651E+04   -0.69023E-02   -0.69001E-02  8540   0.717E-02 0.928E-04
CGA:   8    -0.128579594917E+04   -0.23827E-02   -0.24620E-02  8540   0.301E-02-0.974E-03
CGA:   9    -0.128579689683E+04   -0.94767E-03   -0.10885E-02  8540   0.162E-02-0.918E-03
CGA:  10    -0.128579722593E+04   -0.32910E-03   -0.32965E-03  8540   0.485E-03-0.274E-04
CGA:  11    -0.128579739733E+04   -0.17140E-03   -0.18742E-03  8540   0.257E-03-0.134E-03
CGA:  12    -0.128579751503E+04   -0.11770E-03    0.19650E-03  8540   0.116E-03 0.201E-04
CGA:  13    -0.128579760856E+04   -0.93535E-04    0.51530E-04  8540   0.494E-04 0.196E-04
CGA:  14    -0.128579766367E+04   -0.55111E-04    0.11382E-04  8540   0.200E-04 0.112E-04
CGA:  15    -0.128579769502E+04   -0.31347E-04    0.26461E-05  8540   0.895E-05 0.607E-05
CGA:  16    -0.128579771595E+04   -0.20933E-04    0.73670E-06  8540   0.368E-05 0.269E-05
CGA:  17    -0.128579772960E+04   -0.13643E-04    0.16224E-06  8540   0.174E-05 0.126E-05
CGA:  18    -0.128579774125E+04   -0.11649E-04    0.41071E-07  8540   0.103E-05 0.885E-06
CGA:  19    -0.128579774644E+04   -0.51948E-05    0.17849E-07  8540   0.430E-06 0.550E-06
  34 F= -.12857977E+04 E0= -.12857977E+04  d E =-.252868E+00  mag=   126.0000
       N       E                     dE             d eps       ncg     rms          ort
SDA:   1    -0.128527365893E+04    0.52408E+00    0.00000E+00  8540   0.161E+01 0.000E+00
CGA:   2    -0.128562037173E+04   -0.34671E+00   -0.34697E+00  8540   0.681E+00 0.309E-02
CGA:   3    -0.128578102479E+04   -0.16065E+00   -0.16062E+00  8540   0.156E+00-0.123E-02
CGA:   4    -0.128581401550E+04   -0.32991E-01   -0.32874E-01  8540   0.290E-01-0.190E-02
CGA:   5    -0.128582009989E+04   -0.60844E-02   -0.61098E-02  8540   0.632E-02 0.431E-03
CGA:   6    -0.128582148859E+04   -0.13887E-02   -0.14213E-02  8540   0.148E-02 0.701E-03
CGA:   7    -0.128582193817E+04   -0.44959E-03   -0.44877E-03  8540   0.453E-03 0.107E-03
CGA:   8    -0.128582189584E+04    0.42327E-04   -0.40346E-03  8540   0.204E-02-0.791E-03
CGA:   9    -0.128582226321E+04   -0.36737E-03   -0.38024E-03  8540   0.205E-03 0.119E-03
CGA:  10    -0.128582231084E+04   -0.47633E-04   -0.50763E-04  8540   0.441E-04 0.572E-04
CGA:  11    -0.128582203387E+04    0.27698E-03   -0.14940E-03  8540   0.114E-02-0.244E-03
CGA:  12    -0.128582234642E+04   -0.31256E-03   -0.30541E-03  8540   0.196E-03-0.283E-04
CGA:  13    -0.128582243903E+04   -0.92603E-04   -0.90785E-04  8540   0.494E-04-0.547E-04
CGA:  14    -0.128582243675E+04    0.22794E-05   -0.47507E-05  8540   0.200E-04 0.188E-04
  35 F= -.12858224E+04 E0= -.12858224E+04  d E =-.246903E-01  mag=   126.0000
       N       E                     dE             d eps       ncg     rms          ort
SDA:   1    -0.128524477318E+04    0.57767E+00    0.00000E+00  8540   0.170E+01 0.000E+00
CGA:   2    -0.128561319645E+04   -0.36842E+00   -0.36910E+00  8540   0.737E+00 0.153E-02
CGA:   3    -0.128578757781E+04   -0.17438E+00   -0.17431E+00  8540   0.168E+00-0.664E-03
CGA:   4    -0.128582277792E+04   -0.35200E-01   -0.34944E-01  8540   0.302E-01-0.109E-02
CGA:   5    -0.128582922246E+04   -0.64445E-02   -0.64830E-02  8540   0.678E-02 0.167E-03
CGA:   6    -0.128583074687E+04   -0.15244E-02   -0.15959E-02  8540   0.164E-02 0.377E-03
CGA:   7    -0.128583121982E+04   -0.47295E-03   -0.47803E-03  8540   0.490E-03 0.367E-04
CGA:   8    -0.128583143921E+04   -0.21939E-03   -0.23707E-03  8540   0.476E-03-0.266E-03
CGA:   9    -0.128583153663E+04   -0.97416E-04   -0.96940E-04  8540   0.664E-04-0.240E-05
CGA:  10    -0.128583156518E+04   -0.28558E-04   -0.29708E-04  8540   0.454E-04-0.231E-04
CGA:  11    -0.128583161142E+04   -0.46236E-04    0.63100E-05  8540   0.209E-04-0.702E-05
CGA:  12    -0.128583164865E+04   -0.37233E-04    0.22043E-05  8540   0.852E-05-0.172E-05
CGA:  13    -0.128583166849E+04   -0.19837E-04    0.73027E-06  8540   0.356E-05-0.529E-06
CGA:  14    -0.128583167592E+04   -0.74320E-05    0.37957E-06  8540   0.157E-05-0.531E-06
  36 F= -.12858317E+04 E0= -.12858317E+04  d E =-.923918E-02  mag=   126.0000
       N       E                     dE             d eps       ncg     rms          ort
SDA:   1    -0.128575769727E+04    0.73971E-01    0.00000E+00  8540   0.206E+00 0.000E+00
CGA:   2    -0.128580706544E+04   -0.49368E-01   -0.49420E-01  8540   0.999E-01 0.224E-03
CGA:   3    -0.128582922279E+04   -0.22157E-01   -0.22126E-01  8540   0.191E-01-0.219E-03
CGA:   4    -0.128583314471E+04   -0.39219E-02   -0.38989E-02  8540   0.339E-02-0.129E-03
CGA:   5    -0.128583389554E+04   -0.75083E-03   -0.74941E-03  8540   0.779E-03-0.100E-04
CGA:   6    -0.128583409278E+04   -0.19725E-03   -0.19480E-03  8540   0.205E-03-0.209E-04
CGA:   7    -0.128583415404E+04   -0.61257E-04   -0.60052E-04  8540   0.702E-04-0.195E-04
CGA:   8    -0.128583417627E+04   -0.22227E-04   -0.22068E-04  8540   0.302E-04-0.129E-04
CGA:   9    -0.128583416864E+04    0.76292E-05   -0.23363E-04  8540   0.157E-03-0.529E-04
CGA:  10    -0.128583419707E+04   -0.28432E-04   -0.29827E-04  8540   0.159E-04 0.702E-05
CGA:  11    -0.128583420419E+04   -0.71220E-05   -0.77136E-05  8540   0.934E-05-0.679E-05
  37 F= -.12858342E+04 E0= -.12858342E+04  d E =-.252827E-02  mag=   126.0000
       N       E                     dE             d eps       ncg     rms          ort
SDA:   1    -0.128462196174E+04    0.12122E+01    0.00000E+00  8540   0.314E+01 0.000E+00
CGA:   2    -0.128542624043E+04   -0.80428E+00   -0.80462E+00  8540   0.159E+01 0.802E-03
CGA:   3    -0.128576171507E+04   -0.33547E+00   -0.33537E+00  8540   0.279E+00-0.108E-02
CGA:   4    -0.128581833532E+04   -0.56620E-01   -0.56595E-01  8540   0.492E-01-0.162E-03
CGA:   5    -0.128582930157E+04   -0.10966E-01   -0.10971E-01  8540   0.113E-01 0.262E-04
CGA:   6    -0.128583212938E+04   -0.28278E-02   -0.28082E-02  8540   0.289E-02-0.190E-03
CGA:   7    -0.128583293430E+04   -0.80491E-03   -0.80077E-03  8540   0.890E-03-0.623E-04
CGA:   8    -0.128583320442E+04   -0.27013E-03   -0.27008E-03  8540   0.300E-03-0.171E-05
CGA:   9    -0.128583332476E+04   -0.12034E-03   -0.12487E-03  8540   0.152E-03-0.616E-04
CGA:  10    -0.128583337330E+04   -0.48537E-04   -0.53355E-04  8540   0.838E-04-0.510E-04
CGA:  11    -0.128583278925E+04    0.58404E-03   -0.31562E-03  8540   0.257E-02-0.365E-03
CGA:  12    -0.128583334449E+04   -0.55523E-03   -0.58312E-03  8540   0.279E-03 0.667E-04
CGA:  13    -0.128583345594E+04   -0.11145E-03   -0.10667E-03  8540   0.734E-04-0.193E-04
CGA:  14    -0.128583346435E+04   -0.84091E-05   -0.18016E-04  8540   0.251E-04 0.278E-04
CGA:  15    -0.128583347275E+04   -0.84006E-05   -0.10834E-04  8540   0.955E-05 0.871E-05
  38 F= -.12858335E+04 E0= -.12858335E+04  d E =0.731443E-03  mag=   126.0000
       N       E                     dE             d eps       ncg     rms          ort
SDA:   1    -0.128395291549E+04    0.18805E+01    0.00000E+00  8540   0.477E+01 0.000E+00
CGA:   2    -0.128524319640E+04   -0.12903E+01   -0.12907E+01  8540   0.240E+01-0.126E-02
CGA:   3    -0.128572241232E+04   -0.47922E+00   -0.47931E+00  8540   0.392E+00 0.376E-03
CGA:   4    -0.128580368672E+04   -0.81274E-01   -0.81434E-01  8540   0.732E-01 0.504E-03
CGA:   5    -0.128581981746E+04   -0.16131E-01   -0.16119E-01  8540   0.163E-01-0.564E-04
CGA:   6    -0.128582398376E+04   -0.41663E-02   -0.40919E-02  8540   0.432E-02-0.295E-03
CGA:   7    -0.128582516315E+04   -0.11794E-02   -0.11761E-02  8540   0.130E-02-0.161E-04
CGA:   8    -0.128582555074E+04   -0.38759E-03   -0.39632E-03  8540   0.427E-03 0.489E-04
CGA:   9    -0.128582571767E+04   -0.16693E-03   -0.16443E-03  8540   0.160E-03-0.245E-04
CGA:  10    -0.128582578116E+04   -0.63487E-04   -0.61550E-04  8540   0.699E-04-0.318E-04
CGA:  11    -0.128582580414E+04   -0.22988E-04   -0.41240E-04  8540   0.135E-03-0.677E-04
CGA:  12    -0.128582582739E+04   -0.23249E-04   -0.28503E-04  8540   0.170E-04 0.196E-04
CGA:  13    -0.128582583534E+04   -0.79500E-05   -0.17232E-04  8540   0.463E-04-0.220E-04
CGA:  14    -0.128582584454E+04   -0.91944E-05   -0.11405E-04  8540   0.486E-05 0.919E-05
  39 F= -.12858258E+04 E0= -.12858258E+04  d E =0.762821E-02  mag=   126.0000
       N       E                     dE             d eps       ncg     rms          ort
SDA:   1    -0.128510629587E+04    0.71954E+00    0.00000E+00  8540   0.195E+01 0.000E+00
CGA:   2    -0.128558538540E+04   -0.47909E+00   -0.47922E+00  8540   0.935E+00-0.359E-03
CGA:   3    -0.128578631395E+04   -0.20093E+00   -0.20088E+00  8540   0.177E+00-0.516E-03
CGA:   4    -0.128582285357E+04   -0.36540E-01   -0.36551E-01  8540   0.321E-01 0.176E-04
CGA:   5    -0.128582983462E+04   -0.69810E-02   -0.70119E-02  8540   0.725E-02 0.131E-03
CGA:   6    -0.128583166109E+04   -0.18265E-02   -0.18193E-02  8540   0.191E-02-0.418E-04
CGA:   7    -0.128583221566E+04   -0.55457E-03   -0.54606E-03  8540   0.606E-03-0.652E-04
CGA:   8    -0.128583239907E+04   -0.18341E-03   -0.18216E-03  8540   0.200E-03-0.125E-04
CGA:   9    -0.128583247441E+04   -0.75341E-04   -0.74611E-04  8540   0.815E-04-0.273E-04
CGA:  10    -0.128583250387E+04   -0.29463E-04   -0.29854E-04  8540   0.386E-04-0.211E-04
CGA:  11    -0.128583211578E+04    0.38809E-03   -0.21015E-03  8540   0.174E-02-0.206E-03
CGA:  12    -0.128583248823E+04   -0.37245E-03   -0.39055E-03  8540   0.174E-03 0.347E-04
CGA:  13    -0.128583255501E+04   -0.66782E-04   -0.64249E-04  8540   0.448E-04-0.720E-05
CGA:  14    -0.128583256127E+04   -0.62558E-05   -0.11985E-04  8540   0.146E-04 0.137E-04
  40 F= -.12858326E+04 E0= -.12858326E+04  d E =-.671673E-02  mag=   126.0000
       N       E                     dE             d eps       ncg     rms          ort
SDA:   1    -0.128558820690E+04    0.24435E+00    0.00000E+00  8540   0.669E+00 0.000E+00
CGA:   2    -0.128575889525E+04   -0.17069E+00   -0.17075E+00  8540   0.311E+00-0.686E-04
CGA:   3    -0.128582377638E+04   -0.64881E-01   -0.64874E-01  8540   0.586E-01-0.832E-04
CGA:   4    -0.128583619431E+04   -0.12418E-01   -0.12397E-01  8540   0.108E-01-0.567E-04
CGA:   5    -0.128583850284E+04   -0.23085E-02   -0.23350E-02  8540   0.231E-02 0.657E-04
CGA:   6    -0.128583903195E+04   -0.52911E-03   -0.56148E-03  8540   0.609E-03 0.953E-04
CGA:   7    -0.128583920272E+04   -0.17077E-03   -0.17614E-03  8540   0.185E-03 0.187E-04
CGA:   8    -0.128583927596E+04   -0.73240E-04   -0.68913E-04  8540   0.845E-04-0.231E-04
CGA:   9    -0.128583929892E+04   -0.22963E-04   -0.23040E-04  8540   0.251E-04 0.314E-06
CGA:  10    -0.128583930385E+04   -0.49278E-05   -0.64293E-05  8540   0.722E-05 0.549E-05
  41 F= -.12858393E+04 E0= -.12858393E+04  d E =-.674258E-02  mag=   126.0000
       N       E                     dE             d eps       ncg     rms          ort
SDA:   1    -0.128577479955E+04    0.64499E-01    0.00000E+00  8540   0.182E+00 0.000E+00
CGA:   2    -0.128581989721E+04   -0.45098E-01   -0.45092E-01  8540   0.870E-01-0.856E-04
CGA:   3    -0.128583826165E+04   -0.18364E-01   -0.18415E-01  8540   0.166E-01 0.162E-03
CGA:   4    -0.128584167730E+04   -0.34157E-02   -0.34316E-02  8540   0.294E-02 0.582E-04
CGA:   5    -0.128584232577E+04   -0.64847E-03   -0.64931E-03  8540   0.664E-03 0.267E-05
CGA:   6    -0.128584248717E+04   -0.16140E-03   -0.16300E-03  8540   0.172E-03 0.768E-05
CGA:   7    -0.128584253469E+04   -0.47512E-04   -0.48193E-04  8540   0.517E-04 0.415E-05
CGA:   8    -0.128584255129E+04   -0.16600E-04   -0.16723E-04  8540   0.188E-04 0.105E-05
CGA:   9    -0.128584255653E+04   -0.52491E-05   -0.56797E-05  8540   0.599E-05 0.334E-05
  42 F= -.12858426E+04 E0= -.12858426E+04  d E =-.325268E-02  mag=   126.0000
       N       E                     dE             d eps       ncg     rms          ort
SDA:   1    -0.128546623367E+04    0.37632E+00    0.00000E+00  8540   0.982E+00 0.000E+00
CGA:   2    -0.128573043834E+04   -0.26420E+00   -0.26417E+00  8540   0.476E+00-0.495E-03
CGA:   3    -0.128582542469E+04   -0.94986E-01   -0.95137E-01  8540   0.840E-01 0.679E-03
CGA:   4    -0.128584295029E+04   -0.17526E-01   -0.17580E-01  8540   0.149E-01 0.288E-03
CGA:   5    -0.128584629318E+04   -0.33429E-02   -0.33290E-02  8540   0.339E-02-0.890E-04
CGA:   6    -0.128584714256E+04   -0.84938E-03   -0.84509E-03  8540   0.901E-03-0.344E-04
CGA:   7    -0.128584738493E+04   -0.24237E-03   -0.24436E-03  8540   0.272E-03 0.203E-04
CGA:   8    -0.128584746409E+04   -0.79154E-04   -0.81445E-04  8540   0.891E-04 0.312E-04
CGA:   9    -0.128584749252E+04   -0.28431E-04   -0.29767E-04  8540   0.309E-04 0.210E-04
CGA:  10    -0.128584750532E+04   -0.12804E-04   -0.12948E-04  8540   0.139E-04 0.695E-05
CGA:  11    -0.128584750947E+04   -0.41479E-05   -0.47131E-05  8540   0.641E-05 0.684E-05
  43 F= -.12858475E+04 E0= -.12858475E+04  d E =-.495294E-02  mag=   126.0000
       N       E                     dE             d eps       ncg     rms          ort
SDA:   1    -0.128480125985E+04    0.10462E+01    0.00000E+00  8540   0.261E+01 0.000E+00
CGA:   2    -0.128556227668E+04   -0.76102E+00   -0.76094E+00  8540   0.123E+01-0.208E-02
CGA:   3    -0.128579510306E+04   -0.23283E+00   -0.23303E+00  8540   0.206E+00 0.121E-02
CGA:   4    -0.128583901206E+04   -0.43909E-01   -0.44001E-01  8540   0.365E-01 0.749E-03
CGA:   5    -0.128584717635E+04   -0.81643E-02   -0.81446E-02  8540   0.837E-02-0.195E-03
CGA:   6    -0.128584929068E+04   -0.21143E-02   -0.21092E-02  8540   0.222E-02-0.739E-04
CGA:   7    -0.128584988329E+04   -0.59261E-03   -0.59758E-03  8540   0.688E-03 0.102E-03
CGA:   8    -0.128585009192E+04   -0.20864E-03   -0.21131E-03  8540   0.237E-03 0.111E-03
CGA:   9    -0.128585017464E+04   -0.82715E-04   -0.83502E-04  8540   0.872E-04 0.612E-04
CGA:  10    -0.128585020984E+04   -0.35207E-04   -0.35099E-04  8540   0.387E-04 0.274E-04
CGA:  11    -0.128585022041E+04   -0.10569E-04   -0.12407E-04  8540   0.196E-04 0.253E-04
CGA:  12    -0.128585022178E+04   -0.13696E-05   -0.33710E-05  8540   0.119E-04 0.143E-04
  44 F= -.12858502E+04 E0= -.12858502E+04  d E =-.271231E-02  mag=   126.0000
       N       E                     dE             d eps       ncg     rms          ort
SDA:   1    -0.128563516940E+04    0.21505E+00    0.00000E+00  8540   0.588E+00 0.000E+00
CGA:   2    -0.128578082811E+04   -0.14566E+00   -0.14569E+00  8540   0.284E+00 0.374E-03
CGA:   3    -0.128584124967E+04   -0.60422E-01   -0.60453E-01  8540   0.532E-01 0.298E-03
CGA:   4    -0.128585221140E+04   -0.10962E-01   -0.10954E-01  8540   0.966E-02-0.950E-04
CGA:   5    -0.128585436858E+04   -0.21572E-02   -0.21503E-02  8540   0.223E-02-0.110E-03
CGA:   6    -0.128585491458E+04   -0.54600E-03   -0.54577E-03  8540   0.581E-03-0.674E-05
CGA:   7    -0.128585507120E+04   -0.15661E-03   -0.15677E-03  8540   0.169E-03 0.138E-04
CGA:   8    -0.128585512327E+04   -0.52077E-04   -0.51816E-04  8540   0.558E-04 0.139E-04
CGA:   9    -0.128585514602E+04   -0.22752E-04   -0.22824E-04  8540   0.248E-04-0.780E-06
CGA:  10    -0.128585515470E+04   -0.86778E-05   -0.85751E-05  8540   0.971E-05 0.158E-05
  45 F= -.12858552E+04 E0= -.12858552E+04  d E =-.493292E-02  mag=   126.0000
       N       E                     dE             d eps       ncg     rms          ort
SDA:   1    -0.128569408847E+04    0.16106E+00    0.00000E+00  8540   0.445E+00 0.000E+00
CGA:   2    -0.128580061825E+04   -0.10653E+00   -0.10656E+00  8540   0.210E+00 0.423E-03
CGA:   3    -0.128584661714E+04   -0.45999E-01   -0.45971E-01  8540   0.422E-01-0.454E-03
CGA:   4    -0.128585530720E+04   -0.86901E-02   -0.86791E-02  8540   0.725E-02-0.144E-03
CGA:   5    -0.128585689299E+04   -0.15858E-02   -0.15878E-02  8540   0.164E-02 0.318E-04
CGA:   6    -0.128585729718E+04   -0.40419E-03   -0.40462E-03  8540   0.414E-03 0.136E-04
CGA:   7    -0.128585741281E+04   -0.11563E-03   -0.11562E-03  8540   0.123E-03 0.294E-05
CGA:   8    -0.128585745377E+04   -0.40958E-04   -0.41502E-04  8540   0.472E-04-0.892E-05
CGA:   9    -0.128585747034E+04   -0.16571E-04   -0.18007E-04  8540   0.239E-04-0.108E-04
CGA:  10    -0.128585747498E+04   -0.46387E-05   -0.47268E-05  8540   0.720E-05 0.315E-05
  46 F= -.12858575E+04 E0= -.12858575E+04  d E =-.232028E-02  mag=   126.0000
       N       E                     dE             d eps       ncg     rms          ort
SDA:   1    -0.128581151180E+04    0.45959E-01    0.00000E+00  8540   0.117E+00 0.000E+00
CGA:   2    -0.128584505823E+04   -0.33546E-01   -0.33546E-01  8540   0.584E-01-0.271E-04
CGA:   3    -0.128585616135E+04   -0.11103E-01   -0.11131E-01  8540   0.916E-02 0.289E-03
CGA:   4    -0.128585807726E+04   -0.19159E-02   -0.19192E-02  8540   0.172E-02 0.449E-04
CGA:   5    -0.128585847154E+04   -0.39428E-03   -0.39275E-03  8540   0.398E-03-0.311E-04
CGA:   6    -0.128585856047E+04   -0.88934E-04   -0.89885E-04  8540   0.940E-04 0.214E-04
CGA:   7    -0.128585858418E+04   -0.23711E-04   -0.24155E-04  8540   0.265E-04 0.158E-04
CGA:   8    -0.128585859230E+04   -0.81206E-05   -0.81735E-05  8540   0.100E-04 0.794E-05
  47 F= -.12858586E+04 E0= -.12858586E+04  d E =-.111733E-02  mag=   126.0000
       N       E                     dE             d eps       ncg     rms          ort
SDA:   1    -0.128574749051E+04    0.11109E+00    0.00000E+00  8540   0.284E+00 0.000E+00
CGA:   2    -0.128582598729E+04   -0.78497E-01   -0.78497E-01  8540   0.142E+00-0.673E-04
CGA:   3    -0.128585363505E+04   -0.27648E-01   -0.27668E-01  8540   0.229E-01 0.262E-03
CGA:   4    -0.128585840477E+04   -0.47697E-02   -0.47724E-02  8540   0.430E-02 0.471E-04
CGA:   5    -0.128585936346E+04   -0.95869E-03   -0.95877E-03  8540   0.969E-03 0.906E-06
CGA:   6    -0.128585959033E+04   -0.22687E-03   -0.22794E-03  8540   0.238E-03 0.442E-04
CGA:   7    -0.128585965799E+04   -0.67660E-04   -0.67401E-04  8540   0.747E-04 0.196E-04
CGA:   8    -0.128585968159E+04   -0.23598E-04   -0.23164E-04  8540   0.274E-04 0.155E-04
CGA:   9    -0.128585968916E+04   -0.75693E-05   -0.78728E-05  8540   0.108E-04 0.137E-04
  48 F= -.12858597E+04 E0= -.12858597E+04  d E =-.109686E-02  mag=   126.0000
       N       E                     dE             d eps       ncg     rms          ort
SDA:   1    -0.128563251699E+04    0.22716E+00    0.00000E+00  8540   0.590E+00 0.000E+00
CGA:   2    -0.128578756900E+04   -0.15505E+00   -0.15505E+00  8540   0.297E+00-0.336E-03
CGA:   3    -0.128584734580E+04   -0.59777E-01   -0.59782E-01  8540   0.514E-01 0.642E-04
CGA:   4    -0.128585774707E+04   -0.10401E-01   -0.10410E-01  8540   0.956E-02 0.163E-03
CGA:   5    -0.128585983914E+04   -0.20921E-02   -0.20939E-02  8540   0.216E-02 0.540E-04
CGA:   6    -0.128586036856E+04   -0.52943E-03   -0.52949E-03  8540   0.554E-03 0.122E-04
CGA:   7    -0.128586052728E+04   -0.15872E-03   -0.15879E-03  8540   0.183E-03-0.201E-05
CGA:   8    -0.128586057916E+04   -0.51880E-04   -0.51083E-04  8540   0.589E-04 0.267E-04
CGA:   9    -0.128586059766E+04   -0.18499E-04   -0.18156E-04  8540   0.214E-04 0.203E-04
CGA:  10    -0.128586060553E+04   -0.78691E-05   -0.77107E-05  8540   0.101E-04 0.106E-04
  49 F= -.12858606E+04 E0= -.12858606E+04  d E =-.916370E-03  mag=   126.0000
       N       E                     dE             d eps       ncg     rms          ort
SDA:   1    -0.128579681358E+04    0.63784E-01    0.00000E+00  8540   0.171E+00 0.000E+00
CGA:   2    -0.128583882586E+04   -0.42012E-01   -0.42013E-01  8540   0.828E-01 0.331E-05
CGA:   3    -0.128585668719E+04   -0.17861E-01   -0.17858E-01  8540   0.156E-01-0.121E-03
CGA:   4    -0.128585984220E+04   -0.31550E-02   -0.31572E-02  8540   0.275E-02 0.456E-04
CGA:   5    -0.128586044748E+04   -0.60528E-03   -0.60630E-03  8540   0.630E-03 0.364E-04
CGA:   6    -0.128586061075E+04   -0.16327E-03   -0.16352E-03  8540   0.173E-03-0.240E-04
CGA:   7    -0.128586065981E+04   -0.49052E-04   -0.50215E-04  8540   0.630E-04-0.211E-04
CGA:   8    -0.128586067620E+04   -0.16395E-04   -0.16499E-04  8540   0.195E-04-0.213E-05
CGA:   9    -0.128586068305E+04   -0.68515E-05   -0.74628E-05  8540   0.910E-05-0.424E-05
  50 F= -.12858607E+04 E0= -.12858607E+04  d E =-.775226E-04  mag=   126.0000
       N       E                     dE             d eps       ncg     rms          ort
SDA:   1    -0.128582880775E+04    0.31868E-01    0.00000E+00  8540   0.823E-01 0.000E+00
CGA:   2    -0.128585023224E+04   -0.21424E-01   -0.21428E-01  8540   0.413E-01 0.141E-03
CGA:   3    -0.128585872059E+04   -0.84883E-02   -0.84750E-02  8540   0.726E-02-0.186E-03
CGA:   4    -0.128586018410E+04   -0.14635E-02   -0.14631E-02  8540   0.134E-02-0.631E-05
CGA:   5    -0.128586047314E+04   -0.28903E-03   -0.29010E-03  8540   0.296E-03 0.188E-04
CGA:   6    -0.128586055078E+04   -0.77640E-04   -0.77453E-04  8540   0.836E-04-0.165E-04
CGA:   7    -0.128586057097E+04   -0.20194E-04   -0.20243E-04  8540   0.227E-04 0.390E-05
CGA:   8    -0.128586057897E+04   -0.79994E-05   -0.81226E-05  8540   0.933E-05-0.168E-05
  51 F= -.12858606E+04 E0= -.12858606E+04  d E =0.104085E-03  mag=   126.0000
       N       E                     dE             d eps       ncg     rms          ort
SDA:   1    -0.128583940107E+04    0.21170E-01    0.00000E+00  8540   0.584E-01 0.000E+00
CGA:   2    -0.128585294123E+04   -0.13540E-01   -0.13544E-01  8540   0.274E-01 0.447E-04
CGA:   3    -0.128585907724E+04   -0.61360E-02   -0.61354E-02  8540   0.560E-02-0.172E-04
CGA:   4    -0.128586020047E+04   -0.11232E-02   -0.11231E-02  8540   0.995E-03-0.183E-05
CGA:   5    -0.128586041062E+04   -0.21015E-03   -0.21222E-03  8540   0.218E-03 0.337E-04
CGA:   6    -0.128586046048E+04   -0.49857E-04   -0.50838E-04  8540   0.506E-04 0.214E-04
CGA:   7    -0.128586047543E+04   -0.14953E-04   -0.14953E-04  8540   0.156E-04 0.379E-05
CGA:   8    -0.128586048041E+04   -0.49779E-05   -0.49353E-05  8540   0.533E-05 0.171E-05
  52 F= -.12858605E+04 E0= -.12858605E+04  d E =0.985593E-04  mag=   126.0000
       N       E                     dE             d eps       ncg     rms          ort
SDA:   1    -0.128580805605E+04    0.52419E-01    0.00000E+00  8540   0.138E+00 0.000E+00
CGA:   2    -0.128584242198E+04   -0.34366E-01   -0.34366E-01  8540   0.687E-01-0.562E-04
CGA:   3    -0.128585695748E+04   -0.14535E-01   -0.14524E-01  8540   0.127E-01-0.203E-03
CGA:   4    -0.128585950389E+04   -0.25464E-02   -0.25475E-02  8540   0.225E-02 0.153E-04
CGA:   5    -0.128585998481E+04   -0.48092E-03   -0.48459E-03  8540   0.497E-03 0.754E-04
CGA:   6    -0.128586010826E+04   -0.12346E-03   -0.12382E-03  8540   0.124E-03 0.180E-04
CGA:   7    -0.128586014487E+04   -0.36603E-04   -0.36579E-04  8540   0.408E-04 0.942E-06
CGA:   8    -0.128586015557E+04   -0.10706E-04   -0.10708E-04  8540   0.125E-04 0.828E-05
CGA:   9    -0.128586015879E+04   -0.32212E-05   -0.34238E-05  8540   0.491E-05 0.606E-05
  53 F= -.12858602E+04 E0= -.12858602E+04  d E =0.321616E-03  mag=   126.0000
       N       E                     dE             d eps       ncg     rms          ort
SDA:   1    -0.128567991890E+04    0.18024E+00    0.00000E+00  8540   0.458E+00 0.000E+00
CGA:   2    -0.128580145416E+04   -0.12154E+00   -0.12153E+00  8540   0.236E+00-0.105E-03
CGA:   3    -0.128584921941E+04   -0.47765E-01   -0.47761E-01  8540   0.394E-01-0.120E-03
CGA:   4    -0.128585717138E+04   -0.79520E-02   -0.79574E-02  8540   0.705E-02 0.105E-03
CGA:   5    -0.128585874282E+04   -0.15714E-02   -0.15733E-02  8540   0.161E-02 0.668E-04
CGA:   6    -0.128585914337E+04   -0.40055E-03   -0.40053E-03  8540   0.415E-03-0.129E-04
CGA:   7    -0.128585925767E+04   -0.11430E-03   -0.11409E-03  8540   0.129E-03 0.720E-05
CGA:   8    -0.128585929344E+04   -0.35764E-04   -0.35284E-04  8540   0.403E-04 0.243E-04
CGA:   9    -0.128585930619E+04   -0.12758E-04   -0.12571E-04  8540   0.157E-04 0.163E-04
CGA:  10    -0.128585930987E+04   -0.36725E-05   -0.43262E-05  8540   0.781E-05 0.119E-04
  54 F= -.12858593E+04 E0= -.12858593E+04  d E =0.848926E-03  mag=   126.0000
       N       E                     dE             d eps       ncg     rms          ort
SDA:   1    -0.128571389232E+04    0.14541E+00    0.00000E+00  8540   0.394E+00 0.000E+00
CGA:   2    -0.128580726833E+04   -0.93376E-01   -0.93377E-01  8540   0.192E+00 0.583E-04
CGA:   3    -0.128584900481E+04   -0.41736E-01   -0.41734E-01  8540   0.378E-01-0.144E-03
CGA:   4    -0.128585655851E+04   -0.75537E-02   -0.75557E-02  8540   0.675E-02 0.467E-04
CGA:   5    -0.128585804149E+04   -0.14830E-02   -0.14838E-02  8540   0.156E-02 0.395E-04
CGA:   6    -0.128585843428E+04   -0.39278E-03   -0.39331E-03  8540   0.416E-03-0.460E-04
CGA:   7    -0.128585854030E+04   -0.10602E-03   -0.10558E-03  8540   0.116E-03 0.198E-04
CGA:   8    -0.128585857115E+04   -0.30852E-04   -0.30548E-04  8540   0.342E-04 0.262E-04
CGA:   9    -0.128585858243E+04   -0.11282E-04   -0.10997E-04  8540   0.140E-04 0.135E-04
CGA:  10    -0.128585858543E+04   -0.29977E-05   -0.36261E-05  8540   0.723E-05 0.111E-04
  55 F= -.12858586E+04 E0= -.12858586E+04  d E =0.724438E-03  mag=   126.0000
       N       E                     dE             d eps       ncg     rms          ort
SDA:   1    -0.128577762509E+04    0.80957E-01    0.00000E+00  8540   0.210E+00 0.000E+00
CGA:   2    -0.128583355873E+04   -0.55934E-01   -0.55927E-01  8540   0.107E+00 0.136E-03
CGA:   3    -0.128585512075E+04   -0.21562E-01   -0.21568E-01  8540   0.182E-01 0.157E-03
CGA:   4    -0.128585884484E+04   -0.37241E-02   -0.37235E-02  8540   0.327E-02-0.206E-04
CGA:   5    -0.128585958124E+04   -0.73640E-03   -0.73601E-03  8540   0.767E-03-0.599E-04
CGA:   6    -0.128585976012E+04   -0.17888E-03   -0.17882E-03  8540   0.184E-03 0.980E-05
CGA:   7    -0.128585980881E+04   -0.48696E-04   -0.48328E-04  8540   0.508E-04 0.133E-04
CGA:   8    -0.128585982594E+04   -0.17129E-04   -0.16874E-04  8540   0.179E-04 0.333E-05
CGA:   9    -0.128585983291E+04   -0.69643E-05   -0.70052E-05  8540   0.720E-05-0.321E-06
CGA:  10    -0.128585981067E+04    0.22233E-04   -0.12115E-04  8540   0.112E-03-0.254E-04
CGA:  11    -0.128585983445E+04   -0.23776E-04   -0.24719E-04  8540   0.127E-04 0.418E-05
CGA:  12    -0.128585984072E+04   -0.62658E-05   -0.64613E-05  8540   0.693E-05-0.351E-05
  56 F= -.12858598E+04 E0= -.12858598E+04  d E =-.125529E-02  mag=   126.0000
       N       E                     dE             d eps       ncg     rms          ort
SDA:   1    -0.128583562717E+04    0.24207E-01    0.00000E+00  8540   0.702E-01 0.000E+00
CGA:   2    -0.128585090701E+04   -0.15280E-01   -0.15296E-01  8540   0.324E-01 0.435E-04
CGA:   3    -0.128585832999E+04   -0.74230E-02   -0.74406E-02  8540   0.721E-02 0.812E-04
CGA:   4    -0.128585975183E+04   -0.14218E-02   -0.14237E-02  8540   0.128E-02 0.886E-05
CGA:   5    -0.128586003976E+04   -0.28793E-03   -0.28501E-03  8540   0.309E-03-0.164E-04
CGA:   6    -0.128586011116E+04   -0.71396E-04   -0.71889E-04  8540   0.733E-04 0.301E-05
CGA:   7    -0.128586012806E+04   -0.16903E-04   -0.18060E-04  8540   0.189E-04 0.807E-05
CGA:   8    -0.128586013180E+04   -0.37432E-05   -0.47186E-05  8540   0.574E-05 0.628E-05
  57 F= -.12858601E+04 E0= -.12858601E+04  d E =-.291087E-03  mag=   126.0000
       N       E                     dE             d eps       ncg     rms          ort
SDA:   1    -0.128584761752E+04    0.12511E-01    0.00000E+00  8540   0.318E-01 0.000E+00
CGA:   2    -0.128585679010E+04   -0.91726E-02   -0.91707E-02  8540   0.154E-01-0.338E-04
CGA:   3    -0.128585971487E+04   -0.29248E-02   -0.29324E-02  8540   0.246E-02 0.428E-04
CGA:   4    -0.128586023284E+04   -0.51797E-03   -0.52045E-03  8540   0.457E-03 0.175E-04
CGA:   5    -0.128586033766E+04   -0.10483E-03   -0.10429E-03  8540   0.105E-03-0.469E-05
CGA:   6    -0.128586036437E+04   -0.26708E-04   -0.26511E-04  8540   0.299E-04-0.240E-05
CGA:   7    -0.128586036942E+04   -0.50459E-05   -0.60798E-05  8540   0.845E-05 0.821E-05
  58 F= -.12858604E+04 E0= -.12858604E+04  d E =-.237616E-03  mag=   126.0000
       N       E                     dE             d eps       ncg     rms          ort
SDA:   1    -0.128536608807E+04    0.49428E+00    0.00000E+00  8540   0.125E+01 0.000E+00
CGA:   2    -0.128571085100E+04   -0.34476E+00   -0.34477E+00  8540   0.619E+00-0.360E-03
CGA:   3    -0.128583280551E+04   -0.12195E+00   -0.12200E+00  8540   0.100E+00 0.317E-03
CGA:   4    -0.128585386128E+04   -0.21056E-01   -0.21073E-01  8540   0.183E-01 0.163E-03
CGA:   5    -0.128585797982E+04   -0.41185E-02   -0.41156E-02  8540   0.419E-02-0.406E-04
CGA:   6    -0.128585902530E+04   -0.10455E-02   -0.10441E-02  8540   0.111E-02-0.269E-04
CGA:   7    -0.128585932622E+04   -0.30093E-03   -0.30236E-03  8540   0.346E-03 0.552E-04
CGA:   8    -0.128585943656E+04   -0.11034E-03   -0.11010E-03  8540   0.127E-03 0.466E-04
CGA:   9    -0.128585948594E+04   -0.49383E-04   -0.48438E-04  8540   0.519E-04 0.242E-04
CGA:  10    -0.128585950078E+04   -0.14834E-04   -0.15909E-04  8540   0.221E-04 0.253E-04
CGA:  11    -0.128585950538E+04   -0.46053E-05   -0.64941E-05  8540   0.123E-04 0.189E-04
  59 F= -.12858595E+04 E0= -.12858595E+04  d E =0.864035E-03  mag=   126.0000
       N       E                     dE             d eps       ncg     rms          ort
SDA:   1    -0.128579166157E+04    0.67839E-01    0.00000E+00  8540   0.187E+00 0.000E+00
CGA:   2    -0.128583669375E+04   -0.45032E-01   -0.45044E-01  8540   0.897E-01 0.162E-03
CGA:   3    -0.128585628610E+04   -0.19592E-01   -0.19586E-01  8540   0.171E-01-0.127E-03
CGA:   4    -0.128585977853E+04   -0.34924E-02   -0.34933E-02  8540   0.307E-02 0.891E-05
CGA:   5    -0.128586045020E+04   -0.67167E-03   -0.67405E-03  8540   0.698E-03 0.394E-04
CGA:   6    -0.128586061989E+04   -0.16969E-03   -0.17019E-03  8540   0.172E-03 0.144E-04
CGA:   7    -0.128586067058E+04   -0.50693E-04   -0.50759E-04  8540   0.547E-04-0.433E-05
CGA:   8    -0.128586068822E+04   -0.17645E-04   -0.17981E-04  8540   0.215E-04-0.541E-05
CGA:   9    -0.128586069382E+04   -0.55970E-05   -0.55779E-05  8540   0.600E-05 0.189E-05
  60 F= -.12858607E+04 E0= -.12858607E+04  d E =-.118844E-02  mag=   126.0000
       N       E                     dE             d eps       ncg     rms          ort
SDA:   1    -0.128585229552E+04    0.83927E-02    0.00000E+00  8540   0.271E-01 0.000E+00
CGA:   2    -0.128585759417E+04   -0.52986E-02   -0.52977E-02  8540   0.105E-01-0.237E-04
CGA:   3    -0.128586019889E+04   -0.26047E-02   -0.26069E-02  8540   0.292E-02 0.422E-04
CGA:   4    -0.128586078318E+04   -0.58429E-03   -0.58821E-03  8540   0.508E-03 0.424E-04
CGA:   5    -0.128586089317E+04   -0.10999E-03   -0.11062E-03  8540   0.115E-03 0.844E-05
CGA:   6    -0.128586091994E+04   -0.26767E-04   -0.27008E-04  8540   0.269E-04 0.458E-05
CGA:   7    -0.128586092853E+04   -0.85885E-05   -0.86787E-05  8540   0.982E-05-0.307E-05
  61 F= -.12858609E+04 E0= -.12858609E+04  d E =-.234707E-03  mag=   126.0000
       N       E                     dE             d eps       ncg     rms          ort
SDA:   1    -0.128585662152E+04    0.42984E-02    0.00000E+00  8540   0.115E-01 0.000E+00
CGA:   2    -0.128585956351E+04   -0.29420E-02   -0.29413E-02  8540   0.582E-02-0.299E-04
CGA:   3    -0.128586076726E+04   -0.12037E-02   -0.12074E-02  8540   0.965E-03 0.498E-04
CGA:   4    -0.128586096404E+04   -0.19678E-03   -0.19777E-03  8540   0.169E-03 0.134E-04
CGA:   5    -0.128586100480E+04   -0.40759E-04   -0.40584E-04  8540   0.422E-04-0.492E-05
CGA:   6    -0.128586101454E+04   -0.97363E-05   -0.97452E-05  8540   0.101E-04 0.256E-06
  62 F= -.12858610E+04 E0= -.12858610E+04  d E =-.860107E-04  mag=   126.0000
