       N       E                     dE             d eps       ncg     rms          rms(c)
DAV:   1     0.830188594763E+04    0.83019E+04   -0.23602E+05 34308   0.219E+03
DAV:   2     0.121633033000E+04   -0.70856E+04   -0.66596E+04 33696   0.635E+02
DAV:   3    -0.317851996404E+03   -0.15342E+04   -0.13437E+04 35916   0.272E+02
DAV:   4    -0.471550766598E+03   -0.15370E+03   -0.15107E+03 36804   0.833E+01
DAV:   5    -0.474097306534E+03   -0.25465E+01   -0.25359E+01 36744   0.121E+01    0.108E+02
DAV:   6    -0.514318972858E+03   -0.40222E+02   -0.90646E+02 45696   0.120E+02    0.136E+02
DAV:   7    -0.423190593615E+03    0.91128E+02   -0.30384E+02 38316   0.113E+02    0.794E+01
DAV:   8    -0.408571620747E+03    0.14619E+02   -0.15929E+02 41580   0.456E+01    0.597E+01
DAV:   9    -0.425204202368E+03   -0.16633E+02   -0.85979E+01 37068   0.648E+01    0.948E+01
DAV:  10    -0.410306112714E+03    0.14898E+02   -0.96167E+01 37452   0.443E+01    0.439E+01
DAV:  11    -0.404715220359E+03    0.55909E+01   -0.37090E+01 36864   0.288E+01    0.293E+01
DAV:  12    -0.402777205784E+03    0.19380E+01   -0.15480E+01 37044   0.214E+01    0.225E+01
DAV:  13    -0.403312369125E+03   -0.53516E+00   -0.41324E+00 37296   0.103E+01    0.186E+01
DAV:  14    -0.403647671912E+03   -0.33530E+00   -0.10645E+00 37020   0.602E+00    0.160E+01
DAV:  15    -0.404509492847E+03   -0.86182E+00   -0.93919E-01 38244   0.528E+00    0.129E+01
DAV:  16    -0.405231411882E+03   -0.72192E+00   -0.78178E-01 39084   0.734E+00    0.811E+00
DAV:  17    -0.405311050642E+03   -0.79639E-01   -0.96607E-01 37980   0.756E+00    0.642E+00
DAV:  18    -0.405278381961E+03    0.32669E-01   -0.60988E-01 36900   0.526E+00    0.457E+00
DAV:  19    -0.405271091549E+03    0.72904E-02   -0.16034E-01 37404   0.278E+00    0.321E+00
DAV:  20    -0.405258014698E+03    0.13077E-01   -0.57105E-02 43116   0.155E+00    0.264E+00
DAV:  21    -0.405240067865E+03    0.17947E-01   -0.27191E-02 42804   0.142E+00    0.211E+00
DAV:  22    -0.405228516556E+03    0.11551E-01   -0.28858E-02 41868   0.134E+00    0.160E+00
DAV:  23    -0.405220297912E+03    0.82186E-02   -0.23327E-02 44544   0.149E+00    0.109E+00
DAV:  24    -0.405219435459E+03    0.86245E-03   -0.28069E-02 43908   0.120E+00    0.685E-01
DAV:  25    -0.405222512064E+03   -0.30766E-02   -0.28892E-02 38640   0.693E-01    0.501E-01
DAV:  26    -0.405223603317E+03   -0.10913E-02   -0.83785E-03 37548   0.348E-01    0.421E-01
DAV:  27    -0.405224244144E+03   -0.64083E-03   -0.16025E-03 38076   0.253E-01    0.331E-01
DAV:  28    -0.405225025054E+03   -0.78091E-03   -0.10211E-03 50028   0.350E-01    0.224E-01
DAV:  29    -0.405225514205E+03   -0.48915E-03   -0.16204E-03 41400   0.205E-01    0.167E-01
DAV:  30    -0.405225832466E+03   -0.31826E-03   -0.89309E-04 38220   0.144E-01    0.138E-01
DAV:  31    -0.405226112219E+03   -0.27975E-03   -0.14691E-04 40020   0.788E-02    0.113E-01
DAV:  32    -0.405226377722E+03   -0.26550E-03   -0.86740E-05 38532   0.599E-02    0.935E-02
DAV:  33    -0.405226650946E+03   -0.27322E-03   -0.76985E-05 37656   0.595E-02    0.833E-02
DAV:  34    -0.405227148616E+03   -0.49767E-03   -0.18743E-04 39984   0.125E-01    0.720E-02
DAV:  35    -0.405227554260E+03   -0.40564E-03   -0.35728E-04 40872   0.126E-01    0.612E-02
DAV:  36    -0.405227938223E+03   -0.38396E-03   -0.48000E-04 40284   0.176E-01    0.545E-02
DAV:  37    -0.405228157636E+03   -0.21941E-03   -0.58647E-04 38016   0.769E-02    0.540E-02
DAV:  38    -0.405228235443E+03   -0.77807E-04   -0.10129E-04 37776   0.376E-02    0.492E-02
DAV:  39    -0.405228289667E+03   -0.54224E-04   -0.30687E-05 30780   0.484E-02    0.433E-02
DAV:  40    -0.405228327519E+03   -0.37852E-04   -0.63049E-05 37248   0.584E-02    0.331E-02
DAV:  41    -0.405228345613E+03   -0.18094E-04   -0.79156E-05 39972   0.553E-02    0.221E-02
DAV:  42    -0.405228359518E+03   -0.13905E-04   -0.61488E-05 33348   0.250E-02    0.150E-02
DAV:  43    -0.405228362569E+03   -0.30510E-05   -0.11668E-05 23040   0.119E-02
   1 F= -.40522836E+03 E0= -.40522836E+03  d E =-.405228E+03  mag=     1.0001
       N       E                     dE             d eps       ncg     rms          rms(c)
DAV:   1    -0.405232845269E+03   -0.44858E-02   -0.49926E-03 47472   0.621E-01    0.339E-02
DAV:   2    -0.405233004054E+03   -0.15878E-03   -0.16310E-03 37332   0.842E-02    0.245E-02
DAV:   3    -0.405233006641E+03   -0.25873E-05   -0.59431E-05 31992   0.402E-02    0.193E-02
DAV:   4    -0.405233005346E+03    0.12948E-05   -0.75198E-06 20700   0.218E-02
   2 F= -.40523301E+03 E0= -.40523301E+03  d E =-.464278E-02  mag=     1.0000
       N       E                     dE             d eps       ncg     rms          rms(c)
DAV:   1    -0.405132318834E+03    0.10069E+00   -0.80051E+00 46488   0.247E+01    0.135E+00
DAV:   2    -0.405387905706E+03   -0.25559E+00   -0.26309E+00 37632   0.334E+00    0.929E-01
DAV:   3    -0.405390292854E+03   -0.23871E-02   -0.73594E-02 37140   0.132E+00    0.741E-01
DAV:   4    -0.405388405939E+03    0.18869E-02   -0.10462E-02 37596   0.808E-01    0.518E-01
DAV:   5    -0.405388765377E+03   -0.35944E-03   -0.64378E-03 39204   0.588E-01    0.440E-01
DAV:   6    -0.405387691705E+03    0.10737E-02   -0.54550E-03 37080   0.543E-01    0.101E-01
DAV:   7    -0.405387764526E+03   -0.72821E-04   -0.11777E-03 37392   0.158E-01    0.685E-02
DAV:   8    -0.405387739092E+03    0.25434E-04   -0.23472E-04 36576   0.899E-02    0.365E-02
DAV:   9    -0.405387727209E+03    0.11883E-04   -0.50346E-05 33876   0.396E-02    0.214E-02
DAV:  10    -0.405387726946E+03    0.26244E-06   -0.31565E-05 30012   0.419E-02
   3 F= -.40538773E+03 E0= -.40538773E+03  d E =-.154722E+00  mag=     1.0000
       N       E                     dE             d eps       ncg     rms          rms(c)
DAV:   1    -0.404901039917E+03    0.48669E+00   -0.27222E+01 44028   0.366E+01    0.236E+00
DAV:   2    -0.405565028152E+03   -0.66399E+00   -0.67979E+00 36744   0.544E+00    0.174E+00
DAV:   3    -0.405573305756E+03   -0.82776E-02   -0.28953E-01 36876   0.260E+00    0.130E+00
DAV:   4    -0.405566578046E+03    0.67277E-02   -0.33884E-02 38100   0.145E+00    0.878E-01
DAV:   5    -0.405568184881E+03   -0.16068E-02   -0.18900E-02 38496   0.101E+00    0.792E-01
DAV:   6    -0.405564669645E+03    0.35152E-02   -0.16238E-02 37008   0.887E-01    0.181E-01
DAV:   7    -0.405564909292E+03   -0.23965E-03   -0.39226E-03 37296   0.283E-01    0.131E-01
DAV:   8    -0.405564814103E+03    0.95189E-04   -0.83267E-04 36696   0.168E-01    0.599E-02
DAV:   9    -0.405564783923E+03    0.30181E-04   -0.14388E-04 37044   0.622E-02    0.367E-02
DAV:  10    -0.405564785432E+03   -0.15094E-05   -0.98367E-05 36648   0.790E-02
   4 F= -.40556479E+03 E0= -.40556479E+03  d E =-.177058E+00  mag=     1.0000
       N       E                     dE             d eps       ncg     rms          rms(c)
DAV:   1    -0.405452978646E+03    0.11181E+00   -0.14195E+01 42636   0.220E+01    0.129E+00
DAV:   2    -0.405667914952E+03   -0.21494E+00   -0.22171E+00 36948   0.343E+00    0.101E+00
DAV:   3    -0.405669429656E+03   -0.15147E-02   -0.84402E-02 36828   0.145E+00    0.753E-01
DAV:   4    -0.405667246005E+03    0.21837E-02   -0.11550E-02 38796   0.849E-01    0.530E-01
DAV:   5    -0.405667178073E+03    0.67932E-04   -0.67407E-03 40440   0.603E-01    0.436E-01
DAV:   6    -0.405666023156E+03    0.11549E-02   -0.61898E-03 37176   0.528E-01    0.115E-01
DAV:   7    -0.405666089017E+03   -0.65861E-04   -0.16072E-03 36960   0.200E-01    0.795E-02
DAV:   8    -0.405666065568E+03    0.23448E-04   -0.39092E-04 36756   0.114E-01    0.410E-02
DAV:   9    -0.405666053118E+03    0.12450E-04   -0.78075E-05 35580   0.465E-02    0.266E-02
DAV:  10    -0.405666053895E+03   -0.77642E-06   -0.41614E-05 34464   0.498E-02
   5 F= -.40566605E+03 E0= -.40566605E+03  d E =-.101268E+00  mag=     1.0000
       N       E                     dE             d eps       ncg     rms          rms(c)
DAV:   1    -0.405460517665E+03    0.20554E+00   -0.20693E+01 41496   0.269E+01    0.144E+00
DAV:   2    -0.405767279761E+03   -0.30676E+00   -0.31738E+00 37392   0.396E+00    0.905E-01
DAV:   3    -0.405769306289E+03   -0.20265E-02   -0.84803E-02 37596   0.141E+00    0.665E-01
DAV:   4    -0.405767766488E+03    0.15398E-02   -0.13862E-02 38256   0.986E-01    0.494E-01
DAV:   5    -0.405766911857E+03    0.85463E-03   -0.63215E-03 40260   0.484E-01    0.284E-01
DAV:   6    -0.405766833425E+03    0.78432E-04   -0.40728E-03 37020   0.403E-01    0.176E-01
DAV:   7    -0.405766735843E+03    0.97582E-04   -0.12045E-03 38616   0.212E-01    0.758E-02
DAV:   8    -0.405766736508E+03   -0.66558E-06   -0.29189E-04 38304   0.938E-02    0.506E-02
DAV:   9    -0.405766733322E+03    0.31860E-05   -0.11092E-04 36144   0.621E-02    0.341E-02
DAV:  10    -0.405766740819E+03   -0.74967E-05   -0.39599E-05 33276   0.412E-02
   6 F= -.40576674E+03 E0= -.40576674E+03  d E =-.100687E+00  mag=     1.0000
       N       E                     dE             d eps       ncg     rms          rms(c)
DAV:   1    -0.404982877351E+03    0.78386E+00   -0.21659E+01 45528   0.471E+01    0.252E+00
DAV:   2    -0.405794398271E+03   -0.81152E+00   -0.84363E+00 37740   0.615E+00    0.161E+00
DAV:   3    -0.405805303401E+03   -0.10905E-01   -0.25247E-01 36528   0.262E+00    0.123E+00
DAV:   4    -0.405799396431E+03    0.59070E-02   -0.33998E-02 37656   0.161E+00    0.832E-01
DAV:   5    -0.405799554515E+03   -0.15808E-03   -0.17020E-02 39264   0.793E-01    0.561E-01
DAV:   6    -0.405798486457E+03    0.10681E-02   -0.11553E-02 37176   0.786E-01    0.265E-01
DAV:   7    -0.405798299658E+03    0.18680E-03   -0.26221E-03 37380   0.296E-01    0.103E-01
DAV:   8    -0.405798295089E+03    0.45695E-05   -0.71298E-04 36480   0.144E-01    0.689E-02
DAV:   9    -0.405798271826E+03    0.23263E-04   -0.18466E-04 36984   0.922E-02    0.424E-02
DAV:  10    -0.405798270329E+03    0.14963E-05   -0.78987E-05 37056   0.606E-02
   7 F= -.40579827E+03 E0= -.40579827E+03  d E =-.315295E-01  mag=     1.0000
       N       E                     dE             d eps       ncg     rms          rms(c)
DAV:   1    -0.405539063256E+03    0.25921E+00   -0.52331E+00 49428   0.295E+01    0.150E+00
DAV:   2    -0.405835157701E+03   -0.29609E+00   -0.31040E+00 36648   0.343E+00    0.855E-01
DAV:   3    -0.405841109433E+03   -0.59517E-02   -0.91240E-02 36840   0.126E+00    0.635E-01
DAV:   4    -0.405840293645E+03    0.81579E-03   -0.11203E-02 38304   0.859E-01    0.478E-01
DAV:   5    -0.405839772146E+03    0.52150E-03   -0.45585E-03 40416   0.419E-01    0.190E-01
DAV:   6    -0.405840025464E+03   -0.25332E-03   -0.21146E-03 38028   0.294E-01    0.144E-01
DAV:   7    -0.405839926016E+03    0.99448E-04   -0.86237E-04 36504   0.204E-01    0.593E-02
DAV:   8    -0.405839916131E+03    0.98857E-05   -0.13050E-04 36780   0.677E-02    0.353E-02
DAV:   9    -0.405839911126E+03    0.50049E-05   -0.50024E-05 33108   0.431E-02
   8 F= -.40583991E+03 E0= -.40583991E+03  d E =-.416408E-01  mag=     1.0000
       N       E                     dE             d eps       ncg     rms          rms(c)
DAV:   1    -0.405831646845E+03    0.82693E-02   -0.85459E-01 45360   0.760E+00    0.384E-01
DAV:   2    -0.405853470519E+03   -0.21824E-01   -0.22446E-01 36504   0.994E-01    0.224E-01
DAV:   3    -0.405853690910E+03   -0.22039E-03   -0.49435E-03 37416   0.280E-01    0.164E-01
DAV:   4    -0.405853686078E+03    0.48323E-05   -0.94059E-04 38796   0.244E-01    0.135E-01
DAV:   5    -0.405853642762E+03    0.43316E-04   -0.43596E-04 39528   0.151E-01    0.652E-02
DAV:   6    -0.405853641393E+03    0.13692E-05   -0.23952E-04 38880   0.987E-02    0.391E-02
DAV:   7    -0.405853638810E+03    0.25823E-05   -0.65988E-05 34452   0.502E-02
   9 F= -.40585364E+03 E0= -.40585364E+03  d E =-.137277E-01  mag=     1.0000
       N       E                     dE             d eps       ncg     rms          rms(c)
DAV:   1    -0.405790116188E+03    0.63525E-01   -0.41710E+00 45348   0.158E+01    0.822E-01
DAV:   2    -0.405888306805E+03   -0.98191E-01   -0.10065E+00 36732   0.212E+00    0.493E-01
DAV:   3    -0.405889395326E+03   -0.10885E-02   -0.26307E-02 36840   0.779E-01    0.368E-01
DAV:   4    -0.405889072007E+03    0.32332E-03   -0.47061E-03 38400   0.541E-01    0.271E-01
DAV:   5    -0.405889027416E+03    0.44590E-04   -0.18314E-03 41052   0.267E-01    0.164E-01
DAV:   6    -0.405888974319E+03    0.53098E-04   -0.11290E-03 36696   0.236E-01    0.858E-02
DAV:   7    -0.405888963094E+03    0.11225E-04   -0.30681E-04 37416   0.102E-01    0.372E-02
DAV:   8    -0.405888969195E+03   -0.61011E-05   -0.83628E-05 35268   0.485E-02
  10 F= -.40588897E+03 E0= -.40588897E+03  d E =-.353304E-01  mag=     1.0000
       N       E                     dE             d eps       ncg     rms          rms(c)
DAV:   1    -0.405553176546E+03    0.33579E+00   -0.90482E+00 45576   0.321E+01    0.160E+00
DAV:   2    -0.405913135100E+03   -0.35996E+00   -0.37351E+00 37704   0.412E+00    0.993E-01
DAV:   3    -0.405917536763E+03   -0.44017E-02   -0.95427E-02 37068   0.162E+00    0.764E-01
DAV:   4    -0.405915563821E+03    0.19729E-02   -0.14715E-02 39048   0.994E-01    0.535E-01
DAV:   5    -0.405915596278E+03   -0.32457E-04   -0.62853E-03 39000   0.507E-01    0.376E-01
DAV:   6    -0.405915056844E+03    0.53943E-03   -0.49143E-03 36696   0.544E-01    0.154E-01
DAV:   7    -0.405915025134E+03    0.31710E-04   -0.10713E-03 37104   0.191E-01    0.582E-02
DAV:   8    -0.405915032369E+03   -0.72350E-05   -0.26923E-04 36336   0.825E-02    0.409E-02
DAV:   9    -0.405915026463E+03    0.59058E-05   -0.54949E-05 34680   0.569E-02
  11 F= -.40591503E+03 E0= -.40591503E+03  d E =-.260573E-01  mag=     1.0000
       N       E                     dE             d eps       ncg     rms          rms(c)
DAV:   1    -0.405687326502E+03    0.22771E+00   -0.44869E+00 48456   0.276E+01    0.135E+00
DAV:   2    -0.405935496742E+03   -0.24817E+00   -0.26033E+00 37224   0.332E+00    0.786E-01
DAV:   3    -0.405939010392E+03   -0.35137E-02   -0.62405E-02 38088   0.119E+00    0.589E-01
DAV:   4    -0.405938103016E+03    0.90738E-03   -0.85153E-03 37116   0.805E-01    0.434E-01
DAV:   5    -0.405937956525E+03    0.14649E-03   -0.45364E-03 38508   0.406E-01    0.258E-01
DAV:   6    -0.405937821566E+03    0.13496E-03   -0.25060E-03 37932   0.372E-01    0.140E-01
DAV:   7    -0.405937753867E+03    0.67699E-04   -0.74792E-04 37320   0.186E-01    0.519E-02
DAV:   8    -0.405937750159E+03    0.37084E-05   -0.15151E-04 36408   0.692E-02    0.325E-02
DAV:   9    -0.405937744457E+03    0.57023E-05   -0.36499E-05 32136   0.399E-02
  12 F= -.40593774E+03 E0= -.40593774E+03  d E =-.227180E-01  mag=     1.0000
       N       E                     dE             d eps       ncg     rms          rms(c)
DAV:   1    -0.405905522809E+03    0.32227E-01   -0.66636E-01 45900   0.866E+00    0.426E-01
DAV:   2    -0.405931605982E+03   -0.26083E-01   -0.27043E-01 37572   0.109E+00    0.246E-01
DAV:   3    -0.405931909335E+03   -0.30335E-03   -0.60051E-03 37800   0.365E-01    0.182E-01
DAV:   4    -0.405931848546E+03    0.60789E-04   -0.10081E-03 37344   0.272E-01    0.139E-01
DAV:   5    -0.405931814081E+03    0.34464E-04   -0.48779E-04 41016   0.142E-01    0.639E-02
DAV:   6    -0.405931822077E+03   -0.79959E-05   -0.24730E-04 38256   0.989E-02    0.458E-02
DAV:   7    -0.405931812041E+03    0.10036E-04   -0.70315E-05 34380   0.557E-02    0.168E-02
DAV:   8    -0.405931811552E+03    0.48912E-06   -0.11454E-05 20016   0.187E-02
  13 F= -.40593181E+03 E0= -.40593181E+03  d E =0.593290E-02  mag=     1.0000
       N       E                     dE             d eps       ncg     rms          rms(c)
DAV:   1    -0.405917957969E+03    0.13854E-01   -0.42813E-01 45600   0.565E+00    0.279E-01
DAV:   2    -0.405929814775E+03   -0.11857E-01   -0.12163E-01 36528   0.736E-01    0.157E-01
DAV:   3    -0.405929927148E+03   -0.11237E-03   -0.24676E-03 37032   0.186E-01    0.112E-01
DAV:   4    -0.405929928761E+03   -0.16129E-05   -0.44687E-04 38280   0.174E-01    0.927E-02
DAV:   5    -0.405929887942E+03    0.40819E-04   -0.21078E-04 42216   0.113E-01    0.278E-02
DAV:   6    -0.405929896778E+03   -0.88355E-05   -0.85449E-05 37296   0.508E-02
  14 F= -.40592990E+03 E0= -.40592990E+03  d E =0.191477E-02  mag=     1.0000
       N       E                     dE             d eps       ncg     rms          rms(c)
DAV:   1    -0.405779608181E+03    0.15028E+00   -0.53529E+00 45660   0.200E+01    0.996E-01
DAV:   2    -0.405930439056E+03   -0.15083E+00   -0.15362E+00 36864   0.262E+00    0.558E-01
DAV:   3    -0.405931503752E+03   -0.10647E-02   -0.25259E-02 37416   0.707E-01    0.415E-01
DAV:   4    -0.405931274722E+03    0.22903E-03   -0.50743E-03 39000   0.526E-01    0.333E-01
DAV:   5    -0.405930918126E+03    0.35660E-03   -0.22405E-03 39936   0.318E-01    0.181E-01
DAV:   6    -0.405930846123E+03    0.72003E-04   -0.13960E-03 36948   0.303E-01    0.850E-02
DAV:   7    -0.405930836688E+03    0.94354E-05   -0.40769E-04 36660   0.132E-01    0.362E-02
DAV:   8    -0.405930835262E+03    0.14259E-05   -0.80505E-05 33972   0.420E-02
  15 F= -.40593084E+03 E0= -.40593084E+03  d E =-.938485E-03  mag=     1.0000
       N       E                     dE             d eps       ncg     rms          rms(c)
DAV:   1    -0.405618062530E+03    0.31277E+00   -0.10974E+01 45696   0.279E+01    0.141E+00
DAV:   2    -0.405921005718E+03   -0.30294E+00   -0.31037E+00 36912   0.364E+00    0.802E-01
DAV:   3    -0.405923317700E+03   -0.23120E-02   -0.56092E-02 36900   0.106E+00    0.599E-01
DAV:   4    -0.405922733443E+03    0.58426E-03   -0.10593E-02 38904   0.804E-01    0.467E-01
DAV:   5    -0.405922184048E+03    0.54939E-03   -0.48510E-03 40452   0.465E-01    0.233E-01
DAV:   6    -0.405922112724E+03    0.71324E-04   -0.29419E-03 37752   0.363E-01    0.138E-01
DAV:   7    -0.405922048486E+03    0.64238E-04   -0.75812E-04 36660   0.167E-01    0.546E-02
DAV:   8    -0.405922039109E+03    0.93767E-05   -0.12066E-04 36312   0.595E-02    0.362E-02
DAV:   9    -0.405922028671E+03    0.10439E-04   -0.44580E-05 32892   0.417E-02    0.196E-02
DAV:  10    -0.405922027908E+03    0.76251E-06   -0.24836E-05 26808   0.273E-02
  16 F= -.40592203E+03 E0= -.40592203E+03  d E =0.880735E-02  mag=     1.0000
       N       E                     dE             d eps       ncg     rms          rms(c)
DAV:   1    -0.405785870537E+03    0.13616E+00   -0.28869E+00 48756   0.208E+01    0.101E+00
DAV:   2    -0.405929793060E+03   -0.14392E+00   -0.15077E+00 37356   0.253E+00    0.594E-01
DAV:   3    -0.405931762511E+03   -0.19695E-02   -0.36690E-02 37668   0.895E-01    0.441E-01
DAV:   4    -0.405931289477E+03    0.47303E-03   -0.51328E-03 37860   0.607E-01    0.332E-01
DAV:   5    -0.405931022565E+03    0.26691E-03   -0.24761E-03 39648   0.308E-01    0.158E-01
DAV:   6    -0.405931105979E+03   -0.83415E-04   -0.13650E-03 38220   0.241E-01    0.122E-01
DAV:   7    -0.405931022332E+03    0.83647E-04   -0.45244E-04 36624   0.148E-01    0.390E-02
DAV:   8    -0.405931018062E+03    0.42701E-05   -0.69882E-05 33996   0.451E-02
  17 F= -.40593102E+03 E0= -.40593102E+03  d E =-.899015E-02  mag=     1.0000
       N       E                     dE             d eps       ncg     rms          rms(c)
DAV:   1    -0.405920648389E+03    0.10374E-01   -0.23879E-01 49248   0.647E+00    0.315E-01
DAV:   2    -0.405934201884E+03   -0.13553E-01   -0.14132E-01 36852   0.765E-01    0.177E-01
DAV:   3    -0.405934412541E+03   -0.21066E-03   -0.34454E-03 37176   0.257E-01    0.133E-01
DAV:   4    -0.405934392138E+03    0.20402E-04   -0.51423E-04 36912   0.191E-01    0.103E-01
DAV:   5    -0.405934384551E+03    0.75874E-05   -0.25495E-04 40032   0.102E-01    0.530E-02
DAV:   6    -0.405934377121E+03    0.74300E-05   -0.11900E-04 35832   0.836E-02    0.291E-02
DAV:   7    -0.405934374174E+03    0.29465E-05   -0.33704E-05 29892   0.372E-02
  18 F= -.40593437E+03 E0= -.40593437E+03  d E =-.335611E-02  mag=     1.0000
