       N       E                     dE             d eps       ncg     rms          rms(c)
DAV:   1     0.114407284155E+05    0.11441E+05   -0.42234E+05105180   0.155E+03
DAV:   2     0.717696728565E+03   -0.10723E+05   -0.97428E+04102570   0.466E+02
DAV:   3    -0.847190704874E+03   -0.15649E+04   -0.14812E+04109750   0.188E+02
DAV:   4    -0.928723859321E+03   -0.81533E+02   -0.80451E+02117750   0.437E+01
DAV:   5    -0.929768158872E+03   -0.10443E+01   -0.10415E+01112620   0.544E+00    0.139E+02
DAV:   6    -0.756008632610E+03    0.17376E+03   -0.87604E+02126710   0.734E+01    0.112E+02
DAV:   7    -0.787997875910E+03   -0.31989E+02   -0.30626E+02114890   0.502E+01    0.822E+01
DAV:   8    -0.793095361805E+03   -0.50975E+01   -0.44329E+01123340   0.200E+01    0.922E+01
DAV:   9    -0.768515396993E+03    0.24580E+02   -0.40570E+01113380   0.281E+01    0.457E+01
DAV:  10    -0.780517565729E+03   -0.12002E+02   -0.37937E+01124720   0.946E+00    0.327E+01
DAV:  11    -0.783422953698E+03   -0.29054E+01   -0.95638E+00115490   0.822E+00    0.216E+01
DAV:  12    -0.784556382169E+03   -0.11334E+01   -0.35560E+00115290   0.483E+00    0.163E+01
DAV:  13    -0.785045917710E+03   -0.48954E+00   -0.16348E+00116850   0.240E+00    0.129E+01
DAV:  14    -0.785118721973E+03   -0.72804E-01   -0.59251E-01117760   0.162E+00    0.100E+01
DAV:  15    -0.784784806981E+03    0.33391E+00   -0.30431E-01125800   0.213E+00    0.629E+00
DAV:  16    -0.784629836778E+03    0.15497E+00   -0.15658E-01131360   0.112E+00    0.458E+00
DAV:  17    -0.784522740544E+03    0.10710E+00   -0.28569E-02156000   0.109E+00    0.330E+00
DAV:  18    -0.784464878983E+03    0.57862E-01   -0.47458E-02127620   0.894E-01    0.208E+00
DAV:  19    -0.784433360353E+03    0.31519E-01   -0.29270E-02125240   0.743E-01    0.105E+00
DAV:  20    -0.784427766669E+03    0.55937E-02   -0.40623E-02117880   0.450E-01    0.599E-01
DAV:  21    -0.784427643239E+03    0.12343E-03   -0.94356E-03112450   0.153E-01    0.528E-01
DAV:  22    -0.784427488679E+03    0.15456E-03   -0.61692E-04111310   0.432E-02    0.485E-01
DAV:  23    -0.784427317748E+03    0.17093E-03   -0.13265E-04125550   0.571E-02    0.362E-01
DAV:  24    -0.784427081578E+03    0.23617E-03   -0.42537E-04127910   0.130E-01    0.243E-01
DAV:  25    -0.784427186200E+03   -0.10462E-03   -0.40567E-04109160   0.437E-02    0.185E-01
DAV:  26    -0.784427336245E+03   -0.15005E-03   -0.10607E-04132910   0.511E-02    0.175E-01
DAV:  27    -0.784427555065E+03   -0.21882E-03   -0.14124E-04126530   0.642E-02    0.298E-01
DAV:  28    -0.784427598228E+03   -0.43163E-04   -0.19950E-04129730   0.539E-02    0.209E-01
DAV:  29    -0.784427553175E+03    0.45053E-04   -0.14075E-04128390   0.488E-02    0.685E-02
DAV:  30    -0.784427581097E+03   -0.27922E-04   -0.96889E-05103650   0.212E-02    0.964E-02
DAV:  31    -0.784427565404E+03    0.15693E-04   -0.15141E-05 80830   0.233E-02    0.277E-02
DAV:  32    -0.784427569476E+03   -0.40724E-05   -0.60182E-06 69010   0.126E-02
   1 F= -.78442757E+03 E0= -.78442380E+03  d E =-.784428E+03  mag=   113.8912
       N       E                     dE             d eps       ncg     rms          rms(c)
DAV:   1    -0.784433659242E+03   -0.60938E-02   -0.14795E-02134910   0.446E-01    0.827E-02
DAV:   2    -0.784433940937E+03   -0.28170E-03   -0.25724E-03111400   0.808E-02    0.678E-02
DAV:   3    -0.784433953676E+03   -0.12739E-04   -0.99528E-05106180   0.260E-02    0.379E-02
DAV:   4    -0.784433953675E+03    0.16298E-08   -0.95414E-06 64650   0.879E-03
   2 F= -.78443395E+03 E0= -.78443050E+03  d E =-.638420E-02  mag=   113.8963
       N       E                     dE             d eps       ncg     rms          rms(c)
DAV:   1    -0.784462514242E+03   -0.28561E-01   -0.67623E-01134720   0.300E+00    0.569E-01
DAV:   2    -0.784475190552E+03   -0.12676E-01   -0.11633E-01111810   0.539E-01    0.348E-01
DAV:   3    -0.784475803811E+03   -0.61326E-03   -0.41235E-03109500   0.142E-01    0.217E-01
DAV:   4    -0.784475793342E+03    0.10468E-04   -0.33080E-04121540   0.413E-02    0.145E-01
DAV:   5    -0.784475765934E+03    0.27408E-04   -0.15736E-04124360   0.459E-02    0.884E-02
DAV:   6    -0.784475778726E+03   -0.12791E-04   -0.11037E-04117630   0.262E-02    0.448E-02
DAV:   7    -0.784475781465E+03   -0.27393E-05   -0.32269E-05 89830   0.151E-02
   3 F= -.78447578E+03 E0= -.78447401E+03  d E =-.418278E-01  mag=   113.9540
       N       E                     dE             d eps       ncg     rms          rms(c)
DAV:   1    -0.781779294785E+03    0.26965E+01   -0.16107E+02131370   0.447E+01    0.840E+00
DAV:   2    -0.784611654203E+03   -0.28324E+01   -0.26523E+01113510   0.813E+00    0.546E+00
DAV:   3    -0.784730913601E+03   -0.11926E+00   -0.96263E-01111440   0.215E+00    0.305E+00
DAV:   4    -0.784721970813E+03    0.89428E-02   -0.62373E-02121720   0.572E-01    0.173E+00
DAV:   5    -0.784709810633E+03    0.12160E-01   -0.21840E-02122250   0.412E-01    0.110E+00
DAV:   6    -0.784707642133E+03    0.21685E-02   -0.14431E-02120240   0.356E-01    0.494E-01
DAV:   7    -0.784708319564E+03   -0.67743E-03   -0.68647E-03112620   0.169E-01    0.185E-01
DAV:   8    -0.784708285913E+03    0.33651E-04   -0.53022E-04114560   0.615E-02    0.960E-02
DAV:   9    -0.784708284146E+03    0.17673E-05   -0.20237E-04113170   0.346E-02    0.749E-02
DAV:  10    -0.784708285347E+03   -0.12017E-05   -0.47876E-05102580   0.172E-02
   4 F= -.78470829E+03 E0= -.78470829E+03  d E =-.232504E+00  mag=   113.9999
       N       E                     dE             d eps       ncg     rms          rms(c)
DAV:   1    -0.784167286431E+03    0.54100E+00   -0.24457E+01148940   0.224E+01    0.411E+00
DAV:   2    -0.784799969290E+03   -0.63268E+00   -0.58231E+00113420   0.387E+00    0.261E+00
DAV:   3    -0.784836038001E+03   -0.36069E-01   -0.25815E-01110830   0.115E+00    0.151E+00
DAV:   4    -0.784834135343E+03    0.19027E-02   -0.15306E-02122370   0.295E-01    0.685E-01
DAV:   5    -0.784831950520E+03    0.21848E-02   -0.39343E-03125280   0.161E-01    0.458E-01
DAV:   6    -0.784831268233E+03    0.68229E-03   -0.21277E-03120540   0.161E-01    0.227E-01
DAV:   7    -0.784831374284E+03   -0.10605E-03   -0.13232E-03117720   0.751E-02    0.790E-02
DAV:   8    -0.784831376858E+03   -0.25742E-05   -0.16614E-04113740   0.319E-02    0.587E-02
DAV:   9    -0.784831378048E+03   -0.11899E-05   -0.45625E-05100940   0.147E-02
   5 F= -.78483138E+03 E0= -.78483138E+03  d E =-.123093E+00  mag=   114.0000
       N       E                     dE             d eps       ncg     rms          rms(c)
DAV:   1    -0.784745010541E+03    0.86366E-01   -0.62653E+00133720   0.915E+00    0.155E+00
DAV:   2    -0.784853076346E+03   -0.10807E+00   -0.99737E-01111480   0.159E+00    0.815E-01
DAV:   3    -0.784857482341E+03   -0.44060E-02   -0.30936E-02109260   0.358E-01    0.430E-01
DAV:   4    -0.784857219346E+03    0.26299E-03   -0.19738E-03120870   0.856E-02    0.253E-01
DAV:   5    -0.784856836120E+03    0.38323E-03   -0.48294E-04124550   0.726E-02    0.154E-01
DAV:   6    -0.784856794385E+03    0.41734E-04   -0.45220E-04122520   0.618E-02    0.738E-02
DAV:   7    -0.784856812796E+03   -0.18411E-04   -0.17198E-04111240   0.287E-02    0.299E-02
DAV:   8    -0.784856813378E+03   -0.58240E-06   -0.10484E-05 66490   0.945E-03
   6 F= -.78485681E+03 E0= -.78485681E+03  d E =-.254353E-01  mag=   114.0000
       N       E                     dE             d eps       ncg     rms          rms(c)
DAV:   1    -0.784557817401E+03    0.29900E+00   -0.29251E+01125570   0.161E+01    0.264E+00
DAV:   2    -0.784900103791E+03   -0.34229E+00   -0.31888E+00110220   0.286E+00    0.148E+00
DAV:   3    -0.784910716789E+03   -0.10613E-01   -0.83189E-02109060   0.586E-01    0.732E-01
DAV:   4    -0.784909365092E+03    0.13517E-02   -0.60986E-03122640   0.161E-01    0.467E-01
DAV:   5    -0.784907876456E+03    0.14886E-02   -0.22573E-03124700   0.154E-01    0.242E-01
DAV:   6    -0.784907957398E+03   -0.80942E-04   -0.17271E-03118470   0.876E-02    0.111E-01
DAV:   7    -0.784907997621E+03   -0.40223E-04   -0.32911E-04110910   0.388E-02    0.534E-02
DAV:   8    -0.784907997085E+03    0.53558E-06   -0.15118E-05 75690   0.124E-02
   7 F= -.78490800E+03 E0= -.78490800E+03  d E =-.511837E-01  mag=   114.0000
       N       E                     dE             d eps       ncg     rms          rms(c)
DAV:   1    -0.784558659748E+03    0.34934E+00   -0.27415E+01126300   0.159E+01    0.280E+00
DAV:   2    -0.784935758502E+03   -0.37710E+00   -0.35381E+00110250   0.288E+00    0.156E+00
DAV:   3    -0.784947436622E+03   -0.11678E-01   -0.97502E-02109950   0.616E-01    0.821E-01
DAV:   4    -0.784946157131E+03    0.12795E-02   -0.71387E-03121980   0.171E-01    0.531E-01
DAV:   5    -0.784944358692E+03    0.17984E-02   -0.21479E-03125350   0.150E-01    0.301E-01
DAV:   6    -0.784944195788E+03    0.16290E-03   -0.19554E-03124380   0.114E-01    0.131E-01
DAV:   7    -0.784944270867E+03   -0.75079E-04   -0.66268E-04111880   0.500E-02    0.574E-02
DAV:   8    -0.784944268903E+03    0.19634E-05   -0.24574E-05 90120   0.150E-02
   8 F= -.78494427E+03 E0= -.78494427E+03  d E =-.362718E-01  mag=   114.0000
       N       E                     dE             d eps       ncg     rms          rms(c)
DAV:   1    -0.783914412709E+03    0.10299E+01   -0.67392E+01127560   0.262E+01    0.475E+00
DAV:   2    -0.784936963341E+03   -0.10226E+01   -0.95309E+00111040   0.476E+00    0.262E+00
DAV:   3    -0.784968769958E+03   -0.31807E-01   -0.24362E-01110590   0.972E-01    0.123E+00
DAV:   4    -0.784965652341E+03    0.31176E-02   -0.17446E-02121170   0.257E-01    0.865E-01
DAV:   5    -0.784961664762E+03    0.39876E-02   -0.39284E-03127940   0.220E-01    0.502E-01
DAV:   6    -0.784961063132E+03    0.60163E-03   -0.43053E-03127010   0.187E-01    0.211E-01
DAV:   7    -0.784961256783E+03   -0.19365E-03   -0.16542E-03113360   0.837E-02    0.974E-02
DAV:   8    -0.784961263198E+03   -0.64143E-05   -0.81437E-05109340   0.245E-02
   9 F= -.78496126E+03 E0= -.78496126E+03  d E =-.169943E-01  mag=   114.0000
       N       E                     dE             d eps       ncg     rms          rms(c)
DAV:   1    -0.784855074177E+03    0.10618E+00   -0.75135E+00126940   0.952E+00    0.160E+00
DAV:   2    -0.784976284956E+03   -0.12121E+00   -0.11360E+00111830   0.173E+00    0.827E-01
DAV:   3    -0.784980535430E+03   -0.42505E-02   -0.32383E-02110260   0.358E-01    0.405E-01
DAV:   4    -0.784980146139E+03    0.38929E-03   -0.22129E-03123880   0.918E-02    0.275E-01
DAV:   5    -0.784979632114E+03    0.51403E-03   -0.65465E-04122270   0.921E-02    0.149E-01
DAV:   6    -0.784979614873E+03    0.17241E-04   -0.61609E-04122220   0.671E-02    0.790E-02
DAV:   7    -0.784979640638E+03   -0.25765E-04   -0.21184E-04112200   0.333E-02    0.344E-02
DAV:   8    -0.784979641843E+03   -0.12050E-05   -0.14074E-05 72940   0.110E-02
  10 F= -.78497964E+03 E0= -.78497964E+03  d E =-.183786E-01  mag=   114.0000
       N       E                     dE             d eps       ncg     rms          rms(c)
DAV:   1    -0.784920079293E+03    0.59561E-01   -0.55433E+00122710   0.689E+00    0.120E+00
DAV:   2    -0.784988174788E+03   -0.68095E-01   -0.64377E-01110930   0.130E+00    0.720E-01
DAV:   3    -0.784990382401E+03   -0.22076E-02   -0.17840E-02108590   0.292E-01    0.393E-01
DAV:   4    -0.784990115194E+03    0.26721E-03   -0.12879E-03123580   0.793E-02    0.244E-01
DAV:   5    -0.784989740813E+03    0.37438E-03   -0.51821E-04122300   0.748E-02    0.131E-01
DAV:   6    -0.784989741543E+03   -0.73019E-06   -0.45708E-04123920   0.509E-02    0.623E-02
DAV:   7    -0.784989754488E+03   -0.12946E-04   -0.11515E-04112390   0.221E-02    0.246E-02
DAV:   8    -0.784989754186E+03    0.30204E-06   -0.45016E-06 63370   0.709E-03
  11 F= -.78498975E+03 E0= -.78498975E+03  d E =-.101123E-01  mag=   114.0000
       N       E                     dE             d eps       ncg     rms          rms(c)
DAV:   1    -0.784939936544E+03    0.49818E-01   -0.29301E+00133590   0.625E+00    0.110E+00
DAV:   2    -0.784995910031E+03   -0.55973E-01   -0.51840E-01110970   0.112E+00    0.567E-01
DAV:   3    -0.784997970420E+03   -0.20604E-02   -0.16112E-02111190   0.254E-01    0.298E-01
DAV:   4    -0.784997850264E+03    0.12016E-03   -0.10898E-03119960   0.638E-02    0.196E-01
DAV:   5    -0.784997638910E+03    0.21135E-03   -0.20436E-04126630   0.509E-02    0.123E-01
DAV:   6    -0.784997597462E+03    0.41448E-04   -0.25873E-04126060   0.525E-02    0.472E-02
DAV:   7    -0.784997611283E+03   -0.13821E-04   -0.11998E-04112770   0.217E-02    0.200E-02
DAV:   8    -0.784997611689E+03   -0.40591E-06   -0.49192E-06 60320   0.635E-03
  12 F= -.78499761E+03 E0= -.78499761E+03  d E =-.785750E-02  mag=   114.0000
       N       E                     dE             d eps       ncg     rms          rms(c)
DAV:   1    -0.784842146080E+03    0.15547E+00   -0.97899E+00130880   0.109E+01    0.185E+00
DAV:   2    -0.785005057071E+03   -0.16291E+00   -0.15003E+00111230   0.193E+00    0.957E-01
DAV:   3    -0.785010080914E+03   -0.50238E-02   -0.40812E-02110990   0.395E-01    0.460E-01
DAV:   4    -0.785009653116E+03    0.42780E-03   -0.28994E-03122240   0.101E-01    0.318E-01
DAV:   5    -0.785008997318E+03    0.65580E-03   -0.56660E-04128920   0.931E-02    0.183E-01
DAV:   6    -0.785008924475E+03    0.72843E-04   -0.75039E-04127240   0.778E-02    0.711E-02
DAV:   7    -0.785008954755E+03   -0.30280E-04   -0.24594E-04112030   0.334E-02    0.361E-02
DAV:   8    -0.785008955672E+03   -0.91745E-06   -0.89750E-06 69510   0.899E-03
  13 F= -.78500896E+03 E0= -.78500896E+03  d E =-.113440E-01  mag=   114.0000
       N       E                     dE             d eps       ncg     rms          rms(c)
DAV:   1    -0.784772182146E+03    0.23677E+00   -0.12873E+01126980   0.134E+01    0.229E+00
DAV:   2    -0.785011718559E+03   -0.23954E+00   -0.22117E+00113330   0.241E+00    0.116E+00
DAV:   3    -0.785019624089E+03   -0.79055E-02   -0.61848E-02111930   0.509E-01    0.576E-01
DAV:   4    -0.785019102676E+03    0.52141E-03   -0.43255E-03121200   0.125E-01    0.393E-01
DAV:   5    -0.785018230095E+03    0.87258E-03   -0.81615E-04127090   0.110E-01    0.239E-01
DAV:   6    -0.785018097680E+03    0.13242E-03   -0.10964E-03128540   0.107E-01    0.935E-02
DAV:   7    -0.785018151502E+03   -0.53822E-04   -0.44187E-04112470   0.443E-02    0.421E-02
DAV:   8    -0.785018154382E+03   -0.28800E-05   -0.18055E-05 79110   0.128E-02
  14 F= -.78501815E+03 E0= -.78501815E+03  d E =-.919871E-02  mag=   114.0000
       N       E                     dE             d eps       ncg     rms          rms(c)
DAV:   1    -0.784942291741E+03    0.75860E-01   -0.66012E+00124460   0.804E+00    0.132E+00
DAV:   2    -0.785025275742E+03   -0.82984E-01   -0.77770E-01112970   0.151E+00    0.706E-01
DAV:   3    -0.785027726080E+03   -0.24503E-02   -0.20718E-02111630   0.314E-01    0.378E-01
DAV:   4    -0.785027465523E+03    0.26056E-03   -0.15169E-03123730   0.862E-02    0.239E-01
DAV:   5    -0.785027094903E+03    0.37062E-03   -0.51279E-04120590   0.803E-02    0.138E-01
DAV:   6    -0.785027085783E+03    0.91204E-05   -0.52505E-04122620   0.651E-02    0.761E-02
DAV:   7    -0.785027108232E+03   -0.22450E-04   -0.18014E-04112800   0.306E-02    0.317E-02
DAV:   8    -0.785027109596E+03   -0.13636E-05   -0.10290E-05 69760   0.107E-02
  15 F= -.78502711E+03 E0= -.78502711E+03  d E =-.895521E-02  mag=   114.0000
       N       E                     dE             d eps       ncg     rms          rms(c)
DAV:   1    -0.784894165424E+03    0.13294E+00   -0.76165E+00127190   0.961E+00    0.166E+00
DAV:   2    -0.785024544710E+03   -0.13038E+00   -0.12140E+00112620   0.175E+00    0.847E-01
DAV:   3    -0.785028446827E+03   -0.39021E-02   -0.32683E-02111790   0.366E-01    0.436E-01
DAV:   4    -0.785028100733E+03    0.34609E-03   -0.23224E-03121570   0.900E-02    0.302E-01
DAV:   5    -0.785027521189E+03    0.57954E-03   -0.46679E-04132130   0.831E-02    0.184E-01
DAV:   6    -0.785027406584E+03    0.11461E-03   -0.63915E-04129060   0.778E-02    0.656E-02
DAV:   7    -0.785027433189E+03   -0.26605E-04   -0.23923E-04111380   0.319E-02    0.320E-02
DAV:   8    -0.785027433788E+03   -0.59950E-06   -0.90096E-06 68240   0.822E-03
  16 F= -.78502743E+03 E0= -.78502743E+03  d E =-.324192E-03  mag=   114.0000
       N       E                     dE             d eps       ncg     rms          rms(c)
DAV:   1    -0.784718881710E+03    0.30855E+00   -0.18734E+01125760   0.142E+01    0.242E+00
DAV:   2    -0.785001198173E+03   -0.28232E+00   -0.26077E+00112750   0.258E+00    0.125E+00
DAV:   3    -0.785009178677E+03   -0.79805E-02   -0.69071E-02111870   0.513E-01    0.618E-01
DAV:   4    -0.785008404798E+03    0.77388E-03   -0.50368E-03123650   0.138E-01    0.423E-01
DAV:   5    -0.785007267732E+03    0.11371E-02   -0.11221E-03126770   0.130E-01    0.238E-01
DAV:   6    -0.785007208109E+03    0.59624E-04   -0.14589E-03123840   0.105E-01    0.101E-01
DAV:   7    -0.785007263871E+03   -0.55762E-04   -0.42518E-04112570   0.462E-02    0.489E-02
DAV:   8    -0.785007269206E+03   -0.53354E-05   -0.20773E-05 80370   0.131E-02
  17 F= -.78500727E+03 E0= -.78500727E+03  d E =0.201646E-01  mag=   114.0000
       N       E                     dE             d eps       ncg     rms          rms(c)
DAV:   1    -0.784981092801E+03    0.26171E-01   -0.18141E+00130580   0.461E+00    0.720E-01
DAV:   2    -0.785006105873E+03   -0.25013E-01   -0.23302E-01111590   0.813E-01    0.403E-01
DAV:   3    -0.785006960537E+03   -0.85466E-03   -0.74483E-03112450   0.183E-01    0.219E-01
DAV:   4    -0.785006864580E+03    0.95957E-04   -0.50161E-04123020   0.478E-02    0.127E-01
DAV:   5    -0.785006722204E+03    0.14238E-03   -0.17313E-04123010   0.442E-02    0.707E-02
DAV:   6    -0.785006709447E+03    0.12756E-04   -0.14946E-04123790   0.330E-02    0.421E-02
DAV:   7    -0.785006714270E+03   -0.48226E-05   -0.52712E-05108200   0.166E-02
  18 F= -.78500671E+03 E0= -.78500671E+03  d E =0.554936E-03  mag=   114.0000
       N       E                     dE             d eps       ncg     rms          rms(c)
DAV:   1    -0.784914972648E+03    0.91737E-01   -0.52241E+00129240   0.861E+00    0.149E+00
DAV:   2    -0.785016312286E+03   -0.10134E+00   -0.93300E-01112630   0.154E+00    0.737E-01
DAV:   3    -0.785019683178E+03   -0.33709E-02   -0.25866E-02111810   0.320E-01    0.354E-01
DAV:   4    -0.785019467249E+03    0.21593E-03   -0.17661E-03121090   0.767E-02    0.250E-01
DAV:   5    -0.785019125542E+03    0.34171E-03   -0.32154E-04129430   0.704E-02    0.150E-01
DAV:   6    -0.785019084319E+03    0.41223E-04   -0.42355E-04129530   0.654E-02    0.523E-02
DAV:   7    -0.785019104240E+03   -0.19921E-04   -0.16231E-04112790   0.273E-02    0.263E-02
DAV:   8    -0.785019105648E+03   -0.14079E-05   -0.67239E-06 66180   0.752E-03
  19 F= -.78501911E+03 E0= -.78501911E+03  d E =-.123914E-01  mag=   114.0000
       N       E                     dE             d eps       ncg     rms          rms(c)
DAV:   1    -0.785007800919E+03    0.11303E-01   -0.82359E-01129830   0.311E+00    0.515E-01
DAV:   2    -0.785020311622E+03   -0.12511E-01   -0.11649E-01110850   0.563E-01    0.270E-01
DAV:   3    -0.785020751141E+03   -0.43952E-03   -0.34535E-03111640   0.122E-01    0.140E-01
DAV:   4    -0.785020714360E+03    0.36780E-04   -0.21655E-04121600   0.333E-02    0.915E-02
DAV:   5    -0.785020665607E+03    0.48753E-04   -0.61891E-05 99280   0.281E-02    0.551E-02
DAV:   6    -0.785020660881E+03    0.47259E-05   -0.60677E-05116230   0.233E-02
  20 F= -.78502066E+03 E0= -.78502066E+03  d E =-.155523E-02  mag=   114.0000
       N       E                     dE             d eps       ncg     rms          rms(c)
DAV:   1    -0.785011514544E+03    0.91511E-02   -0.41416E-01128010   0.229E+00    0.379E-01
DAV:   2    -0.785018239582E+03   -0.67250E-02   -0.62530E-02112760   0.418E-01    0.196E-01
DAV:   3    -0.785018461889E+03   -0.22231E-03   -0.17573E-03111130   0.888E-02    0.100E-01
DAV:   4    -0.785018442368E+03    0.19521E-04   -0.11937E-04120740   0.222E-02    0.655E-02
DAV:   5    -0.785018411643E+03    0.30726E-04   -0.31793E-05 90680   0.212E-02    0.378E-02
DAV:   6    -0.785018408112E+03    0.35309E-05   -0.36611E-05108240   0.177E-02
  21 F= -.78501841E+03 E0= -.78501841E+03  d E =0.225277E-02  mag=   114.0000
       N       E                     dE             d eps       ncg     rms          rms(c)
DAV:   1    -0.785014855955E+03    0.35557E-02   -0.17035E-01127410   0.129E+00    0.223E-01
DAV:   2    -0.785017081847E+03   -0.22259E-02   -0.20621E-02110850   0.233E-01    0.115E-01
DAV:   3    -0.785017164473E+03   -0.82626E-04   -0.49097E-04110400   0.467E-02    0.526E-02
DAV:   4    -0.785017157669E+03    0.68042E-05   -0.32888E-05 95420   0.125E-02
  22 F= -.78501716E+03 E0= -.78501716E+03  d E =0.125044E-02  mag=   114.0000
       N       E                     dE             d eps       ncg     rms          rms(c)
DAV:   1    -0.785016400358E+03    0.76412E-03   -0.10730E-01128480   0.116E+00    0.205E-01
DAV:   2    -0.785018310254E+03   -0.19099E-02   -0.17701E-02112310   0.213E-01    0.987E-02
DAV:   3    -0.785018370381E+03   -0.60127E-04   -0.46287E-04110310   0.428E-02    0.473E-02
DAV:   4    -0.785018365964E+03    0.44168E-05   -0.31560E-05 84820   0.102E-02
  23 F= -.78501837E+03 E0= -.78501837E+03  d E =-.120829E-02  mag=   114.0000
       N       E                     dE             d eps       ncg     rms          rms(c)
DAV:   1    -0.785010657984E+03    0.77124E-02   -0.57515E-01127010   0.259E+00    0.435E-01
DAV:   2    -0.785019866708E+03   -0.92087E-02   -0.85810E-02113110   0.476E-01    0.225E-01
DAV:   3    -0.785020106906E+03   -0.24020E-03   -0.21482E-03111650   0.932E-02    0.113E-01
DAV:   4    -0.785020076330E+03    0.30576E-04   -0.15843E-04121700   0.246E-02    0.829E-02
DAV:   5    -0.785020031607E+03    0.44723E-04   -0.43078E-05 96610   0.269E-02    0.459E-02
DAV:   6    -0.785020029061E+03    0.25456E-05   -0.52015E-05116540   0.201E-02
  24 F= -.78502003E+03 E0= -.78502003E+03  d E =-.166310E-02  mag=   114.0000
       N       E                     dE             d eps       ncg     rms          rms(c)
DAV:   1    -0.785017060301E+03    0.29713E-02   -0.14506E-01133850   0.143E+00    0.239E-01
DAV:   2    -0.785019505711E+03   -0.24454E-02   -0.22606E-02112920   0.253E-01    0.122E-01
DAV:   3    -0.785019598810E+03   -0.93100E-04   -0.72618E-04113060   0.556E-02    0.609E-02
DAV:   4    -0.785019589978E+03    0.88321E-05   -0.45359E-05 89780   0.143E-02
  25 F= -.78501959E+03 E0= -.78501959E+03  d E =0.439083E-03  mag=   114.0000
       N       E                     dE             d eps       ncg     rms          rms(c)
DAV:   1    -0.785019054962E+03    0.54385E-03   -0.22506E-02137080   0.589E-01    0.104E-01
DAV:   2    -0.785019473632E+03   -0.41867E-03   -0.38301E-03112680   0.103E-01    0.528E-02
DAV:   3    -0.785019489256E+03   -0.15624E-04   -0.12358E-04109000   0.241E-02    0.268E-02
DAV:   4    -0.785019487855E+03    0.14007E-05   -0.84618E-06 64210   0.671E-03
  26 F= -.78501949E+03 E0= -.78501949E+03  d E =0.102123E-03  mag=   114.0000
