       N       E                     dE             d eps       ncg     rms          rms(c)
DAV:   1     0.826379709323E+04    0.82638E+04   -0.23539E+05 34344   0.218E+03
DAV:   2     0.116543024140E+04   -0.70984E+04   -0.66534E+04 33696   0.634E+02
DAV:   3    -0.386854328614E+03   -0.15523E+04   -0.13666E+04 35928   0.273E+02
DAV:   4    -0.544805408317E+03   -0.15795E+03   -0.15518E+03 36816   0.837E+01
DAV:   5    -0.547614982475E+03   -0.28096E+01   -0.27950E+01 36696   0.126E+01    0.105E+02
DAV:   6    -0.552397729736E+03   -0.47827E+01   -0.92555E+02 44712   0.116E+02    0.121E+02
DAV:   7    -0.439582671945E+03    0.11282E+03   -0.33334E+02 36744   0.120E+02    0.359E+01
DAV:   8    -0.442269794630E+03   -0.26871E+01   -0.78937E+01 41100   0.257E+01    0.152E+01
DAV:   9    -0.450638281066E+03   -0.83685E+01   -0.22410E+01 37860   0.287E+01    0.538E+01
DAV:  10    -0.444311896898E+03    0.63264E+01   -0.74279E+00 37368   0.155E+01    0.183E+01
DAV:  11    -0.442587086035E+03    0.17248E+01   -0.85671E+00 37272   0.109E+01    0.711E+00
DAV:  12    -0.442494391499E+03    0.92695E-01   -0.19483E+00 36984   0.709E+00    0.604E+00
DAV:  13    -0.442305572209E+03    0.18882E+00   -0.11318E+00 38220   0.492E+00    0.406E+00
DAV:  14    -0.442282728569E+03    0.22844E-01   -0.47865E-01 41292   0.317E+00    0.389E+00
DAV:  15    -0.442235646816E+03    0.47082E-01   -0.38579E-01 40248   0.266E+00    0.280E+00
DAV:  16    -0.442198649764E+03    0.36997E-01   -0.19543E-01 39588   0.235E+00    0.206E+00
DAV:  17    -0.442188552565E+03    0.10097E-01   -0.10179E-01 39120   0.173E+00    0.176E+00
DAV:  18    -0.442173290678E+03    0.15262E-01   -0.62844E-02 37200   0.132E+00    0.106E+00
DAV:  19    -0.442167535966E+03    0.57547E-02   -0.18754E-02 38532   0.809E-01    0.629E-01
DAV:  20    -0.442166827852E+03    0.70811E-03   -0.12840E-02 36780   0.721E-01    0.472E-01
DAV:  21    -0.442166305805E+03    0.52205E-03   -0.41316E-03 36828   0.380E-01    0.308E-01
DAV:  22    -0.442166111314E+03    0.19449E-03   -0.26855E-03 37536   0.369E-01    0.242E-01
DAV:  23    -0.442165801936E+03    0.30938E-03   -0.14405E-03 39864   0.231E-01    0.800E-02
DAV:  24    -0.442165844069E+03   -0.42133E-04   -0.43159E-04 37140   0.123E-01    0.808E-02
DAV:  25    -0.442165822300E+03    0.21768E-04   -0.21963E-04 35232   0.986E-02    0.394E-02
DAV:  26    -0.442165830959E+03   -0.86586E-05   -0.61787E-05 28656   0.510E-02
   1 F= -.44216583E+03 E0= -.44214982E+03  d E =-.442166E+03  mag=     0.6238
       N       E                     dE             d eps       ncg     rms          rms(c)
DAV:   1    -0.442166235311E+03   -0.41301E-03   -0.54433E-04 45672   0.231E-01    0.227E-02
DAV:   2    -0.442166273729E+03   -0.38418E-04   -0.26221E-04 43548   0.858E-02    0.559E-02
DAV:   3    -0.442166253398E+03    0.20330E-04   -0.12839E-04 33048   0.756E-02    0.125E-02
DAV:   4    -0.442166255486E+03   -0.20883E-05   -0.22151E-05 19260   0.217E-02
   2 F= -.44216626E+03 E0= -.44215032E+03  d E =-.424527E-03  mag=     0.6324
       N       E                     dE             d eps       ncg     rms          rms(c)
DAV:   1    -0.442154592198E+03    0.11661E-01   -0.75862E-01 47568   0.861E+00    0.429E-01
DAV:   2    -0.442180359853E+03   -0.25768E-01   -0.26450E-01 36456   0.104E+00    0.276E-01
DAV:   3    -0.442181099820E+03   -0.73997E-03   -0.95063E-03 37320   0.524E-01    0.336E-01
DAV:   4    -0.442180512717E+03    0.58710E-03   -0.39422E-03 40236   0.383E-01    0.170E-01
DAV:   5    -0.442180810826E+03   -0.29811E-03   -0.29029E-03 44568   0.258E-01    0.259E-01
DAV:   6    -0.442180498676E+03    0.31215E-03   -0.28044E-03 41184   0.241E-01    0.929E-02
DAV:   7    -0.442180482193E+03    0.16483E-04   -0.53035E-04 38952   0.154E-01    0.618E-02
DAV:   8    -0.442180464231E+03    0.17962E-04   -0.15879E-04 35256   0.849E-02    0.240E-02
DAV:   9    -0.442180462315E+03    0.19163E-05   -0.33859E-05 26112   0.401E-02
   3 F= -.44218046E+03 E0= -.44216456E+03  d E =-.142068E-01  mag=     0.6372
       N       E                     dE             d eps       ncg     rms          rms(c)
DAV:   1    -0.442117389368E+03    0.63075E-01   -0.29539E+00 46272   0.148E+01    0.785E-01
DAV:   2    -0.442199787833E+03   -0.82398E-01   -0.83925E-01 36300   0.192E+00    0.614E-01
DAV:   3    -0.442203459644E+03   -0.36718E-02   -0.56273E-02 36888   0.127E+00    0.802E-01
DAV:   4    -0.442200002385E+03    0.34573E-02   -0.25791E-02 39924   0.754E-01    0.334E-01
DAV:   5    -0.442200384084E+03   -0.38170E-03   -0.74508E-03 42600   0.436E-01    0.383E-01
DAV:   6    -0.442200015793E+03    0.36829E-03   -0.63270E-03 40872   0.385E-01    0.217E-01
DAV:   7    -0.442199850296E+03    0.16550E-03   -0.21535E-03 39600   0.332E-01    0.124E-01
DAV:   8    -0.442199781084E+03    0.69212E-04   -0.57695E-04 38964   0.164E-01    0.467E-02
DAV:   9    -0.442199779246E+03    0.18382E-05   -0.16669E-04 36936   0.885E-02    0.390E-02
DAV:  10    -0.442199772220E+03    0.70263E-05   -0.62498E-05 27528   0.653E-02
   4 F= -.44219977E+03 E0= -.44218380E+03  d E =-.193099E-01  mag=     0.6210
       N       E                     dE             d eps       ncg     rms          rms(c)
DAV:   1    -0.442178872158E+03    0.20907E-01   -0.19114E+00 43548   0.939E+00    0.520E-01
DAV:   2    -0.442214805373E+03   -0.35933E-01   -0.36348E-01 36972   0.141E+00    0.552E-01
DAV:   3    -0.442215823795E+03   -0.10184E-02   -0.41029E-02 36852   0.102E+00    0.560E-01
DAV:   4    -0.442214318476E+03    0.15053E-02   -0.14191E-02 39912   0.500E-01    0.258E-01
DAV:   5    -0.442214213105E+03    0.10537E-03   -0.29953E-03 42072   0.312E-01    0.212E-01
DAV:   6    -0.442214221907E+03   -0.88015E-05   -0.20816E-03 40596   0.245E-01    0.171E-01
DAV:   7    -0.442214083866E+03    0.13804E-03   -0.11455E-03 39468   0.253E-01    0.807E-02
DAV:   8    -0.442214054657E+03    0.29209E-04   -0.24782E-04 39180   0.107E-01    0.342E-02
DAV:   9    -0.442214055445E+03   -0.78813E-06   -0.10466E-04 36372   0.732E-02    0.310E-02
DAV:  10    -0.442214049823E+03    0.56216E-05   -0.34210E-05 25680   0.464E-02
   5 F= -.44221405E+03 E0= -.44219803E+03  d E =-.142776E-01  mag=     0.6133
       N       E                     dE             d eps       ncg     rms          rms(c)
DAV:   1    -0.442182752239E+03    0.31303E-01   -0.41206E+00 40884   0.120E+01    0.654E-01
DAV:   2    -0.442238818017E+03   -0.56066E-01   -0.57167E-01 36852   0.202E+00    0.874E-01
DAV:   3    -0.442238463383E+03    0.35463E-03   -0.88694E-02 36888   0.141E+00    0.684E-01
DAV:   4    -0.442236549187E+03    0.19142E-02   -0.26044E-02 37980   0.632E-01    0.357E-01
DAV:   5    -0.442236024297E+03    0.52489E-03   -0.52148E-03 40680   0.446E-01    0.224E-01
DAV:   6    -0.442236011361E+03    0.12936E-04   -0.23031E-03 40236   0.282E-01    0.196E-01
DAV:   7    -0.442235864920E+03    0.14644E-03   -0.18575E-03 41772   0.333E-01    0.115E-01
DAV:   8    -0.442235793156E+03    0.71765E-04   -0.45330E-04 40104   0.147E-01    0.447E-02
DAV:   9    -0.442235798090E+03   -0.49339E-05   -0.20161E-04 38028   0.983E-02    0.428E-02
DAV:  10    -0.442235785610E+03    0.12479E-04   -0.67304E-05 29160   0.590E-02    0.144E-02
DAV:  11    -0.442235786647E+03   -0.10368E-05   -0.20960E-05 18732   0.322E-02
   6 F= -.44223579E+03 E0= -.44221973E+03  d E =-.217368E-01  mag=     0.5944
       N       E                     dE             d eps       ncg     rms          rms(c)
DAV:   1    -0.442160345419E+03    0.75440E-01   -0.46655E+00 44196   0.165E+01    0.836E-01
DAV:   2    -0.442255801590E+03   -0.95456E-01   -0.97445E-01 37332   0.245E+00    0.934E-01
DAV:   3    -0.442258338638E+03   -0.25370E-02   -0.11749E-01 37032   0.170E+00    0.919E-01
DAV:   4    -0.442254151688E+03    0.41869E-02   -0.42222E-02 38448   0.814E-01    0.423E-01
DAV:   5    -0.442253705089E+03    0.44660E-03   -0.88547E-03 42132   0.514E-01    0.321E-01
DAV:   6    -0.442253544983E+03    0.16011E-03   -0.42364E-03 40596   0.361E-01    0.226E-01
DAV:   7    -0.442253377615E+03    0.16737E-03   -0.27730E-03 41436   0.400E-01    0.143E-01
DAV:   8    -0.442253263772E+03    0.11384E-03   -0.70225E-04 39960   0.182E-01    0.552E-02
DAV:   9    -0.442253272186E+03   -0.84137E-05   -0.30691E-04 42792   0.122E-01    0.529E-02
DAV:  10    -0.442253251667E+03    0.20519E-04   -0.10131E-04 34500   0.744E-02    0.181E-02
DAV:  11    -0.442253253559E+03   -0.18920E-05   -0.32890E-05 23088   0.414E-02
   7 F= -.44225325E+03 E0= -.44223718E+03  d E =-.174669E-01  mag=     0.5813
       N       E                     dE             d eps       ncg     rms          rms(c)
DAV:   1    -0.442243348031E+03    0.99036E-02   -0.80513E-01 45984   0.757E+00    0.381E-01
DAV:   2    -0.442262784626E+03   -0.19437E-01   -0.19635E-01 37140   0.112E+00    0.419E-01
DAV:   3    -0.442263235341E+03   -0.45072E-03   -0.20872E-02 36972   0.834E-01    0.393E-01
DAV:   4    -0.442262426134E+03    0.80921E-03   -0.68089E-03 37392   0.402E-01    0.185E-01
DAV:   5    -0.442262364339E+03    0.61795E-04   -0.20543E-03 43680   0.214E-01    0.144E-01
DAV:   6    -0.442262384305E+03   -0.19966E-04   -0.10049E-03 41088   0.172E-01    0.122E-01
DAV:   7    -0.442262300947E+03    0.83358E-04   -0.56936E-04 40404   0.182E-01    0.484E-02
DAV:   8    -0.442262292188E+03    0.87595E-05   -0.92358E-05 35172   0.631E-02
   8 F= -.44226229E+03 E0= -.44224626E+03  d E =-.903863E-02  mag=     0.5732
       N       E                     dE             d eps       ncg     rms          rms(c)
DAV:   1    -0.442263330696E+03   -0.10297E-02   -0.31551E-01 44544   0.423E+00    0.217E-01
DAV:   2    -0.442269675561E+03   -0.63449E-02   -0.63833E-02 37320   0.647E-01    0.248E-01
DAV:   3    -0.442269802324E+03   -0.12676E-03   -0.68027E-03 36828   0.525E-01    0.214E-01
DAV:   4    -0.442269533114E+03    0.26921E-03   -0.16415E-03 38508   0.235E-01    0.945E-02
DAV:   5    -0.442269538138E+03   -0.50241E-05   -0.72919E-04 39468   0.113E-01    0.917E-02
DAV:   6    -0.442269530737E+03    0.74017E-05   -0.41664E-04 40608   0.101E-01    0.661E-02
DAV:   7    -0.442269507259E+03    0.23478E-04   -0.19133E-04 36672   0.101E-01    0.267E-02
DAV:   8    -0.442269504916E+03    0.23428E-05   -0.29986E-05 23736   0.349E-02
   9 F= -.44226950E+03 E0= -.44225348E+03  d E =-.721273E-02  mag=     0.5675
       N       E                     dE             d eps       ncg     rms          rms(c)
DAV:   1    -0.442209345149E+03    0.60162E-01   -0.37291E+00 45492   0.159E+01    0.805E-01
DAV:   2    -0.442295645276E+03   -0.86300E-01   -0.86433E-01 37224   0.241E+00    0.936E-01
DAV:   3    -0.442296691275E+03   -0.10460E-02   -0.87717E-02 36864   0.174E+00    0.791E-01
DAV:   4    -0.442293221254E+03    0.34700E-02   -0.24132E-02 37788   0.827E-01    0.364E-01
DAV:   5    -0.442293124996E+03    0.96258E-04   -0.96383E-03 41592   0.406E-01    0.311E-01
DAV:   6    -0.442293244262E+03   -0.11927E-03   -0.49380E-03 41616   0.377E-01    0.271E-01
DAV:   7    -0.442292807953E+03    0.43631E-03   -0.28751E-03 40452   0.400E-01    0.987E-02
DAV:   8    -0.442292787471E+03    0.20482E-04   -0.47009E-04 38460   0.132E-01    0.574E-02
DAV:   9    -0.442292789154E+03   -0.16830E-05   -0.25971E-04 40500   0.121E-01    0.486E-02
DAV:  10    -0.442292772167E+03    0.16986E-04   -0.75938E-05 27996   0.651E-02    0.179E-02
DAV:  11    -0.442292774271E+03   -0.21041E-05   -0.35308E-05 20904   0.429E-02
  10 F= -.44229277E+03 E0= -.44227680E+03  d E =-.232694E-01  mag=     0.5499
       N       E                     dE             d eps       ncg     rms          rms(c)
DAV:   1    -0.442203329990E+03    0.89442E-01   -0.50753E+00 45576   0.179E+01    0.893E-01
DAV:   2    -0.442312770354E+03   -0.10944E+00   -0.11046E+00 36816   0.260E+00    0.868E-01
DAV:   3    -0.442316781237E+03   -0.40109E-02   -0.90436E-02 36840   0.182E+00    0.890E-01
DAV:   4    -0.442311421318E+03    0.53599E-02   -0.20758E-02 39024   0.937E-01    0.303E-01
DAV:   5    -0.442312272373E+03   -0.85106E-03   -0.64578E-03 43116   0.550E-01    0.410E-01
DAV:   6    -0.442311291454E+03    0.98092E-03   -0.54194E-03 41436   0.489E-01    0.153E-01
DAV:   7    -0.442311395184E+03   -0.10373E-03   -0.32203E-03 41844   0.291E-01    0.181E-01
DAV:   8    -0.442311255101E+03    0.14008E-03   -0.17346E-03 39000   0.176E-01    0.684E-02
DAV:   9    -0.442311251300E+03    0.38009E-05   -0.43318E-04 39156   0.123E-01    0.547E-02
DAV:  10    -0.442311232101E+03    0.19199E-04   -0.11860E-04 29784   0.678E-02    0.214E-02
DAV:  11    -0.442311234747E+03   -0.26455E-05   -0.45699E-05 25692   0.493E-02
  11 F= -.44231123E+03 E0= -.44229531E+03  d E =-.184605E-01  mag=     0.5463
       N       E                     dE             d eps       ncg     rms          rms(c)
DAV:   1    -0.442294878775E+03    0.16353E-01   -0.56593E-01 46824   0.690E+00    0.336E-01
DAV:   2    -0.442310461380E+03   -0.15583E-01   -0.15843E-01 36600   0.956E-01    0.323E-01
DAV:   3    -0.442311117505E+03   -0.65613E-03   -0.13539E-02 36840   0.777E-01    0.346E-01
DAV:   4    -0.442310315402E+03    0.80210E-03   -0.32446E-03 38568   0.375E-01    0.122E-01
DAV:   5    -0.442310429016E+03   -0.11361E-03   -0.15545E-03 44172   0.197E-01    0.169E-01
DAV:   6    -0.442310343952E+03    0.85063E-04   -0.17341E-03 41364   0.166E-01    0.107E-01
DAV:   7    -0.442310290504E+03    0.53448E-04   -0.60180E-04 39636   0.145E-01    0.443E-02
DAV:   8    -0.442310285202E+03    0.53026E-05   -0.10392E-04 33756   0.605E-02    0.247E-02
DAV:   9    -0.442310284168E+03    0.10335E-05   -0.42980E-05 25092   0.484E-02
  12 F= -.44231028E+03 E0= -.44229434E+03  d E =0.950579E-03  mag=     0.5462
       N       E                     dE             d eps       ncg     rms          rms(c)
DAV:   1    -0.442309190550E+03    0.10947E-02   -0.51564E-02 45540   0.181E+00    0.901E-02
DAV:   2    -0.442310313236E+03   -0.11227E-02   -0.11365E-02 36864   0.259E-01    0.893E-02
DAV:   3    -0.442310353944E+03   -0.40708E-04   -0.10147E-03 37548   0.209E-01    0.937E-02
DAV:   4    -0.442310299644E+03    0.54301E-04   -0.29624E-04 32232   0.102E-01    0.375E-02
DAV:   5    -0.442310301557E+03   -0.19132E-05   -0.11701E-04 30360   0.483E-02    0.390E-02
DAV:   6    -0.442310299899E+03    0.16583E-05   -0.87949E-05 26460   0.438E-02
  13 F= -.44231030E+03 E0= -.44229433E+03  d E =-.157304E-04  mag=     0.5478
       N       E                     dE             d eps       ncg     rms          rms(c)
DAV:   1    -0.442307570505E+03    0.27311E-02   -0.25121E-01 45336   0.370E+00    0.180E-01
DAV:   2    -0.442312292610E+03   -0.47221E-02   -0.47858E-02 36216   0.489E-01    0.109E-01
DAV:   3    -0.442312426921E+03   -0.13431E-03   -0.15012E-03 37692   0.241E-01    0.136E-01
DAV:   4    -0.442312323064E+03    0.10386E-03   -0.55020E-04 37464   0.178E-01    0.626E-02
DAV:   5    -0.442312368267E+03   -0.45203E-04   -0.41121E-04 39636   0.110E-01    0.941E-02
DAV:   6    -0.442312320585E+03    0.47682E-04   -0.45009E-04 36816   0.102E-01    0.353E-02
DAV:   7    -0.442312319776E+03    0.80914E-06   -0.10542E-04 25800   0.554E-02    0.272E-02
DAV:   8    -0.442312315996E+03    0.37797E-05   -0.34107E-05 20148   0.369E-02
  14 F= -.44231232E+03 E0= -.44229636E+03  d E =-.201610E-02  mag=     0.5488
       N       E                     dE             d eps       ncg     rms          rms(c)
DAV:   1    -0.442216974152E+03    0.95346E-01   -0.42214E+00 46500   0.172E+01    0.834E-01
DAV:   2    -0.442316639418E+03   -0.99665E-01   -0.10089E+00 36204   0.219E+00    0.492E-01
DAV:   3    -0.442319990112E+03   -0.33507E-02   -0.38563E-02 38196   0.105E+00    0.686E-01
DAV:   4    -0.442317617594E+03    0.23725E-02   -0.20120E-02 39684   0.714E-01    0.308E-01
DAV:   5    -0.442318442311E+03   -0.82472E-03   -0.94005E-03 44220   0.493E-01    0.428E-01
DAV:   6    -0.442317501650E+03    0.94066E-03   -0.63782E-03 41808   0.432E-01    0.129E-01
DAV:   7    -0.442317530538E+03   -0.28888E-04   -0.12378E-03 42492   0.256E-01    0.112E-01
DAV:   8    -0.442317465516E+03    0.65022E-04   -0.49575E-04 39012   0.163E-01    0.393E-02
DAV:   9    -0.442317468978E+03   -0.34626E-05   -0.13448E-04 36984   0.711E-02    0.368E-02
DAV:  10    -0.442317463586E+03    0.53926E-05   -0.66249E-05 26808   0.606E-02
  15 F= -.44231746E+03 E0= -.44230148E+03  d E =-.514759E-02  mag=     0.5495
       N       E                     dE             d eps       ncg     rms          rms(c)
DAV:   1    -0.442108419580E+03    0.20905E+00   -0.75486E+00 47316   0.257E+01    0.122E+00
DAV:   2    -0.442316399562E+03   -0.20798E+00   -0.21098E+00 36192   0.314E+00    0.650E-01
DAV:   3    -0.442320328737E+03   -0.39292E-02   -0.46898E-02 39768   0.107E+00    0.670E-01
DAV:   4    -0.442319002129E+03    0.13266E-02   -0.18360E-02 38244   0.846E-01    0.447E-01
DAV:   5    -0.442320705534E+03   -0.17034E-02   -0.19489E-02 43488   0.638E-01    0.609E-01
DAV:   6    -0.442318713301E+03    0.19922E-02   -0.18661E-02 42648   0.581E-01    0.189E-01
DAV:   7    -0.442318701072E+03    0.12228E-04   -0.29177E-03 41820   0.313E-01    0.151E-01
DAV:   8    -0.442318595943E+03    0.10513E-03   -0.10901E-03 40464   0.219E-01    0.608E-02
DAV:   9    -0.442318582503E+03    0.13440E-04   -0.20391E-04 39036   0.917E-02    0.391E-02
DAV:  10    -0.442318581003E+03    0.14999E-05   -0.92861E-05 28236   0.759E-02
  16 F= -.44231858E+03 E0= -.44230260E+03  d E =-.111742E-02  mag=     0.5449
       N       E                     dE             d eps       ncg     rms          rms(c)
DAV:   1    -0.442272033298E+03    0.46549E-01   -0.11902E+00 49788   0.125E+01    0.584E-01
DAV:   2    -0.442318975183E+03   -0.46942E-01   -0.47959E-01 36684   0.148E+00    0.395E-01
DAV:   3    -0.442321463923E+03   -0.24887E-02   -0.30616E-02 37608   0.898E-01    0.637E-01
DAV:   4    -0.442319288172E+03    0.21758E-02   -0.15982E-02 40140   0.577E-01    0.221E-01
DAV:   5    -0.442319635660E+03   -0.34749E-03   -0.39303E-03 44388   0.352E-01    0.284E-01
DAV:   6    -0.442319349030E+03    0.28663E-03   -0.32205E-03 41196   0.287E-01    0.136E-01
DAV:   7    -0.442319275515E+03    0.73514E-04   -0.86846E-04 41808   0.219E-01    0.712E-02
DAV:   8    -0.442319260030E+03    0.15485E-04   -0.22220E-04 35496   0.997E-02    0.317E-02
DAV:   9    -0.442319259901E+03    0.12979E-06   -0.61575E-05 28320   0.577E-02
  17 F= -.44231926E+03 E0= -.44230323E+03  d E =-.678898E-03  mag=     0.5435
       N       E                     dE             d eps       ncg     rms          rms(c)
DAV:   1    -0.442312365752E+03    0.68943E-02   -0.16049E-01 50352   0.503E+00    0.238E-01
DAV:   2    -0.442320250247E+03   -0.78845E-02   -0.80902E-02 36072   0.588E-01    0.149E-01
DAV:   3    -0.442320543204E+03   -0.29296E-03   -0.38287E-03 37596   0.305E-01    0.217E-01
DAV:   4    -0.442320308406E+03    0.23480E-03   -0.19770E-03 39636   0.216E-01    0.914E-02
DAV:   5    -0.442320377775E+03   -0.69369E-04   -0.68578E-04 38772   0.146E-01    0.125E-01
DAV:   6    -0.442320292861E+03    0.84913E-04   -0.52593E-04 40560   0.129E-01    0.395E-02
DAV:   7    -0.442320294209E+03   -0.13481E-05   -0.11217E-04 36456   0.811E-02    0.327E-02
DAV:   8    -0.442320289068E+03    0.51420E-05   -0.36903E-05 25536   0.469E-02
  18 F= -.44232029E+03 E0= -.44230429E+03  d E =-.102917E-02  mag=     0.5464
