       N       E                     dE             d eps       ncg     rms          ort
DAV:   1     0.799682562145E+04    0.79968E+04   -0.24722E+05  8424   0.244E+03
DAV:   2     0.777830367121E+03   -0.72190E+04   -0.68672E+04  8424   0.667E+02
DAV:   3    -0.671550321401E+03   -0.14494E+04   -0.12512E+04  8424   0.269E+02
DAV:   4    -0.794917739746E+03   -0.12337E+03   -0.12121E+03  8424   0.770E+01
DAV:   5    -0.796600673301E+03   -0.16829E+01   -0.16794E+01  8424   0.101E+01
SDA:   6    -0.671398212676E+03    0.12520E+03   -0.16794E+01  8424   0.250E+02 0.000E+00
CGA:   7    -0.675274814109E+03   -0.38766E+01   -0.38886E+01  8424   0.470E+01 0.154E+00
CGA:   8    -0.676048256630E+03   -0.77344E+00   -0.77409E+00  8424   0.766E+00 0.222E-01
CGA:   9    -0.676237474578E+03   -0.18922E+00   -0.18893E+00  8424   0.443E+00 0.539E-02
CGA:  10    -0.676319279051E+03   -0.81804E-01   -0.81803E-01  8424   0.147E+00-0.517E-03
CGA:  11    -0.676363509300E+03   -0.44230E-01   -0.45014E-01  8424   0.612E-01-0.740E-02
CGA:  12    -0.676377421760E+03   -0.13912E-01   -0.13914E-01  8424   0.248E-01-0.106E-03
CGA:  13    -0.676383591301E+03   -0.61695E-02   -0.60344E-02  8424   0.648E-02 0.347E-02
CGA:  14    -0.676385089605E+03   -0.14983E-02   -0.15024E-02  8424   0.158E-02 0.118E-02
CGA:  15    -0.676385474559E+03   -0.38495E-03   -0.38504E-03  8424   0.508E-03 0.235E-03
CGA:  16    -0.676385587315E+03   -0.11276E-03   -0.11321E-03  8424   0.163E-03 0.354E-04
CGA:  17    -0.676385632890E+03   -0.45575E-04   -0.64768E-04  8424   0.248E-03-0.116E-03
CGA:  18    -0.676385672244E+03   -0.39354E-04   -0.34977E-04  8424   0.865E-04-0.588E-04
CGA:  19    -0.676385259919E+03    0.41233E-03   -0.21970E-03  8424   0.416E-02-0.436E-03
CGA:  20    -0.676385673655E+03   -0.41374E-03   -0.41053E-03  8424   0.468E-03-0.179E-04
CGA:  21    -0.676385792685E+03   -0.11903E-03   -0.11229E-03  8424   0.515E-04-0.526E-04
CGA:  22    -0.676385830916E+03   -0.38231E-04    0.55638E-04  8424   0.861E-04-0.298E-04
CGA:  23    -0.676385832819E+03   -0.19029E-05   -0.63667E-05  8424   0.601E-05 0.153E-04
   1 F= -.67638583E+03 E0= -.67638009E+03  d E =-.676386E+03  mag=     0.9180
