       N       E                     dE             d eps       ncg     rms          rms(c)
DAV:   1     0.345110445774E+04    0.34511E+04   -0.18820E+05 10368   0.128E+03
DAV:   2    -0.362924413163E+02   -0.34874E+04   -0.33479E+04 13140   0.228E+02
DAV:   3    -0.517009430456E+03   -0.48072E+03   -0.47599E+03 12792   0.929E+01
DAV:   4    -0.540389858542E+03   -0.23380E+02   -0.23202E+02 13236   0.229E+01
DAV:   5    -0.541580951949E+03   -0.11911E+01   -0.11892E+01 15120   0.502E+00    0.622E+01
DAV:   6    -0.523626090875E+03    0.17955E+02   -0.36974E+01 11700   0.698E+00    0.421E+01
DAV:   7    -0.522413377501E+03    0.12127E+01   -0.25022E+01 12720   0.566E+00    0.821E+00
DAV:   8    -0.521919348243E+03    0.49403E+00   -0.31936E+00 11904   0.235E+00    0.565E+00
DAV:   9    -0.521962884276E+03   -0.43536E-01   -0.32363E-01 13620   0.842E-01    0.170E+00
DAV:  10    -0.521965325230E+03   -0.24410E-02   -0.30296E-02 13068   0.264E-01    0.107E+00
DAV:  11    -0.521969247160E+03   -0.39219E-02   -0.44862E-03 12192   0.108E-01    0.692E-01
DAV:  12    -0.521972778998E+03   -0.35318E-02   -0.39711E-03 11280   0.103E-01    0.145E-01
DAV:  13    -0.521973273071E+03   -0.49407E-03   -0.77608E-04 14616   0.395E-02    0.159E-01
DAV:  14    -0.521973327424E+03   -0.54353E-04   -0.86383E-05 13224   0.130E-02    0.107E-01
DAV:  15    -0.521973404352E+03   -0.76928E-04   -0.61934E-05 10368   0.121E-02    0.495E-02
DAV:  16    -0.521973421162E+03   -0.16810E-04   -0.22557E-05  9204   0.698E-03    0.123E-02
DAV:  17    -0.521973425464E+03   -0.43013E-05   -0.63096E-06  6372   0.390E-03
   1 F= -.52197343E+03 E0= -.52197343E+03  d E =-.521973E+03  mag=     0.0055
       N       E                     dE             d eps       ncg     rms          rms(c)
DAV:   1    -0.521974980860E+03   -0.15597E-02   -0.37360E-03 10848   0.828E-02    0.693E-02
DAV:   2    -0.521975008009E+03   -0.27149E-04   -0.34671E-04 14460   0.271E-02    0.212E-02
DAV:   3    -0.521975005362E+03    0.26462E-05   -0.12074E-05  7596   0.606E-03    0.130E-02
DAV:   4    -0.521975004468E+03    0.89394E-06   -0.53415E-06  5940   0.393E-03
   2 F= -.52197500E+03 E0= -.52197500E+03  d E =-.157900E-02  mag=     0.0009
       N       E                     dE             d eps       ncg     rms          rms(c)
DAV:   1    -0.521983795390E+03   -0.87900E-02   -0.32252E-01 10584   0.764E-01    0.617E-01
DAV:   2    -0.521986124874E+03   -0.23295E-02   -0.29292E-02 14268   0.247E-01    0.188E-01
DAV:   3    -0.521985941596E+03    0.18328E-03   -0.12073E-03 13632   0.554E-02    0.121E-01
DAV:   4    -0.521985877185E+03    0.64412E-04   -0.21752E-04 13548   0.219E-02    0.556E-02
DAV:   5    -0.521985857474E+03    0.19711E-04   -0.40024E-05 11928   0.121E-02    0.293E-02
DAV:   6    -0.521985856191E+03    0.12829E-05   -0.23268E-05 10056   0.895E-03
   3 F= -.52198586E+03 E0= -.52198586E+03  d E =-.108517E-01  mag=     0.0001
       N       E                     dE             d eps       ncg     rms          rms(c)
DAV:   1    -0.521991007158E+03   -0.51497E-02   -0.11971E+00 10464   0.136E+00    0.693E-01
DAV:   2    -0.521999027991E+03   -0.80208E-02   -0.92998E-02 14172   0.429E-01    0.298E-01
DAV:   3    -0.521998639261E+03    0.38873E-03   -0.21069E-03 13008   0.743E-02    0.235E-01
DAV:   4    -0.521998455027E+03    0.18423E-03   -0.50540E-04 12564   0.308E-02    0.135E-01
DAV:   5    -0.521998404138E+03    0.50889E-04   -0.18700E-04 12888   0.205E-02    0.495E-02
DAV:   6    -0.521998407749E+03   -0.36106E-05   -0.79680E-05 13812   0.128E-02
   4 F= -.52199841E+03 E0= -.52199841E+03  d E =-.125516E-01  mag=     0.0000
       N       E                     dE             d eps       ncg     rms          rms(c)
DAV:   1    -0.521998251494E+03    0.15264E-03   -0.13095E+00 10392   0.144E+00    0.756E-01
DAV:   2    -0.522007807945E+03   -0.95565E-02   -0.10647E-01 14040   0.465E-01    0.294E-01
DAV:   3    -0.522007317174E+03    0.49077E-03   -0.21029E-03 12516   0.759E-02    0.240E-01
DAV:   4    -0.522007110070E+03    0.20710E-03   -0.64662E-04 12516   0.342E-02    0.139E-01
DAV:   5    -0.522007071282E+03    0.38788E-04   -0.21826E-04 13308   0.207E-02    0.451E-02
DAV:   6    -0.522007076143E+03   -0.48613E-05   -0.52324E-05 12672   0.976E-03
   5 F= -.52200708E+03 E0= -.52200708E+03  d E =-.866839E-02  mag=     0.0000
       N       E                     dE             d eps       ncg     rms          rms(c)
DAV:   1    -0.521991598289E+03    0.15473E-01   -0.28976E+00 10368   0.222E+00    0.129E+00
DAV:   2    -0.522013719765E+03   -0.22121E-01   -0.25192E-01 14664   0.728E-01    0.494E-01
DAV:   3    -0.522012462508E+03    0.12573E-02   -0.49045E-03 12696   0.116E-01    0.402E-01
DAV:   4    -0.522012037416E+03    0.42509E-03   -0.14279E-03 13272   0.516E-02    0.222E-01
DAV:   5    -0.522011911265E+03    0.12615E-03   -0.35643E-04 12672   0.301E-02    0.749E-02
DAV:   6    -0.522011918984E+03   -0.77189E-05   -0.20677E-04 13944   0.208E-02    0.537E-02
DAV:   7    -0.522011917311E+03    0.16735E-05   -0.34772E-05  9636   0.874E-03
   6 F= -.52201192E+03 E0= -.52201192E+03  d E =-.484117E-02  mag=     0.0000
       N       E                     dE             d eps       ncg     rms          rms(c)
DAV:   1    -0.521929651986E+03    0.82267E-01   -0.90839E+00 10368   0.401E+00    0.269E+00
DAV:   2    -0.522002017315E+03   -0.72365E-01   -0.83139E-01 14880   0.134E+00    0.921E-01
DAV:   3    -0.521997564726E+03    0.44526E-02   -0.19126E-02 12732   0.229E-01    0.719E-01
DAV:   4    -0.521996011760E+03    0.15530E-02   -0.54302E-03 13308   0.105E-01    0.351E-01
DAV:   5    -0.521995682926E+03    0.32883E-03   -0.12148E-03 12840   0.627E-02    0.132E-01
DAV:   6    -0.521995739744E+03   -0.56818E-04   -0.66994E-04 14076   0.383E-02    0.145E-01
DAV:   7    -0.521995723874E+03    0.15870E-04   -0.92803E-05 11880   0.138E-02    0.116E-01
DAV:   8    -0.521995704793E+03    0.19081E-04   -0.23607E-05  7980   0.759E-03    0.666E-02
DAV:   9    -0.521995693534E+03    0.11259E-04   -0.54938E-05 11556   0.109E-02    0.177E-02
DAV:  10    -0.521995694380E+03   -0.84572E-06   -0.10555E-05  6192   0.544E-03
   7 F= -.52199569E+03 E0= -.52199569E+03  d E =0.162229E-01  mag=     0.0000
       N       E                     dE             d eps       ncg     rms          rms(c)
DAV:   1    -0.521989765363E+03    0.59282E-02   -0.38561E+00 10368   0.262E+00    0.173E+00
DAV:   2    -0.522020254242E+03   -0.30489E-01   -0.35041E-01 14640   0.873E-01    0.609E-01
DAV:   3    -0.522018292827E+03    0.19614E-02   -0.93269E-03 12900   0.161E-01    0.451E-01
DAV:   4    -0.522017535331E+03    0.75750E-03   -0.25514E-03 13248   0.740E-02    0.213E-01
DAV:   5    -0.522017391932E+03    0.14340E-03   -0.57202E-04 13104   0.449E-02    0.939E-02
DAV:   6    -0.522017416662E+03   -0.24729E-04   -0.31012E-04 13968   0.271E-02    0.101E-01
DAV:   7    -0.522017409449E+03    0.72128E-05   -0.43983E-05 11088   0.939E-03
   8 F= -.52201741E+03 E0= -.52201741E+03  d E =-.217151E-01  mag=     0.0000
       N       E                     dE             d eps       ncg     rms          rms(c)
DAV:   1    -0.522017546416E+03   -0.12975E-03   -0.14961E-01 10440   0.498E-01    0.340E-01
DAV:   2    -0.522018724249E+03   -0.11778E-02   -0.13393E-02 14808   0.167E-01    0.116E-01
DAV:   3    -0.522018647199E+03    0.77049E-04   -0.34089E-04 12768   0.292E-02    0.861E-02
DAV:   4    -0.522018625800E+03    0.21399E-04   -0.99563E-05 12792   0.137E-02    0.414E-02
DAV:   5    -0.522018622931E+03    0.28688E-05   -0.16928E-05  8136   0.678E-03
   9 F= -.52201862E+03 E0= -.52201862E+03  d E =-.121348E-02  mag=     0.0000
       N       E                     dE             d eps       ncg     rms          rms(c)
DAV:   1    -0.522016686456E+03    0.19393E-02   -0.50683E-01 10368   0.886E-01    0.479E-01
DAV:   2    -0.522020426275E+03   -0.37398E-02   -0.42495E-02 14640   0.292E-01    0.187E-01
DAV:   3    -0.522020238699E+03    0.18758E-03   -0.72289E-04 12480   0.432E-02    0.158E-01
DAV:   4    -0.522020175606E+03    0.63093E-04   -0.19863E-04 12960   0.188E-02    0.902E-02
DAV:   5    -0.522020155352E+03    0.20254E-04   -0.71492E-05 11508   0.125E-02    0.255E-02
DAV:   6    -0.522020157238E+03   -0.18863E-05   -0.26432E-05  9348   0.737E-03
  10 F= -.52202016E+03 E0= -.52202016E+03  d E =-.153431E-02  mag=     0.0000
