       N       E                     dE             d eps       ncg     rms          rms(c)
DAV:   1     0.844398472514E+04    0.84440E+04   -0.36699E+05 27024   0.176E+03
DAV:   2    -0.846357439611E+02   -0.85286E+04   -0.78394E+04 26192   0.479E+02
DAV:   3    -0.134229240791E+04   -0.12577E+04   -0.12261E+04 27648   0.205E+02
DAV:   4    -0.140836175515E+04   -0.66069E+02   -0.62455E+02 31080   0.466E+01
DAV:   5    -0.141071007833E+04   -0.23483E+01   -0.22897E+01 31360   0.725E+00    0.117E+02
DAV:   6    -0.109518848575E+04    0.31552E+03   -0.71993E+02 33528   0.669E+01    0.118E+02
DAV:   7    -0.111919740546E+04   -0.24009E+02   -0.12947E+02 30456   0.368E+01    0.677E+01
DAV:   8    -0.111948734392E+04   -0.28994E+00   -0.49293E+01 30864   0.343E+01    0.453E+01
DAV:   9    -0.112512068077E+04   -0.56333E+01   -0.21178E+01 30176   0.159E+01    0.261E+01
DAV:  10    -0.112482113419E+04    0.29955E+00   -0.92755E+00 30848   0.148E+01    0.140E+01
DAV:  11    -0.112618043397E+04   -0.13593E+01   -0.25735E+00 30912   0.735E+00    0.787E+00
DAV:  12    -0.112637619701E+04   -0.19576E+00   -0.68613E-01 30016   0.243E+00    0.388E+00
DAV:  13    -0.112645710273E+04   -0.80906E-01   -0.17144E-01 30264   0.150E+00    0.198E+00
DAV:  14    -0.112651276516E+04   -0.55662E-01   -0.72880E-02 30928   0.756E-01    0.128E+00
DAV:  15    -0.112655481377E+04   -0.42049E-01   -0.19205E-02 31816   0.660E-01    0.967E-01
DAV:  16    -0.112658488313E+04   -0.30069E-01   -0.13712E-02 32280   0.466E-01    0.767E-01
DAV:  17    -0.112660431814E+04   -0.19435E-01   -0.92916E-03 31008   0.341E-01    0.758E-01
DAV:  18    -0.112663198625E+04   -0.27668E-01   -0.56761E-03 36112   0.402E-01    0.719E-01
DAV:  19    -0.112665814515E+04   -0.26159E-01   -0.98133E-03 33504   0.370E-01    0.711E-01
DAV:  20    -0.112667901998E+04   -0.20875E-01   -0.61617E-03 34144   0.284E-01    0.708E-01
DAV:  21    -0.112671136670E+04   -0.32347E-01   -0.78766E-03 33848   0.449E-01    0.712E-01
DAV:  22    -0.112671235415E+04   -0.98745E-03   -0.54417E-03 27352   0.148E-01    0.706E-01
DAV:  23    -0.112671567157E+04   -0.33174E-02   -0.13441E-04 29992   0.513E-02    0.711E-01
DAV:  24    -0.112671332570E+04    0.23459E-02   -0.85369E-05 25376   0.462E-02    0.707E-01
DAV:  25    -0.112659271807E+04    0.12061E+00   -0.13725E-01 34168   0.194E+00    0.143E+00
DAV:  26    -0.112648863668E+04    0.10408E+00   -0.21618E-01 34208   0.177E+00    0.243E+00
DAV:  27    -0.112656261391E+04   -0.73977E-01   -0.95085E-02 27968   0.132E+00    0.233E+00
DAV:  28    -0.112658096119E+04   -0.18347E-01   -0.12709E-02 33424   0.327E-01    0.232E+00
DAV:  29    -0.112658447337E+04   -0.35122E-02   -0.23436E-03 28440   0.903E-02    0.234E+00
DAV:  30    -0.112659713600E+04   -0.12663E-01   -0.17563E-03 34952   0.237E-01    0.228E+00
DAV:  31    -0.112664472743E+04   -0.47591E-01   -0.29127E-02 32584   0.865E-01    0.204E+00
DAV:  32    -0.112676438317E+04   -0.11966E+00   -0.22062E-01 32928   0.231E+00    0.173E+00
DAV:  33    -0.112680184456E+04   -0.37461E-01   -0.10853E-01 28872   0.604E-01    0.162E+00
DAV:  34    -0.112682254589E+04   -0.20701E-01   -0.35202E-03 32728   0.223E-01    0.159E+00
DAV:  35    -0.112685451980E+04   -0.31974E-01   -0.80088E-03 35272   0.387E-01    0.149E+00
DAV:  36    -0.112688502338E+04   -0.30504E-01   -0.13496E-02 33696   0.446E-01    0.145E+00
DAV:  37    -0.112688716112E+04   -0.21377E-02   -0.60058E-03 27208   0.147E-01    0.145E+00
DAV:  38    -0.112688735769E+04   -0.19657E-03   -0.12754E-04 27408   0.263E-02    0.143E+00
DAV:  39    -0.112688886352E+04   -0.15058E-02   -0.20804E-03 35488   0.186E-01    0.125E+00
DAV:  40    -0.112689651917E+04   -0.76557E-02   -0.67375E-03 33520   0.364E-01    0.103E+00
DAV:  41    -0.112692321367E+04   -0.26695E-01   -0.80129E-03 32648   0.395E-01    0.110E+00
DAV:  42    -0.112692637096E+04   -0.31573E-02   -0.38187E-03 29360   0.127E-01    0.109E+00
DAV:  43    -0.112688613541E+04    0.40236E-01   -0.16234E-02 30840   0.636E-01    0.102E+00
DAV:  44    -0.112685165136E+04    0.34484E-01   -0.23892E-02 34200   0.590E-01    0.965E-01
DAV:  45    -0.112686563403E+04   -0.13983E-01   -0.83429E-03 26400   0.331E-01    0.986E-01
DAV:  46    -0.112686598088E+04   -0.34685E-03   -0.42037E-04 29832   0.374E-02    0.985E-01
DAV:  47    -0.112685858761E+04    0.73933E-02   -0.15563E-03 32536   0.200E-01    0.101E+00
DAV:  48    -0.112682094256E+04    0.37645E-01   -0.17219E-02 31672   0.654E-01    0.103E+00
DAV:  49    -0.112685767841E+04   -0.36736E-01   -0.14904E-02 30552   0.678E-01    0.103E+00
DAV:  50    -0.112691730180E+04   -0.59623E-01   -0.42387E-02 33936   0.981E-01    0.115E+00
DAV:  51    -0.112700757833E+04   -0.90277E-01   -0.11345E-01 33632   0.150E+00    0.155E+00
DAV:  52    -0.112702143036E+04   -0.13852E-01   -0.48604E-02 27784   0.399E-01    0.152E+00
DAV:  53    -0.112703180140E+04   -0.10371E-01   -0.10767E-03 37200   0.136E-01    0.156E+00
DAV:  54    -0.112705185640E+04   -0.20055E-01   -0.42845E-03 34248   0.275E-01    0.168E+00
DAV:  55    -0.112705152868E+04    0.32772E-03   -0.19674E-03 27112   0.875E-02    0.166E+00
DAV:  56    -0.112706413034E+04   -0.12602E-01   -0.37698E-03 35032   0.301E-01    0.188E+00
DAV:  57    -0.112705354639E+04    0.10584E-01   -0.24876E-03 32352   0.209E-01    0.183E+00
DAV:  58    -0.112698552885E+04    0.68018E-01   -0.45471E-02 33200   0.108E+00    0.163E+00
DAV:  59    -0.112699928303E+04   -0.13754E-01   -0.17733E-02 27280   0.353E-01    0.184E+00
DAV:  60    -0.112699669364E+04    0.25894E-02   -0.15625E-03 29776   0.950E-02    0.182E+00
DAV:  61    -0.112702504519E+04   -0.28352E-01   -0.56821E-03 32048   0.382E-01    0.190E+00
DAV:  62    -0.112702421629E+04    0.82890E-03   -0.16392E-03 27232   0.817E-02    0.188E+00
DAV:  63    -0.112702203338E+04    0.21829E-02   -0.47812E-05 22544   0.335E-02    0.188E+00
DAV:  64    -0.112702343170E+04   -0.13983E-02   -0.25085E-03 36928   0.253E-01    0.191E+00
DAV:  65    -0.112701277686E+04    0.10655E-01   -0.96687E-03 36712   0.443E-01    0.194E+00
DAV:  66    -0.112679505508E+04    0.21772E+00   -0.32327E-01 32672   0.293E+00    0.133E+00
DAV:  67    -0.112683067416E+04   -0.35619E-01   -0.11890E-01 26032   0.689E-01    0.133E+00
DAV:  68    -0.112683549177E+04   -0.48176E-02   -0.20519E-03 31184   0.104E-01    0.132E+00
DAV:  69    -0.112683426218E+04    0.12296E-02   -0.24215E-04 27624   0.491E-02    0.131E+00
DAV:  70    -0.112683363111E+04    0.63107E-03   -0.21050E-05 20104   0.143E-02    0.131E+00
DAV:  71    -0.112664181635E+04    0.19181E+00   -0.12355E-01 32664   0.185E+00    0.146E+00
DAV:  72    -0.112668993900E+04   -0.48123E-01   -0.41869E-02 26960   0.682E-01    0.104E+00
DAV:  73    -0.112670248918E+04   -0.12550E-01   -0.28802E-02 36392   0.715E-01    0.809E-01
DAV:  74    -0.112669395380E+04    0.85354E-02   -0.24137E-02 35400   0.497E-01    0.801E-01
DAV:  75    -0.112668857155E+04    0.53822E-02   -0.61441E-03 29120   0.166E-01    0.837E-01
DAV:  76    -0.112670488188E+04   -0.16310E-01   -0.22688E-03 33352   0.227E-01    0.832E-01
DAV:  77    -0.112671381102E+04   -0.89291E-02   -0.21372E-03 34968   0.164E-01    0.924E-01
DAV:  78    -0.112671121341E+04    0.25976E-02   -0.20249E-03 33512   0.204E-01    0.104E+00
DAV:  79    -0.112670954301E+04    0.16704E-02   -0.24524E-03 34608   0.176E-01    0.111E+00
DAV:  80    -0.112671387049E+04   -0.43275E-02   -0.11799E-03 31288   0.118E-01    0.115E+00
DAV:  81    -0.112669666847E+04    0.17202E-01   -0.80070E-03 33240   0.443E-01    0.150E+00
DAV:  82    -0.112669682333E+04   -0.15486E-03   -0.33848E-03 26800   0.121E-01    0.149E+00
DAV:  83    -0.112669892084E+04   -0.20975E-02   -0.11471E-04 28056   0.331E-02    0.148E+00
DAV:  84    -0.112669902202E+04   -0.10118E-03   -0.26030E-05 18448   0.107E-02    0.148E+00
DAV:  85    -0.112669902979E+04   -0.77667E-05   -0.96309E-06 15504   0.152E-02
   1 F= -.11266990E+04 E0= -.11266990E+04  d E =-.112670E+04  mag=    65.0052
       N       E                     dE             d eps       ncg     rms          rms(c)
DAV:   1    -0.112670679722E+04   -0.77752E-02   -0.13420E-02 30472   0.400E-01    0.148E+00
DAV:   2    -0.112675406236E+04   -0.47265E-01   -0.28597E-02 29704   0.597E-01    0.921E-01
DAV:   3    -0.112676246924E+04   -0.84069E-02   -0.11472E-02 30520   0.302E-01    0.691E-01
DAV:   4    -0.112678035519E+04   -0.17886E-01   -0.29996E-03 33792   0.246E-01    0.657E-01
DAV:   5    -0.112679710271E+04   -0.16748E-01   -0.40196E-03 32304   0.230E-01    0.650E-01
DAV:   6    -0.112681339880E+04   -0.16296E-01   -0.27225E-03 34056   0.223E-01    0.643E-01
DAV:   7    -0.112689632878E+04   -0.82930E-01   -0.50591E-02 32576   0.118E+00    0.667E-01
DAV:   8    -0.112692002477E+04   -0.23696E-01   -0.33364E-02 30440   0.397E-01    0.664E-01
DAV:   9    -0.112688591248E+04    0.34112E-01   -0.16497E-02 29712   0.595E-01    0.674E-01
DAV:  10    -0.112684100190E+04    0.44911E-01   -0.34036E-02 33760   0.821E-01    0.701E-01
DAV:  11    -0.112679888819E+04    0.42114E-01   -0.34028E-02 33784   0.685E-01    0.706E-01
DAV:  12    -0.112681356849E+04   -0.14680E-01   -0.12590E-02 26232   0.389E-01    0.696E-01
DAV:  13    -0.112682270501E+04   -0.91365E-02   -0.26842E-03 34184   0.230E-01    0.711E-01
DAV:  14    -0.112684919361E+04   -0.26489E-01   -0.96777E-03 33800   0.480E-01    0.754E-01
DAV:  15    -0.112684558348E+04    0.36101E-02   -0.35309E-03 26720   0.156E-01    0.760E-01
DAV:  16    -0.112684616098E+04   -0.57750E-03   -0.17713E-04 30016   0.410E-02    0.763E-01
DAV:  17    -0.112684629580E+04   -0.13482E-03   -0.36514E-05 22256   0.239E-02    0.760E-01
DAV:  18    -0.112684555512E+04    0.74068E-03   -0.90462E-04 33656   0.142E-01    0.737E-01
DAV:  19    -0.112685005577E+04   -0.45007E-02   -0.55560E-03 34568   0.333E-01    0.718E-01
DAV:  20    -0.112685025178E+04   -0.19601E-03   -0.21853E-03 27712   0.871E-02    0.723E-01
DAV:  21    -0.112685787348E+04   -0.76217E-02   -0.87102E-04 31752   0.142E-01    0.746E-01
DAV:  22    -0.112685593944E+04    0.19340E-02   -0.11109E-02 35952   0.487E-01    0.873E-01
DAV:  23    -0.112682351294E+04    0.32426E-01   -0.31335E-02 34440   0.817E-01    0.110E+00
DAV:  24    -0.112686941451E+04   -0.45902E-01   -0.31674E-02 30496   0.880E-01    0.120E+00
DAV:  25    -0.112694459119E+04   -0.75177E-01   -0.79523E-02 33448   0.132E+00    0.118E+00
DAV:  26    -0.112697090213E+04   -0.26311E-01   -0.40647E-02 31648   0.442E-01    0.118E+00
DAV:  27    -0.112695104692E+04    0.19855E-01   -0.10869E-02 28536   0.440E-01    0.120E+00
DAV:  28    -0.112693279873E+04    0.18248E-01   -0.70054E-03 34264   0.329E-01    0.123E+00
DAV:  29    -0.112691303036E+04    0.19768E-01   -0.70368E-03 33616   0.335E-01    0.126E+00
DAV:  30    -0.112694404944E+04   -0.31019E-01   -0.16109E-02 30992   0.663E-01    0.121E+00
DAV:  31    -0.112702180026E+04   -0.77751E-01   -0.85314E-02 33352   0.139E+00    0.128E+00
DAV:  32    -0.112710005051E+04   -0.78250E-01   -0.11436E-01 34856   0.127E+00    0.141E+00
DAV:  33    -0.112713964584E+04   -0.39595E-01   -0.56528E-02 34672   0.670E-01    0.149E+00
DAV:  34    -0.112715796316E+04   -0.18317E-01   -0.15961E-02 34568   0.498E-01    0.163E+00
DAV:  35    -0.112706673935E+04    0.91224E-01   -0.14220E-01 31112   0.187E+00    0.119E+00
DAV:  36    -0.112706014487E+04    0.65945E-02   -0.47018E-02 28328   0.425E-01    0.107E+00
DAV:  37    -0.112702850044E+04    0.31644E-01   -0.88143E-03 36432   0.395E-01    0.106E+00
DAV:  38    -0.112708665024E+04   -0.58150E-01   -0.29263E-02 31632   0.832E-01    0.111E+00
DAV:  39    -0.112710235521E+04   -0.15705E-01   -0.11000E-02 31648   0.229E-01    0.114E+00
DAV:  40    -0.112708973870E+04    0.12617E-01   -0.35035E-03 28912   0.248E-01    0.113E+00
DAV:  41    -0.112706153146E+04    0.28207E-01   -0.69722E-03 32760   0.381E-01    0.111E+00
DAV:  42    -0.112700479752E+04    0.56734E-01   -0.32241E-02 31928   0.840E-01    0.112E+00
DAV:  43    -0.112698055265E+04    0.24245E-01   -0.26344E-02 34448   0.434E-01    0.118E+00
DAV:  44    -0.112697525535E+04    0.52973E-02   -0.52789E-03 27856   0.141E-01    0.123E+00
DAV:  45    -0.112697858755E+04   -0.33322E-02   -0.65218E-04 27624   0.765E-02    0.125E+00
DAV:  46    -0.112698177111E+04   -0.31836E-02   -0.26905E-04 31400   0.688E-02    0.122E+00
DAV:  47    -0.112693400504E+04    0.47766E-01   -0.99008E-02 34264   0.155E+00    0.185E+00
DAV:  48    -0.112698893989E+04   -0.54935E-01   -0.50575E-02 30752   0.879E-01    0.210E+00
DAV:  49    -0.112699704052E+04   -0.81006E-02   -0.10111E-02 32008   0.282E-01    0.227E+00
DAV:  50    -0.112699399655E+04    0.30440E-02   -0.18787E-03 27856   0.146E-01    0.225E+00
DAV:  51    -0.112699936235E+04   -0.53658E-02   -0.46138E-03 33232   0.332E-01    0.218E+00
DAV:  52    -0.112700000584E+04   -0.64349E-03   -0.71368E-03 33480   0.401E-01    0.242E+00
DAV:  53    -0.112703071525E+04   -0.30709E-01   -0.21531E-02 31696   0.762E-01    0.226E+00
DAV:  54    -0.112702669755E+04    0.40177E-02   -0.62935E-03 28448   0.362E-01    0.232E+00
DAV:  55    -0.112702728440E+04   -0.58685E-03   -0.53684E-04 28376   0.425E-02    0.234E+00
DAV:  56    -0.112702770305E+04   -0.41865E-03   -0.15877E-05 20920   0.148E-02    0.233E+00
DAV:  57    -0.112699943794E+04    0.28265E-01   -0.47316E-02 32696   0.110E+00    0.263E+00
DAV:  58    -0.112700939130E+04   -0.99534E-02   -0.12689E-02 29184   0.431E-01    0.252E+00
DAV:  59    -0.112700224540E+04    0.71459E-02   -0.20573E-03 31608   0.191E-01    0.259E+00
DAV:  60    -0.112700100256E+04    0.12428E-02   -0.12681E-03 33384   0.827E-02    0.265E+00
DAV:  61    -0.112700182739E+04   -0.82483E-03   -0.24004E-04 31608   0.399E-02    0.269E+00
DAV:  62    -0.112704721712E+04   -0.45390E-01   -0.87793E-01 35088   0.452E+00    0.162E+00
DAV:  63    -0.112709384815E+04   -0.46631E-01   -0.32811E-01 27536   0.100E+00    0.161E+00
DAV:  64    -0.112710054027E+04   -0.66921E-02   -0.91417E-03 30296   0.214E-01    0.163E+00
DAV:  65    -0.112710015349E+04    0.38678E-03   -0.95395E-04 32072   0.606E-02    0.164E+00
DAV:  66    -0.112709961367E+04    0.53982E-03   -0.14576E-04 28128   0.478E-02    0.163E+00
DAV:  67    -0.112710755823E+04   -0.79446E-02   -0.76603E-03 32336   0.458E-01    0.161E+00
DAV:  68    -0.112711661122E+04   -0.90530E-02   -0.12039E-02 33600   0.438E-01    0.175E+00
DAV:  69    -0.112712461660E+04   -0.80054E-02   -0.11391E-02 34400   0.405E-01    0.189E+00
DAV:  70    -0.112715784256E+04   -0.33226E-01   -0.15016E-02 32480   0.518E-01    0.190E+00
DAV:  71    -0.112721686069E+04   -0.59018E-01   -0.14368E-02 30808   0.408E-01    0.154E+00
DAV:  72    -0.112715016753E+04    0.66693E-01   -0.26746E-02 30976   0.746E-01    0.154E+00
DAV:  73    -0.112712180030E+04    0.28367E-01   -0.34789E-02 34160   0.717E-01    0.129E+00
DAV:  74    -0.112711003284E+04    0.11767E-01   -0.13549E-02 30536   0.251E-01    0.126E+00
DAV:  75    -0.112710004804E+04    0.99848E-02   -0.11894E-03 30608   0.137E-01    0.126E+00
DAV:  76    -0.112710406886E+04   -0.40208E-02   -0.11117E-03 26432   0.112E-01    0.126E+00
DAV:  77    -0.112709284995E+04    0.11219E-01   -0.25140E-03 34784   0.251E-01    0.118E+00
DAV:  78    -0.112709430205E+04   -0.14521E-02   -0.25501E-03 34240   0.152E-01    0.114E+00
DAV:  79    -0.112709738550E+04   -0.30835E-02   -0.13426E-03 30616   0.169E-01    0.119E+00
DAV:  80    -0.112709367048E+04    0.37150E-02   -0.13369E-03 35576   0.148E-01    0.118E+00
DAV:  81    -0.112709371139E+04   -0.40904E-04   -0.33974E-04 27720   0.378E-02    0.118E+00
DAV:  82    -0.112711882061E+04   -0.25109E-01   -0.32143E-02 31904   0.911E-01    0.151E+00
DAV:  83    -0.112712237868E+04   -0.35581E-02   -0.11714E-02 27552   0.188E-01    0.150E+00
DAV:  84    -0.112712526725E+04   -0.28886E-02   -0.97145E-04 34048   0.130E-01    0.152E+00
DAV:  85    -0.112710168211E+04    0.23585E-01   -0.18483E-02 35728   0.579E-01    0.157E+00
DAV:  86    -0.112708240398E+04    0.19278E-01   -0.24633E-02 35704   0.456E-01    0.179E+00
DAV:  87    -0.112703318880E+04    0.49215E-01   -0.42896E-02 31448   0.102E+00    0.174E+00
DAV:  88    -0.112702538146E+04    0.78073E-02   -0.22825E-02 27728   0.275E-01    0.172E+00
DAV:  89    -0.112702374452E+04    0.16369E-02   -0.11973E-03 28768   0.655E-02    0.171E+00
DAV:  90    -0.112703250447E+04   -0.87599E-02   -0.98983E-04 29568   0.146E-01    0.168E+00
DAV:  91    -0.112703699899E+04   -0.44945E-02   -0.63711E-04 32920   0.714E-02    0.168E+00
DAV:  92    -0.112701537627E+04    0.21623E-01   -0.67233E-02 33360   0.125E+00    0.198E+00
DAV:  93    -0.112702905884E+04   -0.13683E-01   -0.34207E-02 30752   0.442E-01    0.210E+00
DAV:  94    -0.112705251471E+04   -0.23456E-01   -0.12699E-02 36224   0.388E-01    0.238E+00
DAV:  95    -0.112707689103E+04   -0.24376E-01   -0.11175E-02 35744   0.406E-01    0.248E+00
DAV:  96    -0.112710000275E+04   -0.23112E-01   -0.78243E-03 34536   0.300E-01    0.248E+00
DAV:  97    -0.112705064053E+04    0.49362E-01   -0.72794E-02 31536   0.140E+00    0.223E+00
DAV:  98    -0.112705357736E+04   -0.29368E-02   -0.21049E-02 26488   0.266E-01    0.217E+00
DAV:  99    -0.112705500000E+04   -0.14226E-02   -0.34727E-04 31816   0.586E-02    0.219E+00
DAV: 100    -0.112705530847E+04   -0.30847E-03   -0.67826E-05 27240   0.165E-02    0.220E+00
DAV: 101    -0.112705284013E+04    0.24683E-02   -0.36249E-04 32880   0.822E-02    0.216E+00
DAV: 102    -0.112702147546E+04    0.31365E-01   -0.96570E-03 37328   0.378E-01    0.184E+00
DAV: 103    -0.112702304585E+04   -0.15704E-02   -0.42260E-03 30152   0.159E-01    0.180E+00
DAV: 104    -0.112702286078E+04    0.18506E-03   -0.28835E-04 28680   0.412E-02    0.180E+00
DAV: 105    -0.112702149480E+04    0.13660E-02   -0.28585E-04 33728   0.748E-02    0.176E+00
DAV: 106    -0.112701959902E+04    0.18958E-02   -0.79162E-04 35472   0.109E-01    0.176E+00
DAV: 107    -0.112708145924E+04   -0.61860E-01   -0.11264E-01 35376   0.157E+00    0.970E-01
DAV: 108    -0.112709599538E+04   -0.14536E-01   -0.44990E-02 28632   0.494E-01    0.109E+00
DAV: 109    -0.112709822668E+04   -0.22313E-02   -0.43483E-03 31832   0.164E-01    0.118E+00
DAV: 110    -0.112710152067E+04   -0.32940E-02   -0.67256E-04 31504   0.782E-02    0.119E+00
DAV: 111    -0.112710160059E+04   -0.79914E-04   -0.30080E-04 25288   0.308E-02    0.119E+00
DAV: 112    -0.112710817051E+04   -0.65699E-02   -0.61130E-03 31464   0.394E-01    0.105E+00
DAV: 113    -0.112711049991E+04   -0.23294E-02   -0.19763E-03 27184   0.931E-02    0.105E+00
DAV: 114    -0.112710723586E+04    0.32641E-02   -0.21718E-04 30248   0.635E-02    0.105E+00
DAV: 115    -0.112710193446E+04    0.53014E-02   -0.76730E-04 35688   0.125E-01    0.102E+00
DAV: 116    -0.112709997104E+04    0.19634E-02   -0.45212E-04 33240   0.486E-02    0.100E+00
DAV: 117    -0.112709117485E+04    0.87962E-02   -0.14020E-02 36592   0.543E-01    0.116E+00
DAV: 118    -0.112707500272E+04    0.16172E-01   -0.94598E-03 34456   0.273E-01    0.128E+00
DAV: 119    -0.112706813611E+04    0.68666E-02   -0.21783E-03 33216   0.136E-01    0.135E+00
DAV: 120    -0.112706832708E+04   -0.19097E-03   -0.19516E-03 33240   0.203E-01    0.143E+00
DAV: 121    -0.112708434913E+04   -0.16022E-01   -0.12361E-02 33656   0.480E-01    0.161E+00
DAV: 122    -0.112709246674E+04   -0.81176E-02   -0.98261E-03 33320   0.302E-01    0.160E+00
DAV: 123    -0.112710037378E+04   -0.79070E-02   -0.42977E-03 31056   0.249E-01    0.171E+00
DAV: 124    -0.112710917656E+04   -0.88028E-02   -0.74694E-03 32760   0.329E-01    0.182E+00
DAV: 125    -0.112711085579E+04   -0.16792E-02   -0.40268E-03 29048   0.115E-01    0.187E+00
DAV: 126    -0.112711322670E+04   -0.23709E-02   -0.34291E-04 33672   0.948E-02    0.189E+00
DAV: 127    -0.112718884418E+04   -0.75617E-01   -0.46279E-02 33688   0.107E+00    0.184E+00
DAV: 128    -0.112718242017E+04    0.64240E-02   -0.16301E-02 26512   0.349E-01    0.182E+00
DAV: 129    -0.112717577235E+04    0.66478E-02   -0.16459E-03 31288   0.183E-01    0.189E+00
DAV: 130    -0.112717476866E+04    0.10037E-02   -0.23310E-03 33864   0.206E-01    0.196E+00
DAV: 131    -0.112717269389E+04    0.20748E-02   -0.31279E-03 33136   0.265E-01    0.193E+00
DAV: 132    -0.112716058960E+04    0.12104E-01   -0.91697E-03 32848   0.428E-01    0.162E+00
DAV: 133    -0.112716237798E+04   -0.17884E-02   -0.35783E-03 26920   0.132E-01    0.159E+00
DAV: 134    -0.112716959267E+04   -0.72147E-02   -0.49586E-04 33096   0.105E-01    0.159E+00
DAV: 135    -0.112719187023E+04   -0.22278E-01   -0.59385E-03 34312   0.363E-01    0.166E+00
DAV: 136    -0.112721455651E+04   -0.22686E-01   -0.14000E-02 35112   0.463E-01    0.176E+00
DAV: 137    -0.112721042151E+04    0.41350E-02   -0.85133E-03 30632   0.254E-01    0.177E+00
DAV: 138    -0.112720793952E+04    0.24820E-02   -0.18617E-03 29512   0.101E-01    0.178E+00
DAV: 139    -0.112720594658E+04    0.19929E-02   -0.28467E-04 26648   0.545E-02    0.177E+00
DAV: 140    -0.112720595189E+04   -0.53091E-05   -0.47561E-04 30032   0.117E-01    0.177E+00
DAV: 141    -0.112721393486E+04   -0.79830E-02   -0.14524E-03 33608   0.170E-01    0.181E+00
DAV: 142    -0.112712679863E+04    0.87136E-01   -0.19722E-01 35536   0.216E+00    0.902E-01
DAV: 143    -0.112715476619E+04   -0.27968E-01   -0.76511E-02 26792   0.685E-01    0.741E-01
DAV: 144    -0.112717263511E+04   -0.17869E-01   -0.63723E-03 34120   0.333E-01    0.765E-01
DAV: 145    -0.112718678154E+04   -0.14146E-01   -0.56129E-03 32936   0.225E-01    0.804E-01
DAV: 146    -0.112720133843E+04   -0.14557E-01   -0.52391E-03 33200   0.316E-01    0.811E-01
DAV: 147    -0.112722815826E+04   -0.26820E-01   -0.12448E-02 31712   0.463E-01    0.794E-01
DAV: 148    -0.112723095464E+04   -0.27964E-02   -0.52911E-03 27096   0.130E-01    0.803E-01
DAV: 149    -0.112723074510E+04    0.20954E-03   -0.96492E-05 26400   0.243E-02    0.803E-01
DAV: 150    -0.112721287861E+04    0.17866E-01   -0.29997E-03 35480   0.275E-01    0.781E-01
DAV: 151    -0.112718891618E+04    0.23962E-01   -0.14401E-02 35104   0.548E-01    0.850E-01
DAV: 152    -0.112710114018E+04    0.87776E-01   -0.87762E-02 33784   0.140E+00    0.123E+00
DAV: 153    -0.112706985393E+04    0.31286E-01   -0.67868E-02 32760   0.653E-01    0.135E+00
DAV: 154    -0.112707191600E+04   -0.20621E-02   -0.11288E-02 26184   0.232E-01    0.130E+00
DAV: 155    -0.112707146454E+04    0.45146E-03   -0.24294E-04 32152   0.455E-02    0.130E+00
DAV: 156    -0.112707143304E+04    0.31500E-04   -0.92363E-05 26144   0.416E-02    0.128E+00
DAV: 157    -0.112704320915E+04    0.28224E-01   -0.25132E-02 31192   0.791E-01    0.123E+00
DAV: 158    -0.112702930329E+04    0.13906E-01   -0.15415E-02 31872   0.296E-01    0.121E+00
DAV: 159    -0.112704158820E+04   -0.12285E-01   -0.44076E-03 28568   0.272E-01    0.118E+00
DAV: 160    -0.112706504975E+04   -0.23462E-01   -0.11709E-02 32792   0.469E-01    0.116E+00
DAV: 161    -0.112709008890E+04   -0.25039E-01   -0.24026E-02 33592   0.567E-01    0.116E+00
DAV: 162    -0.112710286148E+04   -0.12773E-01   -0.14326E-02 32328   0.321E-01    0.120E+00
DAV: 163    -0.112710250272E+04    0.35876E-03   -0.29092E-03 26760   0.126E-01    0.121E+00
DAV: 164    -0.112710217653E+04    0.32619E-03   -0.18244E-04 30312   0.554E-02    0.120E+00
DAV: 165    -0.112709642093E+04    0.57556E-02   -0.13309E-03 31776   0.172E-01    0.118E+00
DAV: 166    -0.112708353955E+04    0.12881E-01   -0.56064E-03 31848   0.331E-01    0.115E+00
DAV: 167    -0.112707427891E+04    0.92606E-02   -0.61877E-03 31896   0.329E-01    0.115E+00
DAV: 168    -0.112708153415E+04   -0.72552E-02   -0.25491E-03 27512   0.191E-01    0.116E+00
DAV: 169    -0.112708192336E+04   -0.38921E-03   -0.31710E-04 28664   0.312E-02    0.116E+00
DAV: 170    -0.112708273898E+04   -0.81562E-03   -0.11016E-04 27408   0.485E-02    0.114E+00
DAV: 171    -0.112709391358E+04   -0.11175E-01   -0.31445E-03 34368   0.272E-01    0.105E+00
DAV: 172    -0.112713467872E+04   -0.40765E-01   -0.25733E-02 33256   0.734E-01    0.119E+00
DAV: 173    -0.112715168077E+04   -0.17002E-01   -0.23614E-02 32040   0.512E-01    0.132E+00
DAV: 174    -0.112716251887E+04   -0.10838E-01   -0.10334E-02 32360   0.366E-01    0.145E+00
DAV: 175    -0.112716923959E+04   -0.67207E-02   -0.76413E-03 31024   0.302E-01    0.156E+00
DAV: 176    -0.112718185890E+04   -0.12619E-01   -0.67698E-03 33792   0.314E-01    0.159E+00
DAV: 177    -0.112718326347E+04   -0.14046E-02   -0.45965E-03 30000   0.190E-01    0.163E+00
DAV: 178    -0.112718391776E+04   -0.65429E-03   -0.13792E-03 27720   0.706E-02    0.162E+00
DAV: 179    -0.112718111148E+04    0.28063E-02   -0.15268E-04 27984   0.594E-02    0.162E+00
DAV: 180    -0.112717929500E+04    0.18165E-02   -0.45998E-04 30784   0.102E-01    0.168E+00
DAV: 181    -0.112716658952E+04    0.12705E-01   -0.10716E-02 31384   0.533E-01    0.198E+00
DAV: 182    -0.112713856624E+04    0.28023E-01   -0.24905E-02 33072   0.672E-01    0.219E+00
DAV: 183    -0.112714136997E+04   -0.28037E-02   -0.97376E-03 27144   0.203E-01    0.220E+00
DAV: 184    -0.112713947631E+04    0.18937E-02   -0.49262E-04 30928   0.758E-02    0.221E+00
DAV: 185    -0.112713750640E+04    0.19699E-02   -0.47172E-04 33384   0.830E-02    0.222E+00
DAV: 186    -0.112713674070E+04    0.76569E-03   -0.50229E-04 31920   0.805E-02    0.224E+00
DAV: 187    -0.112713694072E+04   -0.20001E-03   -0.11244E-03 30384   0.179E-01    0.221E+00
DAV: 188    -0.112713795461E+04   -0.10139E-02   -0.41278E-04 28504   0.865E-02    0.222E+00
DAV: 189    -0.112714048453E+04   -0.25299E-02   -0.13418E-03 31896   0.156E-01    0.226E+00
DAV: 190    -0.112714119975E+04   -0.71522E-03   -0.17638E-03 33720   0.147E-01    0.227E+00
DAV: 191    -0.112713872209E+04    0.24777E-02   -0.10241E-03 34016   0.108E-01    0.231E+00
DAV: 192    -0.112717647655E+04   -0.37754E-01   -0.24928E-02 33128   0.805E-01    0.252E+00
DAV: 193    -0.112717845838E+04   -0.19818E-02   -0.91142E-03 26832   0.174E-01    0.249E+00
DAV: 194    -0.112717878059E+04   -0.32220E-03   -0.22670E-04 28600   0.358E-02    0.250E+00
DAV: 195    -0.112717837675E+04    0.40384E-03   -0.32514E-05 21976   0.258E-02    0.248E+00
DAV: 196    -0.112717069847E+04    0.76783E-02   -0.32626E-03 32512   0.300E-01    0.249E+00
DAV: 197    -0.112723677839E+04   -0.66080E-01   -0.46722E-01 31952   0.360E+00    0.145E+00
DAV: 198    -0.112727736148E+04   -0.40583E-01   -0.16671E-01 27616   0.745E-01    0.140E+00
DAV: 199    -0.112727642566E+04    0.93582E-03   -0.45621E-03 30984   0.220E-01    0.134E+00
DAV: 200    -0.112727612976E+04    0.29589E-03   -0.12435E-03 28816   0.653E-02
   2 F= -.11272761E+04 E0= -.11272761E+04  d E =-.577100E+00  mag=    65.0000
       N       E                     dE             d eps       ncg     rms          rms(c)
DAV:   1    -0.112728984012E+04   -0.13414E-01   -0.17493E-01 29872   0.127E+00    0.135E+00
DAV:   2    -0.112727875780E+04    0.11082E-01   -0.55151E-02 35640   0.947E-01    0.897E-01
DAV:   3    -0.112731101184E+04   -0.32254E-01   -0.21740E-02 32568   0.495E-01    0.698E-01
DAV:   4    -0.112732418361E+04   -0.13172E-01   -0.43650E-03 31456   0.241E-01    0.625E-01
DAV:   5    -0.112733965183E+04   -0.15468E-01   -0.40947E-03 33960   0.253E-01    0.595E-01
DAV:   6    -0.112736068253E+04   -0.21031E-01   -0.47787E-03 33376   0.288E-01    0.582E-01
DAV:   7    -0.112740457578E+04   -0.43893E-01   -0.17978E-02 32600   0.646E-01    0.562E-01
DAV:   8    -0.112749329797E+04   -0.88722E-01   -0.92152E-02 31952   0.141E+00    0.556E-01
DAV:   9    -0.112750058146E+04   -0.72835E-02   -0.47974E-02 27976   0.392E-01    0.493E-01
DAV:  10    -0.112753171289E+04   -0.31131E-01   -0.83230E-03 37000   0.473E-01    0.487E-01
DAV:  11    -0.112753244147E+04   -0.72858E-03   -0.73987E-03 32328   0.232E-01    0.463E-01
DAV:  12    -0.112756927016E+04   -0.36829E-01   -0.14888E-02 32528   0.622E-01    0.460E-01
DAV:  13    -0.112759292672E+04   -0.23657E-01   -0.24414E-02 34360   0.544E-01    0.441E-01
DAV:  14    -0.112761398238E+04   -0.21056E-01   -0.20723E-02 32808   0.584E-01    0.401E-01
DAV:  15    -0.112765355178E+04   -0.39569E-01   -0.31205E-02 32392   0.753E-01    0.375E-01
DAV:  16    -0.112766526121E+04   -0.11709E-01   -0.26227E-02 31104   0.446E-01    0.344E-01
DAV:  17    -0.112768077262E+04   -0.15511E-01   -0.71311E-03 32448   0.283E-01    0.334E-01
DAV:  18    -0.112768185885E+04   -0.10862E-02   -0.38272E-03 28456   0.176E-01    0.330E-01
DAV:  19    -0.112769275240E+04   -0.10894E-01   -0.58551E-03 34760   0.370E-01    0.340E-01
DAV:  20    -0.112769010276E+04    0.26496E-02   -0.29274E-03 26496   0.149E-01    0.334E-01
DAV:  21    -0.112769050287E+04   -0.40011E-03   -0.14320E-04 26504   0.214E-02    0.333E-01
DAV:  22    -0.112768880689E+04    0.16960E-02   -0.40294E-05 23648   0.289E-02    0.345E-01
DAV:  23    -0.112769324445E+04   -0.44376E-02   -0.80680E-04 31448   0.150E-01    0.325E-01
DAV:  24    -0.112774649160E+04   -0.53247E-01   -0.61466E-02 32136   0.125E+00    0.453E-01
DAV:  25    -0.112774863155E+04   -0.21399E-02   -0.24365E-02 28256   0.354E-01    0.463E-01
DAV:  26    -0.112775420238E+04   -0.55708E-02   -0.31533E-03 32480   0.229E-01    0.398E-01
DAV:  27    -0.112775902047E+04   -0.48181E-02   -0.22606E-03 31240   0.115E-01    0.386E-01
DAV:  28    -0.112776557107E+04   -0.65506E-02   -0.14492E-03 33584   0.171E-01    0.384E-01
DAV:  29    -0.112777631641E+04   -0.10745E-01   -0.40271E-03 32216   0.248E-01    0.402E-01
DAV:  30    -0.112778911626E+04   -0.12800E-01   -0.69379E-03 33744   0.322E-01    0.397E-01
DAV:  31    -0.112778647908E+04    0.26372E-02   -0.54317E-03 29856   0.247E-01    0.298E-01
DAV:  32    -0.112778672386E+04   -0.24479E-03   -0.15521E-03 27112   0.864E-02    0.303E-01
DAV:  33    -0.112778195464E+04    0.47692E-02   -0.57992E-04 31832   0.111E-01    0.304E-01
DAV:  34    -0.112778101372E+04    0.94093E-03   -0.32636E-04 29872   0.370E-02    0.303E-01
DAV:  35    -0.112777990636E+04    0.11074E-02   -0.36521E-05 20728   0.208E-02    0.303E-01
DAV:  36    -0.112778076041E+04   -0.85405E-03   -0.10449E-04 24928   0.455E-02    0.302E-01
DAV:  37    -0.112777439786E+04    0.63626E-02   -0.24525E-03 31560   0.239E-01    0.314E-01
DAV:  38    -0.112776048459E+04    0.13913E-01   -0.92399E-03 32456   0.388E-01    0.328E-01
DAV:  39    -0.112776136160E+04   -0.87702E-03   -0.31306E-03 26360   0.115E-01    0.320E-01
DAV:  40    -0.112774991777E+04    0.11444E-01   -0.32041E-03 31736   0.270E-01    0.324E-01
DAV:  41    -0.112776495361E+04   -0.15036E-01   -0.63104E-03 31408   0.405E-01    0.357E-01
DAV:  42    -0.112779944031E+04   -0.34487E-01   -0.54206E-02 32184   0.103E+00    0.594E-01
DAV:  43    -0.112782093042E+04   -0.21490E-01   -0.47531E-02 35416   0.591E-01    0.743E-01
DAV:  44    -0.112782207275E+04   -0.11423E-02   -0.10143E-02 26752   0.180E-01    0.791E-01
DAV:  45    -0.112782462208E+04   -0.25493E-02   -0.34658E-04 31488   0.757E-02    0.803E-01
DAV:  46    -0.112782686512E+04   -0.22430E-02   -0.79324E-04 34528   0.113E-01    0.722E-01
DAV:  47    -0.112782404788E+04    0.28172E-02   -0.27464E-03 35440   0.180E-01    0.530E-01
DAV:  48    -0.112782980214E+04   -0.57543E-02   -0.23026E-03 32936   0.183E-01    0.536E-01
DAV:  49    -0.112783018657E+04   -0.38443E-03   -0.88505E-04 30224   0.626E-02    0.508E-01
DAV:  50    -0.112783156041E+04   -0.13738E-02   -0.11081E-04 26752   0.329E-02    0.510E-01
DAV:  51    -0.112783346611E+04   -0.19057E-02   -0.32817E-04 33616   0.704E-02    0.496E-01
DAV:  52    -0.112783120607E+04    0.22600E-02   -0.13146E-03 33112   0.161E-01    0.492E-01
DAV:  53    -0.112782825599E+04    0.29501E-02   -0.71331E-04 27424   0.710E-02    0.487E-01
DAV:  54    -0.112782557562E+04    0.26804E-02   -0.49287E-04 31400   0.993E-02    0.474E-01
DAV:  55    -0.112782524136E+04    0.33426E-03   -0.16575E-04 24616   0.399E-02    0.475E-01
DAV:  56    -0.112782579610E+04   -0.55474E-03   -0.44022E-05 24472   0.222E-02    0.484E-01
DAV:  57    -0.112783182957E+04   -0.60335E-02   -0.15412E-03 31984   0.186E-01    0.515E-01
DAV:  58    -0.112783195583E+04   -0.12626E-03   -0.58376E-04 27176   0.399E-02    0.513E-01
DAV:  59    -0.112783396623E+04   -0.20104E-02   -0.19559E-04 28784   0.629E-02    0.527E-01
DAV:  60    -0.112783663805E+04   -0.26718E-02   -0.40498E-04 31912   0.754E-02    0.535E-01
DAV:  61    -0.112784468967E+04   -0.80516E-02   -0.28582E-03 32512   0.235E-01    0.590E-01
DAV:  62    -0.112784109149E+04    0.35982E-02   -0.26803E-03 31432   0.210E-01    0.556E-01
DAV:  63    -0.112783953635E+04    0.15551E-02   -0.91541E-04 28776   0.780E-02    0.567E-01
DAV:  64    -0.112783819770E+04    0.13387E-02   -0.16473E-04 28656   0.513E-02    0.564E-01
DAV:  65    -0.112783804596E+04    0.15174E-03   -0.50577E-05 22624   0.177E-02    0.565E-01
DAV:  66    -0.112783880523E+04   -0.75927E-03   -0.50742E-05 21728   0.330E-02    0.565E-01
DAV:  67    -0.112785478948E+04   -0.15984E-01   -0.80449E-03 32400   0.414E-01    0.728E-01
DAV:  68    -0.112784116683E+04    0.13623E-01   -0.88044E-03 31240   0.456E-01    0.578E-01
DAV:  69    -0.112784022809E+04    0.93874E-03   -0.14002E-03 27488   0.575E-02    0.566E-01
DAV:  70    -0.112783904554E+04    0.11826E-02   -0.50809E-05 24824   0.302E-02    0.546E-01
DAV:  71    -0.112783889637E+04    0.14917E-03   -0.39395E-05 19584   0.126E-02    0.545E-01
DAV:  72    -0.112783662360E+04    0.22728E-02   -0.13206E-04 27576   0.564E-02    0.535E-01
DAV:  73    -0.112783282773E+04    0.37959E-02   -0.44749E-04 31720   0.878E-02    0.511E-01
DAV:  74    -0.112783371009E+04   -0.88237E-03   -0.33331E-04 29504   0.648E-02    0.463E-01
DAV:  75    -0.112782661295E+04    0.70971E-02   -0.10656E-03 31496   0.141E-01    0.433E-01
DAV:  76    -0.112782668994E+04   -0.76984E-04   -0.53832E-04 28160   0.553E-02    0.389E-01
DAV:  77    -0.112777810706E+04    0.48583E-01   -0.36713E-02 31824   0.853E-01    0.509E-01
DAV:  78    -0.112778411792E+04   -0.60109E-02   -0.12118E-02 27408   0.200E-01    0.403E-01
DAV:  79    -0.112778547721E+04   -0.13593E-02   -0.48687E-04 30352   0.538E-02    0.364E-01
DAV:  80    -0.112779136382E+04   -0.58866E-02   -0.58045E-04 28888   0.855E-02    0.319E-01
DAV:  81    -0.112779924111E+04   -0.78773E-02   -0.14811E-03 31856   0.155E-01    0.302E-01
DAV:  82    -0.112778693850E+04    0.12303E-01   -0.42211E-03 30960   0.301E-01    0.323E-01
DAV:  83    -0.112778623421E+04    0.70430E-03   -0.79924E-04 27344   0.411E-02    0.315E-01
DAV:  84    -0.112778641844E+04   -0.18423E-03   -0.21779E-05 19760   0.148E-02    0.315E-01
DAV:  85    -0.112778713913E+04   -0.72070E-03   -0.12765E-04 31664   0.410E-02    0.325E-01
DAV:  86    -0.112778583455E+04    0.13046E-02   -0.57374E-04 36664   0.101E-01    0.367E-01
DAV:  87    -0.112779744839E+04   -0.11614E-01   -0.36525E-03 32648   0.282E-01    0.338E-01
DAV:  88    -0.112779936232E+04   -0.19139E-02   -0.14818E-03 29432   0.671E-02    0.356E-01
DAV:  89    -0.112779944345E+04   -0.81127E-04   -0.77730E-05 24224   0.175E-02    0.356E-01
DAV:  90    -0.112779959952E+04   -0.15608E-03   -0.34872E-06 16960   0.884E-03    0.356E-01
DAV:  91    -0.112779954147E+04    0.58054E-04   -0.15291E-05 17144   0.176E-02    0.354E-01
DAV:  92    -0.112779870357E+04    0.83790E-03   -0.17581E-04 31680   0.589E-02    0.348E-01
DAV:  93    -0.112779857023E+04    0.13334E-03   -0.75995E-05 24736   0.144E-02    0.345E-01
DAV:  94    -0.112779885080E+04   -0.28056E-03   -0.54376E-06 15168   0.101E-02    0.344E-01
DAV:  95    -0.112779936861E+04   -0.51781E-03   -0.46182E-05 24360   0.227E-02    0.351E-01
DAV:  96    -0.112780094834E+04   -0.15797E-02   -0.16847E-04 32920   0.514E-02    0.387E-01
DAV:  97    -0.112780131668E+04   -0.36834E-03   -0.81016E-05 25264   0.246E-02    0.403E-01
DAV:  98    -0.112780141707E+04   -0.10039E-03   -0.12929E-05 15592   0.737E-03    0.409E-01
DAV:  99    -0.112780138520E+04    0.31872E-04   -0.19385E-06 13624   0.491E-03    0.412E-01
DAV: 100    -0.112780138773E+04   -0.25337E-05   -0.10460E-06 13528   0.246E-03
   3 F= -.11278014E+04 E0= -.11278014E+04  d E =-.525258E+00  mag=    65.0000
       N       E                     dE             d eps       ncg     rms          rms(c)
DAV:   1    -0.112780833681E+04   -0.69516E-02   -0.32980E+00 28720   0.520E+00    0.129E+00
DAV:   2    -0.112784640698E+04   -0.38070E-01   -0.31637E-01 29472   0.110E+00    0.606E-01
DAV:   3    -0.112784786299E+04   -0.14560E-02   -0.14049E-02 30264   0.319E-01    0.435E-01
DAV:   4    -0.112785023871E+04   -0.23757E-02   -0.19772E-03 30712   0.128E-01    0.322E-01
DAV:   5    -0.112785405126E+04   -0.38126E-02   -0.96213E-04 34280   0.125E-01    0.286E-01
DAV:   6    -0.112785794933E+04   -0.38981E-02   -0.12801E-03 32600   0.122E-01    0.274E-01
DAV:   7    -0.112786295594E+04   -0.50066E-02   -0.13362E-03 32696   0.141E-01    0.265E-01
DAV:   8    -0.112787300696E+04   -0.10051E-01   -0.46429E-03 32408   0.283E-01    0.254E-01
DAV:   9    -0.112788280788E+04   -0.98009E-02   -0.83259E-03 33968   0.294E-01    0.240E-01
DAV:  10    -0.112789083151E+04   -0.80236E-02   -0.61166E-03 34080   0.234E-01    0.229E-01
DAV:  11    -0.112789748674E+04   -0.66552E-02   -0.35518E-03 33048   0.189E-01    0.219E-01
DAV:  12    -0.112790883174E+04   -0.11345E-01   -0.82250E-03 32896   0.361E-01    0.197E-01
DAV:  13    -0.112790700289E+04    0.18289E-02   -0.64541E-03 29720   0.164E-01    0.194E-01
DAV:  14    -0.112792087366E+04   -0.13871E-01   -0.11386E-02 32216   0.459E-01    0.155E-01
DAV:  15    -0.112791702695E+04    0.38467E-02   -0.49463E-03 27520   0.164E-01    0.103E-01
DAV:  16    -0.112792214607E+04   -0.51191E-02   -0.35417E-03 31744   0.241E-01    0.876E-02
DAV:  17    -0.112792436107E+04   -0.22150E-02   -0.41860E-03 32896   0.168E-01    0.936E-02
DAV:  18    -0.112792469678E+04   -0.33571E-03   -0.13751E-03 29184   0.691E-02    0.790E-02
DAV:  19    -0.112792449113E+04    0.20565E-03   -0.14068E-04 27496   0.346E-02    0.612E-02
DAV:  20    -0.112792480429E+04   -0.31316E-03   -0.26992E-04 31240   0.642E-02    0.609E-02
DAV:  21    -0.112792422018E+04    0.58410E-03   -0.18821E-04 27064   0.265E-02    0.353E-02
DAV:  22    -0.112792399281E+04    0.22738E-03   -0.44431E-05 24456   0.286E-02    0.246E-02
DAV:  23    -0.112792394773E+04    0.45077E-04   -0.12106E-04 28704   0.390E-02    0.187E-02
DAV:  24    -0.112792372185E+04    0.22588E-03   -0.91702E-05 27072   0.253E-02    0.939E-03
DAV:  25    -0.112792386131E+04   -0.13946E-03   -0.28785E-05 19840   0.176E-02    0.112E-02
DAV:  26    -0.112792363335E+04    0.22795E-03   -0.21467E-05 17376   0.128E-02    0.655E-03
DAV:  27    -0.112792355872E+04    0.74629E-04   -0.30362E-06 14160   0.382E-03    0.548E-03
DAV:  28    -0.112792363952E+04   -0.80797E-04   -0.10889E-06 13736   0.464E-03    0.434E-03
DAV:  29    -0.112792360768E+04    0.31836E-04   -0.22411E-06 14232   0.534E-03    0.376E-03
DAV:  30    -0.112792356303E+04    0.44649E-04   -0.33371E-06 14968   0.624E-03    0.383E-03
DAV:  31    -0.112792365322E+04   -0.90187E-04   -0.36659E-06 14744   0.691E-03    0.279E-03
DAV:  32    -0.112792364506E+04    0.81634E-05   -0.35341E-06 15136   0.519E-03
   4 F= -.11279236E+04 E0= -.11279236E+04  d E =-.122257E+00  mag=    65.0000
       N       E                     dE             d eps       ncg     rms          rms(c)
DAV:   1    -0.112793094622E+04   -0.72930E-02   -0.20958E-01 28416   0.130E+00    0.291E-01
DAV:   2    -0.112793261958E+04   -0.16734E-02   -0.20089E-02 28832   0.259E-01    0.123E-01
DAV:   3    -0.112793254631E+04    0.73264E-04   -0.66115E-04 29760   0.617E-02    0.693E-02
DAV:   4    -0.112793262709E+04   -0.80778E-04   -0.94431E-05 30320   0.235E-02    0.384E-02
DAV:   5    -0.112793257991E+04    0.47180E-04   -0.27853E-05 23272   0.159E-02    0.146E-02
DAV:   6    -0.112793258189E+04   -0.19756E-05   -0.13171E-05 16112   0.928E-03
   5 F= -.11279326E+04 E0= -.11279326E+04  d E =-.893683E-02  mag=    65.0000
       N       E                     dE             d eps       ncg     rms          rms(c)
DAV:   1    -0.112791069493E+04    0.21885E-01   -0.59393E+00 28504   0.720E+00    0.125E+00
DAV:   2    -0.112796584009E+04   -0.55145E-01   -0.61628E-01 28568   0.138E+00    0.597E-01
DAV:   3    -0.112796623394E+04   -0.39385E-03   -0.19414E-02 29472   0.308E-01    0.290E-01
DAV:   4    -0.112796620838E+04    0.25557E-04   -0.16282E-03 30728   0.876E-02    0.179E-01
DAV:   5    -0.112796589088E+04    0.31750E-03   -0.73786E-04 31120   0.803E-02    0.753E-02
DAV:   6    -0.112796588476E+04    0.61261E-05   -0.25438E-04 30248   0.372E-02    0.395E-02
DAV:   7    -0.112796599516E+04   -0.11041E-03   -0.68758E-05 28112   0.197E-02    0.268E-02
DAV:   8    -0.112796595999E+04    0.35171E-04   -0.66093E-06 16168   0.848E-03    0.197E-02
DAV:   9    -0.112796596633E+04   -0.63369E-05   -0.40245E-06 16160   0.896E-03
   6 F= -.11279660E+04 E0= -.11279660E+04  d E =-.333844E-01  mag=    65.0000
       N       E                     dE             d eps       ncg     rms          rms(c)
DAV:   1    -0.112780640333E+04    0.15956E+00   -0.19388E+01 28424   0.131E+01    0.210E+00
DAV:   2    -0.112800721629E+04   -0.20081E+00   -0.20967E+00 28336   0.251E+00    0.110E+00
DAV:   3    -0.112801042480E+04   -0.32085E-02   -0.65661E-02 29272   0.548E-01    0.504E-01
DAV:   4    -0.112800974914E+04    0.67566E-03   -0.44954E-03 30680   0.133E-01    0.332E-01
DAV:   5    -0.112800903007E+04    0.71907E-03   -0.23955E-03 31616   0.148E-01    0.143E-01
DAV:   6    -0.112800902671E+04    0.33602E-05   -0.81418E-04 30288   0.626E-02    0.630E-02
DAV:   7    -0.112800919321E+04   -0.16650E-03   -0.22294E-04 30368   0.352E-02    0.430E-02
DAV:   8    -0.112800913920E+04    0.54010E-04   -0.21608E-05 20080   0.144E-02    0.314E-02
DAV:   9    -0.112800917315E+04   -0.33947E-04   -0.80313E-06 16240   0.112E-02    0.251E-02
DAV:  10    -0.112800919977E+04   -0.26624E-04   -0.11021E-05 19296   0.151E-02    0.199E-02
DAV:  11    -0.112800923263E+04   -0.32862E-04   -0.15814E-05 18384   0.146E-02    0.179E-02
DAV:  12    -0.112800926030E+04   -0.27665E-04   -0.15192E-05 18920   0.169E-02    0.163E-02
DAV:  13    -0.112800933969E+04   -0.79393E-04   -0.54785E-05 24664   0.355E-02    0.130E-02
DAV:  14    -0.112800935678E+04   -0.17086E-04   -0.86523E-05 27672   0.315E-02    0.105E-02
DAV:  15    -0.112800935814E+04   -0.13596E-05   -0.32948E-05 19824   0.137E-02
   7 F= -.11280094E+04 E0= -.11280094E+04  d E =-.433918E-01  mag=    65.0000
       N       E                     dE             d eps       ncg     rms          rms(c)
DAV:   1    -0.112778781098E+04    0.22155E+00   -0.41380E+01 27320   0.166E+01    0.259E+00
DAV:   2    -0.112802665344E+04   -0.23884E+00   -0.28620E+00 28304   0.317E+00    0.130E+00
DAV:   3    -0.112802602491E+04    0.62854E-03   -0.85607E-02 29648   0.689E-01    0.731E-01
DAV:   4    -0.112802380066E+04    0.22242E-02   -0.60696E-03 30624   0.176E-01    0.427E-01
DAV:   5    -0.112802240941E+04    0.13913E-02   -0.38617E-03 31152   0.197E-01    0.163E-01
DAV:   6    -0.112802234448E+04    0.64923E-04   -0.21603E-03 29856   0.956E-02    0.862E-02
DAV:   7    -0.112802251363E+04   -0.16915E-03   -0.26112E-04 29192   0.356E-02    0.560E-02
DAV:   8    -0.112802253054E+04   -0.16905E-04   -0.45615E-05 25968   0.200E-02    0.353E-02
DAV:   9    -0.112802253190E+04   -0.13648E-05   -0.17793E-05 20368   0.165E-02
   8 F= -.11280225E+04 E0= -.11280225E+04  d E =-.131738E-01  mag=    65.0000
       N       E                     dE             d eps       ncg     rms          rms(c)
DAV:   1    -0.112798244447E+04    0.40086E-01   -0.37943E+00 31456   0.700E+00    0.152E+00
DAV:   2    -0.112804743714E+04   -0.64993E-01   -0.63694E-01 28904   0.139E+00    0.705E-01
DAV:   3    -0.112804786119E+04   -0.42405E-03   -0.21434E-02 29904   0.338E-01    0.427E-01
DAV:   4    -0.112804756144E+04    0.29975E-03   -0.19787E-03 30720   0.963E-02    0.214E-01
DAV:   5    -0.112804711304E+04    0.44840E-03   -0.83782E-04 30768   0.991E-02    0.804E-02
DAV:   6    -0.112804706028E+04    0.52762E-04   -0.52468E-04 29952   0.562E-02    0.528E-02
DAV:   7    -0.112804706581E+04   -0.55310E-05   -0.15394E-04 29760   0.254E-02    0.371E-02
DAV:   8    -0.112804707763E+04   -0.11817E-04   -0.91355E-06 16120   0.112E-02    0.266E-02
DAV:   9    -0.112804709046E+04   -0.12830E-04   -0.17311E-05 20152   0.190E-02    0.185E-02
DAV:  10    -0.112804711203E+04   -0.21573E-04   -0.19165E-05 19984   0.122E-02    0.165E-02
DAV:  11    -0.112804712226E+04   -0.10234E-04   -0.69073E-06 16104   0.807E-03    0.153E-02
DAV:  12    -0.112804714814E+04   -0.25874E-04   -0.46899E-06 14928   0.913E-03    0.142E-02
DAV:  13    -0.112804716864E+04   -0.20501E-04   -0.89442E-06 17504   0.133E-02    0.130E-02
DAV:  14    -0.112804719690E+04   -0.28260E-04   -0.23797E-05 21120   0.200E-02    0.109E-02
DAV:  15    -0.112804724202E+04   -0.45121E-04   -0.55399E-05 23976   0.311E-02    0.823E-03
DAV:  16    -0.112804726098E+04   -0.18963E-04   -0.62101E-05 25472   0.240E-02    0.681E-03
DAV:  17    -0.112804726227E+04   -0.12856E-05   -0.20766E-05 17704   0.120E-02
   9 F= -.11280473E+04 E0= -.11280473E+04  d E =-.247304E-01  mag=    65.0000
       N       E                     dE             d eps       ncg     rms          rms(c)
DAV:   1    -0.112804518267E+04    0.20783E-02   -0.77223E-01 29984   0.293E+00    0.547E-01
DAV:   2    -0.112805556860E+04   -0.10386E-01   -0.10650E-01 28960   0.569E-01    0.262E-01
DAV:   3    -0.112805583431E+04   -0.26571E-03   -0.34023E-03 29712   0.130E-01    0.134E-01
DAV:   4    -0.112805569064E+04    0.14368E-03   -0.35817E-04 31240   0.429E-02    0.773E-02
DAV:   5    -0.112805573077E+04   -0.40137E-04   -0.13665E-04 29928   0.339E-02    0.305E-02
DAV:   6    -0.112805572730E+04    0.34709E-05   -0.44882E-05 27096   0.170E-02
  10 F= -.11280557E+04 E0= -.11280557E+04  d E =-.846503E-02  mag=    65.0000
       N       E                     dE             d eps       ncg     rms          rms(c)
DAV:   1    -0.112804596123E+04    0.97695E-02   -0.14246E+00 30144   0.389E+00    0.608E-01
DAV:   2    -0.112806188182E+04   -0.15921E-01   -0.17077E-01 28464   0.745E-01    0.297E-01
DAV:   3    -0.112806210524E+04   -0.22342E-03   -0.52246E-03 29536   0.161E-01    0.143E-01
DAV:   4    -0.112806204576E+04    0.59483E-04   -0.40086E-04 31304   0.437E-02    0.918E-02
DAV:   5    -0.112806198394E+04    0.61819E-04   -0.15867E-04 31968   0.405E-02    0.394E-02
DAV:   6    -0.112806199909E+04   -0.15151E-04   -0.62548E-05 29648   0.192E-02    0.193E-02
DAV:   7    -0.112806200856E+04   -0.94682E-05   -0.12865E-05 16240   0.962E-03
  11 F= -.11280620E+04 E0= -.11280620E+04  d E =-.628126E-02  mag=    65.0000
       N       E                     dE             d eps       ncg     rms          rms(c)
DAV:   1    -0.112791534457E+04    0.14665E+00   -0.10651E+01 30632   0.112E+01    0.175E+00
DAV:   2    -0.112806407903E+04   -0.14873E+00   -0.15286E+00 27864   0.213E+00    0.888E-01
DAV:   3    -0.112806699128E+04   -0.29123E-02   -0.45253E-02 29360   0.458E-01    0.399E-01
DAV:   4    -0.112806669281E+04    0.29847E-03   -0.31108E-03 30888   0.108E-01    0.263E-01
DAV:   5    -0.112806615247E+04    0.54034E-03   -0.10120E-03 32648   0.113E-01    0.116E-01
DAV:   6    -0.112806617649E+04   -0.24020E-04   -0.57494E-04 30928   0.582E-02    0.432E-02
DAV:   7    -0.112806627315E+04   -0.96657E-04   -0.11700E-04 29312   0.255E-02    0.306E-02
DAV:   8    -0.112806627125E+04    0.18988E-05   -0.10718E-05 15816   0.110E-02
  12 F= -.11280663E+04 E0= -.11280663E+04  d E =-.426269E-02  mag=    65.0000
       N       E                     dE             d eps       ncg     rms          rms(c)
DAV:   1    -0.112774695089E+04    0.31932E+00   -0.21676E+01 30856   0.157E+01    0.268E+00
DAV:   2    -0.112804154865E+04   -0.29460E+00   -0.29934E+00 27768   0.298E+00    0.132E+00
DAV:   3    -0.112804726708E+04   -0.57184E-02   -0.96495E-02 29600   0.670E-01    0.650E-01
DAV:   4    -0.112804632466E+04    0.94242E-03   -0.65433E-03 30768   0.164E-01    0.398E-01
DAV:   5    -0.112804525596E+04    0.10687E-02   -0.24235E-03 32264   0.166E-01    0.158E-01
DAV:   6    -0.112804525577E+04    0.18337E-06   -0.14303E-03 31064   0.940E-02    0.729E-02
DAV:   7    -0.112804542026E+04   -0.16449E-03   -0.35290E-04 29632   0.424E-02    0.531E-02
DAV:   8    -0.112804540166E+04    0.18603E-04   -0.26096E-05 20744   0.165E-02    0.403E-02
DAV:   9    -0.112804543964E+04   -0.37987E-04   -0.23094E-05 20128   0.209E-02    0.311E-02
DAV:  10    -0.112804549377E+04   -0.54125E-04   -0.31775E-05 22880   0.182E-02    0.256E-02
DAV:  11    -0.112804552836E+04   -0.34590E-04   -0.15889E-05 17392   0.152E-02    0.238E-02
DAV:  12    -0.112804557957E+04   -0.51217E-04   -0.16149E-05 19032   0.177E-02    0.221E-02
DAV:  13    -0.112804569566E+04   -0.11609E-03   -0.63659E-05 25240   0.373E-02    0.191E-02
DAV:  14    -0.112804576144E+04   -0.65775E-04   -0.13256E-04 29144   0.443E-02    0.155E-02
DAV:  15    -0.112804584139E+04   -0.79952E-04   -0.12495E-04 29856   0.408E-02    0.122E-02
DAV:  16    -0.112804589215E+04   -0.50763E-04   -0.75653E-05 25496   0.298E-02    0.102E-02
DAV:  17    -0.112804589805E+04   -0.59024E-05   -0.37620E-05 22168   0.244E-02
  13 F= -.11280459E+04 E0= -.11280459E+04  d E =0.203732E-01  mag=    65.0000
       N       E                     dE             d eps       ncg     rms          rms(c)
DAV:   1    -0.112789412434E+04    0.15177E+00   -0.11147E+01 31056   0.119E+01    0.203E+00
DAV:   2    -0.112806998903E+04   -0.17586E+00   -0.17608E+00 27864   0.225E+00    0.983E-01
DAV:   3    -0.112807358386E+04   -0.35948E-02   -0.57158E-02 29632   0.504E-01    0.455E-01
DAV:   4    -0.112807284036E+04    0.74350E-03   -0.41555E-03 31128   0.132E-01    0.285E-01
DAV:   5    -0.112807236295E+04    0.47741E-03   -0.13517E-03 32288   0.121E-01    0.112E-01
DAV:   6    -0.112807233211E+04    0.30841E-04   -0.66964E-04 30640   0.619E-02    0.516E-02
DAV:   7    -0.112807235706E+04   -0.24950E-04   -0.15317E-04 29312   0.280E-02    0.348E-02
DAV:   8    -0.112807234752E+04    0.95363E-05   -0.14398E-05 16584   0.105E-02
  14 F= -.11280723E+04 E0= -.11280723E+04  d E =-.264495E-01  mag=    65.0000
       N       E                     dE             d eps       ncg     rms          rms(c)
DAV:   1    -0.112806389173E+04    0.84653E-02   -0.58459E-01 30904   0.260E+00    0.590E-01
DAV:   2    -0.112807186502E+04   -0.79733E-02   -0.82378E-02 28680   0.507E-01    0.264E-01
DAV:   3    -0.112807197165E+04   -0.10662E-03   -0.29826E-03 29432   0.131E-01    0.173E-01
DAV:   4    -0.112807193044E+04    0.41212E-04   -0.30478E-04 30512   0.384E-02    0.814E-02
DAV:   5    -0.112807194340E+04   -0.12965E-04   -0.12605E-04 30344   0.344E-02    0.314E-02
DAV:   6    -0.112807193866E+04    0.47399E-05   -0.62846E-05 29056   0.194E-02
  15 F= -.11280719E+04 E0= -.11280719E+04  d E =0.408859E-03  mag=    65.0000
       N       E                     dE             d eps       ncg     rms          rms(c)
DAV:   1    -0.112807025770E+04    0.16857E-02   -0.20561E-01 31384   0.163E+00    0.338E-01
DAV:   2    -0.112807358930E+04   -0.33316E-02   -0.33100E-02 28808   0.323E-01    0.170E-01
DAV:   3    -0.112807356013E+04    0.29172E-04   -0.11456E-03 29592   0.809E-02    0.109E-01
DAV:   4    -0.112807354092E+04    0.19205E-04   -0.99756E-05 30600   0.212E-02    0.511E-02
DAV:   5    -0.112807350548E+04    0.35438E-04   -0.50522E-05 27416   0.222E-02    0.196E-02
DAV:   6    -0.112807351131E+04   -0.58298E-05   -0.22893E-05 21048   0.118E-02
  16 F= -.11280735E+04 E0= -.11280735E+04  d E =-.157265E-02  mag=    65.0000
       N       E                     dE             d eps       ncg     rms          rms(c)
DAV:   1    -0.112807245819E+04    0.10473E-02   -0.69494E-02 31720   0.958E-01    0.157E-01
DAV:   2    -0.112807360732E+04   -0.11491E-02   -0.11808E-02 27520   0.179E-01    0.824E-02
DAV:   3    -0.112807362464E+04   -0.17318E-04   -0.37721E-04 28336   0.404E-02    0.398E-02
DAV:   4    -0.112807363851E+04   -0.13870E-04   -0.21573E-05 19832   0.814E-03    0.256E-02
DAV:   5    -0.112807364900E+04   -0.10493E-04   -0.81740E-06 15496   0.112E-02    0.121E-02
DAV:   6    -0.112807365287E+04   -0.38653E-05   -0.81693E-06 14992   0.683E-03
  17 F= -.11280737E+04 E0= -.11280737E+04  d E =-.141552E-03  mag=    65.0000
       N       E                     dE             d eps       ncg     rms          rms(c)
DAV:   1    -0.112785317643E+04    0.22047E+00   -0.13552E+01 31144   0.125E+01    0.208E+00
DAV:   2    -0.112806347152E+04   -0.21030E+00   -0.20853E+00 26984   0.229E+00    0.108E+00
DAV:   3    -0.112806890139E+04   -0.54299E-02   -0.70286E-02 28992   0.518E-01    0.478E-01
DAV:   4    -0.112806884741E+04    0.53984E-04   -0.41787E-03 30800   0.106E-01    0.317E-01
DAV:   5    -0.112806850055E+04    0.34686E-03   -0.13132E-03 32352   0.127E-01    0.143E-01
DAV:   6    -0.112806853755E+04   -0.37006E-04   -0.76934E-04 32240   0.664E-02    0.483E-02
DAV:   7    -0.112806864707E+04   -0.10952E-03   -0.14177E-04 29104   0.285E-02    0.324E-02
DAV:   8    -0.112806861980E+04    0.27263E-04   -0.16062E-05 18032   0.130E-02    0.225E-02
DAV:   9    -0.112806864069E+04   -0.20890E-04   -0.89232E-06 15912   0.102E-02    0.179E-02
DAV:  10    -0.112806864569E+04   -0.49950E-05   -0.57229E-06 15528   0.808E-03
  18 F= -.11280686E+04 E0= -.11280686E+04  d E =0.500718E-02  mag=    65.0000
       N       E                     dE             d eps       ncg     rms          rms(c)
DAV:   1    -0.112801498476E+04    0.53656E-01   -0.31976E+00 31312   0.595E+00    0.112E+00
DAV:   2    -0.112806727565E+04   -0.52291E-01   -0.51279E-01 27728   0.110E+00    0.549E-01
DAV:   3    -0.112806860174E+04   -0.13261E-02   -0.17310E-02 29224   0.248E-01    0.243E-01
DAV:   4    -0.112806856507E+04    0.36671E-04   -0.11810E-03 30584   0.628E-02    0.153E-01
DAV:   5    -0.112806859617E+04   -0.31096E-04   -0.37468E-04 32320   0.616E-02    0.667E-02
DAV:   6    -0.112806856162E+04    0.34544E-04   -0.14954E-04 30384   0.308E-02    0.330E-02
DAV:   7    -0.112806861385E+04   -0.52231E-04   -0.41527E-05 25672   0.153E-02    0.241E-02
DAV:   8    -0.112806863767E+04   -0.23818E-04   -0.43064E-06 15128   0.759E-03    0.197E-02
DAV:   9    -0.112806865521E+04   -0.17541E-04   -0.57745E-06 15808   0.110E-02    0.167E-02
DAV:  10    -0.112806867563E+04   -0.20415E-04   -0.95115E-06 18120   0.110E-02    0.147E-02
DAV:  11    -0.112806870230E+04   -0.26669E-04   -0.93540E-06 17216   0.119E-02    0.131E-02
DAV:  12    -0.112806874084E+04   -0.38541E-04   -0.30617E-05 22192   0.260E-02    0.112E-02
DAV:  13    -0.112806878427E+04   -0.43431E-04   -0.71129E-05 26152   0.312E-02    0.893E-03
DAV:  14    -0.112806879743E+04   -0.13164E-04   -0.40690E-05 19968   0.151E-02    0.703E-03
DAV:  15    -0.112806880516E+04   -0.77319E-05   -0.70691E-06 15624   0.710E-03
  19 F= -.11280688E+04 E0= -.11280688E+04  d E =-.159475E-03  mag=    65.0000
       N       E                     dE             d eps       ncg     rms          rms(c)
DAV:   1    -0.112794077123E+04    0.12803E+00   -0.88644E+00 31064   0.982E+00    0.162E+00
DAV:   2    -0.112807149448E+04   -0.13072E+00   -0.13005E+00 26880   0.179E+00    0.861E-01
DAV:   3    -0.112807457386E+04   -0.30794E-02   -0.43404E-02 29096   0.399E-01    0.368E-01
DAV:   4    -0.112807426220E+04    0.31166E-03   -0.25443E-03 30512   0.823E-02    0.248E-01
DAV:   5    -0.112807383076E+04    0.43144E-03   -0.83194E-04 32424   0.986E-02    0.106E-01
DAV:   6    -0.112807380168E+04    0.29076E-04   -0.46838E-04 32120   0.501E-02    0.368E-02
DAV:   7    -0.112807382615E+04   -0.24469E-04   -0.83246E-05 28032   0.212E-02    0.243E-02
DAV:   8    -0.112807381974E+04    0.64126E-05   -0.83139E-06 15520   0.841E-03
  20 F= -.11280738E+04 E0= -.11280738E+04  d E =-.501457E-02  mag=    65.0000
       N       E                     dE             d eps       ncg     rms          rms(c)
DAV:   1    -0.112805639447E+04    0.17432E-01   -0.36738E-01 35896   0.313E+00    0.563E-01
DAV:   2    -0.112807357899E+04   -0.17185E-01   -0.15326E-01 26848   0.558E-01    0.257E-01
DAV:   3    -0.112807413458E+04   -0.55559E-03   -0.51475E-03 30056   0.131E-01    0.104E-01
DAV:   4    -0.112807413319E+04    0.13953E-05   -0.30359E-04 29832   0.263E-02    0.694E-02
DAV:   5    -0.112807408492E+04    0.48272E-04   -0.42743E-05 26912   0.253E-02    0.360E-02
DAV:   6    -0.112807406308E+04    0.21832E-04   -0.23685E-05 20576   0.151E-02    0.109E-02
DAV:   7    -0.112807406280E+04    0.28843E-06   -0.10755E-05 16264   0.865E-03
  21 F= -.11280741E+04 E0= -.11280741E+04  d E =-.243057E-03  mag=    65.0000
       N       E                     dE             d eps       ncg     rms          rms(c)
DAV:   1    -0.112807177073E+04    0.22924E-02   -0.12634E-01 31592   0.130E+00    0.220E-01
DAV:   2    -0.112807388226E+04   -0.21115E-02   -0.22030E-02 27760   0.245E-01    0.108E-01
DAV:   3    -0.112807393183E+04   -0.49574E-04   -0.69895E-04 29544   0.550E-02    0.530E-02
DAV:   4    -0.112807394998E+04   -0.18145E-04   -0.42724E-05 21280   0.124E-02    0.332E-02
DAV:   5    -0.112807396084E+04   -0.10862E-04   -0.17745E-05 17936   0.144E-02    0.158E-02
DAV:   6    -0.112807396811E+04   -0.72742E-05   -0.11892E-05 14776   0.811E-03
  22 F= -.11280740E+04 E0= -.11280740E+04  d E =0.946843E-04  mag=    65.0000
       N       E                     dE             d eps       ncg     rms          rms(c)
DAV:   1    -0.112807317131E+04    0.78953E-03   -0.43053E-02 31592   0.743E-01    0.116E-01
DAV:   2    -0.112807387330E+04   -0.70199E-03   -0.70566E-03 27440   0.139E-01    0.553E-02
DAV:   3    -0.112807387326E+04    0.41779E-07   -0.21680E-04 28168   0.293E-02    0.239E-02
DAV:   4    -0.112807387340E+04   -0.13949E-06   -0.13442E-05 18000   0.742E-03
  23 F= -.11280739E+04 E0= -.11280739E+04  d E =0.947133E-04  mag=    65.0000
