       N       E                     dE             d eps       ncg     rms          rms(c)
DAV:   1     0.112518773688E+05    0.11252E+05   -0.42997E+05 34760   0.160E+03
DAV:   2     0.299226671353E+02   -0.11222E+05   -0.10206E+05 34160   0.487E+02
DAV:   3    -0.160854186549E+04   -0.16385E+04   -0.15523E+04 36400   0.198E+02
DAV:   4    -0.169303774115E+04   -0.84496E+02   -0.83286E+02 39290   0.457E+01
DAV:   5    -0.169411615497E+04   -0.10784E+01   -0.10751E+01 37600   0.559E+00    0.146E+02
DAV:   6    -0.128562273392E+04    0.40849E+03   -0.80870E+02 41320   0.757E+01    0.119E+02
DAV:   7    -0.133560018585E+04   -0.49977E+02   -0.36043E+02 37040   0.640E+01    0.880E+01
DAV:   8    -0.131030397697E+04    0.25296E+02   -0.49887E+01 38820   0.225E+01    0.683E+01
DAV:   9    -0.131749014803E+04   -0.71862E+01   -0.47609E+01 37040   0.299E+01    0.640E+01
DAV:  10    -0.132337861924E+04   -0.58885E+01   -0.25603E+01 37980   0.159E+01    0.384E+01
DAV:  11    -0.131901026051E+04    0.43684E+01   -0.79486E+00 36840   0.115E+01    0.145E+01
DAV:  12    -0.132025334517E+04   -0.12431E+01   -0.65827E+00 38680   0.471E+00    0.168E+01
DAV:  13    -0.132195763443E+04   -0.17043E+01   -0.16067E+01 36900   0.373E+00    0.238E+01
DAV:  14    -0.132092121402E+04    0.10364E+01   -0.97699E-01 36590   0.306E+00    0.172E+01
DAV:  15    -0.132088700258E+04    0.34211E-01   -0.10771E+00 40120   0.106E+00    0.134E+01
DAV:  16    -0.132146410729E+04   -0.57710E+00   -0.18328E+00 35140   0.809E-01    0.169E+01
DAV:  17    -0.132178060784E+04   -0.31650E+00   -0.57044E-01 36490   0.109E+00    0.187E+01
DAV:  18    -0.132239199203E+04   -0.61138E+00   -0.68413E+00 43230   0.268E+00    0.186E+01
DAV:  19    -0.132341787701E+04   -0.10259E+01   -0.72366E-01 35380   0.175E+00    0.172E+01
DAV:  20    -0.132391552739E+04   -0.49765E+00   -0.18545E-01 37610   0.177E+00    0.165E+01
DAV:  21    -0.132408618118E+04   -0.17065E+00   -0.12468E-01 45050   0.121E+00    0.155E+01
DAV:  22    -0.132419644360E+04   -0.11026E+00   -0.31234E-01 39790   0.950E-01    0.142E+01
DAV:  23    -0.132428348866E+04   -0.87045E-01   -0.78177E-02 35350   0.476E-01    0.142E+01
DAV:  24    -0.132442076742E+04   -0.13728E+00   -0.44811E-02 39580   0.906E-01    0.148E+01
DAV:  25    -0.132446222392E+04   -0.41456E-01   -0.11348E-01 42240   0.151E+00    0.161E+01
DAV:  26    -0.132430417302E+04    0.15805E+00   -0.10052E-01 43180   0.112E+00    0.171E+01
DAV:  27    -0.132414855216E+04    0.15562E+00   -0.97731E-02 43530   0.959E-01    0.154E+01
DAV:  28    -0.132443601373E+04   -0.28746E+00   -0.22705E-01 36650   0.998E-01    0.156E+01
DAV:  29    -0.132445625677E+04   -0.20243E-01   -0.16835E-02 36780   0.330E-01    0.154E+01
DAV:  30    -0.132445371341E+04    0.25434E-02   -0.28145E-03 35110   0.107E-01    0.154E+01
DAV:  31    -0.132445429458E+04   -0.58118E-03   -0.17678E-04 31660   0.736E-02    0.154E+01
DAV:  32    -0.132448899146E+04   -0.34697E-01   -0.16765E-02 43820   0.822E-01    0.150E+01
DAV:  33    -0.132459887486E+04   -0.10988E+00   -0.66919E-02 45590   0.112E+00    0.160E+01
DAV:  34    -0.132482735680E+04   -0.22848E+00   -0.83316E-02 35090   0.636E-01    0.204E+01
DAV:  35    -0.132494506593E+04   -0.11771E+00   -0.39215E-02 35040   0.522E-01    0.212E+01
DAV:  36    -0.132509770916E+04   -0.15264E+00   -0.29093E-02 37730   0.565E-01    0.257E+01
DAV:  37    -0.132547326954E+04   -0.37556E+00   -0.40763E-02 37070   0.609E-01    0.340E+01
DAV:  38    -0.132557522508E+04   -0.10196E+00   -0.46881E-02 34620   0.694E-01    0.347E+01
DAV:  39    -0.132559915454E+04   -0.23929E-01   -0.17815E-02 35820   0.365E-01    0.350E+01
DAV:  40    -0.132564071580E+04   -0.41561E-01   -0.63718E-03 35360   0.212E-01    0.352E+01
DAV:  41    -0.132563205308E+04    0.86627E-02   -0.17410E-03 38690   0.153E-01    0.352E+01
DAV:  42    -0.132558781210E+04    0.44241E-01   -0.16836E-03 44950   0.232E-01    0.352E+01
DAV:  43    -0.132550445034E+04    0.83362E-01   -0.36044E-03 47570   0.350E-01    0.352E+01
DAV:  44    -0.132546241813E+04    0.42032E-01   -0.53169E-03 44670   0.189E-01    0.353E+01
DAV:  45    -0.132546640041E+04   -0.39823E-02   -0.26362E-03 39580   0.174E-01    0.352E+01
DAV:  46    -0.132549612004E+04   -0.29720E-01   -0.12558E-02 43000   0.685E-01    0.347E+01
DAV:  47    -0.132553581748E+04   -0.39697E-01   -0.11193E-02 40910   0.226E-01    0.347E+01
DAV:  48    -0.132553223038E+04    0.35871E-02   -0.16840E-03 38040   0.122E-01    0.347E+01
DAV:  49    -0.132553995946E+04   -0.77291E-02   -0.54863E-04 35830   0.559E-02    0.346E+01
DAV:  50    -0.132552783571E+04    0.12124E-01   -0.73784E-04 41030   0.130E-01    0.345E+01
DAV:  51    -0.132556935390E+04   -0.41518E-01   -0.86443E-03 43470   0.438E-01    0.348E+01
DAV:  52    -0.132576644395E+04   -0.19709E+00   -0.17308E-02 41460   0.723E-01    0.349E+01
DAV:  53    -0.132592614267E+04   -0.15970E+00   -0.24195E-02 45400   0.773E-01    0.350E+01
DAV:  54    -0.132596901139E+04   -0.42869E-01   -0.18606E-02 39240   0.241E-01    0.350E+01
DAV:  55    -0.132600245355E+04   -0.33442E-01   -0.14827E-03 36950   0.127E-01    0.351E+01
DAV:  56    -0.132675452082E+04   -0.75207E+00   -0.12781E-01 41840   0.255E+00    0.377E+01
DAV:  57    -0.132695351015E+04   -0.19899E+00   -0.27084E-01 36360   0.798E-01    0.394E+01
DAV:  58    -0.132690801062E+04    0.45500E-01   -0.53390E-02 36110   0.891E-01    0.398E+01
DAV:  59    -0.132658676400E+04    0.32125E+00   -0.35249E-02 38020   0.814E-01    0.394E+01
DAV:  60    -0.132644366574E+04    0.14310E+00   -0.17041E-02 43990   0.455E-01    0.393E+01
DAV:  61    -0.133798563604E+04   -0.11542E+02   -0.64534E+00 41770   0.201E+01    0.692E+01
DAV:  62    -0.133953564404E+04   -0.15500E+01   -0.53457E+00 36860   0.397E+00    0.701E+01
DAV:  63    -0.133990561682E+04   -0.36997E+00   -0.23561E-01 37790   0.961E-01    0.703E+01
DAV:  64    -0.134007881643E+04   -0.17320E+00   -0.24481E-02 38970   0.400E-01    0.704E+01
DAV:  65    -0.134016063933E+04   -0.81823E-01   -0.49860E-03 39780   0.230E-01    0.704E+01
DAV:  66    -0.133752895125E+04    0.26317E+01   -0.21838E+00 41980   0.892E+00    0.664E+01
DAV:  67    -0.133649926591E+04    0.10297E+01   -0.16441E+00 37230   0.244E+00    0.629E+01
DAV:  68    -0.133673321530E+04   -0.23395E+00   -0.15494E-01 36710   0.103E+00    0.643E+01
DAV:  69    -0.133653141586E+04    0.20180E+00   -0.12210E-01 37880   0.115E+00    0.633E+01
DAV:  70    -0.133671822878E+04   -0.18681E+00   -0.10935E-01 37200   0.941E-01    0.624E+01
DAV:  71    -0.132463374161E+04    0.12084E+02   -0.69537E+00 41940   0.992E+00    0.475E+01
DAV:  72    -0.132507529926E+04   -0.44156E+00   -0.20557E+00 38850   0.302E+00    0.453E+01
DAV:  73    -0.132484884132E+04    0.22646E+00   -0.14713E-01 42130   0.117E+00    0.415E+01
DAV:  74    -0.132529313200E+04   -0.44429E+00   -0.19796E-01 36090   0.101E+00    0.412E+01
DAV:  75    -0.132503865010E+04    0.25448E+00   -0.26407E-02 38630   0.804E-01    0.408E+01
DAV:  76    -0.132465237324E+04    0.38628E+00   -0.35706E+00 42260   0.121E+01    0.344E+01
DAV:  77    -0.132560160346E+04   -0.94923E+00   -0.35748E+00 37690   0.715E+00    0.245E+01
DAV:  78    -0.132507901947E+04    0.52258E+00   -0.59569E-01 41860   0.290E+00    0.208E+01
DAV:  79    -0.132446013773E+04    0.61888E+00   -0.66630E-01 45670   0.290E+00    0.173E+01
DAV:  80    -0.132418863196E+04    0.27151E+00   -0.78414E-01 47070   0.224E+00    0.139E+01
DAV:  81    -0.132499530728E+04   -0.80668E+00   -0.71129E+00 41420   0.538E+00    0.174E+01
DAV:  82    -0.132476432170E+04    0.23099E+00   -0.71393E-01 37280   0.302E+00    0.168E+01
DAV:  83    -0.132437042449E+04    0.39390E+00   -0.19881E-01 43260   0.178E+00    0.150E+01
DAV:  84    -0.132435411370E+04    0.16311E-01   -0.34738E-01 44600   0.111E+00    0.134E+01
DAV:  85    -0.132437860082E+04   -0.24487E-01   -0.10402E-01 39170   0.835E-01    0.140E+01
DAV:  86    -0.132438592945E+04   -0.73286E-02   -0.72570E-02 41590   0.637E-01    0.150E+01
DAV:  87    -0.132441506822E+04   -0.29139E-01   -0.34835E-02 35500   0.323E-01    0.156E+01
DAV:  88    -0.132441310112E+04    0.19671E-02   -0.10269E-02 41320   0.670E-01    0.157E+01
DAV:  89    -0.132437497135E+04    0.38130E-01   -0.31354E-02 45970   0.932E-01    0.154E+01
DAV:  90    -0.132443068721E+04   -0.55716E-01   -0.39312E-02 43040   0.822E-01    0.159E+01
DAV:  91    -0.132466106202E+04   -0.23037E+00   -0.25988E-01 44100   0.291E+00    0.155E+01
DAV:  92    -0.132450798227E+04    0.15308E+00   -0.16795E-01 39870   0.120E+00    0.154E+01
DAV:  93    -0.132444462419E+04    0.63358E-01   -0.40062E-02 47150   0.714E-01    0.153E+01
DAV:  94    -0.132439662799E+04    0.47996E-01   -0.26915E-02 47380   0.618E-01    0.152E+01
DAV:  95    -0.132438461744E+04    0.12011E-01   -0.15546E-02 47190   0.613E-01    0.152E+01
DAV:  96    -0.132419498543E+04    0.18963E+00   -0.14502E-01 41560   0.281E+00    0.144E+01
DAV:  97    -0.132423865179E+04   -0.43666E-01   -0.10249E-01 41120   0.101E+00    0.144E+01
DAV:  98    -0.132425879172E+04   -0.20140E-01   -0.38696E-02 44930   0.910E-01    0.141E+01
DAV:  99    -0.132430376577E+04   -0.44974E-01   -0.65057E-02 48330   0.117E+00    0.140E+01
DAV: 100    -0.132429673066E+04    0.70351E-02   -0.82930E-02 47770   0.950E-01    0.138E+01
DAV: 101    -0.132412998125E+04    0.16675E+00   -0.30192E-01 42030   0.193E+00    0.101E+01
DAV: 102    -0.132434842226E+04   -0.21844E+00   -0.13245E+00 36770   0.799E-01    0.913E+00
DAV: 103    -0.132453548753E+04   -0.18707E+00   -0.15051E-01 36550   0.137E+00    0.102E+01
DAV: 104    -0.132451375530E+04    0.21732E-01   -0.25922E-02 37350   0.866E-01    0.958E+00
DAV: 105    -0.132449003833E+04    0.23717E-01   -0.63842E-02 47500   0.150E+00    0.878E+00
DAV: 106    -0.132457208297E+04   -0.82045E-01   -0.11227E-01 41970   0.275E+00    0.844E+00
DAV: 107    -0.132456697024E+04    0.51127E-02   -0.10459E-01 40010   0.115E+00    0.775E+00
DAV: 108    -0.132457975165E+04   -0.12781E-01   -0.47643E-02 47180   0.810E-01    0.733E+00
DAV: 109    -0.132459996785E+04   -0.20216E-01   -0.25807E-02 46980   0.553E-01    0.722E+00
DAV: 110    -0.132461222179E+04   -0.12254E-01   -0.14836E-02 44970   0.415E-01    0.741E+00
DAV: 111    -0.132464789324E+04   -0.35671E-01   -0.31686E-01 42220   0.393E+00    0.888E+00
DAV: 112    -0.132465255561E+04   -0.46624E-02   -0.22967E-01 37890   0.984E-01    0.853E+00
DAV: 113    -0.132460295226E+04    0.49603E-01   -0.28495E-02 46030   0.845E-01    0.772E+00
DAV: 114    -0.132456128949E+04    0.41663E-01   -0.47989E-02 47630   0.102E+00    0.682E+00
DAV: 115    -0.132455360015E+04    0.76893E-02   -0.34145E-02 44530   0.425E-01    0.659E+00
DAV: 116    -0.132462028898E+04   -0.66689E-01   -0.18391E-01 43180   0.255E+00    0.437E+00
DAV: 117    -0.132460246817E+04    0.17821E-01   -0.82556E-02 37930   0.784E-01    0.391E+00
DAV: 118    -0.132458308788E+04    0.19380E-01   -0.26097E-02 45270   0.785E-01    0.336E+00
DAV: 119    -0.132456882305E+04    0.14265E-01   -0.29681E-02 46610   0.707E-01    0.297E+00
DAV: 120    -0.132455069366E+04    0.18129E-01   -0.12724E-02 45100   0.591E-01    0.256E+00
DAV: 121    -0.132451798295E+04    0.32711E-01   -0.20127E-02 45240   0.109E+00    0.169E+00
DAV: 122    -0.132451552996E+04    0.24530E-02   -0.27186E-02 37920   0.352E-01    0.145E+00
DAV: 123    -0.132451300483E+04    0.25251E-02   -0.24636E-03 41610   0.184E-01    0.121E+00
DAV: 124    -0.132451070935E+04    0.22955E-02   -0.77895E-04 43150   0.235E-01    0.101E+00
DAV: 125    -0.132450879197E+04    0.19174E-02   -0.12780E-03 43660   0.162E-01    0.859E-01
DAV: 126    -0.132450718251E+04    0.16095E-02   -0.14904E-03 43100   0.222E-01    0.650E-01
DAV: 127    -0.132450685815E+04    0.32436E-03   -0.14208E-03 37300   0.797E-02    0.608E-01
DAV: 128    -0.132450678644E+04    0.71705E-04   -0.19137E-04 34500   0.400E-02    0.567E-01
DAV: 129    -0.132450649818E+04    0.28826E-03   -0.87345E-05 26140   0.547E-02    0.499E-01
DAV: 130    -0.132450645134E+04    0.46844E-04   -0.18436E-04 34290   0.494E-02
   1 F= -.13245065E+04 E0= -.13245065E+04  d E =-.132451E+04  mag=   114.0000
       N       E                     dE             d eps       ncg     rms          rms(c)
DAV:   1    -0.132450706697E+04   -0.56879E-03   -0.27530E-03 46820   0.263E-01    0.453E-01
DAV:   2    -0.132450775822E+04   -0.69125E-03   -0.74560E-03 38440   0.454E-01    0.477E-01
DAV:   3    -0.132450622430E+04    0.15339E-02   -0.27829E-03 37430   0.216E-01    0.158E-01
DAV:   4    -0.132450671213E+04   -0.48783E-03   -0.33282E-04 36850   0.635E-02    0.881E-02
DAV:   5    -0.132450670388E+04    0.82580E-05   -0.10969E-04 29660   0.270E-02
   2 F= -.13245067E+04 E0= -.13245067E+04  d E =-.252540E-03  mag=   114.0000
       N       E                     dE             d eps       ncg     rms          rms(c)
DAV:   1    -0.132450721034E+04   -0.49820E-03   -0.19023E-03 45940   0.217E-01    0.446E-02
DAV:   2    -0.132450731367E+04   -0.10334E-03   -0.55674E-04 36090   0.422E-02    0.374E-02
DAV:   3    -0.132450727965E+04    0.34023E-04   -0.40675E-05 20580   0.203E-02    0.213E-02
DAV:   4    -0.132450729742E+04   -0.17766E-04   -0.49462E-06 18110   0.750E-03
   3 F= -.13245073E+04 E0= -.13245073E+04  d E =-.593540E-03  mag=   114.0000
       N       E                     dE             d eps       ncg     rms          rms(c)
DAV:   1    -0.132379498587E+04    0.71229E+00   -0.24395E+01 48400   0.231E+01    0.396E+00
DAV:   2    -0.132448769322E+04   -0.69271E+00   -0.61554E+00 37100   0.390E+00    0.228E+00
DAV:   3    -0.132450317795E+04   -0.15485E-01   -0.21127E-01 37130   0.102E+00    0.110E+00
DAV:   4    -0.132450463893E+04   -0.14610E-02   -0.16953E-02 40350   0.338E-01    0.729E-01
DAV:   5    -0.132450277725E+04    0.18617E-02   -0.32268E-03 40640   0.196E-01    0.494E-01
DAV:   6    -0.132450181065E+04    0.96660E-03   -0.30161E-03 44330   0.212E-01    0.192E-01
DAV:   7    -0.132450188391E+04   -0.73264E-04   -0.15173E-03 38660   0.975E-02    0.785E-02
DAV:   8    -0.132450216737E+04   -0.28346E-03   -0.17536E-04 29920   0.404E-02    0.515E-02
DAV:   9    -0.132450220813E+04   -0.40759E-04   -0.32799E-05 20350   0.190E-02
   4 F= -.13245022E+04 E0= -.13245022E+04  d E =0.508929E-02  mag=   114.0000
       N       E                     dE             d eps       ncg     rms          rms(c)
DAV:   1    -0.132441130225E+04    0.90865E-01   -0.36187E+00 48660   0.913E+00    0.161E+00
DAV:   2    -0.132452404310E+04   -0.11274E+00   -0.99264E-01 37450   0.153E+00    0.796E-01
DAV:   3    -0.132452799447E+04   -0.39514E-02   -0.37731E-02 37290   0.390E-01    0.421E-01
DAV:   4    -0.132452748581E+04    0.50865E-03   -0.26692E-03 39450   0.115E-01    0.279E-01
DAV:   5    -0.132452736626E+04    0.11955E-03   -0.49639E-04 37960   0.716E-02    0.188E-01
DAV:   6    -0.132452702160E+04    0.34467E-03   -0.48122E-04 41210   0.846E-02    0.839E-02
DAV:   7    -0.132452717221E+04   -0.15061E-03   -0.25479E-04 36340   0.448E-02    0.337E-02
DAV:   8    -0.132452712171E+04    0.50497E-04   -0.36292E-05 20250   0.203E-02    0.217E-02
DAV:   9    -0.132452711000E+04    0.11716E-04   -0.11544E-05 18490   0.993E-03
   5 F= -.13245271E+04 E0= -.13245271E+04  d E =-.249019E-01  mag=   114.0000
       N       E                     dE             d eps       ncg     rms          rms(c)
DAV:   1    -0.132451745185E+04    0.96699E-02   -0.62860E-01 44900   0.315E+00    0.540E-01
DAV:   2    -0.132453069278E+04   -0.13241E-01   -0.12152E-01 36790   0.555E-01    0.275E-01
DAV:   3    -0.132453097922E+04   -0.28644E-03   -0.39491E-03 37390   0.121E-01    0.136E-01
DAV:   4    -0.132453086942E+04    0.10980E-03   -0.24149E-04 29630   0.304E-02    0.937E-02
DAV:   5    -0.132453080285E+04    0.66568E-04   -0.63934E-05 21700   0.275E-02    0.595E-02
DAV:   6    -0.132453076333E+04    0.39522E-04   -0.73168E-05 24150   0.300E-02
   6 F= -.13245308E+04 E0= -.13245308E+04  d E =-.365333E-02  mag=   114.0000
       N       E                     dE             d eps       ncg     rms          rms(c)
DAV:   1    -0.132445437563E+04    0.76427E-01   -0.57862E+00 40770   0.811E+00    0.128E+00
DAV:   2    -0.132453346178E+04   -0.79086E-01   -0.80644E-01 36390   0.148E+00    0.642E-01
DAV:   3    -0.132453387587E+04   -0.41408E-03   -0.21700E-02 36930   0.302E-01    0.341E-01
DAV:   4    -0.132453364030E+04    0.23557E-03   -0.13998E-03 38810   0.727E-02    0.251E-01
DAV:   5    -0.132453306388E+04    0.57641E-03   -0.33686E-04 36640   0.742E-02    0.151E-01
DAV:   6    -0.132453313282E+04   -0.68937E-04   -0.47415E-04 40560   0.734E-02    0.651E-02
DAV:   7    -0.132453300363E+04    0.12920E-03   -0.18769E-04 33500   0.369E-02    0.280E-02
DAV:   8    -0.132453302448E+04   -0.20851E-04   -0.16118E-05 18350   0.111E-02
   7 F= -.13245330E+04 E0= -.13245330E+04  d E =-.226115E-02  mag=   114.0000
       N       E                     dE             d eps       ncg     rms          rms(c)
DAV:   1    -0.132324469924E+04    0.12883E+01   -0.63330E+01 45980   0.315E+01    0.530E+00
DAV:   2    -0.132444227427E+04   -0.11976E+01   -0.11223E+01 37070   0.556E+00    0.282E+00
DAV:   3    -0.132447075838E+04   -0.28484E-01   -0.36422E-01 37490   0.121E+00    0.131E+00
DAV:   4    -0.132446917640E+04    0.15820E-02   -0.21338E-02 41290   0.296E-01    0.908E-01
DAV:   5    -0.132446539824E+04    0.37782E-02   -0.55555E-03 41930   0.249E-01    0.562E-01
DAV:   6    -0.132446351671E+04    0.18815E-02   -0.54277E-03 41520   0.276E-01    0.302E-01
DAV:   7    -0.132446425046E+04   -0.73375E-03   -0.31489E-03 38880   0.160E-01    0.125E-01
DAV:   8    -0.132446430167E+04   -0.51210E-04   -0.40734E-04 35760   0.637E-02    0.677E-02
DAV:   9    -0.132446416981E+04    0.13186E-03   -0.81238E-05 24190   0.234E-02    0.543E-02
DAV:  10    -0.132446418590E+04   -0.16092E-04   -0.26718E-05 20140   0.185E-02
   8 F= -.13244642E+04 E0= -.13244642E+04  d E =0.688386E-01  mag=   114.0000
       N       E                     dE             d eps       ncg     rms          rms(c)
DAV:   1    -0.132422867830E+04    0.23549E+00   -0.90964E+00 49490   0.153E+01    0.265E+00
DAV:   2    -0.132452143268E+04   -0.29275E+00   -0.25828E+00 38300   0.261E+00    0.139E+00
DAV:   3    -0.132453197231E+04   -0.10540E-01   -0.10631E-01 37450   0.681E-01    0.746E-01
DAV:   4    -0.132453202333E+04   -0.51019E-04   -0.59436E-03 39730   0.167E-01    0.445E-01
DAV:   5    -0.132453067284E+04    0.13505E-02   -0.20462E-03 40750   0.129E-01    0.275E-01
DAV:   6    -0.132453046976E+04    0.20309E-03   -0.13617E-03 40830   0.132E-01    0.160E-01
DAV:   7    -0.132453022973E+04    0.24002E-03   -0.72313E-04 39270   0.798E-02    0.667E-02
DAV:   8    -0.132453038220E+04   -0.15247E-03   -0.13856E-04 29180   0.393E-02    0.367E-02
DAV:   9    -0.132453034938E+04    0.32827E-04   -0.45555E-05 19580   0.157E-02
   9 F= -.13245303E+04 E0= -.13245303E+04  d E =-.661635E-01  mag=   114.0000
       N       E                     dE             d eps       ncg     rms          rms(c)
DAV:   1    -0.132451427674E+04    0.16105E-01   -0.68368E-01 48680   0.395E+00    0.695E-01
DAV:   2    -0.132453553799E+04   -0.21261E-01   -0.18854E-01 38060   0.676E-01    0.346E-01
DAV:   3    -0.132453610316E+04   -0.56517E-03   -0.65970E-03 37230   0.165E-01    0.184E-01
DAV:   4    -0.132453611242E+04   -0.92623E-05   -0.41799E-04 33140   0.435E-02
  10 F= -.13245361E+04 E0= -.13245361E+04  d E =-.576305E-02  mag=   114.0000
       N       E                     dE             d eps       ncg     rms          rms(c)
DAV:   1    -0.132452521265E+04    0.10891E-01   -0.52580E-01 49090   0.337E+00    0.510E-01
DAV:   2    -0.132453831535E+04   -0.13103E-01   -0.11884E-01 37120   0.553E-01    0.288E-01
DAV:   3    -0.132453858005E+04   -0.26469E-03   -0.43862E-03 37380   0.142E-01    0.162E-01
DAV:   4    -0.132453856945E+04    0.10597E-04   -0.35964E-04 32520   0.499E-02
  11 F= -.13245386E+04 E0= -.13245386E+04  d E =-.245703E-02  mag=   114.0000
       N       E                     dE             d eps       ncg     rms          rms(c)
DAV:   1    -0.132450574759E+04    0.32832E-01   -0.18410E+00 44770   0.542E+00    0.849E-01
DAV:   2    -0.132454053151E+04   -0.34784E-01   -0.33509E-01 36530   0.945E-01    0.443E-01
DAV:   3    -0.132454141344E+04   -0.88192E-03   -0.10372E-02 37180   0.219E-01    0.241E-01
DAV:   4    -0.132454112159E+04    0.29185E-03   -0.83672E-04 38040   0.739E-02    0.176E-01
DAV:   5    -0.132454101157E+04    0.11003E-03   -0.22233E-04 30670   0.611E-02    0.111E-01
DAV:   6    -0.132454097032E+04    0.41251E-04   -0.26157E-04 37430   0.604E-02
  12 F= -.13245410E+04 E0= -.13245410E+04  d E =-.240086E-02  mag=   114.0000
       N       E                     dE             d eps       ncg     rms          rms(c)
DAV:   1    -0.132445412846E+04    0.86883E-01   -0.58402E+00 43570   0.859E+00    0.137E+00
DAV:   2    -0.132454049334E+04   -0.86365E-01   -0.85453E-01 35870   0.151E+00    0.689E-01
DAV:   3    -0.132454211794E+04   -0.16246E-02   -0.25327E-02 36830   0.323E-01    0.350E-01
DAV:   4    -0.132454167404E+04    0.44390E-03   -0.17998E-03 39460   0.963E-02    0.249E-01
DAV:   5    -0.132454155799E+04    0.11605E-03   -0.42673E-04 37630   0.778E-02    0.156E-01
DAV:   6    -0.132454129511E+04    0.26289E-03   -0.48463E-04 40230   0.778E-02    0.639E-02
DAV:   7    -0.132454148509E+04   -0.18999E-03   -0.19973E-04 33510   0.385E-02    0.296E-02
DAV:   8    -0.132454144465E+04    0.40444E-04   -0.17050E-05 18510   0.113E-02
  13 F= -.13245414E+04 E0= -.13245414E+04  d E =-.474335E-03  mag=   114.0000
       N       E                     dE             d eps       ncg     rms          rms(c)
DAV:   1    -0.132240708477E+04    0.21344E+01   -0.65505E+01 49740   0.388E+01    0.690E+00
DAV:   2    -0.132434048454E+04   -0.19334E+01   -0.16960E+01 37470   0.650E+00    0.428E+00
DAV:   3    -0.132439497484E+04   -0.54490E-01   -0.58279E-01 36800   0.158E+00    0.173E+00
DAV:   4    -0.132439534164E+04   -0.36680E-03   -0.34315E-02 41820   0.354E-01    0.116E+00
DAV:   5    -0.132439175925E+04    0.35824E-02   -0.77296E-03 41930   0.251E-01    0.724E-01
DAV:   6    -0.132438882747E+04    0.29318E-02   -0.44875E-03 44060   0.256E-01    0.290E-01
DAV:   7    -0.132439042455E+04   -0.15971E-02   -0.30216E-03 38970   0.141E-01    0.159E-01
DAV:   8    -0.132439049212E+04   -0.67566E-04   -0.45434E-04 34810   0.625E-02    0.669E-02
DAV:   9    -0.132439036602E+04    0.12610E-03   -0.88803E-05 26110   0.249E-02    0.411E-02
DAV:  10    -0.132439040852E+04   -0.42504E-04   -0.25752E-05 18770   0.146E-02
  14 F= -.13243904E+04 E0= -.13243904E+04  d E =0.151036E+00  mag=   114.0000
       N       E                     dE             d eps       ncg     rms          rms(c)
DAV:   1    -0.132380507156E+04    0.58529E+00   -0.22713E+01 49760   0.236E+01    0.405E+00
DAV:   2    -0.132450610853E+04   -0.70104E+00   -0.60601E+00 37730   0.391E+00    0.224E+00
DAV:   3    -0.132453230455E+04   -0.26196E-01   -0.26509E-01 37010   0.112E+00    0.116E+00
DAV:   4    -0.132453273719E+04   -0.43264E-03   -0.19338E-02 39240   0.344E-01    0.684E-01
DAV:   5    -0.132453031776E+04    0.24194E-02   -0.41059E-03 39020   0.195E-01    0.477E-01
DAV:   6    -0.132452915491E+04    0.11629E-02   -0.28441E-03 42750   0.191E-01    0.196E-01
DAV:   7    -0.132452917354E+04   -0.18627E-04   -0.12212E-03 39580   0.866E-02    0.801E-02
DAV:   8    -0.132452935525E+04   -0.18171E-03   -0.21651E-04 32760   0.402E-02    0.553E-02
DAV:   9    -0.132452930875E+04    0.46499E-04   -0.47017E-05 20480   0.224E-02
  15 F= -.13245293E+04 E0= -.13245293E+04  d E =-.138900E+00  mag=   114.0000
       N       E                     dE             d eps       ncg     rms          rms(c)
DAV:   1    -0.132445432242E+04    0.75033E-01   -0.27434E+00 49740   0.815E+00    0.138E+00
DAV:   2    -0.132453900882E+04   -0.84686E-01   -0.73065E-01 37280   0.133E+00    0.675E-01
DAV:   3    -0.132454183744E+04   -0.28286E-02   -0.29364E-02 36720   0.330E-01    0.334E-01
DAV:   4    -0.132454181881E+04    0.18633E-04   -0.18822E-03 39160   0.864E-02    0.220E-01
DAV:   5    -0.132454131556E+04    0.50325E-03   -0.40923E-04 36620   0.665E-02    0.148E-01
DAV:   6    -0.132454134679E+04   -0.31236E-04   -0.32341E-04 37490   0.656E-02
  16 F= -.13245413E+04 E0= -.13245413E+04  d E =-.120380E-01  mag=   114.0000
       N       E                     dE             d eps       ncg     rms          rms(c)
DAV:   1    -0.132452617740E+04    0.15138E-01   -0.58624E-01 48890   0.374E+00    0.610E-01
DAV:   2    -0.132454312440E+04   -0.16947E-01   -0.15005E-01 37200   0.627E-01    0.304E-01
DAV:   3    -0.132454363285E+04   -0.50845E-03   -0.50006E-03 36870   0.145E-01    0.154E-01
DAV:   4    -0.132454345336E+04    0.17949E-03   -0.29753E-04 30410   0.358E-02    0.108E-01
DAV:   5    -0.132454341089E+04    0.42475E-04   -0.76108E-05 22540   0.351E-02
  17 F= -.13245434E+04 E0= -.13245434E+04  d E =-.206410E-02  mag=   114.0000
       N       E                     dE             d eps       ncg     rms          rms(c)
DAV:   1    -0.132452779281E+04    0.15661E-01   -0.68602E-01 47020   0.374E+00    0.596E-01
DAV:   2    -0.132454438879E+04   -0.16596E-01   -0.15266E-01 37200   0.640E-01    0.306E-01
DAV:   3    -0.132454490073E+04   -0.51194E-03   -0.51894E-03 37160   0.159E-01    0.173E-01
DAV:   4    -0.132454473676E+04    0.16397E-03   -0.36259E-04 32480   0.474E-02    0.116E-01
DAV:   5    -0.132454470026E+04    0.36500E-04   -0.77857E-05 23100   0.367E-02
  18 F= -.13245447E+04 E0= -.13245447E+04  d E =-.128937E-02  mag=   114.0000
       N       E                     dE             d eps       ncg     rms          rms(c)
DAV:   1    -0.132453386917E+04    0.10868E-01   -0.52428E-01 46820   0.309E+00    0.500E-01
DAV:   2    -0.132454543608E+04   -0.11567E-01   -0.10766E-01 36500   0.524E-01    0.254E-01
DAV:   3    -0.132454572124E+04   -0.28516E-03   -0.38003E-03 37210   0.134E-01    0.139E-01
DAV:   4    -0.132454570876E+04    0.12484E-04   -0.27086E-04 30860   0.429E-02
  19 F= -.13245457E+04 E0= -.13245457E+04  d E =-.100850E-02  mag=   114.0000
       N       E                     dE             d eps       ncg     rms          rms(c)
DAV:   1    -0.132435543401E+04    0.19029E+00   -0.89924E+00 45720   0.122E+01    0.198E+00
DAV:   2    -0.132454193180E+04   -0.18650E+00   -0.17182E+00 36420   0.205E+00    0.104E+00
DAV:   3    -0.132454466055E+04   -0.27287E-02   -0.53098E-02 37030   0.450E-01    0.504E-01
DAV:   4    -0.132454465831E+04    0.22305E-05   -0.34683E-03 40260   0.134E-01    0.354E-01
DAV:   5    -0.132454411329E+04    0.54502E-03   -0.92907E-04 43290   0.128E-01    0.219E-01
DAV:   6    -0.132454388113E+04    0.23216E-03   -0.10688E-03 42010   0.126E-01    0.114E-01
DAV:   7    -0.132454385396E+04    0.27162E-04   -0.38737E-04 36990   0.609E-02
  20 F= -.13245439E+04 E0= -.13245439E+04  d E =0.185479E-02  mag=   114.0000
       N       E                     dE             d eps       ncg     rms          rms(c)
DAV:   1    -0.132438147509E+04    0.16241E+00   -0.86120E+00 44670   0.115E+01    0.184E+00
DAV:   2    -0.132454177540E+04   -0.16030E+00   -0.14997E+00 36290   0.196E+00    0.945E-01
DAV:   3    -0.132454472090E+04   -0.29455E-02   -0.48455E-02 36900   0.414E-01    0.442E-01
DAV:   4    -0.132454446085E+04    0.26005E-03   -0.29716E-03 41060   0.109E-01    0.306E-01
DAV:   5    -0.132454410717E+04    0.35367E-03   -0.69975E-04 42940   0.103E-01    0.179E-01
DAV:   6    -0.132454379716E+04    0.31001E-03   -0.72238E-04 39790   0.989E-02    0.983E-02
DAV:   7    -0.132454397634E+04   -0.17918E-03   -0.30962E-04 36640   0.543E-02    0.377E-02
DAV:   8    -0.132454397751E+04   -0.11623E-05   -0.31245E-05 20040   0.174E-02
  21 F= -.13245440E+04 E0= -.13245440E+04  d E =-.123541E-03  mag=   114.0000
       N       E                     dE             d eps       ncg     rms          rms(c)
DAV:   1    -0.132443901971E+04    0.10496E+00   -0.31520E+00 48450   0.881E+00    0.149E+00
DAV:   2    -0.132454506061E+04   -0.10604E+00   -0.93735E-01 37240   0.148E+00    0.752E-01
DAV:   3    -0.132454678309E+04   -0.17225E-02   -0.28597E-02 37290   0.340E-01    0.379E-01
DAV:   4    -0.132454690697E+04   -0.12388E-03   -0.17296E-03 40050   0.879E-02    0.271E-01
DAV:   5    -0.132454638156E+04    0.52541E-03   -0.32239E-04 34960   0.749E-02    0.177E-01
DAV:   6    -0.132454633215E+04    0.49412E-04   -0.44663E-04 41850   0.863E-02
  22 F= -.13245463E+04 E0= -.13245463E+04  d E =-.235464E-02  mag=   114.0000
       N       E                     dE             d eps       ncg     rms          rms(c)
DAV:   1    -0.132450808137E+04    0.38300E-01   -0.17622E+00 46370   0.577E+00    0.956E-01
DAV:   2    -0.132455017024E+04   -0.42089E-01   -0.38761E-01 37060   0.100E+00    0.473E-01
DAV:   3    -0.132455095018E+04   -0.77994E-03   -0.12270E-02 37190   0.228E-01    0.246E-01
DAV:   4    -0.132455094683E+04    0.33535E-05   -0.79985E-04 37880   0.595E-02    0.175E-01
DAV:   5    -0.132455080812E+04    0.13871E-03   -0.20437E-04 31880   0.547E-02    0.112E-01
DAV:   6    -0.132455075129E+04    0.56825E-04   -0.23661E-04 36060   0.609E-02    0.548E-02
DAV:   7    -0.132455076648E+04   -0.15190E-04   -0.10380E-04 23350   0.332E-02
  23 F= -.13245508E+04 E0= -.13245508E+04  d E =-.443433E-02  mag=   114.0000
       N       E                     dE             d eps       ncg     rms          rms(c)
DAV:   1    -0.132452645950E+04    0.24292E-01   -0.89087E-01 49040   0.447E+00    0.732E-01
DAV:   2    -0.132455127522E+04   -0.24816E-01   -0.21859E-01 36100   0.711E-01    0.366E-01
DAV:   3    -0.132455185849E+04   -0.58327E-03   -0.77504E-03 36830   0.160E-01    0.160E-01
DAV:   4    -0.132455186472E+04   -0.62351E-05   -0.42344E-04 31040   0.355E-02
  24 F= -.13245519E+04 E0= -.13245519E+04  d E =-.109824E-02  mag=   114.0000
       N       E                     dE             d eps       ncg     rms          rms(c)
DAV:   1    -0.132271814913E+04    0.18337E+01   -0.48113E+01 48500   0.349E+01    0.625E+00
DAV:   2    -0.132440621315E+04   -0.16881E+01   -0.14889E+01 36940   0.584E+00    0.359E+00
DAV:   3    -0.132444840744E+04   -0.42194E-01   -0.49771E-01 36700   0.141E+00    0.164E+00
DAV:   4    -0.132444845353E+04   -0.46083E-04   -0.33169E-02 39890   0.391E-01    0.118E+00
DAV:   5    -0.132444457481E+04    0.38787E-02   -0.55787E-03 42620   0.264E-01    0.806E-01
DAV:   6    -0.132444123835E+04    0.33365E-02   -0.54448E-03 44060   0.332E-01    0.395E-01
DAV:   7    -0.132444162646E+04   -0.38811E-03   -0.37809E-03 39490   0.191E-01    0.151E-01
DAV:   8    -0.132444206146E+04   -0.43500E-03   -0.61176E-04 36470   0.739E-02    0.673E-02
DAV:   9    -0.132444189669E+04    0.16477E-03   -0.11379E-04 25260   0.241E-02    0.497E-02
DAV:  10    -0.132444195178E+04   -0.55087E-04   -0.32117E-05 19810   0.205E-02    0.322E-02
DAV:  11    -0.132444198373E+04   -0.31948E-04   -0.12683E-05 18440   0.119E-02
  25 F= -.13244420E+04 E0= -.13244420E+04  d E =0.109881E+00  mag=   114.0000
       N       E                     dE             d eps       ncg     rms          rms(c)
DAV:   1    -0.132360131548E+04    0.84064E+00   -0.26176E+01 50250   0.274E+01    0.463E+00
DAV:   2    -0.132451278740E+04   -0.91147E+00   -0.78497E+00 37170   0.448E+00    0.244E+00
DAV:   3    -0.132454175391E+04   -0.28967E-01   -0.30507E-01 37120   0.112E+00    0.115E+00
DAV:   4    -0.132454278944E+04   -0.10355E-02   -0.18782E-02 40920   0.286E-01    0.756E-01
DAV:   5    -0.132454024028E+04    0.25492E-02   -0.41293E-03 40760   0.206E-01    0.496E-01
DAV:   6    -0.132453934042E+04    0.89986E-03   -0.29417E-03 44020   0.221E-01    0.246E-01
DAV:   7    -0.132453933466E+04    0.57599E-05   -0.16679E-03 38960   0.128E-01    0.103E-01
DAV:   8    -0.132453961196E+04   -0.27730E-03   -0.26583E-04 33710   0.501E-02    0.573E-02
DAV:   9    -0.132453955855E+04    0.53412E-04   -0.58670E-05 21100   0.213E-02    0.444E-02
DAV:  10    -0.132453948291E+04    0.75636E-04   -0.18244E-05 19120   0.153E-02    0.261E-02
DAV:  11    -0.132453958240E+04   -0.99481E-04   -0.10709E-05 18480   0.110E-02    0.121E-02
DAV:  12    -0.132453956477E+04    0.17625E-04   -0.45513E-06 18200   0.787E-03
  26 F= -.13245396E+04 E0= -.13245396E+04  d E =-.975810E-01  mag=   114.0000
       N       E                     dE             d eps       ncg     rms          rms(c)
DAV:   1    -0.132452732493E+04    0.12257E-01   -0.63532E-01 49700   0.397E+00    0.649E-01
DAV:   2    -0.132454591675E+04   -0.18592E-01   -0.16163E-01 36740   0.652E-01    0.310E-01
DAV:   3    -0.132454637751E+04   -0.46076E-03   -0.57394E-03 37420   0.149E-01    0.146E-01
DAV:   4    -0.132454637571E+04    0.18019E-05   -0.32547E-04 29480   0.330E-02
  27 F= -.13245464E+04 E0= -.13245464E+04  d E =-.681094E-02  mag=   114.0000
       N       E                     dE             d eps       ncg     rms          rms(c)
DAV:   1    -0.132447366073E+04    0.72717E-01   -0.28352E+00 47630   0.770E+00    0.125E+00
DAV:   2    -0.132454812762E+04   -0.74467E-01   -0.66759E-01 36430   0.128E+00    0.615E-01
DAV:   3    -0.132454933496E+04   -0.12073E-02   -0.19909E-02 36920   0.275E-01    0.299E-01
DAV:   4    -0.132454925979E+04    0.75169E-04   -0.11530E-03 39080   0.597E-02    0.220E-01
DAV:   5    -0.132454895399E+04    0.30580E-03   -0.26556E-04 34740   0.692E-02    0.111E-01
DAV:   6    -0.132454902662E+04   -0.72638E-04   -0.27962E-04 38990   0.477E-02    0.408E-02
DAV:   7    -0.132454896710E+04    0.59523E-04   -0.89408E-05 23630   0.275E-02    0.255E-02
DAV:   8    -0.132454900395E+04   -0.36850E-04   -0.15250E-05 18400   0.111E-02
  28 F= -.13245490E+04 E0= -.13245490E+04  d E =-.262824E-02  mag=   114.0000
       N       E                     dE             d eps       ncg     rms          rms(c)
DAV:   1    -0.132452905320E+04    0.19914E-01   -0.11772E+00 44190   0.410E+00    0.630E-01
DAV:   2    -0.132454875342E+04   -0.19700E-01   -0.19180E-01 36010   0.711E-01    0.321E-01
DAV:   3    -0.132454896603E+04   -0.21261E-03   -0.56899E-03 36530   0.144E-01    0.153E-01
DAV:   4    -0.132454889615E+04    0.69876E-04   -0.33604E-04 30880   0.349E-02    0.112E-01
DAV:   5    -0.132454883618E+04    0.59972E-04   -0.87360E-05 23170   0.391E-02    0.663E-02
DAV:   6    -0.132454883854E+04   -0.23571E-05   -0.11660E-04 25770   0.355E-02
  29 F= -.13245488E+04 E0= -.13245488E+04  d E =0.165411E-03  mag=   114.0000
       N       E                     dE             d eps       ncg     rms          rms(c)
DAV:   1    -0.132397849017E+04    0.57035E+00   -0.33740E+01 44230   0.216E+01    0.332E+00
DAV:   2    -0.132452775180E+04   -0.54926E+00   -0.53176E+00 35800   0.375E+00    0.185E+00
DAV:   3    -0.132453477904E+04   -0.70272E-02   -0.16095E-01 36680   0.798E-01    0.863E-01
DAV:   4    -0.132453411361E+04    0.66542E-03   -0.10770E-02 41280   0.229E-01    0.615E-01
DAV:   5    -0.132453215716E+04    0.19565E-02   -0.24232E-03 42700   0.195E-01    0.389E-01
DAV:   6    -0.132453149191E+04    0.66525E-03   -0.29235E-03 42780   0.210E-01    0.195E-01
DAV:   7    -0.132453147225E+04    0.19659E-04   -0.13282E-03 37800   0.104E-01    0.662E-02
DAV:   8    -0.132453158737E+04   -0.11512E-03   -0.15311E-04 28940   0.295E-02    0.419E-02
DAV:   9    -0.132453160212E+04   -0.14752E-04   -0.19152E-05 19410   0.141E-02
  30 F= -.13245316E+04 E0= -.13245316E+04  d E =0.172364E-01  mag=   114.0000
       N       E                     dE             d eps       ncg     rms          rms(c)
DAV:   1    -0.132439809110E+04    0.13350E+00   -0.55612E+00 48120   0.101E+01    0.166E+00
DAV:   2    -0.132453132993E+04   -0.13324E+00   -0.12305E+00 36450   0.170E+00    0.861E-01
DAV:   3    -0.132453467205E+04   -0.33421E-02   -0.43164E-02 36290   0.433E-01    0.453E-01
DAV:   4    -0.132453502928E+04   -0.35723E-03   -0.34260E-03 39170   0.151E-01    0.290E-01
DAV:   5    -0.132453465878E+04    0.37050E-03   -0.74248E-04 38040   0.896E-02    0.187E-01
DAV:   6    -0.132453452698E+04    0.13180E-03   -0.56186E-04 40160   0.859E-02    0.756E-02
DAV:   7    -0.132453461046E+04   -0.83480E-04   -0.24462E-04 35670   0.398E-02    0.356E-02
DAV:   8    -0.132453460110E+04    0.93540E-05   -0.38171E-05 20230   0.181E-02
  31 F= -.13245346E+04 E0= -.13245346E+04  d E =-.299898E-02  mag=   114.0000
       N       E                     dE             d eps       ncg     rms          rms(c)
DAV:   1    -0.132450509931E+04    0.29511E-01   -0.13582E+00 45990   0.522E+00    0.860E-01
DAV:   2    -0.132454084836E+04   -0.35749E-01   -0.32554E-01 37100   0.885E-01    0.434E-01
DAV:   3    -0.132454141550E+04   -0.56714E-03   -0.10305E-02 36890   0.205E-01    0.226E-01
DAV:   4    -0.132454144372E+04   -0.28221E-04   -0.66471E-04 37210   0.559E-02    0.162E-01
DAV:   5    -0.132454129729E+04    0.14643E-03   -0.13770E-04 28380   0.511E-02    0.103E-01
DAV:   6    -0.132454124220E+04    0.55093E-04   -0.20630E-04 34830   0.549E-02    0.519E-02
DAV:   7    -0.132454123381E+04    0.83886E-05   -0.79719E-05 22520   0.272E-02
  32 F= -.13245412E+04 E0= -.13245412E+04  d E =-.663270E-02  mag=   114.0000
       N       E                     dE             d eps       ncg     rms          rms(c)
DAV:   1    -0.132435087490E+04    0.19037E+00   -0.92404E+00 46460   0.125E+01    0.200E+00
DAV:   2    -0.132453930875E+04   -0.18843E+00   -0.17415E+00 36140   0.210E+00    0.101E+00
DAV:   3    -0.132454209391E+04   -0.27852E-02   -0.53870E-02 36710   0.460E-01    0.484E-01
DAV:   4    -0.132454229926E+04   -0.20535E-03   -0.35837E-03 40100   0.128E-01    0.346E-01
DAV:   5    -0.132454154969E+04    0.74957E-03   -0.71439E-04 42600   0.111E-01    0.218E-01
DAV:   6    -0.132454152493E+04    0.24755E-04   -0.82956E-04 41940   0.110E-01    0.980E-02
DAV:   7    -0.132454142718E+04    0.97755E-04   -0.35566E-04 36360   0.539E-02    0.358E-02
DAV:   8    -0.132454149378E+04   -0.66601E-04   -0.31792E-05 20120   0.155E-02    0.218E-02
DAV:   9    -0.132454150145E+04   -0.76710E-05   -0.76290E-06 18320   0.865E-03
  33 F= -.13245415E+04 E0= -.13245415E+04  d E =-.267640E-03  mag=   114.0000
       N       E                     dE             d eps       ncg     rms          rms(c)
DAV:   1    -0.132403151229E+04    0.50998E+00   -0.31714E+01 42820   0.207E+01    0.319E+00
DAV:   2    -0.132452823830E+04   -0.49673E+00   -0.47978E+00 36450   0.365E+00    0.169E+00
DAV:   3    -0.132453472468E+04   -0.64864E-02   -0.14843E-01 36850   0.798E-01    0.858E-01
DAV:   4    -0.132453383007E+04    0.89460E-03   -0.98955E-03 40770   0.237E-01    0.596E-01
DAV:   5    -0.132453180989E+04    0.20202E-02   -0.25127E-03 42580   0.197E-01    0.384E-01
DAV:   6    -0.132453106207E+04    0.74782E-03   -0.29457E-03 41250   0.211E-01    0.203E-01
DAV:   7    -0.132453100907E+04    0.53005E-04   -0.13490E-03 38880   0.101E-01    0.664E-02
DAV:   8    -0.132453109768E+04   -0.88612E-04   -0.15086E-04 29490   0.323E-02    0.433E-02
DAV:   9    -0.132453111754E+04   -0.19865E-04   -0.24122E-05 19820   0.148E-02
  34 F= -.13245311E+04 E0= -.13245311E+04  d E =0.103839E-01  mag=   114.0000
       N       E                     dE             d eps       ncg     rms          rms(c)
DAV:   1    -0.132438486515E+04    0.14623E+00   -0.54676E+00 47160   0.110E+01    0.183E+00
DAV:   2    -0.132454237689E+04   -0.15751E+00   -0.14310E+00 37770   0.191E+00    0.933E-01
DAV:   3    -0.132454546059E+04   -0.30837E-02   -0.46111E-02 36940   0.456E-01    0.498E-01
DAV:   4    -0.132454523656E+04    0.22402E-03   -0.29312E-03 39520   0.121E-01    0.346E-01
DAV:   5    -0.132454478583E+04    0.45073E-03   -0.72648E-04 41550   0.104E-01    0.226E-01
DAV:   6    -0.132454442350E+04    0.36233E-03   -0.83371E-04 42020   0.120E-01    0.115E-01
DAV:   7    -0.132454452822E+04   -0.10472E-03   -0.43171E-04 38940   0.621E-02    0.396E-02
DAV:   8    -0.132454453769E+04   -0.94746E-05   -0.59327E-05 21750   0.245E-02
  35 F= -.13245445E+04 E0= -.13245445E+04  d E =-.134201E-01  mag=   114.0000
       N       E                     dE             d eps       ncg     rms          rms(c)
DAV:   1    -0.132451541664E+04    0.29112E-01   -0.15177E+00 44730   0.524E+00    0.848E-01
DAV:   2    -0.132454984140E+04   -0.34425E-01   -0.31920E-01 37340   0.926E-01    0.444E-01
DAV:   3    -0.132455041538E+04   -0.57398E-03   -0.10349E-02 37170   0.223E-01    0.248E-01
DAV:   4    -0.132455038620E+04    0.29182E-04   -0.70534E-04 37830   0.643E-02    0.169E-01
DAV:   5    -0.132455029685E+04    0.89347E-04   -0.15540E-04 28480   0.525E-02    0.114E-01
DAV:   6    -0.132455021538E+04    0.81468E-04   -0.24847E-04 36790   0.625E-02    0.571E-02
DAV:   7    -0.132455022789E+04   -0.12511E-04   -0.97723E-05 23680   0.297E-02
  36 F= -.13245502E+04 E0= -.13245502E+04  d E =-.569020E-02  mag=   114.0000
       N       E                     dE             d eps       ncg     rms          rms(c)
DAV:   1    -0.132450579235E+04    0.44423E-01   -0.18837E+00 47630   0.609E+00    0.964E-01
DAV:   2    -0.132455082608E+04   -0.45034E-01   -0.40392E-01 36500   0.995E-01    0.477E-01
DAV:   3    -0.132455160190E+04   -0.77582E-03   -0.13078E-02 36640   0.220E-01    0.223E-01
DAV:   4    -0.132455163683E+04   -0.34925E-04   -0.77093E-04 37550   0.554E-02    0.157E-01
DAV:   5    -0.132455149970E+04    0.13713E-03   -0.14243E-04 28290   0.557E-02    0.961E-02
DAV:   6    -0.132455146182E+04    0.37873E-04   -0.21111E-04 35590   0.552E-02
  37 F= -.13245515E+04 E0= -.13245515E+04  d E =-.123393E-02  mag=   114.0000
       N       E                     dE             d eps       ncg     rms          rms(c)
DAV:   1    -0.132042285079E+04    0.41286E+01   -0.11285E+02 49500   0.559E+01    0.963E+00
DAV:   2    -0.132422730938E+04   -0.38045E+01   -0.33173E+01 37420   0.919E+00    0.566E+00
DAV:   3    -0.132432510370E+04   -0.97794E-01   -0.10429E+00 37180   0.211E+00    0.232E+00
DAV:   4    -0.132432689053E+04   -0.17868E-02   -0.63757E-02 43460   0.493E-01    0.167E+00
DAV:   5    -0.132431762258E+04    0.92680E-02   -0.10362E-02 43700   0.329E-01    0.103E+00
DAV:   6    -0.132431342163E+04    0.42009E-02   -0.71387E-03 44390   0.343E-01    0.389E-01
DAV:   7    -0.132431486305E+04   -0.14414E-02   -0.50896E-03 38750   0.187E-01    0.214E-01
DAV:   8    -0.132431545913E+04   -0.59607E-03   -0.81816E-04 36950   0.859E-02    0.977E-02
DAV:   9    -0.132431512676E+04    0.33237E-03   -0.16758E-04 31160   0.320E-02    0.623E-02
DAV:  10    -0.132431517466E+04   -0.47905E-04   -0.31752E-05 19340   0.207E-02
  38 F= -.13243152E+04 E0= -.13243152E+04  d E =0.236287E+00  mag=   114.0000
       N       E                     dE             d eps       ncg     rms          rms(c)
DAV:   1    -0.132256718582E+04    0.17479E+01   -0.56189E+01 50160   0.401E+01    0.687E+00
DAV:   2    -0.132446003037E+04   -0.18928E+01   -0.16301E+01 38310   0.663E+00    0.388E+00
DAV:   3    -0.132452579890E+04   -0.65769E-01   -0.62453E-01 37310   0.174E+00    0.183E+00
DAV:   4    -0.132452628050E+04   -0.48160E-03   -0.42768E-02 39950   0.539E-01    0.114E+00
DAV:   5    -0.132452235352E+04    0.39270E-02   -0.10776E-02 40350   0.337E-01    0.792E-01
DAV:   6    -0.132451946319E+04    0.28903E-02   -0.78257E-03 41740   0.353E-01    0.409E-01
DAV:   7    -0.132451992235E+04   -0.45916E-03   -0.37823E-03 39630   0.185E-01    0.149E-01
DAV:   8    -0.132452047737E+04   -0.55502E-03   -0.83268E-04 37090   0.832E-02    0.809E-02
DAV:   9    -0.132452044565E+04    0.31711E-04   -0.16999E-04 32690   0.343E-02
  39 F= -.13245204E+04 E0= -.13245204E+04  d E =-.205271E+00  mag=   114.0000
       N       E                     dE             d eps       ncg     rms          rms(c)
DAV:   1    -0.132448018613E+04    0.40291E-01   -0.15106E+00 49450   0.685E+00    0.119E+00
DAV:   2    -0.132454151216E+04   -0.61326E-01   -0.52069E-01 37660   0.112E+00    0.563E-01
DAV:   3    -0.132454335688E+04   -0.18447E-02   -0.19015E-02 37640   0.275E-01    0.279E-01
DAV:   4    -0.132454342644E+04   -0.69556E-04   -0.11303E-03 39430   0.635E-02    0.191E-01
DAV:   5    -0.132454324782E+04    0.17861E-03   -0.23523E-04 35230   0.525E-02    0.117E-01
DAV:   6    -0.132454318524E+04    0.62587E-04   -0.19145E-04 34530   0.567E-02    0.604E-02
DAV:   7    -0.132454319077E+04   -0.55291E-05   -0.10872E-04 26250   0.358E-02
  40 F= -.13245432E+04 E0= -.13245432E+04  d E =-.227451E-01  mag=   114.0000
       N       E                     dE             d eps       ncg     rms          rms(c)
DAV:   1    -0.132441382909E+04    0.12936E+00   -0.34299E+00 49150   0.105E+01    0.175E+00
DAV:   2    -0.132455356754E+04   -0.13974E+00   -0.11952E+00 36970   0.169E+00    0.859E-01
DAV:   3    -0.132455733849E+04   -0.37709E-02   -0.42092E-02 37010   0.403E-01    0.403E-01
DAV:   4    -0.132455758106E+04   -0.24257E-03   -0.25445E-03 40090   0.943E-02    0.288E-01
DAV:   5    -0.132455718907E+04    0.39199E-03   -0.35807E-04 37250   0.779E-02    0.180E-01
DAV:   6    -0.132455711467E+04    0.74399E-04   -0.42655E-04 40940   0.922E-02    0.880E-02
DAV:   7    -0.132455710365E+04    0.11018E-04   -0.24013E-04 34890   0.504E-02
  41 F= -.13245571E+04 E0= -.13245571E+04  d E =-.139129E-01  mag=   114.0000
       N       E                     dE             d eps       ncg     rms          rms(c)
DAV:   1    -0.132453142927E+04    0.25685E-01   -0.91693E-01 49270   0.493E+00    0.759E-01
DAV:   2    -0.132456059688E+04   -0.29168E-01   -0.25679E-01 36580   0.776E-01    0.391E-01
DAV:   3    -0.132456123617E+04   -0.63929E-03   -0.89950E-03 36830   0.183E-01    0.183E-01
DAV:   4    -0.132456130674E+04   -0.70578E-04   -0.51190E-04 34870   0.448E-02    0.128E-01
DAV:   5    -0.132456113989E+04    0.16686E-03   -0.82414E-05 23990   0.400E-02    0.789E-02
DAV:   6    -0.132456119330E+04   -0.53411E-04   -0.10984E-04 26140   0.376E-02    0.375E-02
DAV:   7    -0.132456115569E+04    0.37608E-04   -0.52549E-05 20560   0.212E-02
  42 F= -.13245612E+04 E0= -.13245612E+04  d E =-.405204E-02  mag=   114.0000
       N       E                     dE             d eps       ncg     rms          rms(c)
DAV:   1    -0.132443919932E+04    0.12199E+00   -0.44676E+00 46800   0.950E+00    0.152E+00
DAV:   2    -0.132456030507E+04   -0.12111E+00   -0.10781E+00 36550   0.153E+00    0.827E-01
DAV:   3    -0.132456250820E+04   -0.22031E-02   -0.36711E-02 37060   0.358E-01    0.388E-01
DAV:   4    -0.132456260182E+04   -0.93617E-04   -0.22735E-03 40300   0.106E-01    0.277E-01
DAV:   5    -0.132456227379E+04    0.32803E-03   -0.45867E-04 40120   0.907E-02    0.170E-01
DAV:   6    -0.132456204740E+04    0.22639E-03   -0.47227E-04 41440   0.896E-02    0.817E-02
DAV:   7    -0.132456207589E+04   -0.28489E-04   -0.22494E-04 34650   0.476E-02
  43 F= -.13245621E+04 E0= -.13245621E+04  d E =-.920197E-03  mag=   114.0000
       N       E                     dE             d eps       ncg     rms          rms(c)
DAV:   1    -0.132453190459E+04    0.30143E-01   -0.12376E+00 47460   0.503E+00    0.809E-01
DAV:   2    -0.132456105965E+04   -0.29155E-01   -0.26534E-01 37190   0.851E-01    0.398E-01
DAV:   3    -0.132456171151E+04   -0.65186E-03   -0.91865E-03 37270   0.196E-01    0.196E-01
DAV:   4    -0.132456173816E+04   -0.26649E-04   -0.54940E-04 34550   0.506E-02    0.132E-01
DAV:   5    -0.132456160981E+04    0.12834E-03   -0.15616E-04 29630   0.456E-02    0.844E-02
DAV:   6    -0.132456158857E+04    0.21242E-04   -0.13933E-04 28910   0.461E-02
  44 F= -.13245616E+04 E0= -.13245616E+04  d E =0.487316E-03  mag=   114.0000
       N       E                     dE             d eps       ncg     rms          rms(c)
DAV:   1    -0.132451995387E+04    0.41656E-01   -0.21300E+00 45390   0.604E+00    0.929E-01
DAV:   2    -0.132456276641E+04   -0.42813E-01   -0.40265E-01 36860   0.102E+00    0.463E-01
DAV:   3    -0.132456351835E+04   -0.75194E-03   -0.13018E-02 37090   0.218E-01    0.223E-01
DAV:   4    -0.132456349703E+04    0.21323E-04   -0.74446E-04 37990   0.511E-02    0.160E-01
DAV:   5    -0.132456327076E+04    0.22627E-03   -0.18561E-04 33210   0.534E-02    0.850E-02
DAV:   6    -0.132456324228E+04    0.28476E-04   -0.18505E-04 35000   0.444E-02
  45 F= -.13245632E+04 E0= -.13245632E+04  d E =-.165371E-02  mag=   114.0000
       N       E                     dE             d eps       ncg     rms          rms(c)
DAV:   1    -0.132430256551E+04    0.26071E+00   -0.10864E+01 46790   0.141E+01    0.220E+00
DAV:   2    -0.132454675582E+04   -0.24419E+00   -0.22205E+00 36520   0.234E+00    0.120E+00
DAV:   3    -0.132455159876E+04   -0.48429E-02   -0.73594E-02 36900   0.519E-01    0.556E-01
DAV:   4    -0.132455140566E+04    0.19310E-03   -0.42787E-03 41030   0.131E-01    0.386E-01
DAV:   5    -0.132455090761E+04    0.49805E-03   -0.95514E-04 43800   0.117E-01    0.225E-01
DAV:   6    -0.132455028445E+04    0.62317E-03   -0.90012E-04 42390   0.110E-01    0.114E-01
DAV:   7    -0.132455059676E+04   -0.31231E-03   -0.43124E-04 37480   0.588E-02    0.431E-02
DAV:   8    -0.132455057087E+04    0.25888E-04   -0.42931E-05 20810   0.200E-02
  46 F= -.13245506E+04 E0= -.13245506E+04  d E =0.126714E-01  mag=   114.0000
       N       E                     dE             d eps       ncg     rms          rms(c)
DAV:   1    -0.132446121194E+04    0.89385E-01   -0.27375E+00 49200   0.863E+00    0.145E+00
DAV:   2    -0.132455727183E+04   -0.96060E-01   -0.85092E-01 37750   0.143E+00    0.704E-01
DAV:   3    -0.132456003825E+04   -0.27664E-02   -0.30766E-02 37390   0.352E-01    0.366E-01
DAV:   4    -0.132456011464E+04   -0.76389E-04   -0.18599E-03 39800   0.861E-02    0.252E-01
DAV:   5    -0.132455967830E+04    0.43634E-03   -0.43431E-04 39130   0.713E-02    0.157E-01
DAV:   6    -0.132455966507E+04    0.13229E-04   -0.35304E-04 40340   0.731E-02
  47 F= -.13245597E+04 E0= -.13245597E+04  d E =-.909420E-02  mag=   114.0000
       N       E                     dE             d eps       ncg     rms          rms(c)
DAV:   1    -0.132454660262E+04    0.13076E-01   -0.54575E-01 49030   0.353E+00    0.586E-01
DAV:   2    -0.132456357941E+04   -0.16977E-01   -0.15167E-01 37500   0.582E-01    0.318E-01
DAV:   3    -0.132456384883E+04   -0.26942E-03   -0.53862E-03 37120   0.145E-01    0.159E-01
DAV:   4    -0.132456393970E+04   -0.90876E-04   -0.31549E-04 31680   0.406E-02    0.104E-01
DAV:   5    -0.132456385722E+04    0.82484E-04   -0.92199E-05 24460   0.349E-02    0.684E-02
DAV:   6    -0.132456386104E+04   -0.38208E-05   -0.93632E-05 25290   0.357E-02
  48 F= -.13245639E+04 E0= -.13245639E+04  d E =-.419597E-02  mag=   114.0000
       N       E                     dE             d eps       ncg     rms          rms(c)
DAV:   1    -0.132454675348E+04    0.17104E-01   -0.57441E-01 48280   0.359E+00    0.588E-01
DAV:   2    -0.132456500653E+04   -0.18253E-01   -0.15496E-01 36730   0.569E-01    0.319E-01
DAV:   3    -0.132456527815E+04   -0.27161E-03   -0.57736E-03 37010   0.134E-01    0.148E-01
DAV:   4    -0.132456531397E+04   -0.35824E-04   -0.30371E-04 30780   0.334E-02
  49 F= -.13245653E+04 E0= -.13245653E+04  d E =-.145293E-02  mag=   114.0000
       N       E                     dE             d eps       ncg     rms          rms(c)
DAV:   1    -0.132452767319E+04    0.37605E-01   -0.13213E+00 46990   0.525E+00    0.815E-01
DAV:   2    -0.132456420740E+04   -0.36534E-01   -0.32113E-01 36720   0.825E-01    0.448E-01
DAV:   3    -0.132456467066E+04   -0.46326E-03   -0.99011E-03 36720   0.186E-01    0.216E-01
DAV:   4    -0.132456469161E+04   -0.20945E-04   -0.54189E-04 38200   0.516E-02    0.154E-01
DAV:   5    -0.132456458324E+04    0.10837E-03   -0.16216E-04 29960   0.567E-02    0.898E-02
DAV:   6    -0.132456453493E+04    0.48302E-04   -0.17363E-04 33300   0.508E-02
  50 F= -.13245645E+04 E0= -.13245645E+04  d E =0.779035E-03  mag=   114.0000
       N       E                     dE             d eps       ncg     rms          rms(c)
DAV:   1    -0.132429376955E+04    0.27081E+00   -0.87964E+00 48170   0.134E+01    0.233E+00
DAV:   2    -0.132454229740E+04   -0.24853E+00   -0.22413E+00 36730   0.223E+00    0.123E+00
DAV:   3    -0.132454811819E+04   -0.58208E-02   -0.75459E-02 37030   0.538E-01    0.600E-01
DAV:   4    -0.132454825559E+04   -0.13740E-03   -0.49656E-03 40500   0.151E-01    0.435E-01
DAV:   5    -0.132454722440E+04    0.10312E-02   -0.86064E-04 42160   0.112E-01    0.294E-01
DAV:   6    -0.132454684550E+04    0.37890E-03   -0.94326E-04 44510   0.124E-01    0.135E-01
DAV:   7    -0.132454675559E+04    0.89909E-04   -0.49453E-04 38860   0.610E-02    0.454E-02
DAV:   8    -0.132454687991E+04   -0.12432E-03   -0.66096E-05 22160   0.248E-02    0.283E-02
DAV:   9    -0.132454686574E+04    0.14169E-04   -0.17451E-05 19030   0.124E-02
  51 F= -.13245469E+04 E0= -.13245469E+04  d E =0.176692E-01  mag=   114.0000
       N       E                     dE             d eps       ncg     rms          rms(c)
DAV:   1    -0.132440312285E+04    0.14376E+00   -0.35245E+00 49140   0.103E+01    0.188E+00
DAV:   2    -0.132455852489E+04   -0.15540E+00   -0.13546E+00 37540   0.167E+00    0.956E-01
DAV:   3    -0.132456318470E+04   -0.46598E-02   -0.48748E-02 37360   0.430E-01    0.487E-01
DAV:   4    -0.132456320173E+04   -0.17030E-04   -0.30050E-03 40520   0.111E-01    0.338E-01
DAV:   5    -0.132456312162E+04    0.80112E-04   -0.51673E-04 39400   0.802E-02    0.233E-01
DAV:   6    -0.132456271373E+04    0.40789E-03   -0.52154E-04 42360   0.938E-02    0.108E-01
DAV:   7    -0.132456293753E+04   -0.22380E-03   -0.27657E-04 37390   0.461E-02    0.347E-02
DAV:   8    -0.132456293143E+04    0.61058E-05   -0.41060E-05 20870   0.202E-02
  52 F= -.13245629E+04 E0= -.13245629E+04  d E =-.160657E-01  mag=   114.0000
       N       E                     dE             d eps       ncg     rms          rms(c)
DAV:   1    -0.132455750228E+04    0.54352E-02   -0.29785E-01 47160   0.240E+00    0.392E-01
DAV:   2    -0.132456471164E+04   -0.72094E-02   -0.67141E-02 37320   0.411E-01    0.200E-01
DAV:   3    -0.132456489628E+04   -0.18464E-03   -0.23186E-03 36970   0.957E-02    0.103E-01
DAV:   4    -0.132456490479E+04   -0.85106E-05   -0.13717E-04 26520   0.241E-02
  53 F= -.13245649E+04 E0= -.13245649E+04  d E =-.197337E-02  mag=   114.0000
       N       E                     dE             d eps       ncg     rms          rms(c)
DAV:   1    -0.132454797014E+04    0.16926E-01   -0.59045E-01 47420   0.341E+00    0.557E-01
DAV:   2    -0.132456500627E+04   -0.17036E-01   -0.14944E-01 36710   0.550E-01    0.311E-01
DAV:   3    -0.132456523303E+04   -0.22675E-03   -0.54193E-03 37240   0.128E-01    0.155E-01
DAV:   4    -0.132456527041E+04   -0.37388E-04   -0.30301E-04 31410   0.358E-02
  54 F= -.13245653E+04 E0= -.13245653E+04  d E =-.365622E-03  mag=   114.0000
       N       E                     dE             d eps       ncg     rms          rms(c)
DAV:   1    -0.132455978076E+04    0.54523E-02   -0.29365E-01 45830   0.219E+00    0.332E-01
DAV:   2    -0.132456536954E+04   -0.55888E-02   -0.52028E-02 37110   0.369E-01    0.191E-01
DAV:   3    -0.132456532269E+04    0.46845E-04   -0.18013E-03 37110   0.937E-02    0.110E-01
DAV:   4    -0.132456538569E+04   -0.62994E-04   -0.12501E-04 26100   0.307E-02    0.712E-02
DAV:   5    -0.132456530949E+04    0.76197E-04   -0.46195E-05 21570   0.258E-02    0.424E-02
DAV:   6    -0.132456531353E+04   -0.40391E-05   -0.49618E-05 20820   0.209E-02
  55 F= -.13245653E+04 E0= -.13245653E+04  d E =-.431153E-04  mag=   114.0000
       N       E                     dE             d eps       ncg     rms          rms(c)
DAV:   1    -0.132454529218E+04    0.20017E-01   -0.98724E-01 46220   0.398E+00    0.623E-01
DAV:   2    -0.132456528626E+04   -0.19994E-01   -0.18868E-01 37000   0.690E-01    0.320E-01
DAV:   3    -0.132456560639E+04   -0.32014E-03   -0.66131E-03 36770   0.169E-01    0.183E-01
DAV:   4    -0.132456555861E+04    0.47780E-04   -0.48270E-04 34780   0.533E-02
  56 F= -.13245656E+04 E0= -.13245656E+04  d E =-.245084E-03  mag=   114.0000
       N       E                     dE             d eps       ncg     rms          rms(c)
DAV:   1    -0.132455610140E+04    0.95050E-02   -0.48329E-01 49080   0.308E+00    0.479E-01
DAV:   2    -0.132456655644E+04   -0.10455E-01   -0.95874E-02 37660   0.516E-01    0.256E-01
DAV:   3    -0.132456681801E+04   -0.26157E-03   -0.35774E-03 36570   0.129E-01    0.136E-01
DAV:   4    -0.132456679241E+04    0.25606E-04   -0.18250E-04 30160   0.307E-02
  57 F= -.13245668E+04 E0= -.13245668E+04  d E =-.123379E-02  mag=   114.0000
       N       E                     dE             d eps       ncg     rms          rms(c)
DAV:   1    -0.132456472445E+04    0.20936E-02   -0.10076E-01 47200   0.141E+00    0.234E-01
DAV:   2    -0.132456711598E+04   -0.23915E-02   -0.22543E-02 37540   0.242E-01    0.120E-01
DAV:   3    -0.132456723254E+04   -0.11656E-03   -0.86915E-04 36200   0.668E-02    0.710E-02
DAV:   4    -0.132456719804E+04    0.34499E-04   -0.68402E-05 22750   0.233E-02
  58 F= -.13245672E+04 E0= -.13245672E+04  d E =-.405634E-03  mag=   114.0000
       N       E                     dE             d eps       ncg     rms          rms(c)
DAV:   1    -0.132456529143E+04    0.19411E-02   -0.14324E-01 45570   0.144E+00    0.210E-01
DAV:   2    -0.132456759654E+04   -0.23051E-02   -0.22112E-02 37230   0.247E-01    0.115E-01
DAV:   3    -0.132456760128E+04   -0.47396E-05   -0.69028E-04 35950   0.536E-02    0.628E-02
DAV:   4    -0.132456759346E+04    0.78224E-05   -0.40186E-05 21310   0.153E-02
  59 F= -.13245676E+04 E0= -.13245676E+04  d E =-.395420E-03  mag=   114.0000
       N       E                     dE             d eps       ncg     rms          rms(c)
DAV:   1    -0.132455638286E+04    0.11218E-01   -0.95119E-01 42880   0.328E+00    0.482E-01
DAV:   2    -0.132456783656E+04   -0.11454E-01   -0.12009E-01 35940   0.586E-01    0.249E-01
DAV:   3    -0.132456785555E+04   -0.18997E-04   -0.35440E-03 36970   0.126E-01    0.134E-01
DAV:   4    -0.132456786123E+04   -0.56791E-05   -0.24020E-04 30930   0.396E-02
  60 F= -.13245679E+04 E0= -.13245679E+04  d E =-.267770E-03  mag=   114.0000
       N       E                     dE             d eps       ncg     rms          rms(c)
DAV:   1    -0.132456018548E+04    0.76701E-02   -0.30296E-01 47770   0.246E+00    0.396E-01
DAV:   2    -0.132456772556E+04   -0.75401E-02   -0.69138E-02 37340   0.420E-01    0.216E-01
DAV:   3    -0.132456782048E+04   -0.94922E-04   -0.25284E-03 36900   0.108E-01    0.120E-01
DAV:   4    -0.132456785030E+04   -0.29817E-04   -0.18391E-04 28200   0.336E-02
  61 F= -.13245679E+04 E0= -.13245679E+04  d E =0.109366E-04  mag=   114.0000
       N       E                     dE             d eps       ncg     rms          rms(c)
DAV:   1    -0.132456375783E+04    0.40626E-02   -0.20784E-01 47770   0.191E+00    0.310E-01
DAV:   2    -0.132456820969E+04   -0.44519E-02   -0.41056E-02 36330   0.324E-01    0.145E-01
DAV:   3    -0.132456826864E+04   -0.58944E-04   -0.13689E-03 36170   0.758E-02    0.704E-02
DAV:   4    -0.132456831022E+04   -0.41580E-04   -0.95153E-05 24030   0.231E-02
  62 F= -.13245683E+04 E0= -.13245683E+04  d E =-.459923E-03  mag=   114.0000
       N       E                     dE             d eps       ncg     rms          rms(c)
DAV:   1    -0.132456734395E+04    0.92469E-03   -0.40673E-02 48590   0.956E-01    0.141E-01
DAV:   2    -0.132456839661E+04   -0.10527E-02   -0.94828E-03 36960   0.154E-01    0.823E-02
DAV:   3    -0.132456842553E+04   -0.28921E-04   -0.37224E-04 32470   0.436E-02    0.490E-02
DAV:   4    -0.132456843537E+04   -0.98429E-05   -0.28160E-05 19700   0.167E-02
  63 F= -.13245684E+04 E0= -.13245684E+04  d E =-.125151E-03  mag=   114.0000
       N       E                     dE             d eps       ncg     rms          rms(c)
DAV:   1    -0.132456115051E+04    0.72750E-02   -0.53042E-01 43080   0.255E+00    0.367E-01
DAV:   2    -0.132456837283E+04   -0.72223E-02   -0.71708E-02 36110   0.442E-01    0.200E-01
DAV:   3    -0.132456837532E+04   -0.24929E-05   -0.22214E-03 36500   0.979E-02    0.109E-01
DAV:   4    -0.132456841054E+04   -0.35217E-04   -0.14114E-04 27880   0.295E-02
  64 F= -.13245684E+04 E0= -.13245684E+04  d E =0.248304E-04  mag=   114.0000
       N       E                     dE             d eps       ncg     rms          rms(c)
DAV:   1    -0.132456640062E+04    0.19747E-02   -0.92927E-02 46710   0.125E+00    0.207E-01
DAV:   2    -0.132456824878E+04   -0.18482E-02   -0.17389E-02 36640   0.215E-01    0.101E-01
DAV:   3    -0.132456828424E+04   -0.35459E-04   -0.61481E-04 35570   0.546E-02    0.544E-02
DAV:   4    -0.132456830486E+04   -0.20628E-04   -0.48416E-05 21580   0.190E-02
  65 F= -.13245683E+04 E0= -.13245683E+04  d E =0.105675E-03  mag=   114.0000
       N       E                     dE             d eps       ncg     rms          rms(c)
DAV:   1    -0.132456675576E+04    0.15285E-02   -0.62394E-02 48330   0.119E+00    0.192E-01
DAV:   2    -0.132456852132E+04   -0.17656E-02   -0.15801E-02 36470   0.193E-01    0.963E-02
DAV:   3    -0.132456855036E+04   -0.29037E-04   -0.57051E-04 34920   0.452E-02    0.448E-02
DAV:   4    -0.132456854280E+04    0.75594E-05   -0.30330E-05 19750   0.121E-02
  66 F= -.13245685E+04 E0= -.13245685E+04  d E =-.237935E-03  mag=   114.0000
       N       E                     dE             d eps       ncg     rms          rms(c)
DAV:   1    -0.132456806104E+04    0.48931E-03   -0.26990E-02 45850   0.648E-01    0.904E-02
DAV:   2    -0.132456850510E+04   -0.44406E-03   -0.44628E-03 36700   0.107E-01    0.545E-02
DAV:   3    -0.132456851994E+04   -0.14841E-04   -0.14365E-04 26460   0.259E-02    0.310E-02
DAV:   4    -0.132456850745E+04    0.12494E-04   -0.11945E-05 18270   0.101E-02
  67 F= -.13245685E+04 E0= -.13245685E+04  d E =0.353521E-04  mag=   114.0000
       N       E                     dE             d eps       ncg     rms          rms(c)
DAV:   1    -0.132456436031E+04    0.41596E-02   -0.27435E-01 43990   0.183E+00    0.272E-01
DAV:   2    -0.132456797647E+04   -0.36162E-02   -0.37165E-02 36110   0.324E-01    0.136E-01
DAV:   3    -0.132456800778E+04   -0.31310E-04   -0.11265E-03 36110   0.680E-02    0.712E-02
DAV:   4    -0.132456799700E+04    0.10777E-04   -0.67507E-05 23560   0.181E-02
  68 F= -.13245680E+04 E0= -.13245680E+04  d E =0.510445E-03  mag=   114.0000
       N       E                     dE             d eps       ncg     rms          rms(c)
DAV:   1    -0.132455728170E+04    0.10726E-01   -0.55770E-01 46230   0.292E+00    0.464E-01
DAV:   2    -0.132456688279E+04   -0.96011E-02   -0.92593E-02 36820   0.507E-01    0.226E-01
DAV:   3    -0.132456708571E+04   -0.20291E-03   -0.31025E-03 37060   0.117E-01    0.120E-01
DAV:   4    -0.132456708480E+04    0.90753E-06   -0.20706E-04 29210   0.334E-02
  69 F= -.13245671E+04 E0= -.13245671E+04  d E =0.912203E-03  mag=   114.0000
       N       E                     dE             d eps       ncg     rms          rms(c)
DAV:   1    -0.132456392961E+04    0.31561E-02   -0.92366E-02 49410   0.155E+00    0.297E-01
DAV:   2    -0.132456747730E+04   -0.35477E-02   -0.30008E-02 37070   0.260E-01    0.137E-01
DAV:   3    -0.132456754939E+04   -0.72088E-04   -0.11790E-03 36870   0.761E-02    0.748E-02
DAV:   4    -0.132456756171E+04   -0.12315E-04   -0.94885E-05 23420   0.262E-02
  70 F= -.13245676E+04 E0= -.13245676E+04  d E =-.476907E-03  mag=   114.0000
       N       E                     dE             d eps       ncg     rms          rms(c)
DAV:   1    -0.132456693184E+04    0.61755E-03   -0.25953E-02 46490   0.694E-01    0.111E-01
DAV:   2    -0.132456751389E+04   -0.58206E-03   -0.54719E-03 37290   0.119E-01    0.616E-02
DAV:   3    -0.132456751448E+04   -0.58721E-06   -0.19075E-04 27490   0.309E-02    0.372E-02
DAV:   4    -0.132456751577E+04   -0.12838E-05   -0.15388E-05 18500   0.112E-02
  71 F= -.13245675E+04 E0= -.13245675E+04  d E =0.459402E-04  mag=   114.0000
       N       E                     dE             d eps       ncg     rms          rms(c)
DAV:   1    -0.132456560041E+04    0.19141E-02   -0.16855E-01 42000   0.122E+00    0.168E-01
DAV:   2    -0.132456703483E+04   -0.14344E-02   -0.16330E-02 35270   0.218E-01    0.887E-02
DAV:   3    -0.132456702666E+04    0.81782E-05   -0.44950E-04 34320   0.431E-02    0.472E-02
DAV:   4    -0.132456701132E+04    0.15336E-04   -0.30920E-05 19900   0.146E-02
  72 F= -.13245670E+04 E0= -.13245670E+04  d E =0.504447E-03  mag=   114.0000
       N       E                     dE             d eps       ncg     rms          rms(c)
DAV:   1    -0.132455562736E+04    0.11399E-01   -0.83531E-01 42420   0.302E+00    0.449E-01
DAV:   2    -0.132456507183E+04   -0.94445E-02   -0.10039E-01 35470   0.538E-01    0.225E-01
DAV:   3    -0.132456517443E+04   -0.10260E-03   -0.28244E-03 37310   0.105E-01    0.113E-01
DAV:   4    -0.132456510798E+04    0.66449E-04   -0.16522E-04 27470   0.249E-02    0.836E-02
DAV:   5    -0.132456505963E+04    0.48352E-04   -0.64875E-05 19980   0.299E-02
  73 F= -.13245651E+04 E0= -.13245651E+04  d E =0.195169E-02  mag=   114.0000
       N       E                     dE             d eps       ncg     rms          rms(c)
DAV:   1    -0.132456280765E+04    0.23003E-02   -0.77502E-02 49640   0.136E+00    0.250E-01
DAV:   2    -0.132456546327E+04   -0.26556E-02   -0.22201E-02 37400   0.221E-01    0.122E-01
DAV:   3    -0.132456556655E+04   -0.10328E-03   -0.88430E-04 36850   0.576E-02    0.613E-02
DAV:   4    -0.132456555542E+04    0.11137E-04   -0.53366E-05 21500   0.170E-02
  74 F= -.13245656E+04 E0= -.13245656E+04  d E =-.495786E-03  mag=   114.0000
       N       E                     dE             d eps       ncg     rms          rms(c)
DAV:   1    -0.132456516743E+04    0.39912E-03   -0.26566E-02 46480   0.723E-01    0.115E-01
DAV:   2    -0.132456579610E+04   -0.62867E-03   -0.60027E-03 37470   0.121E-01    0.630E-02
DAV:   3    -0.132456585684E+04   -0.60736E-04   -0.19931E-04 27810   0.313E-02    0.368E-02
DAV:   4    -0.132456583068E+04    0.26155E-04   -0.15073E-05 18560   0.111E-02
  75 F= -.13245658E+04 E0= -.13245658E+04  d E =-.275267E-03  mag=   114.0000
       N       E                     dE             d eps       ncg     rms          rms(c)
DAV:   1    -0.132456489201E+04    0.96483E-03   -0.50989E-02 42600   0.760E-01    0.113E-01
DAV:   2    -0.132456548185E+04   -0.58984E-03   -0.63932E-03 35640   0.136E-01    0.572E-02
DAV:   3    -0.132456552017E+04   -0.38319E-04   -0.18075E-04 27380   0.292E-02    0.310E-02
DAV:   4    -0.132456549146E+04    0.28705E-04   -0.14843E-05 18040   0.103E-02
  76 F= -.13245655E+04 E0= -.13245655E+04  d E =0.339222E-03  mag=   114.0000
       N       E                     dE             d eps       ncg     rms          rms(c)
DAV:   1    -0.132452707775E+04    0.38442E-01   -0.32988E+00 41430   0.563E+00    0.856E-01
DAV:   2    -0.132456109580E+04   -0.34018E-01   -0.37604E-01 35830   0.103E+00    0.426E-01
DAV:   3    -0.132456136031E+04   -0.26451E-03   -0.96157E-03 36870   0.202E-01    0.225E-01
DAV:   4    -0.132456111228E+04    0.24803E-03   -0.65678E-04 38390   0.562E-02    0.169E-01
DAV:   5    -0.132456105640E+04    0.55885E-04   -0.19964E-04 30500   0.556E-02    0.105E-01
DAV:   6    -0.132456088407E+04    0.17233E-03   -0.27154E-04 37170   0.512E-02    0.400E-02
DAV:   7    -0.132456096790E+04   -0.83834E-04   -0.87244E-05 22050   0.252E-02    0.207E-02
DAV:   8    -0.132456094564E+04    0.22268E-04   -0.13078E-05 18010   0.817E-03
  77 F= -.13245609E+04 E0= -.13245609E+04  d E =0.454583E-02  mag=   114.0000
       N       E                     dE             d eps       ncg     rms          rms(c)
DAV:   1    -0.132454322692E+04    0.17741E-01   -0.19934E+00 42520   0.450E+00    0.677E-01
DAV:   2    -0.132456447057E+04   -0.21244E-01   -0.22704E-01 35880   0.821E-01    0.333E-01
DAV:   3    -0.132456463231E+04   -0.16174E-03   -0.68448E-03 37220   0.175E-01    0.184E-01
DAV:   4    -0.132456466900E+04   -0.36691E-04   -0.47764E-04 35580   0.503E-02
  78 F= -.13245647E+04 E0= -.13245647E+04  d E =-.372337E-02  mag=   114.0000
       N       E                     dE             d eps       ncg     rms          rms(c)
DAV:   1    -0.132454937142E+04    0.15261E-01   -0.45717E-01 49180   0.334E+00    0.574E-01
DAV:   2    -0.132456416518E+04   -0.14794E-01   -0.12931E-01 37320   0.555E-01    0.287E-01
DAV:   3    -0.132456446953E+04   -0.30435E-03   -0.49643E-03 37440   0.137E-01    0.146E-01
DAV:   4    -0.132456454445E+04   -0.74914E-04   -0.28336E-04 30290   0.351E-02    0.973E-02
DAV:   5    -0.132456452960E+04    0.14850E-04   -0.10202E-04 26920   0.349E-02
  79 F= -.13245645E+04 E0= -.13245645E+04  d E =0.139408E-03  mag=   114.0000
       N       E                     dE             d eps       ncg     rms          rms(c)
DAV:   1    -0.132455901577E+04    0.55287E-02   -0.19125E-01 48830   0.207E+00    0.366E-01
DAV:   2    -0.132456484071E+04   -0.58249E-02   -0.51690E-02 37300   0.357E-01    0.187E-01
DAV:   3    -0.132456504856E+04   -0.20785E-03   -0.21763E-03 37060   0.107E-01    0.111E-01
DAV:   4    -0.132456502847E+04    0.20088E-04   -0.18151E-04 27680   0.372E-02
  80 F= -.13245650E+04 E0= -.13245650E+04  d E =-.498874E-03  mag=   114.0000
       N       E                     dE             d eps       ncg     rms          rms(c)
DAV:   1    -0.132456460623E+04    0.44233E-03   -0.86454E-03 47560   0.467E-01    0.779E-02
DAV:   2    -0.132456487262E+04   -0.26639E-03   -0.26455E-03 38050   0.775E-02    0.537E-02
DAV:   3    -0.132456486653E+04    0.60925E-05   -0.10830E-04 23300   0.271E-02    0.363E-02
DAV:   4    -0.132456485751E+04    0.90171E-05   -0.12391E-05 18440   0.126E-02
  81 F= -.13245649E+04 E0= -.13245649E+04  d E =0.170956E-03  mag=   114.0000
       N       E                     dE             d eps       ncg     rms          rms(c)
DAV:   1    -0.132453252653E+04    0.32340E-01   -0.90580E-01 48620   0.468E+00    0.780E-01
DAV:   2    -0.132456278404E+04   -0.30258E-01   -0.26952E-01 36180   0.747E-01    0.393E-01
DAV:   3    -0.132456324786E+04   -0.46381E-03   -0.86749E-03 36800   0.170E-01    0.185E-01
DAV:   4    -0.132456328033E+04   -0.32470E-04   -0.51019E-04 33810   0.487E-02    0.138E-01
DAV:   5    -0.132456314195E+04    0.13838E-03   -0.89202E-05 23200   0.438E-02    0.924E-02
DAV:   6    -0.132456309128E+04    0.50669E-04   -0.13414E-04 27740   0.486E-02    0.386E-02
DAV:   7    -0.132456310806E+04   -0.16779E-04   -0.67375E-05 23050   0.231E-02
  82 F= -.13245631E+04 E0= -.13245631E+04  d E =0.174946E-02  mag=   114.0000
       N       E                     dE             d eps       ncg     rms          rms(c)
DAV:   1    -0.132455203036E+04    0.11061E-01   -0.37329E-01 48860   0.309E+00    0.492E-01
DAV:   2    -0.132456431235E+04   -0.12282E-01   -0.10739E-01 36220   0.498E-01    0.248E-01
DAV:   3    -0.132456456604E+04   -0.25368E-03   -0.37557E-03 37100   0.120E-01    0.124E-01
DAV:   4    -0.132456458483E+04   -0.18794E-04   -0.22317E-04 28930   0.348E-02
  83 F= -.13245646E+04 E0= -.13245646E+04  d E =-.147677E-02  mag=   114.0000
       N       E                     dE             d eps       ncg     rms          rms(c)
DAV:   1    -0.132456041032E+04    0.41557E-02   -0.11090E-01 49190   0.178E+00    0.277E-01
DAV:   2    -0.132456456755E+04   -0.41572E-02   -0.36335E-02 37330   0.282E-01    0.158E-01
DAV:   3    -0.132456467390E+04   -0.10635E-03   -0.12857E-03 37010   0.740E-02    0.888E-02
DAV:   4    -0.132456466439E+04    0.95060E-05   -0.85883E-05 23370   0.263E-02
  84 F= -.13245647E+04 E0= -.13245647E+04  d E =-.795641E-04  mag=   114.0000
       N       E                     dE             d eps       ncg     rms          rms(c)
DAV:   1    -0.132456328067E+04    0.13932E-02   -0.36510E-02 49320   0.101E+00    0.186E-01
DAV:   2    -0.132456465903E+04   -0.13784E-02   -0.12148E-02 35830   0.166E-01    0.868E-02
DAV:   3    -0.132456472589E+04   -0.66864E-04   -0.46664E-04 32040   0.469E-02    0.421E-02
DAV:   4    -0.132456472033E+04    0.55600E-05   -0.37357E-05 20080   0.173E-02
  85 F= -.13245647E+04 E0= -.13245647E+04  d E =-.559400E-04  mag=   114.0000
       N       E                     dE             d eps       ncg     rms          rms(c)
DAV:   1    -0.132456110967E+04    0.36162E-02   -0.88361E-02 48520   0.146E+00    0.257E-01
DAV:   2    -0.132456449230E+04   -0.33826E-02   -0.30308E-02 36520   0.237E-01    0.128E-01
DAV:   3    -0.132456454737E+04   -0.55072E-04   -0.87768E-04 35500   0.516E-02    0.639E-02
DAV:   4    -0.132456453450E+04    0.12871E-04   -0.48738E-05 20940   0.133E-02
  86 F= -.13245645E+04 E0= -.13245645E+04  d E =0.185836E-03  mag=   114.0000
       N       E                     dE             d eps       ncg     rms          rms(c)
DAV:   1    -0.132456214953E+04    0.23978E-02   -0.60793E-02 49930   0.130E+00    0.208E-01
DAV:   2    -0.132456430635E+04   -0.21568E-02   -0.19267E-02 35890   0.198E-01    0.110E-01
DAV:   3    -0.132456439031E+04   -0.83959E-04   -0.72653E-04 34880   0.507E-02    0.563E-02
DAV:   4    -0.132456438517E+04    0.51407E-05   -0.48191E-05 20870   0.174E-02
  87 F= -.13245644E+04 E0= -.13245644E+04  d E =0.149325E-03  mag=   114.0000
       N       E                     dE             d eps       ncg     rms          rms(c)
DAV:   1    -0.132455361617E+04    0.10774E-01   -0.32669E-01 48870   0.268E+00    0.472E-01
DAV:   2    -0.132456433920E+04   -0.10723E-01   -0.95389E-02 36310   0.425E-01    0.236E-01
DAV:   3    -0.132456453376E+04   -0.19456E-03   -0.31049E-03 36890   0.984E-02    0.115E-01
DAV:   4    -0.132456455915E+04   -0.25397E-04   -0.18258E-04 26760   0.283E-02
  88 F= -.13245646E+04 E0= -.13245646E+04  d E =-.173980E-03  mag=   114.0000
       N       E                     dE             d eps       ncg     rms          rms(c)
DAV:   1    -0.132456130800E+04    0.32258E-02   -0.68722E-02 49120   0.148E+00    0.278E-01
DAV:   2    -0.132456457485E+04   -0.32668E-02   -0.28268E-02 36890   0.237E-01    0.130E-01
DAV:   3    -0.132456470030E+04   -0.12545E-03   -0.10192E-03 35930   0.700E-02    0.716E-02
DAV:   4    -0.132456468940E+04    0.10898E-04   -0.80411E-05 22480   0.250E-02
  89 F= -.13245647E+04 E0= -.13245647E+04  d E =-.130244E-03  mag=   114.0000
       N       E                     dE             d eps       ncg     rms          rms(c)
DAV:   1    -0.132456401345E+04    0.68684E-03   -0.19580E-02 49190   0.732E-01    0.126E-01
DAV:   2    -0.132456474510E+04   -0.73165E-03   -0.63780E-03 37080   0.115E-01    0.629E-02
DAV:   3    -0.132456475061E+04   -0.55074E-05   -0.21333E-04 26520   0.289E-02    0.319E-02
DAV:   4    -0.132456475182E+04   -0.12159E-05   -0.16561E-05 19060   0.109E-02
  90 F= -.13245648E+04 E0= -.13245648E+04  d E =-.624250E-04  mag=   114.0000
       N       E                     dE             d eps       ncg     rms          rms(c)
DAV:   1    -0.132456226019E+04    0.24904E-02   -0.97135E-02 47870   0.130E+00    0.248E-01
DAV:   2    -0.132456476480E+04   -0.25046E-02   -0.22183E-02 36510   0.204E-01    0.116E-01
DAV:   3    -0.132456483193E+04   -0.67133E-04   -0.71108E-04 35100   0.448E-02    0.507E-02
DAV:   4    -0.132456483715E+04   -0.52162E-05   -0.43955E-05 20250   0.126E-02
  91 F= -.13245648E+04 E0= -.13245648E+04  d E =-.853284E-04  mag=   114.0000
       N       E                     dE             d eps       ncg     rms          rms(c)
DAV:   1    -0.132455197190E+04    0.12860E-01   -0.55499E-01 47720   0.308E+00    0.535E-01
DAV:   2    -0.132456433192E+04   -0.12360E-01   -0.10873E-01 36800   0.482E-01    0.260E-01
DAV:   3    -0.132456464450E+04   -0.31258E-03   -0.39860E-03 36770   0.109E-01    0.116E-01
DAV:   4    -0.132456465995E+04   -0.15451E-04   -0.25915E-04 29330   0.312E-02
  92 F= -.13245647E+04 E0= -.13245647E+04  d E =0.177201E-03  mag=   114.0000
       N       E                     dE             d eps       ncg     rms          rms(c)
DAV:   1    -0.132456114755E+04    0.34969E-02   -0.13204E-01 48990   0.170E+00    0.275E-01
DAV:   2    -0.132456494296E+04   -0.37954E-02   -0.34034E-02 37280   0.275E-01    0.155E-01
DAV:   3    -0.132456506745E+04   -0.12449E-03   -0.14098E-03 35820   0.817E-02    0.918E-02
DAV:   4    -0.132456507355E+04   -0.61035E-05   -0.11379E-04 23480   0.295E-02
  93 F= -.13245651E+04 E0= -.13245651E+04  d E =-.413605E-03  mag=   114.0000
       N       E                     dE             d eps       ncg     rms          rms(c)
DAV:   1    -0.132456436158E+04    0.70588E-03   -0.21605E-02 48500   0.717E-01    0.129E-01
DAV:   2    -0.132456505659E+04   -0.69502E-03   -0.60467E-03 37220   0.118E-01    0.651E-02
DAV:   3    -0.132456507116E+04   -0.14565E-04   -0.23054E-04 27930   0.344E-02    0.358E-02
DAV:   4    -0.132456508306E+04   -0.11906E-04   -0.19097E-05 18800   0.132E-02
  94 F= -.13245651E+04 E0= -.13245651E+04  d E =-.950936E-05  mag=   114.0000
       N       E                     dE             d eps       ncg     rms          rms(c)
DAV:   1    -0.132456486377E+04    0.20739E-03   -0.10824E-02 46280   0.427E-01    0.690E-02
DAV:   2    -0.132456509132E+04   -0.22756E-03   -0.20575E-03 37290   0.707E-02    0.348E-02
DAV:   3    -0.132456508214E+04    0.91791E-05   -0.68985E-05 20680   0.178E-02    0.198E-02
DAV:   4    -0.132456508731E+04   -0.51643E-05   -0.68177E-06 18150   0.691E-03
  95 F= -.13245651E+04 E0= -.13245651E+04  d E =-.424494E-05  mag=   114.0000
