       N       E                     dE             d eps       ncg     rms          ort
DAV:   1     0.112474303747E+05    0.11247E+05   -0.46642E+05  8540   0.170E+03
DAV:   2     0.283413433614E+02   -0.11219E+05   -0.10205E+05  8540   0.487E+02
DAV:   3    -0.160873260448E+04   -0.16371E+04   -0.15510E+04  8540   0.198E+02
DAV:   4    -0.169320325475E+04   -0.84471E+02   -0.83252E+02  8540   0.457E+01
DAV:   5    -0.169428164275E+04   -0.10784E+01   -0.10751E+01  8540   0.559E+00
SDA:   6    -0.804599091010E+03    0.88968E+03   -0.10751E+01  8540   0.299E+04 0.000E+00
CGA:   7    -0.122965251800E+04   -0.42505E+03   -0.42531E+03  8540   0.305E+03 0.349E+02
CGA:   8    -0.128794864146E+04   -0.58296E+02   -0.58293E+02  8540   0.750E+02 0.112E+01
CGA:   9    -0.131231226542E+04   -0.24364E+02   -0.24410E+02  8540   0.393E+02-0.336E+00
CGA:  10    -0.132103420723E+04   -0.87219E+01   -0.87379E+01  8540   0.106E+02-0.708E+00
CGA:  11    -0.132350292583E+04   -0.24687E+01   -0.24851E+01  8540   0.270E+01-0.511E+00
CGA:  12    -0.132414320606E+04   -0.64028E+00   -0.64789E+00  8540   0.781E+00-0.164E+00
CGA:  13    -0.132435300074E+04   -0.20979E+00   -0.20979E+00  8540   0.260E+00-0.764E-03
CGA:  14    -0.132443787560E+04   -0.84875E-01   -0.88096E-01  8540   0.113E+00-0.260E-01
CGA:  15    -0.132447286950E+04   -0.34994E-01   -0.52025E-01  8540   0.980E-01-0.588E-01
CGA:  16    -0.132449913020E+04   -0.26261E-01   -0.26675E-01  8540   0.292E-01-0.106E-01
CGA:  17    -0.132450660033E+04   -0.74701E-02   -0.11563E-01  8540   0.370E-01-0.195E-01
CGA:  18    -0.132451339329E+04   -0.67930E-02   -0.65091E-02  8540   0.555E-02-0.423E-02
CGA:  19    -0.132451438371E+04   -0.99041E-03   -0.31211E-02  8540   0.137E-01-0.545E-02
CGA:  20    -0.132451758346E+04   -0.31998E-02   -0.30160E-02  8540   0.474E-02-0.446E-02
CGA:  21    -0.132451850583E+04   -0.92237E-03   -0.14774E-02  8540   0.414E-02-0.274E-02
CGA:  22    -0.132451966649E+04   -0.11607E-02   -0.12326E-02  8540   0.364E-02-0.259E-02
CGA:  23    -0.132452011963E+04   -0.45313E-03   -0.47520E-03  8540   0.136E-03 0.169E-03
CGA:  24    -0.132452047093E+04   -0.35130E-03    0.51029E-05  8540   0.117E-03 0.101E-03
CGA:  25    -0.132452077064E+04   -0.29971E-03    0.40495E-05  8540   0.100E-03 0.585E-04
CGA:  26    -0.132452121981E+04   -0.44917E-03    0.42513E-05  8540   0.521E-04 0.114E-03
CGA:  27    -0.132452137133E+04   -0.15152E-03    0.15287E-05  8540   0.441E-04 0.300E-04
CGA:  28    -0.132452153071E+04   -0.15937E-03    0.99813E-06  8540   0.395E-04 0.192E-04
CGA:  29    -0.132452178099E+04   -0.25028E-03    0.10145E-05  8540   0.198E-04 0.430E-04
CGA:  30    -0.132452186521E+04   -0.84222E-04    0.37216E-06  8540   0.173E-04 0.980E-05
CGA:  31    -0.132452202876E+04   -0.16355E-03    0.31088E-06  8540   0.893E-05 0.197E-04
CGA:  32    -0.132452209593E+04   -0.67169E-04    0.88941E-07  8540   0.766E-05 0.508E-05
CGA:  33    -0.132452214140E+04   -0.45473E-04    0.98667E-07  8540   0.683E-05 0.327E-05
CGA:  34    -0.132452223521E+04   -0.93801E-04    0.74774E-07  8540   0.351E-05 0.746E-05
CGA:  35    -0.132452227580E+04   -0.40597E-04    0.22115E-07  8540   0.306E-05 0.168E-05
CGA:  36    -0.132452233572E+04   -0.59917E-04    0.24859E-07  8540   0.162E-05 0.349E-05
CGA:  37    -0.132452235439E+04   -0.18675E-04    0.10292E-07  8540   0.139E-05 0.870E-06
CGA:  38    -0.132452237890E+04   -0.24504E-04    0.56304E-08  8540   0.122E-05 0.570E-06
CGA:  39    -0.132452241411E+04   -0.35207E-04    0.60303E-08  8540   0.658E-06 0.133E-05
CGA:  40    -0.132452242443E+04   -0.10327E-04    0.30207E-08  8540   0.568E-06 0.289E-06
CGA:  41    -0.132452244847E+04   -0.24034E-04    0.19775E-08  8540   0.312E-06 0.635E-06
CGA:  42    -0.132452246014E+04   -0.11671E-04    0.59037E-09  8540   0.263E-06 0.150E-06
CGA:  43    -0.132452247569E+04   -0.15549E-04    0.68797E-09  8540   0.151E-06 0.304E-06
CGA:  44    -0.132452248004E+04   -0.43586E-05    0.37288E-09  8540   0.125E-06 0.781E-07
