       N       E                     dE             d eps       ncg     rms          rms(c)
DAV:   1     0.112474303747E+05    0.11247E+05   -0.43000E+05 34740   0.160E+03
DAV:   2     0.283413433614E+02   -0.11219E+05   -0.10205E+05 34160   0.487E+02
DAV:   3    -0.160873260448E+04   -0.16371E+04   -0.15510E+04 36440   0.198E+02
DAV:   4    -0.169320325475E+04   -0.84471E+02   -0.83252E+02 39210   0.457E+01
DAV:   5    -0.169428164275E+04   -0.10784E+01   -0.10751E+01 37680   0.559E+00    0.146E+02
DAV:   6    -0.128600636105E+04    0.40828E+03   -0.80960E+02 41480   0.756E+01    0.119E+02
DAV:   7    -0.133578308032E+04   -0.49777E+02   -0.35913E+02 36980   0.643E+01    0.878E+01
DAV:   8    -0.130998500398E+04    0.25798E+02   -0.50178E+01 38920   0.225E+01    0.681E+01
DAV:   9    -0.131754388256E+04   -0.75589E+01   -0.47731E+01 37110   0.301E+01    0.644E+01
DAV:  10    -0.132286792772E+04   -0.53240E+01   -0.25127E+01 37880   0.156E+01    0.384E+01
DAV:  11    -0.131895908908E+04    0.39088E+01   -0.76630E+00 36850   0.112E+01    0.137E+01
DAV:  12    -0.132009622363E+04   -0.11371E+01   -0.60063E+00 38810   0.482E+00    0.117E+01
DAV:  13    -0.132113956685E+04   -0.10433E+01   -0.29522E+00 37240   0.313E+00    0.159E+01
DAV:  14    -0.132101769727E+04    0.12187E+00   -0.25051E+00 36510   0.174E+00    0.147E+01
DAV:  15    -0.132161756586E+04   -0.59987E+00   -0.12013E+00 35700   0.108E+00    0.171E+01
DAV:  16    -0.132171034670E+04   -0.92781E-01   -0.24486E-01 35830   0.537E-01    0.186E+01
DAV:  17    -0.132179074424E+04   -0.80398E-01   -0.93684E-02 35200   0.259E-01    0.191E+01
DAV:  18    -0.132209097376E+04   -0.30023E+00   -0.12487E-01 37850   0.417E-01    0.182E+01
DAV:  19    -0.132291115552E+04   -0.82018E+00   -0.51134E+00 40870   0.743E+00    0.129E+01
DAV:  20    -0.132339883416E+04   -0.48768E+00   -0.26362E+00 37040   0.193E+00    0.140E+01
DAV:  21    -0.132404163418E+04   -0.64280E+00   -0.24051E+00 35470   0.134E+00    0.177E+01
DAV:  22    -0.132418111022E+04   -0.13948E+00   -0.19219E-01 35730   0.743E-01    0.193E+01
DAV:  23    -0.132416667851E+04    0.14432E-01   -0.36200E-02 39240   0.648E-01    0.198E+01
DAV:  24    -0.132416494701E+04    0.17315E-02   -0.14503E-02 38040   0.276E-01    0.201E+01
DAV:  25    -0.132432700034E+04   -0.16205E+00   -0.11841E-01 41720   0.172E+00    0.210E+01
DAV:  26    -0.132503208378E+04   -0.70508E+00   -0.41660E-01 46180   0.355E+00    0.238E+01
DAV:  27    -0.132564773002E+04   -0.61565E+00   -0.45737E-01 46030   0.208E+00    0.255E+01
DAV:  28    -0.132595545632E+04   -0.30773E+00   -0.13986E-01 46340   0.103E+00    0.265E+01
DAV:  29    -0.132596568656E+04   -0.10230E-01   -0.37799E-02 35780   0.318E-01    0.265E+01
DAV:  30    -0.132612846505E+04   -0.16278E+00   -0.81793E-03 42560   0.474E-01    0.269E+01
DAV:  31    -0.132627799502E+04   -0.14953E+00   -0.11586E-02 46190   0.377E-01    0.272E+01
DAV:  32    -0.132510547849E+04    0.11725E+01   -0.32811E-01 44070   0.287E+00    0.243E+01
DAV:  33    -0.132423426708E+04    0.87121E+00   -0.85798E-01 46680   0.353E+00    0.251E+01
DAV:  34    -0.132454486096E+04   -0.31059E+00   -0.56088E-01 36620   0.151E+00    0.253E+01
DAV:  35    -0.132447495829E+04    0.69903E-01   -0.48100E-02 37080   0.797E-01    0.254E+01
DAV:  36    -0.132399915507E+04    0.47580E+00   -0.23444E-01 43270   0.287E+00    0.256E+01
DAV:  37    -0.132358555613E+04    0.41360E+00   -0.21220E+00 43140   0.123E+00    0.229E+01
DAV:  38    -0.132374495791E+04   -0.15940E+00   -0.46725E-01 37150   0.171E+00    0.230E+01
DAV:  39    -0.132299617183E+04    0.74879E+00   -0.17896E-01 44540   0.206E+00    0.229E+01
DAV:  40    -0.132254122008E+04    0.45495E+00   -0.21619E-01 46960   0.131E+00    0.239E+01
DAV:  41    -0.132247932889E+04    0.61891E-01   -0.64333E-02 35920   0.436E-01    0.241E+01
DAV:  42    -0.132250178691E+04   -0.22458E-01   -0.23821E-02 36030   0.319E-01    0.261E+01
DAV:  43    -0.132285283632E+04   -0.35105E+00   -0.36580E-01 34720   0.109E+00    0.268E+01
DAV:  44    -0.132282748967E+04    0.25347E-01   -0.39004E-02 37610   0.368E-01    0.269E+01
DAV:  45    -0.132297563201E+04   -0.14814E+00   -0.16076E-02 38090   0.643E-01    0.267E+01
DAV:  46    -0.132285425114E+04    0.12138E+00   -0.83402E-03 35820   0.389E-01    0.271E+01
DAV:  47    -0.132283079480E+04    0.23456E-01   -0.34368E-03 37960   0.109E-01    0.272E+01
DAV:  48    -0.132283362847E+04   -0.28337E-02   -0.28292E-03 36050   0.112E-01    0.273E+01
DAV:  49    -0.132286247675E+04   -0.28848E-01   -0.50361E-03 37350   0.336E-01    0.267E+01
DAV:  50    -0.132291862563E+04   -0.56149E-01   -0.87041E-03 43530   0.358E-01    0.260E+01
DAV:  51    -0.132289132625E+04    0.27299E-01   -0.11723E-02 45090   0.415E-01    0.251E+01
DAV:  52    -0.132284123817E+04    0.50088E-01   -0.94600E-03 44680   0.390E-01    0.247E+01
DAV:  53    -0.132259645223E+04    0.24479E+00   -0.71134E-02 42770   0.156E+00    0.216E+01
DAV:  54    -0.132239615441E+04    0.20030E+00   -0.20881E-01 46170   0.179E+00    0.126E+01
DAV:  55    -0.132303046361E+04   -0.63431E+00   -0.57607E-01 41930   0.147E+00    0.127E+01
DAV:  56    -0.132313432422E+04   -0.10386E+00   -0.61396E-01 38030   0.292E+00    0.140E+01
DAV:  57    -0.132319257199E+04   -0.58248E-01   -0.14071E-01 36360   0.990E-01    0.126E+01
DAV:  58    -0.132326951461E+04   -0.76943E-01   -0.43167E-02 42110   0.824E-01    0.107E+01
DAV:  59    -0.132348270280E+04   -0.21319E+00   -0.99588E-02 41800   0.170E+00    0.947E+00
DAV:  60    -0.132350815500E+04   -0.25452E-01   -0.79483E-02 40570   0.571E-01    0.976E+00
DAV:  61    -0.132386574545E+04   -0.35759E+00   -0.14751E-01 44360   0.234E+00    0.125E+01
DAV:  62    -0.132382734855E+04    0.38397E-01   -0.27496E-01 36510   0.780E-01    0.181E+01
DAV:  63    -0.132406073381E+04   -0.23339E+00   -0.51406E-02 35900   0.629E-01    0.244E+01
DAV:  64    -0.132422092297E+04   -0.16019E+00   -0.36878E-02 35580   0.497E-01    0.249E+01
DAV:  65    -0.132416085624E+04    0.60067E-01   -0.82142E-03 35750   0.328E-01    0.247E+01
DAV:  66    -0.132390043436E+04    0.26042E+00   -0.38236E-02 41150   0.115E+00    0.236E+01
DAV:  67    -0.132386667334E+04    0.33761E-01   -0.26349E-02 37930   0.341E-01    0.237E+01
DAV:  68    -0.132381904039E+04    0.47633E-01   -0.39474E-03 43360   0.213E-01    0.237E+01
DAV:  69    -0.132380806494E+04    0.10975E-01   -0.29441E-03 41080   0.152E-01    0.238E+01
DAV:  70    -0.132382733053E+04   -0.19266E-01   -0.28971E-03 45150   0.244E-01    0.243E+01
DAV:  71    -0.132379410967E+04    0.33221E-01   -0.12816E-01 41390   0.174E+00    0.215E+01
DAV:  72    -0.132378098968E+04    0.13120E-01   -0.59407E-02 36230   0.369E-01    0.215E+01
DAV:  73    -0.132354427859E+04    0.23671E+00   -0.15568E-02 41230   0.710E-01    0.202E+01
DAV:  74    -0.132318993205E+04    0.35435E+00   -0.10411E+00 43870   0.149E+00    0.645E+00
DAV:  75    -0.132352072348E+04   -0.33079E+00   -0.31995E-01 40970   0.149E+00    0.586E+00
DAV:  76    -0.132342056059E+04    0.10016E+00   -0.24902E-01 42440   0.195E+00    0.341E+00
DAV:  77    -0.132347913630E+04   -0.58576E-01   -0.40240E-01 38450   0.670E-01    0.661E+00
DAV:  78    -0.132381611211E+04   -0.33698E+00   -0.18337E+00 35710   0.858E-01    0.123E+01
DAV:  79    -0.132367971480E+04    0.13640E+00   -0.95226E-02 42210   0.169E+00    0.107E+01
DAV:  80    -0.132366669842E+04    0.13016E-01   -0.49019E-02 36690   0.330E-01    0.106E+01
DAV:  81    -0.132374221950E+04   -0.75521E-01   -0.17844E-02 39390   0.696E-01    0.115E+01
DAV:  82    -0.132375584069E+04   -0.13621E-01   -0.65872E-03 36820   0.146E-01    0.116E+01
DAV:  83    -0.132376463318E+04   -0.87925E-02   -0.53831E-04 39630   0.582E-02    0.117E+01
DAV:  84    -0.132374838743E+04    0.16246E-01   -0.53364E-04 36870   0.126E-01    0.115E+01
DAV:  85    -0.132367121957E+04    0.77168E-01   -0.11887E-02 40380   0.670E-01    0.109E+01
DAV:  86    -0.132361143581E+04    0.59784E-01   -0.50269E-02 42750   0.108E+00    0.104E+01
DAV:  87    -0.132364791637E+04   -0.36481E-01   -0.26899E-02 39480   0.430E-01    0.107E+01
DAV:  88    -0.132366808327E+04   -0.20167E-01   -0.46829E-03 45070   0.303E-01    0.109E+01
DAV:  89    -0.132365568368E+04    0.12400E-01   -0.75497E-03 40900   0.311E-01    0.108E+01
DAV:  90    -0.132361265342E+04    0.43030E-01   -0.95074E-03 40430   0.329E-01    0.103E+01
DAV:  91    -0.132358447899E+04    0.28174E-01   -0.95289E-03 43900   0.303E-01    0.990E+00
DAV:  92    -0.132358549835E+04   -0.10194E-02   -0.40876E-03 36640   0.117E-01    0.963E+00
DAV:  93    -0.132357744853E+04    0.80498E-02   -0.79752E-04 33830   0.104E-01    0.974E+00
DAV:  94    -0.132358137910E+04   -0.39306E-02   -0.23161E-03 35550   0.160E-01    0.903E+00
DAV:  95    -0.132354869661E+04    0.32682E-01   -0.11957E-02 33960   0.309E-01    0.102E+01
DAV:  96    -0.132345995284E+04    0.88744E-01   -0.42003E-01 42260   0.356E+00    0.152E+01
DAV:  97    -0.132371609322E+04   -0.25614E+00   -0.17442E-01 35760   0.105E+00    0.141E+01
DAV:  98    -0.132368311376E+04    0.32979E-01   -0.91483E-03 37960   0.321E-01    0.140E+01
DAV:  99    -0.132361205331E+04    0.71060E-01   -0.40129E-03 42900   0.262E-01    0.140E+01
DAV: 100    -0.132350372567E+04    0.10833E+00   -0.74037E-03 38510   0.410E-01    0.137E+01
DAV: 101    -0.132338214836E+04    0.12158E+00   -0.19986E-02 38980   0.676E-01    0.131E+01
DAV: 102    -0.132340780352E+04   -0.25655E-01   -0.12441E-02 43420   0.313E-01    0.124E+01
DAV: 103    -0.132343092919E+04   -0.23126E-01   -0.85499E-03 43840   0.305E-01    0.116E+01
DAV: 104    -0.132347344956E+04   -0.42520E-01   -0.63630E-03 40860   0.198E-01    0.112E+01
DAV: 105    -0.132349820398E+04   -0.24754E-01   -0.15232E-03 37480   0.844E-02    0.112E+01
DAV: 106    -0.132345275149E+04    0.45452E-01   -0.71277E-02 39810   0.115E+00    0.136E+01
DAV: 107    -0.132346115504E+04   -0.84035E-02   -0.21904E-02 37260   0.253E-01    0.137E+01
DAV: 108    -0.132345715028E+04    0.40048E-02   -0.14089E-03 40140   0.869E-02    0.139E+01
DAV: 109    -0.132345419294E+04    0.29573E-02   -0.52962E-04 39020   0.113E-01    0.139E+01
DAV: 110    -0.132347785381E+04   -0.23661E-01   -0.24038E-03 42780   0.297E-01    0.139E+01
DAV: 111    -0.132354054366E+04   -0.62690E-01   -0.72528E-03 45730   0.379E-01    0.138E+01
DAV: 112    -0.132353316882E+04    0.73748E-02   -0.52576E-03 42170   0.170E-01    0.138E+01
DAV: 113    -0.132354314203E+04   -0.99732E-02   -0.20241E-03 36130   0.182E-01    0.138E+01
DAV: 114    -0.132355522708E+04   -0.12085E-01   -0.40069E-04 39000   0.649E-02    0.138E+01
DAV: 115    -0.132351051525E+04    0.44712E-01   -0.86174E-04 37690   0.173E-01    0.137E+01
DAV: 116    -0.132341598214E+04    0.94533E-01   -0.23839E-02 39300   0.853E-01    0.137E+01
DAV: 117    -0.132344447196E+04   -0.28490E-01   -0.87262E-03 36510   0.164E-01    0.137E+01
DAV: 118    -0.132344985534E+04   -0.53834E-02   -0.41569E-04 35020   0.532E-02    0.136E+01
DAV: 119    -0.132347064019E+04   -0.20785E-01   -0.14418E-03 43640   0.196E-01    0.132E+01
DAV: 120    -0.132350940576E+04   -0.38766E-01   -0.49565E-03 44510   0.245E-01    0.127E+01
DAV: 121    -0.132424133470E+04   -0.73193E+00   -0.31379E+00 46170   0.370E+00    0.795E+00
DAV: 122    -0.132482589566E+04   -0.58456E+00   -0.45629E-01 37090   0.151E+00    0.865E+00
DAV: 123    -0.132487337011E+04   -0.47474E-01   -0.44288E-02 39030   0.521E-01    0.908E+00
DAV: 124    -0.132492305428E+04   -0.49684E-01   -0.79855E-03 42510   0.409E-01    0.946E+00
DAV: 125    -0.132498180041E+04   -0.58746E-01   -0.73727E-03 45720   0.406E-01    0.982E+00
DAV: 126    -0.132504324048E+04   -0.61440E-01   -0.81494E-03 44130   0.389E-01    0.103E+01
DAV: 127    -0.132505008716E+04   -0.68467E-02   -0.57359E-03 36230   0.121E-01    0.103E+01
DAV: 128    -0.132503633940E+04    0.13748E-01   -0.53929E-04 35430   0.118E-01    0.102E+01
DAV: 129    -0.132501895835E+04    0.17381E-01   -0.77500E-04 42460   0.129E-01    0.100E+01
DAV: 130    -0.132497712580E+04    0.41833E-01   -0.21961E-03 40690   0.280E-01    0.962E+00
DAV: 131    -0.132488880398E+04    0.88322E-01   -0.94516E-03 41490   0.584E-01    0.874E+00
DAV: 132    -0.132479874461E+04    0.90059E-01   -0.19446E-02 44460   0.699E-01    0.774E+00
DAV: 133    -0.132471547865E+04    0.83266E-01   -0.21573E-02 44650   0.755E-01    0.668E+00
DAV: 134    -0.132460293631E+04    0.11254E+00   -0.39267E-02 41940   0.144E+00    0.472E+00
DAV: 135    -0.132453669692E+04    0.66239E-01   -0.75867E-02 44760   0.137E+00    0.297E+00
DAV: 136    -0.132450629747E+04    0.30399E-01   -0.67014E-02 43950   0.151E+00    0.956E-01
DAV: 137    -0.132451329377E+04   -0.69963E-02   -0.76223E-02 36580   0.434E-01    0.125E+00
DAV: 138    -0.132451316226E+04    0.13151E-03   -0.93488E-04 37200   0.558E-02    0.125E+00
DAV: 139    -0.132451306875E+04    0.93506E-04   -0.66651E-05 24710   0.162E-02    0.124E+00
DAV: 140    -0.132451295081E+04    0.11794E-03   -0.56010E-05 25250   0.332E-02    0.127E+00
DAV: 141    -0.132451282399E+04    0.12683E-03   -0.33229E-04 35170   0.101E-01    0.114E+00
DAV: 142    -0.132451280321E+04    0.20773E-04   -0.10369E-04 29850   0.151E-02
   1 F= -.13245128E+04 E0= -.13245128E+04  d E =-.132451E+04  mag=   119.8865
       N       E                     dE             d eps       ncg     rms          rms(c)
DAV:   1    -0.132451390499E+04   -0.10810E-02   -0.34258E-03 44790   0.255E-01    0.108E+00
DAV:   2    -0.132451502369E+04   -0.11187E-02   -0.14673E-02 40340   0.551E-01    0.859E-01
DAV:   3    -0.132451466031E+04    0.36338E-03   -0.44475E-03 36330   0.269E-01    0.385E-01
DAV:   4    -0.132451502452E+04   -0.36421E-03   -0.83099E-04 38670   0.837E-02    0.231E-01
DAV:   5    -0.132451458386E+04    0.44066E-03   -0.47424E-04 38300   0.652E-02    0.882E-02
DAV:   6    -0.132451460534E+04   -0.21479E-04   -0.10716E-04 28550   0.358E-02
   2 F= -.13245146E+04 E0= -.13245146E+04  d E =-.180213E-02  mag=   119.9969
       N       E                     dE             d eps       ncg     rms          rms(c)
DAV:   1    -0.132451513658E+04   -0.55271E-03   -0.19721E-03 43690   0.191E-01    0.416E-02
DAV:   2    -0.132451518447E+04   -0.47896E-04   -0.42881E-04 34060   0.374E-02    0.314E-02
DAV:   3    -0.132451514690E+04    0.37571E-04   -0.21186E-05 19350   0.136E-02    0.202E-02
DAV:   4    -0.132451517186E+04   -0.24957E-04   -0.40071E-06 18050   0.640E-03
   3 F= -.13245152E+04 E0= -.13245152E+04  d E =-.566515E-03  mag=   119.9995
       N       E                     dE             d eps       ncg     rms          rms(c)
DAV:   1    -0.132195400342E+04    0.25611E+01   -0.11260E+02 46840   0.452E+01    0.743E+00
DAV:   2    -0.132437146510E+04   -0.24175E+01   -0.21940E+01 37270   0.779E+00    0.426E+00
DAV:   3    -0.132443050021E+04   -0.59035E-01   -0.72340E-01 36600   0.184E+00    0.213E+00
DAV:   4    -0.132442400356E+04    0.64966E-02   -0.51748E-02 40370   0.558E-01    0.147E+00
DAV:   5    -0.132441686505E+04    0.71385E-02   -0.14089E-02 41580   0.405E-01    0.965E-01
DAV:   6    -0.132441249085E+04    0.43742E-02   -0.14401E-02 41840   0.442E-01    0.507E-01
DAV:   7    -0.132441365774E+04   -0.11669E-02   -0.68439E-03 38920   0.242E-01    0.175E-01
DAV:   8    -0.132441352063E+04    0.13711E-03   -0.92279E-04 36720   0.817E-02    0.101E-01
DAV:   9    -0.132441347126E+04    0.49366E-04   -0.12812E-04 30960   0.301E-02
   4 F= -.13244135E+04 E0= -.13244135E+04  d E =0.101701E+00  mag=   120.0000
       N       E                     dE             d eps       ncg     rms          rms(c)
DAV:   1    -0.132275624492E+04    0.16573E+01   -0.62900E+01 50230   0.392E+01    0.642E+00
DAV:   2    -0.132445122058E+04   -0.16950E+01   -0.14907E+01 38240   0.662E+00    0.382E+00
DAV:   3    -0.132450226218E+04   -0.51042E-01   -0.60318E-01 37010   0.181E+00    0.195E+00
DAV:   4    -0.132450321958E+04   -0.95740E-03   -0.43849E-02 39700   0.571E-01    0.112E+00
DAV:   5    -0.132449848464E+04    0.47349E-02   -0.13521E-02 39870   0.344E-01    0.763E-01
DAV:   6    -0.132449612598E+04    0.23587E-02   -0.10214E-02 40000   0.355E-01    0.383E-01
DAV:   7    -0.132449596410E+04    0.16188E-03   -0.53941E-03 39270   0.213E-01    0.179E-01
DAV:   8    -0.132449669895E+04   -0.73485E-03   -0.13117E-03 37690   0.966E-02    0.921E-02
DAV:   9    -0.132449657965E+04    0.11930E-03   -0.19753E-04 33830   0.312E-02    0.679E-02
DAV:  10    -0.132449643593E+04    0.14372E-03   -0.41546E-05 21540   0.195E-02    0.403E-02
DAV:  11    -0.132449661116E+04   -0.17522E-03   -0.26330E-05 21420   0.167E-02    0.167E-02
DAV:  12    -0.132449660944E+04    0.17152E-05   -0.13144E-05 18740   0.819E-03
   5 F= -.13244966E+04 E0= -.13244966E+04  d E =-.831382E-01  mag=   120.0000
       N       E                     dE             d eps       ncg     rms          rms(c)
DAV:   1    -0.132436214977E+04    0.13446E+00   -0.61127E+00 50610   0.129E+01    0.207E+00
DAV:   2    -0.132454248770E+04   -0.18034E+00   -0.15810E+00 37930   0.212E+00    0.107E+00
DAV:   3    -0.132454966117E+04   -0.71735E-02   -0.73123E-02 37090   0.562E-01    0.585E-01
DAV:   4    -0.132454929983E+04    0.36134E-03   -0.40455E-03 40520   0.149E-01    0.327E-01
DAV:   5    -0.132454824967E+04    0.10502E-02   -0.14981E-03 40240   0.120E-01    0.206E-01
DAV:   6    -0.132454816171E+04    0.87955E-04   -0.12767E-03 39790   0.124E-01    0.152E-01
DAV:   7    -0.132454790240E+04    0.25931E-03   -0.59779E-04 38390   0.702E-02    0.485E-02
DAV:   8    -0.132454801803E+04   -0.11563E-03   -0.10036E-04 26760   0.330E-02    0.297E-02
DAV:   9    -0.132454802160E+04   -0.35660E-05   -0.34430E-05 19150   0.119E-02
   6 F= -.13245480E+04 E0= -.13245480E+04  d E =-.514122E-01  mag=   120.0000
       N       E                     dE             d eps       ncg     rms          rms(c)
DAV:   1    -0.132450642751E+04    0.41591E-01   -0.17180E+00 47600   0.629E+00    0.104E+00
DAV:   2    -0.132455357628E+04   -0.47149E-01   -0.42812E-01 37610   0.110E+00    0.529E-01
DAV:   3    -0.132455432904E+04   -0.75277E-03   -0.16332E-02 37260   0.291E-01    0.305E-01
DAV:   4    -0.132455456854E+04   -0.23950E-03   -0.11784E-03 39290   0.901E-02    0.190E-01
DAV:   5    -0.132455435482E+04    0.21372E-03   -0.22145E-04 30660   0.544E-02    0.135E-01
DAV:   6    -0.132455431809E+04    0.36734E-04   -0.31549E-04 37560   0.670E-02
   7 F= -.13245543E+04 E0= -.13245543E+04  d E =-.629649E-02  mag=   120.0000
       N       E                     dE             d eps       ncg     rms          rms(c)
DAV:   1    -0.132391398764E+04    0.64037E+00   -0.30658E+01 45760   0.232E+01    0.367E+00
DAV:   2    -0.132453163130E+04   -0.61764E+00   -0.58219E+00 36530   0.407E+00    0.199E+00
DAV:   3    -0.132454050196E+04   -0.88707E-02   -0.20137E-01 37030   0.107E+00    0.112E+00
DAV:   4    -0.132454042513E+04    0.76834E-04   -0.16746E-02 39630   0.358E-01    0.702E-01
DAV:   5    -0.132453843598E+04    0.19891E-02   -0.25491E-03 41660   0.185E-01    0.492E-01
DAV:   6    -0.132453708110E+04    0.13549E-02   -0.32537E-03 43700   0.222E-01    0.180E-01
DAV:   7    -0.132453726963E+04   -0.18853E-03   -0.17261E-03 39310   0.831E-02    0.686E-02
DAV:   8    -0.132453746003E+04   -0.19040E-03   -0.10964E-04 26450   0.285E-02    0.446E-02
DAV:   9    -0.132453744604E+04    0.13994E-04   -0.26795E-05 19040   0.140E-02
   8 F= -.13245374E+04 E0= -.13245374E+04  d E =0.168721E-01  mag=   120.0000
       N       E                     dE             d eps       ncg     rms          rms(c)
DAV:   1    -0.132131767115E+04    0.32198E+01   -0.10087E+02 47720   0.488E+01    0.863E+00
DAV:   2    -0.132420282945E+04   -0.28852E+01   -0.25835E+01 38350   0.853E+00    0.489E+00
DAV:   3    -0.132429529482E+04   -0.92465E-01   -0.10005E+00 37480   0.226E+00    0.252E+00
DAV:   4    -0.132428831198E+04    0.69828E-02   -0.71168E-02 39700   0.712E-01    0.158E+00
DAV:   5    -0.132427964388E+04    0.86681E-02   -0.18651E-02 40000   0.454E-01    0.111E+00
DAV:   6    -0.132427257721E+04    0.70667E-02   -0.18848E-02 40990   0.504E-01    0.658E-01
DAV:   7    -0.132427347118E+04   -0.89397E-03   -0.94723E-03 40320   0.286E-01    0.187E-01
DAV:   8    -0.132427397431E+04   -0.50313E-03   -0.26334E-03 38030   0.124E-01    0.116E-01
DAV:   9    -0.132427373634E+04    0.23797E-03   -0.49012E-04 36640   0.459E-02    0.104E-01
DAV:  10    -0.132427370524E+04    0.31097E-04   -0.54112E-05 23550   0.235E-02
   9 F= -.13242737E+04 E0= -.13242737E+04  d E =0.263741E+00  mag=   120.0000
       N       E                     dE             d eps       ncg     rms          rms(c)
DAV:   1    -0.132354828464E+04    0.72545E+00   -0.32958E+01 50170   0.296E+01    0.487E+00
DAV:   2    -0.132451416618E+04   -0.96588E+00   -0.84471E+00 37990   0.493E+00    0.272E+00
DAV:   3    -0.132454812288E+04   -0.33957E-01   -0.38171E-01 37800   0.132E+00    0.137E+00
DAV:   4    -0.132454769815E+04    0.42473E-03   -0.23482E-02 41000   0.405E-01    0.781E-01
DAV:   5    -0.132454342464E+04    0.42735E-02   -0.85197E-03 41000   0.296E-01    0.534E-01
DAV:   6    -0.132454196011E+04    0.14645E-02   -0.75167E-03 39480   0.307E-01    0.350E-01
DAV:   7    -0.132454135004E+04    0.61007E-03   -0.34225E-03 39340   0.166E-01    0.114E-01
DAV:   8    -0.132454181699E+04   -0.46696E-03   -0.86208E-04 38730   0.757E-02    0.732E-02
DAV:   9    -0.132454177573E+04    0.41262E-04   -0.15089E-04 30270   0.257E-02
  10 F= -.13245418E+04 E0= -.13245418E+04  d E =-.268070E+00  mag=   120.0000
       N       E                     dE             d eps       ncg     rms          rms(c)
DAV:   1    -0.132442935255E+04    0.11246E+00   -0.36499E+00 49780   0.101E+01    0.169E+00
DAV:   2    -0.132454734238E+04   -0.11799E+00   -0.10338E+00 37880   0.169E+00    0.853E-01
DAV:   3    -0.132455107286E+04   -0.37305E-02   -0.45477E-02 37640   0.460E-01    0.471E-01
DAV:   4    -0.132455140336E+04   -0.33050E-03   -0.30073E-03 39530   0.142E-01    0.280E-01
DAV:   5    -0.132455087446E+04    0.52890E-03   -0.73245E-04 38610   0.921E-02    0.196E-01
DAV:   6    -0.132455080536E+04    0.69091E-04   -0.79312E-04 39230   0.105E-01    0.110E-01
DAV:   7    -0.132455062534E+04    0.18003E-03   -0.38525E-04 38620   0.541E-02    0.380E-02
DAV:   8    -0.132455071862E+04   -0.93286E-04   -0.80298E-05 21910   0.255E-02    0.251E-02
DAV:   9    -0.132455071796E+04    0.66505E-06   -0.23051E-05 18850   0.976E-03
  11 F= -.13245507E+04 E0= -.13245507E+04  d E =-.894223E-02  mag=   120.0000
       N       E                     dE             d eps       ncg     rms          rms(c)
DAV:   1    -0.132446685853E+04    0.83860E-01   -0.28166E+00 47070   0.793E+00    0.134E+00
DAV:   2    -0.132454388884E+04   -0.77030E-01   -0.69567E-01 36580   0.136E+00    0.642E-01
DAV:   3    -0.132454517656E+04   -0.12877E-02   -0.23241E-02 37110   0.327E-01    0.333E-01
DAV:   4    -0.132454556056E+04   -0.38399E-03   -0.16924E-03 39390   0.968E-02    0.231E-01
DAV:   5    -0.132454527892E+04    0.28163E-03   -0.23732E-04 31960   0.611E-02    0.165E-01
DAV:   6    -0.132454520401E+04    0.74914E-04   -0.38893E-04 40540   0.799E-02    0.678E-02
DAV:   7    -0.132454516829E+04    0.35720E-04   -0.18492E-04 33660   0.333E-02
  12 F= -.13245452E+04 E0= -.13245452E+04  d E =0.554967E-02  mag=   120.0000
       N       E                     dE             d eps       ncg     rms          rms(c)
DAV:   1    -0.132242003545E+04    0.21252E+01   -0.75269E+01 47030   0.398E+01    0.687E+00
DAV:   2    -0.132429765138E+04   -0.18776E+01   -0.17143E+01 37860   0.703E+00    0.379E+00
DAV:   3    -0.132435757233E+04   -0.59921E-01   -0.67968E-01 37460   0.178E+00    0.195E+00
DAV:   4    -0.132435444078E+04    0.31316E-02   -0.40507E-02 40300   0.481E-01    0.119E+00
DAV:   5    -0.132434779393E+04    0.66469E-02   -0.11971E-02 40830   0.349E-01    0.788E-01
DAV:   6    -0.132434374195E+04    0.40520E-02   -0.13035E-02 41100   0.416E-01    0.527E-01
DAV:   7    -0.132434441910E+04   -0.67715E-03   -0.70140E-03 39610   0.243E-01    0.164E-01
DAV:   8    -0.132434460630E+04   -0.18720E-03   -0.13361E-03 37950   0.104E-01    0.958E-02
DAV:   9    -0.132434447861E+04    0.12770E-03   -0.32753E-04 34380   0.365E-02    0.850E-02
DAV:  10    -0.132434442769E+04    0.50915E-04   -0.33578E-05 22800   0.209E-02    0.422E-02
DAV:  11    -0.132434455726E+04   -0.12957E-03   -0.29612E-05 22640   0.180E-02    0.205E-02
DAV:  12    -0.132434453210E+04    0.25161E-04   -0.21724E-05 19240   0.137E-02
  13 F= -.13243445E+04 E0= -.13243445E+04  d E =0.200636E+00  mag=   120.0000
       N       E                     dE             d eps       ncg     rms          rms(c)
DAV:   1    -0.132273627660E+04    0.16083E+01   -0.56621E+01 49880   0.384E+01    0.663E+00
DAV:   2    -0.132446644406E+04   -0.17302E+01   -0.15150E+01 38350   0.651E+00    0.377E+00
DAV:   3    -0.132452887314E+04   -0.62429E-01   -0.65232E-01 37900   0.170E+00    0.182E+00
DAV:   4    -0.132452727516E+04    0.15980E-02   -0.37430E-02 40890   0.509E-01    0.107E+00
DAV:   5    -0.132452011508E+04    0.71601E-02   -0.13746E-02 40120   0.364E-01    0.708E-01
DAV:   6    -0.132451760063E+04    0.25145E-02   -0.12228E-02 39530   0.398E-01    0.490E-01
DAV:   7    -0.132451680971E+04    0.79093E-03   -0.64119E-03 39440   0.237E-01    0.162E-01
DAV:   8    -0.132451759037E+04   -0.78066E-03   -0.14190E-03 38270   0.110E-01    0.102E-01
DAV:   9    -0.132451749345E+04    0.96912E-04   -0.34219E-04 35460   0.376E-02    0.937E-02
DAV:  10    -0.132451732630E+04    0.16715E-03   -0.35471E-05 22450   0.230E-02    0.481E-02
DAV:  11    -0.132451751285E+04   -0.18655E-03   -0.31573E-05 22870   0.200E-02    0.223E-02
DAV:  12    -0.132451754119E+04   -0.28338E-04   -0.24650E-05 19070   0.141E-02
  14 F= -.13245175E+04 E0= -.13245175E+04  d E =-.173009E+00  mag=   120.0000
       N       E                     dE             d eps       ncg     rms          rms(c)
DAV:   1    -0.132448928608E+04    0.28227E-01   -0.15700E+00 49070   0.616E+00    0.103E+00
DAV:   2    -0.132453311637E+04   -0.43830E-01   -0.39395E-01 38440   0.106E+00    0.521E-01
DAV:   3    -0.132453458990E+04   -0.14735E-02   -0.16248E-02 37760   0.273E-01    0.301E-01
DAV:   4    -0.132453445522E+04    0.13469E-03   -0.88834E-04 39220   0.725E-02    0.173E-01
DAV:   5    -0.132453431795E+04    0.13726E-03   -0.37739E-04 34970   0.611E-02    0.108E-01
DAV:   6    -0.132453412721E+04    0.19074E-03   -0.37919E-04 36870   0.665E-02    0.762E-02
DAV:   7    -0.132453426223E+04   -0.13502E-03   -0.18165E-04 32450   0.385E-02    0.273E-02
DAV:   8    -0.132453422890E+04    0.33336E-04   -0.31256E-05 19580   0.193E-02
  15 F= -.13245342E+04 E0= -.13245342E+04  d E =-.166877E-01  mag=   120.0000
       N       E                     dE             d eps       ncg     rms          rms(c)
DAV:   1    -0.132429501831E+04    0.23924E+00   -0.10153E+01 45490   0.137E+01    0.224E+00
DAV:   2    -0.132451716249E+04   -0.22214E+00   -0.21040E+00 37900   0.245E+00    0.112E+00
DAV:   3    -0.132452231835E+04   -0.51559E-02   -0.70272E-02 37530   0.559E-01    0.615E-01
DAV:   4    -0.132452188650E+04    0.43185E-03   -0.38941E-03 39910   0.136E-01    0.404E-01
DAV:   5    -0.132452084289E+04    0.10436E-02   -0.13863E-03 41870   0.125E-01    0.237E-01
DAV:   6    -0.132452030745E+04    0.53544E-03   -0.14043E-03 41160   0.133E-01    0.123E-01
DAV:   7    -0.132452059289E+04   -0.28544E-03   -0.81724E-04 38170   0.729E-02    0.603E-02
DAV:   8    -0.132452051762E+04    0.75276E-04   -0.85876E-05 24880   0.336E-02    0.306E-02
DAV:   9    -0.132452052599E+04   -0.83749E-05   -0.29127E-05 19040   0.131E-02
  16 F= -.13245205E+04 E0= -.13245205E+04  d E =0.137029E-01  mag=   120.0000
       N       E                     dE             d eps       ncg     rms          rms(c)
DAV:   1    -0.132164719936E+04    0.28733E+01   -0.88452E+01 49240   0.470E+01    0.812E+00
DAV:   2    -0.132424638180E+04   -0.25992E+01   -0.23046E+01 37960   0.802E+00    0.483E+00
DAV:   3    -0.132432885421E+04   -0.82472E-01   -0.93099E-01 37610   0.217E+00    0.234E+00
DAV:   4    -0.132432601097E+04    0.28432E-02   -0.64596E-02 40250   0.705E-01    0.141E+00
DAV:   5    -0.132431703179E+04    0.89792E-02   -0.18312E-02 40630   0.434E-01    0.992E-01
DAV:   6    -0.132431251343E+04    0.45184E-02   -0.15368E-02 39760   0.461E-01    0.568E-01
DAV:   7    -0.132431170520E+04    0.80823E-03   -0.82090E-03 40110   0.266E-01    0.196E-01
DAV:   8    -0.132431266071E+04   -0.95551E-03   -0.22954E-03 37840   0.121E-01    0.125E-01
DAV:   9    -0.132431245581E+04    0.20490E-03   -0.40395E-04 36770   0.408E-02    0.998E-02
DAV:  10    -0.132431223885E+04    0.21696E-03   -0.51440E-05 23420   0.247E-02    0.529E-02
DAV:  11    -0.132431246412E+04   -0.22527E-03   -0.42237E-05 22930   0.203E-02    0.246E-02
DAV:  12    -0.132431244995E+04    0.14166E-04   -0.25503E-05 19490   0.154E-02
  17 F= -.13243124E+04 E0= -.13243124E+04  d E =0.208076E+00  mag=   120.0000
       N       E                     dE             d eps       ncg     rms          rms(c)
DAV:   1    -0.132267075742E+04    0.16417E+01   -0.65937E+01 49870   0.404E+01    0.663E+00
DAV:   2    -0.132443493921E+04   -0.17642E+01   -0.15856E+01 38290   0.690E+00    0.374E+00
DAV:   3    -0.132450512172E+04   -0.70183E-01   -0.74115E-01 37750   0.182E+00    0.197E+00
DAV:   4    -0.132450204617E+04    0.30755E-02   -0.39919E-02 41940   0.480E-01    0.110E+00
DAV:   5    -0.132449389471E+04    0.81515E-02   -0.17189E-02 40860   0.380E-01    0.645E-01
DAV:   6    -0.132449018378E+04    0.37109E-02   -0.12923E-02 39710   0.391E-01    0.474E-01
DAV:   7    -0.132449120373E+04   -0.10199E-02   -0.70958E-03 38710   0.236E-01    0.183E-01
DAV:   8    -0.132449128949E+04   -0.85762E-04   -0.10997E-03 37950   0.114E-01    0.109E-01
DAV:   9    -0.132449120996E+04    0.79529E-04   -0.38250E-04 35880   0.415E-02    0.100E-01
DAV:  10    -0.132449113972E+04    0.70239E-04   -0.31631E-05 23050   0.245E-02    0.425E-02
DAV:  11    -0.132449132390E+04   -0.18418E-03   -0.35280E-05 22560   0.192E-02    0.146E-02
DAV:  12    -0.132449129466E+04    0.29242E-04   -0.21915E-05 18840   0.104E-02
  18 F= -.13244913E+04 E0= -.13244913E+04  d E =-.178845E+00  mag=   120.0000
       N       E                     dE             d eps       ncg     rms          rms(c)
DAV:   1    -0.132446395972E+04    0.27364E-01   -0.17342E+00 46770   0.611E+00    0.101E+00
DAV:   2    -0.132450765397E+04   -0.43694E-01   -0.40681E-01 38190   0.108E+00    0.527E-01
DAV:   3    -0.132450871535E+04   -0.10614E-02   -0.16690E-02 37690   0.288E-01    0.323E-01
DAV:   4    -0.132450874585E+04   -0.30508E-04   -0.10627E-03 39320   0.836E-02    0.186E-01
DAV:   5    -0.132450837905E+04    0.36680E-03   -0.31022E-04 33390   0.581E-02    0.127E-01
DAV:   6    -0.132450836172E+04    0.17338E-04   -0.38345E-04 38100   0.678E-02
  19 F= -.13245084E+04 E0= -.13245084E+04  d E =-.170671E-01  mag=   120.0000
       N       E                     dE             d eps       ncg     rms          rms(c)
DAV:   1    -0.132330515235E+04    0.12032E+01   -0.51776E+01 45130   0.309E+01    0.508E+00
DAV:   2    -0.132445954297E+04   -0.11544E+01   -0.10856E+01 37280   0.551E+00    0.265E+00
DAV:   3    -0.132448113723E+04   -0.21594E-01   -0.35325E-01 37460   0.129E+00    0.142E+00
DAV:   4    -0.132447968530E+04    0.14519E-02   -0.23773E-02 39950   0.374E-01    0.958E-01
DAV:   5    -0.132447488265E+04    0.48027E-02   -0.50566E-03 42030   0.265E-01    0.668E-01
DAV:   6    -0.132447291515E+04    0.19675E-02   -0.69408E-03 42530   0.323E-01    0.357E-01
DAV:   7    -0.132447241827E+04    0.49688E-03   -0.39850E-03 39440   0.172E-01    0.130E-01
DAV:   8    -0.132447274849E+04   -0.33022E-03   -0.66288E-04 37140   0.729E-02    0.788E-02
DAV:   9    -0.132447271752E+04    0.30972E-04   -0.93596E-05 26530   0.247E-02
  20 F= -.13244727E+04 E0= -.13244727E+04  d E =0.356442E-01  mag=   120.0000
       N       E                     dE             d eps       ncg     rms          rms(c)
DAV:   1    -0.132079100096E+04    0.36817E+01   -0.12395E+02 48850   0.539E+01    0.921E+00
DAV:   2    -0.132419369505E+04   -0.34027E+01   -0.30861E+01 37940   0.927E+00    0.536E+00
DAV:   3    -0.132431162584E+04   -0.11793E+00   -0.12987E+00 37590   0.234E+00    0.259E+00
DAV:   4    -0.132430653780E+04    0.50880E-02   -0.73409E-02 42660   0.580E-01    0.163E+00
DAV:   5    -0.132429307227E+04    0.13466E-01   -0.21435E-02 41020   0.413E-01    0.990E-01
DAV:   6    -0.132428637000E+04    0.67023E-02   -0.14939E-02 40930   0.460E-01    0.440E-01
DAV:   7    -0.132428876107E+04   -0.23911E-02   -0.10725E-02 39100   0.255E-01    0.255E-01
DAV:   8    -0.132428849774E+04    0.26333E-03   -0.19352E-03 37600   0.125E-01    0.138E-01
DAV:   9    -0.132428818302E+04    0.31472E-03   -0.33589E-04 35280   0.502E-02    0.930E-02
DAV:  10    -0.132428842155E+04   -0.23854E-03   -0.86807E-05 25350   0.291E-02    0.468E-02
DAV:  11    -0.132428840011E+04    0.21440E-04   -0.47984E-05 22570   0.194E-02
  21 F= -.13242884E+04 E0= -.13242884E+04  d E =0.184317E+00  mag=   120.0000
       N       E                     dE             d eps       ncg     rms          rms(c)
DAV:   1    -0.132343597015E+04    0.85245E+00   -0.42484E+01 48730   0.305E+01    0.502E+00
DAV:   2    -0.132448513999E+04   -0.10492E+01   -0.96264E+00 38330   0.539E+00    0.314E+00
DAV:   3    -0.132452627487E+04   -0.41135E-01   -0.49399E-01 37640   0.160E+00    0.182E+00
DAV:   4    -0.132452338313E+04    0.28917E-02   -0.32665E-02 40070   0.496E-01    0.941E-01
DAV:   5    -0.132451740500E+04    0.59781E-02   -0.10527E-02 41140   0.306E-01    0.634E-01
DAV:   6    -0.132451462585E+04    0.27792E-02   -0.94215E-03 39560   0.330E-01    0.385E-01
DAV:   7    -0.132451413469E+04    0.49116E-03   -0.50718E-03 39420   0.192E-01    0.182E-01
DAV:   8    -0.132451455969E+04   -0.42500E-03   -0.13021E-03 37560   0.101E-01    0.105E-01
DAV:   9    -0.132451443203E+04    0.12765E-03   -0.17869E-04 33900   0.371E-02    0.650E-02
DAV:  10    -0.132451433747E+04    0.94561E-04   -0.64188E-05 23890   0.215E-02    0.392E-02
DAV:  11    -0.132451448785E+04   -0.15038E-03   -0.29245E-05 22790   0.245E-02    0.190E-02
DAV:  12    -0.132451444211E+04    0.45749E-04   -0.21285E-05 18740   0.105E-02
  22 F= -.13245144E+04 E0= -.13245144E+04  d E =-.226042E+00  mag=   120.0000
       N       E                     dE             d eps       ncg     rms          rms(c)
DAV:   1    -0.132440041600E+04    0.11407E+00   -0.53087E+00 45590   0.974E+00    0.158E+00
DAV:   2    -0.132451328274E+04   -0.11287E+00   -0.10707E+00 37680   0.174E+00    0.811E-01
DAV:   3    -0.132451550016E+04   -0.22174E-02   -0.38349E-02 37500   0.429E-01    0.475E-01
DAV:   4    -0.132451543258E+04    0.67583E-04   -0.25478E-03 39800   0.128E-01    0.297E-01
DAV:   5    -0.132451469380E+04    0.73878E-03   -0.64568E-04 39320   0.911E-02    0.205E-01
DAV:   6    -0.132451455704E+04    0.13676E-03   -0.86144E-04 41260   0.109E-01    0.104E-01
DAV:   7    -0.132451437579E+04    0.18126E-03   -0.45570E-04 39560   0.540E-02    0.408E-02
DAV:   8    -0.132451441052E+04   -0.34730E-04   -0.68316E-05 21360   0.246E-02
  23 F= -.13245144E+04 E0= -.13245144E+04  d E =0.315903E-04  mag=   120.0000
       N       E                     dE             d eps       ncg     rms          rms(c)
DAV:   1    -0.132199223308E+04    0.25221E+01   -0.11213E+02 45580   0.448E+01    0.774E+00
DAV:   2    -0.132443122877E+04   -0.24390E+01   -0.22674E+01 37310   0.791E+00    0.415E+00
DAV:   3    -0.132448363524E+04   -0.52406E-01   -0.72022E-01 37430   0.180E+00    0.202E+00
DAV:   4    -0.132447956168E+04    0.40736E-02   -0.45396E-02 40380   0.477E-01    0.140E+00
DAV:   5    -0.132447224975E+04    0.73119E-02   -0.91514E-03 41750   0.334E-01    0.955E-01
DAV:   6    -0.132446712740E+04    0.51224E-02   -0.11164E-02 42060   0.421E-01    0.506E-01
DAV:   7    -0.132446848523E+04   -0.13578E-02   -0.74554E-03 39300   0.233E-01    0.185E-01
DAV:   8    -0.132446868636E+04   -0.20113E-03   -0.10961E-03 37430   0.985E-02    0.100E-01
DAV:   9    -0.132446858274E+04    0.10362E-03   -0.22328E-04 34090   0.356E-02    0.714E-02
DAV:  10    -0.132446855541E+04    0.27335E-04   -0.36196E-05 22080   0.212E-02
  24 F= -.13244686E+04 E0= -.13244686E+04  d E =0.458551E-01  mag=   120.0000
       N       E                     dE             d eps       ncg     rms          rms(c)
DAV:   1    -0.132073772990E+04    0.37309E+01   -0.13183E+02 48730   0.560E+01    0.940E+00
DAV:   2    -0.132423594610E+04   -0.34982E+01   -0.31433E+01 37910   0.963E+00    0.567E+00
DAV:   3    -0.132436057809E+04   -0.12463E+00   -0.14459E+00 37530   0.272E+00    0.293E+00
DAV:   4    -0.132435636659E+04    0.42115E-02   -0.98881E-02 40570   0.850E-01    0.169E+00
DAV:   5    -0.132434321225E+04    0.13154E-01   -0.26418E-02 40570   0.506E-01    0.120E+00
DAV:   6    -0.132433560059E+04    0.76117E-02   -0.24812E-02 40990   0.571E-01    0.728E-01
DAV:   7    -0.132433425484E+04    0.13457E-02   -0.13713E-02 39400   0.343E-01    0.285E-01
DAV:   8    -0.132433581297E+04   -0.15581E-02   -0.38407E-03 37830   0.164E-01    0.170E-01
DAV:   9    -0.132433554802E+04    0.26495E-03   -0.54866E-04 36830   0.547E-02    0.110E-01
DAV:  10    -0.132433520343E+04    0.34459E-03   -0.12485E-04 30540   0.328E-02    0.639E-02
DAV:  11    -0.132433558581E+04   -0.38238E-03   -0.60839E-05 23920   0.297E-02    0.266E-02
DAV:  12    -0.132433552352E+04    0.62295E-04   -0.39147E-05 19070   0.131E-02    0.222E-02
DAV:  13    -0.132433547028E+04    0.53231E-04   -0.56665E-06 18700   0.589E-03    0.121E-02
DAV:  14    -0.132433548987E+04   -0.19586E-04   -0.18903E-06 18460   0.385E-03
  25 F= -.13243355E+04 E0= -.13243355E+04  d E =0.133066E+00  mag=   120.0000
       N       E                     dE             d eps       ncg     rms          rms(c)
DAV:   1    -0.132385533254E+04    0.48014E+00   -0.24938E+01 50340   0.252E+01    0.406E+00
DAV:   2    -0.132453597112E+04   -0.68064E+00   -0.60614E+00 38150   0.419E+00    0.218E+00
DAV:   3    -0.132456109815E+04   -0.25127E-01   -0.27530E-01 37580   0.111E+00    0.119E+00
DAV:   4    -0.132455975646E+04    0.13417E-02   -0.15826E-02 40590   0.312E-01    0.664E-01
DAV:   5    -0.132455750542E+04    0.22510E-02   -0.63768E-03 40900   0.247E-01    0.432E-01
DAV:   6    -0.132455606909E+04    0.14363E-02   -0.58477E-03 39910   0.263E-01    0.325E-01
DAV:   7    -0.132455660232E+04   -0.53323E-03   -0.25022E-03 39290   0.148E-01    0.989E-02
DAV:   8    -0.132455656632E+04    0.36004E-04   -0.56121E-04 36330   0.673E-02    0.648E-02
DAV:   9    -0.132455652844E+04    0.37877E-04   -0.12629E-04 28400   0.237E-02
  26 F= -.13245565E+04 E0= -.13245565E+04  d E =-.221039E+00  mag=   120.0000
       N       E                     dE             d eps       ncg     rms          rms(c)
DAV:   1    -0.132407804595E+04    0.47852E+00   -0.18709E+01 47410   0.197E+01    0.332E+00
DAV:   2    -0.132453977316E+04   -0.46173E+00   -0.42213E+00 38160   0.343E+00    0.168E+00
DAV:   3    -0.132455303569E+04   -0.13263E-01   -0.15917E-01 37510   0.832E-01    0.894E-01
DAV:   4    -0.132455242991E+04    0.60578E-03   -0.90323E-03 40450   0.210E-01    0.561E-01
DAV:   5    -0.132455095029E+04    0.14796E-02   -0.30160E-03 41250   0.173E-01    0.342E-01
DAV:   6    -0.132455011657E+04    0.83372E-03   -0.28757E-03 40370   0.194E-01    0.222E-01
DAV:   7    -0.132455059757E+04   -0.48101E-03   -0.16299E-03 39110   0.111E-01    0.818E-02
DAV:   8    -0.132455051070E+04    0.86871E-04   -0.21958E-04 34090   0.500E-02    0.470E-02
DAV:   9    -0.132455050055E+04    0.10149E-04   -0.59274E-05 21710   0.177E-02
  27 F= -.13245505E+04 E0= -.13245505E+04  d E =0.602788E-02  mag=   120.0000
       N       E                     dE             d eps       ncg     rms          rms(c)
DAV:   1    -0.132398890981E+04    0.56160E+00   -0.36399E+01 42770   0.212E+01    0.335E+00
DAV:   2    -0.132450211108E+04   -0.51320E+00   -0.52008E+00 35970   0.386E+00    0.165E+00
DAV:   3    -0.132450893102E+04   -0.68199E-02   -0.14924E-01 36920   0.810E-01    0.840E-01
DAV:   4    -0.132450739931E+04    0.15317E-02   -0.96360E-03 39990   0.203E-01    0.620E-01
DAV:   5    -0.132450578188E+04    0.16174E-02   -0.20277E-03 41270   0.178E-01    0.407E-01
DAV:   6    -0.132450462501E+04    0.11569E-02   -0.32450E-03 43270   0.210E-01    0.198E-01
DAV:   7    -0.132450513468E+04   -0.50966E-03   -0.16313E-03 38560   0.102E-01    0.742E-02
DAV:   8    -0.132450511396E+04    0.20721E-04   -0.16108E-04 31410   0.361E-02
  28 F= -.13245051E+04 E0= -.13245051E+04  d E =0.453866E-01  mag=   120.0000
       N       E                     dE             d eps       ncg     rms          rms(c)
DAV:   1    -0.132153747702E+04    0.29677E+01   -0.11758E+02 47460   0.495E+01    0.821E+00
DAV:   2    -0.132427079698E+04   -0.27333E+01   -0.25026E+01 37550   0.866E+00    0.475E+00
DAV:   3    -0.132436429986E+04   -0.93503E-01   -0.11409E+00 37620   0.239E+00    0.259E+00
DAV:   4    -0.132435983569E+04    0.44642E-02   -0.73877E-02 40540   0.713E-01    0.148E+00
DAV:   5    -0.132434851289E+04    0.11323E-01   -0.20596E-02 41040   0.447E-01    0.104E+00
DAV:   6    -0.132434304207E+04    0.54708E-02   -0.21268E-02 40440   0.517E-01    0.657E-01
DAV:   7    -0.132434159390E+04    0.14482E-02   -0.11841E-02 39590   0.319E-01    0.266E-01
DAV:   8    -0.132434284091E+04   -0.12470E-02   -0.30046E-03 37760   0.151E-01    0.156E-01
DAV:   9    -0.132434263363E+04    0.20728E-03   -0.43266E-04 36240   0.512E-02    0.979E-02
DAV:  10    -0.132434238762E+04    0.24601E-03   -0.11190E-04 30140   0.309E-02    0.582E-02
DAV:  11    -0.132434267473E+04   -0.28711E-03   -0.56651E-05 24020   0.297E-02    0.253E-02
DAV:  12    -0.132434262007E+04    0.54655E-04   -0.35040E-05 18970   0.131E-02    0.199E-02
DAV:  13    -0.132434258782E+04    0.32253E-04   -0.54632E-06 18650   0.537E-03
  29 F= -.13243426E+04 E0= -.13243426E+04  d E =0.162526E+00  mag=   120.0000
       N       E                     dE             d eps       ncg     rms          rms(c)
DAV:   1    -0.132379830118E+04    0.54432E+00   -0.27291E+01 51100   0.265E+01    0.417E+00
DAV:   2    -0.132450623487E+04   -0.70793E+00   -0.62258E+00 37710   0.437E+00    0.230E+00
DAV:   3    -0.132453607923E+04   -0.29844E-01   -0.31106E-01 37770   0.124E+00    0.132E+00
DAV:   4    -0.132453439590E+04    0.16833E-02   -0.19016E-02 39570   0.371E-01    0.683E-01
DAV:   5    -0.132453236471E+04    0.20312E-02   -0.71516E-03 40880   0.259E-01    0.476E-01
DAV:   6    -0.132453045043E+04    0.19143E-02   -0.66135E-03 39300   0.274E-01    0.321E-01
DAV:   7    -0.132453095981E+04   -0.50938E-03   -0.27827E-03 39440   0.156E-01    0.114E-01
DAV:   8    -0.132453100764E+04   -0.47825E-04   -0.84156E-04 37830   0.769E-02    0.795E-02
DAV:   9    -0.132453095596E+04    0.51676E-04   -0.14189E-04 30770   0.264E-02    0.606E-02
DAV:  10    -0.132453092503E+04    0.30934E-04   -0.27273E-05 20640   0.159E-02
  30 F= -.13245309E+04 E0= -.13245309E+04  d E =-.188337E+00  mag=   120.0000
       N       E                     dE             d eps       ncg     rms          rms(c)
DAV:   1    -0.132434745288E+04    0.18350E+00   -0.55963E+00 48660   0.119E+01    0.200E+00
DAV:   2    -0.132451482962E+04   -0.16738E+00   -0.15184E+00 38240   0.207E+00    0.101E+00
DAV:   3    -0.132452097637E+04   -0.61468E-02   -0.65969E-02 37580   0.576E-01    0.623E-01
DAV:   4    -0.132452033846E+04    0.63792E-03   -0.44244E-03 39610   0.172E-01    0.365E-01
DAV:   5    -0.132452001163E+04    0.32682E-03   -0.11105E-03 41270   0.111E-01    0.258E-01
DAV:   6    -0.132451944448E+04    0.56716E-03   -0.14287E-03 40900   0.135E-01    0.140E-01
DAV:   7    -0.132451972893E+04   -0.28445E-03   -0.69216E-04 39450   0.711E-02    0.560E-02
DAV:   8    -0.132451971326E+04    0.15673E-04   -0.18518E-04 32650   0.353E-02
  31 F= -.13245197E+04 E0= -.13245197E+04  d E =0.112118E-01  mag=   120.0000
       N       E                     dE             d eps       ncg     rms          rms(c)
DAV:   1    -0.132324732293E+04    0.12724E+01   -0.38648E+01 50150   0.326E+01    0.527E+00
DAV:   2    -0.132437577763E+04   -0.11285E+01   -0.99850E+00 38170   0.548E+00    0.294E+00
DAV:   3    -0.132441908513E+04   -0.43307E-01   -0.48228E-01 37710   0.161E+00    0.175E+00
DAV:   4    -0.132441792837E+04    0.11568E-02   -0.31349E-02 39770   0.492E-01    0.910E-01
DAV:   5    -0.132441310788E+04    0.48205E-02   -0.95323E-03 40110   0.305E-01    0.640E-01
DAV:   6    -0.132441098133E+04    0.21266E-02   -0.94017E-03 39950   0.330E-01    0.395E-01
DAV:   7    -0.132441006212E+04    0.91921E-03   -0.44836E-03 39710   0.196E-01    0.168E-01
DAV:   8    -0.132441064425E+04   -0.58214E-03   -0.14171E-03 38160   0.100E-01    0.103E-01
DAV:   9    -0.132441053035E+04    0.11390E-03   -0.19186E-04 33600   0.342E-02    0.641E-02
DAV:  10    -0.132441039134E+04    0.13901E-03   -0.49787E-05 22530   0.200E-02    0.399E-02
DAV:  11    -0.132441053860E+04   -0.14726E-03   -0.26033E-05 22100   0.199E-02    0.185E-02
DAV:  12    -0.132441051936E+04    0.19235E-04   -0.16213E-05 18750   0.870E-03
  32 F= -.13244105E+04 E0= -.13244105E+04  d E =0.109194E+00  mag=   120.0000
       N       E                     dE             d eps       ncg     rms          rms(c)
DAV:   1    -0.132135194937E+04    0.30586E+01   -0.11560E+02 50180   0.526E+01    0.864E+00
DAV:   2    -0.132427824731E+04   -0.29263E+01   -0.26022E+01 38560   0.889E+00    0.503E+00
DAV:   3    -0.132439088921E+04   -0.11264E+00   -0.11481E+00 37780   0.236E+00    0.258E+00
DAV:   4    -0.132438476067E+04    0.61285E-02   -0.63542E-02 40660   0.653E-01    0.144E+00
DAV:   5    -0.132437386181E+04    0.10899E-01   -0.27748E-02 40370   0.484E-01    0.933E-01
DAV:   6    -0.132436825144E+04    0.56104E-02   -0.23258E-02 39630   0.526E-01    0.679E-01
DAV:   7    -0.132436908757E+04   -0.83614E-03   -0.11170E-02 39330   0.314E-01    0.220E-01
DAV:   8    -0.132436945085E+04   -0.36328E-03   -0.25673E-03 38380   0.142E-01    0.138E-01
DAV:   9    -0.132436928321E+04    0.16765E-03   -0.63866E-04 37110   0.486E-02    0.130E-01
DAV:  10    -0.132436922963E+04    0.53575E-04   -0.61384E-05 23940   0.298E-02    0.622E-02
DAV:  11    -0.132436944996E+04   -0.22033E-03   -0.65210E-05 23820   0.253E-02    0.268E-02
DAV:  12    -0.132436940111E+04    0.48848E-04   -0.40685E-05 19690   0.192E-02
  33 F= -.13243694E+04 E0= -.13243694E+04  d E =0.411183E-01  mag=   120.0000
       N       E                     dE             d eps       ncg     rms          rms(c)
DAV:   1    -0.132415628941E+04    0.21316E+00   -0.12606E+01 49840   0.183E+01    0.296E+00
DAV:   2    -0.132451740307E+04   -0.36111E+00   -0.32237E+00 38450   0.308E+00    0.156E+00
DAV:   3    -0.132453127155E+04   -0.13868E-01   -0.15607E-01 37770   0.889E-01    0.955E-01
DAV:   4    -0.132453099870E+04    0.27286E-03   -0.10822E-02 39780   0.278E-01    0.516E-01
DAV:   5    -0.132452891525E+04    0.20834E-02   -0.31990E-03 41120   0.182E-01    0.358E-01
DAV:   6    -0.132452823656E+04    0.67868E-03   -0.33173E-03 39940   0.194E-01    0.205E-01
DAV:   7    -0.132452783170E+04    0.40486E-03   -0.14193E-03 39490   0.101E-01    0.874E-02
DAV:   8    -0.132452798439E+04   -0.15269E-03   -0.42891E-04 35150   0.512E-02    0.579E-02
DAV:   9    -0.132452796741E+04    0.16988E-04   -0.51524E-05 20380   0.175E-02
  34 F= -.13245280E+04 E0= -.13245280E+04  d E =-.158566E+00  mag=   120.0000
       N       E                     dE             d eps       ncg     rms          rms(c)
DAV:   1    -0.132407672906E+04    0.45126E+00   -0.19730E+01 47040   0.200E+01    0.333E+00
DAV:   2    -0.132454682109E+04   -0.47009E+00   -0.43667E+00 37680   0.349E+00    0.168E+00
DAV:   3    -0.132456006760E+04   -0.13247E-01   -0.16709E-01 37600   0.882E-01    0.937E-01
DAV:   4    -0.132455975820E+04    0.30940E-03   -0.10477E-02 40190   0.248E-01    0.590E-01
DAV:   5    -0.132455751320E+04    0.22450E-02   -0.26996E-03 41680   0.178E-01    0.402E-01
DAV:   6    -0.132455685035E+04    0.66284E-03   -0.33359E-03 41030   0.213E-01    0.235E-01
DAV:   7    -0.132455644995E+04    0.40041E-03   -0.18460E-03 39410   0.118E-01    0.876E-02
DAV:   8    -0.132455665260E+04   -0.20266E-03   -0.37969E-04 35800   0.554E-02    0.543E-02
DAV:   9    -0.132455663920E+04    0.13403E-04   -0.56573E-05 21270   0.189E-02
  35 F= -.13245566E+04 E0= -.13245566E+04  d E =-.286718E-01  mag=   120.0000
       N       E                     dE             d eps       ncg     rms          rms(c)
DAV:   1    -0.132198507324E+04    0.25716E+01   -0.11946E+02 44680   0.452E+01    0.755E+00
DAV:   2    -0.132443037478E+04   -0.24453E+01   -0.22701E+01 37180   0.801E+00    0.415E+00
DAV:   3    -0.132448365357E+04   -0.53279E-01   -0.73921E-01 37470   0.180E+00    0.198E+00
DAV:   4    -0.132447906332E+04    0.45902E-02   -0.50467E-02 40200   0.539E-01    0.138E+00
DAV:   5    -0.132447222313E+04    0.68402E-02   -0.11056E-02 42040   0.371E-01    0.947E-01
DAV:   6    -0.132446681152E+04    0.54116E-02   -0.12795E-02 41360   0.439E-01    0.520E-01
DAV:   7    -0.132446808450E+04   -0.12730E-02   -0.72364E-03 39400   0.234E-01    0.164E-01
DAV:   8    -0.132446835690E+04   -0.27241E-03   -0.11246E-03 37510   0.905E-02    0.990E-02
DAV:   9    -0.132446827984E+04    0.77068E-04   -0.20948E-04 34560   0.323E-02    0.755E-02
DAV:  10    -0.132446822617E+04    0.53665E-04   -0.36059E-05 22200   0.210E-02    0.374E-02
DAV:  11    -0.132446834209E+04   -0.11592E-03   -0.26779E-05 20120   0.141E-02    0.184E-02
DAV:  12    -0.132446827884E+04    0.63247E-04   -0.14095E-05 19070   0.123E-02    0.109E-02
DAV:  13    -0.132446830159E+04   -0.22744E-04   -0.37540E-06 18540   0.473E-03
  36 F= -.13244683E+04 E0= -.13244683E+04  d E =0.883376E-01  mag=   120.0000
       N       E                     dE             d eps       ncg     rms          rms(c)
DAV:   1    -0.131907454382E+04    0.53937E+01   -0.20301E+02 50030   0.673E+01    0.113E+01
DAV:   2    -0.132405640204E+04   -0.49819E+01   -0.44582E+01 38380   0.116E+01    0.741E+00
DAV:   3    -0.132421451652E+04   -0.15811E+00   -0.19023E+00 37530   0.343E+00    0.367E+00
DAV:   4    -0.132419824077E+04    0.16276E-01   -0.15880E-01 40200   0.127E+00    0.204E+00
DAV:   5    -0.132418136517E+04    0.16876E-01   -0.41243E-02 40580   0.620E-01    0.141E+00
DAV:   6    -0.132417012477E+04    0.11240E-01   -0.29209E-02 39630   0.602E-01    0.716E-01
DAV:   7    -0.132416989567E+04    0.22910E-03   -0.16708E-02 40430   0.346E-01    0.332E-01
DAV:   8    -0.132417127475E+04   -0.13791E-02   -0.50944E-03 37410   0.165E-01    0.196E-01
DAV:   9    -0.132417094122E+04    0.33353E-03   -0.54867E-04 37570   0.573E-02    0.117E-01
DAV:  10    -0.132417067679E+04    0.26443E-03   -0.18303E-04 33650   0.383E-02    0.692E-02
DAV:  11    -0.132417103565E+04   -0.35886E-03   -0.72845E-05 24240   0.311E-02    0.280E-02
DAV:  12    -0.132417094877E+04    0.86874E-04   -0.42870E-05 19120   0.145E-02    0.196E-02
DAV:  13    -0.132417090130E+04    0.47470E-04   -0.71882E-06 18710   0.585E-03
  37 F= -.13241709E+04 E0= -.13241709E+04  d E =0.297400E+00  mag=   120.0000
       N       E                     dE             d eps       ncg     rms          rms(c)
DAV:   1    -0.132338766490E+04    0.78328E+00   -0.41361E+01 50680   0.324E+01    0.512E+00
DAV:   2    -0.132447190729E+04   -0.10842E+01   -0.95920E+00 37780   0.537E+00    0.285E+00
DAV:   3    -0.132451352590E+04   -0.41619E-01   -0.43661E-01 37590   0.144E+00    0.155E+00
DAV:   4    -0.132451186716E+04    0.16587E-02   -0.24299E-02 40410   0.374E-01    0.831E-01
DAV:   5    -0.132450799415E+04    0.38730E-02   -0.10333E-02 40410   0.293E-01    0.517E-01
DAV:   6    -0.132450610130E+04    0.18929E-02   -0.76176E-03 40190   0.301E-01    0.384E-01
DAV:   7    -0.132450673735E+04   -0.63604E-03   -0.38628E-03 38930   0.182E-01    0.130E-01
DAV:   8    -0.132450667805E+04    0.59301E-04   -0.69942E-04 36760   0.859E-02    0.766E-02
DAV:   9    -0.132450663159E+04    0.46456E-04   -0.20038E-04 33230   0.291E-02
  38 F= -.13245066E+04 E0= -.13245066E+04  d E =-.335730E+00  mag=   120.0000
       N       E                     dE             d eps       ncg     rms          rms(c)
DAV:   1    -0.132407368269E+04    0.43300E+00   -0.15856E+01 48400   0.194E+01    0.320E+00
DAV:   2    -0.132450588664E+04   -0.43220E+00   -0.38987E+00 37770   0.333E+00    0.164E+00
DAV:   3    -0.132452060930E+04   -0.14723E-01   -0.15890E-01 37550   0.871E-01    0.928E-01
DAV:   4    -0.132451992887E+04    0.68043E-03   -0.97473E-03 39770   0.233E-01    0.546E-01
DAV:   5    -0.132451882525E+04    0.11036E-02   -0.25366E-03 40590   0.161E-01    0.366E-01
DAV:   6    -0.132451789169E+04    0.93356E-03   -0.26039E-03 40650   0.188E-01    0.216E-01
DAV:   7    -0.132451827305E+04   -0.38135E-03   -0.14585E-03 39260   0.106E-01    0.817E-02
DAV:   8    -0.132451822514E+04    0.47907E-04   -0.29292E-04 34980   0.519E-02
  39 F= -.13245182E+04 E0= -.13245182E+04  d E =-.115935E-01  mag=   120.0000
       N       E                     dE             d eps       ncg     rms          rms(c)
DAV:   1    -0.132403637575E+04    0.48190E+00   -0.24060E+01 44950   0.193E+01    0.311E+00
DAV:   2    -0.132448055246E+04   -0.44418E+00   -0.42338E+00 36000   0.338E+00    0.153E+00
DAV:   3    -0.132448891848E+04   -0.83660E-02   -0.12831E-01 37230   0.704E-01    0.723E-01
DAV:   4    -0.132448840708E+04    0.51140E-03   -0.79041E-03 40470   0.161E-01    0.528E-01
DAV:   5    -0.132448701794E+04    0.13891E-02   -0.14802E-03 42180   0.146E-01    0.318E-01
DAV:   6    -0.132448634053E+04    0.67741E-03   -0.17916E-03 43670   0.147E-01    0.131E-01
DAV:   7    -0.132448675527E+04   -0.41473E-03   -0.90987E-04 37550   0.757E-02    0.677E-02
DAV:   8    -0.132448670577E+04    0.49497E-04   -0.90169E-05 24600   0.298E-02
  40 F= -.13244867E+04 E0= -.13244867E+04  d E =0.315194E-01  mag=   120.0000
       N       E                     dE             d eps       ncg     rms          rms(c)
DAV:   1    -0.131846631108E+04    0.60204E+01   -0.23420E+02 48350   0.695E+01    0.119E+01
DAV:   2    -0.132397543702E+04   -0.55091E+01   -0.49637E+01 37930   0.120E+01    0.723E+00
DAV:   3    -0.132412525233E+04   -0.14982E+00   -0.18623E+00 37580   0.325E+00    0.362E+00
DAV:   4    -0.132411344915E+04    0.11803E-01   -0.14374E-01 40670   0.113E+00    0.218E+00
DAV:   5    -0.132409515528E+04    0.18294E-01   -0.37338E-02 39550   0.633E-01    0.157E+00
DAV:   6    -0.132408334398E+04    0.11811E-01   -0.31046E-02 40630   0.652E-01    0.858E-01
DAV:   7    -0.132408234634E+04    0.99764E-03   -0.18108E-02 40300   0.392E-01    0.339E-01
DAV:   8    -0.132408424882E+04   -0.19025E-02   -0.56134E-03 37480   0.180E-01    0.196E-01
DAV:   9    -0.132408397376E+04    0.27506E-03   -0.65251E-04 37720   0.592E-02    0.118E-01
DAV:  10    -0.132408366580E+04    0.30796E-03   -0.15823E-04 32920   0.384E-02    0.692E-02
DAV:  11    -0.132408402251E+04   -0.35671E-03   -0.73444E-05 24010   0.294E-02    0.265E-02
DAV:  12    -0.132408392587E+04    0.96642E-04   -0.39338E-05 19160   0.140E-02    0.168E-02
DAV:  13    -0.132408387771E+04    0.48159E-04   -0.78544E-06 18720   0.584E-03
  41 F= -.13240839E+04 E0= -.13240839E+04  d E =0.402828E+00  mag=   120.0000
       N       E                     dE             d eps       ncg     rms          rms(c)
DAV:   1    -0.132244254838E+04    0.16414E+01   -0.77295E+01 50620   0.434E+01    0.698E+00
DAV:   2    -0.132440398839E+04   -0.19614E+01   -0.17314E+01 37870   0.724E+00    0.412E+00
DAV:   3    -0.132447831182E+04   -0.74323E-01   -0.78967E-01 37640   0.192E+00    0.209E+00
DAV:   4    -0.132447498013E+04    0.33317E-02   -0.44257E-02 41130   0.500E-01    0.114E+00
DAV:   5    -0.132446724188E+04    0.77383E-02   -0.18342E-02 40600   0.385E-01    0.681E-01
DAV:   6    -0.132446392999E+04    0.33119E-02   -0.13086E-02 39930   0.394E-01    0.516E-01
DAV:   7    -0.132446493030E+04   -0.10003E-02   -0.72311E-03 38600   0.246E-01    0.186E-01
DAV:   8    -0.132446490435E+04    0.25953E-04   -0.12086E-03 38030   0.121E-01    0.108E-01
DAV:   9    -0.132446483825E+04    0.66097E-04   -0.39533E-04 36100   0.430E-02    0.100E-01
DAV:  10    -0.132446479792E+04    0.40328E-04   -0.33622E-05 22650   0.239E-02
  42 F= -.13244648E+04 E0= -.13244648E+04  d E =-.380920E+00  mag=   120.0000
       N       E                     dE             d eps       ncg     rms          rms(c)
DAV:   1    -0.132440592512E+04    0.58913E-01   -0.30514E+00 44030   0.693E+00    0.109E+00
DAV:   2    -0.132446104958E+04   -0.55124E-01   -0.53289E-01 37070   0.123E+00    0.534E-01
DAV:   3    -0.132446199421E+04   -0.94463E-03   -0.16141E-02 37370   0.262E-01    0.279E-01
DAV:   4    -0.132446190119E+04    0.93025E-04   -0.97846E-04 38180   0.619E-02    0.196E-01
DAV:   5    -0.132446168383E+04    0.21736E-03   -0.25774E-04 33020   0.603E-02    0.116E-01
DAV:   6    -0.132446157278E+04    0.11105E-03   -0.31314E-04 38570   0.593E-02    0.604E-02
DAV:   7    -0.132446169180E+04   -0.11902E-03   -0.14022E-04 27880   0.330E-02    0.265E-02
DAV:   8    -0.132446165070E+04    0.41103E-04   -0.22531E-05 19000   0.144E-02
  43 F= -.13244617E+04 E0= -.13244617E+04  d E =0.314723E-02  mag=   120.0000
       N       E                     dE             d eps       ncg     rms          rms(c)
DAV:   1    -0.131968523344E+04    0.47765E+01   -0.27492E+02 41710   0.601E+01    0.103E+01
DAV:   2    -0.132423767880E+04   -0.45524E+01   -0.42834E+01 36080   0.110E+01    0.586E+00
DAV:   3    -0.132430520610E+04   -0.67527E-01   -0.12163E+00 37490   0.224E+00    0.261E+00
DAV:   4    -0.132429392821E+04    0.11278E-01   -0.76178E-02 41560   0.557E-01    0.198E+00
DAV:   5    -0.132427733129E+04    0.16597E-01   -0.13566E-02 40170   0.411E-01    0.129E+00
DAV:   6    -0.132426971643E+04    0.76149E-02   -0.17799E-02 42150   0.523E-01    0.580E-01
DAV:   7    -0.132427032925E+04   -0.61282E-03   -0.13259E-02 38620   0.296E-01    0.256E-01
DAV:   8    -0.132427132762E+04   -0.99836E-03   -0.15791E-03 37580   0.119E-01    0.117E-01
DAV:   9    -0.132427101909E+04    0.30853E-03   -0.28355E-04 34990   0.405E-02    0.832E-02
DAV:  10    -0.132427098784E+04    0.31244E-04   -0.52044E-05 23260   0.270E-02
  44 F= -.13242710E+04 E0= -.13242710E+04  d E =0.190663E+00  mag=   120.0000
       N       E                     dE             d eps       ncg     rms          rms(c)
DAV:   1    -0.131800174763E+04    0.62693E+01   -0.18676E+02 50520   0.712E+01    0.127E+01
DAV:   2    -0.132388624433E+04   -0.58845E+01   -0.51435E+01 38130   0.119E+01    0.812E+00
DAV:   3    -0.132408494769E+04   -0.19870E+00   -0.20334E+00 37510   0.309E+00    0.338E+00
DAV:   4    -0.132408119512E+04    0.37526E-02   -0.13142E-01 40940   0.870E-01    0.219E+00
DAV:   5    -0.132406723321E+04    0.13962E-01   -0.31383E-02 39510   0.505E-01    0.146E+00
DAV:   6    -0.132405591629E+04    0.11317E-01   -0.22312E-02 40840   0.592E-01    0.790E-01
DAV:   7    -0.132405845146E+04   -0.25352E-02   -0.17900E-02 39740   0.387E-01    0.373E-01
DAV:   8    -0.132405911148E+04   -0.66002E-03   -0.48561E-03 37490   0.194E-01    0.185E-01
DAV:   9    -0.132405904102E+04    0.70464E-04   -0.74232E-04 37030   0.683E-02    0.110E-01
DAV:  10    -0.132405888494E+04    0.15608E-03   -0.15885E-04 31690   0.334E-02    0.679E-02
DAV:  11    -0.132405907744E+04   -0.19251E-03   -0.67070E-05 24360   0.304E-02    0.309E-02
DAV:  12    -0.132405909050E+04   -0.13055E-04   -0.42824E-05 19110   0.143E-02
  45 F= -.13240591E+04 E0= -.13240591E+04  d E =0.211897E+00  mag=   120.0000
       N       E                     dE             d eps       ncg     rms          rms(c)
DAV:   1    -0.132272916396E+04    0.13299E+01   -0.53017E+01 50250   0.375E+01    0.629E+00
DAV:   2    -0.132431637662E+04   -0.15872E+01   -0.13862E+01 38060   0.622E+00    0.353E+00
DAV:   3    -0.132437446304E+04   -0.58086E-01   -0.59288E-01 37630   0.165E+00    0.177E+00
DAV:   4    -0.132437404577E+04    0.41726E-03   -0.36732E-02 40260   0.479E-01    0.102E+00
DAV:   5    -0.132436804788E+04    0.59979E-02   -0.11444E-02 39750   0.318E-01    0.669E-01
DAV:   6    -0.132436557451E+04    0.24734E-02   -0.89568E-03 40150   0.338E-01    0.422E-01
DAV:   7    -0.132436511269E+04    0.46182E-03   -0.50938E-03 39290   0.201E-01    0.167E-01
DAV:   8    -0.132436572195E+04   -0.60926E-03   -0.10927E-03 37490   0.996E-02    0.101E-01
DAV:   9    -0.132436558746E+04    0.13449E-03   -0.23501E-04 34360   0.366E-02    0.747E-02
DAV:  10    -0.132436548103E+04    0.10643E-03   -0.41136E-05 22460   0.195E-02    0.379E-02
DAV:  11    -0.132436566341E+04   -0.18238E-03   -0.21489E-05 22160   0.174E-02    0.154E-02
DAV:  12    -0.132436562296E+04    0.40448E-04   -0.16815E-05 18740   0.866E-03
  46 F= -.13243656E+04 E0= -.13243656E+04  d E =-.306532E+00  mag=   120.0000
       N       E                     dE             d eps       ncg     rms          rms(c)
DAV:   1    -0.132432359300E+04    0.42070E-01   -0.18236E+00 48310   0.621E+00    0.104E+00
DAV:   2    -0.132437033453E+04   -0.46742E-01   -0.42730E-01 37150   0.106E+00    0.499E-01
DAV:   3    -0.132437142807E+04   -0.10935E-02   -0.14367E-02 37560   0.250E-01    0.257E-01
DAV:   4    -0.132437152426E+04   -0.96181E-04   -0.91152E-04 38730   0.662E-02    0.173E-01
DAV:   5    -0.132437125452E+04    0.26974E-03   -0.18696E-04 30880   0.519E-02    0.118E-01
DAV:   6    -0.132437129118E+04   -0.36667E-04   -0.27028E-04 37300   0.613E-02
  47 F= -.13243713E+04 E0= -.13243713E+04  d E =-.566822E-02  mag=   120.0000
       N       E                     dE             d eps       ncg     rms          rms(c)
DAV:   1    -0.132275428826E+04    0.16170E+01   -0.70760E+01 46970   0.354E+01    0.600E+00
DAV:   2    -0.132429476579E+04   -0.15405E+01   -0.14114E+01 36110   0.610E+00    0.317E+00
DAV:   3    -0.132432900267E+04   -0.34237E-01   -0.40734E-01 37100   0.132E+00    0.140E+00
DAV:   4    -0.132432904006E+04   -0.37395E-04   -0.25768E-02 39940   0.327E-01    0.999E-01
DAV:   5    -0.132432481901E+04    0.42210E-02   -0.39510E-03 42390   0.241E-01    0.635E-01
DAV:   6    -0.132432328527E+04    0.15337E-02   -0.49614E-03 43240   0.264E-01    0.293E-01
DAV:   7    -0.132432351147E+04   -0.22620E-03   -0.30217E-03 38510   0.140E-01    0.132E-01
DAV:   8    -0.132432401304E+04   -0.50157E-03   -0.38781E-04 34620   0.590E-02    0.678E-02
DAV:   9    -0.132432392623E+04    0.86806E-04   -0.57294E-05 22770   0.219E-02    0.391E-02
DAV:  10    -0.132432388293E+04    0.43298E-04   -0.20358E-05 18940   0.156E-02
  48 F= -.13243239E+04 E0= -.13243239E+04  d E =0.474082E-01  mag=   120.0000
       N       E                     dE             d eps       ncg     rms          rms(c)
DAV:   1    -0.131776527894E+04    0.65586E+01   -0.25744E+02 45550   0.688E+01    0.128E+01
DAV:   2    -0.132379644500E+04   -0.60312E+01   -0.54705E+01 37680   0.123E+01    0.791E+00
DAV:   3    -0.132395362211E+04   -0.15718E+00   -0.19685E+00 37670   0.301E+00    0.359E+00
DAV:   4    -0.132394481408E+04    0.88080E-02   -0.12509E-01 39920   0.785E-01    0.248E+00
DAV:   5    -0.132392548938E+04    0.19325E-01   -0.25268E-02 39400   0.467E-01    0.171E+00
DAV:   6    -0.132391503064E+04    0.10459E-01   -0.25885E-02 41690   0.630E-01    0.967E-01
DAV:   7    -0.132391331933E+04    0.17113E-02   -0.23429E-02 40360   0.461E-01    0.354E-01
DAV:   8    -0.132391545335E+04   -0.21340E-02   -0.45249E-03 37590   0.186E-01    0.149E-01
DAV:   9    -0.132391503462E+04    0.41874E-03   -0.87921E-04 37560   0.554E-02    0.115E-01
DAV:  10    -0.132391490398E+04    0.13064E-03   -0.74239E-05 24550   0.313E-02    0.663E-02
DAV:  11    -0.132391515950E+04   -0.25552E-03   -0.70752E-05 23650   0.243E-02    0.270E-02
DAV:  12    -0.132391508277E+04    0.76738E-04   -0.31001E-05 19000   0.137E-02    0.186E-02
DAV:  13    -0.132391502508E+04    0.57683E-04   -0.96463E-06 18760   0.757E-03    0.126E-02
DAV:  14    -0.132391504698E+04   -0.21898E-04   -0.20175E-06 18640   0.347E-03
  49 F= -.13239150E+04 E0= -.13239150E+04  d E =0.408836E+00  mag=   120.0000
       N       E                     dE             d eps       ncg     rms          rms(c)
DAV:   1    -0.132280948136E+04    0.11055E+01   -0.46491E+01 50120   0.347E+01    0.604E+00
DAV:   2    -0.132422331283E+04   -0.14138E+01   -0.12379E+01 38200   0.586E+00    0.341E+00
DAV:   3    -0.132427642015E+04   -0.53107E-01   -0.52705E-01 37780   0.161E+00    0.179E+00
DAV:   4    -0.132427549719E+04    0.92296E-03   -0.34745E-02 40520   0.488E-01    0.104E+00
DAV:   5    -0.132426962953E+04    0.58677E-02   -0.10228E-02 40100   0.321E-01    0.720E-01
DAV:   6    -0.132426696853E+04    0.26610E-02   -0.96463E-03 39950   0.347E-01    0.430E-01
DAV:   7    -0.132426626487E+04    0.70366E-03   -0.49891E-03 40080   0.209E-01    0.165E-01
DAV:   8    -0.132426689602E+04   -0.63116E-03   -0.14843E-03 37730   0.102E-01    0.994E-02
DAV:   9    -0.132426681288E+04    0.83142E-04   -0.24090E-04 34450   0.338E-02    0.730E-02
DAV:  10    -0.132426670225E+04    0.11063E-03   -0.33277E-05 21270   0.183E-02    0.408E-02
DAV:  11    -0.132426686397E+04   -0.16173E-03   -0.23922E-05 22530   0.179E-02    0.171E-02
DAV:  12    -0.132426682285E+04    0.41122E-04   -0.16366E-05 18750   0.831E-03
  50 F= -.13242668E+04 E0= -.13242668E+04  d E =-.351776E+00  mag=   120.0000
       N       E                     dE             d eps       ncg     rms          rms(c)
DAV:   1    -0.132414704671E+04    0.11982E+00   -0.46138E+00 49780   0.110E+01    0.182E+00
DAV:   2    -0.132428687196E+04   -0.13983E+00   -0.12299E+00 37990   0.184E+00    0.910E-01
DAV:   3    -0.132429208044E+04   -0.52085E-02   -0.49429E-02 37620   0.463E-01    0.481E-01
DAV:   4    -0.132429185525E+04    0.22520E-03   -0.27284E-03 39680   0.113E-01    0.290E-01
DAV:   5    -0.132429141795E+04    0.43730E-03   -0.75079E-04 40420   0.860E-02    0.179E-01
DAV:   6    -0.132429103215E+04    0.38580E-03   -0.68756E-04 39600   0.934E-02    0.109E-01
DAV:   7    -0.132429119446E+04   -0.16231E-03   -0.42072E-04 38430   0.611E-02    0.474E-02
DAV:   8    -0.132429110755E+04    0.86912E-04   -0.60470E-05 22130   0.268E-02    0.229E-02
DAV:   9    -0.132429111298E+04   -0.54305E-05   -0.20989E-05 18880   0.952E-03
  51 F= -.13242911E+04 E0= -.13242911E+04  d E =-.242901E-01  mag=   120.0000
       N       E                     dE             d eps       ncg     rms          rms(c)
DAV:   1    -0.132421143520E+04    0.79672E-01   -0.28160E+00 48790   0.819E+00    0.138E+00
DAV:   2    -0.132429692351E+04   -0.85488E-01   -0.76604E-01 36790   0.138E+00    0.661E-01
DAV:   3    -0.132429938833E+04   -0.24648E-02   -0.24778E-02 37080   0.320E-01    0.330E-01
DAV:   4    -0.132429912857E+04    0.25976E-03   -0.16447E-03 39000   0.831E-02    0.235E-01
DAV:   5    -0.132429905503E+04    0.73540E-04   -0.23735E-04 32640   0.604E-02    0.161E-01
DAV:   6    -0.132429879558E+04    0.25945E-03   -0.37551E-04 39530   0.772E-02    0.709E-02
DAV:   7    -0.132429891264E+04   -0.11706E-03   -0.20695E-04 33040   0.402E-02    0.309E-02
DAV:   8    -0.132429885013E+04    0.62509E-04   -0.26840E-05 19570   0.156E-02    0.156E-02
DAV:   9    -0.132429884682E+04    0.33098E-05   -0.55068E-06 18270   0.574E-03
  52 F= -.13242988E+04 E0= -.13242988E+04  d E =-.773384E-02  mag=   120.0000
       N       E                     dE             d eps       ncg     rms          rms(c)
DAV:   1    -0.132302139079E+04    0.12775E+01   -0.51739E+01 47950   0.319E+01    0.528E+00
DAV:   2    -0.132426676946E+04   -0.12454E+01   -0.11216E+01 36060   0.535E+00    0.269E+00
DAV:   3    -0.132429488133E+04   -0.28112E-01   -0.32437E-01 36760   0.116E+00    0.119E+00
DAV:   4    -0.132429500071E+04   -0.11938E-03   -0.20978E-02 40190   0.307E-01    0.872E-01
DAV:   5    -0.132429128744E+04    0.37133E-02   -0.39742E-03 42430   0.259E-01    0.565E-01
DAV:   6    -0.132429042951E+04    0.85793E-03   -0.52531E-03 44120   0.271E-01    0.282E-01
DAV:   7    -0.132429024327E+04    0.18623E-03   -0.24278E-03 38250   0.138E-01    0.110E-01
DAV:   8    -0.132429066067E+04   -0.41740E-03   -0.28832E-04 33920   0.460E-02    0.574E-02
DAV:   9    -0.132429064970E+04    0.10975E-04   -0.31371E-05 20100   0.163E-02
  53 F= -.13242906E+04 E0= -.13242906E+04  d E =0.819712E-02  mag=   120.0000
       N       E                     dE             d eps       ncg     rms          rms(c)
DAV:   1    -0.131973948569E+04    0.45512E+01   -0.21771E+02 45300   0.596E+01    0.101E+01
DAV:   2    -0.132413641099E+04   -0.43969E+01   -0.40610E+01 35730   0.106E+01    0.621E+00
DAV:   3    -0.132421746690E+04   -0.81056E-01   -0.12287E+00 36460   0.237E+00    0.262E+00
DAV:   4    -0.132421066503E+04    0.68019E-02   -0.93380E-02 40430   0.755E-01    0.191E+00
DAV:   5    -0.132420160210E+04    0.90629E-02   -0.15449E-02 40220   0.428E-01    0.131E+00
DAV:   6    -0.132419281502E+04    0.87871E-02   -0.17297E-02 42510   0.541E-01    0.637E-01
DAV:   7    -0.132419458727E+04   -0.17723E-02   -0.12251E-02 38820   0.299E-01    0.273E-01
DAV:   8    -0.132419499202E+04   -0.40475E-03   -0.16130E-03 36670   0.108E-01    0.116E-01
DAV:   9    -0.132419506216E+04   -0.70131E-04   -0.17386E-04 32420   0.298E-02    0.657E-02
DAV:  10    -0.132419501080E+04    0.51359E-04   -0.98954E-05 24170   0.351E-02    0.361E-02
DAV:  11    -0.132419501466E+04   -0.38606E-05   -0.38079E-05 19810   0.192E-02
  54 F= -.13241950E+04 E0= -.13241950E+04  d E =0.956350E-01  mag=   120.0000
       N       E                     dE             d eps       ncg     rms          rms(c)
DAV:   1    -0.132318538124E+04    0.10096E+01   -0.42281E+01 46950   0.297E+01    0.493E+00
DAV:   2    -0.132426646266E+04   -0.10811E+01   -0.97302E+00 37420   0.515E+00    0.268E+00
DAV:   3    -0.132429275122E+04   -0.26289E-01   -0.36469E-01 37170   0.132E+00    0.144E+00
DAV:   4    -0.132429343549E+04   -0.68427E-03   -0.26652E-02 39240   0.398E-01    0.916E-01
DAV:   5    -0.132429006878E+04    0.33667E-02   -0.51194E-03 40430   0.241E-01    0.653E-01
DAV:   6    -0.132428820337E+04    0.18654E-02   -0.58321E-03 41700   0.293E-01    0.324E-01
DAV:   7    -0.132428796811E+04    0.23526E-03   -0.32828E-03 39460   0.156E-01    0.117E-01
DAV:   8    -0.132428856171E+04   -0.59360E-03   -0.52692E-04 36160   0.628E-02    0.672E-02
DAV:   9    -0.132428852358E+04    0.38129E-04   -0.56357E-05 21980   0.197E-02
  55 F= -.13242885E+04 E0= -.13242885E+04  d E =-.935089E-01  mag=   120.0000
       N       E                     dE             d eps       ncg     rms          rms(c)
DAV:   1    -0.132400369591E+04    0.28487E+00   -0.12548E+01 46840   0.161E+01    0.260E+00
DAV:   2    -0.132431926113E+04   -0.31557E+00   -0.28850E+00 36790   0.275E+00    0.133E+00
DAV:   3    -0.132432486936E+04   -0.56082E-02   -0.87369E-02 37240   0.607E-01    0.652E-01
DAV:   4    -0.132432512409E+04   -0.25473E-03   -0.57751E-03 39760   0.162E-01    0.460E-01
DAV:   5    -0.132432401148E+04    0.11126E-02   -0.11325E-03 42470   0.133E-01    0.311E-01
DAV:   6    -0.132432376166E+04    0.24982E-03   -0.15983E-03 43900   0.158E-01    0.151E-01
DAV:   7    -0.132432351386E+04    0.24780E-03   -0.82051E-04 38600   0.798E-02    0.530E-02
DAV:   8    -0.132432372937E+04   -0.21551E-03   -0.80415E-05 23810   0.269E-02    0.287E-02
DAV:   9    -0.132432371011E+04    0.19257E-04   -0.15393E-05 18750   0.950E-03
  56 F= -.13243237E+04 E0= -.13243237E+04  d E =-.351865E-01  mag=   120.0000
       N       E                     dE             d eps       ncg     rms          rms(c)
DAV:   1    -0.132414496062E+04    0.17877E+00   -0.86410E+00 46470   0.129E+01    0.211E+00
DAV:   2    -0.132435019048E+04   -0.20523E+00   -0.18889E+00 36740   0.222E+00    0.105E+00
DAV:   3    -0.132435380847E+04   -0.36180E-02   -0.59041E-02 37180   0.505E-01    0.544E-01
DAV:   4    -0.132435381053E+04   -0.20572E-05   -0.37863E-03 39640   0.123E-01    0.369E-01
DAV:   5    -0.132435316023E+04    0.65030E-03   -0.66220E-04 41620   0.930E-02    0.235E-01
DAV:   6    -0.132435290650E+04    0.25373E-03   -0.77778E-04 43020   0.103E-01    0.879E-02
DAV:   7    -0.132435286374E+04    0.42763E-04   -0.41698E-04 37100   0.537E-02
  57 F= -.13243529E+04 E0= -.13243529E+04  d E =-.291536E-01  mag=   120.0000
       N       E                     dE             d eps       ncg     rms          rms(c)
DAV:   1    -0.132398397092E+04    0.36894E+00   -0.20467E+01 43890   0.176E+01    0.293E+00
DAV:   2    -0.132438447673E+04   -0.40051E+00   -0.38288E+00 36880   0.313E+00    0.148E+00
DAV:   3    -0.132439004377E+04   -0.55670E-02   -0.10774E-01 36830   0.648E-01    0.717E-01
DAV:   4    -0.132438935749E+04    0.68628E-03   -0.66980E-03 39590   0.147E-01    0.536E-01
DAV:   5    -0.132438769079E+04    0.16667E-02   -0.13903E-03 43230   0.143E-01    0.315E-01
DAV:   6    -0.132438713561E+04    0.55517E-03   -0.14987E-03 43510   0.122E-01    0.108E-01
DAV:   7    -0.132438726820E+04   -0.13258E-03   -0.61265E-04 37830   0.573E-02    0.619E-02
DAV:   8    -0.132438734184E+04   -0.73645E-04   -0.64755E-05 21940   0.234E-02    0.331E-02
DAV:   9    -0.132438725090E+04    0.90936E-04   -0.18873E-05 19180   0.132E-02    0.228E-02
DAV:  10    -0.132438728728E+04   -0.36375E-04   -0.85351E-06 18330   0.106E-02
  58 F= -.13243873E+04 E0= -.13243873E+04  d E =-.344235E-01  mag=   120.0000
       N       E                     dE             d eps       ncg     rms          rms(c)
DAV:   1    -0.132356528718E+04    0.82196E+00   -0.49660E+01 43720   0.264E+01    0.426E+00
DAV:   2    -0.132440140999E+04   -0.83612E+00   -0.81217E+00 36280   0.471E+00    0.219E+00
DAV:   3    -0.132441331682E+04   -0.11907E-01   -0.23036E-01 36430   0.105E+00    0.113E+00
DAV:   4    -0.132441040198E+04    0.29148E-02   -0.19594E-02 39150   0.346E-01    0.822E-01
DAV:   5    -0.132440832084E+04    0.20811E-02   -0.39215E-03 40680   0.228E-01    0.571E-01
DAV:   6    -0.132440558354E+04    0.27373E-02   -0.47458E-03 42580   0.267E-01    0.238E-01
DAV:   7    -0.132440632855E+04   -0.74500E-03   -0.24135E-03 38470   0.118E-01    0.860E-02
DAV:   8    -0.132440622438E+04    0.10416E-03   -0.22816E-04 33930   0.360E-02    0.524E-02
DAV:   9    -0.132440617967E+04    0.44713E-04   -0.21583E-05 19570   0.142E-02
  59 F= -.13244062E+04 E0= -.13244062E+04  d E =-.188924E-01  mag=   120.0000
       N       E                     dE             d eps       ncg     rms          rms(c)
DAV:   1    -0.132352996625E+04    0.87626E+00   -0.58755E+01 43040   0.278E+01    0.443E+00
DAV:   2    -0.132441753228E+04   -0.88757E+00   -0.87637E+00 36600   0.501E+00    0.226E+00
DAV:   3    -0.132442939241E+04   -0.11860E-01   -0.24137E-01 37130   0.106E+00    0.114E+00
DAV:   4    -0.132442663874E+04    0.27537E-02   -0.17678E-02 39620   0.312E-01    0.814E-01
DAV:   5    -0.132442430339E+04    0.23353E-02   -0.46488E-03 41100   0.246E-01    0.565E-01
DAV:   6    -0.132442213829E+04    0.21651E-02   -0.61979E-03 42740   0.284E-01    0.287E-01
DAV:   7    -0.132442279137E+04   -0.65308E-03   -0.28171E-03 38700   0.138E-01    0.922E-02
DAV:   8    -0.132442277291E+04    0.18465E-04   -0.31572E-04 35050   0.434E-02
  60 F= -.13244228E+04 E0= -.13244228E+04  d E =-.165932E-01  mag=   120.0000
       N       E                     dE             d eps       ncg     rms          rms(c)
DAV:   1    -0.132402265245E+04    0.40014E+00   -0.20639E+01 45780   0.188E+01    0.309E+00
DAV:   2    -0.132445699439E+04   -0.43434E+00   -0.40614E+00 37160   0.332E+00    0.161E+00
DAV:   3    -0.132446462441E+04   -0.76300E-02   -0.13471E-01 36810   0.848E-01    0.912E-01
DAV:   4    -0.132446455623E+04    0.68178E-04   -0.12125E-02 39120   0.292E-01    0.593E-01
DAV:   5    -0.132446277025E+04    0.17860E-02   -0.19722E-03 40570   0.151E-01    0.417E-01
DAV:   6    -0.132446193655E+04    0.83370E-03   -0.23774E-03 44340   0.181E-01    0.149E-01
DAV:   7    -0.132446188470E+04    0.51847E-04   -0.10852E-03 39150   0.671E-02    0.525E-02
DAV:   8    -0.132446204209E+04   -0.15739E-03   -0.62668E-05 22440   0.187E-02    0.335E-02
DAV:   9    -0.132446202438E+04    0.17711E-04   -0.13689E-05 18780   0.103E-02
  61 F= -.13244620E+04 E0= -.13244620E+04  d E =-.392515E-01  mag=   120.0000
       N       E                     dE             d eps       ncg     rms          rms(c)
DAV:   1    -0.132428308282E+04    0.17896E+00   -0.10894E+01 43460   0.124E+01    0.202E+00
DAV:   2    -0.132446667511E+04   -0.18359E+00   -0.17729E+00 37780   0.224E+00    0.104E+00
DAV:   3    -0.132446879456E+04   -0.21194E-02   -0.54424E-02 37100   0.524E-01    0.584E-01
DAV:   4    -0.132446885778E+04   -0.63225E-04   -0.41835E-03 39250   0.163E-01    0.389E-01
DAV:   5    -0.132446788481E+04    0.97297E-03   -0.11136E-03 41140   0.116E-01    0.275E-01
DAV:   6    -0.132446768135E+04    0.20346E-03   -0.14574E-03 42120   0.138E-01    0.131E-01
DAV:   7    -0.132446740347E+04    0.27787E-03   -0.63290E-04 39140   0.633E-02    0.395E-02
DAV:   8    -0.132446753653E+04   -0.13305E-03   -0.67345E-05 22250   0.225E-02    0.258E-02
DAV:   9    -0.132446754564E+04   -0.91184E-05   -0.14518E-05 18740   0.871E-03
  62 F= -.13244675E+04 E0= -.13244675E+04  d E =-.552126E-02  mag=   120.0000
       N       E                     dE             d eps       ncg     rms          rms(c)
DAV:   1    -0.132427299478E+04    0.19454E+00   -0.71707E+00 47260   0.126E+01    0.211E+00
DAV:   2    -0.132447105859E+04   -0.19806E+00   -0.17837E+00 36530   0.215E+00    0.100E+00
DAV:   3    -0.132447515759E+04   -0.40990E-02   -0.54322E-02 37110   0.465E-01    0.484E-01
DAV:   4    -0.132447512105E+04    0.36538E-04   -0.34827E-03 39410   0.115E-01    0.360E-01
DAV:   5    -0.132447470815E+04    0.41290E-03   -0.64786E-04 42160   0.105E-01    0.238E-01
DAV:   6    -0.132447415154E+04    0.55662E-03   -0.97483E-04 45160   0.123E-01    0.119E-01
DAV:   7    -0.132447450570E+04   -0.35417E-03   -0.46091E-04 37720   0.618E-02    0.394E-02
DAV:   8    -0.132447443514E+04    0.70558E-04   -0.40210E-05 20030   0.182E-02    0.197E-02
DAV:   9    -0.132447440658E+04    0.28560E-04   -0.79111E-06 18370   0.762E-03
  63 F= -.13244744E+04 E0= -.13244744E+04  d E =-.686094E-02  mag=   120.0000
       N       E                     dE             d eps       ncg     rms          rms(c)
DAV:   1    -0.132413238752E+04    0.34205E+00   -0.20802E+01 44680   0.171E+01    0.272E+00
DAV:   2    -0.132447804751E+04   -0.34566E+00   -0.33551E+00 36210   0.304E+00    0.135E+00
DAV:   3    -0.132448226985E+04   -0.42223E-02   -0.92854E-02 36910   0.623E-01    0.673E-01
DAV:   4    -0.132448115742E+04    0.11124E-02   -0.68660E-03 39600   0.189E-01    0.498E-01
DAV:   5    -0.132448029131E+04    0.86611E-03   -0.15295E-03 41320   0.158E-01    0.334E-01
DAV:   6    -0.132447917573E+04    0.11156E-02   -0.22070E-03 44260   0.177E-01    0.147E-01
DAV:   7    -0.132447964014E+04   -0.46441E-03   -0.90411E-04 38040   0.775E-02    0.513E-02
DAV:   8    -0.132447955384E+04    0.86300E-04   -0.60157E-05 22370   0.201E-02    0.318E-02
DAV:   9    -0.132447952046E+04    0.33381E-04   -0.10419E-05 18510   0.985E-03
  64 F= -.13244795E+04 E0= -.13244795E+04  d E =-.511387E-02  mag=   120.0000
       N       E                     dE             d eps       ncg     rms          rms(c)
DAV:   1    -0.132300862167E+04    0.14709E+01   -0.76218E+01 45380   0.346E+01    0.577E+00
[...]
 166 F= -.13245708E+04 E0= -.13245708E+04  d E =0.963674E-03  mag=   120.0000
       N       E                     dE             d eps       ncg     rms          rms(c)
DAV:   1    -0.132456010018E+04    0.10705E-01   -0.45189E-01 47260   0.287E+00    0.461E-01
DAV:   2    -0.132456970466E+04   -0.96045E-02   -0.89234E-02 36330   0.486E-01    0.233E-01
DAV:   3    -0.132456972507E+04   -0.20418E-04   -0.28385E-03 36910   0.115E-01    0.125E-01
DAV:   4    -0.132456983694E+04   -0.11187E-03   -0.21549E-04 29850   0.367E-02    0.827E-02
DAV:   5    -0.132456974666E+04    0.90287E-04   -0.51531E-05 20110   0.274E-02    0.551E-02
DAV:   6    -0.132456975513E+04   -0.84714E-05   -0.65218E-05 21690   0.281E-02
 167 F= -.13245698E+04 E0= -.13245698E+04  d E =0.109068E-02  mag=   120.0000
       N       E                     dE             d eps       ncg     rms          rms(c)
DAV:   1    -0.132456607305E+04    0.36736E-02   -0.16116E-01 45120   0.155E+00    0.262E-01
DAV:   2    -0.132456931223E+04   -0.32392E-02   -0.31121E-02 36360   0.274E-01    0.128E-01
DAV:   3    -0.132456934999E+04   -0.37759E-04   -0.93168E-04 36500   0.583E-02    0.666E-02
DAV:   4    -0.132456937007E+04   -0.20082E-04   -0.55455E-05 21630   0.141E-02
 168 F= -.13245694E+04 E0= -.13245694E+04  d E =0.385056E-03  mag=   120.0000
       N       E                     dE             d eps       ncg     rms          rms(c)
DAV:   1    -0.132455823987E+04    0.11110E-01   -0.76902E-01 42430   0.288E+00    0.444E-01
DAV:   2    -0.132456754000E+04   -0.93001E-02   -0.98019E-02 35750   0.516E-01    0.229E-01
DAV:   3    -0.132456769414E+04   -0.15414E-03   -0.27191E-03 37240   0.103E-01    0.121E-01
DAV:   4    -0.132456761828E+04    0.75870E-04   -0.17868E-04 29040   0.293E-02    0.886E-02
DAV:   5    -0.132456760827E+04    0.10005E-04   -0.68287E-05 21330   0.318E-02
 169 F= -.13245676E+04 E0= -.13245676E+04  d E =0.176180E-02  mag=   120.0000
       N       E                     dE             d eps       ncg     rms          rms(c)
DAV:   1    -0.132438601729E+04    0.18160E+00   -0.12544E+01 42890   0.119E+01    0.197E+00
DAV:   2    -0.132455575964E+04   -0.16974E+00   -0.17299E+00 35420   0.215E+00    0.954E-01
DAV:   3    -0.132455763312E+04   -0.18735E-02   -0.46057E-02 36500   0.416E-01    0.460E-01
DAV:   4    -0.132455728723E+04    0.34589E-03   -0.30435E-03 39590   0.102E-01    0.346E-01
DAV:   5    -0.132455671722E+04    0.57002E-03   -0.63737E-04 43290   0.975E-02    0.210E-01
DAV:   6    -0.132455629960E+04    0.41761E-03   -0.90311E-04 43140   0.100E-01    0.952E-02
DAV:   7    -0.132455659073E+04   -0.29112E-03   -0.37748E-04 36570   0.527E-02    0.414E-02
DAV:   8    -0.132455656364E+04    0.27089E-04   -0.32233E-05 19530   0.168E-02
 170 F= -.13245566E+04 E0= -.13245566E+04  d E =0.110446E-01  mag=   120.0000
       N       E                     dE             d eps       ncg     rms          rms(c)
DAV:   1    -0.132302223416E+04    0.15344E+01   -0.35347E+01 49100   0.310E+01    0.601E+00
DAV:   2    -0.132443296755E+04   -0.14107E+01   -0.11864E+01 36980   0.510E+00    0.378E+00
DAV:   3    -0.132447772432E+04   -0.44757E-01   -0.42706E-01 37560   0.124E+00    0.145E+00
DAV:   4    -0.132447877768E+04   -0.10534E-02   -0.22762E-02 40950   0.278E-01    0.970E-01
DAV:   5    -0.132447677159E+04    0.20061E-02   -0.33201E-03 43420   0.184E-01    0.617E-01
DAV:   6    -0.132447511873E+04    0.16529E-02   -0.22556E-03 44120   0.203E-01    0.245E-01
DAV:   7    -0.132447569720E+04   -0.57847E-03   -0.15252E-03 39050   0.910E-02    0.963E-02
DAV:   8    -0.132447584666E+04   -0.14945E-03   -0.18982E-04 32730   0.429E-02    0.555E-02
DAV:   9    -0.132447587430E+04   -0.27645E-04   -0.45724E-05 20410   0.203E-02
 171 F= -.13244759E+04 E0= -.13244759E+04  d E =0.806893E-01  mag=   120.0000
       N       E                     dE             d eps       ncg     rms          rms(c)
DAV:   1    -0.132433070855E+04    0.14514E+00   -0.56702E+00 49450   0.124E+01    0.214E+00
DAV:   2    -0.132452727395E+04   -0.19657E+00   -0.16861E+00 38030   0.206E+00    0.109E+00
DAV:   3    -0.132453470776E+04   -0.74338E-02   -0.69600E-02 37340   0.543E-01    0.581E-01
DAV:   4    -0.132453506521E+04   -0.35745E-03   -0.42295E-03 39610   0.135E-01    0.355E-01
DAV:   5    -0.132453443716E+04    0.62805E-03   -0.96076E-04 39990   0.968E-02    0.246E-01
DAV:   6    -0.132453429135E+04    0.14581E-03   -0.90096E-04 41950   0.110E-01    0.132E-01
DAV:   7    -0.132453412000E+04    0.17135E-03   -0.39820E-04 38270   0.603E-02    0.480E-02
DAV:   8    -0.132453429590E+04   -0.17590E-03   -0.76123E-05 23350   0.255E-02    0.262E-02
DAV:   9    -0.132453425481E+04    0.41091E-04   -0.16065E-05 18680   0.897E-03
 172 F= -.13245343E+04 E0= -.13245343E+04  d E =-.583805E-01  mag=   120.0000
       N       E                     dE             d eps       ncg     rms          rms(c)
DAV:   1    -0.132448594737E+04    0.48349E-01   -0.20730E+00 48280   0.662E+00    0.118E+00
DAV:   2    -0.132454534838E+04   -0.59401E-01   -0.51041E-01 37540   0.112E+00    0.602E-01
DAV:   3    -0.132454743333E+04   -0.20849E-02   -0.18780E-02 37190   0.272E-01    0.309E-01
DAV:   4    -0.132454743979E+04   -0.64596E-05   -0.10409E-03 38540   0.614E-02    0.187E-01
DAV:   5    -0.132454728502E+04    0.15476E-03   -0.25312E-04 33910   0.473E-02    0.119E-01
DAV:   6    -0.132454719098E+04    0.94039E-04   -0.16796E-04 35570   0.446E-02    0.455E-02
DAV:   7    -0.132454719082E+04    0.16365E-06   -0.80639E-05 24030   0.217E-02
 173 F= -.13245472E+04 E0= -.13245472E+04  d E =-.129360E-01  mag=   120.0000
       N       E                     dE             d eps       ncg     rms          rms(c)
DAV:   1    -0.132453965666E+04    0.75343E-02   -0.48889E-01 46880   0.279E+00    0.483E-01
DAV:   2    -0.132455030612E+04   -0.10649E-01   -0.94534E-02 36310   0.477E-01    0.249E-01
DAV:   3    -0.132455067685E+04   -0.37073E-03   -0.30783E-03 36880   0.109E-01    0.128E-01
DAV:   4    -0.132455059768E+04    0.79168E-04   -0.19479E-04 28990   0.298E-02    0.803E-02
DAV:   5    -0.132455060211E+04   -0.44275E-05   -0.41044E-05 19870   0.224E-02
 174 F= -.13245506E+04 E0= -.13245506E+04  d E =-.341129E-02  mag=   120.0000
       N       E                     dE             d eps       ncg     rms          rms(c)
DAV:   1    -0.132450644899E+04    0.44149E-01   -0.20685E+00 47130   0.562E+00    0.101E+00
DAV:   2    -0.132455188883E+04   -0.45440E-01   -0.40032E-01 35420   0.949E-01    0.498E-01
DAV:   3    -0.132455308094E+04   -0.11921E-02   -0.13933E-02 37160   0.204E-01    0.231E-01
DAV:   4    -0.132455308973E+04   -0.87909E-05   -0.81642E-04 38390   0.490E-02    0.157E-01
DAV:   5    -0.132455299323E+04    0.96498E-04   -0.11455E-04 27690   0.393E-02    0.938E-02
DAV:   6    -0.132455292026E+04    0.72973E-04   -0.15379E-04 32680   0.371E-02    0.322E-02
DAV:   7    -0.132455297140E+04   -0.51141E-04   -0.54843E-05 20410   0.167E-02    0.138E-02
DAV:   8    -0.132455297154E+04   -0.14277E-06   -0.65159E-06 18060   0.537E-03
 175 F= -.13245530E+04 E0= -.13245530E+04  d E =-.236943E-02  mag=   120.0000
       N       E                     dE             d eps       ncg     rms          rms(c)
DAV:   1    -0.132454022185E+04    0.12750E-01   -0.67656E-01 44680   0.300E+00    0.511E-01
DAV:   2    -0.132455212592E+04   -0.11904E-01   -0.11488E-01 36070   0.528E-01    0.247E-01
DAV:   3    -0.132455241591E+04   -0.28998E-03   -0.33321E-03 37250   0.107E-01    0.119E-01
DAV:   4    -0.132455233479E+04    0.81118E-04   -0.21708E-04 29160   0.307E-02    0.877E-02
DAV:   5    -0.132455234933E+04   -0.14544E-04   -0.61045E-05 20660   0.294E-02
 176 F= -.13245523E+04 E0= -.13245523E+04  d E =0.622213E-03  mag=   120.0000
       N       E                     dE             d eps       ncg     rms          rms(c)
DAV:   1    -0.132443994206E+04    0.11239E+00   -0.67339E+00 43720   0.925E+00    0.150E+00
DAV:   2    -0.132454321751E+04   -0.10328E+00   -0.10218E+00 36270   0.164E+00    0.737E-01
DAV:   3    -0.132454461482E+04   -0.13973E-02   -0.28056E-02 37130   0.329E-01    0.372E-01
DAV:   4    -0.132454431796E+04    0.29686E-03   -0.19063E-03 39450   0.927E-02    0.271E-01
DAV:   5    -0.132454411994E+04    0.19802E-03   -0.53634E-04 37650   0.898E-02    0.174E-01
DAV:   6    -0.132454377249E+04    0.34745E-03   -0.68316E-04 41710   0.924E-02    0.832E-02
DAV:   7    -0.132454401512E+04   -0.24262E-03   -0.26063E-04 35230   0.434E-02    0.289E-02
DAV:   8    -0.132454397622E+04    0.38897E-04   -0.22702E-05 19040   0.124E-02
 177 F= -.13245440E+04 E0= -.13245440E+04  d E =0.837311E-02  mag=   120.0000
       N       E                     dE             d eps       ncg     rms          rms(c)
DAV:   1    -0.132405073003E+04    0.49329E+00   -0.27215E+01 46060   0.207E+01    0.317E+00
DAV:   2    -0.132451848772E+04   -0.46776E+00   -0.44401E+00 35170   0.351E+00    0.167E+00
DAV:   3    -0.132452788166E+04   -0.93939E-02   -0.14533E-01 37230   0.765E-01    0.773E-01
DAV:   4    -0.132452765833E+04    0.22333E-03   -0.96525E-03 41110   0.217E-01    0.542E-01
DAV:   5    -0.132452663853E+04    0.10198E-02   -0.19452E-03 42450   0.168E-01    0.347E-01
DAV:   6    -0.132452552553E+04    0.11130E-02   -0.22935E-03 44610   0.182E-01    0.169E-01
DAV:   7    -0.132452604547E+04   -0.51994E-03   -0.10972E-03 37880   0.896E-02    0.680E-02
DAV:   8    -0.132452599075E+04    0.54720E-04   -0.95851E-05 26820   0.286E-02    0.395E-02
DAV:   9    -0.132452597538E+04    0.15367E-04   -0.14204E-05 18680   0.100E-02
 178 F= -.13245260E+04 E0= -.13245260E+04  d E =0.180008E-01  mag=   120.0000
       N       E                     dE             d eps       ncg     rms          rms(c)
DAV:   1    -0.132156133813E+04    0.29647E+01   -0.72322E+01 49120   0.417E+01    0.862E+00
DAV:   2    -0.132425675399E+04   -0.26954E+01   -0.23135E+01 37220   0.709E+00    0.563E+00
DAV:   3    -0.132435204316E+04   -0.95289E-01   -0.83128E-01 37750   0.183E+00    0.214E+00
DAV:   4    -0.132435430144E+04   -0.22583E-02   -0.59251E-02 39730   0.546E-01    0.154E+00
DAV:   5    -0.132434927085E+04    0.50306E-02   -0.14369E-02 41520   0.388E-01    0.108E+00
DAV:   6    -0.132434729370E+04    0.19772E-02   -0.10336E-02 42920   0.385E-01    0.610E-01
DAV:   7    -0.132434571887E+04    0.15748E-02   -0.58538E-03 40850   0.238E-01    0.179E-01
DAV:   8    -0.132434725848E+04   -0.15396E-02   -0.12032E-03 37980   0.865E-02    0.779E-02
DAV:   9    -0.132434699994E+04    0.25854E-03   -0.24916E-04 34270   0.328E-02    0.563E-02
DAV:  10    -0.132434696462E+04    0.35320E-04   -0.26514E-05 19390   0.167E-02
 179 F= -.13243470E+04 E0= -.13243470E+04  d E =0.179011E+00  mag=   120.0000
       N       E                     dE             d eps       ncg     rms          rms(c)
DAV:   1    -0.132380642083E+04    0.54058E+00   -0.17676E+01 49420   0.197E+01    0.427E+00
DAV:   2    -0.132448561418E+04   -0.67919E+00   -0.58138E+00 37720   0.331E+00    0.254E+00
DAV:   3    -0.132451462350E+04   -0.29009E-01   -0.22922E-01 37600   0.839E-01    0.106E+00
DAV:   4    -0.132451564222E+04   -0.10187E-02   -0.13570E-02 40810   0.202E-01    0.701E-01
DAV:   5    -0.132451438793E+04    0.12543E-02   -0.31488E-03 41480   0.137E-01    0.413E-01
DAV:   6    -0.132451361515E+04    0.77278E-03   -0.12501E-03 41980   0.124E-01    0.174E-01
DAV:   7    -0.132451392298E+04   -0.30783E-03   -0.99666E-04 37870   0.892E-02    0.101E-01
DAV:   8    -0.132451418023E+04   -0.25725E-03   -0.31302E-04 34260   0.499E-02    0.438E-02
DAV:   9    -0.132451402458E+04    0.15565E-03   -0.49768E-05 21430   0.176E-02    0.270E-02
DAV:  10    -0.132451403803E+04   -0.13449E-04   -0.11131E-05 18680   0.797E-03
 180 F= -.13245140E+04 E0= -.13245140E+04  d E =-.167073E+00  mag=   120.0000
       N       E                     dE             d eps       ncg     rms          rms(c)
DAV:   1    -0.132441164277E+04    0.10238E+00   -0.36160E+00 49430   0.869E+00    0.165E+00
DAV:   2    -0.132452257974E+04   -0.11094E+00   -0.94551E-01 37580   0.144E+00    0.850E-01
DAV:   3    -0.132452742594E+04   -0.48462E-02   -0.39661E-02 37300   0.365E-01    0.409E-01
DAV:   4    -0.132452748186E+04   -0.55922E-04   -0.24708E-03 40080   0.105E-01    0.248E-01
DAV:   5    -0.132452762589E+04   -0.14402E-03   -0.68353E-04 36820   0.799E-02    0.167E-01
DAV:   6    -0.132452732618E+04    0.29971E-03   -0.52615E-04 38400   0.790E-02    0.902E-02
DAV:   7    -0.132452750158E+04   -0.17541E-03   -0.22723E-04 35410   0.425E-02    0.333E-02
DAV:   8    -0.132452748877E+04    0.12815E-04   -0.36264E-05 20360   0.178E-02
 181 F= -.13245275E+04 E0= -.13245275E+04  d E =-.134507E-01  mag=   120.0000
       N       E                     dE             d eps       ncg     rms          rms(c)
DAV:   1    -0.132451642413E+04    0.11077E-01   -0.56467E-01 47070   0.319E+00    0.509E-01
DAV:   2    -0.132452783584E+04   -0.11412E-01   -0.10687E-01 35970   0.532E-01    0.254E-01
DAV:   3    -0.132452819810E+04   -0.36226E-03   -0.37308E-03 37460   0.122E-01    0.122E-01
DAV:   4    -0.132452813880E+04    0.59292E-04   -0.24931E-04 29880   0.370E-02    0.840E-02
DAV:   5    -0.132452819597E+04   -0.57170E-04   -0.57152E-05 20480   0.287E-02    0.570E-02
DAV:   6    -0.132452814103E+04    0.54948E-04   -0.68696E-05 22490   0.295E-02    0.262E-02
DAV:   7    -0.132452818583E+04   -0.44802E-04   -0.32859E-05 18220   0.139E-02
 182 F= -.13245282E+04 E0= -.13245282E+04  d E =-.697059E-03  mag=   120.0000
       N       E                     dE             d eps       ncg     rms          rms(c)
DAV:   1    -0.132426255507E+04    0.26559E+00   -0.12951E+01 45770   0.147E+01    0.238E+00
DAV:   2    -0.132451897944E+04   -0.25642E+00   -0.23709E+00 35750   0.248E+00    0.119E+00
DAV:   3    -0.132452374553E+04   -0.47661E-02   -0.72902E-02 37190   0.528E-01    0.538E-01
DAV:   4    -0.132452348003E+04    0.26550E-03   -0.50257E-03 40090   0.155E-01    0.394E-01
DAV:   5    -0.132452308656E+04    0.39346E-03   -0.99470E-04 43250   0.125E-01    0.260E-01
DAV:   6    -0.132452232303E+04    0.76353E-03   -0.12321E-03 44690   0.134E-01    0.105E-01
DAV:   7    -0.132452273318E+04   -0.41015E-03   -0.50301E-04 37120   0.580E-02    0.388E-02
DAV:   8    -0.132452267938E+04    0.53804E-04   -0.37638E-05 19950   0.153E-02    0.244E-02
DAV:   9    -0.132452265665E+04    0.22724E-04   -0.65825E-06 18190   0.720E-03
 183 F= -.13245227E+04 E0= -.13245227E+04  d E =0.552917E-02  mag=   120.0000
       N       E                     dE             d eps       ncg     rms          rms(c)
DAV:   1    -0.132344055311E+04    0.10821E+01   -0.63380E+01 44560   0.303E+01    0.482E+00
DAV:   2    -0.132449489406E+04   -0.10543E+01   -0.10043E+01 35980   0.527E+00    0.251E+00
DAV:   3    -0.132450616412E+04   -0.11270E-01   -0.25412E-01 37030   0.102E+00    0.107E+00
DAV:   4    -0.132450469004E+04    0.14741E-02   -0.16105E-02 40520   0.255E-01    0.788E-01
DAV:   5    -0.132450145504E+04    0.32350E-02   -0.37183E-03 43460   0.245E-01    0.467E-01
DAV:   6    -0.132450013077E+04    0.13243E-02   -0.47247E-03 43110   0.233E-01    0.221E-01
DAV:   7    -0.132450094354E+04   -0.81277E-03   -0.19146E-03 36720   0.125E-01    0.955E-02
DAV:   8    -0.132450096540E+04   -0.21867E-04   -0.17628E-04 31480   0.365E-02
 184 F= -.13245010E+04 E0= -.13245010E+04  d E =0.216913E-01  mag=   120.0000
       N       E                     dE             d eps       ncg     rms          rms(c)
DAV:   1    -0.132239698834E+04    0.21040E+01   -0.70874E+01 47190   0.397E+01    0.692E+00
DAV:   2    -0.132439170608E+04   -0.19947E+01   -0.17843E+01 36680   0.687E+00    0.375E+00
DAV:   3    -0.132444169581E+04   -0.49990E-01   -0.61167E-01 36930   0.168E+00    0.178E+00
DAV:   4    -0.132444217186E+04   -0.47605E-03   -0.44624E-02 39990   0.510E-01    0.127E+00
DAV:   5    -0.132443715332E+04    0.50185E-02   -0.71125E-03 39980   0.305E-01    0.918E-01
DAV:   6    -0.132443381267E+04    0.33406E-02   -0.76729E-03 44600   0.371E-01    0.443E-01
DAV:   7    -0.132443384062E+04   -0.27948E-04   -0.46931E-03 39050   0.183E-01    0.149E-01
DAV:   8    -0.132443466547E+04   -0.82485E-03   -0.56758E-04 36700   0.631E-02    0.769E-02
DAV:   9    -0.132443462786E+04    0.37619E-04   -0.96622E-05 26580   0.233E-02
 185 F= -.13244346E+04 E0= -.13244346E+04  d E =0.663375E-01  mag=   120.0000
       N       E                     dE             d eps       ncg     rms          rms(c)
DAV:   1    -0.132419767672E+04    0.23699E+00   -0.86675E+00 50010   0.156E+01    0.258E+00
DAV:   2    -0.132449237723E+04   -0.29470E+00   -0.25349E+00 37910   0.253E+00    0.136E+00
DAV:   3    -0.132450209740E+04   -0.97202E-02   -0.92583E-02 37020   0.650E-01    0.695E-01
DAV:   4    -0.132450200093E+04    0.96475E-04   -0.60901E-03 39360   0.180E-01    0.422E-01
DAV:   5    -0.132450169601E+04    0.30492E-03   -0.15440E-03 40640   0.123E-01    0.280E-01
DAV:   6    -0.132450109654E+04    0.59947E-03   -0.11632E-03 43110   0.127E-01    0.148E-01
DAV:   7    -0.132450140947E+04   -0.31293E-03   -0.56067E-04 38690   0.680E-02    0.629E-02
DAV:   8    -0.132450132688E+04    0.82591E-04   -0.88478E-05 24370   0.286E-02    0.299E-02
DAV:   9    -0.132450133100E+04   -0.41210E-05   -0.18116E-05 18860   0.989E-03
 186 F= -.13245013E+04 E0= -.13245013E+04  d E =-.667031E-01  mag=   120.0000
       N       E                     dE             d eps       ncg     rms          rms(c)
DAV:   1    -0.132443524190E+04    0.66085E-01   -0.22197E+00 49650   0.761E+00    0.130E+00
DAV:   2    -0.132450881761E+04   -0.73576E-01   -0.63587E-01 37120   0.125E+00    0.626E-01
DAV:   3    -0.132451069593E+04   -0.18783E-02   -0.19524E-02 36940   0.283E-01    0.296E-01
DAV:   4    -0.132451066801E+04    0.27916E-04   -0.11880E-03 38120   0.681E-02    0.206E-01
DAV:   5    -0.132451062355E+04    0.44464E-04   -0.28715E-04 33080   0.628E-02
 187 F= -.13245106E+04 E0= -.13245106E+04  d E =-.929255E-02  mag=   120.0000
       N       E                     dE             d eps       ncg     rms          rms(c)
DAV:   1    -0.132448301984E+04    0.27648E-01   -0.10284E+00 48810   0.509E+00    0.809E-01
DAV:   2    -0.132451452372E+04   -0.31504E-01   -0.27924E-01 36580   0.834E-01    0.415E-01
DAV:   3    -0.132451500865E+04   -0.48494E-03   -0.93945E-03 36910   0.212E-01    0.228E-01
DAV:   4    -0.132451521491E+04   -0.20625E-03   -0.74679E-04 37500   0.675E-02    0.150E-01
DAV:   5    -0.132451504135E+04    0.17356E-03   -0.10753E-04 24790   0.411E-02    0.103E-01
DAV:   6    -0.132451504089E+04    0.46108E-06   -0.16075E-04 29600   0.482E-02
 188 F= -.13245150E+04 E0= -.13245150E+04  d E =-.441734E-02  mag=   120.0000
       N       E                     dE             d eps       ncg     rms          rms(c)
DAV:   1    -0.132431719570E+04    0.19785E+00   -0.73714E+00 48420   0.130E+01    0.205E+00
DAV:   2    -0.132451950107E+04   -0.20231E+00   -0.18164E+00 36130   0.214E+00    0.101E+00
DAV:   3    -0.132452341101E+04   -0.39099E-02   -0.57599E-02 36890   0.486E-01    0.486E-01
DAV:   4    -0.132452368532E+04   -0.27430E-03   -0.37870E-03 39600   0.128E-01    0.354E-01
DAV:   5    -0.132452296177E+04    0.72355E-03   -0.65236E-04 40950   0.106E-01    0.232E-01
DAV:   6    -0.132452288386E+04    0.77906E-04   -0.87011E-04 42820   0.118E-01    0.991E-02
DAV:   7    -0.132452274452E+04    0.13934E-03   -0.39798E-04 36880   0.565E-02    0.408E-02
DAV:   8    -0.132452286758E+04   -0.12306E-03   -0.39383E-05 20290   0.177E-02    0.225E-02
DAV:   9    -0.132452285457E+04    0.13015E-04   -0.64815E-06 18170   0.640E-03
 189 F= -.13245229E+04 E0= -.13245229E+04  d E =-.781368E-02  mag=   120.0000
       N       E                     dE             d eps       ncg     rms          rms(c)
DAV:   1    -0.132334244848E+04    0.11804E+01   -0.37284E+01 48810   0.292E+01    0.515E+00
