       N       E                     dE             d eps       ncg     rms          ort
DAV:   1     0.112307192953E+05    0.11231E+05   -0.46738E+05  8540   0.171E+03
DAV:   2     0.220381983566E+02   -0.11209E+05   -0.10197E+05  8540   0.487E+02
DAV:   3    -0.160893433316E+04   -0.16310E+04   -0.15459E+04  8540   0.198E+02
DAV:   4    -0.169274542522E+04   -0.83811E+02   -0.82598E+02  8540   0.456E+01
DAV:   5    -0.169381909533E+04   -0.10737E+01   -0.10703E+01  8540   0.558E+00
SDA:   6    -0.803662339164E+03    0.89016E+03   -0.10703E+01  8540   0.300E+04 0.000E+00
CGA:   7    -0.122886174644E+04   -0.42520E+03   -0.42455E+03  8540   0.311E+03 0.326E+02
CGA:   8    -0.128717034746E+04   -0.58309E+02   -0.58409E+02  8540   0.742E+02 0.550E+01
CGA:   9    -0.131097845963E+04   -0.23808E+02   -0.24352E+02  8540   0.614E+02-0.580E+01
CGA:  10    -0.131845395075E+04   -0.74755E+01   -0.84639E+01  8540   0.173E+02 0.529E+01
CGA:  11    -0.132226257091E+04   -0.38086E+01   -0.38104E+01  8540   0.508E+01-0.637E+00
CGA:  12    -0.132336274638E+04   -0.11002E+01   -0.11105E+01  8540   0.150E+01-0.388E+00
CGA:  13    -0.132370472830E+04   -0.34198E+00   -0.34407E+00  8540   0.579E+00-0.467E-01
CGA:  14    -0.132384149033E+04   -0.13676E+00   -0.13539E+00  8540   0.211E+00 0.358E-01
CGA:  15    -0.132390572616E+04   -0.64236E-01   -0.65104E-01  8540   0.925E-01-0.107E-01
CGA:  16    -0.132392963709E+04   -0.23911E-01   -0.44199E-01  8540   0.111E+00-0.697E-01
CGA:  17    -0.132395470228E+04   -0.25065E-01   -0.25062E-01  8540   0.244E-01 0.290E-02
CGA:  18    -0.132395507477E+04   -0.37248E-03   -0.16685E-01  8540   0.941E-01-0.370E-01
CGA:  19    -0.132396955122E+04   -0.14476E-01   -0.14580E-01  8540   0.989E-02 0.240E-02
CGA:  20    -0.132397310095E+04   -0.35497E-02   -0.40144E-02  8540   0.243E-02-0.303E-02
CGA:  21    -0.132397412677E+04   -0.10258E-02    0.95664E-03  8540   0.886E-03 0.731E-03
CGA:  22    -0.132397496544E+04   -0.83867E-03    0.31638E-03  8540   0.301E-03 0.331E-03
CGA:  23    -0.132397557823E+04   -0.61279E-03    0.26320E-04  8540   0.211E-03 0.212E-03
CGA:  24    -0.132397594723E+04   -0.36900E-03    0.10567E-04  8540   0.116E-03 0.121E-03
CGA:  25    -0.132397625709E+04   -0.30987E-03    0.33077E-05  8540   0.906E-04 0.858E-04
CGA:  26    -0.132397650796E+04   -0.25087E-03    0.24929E-05  8540   0.738E-04 0.657E-04
CGA:  27    -0.132397672633E+04   -0.21837E-03    0.18767E-05  8540   0.617E-04 0.497E-04
CGA:  28    -0.132397690206E+04   -0.17573E-03    0.16437E-05  8540   0.536E-04 0.357E-04
CGA:  29    -0.132397706292E+04   -0.16086E-03    0.13403E-05  8540   0.484E-04 0.235E-04
CGA:  30    -0.132397733898E+04   -0.27606E-03    0.12556E-05  8540   0.254E-04 0.539E-04
CGA:  31    -0.132397743664E+04   -0.97656E-04    0.47568E-06  8540   0.232E-04 0.123E-04
CGA:  32    -0.132397761838E+04   -0.18174E-03    0.45130E-06  8540   0.120E-04 0.267E-04
CGA:  33    -0.132397769084E+04   -0.72460E-04    0.13519E-06  8540   0.105E-04 0.682E-05
CGA:  34    -0.132397774781E+04   -0.56976E-04    0.13368E-06  8540   0.966E-05 0.436E-05
CGA:  35    -0.132397785503E+04   -0.10721E-03    0.11636E-06  8540   0.514E-05 0.107E-04
CGA:  36    -0.132397789918E+04   -0.44148E-04    0.39696E-07  8540   0.454E-05 0.235E-05
CGA:  37    -0.132397797014E+04   -0.70960E-04    0.40399E-07  8540   0.253E-05 0.520E-05
CGA:  38    -0.132397799395E+04   -0.23809E-04    0.17741E-07  8540   0.224E-05 0.125E-05
CGA:  39    -0.132397804303E+04   -0.49086E-04    0.14814E-07  8540   0.124E-05 0.264E-05
CGA:  40    -0.132397806502E+04   -0.21990E-04    0.45211E-08  8540   0.106E-05 0.695E-06
CGA:  41    -0.132397807880E+04   -0.13779E-04    0.52520E-08  8540   0.915E-06 0.496E-06
CGA:  42    -0.132397810818E+04   -0.29383E-04    0.39381E-08  8540   0.534E-06 0.107E-05
CGA:  43    -0.132397812216E+04   -0.13977E-04    0.12998E-08  8540   0.446E-06 0.271E-06
CGA:  44    -0.132397813028E+04   -0.81195E-05    0.15766E-08  8540   0.378E-06 0.200E-06
   1 F= -.13239781E+04 E0= -.13239781E+04  d E =-.132398E+04  mag=   126.0000
       N       E                     dE             d eps       ncg     rms          ort
SDA:   1    -0.132398034026E+04   -0.22181E-02    0.00000E+00  8540   0.187E-02 0.000E+00
CGA:   2    -0.132398078782E+04   -0.44757E-03   -0.44789E-03  8540   0.861E-03 0.302E-04
CGA:   3    -0.132398100845E+04   -0.22063E-03   -0.22098E-03  8540   0.237E-03-0.118E-03
CGA:   4    -0.132398105935E+04   -0.50899E-04   -0.50797E-04  8540   0.775E-04-0.724E-04
CGA:   5    -0.132398106652E+04   -0.71646E-05   -0.81644E-05  8540   0.188E-04 0.102E-04
   2 F= -.13239811E+04 E0= -.13239811E+04  d E =-.293624E-02  mag=   126.0000
       N       E                     dE             d eps       ncg     rms          ort
SDA:   1    -0.132367720155E+04    0.30386E+00    0.00000E+00  8540   0.958E+00 0.000E+00
CGA:   2    -0.132391229316E+04   -0.23509E+00   -0.23508E+00  8540   0.456E+00 0.916E-03
CGA:   3    -0.132401196303E+04   -0.99670E-01   -0.99640E-01  8540   0.911E-01-0.180E-02
CGA:   4    -0.132403087138E+04   -0.18908E-01   -0.18872E-01  8540   0.165E-01-0.126E-02
CGA:   5    -0.132403426890E+04   -0.33975E-02   -0.34096E-02  8540   0.362E-02 0.455E-03
CGA:   6    -0.132403510274E+04   -0.83384E-03   -0.83698E-03  8540   0.890E-03 0.333E-03
CGA:   7    -0.132403539598E+04   -0.29324E-03   -0.30112E-03  8540   0.373E-03-0.104E-03
CGA:   8    -0.132403549758E+04   -0.10160E-03   -0.15183E-03  8540   0.369E-03-0.225E-03
CGA:   9    -0.132403556579E+04   -0.68205E-04   -0.69204E-04  8540   0.538E-04 0.163E-04
CGA:  10    -0.132403557782E+04   -0.12031E-04   -0.12456E-04  8540   0.123E-04 0.178E-04
CGA:  11    -0.132403558722E+04   -0.93980E-05    0.11281E-04  8540   0.434E-05 0.427E-05
   3 F= -.13240356E+04 E0= -.13240356E+04  d E =-.545207E-01  mag=   126.0000
       N       E                     dE             d eps       ncg     rms          ort
SDA:   1    -0.132017337165E+04    0.38622E+01    0.00000E+00  8540   0.103E+02 0.000E+00
CGA:   2    -0.132281702268E+04   -0.26437E+01   -0.26435E+01  8540   0.498E+01 0.361E-02
CGA:   3    -0.132386427986E+04   -0.10473E+01   -0.10472E+01  8540   0.954E+00-0.510E-02
CGA:   4    -0.132406011869E+04   -0.19584E+00   -0.19575E+00  8540   0.169E+00-0.244E-02
CGA:   5    -0.132409681074E+04   -0.36692E-01   -0.36722E-01  8540   0.388E-01 0.126E-02
CGA:   6    -0.132410625661E+04   -0.94459E-02   -0.94451E-02  8540   0.103E-01 0.610E-03
CGA:   7    -0.132410921166E+04   -0.29550E-02   -0.29753E-02  8540   0.354E-02-0.464E-03
CGA:   8    -0.132411030595E+04   -0.10943E-02   -0.11474E-02  8540   0.154E-02-0.549E-03
CGA:   9    -0.132411073434E+04   -0.42838E-03   -0.45379E-03  8540   0.582E-03-0.253E-03
CGA:  10    -0.132411087674E+04   -0.14240E-03   -0.14235E-03  8540   0.154E-03 0.108E-05
CGA:  11    -0.132411092852E+04   -0.51788E-04   -0.84963E-04  8540   0.169E-03-0.113E-03
CGA:  12    -0.132411097386E+04   -0.45338E-04   -0.45316E-04  8540   0.288E-04-0.145E-04
CGA:  13    -0.132411100605E+04   -0.32191E-04    0.27994E-05  8540   0.941E-05 0.170E-05
CGA:  14    -0.132411100795E+04   -0.18933E-05   -0.21046E-05  8540   0.327E-05 0.365E-05
   4 F= -.13241110E+04 E0= -.13241110E+04  d E =-.754207E-01  mag=   126.0000
       N       E                     dE             d eps       ncg     rms          ort
SDA:   1    -0.132360055876E+04    0.51045E+00    0.00000E+00  8540   0.135E+01 0.000E+00
CGA:   2    -0.132396316797E+04   -0.36261E+00   -0.36261E+00  8540   0.649E+00-0.220E-03
CGA:   3    -0.132409368890E+04   -0.13052E+00   -0.13052E+00  8540   0.121E+00-0.149E-03
CGA:   4    -0.132411855947E+04   -0.24871E-01   -0.24905E-01  8540   0.221E-01 0.575E-03
CGA:   5    -0.132412333529E+04   -0.47758E-02   -0.47729E-02  8540   0.509E-02-0.708E-04
CGA:   6    -0.132412462886E+04   -0.12936E-02   -0.12927E-02  8540   0.154E-02-0.309E-03
CGA:   7    -0.132412502164E+04   -0.39278E-03   -0.39383E-03  8540   0.483E-03-0.727E-04
CGA:   8    -0.132412516764E+04   -0.14600E-03   -0.14978E-03  8540   0.187E-03-0.568E-04
CGA:   9    -0.132412522188E+04   -0.54242E-04   -0.55535E-04  8540   0.601E-04-0.173E-04
CGA:  10    -0.132412524139E+04   -0.19512E-04   -0.26583E-04  8540   0.454E-04-0.319E-04
CGA:  11    -0.132412525222E+04   -0.10824E-04   -0.10726E-04  8540   0.694E-05-0.243E-05
CGA:  12    -0.132412525873E+04   -0.65188E-05    0.11177E-05  8540   0.193E-05 0.563E-06
   5 F= -.13241253E+04 E0= -.13241253E+04  d E =-.142508E-01  mag=   126.0000
       N       E                     dE             d eps       ncg     rms          ort
SDA:   1    -0.132181214068E+04    0.23131E+01    0.00000E+00  8540   0.574E+01 0.000E+00
CGA:   2    -0.132348504764E+04   -0.16729E+01   -0.16729E+01  8540   0.275E+01-0.336E-02
CGA:   3    -0.132400897836E+04   -0.52393E+00   -0.52408E+00  8540   0.478E+00 0.333E-03
CGA:   4    -0.132410812924E+04   -0.99151E-01   -0.99313E-01  8540   0.890E-01 0.190E-02
CGA:   5    -0.132412733827E+04   -0.19209E-01   -0.19185E-01  8540   0.202E-01-0.379E-03
CGA:   6    -0.132413240041E+04   -0.50621E-02   -0.50402E-02  8540   0.594E-02-0.730E-03
CGA:   7    -0.132413394627E+04   -0.15459E-02   -0.15450E-02  8540   0.186E-02-0.985E-04
CGA:   8    -0.132413451662E+04   -0.57035E-03   -0.57166E-03  8540   0.666E-03-0.394E-04
CGA:   9    -0.132413473824E+04   -0.22162E-03   -0.22314E-03  8540   0.218E-03-0.244E-04
CGA:  10    -0.132413481883E+04   -0.80587E-04   -0.10064E-03  8540   0.154E-03-0.102E-03
CGA:  11    -0.132413484497E+04   -0.26144E-04   -0.27354E-04  8540   0.668E-04-0.299E-04
CGA:  12    -0.132413446378E+04    0.38119E-03   -0.20538E-03  8540   0.175E-02-0.298E-03
CGA:  13    -0.132413483237E+04   -0.36859E-03   -0.40268E-03  8540   0.213E-03 0.112E-03
CGA:  14    -0.132413492424E+04   -0.91870E-04   -0.70975E-04  8540   0.136E-03-0.100E-03
CGA:  15    -0.132413492152E+04    0.27269E-05   -0.86240E-05  8540   0.630E-04 0.290E-04
   6 F= -.13241349E+04 E0= -.13241349E+04  d E =-.966278E-02  mag=   126.0000
       N       E                     dE             d eps       ncg     rms          ort
SDA:   1    -0.132353374253E+04    0.60118E+00    0.00000E+00  8540   0.163E+01 0.000E+00
CGA:   2    -0.132393710842E+04   -0.40337E+00   -0.40349E+00  8540   0.773E+00-0.165E-03
CGA:   3    -0.132410143809E+04   -0.16433E+00   -0.16452E+00  8540   0.149E+00 0.564E-03
CGA:   4    -0.132413162854E+04   -0.30190E-01   -0.30291E-01  8540   0.273E-01 0.373E-03
CGA:   5    -0.132413770062E+04   -0.60721E-02   -0.60588E-02  8540   0.640E-02-0.707E-04
CGA:   6    -0.132413923695E+04   -0.15363E-02   -0.15296E-02  8540   0.172E-02-0.378E-04
CGA:   7    -0.132413966285E+04   -0.42590E-03   -0.43877E-03  8540   0.488E-03 0.805E-04
CGA:   8    -0.132413980203E+04   -0.13919E-03   -0.14421E-03  8540   0.156E-03 0.398E-04
CGA:   9    -0.132413985253E+04   -0.50493E-04   -0.52451E-04  8540   0.534E-04 0.214E-04
CGA:  10    -0.132413986560E+04   -0.13069E-04   -0.15655E-04  8540   0.175E-04 0.185E-04
CGA:  11    -0.132413986865E+04   -0.30578E-05   -0.49607E-05  8540   0.710E-05 0.106E-04
   7 F= -.13241399E+04 E0= -.13241399E+04  d E =-.494714E-02  mag=   126.0000
       N       E                     dE             d eps       ncg     rms          ort
SDA:   1    -0.132394322232E+04    0.19664E+00    0.00000E+00  8540   0.555E+00 0.000E+00
CGA:   2    -0.132407739760E+04   -0.13418E+00   -0.13431E+00  8540   0.255E+00 0.804E-03
CGA:   3    -0.132413299216E+04   -0.55595E-01   -0.55557E-01  8540   0.530E-01-0.355E-03
CGA:   4    -0.132414399189E+04   -0.11000E-01   -0.10954E-01  8540   0.961E-02-0.306E-03
CGA:   5    -0.132414603327E+04   -0.20414E-02   -0.20396E-02  8540   0.226E-02-0.160E-04
CGA:   6    -0.132414654620E+04   -0.51293E-03   -0.52411E-03  8540   0.570E-03 0.100E-03
CGA:   7    -0.132414669061E+04   -0.14441E-03   -0.14873E-03  8540   0.162E-03 0.490E-04
CGA:   8    -0.132414674910E+04   -0.58494E-04   -0.58485E-04  8540   0.671E-04-0.587E-05
CGA:   9    -0.132414676935E+04   -0.20241E-04   -0.20301E-04  8540   0.223E-04 0.301E-05
CGA:  10    -0.132414677545E+04   -0.61048E-05   -0.63880E-05  8540   0.695E-05 0.480E-05
   8 F= -.13241468E+04 E0= -.13241468E+04  d E =-.690680E-02  mag=   126.0000
       N       E                     dE             d eps       ncg     rms          ort
SDA:   1    -0.132377745615E+04    0.36931E+00    0.00000E+00  8540   0.993E+00 0.000E+00
CGA:   2    -0.132402463332E+04   -0.24718E+00   -0.24728E+00  8540   0.478E+00 0.974E-03
CGA:   3    -0.132412655916E+04   -0.10193E+00   -0.10191E+00  8540   0.944E-01-0.308E-03
CGA:   4    -0.132414580739E+04   -0.19248E-01   -0.19192E-01  8540   0.168E-01-0.528E-03
CGA:   5    -0.132414945470E+04   -0.36473E-02   -0.36384E-02  8540   0.405E-02-0.104E-03
CGA:   6    -0.132415040417E+04   -0.94947E-03   -0.95199E-03  8540   0.103E-02 0.372E-04
CGA:   7    -0.132415067242E+04   -0.26825E-03   -0.26952E-03  8540   0.301E-03 0.309E-04
CGA:   8    -0.132415077687E+04   -0.10445E-03   -0.10575E-03  8540   0.128E-03-0.299E-04
CGA:   9    -0.132415082162E+04   -0.44753E-04   -0.51802E-04  8540   0.831E-04-0.473E-04
CGA:  10    -0.132415083788E+04   -0.16264E-04   -0.16296E-04  8540   0.291E-04-0.829E-05
CGA:  11    -0.132415084641E+04   -0.85279E-05   -0.85790E-05  8540   0.127E-04-0.246E-05
   9 F= -.13241508E+04 E0= -.13241508E+04  d E =-.407096E-02  mag=   126.0000
       N       E                     dE             d eps       ncg     rms          ort
SDA:   1    -0.132355442383E+04    0.59641E+00    0.00000E+00  8540   0.152E+01 0.000E+00
CGA:   2    -0.132396471820E+04   -0.41029E+00   -0.41035E+00  8540   0.750E+00 0.579E-03
CGA:   3    -0.132411747171E+04   -0.15275E+00   -0.15270E+00  8540   0.134E+00-0.701E-03
CGA:   4    -0.132414478175E+04   -0.27310E-01   -0.27268E-01  8540   0.241E-01-0.422E-03
CGA:   5    -0.132415010555E+04   -0.53238E-02   -0.53042E-02  8540   0.580E-02-0.245E-03
CGA:   6    -0.132415149333E+04   -0.13878E-02   -0.13827E-02  8540   0.153E-02-0.895E-04
CGA:   7    -0.132415187964E+04   -0.38632E-03   -0.38788E-03  8540   0.450E-03 0.410E-04
CGA:   8    -0.132415202436E+04   -0.14471E-03   -0.14475E-03  8540   0.162E-03-0.217E-05
CGA:   9    -0.132415208802E+04   -0.63659E-04   -0.69595E-04  8540   0.935E-04-0.435E-04
CGA:  10    -0.132415211265E+04   -0.24636E-04   -0.26884E-04  8540   0.408E-04-0.248E-04
CGA:  11    -0.132415212400E+04   -0.11350E-04   -0.14712E-04  8540   0.290E-04-0.184E-04
CGA:  12    -0.132415213039E+04   -0.63874E-05   -0.81489E-05  8540   0.205E-04-0.908E-05
  10 F= -.13241521E+04 E0= -.13241521E+04  d E =-.128398E-02  mag=   126.0000
       N       E                     dE             d eps       ncg     rms          ort
SDA:   1    -0.132323600086E+04    0.91612E+00    0.00000E+00  8540   0.237E+01 0.000E+00
CGA:   2    -0.132385272245E+04   -0.61672E+00   -0.61685E+00  8540   0.118E+01 0.585E-03
CGA:   3    -0.132410029019E+04   -0.24757E+00   -0.24763E+00  8540   0.214E+00 0.192E-03
CGA:   4    -0.132414339354E+04   -0.43103E-01   -0.43095E-01  8540   0.383E-01-0.106E-03
CGA:   5    -0.132415201632E+04   -0.86228E-02   -0.85840E-02  8540   0.931E-02-0.463E-03
CGA:   6    -0.132415424544E+04   -0.22291E-02   -0.22145E-02  8540   0.243E-02-0.228E-03
CGA:   7    -0.132415484475E+04   -0.59930E-03   -0.60352E-03  8540   0.679E-03 0.875E-04
CGA:   8    -0.132415504765E+04   -0.20291E-03   -0.20336E-03  8540   0.218E-03 0.411E-04
CGA:   9    -0.132415513845E+04   -0.90796E-04   -0.95071E-04  8540   0.114E-03-0.385E-04
CGA:  10    -0.132415517425E+04   -0.35801E-04   -0.41681E-04  8540   0.651E-04-0.430E-04
CGA:  11    -0.132415518866E+04   -0.14413E-04   -0.18221E-04  8540   0.382E-04-0.280E-04
CGA:  12    -0.132415519295E+04   -0.42873E-05   -0.48722E-05  8540   0.177E-04 0.614E-05
  11 F= -.13241552E+04 E0= -.13241552E+04  d E =-.306256E-02  mag=   126.0000
       N       E                     dE             d eps       ncg     rms          ort
SDA:   1    -0.132392367372E+04    0.23151E+00    0.00000E+00  8540   0.617E+00 0.000E+00
CGA:   2    -0.132407637789E+04   -0.15270E+00   -0.15271E+00  8540   0.301E+00-0.247E-03
CGA:   3    -0.132414174634E+04   -0.65368E-01   -0.65428E-01  8540   0.567E-01 0.541E-03
CGA:   4    -0.132415321880E+04   -0.11472E-01   -0.11500E-01  8540   0.101E-01 0.271E-03
CGA:   5    -0.132415549034E+04   -0.22715E-02   -0.22643E-02  8540   0.245E-02-0.103E-03
CGA:   6    -0.132415608750E+04   -0.59716E-03   -0.59316E-03  8540   0.672E-03-0.861E-04
CGA:   7    -0.132415624289E+04   -0.15539E-03   -0.15739E-03  8540   0.174E-03 0.430E-04
CGA:   8    -0.132415628659E+04   -0.43703E-04   -0.45237E-04  8540   0.488E-04 0.359E-04
CGA:   9    -0.132415630478E+04   -0.18190E-04   -0.18007E-04  8540   0.190E-04 0.866E-05
CGA:  10    -0.132415631313E+04   -0.83505E-05   -0.85110E-05  8540   0.935E-05-0.172E-05
  12 F= -.13241563E+04 E0= -.13241563E+04  d E =-.112019E-02  mag=   126.0000
       N       E                     dE             d eps       ncg     rms          ort
SDA:   1    -0.132412317052E+04    0.33134E-01    0.00000E+00  8540   0.998E-01 0.000E+00
CGA:   2    -0.132414483785E+04   -0.21667E-01   -0.21678E-01  8540   0.427E-01 0.925E-04
CGA:   3    -0.132415491623E+04   -0.10078E-01   -0.10083E-01  8540   0.995E-02 0.732E-04
CGA:   4    -0.132415696654E+04   -0.20503E-02   -0.20539E-02  8540   0.179E-02 0.428E-04
CGA:   5    -0.132415734127E+04   -0.37473E-03   -0.37818E-03  8540   0.398E-03 0.487E-04
CGA:   6    -0.132415743454E+04   -0.93268E-04   -0.94543E-04  8540   0.990E-04 0.277E-04
CGA:   7    -0.132415746612E+04   -0.31586E-04   -0.31789E-04  8540   0.366E-04-0.795E-05
CGA:   8    -0.132415747731E+04   -0.11189E-04   -0.16236E-04  8540   0.416E-04-0.245E-04
CGA:   9    -0.132415748304E+04   -0.57234E-05   -0.66063E-05  8540   0.502E-05 0.692E-05
  13 F= -.13241575E+04 E0= -.13241575E+04  d E =-.116990E-02  mag=   126.0000
       N       E                     dE             d eps       ncg     rms          ort
SDA:   1    -0.132406408713E+04    0.93390E-01    0.00000E+00  8540   0.239E+00 0.000E+00
CGA:   2    -0.132412651637E+04   -0.62429E-01   -0.62433E-01  8540   0.121E+00 0.168E-03
CGA:   3    -0.132415190053E+04   -0.25384E-01   -0.25389E-01  8540   0.211E-01 0.404E-04
CGA:   4    -0.132415619999E+04   -0.42995E-02   -0.42966E-02  8540   0.379E-02-0.474E-04
CGA:   5    -0.132415705168E+04   -0.85169E-03   -0.84963E-03  8540   0.919E-03-0.509E-04
CGA:   6    -0.132415726241E+04   -0.21073E-03   -0.21087E-03  8540   0.227E-03 0.422E-05
CGA:   7    -0.132415731859E+04   -0.56179E-04   -0.56431E-04  8540   0.618E-04 0.163E-04
CGA:   8    -0.132415734189E+04   -0.23302E-04   -0.24938E-04  8540   0.340E-04-0.143E-04
CGA:   9    -0.132415735089E+04   -0.90023E-05   -0.11993E-04  8540   0.236E-04-0.157E-04
  14 F= -.13241574E+04 E0= -.13241574E+04  d E =0.132142E-03  mag=   126.0000
       N       E                     dE             d eps       ncg     rms          ort
SDA:   1    -0.132389606093E+04    0.26128E+00    0.00000E+00  8540   0.698E+00 0.000E+00
CGA:   2    -0.132406420753E+04   -0.16815E+00   -0.16816E+00  8540   0.340E+00-0.198E-03
CGA:   3    -0.132413973866E+04   -0.75531E-01   -0.75583E-01  8540   0.669E-01 0.600E-03
CGA:   4    -0.132415321887E+04   -0.13480E-01   -0.13508E-01  8540   0.114E-01 0.302E-03
CGA:   5    -0.132415575593E+04   -0.25371E-02   -0.25391E-02  8540   0.272E-02 0.282E-04
CGA:   6    -0.132415641387E+04   -0.65794E-03   -0.65784E-03  8540   0.691E-03-0.328E-05
CGA:   7    -0.132415659023E+04   -0.17636E-03   -0.17700E-03  8540   0.192E-03 0.263E-04
CGA:   8    -0.132415665417E+04   -0.63936E-04   -0.64530E-04  8540   0.743E-04-0.135E-04
CGA:   9    -0.132415667920E+04   -0.25025E-04   -0.26231E-04  8540   0.323E-04-0.123E-04
CGA:  10    -0.132415668858E+04   -0.93847E-05   -0.97227E-05  8540   0.112E-04-0.460E-05
  15 F= -.13241567E+04 E0= -.13241567E+04  d E =0.662312E-03  mag=   126.0000
       N       E                     dE             d eps       ncg     rms          ort
SDA:   1    -0.132380198462E+04    0.35469E+00    0.00000E+00  8540   0.911E+00 0.000E+00
CGA:   2    -0.132404081154E+04   -0.23883E+00   -0.23885E+00  8540   0.453E+00 0.115E-03
CGA:   3    -0.132413416306E+04   -0.93352E-01   -0.93331E-01  8540   0.801E-01-0.333E-03
CGA:   4    -0.132415065100E+04   -0.16488E-01   -0.16486E-01  8540   0.146E-01-0.290E-04
CGA:   5    -0.132415386183E+04   -0.32108E-02   -0.32121E-02  8540   0.335E-02 0.119E-04
CGA:   6    -0.132415467035E+04   -0.80852E-03   -0.80748E-03  8540   0.897E-03-0.200E-04
CGA:   7    -0.132415491417E+04   -0.24382E-03   -0.24345E-03  8540   0.282E-03-0.204E-04
CGA:   8    -0.132415499904E+04   -0.84874E-04   -0.85124E-04  8540   0.101E-03-0.136E-04
CGA:   9    -0.132415503264E+04   -0.33599E-04   -0.34281E-04  8540   0.361E-04-0.103E-04
CGA:  10    -0.132415504496E+04   -0.12316E-04   -0.13758E-04  8540   0.174E-04-0.111E-04
CGA:  11    -0.132415495290E+04    0.92053E-04   -0.49596E-04  8540   0.453E-03-0.711E-04
CGA:  12    -0.132415504471E+04   -0.91800E-04   -0.96033E-04  8540   0.451E-04 0.125E-04
CGA:  13    -0.132415506603E+04   -0.21330E-04   -0.20236E-04  8540   0.212E-04-0.114E-04
CGA:  14    -0.132415506411E+04    0.19235E-05   -0.18734E-05  8540   0.105E-04 0.926E-05
  16 F= -.13241551E+04 E0= -.13241551E+04  d E =0.162447E-02  mag=   126.0000
       N       E                     dE             d eps       ncg     rms          ort
SDA:   1    -0.132397011017E+04    0.18496E+00    0.00000E+00  8540   0.541E+00 0.000E+00
CGA:   2    -0.132408805778E+04   -0.11795E+00   -0.11804E+00  8540   0.232E+00 0.292E-05
CGA:   3    -0.132414233034E+04   -0.54273E-01   -0.54336E-01  8540   0.531E-01 0.147E-03
CGA:   4    -0.132415329106E+04   -0.10961E-01   -0.11014E-01  8540   0.964E-02 0.196E-03
CGA:   5    -0.132415539578E+04   -0.21047E-02   -0.21015E-02  8540   0.223E-02-0.175E-04
CGA:   6    -0.132415596462E+04   -0.56884E-03   -0.55710E-03  8540   0.614E-03-0.633E-04
CGA:   7    -0.132415611978E+04   -0.15516E-03   -0.15556E-03  8540   0.172E-03 0.223E-05
CGA:   8    -0.132415616290E+04   -0.43124E-04   -0.45465E-04  8540   0.477E-04 0.149E-04
CGA:   9    -0.132415617585E+04   -0.12947E-04   -0.14348E-04  8540   0.144E-04 0.103E-04
CGA:  10    -0.132415618310E+04   -0.72523E-05   -0.72687E-05  8540   0.833E-05-0.181E-05
  17 F= -.13241562E+04 E0= -.13241562E+04  d E =-.111899E-02  mag=   126.0000
       N       E                     dE             d eps       ncg     rms          ort
SDA:   1    -0.132369510522E+04    0.46107E+00    0.00000E+00  8540   0.123E+01 0.000E+00
CGA:   2    -0.132399606569E+04   -0.30096E+00   -0.30105E+00  8540   0.598E+00-0.110E-03
CGA:   3    -0.132412641217E+04   -0.13035E+00   -0.13047E+00  8540   0.115E+00 0.535E-03
CGA:   4    -0.132414952299E+04   -0.23111E-01   -0.23210E-01  8540   0.200E-01 0.505E-03
CGA:   5    -0.132415398054E+04   -0.44575E-02   -0.44575E-02  8540   0.480E-02-0.747E-05
CGA:   6    -0.132415515670E+04   -0.11762E-02   -0.11662E-02  8540   0.126E-02-0.776E-04
CGA:   7    -0.132415546634E+04   -0.30964E-03   -0.31374E-03  8540   0.355E-03 0.361E-04
CGA:   8    -0.132415556241E+04   -0.96068E-04   -0.99157E-04  8540   0.103E-03 0.346E-04
CGA:   9    -0.132415559315E+04   -0.30734E-04   -0.32239E-04  8540   0.321E-04 0.211E-04
CGA:  10    -0.132415560654E+04   -0.13399E-04   -0.13414E-04  8540   0.129E-04 0.277E-05
CGA:  11    -0.132415561191E+04   -0.53674E-05   -0.54174E-05  8540   0.529E-05-0.146E-05
  18 F= -.13241556E+04 E0= -.13241556E+04  d E =0.571190E-03  mag=   126.0000
       N       E                     dE             d eps       ncg     rms          ort
SDA:   1    -0.130347619680E+04    0.20679E+02    0.00000E+00  8540   0.635E+02 0.000E+00
CGA:   2    -0.131600533971E+04   -0.12529E+02   -0.12604E+02  8540   0.240E+02 0.317E-01
CGA:   3    -0.132203229632E+04   -0.60270E+01   -0.60297E+01  8540   0.642E+01 0.201E-01
CGA:   4    -0.132337819233E+04   -0.13459E+01   -0.13444E+01  8540   0.118E+01-0.129E-01
CGA:   5    -0.132363021121E+04   -0.25202E+00   -0.25206E+00  8540   0.271E+00-0.443E-03
CGA:   6    -0.132369482203E+04   -0.64611E-01   -0.64695E-01  8540   0.695E-01 0.904E-03
CGA:   7    -0.132371343142E+04   -0.18609E-01   -0.18629E-01  8540   0.206E-01 0.367E-03
CGA:   8    -0.132371945681E+04   -0.60254E-02   -0.60202E-02  8540   0.654E-02-0.233E-03
CGA:   9    -0.132372173237E+04   -0.22756E-02   -0.22928E-02  8540   0.245E-02-0.419E-03
CGA:  10    -0.132372243260E+04   -0.70023E-03   -0.70201E-03  8540   0.697E-03 0.207E-03
CGA:  11    -0.132372266710E+04   -0.23450E-03   -0.23478E-03  8540   0.184E-03 0.736E-04
CGA:  12    -0.132372275306E+04   -0.85962E-04   -0.94101E-04  8540   0.114E-03-0.551E-04
CGA:  13    -0.132372278026E+04   -0.27203E-04   -0.27279E-04  8540   0.451E-04-0.391E-05
CGA:  14    -0.132372279609E+04   -0.15828E-04   -0.26558E-04  8540   0.587E-04-0.376E-04
CGA:  15    -0.132372281088E+04   -0.14788E-04   -0.15176E-04  8540   0.580E-05 0.494E-05
CGA:  16    -0.132372281920E+04   -0.83204E-05    0.10635E-05  8540   0.218E-05 0.131E-05
  19 F= -.13237228E+04 E0= -.13237228E+04  d E =0.432793E+00  mag=   126.0000
       N       E                     dE             d eps       ncg     rms          ort
SDA:   1    -0.131406954719E+04    0.96533E+01    0.00000E+00  8540   0.316E+02 0.000E+00
CGA:   2    -0.132035309210E+04   -0.62835E+01   -0.63010E+01  8540   0.119E+02 0.210E-01
CGA:   3    -0.132331143875E+04   -0.29583E+01   -0.29597E+01  8540   0.312E+01 0.111E-01
CGA:   4    -0.132397687471E+04   -0.66544E+00   -0.66579E+00  8540   0.598E+00 0.812E-03
CGA:   5    -0.132410525146E+04   -0.12838E+00   -0.12835E+00  8540   0.136E+00-0.594E-03
CGA:   6    -0.132413806240E+04   -0.32811E-01   -0.32692E-01  8540   0.365E-01-0.170E-02
CGA:   7    -0.132414765746E+04   -0.95951E-02   -0.95979E-02  8540   0.106E-01 0.579E-04
CGA:   8    -0.132415057898E+04   -0.29215E-02   -0.29313E-02  8540   0.311E-02 0.311E-03
CGA:   9    -0.132415164310E+04   -0.10641E-02   -0.10612E-02  8540   0.104E-02 0.108E-03
CGA:  10    -0.132415200753E+04   -0.36442E-03   -0.36245E-03  8540   0.348E-03 0.627E-04
CGA:  11    -0.132415215421E+04   -0.14668E-03   -0.15470E-03  8540   0.148E-03-0.719E-04
CGA:  12    -0.132415217458E+04   -0.20370E-04   -0.24470E-04  8540   0.478E-04 0.390E-04
CGA:  13    -0.132415217939E+04   -0.48125E-05   -0.90671E-05  8540   0.181E-04 0.269E-04
  20 F= -.13241522E+04 E0= -.13241522E+04  d E =-.429360E+00  mag=   126.0000
       N       E                     dE             d eps       ncg     rms          ort
SDA:   1    -0.132388551855E+04    0.26666E+00    0.00000E+00  8540   0.870E+00 0.000E+00
CGA:   2    -0.132406286095E+04   -0.17734E+00   -0.17747E+00  8540   0.349E+00 0.788E-03
CGA:   3    -0.132414922036E+04   -0.86359E-01   -0.86393E-01  8540   0.894E-01 0.399E-03
CGA:   4    -0.132416771975E+04   -0.18499E-01   -0.18521E-01  8540   0.162E-01 0.211E-03
CGA:   5    -0.132417126247E+04   -0.35427E-02   -0.35413E-02  8540   0.376E-02-0.252E-04
CGA:   6    -0.132417215993E+04   -0.89746E-03   -0.89652E-03  8540   0.967E-03-0.199E-04
CGA:   7    -0.132417239867E+04   -0.23874E-03   -0.24083E-03  8540   0.260E-03 0.575E-04
CGA:   8    -0.132417246897E+04   -0.70303E-04   -0.71164E-04  8540   0.727E-04 0.330E-04
CGA:   9    -0.132417248878E+04   -0.19809E-04   -0.20598E-04  8540   0.238E-04 0.247E-04
CGA:  10    -0.132417249429E+04   -0.55082E-05   -0.66070E-05  8540   0.999E-05 0.146E-04
  21 F= -.13241725E+04 E0= -.13241725E+04  d E =-.203149E-01  mag=   126.0000
       N       E                     dE             d eps       ncg     rms          ort
SDA:   1    -0.132308879642E+04    0.10837E+01    0.00000E+00  8540   0.330E+01 0.000E+00
CGA:   2    -0.132375504069E+04   -0.66624E+00   -0.66674E+00  8540   0.133E+01 0.442E-02
CGA:   3    -0.132408841878E+04   -0.33338E+00   -0.33340E+00  8540   0.352E+00 0.231E-03
CGA:   4    -0.132416028901E+04   -0.71870E-01   -0.71825E-01  8540   0.619E-01-0.789E-03
CGA:   5    -0.132417371094E+04   -0.13422E-01   -0.13418E-01  8540   0.145E-01-0.972E-04
CGA:   6    -0.132417711406E+04   -0.34031E-02   -0.34068E-02  8540   0.357E-02 0.118E-03
CGA:   7    -0.132417804500E+04   -0.93095E-03   -0.93136E-03  8540   0.999E-03 0.921E-04
CGA:   8    -0.132417835637E+04   -0.31137E-03   -0.31366E-03  8540   0.347E-03-0.539E-04
CGA:   9    -0.132417846869E+04   -0.11232E-03   -0.11477E-03  8540   0.132E-03-0.292E-04
CGA:  10    -0.132417850656E+04   -0.37875E-04   -0.37621E-04  8540   0.386E-04 0.597E-05
CGA:  11    -0.132417851959E+04   -0.13028E-04   -0.12958E-04  8540   0.102E-04 0.140E-05
CGA:  12    -0.132417852577E+04   -0.61783E-05    0.23051E-04  8540   0.304E-05 0.238E-05
  22 F= -.13241785E+04 E0= -.13241785E+04  d E =-.603148E-02  mag=   126.0000
       N       E                     dE             d eps       ncg     rms          ort
SDA:   1    -0.132404309006E+04    0.13543E+00    0.00000E+00  8540   0.399E+00 0.000E+00
CGA:   2    -0.132412553534E+04   -0.82445E-01   -0.82505E-01  8540   0.165E+00 0.668E-03
CGA:   3    -0.132416604394E+04   -0.40509E-01   -0.40498E-01  8540   0.413E-01-0.509E-03
CGA:   4    -0.132417460037E+04   -0.85564E-02   -0.85295E-02  8540   0.742E-02-0.440E-03
CGA:   5    -0.132417617112E+04   -0.15708E-02   -0.15750E-02  8540   0.168E-02 0.796E-04
CGA:   6    -0.132417654918E+04   -0.37806E-03   -0.38223E-03  8540   0.388E-03 0.108E-03
CGA:   7    -0.132417666009E+04   -0.11091E-03   -0.11082E-03  8540   0.116E-03 0.143E-04
CGA:   8    -0.132417670173E+04   -0.41644E-04   -0.46019E-04  8540   0.695E-04-0.361E-04
CGA:   9    -0.132417671693E+04   -0.15202E-04   -0.21508E-04  8540   0.506E-04-0.349E-04
CGA:  10    -0.132417672390E+04   -0.69698E-05   -0.85702E-05  8540   0.104E-04 0.148E-04
  23 F= -.13241767E+04 E0= -.13241767E+04  d E =0.180186E-02  mag=   126.0000
       N       E                     dE             d eps       ncg     rms          ort
SDA:   1    -0.132394663845E+04    0.23008E+00    0.00000E+00  8540   0.616E+00 0.000E+00
CGA:   2    -0.132408343425E+04   -0.13680E+00   -0.13683E+00  8540   0.278E+00 0.507E-03
CGA:   3    -0.132414853248E+04   -0.65098E-01   -0.65077E-01  8540   0.633E-01-0.799E-03
CGA:   4    -0.132416131994E+04   -0.12787E-01   -0.12764E-01  8540   0.109E-01-0.400E-03
CGA:   5    -0.132416365822E+04   -0.23383E-02   -0.23451E-02  8540   0.253E-02 0.149E-03
CGA:   6    -0.132416423939E+04   -0.58117E-03   -0.58552E-03  8540   0.594E-03 0.145E-03
CGA:   7    -0.132416440039E+04   -0.16100E-03   -0.16101E-03  8540   0.167E-03 0.394E-04
CGA:   8    -0.132416446254E+04   -0.62150E-04   -0.67255E-04  8540   0.922E-04-0.422E-04
CGA:   9    -0.132416448553E+04   -0.22996E-04   -0.25812E-04  8540   0.434E-04-0.252E-04
CGA:  10    -0.132416449188E+04   -0.63447E-05   -0.67551E-05  8540   0.154E-04 0.759E-05
  24 F= -.13241645E+04 E0= -.13241645E+04  d E =0.122320E-01  mag=   126.0000
       N       E                     dE             d eps       ncg     rms          ort
SDA:   1    -0.132405642720E+04    0.10806E+00    0.00000E+00  8540   0.278E+00 0.000E+00
CGA:   2    -0.132412098399E+04   -0.64557E-01   -0.64565E-01  8540   0.129E+00 0.176E-03
CGA:   3    -0.132415016451E+04   -0.29181E-01   -0.29181E-01  8540   0.272E-01-0.384E-04
CGA:   4    -0.132415565745E+04   -0.54929E-02   -0.54947E-02  8540   0.481E-02 0.269E-04
CGA:   5    -0.132415671385E+04   -0.10564E-02   -0.10561E-02  8540   0.115E-02-0.112E-04
CGA:   6    -0.132415698863E+04   -0.27478E-03   -0.27467E-03  8540   0.297E-03-0.908E-05
CGA:   7    -0.132415706057E+04   -0.71939E-04   -0.72103E-04  8540   0.777E-04 0.215E-04
CGA:   8    -0.132415708741E+04   -0.26843E-04   -0.27311E-04  8540   0.308E-04-0.622E-05
CGA:   9    -0.132415709755E+04   -0.10136E-04   -0.10869E-04  8540   0.140E-04-0.573E-05
CGA:  10    -0.132415709869E+04   -0.11456E-05   -0.80519E-05  8540   0.294E-04-0.156E-04
  25 F= -.13241571E+04 E0= -.13241571E+04  d E =0.739318E-02  mag=   126.0000
       N       E                     dE             d eps       ncg     rms          ort
SDA:   1    -0.132385729143E+04    0.29981E+00    0.00000E+00  8540   0.770E+00 0.000E+00
CGA:   2    -0.132404650480E+04   -0.18921E+00   -0.18924E+00  8540   0.373E+00 0.347E-03
CGA:   3    -0.132412782597E+04   -0.81321E-01   -0.81347E-01  8540   0.725E-01 0.300E-03
CGA:   4    -0.132414242603E+04   -0.14600E-01   -0.14615E-01  8540   0.126E-01 0.185E-03
CGA:   5    -0.132414524741E+04   -0.28214E-02   -0.28188E-02  8540   0.305E-02-0.560E-04
CGA:   6    -0.132414598117E+04   -0.73376E-03   -0.73232E-03  8540   0.793E-03-0.511E-04
CGA:   7    -0.132414617636E+04   -0.19519E-03   -0.19576E-03  8540   0.219E-03 0.328E-04
CGA:   8    -0.132414624455E+04   -0.68192E-04   -0.68139E-04  8540   0.725E-04 0.161E-05
CGA:   9    -0.132414626933E+04   -0.24777E-04   -0.24819E-04  8540   0.260E-04-0.622E-06
CGA:  10    -0.132414627814E+04   -0.88161E-05   -0.15727E-04  8540   0.348E-04-0.205E-04
  26 F= -.13241463E+04 E0= -.13241463E+04  d E =0.108206E-01  mag=   126.0000
       N       E                     dE             d eps       ncg     rms          ort
SDA:   1    -0.132395882769E+04    0.18744E+00    0.00000E+00  8540   0.499E+00 0.000E+00
CGA:   2    -0.132407627544E+04   -0.11745E+00   -0.11747E+00  8540   0.235E+00 0.230E-03
CGA:   3    -0.132412946271E+04   -0.53187E-01   -0.53208E-01  8540   0.477E-01 0.252E-03
CGA:   4    -0.132413910018E+04   -0.96375E-02   -0.96608E-02  8540   0.822E-02 0.286E-03
CGA:   5    -0.132414095626E+04   -0.18561E-02   -0.18533E-02  8540   0.199E-02-0.557E-04
CGA:   6    -0.132414143844E+04   -0.48218E-03   -0.48103E-03  8540   0.526E-03-0.384E-04
CGA:   7    -0.132414156307E+04   -0.12463E-03   -0.12571E-03  8540   0.138E-03 0.374E-04
CGA:   8    -0.132414160164E+04   -0.38570E-04   -0.38749E-04  8540   0.403E-04 0.198E-04
CGA:   9    -0.132414161405E+04   -0.12407E-04   -0.12419E-04  8540   0.135E-04 0.116E-04
CGA:  10    -0.132414162037E+04   -0.63234E-05   -0.62262E-05  8540   0.636E-05 0.112E-05
  27 F= -.13241416E+04 E0= -.13241416E+04  d E =0.465777E-02  mag=   126.0000
       N       E                     dE             d eps       ncg     rms          ort
SDA:   1    -0.132408294556E+04    0.58668E-01    0.00000E+00  8540   0.182E+00 0.000E+00
CGA:   2    -0.132412139571E+04   -0.38450E-01   -0.38478E-01  8540   0.760E-01 0.306E-03
CGA:   3    -0.132413975757E+04   -0.18362E-01   -0.18363E-01  8540   0.187E-01 0.489E-05
CGA:   4    -0.132414362274E+04   -0.38652E-02   -0.38620E-02  8540   0.340E-02-0.515E-04
CGA:   5    -0.132414435094E+04   -0.72821E-03   -0.72650E-03  8540   0.796E-03-0.316E-04
CGA:   6    -0.132414454446E+04   -0.19352E-03   -0.19301E-03  8540   0.214E-03-0.223E-04
CGA:   7    -0.132414460001E+04   -0.55554E-04   -0.55561E-04  8540   0.626E-04-0.789E-05
CGA:   8    -0.132414461647E+04   -0.16456E-04   -0.16446E-04  8540   0.172E-04 0.167E-05
CGA:   9    -0.132414462261E+04   -0.61436E-05   -0.62207E-05  8540   0.647E-05-0.921E-06
  28 F= -.13241446E+04 E0= -.13241446E+04  d E =-.300224E-02  mag=   126.0000
       N       E                     dE             d eps       ncg     rms          ort
SDA:   1    -0.132413245073E+04    0.12166E-01    0.00000E+00  8540   0.323E-01 0.000E+00
CGA:   2    -0.132413934346E+04   -0.68927E-02   -0.68965E-02  8540   0.139E-01 0.393E-04
CGA:   3    -0.132414270572E+04   -0.33623E-02   -0.33601E-02  8540   0.330E-02-0.684E-04
CGA:   4    -0.132414339825E+04   -0.69253E-03   -0.68699E-03  8540   0.598E-03-0.827E-04
CGA:   5    -0.132414352358E+04   -0.12533E-03   -0.12551E-03  8540   0.136E-03 0.288E-05
CGA:   6    -0.132414355340E+04   -0.29826E-04   -0.30302E-04  8540   0.311E-04 0.986E-05
CGA:   7    -0.132414356325E+04   -0.98468E-05   -0.99177E-05  8540   0.114E-04-0.242E-05
  29 F= -.13241436E+04 E0= -.13241436E+04  d E =0.105936E-02  mag=   126.0000
       N       E                     dE             d eps       ncg     rms          ort
SDA:   1    -0.132409029121E+04    0.53262E-01    0.00000E+00  8540   0.137E+00 0.000E+00
CGA:   2    -0.132412141249E+04   -0.31121E-01   -0.31130E-01  8540   0.638E-01 0.886E-04
CGA:   3    -0.132413615003E+04   -0.14738E-01   -0.14734E-01  8540   0.136E-01-0.910E-04
CGA:   4    -0.132413890081E+04   -0.27508E-02   -0.27448E-02  8540   0.229E-02-0.839E-04
CGA:   5    -0.132413940965E+04   -0.50884E-03   -0.50946E-03  8540   0.536E-03 0.117E-04
CGA:   6    -0.132413953611E+04   -0.12646E-03   -0.12709E-03  8540   0.125E-03 0.177E-04
CGA:   7    -0.132413957063E+04   -0.34520E-04   -0.34528E-04  8540   0.365E-04 0.348E-05
CGA:   8    -0.132413958373E+04   -0.13100E-04   -0.14176E-04  8540   0.208E-04-0.989E-05
CGA:   9    -0.132413958881E+04   -0.50735E-05   -0.57338E-05  8540   0.103E-04-0.633E-05
  30 F= -.13241396E+04 E0= -.13241396E+04  d E =0.397444E-02  mag=   126.0000
       N       E                     dE             d eps       ncg     rms          ort
SDA:   1    -0.132405582262E+04    0.83761E-01    0.00000E+00  8540   0.207E+00 0.000E+00
CGA:   2    -0.132410861374E+04   -0.52791E-01   -0.52797E-01  8540   0.102E+00 0.499E-04
CGA:   3    -0.132413048809E+04   -0.21874E-01   -0.21874E-01  8540   0.187E-01-0.477E-04
CGA:   4    -0.132413433584E+04   -0.38478E-02   -0.38423E-02  8540   0.330E-02-0.706E-04
CGA:   5    -0.132413505605E+04   -0.72021E-03   -0.72198E-03  8540   0.770E-03 0.264E-04
CGA:   6    -0.132413523512E+04   -0.17907E-03   -0.18063E-03  8540   0.184E-03 0.324E-04
CGA:   7    -0.132413528666E+04   -0.51547E-04   -0.51597E-04  8540   0.570E-04 0.526E-05
CGA:   8    -0.132413530552E+04   -0.18854E-04   -0.19017E-04  8540   0.222E-04-0.350E-05
CGA:   9    -0.132413531314E+04   -0.76230E-05   -0.80850E-05  8540   0.988E-05-0.433E-05
  31 F= -.13241353E+04 E0= -.13241353E+04  d E =0.427566E-02  mag=   126.0000
       N       E                     dE             d eps       ncg     rms          ort
SDA:   1    -0.132385463879E+04    0.28067E+00    0.00000E+00  8540   0.729E+00 0.000E+00
CGA:   2    -0.132402989206E+04   -0.17525E+00   -0.17528E+00  8540   0.355E+00 0.165E-03
CGA:   3    -0.132410934673E+04   -0.79455E-01   -0.79461E-01  8540   0.679E-01-0.735E-04
CGA:   4    -0.132412308679E+04   -0.13740E-01   -0.13745E-01  8540   0.118E-01 0.408E-04
CGA:   5    -0.132412572306E+04   -0.26363E-02   -0.26387E-02  8540   0.285E-02 0.424E-04
CGA:   6    -0.132412639259E+04   -0.66953E-03   -0.67128E-03  8540   0.693E-03 0.447E-04
CGA:   7    -0.132412657262E+04   -0.18002E-03   -0.18061E-03  8540   0.196E-03 0.386E-04
CGA:   8    -0.132412663249E+04   -0.59870E-04   -0.59678E-04  8540   0.632E-04 0.107E-04
CGA:   9    -0.132412665478E+04   -0.22289E-04   -0.22044E-04  8540   0.217E-04 0.413E-05
CGA:  10    -0.132412666077E+04   -0.59968E-05   -0.60721E-05  8540   0.633E-05 0.620E-05
  32 F= -.13241267E+04 E0= -.13241267E+04  d E =0.865237E-02  mag=   126.0000
       N       E                     dE             d eps       ncg     rms          ort
SDA:   1    -0.132404390001E+04    0.82755E-01    0.00000E+00  8540   0.239E+00 0.000E+00
CGA:   2    -0.132409571196E+04   -0.51812E-01   -0.51835E-01  8540   0.103E+00 0.302E-03
CGA:   3    -0.132412023779E+04   -0.24526E-01   -0.24523E-01  8540   0.237E-01-0.183E-03
CGA:   4    -0.132412513752E+04   -0.48997E-02   -0.48986E-02  8540   0.425E-02-0.271E-04
CGA:   5    -0.132412606044E+04   -0.92292E-03   -0.92216E-03  8540   0.100E-02-0.185E-04
CGA:   6    -0.132412630470E+04   -0.24426E-03   -0.24398E-03  8540   0.266E-03-0.187E-04
CGA:   7    -0.132412637243E+04   -0.67728E-04   -0.67726E-04  8540   0.746E-04 0.326E-05
CGA:   8    -0.132412639590E+04   -0.23475E-04   -0.23908E-04  8540   0.279E-04-0.756E-05
CGA:   9    -0.132412640427E+04   -0.83684E-05   -0.85330E-05  8540   0.959E-05-0.212E-05
  33 F= -.13241264E+04 E0= -.13241264E+04  d E =0.256501E-03  mag=   126.0000
       N       E                     dE             d eps       ncg     rms          ort
SDA:   1    -0.132411219290E+04    0.14203E-01    0.00000E+00  8540   0.461E-01 0.000E+00
CGA:   2    -0.132412171277E+04   -0.95199E-02   -0.95222E-02  8540   0.189E-01 0.128E-04
CGA:   3    -0.132412638840E+04   -0.46756E-02   -0.46752E-02  8540   0.478E-02-0.371E-04
CGA:   4    -0.132412736838E+04   -0.97997E-03   -0.97999E-03  8540   0.847E-03-0.118E-05
CGA:   5    -0.132412755557E+04   -0.18720E-03   -0.18652E-03  8540   0.202E-03-0.166E-04
CGA:   6    -0.132412760527E+04   -0.49691E-04   -0.49591E-04  8540   0.549E-04-0.105E-04
CGA:   7    -0.132412761806E+04   -0.12800E-04   -0.12821E-04  8540   0.143E-04 0.163E-05
CGA:   8    -0.132412762183E+04   -0.37701E-05   -0.37731E-05  8540   0.377E-05 0.154E-05
  34 F= -.13241276E+04 E0= -.13241276E+04  d E =-.121756E-02  mag=   126.0000
       N       E                     dE             d eps       ncg     rms          ort
SDA:   1    -0.132404836434E+04    0.79254E-01    0.00000E+00  8540   0.203E+00 0.000E+00
CGA:   2    -0.132409811836E+04   -0.49754E-01   -0.49757E-01  8540   0.102E+00 0.271E-04
CGA:   3    -0.132412040419E+04   -0.22286E-01   -0.22272E-01  8540   0.191E-01-0.302E-03
CGA:   4    -0.132412424676E+04   -0.38426E-02   -0.38392E-02  8540   0.329E-02-0.563E-04
CGA:   5    -0.132412497590E+04   -0.72914E-03   -0.72997E-03  8540   0.783E-03 0.186E-04
CGA:   6    -0.132412515476E+04   -0.17886E-03   -0.17983E-03  8540   0.184E-03 0.280E-04
CGA:   7    -0.132412520350E+04   -0.48735E-04   -0.48790E-04  8540   0.527E-04 0.107E-04
CGA:   8    -0.132412522195E+04   -0.18450E-04   -0.18969E-04  8540   0.230E-04-0.652E-05
CGA:   9    -0.132412522909E+04   -0.71437E-05   -0.76389E-05  8540   0.100E-04-0.437E-05
  35 F= -.13241252E+04 E0= -.13241252E+04  d E =0.239274E-02  mag=   126.0000
       N       E                     dE             d eps       ncg     rms          ort
SDA:   1    -0.132376352580E+04    0.36170E+00    0.00000E+00  8540   0.997E+00 0.000E+00
CGA:   2    -0.132398784935E+04   -0.22432E+00   -0.22438E+00  8540   0.471E+00 0.577E-03
CGA:   3    -0.132409764858E+04   -0.10980E+00   -0.10978E+00  8540   0.102E+00-0.569E-03
CGA:   4    -0.132411804131E+04   -0.20393E-01   -0.20376E-01  8540   0.171E-01-0.286E-03
CGA:   5    -0.132412179266E+04   -0.37513E-02   -0.37543E-02  8540   0.413E-02 0.607E-04
CGA:   6    -0.132412276785E+04   -0.97520E-03   -0.97630E-03  8540   0.996E-03 0.414E-04
CGA:   7    -0.132412303534E+04   -0.26749E-03   -0.26751E-03  8540   0.295E-03-0.351E-05
CGA:   8    -0.132412312403E+04   -0.88687E-04   -0.89335E-04  8540   0.100E-03-0.149E-04
CGA:   9    -0.132412315979E+04   -0.35764E-04   -0.41794E-04  8540   0.630E-04-0.343E-04
CGA:  10    -0.132412317025E+04   -0.10459E-04   -0.10510E-04  8540   0.207E-04 0.280E-05
CGA:  11    -0.132412317551E+04   -0.52601E-05   -0.52881E-05  8540   0.682E-05 0.106E-05
  36 F= -.13241232E+04 E0= -.13241232E+04  d E =0.205358E-02  mag=   126.0000
       N       E                     dE             d eps       ncg     rms          ort
SDA:   1    -0.132407005247E+04    0.53118E-01    0.00000E+00  8540   0.136E+00 0.000E+00
CGA:   2    -0.132410414872E+04   -0.34096E-01   -0.34105E-01  8540   0.672E-01 0.126E-03
CGA:   3    -0.132411848004E+04   -0.14331E-01   -0.14338E-01  8540   0.121E-01 0.504E-04
CGA:   4    -0.132412096312E+04   -0.24831E-02   -0.24810E-02  8540   0.226E-02-0.266E-04
CGA:   5    -0.132412145383E+04   -0.49072E-03   -0.49159E-03  8540   0.530E-03 0.121E-04
CGA:   6    -0.132412157424E+04   -0.12041E-03   -0.12173E-03  8540   0.127E-03 0.240E-04
CGA:   7    -0.132412161018E+04   -0.35932E-04   -0.35951E-04  8540   0.396E-04 0.204E-05
CGA:   8    -0.132412162257E+04   -0.12391E-04   -0.12413E-04  8540   0.141E-04-0.787E-06
CGA:   9    -0.132412162676E+04   -0.41917E-05   -0.41664E-05  8540   0.399E-05 0.123E-05
  37 F= -.13241216E+04 E0= -.13241216E+04  d E =0.154875E-02  mag=   126.0000
       N       E                     dE             d eps       ncg     rms          ort
SDA:   1    -0.132409549766E+04    0.26125E-01    0.00000E+00  8540   0.590E-01 0.000E+00
CGA:   2    -0.132411133462E+04   -0.15837E-01   -0.15838E-01  8540   0.301E-01 0.341E-04
CGA:   3    -0.132411749896E+04   -0.61643E-02   -0.61590E-02  8540   0.499E-02-0.797E-04
CGA:   4    -0.132411851706E+04   -0.10181E-02   -0.10166E-02  8540   0.929E-03-0.221E-04
CGA:   5    -0.132411871747E+04   -0.20041E-03   -0.20117E-03  8540   0.213E-03 0.133E-04
CGA:   6    -0.132411876452E+04   -0.47049E-04   -0.47848E-04  8540   0.488E-04 0.162E-04
CGA:   7    -0.132411877847E+04   -0.13943E-04   -0.13950E-04  8540   0.151E-04 0.279E-05
CGA:   8    -0.132411878395E+04   -0.54852E-05   -0.56478E-05  8540   0.713E-05-0.191E-05
  38 F= -.13241188E+04 E0= -.13241188E+04  d E =0.284281E-02  mag=   126.0000
       N       E                     dE             d eps       ncg     rms          ort
SDA:   1    -0.132396642587E+04    0.15235E+00    0.00000E+00  8540   0.365E+00 0.000E+00
CGA:   2    -0.132406848958E+04   -0.10206E+00   -0.10206E+00  8540   0.188E+00-0.655E-05
CGA:   3    -0.132410555662E+04   -0.37067E-01   -0.37051E-01  8540   0.305E-01-0.257E-03
CGA:   4    -0.132411171030E+04   -0.61537E-02   -0.61504E-02  8540   0.576E-02-0.558E-04
CGA:   5    -0.132411296246E+04   -0.12522E-02   -0.12543E-02  8540   0.132E-02 0.446E-04
CGA:   6    -0.132411326971E+04   -0.30726E-03   -0.30812E-03  8540   0.320E-03 0.271E-04
CGA:   7    -0.132411336048E+04   -0.90763E-04   -0.90884E-04  8540   0.104E-03-0.716E-05
CGA:   8    -0.132411339288E+04   -0.32405E-04   -0.32848E-04  8540   0.398E-04-0.720E-05
CGA:   9    -0.132411340625E+04   -0.13370E-04   -0.14252E-04  8540   0.166E-04-0.738E-05
CGA:  10    -0.132411341087E+04   -0.46226E-05   -0.50404E-05  8540   0.639E-05-0.416E-05
  39 F= -.13241134E+04 E0= -.13241134E+04  d E =0.537308E-02  mag=   126.0000
       N       E                     dE             d eps       ncg     rms          ort
SDA:   1    -0.132297831500E+04    0.11351E+01    0.00000E+00  8540   0.274E+01 0.000E+00
CGA:   2    -0.132376403044E+04   -0.78572E+00   -0.78570E+00  8540   0.141E+01-0.367E-03
CGA:   3    -0.132403835508E+04   -0.27432E+00   -0.27433E+00  8540   0.222E+00-0.408E-03
CGA:   4    -0.132408336542E+04   -0.45010E-01   -0.45008E-01  8540   0.423E-01-0.771E-04
CGA:   5    -0.132409263311E+04   -0.92677E-02   -0.92755E-02  8540   0.979E-02 0.157E-03
CGA:   6    -0.132409492593E+04   -0.22928E-02   -0.22951E-02  8540   0.241E-02 0.735E-04
CGA:   7    -0.132409558779E+04   -0.66185E-03   -0.66209E-03  8540   0.757E-03-0.233E-04
CGA:   8    -0.132409582200E+04   -0.23422E-03   -0.23511E-03  8540   0.273E-03-0.179E-04
CGA:   9    -0.132409591968E+04   -0.97682E-04   -0.10266E-03  8540   0.112E-03-0.416E-04
CGA:  10    -0.132409595097E+04   -0.31284E-04   -0.32350E-04  8540   0.348E-04-0.154E-04
CGA:  11    -0.132409596091E+04   -0.99452E-05   -0.10216E-04  8540   0.997E-05-0.414E-05
  40 F= -.13240960E+04 E0= -.13240960E+04  d E =0.174500E-01  mag=   126.0000
       N       E                     dE             d eps       ncg     rms          ort
SDA:   1    -0.132341253289E+04    0.68342E+00    0.00000E+00  8540   0.175E+01 0.000E+00
CGA:   2    -0.132386447473E+04   -0.45194E+00   -0.45199E+00  8540   0.884E+00 0.132E-02
CGA:   3    -0.132404996002E+04   -0.18549E+00   -0.18547E+00  8540   0.155E+00-0.627E-03
CGA:   4    -0.132408133091E+04   -0.31371E-01   -0.31353E-01  8540   0.281E-01-0.273E-03
CGA:   5    -0.132408755865E+04   -0.62277E-02   -0.62351E-02  8540   0.661E-02 0.136E-03
CGA:   6    -0.132408915113E+04   -0.15925E-02   -0.15917E-02  8540   0.166E-02-0.258E-04
CGA:   7    -0.132408960098E+04   -0.44985E-03   -0.44990E-03  8540   0.509E-03-0.204E-04
CGA:   8    -0.132408975247E+04   -0.15149E-03   -0.15180E-03  8540   0.173E-03-0.958E-05
CGA:   9    -0.132408981344E+04   -0.60967E-04   -0.63355E-04  8540   0.693E-04-0.233E-04
CGA:  10    -0.132408983072E+04   -0.17281E-04   -0.17241E-04  8540   0.176E-04 0.348E-05
CGA:  11    -0.132408983720E+04   -0.64881E-05   -0.67314E-05  8540   0.601E-05-0.282E-05
  41 F= -.13240898E+04 E0= -.13240898E+04  d E =0.612371E-02  mag=   126.0000
       N       E                     dE             d eps       ncg     rms          ort
SDA:   1    -0.132368654624E+04    0.40328E+00    0.00000E+00  8540   0.112E+01 0.000E+00
CGA:   2    -0.132394534821E+04   -0.25880E+00   -0.25887E+00  8540   0.526E+00 0.497E-03
CGA:   3    -0.132406436718E+04   -0.11902E+00   -0.11902E+00  8540   0.108E+00-0.204E-03
CGA:   4    -0.132408612529E+04   -0.21758E-01   -0.21752E-01  8540   0.193E-01-0.911E-04
CGA:   5    -0.132409037332E+04   -0.42480E-02   -0.42467E-02  8540   0.468E-02-0.272E-04
CGA:   6    -0.132409150798E+04   -0.11347E-02   -0.11307E-02  8540   0.122E-02-0.101E-03
CGA:   7    -0.132409181777E+04   -0.30979E-03   -0.30979E-03  8540   0.349E-03 0.518E-08
CGA:   8    -0.132409191532E+04   -0.97547E-04   -0.97534E-04  8540   0.102E-03 0.128E-04
CGA:   9    -0.132409195439E+04   -0.39073E-04   -0.40512E-04  8540   0.448E-04-0.139E-04
CGA:  10    -0.132409196498E+04   -0.10591E-04   -0.10635E-04  8540   0.125E-04 0.470E-05
CGA:  11    -0.132409197013E+04   -0.51446E-05   -0.58649E-05  8540   0.720E-05-0.517E-05
  42 F= -.13240920E+04 E0= -.13240920E+04  d E =-.213292E-02  mag=   126.0000
       N       E                     dE             d eps       ncg     rms          ort
SDA:   1    -0.132353812137E+04    0.55384E+00    0.00000E+00  8540   0.138E+01 0.000E+00
CGA:   2    -0.132391441404E+04   -0.37629E+00   -0.37630E+00  8540   0.711E+00 0.173E-05
CGA:   3    -0.132405784988E+04   -0.14344E+00   -0.14346E+00  8540   0.115E+00-0.344E-04
CGA:   4    -0.132408115717E+04   -0.23307E-01   -0.23301E-01  8540   0.213E-01-0.105E-03
CGA:   5    -0.132408589907E+04   -0.47419E-02   -0.47461E-02  8540   0.507E-02 0.668E-04
CGA:   6    -0.132408709491E+04   -0.11958E-02   -0.11953E-02  8540   0.126E-02-0.140E-04
CGA:   7    -0.132408743794E+04   -0.34303E-03   -0.34294E-03  8540   0.395E-03-0.247E-04
CGA:   8    -0.132408755410E+04   -0.11616E-03   -0.11620E-03  8540   0.131E-03-0.167E-05
CGA:   9    -0.132408760439E+04   -0.50290E-04   -0.55176E-04  8540   0.669E-04-0.336E-04
CGA:  10    -0.132408761663E+04   -0.12243E-04   -0.12423E-04  8540   0.188E-04 0.513E-05
CGA:  11    -0.132408762313E+04   -0.64954E-05   -0.67328E-05  8540   0.810E-05-0.478E-05
  43 F= -.13240876E+04 E0= -.13240876E+04  d E =0.434700E-02  mag=   126.0000
       N       E                     dE             d eps       ncg     rms          ort
SDA:   1    -0.130708987775E+04    0.16998E+02    0.00000E+00  8540   0.470E+02 0.000E+00
CGA:   2    -0.131771630209E+04   -0.10626E+02   -0.10640E+02  8540   0.216E+02 0.752E-01
CGA:   3    -0.132272412980E+04   -0.50078E+01   -0.50083E+01  8540   0.465E+01 0.352E-02
CGA:   4    -0.132365604252E+04   -0.93191E+00   -0.93157E+00  8540   0.818E+00-0.552E-02
CGA:   5    -0.132383393386E+04   -0.17789E+00   -0.17804E+00  8540   0.198E+00 0.196E-02
CGA:   6    -0.132388079852E+04   -0.46865E-01   -0.46929E-01  8540   0.496E-01 0.151E-02
CGA:   7    -0.132389400323E+04   -0.13205E-01   -0.13211E-01  8540   0.146E-01 0.537E-03
CGA:   8    -0.132389836928E+04   -0.43661E-02   -0.43647E-02  8540   0.471E-02 0.612E-04
CGA:   9    -0.132390003362E+04   -0.16643E-02   -0.16835E-02  8540   0.176E-02-0.240E-03
CGA:  10    -0.132390050406E+04   -0.47045E-03   -0.46994E-03  8540   0.477E-03 0.272E-03
CGA:  11    -0.132390065959E+04   -0.15553E-03   -0.15532E-03  8540   0.136E-03 0.893E-04
CGA:  12    -0.132390071421E+04   -0.54614E-04   -0.53994E-04  8540   0.527E-04 0.111E-04
CGA:  13    -0.132390073597E+04   -0.21764E-04   -0.21116E-04  8540   0.225E-04 0.725E-05
CGA:  14    -0.132390065660E+04    0.79369E-04   -0.43792E-04  8540   0.343E-03-0.829E-04
CGA:  15    -0.132390075472E+04   -0.98120E-04   -0.96264E-04  8540   0.676E-04-0.765E-05
CGA:  16    -0.132390075845E+04   -0.37256E-05   -0.11182E-04  8540   0.175E-04 0.218E-04
CGA:  17    -0.132390077023E+04   -0.11782E-04   -0.12132E-04  8540   0.369E-04-0.120E-04
CGA:  18    -0.132390078295E+04   -0.12722E-04   -0.93974E-05  8540   0.163E-04-0.137E-04
CGA:  19    -0.132390078112E+04    0.18279E-05   -0.89362E-06  8540   0.896E-05 0.687E-05
  44 F= -.13239008E+04 E0= -.13239008E+04  d E =0.186842E+00  mag=   126.0000
       N       E                     dE             d eps       ncg     rms          ort
SDA:   1    -0.131956851269E+04    0.43323E+01    0.00000E+00  8540   0.136E+02 0.000E+00
CGA:   2    -0.132233721231E+04   -0.27687E+01   -0.27752E+01  8540   0.544E+01 0.375E-03
CGA:   3    -0.132367956845E+04   -0.13424E+01   -0.13432E+01  8540   0.136E+01 0.202E-02
CGA:   4    -0.132396267295E+04   -0.28310E+00   -0.28315E+00  8540   0.251E+00-0.406E-03
CGA:   5    -0.132401732104E+04   -0.54648E-01   -0.54625E-01  8540   0.589E-01-0.246E-03
CGA:   6    -0.132403151757E+04   -0.14197E-01   -0.14096E-01  8540   0.152E-01-0.636E-03
CGA:   7    -0.132403553380E+04   -0.40162E-02   -0.40240E-02  8540   0.444E-02 0.579E-04
CGA:   8    -0.132403674338E+04   -0.12096E-02   -0.12259E-02  8540   0.127E-02 0.144E-03
CGA:   9    -0.132403717293E+04   -0.42955E-03   -0.43256E-03  8540   0.428E-03 0.559E-04
CGA:  10    -0.132403731103E+04   -0.13810E-03   -0.14157E-03  8540   0.133E-03 0.550E-04
CGA:  11    -0.132403736830E+04   -0.57268E-04   -0.57334E-04  8540   0.470E-04-0.984E-05
CGA:  12    -0.132403737214E+04   -0.38434E-05   -0.78566E-05  8540   0.170E-04 0.205E-04
  45 F= -.13240374E+04 E0= -.13240374E+04  d E =-.136591E+00  mag=   126.0000
       N       E                     dE             d eps       ncg     rms          ort
SDA:   1    -0.132391765720E+04    0.11971E+00    0.00000E+00  8540   0.401E+00 0.000E+00
CGA:   2    -0.132400050717E+04   -0.82850E-01   -0.82951E-01  8540   0.165E+00 0.469E-03
CGA:   3    -0.132404102411E+04   -0.40517E-01   -0.40551E-01  8540   0.420E-01 0.232E-03
CGA:   4    -0.132404954955E+04   -0.85254E-02   -0.85583E-02  8540   0.741E-02 0.227E-03
CGA:   5    -0.132405117373E+04   -0.16242E-02   -0.16190E-02  8540   0.177E-02-0.465E-04
CGA:   6    -0.132405162675E+04   -0.45302E-03   -0.44357E-03  8540   0.513E-03-0.124E-03
CGA:   7    -0.132405174346E+04   -0.11670E-03   -0.11754E-03  8540   0.134E-03 0.104E-04
CGA:   8    -0.132405177328E+04   -0.29825E-04   -0.31921E-04  8540   0.330E-04 0.238E-04
CGA:   9    -0.132405178049E+04   -0.72067E-05   -0.85737E-05  8540   0.116E-04 0.141E-04
  46 F= -.13240518E+04 E0= -.13240518E+04  d E =-.144084E-01  mag=   126.0000
       N       E                     dE             d eps       ncg     rms          ort
SDA:   1    -0.132335632334E+04    0.69545E+00    0.00000E+00  8540   0.205E+01 0.000E+00
CGA:   2    -0.132379522054E+04   -0.43890E+00   -0.43924E+00  8540   0.891E+00 0.235E-02
CGA:   3    -0.132400931042E+04   -0.21409E+00   -0.21414E+00  8540   0.217E+00 0.432E-03
CGA:   4    -0.132405290272E+04   -0.43592E-01   -0.43633E-01  8540   0.375E-01 0.378E-03
CGA:   5    -0.132406101152E+04   -0.81088E-02   -0.80997E-02  8540   0.898E-02-0.132E-03
CGA:   6    -0.132406323515E+04   -0.22236E-02   -0.22081E-02  8540   0.244E-02-0.355E-03
CGA:   7    -0.132406382058E+04   -0.58543E-03   -0.58685E-03  8540   0.650E-03 0.369E-04
CGA:   8    -0.132406399242E+04   -0.17184E-03   -0.17327E-03  8540   0.173E-03 0.590E-04
CGA:   9    -0.132406404568E+04   -0.53265E-04   -0.53358E-04  8540   0.548E-04 0.340E-04
CGA:  10    -0.132406406680E+04   -0.21115E-04   -0.20791E-04  8540   0.209E-04 0.101E-04
CGA:  11    -0.132406407630E+04   -0.95081E-05   -0.96353E-05  8540   0.845E-05-0.128E-05
  47 F= -.13240641E+04 E0= -.13240641E+04  d E =-.122958E-01  mag=   126.0000
       N       E                     dE             d eps       ncg     rms          ort
SDA:   1    -0.132395646548E+04    0.10760E+00    0.00000E+00  8540   0.310E+00 0.000E+00
CGA:   2    -0.132402788039E+04   -0.71415E-01   -0.71435E-01  8540   0.146E+00 0.182E-03
CGA:   3    -0.132406073745E+04   -0.32857E-01   -0.32859E-01  8540   0.315E-01-0.664E-05
CGA:   4    -0.132406700975E+04   -0.62723E-02   -0.62727E-02  8540   0.557E-02 0.438E-07
CGA:   5    -0.132406822545E+04   -0.12157E-02   -0.12134E-02  8540   0.135E-02-0.375E-04
CGA:   6    -0.132406856027E+04   -0.33482E-03   -0.33239E-03  8540   0.372E-03-0.816E-04
CGA:   7    -0.132406865079E+04   -0.90518E-04   -0.90375E-04  8540   0.104E-03-0.777E-05
CGA:   8    -0.132406868107E+04   -0.30277E-04   -0.30392E-04  8540   0.322E-04-0.511E-05
CGA:   9    -0.132406869223E+04   -0.11165E-04   -0.11908E-04  8540   0.148E-04-0.668E-05
CGA:  10    -0.132406869599E+04   -0.37556E-05   -0.65223E-05  8540   0.158E-04-0.101E-04
  48 F= -.13240687E+04 E0= -.13240687E+04  d E =-.461968E-02  mag=   126.0000
       N       E                     dE             d eps       ncg     rms          ort
SDA:   1    -0.132351186982E+04    0.55682E+00    0.00000E+00  8540   0.151E+01 0.000E+00
CGA:   2    -0.132387147984E+04   -0.35961E+00   -0.35974E+00  8540   0.729E+00 0.872E-03
CGA:   3    -0.132403316314E+04   -0.16168E+00   -0.16169E+00  8540   0.149E+00-0.927E-04
CGA:   4    -0.132406293293E+04   -0.29770E-01   -0.29773E-01  8540   0.262E-01 0.747E-05
CGA:   5    -0.132406864450E+04   -0.57116E-02   -0.57122E-02  8540   0.634E-02-0.212E-05
CGA:   6    -0.132407015804E+04   -0.15135E-02   -0.15074E-02  8540   0.164E-02-0.109E-03
CGA:   7    -0.132407057093E+04   -0.41289E-03   -0.41318E-03  8540   0.463E-03 0.789E-05
CGA:   8    -0.132407070504E+04   -0.13411E-03   -0.13412E-03  8540   0.139E-03 0.698E-05
CGA:   9    -0.132407075308E+04   -0.48041E-04   -0.48121E-04  8540   0.484E-04-0.164E-05
CGA:  10    -0.132407076949E+04   -0.16409E-04   -0.16445E-04  8540   0.156E-04-0.712E-06
CGA:  11    -0.132407077876E+04   -0.92745E-05    0.10370E-03  8540   0.383E-05 0.155E-05
  49 F= -.13240708E+04 E0= -.13240708E+04  d E =-.208278E-02  mag=   126.0000
       N       E                     dE             d eps       ncg     rms          ort
SDA:   1    -0.132366745701E+04    0.40331E+00    0.00000E+00  8540   0.108E+01 0.000E+00
CGA:   2    -0.132392623365E+04   -0.25878E+00   -0.25884E+00  8540   0.531E+00 0.478E-03
CGA:   3    -0.132404452365E+04   -0.11829E+00   -0.11829E+00  8540   0.104E+00-0.231E-03
CGA:   4    -0.132406529573E+04   -0.20772E-01   -0.20768E-01  8540   0.180E-01-0.752E-04
CGA:   5    -0.132406929044E+04   -0.39947E-02   -0.39963E-02  8540   0.435E-02 0.200E-04
CGA:   6    -0.132407033603E+04   -0.10456E-02   -0.10436E-02  8540   0.109E-02-0.487E-04
CGA:   7    -0.132407062118E+04   -0.28515E-03   -0.28513E-03  8540   0.319E-03-0.172E-05
CGA:   8    -0.132407071706E+04   -0.95888E-04   -0.96147E-04  8540   0.107E-03-0.113E-04
CGA:   9    -0.132407075539E+04   -0.38331E-04   -0.40621E-04  8540   0.484E-04-0.201E-04
CGA:  10    -0.132407076960E+04   -0.14208E-04   -0.15428E-04  8540   0.194E-04-0.114E-04
CGA:  11    -0.132407067061E+04    0.98993E-04   -0.53305E-04  8540   0.473E-03-0.816E-04
CGA:  12    -0.132407076592E+04   -0.95310E-04   -0.10330E-03  8540   0.499E-04 0.255E-04
CGA:  13    -0.132407079218E+04   -0.26257E-04   -0.25506E-04  8540   0.338E-04-0.252E-04
CGA:  14    -0.132407078966E+04    0.25209E-05   -0.39908E-05  8540   0.952E-05 0.165E-04
  50 F= -.13240708E+04 E0= -.13240708E+04  d E =-.108942E-04  mag=   126.0000
       N       E                     dE             d eps       ncg     rms          ort
SDA:   1    -0.132276642912E+04    0.13044E+01    0.00000E+00  8540   0.350E+01 0.000E+00
CGA:   2    -0.132360289911E+04   -0.83647E+00   -0.83714E+00  8540   0.171E+01 0.225E-03
CGA:   3    -0.132398561124E+04   -0.38271E+00   -0.38278E+00  8540   0.335E+00 0.535E-04
CGA:   4    -0.132405285989E+04   -0.67249E-01   -0.67259E-01  8540   0.571E-01 0.532E-05
CGA:   5    -0.132406566325E+04   -0.12803E-01   -0.12816E-01  8540   0.138E-01 0.387E-04
CGA:   6    -0.132406894884E+04   -0.32856E-02   -0.32830E-02  8540   0.337E-02-0.171E-04
CGA:   7    -0.132406983085E+04   -0.88201E-03   -0.88738E-03  8540   0.979E-03 0.342E-04
CGA:   8    -0.132407011373E+04   -0.28288E-03   -0.28500E-03  8540   0.308E-03 0.170E-04
CGA:   9    -0.132407022151E+04   -0.10779E-03   -0.10753E-03  8540   0.107E-03-0.436E-05
CGA:  10    -0.132407025457E+04   -0.33055E-04   -0.33664E-04  8540   0.303E-04 0.746E-05
CGA:  11    -0.132407026659E+04   -0.12018E-04   -0.11949E-04  8540   0.954E-05-0.243E-05
CGA:  12    -0.132407026963E+04   -0.30456E-05   -0.30447E-05  8540   0.292E-05-0.306E-07
  51 F= -.13240703E+04 E0= -.13240703E+04  d E =0.520024E-03  mag=   126.0000
       N       E                     dE             d eps       ncg     rms          ort
SDA:   1    -0.132073496899E+04    0.33353E+01    0.00000E+00  8540   0.895E+01 0.000E+00
CGA:   2    -0.132288399309E+04   -0.21490E+01   -0.21511E+01  8540   0.434E+01 0.815E-03
CGA:   3    -0.132384327288E+04   -0.95928E+00   -0.95949E+00  8540   0.836E+00 0.151E-02
CGA:   4    -0.132401143756E+04   -0.16816E+00   -0.16823E+00  8540   0.145E+00 0.372E-03
CGA:   5    -0.132404397480E+04   -0.32537E-01   -0.32562E-01  8540   0.353E-01 0.775E-04
CGA:   6    -0.132405240460E+04   -0.84298E-02   -0.84252E-02  8540   0.868E-02-0.407E-04
CGA:   7    -0.132405465879E+04   -0.22542E-02   -0.22678E-02  8540   0.254E-02 0.118E-03
CGA:   8    -0.132405538188E+04   -0.72308E-03   -0.73138E-03  8540   0.774E-03 0.959E-04
CGA:   9    -0.132405565047E+04   -0.26860E-03   -0.26892E-03  8540   0.258E-03 0.104E-04
CGA:  10    -0.132405572909E+04   -0.78620E-04   -0.80275E-04  8540   0.719E-04 0.290E-04
CGA:  11    -0.132405575257E+04   -0.23478E-04   -0.24088E-04  8540   0.188E-04 0.100E-04
CGA:  12    -0.132405575768E+04   -0.51054E-05   -0.56708E-05  8540   0.559E-05 0.601E-05
  52 F= -.13240558E+04 E0= -.13240558E+04  d E =0.145120E-01  mag=   126.0000
       N       E                     dE             d eps       ncg     rms          ort
SDA:   1    -0.132332487771E+04    0.73087E+00    0.00000E+00  8540   0.204E+01 0.000E+00
CGA:   2    -0.132379825724E+04   -0.47338E+00   -0.47361E+00  8540   0.944E+00 0.635E-03
CGA:   3    -0.132401092340E+04   -0.21267E+00   -0.21259E+00  8540   0.195E+00-0.101E-02
CGA:   4    -0.132405109983E+04   -0.40176E-01   -0.40127E-01  8540   0.347E-01-0.435E-03
CGA:   5    -0.132405873115E+04   -0.76313E-02   -0.76386E-02  8540   0.815E-02 0.550E-04
CGA:   6    -0.132406069333E+04   -0.19622E-02   -0.19637E-02  8540   0.210E-02 0.160E-04
CGA:   7    -0.132406125529E+04   -0.56196E-03   -0.56313E-03  8540   0.615E-03 0.230E-04
CGA:   8    -0.132406143780E+04   -0.18251E-03   -0.18250E-03  8540   0.198E-03-0.530E-06
CGA:   9    -0.132406151246E+04   -0.74656E-04   -0.77285E-04  8540   0.874E-04-0.346E-04
CGA:  10    -0.132406152941E+04   -0.16951E-04   -0.17925E-04  8540   0.238E-04 0.140E-04
CGA:  11    -0.132406153503E+04   -0.56172E-05   -0.61719E-05  8540   0.688E-05 0.608E-05
  53 F= -.13240615E+04 E0= -.13240615E+04  d E =-.577735E-02  mag=   126.0000
       N       E                     dE             d eps       ncg     rms          ort
SDA:   1    -0.132389375863E+04    0.16777E+00    0.00000E+00  8540   0.468E+00 0.000E+00
CGA:   2    -0.132400746485E+04   -0.11371E+00   -0.11374E+00  8540   0.222E+00 0.303E-03
CGA:   3    -0.132405578558E+04   -0.48321E-01   -0.48309E-01  8540   0.422E-01-0.218E-03
CGA:   4    -0.132406452721E+04   -0.87416E-02   -0.87271E-02  8540   0.773E-02-0.160E-03
CGA:   5    -0.132406621874E+04   -0.16915E-02   -0.16923E-02  8540   0.179E-02 0.641E-05
CGA:   6    -0.132406665851E+04   -0.43977E-03   -0.43852E-03  8540   0.480E-03-0.259E-04
CGA:   7    -0.132406678779E+04   -0.12928E-03   -0.12910E-03  8540   0.146E-03-0.957E-05
CGA:   8    -0.132406683249E+04   -0.44702E-04   -0.44981E-04  8540   0.528E-04-0.121E-04
CGA:   9    -0.132406685083E+04   -0.18347E-04   -0.20761E-04  8540   0.293E-04-0.177E-04
CGA:  10    -0.132406685500E+04   -0.41652E-05   -0.43921E-05  8540   0.898E-05 0.309E-05
  54 F= -.13240669E+04 E0= -.13240669E+04  d E =-.531997E-02  mag=   126.0000
       N       E                     dE             d eps       ncg     rms          ort
SDA:   1    -0.132356904127E+04    0.49781E+00    0.00000E+00  8540   0.127E+01 0.000E+00
CGA:   2    -0.132389814363E+04   -0.32910E+00   -0.32912E+00  8540   0.640E+00 0.486E-04
CGA:   3    -0.132403177670E+04   -0.13363E+00   -0.13362E+00  8540   0.112E+00-0.379E-03
CGA:   4    -0.132405471195E+04   -0.22935E-01   -0.22929E-01  8540   0.200E-01-0.100E-03
CGA:   5    -0.132405918930E+04   -0.44774E-02   -0.44800E-02  8540   0.469E-02 0.389E-04
CGA:   6    -0.132406031984E+04   -0.11305E-02   -0.11302E-02  8540   0.119E-02-0.886E-05
CGA:   7    -0.132406063179E+04   -0.31196E-03   -0.31242E-03  8540   0.345E-03 0.297E-04
CGA:   8    -0.132406074007E+04   -0.10828E-03   -0.10837E-03  8540   0.122E-03-0.321E-05
CGA:   9    -0.132406078534E+04   -0.45269E-04   -0.48422E-04  8540   0.557E-04-0.256E-04
CGA:  10    -0.132406079517E+04   -0.98254E-05   -0.10282E-04  8540   0.154E-04 0.894E-05
  55 F= -.13240608E+04 E0= -.13240608E+04  d E =0.605983E-02  mag=   126.0000
       N       E                     dE             d eps       ncg     rms          ort
SDA:   1    -0.131886169596E+04    0.51991E+01    0.00000E+00  8540   0.131E+02 0.000E+00
CGA:   2    -0.132237722961E+04   -0.35155E+01   -0.35157E+01  8540   0.669E+01 0.627E-02
CGA:   3    -0.132373219611E+04   -0.13550E+01   -0.13550E+01  8540   0.112E+01-0.817E-03
CGA:   4    -0.132396177999E+04   -0.22958E+00   -0.22962E+00  8540   0.204E+00 0.301E-03
CGA:   5    -0.132400727193E+04   -0.45492E-01   -0.45517E-01  8540   0.479E-01 0.442E-03
CGA:   6    -0.132401876962E+04   -0.11498E-01   -0.11497E-01  8540   0.122E-01-0.301E-04
CGA:   7    -0.132402204458E+04   -0.32750E-02   -0.32749E-02  8540   0.369E-02 0.135E-03
CGA:   8    -0.132402317798E+04   -0.11334E-02   -0.11324E-02  8540   0.127E-02 0.280E-04
CGA:   9    -0.132402362548E+04   -0.44750E-03   -0.45239E-03  8540   0.428E-03-0.585E-04
CGA:  10    -0.132402373949E+04   -0.11401E-03   -0.11369E-03  8540   0.104E-03 0.592E-04
CGA:  11    -0.132402377781E+04   -0.38321E-04   -0.38193E-04  8540   0.301E-04 0.264E-05
CGA:  12    -0.132402378655E+04   -0.87426E-05   -0.87051E-05  8540   0.909E-05 0.616E-05
  56 F= -.13240238E+04 E0= -.13240238E+04  d E =0.370086E-01  mag=   126.0000
       N       E                     dE             d eps       ncg     rms          ort
SDA:   1    -0.131649919541E+04    0.75246E+01    0.00000E+00  8540   0.196E+02 0.000E+00
CGA:   2    -0.132143994376E+04   -0.49407E+01   -0.49418E+01  8540   0.983E+01 0.187E-01
CGA:   3    -0.132353553326E+04   -0.20956E+01   -0.20956E+01  8540   0.174E+01-0.111E-02
CGA:   4    -0.132388783171E+04   -0.35230E+00   -0.35232E+00  8540   0.316E+00 0.364E-04
CGA:   5    -0.132395860785E+04   -0.70776E-01   -0.70832E-01  8540   0.761E-01 0.112E-02
CGA:   6    -0.132397661735E+04   -0.18009E-01   -0.18014E-01  8540   0.190E-01 0.120E-03
CGA:   7    -0.132398172398E+04   -0.51066E-02   -0.51062E-02  8540   0.572E-02 0.157E-03
CGA:   8    -0.132398345656E+04   -0.17326E-02   -0.17328E-02  8540   0.192E-02-0.751E-05
CGA:   9    -0.132398413390E+04   -0.67734E-03   -0.68761E-03  8540   0.678E-03-0.114E-03
CGA:  10    -0.132398430566E+04   -0.17176E-03   -0.17204E-03  8540   0.171E-03 0.111E-03
CGA:  11    -0.132398436503E+04   -0.59371E-04   -0.58916E-04  8540   0.490E-04 0.193E-04
CGA:  12    -0.132398438327E+04   -0.18232E-04   -0.18073E-04  8540   0.173E-04 0.267E-05
CGA:  13    -0.132398438453E+04   -0.12658E-05   -0.27316E-05  8540   0.882E-05 0.116E-04
  57 F= -.13239844E+04 E0= -.13239844E+04  d E =0.394020E-01  mag=   126.0000
       N       E                     dE             d eps       ncg     rms          ort
SDA:   1    -0.128019694173E+04    0.43787E+02    0.00000E+00  8540   0.128E+03 0.000E+00
CGA:   2    -0.130715916223E+04   -0.26962E+02   -0.27029E+02  8540   0.528E+02 0.454E+00
CGA:   3    -0.132000383263E+04   -0.12845E+02   -0.12846E+02  8540   0.123E+02 0.478E-01
CGA:   4    -0.132253402566E+04   -0.25302E+01   -0.25299E+01  8540   0.217E+01-0.127E-01
CGA:   5    -0.132301712500E+04   -0.48310E+00   -0.48313E+00  8540   0.528E+00-0.525E-03
CGA:   6    -0.132314408361E+04   -0.12696E+00   -0.12696E+00  8540   0.137E+00 0.801E-04
CGA:   7    -0.132318144126E+04   -0.37358E-01   -0.37338E-01  8540   0.412E-01 0.124E-02
CGA:   8    -0.132319370872E+04   -0.12267E-01   -0.12276E-01  8540   0.137E-01-0.242E-03
CGA:   9    -0.132319839985E+04   -0.46911E-02   -0.47429E-02  8540   0.493E-02-0.584E-03
CGA:  10    -0.132319995217E+04   -0.15523E-02   -0.15469E-02  8540   0.145E-02 0.831E-04
CGA:  11    -0.132320039224E+04   -0.44007E-03   -0.43609E-03  8540   0.366E-03 0.140E-03
CGA:  12    -0.132320054801E+04   -0.15577E-03   -0.17583E-03  8540   0.249E-03-0.118E-03
CGA:  13    -0.132320056145E+04   -0.13436E-04   -0.23541E-04  8540   0.123E-03 0.739E-04
CGA:  14    -0.132320057679E+04   -0.15340E-04   -0.22249E-04  8540   0.489E-04 0.531E-04
CGA:  15    -0.132320047061E+04    0.10617E-03   -0.73590E-04  8540   0.625E-03-0.228E-03
CGA:  16    -0.132320058886E+04   -0.11824E-03   -0.13200E-03  8540   0.764E-04 0.151E-03
CGA:  17    -0.132320058770E+04    0.11554E-05   -0.70197E-04  8540   0.302E-03-0.162E-03
CGA:  18    -0.132320060475E+04   -0.17050E-04   -0.40154E-04  8540   0.700E-04 0.124E-03
CGA:  19    -0.132320061375E+04   -0.89980E-05   -0.14484E-04  8540   0.185E-04 0.334E-04
CGA:  20    -0.132320063642E+04   -0.22669E-04    0.11046E-04  8540   0.810E-05-0.138E-04
CGA:  21    -0.132320063507E+04    0.13498E-05   -0.35211E-06  8540   0.527E-05 0.657E-05
  58 F= -.13232006E+04 E0= -.13232006E+04  d E =0.783749E+00  mag=   126.0000
       N       E                     dE             d eps       ncg     rms          ort
SDA:   1    -0.131225299460E+04    0.10948E+02    0.00000E+00  8540   0.355E+02 0.000E+00
CGA:   2    -0.131947515299E+04   -0.72222E+01   -0.72339E+01  8540   0.141E+02 0.507E-01
CGA:   3    -0.132297921159E+04   -0.35041E+01   -0.35044E+01  8540   0.349E+01 0.807E-02
CGA:   4    -0.132370681095E+04   -0.72760E+00   -0.72778E+00  8540   0.628E+00 0.535E-03
CGA:   5    -0.132384667524E+04   -0.13986E+00   -0.13988E+00  8540   0.148E+00-0.268E-04
CGA:   6    -0.132388234324E+04   -0.35668E-01   -0.35626E-01  8540   0.382E-01-0.163E-02
CGA:   7    -0.132389263923E+04   -0.10296E-01   -0.10296E-01  8540   0.112E-01-0.514E-04
CGA:   8    -0.132389581978E+04   -0.31806E-02   -0.31810E-02  8540   0.344E-02-0.250E-04
CGA:   9    -0.132389700720E+04   -0.11874E-02   -0.12005E-02  8540   0.127E-02-0.160E-03
CGA:  10    -0.132389741635E+04   -0.40914E-03   -0.40765E-03  8540   0.395E-03 0.225E-04
CGA:  11    -0.132389757325E+04   -0.15691E-03   -0.20302E-03  8540   0.278E-03-0.200E-03
CGA:  12    -0.132389762700E+04   -0.53749E-04   -0.57366E-04  8540   0.344E-04 0.458E-04
CGA:  13    -0.132389764361E+04   -0.16610E-04   -0.19712E-04  8540   0.273E-04-0.148E-04
CGA:  14    -0.132389766153E+04   -0.17921E-04    0.23585E-05  8540   0.178E-04-0.122E-05
CGA:  15    -0.132389763991E+04    0.21625E-04   -0.18834E-04  8540   0.126E-03-0.498E-04
CGA:  16    -0.132389763306E+04    0.68482E-05   -0.10384E-03  8540   0.466E-03-0.225E-03
CGA:  17    -0.132389766514E+04   -0.32079E-04   -0.70457E-04  8540   0.829E-04 0.186E-03
CGA:  18    -0.132389767380E+04   -0.86634E-05   -0.16451E-04  8540   0.134E-04 0.379E-04
  59 F= -.13238977E+04 E0= -.13238977E+04  d E =-.697039E+00  mag=   126.0000
       N       E                     dE             d eps       ncg     rms          ort
SDA:   1    -0.132183657402E+04    0.20611E+01    0.00000E+00  8540   0.649E+01 0.000E+00
CGA:   2    -0.132316857105E+04   -0.13320E+01   -0.13336E+01  8540   0.262E+01 0.338E-02
CGA:   3    -0.132381885563E+04   -0.65028E+00   -0.65046E+00  8540   0.643E+00 0.321E-03
CGA:   4    -0.132395251941E+04   -0.13366E+00   -0.13363E+00  8540   0.114E+00-0.485E-03
CGA:   5    -0.132397798915E+04   -0.25470E-01   -0.25481E-01  8540   0.270E-01 0.755E-04
CGA:   6    -0.132398445590E+04   -0.64667E-02   -0.64531E-02  8540   0.677E-02-0.189E-03
CGA:   7    -0.132398629107E+04   -0.18352E-02   -0.18353E-02  8540   0.199E-02 0.282E-05
CGA:   8    -0.132398687240E+04   -0.58133E-03   -0.58024E-03  8540   0.642E-03-0.623E-04
CGA:   9    -0.132398709809E+04   -0.22569E-03   -0.23082E-03  8540   0.267E-03-0.825E-04
CGA:  10    -0.132398717254E+04   -0.74452E-04   -0.74440E-04  8540   0.771E-04 0.127E-05
CGA:  11    -0.132398719991E+04   -0.27370E-04   -0.46596E-04  8540   0.955E-04-0.666E-04
CGA:  12    -0.132398721668E+04   -0.16768E-04   -0.19163E-04  8540   0.103E-04 0.189E-04
CGA:  13    -0.132398722515E+04   -0.84741E-05    0.28559E-04  8540   0.282E-05 0.299E-06
CGA:  14    -0.132398722708E+04   -0.19262E-05    0.13569E-04  8540   0.116E-05 0.668E-06
  60 F= -.13239872E+04 E0= -.13239872E+04  d E =-.895533E-01  mag=   126.0000
       N       E                     dE             d eps       ncg     rms          ort
SDA:   1    -0.132372167418E+04    0.26555E+00    0.00000E+00  8540   0.839E+00 0.000E+00
CGA:   2    -0.132389410263E+04   -0.17243E+00   -0.17257E+00  8540   0.341E+00 0.676E-03
CGA:   3    -0.132397932723E+04   -0.85225E-01   -0.85223E-01  8540   0.853E-01-0.286E-03
CGA:   4    -0.132399703423E+04   -0.17707E-01   -0.17685E-01  8540   0.149E-01-0.234E-03
CGA:   5    -0.132400029749E+04   -0.32633E-02   -0.32691E-02  8540   0.347E-02 0.627E-04
CGA:   6    -0.132400111498E+04   -0.81748E-03   -0.82250E-03  8540   0.840E-03 0.743E-04
CGA:   7    -0.132400133380E+04   -0.21882E-03   -0.22102E-03  8540   0.232E-03 0.533E-04
CGA:   8    -0.132400141230E+04   -0.78505E-04   -0.78908E-04  8540   0.895E-04-0.172E-04
CGA:   9    -0.132400144371E+04   -0.31406E-04   -0.33926E-04  8540   0.468E-04-0.227E-04
CGA:  10    -0.132400144994E+04   -0.62290E-05   -0.72148E-05  8540   0.155E-04 0.102E-04
  61 F= -.13240014E+04 E0= -.13240014E+04  d E =-.142229E-01  mag=   126.0000
       N       E                     dE             d eps       ncg     rms          ort
SDA:   1    -0.132323840728E+04    0.76304E+00    0.00000E+00  8540   0.224E+01 0.000E+00
CGA:   2    -0.132371854885E+04   -0.48014E+00   -0.48049E+00  8540   0.965E+00 0.299E-02
CGA:   3    -0.132395206413E+04   -0.23352E+00   -0.23352E+00  8540   0.229E+00-0.481E-03
CGA:   4    -0.132399878088E+04   -0.46717E-01   -0.46661E-01  8540   0.397E-01-0.751E-03
CGA:   5    -0.132400743366E+04   -0.86528E-02   -0.86536E-02  8540   0.936E-02-0.216E-05
CGA:   6    -0.132400966467E+04   -0.22310E-02   -0.22354E-02  8540   0.231E-02 0.110E-03
CGA:   7    -0.132401026587E+04   -0.60120E-03   -0.60266E-03  8540   0.641E-03 0.811E-04
CGA:   8    -0.132401048216E+04   -0.21629E-03   -0.22071E-03  8540   0.261E-03-0.771E-04
CGA:   9    -0.132401056645E+04   -0.84284E-04   -0.94453E-04  8540   0.142E-03-0.768E-04
CGA:  10    -0.132401059220E+04   -0.25749E-04   -0.25948E-04  8540   0.419E-04 0.794E-05
CGA:  11    -0.132401060052E+04   -0.83217E-05   -0.91737E-05  8540   0.138E-04 0.112E-04
  62 F= -.13240106E+04 E0= -.13240106E+04  d E =-.915058E-02  mag=   126.0000
       N       E                     dE             d eps       ncg     rms          ort
SDA:   1    -0.132360866511E+04    0.40193E+00    0.00000E+00  8540   0.109E+01 0.000E+00
CGA:   2    -0.132387720566E+04   -0.26854E+00   -0.26859E+00  8540   0.533E+00 0.980E-03
CGA:   3    -0.132399275196E+04   -0.11555E+00   -0.11554E+00  8540   0.101E+00-0.256E-03
CGA:   4    -0.132401322350E+04   -0.20472E-01   -0.20455E-01  8540   0.179E-01-0.240E-03
CGA:   5    -0.132401719088E+04   -0.39674E-02   -0.39673E-02  8540   0.425E-02-0.752E-05
CGA:   6    -0.132401819213E+04   -0.10013E-02   -0.10033E-02  8540   0.105E-02 0.572E-04
CGA:   7    -0.132401846098E+04   -0.26885E-03   -0.26969E-03  8540   0.290E-03 0.524E-04
CGA:   8    -0.132401856069E+04   -0.99712E-04   -0.10132E-03  8540   0.117E-03-0.255E-04
CGA:   9    -0.132401860006E+04   -0.39362E-04   -0.43566E-04  8540   0.582E-04-0.312E-04
CGA:  10    -0.132401861155E+04   -0.11495E-04   -0.11510E-04  8540   0.163E-04 0.159E-05
CGA:  11    -0.132401861541E+04   -0.38593E-05   -0.39728E-05  8540   0.498E-05 0.277E-05
  63 F= -.13240186E+04 E0= -.13240186E+04  d E =-.801489E-02  mag=   126.0000
       N       E                     dE             d eps       ncg     rms          ort
SDA:   1    -0.131791174463E+04    0.61069E+01    0.00000E+00  8540   0.159E+02 0.000E+00
CGA:   2    -0.132198327381E+04   -0.40715E+01   -0.40727E+01  8540   0.797E+01 0.682E-02
CGA:   3    -0.132365433655E+04   -0.16711E+01   -0.16713E+01  8540   0.142E+01 0.189E-02
CGA:   4    -0.132394188378E+04   -0.28755E+00   -0.28757E+00  8540   0.254E+00 0.721E-04
CGA:   5    -0.132399860474E+04   -0.56721E-01   -0.56741E-01  8540   0.606E-01 0.174E-03
CGA:   6    -0.132401306120E+04   -0.14456E-01   -0.14453E-01  8540   0.152E-01-0.804E-04
CGA:   7    -0.132401704920E+04   -0.39880E-02   -0.39936E-02  8540   0.447E-02 0.200E-03
CGA:   8    -0.132401838290E+04   -0.13337E-02   -0.13331E-02  8540   0.144E-02 0.112E-03
CGA:   9    -0.132401891202E+04   -0.52911E-03   -0.53759E-03  8540   0.538E-03-0.114E-03
CGA:  10    -0.132401905476E+04   -0.14275E-03   -0.14297E-03  8540   0.137E-03 0.493E-04
CGA:  11    -0.132401911034E+04   -0.55578E-04   -0.59112E-04  8540   0.570E-04-0.347E-04
CGA:  12    -0.132401912157E+04   -0.11234E-04   -0.11401E-04  8540   0.192E-04 0.551E-05
CGA:  13    -0.132401912354E+04   -0.19657E-05   -0.15907E-04  8540   0.592E-04-0.305E-04
CGA:  14    -0.132401913399E+04   -0.10445E-04   -0.12124E-04  8540   0.640E-05 0.147E-04
CGA:  15    -0.132401913924E+04   -0.52551E-05    0.25440E-04  8540   0.178E-05-0.105E-05
  64 F= -.13240191E+04 E0= -.13240191E+04  d E =-.523830E-03  mag=   126.0000
       N       E                     dE             d eps       ncg     rms          ort
SDA:   1    -0.131226290868E+04    0.11756E+02    0.00000E+00  8540   0.304E+02 0.000E+00
CGA:   2    -0.132014040170E+04   -0.78775E+01   -0.78796E+01  8540   0.152E+02 0.184E-01
CGA:   3    -0.132332362050E+04   -0.31832E+01   -0.31838E+01  8540   0.265E+01 0.316E-02
CGA:   4    -0.132386074696E+04   -0.53713E+00   -0.53737E+00  8540   0.491E+00 0.187E-02
CGA:   5    -0.132396918135E+04   -0.10843E+00   -0.10845E+00  8540   0.117E+00 0.854E-04
CGA:   6    -0.132399745836E+04   -0.28277E-01   -0.28249E-01  8540   0.300E-01-0.638E-03
CGA:   7    -0.132400532826E+04   -0.78699E-02   -0.78758E-02  8540   0.883E-02 0.280E-03
CGA:   8    -0.132400798130E+04   -0.26530E-02   -0.26497E-02  8540   0.289E-02 0.237E-03
CGA:   9    -0.132400900318E+04   -0.10219E-02   -0.10246E-02  8540   0.968E-03-0.451E-04
CGA:  10    -0.132400932205E+04   -0.31887E-03   -0.31924E-03  8540   0.284E-03-0.767E-05
CGA:  11    -0.132400942047E+04   -0.98419E-04   -0.10017E-03  8540   0.858E-04-0.268E-04
CGA:  12    -0.132400944828E+04   -0.27812E-04   -0.28381E-04  8540   0.321E-04-0.792E-05
CGA:  13    -0.132400945087E+04   -0.25850E-05   -0.46115E-05  8540   0.131E-04 0.147E-04
  65 F= -.13240095E+04 E0= -.13240095E+04  d E =0.968838E-02  mag=   126.0000
       N       E                     dE             d eps       ncg     rms          ort
SDA:   1    -0.130235718685E+04    0.21652E+02    0.00000E+00  8540   0.558E+02 0.000E+00
CGA:   2    -0.131688788437E+04   -0.14531E+02   -0.14534E+02  8540   0.283E+02 0.458E-01
CGA:   3    -0.132278951195E+04   -0.59016E+01   -0.59026E+01  8540   0.490E+01 0.588E-02
CGA:   4    -0.132377201103E+04   -0.98250E+00   -0.98290E+00  8540   0.909E+00 0.320E-02
CGA:   5    -0.132397425662E+04   -0.20225E+00   -0.20233E+00  8540   0.222E+00 0.123E-02
[...]
CGA:  15    -0.132450898998E+04    0.42759E-05   -0.28619E-04  8540   0.870E-04-0.442E-04
CGA:  16    -0.132450900826E+04   -0.18283E-04   -0.20384E-04  8540   0.156E-04 0.172E-04
CGA:  17    -0.132450901009E+04   -0.18301E-05   -0.32587E-05  8540   0.417E-05 0.813E-05
 109 F= -.13245090E+04 E0= -.13245090E+04  d E =0.173236E-01  mag=   126.0000
       N       E                     dE             d eps       ncg     rms          ort
SDA:   1    -0.129228039800E+04    0.32229E+02    0.00000E+00  8540   0.967E+02 0.000E+00
CGA:   2    -0.131232201768E+04   -0.20042E+02   -0.20167E+02  8540   0.382E+02 0.142E-01
CGA:   3    -0.132153155077E+04   -0.92095E+01   -0.92148E+01  8540   0.944E+01 0.510E-01
CGA:   4    -0.132353523643E+04   -0.20037E+01   -0.20052E+01  8540   0.179E+01-0.446E-03
CGA:   5    -0.132391832980E+04   -0.38309E+00   -0.38292E+00  8540   0.419E+00-0.300E-02
CGA:   6    -0.132401918132E+04   -0.10085E+00   -0.10039E+00  8540   0.117E+00-0.462E-02
CGA:   7    -0.132404997915E+04   -0.30798E-01   -0.30791E-01  8540   0.342E-01-0.122E-03
CGA:   8    -0.132405936844E+04   -0.93893E-02   -0.94541E-02  8540   0.102E-01 0.111E-02
CGA:   9    -0.132406276272E+04   -0.33943E-02   -0.33978E-02  8540   0.333E-02 0.461E-03
CGA:  10    -0.132406395796E+04   -0.11952E-02   -0.11942E-02  8540   0.115E-02 0.826E-04
CGA:  11    -0.132406441814E+04   -0.46018E-03   -0.47674E-03  8540   0.450E-03-0.224E-03
CGA:  12    -0.132406449804E+04   -0.79906E-04   -0.87682E-04  8540   0.127E-03 0.833E-04
CGA:  13    -0.132406452169E+04   -0.23648E-04   -0.30225E-04  8540   0.440E-04 0.508E-04
CGA:  14    -0.132406454347E+04   -0.21776E-04   -0.21849E-04  8540   0.238E-04-0.256E-05
CGA:  15    -0.132406456124E+04   -0.17774E-04    0.17063E-04  8540   0.136E-04 0.144E-05
CGA:  16    -0.132406443519E+04    0.12605E-03   -0.67974E-04  8540   0.410E-03-0.881E-04
CGA:  17    -0.132406462534E+04   -0.19016E-03   -0.16689E-03  8540   0.135E-03-0.124E-03
CGA:  18    -0.132406460856E+04    0.16781E-04   -0.10002E-04  8540   0.656E-04 0.560E-04
CGA:  19    -0.132406459373E+04    0.14831E-04   -0.81309E-05  8540   0.270E-04 0.485E-04
CGA:  20    -0.132406460631E+04   -0.12576E-04   -0.12201E-04  8540   0.136E-04-0.441E-05
CGA:  21    -0.132406460325E+04    0.30537E-05   -0.92746E-06  8540   0.904E-05 0.881E-05
 110 F= -.13240646E+04 E0= -.13240646E+04  d E =0.444407E+00  mag=   126.0000
       N       E                     dE             d eps       ncg     rms          ort
SDA:   1    -0.131038532889E+04    0.13679E+02    0.00000E+00  8540   0.430E+02 0.000E+00
CGA:   2    -0.131929603757E+04   -0.89107E+01   -0.89753E+01  8540   0.170E+02-0.412E-01
CGA:   3    -0.132336359030E+04   -0.40676E+01   -0.40699E+01  8540   0.412E+01 0.258E-01
CGA:   4    -0.132423861858E+04   -0.87503E+00   -0.87414E+00  8540   0.799E+00-0.203E-02
CGA:   5    -0.132440739278E+04   -0.16877E+00   -0.16914E+00  8540   0.186E+00 0.101E-02
CGA:   6    -0.132445085782E+04   -0.43465E-01   -0.43721E-01  8540   0.499E-01 0.119E-02
CGA:   7    -0.132446422006E+04   -0.13362E-01   -0.13427E-01  8540   0.151E-01 0.382E-03
CGA:   8    -0.132446871996E+04   -0.44999E-02   -0.44556E-02  8540   0.492E-02-0.351E-03
CGA:   9    -0.132447046018E+04   -0.17402E-02   -0.17155E-02  8540   0.187E-02-0.432E-03
CGA:  10    -0.132447096895E+04   -0.50877E-03   -0.51803E-03  8540   0.526E-03 0.843E-04
CGA:  11    -0.132447112308E+04   -0.15413E-03   -0.16115E-03  8540   0.132E-03 0.616E-04
CGA:  12    -0.132447116381E+04   -0.40732E-04   -0.12128E-03  8540   0.413E-03-0.192E-03
CGA:  13    -0.132447122134E+04   -0.57525E-04   -0.78752E-04  8540   0.492E-04 0.918E-04
CGA:  14    -0.132447031196E+04    0.90938E-03   -0.49250E-03  8540   0.368E-02-0.484E-03
CGA:  15    -0.132447106582E+04   -0.75385E-03   -0.90056E-03  8540   0.645E-03 0.295E-03
CGA:  16    -0.132447132183E+04   -0.25601E-03   -0.18241E-03  8540   0.180E-03-0.160E-03
CGA:  17    -0.132447131671E+04    0.51212E-05   -0.20519E-04  8540   0.405E-04 0.469E-04
 111 F= -.13244713E+04 E0= -.13244713E+04  d E =-.406713E+00  mag=   126.0000
       N       E                     dE             d eps       ncg     rms          ort
SDA:   1    -0.132402703153E+04    0.44429E+00    0.00000E+00  8540   0.136E+01 0.000E+00
CGA:   2    -0.132432718824E+04   -0.30016E+00   -0.30082E+00  8540   0.579E+00 0.591E-03
CGA:   3    -0.132446273487E+04   -0.13555E+00   -0.13519E+00  8540   0.134E+00-0.123E-02
CGA:   4    -0.132449157359E+04   -0.28839E-01   -0.28445E-01  8540   0.250E-01-0.101E-02
CGA:   5    -0.132449667614E+04   -0.51025E-02   -0.52229E-02  8540   0.560E-02 0.315E-03
CGA:   6    -0.132449781227E+04   -0.11361E-02   -0.12708E-02  8540   0.142E-02 0.394E-03
CGA:   7    -0.132449820485E+04   -0.39257E-03   -0.40841E-03  8540   0.430E-03 0.564E-04
CGA:   8    -0.132449840988E+04   -0.20504E-03   -0.18413E-03  8540   0.313E-03-0.172E-03
CGA:   9    -0.132449850073E+04   -0.90847E-04   -0.73827E-04  8540   0.175E-03-0.126E-03
CGA:  10    -0.132449851099E+04   -0.10256E-04   -0.19357E-04  8540   0.800E-04 0.271E-04
CGA:  11    -0.132449851263E+04   -0.16477E-05   -0.13624E-04  8540   0.346E-04 0.336E-04
 112 F= -.13244985E+04 E0= -.13244985E+04  d E =-.271959E-01  mag=   126.0000
       N       E                     dE             d eps       ncg     rms          ort
SDA:   1    -0.132109145335E+04    0.34071E+01    0.00000E+00  8540   0.966E+01 0.000E+00
CGA:   2    -0.132325428502E+04   -0.21628E+01   -0.21667E+01  8540   0.427E+01 0.307E-02
CGA:   3    -0.132424437476E+04   -0.99009E+00   -0.98952E+00  8540   0.962E+00-0.430E-02
CGA:   4    -0.132444435781E+04   -0.19998E+00   -0.19901E+00  8540   0.176E+00-0.392E-02
CGA:   5    -0.132448139440E+04   -0.37037E-01   -0.37237E-01  8540   0.405E-01 0.848E-03
CGA:   6    -0.132449064041E+04   -0.92460E-02   -0.94743E-02  8540   0.104E-01 0.118E-02
CGA:   7    -0.132449349558E+04   -0.28552E-02   -0.28675E-02  8540   0.309E-02 0.803E-04
CGA:   8    -0.132449459356E+04   -0.10980E-02   -0.10637E-02  8540   0.138E-02-0.526E-03
CGA:   9    -0.132449505497E+04   -0.46141E-03   -0.46142E-03  8540   0.711E-03-0.435E-03
CGA:  10    -0.132449516974E+04   -0.11477E-03   -0.12092E-03  8540   0.213E-03 0.394E-04
CGA:  11    -0.132449521473E+04   -0.44997E-04   -0.51317E-04  8540   0.723E-04 0.376E-04
CGA:  12    -0.132449524605E+04   -0.31313E-04   -0.52427E-04  8540   0.153E-03-0.924E-04
CGA:  13    -0.132449528690E+04   -0.40855E-04   -0.40545E-04  8540   0.213E-04-0.235E-05
CGA:  14    -0.132449532673E+04   -0.39828E-04    0.28984E-05  8540   0.784E-05-0.584E-05
CGA:  15    -0.132449532580E+04    0.93332E-06   -0.44529E-06  8540   0.507E-05 0.439E-05
 113 F= -.13244953E+04 E0= -.13244953E+04  d E =0.318684E-02  mag=   126.0000
       N       E                     dE             d eps       ncg     rms          ort
SDA:   1    -0.132191692621E+04    0.25784E+01    0.00000E+00  8540   0.693E+01 0.000E+00
CGA:   2    -0.132355028812E+04   -0.16334E+01   -0.16346E+01  8540   0.332E+01 0.424E-02
CGA:   3    -0.132430127655E+04   -0.75099E+00   -0.75087E+00  8540   0.665E+00-0.250E-02
CGA:   4    -0.132443508922E+04   -0.13381E+00   -0.13354E+00  8540   0.119E+00-0.195E-02
CGA:   5    -0.132446094727E+04   -0.25858E-01   -0.25909E-01  8540   0.293E-01 0.380E-03
CGA:   6    -0.132446766704E+04   -0.67198E-02   -0.67738E-02  8540   0.716E-02 0.514E-03
CGA:   7    -0.132446956333E+04   -0.18963E-02   -0.19009E-02  8540   0.209E-02 0.659E-04
CGA:   8    -0.132447023604E+04   -0.67271E-03   -0.67149E-03  8540   0.783E-03-0.169E-03
CGA:   9    -0.132447049494E+04   -0.25890E-03   -0.26367E-03  8540   0.310E-03-0.116E-03
CGA:  10    -0.132447056506E+04   -0.70128E-04   -0.71724E-04  8540   0.800E-04 0.285E-04
CGA:  11    -0.132447058704E+04   -0.21975E-04   -0.22839E-04  8540   0.214E-04 0.137E-04
CGA:  12    -0.132447058401E+04    0.30264E-05   -0.22405E-04  8540   0.101E-03-0.446E-04
CGA:  13    -0.132447060662E+04   -0.22610E-04   -0.23567E-04  8540   0.110E-04 0.822E-05
CGA:  14    -0.132447061559E+04   -0.89683E-05    0.21229E-04  8540   0.177E-05 0.108E-06
 114 F= -.13244706E+04 E0= -.13244706E+04  d E =0.247102E-01  mag=   126.0000
       N       E                     dE             d eps       ncg     rms          ort
SDA:   1    -0.129829655066E+04    0.26174E+02    0.00000E+00  8540   0.733E+02 0.000E+00
CGA:   2    -0.131533801858E+04   -0.17041E+02   -0.17073E+02  8540   0.319E+02 0.423E-01
CGA:   3    -0.132240623148E+04   -0.70682E+01   -0.70704E+01  8540   0.685E+01 0.284E-01
CGA:   4    -0.132386623286E+04   -0.14600E+01   -0.14622E+01  8540   0.129E+01 0.113E-01
CGA:   5    -0.132414182383E+04   -0.27559E+00   -0.27537E+00  8540   0.301E+00-0.293E-02
CGA:   6    -0.132421643596E+04   -0.74612E-01   -0.74181E-01  8540   0.899E-01-0.591E-02
CGA:   7    -0.132423978568E+04   -0.23350E-01   -0.23377E-01  8540   0.262E-01 0.504E-03
CGA:   8    -0.132424672604E+04   -0.69404E-02   -0.70431E-02  8540   0.757E-02 0.215E-02
CGA:   9    -0.132424917489E+04   -0.24489E-02   -0.24611E-02  8540   0.229E-02 0.103E-02
CGA:  10    -0.132425003291E+04   -0.85802E-03   -0.85485E-03  8540   0.809E-03 0.187E-03
CGA:  11    -0.132425031934E+04   -0.28643E-03   -0.28566E-03  8540   0.245E-03 0.550E-04
CGA:  12    -0.132425034832E+04   -0.28984E-04   -0.46802E-04  8540   0.923E-04 0.132E-03
CGA:  13    -0.132425034839E+04   -0.65695E-07   -0.11900E-04  8540   0.505E-04 0.665E-04
 115 F= -.13242503E+04 E0= -.13242503E+04  d E =0.220267E+00  mag=   126.0000
       N       E                     dE             d eps       ncg     rms          ort
SDA:   1    -0.131739725797E+04    0.68531E+01    0.00000E+00  8540   0.204E+02 0.000E+00
CGA:   2    -0.132194313418E+04   -0.45459E+01   -0.45495E+01  8540   0.869E+01 0.277E-01
CGA:   3    -0.132394571739E+04   -0.20026E+01   -0.20025E+01  8540   0.198E+01-0.603E-02
CGA:   4    -0.132436332206E+04   -0.41760E+00   -0.41710E+00  8540   0.376E+00-0.746E-02
CGA:   5    -0.132444204531E+04   -0.78723E-01   -0.78898E-01  8540   0.857E-01 0.243E-02
CGA:   6    -0.132446184789E+04   -0.19803E-01   -0.19937E-01  8540   0.228E-01 0.298E-02
CGA:   7    -0.132446816018E+04   -0.63123E-02   -0.63154E-02  8540   0.681E-02 0.590E-03
CGA:   8    -0.132447048005E+04   -0.23199E-02   -0.24030E-02  8540   0.310E-02-0.117E-02
CGA:   9    -0.132447137884E+04   -0.89879E-03   -0.98467E-03  8540   0.141E-02-0.803E-03
CGA:  10    -0.132447163787E+04   -0.25902E-03   -0.26238E-03  8540   0.403E-03 0.107E-03
CGA:  11    -0.132447172185E+04   -0.83984E-04   -0.91921E-04  8540   0.138E-03 0.115E-03
CGA:  12    -0.132447178685E+04   -0.64995E-04   -0.74889E-04  8540   0.114E-03-0.682E-04
CGA:  13    -0.132447183029E+04   -0.43443E-04    0.25114E-04  8540   0.817E-04-0.235E-04
CGA:  14    -0.132447187929E+04   -0.49002E-04    0.28014E-04  8540   0.503E-04-0.209E-04
CGA:  15    -0.132447191590E+04   -0.36607E-04    0.74228E-05  8540   0.319E-04-0.821E-05
CGA:  16    -0.132447193689E+04   -0.20994E-04    0.99154E-05  8540   0.193E-04-0.613E-05
CGA:  17    -0.132447193914E+04   -0.22482E-05   -0.27196E-05  8540   0.116E-04 0.427E-05
 116 F= -.13244719E+04 E0= -.13244719E+04  d E =-.221591E+00  mag=   126.0000
       N       E                     dE             d eps       ncg     rms          ort
SDA:   1    -0.132423384702E+04    0.23809E+00    0.00000E+00  8540   0.703E+00 0.000E+00
CGA:   2    -0.132440431314E+04   -0.17047E+00   -0.17052E+00  8540   0.310E+00 0.180E-02
CGA:   3    -0.132447216496E+04   -0.67852E-01   -0.67728E-01  8540   0.659E-01-0.267E-02
CGA:   4    -0.132448661567E+04   -0.14451E-01   -0.14346E-01  8540   0.130E-01-0.232E-02
CGA:   5    -0.132448899851E+04   -0.23828E-02   -0.24342E-02  8540   0.259E-02 0.743E-03
CGA:   6    -0.132448946718E+04   -0.46867E-03   -0.51717E-03  8540   0.658E-03 0.685E-03
CGA:   7    -0.132448964983E+04   -0.18266E-03   -0.18790E-03  8540   0.226E-03 0.175E-03
CGA:   8    -0.132448964884E+04    0.98841E-06   -0.21804E-03  8540   0.987E-03-0.431E-03
CGA:   9    -0.132448982763E+04   -0.17878E-03   -0.18404E-03  8540   0.130E-03 0.562E-04
CGA:  10    -0.132448986837E+04   -0.40741E-04   -0.40666E-04  8540   0.261E-04 0.372E-05
CGA:  11    -0.132448989293E+04   -0.24566E-04    0.56697E-05  8540   0.505E-05 0.338E-05
CGA:  12    -0.132448989882E+04   -0.58890E-05    0.90198E-06  8540   0.153E-05 0.683E-06
 117 F= -.13244899E+04 E0= -.13244899E+04  d E =-.179597E-01  mag=   126.0000
       N       E                     dE             d eps       ncg     rms          ort
SDA:   1    -0.131895299610E+04    0.55369E+01    0.00000E+00  8540   0.148E+02 0.000E+00
CGA:   2    -0.132267531090E+04   -0.37223E+01   -0.37230E+01  8540   0.684E+01 0.174E-01
CGA:   3    -0.132412777525E+04   -0.14525E+01   -0.14519E+01  8540   0.134E+01-0.112E-01
CGA:   4    -0.132441073381E+04   -0.28296E+00   -0.28249E+00  8540   0.250E+00-0.768E-02
CGA:   5    -0.132446307193E+04   -0.52338E-01   -0.52525E-01  8540   0.563E-01 0.314E-02
CGA:   6    -0.132447620016E+04   -0.13128E-01   -0.13226E-01  8540   0.149E-01 0.289E-02
CGA:   7    -0.132448045435E+04   -0.42542E-02   -0.42525E-02  8540   0.462E-02 0.227E-03
CGA:   8    -0.132448206613E+04   -0.16118E-02   -0.17041E-02  8540   0.236E-02-0.939E-03
CGA:   9    -0.132448269607E+04   -0.62995E-03   -0.67714E-03  8540   0.915E-03-0.518E-03
CGA:  10    -0.132448283267E+04   -0.13660E-03   -0.14869E-03  8540   0.278E-03 0.184E-03
CGA:  11    -0.132448288135E+04   -0.48678E-04   -0.58988E-04  8540   0.997E-04 0.109E-03
CGA:  12    -0.132448292332E+04   -0.41976E-04   -0.42225E-04  8540   0.467E-04-0.658E-05
CGA:  13    -0.132448295637E+04   -0.33049E-04    0.14142E-04  8540   0.239E-04 0.406E-05
CGA:  14    -0.132448298686E+04   -0.30490E-04    0.29337E-05  8540   0.112E-04 0.179E-05
CGA:  15    -0.132448300442E+04   -0.17563E-04    0.93909E-06  8540   0.555E-05 0.129E-05
CGA:  16    -0.132448301152E+04   -0.70956E-05    0.72561E-06  8540   0.238E-05 0.315E-06
 118 F= -.13244830E+04 E0= -.13244830E+04  d E =0.688730E-02  mag=   126.0000
       N       E                     dE             d eps       ncg     rms          ort
SDA:   1    -0.131885897447E+04    0.56240E+01    0.00000E+00  8540   0.146E+02 0.000E+00
CGA:   2    -0.132253850902E+04   -0.36795E+01   -0.36799E+01  8540   0.733E+01 0.132E-01
CGA:   3    -0.132411243205E+04   -0.15739E+01   -0.15738E+01  8540   0.131E+01-0.465E-02
CGA:   4    -0.132437749544E+04   -0.26506E+00   -0.26489E+00  8540   0.242E+00-0.295E-02
CGA:   5    -0.132443036464E+04   -0.52869E-01   -0.52918E-01  8540   0.588E-01 0.108E-02
CGA:   6    -0.132444401232E+04   -0.13648E-01   -0.13669E-01  8540   0.145E-01 0.769E-03
CGA:   7    -0.132444787675E+04   -0.38644E-02   -0.38638E-02  8540   0.434E-02 0.139E-03
CGA:   8    -0.132444920806E+04   -0.13313E-02   -0.13359E-02  8540   0.151E-02-0.986E-04
CGA:   9    -0.132444973319E+04   -0.52513E-03   -0.54291E-03  8540   0.577E-03-0.167E-03
CGA:  10    -0.132444986222E+04   -0.12902E-03   -0.13013E-03  8540   0.148E-03 0.909E-04
CGA:  11    -0.132444990491E+04   -0.42688E-04   -0.43084E-04  8540   0.405E-04 0.303E-04
CGA:  12    -0.132444992135E+04   -0.16438E-04   -0.26994E-04  8540   0.543E-04-0.367E-04
CGA:  13    -0.132444992907E+04   -0.77215E-05   -0.95428E-05  8540   0.870E-05 0.176E-04
CGA:  14    -0.132444990763E+04    0.21442E-04   -0.14287E-04  8540   0.116E-03-0.370E-04
CGA:  15    -0.132444994439E+04   -0.36762E-04   -0.36695E-04  8540   0.119E-04-0.991E-05
CGA:  16    -0.132444994539E+04   -0.10067E-05   -0.17675E-05  8540   0.257E-05 0.476E-05
 119 F= -.13244499E+04 E0= -.13244499E+04  d E =0.330661E-01  mag=   126.0000
       N       E                     dE             d eps       ncg     rms          ort
SDA:   1    -0.130229483715E+04    0.22155E+02    0.00000E+00  8540   0.633E+02 0.000E+00
CGA:   2    -0.131667467589E+04   -0.14380E+02   -0.14399E+02  8540   0.267E+02 0.707E-01
CGA:   3    -0.132268767376E+04   -0.60130E+01   -0.60142E+01  8540   0.586E+01 0.199E-01
CGA:   4    -0.132395017232E+04   -0.12625E+01   -0.12642E+01  8540   0.110E+01 0.152E-01
CGA:   5    -0.132418889737E+04   -0.23873E+00   -0.23846E+00  8540   0.255E+00-0.410E-02
CGA:   6    -0.132425293072E+04   -0.64033E-01   -0.63785E-01  8540   0.789E-01-0.677E-02
CGA:   7    -0.132427315514E+04   -0.20224E-01   -0.20235E-01  8540   0.228E-01 0.415E-03
CGA:   8    -0.132427906919E+04   -0.59140E-02   -0.59704E-02  8540   0.643E-02 0.225E-02
CGA:   9    -0.132428107482E+04   -0.20056E-02   -0.20062E-02  8540   0.192E-02 0.119E-02
CGA:  10    -0.132428183081E+04   -0.75598E-03   -0.74816E-03  8540   0.733E-03 0.177E-03
CGA:  11    -0.132428208887E+04   -0.25807E-03   -0.25590E-03  8540   0.225E-03 0.650E-04
CGA:  12    -0.132428212497E+04   -0.36090E-04   -0.47000E-04  8540   0.797E-04 0.114E-03
CGA:  13    -0.132428212581E+04   -0.84178E-06   -0.10007E-04  8540   0.444E-04 0.581E-04
 120 F= -.13242821E+04 E0= -.13242821E+04  d E =0.167820E+00  mag=   126.0000
       N       E                     dE             d eps       ncg     rms          ort
SDA:   1    -0.132054193770E+04    0.37402E+01    0.00000E+00  8540   0.117E+02 0.000E+00
CGA:   2    -0.132304105871E+04   -0.24991E+01   -0.25006E+01  8540   0.481E+01 0.145E-01
CGA:   3    -0.132419214263E+04   -0.11511E+01   -0.11510E+01  8540   0.115E+01-0.545E-02
CGA:   4    -0.132443540187E+04   -0.24326E+00   -0.24289E+00  8540   0.216E+00-0.736E-02
CGA:   5    -0.132448084519E+04   -0.45443E-01   -0.45527E-01  8540   0.487E-01 0.163E-02
CGA:   6    -0.132449216923E+04   -0.11324E-01   -0.11372E-01  8540   0.128E-01 0.179E-02
CGA:   7    -0.132449579063E+04   -0.36214E-02   -0.36200E-02  8540   0.394E-02 0.876E-04
CGA:   8    -0.132449711878E+04   -0.13282E-02   -0.14251E-02  8540   0.203E-02-0.956E-03
CGA:   9    -0.132449761817E+04   -0.49939E-03   -0.70479E-03  8540   0.156E-02-0.105E-02
CGA:  10    -0.132449786606E+04   -0.24789E-03   -0.27556E-03  8540   0.257E-03 0.289E-03
CGA:  11    -0.132449794106E+04   -0.75007E-04   -0.76306E-04  8540   0.759E-04 0.759E-04
CGA:  12    -0.132449799378E+04   -0.52714E-04    0.32071E-02  8540   0.279E-04 0.179E-04
CGA:  13    -0.132449803738E+04   -0.43605E-04    0.33641E-05  8540   0.102E-04 0.115E-04
CGA:  14    -0.132449807193E+04   -0.34544E-04    0.54923E-06  8540   0.448E-05 0.414E-05
CGA:  15    -0.132449809641E+04   -0.24486E-04    0.13408E-06  8540   0.237E-05 0.266E-05
CGA:  16    -0.132449810224E+04   -0.58285E-05    0.87874E-07  8540   0.102E-05 0.114E-05
 121 F= -.13244981E+04 E0= -.13244981E+04  d E =-.215976E+00  mag=   126.0000
       N       E                     dE             d eps       ncg     rms          ort
SDA:   1    -0.132389818085E+04    0.59992E+00    0.00000E+00  8540   0.179E+01 0.000E+00
CGA:   2    -0.132430062480E+04   -0.40244E+00   -0.40264E+00  8540   0.757E+00 0.357E-02
CGA:   3    -0.132447572803E+04   -0.17510E+00   -0.17498E+00  8540   0.174E+00-0.419E-02
CGA:   4    -0.132451341189E+04   -0.37684E-01   -0.37494E-01  8540   0.337E-01-0.405E-02
CGA:   5    -0.132452004391E+04   -0.66320E-02   -0.66935E-02  8540   0.710E-02 0.105E-02
CGA:   6    -0.132452149578E+04   -0.14519E-02   -0.15115E-02  8540   0.174E-02 0.115E-02
CGA:   7    -0.132452201648E+04   -0.52070E-03   -0.52029E-03  8540   0.554E-03 0.221E-03
CGA:   8    -0.132452214695E+04   -0.13047E-03   -0.40536E-03  8540   0.144E-02-0.699E-03
CGA:   9    -0.132452241005E+04   -0.26311E-03   -0.26861E-03  8540   0.155E-03 0.618E-04
CGA:  10    -0.132452243937E+04   -0.29317E-04   -0.33017E-04  8540   0.354E-04 0.553E-04
CGA:  11    -0.132452220053E+04    0.23884E-03   -0.12871E-03  8540   0.105E-02-0.222E-03
CGA:  12    -0.132452246068E+04   -0.26015E-03   -0.25855E-03  8540   0.167E-03-0.691E-05
CGA:  13    -0.132452254436E+04   -0.83683E-04   -0.88022E-04  8540   0.826E-04-0.785E-04
CGA:  14    -0.132452253678E+04    0.75824E-05   -0.31374E-05  8540   0.495E-04 0.264E-04
