       N       E                     dE             d eps       ncg     rms          ort
DAV:   1     0.586999523995E+04    0.58700E+04   -0.22953E+05  3794   0.187E+03
DAV:   2     0.189530702506E+03   -0.56805E+04   -0.52270E+04  3794   0.543E+02
DAV:   3    -0.743557492714E+03   -0.93309E+03   -0.87360E+03  3794   0.223E+02
DAV:   4    -0.808476619824E+03   -0.64919E+02   -0.63682E+02  3794   0.563E+01
DAV:   5    -0.809620536427E+03   -0.11439E+01   -0.11361E+01  3794   0.815E+00
SDA:   6    -0.258424692717E+03    0.55120E+03   -0.11361E+01  3794   0.217E+04 0.000E+00
CGA:   7    -0.542990579249E+03   -0.28457E+03   -0.28333E+03  3794   0.214E+03 0.182E+02
CGA:   8    -0.581440826447E+03   -0.38450E+02   -0.38375E+02  3794   0.663E+02-0.110E+01
CGA:   9    -0.595720596654E+03   -0.14280E+02   -0.14261E+02  3794   0.301E+02 0.640E+00
CGA:  10    -0.602778126955E+03   -0.70575E+01   -0.70565E+01  3794   0.109E+02-0.267E-01
CGA:  11    -0.604991359109E+03   -0.22132E+01   -0.22143E+01  3794   0.290E+01-0.178E+00
CGA:  12    -0.605665322000E+03   -0.67396E+00   -0.67906E+00  3794   0.891E+00-0.132E+00
CGA:  13    -0.605878883473E+03   -0.21356E+00   -0.21723E+00  3794   0.286E+00-0.675E-01
CGA:  14    -0.605953826920E+03   -0.74943E-01   -0.77593E-01  3794   0.119E+00-0.301E-01
CGA:  15    -0.605987401081E+03   -0.33574E-01   -0.45378E-01  3794   0.845E-01-0.542E-01
CGA:  16    -0.605969302911E+03    0.18098E-01   -0.35687E-01  3794   0.220E+00-0.971E-01
CGA:  17    -0.606019526877E+03   -0.50224E-01   -0.50352E-01  3794   0.391E-01 0.705E-02
CGA:  18    -0.606031169380E+03   -0.11643E-01   -0.11411E-01  3794   0.794E-02 0.634E-02
CGA:  19    -0.606033834187E+03   -0.26648E-02   -0.25767E-02  3794   0.224E-02 0.281E-02
CGA:  20    -0.606034162108E+03   -0.32792E-03   -0.49064E-03  3794   0.109E-02 0.187E-02
CGA:  21    -0.606034183192E+03   -0.21084E-04   -0.13216E-03  3794   0.764E-03 0.895E-03
CGA:  22    -0.606034179034E+03    0.41578E-05   -0.83013E-04  3794   0.601E-03 0.671E-03
CGA:  23    -0.606034164040E+03    0.14994E-04   -0.58389E-04  3794   0.499E-03 0.544E-03
CGA:  24    -0.606034144478E+03    0.19562E-04   -0.43686E-04  3794   0.427E-03 0.459E-03
CGA:  25    -0.606034123232E+03    0.21246E-04   -0.33988E-04  3794   0.374E-03 0.398E-03
CGA:  26    -0.606034101726E+03    0.21505E-04   -0.27181E-04  3794   0.332E-03 0.351E-03
CGA:  27    -0.606034080686E+03    0.21040E-04   -0.22195E-04  3794   0.299E-03 0.314E-03
CGA:  28    -0.606034060477E+03    0.20208E-04   -0.18425E-04  3794   0.272E-03 0.284E-03
CGA:  29    -0.606034041278E+03    0.19199E-04   -0.15505E-04  3794   0.249E-03 0.259E-03
CGA:  30    -0.606034023158E+03    0.18120E-04   -0.13199E-04  3794   0.230E-03 0.239E-03
CGA:  31    -0.606034006124E+03    0.17034E-04   -0.11346E-04  3794   0.214E-03 0.221E-03
CGA:  32    -0.606033990150E+03    0.15974E-04   -0.98352E-05  3794   0.200E-03 0.206E-03
CGA:  33    -0.606033975191E+03    0.14958E-04   -0.85889E-05  3794   0.188E-03 0.193E-03
CGA:  34    -0.606033961196E+03    0.13995E-04   -0.75503E-05  3794   0.177E-03 0.182E-03
CGA:  35    -0.606033948107E+03    0.13089E-04   -0.66766E-05  3794   0.167E-03 0.172E-03
CGA:  36    -0.606033935868E+03    0.12239E-04   -0.59363E-05  3794   0.159E-03 0.163E-03
CGA:  37    -0.606033924425E+03    0.11443E-04   -0.53048E-05  3794   0.151E-03 0.155E-03
CGA:  38    -0.606033913725E+03    0.10699E-04   -0.47631E-05  3794   0.145E-03 0.148E-03
CGA:  39    -0.606033903722E+03    0.10004E-04   -0.42961E-05  3794   0.138E-03 0.141E-03
CGA:  40    -0.606033894368E+03    0.93540E-05   -0.38917E-05  3794   0.133E-03 0.135E-03
   1 F= -.60603389E+03 E0= -.60603389E+03  d E =-.606034E+03  mag=    55.0000
