       N       E                     dE             d eps       ncg     rms          ort
DAV:   1     0.826149342685E+04    0.82615E+04   -0.24636E+05  8424   0.239E+03
DAV:   2     0.873171896624E+03   -0.73883E+04   -0.69194E+04  8424   0.659E+02
DAV:   3    -0.739198999090E+03   -0.16124E+04   -0.14254E+04  8424   0.284E+02
DAV:   4    -0.898615628951E+03   -0.15942E+03   -0.15659E+03  8424   0.862E+01
DAV:   5    -0.901339569513E+03   -0.27239E+01   -0.27090E+01  8424   0.126E+01
SDA:   6    -0.246088943125E+03    0.65525E+03   -0.27090E+01  8424   0.537E+04 0.000E+00
CGA:   7    -0.454673227363E+03   -0.20858E+03   -0.40121E+03  8424   0.847E+04-0.877E+03
CGA:   8    -0.567538561636E+03   -0.11287E+03   -0.36285E+03  8424   0.914E+03-0.151E+04
CGA:   9    -0.610204896131E+03   -0.42666E+02   -0.13763E+02  8424   0.134E+04 0.222E+04
CGA:  10    -0.610722201272E+03   -0.51731E+00   -0.67113E+02  8424   0.464E+04-0.225E+04
CGA:  11    -0.597028558741E+03    0.13694E+02   -0.23388E+03  8424   0.121E+04-0.570E+03
CGA:  12    -0.659348026927E+03   -0.62319E+02   -0.23129E+02  8424   0.446E+03 0.720E+02
CGA:  13    -0.650348574261E+03    0.89995E+01   -0.20420E+02  8424   0.113E+04-0.367E+03
CGA:  14    -0.658298575820E+03   -0.79500E+01   -0.36607E+02  8424   0.103E+04-0.956E+03
CGA:  15    -0.644194190850E+03    0.14104E+02   -0.36112E+02  8424   0.191E+04-0.121E+04
CGA:  16    -0.640380781916E+03    0.38134E+01   -0.69597E+02  8424   0.145E+04-0.122E+04
CGA:  17    -0.661948671201E+03   -0.21568E+02   -0.43787E+02  8424   0.120E+04-0.146E+04
CGA:  18    -0.647494942840E+03    0.14454E+02   -0.44876E+02  8424   0.153E+04-0.108E+04
CGA:  19    -0.620028239546E+03    0.27467E+02   -0.61075E+02  8424   0.296E+04-0.211E+04
CGA:  20    -0.639646172029E+03   -0.19618E+02   -0.10053E+03  8424   0.165E+04-0.185E+04
CGA:  21    -0.626105781234E+03    0.13540E+02   -0.63502E+02  8424   0.312E+04-0.267E+04
CGA:  22    -0.649516041588E+03   -0.23410E+02   -0.10434E+03  8424   0.129E+04-0.154E+04
CGA:  23    -0.682516982120E+03   -0.33001E+02   -0.14085E+02  8424   0.831E+03 0.108E+04
CGA:  24    -0.663629545184E+03    0.18887E+02   -0.24553E+02  8424   0.262E+04-0.147E+04
CGA:  25    -0.638647992087E+03    0.24982E+02   -0.10581E+03  8424   0.112E+04-0.750E+03
CGA:  26    -0.686342605201E+03   -0.47695E+02   -0.15814E+02  8424   0.769E+03 0.460E+03
CGA:  27    -0.646203205825E+03    0.40139E+02   -0.28947E+02  8424   0.236E+04-0.139E+04
CGA:  28    -0.636664733805E+03    0.95385E+01   -0.79287E+02  8424   0.296E+04-0.211E+04
CGA:  29    -0.639760414821E+03   -0.30957E+01   -0.10837E+03  8424   0.119E+04-0.127E+04
CGA:  30    -0.670412292214E+03   -0.30652E+02   -0.10111E+02  8424   0.158E+04 0.180E+04
CGA:  31    -0.654882528501E+03    0.15530E+02   -0.42030E+02  8424   0.495E+04-0.324E+04
CGA:  32    -0.627474841925E+03    0.27408E+02   -0.17582E+03  8424   0.147E+04-0.843E+03
CGA:  33    -0.647100007979E+03   -0.19625E+02   -0.35213E+02  8424   0.309E+04-0.370E+04
CGA:  34    -0.614037125889E+03    0.33063E+02   -0.95155E+02  8424   0.151E+04-0.116E+04
CGA:  35    -0.631766003737E+03   -0.17729E+02   -0.26925E+02  8424   0.911E+03-0.885E+03
CGA:  36    -0.629718469323E+03    0.20475E+01   -0.18409E+02  8424   0.394E+04-0.381E+04
CGA:  37    -0.616636171963E+03    0.13082E+02   -0.11800E+03  8424   0.808E+03-0.723E+03
CGA:  38    -0.698910101230E+03   -0.82274E+02   -0.13401E+02  8424   0.190E+03-0.805E+00
CGA:  39    -0.692185692473E+03    0.67244E+01   -0.15704E+01  8424   0.128E+04-0.823E+03
CGA:  40    -0.652475116464E+03    0.39711E+02   -0.25853E+02  8424   0.468E+04-0.193E+04
CGA:  41    -0.607678731780E+03    0.44796E+02   -0.11888E+03  8424   0.112E+04-0.743E+03
CGA:  42    -0.632119773744E+03   -0.24441E+02   -0.21628E+02  8424   0.989E+03-0.105E+04
CGA:  43    -0.656951815446E+03   -0.24832E+02   -0.16645E+02  8424   0.655E+04-0.786E+04
CGA:  44    -0.627603875130E+03    0.29348E+02   -0.16054E+03  8424   0.855E+03-0.647E+03
CGA:  45    -0.696055441999E+03   -0.68452E+02   -0.12020E+02  8424   0.536E+03-0.159E+04
CGA:  46    -0.702615850041E+03   -0.65604E+01   -0.57909E+01  8424   0.221E+02 0.590E+02
CGA:  47    -0.703000570954E+03   -0.38472E+00   -0.38721E+00  8424   0.354E+02-0.160E-01
CGA:  48    -0.703882469307E+03   -0.88190E+00   -0.92733E+00  8424   0.325E+02-0.530E+00
CGA:  49    -0.704136818144E+03   -0.25435E+00   -0.62770E+00  8424   0.559E+01-0.552E+01
CGA:  50    -0.704590191978E+03   -0.45337E+00    0.98767E+00  8424   0.326E+01 0.586E+01
CGA:  51    -0.704723320734E+03   -0.13313E+00   -0.12629E+00  8424   0.167E+01-0.415E+00
CGA:  52    -0.704828816977E+03   -0.10550E+00   -0.97920E-01  8424   0.295E+01 0.277E+00
CGA:  53    -0.704991881973E+03   -0.16306E+00   -0.20191E+00  8424   0.249E+01-0.261E+01
CGA:  54    -0.705069957877E+03   -0.78076E-01   -0.84122E-01  8424   0.108E+01 0.711E-01
CGA:  55    -0.705141484307E+03   -0.71526E-01   -0.70428E-01  8424   0.641E+00 0.436E-01
CGA:  56    -0.705195885348E+03   -0.54401E-01   -0.50549E-01  8424   0.595E+00 0.106E+00
CGA:  57    -0.705296100007E+03   -0.10021E+00   -0.10028E+00  8424   0.521E+00-0.779E-01
CGA:  58    -0.705341191356E+03   -0.45091E-01   -0.43068E-01  8424   0.252E+00 0.420E-01
CGA:  59    -0.705361421832E+03   -0.20230E-01   -0.19853E-01  8424   0.129E+00 0.175E-01
CGA:  60    -0.705377798922E+03   -0.16377E-01   -0.14875E-01  8424   0.111E+00 0.264E-01
CGA:  61    -0.705395773224E+03   -0.17974E-01   -0.16422E-01  8424   0.630E-01 0.232E-01
CGA:  62    -0.705406576543E+03   -0.10803E-01   -0.10064E-01  8424   0.326E-01 0.105E-01
CGA:  63    -0.705412930892E+03   -0.63543E-02   -0.55479E-02  8424   0.125E-01 0.100E-01
CGA:  64    -0.705416249481E+03   -0.33186E-02   -0.28898E-02  8424   0.122E-01 0.407E-02
CGA:  65    -0.705419049800E+03   -0.28003E-02   -0.26289E-02  8424   0.852E-02 0.205E-02
CGA:  66    -0.705420314913E+03   -0.12651E-02   -0.12009E-02  8424   0.381E-02 0.158E-02
CGA:  67    -0.705420999365E+03   -0.68445E-03   -0.60978E-03  8424   0.184E-02 0.140E-02
CGA:  68    -0.705421610989E+03   -0.61162E-03   -0.58175E-03  8424   0.240E-02 0.240E-03
CGA:  69    -0.705422082227E+03   -0.47124E-03   -0.54822E-03  8424   0.172E-02-0.597E-03
CGA:  70    -0.705422169929E+03   -0.87702E-04   -0.88582E-04  8424   0.543E-03 0.544E-04
CGA:  71    -0.705422221078E+03   -0.51149E-04   -0.51341E-04  8424   0.483E-03 0.553E-04
CGA:  72    -0.705422303695E+03   -0.82617E-04   -0.85678E-04  8424   0.631E-03-0.409E-04
CGA:  73    -0.705422376765E+03   -0.73069E-04   -0.89492E-04  8424   0.674E-03-0.276E-03
CGA:  74    -0.705422415279E+03   -0.38515E-04   -0.39010E-04  8424   0.605E-03-0.269E-03
CGA:  75    -0.705422402457E+03    0.12822E-04   -0.87847E-04  8424   0.148E-02-0.690E-03
CGA:  76    -0.705422515473E+03   -0.11302E-03   -0.11430E-03  8424   0.366E-03 0.350E-04
CGA:  77    -0.705422587555E+03   -0.72082E-04   -0.65093E-04  8424   0.193E-03 0.105E-03
CGA:  78    -0.705422495379E+03    0.92176E-04   -0.67369E-04  8424   0.288E-02-0.466E-03
CGA:  79    -0.705422718171E+03   -0.22279E-03   -0.22679E-03  8424   0.266E-03 0.501E-04
CGA:  80    -0.705422747525E+03   -0.29354E-04   -0.32633E-04  8424   0.142E-03 0.443E-04
CGA:  81    -0.705422784426E+03   -0.36901E-04   -0.39710E-04  8424   0.909E-04-0.575E-04
CGA:  82    -0.705422806787E+03   -0.22361E-04    0.74213E-04  8424   0.716E-04-0.442E-04
CGA:  83    -0.705422830482E+03   -0.23695E-04    0.53317E-05  8424   0.546E-04-0.577E-05
CGA:  84    -0.705422841865E+03   -0.11383E-04   -0.15978E-04  8424   0.141E-03-0.370E-04
CGA:  85    -0.705422861438E+03   -0.19573E-04   -0.15549E-04  8424   0.505E-04-0.452E-04
CGA:  86    -0.705422868346E+03   -0.69079E-05   -0.73385E-05  8424   0.659E-04-0.224E-04
   1 F= -.70542287E+03 E0= -.70541203E+03  d E =-.705423E+03  mag=     0.8990
       N       E                     dE             d eps       ncg     rms          ort
SDA:   1    -0.705425538874E+03   -0.26774E-02    0.00000E+00  8424   0.468E-02 0.000E+00
CGA:   2    -0.705425952989E+03   -0.41412E-03   -0.40720E-03  8424   0.113E-02-0.496E-04
CGA:   3    -0.705426138240E+03   -0.18525E-03   -0.18544E-03  8424   0.650E-03 0.739E-05
CGA:   4    -0.705426231808E+03   -0.93568E-04   -0.91267E-04  8424   0.241E-03-0.466E-04
CGA:   5    -0.705426265105E+03   -0.33297E-04   -0.33581E-04  8424   0.410E-04 0.769E-05
CGA:   6    -0.705426272255E+03   -0.71497E-05   -0.71505E-05  8424   0.185E-04 0.474E-07
   2 F= -.70542627E+03 E0= -.70541545E+03  d E =-.340391E-02  mag=     0.9008
       N       E                     dE             d eps       ncg     rms          ort
SDA:   1    -0.704907775609E+03    0.51849E+00    0.00000E+00  8424   0.200E+01 0.000E+00
CGA:   2    -0.705292195757E+03   -0.38442E+00   -0.38433E+00  8424   0.841E+00 0.430E-02
CGA:   3    -0.705456393778E+03   -0.16420E+00   -0.16422E+00  8424   0.343E+00-0.145E-02
CGA:   4    -0.705503559247E+03   -0.47165E-01   -0.47337E-01  8424   0.131E+00 0.179E-03
CGA:   5    -0.705518145523E+03   -0.14586E-01   -0.14477E-01  8424   0.370E-01 0.103E-02
CGA:   6    -0.705523387628E+03   -0.52421E-02   -0.52513E-02  8424   0.887E-02 0.264E-03
CGA:   7    -0.705524816403E+03   -0.14288E-02   -0.14309E-02  8424   0.323E-02 0.142E-03
CGA:   8    -0.705525322187E+03   -0.50578E-03   -0.50431E-03  8424   0.152E-02-0.738E-04
CGA:   9    -0.705525517792E+03   -0.19561E-03   -0.19748E-03  8424   0.670E-03 0.496E-04
CGA:  10    -0.705525631871E+03   -0.11408E-03   -0.11385E-03  8424   0.319E-03-0.423E-04
CGA:  11    -0.705525681936E+03   -0.50065E-04   -0.50014E-04  8424   0.148E-03-0.222E-04
CGA:  12    -0.705525706924E+03   -0.24988E-04   -0.25112E-04  8424   0.835E-04-0.942E-05
CGA:  13    -0.705525712711E+03   -0.57878E-05   -0.73868E-05  8424   0.261E-04 0.211E-04
   3 F= -.70552571E+03 E0= -.70551479E+03  d E =-.994405E-01  mag=     0.8965
       N       E                     dE             d eps       ncg     rms          ort
SDA:   1    -0.703695549918E+03    0.18302E+01    0.00000E+00  8424   0.623E+01 0.000E+00
CGA:   2    -0.704898453315E+03   -0.12029E+01   -0.12010E+01  8424   0.280E+01 0.451E-01
CGA:   3    -0.705421620344E+03   -0.52317E+00   -0.52387E+00  8424   0.132E+01-0.231E-01
CGA:   4    -0.705574574875E+03   -0.15295E+00   -0.15540E+00  8424   0.493E+00 0.966E-04
CGA:   5    -0.705632943317E+03   -0.58368E-01   -0.57883E-01  8424   0.115E+00 0.335E-03
CGA:   6    -0.705650326767E+03   -0.17383E-01   -0.17390E-01  8424   0.294E-01 0.730E-03
CGA:   7    -0.705654784866E+03   -0.44581E-02   -0.44626E-02  8424   0.124E-01 0.319E-03
CGA:   8    -0.705656469360E+03   -0.16845E-02   -0.16821E-02  8424   0.578E-02-0.124E-03
CGA:   9    -0.705657227677E+03   -0.75832E-03   -0.76108E-03  8424   0.213E-02 0.110E-03
CGA:  10    -0.705657640653E+03   -0.41298E-03   -0.41389E-03  8424   0.927E-03-0.291E-04
CGA:  11    -0.705657793718E+03   -0.15306E-03   -0.15345E-03  8424   0.589E-03-0.520E-04
CGA:  12    -0.705657875753E+03   -0.82035E-04   -0.81520E-04  8424   0.286E-03-0.374E-04
CGA:  13    -0.705657901888E+03   -0.26135E-04   -0.29179E-04  8424   0.921E-04 0.592E-04
CGA:  14    -0.705657918120E+03   -0.16231E-04   -0.16567E-04  8424   0.331E-04 0.397E-04
CGA:  15    -0.705657927272E+03   -0.91528E-05   -0.11319E-04  8424   0.997E-04-0.264E-04
   4 F= -.70565793E+03 E0= -.70564683E+03  d E =-.132215E+00  mag=     0.8844
       N       E                     dE             d eps       ncg     rms          ort
SDA:   1    -0.704398772053E+03    0.12591E+01    0.00000E+00  8424   0.378E+01 0.000E+00
CGA:   2    -0.705258357513E+03   -0.85959E+00   -0.85848E+00  8424   0.202E+01 0.120E-01
CGA:   3    -0.705603159744E+03   -0.34480E+00   -0.34492E+00  8424   0.936E+00-0.660E-02
CGA:   4    -0.705698177568E+03   -0.95018E-01   -0.96412E-01  8424   0.295E+00-0.497E-02
CGA:   5    -0.705735622773E+03   -0.37445E-01   -0.37433E-01  8424   0.677E-01 0.756E-03
CGA:   6    -0.705745699718E+03   -0.10077E-01   -0.10075E-01  8424   0.187E-01 0.605E-04
CGA:   7    -0.705748400530E+03   -0.27008E-02   -0.27033E-02  8424   0.858E-02 0.146E-03
CGA:   8    -0.705749535886E+03   -0.11354E-02   -0.11331E-02  8424   0.376E-02-0.118E-03
CGA:   9    -0.705750004312E+03   -0.46843E-03   -0.47092E-03  8424   0.131E-02 0.936E-04
CGA:  10    -0.705750281564E+03   -0.27725E-03   -0.27602E-03  8424   0.547E-03 0.230E-04
CGA:  11    -0.705750377861E+03   -0.96296E-04   -0.97027E-04  8424   0.453E-03-0.375E-04
CGA:  12    -0.705750436501E+03   -0.58640E-04   -0.57852E-04  8424   0.199E-03-0.425E-04
CGA:  13    -0.705750454909E+03   -0.18408E-04   -0.20207E-04  8424   0.638E-04 0.419E-04
CGA:  14    -0.705750468259E+03   -0.13350E-04   -0.12979E-04  8424   0.258E-04 0.242E-04
CGA:  15    -0.705750444294E+03    0.23965E-04   -0.19448E-04  8424   0.728E-03-0.110E-03
CGA:  16    -0.705750478366E+03   -0.34072E-04   -0.39064E-04  8424   0.362E-04 0.425E-04
CGA:  17    -0.705750480115E+03   -0.17493E-05   -0.33548E-05  8424   0.181E-04 0.201E-04
   5 F= -.70575048E+03 E0= -.70573949E+03  d E =-.925528E-01  mag=     0.8767
       N       E                     dE             d eps       ncg     rms          ort
SDA:   1    -0.701555571918E+03    0.41949E+01    0.00000E+00  8424   0.113E+02 0.000E+00
CGA:   2    -0.704431188953E+03   -0.28756E+01   -0.28677E+01  8424   0.604E+01 0.732E-01
CGA:   3    -0.705439399890E+03   -0.10082E+01   -0.10074E+01  8424   0.247E+01-0.115E+00
CGA:   4    -0.705682299491E+03   -0.24290E+00   -0.23917E+00  8424   0.752E+00-0.858E-02
CGA:   5    -0.705783170391E+03   -0.10087E+00   -0.10105E+00  8424   0.189E+00 0.166E-02
CGA:   6    -0.705811680554E+03   -0.28510E-01   -0.28509E-01  8424   0.519E-01 0.331E-04
CGA:   7    -0.705818929769E+03   -0.72492E-02   -0.72517E-02  8424   0.286E-01-0.856E-04
CGA:   8    -0.705822188678E+03   -0.32589E-02   -0.32699E-02  8424   0.864E-02 0.186E-03
CGA:   9    -0.705823748206E+03   -0.15595E-02   -0.15576E-02  8424   0.397E-02 0.104E-03
CGA:  10    -0.705824429745E+03   -0.68154E-03   -0.68008E-03  8424   0.207E-02 0.167E-03
CGA:  11    -0.705824717065E+03   -0.28732E-03   -0.28787E-03  8424   0.129E-02 0.158E-04
CGA:  12    -0.705824916407E+03   -0.19934E-03   -0.19968E-03  8424   0.464E-03 0.566E-04
CGA:  13    -0.705825016595E+03   -0.10019E-03   -0.99309E-04  8424   0.258E-03 0.192E-04
CGA:  14    -0.705825049317E+03   -0.32722E-04   -0.33368E-04  8424   0.119E-03 0.169E-04
CGA:  15    -0.705825069421E+03   -0.20105E-04   -0.20099E-04  8424   0.627E-04-0.392E-05
CGA:  16    -0.705825075162E+03   -0.57401E-05   -0.65520E-05  8424   0.161E-04 0.156E-04
   6 F= -.70582508E+03 E0= -.70581389E+03  d E =-.745950E-01  mag=     0.8497
       N       E                     dE             d eps       ncg     rms          ort
SDA:   1    -0.702149125682E+03    0.36759E+01    0.00000E+00  8424   0.116E+02 0.000E+00
CGA:   2    -0.704426196924E+03   -0.22771E+01   -0.22711E+01  8424   0.564E+01 0.105E+00
CGA:   3    -0.705334268799E+03   -0.90807E+00   -0.90795E+00  8424   0.329E+01 0.213E-01
CGA:   4    -0.705684914794E+03   -0.35065E+00   -0.34242E+00  8424   0.841E+00-0.233E-01
CGA:   5    -0.705806482018E+03   -0.12157E+00   -0.12149E+00  8424   0.220E+00-0.391E-02
CGA:   6    -0.705838987844E+03   -0.32506E-01   -0.32519E-01  8424   0.644E-01 0.130E-02
CGA:   7    -0.705846975792E+03   -0.79879E-02   -0.79572E-02  8424   0.307E-01-0.740E-03
CGA:   8    -0.705850622312E+03   -0.36465E-02   -0.36485E-02  8424   0.975E-02-0.222E-04
CGA:   9    -0.705852230269E+03   -0.16080E-02   -0.16049E-02  8424   0.390E-02 0.214E-03
CGA:  10    -0.705852870894E+03   -0.64062E-03   -0.63905E-03  8424   0.186E-02 0.160E-03
CGA:  11    -0.705853150336E+03   -0.27944E-03   -0.27897E-03  8424   0.126E-02-0.680E-04
CGA:  12    -0.705853314272E+03   -0.16394E-03   -0.16382E-03  8424   0.497E-03-0.881E-05
CGA:  13    -0.705853409904E+03   -0.95633E-04   -0.95743E-04  8424   0.272E-03-0.292E-05
CGA:  14    -0.705853448898E+03   -0.38994E-04   -0.39123E-04  8424   0.100E-03 0.163E-04
CGA:  15    -0.705853469820E+03   -0.20923E-04   -0.24165E-04  8424   0.181E-03-0.433E-04
CGA:  16    -0.705853477069E+03   -0.72481E-05   -0.70315E-05  8424   0.693E-04-0.279E-05
   7 F= -.70585348E+03 E0= -.70584239E+03  d E =-.284019E-01  mag=     0.8477
       N       E                     dE             d eps       ncg     rms          ort
SDA:   1    -0.705022324945E+03    0.83114E+00    0.00000E+00  8424   0.270E+01 0.000E+00
CGA:   2    -0.705582912697E+03   -0.56059E+00   -0.56038E+00  8424   0.120E+01 0.291E-02
CGA:   3    -0.705824308713E+03   -0.24140E+00   -0.24145E+00  8424   0.390E+00-0.102E-02
CGA:   4    -0.705881981177E+03   -0.57672E-01   -0.57676E-01  8424   0.138E+00 0.179E-03
CGA:   5    -0.705897069250E+03   -0.15088E-01   -0.15066E-01  8424   0.522E-01 0.129E-03
CGA:   6    -0.705903452384E+03   -0.63831E-02   -0.63793E-02  8424   0.108E-01-0.208E-03
CGA:   7    -0.705905376402E+03   -0.19240E-02   -0.19252E-02  8424   0.368E-02-0.399E-04
CGA:   8    -0.705905885160E+03   -0.50876E-03   -0.50887E-03  8424   0.202E-02 0.674E-05
CGA:   9    -0.705906135496E+03   -0.25034E-03   -0.25247E-03  8424   0.751E-03 0.872E-04
CGA:  10    -0.705906260113E+03   -0.12462E-03   -0.12470E-03  8424   0.331E-03-0.719E-05
CGA:  11    -0.705906320132E+03   -0.60019E-04   -0.59775E-04  8424   0.152E-03 0.718E-05
CGA:  12    -0.705906343911E+03   -0.23780E-04   -0.23764E-04  8424   0.110E-03 0.616E-05
CGA:  13    -0.705906356333E+03   -0.12422E-04   -0.13097E-04  8424   0.299E-04 0.189E-04
CGA:  14    -0.705906363800E+03   -0.74667E-05   -0.72567E-05  8424   0.148E-04 0.359E-05
   8 F= -.70590636E+03 E0= -.70589524E+03  d E =-.528867E-01  mag=     0.8380
       N       E                     dE             d eps       ncg     rms          ort
SDA:   1    -0.705740657896E+03    0.16570E+00    0.00000E+00  8424   0.527E+00 0.000E+00
CGA:   2    -0.705860406458E+03   -0.11975E+00   -0.11972E+00  8424   0.255E+00 0.308E-03
CGA:   3    -0.705909068162E+03   -0.48662E-01   -0.48655E-01  8424   0.787E-01 0.185E-03
CGA:   4    -0.705920086332E+03   -0.11018E-01   -0.11019E-01  8424   0.307E-01-0.592E-04
CGA:   5    -0.705923280669E+03   -0.31943E-02   -0.31973E-02  8424   0.958E-02 0.108E-03
CGA:   6    -0.705924596137E+03   -0.13155E-02   -0.13145E-02  8424   0.205E-02-0.744E-04
CGA:   7    -0.705924957884E+03   -0.36175E-03   -0.36211E-03  8424   0.849E-03-0.132E-04
CGA:   8    -0.705925060345E+03   -0.10246E-03   -0.10253E-03  8424   0.398E-03 0.130E-05
CGA:   9    -0.705925113110E+03   -0.52765E-04   -0.53400E-04  8424   0.143E-03 0.385E-04
CGA:  10    -0.705925139431E+03   -0.26321E-04   -0.26143E-04  8424   0.611E-04 0.105E-04
CGA:  11    -0.705925149412E+03   -0.99815E-05   -0.99526E-05  8424   0.215E-04 0.186E-04
   9 F= -.70592515E+03 E0= -.70591397E+03  d E =-.187856E-01  mag=     0.8310
       N       E                     dE             d eps       ncg     rms          ort
SDA:   1    -0.705133633278E+03    0.79151E+00    0.00000E+00  8424   0.222E+01 0.000E+00
CGA:   2    -0.705689351648E+03   -0.55572E+00   -0.55549E+00  8424   0.119E+01 0.189E-02
CGA:   3    -0.705890100248E+03   -0.20075E+00   -0.20086E+00  8424   0.464E+00-0.462E-02
CGA:   4    -0.705937727579E+03   -0.47627E-01   -0.47857E-01  8424   0.155E+00-0.885E-03
CGA:   5    -0.705957912805E+03   -0.20185E-01   -0.20183E-01  8424   0.350E-01 0.115E-03
CGA:   6    -0.705963483427E+03   -0.55706E-02   -0.55711E-02  8424   0.933E-02-0.103E-03
CGA:   7    -0.705964789689E+03   -0.13063E-02   -0.13068E-02  8424   0.497E-02 0.382E-04
CGA:   8    -0.705965383337E+03   -0.59365E-03   -0.59357E-03  8424   0.153E-02-0.951E-05
CGA:   9    -0.705965649492E+03   -0.26615E-03   -0.26476E-03  8424   0.687E-03 0.633E-04
CGA:  10    -0.705965767687E+03   -0.11819E-03   -0.11793E-03  8424   0.350E-03 0.208E-04
CGA:  11    -0.705965816286E+03   -0.48599E-04   -0.49079E-04  8424   0.192E-03 0.278E-04
CGA:  12    -0.705965850693E+03   -0.34408E-04   -0.34324E-04  8424   0.876E-04 0.628E-05
CGA:  13    -0.705965866077E+03   -0.15384E-04   -0.15231E-04  8424   0.399E-04 0.977E-05
CGA:  14    -0.705965872970E+03   -0.68927E-05   -0.68875E-05  8424   0.234E-04 0.349E-05
  10 F= -.70596587E+03 E0= -.70595461E+03  d E =-.407236E-01  mag=     0.8238
       N       E                     dE             d eps       ncg     rms          ort
SDA:   1    -0.702540690713E+03    0.34252E+01    0.00000E+00  8424   0.102E+02 0.000E+00
CGA:   2    -0.704702437914E+03   -0.21617E+01   -0.21605E+01  8424   0.483E+01 0.160E-01
CGA:   3    -0.705710291356E+03   -0.10079E+01   -0.10082E+01  8424   0.152E+01-0.686E-02
CGA:   4    -0.705939934783E+03   -0.22964E+00   -0.22971E+00  8424   0.379E+00 0.595E-02
CGA:   5    -0.705994181677E+03   -0.54247E-01   -0.54241E-01  8424   0.151E+00 0.950E-05
CGA:   6    -0.706008931374E+03   -0.14750E-01   -0.14709E-01  8424   0.438E-01 0.148E-03
CGA:   7    -0.706016369545E+03   -0.74382E-02   -0.74481E-02  8424   0.123E-01-0.561E-03
CGA:   8    -0.706018429844E+03   -0.20603E-02   -0.20544E-02  8424   0.523E-02 0.379E-03
CGA:   9    -0.706019220909E+03   -0.79107E-03   -0.79184E-03  8424   0.276E-02 0.101E-03
CGA:  10    -0.706019569724E+03   -0.34881E-03   -0.34905E-03  8424   0.124E-02 0.739E-05
CGA:  11    -0.706019805239E+03   -0.23551E-03   -0.23900E-03  8424   0.584E-03-0.888E-04
CGA:  12    -0.706019890853E+03   -0.85614E-04   -0.85432E-04  8424   0.290E-03 0.593E-04
CGA:  13    -0.706019940147E+03   -0.49294E-04   -0.49304E-04  8424   0.177E-03 0.153E-04
CGA:  14    -0.706019966884E+03   -0.26737E-04   -0.26578E-04  8424   0.730E-04-0.130E-04
CGA:  15    -0.706019979700E+03   -0.12816E-04   -0.17927E-04  8424   0.138E-03-0.462E-04
CGA:  16    -0.706019985099E+03   -0.53987E-05   -0.74710E-05  8424   0.168E-04 0.195E-04
  11 F= -.70601999E+03 E0= -.70600906E+03  d E =-.541121E-01  mag=     0.8016
       N       E                     dE             d eps       ncg     rms          ort
SDA:   1    -0.704547817871E+03    0.14722E+01    0.00000E+00  8424   0.486E+01 0.000E+00
CGA:   2    -0.705481343710E+03   -0.93353E+00   -0.93096E+00  8424   0.233E+01 0.456E-01
CGA:   3    -0.705843978902E+03   -0.36264E+00   -0.36271E+00  8424   0.142E+01-0.232E-01
CGA:   4    -0.705996423227E+03   -0.15244E+00   -0.15127E+00  8424   0.334E+00-0.508E-02
CGA:   5    -0.706048221839E+03   -0.51799E-01   -0.51804E-01  8424   0.914E-01-0.427E-03
CGA:   6    -0.706061214367E+03   -0.12993E-01   -0.12996E-01  8424   0.264E-01 0.180E-03
CGA:   7    -0.706064584788E+03   -0.33704E-02   -0.33667E-02  8424   0.115E-01-0.190E-03
CGA:   8    -0.706065976367E+03   -0.13916E-02   -0.13931E-02  8424   0.409E-02 0.266E-04
CGA:   9    -0.706066645211E+03   -0.66884E-03   -0.66881E-03  8424   0.153E-02 0.524E-05
CGA:  10    -0.706066906750E+03   -0.26154E-03   -0.26014E-03  8424   0.692E-03 0.648E-04
CGA:  11    -0.706067014550E+03   -0.10780E-03   -0.10780E-03  8424   0.490E-03-0.324E-04
CGA:  12    -0.706067078266E+03   -0.63716E-04   -0.63664E-04  8424   0.184E-03-0.426E-05
CGA:  13    -0.706067113070E+03   -0.34804E-04   -0.34293E-04  8424   0.774E-04 0.129E-04
CGA:  14    -0.706067128534E+03   -0.15463E-04   -0.15609E-04  8424   0.448E-04-0.391E-05
CGA:  15    -0.706067135132E+03   -0.65979E-05   -0.66235E-05  8424   0.309E-04-0.818E-05
  12 F= -.70606714E+03 E0= -.70605592E+03  d E =-.471500E-01  mag=     0.8186
       N       E                     dE             d eps       ncg     rms          ort
SDA:   1    -0.705765152382E+03    0.30198E+00    0.00000E+00  8424   0.799E+00 0.000E+00
CGA:   2    -0.705957388408E+03   -0.19224E+00   -0.19227E+00  8424   0.407E+00-0.364E-03
CGA:   3    -0.706031328482E+03   -0.73940E-01   -0.73938E-01  8424   0.135E+00-0.586E-04
CGA:   4    -0.706047352719E+03   -0.16024E-01   -0.16023E-01  8424   0.543E-01 0.105E-03
CGA:   5    -0.706053503014E+03   -0.61503E-02   -0.61521E-02  8424   0.136E-01-0.118E-03
CGA:   6    -0.706055515492E+03   -0.20125E-02   -0.20126E-02  8424   0.307E-02 0.304E-04
CGA:   7    -0.706056023726E+03   -0.50823E-03   -0.50769E-03  8424   0.150E-02 0.399E-04
CGA:   8    -0.706056195057E+03   -0.17133E-03   -0.17210E-03  8424   0.560E-03 0.200E-04
CGA:   9    -0.706056294963E+03   -0.99906E-04   -0.10125E-03  8424   0.317E-03-0.480E-04
CGA:  10    -0.706056334805E+03   -0.39843E-04   -0.39896E-04  8424   0.113E-03 0.366E-05
CGA:  11    -0.706056357617E+03   -0.22812E-04   -0.22893E-04  8424   0.793E-04-0.172E-05
CGA:  12    -0.706056366744E+03   -0.91264E-05   -0.91533E-05  8424   0.310E-04 0.705E-06
  13 F= -.70605637E+03 E0= -.70604518E+03  d E =0.107684E-01  mag=     0.8176
       N       E                     dE             d eps       ncg     rms          ort
SDA:   1    -0.705741794585E+03    0.31456E+00    0.00000E+00  8424   0.935E+00 0.000E+00
CGA:   2    -0.705932944977E+03   -0.19115E+00   -0.19110E+00  8424   0.492E+00 0.760E-03
CGA:   3    -0.706010727394E+03   -0.77782E-01   -0.77777E-01  8424   0.299E+00-0.832E-03
CGA:   4    -0.706041507643E+03   -0.30780E-01   -0.30853E-01  8424   0.639E-01-0.660E-03
CGA:   5    -0.706051570258E+03   -0.10063E-01   -0.10063E-01  8424   0.148E-01 0.110E-03
CGA:   6    -0.706053811580E+03   -0.22413E-02   -0.22411E-02  8424   0.520E-02-0.344E-04
CGA:   7    -0.706054376657E+03   -0.56508E-03   -0.56626E-03  8424   0.200E-02 0.258E-04
CGA:   8    -0.706054683441E+03   -0.30678E-03   -0.30674E-03  8424   0.604E-03-0.161E-04
CGA:   9    -0.706054779061E+03   -0.95620E-04   -0.95459E-04  8424   0.280E-03 0.367E-04
CGA:  10    -0.706054824167E+03   -0.45106E-04   -0.45103E-04  8424   0.150E-03-0.796E-06
CGA:  11    -0.706054842681E+03   -0.18514E-04   -0.18707E-04  8424   0.615E-04 0.627E-05
CGA:  12    -0.706054855955E+03   -0.13275E-04   -0.13137E-04  8424   0.275E-04 0.266E-05
CGA:  13    -0.706054859094E+03   -0.31385E-05   -0.34480E-05  8424   0.116E-04 0.862E-05
  14 F= -.70605486E+03 E0= -.70604363E+03  d E =0.150765E-02  mag=     0.8128
       N       E                     dE             d eps       ncg     rms          ort
SDA:   1    -0.705999073843E+03    0.55782E-01    0.00000E+00  8424   0.194E+00 0.000E+00
CGA:   2    -0.706042593204E+03   -0.43519E-01   -0.43494E-01  8424   0.915E-01 0.337E-03
CGA:   3    -0.706060724598E+03   -0.18131E-01   -0.18132E-01  8424   0.253E-01-0.153E-04
CGA:   4    -0.706064781841E+03   -0.40572E-02   -0.40572E-02  8424   0.663E-02-0.329E-05
CGA:   5    -0.706065787265E+03   -0.10054E-02   -0.10059E-02  8424   0.236E-02 0.696E-04
CGA:   6    -0.706066033962E+03   -0.24670E-03   -0.24508E-03  8424   0.844E-03-0.318E-04
CGA:   7    -0.706066162320E+03   -0.12836E-03   -0.12834E-03  8424   0.201E-03-0.823E-05
CGA:   8    -0.706066199776E+03   -0.37457E-04   -0.37224E-04  8424   0.998E-04 0.743E-05
CGA:   9    -0.706066211645E+03   -0.11869E-04   -0.12203E-04  8424   0.416E-04 0.839E-05
CGA:  10    -0.706066219913E+03   -0.82677E-05   -0.84434E-05  8424   0.290E-04-0.555E-05
  15 F= -.70606622E+03 E0= -.70605500E+03  d E =-.113608E-01  mag=     0.8128
       N       E                     dE             d eps       ncg     rms          ort
SDA:   1    -0.706015036284E+03    0.51175E-01    0.00000E+00  8424   0.153E+00 0.000E+00
CGA:   2    -0.706051005324E+03   -0.35969E-01   -0.35968E-01  8424   0.833E-01 0.535E-05
CGA:   3    -0.706067476899E+03   -0.16472E-01   -0.16472E-01  8424   0.244E-01-0.223E-04
CGA:   4    -0.706070579392E+03   -0.31025E-02   -0.31034E-02  8424   0.889E-02 0.443E-04
CGA:   5    -0.706071511493E+03   -0.93210E-03   -0.93105E-03  8424   0.248E-02-0.362E-04
CGA:   6    -0.706071864606E+03   -0.35311E-03   -0.35358E-03  8424   0.562E-03 0.333E-04
CGA:   7    -0.706071969883E+03   -0.10528E-03   -0.10570E-03  8424   0.266E-03-0.145E-04
CGA:   8    -0.706071994716E+03   -0.24833E-04   -0.25407E-04  8424   0.888E-04 0.960E-05
CGA:   9    -0.706072012095E+03   -0.17379E-04   -0.17371E-04  8424   0.346E-04 0.197E-06
CGA:  10    -0.706072018051E+03   -0.59563E-05   -0.59778E-05  8424   0.200E-04-0.138E-05
  16 F= -.70607202E+03 E0= -.70606079E+03  d E =-.579814E-02  mag=     0.8144
       N       E                     dE             d eps       ncg     rms          ort
SDA:   1    -0.705231912162E+03    0.84010E+00    0.00000E+00  8424   0.226E+01 0.000E+00
CGA:   2    -0.705777263824E+03   -0.54535E+00   -0.54528E+00  8424   0.138E+01 0.619E-03
CGA:   3    -0.705994572946E+03   -0.21731E+00   -0.21732E+00  8424   0.674E+00 0.107E-02
CGA:   4    -0.706058787947E+03   -0.64215E-01   -0.64508E-01  8424   0.145E+00-0.290E-02
CGA:   5    -0.706080716786E+03   -0.21929E-01   -0.21929E-01  8424   0.338E-01 0.644E-04
CGA:   6    -0.706085914685E+03   -0.51979E-02   -0.51982E-02  8424   0.120E-01 0.229E-04
CGA:   7    -0.706087278548E+03   -0.13639E-02   -0.13642E-02  8424   0.492E-02 0.252E-04
CGA:   8    -0.706087983662E+03   -0.70511E-03   -0.70474E-03  8424   0.143E-02-0.293E-04
CGA:   9    -0.706088206605E+03   -0.22294E-03   -0.22290E-03  8424   0.696E-03 0.699E-04
CGA:  10    -0.706088323241E+03   -0.11664E-03   -0.11663E-03  8424   0.366E-03 0.912E-06
CGA:  11    -0.706088370811E+03   -0.47570E-04   -0.47629E-04  8424   0.183E-03 0.214E-05
CGA:  12    -0.706088407356E+03   -0.36545E-04   -0.36903E-04  8424   0.940E-04-0.783E-05
CGA:  13    -0.706088419857E+03   -0.12501E-04   -0.12604E-04  8424   0.465E-04 0.612E-05
CGA:  14    -0.706088427896E+03   -0.80390E-05   -0.80290E-05  8424   0.231E-04 0.162E-05
  17 F= -.70608843E+03 E0= -.70607723E+03  d E =-.164098E-01  mag=     0.8123
       N       E                     dE             d eps       ncg     rms          ort
SDA:   1    -0.702927048583E+03    0.31614E+01    0.00000E+00  8424   0.845E+01 0.000E+00
CGA:   2    -0.704939768167E+03   -0.20127E+01   -0.20100E+01  8424   0.461E+01 0.275E-01
CGA:   3    -0.705837256322E+03   -0.89749E+00   -0.89881E+00  8424   0.129E+01-0.264E-01
CGA:   4    -0.706010970995E+03   -0.17371E+00   -0.17434E+00  8424   0.412E+00 0.838E-02
CGA:   5    -0.706056333763E+03   -0.45363E-01   -0.45420E-01  8424   0.145E+00-0.557E-03
CGA:   6    -0.706074738644E+03   -0.18405E-01   -0.18398E-01  8424   0.334E-01 0.451E-04
CGA:   7    -0.706080823993E+03   -0.60853E-02   -0.60853E-02  8424   0.112E-01 0.475E-05
CGA:   8    -0.706082343628E+03   -0.15196E-02   -0.15224E-02  8424   0.550E-02 0.137E-03
CGA:   9    -0.706083089713E+03   -0.74608E-03   -0.74766E-03  8424   0.240E-02 0.734E-04
CGA:  10    -0.706083458362E+03   -0.36865E-03   -0.36877E-03  8424   0.969E-03 0.427E-04
CGA:  11    -0.706083662059E+03   -0.20370E-03   -0.20531E-03  8424   0.553E-03-0.295E-04
CGA:  12    -0.706083733477E+03   -0.71417E-04   -0.72056E-04  8424   0.312E-03 0.282E-04
CGA:  13    -0.706083783909E+03   -0.50432E-04   -0.50466E-04  8424   0.128E-03 0.221E-04
CGA:  14    -0.706083805331E+03   -0.21423E-04   -0.21420E-04  8424   0.513E-04 0.600E-05
CGA:  15    -0.706083813193E+03   -0.78614E-05   -0.79347E-05  8424   0.187E-04 0.940E-05
  18 F= -.70608381E+03 E0= -.70607233E+03  d E =0.461470E-02  mag=     0.8080
       N       E                     dE             d eps       ncg     rms          ort
SDA:   1    -0.704543674292E+03    0.15401E+01    0.00000E+00  8424   0.451E+01 0.000E+00
CGA:   2    -0.705481974878E+03   -0.93830E+00   -0.93467E+00  8424   0.243E+01 0.501E-01
CGA:   3    -0.705903797927E+03   -0.42182E+00   -0.42257E+00  8424   0.133E+01-0.262E-01
CGA:   4    -0.706039356965E+03   -0.13556E+00   -0.13401E+00  8424   0.316E+00-0.420E-02
CGA:   5    -0.706083708105E+03   -0.44351E-01   -0.44342E-01  8424   0.757E-01-0.299E-03
CGA:   6    -0.706095171145E+03   -0.11463E-01   -0.11463E-01  8424   0.207E-01 0.232E-03
CGA:   7    -0.706098081044E+03   -0.29099E-02   -0.29081E-02  8424   0.104E-01-0.133E-03
CGA:   8    -0.706099275482E+03   -0.11944E-02   -0.11961E-02  8424   0.314E-02 0.303E-04
CGA:   9    -0.706099807282E+03   -0.53180E-03   -0.53139E-03  8424   0.124E-02 0.222E-04
CGA:  10    -0.706100028811E+03   -0.22153E-03   -0.22190E-03  8424   0.605E-03-0.147E-04
CGA:  11    -0.706100116319E+03   -0.87509E-04   -0.87322E-04  8424   0.405E-03-0.313E-04
CGA:  12    -0.706100169454E+03   -0.53135E-04   -0.53120E-04  8424   0.151E-03-0.128E-05
CGA:  13    -0.706100200455E+03   -0.31001E-04   -0.31151E-04  8424   0.736E-04-0.274E-05
CGA:  14    -0.706100213550E+03   -0.13095E-04   -0.13498E-04  8424   0.469E-04-0.123E-04
CGA:  15    -0.706100219919E+03   -0.63686E-05   -0.66319E-05  8424   0.428E-04-0.186E-04
  19 F= -.70610022E+03 E0= -.70608891E+03  d E =-.164067E-01  mag=     0.8061
       N       E                     dE             d eps       ncg     rms          ort
SDA:   1    -0.705936380248E+03    0.16383E+00    0.00000E+00  8424   0.541E+00 0.000E+00
CGA:   2    -0.706040664406E+03   -0.10428E+00   -0.10427E+00  8424   0.221E+00 0.412E-03
CGA:   3    -0.706087999417E+03   -0.47335E-01   -0.47327E-01  8424   0.807E-01 0.552E-04
CGA:   4    -0.706099589551E+03   -0.11590E-01   -0.11590E-01  8424   0.312E-01 0.109E-04
CGA:   5    -0.706102908372E+03   -0.33188E-02   -0.33215E-02  8424   0.989E-02-0.367E-04
CGA:   6    -0.706104216968E+03   -0.13086E-02   -0.13091E-02  8424   0.202E-02 0.198E-04
CGA:   7    -0.706104596690E+03   -0.37972E-03   -0.38191E-03  8424   0.812E-03-0.648E-04
CGA:   8    -0.706104681219E+03   -0.84530E-04   -0.85408E-04  8424   0.352E-03 0.182E-04
CGA:   9    -0.706104740052E+03   -0.58833E-04   -0.58722E-04  8424   0.103E-03 0.119E-04
CGA:  10    -0.706104760696E+03   -0.20644E-04   -0.21592E-04  8424   0.861E-04-0.197E-04
CGA:  11    -0.706104770448E+03   -0.97521E-05   -0.95307E-05  8424   0.361E-04-0.112E-04
  20 F= -.70610477E+03 E0= -.70609353E+03  d E =-.455053E-02  mag=     0.8080
       N       E                     dE             d eps       ncg     rms          ort
SDA:   1    -0.706077803444E+03    0.26957E-01    0.00000E+00  8424   0.851E-01 0.000E+00
CGA:   2    -0.706094841913E+03   -0.17038E-01   -0.17024E-01  8424   0.409E-01 0.291E-03
CGA:   3    -0.706102610564E+03   -0.77687E-02   -0.77771E-02  8424   0.203E-01-0.243E-03
CGA:   4    -0.706104769233E+03   -0.21587E-02   -0.21601E-02  8424   0.641E-02 0.517E-05
CGA:   5    -0.706105565680E+03   -0.79645E-03   -0.79586E-03  8424   0.162E-02-0.257E-04
CGA:   6    -0.706105801381E+03   -0.23570E-03   -0.23564E-03  8424   0.394E-03-0.747E-05
CGA:   7    -0.706105860764E+03   -0.59383E-04   -0.59398E-04  8424   0.161E-03 0.640E-05
CGA:   8    -0.706105879535E+03   -0.18771E-04   -0.19065E-04  8424   0.632E-04 0.790E-05
CGA:   9    -0.706105890086E+03   -0.10551E-04   -0.10584E-04  8424   0.287E-04-0.419E-05
CGA:  10    -0.706105893877E+03   -0.37914E-05   -0.38065E-05  8424   0.965E-05 0.154E-05
  21 F= -.70610589E+03 E0= -.70609463E+03  d E =-.112343E-02  mag=     0.8098
       N       E                     dE             d eps       ncg     rms          ort
SDA:   1    -0.705987744066E+03    0.11815E+00    0.00000E+00  8424   0.330E+00 0.000E+00
CGA:   2    -0.706060137239E+03   -0.72393E-01   -0.72372E-01  8424   0.207E+00 0.262E-03
CGA:   3    -0.706090743635E+03   -0.30606E-01   -0.30593E-01  8424   0.117E+00-0.520E-03
CGA:   4    -0.706103077822E+03   -0.12334E-01   -0.12327E-01  8424   0.210E-01-0.298E-03
CGA:   5    -0.706106406579E+03   -0.33288E-02   -0.33287E-02  8424   0.503E-02 0.350E-04
CGA:   6    -0.706107134000E+03   -0.72742E-03   -0.72741E-03  8424   0.205E-02-0.190E-05
CGA:   7    -0.706107351817E+03   -0.21782E-03   -0.21918E-03  8424   0.657E-03 0.270E-04
CGA:   8    -0.706107460785E+03   -0.10897E-03   -0.10889E-03  8424   0.198E-03 0.789E-05
CGA:   9    -0.706107491514E+03   -0.30729E-04   -0.30734E-04  8424   0.107E-03 0.721E-05
CGA:  10    -0.706107508268E+03   -0.16754E-04   -0.16744E-04  8424   0.545E-04-0.329E-05
CGA:  11    -0.706107514987E+03   -0.67190E-05   -0.67561E-05  8424   0.231E-04 0.139E-05
  22 F= -.70610751E+03 E0= -.70609625E+03  d E =-.162111E-02  mag=     0.8096
       N       E                     dE             d eps       ncg     rms          ort
SDA:   1    -0.705933918127E+03    0.17359E+00    0.00000E+00  8424   0.452E+00 0.000E+00
CGA:   2    -0.706045324109E+03   -0.11141E+00   -0.11140E+00  8424   0.272E+00 0.265E-04
CGA:   3    -0.706088423130E+03   -0.43099E-01   -0.43098E-01  8424   0.124E+00-0.327E-03
CGA:   4    -0.706100398318E+03   -0.11975E-01   -0.11988E-01  8424   0.290E-01-0.327E-03
CGA:   5    -0.706104701280E+03   -0.43030E-02   -0.43039E-02  8424   0.678E-02 0.899E-04
CGA:   6    -0.706105761352E+03   -0.10601E-02   -0.10601E-02  8424   0.228E-02 0.104E-05
CGA:   7    -0.706106031709E+03   -0.27036E-03   -0.27102E-03  8424   0.960E-03 0.148E-04
CGA:   8    -0.706106165318E+03   -0.13361E-03   -0.13348E-03  8424   0.308E-03-0.772E-05
CGA:   9    -0.706106212264E+03   -0.46946E-04   -0.46957E-04  8424   0.138E-03 0.113E-04
CGA:  10    -0.706106236616E+03   -0.24351E-04   -0.24315E-04  8424   0.702E-04 0.230E-05
CGA:  11    -0.706106246057E+03   -0.94413E-05   -0.94607E-05  8424   0.397E-04 0.817E-06
  23 F= -.70610625E+03 E0= -.70609498E+03  d E =0.126893E-02  mag=     0.8093
       N       E                     dE             d eps       ncg     rms          ort
SDA:   1    -0.705867494809E+03    0.23874E+00    0.00000E+00  8424   0.631E+00 0.000E+00
CGA:   2    -0.706024400767E+03   -0.15691E+00   -0.15688E+00  8424   0.358E+00 0.250E-03
CGA:   3    -0.706089337030E+03   -0.64936E-01   -0.64943E-01  8424   0.115E+00-0.351E-03
CGA:   4    -0.706101960152E+03   -0.12623E-01   -0.12634E-01  8424   0.409E-01-0.131E-03
CGA:   5    -0.706106724945E+03   -0.47648E-02   -0.47693E-02  8424   0.967E-02 0.111E-03
CGA:   6    -0.706108275943E+03   -0.15510E-02   -0.15509E-02  8424   0.248E-02 0.239E-04
CGA:   7    -0.706108664591E+03   -0.38865E-03   -0.38865E-03  8424   0.123E-02 0.364E-06
CGA:   8    -0.706108799447E+03   -0.13486E-03   -0.13493E-03  8424   0.394E-03 0.577E-06
CGA:   9    -0.706108864519E+03   -0.65072E-04   -0.64803E-04  8424   0.159E-03 0.276E-04
CGA:  10    -0.706108894570E+03   -0.30051E-04   -0.30026E-04  8424   0.799E-04 0.114E-05
CGA:  11    -0.706108906545E+03   -0.11975E-04   -0.12008E-04  8424   0.464E-04 0.476E-05
CGA:  12    -0.706108913614E+03   -0.70688E-05   -0.70983E-05  8424   0.233E-04 0.253E-05
  24 F= -.70610891E+03 E0= -.70609769E+03  d E =-.266756E-02  mag=     0.8066
       N       E                     dE             d eps       ncg     rms          ort
SDA:   1    -0.705336526762E+03    0.77238E+00    0.00000E+00  8424   0.211E+01 0.000E+00
CGA:   2    -0.705811465836E+03   -0.47494E+00   -0.47443E+00  8424   0.122E+01 0.592E-02
CGA:   3    -0.706018823024E+03   -0.20736E+00   -0.20737E+00  8424   0.615E+00-0.136E-02
CGA:   4    -0.706079195749E+03   -0.60373E-01   -0.60087E-01  8424   0.144E+00-0.616E-03
CGA:   5    -0.706099701617E+03   -0.20506E-01   -0.20507E-01  8424   0.330E-01 0.105E-03
CGA:   6    -0.706104803200E+03   -0.51016E-02   -0.51017E-02  8424   0.105E-01 0.102E-03
CGA:   7    -0.706106142792E+03   -0.13396E-02   -0.13388E-02  8424   0.491E-02-0.340E-04
CGA:   8    -0.706106755190E+03   -0.61240E-03   -0.61329E-03  8424   0.141E-02 0.270E-04
CGA:   9    -0.706106989753E+03   -0.23456E-03   -0.23397E-03  8424   0.599E-03 0.478E-04
CGA:  10    -0.706107094096E+03   -0.10434E-03   -0.10411E-03  8424   0.308E-03 0.155E-04
CGA:  11    -0.706107137395E+03   -0.43299E-04   -0.43160E-04  8424   0.182E-03-0.806E-05
CGA:  12    -0.706107166042E+03   -0.28647E-04   -0.28635E-04  8424   0.710E-04 0.144E-05
CGA:  13    -0.706107179121E+03   -0.13079E-04   -0.12894E-04  8424   0.361E-04 0.696E-05
CGA:  14    -0.706107184724E+03   -0.56026E-05   -0.56390E-05  8424   0.175E-04 0.291E-05
  25 F= -.70610718E+03 E0= -.70609604E+03  d E =0.172889E-02  mag=     0.8046
       N       E                     dE             d eps       ncg     rms          ort
SDA:   1    -0.705783124214E+03    0.32405E+00    0.00000E+00  8424   0.103E+01 0.000E+00
CGA:   2    -0.705981097063E+03   -0.19797E+00   -0.19779E+00  8424   0.459E+00 0.383E-02
CGA:   3    -0.706078761634E+03   -0.97665E-01   -0.97814E-01  8424   0.190E+00-0.212E-02
CGA:   4    -0.706104228118E+03   -0.25466E-01   -0.25525E-01  8424   0.612E-01 0.874E-03
CGA:   5    -0.706110814022E+03   -0.65859E-02   -0.65901E-02  8424   0.199E-01-0.690E-04
CGA:   6    -0.706113369980E+03   -0.25560E-02   -0.25554E-02  8424   0.434E-02-0.366E-04
CGA:   7    -0.706114137549E+03   -0.76757E-03   -0.76895E-03  8424   0.153E-02-0.575E-04
CGA:   8    -0.706114340010E+03   -0.20246E-03   -0.20281E-03  8424   0.701E-03 0.150E-04
CGA:   9    -0.706114432846E+03   -0.92836E-04   -0.92913E-04  8424   0.294E-03 0.305E-05
CGA:  10    -0.706114476294E+03   -0.43448E-04   -0.43470E-04  8424   0.101E-03 0.322E-05
CGA:  11    -0.706114496314E+03   -0.20020E-04   -0.20156E-04  8424   0.558E-04-0.304E-05
CGA:  12    -0.706114503448E+03   -0.71335E-05   -0.71561E-05  8424   0.306E-04 0.948E-06
  26 F= -.70611450E+03 E0= -.70610331E+03  d E =-.731872E-02  mag=     0.8044
       N       E                     dE             d eps       ncg     rms          ort
SDA:   1    -0.706050552409E+03    0.63944E-01    0.00000E+00  8424   0.206E+00 0.000E+00
CGA:   2    -0.706089919141E+03   -0.39367E-01   -0.39355E-01  8424   0.109E+00 0.263E-03
CGA:   3    -0.706105554797E+03   -0.15636E-01   -0.15632E-01  8424   0.658E-01-0.137E-03
CGA:   4    -0.706113273505E+03   -0.77187E-02   -0.77136E-02  8424   0.136E-01-0.193E-03
CGA:   5    -0.706115540507E+03   -0.22670E-02   -0.22674E-02  8424   0.343E-02-0.338E-04
CGA:   6    -0.706116014958E+03   -0.47445E-03   -0.47434E-03  8424   0.135E-02-0.898E-05
CGA:   7    -0.706116156075E+03   -0.14112E-03   -0.14182E-03  8424   0.388E-03 0.141E-04
CGA:   8    -0.706116224442E+03   -0.68367E-04   -0.68180E-04  8424   0.123E-03 0.809E-05
CGA:   9    -0.706116244197E+03   -0.19755E-04   -0.19721E-04  8424   0.686E-04 0.636E-05
CGA:  10    -0.706116254252E+03   -0.10055E-04   -0.10037E-04  8424   0.301E-04-0.140E-05
CGA:  11    -0.706116258427E+03   -0.41749E-05   -0.41833E-05  8424   0.139E-04 0.763E-06
  27 F= -.70611626E+03 E0= -.70610505E+03  d E =-.175498E-02  mag=     0.8037
       N       E                     dE             d eps       ncg     rms          ort
SDA:   1    -0.706090929182E+03    0.25325E-01    0.00000E+00  8424   0.756E-01 0.000E+00
CGA:   2    -0.706107105533E+03   -0.16176E-01   -0.16173E-01  8424   0.406E-01 0.476E-04
CGA:   3    -0.706114106455E+03   -0.70009E-02   -0.70008E-02  8424   0.225E-01 0.720E-05
CGA:   4    -0.706116331088E+03   -0.22246E-02   -0.22224E-02  8424   0.516E-02-0.781E-04
CGA:   5    -0.706117099213E+03   -0.76812E-03   -0.76794E-03  8424   0.117E-02-0.439E-04
CGA:   6    -0.706117275881E+03   -0.17667E-03   -0.17667E-03  8424   0.399E-03-0.261E-05
CGA:   7    -0.706117319173E+03   -0.43291E-04   -0.44017E-04  8424   0.152E-03 0.168E-04
CGA:   8    -0.706117342137E+03   -0.22964E-04   -0.23019E-04  8424   0.400E-04 0.916E-05
CGA:   9    -0.706117350271E+03   -0.81343E-05   -0.82282E-05  8424   0.268E-04-0.217E-05
  28 F= -.70611735E+03 E0= -.70610614E+03  d E =-.109184E-02  mag=     0.8032
       N       E                     dE             d eps       ncg     rms          ort
SDA:   1    -0.705953347741E+03    0.16399E+00    0.00000E+00  8424   0.441E+00 0.000E+00
CGA:   2    -0.706061321342E+03   -0.10797E+00   -0.10794E+00  8424   0.252E+00 0.305E-03
CGA:   3    -0.706105520895E+03   -0.44200E-01   -0.44207E-01  8424   0.104E+00-0.342E-03
CGA:   4    -0.706115493028E+03   -0.99721E-02   -0.99787E-02  8424   0.277E-01-0.308E-03
CGA:   5    -0.706119397009E+03   -0.39040E-02   -0.39026E-02  8424   0.640E-02-0.101E-03
CGA:   6    -0.706120405032E+03   -0.10080E-02   -0.10079E-02  8424   0.195E-02 0.228E-04
CGA:   7    -0.706120647644E+03   -0.24261E-03   -0.24431E-03  8424   0.910E-03 0.564E-04
CGA:   8    -0.706120767750E+03   -0.12011E-03   -0.12064E-03  8424   0.231E-03 0.220E-04
CGA:   9    -0.706120814714E+03   -0.46964E-04   -0.47717E-04  8424   0.160E-03-0.152E-04
CGA:  10    -0.706120834431E+03   -0.19717E-04   -0.19529E-04  8424   0.668E-04-0.805E-05
CGA:  11    -0.706120843984E+03   -0.95534E-05   -0.95601E-05  8424   0.336E-04 0.328E-05
  29 F= -.70612084E+03 E0= -.70610961E+03  d E =-.349371E-02  mag=     0.8032
       N       E                     dE             d eps       ncg     rms          ort
SDA:   1    -0.705824507039E+03    0.29633E+00    0.00000E+00  8424   0.806E+00 0.000E+00
CGA:   2    -0.706019223506E+03   -0.19472E+00   -0.19469E+00  8424   0.420E+00 0.207E-03
CGA:   3    -0.706101053696E+03   -0.81830E-01   -0.81829E-01  8424   0.125E+00-0.303E-04
CGA:   4    -0.706116062755E+03   -0.15009E-01   -0.15013E-01  8424   0.483E-01-0.221E-03
CGA:   5    -0.706121435774E+03   -0.53730E-02   -0.53660E-02  8424   0.123E-01-0.789E-04
CGA:   6    -0.706123297464E+03   -0.18617E-02   -0.18619E-02  8424   0.286E-02 0.407E-04
CGA:   7    -0.706123792093E+03   -0.49463E-03   -0.49313E-03  8424   0.135E-02 0.932E-04
CGA:   8    -0.706123943265E+03   -0.15117E-03   -0.15087E-03  8424   0.481E-03-0.726E-05
CGA:   9    -0.706124036570E+03   -0.93305E-04   -0.95228E-04  8424   0.250E-03-0.433E-04
CGA:  10    -0.706124068514E+03   -0.31944E-04   -0.31781E-04  8424   0.124E-03-0.991E-05
CGA:  11    -0.706124087309E+03   -0.18795E-04   -0.18792E-04  8424   0.583E-04 0.967E-06
CGA:  12    -0.706124098514E+03   -0.11205E-04   -0.11993E-04  8424   0.581E-04-0.164E-04
CGA:  13    -0.706124103876E+03   -0.53626E-05   -0.51500E-05  8424   0.173E-04-0.608E-05
  30 F= -.70612410E+03 E0= -.70611288E+03  d E =-.325989E-02  mag=     0.8057
       N       E                     dE             d eps       ncg     rms          ort
SDA:   1    -0.706068916031E+03    0.55182E-01    0.00000E+00  8424   0.164E+00 0.000E+00
CGA:   2    -0.706106542579E+03   -0.37627E-01   -0.37608E-01  8424   0.836E-01 0.220E-03
CGA:   3    -0.706121604667E+03   -0.15062E-01   -0.15065E-01  8424   0.325E-01-0.102E-03
CGA:   4    -0.706125035965E+03   -0.34313E-02   -0.34365E-02  8424   0.110E-01 0.946E-04
CGA:   5    -0.706126440930E+03   -0.14050E-02   -0.14064E-02  8424   0.269E-02 0.377E-04
CGA:   6    -0.706126866444E+03   -0.42551E-03   -0.42553E-03  8424   0.694E-03-0.219E-04
CGA:   7    -0.706126970752E+03   -0.10431E-03   -0.10420E-03  8424   0.350E-03-0.204E-04
CGA:   8    -0.706127008738E+03   -0.37985E-04   -0.38141E-04  8424   0.111E-03 0.336E-05
CGA:   9    -0.706127026994E+03   -0.18256E-04   -0.18198E-04  8424   0.444E-04 0.701E-05
CGA:  10    -0.706127034616E+03   -0.76218E-05   -0.75839E-05  8424   0.152E-04 0.587E-05
  31 F= -.70612703E+03 E0= -.70611580E+03  d E =-.293074E-02  mag=     0.8054
       N       E                     dE             d eps       ncg     rms          ort
SDA:   1    -0.706100851885E+03    0.26175E-01    0.00000E+00  8424   0.786E-01 0.000E+00
CGA:   2    -0.706118003738E+03   -0.17152E-01   -0.17142E-01  8424   0.548E-01 0.134E-03
CGA:   3    -0.706125280548E+03   -0.72768E-02   -0.72737E-02  8424   0.282E-01-0.889E-05
CGA:   4    -0.706128574410E+03   -0.32939E-02   -0.32907E-02  8424   0.463E-02-0.874E-04
CGA:   5    -0.706129330711E+03   -0.75630E-03   -0.75656E-03  8424   0.130E-02-0.455E-04
CGA:   6    -0.706129501283E+03   -0.17057E-03   -0.17018E-03  8424   0.501E-03-0.153E-04
CGA:   7    -0.706129555535E+03   -0.54252E-04   -0.55054E-04  8424   0.154E-03 0.174E-04
CGA:   8    -0.706129579326E+03   -0.23791E-04   -0.23847E-04  8424   0.444E-04 0.122E-04
CGA:   9    -0.706129588538E+03   -0.92119E-05   -0.94229E-05  8424   0.276E-04-0.501E-05
  32 F= -.70612959E+03 E0= -.70611834E+03  d E =-.255392E-02  mag=     0.8048
       N       E                     dE             d eps       ncg     rms          ort
SDA:   1    -0.704991217567E+03    0.11384E+01    0.00000E+00  8424   0.314E+01 0.000E+00
CGA:   2    -0.705712727435E+03   -0.72151E+00   -0.72131E+00  8424   0.166E+01 0.238E-02
CGA:   3    -0.706048911067E+03   -0.33618E+00   -0.33619E+00  8424   0.499E+00-0.313E-03
CGA:   4    -0.706113473147E+03   -0.64562E-01   -0.64604E-01  8424   0.172E+00-0.125E-03
CGA:   5    -0.706131884583E+03   -0.18411E-01   -0.18374E-01  8424   0.509E-01-0.228E-03
CGA:   6    -0.706138888693E+03   -0.70041E-02   -0.70015E-02  8424   0.119E-01-0.131E-03
CGA:   7    -0.706141028860E+03   -0.21402E-02   -0.21376E-02  8424   0.466E-02 0.107E-03
CGA:   8    -0.706141590421E+03   -0.56156E-03   -0.56228E-03  8424   0.199E-02 0.162E-04
CGA:   9    -0.706141882441E+03   -0.29202E-03   -0.29211E-03  8424   0.842E-03 0.943E-05
CGA:  10    -0.706142019785E+03   -0.13734E-03   -0.13744E-03  8424   0.355E-03-0.141E-04
CGA:  11    -0.706142083477E+03   -0.63692E-04   -0.63886E-04  8424   0.217E-03-0.718E-05
CGA:  12    -0.706142112776E+03   -0.29299E-04   -0.29074E-04  8424   0.123E-03-0.111E-04
CGA:  13    -0.706142132176E+03   -0.19400E-04   -0.19444E-04  8424   0.453E-04-0.425E-05
CGA:  14    -0.706142139682E+03   -0.75052E-05   -0.74930E-05  8424   0.217E-04 0.819E-06
  33 F= -.70614214E+03 E0= -.70613084E+03  d E =-.125511E-01  mag=     0.8057
       N       E                     dE             d eps       ncg     rms          ort
SDA:   1    -0.705934080402E+03    0.20805E+00    0.00000E+00  8424   0.672E+00 0.000E+00
CGA:   2    -0.706063602922E+03   -0.12952E+00   -0.12947E+00  8424   0.278E+00 0.106E-02
CGA:   3    -0.706123194044E+03   -0.59591E-01   -0.59606E-01  8424   0.104E+00-0.258E-03
CGA:   4    -0.706138097435E+03   -0.14903E-01   -0.14910E-01  8424   0.375E-01 0.253E-03
CGA:   5    -0.706142148201E+03   -0.40508E-02   -0.40560E-02  8424   0.121E-01 0.504E-04
CGA:   6    -0.706143739114E+03   -0.15909E-02   -0.15911E-02  8424   0.263E-02 0.260E-05
CGA:   7    -0.706144223761E+03   -0.48465E-03   -0.48725E-03  8424   0.986E-03-0.857E-04
CGA:   8    -0.706144339533E+03   -0.11577E-03   -0.11609E-03  8424   0.450E-03 0.856E-05
CGA:   9    -0.706144403717E+03   -0.64184E-04   -0.64489E-04  8424   0.157E-03 0.237E-04
CGA:  10    -0.706144428931E+03   -0.25214E-04   -0.25222E-04  8424   0.642E-04 0.476E-05
CGA:  11    -0.706144442607E+03   -0.13677E-04   -0.14222E-04  8424   0.422E-04-0.895E-05
CGA:  12    -0.706144446018E+03   -0.34113E-05   -0.37277E-05  8424   0.175E-04 0.575E-05
  34 F= -.70614445E+03 E0= -.70613316E+03  d E =-.230634E-02  mag=     0.8045
       N       E                     dE             d eps       ncg     rms          ort
SDA:   1    -0.706082033898E+03    0.62409E-01    0.00000E+00  8424   0.186E+00 0.000E+00
CGA:   2    -0.706122293113E+03   -0.40259E-01   -0.40259E-01  8424   0.989E-01-0.289E-04
CGA:   3    -0.706138759572E+03   -0.16466E-01   -0.16467E-01  8424   0.520E-01-0.117E-03
CGA:   4    -0.706143920431E+03   -0.51609E-02   -0.51604E-02  8424   0.123E-01 0.312E-04
CGA:   5    -0.706145791179E+03   -0.18707E-02   -0.18708E-02  8424   0.284E-02 0.445E-04
CGA:   6    -0.706146231676E+03   -0.44050E-03   -0.44048E-03  8424   0.888E-03 0.443E-04
CGA:   7    -0.706146338225E+03   -0.10655E-03   -0.10703E-03  8424   0.391E-03 0.129E-04
CGA:   8    -0.706146392033E+03   -0.53808E-04   -0.53955E-04  8424   0.107E-03 0.894E-05
CGA:   9    -0.706146413702E+03   -0.21669E-04   -0.22173E-04  8424   0.709E-04-0.982E-05
CGA:  10    -0.706146421679E+03   -0.79764E-05   -0.79483E-05  8424   0.274E-04-0.937E-06
  35 F= -.70614642E+03 E0= -.70613515E+03  d E =-.197566E-02  mag=     0.8046
       N       E                     dE             d eps       ncg     rms          ort
SDA:   1    -0.706130175935E+03    0.16238E-01    0.00000E+00  8424   0.518E-01 0.000E+00
CGA:   2    -0.706140638899E+03   -0.10463E-01   -0.10472E-01  8424   0.312E-01-0.172E-03
CGA:   3    -0.706145103081E+03   -0.44642E-02   -0.44645E-02  8424   0.174E-01 0.104E-04
CGA:   4    -0.706147077169E+03   -0.19741E-02   -0.19749E-02  8424   0.357E-02 0.201E-05
CGA:   5    -0.706147610935E+03   -0.53377E-03   -0.53387E-03  8424   0.904E-03 0.267E-04
CGA:   6    -0.706147742489E+03   -0.13155E-03   -0.13161E-03  8424   0.280E-03 0.662E-05
CGA:   7    -0.706147775482E+03   -0.32993E-04   -0.33354E-04  8424   0.113E-03 0.105E-04
CGA:   8    -0.706147791446E+03   -0.15964E-04   -0.15989E-04  8424   0.360E-04 0.166E-05
CGA:   9    -0.706147798255E+03   -0.68090E-05   -0.70011E-05  8424   0.200E-04-0.456E-05
  36 F= -.70614780E+03 E0= -.70613653E+03  d E =-.137658E-02  mag=     0.8046
       N       E                     dE             d eps       ncg     rms          ort
SDA:   1    -0.706062036470E+03    0.85755E-01    0.00000E+00  8424   0.237E+00 0.000E+00
CGA:   2    -0.706118562824E+03   -0.56526E-01   -0.56553E-01  8424   0.155E+00-0.319E-03
CGA:   3    -0.706141152423E+03   -0.22590E-01   -0.22593E-01  8424   0.802E-01 0.130E-03
CGA:   4    -0.706149275119E+03   -0.81227E-02   -0.81273E-02  8424   0.140E-01-0.595E-04
CGA:   5    -0.706151550066E+03   -0.22749E-02   -0.22752E-02  8424   0.348E-02-0.303E-04
CGA:   6    -0.706152049220E+03   -0.49915E-03   -0.49938E-03  8424   0.135E-02 0.218E-04
CGA:   7    -0.706152198986E+03   -0.14977E-03   -0.15095E-03  8424   0.465E-03 0.279E-04
CGA:   8    -0.706152272104E+03   -0.73118E-04   -0.73103E-04  8424   0.141E-03 0.451E-05
CGA:   9    -0.706152295824E+03   -0.23720E-04   -0.23828E-04  8424   0.843E-04-0.657E-05
CGA:  10    -0.706152308129E+03   -0.12304E-04   -0.12313E-04  8424   0.445E-04-0.732E-05
CGA:  11    -0.706152313063E+03   -0.49345E-05   -0.49735E-05  8424   0.172E-04 0.130E-05
  37 F= -.70615231E+03 E0= -.70614107E+03  d E =-.451481E-02  mag=     0.8042
       N       E                     dE             d eps       ncg     rms          ort
SDA:   1    -0.705362086346E+03    0.79022E+00    0.00000E+00  8424   0.201E+01 0.000E+00
CGA:   2    -0.705901514529E+03   -0.53943E+00   -0.53942E+00  8424   0.111E+01-0.113E-03
CGA:   3    -0.706104304844E+03   -0.20279E+00   -0.20281E+00  8424   0.248E+00-0.370E-03
CGA:   4    -0.706142944946E+03   -0.38640E-01   -0.38642E-01  8424   0.676E-01 0.291E-03
CGA:   5    -0.706152063811E+03   -0.91189E-02   -0.91200E-02  8424   0.284E-01 0.264E-04
CGA:   6    -0.706154997474E+03   -0.29337E-02   -0.29378E-02  8424   0.760E-02 0.639E-04
CGA:   7    -0.706156352488E+03   -0.13550E-02   -0.13547E-02  8424   0.188E-02 0.171E-04
CGA:   8    -0.706156699856E+03   -0.34737E-03   -0.34757E-03  8424   0.116E-02-0.841E-05
CGA:   9    -0.706156839242E+03   -0.13939E-03   -0.13943E-03  8424   0.489E-03 0.749E-06
CGA:  10    -0.706156917051E+03   -0.77809E-04   -0.77781E-04  8424   0.236E-03 0.112E-04
CGA:  11    -0.706156960901E+03   -0.43850E-04   -0.44121E-04  8424   0.113E-03-0.103E-04
CGA:  12    -0.706156982154E+03   -0.21253E-04   -0.21443E-04  8424   0.818E-04-0.479E-05
CGA:  13    -0.706156991673E+03   -0.95185E-05   -0.93499E-05  8424   0.329E-04-0.415E-05
  38 F= -.70615699E+03 E0= -.70614582E+03  d E =-.467861E-02  mag=     0.8035
       N       E                     dE             d eps       ncg     rms          ort
SDA:   1    -0.705753062828E+03    0.40392E+00    0.00000E+00  8424   0.107E+01 0.000E+00
CGA:   2    -0.706011794622E+03   -0.25873E+00   -0.25854E+00  8424   0.608E+00 0.194E-02
CGA:   3    -0.706117169484E+03   -0.10537E+00   -0.10541E+00  8424   0.252E+00-0.203E-02
CGA:   4    -0.706142163028E+03   -0.24994E-01   -0.24927E-01  8424   0.696E-01-0.643E-04
CGA:   5    -0.706151629779E+03   -0.94668E-02   -0.94654E-02  8424   0.164E-01-0.365E-04
CGA:   6    -0.706154190199E+03   -0.25604E-02   -0.25605E-02  8424   0.480E-02 0.639E-05
CGA:   7    -0.706154849287E+03   -0.65909E-03   -0.65833E-03  8424   0.231E-02-0.334E-04
CGA:   8    -0.706155120968E+03   -0.27168E-03   -0.27217E-03  8424   0.692E-03 0.111E-04
CGA:   9    -0.706155236262E+03   -0.11529E-03   -0.11509E-03  8424   0.296E-03 0.216E-04
CGA:  10    -0.706155289851E+03   -0.53589E-04   -0.53530E-04  8424   0.143E-03 0.306E-05
CGA:  11    -0.706155310972E+03   -0.21122E-04   -0.21090E-04  8424   0.944E-04-0.292E-05
CGA:  12    -0.706155324573E+03   -0.13600E-04   -0.13605E-04  8424   0.359E-04 0.459E-06
CGA:  13    -0.706155332016E+03   -0.74433E-05   -0.74518E-05  8424   0.191E-04-0.195E-06
  39 F= -.70615533E+03 E0= -.70614411E+03  d E =0.165966E-02  mag=     0.8043
       N       E                     dE             d eps       ncg     rms          ort
SDA:   1    -0.706092023356E+03    0.63301E-01    0.00000E+00  8424   0.188E+00 0.000E+00
CGA:   2    -0.706133732280E+03   -0.41709E-01   -0.41686E-01  8424   0.101E+00 0.315E-03
CGA:   3    -0.706151383899E+03   -0.17652E-01   -0.17650E-01  8424   0.508E-01 0.739E-04
CGA:   4    -0.706156344372E+03   -0.49605E-02   -0.49562E-02  8424   0.123E-01-0.135E-04
CGA:   5    -0.706158159277E+03   -0.18149E-02   -0.18136E-02  8424   0.304E-02-0.121E-03
CGA:   6    -0.706158614253E+03   -0.45498E-03   -0.45482E-03  8424   0.913E-03-0.244E-04
CGA:   7    -0.706158729037E+03   -0.11478E-03   -0.11490E-03  8424   0.411E-03 0.368E-05
CGA:   8    -0.706158780677E+03   -0.51640E-04   -0.52048E-04  8424   0.120E-03 0.135E-04
CGA:   9    -0.706158801769E+03   -0.21092E-04   -0.21113E-04  8424   0.570E-04-0.130E-05
CGA:  10    -0.706158811378E+03   -0.96086E-05   -0.96515E-05  8424   0.287E-04-0.267E-05
  40 F= -.70615881E+03 E0= -.70614757E+03  d E =-.347936E-02  mag=     0.8047
       N       E                     dE             d eps       ncg     rms          ort
SDA:   1    -0.706151149282E+03    0.76525E-02    0.00000E+00  8424   0.250E-01 0.000E+00
CGA:   2    -0.706155404785E+03   -0.42555E-02   -0.42558E-02  8424   0.196E-01-0.325E-04
CGA:   3    -0.706157738346E+03   -0.23336E-02   -0.23331E-02  8424   0.738E-02-0.955E-05
CGA:   4    -0.706158911256E+03   -0.11729E-02   -0.11730E-02  8424   0.139E-02-0.309E-04
CGA:   5    -0.706159136315E+03   -0.22506E-03   -0.22486E-03  8424   0.434E-03 0.253E-04
CGA:   6    -0.706159186505E+03   -0.50191E-04   -0.50440E-04  8424   0.157E-03 0.584E-05
CGA:   7    -0.706159206265E+03   -0.19760E-04   -0.19820E-04  8424   0.455E-04 0.206E-05
CGA:   8    -0.706159214223E+03   -0.79578E-05   -0.80453E-05  8424   0.210E-04-0.383E-05
  41 F= -.70615921E+03 E0= -.70614799E+03  d E =-.402845E-03  mag=     0.8045
       N       E                     dE             d eps       ncg     rms          ort
SDA:   1    -0.706150034041E+03    0.91722E-02    0.00000E+00  8424   0.272E-01 0.000E+00
CGA:   2    -0.706155907670E+03   -0.58736E-02   -0.58702E-02  8424   0.198E-01 0.461E-04
CGA:   3    -0.706158390635E+03   -0.24830E-02   -0.24818E-02  8424   0.944E-02-0.556E-04
CGA:   4    -0.706159545144E+03   -0.11545E-02   -0.11541E-02  8424   0.160E-02-0.182E-04
CGA:   5    -0.706159807364E+03   -0.26222E-03   -0.26186E-03  8424   0.429E-03 0.272E-04
CGA:   6    -0.706159863898E+03   -0.56534E-04   -0.56720E-04  8424   0.170E-03 0.812E-05
CGA:   7    -0.706159885025E+03   -0.21127E-04   -0.20989E-04  8424   0.588E-04-0.470E-05
CGA:   8    -0.706159893549E+03   -0.85240E-05   -0.85236E-05  8424   0.202E-04-0.108E-05
  42 F= -.70615989E+03 E0= -.70614867E+03  d E =-.679326E-03  mag=     0.8043
       N       E                     dE             d eps       ncg     rms          ort
SDA:   1    -0.706137658185E+03    0.22227E-01    0.00000E+00  8424   0.642E-01 0.000E+00
CGA:   2    -0.706151509409E+03   -0.13851E-01   -0.13848E-01  8424   0.494E-01 0.316E-04
CGA:   3    -0.706157399560E+03   -0.58902E-02   -0.58889E-02  8424   0.216E-01-0.101E-04
CGA:   4    -0.706160194303E+03   -0.27947E-02   -0.27940E-02  8424   0.359E-02-0.429E-04
CGA:   5    -0.706160799274E+03   -0.60497E-03   -0.60403E-03  8424   0.102E-02 0.510E-04
CGA:   6    -0.706160927049E+03   -0.12777E-03   -0.12797E-03  8424   0.424E-03 0.591E-05
CGA:   7    -0.706160978601E+03   -0.51552E-04   -0.51420E-04  8424   0.122E-03-0.471E-05
CGA:   8    -0.706160999688E+03   -0.21088E-04   -0.21327E-04  8424   0.527E-04-0.833E-05
CGA:   9    -0.706161005172E+03   -0.54841E-05   -0.56749E-05  8424   0.192E-04 0.557E-05
  43 F= -.70616101E+03 E0= -.70614979E+03  d E =-.111162E-02  mag=     0.8043
       N       E                     dE             d eps       ncg     rms          ort
SDA:   1    -0.706119962847E+03    0.41037E-01    0.00000E+00  8424   0.120E+00 0.000E+00
CGA:   2    -0.706145979467E+03   -0.26017E-01   -0.26013E-01  8424   0.662E-01 0.506E-04
CGA:   3    -0.706157335976E+03   -0.11357E-01   -0.11357E-01  8424   0.357E-01-0.224E-04
CGA:   4    -0.706160839133E+03   -0.35032E-02   -0.35062E-02  8424   0.816E-02 0.184E-04
CGA:   5    -0.706162025096E+03   -0.11860E-02   -0.11864E-02  8424   0.183E-02 0.874E-04
CGA:   6    -0.706162313931E+03   -0.28883E-03   -0.28892E-03  8424   0.587E-03-0.132E-04
CGA:   7    -0.706162387860E+03   -0.73929E-04   -0.73775E-04  8424   0.274E-03-0.691E-05
CGA:   8    -0.706162423180E+03   -0.35319E-04   -0.35209E-04  8424   0.852E-04-0.599E-05
CGA:   9    -0.706162436020E+03   -0.12841E-04   -0.12824E-04  8424   0.335E-04 0.282E-05
CGA:  10    -0.706162441780E+03   -0.57595E-05   -0.57066E-05  8424   0.141E-04 0.324E-05
  44 F= -.70616244E+03 E0= -.70615123E+03  d E =-.143661E-02  mag=     0.8047
       N       E                     dE             d eps       ncg     rms          ort
SDA:   1    -0.706149397648E+03    0.13038E-01    0.00000E+00  8424   0.377E-01 0.000E+00
CGA:   2    -0.706156194725E+03   -0.67971E-02   -0.67950E-02  8424   0.310E-01 0.531E-04
CGA:   3    -0.706159833385E+03   -0.36387E-02   -0.36395E-02  8424   0.113E-01-0.139E-05
CGA:   4    -0.706161593665E+03   -0.17603E-02   -0.17602E-02  8424   0.205E-02 0.111E-04
CGA:   5    -0.706161938576E+03   -0.34491E-03   -0.34503E-03  8424   0.644E-03-0.704E-05
CGA:   6    -0.706162011295E+03   -0.72719E-04   -0.72498E-04  8424   0.244E-03-0.608E-05
CGA:   7    -0.706162042682E+03   -0.31387E-04   -0.31260E-04  8424   0.703E-04-0.687E-05
CGA:   8    -0.706162053380E+03   -0.10698E-04   -0.10677E-04  8424   0.254E-04 0.220E-05
CGA:   9    -0.706162057567E+03   -0.41871E-05   -0.41995E-05  8424   0.137E-04-0.994E-06
  45 F= -.70616206E+03 E0= -.70615083E+03  d E =0.384213E-03  mag=     0.8051
       N       E                     dE             d eps       ncg     rms          ort
SDA:   1    -0.706159550975E+03    0.25024E-02    0.00000E+00  8424   0.873E-02 0.000E+00
CGA:   2    -0.706161100217E+03   -0.15492E-02   -0.15509E-02  8424   0.731E-02-0.527E-04
CGA:   3    -0.706161965297E+03   -0.86508E-03   -0.86496E-03  8424   0.269E-02-0.127E-04
CGA:   4    -0.706162370404E+03   -0.40511E-03   -0.40493E-03  8424   0.487E-03 0.433E-04
CGA:   5    -0.706162450642E+03   -0.80238E-04   -0.80318E-04  8424   0.149E-03-0.536E-05
CGA:   6    -0.706162468649E+03   -0.18007E-04   -0.18148E-04  8424   0.468E-04 0.570E-05
CGA:   7    -0.706162474709E+03   -0.60604E-05   -0.60445E-05  8424   0.198E-04-0.761E-06
  46 F= -.70616247E+03 E0= -.70615125E+03  d E =-.417142E-03  mag=     0.8053
