       N       E                     dE             d eps       ncg     rms          ort
DAV:   1     0.102851285122E+05    0.10285E+05   -0.42437E+05 10640   0.155E+03
DAV:   2    -0.116475840464E+03   -0.10402E+05   -0.98147E+04 10640   0.474E+02
DAV:   3    -0.152220735042E+04   -0.14057E+04   -0.13108E+04 10640   0.182E+02
DAV:   4    -0.160416293581E+04   -0.81956E+02   -0.79731E+02 10640   0.461E+01
DAV:   5    -0.160650212321E+04   -0.23392E+01   -0.23317E+01 10640   0.835E+00
SDA:   6    -0.729282660505E+03    0.87722E+03   -0.23317E+01 10640   0.289E+04 0.000E+00
CGA:   7    -0.114163854022E+04   -0.41236E+03   -0.40808E+03 10640   0.826E+03-0.112E+02
CGA:   8    -0.116665526520E+04   -0.25017E+02   -0.44365E+02 10640   0.946E+03-0.392E+03
CGA:   9    -0.120137950566E+04   -0.34724E+02   -0.25721E+02 10640   0.452E+03-0.362E+02
CGA:  10    -0.121824687899E+04   -0.16867E+02   -0.29391E+02 10640   0.486E+03-0.135E+03
CGA:  11    -0.123438934150E+04   -0.16142E+02   -0.17335E+02 10640   0.458E+03-0.640E+02
CGA:  12    -0.123483706225E+04   -0.44772E+00   -0.18608E+02 10640   0.691E+03-0.296E+03
CGA:  13    -0.123563080239E+04   -0.79374E+00   -0.31648E+02 10640   0.901E+03-0.595E+03
CGA:  14    -0.123734388617E+04   -0.17131E+01   -0.38128E+02 10640   0.936E+03-0.775E+03
CGA:  15    -0.124218233881E+04   -0.48385E+01   -0.36154E+02 10640   0.971E+03-0.920E+03
CGA:  16    -0.124205091785E+04    0.13142E+00   -0.38500E+02 10640   0.970E+03-0.854E+03
CGA:  17    -0.124811325071E+04   -0.60623E+01   -0.35270E+02 10640   0.926E+03-0.955E+03
CGA:  18    -0.125002628608E+04   -0.19130E+01   -0.34231E+02 10640   0.868E+03-0.808E+03
CGA:  19    -0.125575287276E+04   -0.57266E+01   -0.30391E+02 10640   0.687E+03-0.742E+03
CGA:  20    -0.126176452281E+04   -0.60117E+01   -0.22981E+02 10640   0.471E+03-0.551E+03
CGA:  21    -0.126732780887E+04   -0.55633E+01   -0.14708E+02 10640   0.211E+03-0.277E+03
CGA:  22    -0.127121396377E+04   -0.38862E+01   -0.56127E+01 10640   0.435E+02-0.713E+02
CGA:  23    -0.127305018969E+04   -0.18362E+01   -0.20012E+01 10640   0.263E+02-0.753E+00
CGA:  24    -0.127473857646E+04   -0.16884E+01   -0.18315E+01 10640   0.260E+02-0.330E+00
CGA:  25    -0.127744830020E+04   -0.27097E+01   -0.27313E+01 10640   0.101E+02 0.389E+01
CGA:  26    -0.127816950675E+04   -0.72121E+00   -0.73165E+00 10640   0.600E+01-0.366E+00
CGA:  27    -0.127957034328E+04   -0.14008E+01   -0.13115E+01 10640   0.558E+01 0.529E+00
CGA:  28    -0.128010154182E+04   -0.53120E+00   -0.54075E+00 10640   0.289E+01-0.254E+00
CGA:  29    -0.128071551266E+04   -0.61397E+00   -0.74743E+00 10640   0.695E+01-0.676E+00
CGA:  30    -0.128128866294E+04   -0.57315E+00   -0.56732E+00 10640   0.132E+01-0.760E+00
CGA:  31    -0.128146868130E+04   -0.18002E+00   -0.85873E-01 10640   0.964E+01-0.992E+00
CGA:  32    -0.128225578563E+04   -0.78710E+00   -0.92002E+00 10640   0.122E+01-0.616E+00
CGA:  33    -0.128243130153E+04   -0.17552E+00   -0.17790E+00 10640   0.636E+00 0.274E-01
CGA:  34    -0.128263518009E+04   -0.20388E+00   -0.19833E+00 10640   0.438E+00 0.549E-01
CGA:  35    -0.128276568532E+04   -0.13051E+00   -0.12915E+00 10640   0.241E+00 0.171E-01
CGA:  36    -0.128281937924E+04   -0.53694E-01   -0.53688E-01 10640   0.130E+00-0.461E-02
CGA:  37    -0.128285795321E+04   -0.38574E-01   -0.40902E-01 10640   0.140E+00-0.214E-01
CGA:  38    -0.128288425907E+04   -0.26306E-01   -0.26419E-01 10640   0.856E-01-0.221E-01
CGA:  39    -0.128290870652E+04   -0.24447E-01   -0.30357E-01 10640   0.108E+00-0.284E-01
CGA:  40    -0.128292441971E+04   -0.15713E-01   -0.15175E-01 10640   0.501E-01-0.274E-01
CGA:  41    -0.128294196630E+04   -0.17547E-01    0.19530E+00 10640   0.222E-01 0.724E-02
CGA:  42    -0.128295391074E+04   -0.11944E-01    0.14136E+00 10640   0.156E-01 0.553E-02
CGA:  43    -0.128296313093E+04   -0.92202E-02    0.80151E-01 10640   0.104E-01 0.542E-02
CGA:  44    -0.128292624516E+04    0.36886E-01   -0.20472E-01 10640   0.316E+00-0.459E-01
CGA:  45    -0.128296616454E+04   -0.39919E-01   -0.40041E-01 10640   0.385E-01 0.897E-02
CGA:  46    -0.128297283032E+04   -0.66658E-02   -0.76056E-02 10640   0.206E-01 0.452E-02
CGA:  47    -0.128297647526E+04   -0.36449E-02   -0.49273E-02 10640   0.900E-02 0.719E-02
CGA:  48    -0.128297727855E+04   -0.80328E-03   -0.20496E-02 10640   0.379E-02 0.581E-02
CGA:  49    -0.128297739431E+04   -0.11577E-03   -0.53082E-03 10640   0.216E-02 0.178E-02
CGA:  50    -0.128297724445E+04    0.14986E-03   -0.40754E-03 10640   0.166E-02 0.238E-02
CGA:  51    -0.128297719058E+04    0.53876E-04   -0.20333E-03 10640   0.115E-02 0.113E-02
CGA:  52    -0.128297708852E+04    0.10206E-03   -0.12951E-03 10640   0.968E-03 0.102E-02
CGA:  53    -0.128297698178E+04    0.10674E-03   -0.97615E-04 10640   0.849E-03 0.900E-03
CGA:  54    -0.128297687913E+04    0.10265E-03   -0.77453E-04 10640   0.758E-03 0.799E-03
CGA:  55    -0.128297678232E+04    0.96808E-04   -0.62876E-04 10640   0.685E-03 0.718E-03
CGA:  56    -0.128297669197E+04    0.90350E-04   -0.51982E-04 10640   0.624E-03 0.652E-03
CGA:  57    -0.128297660809E+04    0.83879E-04   -0.43617E-04 10640   0.574E-03 0.597E-03
CGA:  58    -0.128297653044E+04    0.77657E-04   -0.37067E-04 10640   0.532E-03 0.551E-03
CGA:  59    -0.128297645862E+04    0.71812E-04   -0.31853E-04 10640   0.495E-03 0.512E-03
CGA:  60    -0.128297639223E+04    0.66394E-04   -0.27641E-04 10640   0.464E-03 0.479E-03
CGA:  61    -0.128297633082E+04    0.61409E-04   -0.24195E-04 10640   0.437E-03 0.450E-03
CGA:  62    -0.128297627398E+04    0.56844E-04   -0.21343E-04 10640   0.414E-03 0.425E-03
CGA:  63    -0.128297622130E+04    0.52673E-04   -0.18959E-04 10640   0.393E-03 0.403E-03
CGA:  64    -0.128297617244E+04    0.48868E-04   -0.16945E-04 10640   0.375E-03 0.383E-03
CGA:  65    -0.128297612704E+04    0.45394E-04   -0.15231E-04 10640   0.358E-03 0.366E-03
CGA:  66    -0.128297608482E+04    0.42223E-04   -0.13759E-04 10640   0.344E-03 0.351E-03
CGA:  67    -0.128297604549E+04    0.39325E-04   -0.12485E-04 10640   0.331E-03 0.337E-03
CGA:  68    -0.128297600882E+04    0.36674E-04   -0.11377E-04 10640   0.319E-03 0.325E-03
CGA:  69    -0.128297597458E+04    0.34245E-04   -0.10405E-04 10640   0.309E-03 0.314E-03
CGA:  70    -0.128297594256E+04    0.32015E-04   -0.95493E-05 10640   0.299E-03 0.304E-03
CGA:  71    -0.128297591259E+04    0.29966E-04   -0.87905E-05 10640   0.290E-03 0.295E-03
CGA:  72    -0.128297588451E+04    0.28080E-04   -0.81148E-05 10640   0.282E-03 0.286E-03
CGA:  73    -0.128297585817E+04    0.26342E-04   -0.75102E-05 10640   0.275E-03 0.279E-03
CGA:  74    -0.128297583344E+04    0.24736E-04   -0.69670E-05 10640   0.269E-03 0.272E-03
CGA:  75    -0.128297581018E+04    0.23251E-04   -0.64770E-05 10640   0.262E-03 0.265E-03
CGA:  76    -0.128297578831E+04    0.21875E-04   -0.60333E-05 10640   0.257E-03 0.260E-03
CGA:  77    -0.128297576771E+04    0.20599E-04   -0.56301E-05 10640   0.252E-03 0.254E-03
CGA:  78    -0.128297574830E+04    0.19414E-04   -0.52627E-05 10640   0.247E-03 0.249E-03
CGA:  79    -0.128297572998E+04    0.18311E-04   -0.49269E-05 10640   0.242E-03 0.244E-03
CGA:  80    -0.128297571270E+04    0.17285E-04   -0.46190E-05 10640   0.238E-03 0.240E-03
CGA:  81    -0.128297569637E+04    0.16327E-04   -0.43360E-05 10640   0.234E-03 0.236E-03
CGA:  82    -0.128297568094E+04    0.15433E-04   -0.40754E-05 10640   0.231E-03 0.232E-03
CGA:  83    -0.128297566634E+04    0.14597E-04   -0.38347E-05 10640   0.227E-03 0.229E-03
CGA:  84    -0.128297565253E+04    0.13815E-04   -0.36121E-05 10640   0.224E-03 0.226E-03
CGA:  85    -0.128297563945E+04    0.13083E-04   -0.34057E-05 10640   0.221E-03 0.223E-03
CGA:  86    -0.128297562705E+04    0.12395E-04   -0.32140E-05 10640   0.218E-03 0.220E-03
CGA:  87    -0.128297561530E+04    0.11751E-04   -0.30357E-05 10640   0.216E-03 0.217E-03
CGA:  88    -0.128297560415E+04    0.11145E-04   -0.28695E-05 10640   0.213E-03 0.215E-03
CGA:  89    -0.128297559358E+04    0.10576E-04   -0.27145E-05 10640   0.211E-03 0.212E-03
CGA:  90    -0.128297558354E+04    0.10040E-04   -0.25696E-05 10640   0.209E-03 0.210E-03
CGA:  91    -0.128297557400E+04    0.95356E-05   -0.24340E-05 10640   0.207E-03 0.208E-03
   1 F= -.12829756E+04 E0= -.12829755E+04  d E =-.128298E+04  mag=    47.0000
       N       E                     dE             d eps       ncg     rms          ort
SDA:   1    -0.128297463543E+04    0.94811E-03    0.00000E+00 10640   0.359E-02 0.000E+00
CGA:   2    -0.128297530774E+04   -0.67231E-03   -0.56624E-03 10640   0.117E-02 0.113E-02
CGA:   3    -0.128297557215E+04   -0.26441E-03   -0.20753E-03 10640   0.510E-03 0.848E-03
CGA:   4    -0.128297563172E+04   -0.59575E-04   -0.49890E-04 10640   0.300E-03 0.371E-03
CGA:   5    -0.128297565218E+04   -0.20459E-04   -0.21133E-04 10640   0.239E-03 0.265E-03
CGA:   6    -0.128297566352E+04   -0.11336E-04   -0.14230E-04 10640   0.202E-03 0.218E-03
CGA:   7    -0.128297567039E+04   -0.68733E-05   -0.10586E-04 10640   0.177E-03 0.188E-03
   2 F= -.12829757E+04 E0= -.12829756E+04  d E =-.963902E-04  mag=    47.0000
       N       E                     dE             d eps       ncg     rms          ort
SDA:   1    -0.128297424332E+04    0.14202E-02    0.00000E+00 10640   0.859E-02 0.000E+00
CGA:   2    -0.128297643306E+04   -0.21897E-02   -0.21872E-02 10640   0.431E-02 0.152E-04
CGA:   3    -0.128297732848E+04   -0.89542E-03   -0.86153E-03 10640   0.820E-03 0.282E-03
CGA:   4    -0.128297743848E+04   -0.11000E-03   -0.10144E-03 10640   0.182E-03 0.276E-03
CGA:   5    -0.128297746118E+04   -0.22704E-04   -0.22112E-04 10640   0.101E-03 0.150E-03
CGA:   6    -0.128297747010E+04   -0.89160E-05   -0.88567E-05 10640   0.717E-04 0.815E-04
   3 F= -.12829775E+04 E0= -.12829774E+04  d E =-.179971E-02  mag=    47.0000
       N       E                     dE             d eps       ncg     rms          ort
SDA:   1    -0.127141312939E+04    0.11564E+02    0.00000E+00 10640   0.329E+02 0.000E+00
CGA:   2    -0.127899041678E+04   -0.75773E+01   -0.75844E+01 10640   0.149E+02-0.424E-01
CGA:   3    -0.128221428154E+04   -0.32239E+01   -0.32089E+01 10640   0.358E+01 0.120E+00
CGA:   4    -0.128274251590E+04   -0.52823E+00   -0.52834E+00 10640   0.704E+00 0.561E-02
CGA:   5    -0.128286884243E+04   -0.12633E+00   -0.12653E+00 10640   0.206E+00-0.191E-02
CGA:   6    -0.128290381127E+04   -0.34969E-01   -0.34862E-01 10640   0.609E-01 0.195E-02
CGA:   7    -0.128291655584E+04   -0.12745E-01   -0.12818E-01 10640   0.202E-01-0.656E-03
CGA:   8    -0.128292099394E+04   -0.44381E-02   -0.51342E-02 10640   0.142E-01-0.485E-02
CGA:   9    -0.128292304922E+04   -0.20553E-02   -0.20425E-02 10640   0.535E-02 0.212E-03
CGA:  10    -0.128292454719E+04   -0.14980E-02   -0.14462E-02 10640   0.266E-02 0.368E-03
CGA:  11    -0.128292488933E+04   -0.34215E-03   -0.14136E-02 10640   0.106E-01-0.292E-02
CGA:  12    -0.128292581518E+04   -0.92585E-03   -0.10115E-02 10640   0.121E-02 0.163E-02
CGA:  13    -0.128292614106E+04   -0.32588E-03   -0.30530E-03 10640   0.928E-03 0.285E-03
CGA:  14    -0.128292614222E+04   -0.11562E-05   -0.58190E-03 10640   0.528E-02-0.163E-02
CGA:  15    -0.128292659141E+04   -0.44919E-03   -0.53157E-03 10640   0.983E-03 0.124E-02
CGA:  16    -0.128292677968E+04   -0.18828E-03   -0.19169E-03 10640   0.555E-03 0.479E-03
CGA:  17    -0.128292697021E+04   -0.19053E-03   -0.20510E-03 10640   0.525E-03-0.175E-03
CGA:  18    -0.128292701332E+04   -0.43107E-04   -0.49390E-04 10640   0.584E-03 0.197E-03
CGA:  19    -0.128292713049E+04   -0.11717E-03   -0.12340E-03 10640   0.561E-03 0.450E-03
CGA:  20    -0.128292732182E+04   -0.19133E-03    0.20992E-02 10640   0.295E-03 0.240E-03
CGA:  21    -0.128292748155E+04   -0.15973E-03   -0.14638E-03 10640   0.186E-03 0.722E-04
CGA:  22    -0.128292758634E+04   -0.10479E-03   -0.77227E-04 10640   0.256E-03 0.174E-03
CGA:  23    -0.128292767291E+04   -0.86568E-04   -0.18907E-03 10640   0.147E-02-0.185E-03
CGA:  24    -0.128292775480E+04   -0.81889E-04   -0.12319E-03 10640   0.172E-03 0.330E-03
CGA:  25    -0.128292776834E+04   -0.13540E-04   -0.22952E-04 10640   0.143E-03 0.984E-04
CGA:  26    -0.128292783695E+04   -0.68609E-04    0.70621E-04 10640   0.128E-03 0.730E-04
CGA:  27    -0.128292784302E+04   -0.60687E-05   -0.14018E-04 10640   0.921E-04 0.877E-04
CGA:  28    -0.128292803784E+04   -0.19482E-03   -0.17408E-03 10640   0.277E-03 0.572E-04
CGA:  29    -0.128292804086E+04   -0.30249E-05   -0.24307E-04 10640   0.767E-04 0.797E-04
CGA:  30    -0.128292804357E+04   -0.27035E-05   -0.15117E-04 10640   0.113E-03 0.650E-04
CGA:  31    -0.128292806435E+04   -0.20787E-04   -0.64575E-04 10640   0.142E-02-0.183E-03
CGA:  32    -0.128292813469E+04   -0.70334E-04   -0.11381E-03 10640   0.709E-04 0.170E-03
CGA:  33    -0.128292813183E+04    0.28569E-05   -0.82910E-05 10640   0.655E-04 0.489E-04
CGA:  34    -0.128292807251E+04    0.59317E-04   -0.46393E-04 10640   0.395E-02-0.122E-03
CGA:  35    -0.128292832875E+04   -0.25624E-03   -0.32949E-03 10640   0.500E-04 0.174E-03
CGA:  36    -0.128292832137E+04    0.73859E-05   -0.66979E-05 10640   0.434E-04 0.326E-04
CGA:  37    -0.128292802753E+04    0.29384E-03   -0.16071E-03 10640   0.701E-02-0.157E-03
CGA:  38    -0.128292848959E+04   -0.46206E-03   -0.59694E-03 10640   0.718E-04 0.277E-03
CGA:  39    -0.128292847863E+04    0.10958E-04   -0.89686E-05 10640   0.333E-04 0.246E-04
CGA:  40    -0.128292849040E+04   -0.11764E-04   -0.16202E-04 10640   0.538E-04 0.814E-05
CGA:  41    -0.128292853865E+04   -0.48253E-04   -0.26859E-04 10640   0.198E-03-0.461E-04
CGA:  42    -0.128292852366E+04    0.14991E-04   -0.23267E-04 10640   0.572E-04 0.533E-04
CGA:  43    -0.128292852579E+04   -0.21365E-05   -0.16161E-04 10640   0.309E-04 0.238E-04
CGA:  44    -0.128292855407E+04   -0.28280E-04   -0.14777E-04 10640   0.926E-04-0.305E-04
CGA:  45    -0.128292854241E+04    0.11661E-04   -0.82550E-05 10640   0.215E-04 0.301E-04
CGA:  46    -0.128292853779E+04    0.46258E-05   -0.37008E-05 10640   0.215E-04 0.140E-04
CGA:  47    -0.128292858903E+04   -0.51239E-04    0.10571E-04 10640   0.276E-03-0.350E-04
CGA:  48    -0.128292857209E+04    0.16935E-04   -0.21733E-04 10640   0.219E-04 0.646E-04
CGA:  49    -0.128292856482E+04    0.72754E-05   -0.15518E-05 10640   0.111E-04 0.146E-04
   4 F= -.12829286E+04 E0= -.12829284E+04  d E =0.489053E-01  mag=    47.0000
       N       E                     dE             d eps       ncg     rms          ort
SDA:   1    -0.127850134241E+04    0.44272E+01    0.00000E+00 10640   0.130E+02 0.000E+00
CGA:   2    -0.128147262691E+04   -0.29713E+01   -0.29722E+01 10640   0.562E+01 0.114E-01
CGA:   3    -0.128275244164E+04   -0.12798E+01   -0.12818E+01 10640   0.123E+01-0.298E-02
CGA:   4    -0.128294303588E+04   -0.19059E+00   -0.18994E+00 10640   0.247E+00 0.636E-02
CGA:   5    -0.128298757439E+04   -0.44539E-01   -0.44422E-01 10640   0.773E-01-0.834E-03
CGA:   6    -0.128300061025E+04   -0.13036E-01   -0.12851E-01 10640   0.228E-01-0.531E-03
CGA:   7    -0.128300558032E+04   -0.49701E-02   -0.49206E-02 10640   0.624E-02-0.133E-03
CGA:   8    -0.128300717740E+04   -0.15971E-02   -0.15199E-02 10640   0.342E-02-0.302E-03
CGA:   9    -0.128300797207E+04   -0.79467E-03   -0.73417E-03 10640   0.200E-02-0.226E-03
CGA:  10    -0.128300857173E+04   -0.59966E-03   -0.53134E-03 10640   0.137E-02-0.357E-03
CGA:  11    -0.128300901126E+04   -0.43953E-03   -0.35678E-03 10640   0.156E-02-0.559E-03
CGA:  12    -0.128300933632E+04   -0.32506E-03   -0.22578E-03 10640   0.862E-03-0.466E-03
CGA:  13    -0.128300962737E+04   -0.29104E-03   -0.38452E-03 10640   0.171E-02-0.501E-03
CGA:  14    -0.128300999940E+04   -0.37204E-03   -0.31890E-03 10640   0.887E-03-0.195E-03
CGA:  15    -0.128301013120E+04   -0.13179E-03   -0.15361E-03 10640   0.312E-03 0.891E-04
CGA:  16    -0.128301015017E+04   -0.18969E-04   -0.54304E-04 10640   0.155E-03 0.130E-03
CGA:  17    -0.128301019309E+04   -0.42922E-04   -0.54531E-04 10640   0.126E-03 0.681E-04
CGA:  18    -0.128301022885E+04   -0.35762E-04   -0.40030E-04 10640   0.105E-03 0.222E-04
CGA:  19    -0.128301023385E+04   -0.50013E-05   -0.20652E-04 10640   0.657E-04 0.669E-04
CGA:  20    -0.128301023745E+04   -0.35982E-05   -0.10173E-04 10640   0.346E-04 0.282E-04
CGA:  21    -0.128301025596E+04   -0.18510E-04   -0.18536E-04 10640   0.479E-04 0.153E-04
CGA:  22    -0.128301016671E+04    0.89252E-04   -0.12611E-03 10640   0.149E-02-0.153E-03
CGA:  23    -0.128301030011E+04   -0.13340E-03   -0.20017E-03 10640   0.225E-03 0.218E-03
CGA:  24    -0.128301038481E+04   -0.84697E-04   -0.82997E-04 10640   0.129E-03-0.151E-04
CGA:  25    -0.128301042972E+04   -0.44912E-04   -0.32424E-04 10640   0.105E-03-0.781E-04
CGA:  26    -0.128301043415E+04   -0.44336E-05   -0.12344E-04 10640   0.271E-04 0.265E-04
CGA:  27    -0.128301044558E+04   -0.11425E-04   -0.10857E-04 10640   0.256E-04-0.670E-05
CGA:  28    -0.128301048317E+04   -0.37592E-04    0.26813E-05 10640   0.537E-04-0.274E-04
CGA:  29    -0.128301047976E+04    0.34132E-05   -0.53793E-05 10640   0.208E-04 0.294E-04
   5 F= -.12830105E+04 E0= -.12830104E+04  d E =-.819149E-01  mag=    47.0000
       N       E                     dE             d eps       ncg     rms          ort
SDA:   1    -0.128296024145E+04    0.50242E-01    0.00000E+00 10640   0.162E+00 0.000E+00
CGA:   2    -0.128299802647E+04   -0.37785E-01   -0.38002E-01 10640   0.689E-01 0.154E-02
CGA:   3    -0.128301450459E+04   -0.16478E-01   -0.16185E-01 10640   0.168E-01-0.212E-02
CGA:   4    -0.128301716280E+04   -0.26582E-02   -0.25779E-02 10640   0.353E-02-0.373E-03
CGA:   5    -0.128301784883E+04   -0.68603E-03   -0.63237E-03 10640   0.115E-02-0.309E-03
CGA:   6    -0.128301809742E+04   -0.24859E-03   -0.20927E-03 10640   0.545E-03-0.265E-03
CGA:   7    -0.128301817581E+04   -0.78395E-04   -0.76320E-04 10640   0.124E-03-0.123E-04
CGA:   8    -0.128301820801E+04   -0.32202E-04   -0.31731E-04 10640   0.551E-04-0.674E-05
CGA:   9    -0.128301828102E+04   -0.73009E-04    0.75099E-05 10640   0.422E-04-0.850E-05
CGA:  10    -0.128301831571E+04   -0.34692E-04    0.12187E-04 10640   0.477E-04-0.147E-04
CGA:  11    -0.128301843756E+04   -0.12185E-03    0.10245E-05 10640   0.373E-04-0.147E-04
CGA:  12    -0.128301851475E+04   -0.77184E-04    0.11831E-05 10640   0.262E-04 0.138E-05
CGA:  13    -0.128301854769E+04   -0.32941E-04    0.52744E-05 10640   0.207E-04 0.227E-05
CGA:  14    -0.128301859474E+04   -0.47058E-04    0.16924E-05 10640   0.210E-04-0.439E-06
CGA:  15    -0.128301860066E+04   -0.59198E-05   -0.11632E-04 10640   0.761E-04-0.242E-04
CGA:  16    -0.128301862389E+04   -0.23228E-04   -0.15878E-04 10640   0.915E-04-0.557E-04
CGA:  17    -0.128301861984E+04    0.40550E-05   -0.54061E-05 10640   0.152E-04 0.347E-04
   6 F= -.12830186E+04 E0= -.12830186E+04  d E =-.814008E-02  mag=    47.0000
       N       E                     dE             d eps       ncg     rms          ort
SDA:   1    -0.128112486367E+04    0.18938E+01    0.00000E+00 10640   0.506E+01 0.000E+00
CGA:   2    -0.128247498176E+04   -0.13501E+01   -0.13504E+01 10640   0.222E+01 0.102E-01
CGA:   3    -0.128294262603E+04   -0.46764E+00   -0.46679E+00 10640   0.470E+00-0.164E-01
CGA:   4    -0.128302416132E+04   -0.81535E-01   -0.81055E-01 10640   0.917E-01-0.354E-02
CGA:   5    -0.128304163865E+04   -0.17477E-01   -0.17306E-01 10640   0.228E-01-0.170E-02
CGA:   6    -0.128304636968E+04   -0.47310E-02   -0.45779E-02 10640   0.106E-01-0.183E-02
CGA:   7    -0.128304807591E+04   -0.17062E-02   -0.16918E-02 10640   0.276E-02-0.109E-03
CGA:   8    -0.128304889791E+04   -0.82200E-03   -0.84140E-03 10640   0.220E-02-0.637E-03
CGA:   9    -0.128304892397E+04   -0.26065E-04   -0.96425E-03 10640   0.108E-01-0.320E-02
CGA:  10    -0.128304995833E+04   -0.10344E-02   -0.11300E-02 10640   0.129E-02 0.581E-03
CGA:  11    -0.128305042688E+04   -0.46856E-03   -0.59952E-03 10640   0.159E-02-0.835E-03
CGA:  12    -0.128305069219E+04   -0.26531E-03   -0.24189E-03 10640   0.503E-03-0.164E-03
CGA:  13    -0.128305076645E+04   -0.74258E-04   -0.76748E-04 10640   0.105E-03 0.223E-04
CGA:  14    -0.128305083176E+04   -0.65308E-04    0.21642E-03 10640   0.113E-03 0.146E-04
CGA:  15    -0.128305098707E+04   -0.15531E-03    0.15417E-04 10640   0.823E-04 0.584E-04
CGA:  16    -0.128305100304E+04   -0.15969E-04   -0.45400E-04 10640   0.535E-03-0.108E-03
CGA:  17    -0.128305110568E+04   -0.10265E-03   -0.75950E-04 10640   0.151E-03-0.175E-03
CGA:  18    -0.128305112228E+04   -0.16591E-04   -0.18110E-04 10640   0.434E-04 0.144E-04
CGA:  19    -0.128305114152E+04   -0.19240E-04   -0.24280E-04 10640   0.192E-03-0.219E-04
CGA:  20    -0.128305115841E+04   -0.16893E-04   -0.82805E-04 10640   0.145E-02-0.469E-03
CGA:  21    -0.128305122846E+04   -0.70054E-04   -0.12681E-03 10640   0.792E-04 0.276E-03
CGA:  22    -0.128305122975E+04   -0.12909E-05   -0.75381E-05 10640   0.207E-04 0.302E-04
CGA:  23    -0.128305117434E+04    0.55418E-04   -0.29198E-04 10640   0.102E-02-0.114E-03
CGA:  24    -0.128305131695E+04   -0.14261E-03   -0.13431E-03 10640   0.243E-04-0.415E-04
CGA:  25    -0.128305131521E+04    0.17375E-05   -0.17893E-05 10640   0.134E-04 0.154E-04
   7 F= -.12830513E+04 E0= -.12830513E+04  d E =-.326954E-01  mag=    47.0000
       N       E                     dE             d eps       ncg     rms          ort
SDA:   1    -0.128219690294E+04    0.85441E+00    0.00000E+00 10640   0.225E+01 0.000E+00
CGA:   2    -0.128276939131E+04   -0.57249E+00   -0.57263E+00 10640   0.107E+01 0.460E-02
CGA:   3    -0.128299073745E+04   -0.22135E+00   -0.22091E+00 10640   0.246E+00-0.726E-02
CGA:   4    -0.128302636143E+04   -0.35624E-01   -0.35784E-01 10640   0.509E-01 0.176E-02
CGA:   5    -0.128303605697E+04   -0.96955E-02   -0.95831E-02 10640   0.137E-01-0.113E-02
CGA:   6    -0.128303867440E+04   -0.26174E-02   -0.25576E-02 10640   0.457E-02-0.665E-03
CGA:   7    -0.128303949116E+04   -0.81676E-03   -0.83147E-03 10640   0.129E-02 0.182E-03
CGA:   8    -0.128303989027E+04   -0.39911E-03   -0.41548E-03 10640   0.114E-02-0.425E-03
CGA:   9    -0.128304007035E+04   -0.18008E-03   -0.17326E-03 10640   0.629E-03-0.145E-03
CGA:  10    -0.128304019884E+04   -0.12849E-03   -0.29488E-03 10640   0.142E-02-0.626E-03
CGA:  11    -0.128304046981E+04   -0.27098E-03   -0.25773E-03 10640   0.436E-03-0.128E-03
CGA:  12    -0.128304051989E+04   -0.50080E-04   -0.55183E-04 10640   0.125E-03 0.373E-04
CGA:  13    -0.128304057890E+04   -0.59008E-04   -0.70364E-04 10640   0.245E-03-0.467E-04
CGA:  14    -0.128304054717E+04    0.31732E-04   -0.85270E-04 10640   0.133E-02-0.433E-03
CGA:  15    -0.128304065189E+04   -0.10472E-03   -0.13850E-03 10640   0.238E-03 0.178E-03
CGA:  16    -0.128304071779E+04   -0.65894E-04   -0.67628E-04 10640   0.130E-03 0.458E-04
CGA:  17    -0.128304076431E+04   -0.46522E-04   -0.57436E-04 10640   0.371E-03-0.129E-03
CGA:  18    -0.128304077350E+04   -0.91907E-05   -0.29768E-04 10640   0.480E-04 0.988E-04
   8 F= -.12830408E+04 E0= -.12830408E+04  d E =0.105417E-01  mag=    47.0000
       N       E                     dE             d eps       ncg     rms          ort
SDA:   1    -0.125414474094E+04    0.28896E+02    0.00000E+00 10640   0.773E+02 0.000E+00
CGA:   2    -0.127369411251E+04   -0.19549E+02   -0.19550E+02 10640   0.345E+02 0.413E-01
CGA:   3    -0.128129197594E+04   -0.75979E+01   -0.76001E+01 10640   0.669E+01-0.137E-01
CGA:   4    -0.128241976577E+04   -0.11278E+01   -0.11265E+01 10640   0.140E+01-0.101E-01
CGA:   5    -0.128267643310E+04   -0.25667E+00   -0.25649E+00 10640   0.388E+00-0.406E-02
CGA:   6    -0.128274714785E+04   -0.70715E-01   -0.70329E-01 10640   0.143E+00-0.405E-02
CGA:   7    -0.128277727312E+04   -0.30125E-01   -0.29975E-01 10640   0.397E-01-0.328E-02
CGA:   8    -0.128278779691E+04   -0.10524E-01   -0.10567E-01 10640   0.226E-01-0.205E-02
CGA:   9    -0.128279356915E+04   -0.57722E-02   -0.58624E-02 10640   0.182E-01-0.434E-02
CGA:  10    -0.128279730488E+04   -0.37357E-02   -0.37355E-02 10640   0.989E-02-0.406E-02
CGA:  11    -0.128279962293E+04   -0.23181E-02   -0.30876E-02 10640   0.127E-01-0.519E-02
CGA:  12    -0.128280118347E+04   -0.15605E-02   -0.15827E-02 10640   0.367E-02 0.219E-03
CGA:  13    -0.128280224943E+04   -0.10660E-02   -0.10536E-02 10640   0.178E-02 0.447E-03
CGA:  14    -0.128280294432E+04   -0.69489E-03   -0.67927E-03 10640   0.175E-02 0.183E-03
CGA:  15    -0.128280364907E+04   -0.70475E-03   -0.72244E-03 10640   0.147E-02-0.158E-03
CGA:  16    -0.128280404123E+04   -0.39216E-03   -0.39012E-03 10640   0.135E-02 0.716E-04
CGA:  17    -0.128280453035E+04   -0.48912E-03   -0.49422E-03 10640   0.179E-02-0.747E-04
CGA:  18    -0.128280503771E+04   -0.50736E-03   -0.50422E-03 10640   0.151E-02 0.947E-04
CGA:  19    -0.128280560332E+04   -0.56561E-03   -0.55820E-03 10640   0.120E-02 0.663E-04
CGA:  20    -0.128280601576E+04   -0.41244E-03   -0.59045E-03 10640   0.303E-02-0.934E-03
CGA:  21    -0.128280620724E+04   -0.19148E-03   -0.29764E-03 10640   0.369E-03 0.580E-03
CGA:  22    -0.128280623526E+04   -0.28017E-04   -0.57532E-04 10640   0.228E-03 0.202E-03
CGA:  23    -0.128280626335E+04   -0.28098E-04   -0.15193E-03 10640   0.187E-02-0.313E-03
CGA:  24    -0.128280633761E+04   -0.74254E-04   -0.15574E-03 10640   0.132E-03 0.406E-03
CGA:  25    -0.128280632775E+04    0.98597E-05   -0.92603E-05 10640   0.585E-04 0.866E-04
   9 F= -.12828063E+04 E0= -.12828063E+04  d E =0.234446E+00  mag=    47.0000
       N       E                     dE             d eps       ncg     rms          ort
SDA:   1    -0.127986422959E+04    0.29421E+01    0.00000E+00 10640   0.940E+01 0.000E+00
CGA:   2    -0.128181239679E+04   -0.19482E+01   -0.19479E+01 10640   0.368E+01-0.593E-02
CGA:   3    -0.128269848076E+04   -0.88608E+00   -0.88616E+00 10640   0.986E+00 0.437E-02
CGA:   4    -0.128284584114E+04   -0.14736E+00   -0.14804E+00 10640   0.194E+00 0.699E-02
CGA:   5    -0.128287799649E+04   -0.32155E-01   -0.32466E-01 10640   0.525E-01 0.427E-02
CGA:   6    -0.128288731512E+04   -0.93186E-02   -0.94677E-02 10640   0.143E-01 0.220E-02
CGA:   7    -0.128289074839E+04   -0.34333E-02   -0.34369E-02 10640   0.416E-02 0.318E-03
CGA:   8    -0.128289167680E+04   -0.92841E-03   -0.92989E-03 10640   0.208E-02 0.685E-04
CGA:   9    -0.128289203683E+04   -0.36003E-03   -0.38537E-03 10640   0.778E-03 0.431E-03
CGA:  10    -0.128289215849E+04   -0.12166E-03   -0.15619E-03 10640   0.345E-03 0.479E-03
CGA:  11    -0.128289219004E+04   -0.31550E-04   -0.51017E-04 10640   0.209E-03 0.224E-03
CGA:  12    -0.128289219695E+04   -0.69079E-05   -0.25791E-04 10640   0.164E-03 0.176E-03
CGA:  13    -0.128289220319E+04   -0.62386E-05   -0.20890E-04 10640   0.140E-03 0.150E-03
CGA:  14    -0.128289220573E+04   -0.25429E-05   -0.16193E-04 10640   0.124E-03 0.131E-03
CGA:  15    -0.128289220727E+04   -0.15333E-05   -0.13772E-04 10640   0.112E-03 0.118E-03
CGA:  16    -0.128289220787E+04   -0.60585E-06   -0.11849E-04 10640   0.103E-03 0.108E-03
CGA:  17    -0.128289220790E+04   -0.31439E-07   -0.10406E-04 10640   0.963E-04 0.997E-04
  10 F= -.12828922E+04 E0= -.12828922E+04  d E =-.858802E-01  mag=    47.0000
       N       E                     dE             d eps       ncg     rms          ort
SDA:   1    -0.128278147085E+04    0.11074E+00    0.00000E+00 10640   0.375E+00 0.000E+00
CGA:   2    -0.128286046984E+04   -0.78999E-01   -0.79045E-01 10640   0.155E+00-0.259E-02
CGA:   3    -0.128289558019E+04   -0.35110E-01   -0.35029E-01 10640   0.421E-01 0.255E-02
CGA:   4    -0.128290203294E+04   -0.64527E-02   -0.64581E-02 10640   0.785E-02 0.155E-03
CGA:   5    -0.128290322137E+04   -0.11884E-02   -0.12213E-02 10640   0.200E-02 0.842E-03
CGA:   6    -0.128290357399E+04   -0.35261E-03   -0.36438E-03 10640   0.519E-03 0.418E-03
CGA:   7    -0.128290373230E+04   -0.15832E-03   -0.15406E-03 10640   0.205E-03 0.782E-04
CGA:   8    -0.128290374758E+04   -0.15277E-04   -0.26474E-04 10640   0.102E-03 0.138E-03
CGA:   9    -0.128290376344E+04   -0.15863E-04   -0.17253E-04 10640   0.590E-04 0.662E-04
CGA:  10    -0.128290377791E+04   -0.14466E-04   -0.12985E-04 10640   0.482E-04 0.468E-04
CGA:  11    -0.128290377923E+04   -0.13253E-05   -0.49653E-05 10640   0.415E-04 0.417E-04
  11 F= -.12829038E+04 E0= -.12829038E+04  d E =-.115713E-01  mag=    47.0000
       N       E                     dE             d eps       ncg     rms          ort
SDA:   1    -0.128234116517E+04    0.56261E+00    0.00000E+00 10640   0.154E+01 0.000E+00
CGA:   2    -0.128273725333E+04   -0.39609E+00   -0.39682E+00 10640   0.709E+00-0.958E-02
CGA:   3    -0.128288401948E+04   -0.14677E+00   -0.14660E+00 10640   0.146E+00 0.839E-02
CGA:   4    -0.128290818006E+04   -0.24161E-01   -0.24165E-01 10640   0.304E-01 0.235E-03
CGA:   5    -0.128291294718E+04   -0.47671E-02   -0.48499E-02 10640   0.740E-02 0.306E-02
CGA:   6    -0.128291429779E+04   -0.13506E-02   -0.13672E-02 10640   0.232E-02 0.949E-03
CGA:   7    -0.128291493283E+04   -0.63504E-03   -0.63829E-03 10640   0.926E-03-0.534E-04
CGA:   8    -0.128291501422E+04   -0.81387E-04   -0.10877E-03 10640   0.359E-03 0.408E-03
CGA:   9    -0.128291505526E+04   -0.41037E-04   -0.59860E-04 10640   0.219E-03 0.276E-03
CGA:  10    -0.128291512751E+04   -0.72253E-04   -0.94032E-04 10640   0.677E-03-0.867E-04
CGA:  11    -0.128291512468E+04    0.28337E-05   -0.26920E-04 10640   0.535E-03 0.234E-03
CGA:  12    -0.128291511362E+04    0.11060E-04   -0.35342E-04 10640   0.174E-03 0.338E-03
CGA:  13    -0.128291510797E+04    0.56527E-05   -0.98310E-05 10640   0.973E-04 0.125E-03
  12 F= -.12829151E+04 E0= -.12829151E+04  d E =-.113287E-01  mag=    47.0000
       N       E                     dE             d eps       ncg     rms          ort
SDA:   1    -0.128253322186E+04    0.38189E+00    0.00000E+00 10640   0.101E+01 0.000E+00
CGA:   2    -0.128280399796E+04   -0.27078E+00   -0.27170E+00 10640   0.475E+00-0.905E-02
CGA:   3    -0.128290048980E+04   -0.96492E-01   -0.96216E-01 10640   0.864E-01 0.896E-02
CGA:   4    -0.128291552876E+04   -0.15039E-01   -0.15035E-01 10640   0.182E-01-0.872E-03
CGA:   5    -0.128291828221E+04   -0.27534E-02   -0.28092E-02 10640   0.391E-02 0.299E-02
CGA:   6    -0.128291910621E+04   -0.82400E-03   -0.81945E-03 10640   0.142E-02 0.701E-03
CGA:   7    -0.128291948083E+04   -0.37463E-03   -0.37450E-03 10640   0.644E-03 0.385E-05
CGA:   8    -0.128291952248E+04   -0.41645E-04   -0.66322E-04 10640   0.278E-03 0.335E-03
CGA:   9    -0.128291954427E+04   -0.21788E-04   -0.32189E-04 10640   0.148E-03 0.184E-03
CGA:  10    -0.128291956651E+04   -0.22244E-04   -0.23488E-04 10640   0.988E-04 0.114E-03
CGA:  11    -0.128291956866E+04   -0.21472E-05   -0.91311E-05 10640   0.853E-04 0.908E-04
  13 F= -.12829196E+04 E0= -.12829196E+04  d E =-.446069E-02  mag=    47.0000
       N       E                     dE             d eps       ncg     rms          ort
SDA:   1    -0.127413764426E+04    0.87819E+01    0.00000E+00 10640   0.222E+02 0.000E+00
CGA:   2    -0.128036788821E+04   -0.62302E+01   -0.62334E+01 10640   0.104E+02-0.250E-01
CGA:   3    -0.128248688804E+04   -0.21190E+01   -0.21191E+01 10640   0.186E+01 0.539E-02
CGA:   4    -0.128280066499E+04   -0.31378E+00   -0.31378E+00 10640   0.383E+00-0.303E-02
CGA:   5    -0.128287279096E+04   -0.72126E-01   -0.71873E-01 10640   0.852E-01 0.144E-01
CGA:   6    -0.128289248534E+04   -0.19694E-01   -0.19796E-01 10640   0.322E-01-0.183E-02
CGA:   7    -0.128289836824E+04   -0.58829E-02   -0.58606E-02 10640   0.948E-02 0.172E-02
CGA:   8    -0.128290071235E+04   -0.23441E-02   -0.23295E-02 10640   0.540E-02 0.260E-03
CGA:   9    -0.128290183033E+04   -0.11180E-02   -0.11079E-02 10640   0.303E-02 0.447E-03
CGA:  10    -0.128290236633E+04   -0.53599E-03   -0.54805E-03 10640   0.111E-02 0.115E-02
CGA:  11    -0.128290260018E+04   -0.23385E-03   -0.24675E-03 10640   0.633E-03 0.793E-03
CGA:  12    -0.128290270569E+04   -0.10551E-03   -0.10730E-03 10640   0.474E-03 0.260E-03
CGA:  13    -0.128290277018E+04   -0.64493E-04   -0.87339E-04 10640   0.300E-03 0.505E-03
CGA:  14    -0.128290278402E+04   -0.13839E-04   -0.30958E-04 10640   0.240E-03 0.242E-03
CGA:  15    -0.128290280716E+04   -0.23134E-04   -0.31789E-04 10640   0.221E-03 0.228E-03
CGA:  16    -0.128290282404E+04   -0.16879E-04   -0.26831E-04 10640   0.207E-03 0.213E-03
CGA:  17    -0.128290283957E+04   -0.15531E-04   -0.24811E-04 10640   0.196E-03 0.201E-03
CGA:  18    -0.128290285322E+04   -0.13652E-04   -0.22726E-04 10640   0.186E-03 0.191E-03
CGA:  19    -0.128290286564E+04   -0.12415E-04   -0.21104E-04 10640   0.177E-03 0.182E-03
CGA:  20    -0.128290287696E+04   -0.11323E-04   -0.19659E-04 10640   0.170E-03 0.173E-03
CGA:  21    -0.128290288739E+04   -0.10427E-04   -0.18399E-04 10640   0.163E-03 0.166E-03
CGA:  22    -0.128290289704E+04   -0.96559E-05   -0.17274E-04 10640   0.156E-03 0.159E-03
CGA:  23    -0.128290290603E+04   -0.89853E-05   -0.16262E-04 10640   0.150E-03 0.153E-03
CGA:  24    -0.128290291442E+04   -0.83927E-05   -0.15344E-04 10640   0.145E-03 0.147E-03
CGA:  25    -0.128290292228E+04   -0.78645E-05   -0.14508E-04 10640   0.140E-03 0.142E-03
CGA:  26    -0.128290292968E+04   -0.73925E-05   -0.13743E-04 10640   0.135E-03 0.137E-03
CGA:  27    -0.128290293665E+04   -0.69679E-05   -0.13040E-04 10640   0.131E-03 0.133E-03
CGA:  28    -0.128290294323E+04   -0.65853E-05   -0.12393E-04 10640   0.127E-03 0.129E-03
CGA:  29    -0.128290294947E+04   -0.62400E-05   -0.11796E-04 10640   0.123E-03 0.125E-03
CGA:  30    -0.128290295540E+04   -0.59269E-05   -0.11243E-04 10640   0.119E-03 0.121E-03
CGA:  31    -0.128290296104E+04   -0.56459E-05   -0.10731E-04 10640   0.116E-03 0.117E-03
CGA:  32    -0.128290296644E+04   -0.53923E-05   -0.10255E-04 10640   0.113E-03 0.114E-03
  14 F= -.12829030E+04 E0= -.12829030E+04  d E =0.166022E-01  mag=    47.0000
       N       E                     dE             d eps       ncg     rms          ort
SDA:   1    -0.127488623933E+04    0.80167E+01    0.00000E+00 10640   0.218E+02 0.000E+00
CGA:   2    -0.128021044878E+04   -0.53242E+01   -0.53271E+01 10640   0.101E+02-0.226E-01
CGA:   3    -0.128246616838E+04   -0.22557E+01   -0.22529E+01 10640   0.191E+01 0.292E-01
CGA:   4    -0.128277472564E+04   -0.30856E+00   -0.30869E+00 10640   0.380E+00-0.726E-02
CGA:   5    -0.128284521457E+04   -0.70489E-01   -0.69939E-01 10640   0.101E+00 0.126E-01
CGA:   6    -0.128286443964E+04   -0.19225E-01   -0.19281E-01 10640   0.416E-01-0.118E-02
CGA:   7    -0.128287165375E+04   -0.72141E-02   -0.72589E-02 10640   0.146E-01-0.128E-02
CGA:   8    -0.128287404261E+04   -0.23889E-02   -0.23673E-02 10640   0.536E-02 0.969E-03
CGA:   9    -0.128287561013E+04   -0.15675E-02   -0.16086E-02 10640   0.343E-02-0.293E-03
CGA:  10    -0.128287625555E+04   -0.64542E-03   -0.61871E-03 10640   0.150E-02 0.706E-03
CGA:  11    -0.128287663490E+04   -0.37935E-03   -0.34993E-03 10640   0.640E-03 0.758E-03
CGA:  12    -0.128287680674E+04   -0.17183E-03   -0.15150E-03 10640   0.462E-03 0.254E-03
CGA:  13    -0.128287687844E+04   -0.71702E-04   -0.85028E-04 10640   0.279E-03 0.463E-03
CGA:  14    -0.128287692435E+04   -0.45913E-04   -0.45252E-04 10640   0.231E-03 0.230E-03
CGA:  15    -0.128287697088E+04   -0.46526E-04   -0.41861E-04 10640   0.212E-03 0.212E-03
CGA:  16    -0.128287699636E+04   -0.25487E-04   -0.29639E-04 10640   0.198E-03 0.201E-03
CGA:  17    -0.128287703215E+04   -0.35784E-04   -0.33741E-04 10640   0.186E-03 0.190E-03
CGA:  18    -0.128287705640E+04   -0.24249E-04   -0.26973E-04 10640   0.177E-03 0.180E-03
CGA:  19    -0.128287708327E+04   -0.26873E-04   -0.27483E-04 10640   0.168E-03 0.171E-03
CGA:  20    -0.128287710603E+04   -0.22758E-04   -0.24660E-04 10640   0.159E-03 0.162E-03
CGA:  21    -0.128287712767E+04   -0.21639E-04   -0.23410E-04 10640   0.152E-03 0.155E-03
CGA:  22    -0.128287714786E+04   -0.20194E-04   -0.22050E-04 10640   0.145E-03 0.148E-03
CGA:  23    -0.128287716622E+04   -0.18362E-04   -0.20541E-04 10640   0.139E-03 0.141E-03
CGA:  24    -0.128287718381E+04   -0.17590E-04   -0.19609E-04 10640   0.133E-03 0.135E-03
CGA:  25    -0.128287719980E+04   -0.15994E-04   -0.18297E-04 10640   0.127E-03 0.130E-03
CGA:  26    -0.128287721514E+04   -0.15332E-04   -0.17490E-04 10640   0.122E-03 0.125E-03
CGA:  27    -0.128287722924E+04   -0.14101E-04   -0.16426E-04 10640   0.117E-03 0.120E-03
CGA:  28    -0.128287724270E+04   -0.13460E-04   -0.15686E-04 10640   0.113E-03 0.115E-03
CGA:  29    -0.128287725522E+04   -0.12526E-04   -0.14823E-04 10640   0.109E-03 0.111E-03
CGA:  30    -0.128287726714E+04   -0.11916E-04   -0.14144E-04 10640   0.105E-03 0.107E-03
CGA:  31    -0.128287727833E+04   -0.11187E-04   -0.13427E-04 10640   0.101E-03 0.103E-03
CGA:  32    -0.128287728896E+04   -0.10629E-04   -0.12814E-04 10640   0.976E-04 0.993E-04
CGA:  33    -0.128287729899E+04   -0.10038E-04   -0.12202E-04 10640   0.942E-04 0.959E-04
CGA:  34    -0.128287730853E+04   -0.95388E-05   -0.11653E-04 10640   0.910E-04 0.926E-04
CGA:  35    -0.128287731758E+04   -0.90471E-05   -0.11123E-04 10640   0.880E-04 0.895E-04
CGA:  36    -0.128287732619E+04   -0.86069E-05   -0.10633E-04 10640   0.851E-04 0.866E-04
CGA:  37    -0.128287733437E+04   -0.81875E-05   -0.10167E-04 10640   0.824E-04 0.837E-04
  15 F= -.12828773E+04 E0= -.12828773E+04  d E =0.256321E-01  mag=    47.0000
       N       E                     dE             d eps       ncg     rms          ort
SDA:   1    -0.128196589205E+04    0.91143E+00    0.00000E+00 10640   0.280E+01 0.000E+00
CGA:   2    -0.128256935528E+04   -0.60346E+00   -0.60287E+00 10640   0.113E+01 0.859E-02
CGA:   3    -0.128284513263E+04   -0.27578E+00   -0.27591E+00 10640   0.265E+00-0.165E-02
CGA:   4    -0.128288629812E+04   -0.41165E-01   -0.41173E-01 10640   0.558E-01-0.105E-02
CGA:   5    -0.128289560779E+04   -0.93097E-02   -0.93725E-02 10640   0.222E-01-0.328E-02
CGA:   6    -0.128289880667E+04   -0.31989E-02   -0.32028E-02 10640   0.630E-02-0.138E-02
CGA:   7    -0.128290002672E+04   -0.12200E-02   -0.12118E-02 10640   0.159E-02 0.155E-03
CGA:   8    -0.128290040101E+04   -0.37430E-03   -0.38825E-03 10640   0.935E-03-0.161E-03
CGA:   9    -0.128290059355E+04   -0.19254E-03   -0.23027E-03 10640   0.983E-03-0.322E-03
CGA:  10    -0.128290065083E+04   -0.57276E-04   -0.23745E-03 10640   0.201E-02-0.874E-03
CGA:  11    -0.128290089933E+04   -0.24850E-03   -0.23270E-03 10640   0.670E-03-0.271E-03
CGA:  12    -0.128290105006E+04   -0.15073E-03   -0.20327E-03 10640   0.588E-03-0.291E-03
CGA:  13    -0.128290108957E+04   -0.39504E-04   -0.41849E-04 10640   0.220E-03 0.438E-04
CGA:  14    -0.128290111942E+04   -0.29850E-04   -0.33058E-04 10640   0.136E-03 0.858E-04
CGA:  15    -0.128290114279E+04   -0.23374E-04   -0.25250E-04 10640   0.494E-04 0.450E-04
CGA:  16    -0.128290116964E+04   -0.26847E-04   -0.29232E-04 10640   0.103E-03-0.907E-05
CGA:  17    -0.128290117232E+04   -0.26835E-05   -0.70004E-05 10640   0.907E-04 0.416E-04
CGA:  18    -0.128290117726E+04   -0.49402E-05   -0.11628E-04 10640   0.833E-04 0.738E-04
CGA:  19    -0.128290099637E+04    0.18089E-03   -0.98596E-04 10640   0.276E-02-0.281E-03
CGA:  20    -0.128290121317E+04   -0.21680E-03   -0.22722E-03 10640   0.165E-03 0.515E-04
CGA:  21    -0.128290122949E+04   -0.16320E-04   -0.27999E-04 10640   0.579E-04 0.808E-04
CGA:  22    -0.128290123750E+04   -0.80081E-05   -0.12747E-04 10640   0.227E-04 0.304E-04
  16 F= -.12829012E+04 E0= -.12829012E+04  d E =-.239031E-01  mag=    47.0000
       N       E                     dE             d eps       ncg     rms          ort
SDA:   1    -0.128018359318E+04    0.27176E+01    0.00000E+00 10640   0.742E+01 0.000E+00
CGA:   2    -0.128202324290E+04   -0.18396E+01   -0.18396E+01 10640   0.342E+01-0.269E-02
CGA:   3    -0.128277718888E+04   -0.75395E+00   -0.75420E+00 10640   0.643E+00 0.530E-02
CGA:   4    -0.128288205926E+04   -0.10487E+00   -0.10464E+00 10640   0.134E+00-0.275E-02
CGA:   5    -0.128290651933E+04   -0.24460E-01   -0.24696E-01 10640   0.327E-01 0.291E-02
CGA:   6    -0.128291350453E+04   -0.69852E-02   -0.69123E-02 10640   0.118E-01-0.109E-02
CGA:   7    -0.128291547766E+04   -0.19731E-02   -0.20562E-02 10640   0.307E-02 0.935E-03
CGA:   8    -0.128291627381E+04   -0.79615E-03   -0.79352E-03 10640   0.211E-02-0.928E-04
CGA:   9    -0.128291662379E+04   -0.34998E-03   -0.35298E-03 10640   0.114E-02 0.341E-04
CGA:  10    -0.128291680561E+04   -0.18182E-03   -0.20883E-03 10640   0.413E-03 0.338E-03
CGA:  11    -0.128291691436E+04   -0.10876E-03   -0.11512E-03 10640   0.291E-03 0.154E-03
CGA:  12    -0.128291696127E+04   -0.46903E-04   -0.61297E-04 10640   0.165E-03 0.142E-03
CGA:  13    -0.128291697051E+04   -0.92484E-05   -0.30717E-04 10640   0.122E-03 0.173E-03
CGA:  14    -0.128291697852E+04   -0.80046E-05   -0.16452E-04 10640   0.861E-04 0.780E-04
CGA:  15    -0.128291698604E+04   -0.75249E-05   -0.13031E-04 10640   0.741E-04 0.638E-04
  17 F= -.12829170E+04 E0= -.12829170E+04  d E =-.157485E-01  mag=    47.0000
       N       E                     dE             d eps       ncg     rms          ort
SDA:   1    -0.127758758733E+04    0.53294E+01    0.00000E+00 10640   0.146E+02 0.000E+00
CGA:   2    -0.128119590763E+04   -0.36083E+01   -0.36084E+01 10640   0.678E+01-0.175E-02
CGA:   3    -0.128267722803E+04   -0.14813E+01   -0.14813E+01 10640   0.132E+01-0.324E-02
CGA:   4    -0.128288365224E+04   -0.20642E+00   -0.20634E+00 10640   0.291E+00-0.319E-02
CGA:   5    -0.128293264973E+04   -0.48997E-01   -0.49125E-01 10640   0.975E-01 0.329E-02
CGA:   6    -0.128294742657E+04   -0.14777E-01   -0.14777E-01 10640   0.321E-01-0.133E-03
CGA:   7    -0.128295371120E+04   -0.62846E-02   -0.62528E-02 10640   0.120E-01-0.135E-02
CGA:   8    -0.128295572068E+04   -0.20095E-02   -0.20195E-02 10640   0.420E-02 0.260E-03
CGA:   9    -0.128295705477E+04   -0.13341E-02   -0.14648E-02 10640   0.397E-02-0.103E-02
CGA:  10    -0.128295755861E+04   -0.50384E-03   -0.49934E-03 10640   0.206E-02-0.762E-04
CGA:  11    -0.128295804798E+04   -0.48937E-03   -0.48916E-03 10640   0.107E-02 0.824E-05
CGA:  12    -0.128295828667E+04   -0.23869E-03   -0.47728E-03 10640   0.373E-02-0.106E-02
CGA:  13    -0.128295856863E+04   -0.28196E-03   -0.35435E-03 10640   0.518E-03 0.541E-03
CGA:  14    -0.128295868138E+04   -0.11274E-03   -0.11808E-03 10640   0.347E-03 0.214E-03
CGA:  15    -0.128295881779E+04   -0.13642E-03   -0.15602E-03 10640   0.729E-03-0.207E-03
CGA:  16    -0.128295886289E+04   -0.45094E-04   -0.71375E-04 10640   0.187E-03 0.204E-03
CGA:  17    -0.128295889544E+04   -0.32554E-04   -0.39192E-04 10640   0.161E-03 0.116E-03
CGA:  18    -0.128295802514E+04    0.87030E-03   -0.46952E-03 10640   0.138E-01-0.907E-03
CGA:  19    -0.128295908814E+04   -0.10630E-02   -0.12272E-02 10640   0.120E-03 0.590E-03
CGA:  20    -0.128295908113E+04    0.70119E-05   -0.12952E-04 10640   0.725E-04 0.716E-04
CGA:  21    -0.128295915092E+04   -0.69797E-04   -0.72334E-04 10640   0.316E-03-0.462E-05
CGA:  22    -0.128295916191E+04   -0.10988E-04   -0.41940E-04 10640   0.157E-03 0.119E-03
CGA:  23    -0.128295917154E+04   -0.96268E-05   -0.35593E-04 10640   0.183E-03 0.116E-03
CGA:  24    -0.128295923302E+04   -0.61479E-04   -0.50386E-04 10640   0.349E-03-0.110E-03
CGA:  25    -0.128295923675E+04   -0.37299E-05   -0.27489E-04 10640   0.395E-04 0.820E-04
  18 F= -.12829592E+04 E0= -.12829592E+04  d E =-.422507E-01  mag=    47.0000
       N       E                     dE             d eps       ncg     rms          ort
SDA:   1    -0.127963992011E+04    0.33193E+01    0.00000E+00 10640   0.940E+01 0.000E+00
CGA:   2    -0.128185669366E+04   -0.22168E+01   -0.22162E+01 10640   0.425E+01-0.236E-02
CGA:   3    -0.128280576820E+04   -0.94907E+00   -0.94906E+00 10640   0.960E+00-0.271E-02
CGA:   4    -0.128294124016E+04   -0.13547E+00   -0.13596E+00 10640   0.234E+00 0.389E-02
CGA:   5    -0.128297596169E+04   -0.34722E-01   -0.34879E-01 10640   0.739E-01 0.781E-03
CGA:   6    -0.128298853161E+04   -0.12570E-01   -0.12607E-01 10640   0.192E-01 0.188E-03
CGA:   7    -0.128299266112E+04   -0.41295E-02   -0.41050E-02 10640   0.765E-02-0.244E-03
CGA:   8    -0.128299410857E+04   -0.14475E-02   -0.13817E-02 10640   0.337E-02-0.560E-03
CGA:   9    -0.128299490768E+04   -0.79911E-03   -0.78221E-03 10640   0.230E-02-0.370E-03
CGA:  10    -0.128299525796E+04   -0.35028E-03   -0.36245E-03 10640   0.109E-02 0.105E-03
CGA:  11    -0.128299556161E+04   -0.30365E-03   -0.30391E-03 10640   0.639E-03 0.122E-04
CGA:  12    -0.128299577450E+04   -0.21289E-03   -0.22308E-03 10640   0.913E-03-0.173E-03
CGA:  13    -0.128299597840E+04   -0.20390E-03   -0.22074E-03 10640   0.971E-03-0.403E-03
CGA:  14    -0.128299590005E+04    0.78352E-04   -0.41507E-03 10640   0.429E-02-0.106E-02
CGA:  15    -0.128299636386E+04   -0.46381E-03   -0.46562E-03 10640   0.134E-02 0.172E-04
CGA:  16    -0.128299671255E+04   -0.34869E-03   -0.35539E-03 10640   0.431E-03 0.166E-03
CGA:  17    -0.128299681396E+04   -0.10141E-03   -0.10760E-03 10640   0.215E-03 0.771E-04
CGA:  18    -0.128299689197E+04   -0.78007E-04   -0.78111E-04 10640   0.172E-03-0.110E-04
CGA:  19    -0.128299692290E+04   -0.30934E-04   -0.28009E-04 10640   0.916E-04-0.231E-04
CGA:  20    -0.128299692699E+04   -0.40880E-05   -0.10200E-04 10640   0.427E-04 0.371E-04
  19 F= -.12829969E+04 E0= -.12829969E+04  d E =-.376902E-01  mag=    47.0000
       N       E                     dE             d eps       ncg     rms          ort
SDA:   1    -0.128187501642E+04    0.11219E+01    0.00000E+00 10640   0.317E+01 0.000E+00
CGA:   2    -0.128264421378E+04   -0.76920E+00   -0.76915E+00 10640   0.144E+01-0.113E-02
CGA:   3    -0.128296084133E+04   -0.31663E+00   -0.31650E+00 10640   0.306E+00-0.226E-02
CGA:   4    -0.128300726050E+04   -0.46419E-01   -0.46306E-01 10640   0.723E-01-0.681E-03
CGA:   5    -0.128301842266E+04   -0.11162E-01   -0.11215E-01 10640   0.232E-01 0.482E-03
CGA:   6    -0.128302217058E+04   -0.37479E-02   -0.37433E-02 10640   0.641E-02-0.298E-04
CGA:   7    -0.128302357713E+04   -0.14066E-02   -0.13949E-02 10640   0.246E-02-0.316E-03
CGA:   8    -0.128302403085E+04   -0.45371E-03   -0.44163E-03 10640   0.106E-02-0.189E-03
CGA:   9    -0.128302429108E+04   -0.26024E-03   -0.26449E-03 10640   0.777E-03-0.201E-03
CGA:  10    -0.128302445495E+04   -0.16387E-03   -0.18890E-03 10640   0.125E-02-0.500E-03
CGA:  11    -0.128302456732E+04   -0.11237E-03   -0.11584E-03 10640   0.209E-03 0.219E-04
CGA:  12    -0.128302460775E+04   -0.40431E-04   -0.13532E-03 10640   0.618E-03-0.242E-03
CGA:  13    -0.128302471781E+04   -0.11005E-03   -0.10235E-03 10640   0.284E-03-0.770E-04
CGA:  14    -0.128302476575E+04   -0.47941E-04   -0.43176E-04 10640   0.805E-04-0.555E-04
CGA:  15    -0.128302478365E+04   -0.17897E-04   -0.19223E-04 10640   0.135E-03-0.313E-04
CGA:  16    -0.128302486011E+04   -0.76469E-04    0.13009E-04 10640   0.766E-04 0.164E-04
CGA:  17    -0.128302493575E+04   -0.75634E-04    0.15484E-04 10640   0.119E-03-0.402E-05
CGA:  18    -0.128302502457E+04   -0.88821E-04    0.27361E-04 10640   0.102E-03-0.997E-05
CGA:  19    -0.128302464638E+04    0.37819E-03   -0.11101E-03 10640   0.468E-02-0.528E-03
CGA:  20    -0.128302529097E+04   -0.64459E-03   -0.56866E-03 10640   0.238E-03-0.401E-03
CGA:  21    -0.128302532139E+04   -0.30421E-04   -0.35151E-04 10640   0.523E-04 0.361E-04
CGA:  22    -0.128302532150E+04   -0.10229E-06   -0.64492E-05 10640   0.208E-04 0.352E-04
  20 F= -.12830253E+04 E0= -.12830253E+04  d E =-.283945E-01  mag=    47.0000
       N       E                     dE             d eps       ncg     rms          ort
SDA:   1    -0.128230083134E+04    0.72449E+00    0.00000E+00 10640   0.200E+01 0.000E+00
CGA:   2    -0.128280463679E+04   -0.50381E+00   -0.50384E+00 10640   0.943E+00 0.247E-02
CGA:   3    -0.128300613477E+04   -0.20150E+00   -0.20134E+00 10640   0.193E+00-0.324E-02
CGA:   4    -0.128303532772E+04   -0.29193E-01   -0.29206E-01 10640   0.428E-01 0.478E-03
CGA:   5    -0.128304263052E+04   -0.73028E-02   -0.72756E-02 10640   0.142E-01-0.308E-03
CGA:   6    -0.128304483464E+04   -0.22041E-02   -0.21848E-02 10640   0.432E-02-0.179E-03
CGA:   7    -0.128304563908E+04   -0.80444E-03   -0.81097E-03 10640   0.137E-02 0.112E-03
CGA:   8    -0.128304597351E+04   -0.33443E-03   -0.33133E-03 10640   0.815E-03-0.237E-03
CGA:   9    -0.128304614160E+04   -0.16809E-03   -0.16845E-03 10640   0.546E-03-0.153E-03
CGA:  10    -0.128304626621E+04   -0.12460E-03   -0.15092E-03 10640   0.741E-03-0.282E-03
CGA:  11    -0.128304635811E+04   -0.91905E-04   -0.83783E-04 10640   0.216E-03-0.587E-04
CGA:  12    -0.128304640109E+04   -0.42981E-04   -0.10446E-03 10640   0.687E-03-0.219E-03
CGA:  13    -0.128304646323E+04   -0.62134E-04   -0.68432E-04 10640   0.129E-03 0.404E-04
CGA:  14    -0.128304649588E+04   -0.32650E-04   -0.32406E-04 10640   0.430E-04-0.175E-04
CGA:  15    -0.128304653190E+04   -0.36028E-04    0.49739E-05 10640   0.319E-04 0.153E-04
CGA:  16    -0.128304656202E+04   -0.30116E-04    0.13870E-04 10640   0.207E-04 0.235E-04
CGA:  17    -0.128304657702E+04   -0.15002E-04    0.57359E-05 10640   0.149E-04 0.111E-04
CGA:  18    -0.128304659105E+04   -0.14030E-04    0.21147E-05 10640   0.164E-04 0.797E-05
CGA:  19    -0.128304660186E+04   -0.10805E-04    0.65946E-05 10640   0.255E-04 0.181E-05
CGA:  20    -0.128304663177E+04   -0.29912E-04    0.31854E-05 10640   0.192E-04 0.232E-04
CGA:  21    -0.128304664203E+04   -0.10258E-04    0.35552E-04 10640   0.286E-04-0.625E-05
CGA:  22    -0.128304666523E+04   -0.23203E-04    0.17168E-05 10640   0.345E-04 0.140E-04
CGA:  23    -0.128304669850E+04   -0.33270E-04    0.21927E-04 10640   0.448E-04-0.633E-06
CGA:  24    -0.128304674337E+04   -0.44867E-04    0.52898E-05 10640   0.451E-04 0.135E-04
CGA:  25    -0.128304679185E+04   -0.48483E-04    0.11361E-04 10640   0.518E-04-0.773E-05
CGA:  26    -0.128304684227E+04   -0.50422E-04    0.39964E-05 10640   0.626E-04-0.237E-04
CGA:  27    -0.128304689466E+04   -0.52383E-04    0.20497E-05 10640   0.580E-04-0.300E-04
CGA:  28    -0.128304691370E+04   -0.19050E-04    0.14578E-04 10640   0.102E-03-0.922E-04
CGA:  29    -0.128304692585E+04   -0.12147E-04   -0.11579E-04 10640   0.683E-05-0.385E-05
CGA:  30    -0.128304692579E+04    0.63297E-07   -0.57303E-06 10640   0.350E-05 0.407E-05
  21 F= -.12830469E+04 E0= -.12830469E+04  d E =-.216043E-01  mag=    47.0000
       N       E                     dE             d eps       ncg     rms          ort
SDA:   1    -0.127850725618E+04    0.45397E+01    0.00000E+00 10640   0.119E+02 0.000E+00
CGA:   2    -0.128167067495E+04   -0.31634E+01   -0.31633E+01 10640   0.569E+01 0.413E-02
CGA:   3    -0.128284218412E+04   -0.11715E+01   -0.11714E+01 10640   0.115E+01-0.101E-01
CGA:   4    -0.128301233281E+04   -0.17015E+00   -0.17020E+00 10640   0.270E+00 0.586E-02
CGA:   5    -0.128305672231E+04   -0.44389E-01   -0.44344E-01 10640   0.849E-01-0.121E-02
CGA:   6    -0.128307074623E+04   -0.14024E-01   -0.13992E-01 10640   0.247E-01-0.722E-03
CGA:   7    -0.128307579079E+04   -0.50446E-02   -0.50484E-02 10640   0.825E-02 0.399E-03
CGA:   8    -0.128307780779E+04   -0.20170E-02   -0.20783E-02 10640   0.603E-02-0.197E-02
CGA:   9    -0.128307875508E+04   -0.94729E-03   -0.94196E-03 10640   0.290E-02-0.399E-03
CGA:  10    -0.128307951858E+04   -0.76350E-03   -0.79336E-03 10640   0.210E-02-0.394E-03
CGA:  11    -0.128307939611E+04    0.12247E-03   -0.99607E-03 10640   0.132E-01-0.340E-02
CGA:  12    -0.128308045996E+04   -0.10638E-02   -0.12097E-02 10640   0.138E-02 0.108E-02
CGA:  13    -0.128308078207E+04   -0.32211E-03   -0.32507E-03 10640   0.766E-03 0.245E-03
CGA:  14    -0.128308045964E+04    0.32243E-03   -0.58919E-03 10640   0.900E-02-0.215E-02
CGA:  15    -0.128308112996E+04   -0.67033E-03   -0.85794E-03 10640   0.916E-03 0.125E-02
CGA:  16    -0.128308130423E+04   -0.17427E-03   -0.19086E-03 10640   0.444E-03 0.276E-03
CGA:  17    -0.128308129925E+04    0.49836E-05   -0.29036E-03 10640   0.285E-02-0.113E-02
CGA:  18    -0.128308147898E+04   -0.17973E-03   -0.27383E-03 10640   0.433E-03 0.611E-03
CGA:  19    -0.128308156937E+04   -0.90386E-04   -0.97668E-04 10640   0.271E-03 0.123E-03
CGA:  20    -0.128307831045E+04    0.32589E-02   -0.17705E-02 10640   0.238E-01-0.291E-02
CGA:  21    -0.128308071362E+04   -0.24032E-02   -0.28117E-02 10640   0.408E-02 0.158E-02
CGA:  22    -0.128308196070E+04   -0.12471E-02   -0.12532E-02 10640   0.373E-03 0.470E-04
CGA:  23    -0.128308213461E+04   -0.17391E-03   -0.13035E-03 10640   0.149E-02-0.591E-03
CGA:  24    -0.128308215508E+04   -0.20467E-04   -0.12152E-03 10640   0.954E-04 0.314E-03
CGA:  25    -0.128308214294E+04    0.12140E-04   -0.67942E-05 10640   0.357E-04 0.560E-04
CGA:  26    -0.128308214608E+04   -0.31399E-05   -0.69597E-05 10640   0.249E-04 0.205E-04
  22 F= -.12830821E+04 E0= -.12830821E+04  d E =-.352203E-01  mag=    47.0000
       N       E                     dE             d eps       ncg     rms          ort
SDA:   1    -0.128216563941E+04    0.91650E+00    0.00000E+00 10640   0.264E+01 0.000E+00
CGA:   2    -0.128276845467E+04   -0.60282E+00   -0.60251E+00 10640   0.120E+01-0.334E-02
CGA:   3    -0.128302474638E+04   -0.25629E+00   -0.25658E+00 10640   0.340E+00 0.442E-02
CGA:   4    -0.128307018709E+04   -0.45441E-01   -0.45604E-01 10640   0.688E-01 0.172E-02
CGA:   5    -0.128308150367E+04   -0.11317E-01   -0.11430E-01 10640   0.184E-01 0.645E-03
CGA:   6    -0.128308472813E+04   -0.32245E-02   -0.33208E-02 10640   0.501E-02 0.651E-03
CGA:   7    -0.128308588764E+04   -0.11595E-02   -0.11410E-02 10640   0.212E-02-0.169E-03
CGA:   8    -0.128308624110E+04   -0.35346E-03   -0.35811E-03 10640   0.768E-03 0.361E-04
CGA:   9    -0.128308640912E+04   -0.16801E-03   -0.17959E-03 10640   0.351E-03 0.134E-03
CGA:  10    -0.128308650771E+04   -0.98592E-04   -0.10341E-03 10640   0.236E-03 0.787E-04
CGA:  11    -0.128308654256E+04   -0.34847E-04   -0.50733E-04 10640   0.117E-03 0.119E-03
CGA:  12    -0.128308656142E+04   -0.18865E-04   -0.24045E-04 10640   0.783E-04 0.534E-04
CGA:  13    -0.128308658307E+04   -0.21652E-04   -0.25919E-04 10640   0.624E-04 0.602E-04
CGA:  14    -0.128308659419E+04   -0.11113E-04   -0.13622E-04 10640   0.589E-04 0.330E-04
CGA:  15    -0.128308660318E+04   -0.89883E-05   -0.10885E-04 10640   0.680E-04 0.179E-04
CGA:  16    -0.128308663032E+04   -0.27140E-04   -0.26264E-04 10640   0.442E-04 0.778E-04
CGA:  17    -0.128308663941E+04   -0.90909E-05   -0.99100E-05 10640   0.619E-04 0.133E-04
CGA:  18    -0.128308669373E+04   -0.54326E-04   -0.41152E-04 10640   0.444E-04 0.563E-04
CGA:  19    -0.128308669753E+04   -0.37932E-05   -0.65240E-05 10640   0.269E-04 0.186E-04
CGA:  20    -0.128308672252E+04   -0.24998E-04   -0.21840E-04 10640   0.814E-04 0.104E-04
CGA:  21    -0.128308679476E+04   -0.72231E-04    0.26391E-03 10640   0.896E-04 0.618E-04
CGA:  22    -0.128308681592E+04   -0.21167E-04   -0.21596E-04 10640   0.318E-04 0.710E-05
CGA:  23    -0.128308678620E+04    0.29721E-04   -0.28873E-04 10640   0.773E-03-0.108E-03
CGA:  24    -0.128308685710E+04   -0.70898E-04   -0.74830E-04 10640   0.599E-04 0.198E-04
CGA:  25    -0.128308687221E+04   -0.15105E-04   -0.15443E-04 10640   0.267E-04 0.539E-05
CGA:  26    -0.128308689076E+04   -0.18554E-04    0.16273E-03 10640   0.610E-04-0.190E-04
CGA:  27    -0.128308689675E+04   -0.59934E-05   -0.67727E-05 10640   0.137E-04 0.405E-05
CGA:  28    -0.128308690063E+04   -0.38751E-05   -0.16547E-04 10640   0.116E-03-0.156E-04
CGA:  29    -0.128308694047E+04   -0.39845E-04   -0.36497E-04 10640   0.336E-03-0.128E-03
CGA:  30    -0.128308695287E+04   -0.12401E-04   -0.25862E-04 10640   0.158E-04 0.523E-04
CGA:  31    -0.128308695092E+04    0.19479E-05   -0.94703E-06 10640   0.749E-05 0.105E-04
  23 F= -.12830870E+04 E0= -.12830869E+04  d E =-.480485E-02  mag=    47.0000
       N       E                     dE             d eps       ncg     rms          ort
SDA:   1    -0.128273105967E+04    0.35589E+00    0.00000E+00 10640   0.972E+00 0.000E+00
CGA:   2    -0.128297387120E+04   -0.24281E+00   -0.24278E+00 10640   0.469E+00-0.370E-03
CGA:   3    -0.128306922739E+04   -0.95356E-01   -0.95255E-01 10640   0.120E+00-0.937E-03
CGA:   4    -0.128308541778E+04   -0.16190E-01   -0.16168E-01 10640   0.256E-01-0.186E-03
CGA:   5    -0.128308974483E+04   -0.43271E-02   -0.43466E-02 10640   0.671E-02 0.202E-03
CGA:   6    -0.128309096434E+04   -0.12195E-02   -0.12150E-02 10640   0.206E-02-0.370E-04
CGA:   7    -0.128309137160E+04   -0.40727E-03   -0.40290E-03 10640   0.769E-03-0.518E-04
CGA:   8    -0.128309153867E+04   -0.16707E-03   -0.16155E-03 10640   0.344E-03-0.958E-04
CGA:   9    -0.128309161302E+04   -0.74342E-04   -0.73434E-04 10640   0.215E-03-0.348E-04
CGA:  10    -0.128309165806E+04   -0.45047E-04   -0.44004E-04 10640   0.121E-03-0.254E-04
CGA:  11    -0.128309168277E+04   -0.24703E-04   -0.24487E-04 10640   0.657E-04-0.580E-05
CGA:  12    -0.128309170040E+04   -0.17634E-04   -0.17869E-04 10640   0.557E-04-0.111E-04
CGA:  13    -0.128309154263E+04    0.15777E-03   -0.60701E-04 10640   0.195E-02-0.210E-03
CGA:  14    -0.128309171498E+04   -0.17235E-03   -0.18109E-03 10640   0.201E-03 0.443E-04
CGA:  15    -0.128309175515E+04   -0.40167E-04   -0.44862E-04 10640   0.657E-04 0.529E-04
CGA:  16    -0.128309177668E+04   -0.21528E-04   -0.20402E-04 10640   0.668E-04-0.200E-04
CGA:  17    -0.128309178045E+04   -0.37752E-05   -0.57535E-05 10640   0.305E-04 0.113E-04
  24 F= -.12830918E+04 E0= -.12830917E+04  d E =-.482953E-02  mag=    47.0000
       N       E                     dE             d eps       ncg     rms          ort
SDA:   1    -0.128199468683E+04    0.10971E+01    0.00000E+00 10640   0.302E+01 0.000E+00
CGA:   2    -0.128273923829E+04   -0.74455E+00   -0.74451E+00 10640   0.142E+01-0.885E-03
CGA:   3    -0.128304432740E+04   -0.30509E+00   -0.30498E+00 10640   0.321E+00-0.210E-02
CGA:   4    -0.128308889833E+04   -0.44571E-01   -0.44675E-01 10640   0.749E-01 0.776E-03
CGA:   5    -0.128310094053E+04   -0.12042E-01   -0.12070E-01 10640   0.208E-01 0.374E-03
CGA:   6    -0.128310478527E+04   -0.38447E-02   -0.38517E-02 10640   0.548E-02 0.914E-04
CGA:   7    -0.128310600798E+04   -0.12227E-02   -0.12212E-02 10640   0.206E-02-0.345E-04
CGA:   8    -0.128310645118E+04   -0.44320E-03   -0.42572E-03 10640   0.128E-02-0.358E-03
CGA:   9    -0.128310668925E+04   -0.23806E-03   -0.23496E-03 10640   0.586E-03-0.947E-04
CGA:  10    -0.128310682135E+04   -0.13210E-03   -0.13243E-03 10640   0.304E-03 0.378E-04
CGA:  11    -0.128310692090E+04   -0.99547E-04   -0.11752E-03 10640   0.568E-03-0.162E-03
CGA:  12    -0.128310696709E+04   -0.46192E-04   -0.55607E-04 10640   0.102E-03 0.600E-04
CGA:  13    -0.128310684700E+04    0.12009E-03   -0.13516E-03 10640   0.155E-02-0.268E-03
CGA:  14    -0.128310711430E+04   -0.26730E-03   -0.25293E-03 10640   0.517E-03-0.106E-03
CGA:  15    -0.128310715530E+04   -0.41005E-04   -0.59096E-04 10640   0.672E-04 0.108E-03
CGA:  16    -0.128310715848E+04   -0.31781E-05   -0.86508E-05 10640   0.356E-04 0.311E-04
CGA:  17    -0.128310717953E+04   -0.21053E-04   -0.30627E-04 10640   0.197E-03-0.310E-04
CGA:  18    -0.128310722661E+04   -0.47082E-04   -0.38218E-04 10640   0.158E-03-0.928E-04
CGA:  19    -0.128310724925E+04   -0.22634E-04   -0.22365E-04 10640   0.905E-04-0.154E-04
CGA:  20    -0.128310726446E+04   -0.15210E-04   -0.14581E-04 10640   0.589E-04-0.597E-05
CGA:  21    -0.128310730178E+04   -0.37319E-04    0.34879E-04 10640   0.554E-04 0.118E-04
CGA:  22    -0.128310732228E+04   -0.20504E-04   -0.21367E-04 10640   0.110E-03-0.206E-04
CGA:  23    -0.128310679752E+04    0.52477E-03   -0.28274E-03 10640   0.437E-02-0.445E-03
CGA:  24    -0.128310744631E+04   -0.64879E-03   -0.57306E-03 10640   0.669E-03-0.197E-03
CGA:  25    -0.128310754153E+04   -0.95227E-04   -0.11737E-03 10640   0.220E-03 0.731E-04
CGA:  26    -0.128310758874E+04   -0.47202E-04   -0.46493E-04 10640   0.492E-04-0.163E-05
CGA:  27    -0.128310761070E+04   -0.21966E-04   -0.16499E-04 10640   0.123E-03-0.436E-04
CGA:  28    -0.128310760589E+04    0.48125E-05   -0.88181E-05 10640   0.164E-04 0.357E-04
  25 F= -.12831076E+04 E0= -.12831076E+04  d E =-.158254E-01  mag=    47.0000
       N       E                     dE             d eps       ncg     rms          ort
SDA:   1    -0.126476288602E+04    0.18345E+02    0.00000E+00 10640   0.601E+02 0.000E+00
CGA:   2    -0.127598593852E+04   -0.11223E+02   -0.11248E+02 10640   0.236E+02 0.218E+00
CGA:   3    -0.128118545804E+04   -0.51995E+01   -0.51993E+01 10640   0.926E+01 0.136E+00
CGA:   4    -0.128249819992E+04   -0.13127E+01   -0.12757E+01 10640   0.140E+01 0.271E+00
CGA:   5    -0.128275208827E+04   -0.25389E+00   -0.25416E+00 10640   0.424E+00-0.440E-02
CGA:   6    -0.128282651783E+04   -0.74430E-01   -0.74109E-01 10640   0.129E+00 0.501E-03
CGA:   7    -0.128285308163E+04   -0.26564E-01   -0.26144E-01 10640   0.423E-01-0.316E-02
CGA:   8    -0.128286152049E+04   -0.84389E-02   -0.82844E-02 10640   0.149E-01-0.802E-03
CGA:   9    -0.128286551309E+04   -0.39926E-02   -0.38590E-02 10640   0.105E-01-0.161E-02
CGA:  10    -0.128286792090E+04   -0.24078E-02   -0.22243E-02 10640   0.638E-02-0.170E-02
CGA:  11    -0.128286968957E+04   -0.17687E-02   -0.17306E-02 10640   0.666E-02-0.250E-02
CGA:  12    -0.128287083722E+04   -0.11476E-02   -0.92098E-03 10640   0.391E-02-0.205E-02
CGA:  13    -0.128287113208E+04   -0.29486E-03   -0.19103E-02 10640   0.155E-01-0.433E-02
CGA:  14    -0.128287283218E+04   -0.17001E-02   -0.18808E-02 10640   0.369E-02 0.870E-03
CGA:  15    -0.128287368915E+04   -0.85697E-03   -0.88384E-03 10640   0.135E-02 0.240E-03
CGA:  16    -0.128287395225E+04   -0.26310E-03   -0.31029E-03 10640   0.788E-03 0.401E-03
CGA:  17    -0.128287406963E+04   -0.11739E-03   -0.18738E-03 10640   0.347E-03 0.483E-03
CGA:  18    -0.128287414295E+04   -0.73316E-04   -0.81315E-04 10640   0.275E-03 0.926E-04
CGA:  19    -0.128287416264E+04   -0.19688E-04   -0.55830E-04 10640   0.152E-03 0.231E-03
CGA:  20    -0.128287417458E+04   -0.11940E-04   -0.25492E-04 10640   0.108E-03 0.957E-04
CGA:  21    -0.128287418315E+04   -0.85675E-05   -0.19725E-04 10640   0.943E-04 0.933E-04
CGA:  22    -0.128287418994E+04   -0.67950E-05   -0.16852E-04 10640   0.853E-04 0.859E-04
CGA:  23    -0.128287419562E+04   -0.56772E-05   -0.14835E-04 10640   0.787E-04 0.789E-04
CGA:  24    -0.128287420266E+04   -0.70362E-05   -0.14391E-04 10640   0.735E-04 0.725E-04
CGA:  25    -0.128287420732E+04   -0.46632E-05   -0.12222E-04 10640   0.692E-04 0.671E-04
CGA:  26    -0.128287421571E+04   -0.83910E-05   -0.13357E-04 10640   0.666E-04 0.618E-04
CGA:  27    -0.128287421952E+04   -0.38087E-05   -0.10348E-04 10640   0.629E-04 0.573E-04
CGA:  28    -0.128287423016E+04   -0.10639E-04   -0.13336E-04 10640   0.645E-04 0.522E-04
CGA:  29    -0.128287423289E+04   -0.27371E-05   -0.88219E-05 10640   0.577E-04 0.490E-04
CGA:  30    -0.128287424621E+04   -0.13314E-04   -0.13917E-04 10640   0.652E-04 0.444E-04
CGA:  31    -0.128287424817E+04   -0.19661E-05   -0.77766E-05 10640   0.520E-04 0.431E-04
CGA:  32    -0.128287426413E+04   -0.15951E-04   -0.14596E-04 10640   0.630E-04 0.401E-04
CGA:  33    -0.128287426579E+04   -0.16591E-05   -0.70344E-05 10640   0.467E-04 0.392E-04
CGA:  34    -0.128287428473E+04   -0.18945E-04   -0.15579E-04 10640   0.604E-04 0.366E-04
CGA:  35    -0.128287428613E+04   -0.14011E-05   -0.64089E-05 10640   0.418E-04 0.356E-04
CGA:  36    -0.128287430870E+04   -0.22570E-04   -0.17007E-04 10640   0.584E-04 0.331E-04
CGA:  37    -0.128287430984E+04   -0.11386E-05   -0.58783E-05 10640   0.371E-04 0.322E-04
CGA:  38    -0.128287433692E+04   -0.27082E-04   -0.18963E-04 10640   0.556E-04 0.297E-04
CGA:  39    -0.128287433779E+04   -0.86547E-06   -0.53733E-05 10640   0.324E-04 0.286E-04
CGA:  40    -0.128287437145E+04   -0.33665E-04   -0.22186E-04 10640   0.548E-04 0.258E-04
CGA:  41    -0.128287437196E+04   -0.50979E-06   -0.49733E-05 10640   0.273E-04 0.252E-04
  26 F= -.12828744E+04 E0= -.12828743E+04  d E =0.233234E+00  mag=    47.0000
       N       E                     dE             d eps       ncg     rms          ort
SDA:   1    -0.126988621305E+04    0.12988E+02    0.00000E+00 10640   0.442E+02 0.000E+00
CGA:   2    -0.127816108819E+04   -0.82749E+01   -0.82646E+01 10640   0.163E+02-0.188E-02
CGA:   3    -0.128200016732E+04   -0.38391E+01   -0.38399E+01 10640   0.626E+01 0.255E-01
CGA:   4    -0.128285094596E+04   -0.85078E+00   -0.84912E+00 10640   0.100E+01 0.308E-01
CGA:   5    -0.128302598058E+04   -0.17503E+00   -0.17528E+00 10640   0.268E+00 0.567E-02
CGA:   6    -0.128307854914E+04   -0.52569E-01   -0.52642E-01 10640   0.791E-01 0.156E-02
CGA:   7    -0.128309431491E+04   -0.15766E-01   -0.15775E-01 10640   0.266E-01 0.473E-03
CGA:   8    -0.128309964004E+04   -0.53251E-02   -0.52708E-02 10640   0.103E-01-0.134E-02
CGA:   9    -0.128310202347E+04   -0.23834E-02   -0.23879E-02 10640   0.544E-02-0.417E-03
CGA:  10    -0.128310309006E+04   -0.10666E-02   -0.10758E-02 10640   0.237E-02 0.321E-03
CGA:  11    -0.128310372289E+04   -0.63282E-03   -0.63008E-03 10640   0.118E-02 0.164E-03
CGA:  12    -0.128310397425E+04   -0.25136E-03   -0.25961E-03 10640   0.554E-03 0.291E-03
CGA:  13    -0.128310420645E+04   -0.23220E-03   -0.50586E-03 10640   0.230E-02-0.552E-03
CGA:  14    -0.128310441586E+04   -0.20941E-03   -0.26229E-03 10640   0.596E-03 0.371E-03
CGA:  15    -0.128310453836E+04   -0.12250E-03   -0.13349E-03 10640   0.213E-03 0.188E-03
CGA:  16    -0.128310462234E+04   -0.83974E-04   -0.15239E-03 10640   0.137E-02-0.233E-03
CGA:  17    -0.128310470574E+04   -0.83398E-04   -0.12120E-03 10640   0.174E-03 0.220E-03
CGA:  18    -0.128310473854E+04   -0.32808E-04   -0.37754E-04 10640   0.158E-03 0.729E-04
CGA:  19    -0.128310441954E+04    0.31900E-03   -0.24028E-03 10640   0.400E-02-0.685E-03
CGA:  20    -0.128310480188E+04   -0.38234E-03   -0.44710E-03 10640   0.895E-03 0.370E-03
CGA:  21    -0.128310500767E+04   -0.20580E-03   -0.21757E-03 10640   0.148E-03 0.194E-03
CGA:  22    -0.128310503551E+04   -0.27840E-04   -0.81954E-04 10640   0.118E-02-0.312E-03
CGA:  23    -0.128310510259E+04   -0.67075E-04   -0.99598E-04 10640   0.669E-04 0.162E-03
CGA:  24    -0.128310510799E+04   -0.54050E-05   -0.99324E-05 10640   0.522E-04 0.306E-04
CGA:  25    -0.128310515141E+04   -0.43414E-04    0.19669E-03 10640   0.488E-04 0.271E-04
CGA:  26    -0.128310519545E+04   -0.44044E-04    0.99859E-05 10640   0.792E-04-0.758E-05
CGA:  27    -0.128310523666E+04   -0.41206E-04   -0.35918E-04 10640   0.109E-03 0.188E-04
CGA:  28    -0.128310525408E+04   -0.17418E-04   -0.24035E-04 10640   0.646E-04 0.617E-04
CGA:  29    -0.128310533286E+04   -0.78784E-04    0.76028E-05 10640   0.719E-04-0.935E-05
CGA:  30    -0.128310534861E+04   -0.15747E-04   -0.15547E-04 10640   0.311E-04-0.768E-05
CGA:  31    -0.128310534730E+04    0.13030E-05   -0.29250E-05 10640   0.273E-04 0.244E-04
CGA:  32    -0.128310536080E+04   -0.13491E-04   -0.14599E-04 10640   0.511E-04-0.429E-05
CGA:  33    -0.128310535676E+04    0.40307E-05   -0.25913E-05 10640   0.317E-04 0.298E-04
  27 F= -.12831054E+04 E0= -.12831053E+04  d E =-.230985E+00  mag=    47.0000
       N       E                     dE             d eps       ncg     rms          ort
SDA:   1    -0.128272409865E+04    0.38126E+00    0.00000E+00 10640   0.136E+01 0.000E+00
CGA:   2    -0.128297659716E+04   -0.25250E+00   -0.25254E+00 10640   0.513E+00 0.112E-02
CGA:   3    -0.128309515483E+04   -0.11856E+00   -0.11860E+00 10640   0.204E+00 0.134E-02
CGA:   4    -0.128312421627E+04   -0.29061E-01   -0.28829E-01 10640   0.310E-01-0.178E-02
CGA:   5    -0.128312955827E+04   -0.53420E-02   -0.53065E-02 10640   0.897E-02-0.419E-03
CGA:   6    -0.128313128132E+04   -0.17231E-02   -0.16964E-02 10640   0.294E-02-0.472E-03
CGA:   7    -0.128313187570E+04   -0.59438E-03   -0.58308E-03 10640   0.106E-02-0.321E-03
CGA:   8    -0.128313201192E+04   -0.13622E-03   -0.14526E-03 10640   0.249E-03 0.105E-03
CGA:   9    -0.128313209289E+04   -0.80969E-04   -0.14316E-03 10640   0.525E-03-0.218E-03
CGA:  10    -0.128313220400E+04   -0.11110E-03   -0.10203E-03 10640   0.270E-03-0.156E-03
CGA:  11    -0.128313223842E+04   -0.34429E-04   -0.66645E-04 10640   0.693E-03-0.316E-03
CGA:  12    -0.128313231119E+04   -0.72761E-04   -0.71837E-04 10640   0.934E-04-0.445E-05
CGA:  13    -0.128313232252E+04   -0.11333E-04   -0.13811E-04 10640   0.144E-04 0.254E-04
CGA:  14    -0.128313223888E+04    0.83634E-04   -0.45082E-04 10640   0.885E-03-0.877E-04
CGA:  15    -0.128313237435E+04   -0.13546E-03   -0.10901E-03 10640   0.178E-03-0.811E-04
CGA:  16    -0.128313242387E+04   -0.49523E-04   -0.42386E-04 10640   0.609E-04-0.435E-04
CGA:  17    -0.128313244200E+04   -0.18127E-04   -0.96420E-05 10640   0.576E-04-0.407E-04
CGA:  18    -0.128313244384E+04   -0.18395E-05   -0.49563E-05 10640   0.791E-05 0.986E-05
  28 F= -.12831324E+04 E0= -.12831324E+04  d E =-.270871E-01  mag=    47.0000
       N       E                     dE             d eps       ncg     rms          ort
SDA:   1    -0.128279467560E+04    0.33777E+00    0.00000E+00 10640   0.109E+01 0.000E+00
CGA:   2    -0.128301264728E+04   -0.21797E+00   -0.21811E+00 10640   0.421E+00 0.930E-03
CGA:   3    -0.128311567981E+04   -0.10303E+00   -0.10302E+00 10640   0.124E+00-0.345E-03
CGA:   4    -0.128313376387E+04   -0.18084E-01   -0.17928E-01 10640   0.222E-01-0.476E-03
CGA:   5    -0.128313756658E+04   -0.38027E-02   -0.37667E-02 10640   0.677E-02-0.179E-03
CGA:   6    -0.128313881071E+04   -0.12441E-02   -0.12134E-02 10640   0.206E-02-0.183E-03
CGA:   7    -0.128313924457E+04   -0.43386E-03   -0.42478E-03 10640   0.659E-03-0.724E-04
CGA:   8    -0.128313935656E+04   -0.11199E-03   -0.11550E-03 10640   0.235E-03 0.253E-04
CGA:   9    -0.128313944335E+04   -0.86788E-04   -0.11476E-03 10640   0.537E-03-0.184E-03
CGA:  10    -0.128313949841E+04   -0.55060E-04   -0.59427E-04 10640   0.110E-03 0.219E-04
CGA:  11    -0.128313940100E+04    0.97407E-04   -0.10383E-03 10640   0.150E-02-0.340E-03
CGA:  12    -0.128313958266E+04   -0.18166E-03   -0.19213E-03 10640   0.364E-03 0.509E-04
CGA:  13    -0.128313962774E+04   -0.45077E-04   -0.53689E-04 10640   0.314E-04 0.451E-04
CGA:  14    -0.128313963431E+04   -0.65650E-05   -0.77965E-05 10640   0.160E-04 0.117E-04
CGA:  15    -0.128313946297E+04    0.17134E-03   -0.92268E-04 10640   0.182E-02-0.124E-03
CGA:  16    -0.128313963661E+04   -0.17364E-03   -0.18284E-03 10640   0.253E-03 0.224E-04
CGA:  17    -0.128313971003E+04   -0.73426E-04   -0.71211E-04 10640   0.448E-04-0.775E-05
CGA:  18    -0.128313971936E+04   -0.93307E-05   -0.33081E-04 10640   0.508E-03-0.110E-03
CGA:  19    -0.128313973187E+04   -0.12508E-04   -0.49087E-04 10640   0.373E-04 0.814E-04
CGA:  20    -0.128313973189E+04   -0.12617E-07   -0.55155E-05 10640   0.167E-04 0.136E-04
  29 F= -.12831397E+04 E0= -.12831397E+04  d E =-.728805E-02  mag=    47.0000
       N       E                     dE             d eps       ncg     rms          ort
SDA:   1    -0.128282531508E+04    0.31442E+00    0.00000E+00 10640   0.962E+00 0.000E+00
CGA:   2    -0.128302745635E+04   -0.20214E+00   -0.20204E+00 10640   0.382E+00-0.203E-03
CGA:   3    -0.128312099650E+04   -0.93540E-01   -0.93721E-01 10640   0.906E-01 0.691E-03
CGA:   4    -0.128313521857E+04   -0.14222E-01   -0.14213E-01 10640   0.170E-01-0.849E-05
CGA:   5    -0.128313821300E+04   -0.29944E-02   -0.30031E-02 10640   0.536E-02 0.551E-04
CGA:   6    -0.128313911607E+04   -0.90308E-03   -0.89678E-03 10640   0.168E-02-0.162E-04
CGA:   7    -0.128313948147E+04   -0.36540E-03   -0.36133E-03 10640   0.460E-03-0.173E-04
CGA:   8    -0.128313958917E+04   -0.10770E-03   -0.10427E-03 10640   0.258E-03-0.176E-04
CGA:   9    -0.128313963576E+04   -0.46584E-04   -0.49061E-04 10640   0.118E-03 0.121E-04
CGA:  10    -0.128313967364E+04   -0.37882E-04   -0.38108E-04 10640   0.670E-04 0.237E-05
CGA:  11    -0.128313969784E+04   -0.24198E-04   -0.23990E-04 10640   0.766E-04-0.495E-05
CGA:  12    -0.128313970828E+04   -0.10444E-04   -0.12966E-04 10640   0.382E-04 0.117E-04
CGA:  13    -0.128313971813E+04   -0.98529E-05   -0.11949E-04 10640   0.299E-04 0.186E-04
CGA:  14    -0.128313972975E+04   -0.11616E-04   -0.12484E-04 10640   0.383E-04 0.876E-05
CGA:  15    -0.128313973721E+04   -0.74655E-05   -0.10680E-04 10640   0.283E-04 0.199E-04
  30 F= -.12831397E+04 E0= -.12831397E+04  d E =-.532902E-05  mag=    47.0000
       N       E                     dE             d eps       ncg     rms          ort
SDA:   1    -0.128262387124E+04    0.51586E+00    0.00000E+00 10640   0.153E+01 0.000E+00
CGA:   2    -0.128295080082E+04   -0.32693E+00   -0.32692E+00 10640   0.627E+00-0.137E-03
CGA:   3    -0.128310112282E+04   -0.15032E+00   -0.15044E+00 10640   0.150E+00 0.119E-02
CGA:   4    -0.128312470791E+04   -0.23585E-01   -0.23648E-01 10640   0.268E-01 0.337E-03
CGA:   5    -0.128312975587E+04   -0.50480E-02   -0.50625E-02 10640   0.743E-02 0.137E-03
CGA:   6    -0.128313110867E+04   -0.13528E-02   -0.13563E-02 10640   0.253E-02 0.319E-04
CGA:   7    -0.128313163541E+04   -0.52674E-03   -0.52242E-03 10640   0.772E-03-0.359E-04
CGA:   8    -0.128313179753E+04   -0.16212E-03   -0.16046E-03 10640   0.407E-03-0.151E-04
CGA:   9    -0.128313186585E+04   -0.68314E-04   -0.75096E-04 10640   0.163E-03 0.571E-04
CGA:  10    -0.128313191687E+04   -0.51023E-04   -0.51721E-04 10640   0.930E-04 0.279E-04
CGA:  11    -0.128313193511E+04   -0.18242E-04   -0.21939E-04 10640   0.524E-04 0.372E-04
CGA:  12    -0.128313194590E+04   -0.10786E-04   -0.14557E-04 10640   0.284E-04 0.384E-04
CGA:  13    -0.128313195856E+04   -0.12662E-04   -0.12233E-04 10640   0.561E-04 0.296E-05
CGA:  14    -0.128313196039E+04   -0.18299E-05   -0.79476E-05 10640   0.250E-04 0.359E-04
  31 F= -.12831320E+04 E0= -.12831319E+04  d E =0.777683E-02  mag=    47.0000
       N       E                     dE             d eps       ncg     rms          ort
SDA:   1    -0.126135149274E+04    0.21780E+02    0.00000E+00 10640   0.728E+02 0.000E+00
CGA:   2    -0.127475212239E+04   -0.13401E+02   -0.13463E+02 10640   0.257E+02 0.115E+00
CGA:   3    -0.128113296247E+04   -0.63808E+01   -0.63772E+01 10640   0.863E+01-0.193E-01
CGA:   4    -0.128240819656E+04   -0.12752E+01   -0.12812E+01 10640   0.133E+01 0.236E-01
CGA:   5    -0.128264082879E+04   -0.23263E+00   -0.23320E+00 10640   0.430E+00 0.749E-02
CGA:   6    -0.128271296104E+04   -0.72132E-01   -0.72524E-01 10640   0.133E+00 0.391E-02
CGA:   7    -0.128274131861E+04   -0.28358E-01   -0.28233E-01 10640   0.394E-01-0.251E-02
CGA:   8    -0.128274924758E+04   -0.79290E-02   -0.79070E-02 10640   0.155E-01-0.323E-03
CGA:   9    -0.128275314450E+04   -0.38969E-02   -0.38968E-02 10640   0.101E-01-0.127E-02
CGA:  10    -0.128275473740E+04   -0.15929E-02   -0.16762E-02 10640   0.387E-02 0.116E-02
CGA:  11    -0.128275581506E+04   -0.10777E-02   -0.10779E-02 10640   0.180E-02 0.840E-03
CGA:  12    -0.128275639761E+04   -0.58255E-03   -0.57712E-03 10640   0.131E-02 0.396E-03
CGA:  13    -0.128275678922E+04   -0.39161E-03   -0.39366E-03 10640   0.886E-03 0.466E-03
CGA:  14    -0.128275730120E+04   -0.51199E-03   -0.50508E-03 10640   0.171E-02 0.235E-04
CGA:  15    -0.128275751688E+04   -0.21568E-03   -0.27300E-03 10640   0.959E-03 0.529E-03
CGA:  16    -0.128275765605E+04   -0.13917E-03   -0.19499E-03 10640   0.963E-03 0.553E-03
CGA:  17    -0.128275789289E+04   -0.23684E-03   -0.23541E-03 10640   0.142E-02-0.300E-03
CGA:  18    -0.128275802939E+04   -0.13650E-03   -0.16036E-03 10640   0.753E-03 0.280E-03
CGA:  19    -0.128275806968E+04   -0.40290E-04   -0.76649E-04 10640   0.255E-03 0.229E-03
CGA:  20    -0.128275815056E+04   -0.80876E-04   -0.80685E-04 10640   0.520E-03 0.304E-04
CGA:  21    -0.128275797182E+04    0.17874E-03   -0.39050E-03 10640   0.432E-02-0.134E-02
CGA:  22    -0.128275843751E+04   -0.46569E-03   -0.54173E-03 10640   0.127E-02 0.583E-03
CGA:  23    -0.128275873794E+04   -0.30044E-03   -0.30534E-03 10640   0.225E-03 0.124E-03
CGA:  24    -0.128275879155E+04   -0.53605E-04   -0.13046E-03 10640   0.117E-02-0.276E-03
CGA:  25    -0.128275889910E+04   -0.10756E-03   -0.12489E-03 10640   0.995E-04 0.114E-03
CGA:  26    -0.128275890168E+04   -0.25762E-05   -0.88871E-04 10640   0.807E-03-0.156E-03
CGA:  27    -0.128275902234E+04   -0.12066E-03   -0.11376E-03 10640   0.116E-03-0.465E-04
CGA:  28    -0.128275902520E+04   -0.28639E-05   -0.79192E-04 10640   0.845E-03-0.172E-03
CGA:  29    -0.128275905899E+04   -0.33786E-04   -0.72204E-04 10640   0.936E-04 0.181E-03
CGA:  30    -0.128275906937E+04   -0.10376E-04   -0.15183E-04 10640   0.610E-04 0.311E-04
CGA:  31    -0.128275912460E+04   -0.55232E-04    0.54058E-04 10640   0.646E-04-0.116E-04
CGA:  32    -0.128275916852E+04   -0.43926E-04    0.14874E-04 10640   0.111E-03-0.183E-04
CGA:  33    -0.128275891366E+04    0.25486E-03   -0.10642E-03 10640   0.290E-02-0.351E-03
CGA:  34    -0.128275939223E+04   -0.47857E-03   -0.44485E-03 10640   0.625E-03-0.183E-03
CGA:  35    -0.128275941975E+04   -0.27527E-04   -0.69751E-04 10640   0.154E-03 0.206E-03
CGA:  36    -0.128275942325E+04   -0.34917E-05   -0.21978E-04 10640   0.686E-04 0.896E-04
CGA:  37    -0.128275863438E+04    0.78886E-03   -0.42820E-03 10640   0.831E-02-0.549E-03
CGA:  38    -0.128275926960E+04   -0.63522E-03   -0.79721E-03 10640   0.415E-03 0.394E-03
CGA:  39    -0.128275937525E+04   -0.10565E-03   -0.10445E-03 10640   0.179E-03-0.309E-05
CGA:  40    -0.128275944986E+04   -0.74607E-04   -0.56676E-04 10640   0.146E-03-0.899E-04
CGA:  41    -0.128275944909E+04    0.77089E-06   -0.11803E-04 10640   0.125E-04 0.298E-04
  32 F= -.12827594E+04 E0= -.12827593E+04  d E =0.372511E+00  mag=    47.0000
       N       E                     dE             d eps       ncg     rms          ort
SDA:   1    -0.127005775270E+04    0.12702E+02    0.00000E+00 10640   0.440E+02 0.000E+00
CGA:   2    -0.127819430788E+04   -0.81366E+01   -0.80688E+01 10640   0.157E+02 0.449E+00
CGA:   3    -0.128202508207E+04   -0.38308E+01   -0.38437E+01 10640   0.600E+01 0.200E-02
CGA:   4    -0.128287053965E+04   -0.84546E+00   -0.82984E+00 10640   0.908E+00 0.998E-01
CGA:   5    -0.128302924375E+04   -0.15870E+00   -0.15812E+00 10640   0.272E+00 0.241E-03
CGA:   6    -0.128308071405E+04   -0.51470E-01   -0.50888E-01 10640   0.806E-01-0.169E-02
CGA:   7    -0.128309736761E+04   -0.16654E-01   -0.16520E-01 10640   0.251E-01-0.868E-03
CGA:   8    -0.128310191850E+04   -0.45509E-02   -0.46352E-02 10640   0.847E-02 0.531E-03
CGA:   9    -0.128310450668E+04   -0.25882E-02   -0.24696E-02 10640   0.619E-02-0.123E-02
CGA:  10    -0.128310579202E+04   -0.12853E-02   -0.11534E-02 10640   0.342E-02-0.805E-03
CGA:  11    -0.128310691597E+04   -0.11240E-02   -0.13351E-02 10640   0.670E-02-0.267E-02
CGA:  12    -0.128310771010E+04   -0.79413E-03   -0.77340E-03 10640   0.153E-02-0.675E-04
CGA:  13    -0.128310810751E+04   -0.39741E-03   -0.39309E-03 10640   0.628E-03-0.421E-04
CGA:  14    -0.128310833269E+04   -0.22518E-03   -0.22561E-03 10640   0.762E-03-0.303E-04
CGA:  15    -0.128310801148E+04    0.32122E-03   -0.60731E-03 10640   0.104E-01-0.193E-02
CGA:  16    -0.128310889799E+04   -0.88651E-03   -0.10271E-02 10640   0.110E-02 0.633E-03
CGA:  17    -0.128310914589E+04   -0.24790E-03   -0.27188E-03 10640   0.502E-03 0.180E-03
CGA:  18    -0.128310933347E+04   -0.18758E-03   -0.17547E-03 10640   0.763E-03-0.204E-03
CGA:  19    -0.128310938725E+04   -0.53784E-04   -0.66612E-04 10640   0.499E-03 0.604E-04
CGA:  20    -0.128310940045E+04   -0.13195E-04   -0.44775E-04 10640   0.177E-03 0.120E-03
CGA:  21    -0.128310941151E+04   -0.11061E-04   -0.26706E-04 10640   0.165E-03 0.736E-04
CGA:  22    -0.128310946058E+04   -0.49069E-04   -0.49012E-04 10640   0.142E-03-0.165E-05
CGA:  23    -0.128310950228E+04   -0.41704E-04   -0.37359E-04 10640   0.306E-03-0.861E-04
[...]
       N       E                     dE             d eps       ncg     rms          ort
SDA:   1    -0.128232408672E+04    0.70742E+00    0.00000E+00 10640   0.232E+01 0.000E+00
CGA:   2    -0.128277922057E+04   -0.45513E+00   -0.45518E+00 10640   0.828E+00 0.178E-02
CGA:   3    -0.128299478341E+04   -0.21556E+00   -0.21561E+00 10640   0.209E+00-0.182E-02
CGA:   4    -0.128302819108E+04   -0.33408E-01   -0.33397E-01 10640   0.330E-01-0.202E-03
CGA:   5    -0.128303544090E+04   -0.72498E-02   -0.72486E-02 10640   0.871E-02-0.168E-02
CGA:   6    -0.128303702799E+04   -0.15871E-02   -0.16086E-02 10640   0.245E-02 0.832E-03
CGA:   7    -0.128303768367E+04   -0.65568E-03   -0.68043E-03 10640   0.156E-02-0.733E-03
CGA:   8    -0.128303778888E+04   -0.10522E-03   -0.13232E-03 10640   0.569E-03 0.273E-03
CGA:   9    -0.128303786274E+04   -0.73852E-04   -0.86923E-04 10640   0.333E-03 0.153E-03
CGA:  10    -0.128303540697E+04    0.24558E-02   -0.13263E-02 10640   0.150E-01-0.259E-02
CGA:  11    -0.128303744557E+04   -0.20386E-02   -0.22398E-02 10640   0.374E-02 0.935E-03
CGA:  12    -0.128303820962E+04   -0.76406E-03   -0.70481E-03 10640   0.536E-03-0.300E-03
CGA:  13    -0.128303826550E+04   -0.55872E-04   -0.85909E-04 10640   0.170E-03 0.159E-03
CGA:  14    -0.128303833101E+04   -0.65514E-04   -0.66382E-04 10640   0.102E-03 0.161E-04
CGA:  15    -0.128303835203E+04   -0.21025E-04   -0.24714E-04 10640   0.699E-04 0.281E-04
CGA:  16    -0.128303835815E+04   -0.61115E-05   -0.13639E-04 10640   0.237E-04 0.390E-04
  46 F= -.12830384E+04 E0= -.12830383E+04  d E =-.684586E-02  mag=    47.0000
       N       E                     dE             d eps       ncg     rms          ort
SDA:   1    -0.128240387533E+04    0.63448E+00    0.00000E+00 10640   0.188E+01 0.000E+00
CGA:   2    -0.128280508576E+04   -0.40121E+00   -0.40126E+00 10640   0.750E+00 0.589E-03
CGA:   3    -0.128299047158E+04   -0.18539E+00   -0.18539E+00 10640   0.165E+00-0.438E-03
CGA:   4    -0.128301711050E+04   -0.26639E-01   -0.26667E-01 10640   0.295E-01 0.260E-03
CGA:   5    -0.128302337144E+04   -0.62609E-02   -0.61268E-02 10640   0.813E-02-0.127E-02
CGA:   6    -0.128302470105E+04   -0.13296E-02   -0.14015E-02 10640   0.247E-02 0.576E-03
CGA:   7    -0.128302537466E+04   -0.67361E-03   -0.64359E-03 10640   0.110E-02-0.505E-03
CGA:   8    -0.128302548922E+04   -0.11456E-03   -0.13746E-03 10640   0.376E-03 0.163E-03
CGA:   9    -0.128302561297E+04   -0.12375E-03   -0.12334E-03 10640   0.274E-03-0.595E-04
CGA:  10    -0.128302576596E+04   -0.15299E-03    0.25253E-03 10640   0.344E-03-0.122E-03
CGA:  11    -0.128302580649E+04   -0.40525E-04   -0.34500E-04 10640   0.196E-03-0.541E-04
CGA:  12    -0.128302582023E+04   -0.13742E-04   -0.20604E-04 10640   0.129E-03 0.424E-04
CGA:  13    -0.128302586737E+04   -0.47144E-04   -0.54666E-04 10640   0.193E-03-0.109E-03
CGA:  14    -0.128302592644E+04   -0.59071E-04   -0.67061E-04 10640   0.259E-03-0.123E-03
CGA:  15    -0.128302593545E+04   -0.90049E-05   -0.22473E-04 10640   0.349E-04 0.684E-04
  47 F= -.12830259E+04 E0= -.12830259E+04  d E =0.124227E-01  mag=    47.0000
       N       E                     dE             d eps       ncg     rms          ort
SDA:   1    -0.128171052152E+04    0.13154E+01    0.00000E+00 10640   0.375E+01 0.000E+00
CGA:   2    -0.128254278503E+04   -0.83226E+00   -0.83235E+00 10640   0.160E+01 0.181E-02
CGA:   3    -0.128292461472E+04   -0.38183E+00   -0.38180E+00 10640   0.371E+00-0.243E-02
CGA:   4    -0.128297876215E+04   -0.54147E-01   -0.54208E-01 10640   0.762E-01 0.171E-02
CGA:   5    -0.128299225066E+04   -0.13489E-01   -0.13337E-01 10640   0.234E-01-0.192E-02
CGA:   6    -0.128299619416E+04   -0.39435E-02   -0.39634E-02 10640   0.670E-02 0.311E-03
CGA:   7    -0.128299773419E+04   -0.15400E-02   -0.15344E-02 10640   0.212E-02-0.250E-03
CGA:   8    -0.128299820924E+04   -0.47505E-03   -0.46938E-03 10640   0.131E-02-0.333E-03
CGA:   9    -0.128299845479E+04   -0.24555E-03   -0.24305E-03 10640   0.596E-03-0.917E-04
CGA:  10    -0.128299829969E+04    0.15510E-03   -0.44100E-03 10640   0.470E-02-0.108E-02
CGA:  11    -0.128299883419E+04   -0.53449E-03   -0.52659E-03 10640   0.828E-03-0.422E-04
CGA:  12    -0.128299897118E+04   -0.13700E-03   -0.14557E-03 10640   0.165E-03 0.997E-04
CGA:  13    -0.128299904034E+04   -0.69155E-04   -0.97798E-04 10640   0.477E-03-0.106E-03
CGA:  14    -0.128299908184E+04   -0.41505E-04   -0.50833E-04 10640   0.655E-04 0.571E-04
CGA:  15    -0.128299910744E+04   -0.25599E-04   -0.50306E-04 10640   0.253E-03-0.589E-04
CGA:  16    -0.128299915778E+04   -0.50336E-04   -0.45763E-04 10640   0.103E-03-0.428E-04
CGA:  17    -0.128299918390E+04   -0.26119E-04   -0.26585E-04 10640   0.584E-04-0.149E-04
CGA:  18    -0.128299918478E+04   -0.88325E-06   -0.60750E-05 10640   0.347E-04 0.324E-04
CGA:  19    -0.128299920788E+04   -0.23103E-04    0.22223E-04 10640   0.247E-04 0.127E-04
CGA:  20    -0.128299922944E+04   -0.21552E-04    0.28117E-04 10640   0.216E-04 0.173E-04
CGA:  21    -0.128299923665E+04   -0.72168E-05   -0.68394E-05 10640   0.236E-04 0.903E-05
CGA:  22    -0.128299925626E+04   -0.19605E-04    0.76241E-04 10640   0.202E-04 0.194E-04
CGA:  23    -0.128299925710E+04   -0.84662E-06   -0.18096E-04 10640   0.293E-03-0.279E-04
CGA:  24    -0.128299928749E+04   -0.30389E-04   -0.28703E-04 10640   0.239E-04-0.705E-05
CGA:  25    -0.128299930294E+04   -0.15444E-04    0.30313E-04 10640   0.141E-04 0.692E-05
CGA:  26    -0.128299930222E+04    0.71635E-06   -0.20070E-05 10640   0.103E-04 0.146E-04
  48 F= -.12829993E+04 E0= -.12829993E+04  d E =0.266332E-01  mag=    47.0000
       N       E                     dE             d eps       ncg     rms          ort
SDA:   1    -0.127529180613E+04    0.77075E+01    0.00000E+00 10640   0.201E+02 0.000E+00
CGA:   2    -0.128048351529E+04   -0.51917E+01   -0.51921E+01 10640   0.990E+01 0.530E-02
CGA:   3    -0.128250400143E+04   -0.20205E+01   -0.20211E+01 10640   0.228E+01-0.651E-02
CGA:   4    -0.128281882563E+04   -0.31482E+00   -0.31234E+00 10640   0.471E+00 0.165E-01
CGA:   5    -0.128290388275E+04   -0.85057E-01   -0.85016E-01 10640   0.126E+00-0.130E-02
CGA:   6    -0.128292761993E+04   -0.23737E-01   -0.23740E-01 10640   0.365E-01 0.313E-03
CGA:   7    -0.128293579234E+04   -0.81724E-02   -0.81145E-02 10640   0.127E-01-0.112E-02
CGA:   8    -0.128293834857E+04   -0.25562E-02   -0.25004E-02 10640   0.614E-02-0.819E-03
CGA:   9    -0.128293982304E+04   -0.14745E-02   -0.14661E-02 10640   0.381E-02-0.760E-03
CGA:  10    -0.128294069553E+04   -0.87249E-03   -0.86827E-03 10640   0.256E-02-0.735E-03
CGA:  11    -0.128294123998E+04   -0.54444E-03   -0.85902E-03 10640   0.525E-02-0.209E-02
CGA:  12    -0.128294167188E+04   -0.43190E-03   -0.51394E-03 10640   0.866E-03 0.494E-03
CGA:  13    -0.128294192514E+04   -0.25326E-03   -0.25287E-03 10640   0.478E-03 0.157E-03
CGA:  14    -0.128294193325E+04   -0.81063E-05   -0.35843E-03 10640   0.503E-02-0.946E-03
CGA:  15    -0.128294228035E+04   -0.34710E-03   -0.45144E-03 10640   0.397E-03 0.568E-03
CGA:  16    -0.128294234534E+04   -0.64991E-04   -0.77505E-04 10640   0.264E-03 0.128E-03
CGA:  17    -0.128294231705E+04    0.28289E-04   -0.24503E-03 10640   0.202E-02-0.633E-03
CGA:  18    -0.128294248930E+04   -0.17226E-03   -0.22979E-03 10640   0.519E-03 0.334E-03
CGA:  19    -0.128294264003E+04   -0.15072E-03   -0.15256E-03 10640   0.163E-03 0.632E-04
CGA:  20    -0.128294027922E+04    0.23608E-02   -0.12885E-02 10640   0.254E-01-0.175E-02
CGA:  21    -0.128294253475E+04   -0.22555E-02   -0.25496E-02 10640   0.107E-02 0.118E-02
CGA:  22    -0.128294282243E+04   -0.28768E-03   -0.30231E-03 10640   0.728E-03 0.678E-04
CGA:  23    -0.128294298325E+04   -0.16082E-03   -0.12890E-03 10640   0.762E-04-0.100E-03
CGA:  24    -0.128294300281E+04   -0.19558E-04   -0.19878E-04 10640   0.775E-04 0.210E-05
CGA:  25    -0.128294302289E+04   -0.20081E-04   -0.21757E-04 10640   0.517E-04 0.917E-05
CGA:  26    -0.128294307559E+04   -0.52705E-04    0.57238E-03 10640   0.139E-03-0.309E-05
CGA:  27    -0.128294315901E+04   -0.83413E-04   -0.88185E-04 10640   0.151E-03-0.238E-04
CGA:  28    -0.128294066821E+04    0.24908E-02   -0.13445E-02 10640   0.176E-01-0.117E-02
CGA:  29    -0.128294230121E+04   -0.16330E-02   -0.18531E-02 10640   0.125E-02 0.911E-03
CGA:  30    -0.128294249899E+04   -0.19778E-03   -0.22815E-03 10640   0.492E-03 0.514E-04
CGA:  31    -0.128294264763E+04   -0.14864E-03   -0.15136E-03 10640   0.285E-03 0.747E-05
CGA:  32    -0.128294267566E+04   -0.28031E-04   -0.65087E-04 10640   0.202E-03 0.728E-04
CGA:  33    -0.128294279320E+04   -0.11754E-03   -0.13039E-03 10640   0.425E-03 0.637E-04
CGA:  34    -0.128294293965E+04   -0.14646E-03   -0.18595E-03 10640   0.478E-03 0.103E-03
CGA:  35    -0.128294303345E+04   -0.93796E-04   -0.14962E-03 10640   0.175E-03 0.121E-03
CGA:  36    -0.128294309805E+04   -0.64604E-04   -0.71301E-04 10640   0.185E-03 0.174E-04
CGA:  37    -0.128294315973E+04   -0.61674E-04   -0.56973E-04 10640   0.777E-04-0.149E-04
CGA:  38    -0.128294319713E+04   -0.37402E-04   -0.31048E-04 10640   0.108E-03-0.335E-04
CGA:  39    -0.128293914388E+04    0.40533E-02   -0.22437E-02 10640   0.223E-01-0.128E-02
CGA:  40    -0.128294192404E+04   -0.27802E-02   -0.30103E-02 10640   0.395E-02 0.345E-03
CGA:  41    -0.128294261892E+04   -0.69487E-03   -0.83797E-03 10640   0.133E-02 0.184E-03
CGA:  42    -0.128294288099E+04   -0.26207E-03   -0.26723E-03 10640   0.492E-03 0.507E-05
CGA:  43    -0.128294289954E+04   -0.18544E-04   -0.12547E-03 10640   0.280E-03 0.145E-03
CGA:  44    -0.128294291811E+04   -0.18573E-04   -0.10124E-03 10640   0.153E-03 0.122E-03
CGA:  45    -0.128294295757E+04   -0.39457E-04   -0.64891E-04 10640   0.160E-03 0.400E-04
CGA:  46    -0.128294292359E+04    0.33975E-04   -0.37490E-04 10640   0.102E-03 0.100E-03
CGA:  47    -0.128294292152E+04    0.20751E-05   -0.22531E-04 10640   0.644E-04 0.386E-04
CGA:  48    -0.128294296202E+04   -0.40507E-04   -0.45655E-04 10640   0.103E-03 0.159E-04
CGA:  49    -0.128294302747E+04   -0.65443E-04   -0.65696E-04 10640   0.250E-03-0.102E-05
CGA:  50    -0.128294308330E+04   -0.55834E-04   -0.59850E-04 10640   0.169E-03 0.190E-05
CGA:  51    -0.128294314077E+04   -0.57464E-04   -0.55710E-04 10640   0.168E-03-0.907E-05
CGA:  52    -0.128294316340E+04   -0.22634E-04   -0.26094E-04 10640   0.942E-04 0.324E-05
CGA:  53    -0.128294318489E+04   -0.21492E-04   -0.24511E-04 10640   0.739E-04 0.465E-05
CGA:  54    -0.128294320894E+04   -0.24045E-04   -0.15383E-04 10640   0.322E-04-0.183E-04
CGA:  55    -0.128294321738E+04   -0.84386E-05   -0.43638E-05 10640   0.148E-04-0.848E-05
CGA:  56    -0.128294323553E+04   -0.18156E-04    0.11980E-04 10640   0.798E-04-0.218E-04
CGA:  57    -0.128294326440E+04   -0.28873E-04   -0.13601E-04 10640   0.431E-04-0.319E-04
CGA:  58    -0.128294326151E+04    0.28933E-05   -0.35775E-05 10640   0.165E-04 0.135E-04
  49 F= -.12829433E+04 E0= -.12829432E+04  d E =0.560407E-01  mag=    47.0000
       N       E                     dE             d eps       ncg     rms          ort
SDA:   1    -0.128014771884E+04    0.27955E+01    0.00000E+00 10640   0.745E+01 0.000E+00
CGA:   2    -0.128202395759E+04   -0.18762E+01   -0.18767E+01 10640   0.367E+01-0.167E-02
CGA:   3    -0.128277363060E+04   -0.74967E+00   -0.74839E+00 10640   0.844E+00 0.797E-02
CGA:   4    -0.128288971534E+04   -0.11608E+00   -0.11526E+00 10640   0.174E+00 0.720E-02
CGA:   5    -0.128292085750E+04   -0.31142E-01   -0.31109E-01 10640   0.482E-01-0.608E-03
CGA:   6    -0.128292935157E+04   -0.84941E-02   -0.86765E-02 10640   0.131E-01 0.942E-03
CGA:   7    -0.128293239942E+04   -0.30479E-02   -0.29269E-02 10640   0.504E-02-0.477E-03
CGA:   8    -0.128293313945E+04   -0.74003E-03   -0.81252E-03 10640   0.170E-02 0.276E-03
CGA:   9    -0.128293365877E+04   -0.51932E-03   -0.51274E-03 10640   0.914E-03-0.375E-04
CGA:  10    -0.128293386240E+04   -0.20363E-03   -0.21548E-03 10640   0.530E-03 0.597E-04
CGA:  11    -0.128293401232E+04   -0.14992E-03   -0.14365E-03 10640   0.349E-03-0.341E-04
CGA:  12    -0.128293404991E+04   -0.37581E-04   -0.56575E-04 10640   0.149E-03 0.752E-04
CGA:  13    -0.128293408169E+04   -0.31786E-04   -0.44024E-04 10640   0.959E-04 0.706E-04
CGA:  14    -0.128293411435E+04   -0.32655E-04   -0.38286E-04 10640   0.131E-03 0.411E-04
CGA:  15    -0.128293412954E+04   -0.15196E-04   -0.35315E-04 10640   0.840E-04 0.946E-04
CGA:  16    -0.128293414862E+04   -0.19075E-04   -0.22492E-04 10640   0.475E-04 0.280E-04
CGA:  17    -0.128293416939E+04   -0.20772E-04   -0.21153E-04 10640   0.627E-04 0.757E-05
CGA:  18    -0.128293417601E+04   -0.66212E-05   -0.14545E-04 10640   0.479E-04 0.436E-04
CGA:  19    -0.128293418250E+04   -0.64928E-05   -0.10008E-04 10640   0.274E-04 0.215E-04
CGA:  20    -0.128293419161E+04   -0.91052E-05   -0.10743E-04 10640   0.197E-04 0.176E-04
CGA:  21    -0.128293420704E+04   -0.15428E-04    0.38726E-04 10640   0.302E-04 0.924E-05
CGA:  22    -0.128293421054E+04   -0.35000E-05   -0.84115E-05 10640   0.160E-04 0.290E-04
CGA:  23    -0.128293422217E+04   -0.11635E-04   -0.10692E-04 10640   0.537E-04 0.287E-05
CGA:  24    -0.128293422353E+04   -0.13583E-05   -0.93694E-05 10640   0.229E-04 0.367E-04
CGA:  25    -0.128293423466E+04   -0.11127E-04   -0.13421E-04 10640   0.561E-04-0.995E-05
CGA:  26    -0.128293424480E+04   -0.10143E-04   -0.88442E-05 10640   0.680E-04-0.147E-04
CGA:  27    -0.128293424481E+04   -0.12784E-07   -0.67954E-05 10640   0.598E-04 0.298E-04
CGA:  28    -0.128293424650E+04   -0.16918E-05   -0.12168E-04 10640   0.375E-04 0.499E-04
CGA:  29    -0.128293412619E+04    0.12031E-03   -0.46209E-04 10640   0.167E-02-0.186E-03
CGA:  30    -0.128293423988E+04   -0.11369E-03   -0.16051E-03 10640   0.124E-03 0.171E-03
CGA:  31    -0.128293425355E+04   -0.13671E-04   -0.17991E-04 10640   0.252E-04 0.184E-04
CGA:  32    -0.128293423036E+04    0.23191E-04   -0.28885E-04 10640   0.430E-03-0.815E-04
CGA:  33    -0.128293425094E+04   -0.20582E-04   -0.39680E-04 10640   0.634E-04 0.656E-04
CGA:  34    -0.128293426061E+04   -0.96673E-05   -0.13615E-04 10640   0.324E-04 0.208E-04
  50 F= -.12829343E+04 E0= -.12829342E+04  d E =0.900090E-02  mag=    47.0000
       N       E                     dE             d eps       ncg     rms          ort
SDA:   1    -0.128183902773E+04    0.10952E+01    0.00000E+00 10640   0.318E+01 0.000E+00
CGA:   2    -0.128257015467E+04   -0.73113E+00   -0.73058E+00 10640   0.140E+01-0.422E-02
CGA:   3    -0.128287655985E+04   -0.30641E+00   -0.30698E+00 10640   0.362E+00 0.648E-02
CGA:   4    -0.128292735179E+04   -0.50792E-01   -0.51102E-01 10640   0.818E-01-0.426E-03
CGA:   5    -0.128293983530E+04   -0.12484E-01   -0.12804E-01 10640   0.197E-01 0.238E-02
CGA:   6    -0.128294379125E+04   -0.39560E-02   -0.39684E-02 10640   0.541E-02 0.907E-04
CGA:   7    -0.128294500237E+04   -0.12111E-02   -0.12228E-02 10640   0.178E-02 0.130E-03
CGA:   8    -0.128294538257E+04   -0.38020E-03   -0.36885E-03 10640   0.102E-02-0.985E-04
CGA:   9    -0.128294549544E+04   -0.11286E-03   -0.15006E-03 10640   0.318E-03 0.243E-03
CGA:  10    -0.128294553594E+04   -0.40504E-04   -0.65297E-04 10640   0.173E-03 0.182E-03
CGA:  11    -0.128294555353E+04   -0.17584E-04   -0.26327E-04 10640   0.112E-03 0.612E-04
CGA:  12    -0.128294554825E+04    0.52724E-05   -0.16006E-04 10640   0.726E-04 0.117E-03
  51 F= -.12829455E+04 E0= -.12829455E+04  d E =-.112876E-01  mag=    47.0000
       N       E                     dE             d eps       ncg     rms          ort
SDA:   1    -0.128227383007E+04    0.67172E+00    0.00000E+00 10640   0.196E+01 0.000E+00
CGA:   2    -0.128271160138E+04   -0.43777E+00   -0.43765E+00 10640   0.856E+00-0.257E-02
CGA:   3    -0.128290230964E+04   -0.19071E+00   -0.19075E+00 10640   0.222E+00 0.121E-02
CGA:   4    -0.128293437728E+04   -0.32068E-01   -0.31946E-01 10640   0.448E-01-0.872E-03
CGA:   5    -0.128294191086E+04   -0.75336E-02   -0.75920E-02 10640   0.122E-01 0.705E-03
CGA:   6    -0.128294393279E+04   -0.20219E-02   -0.20870E-02 10640   0.343E-02 0.780E-03
CGA:   7    -0.128294482611E+04   -0.89331E-03   -0.88963E-03 10640   0.193E-02-0.572E-03
CGA:   8    -0.128294496773E+04   -0.14162E-03   -0.18954E-03 10640   0.542E-03 0.368E-03
CGA:   9    -0.128294503254E+04   -0.64815E-04   -0.88658E-04 10640   0.344E-03 0.226E-03
CGA:  10    -0.128294513826E+04   -0.10572E-03   -0.10479E-03 10640   0.223E-03-0.400E-04
CGA:  11    -0.128294516665E+04   -0.28391E-04   -0.33193E-04 10640   0.151E-03 0.705E-04
CGA:  12    -0.128294517666E+04   -0.10012E-04   -0.22358E-04 10640   0.846E-04 0.102E-03
CGA:  13    -0.128294519910E+04   -0.22438E-04   -0.21816E-04 10640   0.559E-04 0.204E-04
CGA:  14    -0.128294519870E+04    0.40272E-06   -0.59847E-05 10640   0.264E-04 0.448E-04
  52 F= -.12829452E+04 E0= -.12829452E+04  d E =0.349556E-03  mag=    47.0000
       N       E                     dE             d eps       ncg     rms          ort
SDA:   1    -0.127426755330E+04    0.86776E+01    0.00000E+00 10640   0.265E+02 0.000E+00
CGA:   2    -0.127978286687E+04   -0.55153E+01   -0.55153E+01 10640   0.104E+02 0.141E-01
CGA:   3    -0.128229388784E+04   -0.25110E+01   -0.25105E+01 10640   0.260E+01 0.688E-02
CGA:   4    -0.128270581055E+04   -0.41192E+00   -0.41251E+00 10640   0.447E+00 0.155E-01
CGA:   5    -0.128279595573E+04   -0.90145E-01   -0.90068E-01 10640   0.124E+00-0.615E-02
CGA:   6    -0.128281791037E+04   -0.21955E-01   -0.22028E-01 10640   0.400E-01 0.254E-02
CGA:   7    -0.128282659983E+04   -0.86895E-02   -0.86920E-02 10640   0.125E-01-0.168E-02
CGA:   8    -0.128282940450E+04   -0.28047E-02   -0.28312E-02 10640   0.723E-02-0.104E-02
CGA:   9    -0.128283064590E+04   -0.12414E-02   -0.12479E-02 10640   0.303E-02 0.281E-03
CGA:  10    -0.128283154595E+04   -0.90005E-03   -0.92812E-03 10640   0.211E-02-0.335E-03
CGA:  11    -0.128283197803E+04   -0.43208E-03   -0.43429E-03 10640   0.133E-02-0.132E-03
CGA:  12    -0.128283234254E+04   -0.36450E-03   -0.59844E-03 10640   0.246E-02-0.893E-03
CGA:  13    -0.128283263238E+04   -0.28985E-03   -0.32061E-03 10640   0.669E-03 0.316E-03
CGA:  14    -0.128283286450E+04   -0.23212E-03   -0.24276E-03 10640   0.557E-03-0.110E-03
CGA:  15    -0.128283301955E+04   -0.15504E-03   -0.14765E-03 10640   0.493E-03 0.841E-04
CGA:  16    -0.128283322148E+04   -0.20194E-03   -0.24347E-03 10640   0.934E-03-0.214E-03
CGA:  17    -0.128283331687E+04   -0.95390E-04   -0.89296E-04 10640   0.775E-03-0.838E-04
CGA:  18    -0.128283345494E+04   -0.13807E-03   -0.14033E-03 10640   0.910E-03 0.515E-04
CGA:  19    -0.128283363453E+04   -0.17958E-03   -0.18102E-03 10640   0.468E-03 0.235E-04
CGA:  20    -0.128283379199E+04   -0.15746E-03   -0.18569E-03 10640   0.131E-02-0.191E-03
CGA:  21    -0.128283388413E+04   -0.92146E-04   -0.89520E-04 10640   0.108E-02-0.293E-04
CGA:  22    -0.128283395752E+04   -0.73386E-04   -0.87570E-04 10640   0.498E-03 0.887E-04
CGA:  23    -0.128283400890E+04   -0.51383E-04   -0.60535E-04 10640   0.422E-03 0.758E-04
CGA:  24    -0.128283408606E+04   -0.77157E-04   -0.73381E-04 10640   0.299E-03-0.560E-04
CGA:  25    -0.128283414021E+04   -0.54150E-04   -0.44579E-04 10640   0.264E-03-0.205E-03
CGA:  26    -0.128283415706E+04   -0.16852E-04   -0.28316E-04 10640   0.858E-04 0.105E-03
CGA:  27    -0.128283416235E+04   -0.52921E-05   -0.12766E-04 10640   0.519E-04 0.711E-04
CGA:  28    -0.128283417597E+04   -0.13618E-04   -0.13236E-04 10640   0.525E-04 0.791E-05
CGA:  29    -0.128283417781E+04   -0.18379E-05   -0.62815E-05 10640   0.260E-04 0.424E-04
  53 F= -.12828342E+04 E0= -.12828342E+04  d E =0.111021E+00  mag=    47.0000
       N       E                     dE             d eps       ncg     rms          ort
SDA:   1    -0.126732039873E+04    0.15514E+02    0.00000E+00 10640   0.514E+02 0.000E+00
CGA:   2    -0.127708817240E+04   -0.97678E+01   -0.97672E+01 10640   0.189E+02-0.729E-02
