       N       E                     dE             d eps       ncg     rms          ort
DAV:   1     0.102907522513E+05    0.10291E+05   -0.42469E+05 10640   0.155E+03
DAV:   2    -0.116546540858E+03   -0.10407E+05   -0.98223E+04 10640   0.474E+02
DAV:   3    -0.152287983757E+04   -0.14063E+04   -0.13115E+04 10640   0.182E+02
DAV:   4    -0.160487643815E+04   -0.81997E+02   -0.79758E+02 10640   0.462E+01
DAV:   5    -0.160725985635E+04   -0.23834E+01   -0.23762E+01 10640   0.841E+00
SDA:   6    -0.728356347443E+03    0.87890E+03   -0.23762E+01 10640   0.290E+04 0.000E+00
CGA:   7    -0.113521033930E+04   -0.40685E+03   -0.40331E+03 10640   0.107E+04-0.202E+02
CGA:   8    -0.115300578779E+04   -0.17795E+02   -0.61724E+02 10640   0.128E+04-0.668E+03
CGA:   9    -0.115860472963E+04   -0.55989E+01   -0.63438E+02 10640   0.188E+04-0.120E+04
CGA:  10    -0.114666683008E+04    0.11938E+02   -0.99817E+02 10640   0.232E+04-0.160E+04
CGA:  11    -0.114379110872E+04    0.28757E+01   -0.11621E+03 10640   0.292E+04-0.243E+04
CGA:  12    -0.111411219082E+04    0.29679E+02   -0.15817E+03 10640   0.376E+04-0.289E+04
CGA:  13    -0.110875931278E+04    0.53529E+01   -0.19357E+03 10640   0.421E+04-0.380E+04
CGA:  14    -0.108319794116E+04    0.25561E+02   -0.22496E+03 10640   0.514E+04-0.440E+04
CGA:  15    -0.109009637428E+04   -0.68984E+01   -0.26223E+03 10640   0.494E+04-0.480E+04
CGA:  16    -0.112702546080E+04   -0.36929E+02   -0.23458E+03 10640   0.439E+04-0.479E+04
CGA:  17    -0.118348448584E+04   -0.56459E+02   -0.18843E+03 10640   0.274E+04-0.350E+04
CGA:  18    -0.123736203840E+04   -0.53878E+02   -0.10156E+03 10640   0.905E+03-0.159E+04
CGA:  19    -0.125715051416E+04   -0.19788E+02   -0.28812E+02 10640   0.131E+03-0.262E+03
CGA:  20    -0.126213991614E+04   -0.49894E+01   -0.42260E+01 10640   0.287E+02 0.126E+02
CGA:  21    -0.126994401368E+04   -0.78041E+01   -0.73962E+01 10640   0.104E+03 0.317E+01
CGA:  22    -0.127725663991E+04   -0.73126E+01   -0.67400E+01 10640   0.610E+01 0.590E+01
CGA:  23    -0.127802650172E+04   -0.76986E+00   -0.77111E+00 10640   0.143E+02-0.944E-01
CGA:  24    -0.127920463388E+04   -0.11781E+01   -0.11977E+01 10640   0.713E+01-0.317E+00
CGA:  25    -0.127975332479E+04   -0.54869E+00   -0.54968E+00 10640   0.366E+01-0.462E+00
CGA:  26    -0.128024157348E+04   -0.48825E+00   -0.49321E+00 10640   0.532E+01-0.356E+00
CGA:  27    -0.128072148893E+04   -0.47992E+00   -0.44817E+00 10640   0.226E+01-0.614E+00
CGA:  28    -0.128097420976E+04   -0.25272E+00   -0.25493E+00 10640   0.325E+01-0.393E+00
CGA:  29    -0.128139369809E+04   -0.41949E+00   -0.49573E+00 10640   0.392E+01-0.114E+01
CGA:  30    -0.128156608977E+04   -0.17239E+00   -0.13988E+00 10640   0.212E+01-0.177E+00
CGA:  31    -0.128171615417E+04   -0.15006E+00   -0.13871E+00 10640   0.181E+01-0.252E+00
CGA:  32    -0.128190706411E+04   -0.19091E+00   -0.19124E+00 10640   0.282E+01-0.305E+00
CGA:  33    -0.128217320926E+04   -0.26615E+00   -0.26498E+00 10640   0.155E+01-0.403E+00
CGA:  34    -0.128229055677E+04   -0.11735E+00   -0.11121E+00 10640   0.768E+00-0.179E+00
CGA:  35    -0.128239827442E+04   -0.10772E+00   -0.10955E+00 10640   0.816E+00-0.562E-01
CGA:  36    -0.128251404784E+04   -0.11577E+00   -0.11271E+00 10640   0.557E+00 0.588E-01
CGA:  37    -0.128259935825E+04   -0.85310E-01   -0.84062E-01 10640   0.259E+00 0.555E-01
CGA:  38    -0.128265250445E+04   -0.53146E-01   -0.49188E-01 10640   0.184E+00 0.744E-01
CGA:  39    -0.128269324548E+04   -0.40741E-01   -0.38055E-01 10640   0.112E+00 0.718E-01
CGA:  40    -0.128271778855E+04   -0.24543E-01   -0.23012E-01 10640   0.678E-01 0.673E-01
CGA:  41    -0.128272932837E+04   -0.11540E-01   -0.10728E-01 10640   0.317E-01 0.259E-01
CGA:  42    -0.128273738168E+04   -0.80533E-02   -0.70633E-02 10640   0.251E-01 0.302E-01
CGA:  43    -0.128274194248E+04   -0.45608E-02   -0.40587E-02 10640   0.166E-01 0.158E-01
CGA:  44    -0.128274452662E+04   -0.25841E-02   -0.24001E-02 10640   0.138E-01 0.145E-01
CGA:  45    -0.128274674389E+04   -0.22173E-02   -0.20301E-02 10640   0.119E-01 0.127E-01
CGA:  46    -0.128274833953E+04   -0.15956E-02   -0.15914E-02 10640   0.105E-01 0.111E-01
CGA:  47    -0.128274971982E+04   -0.13803E-02   -0.13909E-02 10640   0.938E-02 0.988E-02
CGA:  48    -0.128275080410E+04   -0.10843E-02   -0.11634E-02 10640   0.844E-02 0.885E-02
CGA:  49    -0.128275174294E+04   -0.93884E-03   -0.10265E-02 10640   0.764E-02 0.800E-02
CGA:  50    -0.128275252659E+04   -0.78365E-03   -0.89360E-03 10640   0.697E-02 0.728E-02
CGA:  51    -0.128275321299E+04   -0.68640E-03   -0.79827E-03 10640   0.639E-02 0.666E-02
CGA:  52    -0.128275381060E+04   -0.59761E-03   -0.71336E-03 10640   0.590E-02 0.613E-02
CGA:  53    -0.128275434353E+04   -0.53294E-03   -0.64591E-03 10640   0.546E-02 0.566E-02
CGA:  54    -0.128275482134E+04   -0.47781E-03   -0.58756E-03 10640   0.508E-02 0.526E-02
CGA:  55    -0.128275525554E+04   -0.43420E-03   -0.53866E-03 10640   0.474E-02 0.490E-02
CGA:  56    -0.128275565321E+04   -0.39768E-03   -0.49641E-03 10640   0.443E-02 0.458E-02
CGA:  57    -0.128275602090E+04   -0.36769E-03   -0.46008E-03 10640   0.416E-02 0.429E-02
CGA:  58    -0.128275636340E+04   -0.34251E-03   -0.42843E-03 10640   0.392E-02 0.403E-02
CGA:  59    -0.128275668477E+04   -0.32136E-03   -0.40073E-03 10640   0.370E-02 0.380E-02
CGA:  60    -0.128275698824E+04   -0.30347E-03   -0.37634E-03 10640   0.349E-02 0.359E-02
CGA:  61    -0.128275727654E+04   -0.28831E-03   -0.35478E-03 10640   0.331E-02 0.340E-02
CGA:  62    -0.128275755198E+04   -0.27544E-03   -0.33567E-03 10640   0.314E-02 0.322E-02
CGA:  63    -0.128275781652E+04   -0.26454E-03   -0.31866E-03 10640   0.298E-02 0.306E-02
CGA:  64    -0.128275807186E+04   -0.25533E-03   -0.30351E-03 10640   0.284E-02 0.291E-02
CGA:  65    -0.128275831945E+04   -0.24759E-03   -0.28998E-03 10640   0.270E-02 0.277E-02
CGA:  66    -0.128275856060E+04   -0.24116E-03   -0.27790E-03 10640   0.258E-02 0.264E-02
CGA:  67    -0.128275879651E+04   -0.23591E-03   -0.26712E-03 10640   0.246E-02 0.252E-02
CGA:  68    -0.128275902825E+04   -0.23174E-03   -0.25751E-03 10640   0.235E-02 0.240E-02
CGA:  69    -0.128275925681E+04   -0.22856E-03   -0.24898E-03 10640   0.225E-02 0.230E-02
CGA:  70    -0.128275948313E+04   -0.22632E-03   -0.24144E-03 10640   0.215E-02 0.219E-02
CGA:  71    -0.128275970813E+04   -0.22500E-03   -0.23483E-03 10640   0.205E-02 0.210E-02
CGA:  72    -0.128275993270E+04   -0.22457E-03   -0.22911E-03 10640   0.196E-02 0.201E-02
CGA:  73    -0.128276015774E+04   -0.22504E-03   -0.22424E-03 10640   0.188E-02 0.192E-02
CGA:  74    -0.128276038422E+04   -0.22647E-03   -0.22021E-03 10640   0.180E-02 0.184E-02
CGA:  75    -0.128276061305E+04   -0.22883E-03   -0.21699E-03 10640   0.172E-02 0.176E-02
CGA:  76    -0.128276084538E+04   -0.23233E-03   -0.21467E-03 10640   0.165E-02 0.168E-02
CGA:  77    -0.128276108216E+04   -0.23678E-03   -0.21313E-03 10640   0.157E-02 0.161E-02
CGA:  78    -0.128276132485E+04   -0.24269E-03   -0.21265E-03 10640   0.151E-02 0.153E-02
CGA:  79    -0.128276157427E+04   -0.24942E-03   -0.21295E-03 10640   0.144E-02 0.146E-02
CGA:  80    -0.128276183204E+04   -0.25777E-03   -0.21453E-03 10640   0.138E-02 0.139E-02
CGA:  81    -0.128276209887E+04   -0.26683E-03   -0.21708E-03 10640   0.133E-02 0.131E-02
CGA:  82    -0.128276237589E+04   -0.27702E-03   -0.22100E-03 10640   0.128E-02 0.123E-02
CGA:  83    -0.128276266483E+04   -0.28894E-03   -0.22685E-03 10640   0.124E-02 0.115E-02
CGA:  84    -0.128276296377E+04   -0.29894E-03   -0.23300E-03 10640   0.121E-02 0.106E-02
CGA:  85    -0.128276327842E+04   -0.31465E-03   -0.24393E-03 10640   0.119E-02 0.966E-03
CGA:  86    -0.128276359544E+04   -0.31703E-03   -0.24975E-03 10640   0.117E-02 0.864E-03
CGA:  87    -0.128276393556E+04   -0.34012E-03   -0.26964E-03 10640   0.119E-02 0.747E-03
CGA:  88    -0.128276425392E+04   -0.31836E-03   -0.26504E-03 10640   0.114E-02 0.648E-03
CGA:  89    -0.128276463256E+04   -0.37863E-03   -0.31305E-03 10640   0.128E-02 0.503E-03
CGA:  90    -0.128276565870E+04   -0.10261E-02   -0.67791E-03 10640   0.945E-03 0.160E-02
CGA:  91    -0.128276604111E+04   -0.38241E-03   -0.55910E-03 10640   0.510E-02-0.416E-03
CGA:  92    -0.128276654150E+04   -0.50039E-03   -0.50430E-03 10640   0.826E-02 0.486E-03
CGA:  93    -0.128276841322E+04   -0.18717E-02   -0.18408E-02 10640   0.110E-01 0.144E-02
CGA:  94    -0.128277107754E+04   -0.26643E-02   -0.26832E-02 10640   0.251E-02-0.117E-02
CGA:  95    -0.128277068478E+04    0.39276E-03   -0.13218E-02 10640   0.211E-01-0.436E-02
CGA:  96    -0.128277224557E+04   -0.15608E-02   -0.17558E-02 10640   0.120E-02 0.173E-02
CGA:  97    -0.128277245226E+04   -0.20669E-03   -0.20823E-03 10640   0.250E-03 0.382E-04
CGA:  98    -0.128277265304E+04   -0.20078E-03    0.26275E-04 10640   0.278E-03 0.130E-05
CGA:  99    -0.128277285735E+04   -0.20431E-03    0.32527E-04 10640   0.227E-03 0.164E-03
CGA: 100    -0.128277286084E+04   -0.34872E-05   -0.18787E-04 10640   0.105E-03 0.133E-03
CGA: 101    -0.128277291459E+04   -0.53750E-04    0.31081E-04 10640   0.689E-04 0.754E-04
CGA: 102    -0.128277296986E+04   -0.55275E-04    0.61018E-05 10640   0.609E-04 0.619E-04
CGA: 103    -0.128277300543E+04   -0.35572E-04    0.11292E-04 10640   0.555E-04 0.557E-04
CGA: 104    -0.128277304920E+04   -0.43766E-04    0.50812E-05 10640   0.512E-04 0.505E-04
CGA: 105    -0.128277307603E+04   -0.26826E-04    0.13486E-04 10640   0.477E-04 0.457E-04
CGA: 106    -0.128277311019E+04   -0.34165E-04    0.53148E-05 10640   0.455E-04 0.407E-04
CGA: 107    -0.128277313071E+04   -0.20515E-04    0.25481E-04 10640   0.454E-04 0.351E-04
CGA: 108    -0.128277315509E+04   -0.24383E-04    0.10966E-04 10640   0.489E-04 0.276E-04
CGA: 109    -0.128277303921E+04    0.11588E-03   -0.63189E-04 10640   0.288E-02-0.168E-03
CGA: 110    -0.128277326172E+04   -0.22250E-03   -0.22834E-03 10640   0.258E-04 0.292E-04
CGA: 111    -0.128277329704E+04   -0.35323E-04    0.43215E-05 10640   0.559E-04 0.620E-05
CGA: 112    -0.128277329578E+04    0.12594E-05   -0.10399E-04 10640   0.349E-04 0.622E-04
   1 F= -.12827733E+04 E0= -.12827713E+04  d E =-.128277E+04  mag=    47.0000
       N       E                     dE             d eps       ncg     rms          ort
SDA:   1    -0.128277607108E+04   -0.27740E-02    0.00000E+00 10640   0.412E-02 0.000E+00
CGA:   2    -0.128277701400E+04   -0.94292E-03   -0.92497E-03 10640   0.259E-02-0.199E-03
CGA:   3    -0.128277738655E+04   -0.37255E-03   -0.39193E-03 10640   0.567E-03 0.134E-03
CGA:   4    -0.128277740220E+04   -0.15648E-04   -0.33551E-03 10640   0.322E-02-0.122E-02
CGA:   5    -0.128277764395E+04   -0.24175E-03   -0.34544E-03 10640   0.430E-03 0.506E-03
CGA:   6    -0.128277768313E+04   -0.39185E-04   -0.57380E-04 10640   0.826E-04 0.968E-04
CGA:   7    -0.128277768707E+04   -0.39344E-05   -0.12891E-04 10640   0.485E-04 0.536E-04
   2 F= -.12827777E+04 E0= -.12827757E+04  d E =-.439128E-02  mag=    47.0000
       N       E                     dE             d eps       ncg     rms          ort
SDA:   1    -0.128130164342E+04    0.14760E+01    0.00000E+00 10640   0.425E+01 0.000E+00
CGA:   2    -0.128240939780E+04   -0.11078E+01   -0.11081E+01 10640   0.189E+01 0.227E-01
CGA:   3    -0.128279708784E+04   -0.38769E+00   -0.38689E+00 10640   0.509E+00-0.286E-01
CGA:   4    -0.128287092995E+04   -0.73842E-01   -0.73417E-01 10640   0.103E+00 0.648E-02
CGA:   5    -0.128289162092E+04   -0.20691E-01   -0.20135E-01 10640   0.310E-01-0.795E-02
CGA:   6    -0.128289664409E+04   -0.50232E-02   -0.49212E-02 10640   0.111E-01-0.107E-02
CGA:   7    -0.128289864399E+04   -0.19999E-02   -0.19982E-02 10640   0.373E-02-0.620E-05
CGA:   8    -0.128289959679E+04   -0.95280E-03   -0.95508E-03 10640   0.343E-02-0.123E-02
CGA:   9    -0.128290007364E+04   -0.47685E-03   -0.44547E-03 10640   0.163E-02-0.507E-03
CGA:  10    -0.128290084014E+04   -0.76650E-03    0.17934E-02 10640   0.784E-03-0.514E-04
CGA:  11    -0.128290145925E+04   -0.61910E-03    0.15313E-03 10640   0.928E-03-0.254E-03
CGA:  12    -0.128290198406E+04   -0.52482E-03    0.11897E-03 10640   0.707E-03-0.381E-03
CGA:  13    -0.128290232458E+04   -0.34052E-03    0.83621E-04 10640   0.725E-03-0.211E-03
CGA:  14    -0.128290275197E+04   -0.42738E-03    0.95269E-04 10640   0.520E-03-0.181E-03
CGA:  15    -0.128289887191E+04    0.38801E-02   -0.21093E-02 10640   0.391E-01-0.332E-02
CGA:  16    -0.128290292817E+04   -0.40563E-02   -0.38231E-02 10640   0.392E-02-0.562E-03
CGA:  17    -0.128290373472E+04   -0.80655E-03   -0.80296E-03 10640   0.143E-02-0.836E-05
CGA:  18    -0.128290392783E+04   -0.19311E-03   -0.23761E-03 10640   0.209E-03 0.175E-03
CGA:  19    -0.128290390009E+04    0.27744E-04   -0.23763E-04 10640   0.129E-03 0.164E-03
CGA:  20    -0.128290387290E+04    0.27184E-04   -0.95492E-05 10640   0.102E-03 0.113E-03
CGA:  21    -0.128290384916E+04    0.23740E-04   -0.65541E-05 10640   0.890E-04 0.948E-04
CGA:  22    -0.128290382802E+04    0.21142E-04   -0.50876E-05 10640   0.807E-04 0.844E-04
CGA:  23    -0.128290380896E+04    0.19064E-04   -0.41738E-05 10640   0.747E-04 0.773E-04
CGA:  24    -0.128290379162E+04    0.17341E-04   -0.35364E-05 10640   0.700E-04 0.720E-04
CGA:  25    -0.128290377574E+04    0.15880E-04   -0.30601E-05 10640   0.663E-04 0.679E-04
CGA:  26    -0.128290376112E+04    0.14614E-04   -0.26874E-05 10640   0.632E-04 0.645E-04
CGA:  27    -0.128290374762E+04    0.13504E-04   -0.23858E-05 10640   0.606E-04 0.617E-04
CGA:  28    -0.128290373510E+04    0.12518E-04   -0.21356E-05 10640   0.584E-04 0.593E-04
CGA:  29    -0.128290372347E+04    0.11634E-04   -0.19241E-05 10640   0.564E-04 0.572E-04
CGA:  30    -0.128290371263E+04    0.10836E-04   -0.17424E-05 10640   0.546E-04 0.553E-04
CGA:  31    -0.128290370252E+04    0.10111E-04   -0.15845E-05 10640   0.531E-04 0.537E-04
CGA:  32    -0.128290369307E+04    0.94489E-05   -0.14461E-05 10640   0.516E-04 0.522E-04
   3 F= -.12829037E+04 E0= -.12829027E+04  d E =-.126006E+00  mag=    47.0000
       N       E                     dE             d eps       ncg     rms          ort
SDA:   1    -0.127535093625E+04    0.75528E+01    0.00000E+00 10640   0.203E+02 0.000E+00
CGA:   2    -0.128075510983E+04   -0.54042E+01   -0.54027E+01 10640   0.886E+01 0.396E-01
CGA:   3    -0.128257203621E+04   -0.18169E+01   -0.18175E+01 10640   0.218E+01-0.234E-01
CGA:   4    -0.128291948386E+04   -0.34745E+00   -0.34647E+00 10640   0.456E+00 0.740E-03
CGA:   5    -0.128300504480E+04   -0.85561E-01   -0.85101E-01 10640   0.119E+00-0.179E-01
CGA:   6    -0.128302710765E+04   -0.22063E-01   -0.21994E-01 10640   0.454E-01-0.311E-02
CGA:   7    -0.128303597771E+04   -0.88701E-02   -0.88501E-02 10640   0.165E-01-0.162E-02
CGA:   8    -0.128303960544E+04   -0.36277E-02   -0.36987E-02 10640   0.120E-01-0.336E-02
CGA:   9    -0.128304195094E+04   -0.23455E-02   -0.25139E-02 10640   0.764E-02-0.330E-02
CGA:  10    -0.128303400211E+04    0.79488E-02   -0.50393E-02 10640   0.937E-01-0.186E-01
CGA:  11    -0.128304383829E+04   -0.98362E-02   -0.99206E-02 10640   0.126E-01 0.121E-02
CGA:  12    -0.128304670641E+04   -0.28681E-02   -0.28676E-02 10640   0.402E-02-0.229E-04
CGA:  13    -0.128304749485E+04   -0.78843E-03   -0.81294E-03 10640   0.219E-02 0.633E-03
CGA:  14    -0.128304812837E+04   -0.63353E-03   -0.63057E-03 10640   0.739E-03 0.338E-03
CGA:  15    -0.128304716563E+04    0.96275E-03   -0.94017E-03 10640   0.127E-01-0.220E-02
CGA:  16    -0.128304801982E+04   -0.85420E-03   -0.12253E-02 10640   0.122E-02 0.213E-02
CGA:  17    -0.128304814243E+04   -0.12261E-03   -0.19200E-03 10640   0.601E-03 0.502E-03
CGA:  18    -0.128304838322E+04   -0.24079E-03   -0.24584E-03 10640   0.571E-03-0.222E-03
CGA:  19    -0.128304842784E+04   -0.44620E-04   -0.46312E-04 10640   0.403E-03 0.127E-04
CGA:  20    -0.128304846710E+04   -0.39252E-04   -0.51572E-04 10640   0.303E-03 0.908E-04
CGA:  21    -0.128304854966E+04   -0.82561E-04   -0.80780E-04 10640   0.186E-03-0.494E-04
CGA:  22    -0.128304863913E+04   -0.89468E-04    0.14072E-03 10640   0.279E-03-0.172E-03
CGA:  23    -0.128304863790E+04    0.12231E-05   -0.23042E-04 10640   0.103E-03 0.143E-03
CGA:  24    -0.128304864890E+04   -0.10999E-04   -0.16420E-04 10640   0.504E-04 0.645E-04
CGA:  25    -0.128304867528E+04   -0.26376E-04   -0.59616E-04 10640   0.221E-03-0.358E-04
CGA:  26    -0.128304867827E+04   -0.29913E-05   -0.19792E-04 10640   0.589E-04 0.857E-04
CGA:  27    -0.128304869098E+04   -0.12711E-04   -0.14036E-04 10640   0.501E-04 0.126E-04
CGA:  28    -0.128304875164E+04   -0.60660E-04    0.98791E-05 10640   0.502E-04-0.379E-04
CGA:  29    -0.128304874753E+04    0.41107E-05   -0.36355E-05 10640   0.310E-04 0.388E-04
   4 F= -.12830487E+04 E0= -.12830486E+04  d E =-.145054E+00  mag=    47.0000
       N       E                     dE             d eps       ncg     rms          ort
SDA:   1    -0.128154411415E+04    0.15046E+01    0.00000E+00 10640   0.412E+01 0.000E+00
CGA:   2    -0.128260100709E+04   -0.10569E+01   -0.10569E+01 10640   0.180E+01 0.118E-01
CGA:   3    -0.128298923349E+04   -0.38823E+00   -0.38776E+00 10640   0.386E+00-0.150E-01
CGA:   4    -0.128305398414E+04   -0.64751E-01   -0.64834E-01 10640   0.751E-01 0.167E-02
CGA:   5    -0.128306987571E+04   -0.15892E-01   -0.15609E-01 10640   0.218E-01-0.699E-02
CGA:   6    -0.128307337710E+04   -0.35014E-02   -0.35371E-02 10640   0.678E-02 0.615E-03
CGA:   7    -0.128307511127E+04   -0.17342E-02   -0.17451E-02 10640   0.285E-02-0.135E-02
CGA:   8    -0.128307575172E+04   -0.64045E-03   -0.69520E-03 10640   0.253E-02-0.881E-03
CGA:   9    -0.128307618860E+04   -0.43688E-03   -0.57046E-03 10640   0.342E-02-0.166E-02
CGA:  10    -0.128307665385E+04   -0.46525E-03   -0.42538E-03 10640   0.938E-03-0.315E-03
CGA:  11    -0.128307626753E+04    0.38632E-03   -0.64873E-03 10640   0.818E-02-0.199E-02
CGA:  12    -0.128307711956E+04   -0.85203E-03   -0.88270E-03 10640   0.132E-02 0.201E-03
CGA:  13    -0.128307733778E+04   -0.21821E-03   -0.23524E-03 10640   0.118E-03 0.194E-03
CGA:  14    -0.128307742008E+04   -0.82297E-04    0.93658E-04 10640   0.780E-04 0.287E-04
CGA:  15    -0.128307748851E+04   -0.68434E-04    0.33511E-04 10640   0.950E-04-0.794E-05
CGA:  16    -0.128307762269E+04   -0.13418E-03    0.53203E-05 10640   0.776E-04 0.205E-04
CGA:  17    -0.128307780646E+04   -0.18377E-03    0.43497E-05 10640   0.108E-03 0.317E-04
CGA:  18    -0.128307805339E+04   -0.24694E-03    0.89566E-05 10640   0.698E-04 0.338E-04
CGA:  19    -0.128307815947E+04   -0.10608E-03    0.94398E-05 10640   0.466E-04 0.372E-04
CGA:  20    -0.128307819371E+04   -0.34233E-04    0.14006E-04 10640   0.399E-04-0.112E-05
CGA:  21    -0.128307818744E+04    0.62703E-05   -0.12714E-05 10640   0.303E-04 0.336E-04
   5 F= -.12830782E+04 E0= -.12830781E+04  d E =-.294399E-01  mag=    47.0000
       N       E                     dE             d eps       ncg     rms          ort
SDA:   1    -0.127655782569E+04    0.65204E+01    0.00000E+00 10640   0.166E+02 0.000E+00
CGA:   2    -0.128129324731E+04   -0.47354E+01   -0.47357E+01 10640   0.728E+01 0.199E-02
CGA:   3    -0.128275706028E+04   -0.14638E+01   -0.14640E+01 10640   0.139E+01-0.104E-01
CGA:   4    -0.128300122210E+04   -0.24416E+00   -0.24411E+00 10640   0.290E+00 0.125E-03
CGA:   5    -0.128305935854E+04   -0.58136E-01   -0.57921E-01 10640   0.744E-01-0.668E-02
CGA:   6    -0.128307448573E+04   -0.15127E-01   -0.15055E-01 10640   0.305E-01-0.297E-02
CGA:   7    -0.128308008756E+04   -0.56018E-02   -0.55422E-02 10640   0.999E-02-0.141E-02
CGA:   8    -0.128308272260E+04   -0.26350E-02   -0.28229E-02 10640   0.874E-02-0.272E-02
CGA:   9    -0.128308412977E+04   -0.14072E-02   -0.13836E-02 10640   0.423E-02-0.170E-02
CGA:  10    -0.128308340135E+04    0.72842E-03   -0.23810E-02 10640   0.185E-01-0.662E-02
CGA:  11    -0.128308612175E+04   -0.27204E-02   -0.27016E-02 10640   0.394E-02-0.125E-03
CGA:  12    -0.128308677053E+04   -0.64878E-03   -0.65836E-03 10640   0.968E-03 0.123E-03
CGA:  13    -0.128308707795E+04   -0.30742E-03   -0.30373E-03 10640   0.733E-03 0.632E-04
CGA:  14    -0.128308721763E+04   -0.13968E-03   -0.42292E-03 10640   0.322E-02-0.960E-03
CGA:  15    -0.128308752236E+04   -0.30472E-03   -0.33244E-03 10640   0.312E-03 0.189E-03
CGA:  16    -0.128308760933E+04   -0.86970E-04   -0.86729E-04 10640   0.169E-03 0.300E-04
CGA:  17    -0.128308635381E+04    0.12555E-02   -0.67686E-03 10640   0.124E-01-0.114E-02
CGA:  18    -0.128308764655E+04   -0.12927E-02   -0.13745E-02 10640   0.975E-03 0.252E-03
CGA:  19    -0.128308789690E+04   -0.25035E-03   -0.27417E-03 10640   0.371E-03 0.140E-03
CGA:  20    -0.128308806873E+04   -0.17183E-03   -0.13220E-03 10640   0.575E-03-0.313E-03
CGA:  21    -0.128308808315E+04   -0.14418E-04   -0.51899E-04 10640   0.606E-04 0.112E-03
CGA:  22    -0.128308807879E+04    0.43530E-05   -0.70592E-05 10640   0.349E-04 0.361E-04
CGA:  23    -0.128308811405E+04   -0.35260E-04    0.26304E-04 10640   0.578E-04 0.258E-05
CGA:  24    -0.128308813829E+04   -0.24239E-04   -0.23877E-04 10640   0.112E-03-0.255E-04
CGA:  25    -0.128308813098E+04    0.73154E-05   -0.55427E-04 10640   0.544E-03-0.131E-03
CGA:  26    -0.128308828279E+04   -0.15182E-03   -0.12470E-03 10640   0.487E-03-0.139E-03
CGA:  27    -0.128308835128E+04   -0.68484E-04   -0.67346E-04 10640   0.993E-04-0.433E-05
CGA:  28    -0.128308834301E+04    0.82731E-05   -0.65918E-05 10640   0.345E-04 0.446E-04
   6 F= -.12830883E+04 E0= -.12830883E+04  d E =-.101556E-01  mag=    47.0000
       N       E                     dE             d eps       ncg     rms          ort
SDA:   1    -0.128216577341E+04    0.92258E+00    0.00000E+00 10640   0.257E+01 0.000E+00
CGA:   2    -0.128280250233E+04   -0.63673E+00   -0.63565E+00 10640   0.116E+01-0.903E-02
CGA:   3    -0.128304753217E+04   -0.24503E+00   -0.24629E+00 10640   0.223E+00 0.105E-01
CGA:   4    -0.128308537016E+04   -0.37838E-01   -0.38039E-01 10640   0.442E-01 0.716E-03
CGA:   5    -0.128309312666E+04   -0.77565E-02   -0.82461E-02 10640   0.955E-02 0.320E-02
CGA:   6    -0.128309538631E+04   -0.22596E-02   -0.22250E-02 10640   0.406E-02-0.291E-03
CGA:   7    -0.128309598276E+04   -0.59645E-03   -0.65675E-03 10640   0.108E-02 0.379E-03
CGA:   8    -0.128309624845E+04   -0.26570E-03   -0.27520E-03 10640   0.499E-03 0.107E-03
CGA:   9    -0.128309636149E+04   -0.11303E-03   -0.12235E-03 10640   0.278E-03 0.977E-04
CGA:  10    -0.128309634777E+04    0.13720E-04   -0.32694E-04 10640   0.139E-03 0.215E-03
CGA:  11    -0.128309633546E+04    0.12305E-04   -0.11228E-04 10640   0.880E-04 0.106E-03
CGA:  12    -0.128309632647E+04    0.89981E-05   -0.72425E-05 10640   0.687E-04 0.774E-04
   7 F= -.12830963E+04 E0= -.12830963E+04  d E =-.798346E-02  mag=    47.0000
       N       E                     dE             d eps       ncg     rms          ort
SDA:   1    -0.128286913481E+04    0.22720E+00    0.00000E+00 10640   0.623E+00 0.000E+00
CGA:   2    -0.128303046286E+04   -0.16133E+00   -0.16125E+00 10640   0.281E+00-0.611E-02
CGA:   3    -0.128308488405E+04   -0.54421E-01   -0.54839E-01 10640   0.659E-01 0.652E-02
CGA:   4    -0.128309547776E+04   -0.10594E-01   -0.10691E-01 10640   0.147E-01 0.941E-03
CGA:   5    -0.128309766932E+04   -0.21916E-02   -0.23221E-02 10640   0.322E-02 0.126E-02
CGA:   6    -0.128309819248E+04   -0.52316E-03   -0.58409E-03 10640   0.874E-03 0.688E-03
CGA:   7    -0.128309845335E+04   -0.26087E-03   -0.26145E-03 10640   0.323E-03 0.109E-03
CGA:   8    -0.128309847368E+04   -0.20335E-04   -0.45033E-04 10640   0.150E-03 0.194E-03
CGA:   9    -0.128309848095E+04   -0.72664E-05   -0.19374E-04 10640   0.858E-04 0.105E-03
   8 F= -.12830985E+04 E0= -.12830984E+04  d E =-.215448E-02  mag=    47.0000
       N       E                     dE             d eps       ncg     rms          ort
SDA:   1    -0.128287136983E+04    0.22710E+00    0.00000E+00 10640   0.592E+00 0.000E+00
CGA:   2    -0.128302837917E+04   -0.15701E+00   -0.15717E+00 10640   0.282E+00-0.470E-02
CGA:   3    -0.128308348845E+04   -0.55109E-01   -0.55341E-01 10640   0.536E-01 0.669E-02
CGA:   4    -0.128309231822E+04   -0.88298E-02   -0.88677E-02 10640   0.121E-01 0.538E-03
CGA:   5    -0.128309428207E+04   -0.19639E-02   -0.20229E-02 10640   0.305E-02 0.942E-03
CGA:   6    -0.128309484822E+04   -0.56615E-03   -0.58018E-03 10640   0.935E-03 0.288E-03
CGA:   7    -0.128309510097E+04   -0.25275E-03   -0.25470E-03 10640   0.439E-03-0.759E-04
CGA:   8    -0.128309512994E+04   -0.28975E-04   -0.47356E-04 10640   0.169E-03 0.172E-03
CGA:   9    -0.128309513354E+04   -0.35996E-05   -0.21896E-04 10640   0.110E-03 0.145E-03
CGA:  10    -0.128309514460E+04   -0.11055E-04   -0.15639E-04 10640   0.669E-04 0.648E-04
CGA:  11    -0.128309514318E+04    0.14203E-05   -0.56476E-05 10640   0.525E-04 0.565E-04
   9 F= -.12830951E+04 E0= -.12830951E+04  d E =0.333777E-02  mag=    47.0000
       N       E                     dE             d eps       ncg     rms          ort
SDA:   1    -0.128184709133E+04    0.12481E+01    0.00000E+00 10640   0.331E+01 0.000E+00
CGA:   2    -0.128268209846E+04   -0.83501E+00   -0.83546E+00 10640   0.165E+01-0.775E-02
CGA:   3    -0.128299935270E+04   -0.31725E+00   -0.31729E+00 10640   0.423E+00 0.748E-02
CGA:   4    -0.128305847468E+04   -0.59122E-01   -0.59368E-01 10640   0.811E-01 0.395E-02
CGA:   5    -0.128307363265E+04   -0.15158E-01   -0.15166E-01 10640   0.210E-01 0.841E-03
CGA:   6    -0.128307760747E+04   -0.39748E-02   -0.39749E-02 10640   0.648E-02 0.292E-04
CGA:   7    -0.128307897328E+04   -0.13658E-02   -0.13688E-02 10640   0.233E-02-0.181E-03
CGA:   8    -0.128307945606E+04   -0.48278E-03   -0.48570E-03 10640   0.113E-02-0.160E-03
CGA:   9    -0.128307963404E+04   -0.17798E-03   -0.18446E-03 10640   0.402E-03 0.297E-03
CGA:  10    -0.128307975019E+04   -0.11615E-03   -0.11159E-03 10640   0.208E-03 0.191E-03
CGA:  11    -0.128307980789E+04   -0.57699E-04   -0.58514E-04 10640   0.141E-03 0.126E-03
CGA:  12    -0.128307981706E+04   -0.91661E-05   -0.15994E-04 10640   0.835E-04 0.821E-04
CGA:  13    -0.128307983781E+04   -0.20755E-04   -0.18768E-04 10640   0.712E-04 0.618E-04
CGA:  14    -0.128307984171E+04   -0.38933E-05   -0.82965E-05 10640   0.596E-04 0.564E-04
CGA:  15    -0.128307985271E+04   -0.10999E-04   -0.11166E-04 10640   0.555E-04 0.539E-04
CGA:  16    -0.128307985782E+04   -0.51190E-05   -0.77197E-05 10640   0.515E-04 0.506E-04
  10 F= -.12830799E+04 E0= -.12830798E+04  d E =0.152854E-01  mag=    47.0000
       N       E                     dE             d eps       ncg     rms          ort
SDA:   1    -0.128187148964E+04    0.12084E+01    0.00000E+00 10640   0.343E+01 0.000E+00
CGA:   2    -0.128264656880E+04   -0.77508E+00   -0.77543E+00 10640   0.152E+01-0.826E-02
CGA:   3    -0.128298927723E+04   -0.34271E+00   -0.34229E+00 10640   0.354E+00 0.115E-01
CGA:   4    -0.128304093342E+04   -0.51656E-01   -0.51774E-01 10640   0.743E-01 0.245E-02
CGA:   5    -0.128305340972E+04   -0.12476E-01   -0.12504E-01 10640   0.211E-01 0.141E-02
CGA:   6    -0.128305746047E+04   -0.40508E-02   -0.40510E-02 10640   0.597E-02-0.267E-03
CGA:   7    -0.128305885419E+04   -0.13937E-02   -0.14212E-02 10640   0.228E-02-0.510E-03
CGA:   8    -0.128305923318E+04   -0.37899E-03   -0.37872E-03 10640   0.100E-02-0.262E-04
CGA:   9    -0.128305944023E+04   -0.20705E-03   -0.20413E-03 10640   0.360E-03 0.179E-03
CGA:  10    -0.128305955240E+04   -0.11217E-03   -0.10443E-03 10640   0.169E-03 0.139E-03
CGA:  11    -0.128305958705E+04   -0.34646E-04   -0.38677E-04 10640   0.947E-04 0.139E-03
CGA:  12    -0.128305961345E+04   -0.26399E-04   -0.23333E-04 10640   0.671E-04 0.563E-04
CGA:  13    -0.128305962056E+04   -0.71144E-05   -0.95805E-05 10640   0.557E-04 0.474E-04
CGA:  14    -0.128305963083E+04   -0.10263E-04   -0.10457E-04 10640   0.529E-04 0.434E-04
CGA:  15    -0.128305963767E+04   -0.68408E-05   -0.82534E-05 10640   0.480E-04 0.392E-04
  11 F= -.12830596E+04 E0= -.12830596E+04  d E =0.202202E-01  mag=    47.0000
       N       E                     dE             d eps       ncg     rms          ort
SDA:   1    -0.128267284170E+04    0.38679E+00    0.00000E+00 10640   0.106E+01 0.000E+00
CGA:   2    -0.128292592250E+04   -0.25308E+00   -0.25298E+00 10640   0.485E+00 0.233E-02
CGA:   3    -0.128302936737E+04   -0.10344E+00   -0.10355E+00 10640   0.132E+00-0.504E-02
CGA:   4    -0.128304745722E+04   -0.18090E-01   -0.18116E-01 10640   0.268E-01 0.732E-03
CGA:   5    -0.128305231847E+04   -0.48612E-02   -0.48533E-02 10640   0.705E-02-0.833E-03
CGA:   6    -0.128305372518E+04   -0.14067E-02   -0.14242E-02 10640   0.261E-02-0.893E-03
CGA:   7    -0.128305416010E+04   -0.43492E-03   -0.43494E-03 10640   0.800E-03-0.504E-04
CGA:   8    -0.128305434429E+04   -0.18420E-03   -0.19496E-03 10640   0.500E-03-0.183E-03
CGA:   9    -0.128305418314E+04    0.16115E-03   -0.25376E-03 10640   0.375E-02-0.890E-03
CGA:  10    -0.128305451331E+04   -0.33016E-03   -0.35183E-03 10640   0.421E-03 0.189E-03
CGA:  11    -0.128305464704E+04   -0.13374E-03   -0.15406E-03 10640   0.230E-03-0.147E-03
CGA:  12    -0.128305472475E+04   -0.77707E-04    0.82495E-04 10640   0.132E-03-0.354E-04
CGA:  13    -0.128305474693E+04   -0.22179E-04   -0.22488E-04 10640   0.566E-04 0.204E-04
CGA:  14    -0.128305475401E+04   -0.70777E-05   -0.89636E-05 10640   0.242E-04 0.238E-04
CGA:  15    -0.128305477369E+04   -0.19685E-04    0.10601E-04 10640   0.180E-04 0.997E-05
CGA:  16    -0.128305479849E+04   -0.24797E-04    0.20760E-05 10640   0.187E-04 0.741E-05
CGA:  17    -0.128305482672E+04   -0.28229E-04    0.18562E-05 10640   0.202E-04 0.160E-04
CGA:  18    -0.128305483003E+04   -0.33097E-05   -0.35526E-05 10640   0.988E-05 0.662E-05
  12 F= -.12830548E+04 E0= -.12830548E+04  d E =0.480764E-02  mag=    47.0000
       N       E                     dE             d eps       ncg     rms          ort
SDA:   1    -0.128275333451E+04    0.30149E+00    0.00000E+00 10640   0.801E+00 0.000E+00
CGA:   2    -0.128296152869E+04   -0.20819E+00   -0.20801E+00 10640   0.370E+00 0.405E-02
CGA:   3    -0.128303883895E+04   -0.77310E-01   -0.77267E-01 10640   0.871E-01-0.810E-02
CGA:   4    -0.128305173287E+04   -0.12894E-01   -0.12890E-01 10640   0.180E-01 0.616E-04
CGA:   5    -0.128305514966E+04   -0.34168E-02   -0.33937E-02 10640   0.538E-02-0.107E-02
CGA:   6    -0.128305614595E+04   -0.99629E-03   -0.98360E-03 10640   0.226E-02-0.877E-03
CGA:   7    -0.128305646275E+04   -0.31680E-03   -0.31946E-03 10640   0.538E-03 0.724E-04
CGA:   8    -0.128305661818E+04   -0.15543E-03   -0.20094E-03 10640   0.585E-03-0.292E-03
CGA:   9    -0.128305674047E+04   -0.12229E-03   -0.12088E-03 10640   0.282E-03-0.201E-03
CGA:  10    -0.128305683623E+04   -0.95757E-04    0.93025E-04 10640   0.133E-03-0.475E-04
CGA:  11    -0.128305690054E+04   -0.64316E-04    0.32688E-04 10640   0.478E-04 0.124E-04
CGA:  12    -0.128305695430E+04   -0.53755E-04    0.39541E-05 10640   0.319E-04 0.128E-05
CGA:  13    -0.128305701409E+04   -0.59793E-04    0.10674E-05 10640   0.174E-04 0.112E-04
CGA:  14    -0.128305705617E+04   -0.42078E-04    0.77878E-06 10640   0.143E-04 0.917E-05
CGA:  15    -0.128305707590E+04   -0.19727E-04    0.68276E-06 10640   0.121E-04-0.437E-07
CGA:  16    -0.128305710538E+04   -0.29485E-04    0.27126E-06 10640   0.746E-05 0.658E-05
CGA:  17    -0.128305711239E+04   -0.70073E-05    0.66271E-06 10640   0.558E-05 0.250E-05
  13 F= -.12830571E+04 E0= -.12830571E+04  d E =-.228236E-02  mag=    47.0000
       N       E                     dE             d eps       ncg     rms          ort
SDA:   1    -0.128293892171E+04    0.11818E+00    0.00000E+00 10640   0.314E+00 0.000E+00
CGA:   2    -0.128301449565E+04   -0.75574E-01   -0.75569E-01 10640   0.146E+00 0.260E-03
CGA:   3    -0.128304601469E+04   -0.31519E-01   -0.31519E-01 10640   0.346E-01-0.930E-03
CGA:   4    -0.128305096774E+04   -0.49531E-02   -0.49660E-02 10640   0.690E-02 0.238E-03
CGA:   5    -0.128305225243E+04   -0.12847E-02   -0.12801E-02 10640   0.203E-02-0.163E-03
CGA:   6    -0.128305264962E+04   -0.39719E-03   -0.39442E-03 10640   0.776E-03-0.254E-03
CGA:   7    -0.128305279797E+04   -0.14835E-03   -0.14999E-03 10640   0.331E-03-0.140E-03
CGA:   8    -0.128305285534E+04   -0.57368E-04   -0.57459E-04 10640   0.151E-03-0.532E-04
CGA:   9    -0.128305290937E+04   -0.54031E-04    0.88495E-03 10640   0.518E-04 0.191E-04
CGA:  10    -0.128305293521E+04   -0.25838E-04    0.11262E-03 10640   0.206E-04 0.209E-04
CGA:  11    -0.128305296377E+04   -0.28566E-04    0.22491E-05 10640   0.116E-04 0.139E-04
CGA:  12    -0.128305297331E+04   -0.95338E-05    0.12907E-05 10640   0.841E-05 0.692E-05
  14 F= -.12830530E+04 E0= -.12830529E+04  d E =0.413908E-02  mag=    47.0000
       N       E                     dE             d eps       ncg     rms          ort
SDA:   1    -0.128243870115E+04    0.61426E+00    0.00000E+00 10640   0.165E+01 0.000E+00
CGA:   2    -0.128284054362E+04   -0.40184E+00   -0.40189E+00 10640   0.756E+00-0.132E-02
CGA:   3    -0.128300852787E+04   -0.16798E+00   -0.16799E+00 10640   0.148E+00-0.826E-03
CGA:   4    -0.128303192253E+04   -0.23395E-01   -0.23443E-01 10640   0.296E-01 0.104E-02
CGA:   5    -0.128303757869E+04   -0.56562E-02   -0.56554E-02 10640   0.885E-02-0.363E-04
CGA:   6    -0.128303909586E+04   -0.15172E-02   -0.15149E-02 10640   0.301E-02-0.497E-04
CGA:   7    -0.128303975646E+04   -0.66060E-03   -0.66465E-03 10640   0.104E-02-0.261E-03
CGA:   8    -0.128303998575E+04   -0.22930E-03   -0.23464E-03 10640   0.668E-03-0.135E-03
CGA:   9    -0.128304012518E+04   -0.13943E-03   -0.14225E-03 10640   0.387E-03-0.790E-04
CGA:  10    -0.128304023041E+04   -0.10523E-03   -0.12061E-03 10640   0.368E-03-0.108E-03
CGA:  11    -0.128303988028E+04    0.35012E-03   -0.22725E-03 10640   0.536E-02-0.904E-03
CGA:  12    -0.128304031799E+04   -0.43771E-03   -0.48473E-03 10640   0.486E-03 0.318E-03
CGA:  13    -0.128304043948E+04   -0.12148E-03   -0.12215E-03 10640   0.195E-03 0.136E-03
CGA:  14    -0.128304050765E+04   -0.68170E-04   -0.82314E-04 10640   0.532E-03-0.160E-03
CGA:  15    -0.128304052961E+04   -0.21967E-04   -0.41262E-04 10640   0.616E-04 0.116E-03
CGA:  16    -0.128304052952E+04    0.94104E-07   -0.62364E-05 10640   0.411E-04 0.409E-04
CGA:  17    -0.128304053890E+04   -0.93769E-05   -0.30398E-04 10640   0.320E-03-0.414E-04
CGA:  18    -0.128304055093E+04   -0.12030E-04   -0.23727E-04 10640   0.272E-04 0.654E-04
CGA:  19    -0.128304054924E+04    0.16867E-05   -0.19971E-05 10640   0.168E-04 0.199E-04
  15 F= -.12830405E+04 E0= -.12830405E+04  d E =0.124241E-01  mag=    47.0000
       N       E                     dE             d eps       ncg     rms          ort
SDA:   1    -0.128258789278E+04    0.45266E+00    0.00000E+00 10640   0.122E+01 0.000E+00
CGA:   2    -0.128288527400E+04   -0.29738E+00   -0.29739E+00 10640   0.555E+00-0.762E-03
CGA:   3    -0.128300720942E+04   -0.12194E+00   -0.12193E+00 10640   0.107E+00-0.456E-03
CGA:   4    -0.128302484510E+04   -0.17636E-01   -0.17651E-01 10640   0.213E-01 0.293E-03
CGA:   5    -0.128302904670E+04   -0.42016E-02   -0.42114E-02 10640   0.500E-02 0.318E-03
CGA:   6    -0.128303019020E+04   -0.11435E-02   -0.11425E-02 10640   0.209E-02-0.428E-03
CGA:   7    -0.128303051483E+04   -0.32464E-03   -0.33156E-03 10640   0.559E-03 0.131E-03
CGA:   8    -0.128303070616E+04   -0.19133E-03   -0.22451E-03 10640   0.616E-03-0.216E-03
CGA:   9    -0.128303076894E+04   -0.62782E-04   -0.64331E-04 10640   0.381E-03 0.252E-04
CGA:  10    -0.128303085874E+04   -0.89801E-04   -0.89751E-04 10640   0.240E-03-0.177E-04
CGA:  11    -0.128302938800E+04    0.14707E-02   -0.79361E-03 10640   0.134E-01-0.147E-02
CGA:  12    -0.128303061187E+04   -0.12239E-02   -0.13989E-02 10640   0.187E-02 0.657E-03
CGA:  13    -0.128303102199E+04   -0.41012E-03   -0.44013E-03 10640   0.368E-03 0.170E-03
CGA:  14    -0.128303118082E+04   -0.15883E-03   -0.14501E-03 10640   0.111E-02-0.425E-03
CGA:  15    -0.128303118396E+04   -0.31341E-05   -0.90576E-04 10640   0.117E-03 0.288E-03
CGA:  16    -0.128303117163E+04    0.12332E-04   -0.10100E-04 10640   0.545E-04 0.731E-04
CGA:  17    -0.128303119750E+04   -0.25877E-04   -0.25476E-04 10640   0.321E-04 0.368E-05
CGA:  18    -0.128303119272E+04    0.47776E-05   -0.26293E-05 10640   0.198E-04 0.256E-04
  16 F= -.12830312E+04 E0= -.12830311E+04  d E =0.935651E-02  mag=    47.0000
       N       E                     dE             d eps       ncg     rms          ort
SDA:   1    -0.128291242632E+04    0.11877E+00    0.00000E+00 10640   0.376E+00 0.000E+00
CGA:   2    -0.128298972733E+04   -0.77301E-01   -0.77196E-01 10640   0.163E+00-0.625E-03
CGA:   3    -0.128302457380E+04   -0.34846E-01   -0.34972E-01 10640   0.565E-01 0.104E-02
CGA:   4    -0.128303228699E+04   -0.77132E-02   -0.78195E-02 10640   0.852E-02 0.670E-03
CGA:   5    -0.128303384083E+04   -0.15538E-02   -0.15869E-02 10640   0.214E-02 0.256E-03
CGA:   6    -0.128303423210E+04   -0.39127E-03   -0.41166E-03 10640   0.579E-03 0.167E-03
CGA:   7    -0.128303439986E+04   -0.16775E-03   -0.16349E-03 10640   0.318E-03-0.991E-04
CGA:   8    -0.128303442445E+04   -0.24595E-04   -0.33607E-04 10640   0.933E-04 0.521E-04
CGA:   9    -0.128303443919E+04   -0.14738E-04   -0.18456E-04 10640   0.571E-04 0.301E-04
CGA:  10    -0.128303445293E+04   -0.13740E-04   -0.14083E-04 10640   0.342E-04 0.347E-05
CGA:  11    -0.128303445028E+04    0.26480E-05   -0.28125E-05 10640   0.242E-04 0.266E-04
  17 F= -.12830345E+04 E0= -.12830344E+04  d E =-.325756E-02  mag=    47.0000
       N       E                     dE             d eps       ncg     rms          ort
SDA:   1    -0.128298240554E+04    0.52047E-01    0.00000E+00 10640   0.129E+00 0.000E+00
CGA:   2    -0.128301531963E+04   -0.32914E-01   -0.32908E-01 10640   0.621E-01-0.825E-03
CGA:   3    -0.128302799531E+04   -0.12676E-01   -0.12713E-01 10640   0.129E-01 0.673E-03
CGA:   4    -0.128302987387E+04   -0.18786E-02   -0.19124E-02 10640   0.284E-02 0.311E-03
CGA:   5    -0.128303034728E+04   -0.47341E-03   -0.48807E-03 10640   0.717E-03 0.175E-03
CGA:   6    -0.128303052490E+04   -0.17762E-03   -0.17548E-03 10640   0.309E-03-0.116E-03
CGA:   7    -0.128303057707E+04   -0.52169E-04   -0.51751E-04 10640   0.101E-03-0.848E-05
CGA:   8    -0.128303060490E+04   -0.27825E-04   -0.30473E-04 10640   0.107E-03-0.401E-04
CGA:   9    -0.128303061051E+04   -0.56108E-05   -0.78571E-05 10640   0.562E-04 0.177E-04
  18 F= -.12830306E+04 E0= -.12830306E+04  d E =0.383977E-02  mag=    47.0000
       N       E                     dE             d eps       ncg     rms          ort
SDA:   1    -0.128044027967E+04    0.25903E+01    0.00000E+00 10640   0.655E+01 0.000E+00
CGA:   2    -0.128222636494E+04   -0.17861E+01   -0.17866E+01 10640   0.327E+01-0.943E-02
CGA:   3    -0.128284140267E+04   -0.61504E+00   -0.61591E+00 10640   0.769E+00 0.305E-02
CGA:   4    -0.128295012967E+04   -0.10873E+00   -0.10883E+00 10640   0.160E+00 0.397E-02
CGA:   5    -0.128298005836E+04   -0.29929E-01   -0.29946E-01 10640   0.392E-01 0.490E-03
CGA:   6    -0.128298787105E+04   -0.78127E-02   -0.77890E-02 10640   0.122E-01-0.741E-03
CGA:   7    -0.128299068183E+04   -0.28108E-02   -0.28215E-02 10640   0.529E-02-0.118E-02
CGA:   8    -0.128299163319E+04   -0.95135E-03   -0.94334E-03 10640   0.247E-02-0.257E-03
CGA:   9    -0.128299238271E+04   -0.74953E-03   -0.87428E-03 10640   0.282E-02-0.850E-03
CGA:  10    -0.128299275697E+04   -0.37426E-03   -0.36673E-03 10640   0.142E-02-0.218E-03
CGA:  11    -0.128299311272E+04   -0.35575E-03   -0.74205E-03 10640   0.291E-02-0.116E-02
CGA:  12    -0.128299373535E+04   -0.62264E-03   -0.61129E-03 10640   0.110E-02-0.294E-03
CGA:  13    -0.128299384738E+04   -0.11202E-03   -0.14015E-03 10640   0.349E-03 0.271E-03
CGA:  14    -0.128299396378E+04   -0.11641E-03   -0.11481E-03 10640   0.455E-03 0.687E-04
CGA:  15    -0.128299399956E+04   -0.35773E-04   -0.38484E-03 10640   0.265E-02-0.758E-03
CGA:  16    -0.128299422307E+04   -0.22352E-03   -0.29963E-03 10640   0.541E-03 0.514E-03
CGA:  17    -0.128299436065E+04   -0.13758E-03   -0.14122E-03 10640   0.222E-03 0.932E-04
CGA:  18    -0.128299400692E+04    0.35373E-03   -0.27174E-03 10640   0.596E-02-0.795E-03
CGA:  19    -0.128299445112E+04   -0.44420E-03   -0.56709E-03 10640   0.424E-03 0.687E-03
CGA:  20    -0.128299455731E+04   -0.10620E-03   -0.10901E-03 10640   0.296E-03 0.518E-04
CGA:  21    -0.128299460647E+04   -0.49159E-04   -0.15548E-03 10640   0.133E-02-0.573E-03
CGA:  22    -0.128299467005E+04   -0.63577E-04   -0.12633E-03 10640   0.217E-03 0.327E-03
CGA:  23    -0.128299469151E+04   -0.21458E-04   -0.37072E-04 10640   0.127E-03 0.108E-03
CGA:  24    -0.128299474325E+04   -0.51742E-04   -0.51615E-04 10640   0.840E-04-0.696E-04
CGA:  25    -0.128299474702E+04   -0.37681E-05   -0.10561E-04 10640   0.406E-04 0.458E-04
CGA:  26    -0.128299478019E+04   -0.33173E-04    0.10253E-04 10640   0.274E-04 0.240E-04
CGA:  27    -0.128299477874E+04    0.14460E-05   -0.25476E-05 10640   0.224E-04 0.229E-04
CGA:  28    -0.128299479036E+04   -0.11613E-04    0.11418E-02 10640   0.209E-04 0.215E-04
CGA:  29    -0.128299480345E+04   -0.13090E-04    0.12863E-04 10640   0.200E-04 0.203E-04
CGA:  30    -0.128299484096E+04   -0.37515E-04   -0.22589E-04 10640   0.274E-04 0.166E-04
CGA:  31    -0.128299487154E+04   -0.30581E-04    0.48799E-05 10640   0.683E-04-0.917E-05
CGA:  32    -0.128299491241E+04   -0.40862E-04    0.14019E-04 10640   0.131E-03 0.346E-04
CGA:  33    -0.128299490678E+04    0.56307E-05   -0.79547E-05 10640   0.289E-04 0.566E-04
  19 F= -.12829949E+04 E0= -.12829949E+04  d E =0.357037E-01  mag=    47.0000
       N       E                     dE             d eps       ncg     rms          ort
SDA:   1    -0.128223420373E+04    0.76071E+00    0.00000E+00 10640   0.216E+01 0.000E+00
CGA:   2    -0.128273224009E+04   -0.49804E+00   -0.49818E+00 10640   0.945E+00 0.319E-02
CGA:   3    -0.128294905099E+04   -0.21681E+00   -0.21680E+00 10640   0.200E+00-0.439E-03
CGA:   4    -0.128298132751E+04   -0.32277E-01   -0.32064E-01 10640   0.411E-01-0.189E-02
CGA:   5    -0.128298855652E+04   -0.72290E-02   -0.72913E-02 10640   0.113E-01 0.797E-03
CGA:   6    -0.128299061624E+04   -0.20597E-02   -0.20470E-02 10640   0.381E-02-0.140E-03
CGA:   7    -0.128299131199E+04   -0.69575E-03   -0.71368E-03 10640   0.978E-03 0.265E-03
CGA:   8    -0.128299151277E+04   -0.20078E-03   -0.21143E-03 10640   0.379E-03 0.202E-03
CGA:   9    -0.128299167825E+04   -0.16548E-03   -0.18175E-03 10640   0.464E-03-0.111E-03
CGA:  10    -0.128299169010E+04   -0.11841E-04   -0.33863E-04 10640   0.274E-03 0.141E-03
CGA:  11    -0.128299170159E+04   -0.11492E-04   -0.34750E-04 10640   0.160E-03 0.150E-03
CGA:  12    -0.128299095166E+04    0.74993E-03   -0.40400E-03 10640   0.858E-02-0.749E-03
CGA:  13    -0.128299159784E+04   -0.64618E-03   -0.81738E-03 10640   0.687E-03 0.555E-03
CGA:  14    -0.128299174056E+04   -0.14272E-03   -0.16314E-03 10640   0.203E-03 0.100E-03
CGA:  15    -0.128299184281E+04   -0.10225E-03   -0.78372E-04 10640   0.664E-03-0.296E-03
CGA:  16    -0.128299183531E+04    0.75030E-05   -0.51273E-04 10640   0.758E-04 0.179E-03
  20 F= -.12829918E+04 E0= -.12829918E+04  d E =0.307147E-02  mag=    47.0000
       N       E                     dE             d eps       ncg     rms          ort
SDA:   1    -0.128243459101E+04    0.55725E+00    0.00000E+00 10640   0.149E+01 0.000E+00
CGA:   2    -0.128283431229E+04   -0.39972E+00   -0.39978E+00 10640   0.705E+00 0.303E-03
CGA:   3    -0.128297743380E+04   -0.14312E+00   -0.14290E+00 10640   0.137E+00-0.134E-03
CGA:   4    -0.128299885006E+04   -0.21416E-01   -0.21425E-01 10640   0.323E-01 0.639E-04
CGA:   5    -0.128300471075E+04   -0.58607E-02   -0.57855E-02 10640   0.882E-02-0.375E-03
CGA:   6    -0.128300624485E+04   -0.15341E-02   -0.15317E-02 10640   0.260E-02-0.424E-05
CGA:   7    -0.128300676380E+04   -0.51895E-03   -0.53264E-03 10640   0.747E-03 0.106E-03
CGA:   8    -0.128300698088E+04   -0.21708E-03   -0.20963E-03 10640   0.528E-03-0.119E-03
CGA:   9    -0.128300704376E+04   -0.62874E-04   -0.75042E-04 10640   0.190E-03 0.773E-04
CGA:  10    -0.128300712122E+04   -0.77466E-04   -0.80464E-04 10640   0.210E-03-0.610E-04
CGA:  11    -0.128300716515E+04   -0.43927E-04   -0.37207E-04 10640   0.238E-03-0.109E-03
CGA:  12    -0.128300717328E+04   -0.81293E-05   -0.25156E-04 10640   0.657E-04 0.801E-04
CGA:  13    -0.128300718136E+04   -0.80830E-05   -0.13336E-04 10640   0.324E-04 0.334E-04
CGA:  14    -0.128300720367E+04   -0.22309E-04    0.34128E-04 10640   0.665E-04-0.866E-05
CGA:  15    -0.128300720626E+04   -0.25852E-05   -0.71542E-05 10640   0.527E-04 0.294E-04
  21 F= -.12830072E+04 E0= -.12830072E+04  d E =-.153709E-01  mag=    47.0000
       N       E                     dE             d eps       ncg     rms          ort
SDA:   1    -0.128270682822E+04    0.30038E+00    0.00000E+00 10640   0.775E+00 0.000E+00
CGA:   2    -0.128290046882E+04   -0.19364E+00   -0.19360E+00 10640   0.365E+00-0.105E-02
CGA:   3    -0.128297764426E+04   -0.77175E-01   -0.77199E-01 10640   0.751E-01 0.126E-03
CGA:   4    -0.128298960865E+04   -0.11964E-01   -0.11945E-01 10640   0.147E-01-0.130E-03
CGA:   5    -0.128299238494E+04   -0.27763E-02   -0.28014E-02 10640   0.353E-02 0.334E-03
CGA:   6    -0.128299328296E+04   -0.89802E-03   -0.87828E-03 10640   0.218E-02-0.824E-03
CGA:   7    -0.128299351614E+04   -0.23318E-03   -0.24066E-03 10640   0.572E-03 0.658E-04
CGA:   8    -0.128299362775E+04   -0.11161E-03   -0.11393E-03 10640   0.309E-03 0.351E-04
CGA:   9    -0.128299323592E+04    0.39183E-03   -0.27314E-03 10640   0.625E-02-0.115E-02
CGA:  10    -0.128299373661E+04   -0.50069E-03   -0.59557E-03 10640   0.684E-03 0.555E-03
CGA:  11    -0.128299391388E+04   -0.17728E-03   -0.17710E-03 10640   0.187E-03-0.447E-05
CGA:  12    -0.128299402925E+04   -0.11537E-03    0.18599E-03 10640   0.376E-03-0.175E-03
CGA:  13    -0.128299402356E+04    0.56888E-05   -0.24503E-04 10640   0.715E-04 0.146E-03
  22 F= -.12829940E+04 E0= -.12829940E+04  d E =0.131827E-01  mag=    47.0000
       N       E                     dE             d eps       ncg     rms          ort
SDA:   1    -0.128183602709E+04    0.11580E+01    0.00000E+00 10640   0.313E+01 0.000E+00
CGA:   2    -0.128257501600E+04   -0.73899E+00   -0.73903E+00 10640   0.142E+01 0.270E-02
CGA:   3    -0.128288917921E+04   -0.31416E+00   -0.31410E+00 10640   0.335E+00-0.181E-02
CGA:   4    -0.128293763784E+04   -0.48459E-01   -0.48460E-01 10640   0.701E-01 0.332E-03
CGA:   5    -0.128294985676E+04   -0.12219E-01   -0.12258E-01 10640   0.183E-01 0.689E-03
CGA:   6    -0.128295363852E+04   -0.37818E-02   -0.37488E-02 10640   0.623E-02-0.850E-03
CGA:   7    -0.128295488810E+04   -0.12496E-02   -0.12488E-02 10640   0.202E-02-0.192E-04
CGA:   8    -0.128295538141E+04   -0.49330E-03   -0.49530E-03 10640   0.136E-02-0.256E-03
CGA:   9    -0.128295570539E+04   -0.32398E-03   -0.33254E-03 10640   0.104E-02-0.207E-03
CGA:  10    -0.128295598282E+04   -0.27743E-03   -0.30251E-03 10640   0.104E-02-0.249E-03
CGA:  11    -0.128295619455E+04   -0.21172E-03   -0.35086E-03 10640   0.233E-02-0.715E-03
CGA:  12    -0.128295646560E+04   -0.27105E-03   -0.27368E-03 10640   0.620E-03 0.251E-04
CGA:  13    -0.128295665675E+04   -0.19115E-03   -0.18714E-03 10640   0.240E-03 0.800E-04
CGA:  14    -0.128295611264E+04    0.54411E-03   -0.31030E-03 10640   0.715E-02-0.735E-03
CGA:  15    -0.128295676747E+04   -0.65483E-03   -0.77458E-03 10640   0.594E-03 0.400E-03
CGA:  16    -0.128295693519E+04   -0.16772E-03   -0.18179E-03 10640   0.285E-03 0.937E-04
CGA:  17    -0.128295706502E+04   -0.12983E-03   -0.19826E-03 10640   0.155E-02-0.409E-03
CGA:  18    -0.128295712677E+04   -0.61757E-04   -0.15184E-03 10640   0.134E-03 0.271E-03
CGA:  19    -0.128295713347E+04   -0.66961E-05   -0.22705E-04 10640   0.858E-04 0.572E-04
CGA:  20    -0.128295717951E+04   -0.46044E-04   -0.77916E-04 10640   0.305E-03-0.141E-03
CGA:  21    -0.128295722332E+04   -0.43809E-04   -0.56776E-04 10640   0.982E-04 0.556E-04
CGA:  22    -0.128295727155E+04   -0.48228E-04   -0.48830E-04 10640   0.114E-03-0.561E-04
CGA:  23    -0.128295727602E+04   -0.44654E-05   -0.13726E-04 10640   0.336E-04 0.322E-04
CGA:  24    -0.128295729428E+04   -0.18267E-04   -0.18412E-04 10640   0.548E-04-0.482E-05
CGA:  25    -0.128295733728E+04   -0.42996E-04    0.60550E-04 10640   0.186E-03-0.485E-04
CGA:  26    -0.128295734781E+04   -0.10530E-04   -0.24736E-04 10640   0.557E-04 0.542E-04
CGA:  27    -0.128295736694E+04   -0.19131E-04   -0.19860E-04 10640   0.200E-04 0.665E-05
CGA:  28    -0.128295739599E+04   -0.29049E-04    0.59842E-05 10640   0.678E-04-0.114E-04
CGA:  29    -0.128295739389E+04    0.21006E-05   -0.57327E-05 10640   0.173E-04 0.268E-04
  23 F= -.12829574E+04 E0= -.12829573E+04  d E =0.366297E-01  mag=    47.0000
       N       E                     dE             d eps       ncg     rms          ort
SDA:   1    -0.126991869855E+04    0.13039E+02    0.00000E+00 10640   0.443E+02 0.000E+00
CGA:   2    -0.127801144539E+04   -0.80927E+01   -0.81039E+01 10640   0.150E+02 0.859E-01
CGA:   3    -0.128178025380E+04   -0.37688E+01   -0.37764E+01 10640   0.530E+01 0.199E-01
CGA:   4    -0.128254737734E+04   -0.76712E+00   -0.75940E+00 10640   0.871E+00 0.589E-01
CGA:   5    -0.128270012085E+04   -0.15274E+00   -0.15318E+00 10640   0.247E+00-0.608E-03
CGA:   6    -0.128274714752E+04   -0.47027E-01   -0.47084E-01 10640   0.737E-01 0.104E-02
CGA:   7    -0.128276321490E+04   -0.16067E-01   -0.16040E-01 10640   0.221E-01-0.225E-03
CGA:   8    -0.128276785640E+04   -0.46415E-02   -0.45414E-02 10640   0.101E-01-0.918E-03
CGA:   9    -0.128277028953E+04   -0.24331E-02   -0.23967E-02 10640   0.559E-02-0.642E-03
CGA:  10    -0.128277170742E+04   -0.14179E-02   -0.14047E-02 10640   0.348E-02-0.389E-03
CGA:  11    -0.128277262682E+04   -0.91940E-03   -0.90904E-03 10640   0.264E-02-0.555E-03
CGA:  12    -0.128277320924E+04   -0.58243E-03   -0.57448E-03 10640   0.159E-02-0.200E-03
CGA:  13    -0.128277379305E+04   -0.58381E-03   -0.70903E-03 10640   0.308E-02-0.677E-03
CGA:  14    -0.128277409893E+04   -0.30588E-03   -0.29407E-03 10640   0.162E-02-0.945E-04
CGA:  15    -0.128277439529E+04   -0.29635E-03   -0.31714E-03 10640   0.170E-02 0.208E-03
CGA:  16    -0.128277474206E+04   -0.34677E-03   -0.36208E-03 10640   0.745E-03 0.136E-03
CGA:  17    -0.128277492394E+04   -0.18188E-03   -0.18854E-03 10640   0.656E-03 0.117E-03
CGA:  18    -0.128277502421E+04   -0.10027E-03   -0.12720E-03 10640   0.325E-03 0.224E-03
CGA:  19    -0.128277508114E+04   -0.56928E-04   -0.72754E-04 10640   0.198E-03 0.138E-03
CGA:  20    -0.128277513937E+04   -0.58228E-04   -0.62657E-04 10640   0.163E-03 0.815E-04
CGA:  21    -0.128277516192E+04   -0.22557E-04   -0.34370E-04 10640   0.902E-04 0.949E-04
CGA:  22    -0.128277517715E+04   -0.15224E-04   -0.17906E-04 10640   0.537E-04 0.398E-04
CGA:  23    -0.128277521050E+04   -0.33352E-04   -0.68838E-04 10640   0.259E-03-0.585E-04
CGA:  24    -0.128277524287E+04   -0.32371E-04   -0.40081E-04 10640   0.884E-04 0.561E-04
CGA:  25    -0.128277494906E+04    0.29380E-03   -0.14452E-03 10640   0.182E-02-0.415E-03
CGA:  26    -0.128277519023E+04   -0.24117E-03   -0.29202E-03 10640   0.558E-03 0.290E-03
CGA:  27    -0.128277535728E+04   -0.16705E-03   -0.16053E-03 10640   0.778E-04-0.783E-04
CGA:  28    -0.128277536215E+04   -0.48644E-05   -0.93696E-05 10640   0.260E-04 0.243E-04
CGA:  29    -0.128277537484E+04   -0.12697E-04   -0.15949E-04 10640   0.613E-04-0.216E-04
CGA:  30    -0.128277442533E+04    0.94951E-03   -0.51800E-03 10640   0.883E-02-0.611E-03
CGA:  31    -0.128277525310E+04   -0.82776E-03   -0.98442E-03 10640   0.636E-03 0.544E-03
CGA:  32    -0.128277543302E+04   -0.17993E-03   -0.16146E-03 10640   0.635E-04-0.561E-04
CGA:  33    -0.128277546220E+04   -0.29176E-04   -0.16690E-04 10640   0.933E-04-0.470E-04
CGA:  34    -0.128277546050E+04    0.16970E-05   -0.82454E-05 10640   0.107E-04 0.224E-04
  24 F= -.12827755E+04 E0= -.12827754E+04  d E =0.181933E+00  mag=    47.0000
       N       E                     dE             d eps       ncg     rms          ort
SDA:   1    -0.128034835685E+04    0.24271E+01    0.00000E+00 10640   0.847E+01 0.000E+00
CGA:   2    -0.128196985452E+04   -0.16215E+01   -0.16221E+01 10640   0.306E+01 0.577E-02
CGA:   3    -0.128272304795E+04   -0.75319E+00   -0.75419E+00 10640   0.101E+01 0.127E-02
CGA:   4    -0.128286460821E+04   -0.14156E+00   -0.14144E+00 10640   0.170E+00 0.458E-02
CGA:   5    -0.128289485652E+04   -0.30248E-01   -0.30140E-01 10640   0.485E-01-0.519E-04
CGA:   6    -0.128290430215E+04   -0.94456E-02   -0.92827E-02 10640   0.145E-01-0.683E-03
CGA:   7    -0.128290721013E+04   -0.29080E-02   -0.29174E-02 10640   0.420E-02 0.735E-04
CGA:   8    -0.128290816727E+04   -0.95714E-03   -0.90309E-03 10640   0.188E-02-0.267E-03
CGA:   9    -0.128290861895E+04   -0.45167E-03   -0.42998E-03 10640   0.103E-02-0.133E-03
CGA:  10    -0.128290892129E+04   -0.30234E-03   -0.27595E-03 10640   0.838E-03-0.244E-03
CGA:  11    -0.128290916132E+04   -0.24003E-03   -0.20966E-03 10640   0.104E-02-0.483E-03
CGA:  12    -0.128290926923E+04   -0.10791E-03   -0.11854E-03 10640   0.260E-03 0.417E-04
CGA:  13    -0.128290936542E+04   -0.96184E-04   -0.95619E-04 10640   0.140E-03-0.270E-04
CGA:  14    -0.128290947511E+04   -0.10969E-03    0.13717E-03 10640   0.154E-03-0.511E-07
CGA:  15    -0.128290951217E+04   -0.37059E-04   -0.38240E-04 10640   0.882E-04 0.930E-05
CGA:  16    -0.128290959891E+04   -0.86749E-04    0.65302E-04 10640   0.477E-04 0.276E-04
CGA:  17    -0.128290965972E+04   -0.60801E-04    0.35596E-04 10640   0.406E-04 0.264E-04
CGA:  18    -0.128290965794E+04    0.17739E-05   -0.44444E-05 10640   0.206E-04 0.241E-04
CGA:  19    -0.128290967282E+04   -0.14877E-04    0.19732E-03 10640   0.129E-04 0.127E-04
CGA:  20    -0.128290967437E+04   -0.15477E-05   -0.28890E-05 10640   0.114E-04 0.103E-04
  25 F= -.12829097E+04 E0= -.12829096E+04  d E =-.134214E+00  mag=    47.0000
       N       E                     dE             d eps       ncg     rms          ort
SDA:   1    -0.128239540613E+04    0.51427E+00    0.00000E+00 10640   0.176E+01 0.000E+00
CGA:   2    -0.128273510693E+04   -0.33970E+00   -0.33962E+00 10640   0.651E+00-0.479E-03
CGA:   3    -0.128289103394E+04   -0.15593E+00   -0.15612E+00 10640   0.222E+00 0.198E-02
CGA:   4    -0.128292194712E+04   -0.30913E-01   -0.30936E-01 10640   0.373E-01 0.278E-03
CGA:   5    -0.128292867096E+04   -0.67238E-02   -0.66948E-02 10640   0.102E-01-0.146E-03
CGA:   6    -0.128293070699E+04   -0.20360E-02   -0.20043E-02 10640   0.313E-02-0.259E-03
CGA:   7    -0.128293134475E+04   -0.63776E-03   -0.62855E-03 10640   0.102E-02-0.825E-04
CGA:   8    -0.128293154144E+04   -0.19669E-03   -0.19376E-03 10640   0.390E-03-0.249E-04
CGA:   9    -0.128293166316E+04   -0.12172E-03   -0.12421E-03 10640   0.359E-03-0.974E-04
CGA:  10    -0.128293172999E+04   -0.66833E-04   -0.61720E-04 10640   0.218E-03-0.697E-04
CGA:  11    -0.128293155235E+04    0.17764E-03   -0.17628E-03 10640   0.240E-02-0.502E-03
CGA:  12    -0.128293182889E+04   -0.27654E-03   -0.28656E-03 10640   0.515E-03 0.518E-04
CGA:  13    -0.128293191909E+04   -0.90201E-04   -0.98604E-04 10640   0.101E-03 0.622E-04
CGA:  14    -0.128293195468E+04   -0.35592E-04   -0.35631E-04 10640   0.804E-04 0.208E-04
CGA:  15    -0.128293197015E+04   -0.15464E-04   -0.18553E-04 10640   0.345E-04 0.248E-04
CGA:  16    -0.128293197862E+04   -0.84756E-05   -0.10105E-04 10640   0.172E-04 0.188E-04
CGA:  17    -0.128293197980E+04   -0.11713E-05   -0.11245E-04 10640   0.191E-03-0.288E-04
CGA:  18    -0.128293198929E+04   -0.94916E-05   -0.16089E-04 10640   0.110E-04 0.281E-04
  26 F= -.12829320E+04 E0= -.12829319E+04  d E =-.223149E-01  mag=    47.0000
       N       E                     dE             d eps       ncg     rms          ort
SDA:   1    -0.128281930721E+04    0.11267E+00    0.00000E+00 10640   0.383E+00 0.000E+00
CGA:   2    -0.128289476063E+04   -0.75453E-01   -0.75392E-01 10640   0.142E+00-0.523E-03
CGA:   3    -0.128292963565E+04   -0.34875E-01   -0.34945E-01 10640   0.398E-01 0.145E-02
CGA:   4    -0.128293566422E+04   -0.60286E-02   -0.60279E-02 10640   0.692E-02 0.946E-05
CGA:   5    -0.128293691644E+04   -0.12522E-02   -0.12492E-02 10640   0.210E-02-0.173E-04
CGA:   6    -0.128293732201E+04   -0.40557E-03   -0.39402E-03 10640   0.734E-03-0.124E-03
CGA:   7    -0.128293746113E+04   -0.13911E-03   -0.13767E-03 10640   0.206E-03-0.183E-04
CGA:   8    -0.128293749751E+04   -0.36377E-04   -0.37758E-04 10640   0.721E-04 0.168E-04
CGA:   9    -0.128293752522E+04   -0.27713E-04   -0.32068E-04 10640   0.976E-04-0.302E-04
CGA:  10    -0.128293753087E+04   -0.56550E-05   -0.71916E-05 10640   0.540E-04 0.104E-04
  27 F= -.12829375E+04 E0= -.12829375E+04  d E =-.554159E-02  mag=    47.0000
       N       E                     dE             d eps       ncg     rms          ort
SDA:   1    -0.128214280390E+04    0.79472E+00    0.00000E+00 10640   0.258E+01 0.000E+00
CGA:   2    -0.128264549566E+04   -0.50269E+00   -0.50264E+00 10640   0.964E+00-0.231E-03
CGA:   3    -0.128287947318E+04   -0.23398E+00   -0.23404E+00 10640   0.314E+00 0.402E-02
CGA:   4    -0.128292368946E+04   -0.44216E-01   -0.44277E-01 10640   0.528E-01 0.851E-03
CGA:   5    -0.128293292018E+04   -0.92307E-02   -0.92176E-02 10640   0.148E-01-0.805E-04
CGA:   6    -0.128293586331E+04   -0.29431E-02   -0.29185E-02 10640   0.467E-02-0.482E-03
CGA:   7    -0.128293679003E+04   -0.92672E-03   -0.92659E-03 10640   0.138E-02 0.256E-05
CGA:   8    -0.128293707215E+04   -0.28211E-03   -0.28002E-03 10640   0.584E-03-0.499E-04
CGA:   9    -0.128293721756E+04   -0.14542E-03   -0.14618E-03 10640   0.347E-03-0.397E-04
CGA:  10    -0.128293729815E+04   -0.80582E-04   -0.80733E-04 10640   0.209E-03-0.196E-04
CGA:  11    -0.128293735176E+04   -0.53611E-04   -0.94671E-04 10640   0.577E-03-0.173E-03
CGA:  12    -0.128293740690E+04   -0.55146E-04   -0.59224E-04 10640   0.978E-04 0.283E-04
CGA:  13    -0.128293742843E+04   -0.21526E-04   -0.22491E-04 10640   0.381E-04 0.350E-04
CGA:  14    -0.128293744280E+04   -0.14371E-04   -0.35807E-04 10640   0.359E-03-0.484E-04
CGA:  15    -0.128293747108E+04   -0.28275E-04   -0.33322E-04 10640   0.374E-04 0.298E-04
CGA:  16    -0.128293748071E+04   -0.96303E-05   -0.98474E-05 10640   0.273E-04 0.136E-04
CGA:  17    -0.128293750313E+04   -0.22421E-04    0.29076E-04 10640   0.332E-04 0.416E-06
CGA:  18    -0.128293752641E+04   -0.23281E-04    0.12888E-04 10640   0.393E-04 0.142E-04
CGA:  19    -0.128293754022E+04   -0.13808E-04   -0.14012E-04 10640   0.475E-04 0.235E-04
CGA:  20    -0.128293755277E+04   -0.12550E-04   -0.13326E-04 10640   0.105E-03-0.340E-04
CGA:  21    -0.128293755983E+04   -0.70606E-05   -0.91105E-05 10640   0.830E-05 0.122E-04
  28 F= -.12829376E+04 E0= -.12829375E+04  d E =-.289536E-04  mag=    47.0000
       N       E                     dE             d eps       ncg     rms          ort
SDA:   1    -0.128281511937E+04    0.12243E+00    0.00000E+00 10640   0.353E+00 0.000E+00
CGA:   2    -0.128289178533E+04   -0.76666E-01   -0.76643E-01 10640   0.152E+00-0.728E-03
CGA:   3    -0.128292597520E+04   -0.34190E-01   -0.34219E-01 10640   0.384E-01 0.173E-02
CGA:   4    -0.128293201631E+04   -0.60411E-02   -0.60328E-02 10640   0.670E-02-0.559E-04
CGA:   5    -0.128293328435E+04   -0.12680E-02   -0.12717E-02 10640   0.174E-02 0.833E-04
CGA:   6    -0.128293365513E+04   -0.37078E-03   -0.36656E-03 10640   0.752E-03-0.155E-03
CGA:   7    -0.128293376371E+04   -0.10858E-03   -0.11227E-03 10640   0.202E-03 0.538E-04
CGA:   8    -0.128293379880E+04   -0.35094E-04   -0.38093E-04 10640   0.751E-04 0.551E-04
CGA:   9    -0.128293383304E+04   -0.34239E-04   -0.38673E-04 10640   0.132E-03-0.251E-04
CGA:  10    -0.128293383472E+04   -0.16815E-05   -0.72332E-05 10640   0.951E-04 0.360E-04
  29 F= -.12829338E+04 E0= -.12829338E+04  d E =0.372511E-02  mag=    47.0000
       N       E                     dE             d eps       ncg     rms          ort
SDA:   1    -0.128255784624E+04    0.37599E+00    0.00000E+00 10640   0.101E+01 0.000E+00
CGA:   2    -0.128280717171E+04   -0.24933E+00   -0.24936E+00 10640   0.462E+00-0.123E-02
CGA:   3    -0.128290508445E+04   -0.97913E-01   -0.97941E-01 10640   0.952E-01 0.301E-02
CGA:   4    -0.128292093744E+04   -0.15853E-01   -0.15823E-01 10640   0.201E-01-0.508E-03
CGA:   5    -0.128292452417E+04   -0.35867E-02   -0.36099E-02 10640   0.487E-02 0.641E-03
CGA:   6    -0.128292556006E+04   -0.10359E-02   -0.10306E-02 10640   0.214E-02-0.435E-03
CGA:   7    -0.128292586905E+04   -0.30899E-03   -0.31885E-03 10640   0.575E-03 0.189E-03
CGA:   8    -0.128292599100E+04   -0.12195E-03   -0.12378E-03 10640   0.234E-03 0.114E-03
CGA:   9    -0.128292608604E+04   -0.95041E-04   -0.10682E-03 10640   0.352E-03-0.703E-04
CGA:  10    -0.128292609359E+04   -0.75561E-05   -0.21792E-04 10640   0.228E-03 0.107E-03
CGA:  11    -0.128292610008E+04   -0.64826E-05   -0.23644E-04 10640   0.129E-03 0.127E-03
CGA:  12    -0.128292601023E+04    0.89841E-04   -0.12757E-03 10640   0.169E-02-0.279E-03
CGA:  13    -0.128292611848E+04   -0.10825E-03   -0.15191E-03 10640   0.222E-03 0.286E-03
CGA:  14    -0.128292614739E+04   -0.28909E-04   -0.37552E-04 10640   0.970E-04 0.914E-04
CGA:  15    -0.128292618138E+04   -0.33990E-04   -0.39708E-04 10640   0.179E-03-0.103E-03
CGA:  16    -0.128292618738E+04   -0.60005E-05   -0.14781E-04 10640   0.408E-04 0.572E-04
  30 F= -.12829262E+04 E0= -.12829261E+04  d E =0.764734E-02  mag=    47.0000
       N       E                     dE             d eps       ncg     rms          ort
SDA:   1    -0.128232720200E+04    0.59898E+00    0.00000E+00 10640   0.154E+01 0.000E+00
CGA:   2    -0.128274424592E+04   -0.41704E+00   -0.41704E+00 10640   0.742E+00 0.301E-03
CGA:   3    -0.128288613797E+04   -0.14189E+00   -0.14188E+00 10640   0.180E+00-0.136E-03
CGA:   4    -0.128291138237E+04   -0.25244E-01   -0.25345E-01 10640   0.394E-01 0.167E-02
CGA:   5    -0.128291860641E+04   -0.72240E-02   -0.72369E-02 10640   0.883E-02 0.375E-03
CGA:   6    -0.128292038011E+04   -0.17737E-02   -0.17755E-02 10640   0.266E-02 0.103E-03
CGA:   7    -0.128292098516E+04   -0.60506E-03   -0.60529E-03 10640   0.102E-02-0.268E-04
CGA:   8    -0.128292117809E+04   -0.19293E-03   -0.19401E-03 10640   0.475E-03 0.445E-04
CGA:   9    -0.128292130274E+04   -0.12465E-03   -0.12257E-03 10640   0.239E-03 0.683E-04
CGA:  10    -0.128292134521E+04   -0.42466E-04   -0.48036E-04 10640   0.110E-03 0.132E-03
CGA:  11    -0.128292137843E+04   -0.33228E-04   -0.30192E-04 10640   0.658E-04 0.507E-04
CGA:  12    -0.128292139175E+04   -0.13314E-04   -0.16602E-04 10640   0.496E-04 0.709E-04
CGA:  13    -0.128292140795E+04   -0.16198E-04   -0.13776E-04 10640   0.418E-04 0.393E-04
CGA:  14    -0.128292141954E+04   -0.11591E-04   -0.10512E-04 10640   0.440E-04 0.334E-04
CGA:  15    -0.128292143049E+04   -0.10952E-04   -0.10551E-04 10640   0.581E-04 0.212E-04
CGA:  16    -0.128292145920E+04   -0.28708E-04   -0.24311E-04 10640   0.299E-04 0.730E-04
CGA:  17    -0.128292147552E+04   -0.16325E-04   -0.12278E-04 10640   0.406E-04 0.216E-04
CGA:  18    -0.128292148170E+04   -0.61813E-05   -0.70369E-05 10640   0.327E-04 0.141E-04
CGA:  19    -0.128292151108E+04   -0.29379E-04   -0.20586E-04 10640   0.423E-04 0.370E-04
CGA:  20    -0.128292152012E+04   -0.90333E-05   -0.89805E-05 10640   0.400E-04-0.163E-05
CGA:  21    -0.128292155041E+04   -0.30297E-04   -0.21026E-04 10640   0.382E-04 0.300E-04
CGA:  22    -0.128292156124E+04   -0.10831E-04   -0.14474E-04 10640   0.106E-03-0.298E-04
CGA:  23    -0.128292156861E+04   -0.73680E-05   -0.11044E-04 10640   0.160E-04 0.235E-04
  31 F= -.12829216E+04 E0= -.12829215E+04  d E =0.461877E-02  mag=    47.0000
       N       E                     dE             d eps       ncg     rms          ort
SDA:   1    -0.127972729874E+04    0.31943E+01    0.00000E+00 10640   0.862E+01 0.000E+00
CGA:   2    -0.128189459779E+04   -0.21673E+01   -0.21673E+01 10640   0.387E+01-0.239E-02
CGA:   3    -0.128272098501E+04   -0.82639E+00   -0.82614E+00 10640   0.813E+00-0.391E-02
CGA:   4    -0.128285202933E+04   -0.13104E+00   -0.13109E+00 10640   0.184E+00 0.134E-03
CGA:   5    -0.128288372238E+04   -0.31693E-01   -0.31723E-01 10640   0.491E-01 0.774E-03
CGA:   6    -0.128289241290E+04   -0.86905E-02   -0.86659E-02 10640   0.151E-01-0.308E-03
CGA:   7    -0.128289592441E+04   -0.35115E-02   -0.35020E-02 10640   0.563E-02-0.124E-02
CGA:   8    -0.128289702580E+04   -0.11014E-02   -0.10915E-02 10640   0.276E-02-0.327E-03
CGA:   9    -0.128289775085E+04   -0.72505E-03   -0.76324E-03 10640   0.190E-02-0.691E-03
CGA:  10    -0.128289812470E+04   -0.37384E-03   -0.39906E-03 10640   0.155E-02-0.646E-03
CGA:  11    -0.128289838616E+04   -0.26146E-03   -0.30592E-03 10640   0.138E-02-0.792E-03
CGA:  12    -0.128289859178E+04   -0.20562E-03   -0.19383E-03 10640   0.570E-03-0.108E-03
CGA:  13    -0.128289875786E+04   -0.16608E-03   -0.20136E-03 10640   0.535E-03-0.248E-03
CGA:  14    -0.128289883714E+04   -0.79272E-04   -0.80784E-04 10640   0.348E-03-0.798E-04
CGA:  15    -0.128289887832E+04   -0.41183E-04   -0.16899E-03 10640   0.109E-02-0.398E-03
CGA:  16    -0.128289898743E+04   -0.10911E-03   -0.12579E-03 10640   0.235E-03 0.114E-03
CGA:  17    -0.128289904875E+04   -0.61321E-04   -0.61290E-04 10640   0.638E-04-0.157E-05
CGA:  18    -0.128289909154E+04   -0.42781E-04    0.25796E-04 10640   0.527E-04 0.232E-04
CGA:  19    -0.128289911047E+04   -0.18935E-04   -0.18832E-04 10640   0.227E-04 0.192E-04
CGA:  20    -0.128289905832E+04    0.52154E-04   -0.30481E-04 10640   0.889E-03-0.735E-04
CGA:  21    -0.128289915827E+04   -0.99949E-04   -0.91032E-04 10640   0.105E-03-0.221E-04
CGA:  22    -0.128289920568E+04   -0.47414E-04   -0.48319E-04 10640   0.102E-03-0.445E-04
CGA:  23    -0.128289920425E+04    0.14309E-05   -0.57529E-05 10640   0.495E-04 0.204E-04
  32 F= -.12828992E+04 E0= -.12828992E+04  d E =0.223644E-01  mag=    47.0000
       N       E                     dE             d eps       ncg     rms          ort
SDA:   1    -0.128120177179E+04    0.16974E+01    0.00000E+00 10640   0.550E+01 0.000E+00
CGA:   2    -0.128228512524E+04   -0.10834E+01   -0.10832E+01 10640   0.214E+01 0.240E-02
CGA:   3    -0.128278910259E+04   -0.50398E+00   -0.50434E+00 10640   0.727E+00 0.150E-02
CGA:   4    -0.128288917149E+04   -0.10007E+00   -0.99959E-01 10640   0.123E+00 0.409E-02
CGA:   5    -0.128291081179E+04   -0.21640E-01   -0.21628E-01 10640   0.325E-01 0.296E-04
CGA:   6    -0.128291710946E+04   -0.62977E-02   -0.63430E-02 10640   0.878E-02 0.298E-03
CGA:   7    -0.128291894943E+04   -0.18400E-02   -0.18820E-02 10640   0.276E-02 0.284E-03
CGA:   8    -0.128291946489E+04   -0.51546E-03   -0.53372E-03 10640   0.112E-02 0.113E-03
CGA:   9    -0.128291972716E+04   -0.26227E-03   -0.27234E-03 10640   0.515E-03 0.880E-04
CGA:  10    -0.128291981081E+04   -0.83650E-04   -0.10949E-03 10640   0.200E-03 0.177E-03
CGA:  11    -0.128291985316E+04   -0.42352E-04   -0.57343E-04 10640   0.894E-04 0.122E-03
CGA:  12    -0.128291986211E+04   -0.89531E-05   -0.17246E-04 10640   0.553E-04 0.606E-04
  33 F= -.12829199E+04 E0= -.12829198E+04  d E =-.206579E-01  mag=    47.0000
       N       E                     dE             d eps       ncg     rms          ort
SDA:   1    -0.128278647847E+04    0.13337E+00    0.00000E+00 10640   0.465E+00 0.000E+00
CGA:   2    -0.128287271753E+04   -0.86239E-01   -0.86272E-01 10640   0.170E+00 0.365E-03
CGA:   3    -0.128291318367E+04   -0.40466E-01   -0.40467E-01 10640   0.671E-01-0.270E-04
CGA:   4    -0.128292247986E+04   -0.92962E-02   -0.92460E-02 10640   0.101E-01-0.253E-03
CGA:   5    -0.128292423077E+04   -0.17509E-02   -0.17517E-02 10640   0.264E-02 0.188E-04
CGA:   6    -0.128292482518E+04   -0.59441E-03   -0.57865E-03 10640   0.893E-03-0.216E-03
CGA:   7    -0.128292499463E+04   -0.16944E-03   -0.16440E-03 10640   0.301E-03-0.565E-04
CGA:   8    -0.128292505835E+04   -0.63722E-04   -0.59164E-04 10640   0.145E-03-0.617E-04
CGA:   9    -0.128292509228E+04   -0.33930E-04   -0.36240E-04 10640   0.152E-03-0.666E-04
CGA:  10    -0.128292381891E+04    0.12734E-02   -0.69721E-03 10640   0.111E-01-0.915E-03
CGA:  11    -0.128292488778E+04   -0.10689E-02   -0.10689E-02 10640   0.112E-02 0.293E-04
CGA:  12    -0.128292522270E+04   -0.33492E-03   -0.33237E-03 10640   0.378E-03-0.122E-04
CGA:  13    -0.128292529454E+04   -0.71842E-04   -0.83861E-04 10640   0.173E-03 0.473E-04
CGA:  14    -0.128292533192E+04   -0.37383E-04   -0.44287E-04 10640   0.526E-04 0.287E-04
CGA:  15    -0.128292533626E+04   -0.43440E-05   -0.12096E-04 10640   0.187E-04 0.298E-04
  34 F= -.12829253E+04 E0= -.12829253E+04  d E =-.547415E-02  mag=    47.0000
       N       E                     dE             d eps       ncg     rms          ort
SDA:   1    -0.128291302133E+04    0.12311E-01    0.00000E+00 10640   0.409E-01 0.000E+00
CGA:   2    -0.128292126636E+04   -0.82450E-02   -0.82885E-02 10640   0.171E-01 0.202E-03
CGA:   3    -0.128292496849E+04   -0.37021E-02   -0.37050E-02 10640   0.598E-02 0.208E-04
CGA:   4    -0.128292583632E+04   -0.86784E-03   -0.85741E-03 10640   0.103E-02-0.321E-04
CGA:   5    -0.128292603191E+04   -0.19559E-03   -0.18794E-03 10640   0.280E-03-0.347E-04
CGA:   6    -0.128292609739E+04   -0.65485E-04   -0.57576E-04 10640   0.109E-03-0.456E-04
CGA:   7    -0.128292610593E+04   -0.85347E-05   -0.12863E-04 10640   0.255E-04 0.186E-04
  35 F= -.12829261E+04 E0= -.12829261E+04  d E =-.769663E-03  mag=    47.0000
       N       E                     dE             d eps       ncg     rms          ort
SDA:   1    -0.128271739080E+04    0.20871E+00    0.00000E+00 10640   0.561E+00 0.000E+00
CGA:   2    -0.128286277464E+04   -0.14538E+00   -0.14542E+00 10640   0.253E+00 0.473E-03
CGA:   3    -0.128291451025E+04   -0.51736E-01   -0.51800E-01 10640   0.551E-01 0.461E-03
CGA:   4    -0.128292366147E+04   -0.91512E-02   -0.90888E-02 10640   0.124E-01-0.278E-03
CGA:   5    -0.128292587995E+04   -0.22185E-02   -0.21943E-02 10640   0.316E-02-0.148E-03
CGA:   6    -0.128292643502E+04   -0.55506E-03   -0.54925E-03 10640   0.106E-02-0.346E-04
CGA:   7    -0.128292662464E+04   -0.18962E-03   -0.19857E-03 10640   0.305E-03 0.717E-04
CGA:   8    -0.128292667730E+04   -0.52661E-04   -0.61094E-04 10640   0.109E-03 0.689E-04
CGA:   9    -0.128292671909E+04   -0.41787E-04   -0.41714E-04 10640   0.657E-04 0.102E-04
CGA:  10    -0.128292672389E+04   -0.48014E-05   -0.10655E-04 10640   0.317E-04 0.374E-04
CGA:  11    -0.128292673461E+04   -0.10719E-04   -0.25422E-04 10640   0.108E-03-0.291E-04
CGA:  12    -0.128292673469E+04   -0.84390E-07   -0.10651E-04 10640   0.318E-04 0.472E-04
  36 F= -.12829267E+04 E0= -.12829267E+04  d E =-.628767E-03  mag=    47.0000
       N       E                     dE             d eps       ncg     rms          ort
SDA:   1    -0.128227494784E+04    0.65179E+00    0.00000E+00 10640   0.221E+01 0.000E+00
CGA:   2    -0.128266903094E+04   -0.39408E+00   -0.39431E+00 10640   0.794E+00 0.221E-02
CGA:   3    -0.128284979270E+04   -0.18076E+00   -0.18080E+00 10640   0.358E+00 0.627E-03
CGA:   4    -0.128290037602E+04   -0.50583E-01   -0.50661E-01 10640   0.494E-01 0.143E-02
CGA:   5    -0.128290925620E+04   -0.88802E-02   -0.88950E-02 10640   0.123E-01 0.203E-03
CGA:   6    -0.128291182182E+04   -0.25656E-02   -0.25531E-02 10640   0.409E-02-0.169E-03
CGA:   7    -0.128291261661E+04   -0.79479E-03   -0.79636E-03 10640   0.136E-02 0.263E-04
CGA:   8    -0.128291287771E+04   -0.26110E-03   -0.26077E-03 10640   0.491E-03-0.200E-05
CGA:   9    -0.128291301775E+04   -0.14004E-03   -0.14113E-03 10640   0.380E-03-0.504E-04
CGA:  10    -0.128291307920E+04   -0.61457E-04   -0.65397E-04 10640   0.160E-03 0.521E-04
CGA:  11    -0.128291315895E+04   -0.79748E-04   -0.89514E-04 10640   0.190E-03-0.440E-04
CGA:  12    -0.128291320941E+04   -0.50458E-04   -0.55951E-04 10640   0.242E-03-0.436E-04
CGA:  13    -0.128291324116E+04   -0.31748E-04   -0.36106E-04 10640   0.140E-03 0.474E-04
CGA:  14    -0.128291328427E+04   -0.43112E-04   -0.43672E-04 10640   0.126E-03 0.342E-04
CGA:  15    -0.128291333068E+04   -0.46405E-04   -0.46759E-04 10640   0.125E-03-0.176E-04
CGA:  16    -0.128291335189E+04   -0.21217E-04   -0.23130E-04 10640   0.903E-04 0.290E-04
CGA:  17    -0.128291337487E+04   -0.22979E-04   -0.23840E-04 10640   0.571E-04 0.130E-04
CGA:  18    -0.128291338607E+04   -0.11196E-04   -0.36283E-04 10640   0.209E-03-0.904E-04
CGA:  19    -0.128291339791E+04   -0.11845E-04   -0.22377E-04 10640   0.498E-04 0.594E-04
CGA:  20    -0.128291340747E+04   -0.95590E-05   -0.11497E-04 10640   0.270E-04 0.200E-04
CGA:  21    -0.128291334899E+04    0.58483E-04   -0.34073E-04 10640   0.686E-03-0.147E-03
CGA:  22    -0.128291339853E+04   -0.49543E-04   -0.70803E-04 10640   0.943E-04 0.109E-03
CGA:  23    -0.128291341846E+04   -0.19925E-04   -0.22150E-04 10640   0.397E-04 0.245E-04
CGA:  24    -0.128291341182E+04    0.66349E-05   -0.27267E-04 10640   0.377E-03-0.132E-03
CGA:  25    -0.128291342731E+04   -0.15484E-04   -0.33618E-04 10640   0.425E-04 0.867E-04
CGA:  26    -0.128291342736E+04   -0.58644E-07   -0.49255E-05 10640   0.219E-04 0.248E-04
CGA:  27    -0.128291329658E+04    0.13078E-03   -0.70442E-04 10640   0.110E-02-0.114E-03
CGA:  28    -0.128291338183E+04   -0.85243E-04   -0.12086E-03 10640   0.132E-03 0.961E-04
CGA:  29    -0.128291342216E+04   -0.40336E-04   -0.41969E-04 10640   0.364E-04 0.819E-05
CGA:  30    -0.128291344411E+04   -0.21943E-04   -0.11167E-04 10640   0.911E-04-0.553E-04
CGA:  31    -0.128291344077E+04    0.33384E-05   -0.69249E-05 10640   0.951E-05 0.261E-04
  37 F= -.12829134E+04 E0= -.12829134E+04  d E =0.132939E-01  mag=    47.0000
       N       E                     dE             d eps       ncg     rms          ort
SDA:   1    -0.126642564842E+04    0.16488E+02    0.00000E+00 10640   0.569E+02 0.000E+00
CGA:   2    -0.127646814867E+04   -0.10043E+02   -0.96594E+01 10640   0.183E+02 0.224E+01
CGA:   3    -0.128113051232E+04   -0.46624E+01   -0.47067E+01 10640   0.833E+01-0.110E-01
CGA:   4    -0.128230436642E+04   -0.11739E+01   -0.10987E+01 10640   0.116E+01 0.549E+00
CGA:   5    -0.128252682771E+04   -0.22246E+00   -0.22402E+00 10640   0.324E+00 0.129E-02
CGA:   6    -0.128259056919E+04   -0.63741E-01   -0.63966E-01 10640   0.101E+00 0.366E-02
CGA:   7    -0.128261280212E+04   -0.22233E-01   -0.22147E-01 10640   0.305E-01-0.886E-03
CGA:   8    -0.128261868167E+04   -0.58795E-02   -0.59138E-02 10640   0.114E-01 0.421E-03
CGA:   9    -0.128262200156E+04   -0.33199E-02   -0.32104E-02 10640   0.817E-02-0.133E-02
CGA:  10    -0.128262309854E+04   -0.10970E-02   -0.12864E-02 10640   0.345E-02 0.111E-02
CGA:  11    -0.128262401995E+04   -0.92141E-03   -0.98694E-03 10640   0.196E-02 0.682E-03
CGA:  12    -0.128262467567E+04   -0.65572E-03   -0.65024E-03 10640   0.217E-02-0.883E-04
CGA:  13    -0.128262498443E+04   -0.30876E-03   -0.39684E-03 10640   0.134E-02 0.594E-03
CGA:  14    -0.128262532171E+04   -0.33728E-03   -0.38326E-03 10640   0.151E-02 0.423E-03
CGA:  15    -0.128262596341E+04   -0.64169E-03   -0.64102E-03 10640   0.163E-02-0.184E-03
CGA:  16    -0.128262617049E+04   -0.20709E-03   -0.26511E-03 10640   0.144E-02 0.392E-03
CGA:  17    -0.128262642347E+04   -0.25297E-03   -0.33925E-03 10640   0.105E-02 0.646E-03
CGA:  18    -0.128262670793E+04   -0.28446E-03   -0.31032E-03 10640   0.602E-03 0.224E-03
CGA:  19    -0.128262686902E+04   -0.16109E-03   -0.16845E-03 10640   0.538E-03 0.880E-04
CGA:  20    -0.128262708137E+04   -0.21236E-03   -0.22495E-03 10640   0.700E-03-0.217E-03
CGA:  21    -0.128262712354E+04   -0.42168E-04   -0.21136E-03 10640   0.177E-02-0.873E-03
CGA:  22    -0.128262731830E+04   -0.19476E-03   -0.24521E-03 10640   0.723E-03 0.293E-03
CGA:  23    -0.128262763332E+04   -0.31501E-03   -0.36007E-03 10640   0.669E-03-0.377E-03
CGA:  24    -0.128262768205E+04   -0.48738E-04   -0.78008E-04 10640   0.186E-03 0.151E-03
CGA:  25    -0.128262782319E+04   -0.14113E-03    0.19466E-02 10640   0.114E-03-0.358E-04
CGA:  26    -0.128262794665E+04   -0.12347E-03    0.11708E-04 10640   0.168E-03-0.496E-04
CGA:  27    -0.128262803319E+04   -0.86538E-04    0.28861E-04 10640   0.186E-03 0.712E-05
CGA:  28    -0.128262806529E+04   -0.32101E-04   -0.33196E-04 10640   0.744E-04 0.789E-05
CGA:  29    -0.128262812223E+04   -0.56935E-04    0.48829E-04 10640   0.530E-04 0.687E-05
CGA:  30    -0.128262818219E+04   -0.59959E-04    0.11574E-04 10640   0.728E-04-0.197E-04
CGA:  31    -0.128262824043E+04   -0.58241E-04    0.59183E-05 10640   0.831E-04-0.248E-04
CGA:  32    -0.128262824549E+04   -0.50628E-05   -0.71570E-05 10640   0.594E-04 0.122E-04
  38 F= -.12826282E+04 E0= -.12826282E+04  d E =0.285195E+00  mag=    47.0000
       N       E                     dE             d eps       ncg     rms          ort
SDA:   1    -0.127830467328E+04    0.43236E+01    0.00000E+00 10640   0.157E+02 0.000E+00
CGA:   2    -0.128112669330E+04   -0.28220E+01   -0.28195E+01 10640   0.589E+01 0.177E-01
CGA:   3    -0.128244113318E+04   -0.13144E+01   -0.13142E+01 10640   0.261E+01 0.516E-02
CGA:   4    -0.128280898027E+04   -0.36785E+00   -0.36951E+00 10640   0.356E+00-0.821E-02
CGA:   5    -0.128287043234E+04   -0.61452E-01   -0.61618E-01 10640   0.916E-01 0.356E-02
CGA:   6    -0.128289038169E+04   -0.19949E-01   -0.19730E-01 10640   0.311E-01-0.473E-02
CGA:   7    -0.128289561148E+04   -0.52298E-02   -0.53137E-02 10640   0.884E-02 0.118E-02
CGA:   8    -0.128289766231E+04   -0.20508E-02   -0.20222E-02 10640   0.396E-02-0.830E-03
CGA:   9    -0.128289856640E+04   -0.90409E-03   -0.90360E-03 10640   0.289E-02-0.711E-03
CGA:  10    -0.128289924325E+04   -0.67684E-03   -0.77620E-03 10640   0.302E-02-0.133E-02
CGA:  11    -0.128289964013E+04   -0.39688E-03   -0.55761E-03 10640   0.344E-02-0.187E-02
CGA:  12    -0.128290017422E+04   -0.53409E-03   -0.50413E-03 10640   0.166E-02-0.257E-03
CGA:  13    -0.128290053810E+04   -0.36389E-03   -0.36564E-03 10640   0.411E-03 0.107E-03
CGA:  14    -0.128290068755E+04   -0.14945E-03   -0.14602E-03 10640   0.369E-03 0.433E-04
CGA:  15    -0.128290081412E+04   -0.12656E-03   -0.14011E-03 10640   0.496E-03-0.158E-03
CGA:  16    -0.128290089250E+04   -0.78383E-04   -0.85173E-04 10640   0.448E-03-0.183E-03
CGA:  17    -0.128290092768E+04   -0.35182E-04   -0.39126E-04 10640   0.269E-03 0.308E-04
CGA:  18    -0.128290097661E+04   -0.48933E-04   -0.54093E-04 10640   0.285E-03 0.728E-04
CGA:  19    -0.128290109059E+04   -0.11397E-03   -0.13100E-03 10640   0.509E-03-0.162E-03
CGA:  20    -0.128290121669E+04   -0.12610E-03   -0.12086E-03 10640   0.552E-03-0.233E-03
CGA:  21    -0.128290125114E+04   -0.34458E-04   -0.38934E-04 10640   0.239E-03 0.352E-04
CGA:  22    -0.128290126035E+04   -0.92085E-05   -0.18770E-04 10640   0.706E-04 0.540E-04
CGA:  23    -0.128290126917E+04   -0.88168E-05   -0.10856E-04 10640   0.661E-04 0.172E-04
CGA:  24    -0.128290128933E+04   -0.20164E-04   -0.20408E-04 10640   0.926E-04-0.234E-04
CGA:  25    -0.128290128963E+04   -0.29572E-06   -0.34924E-05 10640   0.708E-04 0.177E-04
  39 F= -.12829013E+04 E0= -.12829012E+04  d E =-.273044E+00  mag=    47.0000
       N       E                     dE             d eps       ncg     rms          ort
SDA:   1    -0.128177821803E+04    0.11231E+01    0.00000E+00 10640   0.403E+01 0.000E+00
CGA:   2    -0.128249327752E+04   -0.71506E+00   -0.71525E+00 10640   0.146E+01 0.598E-02
CGA:   3    -0.128282343841E+04   -0.33016E+00   -0.33015E+00 10640   0.663E+00 0.121E-02
CGA:   4    -0.128291758652E+04   -0.94148E-01   -0.94093E-01 10640   0.878E-01-0.740E-03
CGA:   5    -0.128293335659E+04   -0.15770E-01   -0.15763E-01 10640   0.228E-01-0.936E-04
[...]
SDA:   1    -0.128206796427E+04    0.91675E+00    0.00000E+00 10640   0.303E+01 0.000E+00
CGA:   2    -0.128265879627E+04   -0.59083E+00   -0.59044E+00 10640   0.109E+01-0.243E-02
CGA:   3    -0.128293418227E+04   -0.27539E+00   -0.27552E+00 10640   0.295E+00 0.118E-02
CGA:   4    -0.128298117289E+04   -0.46991E-01   -0.47301E-01 10640   0.450E-01 0.180E-02
CGA:   5    -0.128299035507E+04   -0.91822E-02   -0.93219E-02 10640   0.104E-01 0.116E-02
CGA:   6    -0.128299266064E+04   -0.23056E-02   -0.23389E-02 10640   0.371E-02 0.335E-03
CGA:   7    -0.128299344077E+04   -0.78014E-03   -0.74895E-03 10640   0.159E-02-0.253E-03
CGA:   8    -0.128299370102E+04   -0.26025E-03   -0.26609E-03 10640   0.573E-03 0.470E-04
CGA:   9    -0.128299384659E+04   -0.14557E-03   -0.14992E-03 10640   0.264E-03 0.872E-04
CGA:  10    -0.128299390542E+04   -0.58823E-04   -0.66972E-04 10640   0.139E-03 0.100E-03
CGA:  11    -0.128299391945E+04   -0.14035E-04   -0.30413E-04 10640   0.773E-04 0.118E-03
CGA:  12    -0.128299395088E+04   -0.31430E-04   -0.29477E-04 10640   0.101E-03 0.214E-04
CGA:  13    -0.128299396942E+04   -0.18536E-04   -0.24970E-04 10640   0.576E-04 0.636E-04
CGA:  14    -0.128299397967E+04   -0.10253E-04   -0.12216E-04 10640   0.481E-04 0.251E-04
CGA:  15    -0.128299398908E+04   -0.94086E-05   -0.13582E-04 10640   0.341E-04 0.463E-04
CGA:  16    -0.128299401568E+04   -0.26602E-04   -0.21226E-04 10640   0.427E-04 0.155E-04
CGA:  17    -0.128299403443E+04   -0.18747E-04   -0.18656E-04 10640   0.314E-04 0.497E-04
CGA:  18    -0.128299389850E+04    0.13593E-03   -0.73560E-04 10640   0.208E-02-0.119E-03
CGA:  19    -0.128299405324E+04   -0.15474E-03   -0.19706E-03 10640   0.144E-03 0.108E-03
CGA:  20    -0.128299408878E+04   -0.35541E-04   -0.35496E-04 10640   0.472E-04-0.604E-07
CGA:  21    -0.128299403443E+04    0.54350E-04   -0.46176E-04 10640   0.145E-02-0.213E-03
CGA:  22    -0.128299412126E+04   -0.86835E-04   -0.14969E-03 10640   0.109E-03 0.156E-03
CGA:  23    -0.128299413808E+04   -0.16816E-04   -0.22868E-04 10640   0.448E-04 0.189E-04
CGA:  24    -0.128299415801E+04   -0.19931E-04   -0.14946E-04 10640   0.355E-04-0.237E-04
CGA:  25    -0.128299415504E+04    0.29655E-05   -0.32782E-05 10640   0.120E-04 0.160E-04
  45 F= -.12829942E+04 E0= -.12829941E+04  d E =-.943375E-02  mag=    47.0000
       N       E                     dE             d eps       ncg     rms          ort
SDA:   1    -0.128284550191E+04    0.14866E+00    0.00000E+00 10640   0.468E+00 0.000E+00
CGA:   2    -0.128294279628E+04   -0.97294E-01   -0.97472E-01 10640   0.185E+00 0.788E-03
CGA:   3    -0.128298936982E+04   -0.46574E-01   -0.46300E-01 10640   0.473E-01-0.156E-02
CGA:   4    -0.128299667636E+04   -0.73065E-02   -0.73418E-02 10640   0.711E-02 0.135E-03
CGA:   5    -0.128299826679E+04   -0.15904E-02   -0.15339E-02 10640   0.192E-02-0.282E-03
CGA:   6    -0.128299862051E+04   -0.35372E-03   -0.36139E-03 10640   0.708E-03 0.384E-04
CGA:   7    -0.128299878948E+04   -0.16897E-03   -0.14579E-03 10640   0.310E-03-0.120E-03
CGA:   8    -0.128299886510E+04   -0.75625E-04   -0.62408E-04 10640   0.195E-03-0.928E-04
CGA:   9    -0.128299890665E+04   -0.41546E-04   -0.36056E-04 10640   0.111E-03-0.481E-04
CGA:  10    -0.128299899677E+04   -0.90118E-04    0.34420E-04 10640   0.149E-03-0.628E-04
CGA:  11    -0.128299899917E+04   -0.24046E-05   -0.12881E-04 10640   0.271E-04 0.372E-04
  46 F= -.12829990E+04 E0= -.12829990E+04  d E =-.484413E-02  mag=    47.0000
       N       E                     dE             d eps       ncg     rms          ort
SDA:   1    -0.128280535766E+04    0.19364E+00    0.00000E+00 10640   0.578E+00 0.000E+00
CGA:   2    -0.128292745808E+04   -0.12210E+00   -0.12233E+00 10640   0.240E+00 0.180E-02
CGA:   3    -0.128298416801E+04   -0.56710E-01   -0.56401E-01 10640   0.774E-01-0.305E-02
CGA:   4    -0.128299468581E+04   -0.10518E-01   -0.10438E-01 10640   0.133E-01-0.279E-03
CGA:   5    -0.128299705138E+04   -0.23656E-02   -0.23375E-02 10640   0.348E-02-0.173E-03
CGA:   6    -0.128299780603E+04   -0.75465E-03   -0.72530E-03 10640   0.122E-02-0.267E-03
CGA:   7    -0.128299801775E+04   -0.21171E-03   -0.21654E-03 10640   0.344E-03 0.409E-04
CGA:   8    -0.128299812324E+04   -0.10550E-03   -0.10292E-03 10640   0.334E-03-0.135E-03
CGA:   9    -0.128299818355E+04   -0.60311E-04   -0.54641E-04 10640   0.288E-03-0.149E-03
CGA:  10    -0.128299592945E+04    0.22541E-02   -0.12290E-02 10640   0.139E-01-0.153E-02
CGA:  11    -0.128299781657E+04   -0.18871E-02   -0.18410E-02 10640   0.325E-02-0.103E-03
CGA:  12    -0.128299833098E+04   -0.51441E-03   -0.54495E-03 10640   0.739E-03 0.894E-04
CGA:  13    -0.128299852987E+04   -0.19889E-03   -0.23113E-03 10640   0.357E-03 0.152E-03
CGA:  14    -0.128299864195E+04   -0.11208E-03   -0.11345E-03 10640   0.215E-03 0.609E-05
CGA:  15    -0.128299863356E+04    0.83875E-05   -0.28893E-04 10640   0.636E-04 0.103E-03
  47 F= -.12829986E+04 E0= -.12829986E+04  d E =0.365612E-03  mag=    47.0000
       N       E                     dE             d eps       ncg     rms          ort
SDA:   1    -0.128258043270E+04    0.41821E+00    0.00000E+00 10640   0.111E+01 0.000E+00
CGA:   2    -0.128285275750E+04   -0.27232E+00   -0.27251E+00 10640   0.515E+00 0.126E-02
CGA:   3    -0.128296166915E+04   -0.10891E+00   -0.10869E+00 10640   0.133E+00-0.935E-03
CGA:   4    -0.128298062700E+04   -0.18958E-01   -0.18693E-01 10640   0.276E-01-0.918E-03
CGA:   5    -0.128298551144E+04   -0.48844E-02   -0.48368E-02 10640   0.656E-02-0.154E-03
CGA:   6    -0.128298689149E+04   -0.13800E-02   -0.13434E-02 10640   0.203E-02-0.174E-03
CGA:   7    -0.128298730806E+04   -0.41657E-03   -0.41956E-03 10640   0.701E-03 0.184E-04
CGA:   8    -0.128298743843E+04   -0.13038E-03   -0.13553E-03 10640   0.317E-03 0.278E-04
CGA:   9    -0.128298755750E+04   -0.11907E-03   -0.11714E-03 10640   0.325E-03-0.825E-04
CGA:  10    -0.128298763665E+04   -0.79151E-04   -0.69416E-04 10640   0.306E-03-0.109E-03
CGA:  11    -0.128298770437E+04   -0.67719E-04   -0.60665E-04 10640   0.208E-03-0.945E-04
CGA:  12    -0.128298574595E+04    0.19584E-02   -0.10622E-02 10640   0.143E-01-0.114E-02
CGA:  13    -0.128298716189E+04   -0.14159E-02   -0.15952E-02 10640   0.263E-02 0.432E-03
CGA:  14    -0.128298771552E+04   -0.55363E-03   -0.61245E-03 10640   0.619E-03 0.142E-03
CGA:  15    -0.128298791302E+04   -0.19750E-03   -0.16460E-03 10640   0.402E-03-0.874E-04
CGA:  16    -0.128298791056E+04    0.24648E-05   -0.56829E-04 10640   0.142E-03 0.135E-03
CGA:  17    -0.128298789826E+04    0.12296E-04   -0.23653E-04 10640   0.760E-04 0.785E-04
CGA:  18    -0.128298794129E+04   -0.43027E-04   -0.54097E-04 10640   0.417E-03-0.730E-04
CGA:  19    -0.128298792100E+04    0.20287E-04   -0.34902E-04 10640   0.485E-04 0.115E-03
CGA:  20    -0.128298790853E+04    0.12475E-04   -0.38381E-05 10640   0.233E-04 0.339E-04
CGA:  21    -0.128298790461E+04    0.39201E-05   -0.30006E-05 10640   0.149E-04 0.177E-04
  48 F= -.12829879E+04 E0= -.12829879E+04  d E =0.107290E-01  mag=    47.0000
       N       E                     dE             d eps       ncg     rms          ort
SDA:   1    -0.128282037100E+04    0.16754E+00    0.00000E+00 10640   0.476E+00 0.000E+00
CGA:   2    -0.128292332979E+04   -0.10296E+00   -0.10317E+00 10640   0.219E+00 0.880E-03
CGA:   3    -0.128296846525E+04   -0.45135E-01   -0.45173E-01 10640   0.743E-01 0.261E-03
CGA:   4    -0.128297887659E+04   -0.10411E-01   -0.10277E-01 10640   0.118E-01-0.240E-03
CGA:   5    -0.128298121218E+04   -0.23356E-02   -0.22734E-02 10640   0.295E-02-0.239E-03
CGA:   6    -0.128298178578E+04   -0.57360E-03   -0.56102E-03 10640   0.934E-03-0.503E-04
CGA:   7    -0.128298192433E+04   -0.13855E-03   -0.16131E-03 10640   0.265E-03 0.962E-04
CGA:   8    -0.128298195103E+04   -0.26696E-04   -0.47469E-04 10640   0.773E-04 0.864E-04
CGA:   9    -0.128298196572E+04   -0.14692E-04   -0.21956E-04 10640   0.414E-04 0.411E-04
CGA:  10    -0.128298198014E+04   -0.14427E-04   -0.14404E-04 10640   0.608E-04-0.623E-06
CGA:  11    -0.128298198664E+04   -0.64919E-05   -0.10512E-04 10640   0.268E-04 0.197E-04
  49 F= -.12829820E+04 E0= -.12829820E+04  d E =0.591797E-02  mag=    47.0000
       N       E                     dE             d eps       ncg     rms          ort
SDA:   1    -0.128292990240E+04    0.52078E-01    0.00000E+00 10640   0.150E+00 0.000E+00
CGA:   2    -0.128296233121E+04   -0.32429E-01   -0.32365E-01 10640   0.633E-01-0.437E-03
CGA:   3    -0.128297648203E+04   -0.14151E-01   -0.14291E-01 10640   0.174E-01 0.116E-02
CGA:   4    -0.128297891635E+04   -0.24343E-02   -0.25289E-02 10640   0.316E-02 0.483E-03
CGA:   5    -0.128297948075E+04   -0.56440E-03   -0.56970E-03 10640   0.890E-03 0.374E-04
CGA:   6    -0.128297962946E+04   -0.14870E-03   -0.15752E-03 10640   0.250E-03 0.592E-04
CGA:   7    -0.128297967420E+04   -0.44743E-04   -0.50767E-04 10640   0.670E-04 0.471E-04
CGA:   8    -0.128297968877E+04   -0.14572E-04   -0.16510E-04 10640   0.269E-04 0.184E-04
CGA:   9    -0.128297968586E+04    0.29088E-05   -0.29707E-05 10640   0.180E-04 0.267E-04
  50 F= -.12829797E+04 E0= -.12829797E+04  d E =0.230077E-02  mag=    47.0000
       N       E                     dE             d eps       ncg     rms          ort
SDA:   1    -0.128293562895E+04    0.44060E-01    0.00000E+00 10640   0.990E-01 0.000E+00
CGA:   2    -0.128296329896E+04   -0.27670E-01   -0.27664E-01 10640   0.481E-01-0.974E-03
CGA:   3    -0.128297165048E+04   -0.83515E-02   -0.84913E-02 10640   0.118E-01 0.141E-02
CGA:   4    -0.128297341474E+04   -0.17643E-02   -0.17734E-02 10640   0.256E-02 0.806E-04
CGA:   5    -0.128297387750E+04   -0.46276E-03   -0.46515E-03 10640   0.591E-03 0.290E-04
CGA:   6    -0.128297395288E+04   -0.75378E-04   -0.91758E-04 10640   0.141E-03 0.143E-03
CGA:   7    -0.128297398917E+04   -0.36295E-04   -0.37988E-04 10640   0.458E-04 0.367E-04
CGA:   8    -0.128297399257E+04   -0.34034E-05   -0.76701E-05 10640   0.239E-04 0.335E-04
  51 F= -.12829740E+04 E0= -.12829740E+04  d E =0.569329E-02  mag=    47.0000
       N       E                     dE             d eps       ncg     rms          ort
SDA:   1    -0.128262370208E+04    0.35029E+00    0.00000E+00 10640   0.838E+00 0.000E+00
CGA:   2    -0.128286310914E+04   -0.23941E+00   -0.23952E+00 10640   0.408E+00-0.282E-02
CGA:   3    -0.128293578356E+04   -0.72674E-01   -0.72847E-01 10640   0.954E-01 0.375E-02
CGA:   4    -0.128295001736E+04   -0.14234E-01   -0.14283E-01 10640   0.212E-01 0.576E-03
CGA:   5    -0.128295378327E+04   -0.37659E-02   -0.37723E-02 10640   0.515E-02 0.132E-03
CGA:   6    -0.128295467612E+04   -0.89285E-03   -0.91433E-03 10640   0.143E-02 0.368E-03
CGA:   7    -0.128295502130E+04   -0.34518E-03   -0.34531E-03 10640   0.502E-03 0.203E-04
CGA:   8    -0.128295510969E+04   -0.88391E-04   -0.92548E-04 10640   0.186E-03 0.824E-04
CGA:   9    -0.128295512540E+04   -0.15707E-04   -0.28317E-04 10640   0.858E-04 0.127E-03
CGA:  10    -0.128295513501E+04   -0.96079E-05   -0.13410E-04 10640   0.501E-04 0.552E-04
  52 F= -.12829551E+04 E0= -.12829551E+04  d E =0.188576E-01  mag=    47.0000
       N       E                     dE             d eps       ncg     rms          ort
SDA:   1    -0.128221931323E+04    0.73581E+00    0.00000E+00 10640   0.180E+01 0.000E+00
CGA:   2    -0.128273295976E+04   -0.51365E+00   -0.51398E+00 10640   0.833E+00-0.495E-02
CGA:   3    -0.128289784148E+04   -0.16488E+00   -0.16497E+00 10640   0.148E+00 0.435E-02
CGA:   4    -0.128292347370E+04   -0.25632E-01   -0.25530E-01 10640   0.353E-01-0.215E-02
CGA:   5    -0.128292922985E+04   -0.57562E-02   -0.58408E-02 10640   0.871E-02 0.179E-02
CGA:   6    -0.128293085407E+04   -0.16242E-02   -0.16322E-02 10640   0.310E-02 0.234E-03
CGA:   7    -0.128293155450E+04   -0.70042E-03   -0.70319E-03 10640   0.121E-02-0.316E-03
CGA:   8    -0.128293166846E+04   -0.11397E-03   -0.14295E-03 10640   0.387E-03 0.359E-03
CGA:   9    -0.128293173673E+04   -0.68268E-04   -0.78770E-04 10640   0.221E-03 0.202E-03
CGA:  10    -0.128293131436E+04    0.42237E-03   -0.22071E-03 10640   0.790E-02-0.811E-03
CGA:  11    -0.128293183124E+04   -0.51688E-03   -0.63275E-03 10640   0.249E-03 0.747E-03
CGA:  12    -0.128293182479E+04    0.64592E-05   -0.18700E-04 10640   0.105E-03 0.149E-03
CGA:  13    -0.128293182826E+04   -0.34705E-05   -0.11520E-04 10640   0.507E-04 0.676E-04
  53 F= -.12829318E+04 E0= -.12829318E+04  d E =0.233067E-01  mag=    47.0000
       N       E                     dE             d eps       ncg     rms          ort
SDA:   1    -0.128246388809E+04    0.46794E+00    0.00000E+00 10640   0.132E+01 0.000E+00
CGA:   2    -0.128277471412E+04   -0.31083E+00   -0.31089E+00 10640   0.580E+00-0.337E-02
CGA:   3    -0.128290493908E+04   -0.13022E+00   -0.13020E+00 10640   0.118E+00 0.370E-02
CGA:   4    -0.128292377679E+04   -0.18838E-01   -0.18877E-01 10640   0.251E-01 0.697E-03
CGA:   5    -0.128292789919E+04   -0.41224E-02   -0.41794E-02 10640   0.703E-02 0.114E-02
CGA:   6    -0.128292912652E+04   -0.12273E-02   -0.12434E-02 10640   0.210E-02 0.364E-03
CGA:   7    -0.128292964383E+04   -0.51732E-03   -0.51818E-03 10640   0.652E-03-0.360E-04
CGA:   8    -0.128292977027E+04   -0.12644E-03   -0.12787E-03 10640   0.279E-03 0.105E-03
CGA:   9    -0.128292983279E+04   -0.62519E-04   -0.64015E-04 10640   0.124E-03 0.982E-04
CGA:  10    -0.128292985480E+04   -0.22007E-04   -0.26950E-04 10640   0.654E-04 0.981E-04
CGA:  11    -0.128292985589E+04   -0.10891E-05   -0.67495E-05 10640   0.468E-04 0.534E-04
  54 F= -.12829299E+04 E0= -.12829298E+04  d E =0.197237E-02  mag=    47.0000
       N       E                     dE             d eps       ncg     rms          ort
SDA:   1    -0.128073292833E+04    0.21969E+01    0.00000E+00 10640   0.553E+01 0.000E+00
CGA:   2    -0.128235958577E+04   -0.16267E+01   -0.16272E+01 10640   0.247E+01-0.448E-02
CGA:   3    -0.128284541238E+04   -0.48583E+00   -0.48581E+00 10640   0.442E+00-0.318E-02
CGA:   4    -0.128292176711E+04   -0.76355E-01   -0.76465E-01 10640   0.978E-01 0.409E-02
CGA:   5    -0.128294022889E+04   -0.18462E-01   -0.18457E-01 10640   0.255E-01-0.296E-03
CGA:   6    -0.128294469852E+04   -0.44696E-02   -0.44825E-02 10640   0.945E-02 0.555E-03
CGA:   7    -0.128294666213E+04   -0.19636E-02   -0.19657E-02 10640   0.325E-02-0.556E-03
CGA:   8    -0.128294744849E+04   -0.78636E-03   -0.86636E-03 10640   0.297E-02-0.956E-03
CGA:   9    -0.128294777972E+04   -0.33123E-03   -0.33856E-03 10640   0.100E-02 0.178E-03
CGA:  10    -0.128294799217E+04   -0.21245E-03   -0.21275E-03 10640   0.660E-03 0.164E-03
CGA:  11    -0.128294817115E+04   -0.17899E-03   -0.19617E-03 10640   0.729E-03-0.320E-03
CGA:  12    -0.128294823098E+04   -0.59832E-04   -0.57393E-04 10640   0.493E-03-0.468E-04
CGA:  13    -0.128294827716E+04   -0.46178E-04   -0.53088E-04 10640   0.328E-03 0.797E-04
CGA:  14    -0.128294835652E+04   -0.79359E-04   -0.79500E-04 10640   0.277E-03-0.133E-04
CGA:  15    -0.128294777178E+04    0.58474E-03   -0.22761E-03 10640   0.666E-02-0.124E-02
CGA:  16    -0.128294832215E+04   -0.55036E-03   -0.64863E-03 10640   0.926E-03 0.763E-03
CGA:  17    -0.128294848670E+04   -0.16455E-03   -0.18099E-03 10640   0.302E-03 0.335E-03
CGA:  18    -0.128294857709E+04   -0.90390E-04   -0.89798E-04 10640   0.237E-03-0.170E-03
CGA:  19    -0.128294857881E+04   -0.17181E-05   -0.15465E-04 10640   0.453E-04 0.882E-04
  55 F= -.12829486E+04 E0= -.12829485E+04  d E =-.187229E-01  mag=    47.0000
       N       E                     dE             d eps       ncg     rms          ort
SDA:   1    -0.127168217708E+04    0.11266E+02    0.00000E+00 10640   0.383E+02 0.000E+00
CGA:   2    -0.127877054339E+04   -0.70884E+01   -0.70889E+01 10640   0.127E+02 0.398E-01
CGA:   3    -0.128209441992E+04   -0.33239E+01   -0.33208E+01 10640   0.370E+01 0.297E-01
CGA:   4    -0.128268077904E+04   -0.58636E+00   -0.58709E+00 10640   0.541E+00 0.220E-01
CGA:   5    -0.128279561206E+04   -0.11483E+00   -0.11484E+00 10640   0.138E+00-0.142E-02
CGA:   6    -0.128282501459E+04   -0.29403E-01   -0.29382E-01 10640   0.473E-01 0.279E-02
CGA:   7    -0.128283432858E+04   -0.93140E-02   -0.92854E-02 10640   0.166E-01-0.209E-02
CGA:   8    -0.128283759211E+04   -0.32635E-02   -0.32636E-02 10640   0.762E-02-0.756E-03
CGA:   9    -0.128283913382E+04   -0.15417E-02   -0.15375E-02 10640   0.344E-02 0.678E-03
CGA:  10    -0.128284021230E+04   -0.10785E-02   -0.10936E-02 10640   0.262E-02-0.167E-03
CGA:  11    -0.128284068902E+04   -0.47672E-03   -0.48528E-03 10640   0.113E-02 0.572E-03
CGA:  12    -0.128284125645E+04   -0.56743E-03   -0.57471E-03 10640   0.130E-02-0.381E-04
CGA:  13    -0.128284166612E+04   -0.40967E-03   -0.44692E-03 10640   0.219E-02-0.280E-03
CGA:  14    -0.128284194648E+04   -0.28036E-03   -0.29953E-03 10640   0.144E-02 0.360E-03
CGA:  15    -0.128284220107E+04   -0.25459E-03   -0.28073E-03 10640   0.125E-02 0.457E-03
CGA:  16    -0.128284259723E+04   -0.39616E-03   -0.39198E-03 10640   0.967E-03 0.234E-03
CGA:  17    -0.128284283144E+04   -0.23420E-03   -0.23531E-03 10640   0.764E-03 0.612E-04
CGA:  18    -0.128284303242E+04   -0.20099E-03   -0.19753E-03 10640   0.675E-03 0.149E-03
CGA:  19    -0.128284321549E+04   -0.18306E-03   -0.18382E-03 10640   0.537E-03-0.135E-03
CGA:  20    -0.128284332369E+04   -0.10820E-03   -0.16878E-03 10640   0.757E-03-0.362E-03
CGA:  21    -0.128284340938E+04   -0.85689E-04   -0.10355E-03 10640   0.246E-03 0.192E-03
CGA:  22    -0.128284352633E+04   -0.11695E-03   -0.14542E-03 10640   0.274E-03-0.116E-03
CGA:  23    -0.128284188192E+04    0.16444E-02   -0.89738E-03 10640   0.105E-01-0.143E-02
CGA:  24    -0.128284320595E+04   -0.13240E-02   -0.14024E-02 10640   0.147E-02 0.326E-03
CGA:  25    -0.128284367541E+04   -0.46946E-03   -0.45957E-03 10640   0.124E-02-0.827E-04
CGA:  26    -0.128284383762E+04   -0.16220E-03   -0.17643E-03 10640   0.210E-03 0.566E-04
CGA:  27    -0.128284386437E+04   -0.26753E-04   -0.37497E-04 10640   0.110E-03 0.470E-04
CGA:  28    -0.128284389479E+04   -0.30414E-04   -0.34283E-04 10640   0.718E-04 0.286E-04
CGA:  29    -0.128284390263E+04   -0.78477E-05   -0.12250E-04 10640   0.154E-04 0.180E-04
  56 F= -.12828439E+04 E0= -.12828439E+04  d E =0.104676E+00  mag=    47.0000
       N       E                     dE             d eps       ncg     rms          ort
SDA:   1    -0.127976557500E+04    0.30783E+01    0.00000E+00 10640   0.105E+02 0.000E+00
CGA:   2    -0.128179338151E+04   -0.20278E+01   -0.20281E+01 10640   0.388E+01 0.125E-01
CGA:   3    -0.128274873510E+04   -0.95535E+00   -0.95591E+00 10640   0.117E+01-0.282E-02
CGA:   4    -0.128292335430E+04   -0.17462E+00   -0.17437E+00 10640   0.186E+00 0.413E-02
CGA:   5    -0.128295818511E+04   -0.34831E-01   -0.34733E-01 10640   0.586E-01-0.326E-03
CGA:   6    -0.128296833181E+04   -0.10147E-01   -0.10059E-01 10640   0.190E-01-0.549E-03
CGA:   7    -0.128297185531E+04   -0.35235E-02   -0.35817E-02 10640   0.503E-02 0.478E-03
CGA:   8    -0.128297303565E+04   -0.11803E-02   -0.11620E-02 10640   0.224E-02-0.199E-03
CGA:   9    -0.128297355735E+04   -0.52169E-03   -0.51785E-03 10640   0.120E-02-0.502E-04
CGA:  10    -0.128297394177E+04   -0.38442E-03   -0.39678E-03 10640   0.123E-02-0.388E-03
CGA:  11    -0.128297416035E+04   -0.21859E-03   -0.19372E-03 10640   0.769E-03-0.326E-03
CGA:  12    -0.128297433357E+04   -0.17322E-03   -0.17368E-03 10640   0.594E-03-0.194E-03
CGA:  13    -0.128297445512E+04   -0.12154E-03   -0.11820E-03 10640   0.478E-03-0.874E-04
CGA:  14    -0.128297459182E+04   -0.13670E-03   -0.13818E-03 10640   0.325E-03-0.419E-04
CGA:  15    -0.128297468528E+04   -0.93459E-04   -0.92895E-04 10640   0.178E-03 0.629E-04
CGA:  16    -0.128297475654E+04   -0.71264E-04   -0.71299E-04 10640   0.124E-03-0.202E-05
CGA:  17    -0.128297475877E+04   -0.22303E-05   -0.14231E-04 10640   0.570E-04 0.627E-04
