       N       E                     dE             d eps       ncg     rms          ort
DAV:   1     0.102762579596E+05    0.10276E+05   -0.42439E+05 10640   0.155E+03
DAV:   2    -0.117795372933E+03   -0.10394E+05   -0.98106E+04 10640   0.474E+02
DAV:   3    -0.152217624586E+04   -0.14044E+04   -0.13109E+04 10640   0.182E+02
DAV:   4    -0.160407898566E+04   -0.81903E+02   -0.79644E+02 10640   0.461E+01
DAV:   5    -0.160644607429E+04   -0.23671E+01   -0.23593E+01 10640   0.839E+00
SDA:   6    -0.727826250390E+03    0.87862E+03   -0.23593E+01 10640   0.291E+04 0.000E+00
CGA:   7    -0.113357249060E+04   -0.40575E+03   -0.40191E+03 10640   0.110E+04-0.177E+02
CGA:   8    -0.115488208094E+04   -0.21310E+02   -0.60523E+02 10640   0.128E+04-0.651E+03
CGA:   9    -0.115519172027E+04   -0.30964E+00   -0.63622E+02 10640   0.189E+04-0.111E+04
CGA:  10    -0.112990990779E+04    0.25282E+02   -0.10248E+03 10640   0.276E+04-0.179E+04
CGA:  11    -0.112834597730E+04    0.15639E+01   -0.13725E+03 10640   0.316E+04-0.270E+04
CGA:  12    -0.110015039015E+04    0.28196E+02   -0.16929E+03 10640   0.413E+04-0.331E+04
CGA:  13    -0.110741582930E+04   -0.72654E+01   -0.20746E+03 10640   0.420E+04-0.399E+04
CGA:  14    -0.111137243956E+04   -0.39566E+01   -0.20986E+03 10640   0.449E+04-0.430E+04
CGA:  15    -0.114383865771E+04   -0.32466E+02   -0.20973E+03 10640   0.358E+04-0.388E+04
CGA:  16    -0.119605871050E+04   -0.52220E+02   -0.15118E+03 10640   0.230E+04-0.304E+04
CGA:  17    -0.123685170885E+04   -0.40793E+02   -0.84714E+02 10640   0.726E+03-0.119E+04
CGA:  18    -0.125477339945E+04   -0.17922E+02   -0.22088E+02 10640   0.896E+02-0.172E+03
CGA:  19    -0.125983913570E+04   -0.50657E+01   -0.49146E+01 10640   0.662E+02 0.154E+01
CGA:  20    -0.126826950659E+04   -0.84304E+01   -0.84436E+01 10640   0.106E+03 0.175E+01
CGA:  21    -0.127535959112E+04   -0.70901E+01   -0.61365E+01 10640   0.129E+02 0.115E+02
CGA:  22    -0.127657783208E+04   -0.12182E+01   -0.12536E+01 10640   0.187E+02-0.150E+00
CGA:  23    -0.127905612210E+04   -0.24783E+01   -0.24505E+01 10640   0.909E+01 0.121E+01
CGA:  24    -0.127962016262E+04   -0.56404E+00   -0.68004E+00 10640   0.377E+01-0.720E+00
CGA:  25    -0.128028983674E+04   -0.66967E+00   -0.67083E+00 10640   0.559E+01-0.148E+00
CGA:  26    -0.128103154165E+04   -0.74170E+00   -0.74225E+00 10640   0.246E+01-0.431E+00
CGA:  27    -0.128146332561E+04   -0.43178E+00   -0.47424E+00 10640   0.405E+01-0.551E+00
CGA:  28    -0.128197137990E+04   -0.50805E+00   -0.58769E+00 10640   0.192E+01-0.136E+01
CGA:  29    -0.128227776793E+04   -0.30639E+00   -0.41317E+00 10640   0.215E+01-0.544E+00
CGA:  30    -0.128257674922E+04   -0.29898E+00   -0.32122E+00 10640   0.952E+00-0.365E+00
CGA:  31    -0.128280819593E+04   -0.23145E+00   -0.24341E+00 10640   0.756E+00-0.682E-01
CGA:  32    -0.128297081237E+04   -0.16262E+00   -0.15751E+00 10640   0.322E+00 0.658E-01
CGA:  33    -0.128305667817E+04   -0.85866E-01   -0.78335E-01 10640   0.192E+00 0.113E+00
CGA:  34    -0.128311037283E+04   -0.53695E-01   -0.49713E-01 10640   0.942E-01 0.125E+00
CGA:  35    -0.128313087635E+04   -0.20504E-01   -0.18596E-01 10640   0.587E-01 0.538E-01
CGA:  36    -0.128314315773E+04   -0.12281E-01   -0.11176E-01 10640   0.435E-01 0.414E-01
CGA:  37    -0.128314957026E+04   -0.64125E-02   -0.67530E-02 10640   0.339E-01 0.341E-01
CGA:  38    -0.128315476489E+04   -0.51946E-02   -0.53723E-02 10640   0.276E-01 0.289E-01
CGA:  39    -0.128315795275E+04   -0.31879E-02   -0.38255E-02 10640   0.233E-01 0.248E-01
CGA:  40    -0.128316047638E+04   -0.25236E-02   -0.31377E-02 10640   0.201E-01 0.215E-01
CGA:  41    -0.128316225279E+04   -0.17764E-02   -0.24904E-02 10640   0.177E-01 0.188E-01
CGA:  42    -0.128316362634E+04   -0.13736E-02   -0.20797E-02 10640   0.158E-01 0.167E-01
CGA:  43    -0.128316467254E+04   -0.10462E-02   -0.17458E-02 10640   0.142E-01 0.149E-01
CGA:  44    -0.128316548938E+04   -0.81684E-03   -0.14911E-02 10640   0.128E-01 0.135E-01
CGA:  45    -0.128316613221E+04   -0.64283E-03   -0.12868E-02 10640   0.117E-01 0.123E-01
CGA:  46    -0.128316664301E+04   -0.51080E-03   -0.11214E-02 10640   0.108E-01 0.112E-01
CGA:  47    -0.128316705183E+04   -0.40882E-03   -0.98540E-03 10640   0.993E-02 0.103E-01
CGA:  48    -0.128316738094E+04   -0.32912E-03   -0.87215E-03 10640   0.921E-02 0.956E-02
CGA:  49    -0.128316764712E+04   -0.26617E-03   -0.77685E-03 10640   0.858E-02 0.889E-02
CGA:  50    -0.128316786311E+04   -0.21599E-03   -0.69589E-03 10640   0.803E-02 0.830E-02
CGA:  51    -0.128316803877E+04   -0.17566E-03   -0.62656E-03 10640   0.754E-02 0.778E-02
CGA:  52    -0.128316818180E+04   -0.14303E-03   -0.56673E-03 10640   0.710E-02 0.731E-02
CGA:  53    -0.128316829827E+04   -0.11647E-03   -0.51477E-03 10640   0.671E-02 0.690E-02
CGA:  54    -0.128316839300E+04   -0.94732E-04   -0.46938E-03 10640   0.636E-02 0.653E-02
CGA:  55    -0.128316846986E+04   -0.76866E-04   -0.42950E-03 10640   0.604E-02 0.620E-02
CGA:  56    -0.128316853199E+04   -0.62131E-04   -0.39429E-03 10640   0.575E-02 0.590E-02
CGA:  57    -0.128316858193E+04   -0.49937E-04   -0.36307E-03 10640   0.549E-02 0.562E-02
CGA:  58    -0.128316862175E+04   -0.39823E-04   -0.33526E-03 10640   0.526E-02 0.537E-02
CGA:  59    -0.128316865317E+04   -0.31417E-04   -0.31040E-03 10640   0.504E-02 0.515E-02
CGA:  60    -0.128316867759E+04   -0.24421E-04   -0.28809E-03 10640   0.484E-02 0.494E-02
CGA:  61    -0.128316869619E+04   -0.18594E-04   -0.26799E-03 10640   0.466E-02 0.475E-02
CGA:  62    -0.128316870993E+04   -0.13741E-04   -0.24984E-03 10640   0.449E-02 0.457E-02
CGA:  63    -0.128316871962E+04   -0.96987E-05   -0.23340E-03 10640   0.434E-02 0.441E-02
CGA:  64    -0.128316872596E+04   -0.63379E-05   -0.21845E-03 10640   0.419E-02 0.426E-02
CGA:  65    -0.128316872951E+04   -0.35477E-05   -0.20483E-03 10640   0.406E-02 0.413E-02
CGA:  66    -0.128316873075E+04   -0.12382E-05   -0.19239E-03 10640   0.394E-02 0.400E-02
CGA:  67    -0.128316873008E+04    0.66832E-06   -0.18099E-03 10640   0.382E-02 0.388E-02
CGA:  68    -0.128316872785E+04    0.22332E-05   -0.17053E-03 10640   0.371E-02 0.377E-02
CGA:  69    -0.128316872434E+04    0.35100E-05   -0.16090E-03 10640   0.361E-02 0.366E-02
CGA:  70    -0.128316871979E+04    0.45439E-05   -0.15203E-03 10640   0.352E-02 0.357E-02
CGA:  71    -0.128316871442E+04    0.53711E-05   -0.14383E-03 10640   0.343E-02 0.348E-02
CGA:  72    -0.128316870840E+04    0.60242E-05   -0.13623E-03 10640   0.335E-02 0.339E-02
CGA:  73    -0.128316870187E+04    0.65310E-05   -0.12919E-03 10640   0.328E-02 0.331E-02
CGA:  74    -0.128316869495E+04    0.69137E-05   -0.12265E-03 10640   0.320E-02 0.324E-02
CGA:  75    -0.128316868776E+04    0.71913E-05   -0.11656E-03 10640   0.313E-02 0.317E-02
CGA:  76    -0.128316868038E+04    0.73808E-05   -0.11089E-03 10640   0.307E-02 0.310E-02
CGA:  77    -0.128316867288E+04    0.74972E-05   -0.10559E-03 10640   0.301E-02 0.304E-02
CGA:  78    -0.128316866533E+04    0.75533E-05   -0.10063E-03 10640   0.295E-02 0.298E-02
CGA:  79    -0.128316865777E+04    0.75562E-05   -0.95987E-04 10640   0.290E-02 0.292E-02
CGA:  80    -0.128316865026E+04    0.75192E-05   -0.91633E-04 10640   0.285E-02 0.287E-02
CGA:  81    -0.128316864281E+04    0.74454E-05   -0.87544E-04 10640   0.280E-02 0.282E-02
CGA:  82    -0.128316863547E+04    0.73432E-05   -0.83700E-04 10640   0.275E-02 0.277E-02
CGA:  83    -0.128316862825E+04    0.72179E-05   -0.80081E-04 10640   0.271E-02 0.273E-02
CGA:  84    -0.128316862118E+04    0.70731E-05   -0.76669E-04 10640   0.267E-02 0.269E-02
CGA:  85    -0.128316861426E+04    0.69160E-05   -0.73450E-04 10640   0.263E-02 0.264E-02
CGA:  86    -0.128316860751E+04    0.67462E-05   -0.70409E-04 10640   0.259E-02 0.261E-02
CGA:  87    -0.128316860095E+04    0.65685E-05   -0.67533E-04 10640   0.255E-02 0.257E-02
CGA:  88    -0.128316859456E+04    0.63854E-05   -0.64811E-04 10640   0.252E-02 0.253E-02
CGA:  89    -0.128316858836E+04    0.61973E-05   -0.62232E-04 10640   0.248E-02 0.250E-02
CGA:  90    -0.128316858235E+04    0.60081E-05   -0.59786E-04 10640   0.245E-02 0.247E-02
CGA:  91    -0.128316857654E+04    0.58178E-05   -0.57464E-04 10640   0.242E-02 0.244E-02
CGA:  92    -0.128316857091E+04    0.56277E-05   -0.55258E-04 10640   0.239E-02 0.241E-02
CGA:  93    -0.128316856547E+04    0.54389E-05   -0.53160E-04 10640   0.237E-02 0.238E-02
CGA:  94    -0.128316856022E+04    0.52538E-05   -0.51164E-04 10640   0.234E-02 0.235E-02
CGA:  95    -0.128316855515E+04    0.50701E-05   -0.49263E-04 10640   0.231E-02 0.233E-02
CGA:  96    -0.128316855026E+04    0.48901E-05   -0.47452E-04 10640   0.229E-02 0.230E-02
CGA:  97    -0.128316854554E+04    0.47149E-05   -0.45724E-04 10640   0.227E-02 0.228E-02
CGA:  98    -0.128316854100E+04    0.45429E-05   -0.44076E-04 10640   0.224E-02 0.226E-02
CGA:  99    -0.128316853662E+04    0.43756E-05   -0.42501E-04 10640   0.222E-02 0.223E-02
CGA: 100    -0.128316853241E+04    0.42125E-05   -0.40997E-04 10640   0.220E-02 0.221E-02
CGA: 101    -0.128316852836E+04    0.40543E-05   -0.39559E-04 10640   0.218E-02 0.219E-02
CGA: 102    -0.128316852445E+04    0.39014E-05   -0.38183E-04 10640   0.216E-02 0.217E-02
CGA: 103    -0.128316852070E+04    0.37535E-05   -0.36866E-04 10640   0.215E-02 0.216E-02
CGA: 104    -0.128316851709E+04    0.36093E-05   -0.35605E-04 10640   0.213E-02 0.214E-02
CGA: 105    -0.128316851362E+04    0.34716E-05   -0.34397E-04 10640   0.211E-02 0.212E-02
CGA: 106    -0.128316851028E+04    0.33373E-05   -0.33238E-04 10640   0.210E-02 0.210E-02
CGA: 107    -0.128316850707E+04    0.32086E-05   -0.32127E-04 10640   0.208E-02 0.209E-02
CGA: 108    -0.128316850399E+04    0.30843E-05   -0.31060E-04 10640   0.206E-02 0.207E-02
CGA: 109    -0.128316850103E+04    0.29644E-05   -0.30036E-04 10640   0.205E-02 0.206E-02
CGA: 110    -0.128316849818E+04    0.28493E-05   -0.29053E-04 10640   0.204E-02 0.204E-02
CGA: 111    -0.128316849544E+04    0.27381E-05   -0.28108E-04 10640   0.202E-02 0.203E-02
CGA: 112    -0.128316849281E+04    0.26320E-05   -0.27200E-04 10640   0.201E-02 0.202E-02
CGA: 113    -0.128316849028E+04    0.25293E-05   -0.26326E-04 10640   0.200E-02 0.200E-02
CGA: 114    -0.128316848785E+04    0.24305E-05   -0.25486E-04 10640   0.198E-02 0.199E-02
CGA: 115    -0.128316848551E+04    0.23358E-05   -0.24677E-04 10640   0.197E-02 0.198E-02
CGA: 116    -0.128316848327E+04    0.22447E-05   -0.23899E-04 10640   0.196E-02 0.197E-02
CGA: 117    -0.128316848111E+04    0.21578E-05   -0.23149E-04 10640   0.195E-02 0.196E-02
CGA: 118    -0.128316847903E+04    0.20739E-05   -0.22427E-04 10640   0.194E-02 0.195E-02
CGA: 119    -0.128316847704E+04    0.19932E-05   -0.21731E-04 10640   0.193E-02 0.193E-02
CGA: 120    -0.128316847513E+04    0.19156E-05   -0.21060E-04 10640   0.192E-02 0.192E-02
CGA: 121    -0.128316847328E+04    0.18419E-05   -0.20412E-04 10640   0.191E-02 0.192E-02
CGA: 122    -0.128316847151E+04    0.17709E-05   -0.19788E-04 10640   0.190E-02 0.191E-02
CGA: 123    -0.128316846981E+04    0.17023E-05   -0.19186E-04 10640   0.189E-02 0.190E-02
CGA: 124    -0.128316846817E+04    0.16369E-05   -0.18605E-04 10640   0.188E-02 0.189E-02
CGA: 125    -0.128316846660E+04    0.15740E-05   -0.18044E-04 10640   0.188E-02 0.188E-02
CGA: 126    -0.128316846509E+04    0.15141E-05   -0.17502E-04 10640   0.187E-02 0.187E-02
CGA: 127    -0.128316846363E+04    0.14560E-05   -0.16979E-04 10640   0.186E-02 0.186E-02
CGA: 128    -0.128316846223E+04    0.14005E-05   -0.16473E-04 10640   0.185E-02 0.186E-02
CGA: 129    -0.128316846088E+04    0.13474E-05   -0.15985E-04 10640   0.184E-02 0.185E-02
CGA: 130    -0.128316845959E+04    0.12959E-05   -0.15512E-04 10640   0.184E-02 0.184E-02
CGA: 131    -0.128316845834E+04    0.12478E-05   -0.15056E-04 10640   0.183E-02 0.183E-02
CGA: 132    -0.128316845714E+04    0.12003E-05   -0.14614E-04 10640   0.182E-02 0.183E-02
CGA: 133    -0.128316845598E+04    0.11556E-05   -0.14187E-04 10640   0.182E-02 0.182E-02
CGA: 134    -0.128316845487E+04    0.11124E-05   -0.13774E-04 10640   0.181E-02 0.181E-02
CGA: 135    -0.128316845380E+04    0.10708E-05   -0.13375E-04 10640   0.180E-02 0.181E-02
CGA: 136    -0.128316845277E+04    0.10313E-05   -0.12988E-04 10640   0.180E-02 0.180E-02
CGA: 137    -0.128316845177E+04    0.99294E-06   -0.12613E-04 10640   0.179E-02 0.180E-02
CGA: 138    -0.128316845082E+04    0.95644E-06   -0.12251E-04 10640   0.179E-02 0.179E-02
CGA: 139    -0.128316844990E+04    0.92043E-06   -0.11900E-04 10640   0.178E-02 0.178E-02
CGA: 140    -0.128316844901E+04    0.88762E-06   -0.11560E-04 10640   0.178E-02 0.178E-02
CGA: 141    -0.128316844815E+04    0.85540E-06   -0.11231E-04 10640   0.177E-02 0.177E-02
CGA: 142    -0.128316844733E+04    0.82404E-06   -0.10912E-04 10640   0.177E-02 0.177E-02
CGA: 143    -0.128316844654E+04    0.79405E-06   -0.10602E-04 10640   0.176E-02 0.176E-02
CGA: 144    -0.128316844577E+04    0.76586E-06   -0.10303E-04 10640   0.176E-02 0.176E-02
CGA: 145    -0.128316844503E+04    0.73815E-06   -0.10013E-04 10640   0.175E-02 0.176E-02
   1 F= -.12831684E+04 E0= -.12831684E+04  d E =-.128317E+04  mag=    47.0000
       N       E                     dE             d eps       ncg     rms          ort
SDA:   1    -0.128316589648E+04    0.25493E-02    0.00000E+00 10640   0.155E-01 0.000E+00
CGA:   2    -0.128316774203E+04   -0.18456E-02   -0.19884E-02 10640   0.823E-02 0.108E-01
CGA:   3    -0.128316884807E+04   -0.11060E-02   -0.69260E-03 10640   0.536E-02 0.649E-02
CGA:   4    -0.128316938917E+04   -0.54109E-03   -0.34756E-03 10640   0.419E-02 0.470E-02
CGA:   5    -0.128316974809E+04   -0.35892E-03   -0.23978E-03 10640   0.345E-02 0.378E-02
CGA:   6    -0.128317000533E+04   -0.25724E-03   -0.17917E-03 10640   0.293E-02 0.316E-02
CGA:   7    -0.128317019814E+04   -0.19281E-03   -0.14019E-03 10640   0.255E-02 0.272E-02
CGA:   8    -0.128317034734E+04   -0.14921E-03   -0.11332E-03 10640   0.225E-02 0.238E-02
CGA:   9    -0.128317046576E+04   -0.11841E-03   -0.93951E-04 10640   0.202E-02 0.213E-02
CGA:  10    -0.128317056175E+04   -0.95987E-04   -0.79533E-04 10640   0.183E-02 0.192E-02
CGA:  11    -0.128317064099E+04   -0.79246E-04   -0.68519E-04 10640   0.168E-02 0.175E-02
CGA:  12    -0.128317070749E+04   -0.66498E-04   -0.59928E-04 10640   0.156E-02 0.162E-02
CGA:  13    -0.128317076411E+04   -0.56618E-04   -0.53103E-04 10640   0.145E-02 0.150E-02
CGA:  14    -0.128317081296E+04   -0.48852E-04   -0.47599E-04 10640   0.136E-02 0.141E-02
CGA:  15    -0.128317085563E+04   -0.42668E-04   -0.43098E-04 10640   0.129E-02 0.133E-02
CGA:  16    -0.128317089331E+04   -0.37684E-04   -0.39373E-04 10640   0.122E-02 0.126E-02
CGA:  17    -0.128317092694E+04   -0.33630E-04   -0.36257E-04 10640   0.117E-02 0.119E-02
CGA:  18    -0.128317095724E+04   -0.30299E-04   -0.33624E-04 10640   0.112E-02 0.114E-02
CGA:  19    -0.128317098478E+04   -0.27541E-04   -0.31379E-04 10640   0.107E-02 0.110E-02
CGA:  20    -0.128317101002E+04   -0.25240E-04   -0.29451E-04 10640   0.104E-02 0.106E-02
CGA:  21    -0.128317103333E+04   -0.23309E-04   -0.27781E-04 10640   0.100E-02 0.102E-02
CGA:  22    -0.128317105501E+04   -0.21677E-04   -0.26326E-04 10640   0.972E-03 0.987E-03
CGA:  23    -0.128317107530E+04   -0.20290E-04   -0.25049E-04 10640   0.945E-03 0.958E-03
CGA:  24    -0.128317109441E+04   -0.19105E-04   -0.23923E-04 10640   0.920E-03 0.932E-03
CGA:  25    -0.128317111250E+04   -0.18090E-04   -0.22923E-04 10640   0.898E-03 0.909E-03
CGA:  26    -0.128317112971E+04   -0.17215E-04   -0.22033E-04 10640   0.878E-03 0.888E-03
CGA:  27    -0.128317114617E+04   -0.16457E-04   -0.21234E-04 10640   0.859E-03 0.868E-03
CGA:  28    -0.128317116196E+04   -0.15798E-04   -0.20515E-04 10640   0.842E-03 0.851E-03
CGA:  29    -0.128317117719E+04   -0.15227E-04   -0.19866E-04 10640   0.827E-03 0.835E-03
CGA:  30    -0.128317119192E+04   -0.14726E-04   -0.19276E-04 10640   0.812E-03 0.820E-03
CGA:  31    -0.128317120621E+04   -0.14288E-04   -0.18740E-04 10640   0.799E-03 0.806E-03
CGA:  32    -0.128317122011E+04   -0.13903E-04   -0.18249E-04 10640   0.787E-03 0.793E-03
CGA:  33    -0.128317123367E+04   -0.13563E-04   -0.17799E-04 10640   0.776E-03 0.781E-03
CGA:  34    -0.128317124694E+04   -0.13265E-04   -0.17386E-04 10640   0.765E-03 0.770E-03
CGA:  35    -0.128317125994E+04   -0.13000E-04   -0.17004E-04 10640   0.755E-03 0.760E-03
CGA:  36    -0.128317127270E+04   -0.12766E-04   -0.16651E-04 10640   0.745E-03 0.750E-03
CGA:  37    -0.128317128526E+04   -0.12559E-04   -0.16324E-04 10640   0.737E-03 0.741E-03
CGA:  38    -0.128317129764E+04   -0.12375E-04   -0.16020E-04 10640   0.728E-03 0.733E-03
CGA:  39    -0.128317130985E+04   -0.12211E-04   -0.15737E-04 10640   0.720E-03 0.725E-03
CGA:  40    -0.128317132191E+04   -0.12065E-04   -0.15473E-04 10640   0.713E-03 0.717E-03
CGA:  41    -0.128317133385E+04   -0.11936E-04   -0.15226E-04 10640   0.706E-03 0.710E-03
CGA:  42    -0.128317134567E+04   -0.11820E-04   -0.14994E-04 10640   0.699E-03 0.703E-03
CGA:  43    -0.128317135739E+04   -0.11717E-04   -0.14777E-04 10640   0.693E-03 0.696E-03
CGA:  44    -0.128317136901E+04   -0.11625E-04   -0.14572E-04 10640   0.686E-03 0.690E-03
CGA:  45    -0.128317138056E+04   -0.11544E-04   -0.14381E-04 10640   0.680E-03 0.684E-03
CGA:  46    -0.128317139203E+04   -0.11472E-04   -0.14200E-04 10640   0.675E-03 0.678E-03
CGA:  47    -0.128317140344E+04   -0.11409E-04   -0.14029E-04 10640   0.669E-03 0.672E-03
CGA:  48    -0.128317141479E+04   -0.11351E-04   -0.13868E-04 10640   0.664E-03 0.667E-03
CGA:  49    -0.128317142609E+04   -0.11302E-04   -0.13716E-04 10640   0.659E-03 0.661E-03
CGA:  50    -0.128317143735E+04   -0.11258E-04   -0.13572E-04 10640   0.654E-03 0.656E-03
CGA:  51    -0.128317144857E+04   -0.11220E-04   -0.13436E-04 10640   0.649E-03 0.651E-03
CGA:  52    -0.128317145976E+04   -0.11187E-04   -0.13306E-04 10640   0.644E-03 0.647E-03
CGA:  53    -0.128317147091E+04   -0.11159E-04   -0.13184E-04 10640   0.640E-03 0.642E-03
CGA:  54    -0.128317148205E+04   -0.11135E-04   -0.13068E-04 10640   0.635E-03 0.638E-03
CGA:  55    -0.128317149316E+04   -0.11114E-04   -0.12958E-04 10640   0.631E-03 0.633E-03
CGA:  56    -0.128317150426E+04   -0.11099E-04   -0.12854E-04 10640   0.627E-03 0.629E-03
CGA:  57    -0.128317151535E+04   -0.11085E-04   -0.12755E-04 10640   0.623E-03 0.625E-03
CGA:  58    -0.128317152642E+04   -0.11076E-04   -0.12662E-04 10640   0.619E-03 0.621E-03
CGA:  59    -0.128317153749E+04   -0.11070E-04   -0.12573E-04 10640   0.615E-03 0.617E-03
CGA:  60    -0.128317154856E+04   -0.11066E-04   -0.12490E-04 10640   0.611E-03 0.613E-03
CGA:  61    -0.128317155963E+04   -0.11066E-04   -0.12410E-04 10640   0.607E-03 0.609E-03
CGA:  62    -0.128317157069E+04   -0.11067E-04   -0.12335E-04 10640   0.603E-03 0.605E-03
CGA:  63    -0.128317158177E+04   -0.11073E-04   -0.12264E-04 10640   0.600E-03 0.602E-03
CGA:  64    -0.128317159284E+04   -0.11080E-04   -0.12197E-04 10640   0.596E-03 0.598E-03
CGA:  65    -0.128317160393E+04   -0.11088E-04   -0.12134E-04 10640   0.592E-03 0.594E-03
CGA:  66    -0.128317161503E+04   -0.11101E-04   -0.12075E-04 10640   0.589E-03 0.591E-03
CGA:  67    -0.128317162615E+04   -0.11113E-04   -0.12018E-04 10640   0.586E-03 0.587E-03
CGA:  68    -0.128317163728E+04   -0.11130E-04   -0.11967E-04 10640   0.582E-03 0.584E-03
CGA:  69    -0.128317164843E+04   -0.11150E-04   -0.11918E-04 10640   0.579E-03 0.581E-03
CGA:  70    -0.128317165959E+04   -0.11168E-04   -0.11872E-04 10640   0.575E-03 0.577E-03
CGA:  71    -0.128317167079E+04   -0.11191E-04   -0.11830E-04 10640   0.572E-03 0.574E-03
CGA:  72    -0.128317168200E+04   -0.11216E-04   -0.11791E-04 10640   0.569E-03 0.571E-03
CGA:  73    -0.128317169324E+04   -0.11242E-04   -0.11755E-04 10640   0.566E-03 0.567E-03
CGA:  74    -0.128317170451E+04   -0.11271E-04   -0.11722E-04 10640   0.563E-03 0.564E-03
CGA:  75    -0.128317171582E+04   -0.11304E-04   -0.11693E-04 10640   0.559E-03 0.561E-03
CGA:  76    -0.128317172715E+04   -0.11336E-04   -0.11666E-04 10640   0.556E-03 0.558E-03
CGA:  77    -0.128317173853E+04   -0.11373E-04   -0.11642E-04 10640   0.553E-03 0.555E-03
CGA:  78    -0.128317174994E+04   -0.11410E-04   -0.11621E-04 10640   0.550E-03 0.552E-03
CGA:  79    -0.128317176139E+04   -0.11450E-04   -0.11603E-04 10640   0.547E-03 0.549E-03
CGA:  80    -0.128317177288E+04   -0.11492E-04   -0.11588E-04 10640   0.544E-03 0.546E-03
CGA:  81    -0.128317178442E+04   -0.11537E-04   -0.11576E-04 10640   0.541E-03 0.543E-03
CGA:  82    -0.128317179600E+04   -0.11585E-04   -0.11566E-04 10640   0.538E-03 0.540E-03
CGA:  83    -0.128317180763E+04   -0.11634E-04   -0.11560E-04 10640   0.535E-03 0.537E-03
CGA:  84    -0.128317181932E+04   -0.11685E-04   -0.11555E-04 10640   0.532E-03 0.534E-03
CGA:  85    -0.128317183106E+04   -0.11741E-04   -0.11555E-04 10640   0.529E-03 0.531E-03
CGA:  86    -0.128317184286E+04   -0.11798E-04   -0.11557E-04 10640   0.526E-03 0.528E-03
CGA:  87    -0.128317185471E+04   -0.11856E-04   -0.11560E-04 10640   0.523E-03 0.525E-03
CGA:  88    -0.128317186663E+04   -0.11917E-04   -0.11567E-04 10640   0.520E-03 0.522E-03
CGA:  89    -0.128317187861E+04   -0.11980E-04   -0.11577E-04 10640   0.518E-03 0.519E-03
CGA:  90    -0.128317189066E+04   -0.12049E-04   -0.11590E-04 10640   0.515E-03 0.516E-03
CGA:  91    -0.128317190278E+04   -0.12120E-04   -0.11606E-04 10640   0.512E-03 0.513E-03
CGA:  92    -0.128317191498E+04   -0.12196E-04   -0.11626E-04 10640   0.509E-03 0.510E-03
CGA:  93    -0.128317192725E+04   -0.12277E-04   -0.11650E-04 10640   0.506E-03 0.507E-03
CGA:  94    -0.128317193961E+04   -0.12359E-04   -0.11675E-04 10640   0.503E-03 0.505E-03
CGA:  95    -0.128317195205E+04   -0.12442E-04   -0.11703E-04 10640   0.500E-03 0.502E-03
CGA:  96    -0.128317196459E+04   -0.12533E-04   -0.11736E-04 10640   0.497E-03 0.499E-03
CGA:  97    -0.128317197721E+04   -0.12627E-04   -0.11771E-04 10640   0.495E-03 0.496E-03
CGA:  98    -0.128317198994E+04   -0.12724E-04   -0.11810E-04 10640   0.492E-03 0.493E-03
CGA:  99    -0.128317200277E+04   -0.12829E-04   -0.11854E-04 10640   0.489E-03 0.490E-03
CGA: 100    -0.128317201570E+04   -0.12935E-04   -0.11900E-04 10640   0.486E-03 0.487E-03
CGA: 101    -0.128317202875E+04   -0.13047E-04   -0.11950E-04 10640   0.483E-03 0.485E-03
CGA: 102    -0.128317204191E+04   -0.13162E-04   -0.12003E-04 10640   0.480E-03 0.482E-03
CGA: 103    -0.128317205519E+04   -0.13282E-04   -0.12060E-04 10640   0.477E-03 0.479E-03
CGA: 104    -0.128317206860E+04   -0.13408E-04   -0.12121E-04 10640   0.475E-03 0.476E-03
CGA: 105    -0.128317208214E+04   -0.13537E-04   -0.12185E-04 10640   0.472E-03 0.473E-03
CGA: 106    -0.128317209581E+04   -0.13673E-04   -0.12254E-04 10640   0.469E-03 0.470E-03
CGA: 107    -0.128317210962E+04   -0.13814E-04   -0.12328E-04 10640   0.466E-03 0.467E-03
CGA: 108    -0.128317212359E+04   -0.13962E-04   -0.12405E-04 10640   0.463E-03 0.465E-03
CGA: 109    -0.128317213770E+04   -0.14113E-04   -0.12486E-04 10640   0.460E-03 0.462E-03
CGA: 110    -0.128317215197E+04   -0.14274E-04   -0.12573E-04 10640   0.457E-03 0.459E-03
CGA: 111    -0.128317216641E+04   -0.14440E-04   -0.12664E-04 10640   0.454E-03 0.456E-03
CGA: 112    -0.128317218103E+04   -0.14614E-04   -0.12760E-04 10640   0.451E-03 0.453E-03
CGA: 113    -0.128317219582E+04   -0.14794E-04   -0.12861E-04 10640   0.448E-03 0.450E-03
CGA: 114    -0.128317221080E+04   -0.14981E-04   -0.12967E-04 10640   0.445E-03 0.447E-03
CGA: 115    -0.128317222598E+04   -0.15178E-04   -0.13080E-04 10640   0.442E-03 0.444E-03
CGA: 116    -0.128317224136E+04   -0.15383E-04   -0.13198E-04 10640   0.439E-03 0.441E-03
CGA: 117    -0.128317225696E+04   -0.15597E-04   -0.13322E-04 10640   0.436E-03 0.438E-03
CGA: 118    -0.128317227278E+04   -0.15817E-04   -0.13450E-04 10640   0.433E-03 0.435E-03
CGA: 119    -0.128317228883E+04   -0.16050E-04   -0.13587E-04 10640   0.430E-03 0.432E-03
CGA: 120    -0.128317230512E+04   -0.16293E-04   -0.13731E-04 10640   0.427E-03 0.429E-03
CGA: 121    -0.128317232167E+04   -0.16546E-04   -0.13881E-04 10640   0.424E-03 0.426E-03
CGA: 122    -0.128317233848E+04   -0.16810E-04   -0.14039E-04 10640   0.421E-03 0.422E-03
CGA: 123    -0.128317235556E+04   -0.17087E-04   -0.14204E-04 10640   0.418E-03 0.419E-03
CGA: 124    -0.128317237294E+04   -0.17377E-04   -0.14378E-04 10640   0.414E-03 0.416E-03
CGA: 125    -0.128317239062E+04   -0.17680E-04   -0.14561E-04 10640   0.411E-03 0.413E-03
CGA: 126    -0.128317240862E+04   -0.17995E-04   -0.14751E-04 10640   0.408E-03 0.409E-03
CGA: 127    -0.128317242694E+04   -0.18328E-04   -0.14953E-04 10640   0.405E-03 0.406E-03
CGA: 128    -0.128317244562E+04   -0.18676E-04   -0.15164E-04 10640   0.401E-03 0.403E-03
CGA: 129    -0.128317246466E+04   -0.19039E-04   -0.15385E-04 10640   0.398E-03 0.399E-03
CGA: 130    -0.128317248408E+04   -0.19421E-04   -0.15618E-04 10640   0.394E-03 0.396E-03
CGA: 131    -0.128317250390E+04   -0.19824E-04   -0.15863E-04 10640   0.391E-03 0.393E-03
CGA: 132    -0.128317252415E+04   -0.20246E-04   -0.16121E-04 10640   0.387E-03 0.389E-03
CGA: 133    -0.128317254484E+04   -0.20691E-04   -0.16392E-04 10640   0.384E-03 0.385E-03
CGA: 134    -0.128317256600E+04   -0.21157E-04   -0.16676E-04 10640   0.380E-03 0.382E-03
CGA: 135    -0.128317258765E+04   -0.21648E-04   -0.16976E-04 10640   0.376E-03 0.378E-03
CGA: 136    -0.128317260981E+04   -0.22166E-04   -0.17291E-04 10640   0.373E-03 0.374E-03
CGA: 137    -0.128317263252E+04   -0.22712E-04   -0.17624E-04 10640   0.369E-03 0.371E-03
CGA: 138    -0.128317265581E+04   -0.23289E-04   -0.17976E-04 10640   0.365E-03 0.367E-03
CGA: 139    -0.128317267971E+04   -0.23901E-04   -0.18349E-04 10640   0.361E-03 0.363E-03
CGA: 140    -0.128317270426E+04   -0.24549E-04   -0.18742E-04 10640   0.357E-03 0.359E-03
CGA: 141    -0.128317272950E+04   -0.25232E-04   -0.19157E-04 10640   0.353E-03 0.355E-03
CGA: 142    -0.128317275545E+04   -0.25958E-04   -0.19596E-04 10640   0.349E-03 0.351E-03
CGA: 143    -0.128317278218E+04   -0.26728E-04   -0.20062E-04 10640   0.344E-03 0.346E-03
CGA: 144    -0.128317280973E+04   -0.27547E-04   -0.20557E-04 10640   0.340E-03 0.342E-03
CGA: 145    -0.128317283815E+04   -0.28419E-04   -0.21082E-04 10640   0.335E-03 0.338E-03
CGA: 146    -0.128317286749E+04   -0.29346E-04   -0.21638E-04 10640   0.331E-03 0.333E-03
CGA: 147    -0.128317289783E+04   -0.30338E-04   -0.22233E-04 10640   0.326E-03 0.328E-03
CGA: 148    -0.128317292923E+04   -0.31399E-04   -0.22866E-04 10640   0.321E-03 0.324E-03
CGA: 149    -0.128317296176E+04   -0.32533E-04   -0.23542E-04 10640   0.316E-03 0.319E-03
CGA: 150    -0.128317299552E+04   -0.33753E-04   -0.24266E-04 10640   0.311E-03 0.314E-03
CGA: 151    -0.128317303058E+04   -0.35061E-04   -0.25040E-04 10640   0.306E-03 0.309E-03
CGA: 152    -0.128317306705E+04   -0.36472E-04   -0.25872E-04 10640   0.301E-03 0.303E-03
CGA: 153    -0.128317310504E+04   -0.37990E-04   -0.26764E-04 10640   0.295E-03 0.298E-03
CGA: 154    -0.128317314467E+04   -0.39632E-04   -0.27724E-04 10640   0.289E-03 0.292E-03
CGA: 155    -0.128317318608E+04   -0.41412E-04   -0.28762E-04 10640   0.283E-03 0.286E-03
CGA: 156    -0.128317322943E+04   -0.43347E-04   -0.29885E-04 10640   0.277E-03 0.280E-03
CGA: 157    -0.128317327488E+04   -0.45448E-04   -0.31099E-04 10640   0.271E-03 0.274E-03
CGA: 158    -0.128317332262E+04   -0.47739E-04   -0.32417E-04 10640   0.264E-03 0.267E-03
CGA: 159    -0.128317337286E+04   -0.50246E-04   -0.33852E-04 10640   0.257E-03 0.261E-03
CGA: 160    -0.128317342585E+04   -0.52989E-04   -0.35415E-04 10640   0.250E-03 0.253E-03
CGA: 161    -0.128317348185E+04   -0.56001E-04   -0.37123E-04 10640   0.242E-03 0.246E-03
CGA: 162    -0.128317354117E+04   -0.59313E-04   -0.38992E-04 10640   0.235E-03 0.238E-03
CGA: 163    -0.128317360413E+04   -0.62964E-04   -0.41042E-04 10640   0.226E-03 0.230E-03
CGA: 164    -0.128317367114E+04   -0.67009E-04   -0.43303E-04 10640   0.218E-03 0.222E-03
CGA: 165    -0.128317374261E+04   -0.71469E-04   -0.45783E-04 10640   0.209E-03 0.213E-03
CGA: 166    -0.128317381901E+04   -0.76403E-04   -0.48513E-04 10640   0.199E-03 0.204E-03
CGA: 167    -0.128317390086E+04   -0.81844E-04   -0.51510E-04 10640   0.189E-03 0.194E-03
CGA: 168    -0.128317398868E+04   -0.87826E-04   -0.54790E-04 10640   0.178E-03 0.183E-03
CGA: 169    -0.128317408302E+04   -0.94335E-04   -0.58345E-04 10640   0.167E-03 0.172E-03
CGA: 170    -0.128317418437E+04   -0.10135E-03   -0.62165E-04 10640   0.155E-03 0.161E-03
CGA: 171    -0.128317429304E+04   -0.10867E-03   -0.66136E-04 10640   0.143E-03 0.149E-03
CGA: 172    -0.128317440902E+04   -0.11598E-03   -0.70099E-04 10640   0.130E-03 0.136E-03
CGA: 173    -0.128317453160E+04   -0.12258E-03   -0.73689E-04 10640   0.117E-03 0.123E-03
CGA: 174    -0.128317465131E+04   -0.11971E-03   -0.73590E-04 10640   0.145E-03 0.105E-03
CGA: 175    -0.128317467920E+04   -0.27896E-04   -0.28369E-04 10640   0.229E-03 0.251E-04
CGA: 176    -0.128317497009E+04   -0.29088E-03   -0.18460E-03 10640   0.102E-03 0.220E-03
CGA: 177    -0.128317499265E+04   -0.22566E-04   -0.22836E-04 10640   0.143E-03 0.183E-04
CGA: 178    -0.128317520117E+04   -0.20852E-03   -0.13181E-03 10640   0.895E-04 0.137E-03
CGA: 179    -0.128317521981E+04   -0.18632E-04   -0.19245E-04 10640   0.779E-04 0.121E-04
CGA: 180    -0.128317530614E+04   -0.86338E-04   -0.59026E-04 10640   0.113E-03 0.657E-04
CGA: 181    -0.128317533069E+04   -0.24541E-04   -0.25218E-04 10640   0.472E-04 0.110E-04
CGA: 182    -0.128317538476E+04   -0.54072E-04   -0.37191E-04 10640   0.787E-04 0.379E-04
CGA: 183    -0.128317540355E+04   -0.18797E-04   -0.19727E-04 10640   0.347E-04 0.181E-04
CGA: 184    -0.128317547445E+04   -0.70901E-04   -0.52712E-04 10640   0.137E-03 0.189E-04
CGA: 185    -0.128317548496E+04   -0.10509E-04   -0.20901E-04 10640   0.379E-04 0.535E-04
CGA: 186    -0.128317550331E+04   -0.18345E-04   -0.18462E-04 10640   0.534E-04-0.808E-05
CGA: 187    -0.128317551920E+04   -0.15893E-04   -0.15521E-04 10640   0.127E-03 0.109E-04
CGA: 188    -0.128317558817E+04   -0.68972E-04   -0.62098E-04 10640   0.140E-03 0.968E-04
CGA: 189    -0.128317562954E+04   -0.41368E-04   -0.39833E-04 10640   0.102E-03-0.270E-04
CGA: 190    -0.128317563262E+04   -0.30763E-05   -0.82465E-05 10640   0.253E-04 0.218E-04
   2 F= -.12831756E+04 E0= -.12831756E+04  d E =-.718759E-02  mag=    47.0000
       N       E                     dE             d eps       ncg     rms          ort
SDA:   1    -0.128316349733E+04    0.12132E-01    0.00000E+00 10640   0.494E-01 0.000E+00
CGA:   2    -0.128317483843E+04   -0.11341E-01   -0.11294E-01 10640   0.216E-01-0.539E-03
CGA:   3    -0.128317957784E+04   -0.47394E-02   -0.48004E-02 10640   0.431E-02 0.719E-03
CGA:   4    -0.128318028768E+04   -0.70983E-03   -0.72762E-03 10640   0.800E-03 0.126E-03
CGA:   5    -0.128318038704E+04   -0.99361E-04   -0.12540E-03 10640   0.189E-03 0.179E-03
CGA:   6    -0.128318041105E+04   -0.24015E-04   -0.34694E-04 10640   0.633E-04 0.758E-04
CGA:   7    -0.128318041892E+04   -0.78671E-05   -0.13426E-04 10640   0.291E-04 0.419E-04
   3 F= -.12831804E+04 E0= -.12831804E+04  d E =-.478630E-02  mag=    47.0000
       N       E                     dE             d eps       ncg     rms          ort
SDA:   1    -0.123074595957E+04    0.52434E+02    0.00000E+00 10640   0.159E+03 0.000E+00
CGA:   2    -0.126404832955E+04   -0.33302E+02   -0.33675E+02 10640   0.669E+02 0.177E+01
CGA:   3    -0.127847422334E+04   -0.14426E+02   -0.13886E+02 10640   0.220E+02-0.396E+00
CGA:   4    -0.128165633014E+04   -0.31821E+01   -0.32257E+01 10640   0.418E+01-0.468E-01
CGA:   5    -0.128234605976E+04   -0.68973E+00   -0.68621E+00 10640   0.116E+01 0.250E-01
CGA:   6    -0.128256531514E+04   -0.21926E+00   -0.21948E+00 10640   0.364E+00 0.724E-02
CGA:   7    -0.128264771305E+04   -0.82398E-01   -0.82261E-01 10640   0.166E+00-0.543E-02
CGA:   8    -0.128268157069E+04   -0.33858E-01   -0.33732E-01 10640   0.798E-01-0.268E-02
CGA:   9    -0.128270085997E+04   -0.19289E-01   -0.19291E-01 10640   0.502E-01 0.160E-02
CGA:  10    -0.128271354067E+04   -0.12681E-01   -0.12683E-01 10640   0.327E-01-0.177E-02
CGA:  11    -0.128272059821E+04   -0.70575E-02   -0.70943E-02 10640   0.158E-01 0.177E-02
CGA:  12    -0.128272574309E+04   -0.51449E-02   -0.51081E-02 10640   0.126E-01 0.618E-03
CGA:  13    -0.128272913357E+04   -0.33905E-02   -0.33872E-02 10640   0.113E-01 0.266E-03
CGA:  14    -0.128273247859E+04   -0.33450E-02   -0.32826E-02 10640   0.773E-02 0.167E-02
CGA:  15    -0.128273497166E+04   -0.24931E-02   -0.24443E-02 10640   0.520E-02 0.191E-02
CGA:  16    -0.128273709702E+04   -0.21254E-02   -0.20869E-02 10640   0.460E-02 0.506E-03
CGA:  17    -0.128273797891E+04   -0.88189E-03   -0.95049E-03 10640   0.209E-02 0.986E-03
CGA:  18    -0.128273875280E+04   -0.77389E-03   -0.74824E-03 10640   0.143E-02 0.581E-03
CGA:  19    -0.128273939751E+04   -0.64471E-03   -0.95199E-03 10640   0.601E-02-0.119E-02
CGA:  20    -0.128273987281E+04   -0.47530E-03   -0.59001E-03 10640   0.850E-03 0.698E-03
CGA:  21    -0.128274013023E+04   -0.25742E-03   -0.25556E-03 10640   0.769E-03 0.179E-03
CGA:  22    -0.128273969587E+04    0.43436E-03   -0.69863E-03 10640   0.109E-01-0.232E-02
CGA:  23    -0.128274063952E+04   -0.94365E-03   -0.11252E-02 10640   0.133E-02 0.109E-02
CGA:  24    -0.128274102188E+04   -0.38237E-03   -0.38501E-03 10640   0.546E-03 0.228E-03
CGA:  25    -0.128274098391E+04    0.37979E-04   -0.34039E-03 10640   0.539E-02-0.147E-02
CGA:  26    -0.128274131180E+04   -0.32789E-03   -0.49190E-03 10640   0.439E-03 0.877E-03
CGA:  27    -0.128274133405E+04   -0.22248E-04   -0.59705E-04 10640   0.261E-03 0.234E-03
CGA:  28    -0.128274148509E+04   -0.15104E-03    0.49082E-03 10640   0.247E-03 0.329E-04
CGA:  29    -0.128274152557E+04   -0.40478E-04   -0.50852E-04 10640   0.895E-04 0.119E-03
CGA:  30    -0.128274153616E+04   -0.10595E-04   -0.21131E-04 10640   0.999E-04 0.992E-04
CGA:  31    -0.128274161747E+04   -0.81305E-04    0.23009E-04 10640   0.115E-03 0.410E-04
CGA:  32    -0.128274175648E+04   -0.13902E-03   -0.11408E-03 10640   0.210E-03 0.527E-04
CGA:  33    -0.128274154674E+04    0.20974E-03   -0.17520E-03 10640   0.961E-02-0.571E-03
CGA:  34    -0.128274239546E+04   -0.84872E-03   -0.91387E-03 10640   0.162E-03 0.233E-03
CGA:  35    -0.128274244585E+04   -0.50385E-04   -0.54494E-04 10640   0.769E-04 0.250E-04
CGA:  36    -0.128274243879E+04    0.70531E-05   -0.81557E-05 10640   0.174E-04 0.387E-04
   4 F= -.12827424E+04 E0= -.12827424E+04  d E =0.437980E+00  mag=    47.0000
       N       E                     dE             d eps       ncg     rms          ort
SDA:   1    -0.126045056050E+04    0.22292E+02    0.00000E+00 10640   0.709E+02 0.000E+00
CGA:   2    -0.127487140680E+04   -0.14421E+02   -0.14473E+02 10640   0.274E+02 0.162E-01
CGA:   3    -0.128171686252E+04   -0.68455E+01   -0.68469E+01 10640   0.678E+01 0.192E-01
CGA:   4    -0.128278748735E+04   -0.10706E+01   -0.10762E+01 10640   0.111E+01-0.356E-01
CGA:   5    -0.128300850346E+04   -0.22102E+00   -0.22137E+00 10640   0.292E+00 0.547E-02
CGA:   6    -0.128306713154E+04   -0.58628E-01   -0.58232E-01 10640   0.118E+00-0.420E-02
CGA:   7    -0.128308769338E+04   -0.20562E-01   -0.20478E-01 10640   0.362E-01 0.497E-03
CGA:   8    -0.128309591818E+04   -0.82248E-02   -0.80087E-02 10640   0.204E-01-0.143E-02
CGA:   9    -0.128310099698E+04   -0.50788E-02   -0.47486E-02 10640   0.147E-01-0.251E-02
CGA:  10    -0.128310465174E+04   -0.36548E-02   -0.34359E-02 10640   0.961E-02-0.233E-02
CGA:  11    -0.128310729906E+04   -0.26473E-02   -0.24997E-02 10640   0.949E-02-0.287E-02
CGA:  12    -0.128310940657E+04   -0.21075E-02   -0.18599E-02 10640   0.747E-02-0.329E-02
CGA:  13    -0.128311120010E+04   -0.17935E-02   -0.20819E-02 10640   0.122E-01-0.393E-02
CGA:  14    -0.128311257762E+04   -0.13775E-02   -0.14339E-02 10640   0.362E-02 0.212E-03
CGA:  15    -0.128311357916E+04   -0.10015E-02   -0.10398E-02 10640   0.141E-02 0.612E-03
CGA:  16    -0.128311396758E+04   -0.38842E-03   -0.41021E-03 10640   0.119E-02 0.231E-03
CGA:  17    -0.128311419922E+04   -0.23164E-03   -0.28301E-03 10640   0.419E-03 0.387E-03
CGA:  18    -0.128311425645E+04   -0.57230E-04   -0.96135E-04 10640   0.239E-03 0.246E-03
CGA:  19    -0.128311431474E+04   -0.58283E-04   -0.60795E-04 10640   0.266E-03 0.359E-04
CGA:  20    -0.128311437868E+04   -0.63944E-04   -0.74780E-04 10640   0.146E-03 0.144E-03
CGA:  21    -0.128311439768E+04   -0.19003E-04   -0.26928E-04 10640   0.106E-03 0.604E-04
CGA:  22    -0.128311443818E+04   -0.40501E-04   -0.42762E-04 10640   0.107E-03 0.953E-04
CGA:  23    -0.128311437272E+04    0.65459E-04   -0.12459E-03 10640   0.239E-02-0.222E-03
CGA:  24    -0.128311454869E+04   -0.17596E-03   -0.23927E-03 10640   0.194E-03 0.263E-03
CGA:  25    -0.128311456364E+04   -0.14952E-04   -0.27600E-04 10640   0.760E-04 0.604E-04
CGA:  26    -0.128311460621E+04   -0.42568E-04   -0.46956E-04 10640   0.228E-03-0.314E-04
CGA:  27    -0.128311463229E+04   -0.26084E-04   -0.18824E-04 10640   0.300E-03-0.392E-04
CGA:  28    -0.128311469044E+04   -0.58146E-04   -0.52048E-04 10640   0.672E-03-0.587E-04
CGA:  29    -0.128311482709E+04   -0.13666E-03   -0.13038E-03 10640   0.113E-02-0.121E-03
CGA:  30    -0.128311493140E+04   -0.10431E-03   -0.96390E-04 10640   0.555E-03-0.884E-04
CGA:  31    -0.128311497091E+04   -0.39510E-04   -0.43656E-04 10640   0.210E-03 0.738E-05
CGA:  32    -0.128311498389E+04   -0.12979E-04   -0.16618E-04 10640   0.779E-04 0.149E-04
CGA:  33    -0.128311499501E+04   -0.11123E-04   -0.97561E-05 10640   0.566E-04-0.886E-05
CGA:  34    -0.128311500727E+04   -0.12251E-04   -0.15481E-04 10640   0.114E-03-0.974E-04
CGA:  35    -0.128311502765E+04   -0.20387E-04   -0.21905E-04 10640   0.334E-04 0.182E-04
CGA:  36    -0.128311480833E+04    0.21933E-03   -0.11816E-03 10640   0.191E-02-0.197E-03
CGA:  37    -0.128311501386E+04   -0.20553E-03   -0.23581E-03 10640   0.352E-03 0.835E-04
CGA:  38    -0.128311506155E+04   -0.47691E-04   -0.63103E-04 10640   0.607E-04 0.505E-04
CGA:  39    -0.128311508916E+04   -0.27614E-04   -0.21089E-04 10640   0.775E-04-0.408E-04
CGA:  40    -0.128311508637E+04    0.27956E-05   -0.66189E-05 10640   0.118E-04 0.257E-04
   5 F= -.12831151E+04 E0= -.12831150E+04  d E =-.372648E+00  mag=    47.0000
       N       E                     dE             d eps       ncg     rms          ort
SDA:   1    -0.128152055152E+04    0.15945E+01    0.00000E+00 10640   0.526E+01 0.000E+00
CGA:   2    -0.128255987788E+04   -0.10393E+01   -0.10390E+01 10640   0.196E+01 0.270E-03
CGA:   3    -0.128306086046E+04   -0.50098E+00   -0.50191E+00 10640   0.498E+00 0.506E-02
CGA:   4    -0.128313840339E+04   -0.77543E-01   -0.78045E-01 10640   0.761E-01 0.239E-02
CGA:   5    -0.128315405058E+04   -0.15647E-01   -0.15669E-01 10640   0.205E-01 0.122E-03
CGA:   6    -0.128315802141E+04   -0.39708E-02   -0.39724E-02 10640   0.764E-02 0.458E-04
CGA:   7    -0.128315942132E+04   -0.13999E-02   -0.13920E-02 10640   0.201E-02-0.380E-04
CGA:   8    -0.128315991167E+04   -0.49035E-03   -0.48290E-03 10640   0.920E-03-0.615E-04
CGA:   9    -0.128316004774E+04   -0.13606E-03   -0.16613E-03 10640   0.402E-03 0.181E-03
CGA:  10    -0.128316013202E+04   -0.84282E-04   -0.10117E-03 10640   0.174E-03 0.125E-03
CGA:  11    -0.128316017318E+04   -0.41165E-04   -0.50997E-04 10640   0.106E-03 0.854E-04
CGA:  12    -0.128316017562E+04   -0.24368E-05   -0.21666E-04 10640   0.582E-04 0.984E-04
CGA:  13    -0.128316018305E+04   -0.74303E-05   -0.12029E-04 10640   0.401E-04 0.394E-04
   6 F= -.12831602E+04 E0= -.12831601E+04  d E =-.450967E-01  mag=    47.0000
       N       E                     dE             d eps       ncg     rms          ort
SDA:   1    -0.128297566098E+04    0.18451E+00    0.00000E+00 10640   0.568E+00 0.000E+00
CGA:   2    -0.128310653852E+04   -0.13088E+00   -0.13107E+00 10640   0.249E+00 0.262E-02
CGA:   3    -0.128316392373E+04   -0.57385E-01   -0.57059E-01 10640   0.604E-01-0.439E-02
CGA:   4    -0.128317301070E+04   -0.90870E-02   -0.91649E-02 10640   0.102E-01 0.587E-03
CGA:   5    -0.128317526593E+04   -0.22552E-02   -0.21884E-02 10640   0.299E-02-0.822E-03
CGA:   6    -0.128317580098E+04   -0.53505E-03   -0.52477E-03 10640   0.110E-02-0.981E-04
CGA:   7    -0.128317603847E+04   -0.23750E-03   -0.22896E-03 10640   0.447E-03-0.121E-03
CGA:   8    -0.128317490930E+04    0.11292E-02   -0.45513E-03 10640   0.149E-01-0.183E-02
CGA:   9    -0.128317619061E+04   -0.12813E-02   -0.14013E-02 10640   0.138E-02 0.573E-03
CGA:  10    -0.128317649084E+04   -0.30023E-03   -0.30451E-03 10640   0.350E-03 0.428E-04
CGA:  11    -0.128317153685E+04    0.49540E-02   -0.27108E-02 10640   0.462E-01-0.332E-02
CGA:  12    -0.128317553842E+04   -0.40016E-02   -0.44968E-02 10640   0.361E-02 0.303E-02
CGA:  13    -0.128317636484E+04   -0.82643E-03   -0.88797E-03 10640   0.151E-02 0.203E-03
CGA:  14    -0.128317678813E+04   -0.42328E-03   -0.31142E-03 10640   0.588E-03-0.340E-03
CGA:  15    -0.128317681267E+04   -0.24543E-04   -0.66216E-04 10640   0.170E-03 0.116E-03
CGA:  16    -0.128317681447E+04   -0.18003E-05   -0.24836E-04 10640   0.680E-04 0.630E-04
CGA:  17    -0.128317685848E+04   -0.44011E-04   -0.43062E-04 10640   0.212E-03-0.110E-03
CGA:  18    -0.128317686993E+04   -0.11453E-04   -0.24285E-04 10640   0.399E-04 0.364E-04
CGA:  19    -0.128317687774E+04   -0.78068E-05   -0.92534E-05 10640   0.125E-04 0.571E-05
CGA:  20    -0.128317687162E+04    0.61186E-05   -0.11889E-04 10640   0.210E-03-0.458E-04
CGA:  21    -0.128317688512E+04   -0.13492E-04   -0.23578E-04 10640   0.258E-04 0.297E-04
CGA:  22    -0.128317688717E+04   -0.20560E-05   -0.21795E-04 10640   0.220E-03-0.662E-04
CGA:  23    -0.128317690459E+04   -0.17423E-04   -0.27223E-04 10640   0.250E-04 0.301E-04
CGA:  24    -0.128317691495E+04   -0.10357E-04   -0.88297E-05 10640   0.243E-04-0.118E-04
CGA:  25    -0.128317691376E+04    0.11871E-05   -0.83899E-06 10640   0.150E-04 0.551E-05
   7 F= -.12831769E+04 E0= -.12831769E+04  d E =-.167307E-01  mag=    47.0000
       N       E                     dE             d eps       ncg     rms          ort
SDA:   1    -0.128086441769E+04    0.23125E+01    0.00000E+00 10640   0.634E+01 0.000E+00
CGA:   2    -0.128243948357E+04   -0.15751E+01   -0.15753E+01 10640   0.289E+01 0.875E-02
CGA:   3    -0.128305446641E+04   -0.61498E+00   -0.61688E+00 10640   0.672E+00-0.197E-01
CGA:   4    -0.128316048878E+04   -0.10602E+00   -0.10582E+00 10640   0.122E+00 0.190E-02
CGA:   5    -0.128318454281E+04   -0.24054E-01   -0.23856E-01 10640   0.312E-01-0.183E-02
CGA:   6    -0.128319084515E+04   -0.63023E-02   -0.60910E-02 10640   0.135E-01-0.127E-02
CGA:   7    -0.128319336348E+04   -0.25183E-02   -0.24703E-02 10640   0.463E-02-0.276E-03
CGA:   8    -0.128319483849E+04   -0.14750E-02   -0.14314E-02 10640   0.501E-02-0.145E-02
CGA:   9    -0.128319585654E+04   -0.10180E-02   -0.89367E-03 10640   0.385E-02-0.147E-02
CGA:  10    -0.128319681337E+04   -0.95683E-03   -0.10381E-02 10640   0.411E-02-0.192E-02
CGA:  11    -0.128319636717E+04    0.44619E-03   -0.12693E-02 10640   0.200E-01-0.625E-02
CGA:  12    -0.128319809508E+04   -0.17279E-02   -0.20946E-02 10640   0.302E-02 0.184E-02
CGA:  13    -0.128319886429E+04   -0.76921E-03   -0.82482E-03 10640   0.134E-02 0.602E-03
CGA:  14    -0.128319930103E+04   -0.43674E-03   -0.40892E-03 10640   0.154E-02-0.334E-03
CGA:  15    -0.128319937001E+04   -0.68980E-04   -0.15881E-03 10640   0.934E-03 0.458E-03
CGA:  16    -0.128319935826E+04    0.11744E-04   -0.98372E-04 10640   0.302E-03 0.456E-03
CGA:  17    -0.128319935050E+04    0.77604E-05   -0.40638E-04 10640   0.186E-03 0.219E-03
CGA:  18    -0.128319896466E+04    0.38585E-03   -0.21293E-03 10640   0.610E-02-0.711E-03
CGA:  19    -0.128319925889E+04   -0.29424E-03   -0.52730E-03 10640   0.326E-03 0.978E-03
CGA:  20    -0.128319924006E+04    0.18830E-04   -0.28841E-04 10640   0.143E-03 0.188E-03
CGA:  21    -0.128319926176E+04   -0.21697E-04   -0.29146E-04 10640   0.440E-04 0.659E-04
CGA:  22    -0.128319925771E+04    0.40465E-05   -0.57623E-05 10640   0.220E-04 0.442E-04
   8 F= -.12831993E+04 E0= -.12831992E+04  d E =-.223439E-01  mag=    47.0000
       N       E                     dE             d eps       ncg     rms          ort
SDA:   1    -0.128223626282E+04    0.96300E+00    0.00000E+00 10640   0.242E+01 0.000E+00
CGA:   2    -0.128292492972E+04   -0.68867E+00   -0.68869E+00 10640   0.107E+01 0.735E-02
CGA:   3    -0.128313738224E+04   -0.21245E+00   -0.21239E+00 10640   0.241E+00-0.113E-01
CGA:   4    -0.128317794766E+04   -0.40565E-01   -0.40575E-01 10640   0.430E-01 0.581E-03
CGA:   5    -0.128318692870E+04   -0.89810E-02   -0.88264E-02 10640   0.113E-01-0.216E-02
CGA:   6    -0.128318922286E+04   -0.22942E-02   -0.22317E-02 10640   0.541E-02-0.914E-03
CGA:   7    -0.128319011243E+04   -0.88957E-03   -0.87826E-03 10640   0.159E-02-0.109E-03
CGA:   8    -0.128319059569E+04   -0.48326E-03   -0.72034E-03 10640   0.366E-02-0.121E-02
CGA:   9    -0.128319103636E+04   -0.44067E-03   -0.44017E-03 10640   0.651E-03 0.582E-05
CGA:  10    -0.128319120122E+04   -0.16486E-03   -0.29837E-03 10640   0.200E-02-0.706E-03
CGA:  11    -0.128319148935E+04   -0.28813E-03   -0.25489E-03 10640   0.470E-03-0.218E-03
CGA:  12    -0.128319158909E+04   -0.99738E-04   -0.95542E-04 10640   0.186E-03-0.971E-04
CGA:  13    -0.128319171067E+04   -0.12158E-03    0.36985E-04 10640   0.113E-03 0.509E-04
CGA:  14    -0.128319187595E+04   -0.16528E-03    0.16919E-04 10640   0.640E-04 0.663E-04
CGA:  15    -0.128319192232E+04   -0.46366E-04    0.24729E-04 10640   0.788E-04 0.113E-04
CGA:  16    -0.128319203864E+04   -0.11632E-03    0.93160E-05 10640   0.569E-04 0.395E-04
CGA:  17    -0.128319208513E+04   -0.46491E-04    0.14627E-04 10640   0.412E-04 0.127E-04
CGA:  18    -0.128319212912E+04   -0.43988E-04    0.10843E-04 10640   0.495E-04 0.161E-04
CGA:  19    -0.128319221742E+04   -0.88298E-04    0.66780E-05 10640   0.325E-04 0.531E-04
CGA:  20    -0.128319225434E+04   -0.36923E-04    0.38990E-05 10640   0.247E-04 0.899E-05
CGA:  21    -0.128319227706E+04   -0.22719E-04    0.12374E-04 10640   0.252E-04 0.112E-04
CGA:  22    -0.128319231477E+04   -0.37710E-04    0.53627E-05 10640   0.212E-04 0.280E-04
CGA:  23    -0.128319233884E+04   -0.24067E-04    0.25410E-05 10640   0.143E-04 0.734E-05
CGA:  24    -0.128319234046E+04   -0.16208E-05   -0.31314E-05 10640   0.100E-04 0.142E-04
   9 F= -.12831923E+04 E0= -.12831923E+04  d E =0.691726E-02  mag=    47.0000
       N       E                     dE             d eps       ncg     rms          ort
SDA:   1    -0.127841085720E+04    0.47815E+01    0.00000E+00 10640   0.121E+02 0.000E+00
CGA:   2    -0.128179529529E+04   -0.33844E+01   -0.33844E+01 10640   0.530E+01 0.800E-02
CGA:   3    -0.128287689101E+04   -0.10816E+01   -0.10829E+01 10640   0.108E+01-0.131E-01
CGA:   4    -0.128306275021E+04   -0.18586E+00   -0.18552E+00 10640   0.234E+00-0.155E-02
CGA:   5    -0.128310559286E+04   -0.42843E-01   -0.42450E-01 10640   0.655E-01-0.568E-02
CGA:   6    -0.128311724540E+04   -0.11653E-01   -0.11560E-01 10640   0.239E-01-0.108E-02
CGA:   7    -0.128312230579E+04   -0.50604E-02   -0.50413E-02 10640   0.735E-02-0.479E-03
CGA:   8    -0.128312444048E+04   -0.21347E-02   -0.22091E-02 10640   0.589E-02-0.129E-02
CGA:   9    -0.128312573006E+04   -0.12896E-02   -0.13173E-02 10640   0.419E-02-0.146E-02
CGA:  10    -0.128312656410E+04   -0.83404E-03   -0.13260E-02 10640   0.679E-02-0.294E-02
CGA:  11    -0.128312748664E+04   -0.92254E-03   -0.87017E-03 10640   0.189E-02-0.396E-03
CGA:  12    -0.128312792859E+04   -0.44195E-03   -0.44187E-03 10640   0.664E-03-0.885E-05
CGA:  13    -0.128312820236E+04   -0.27377E-03   -0.29679E-03 10640   0.783E-03-0.118E-03
CGA:  14    -0.128312837964E+04   -0.17728E-03   -0.24753E-03 10640   0.151E-02-0.586E-03
CGA:  15    -0.128312855311E+04   -0.17347E-03   -0.17919E-03 10640   0.325E-03 0.421E-04
CGA:  16    -0.128312862148E+04   -0.68361E-04   -0.73329E-04 10640   0.146E-03 0.115E-03
CGA:  17    -0.128312864408E+04   -0.22600E-04   -0.15422E-03 10640   0.145E-02-0.256E-03
CGA:  18    -0.128312877801E+04   -0.13393E-03   -0.15618E-03 10640   0.147E-03 0.129E-03
CGA:  19    -0.128312880299E+04   -0.24981E-04   -0.31053E-04 10640   0.956E-04 0.727E-04
CGA:  20    -0.128312874357E+04    0.59420E-04   -0.13893E-03 10640   0.128E-02-0.285E-03
CGA:  21    -0.128312888432E+04   -0.14076E-03   -0.16735E-03 10640   0.275E-03 0.153E-03
CGA:  22    -0.128312893746E+04   -0.53135E-04   -0.63741E-04 10640   0.850E-04 0.114E-03
CGA:  23    -0.128312897591E+04   -0.38450E-04   -0.47653E-04 10640   0.272E-03-0.907E-04
CGA:  24    -0.128312898742E+04   -0.11511E-04   -0.25749E-04 10640   0.413E-04 0.701E-04
CGA:  25    -0.128312898685E+04    0.56905E-06   -0.51990E-05 10640   0.324E-04 0.304E-04
CGA:  26    -0.128312894901E+04    0.37835E-04   -0.25480E-04 10640   0.112E-02-0.695E-04
CGA:  27    -0.128312904461E+04   -0.95591E-04   -0.12025E-03 10640   0.659E-04 0.653E-04
CGA:  28    -0.128312904315E+04    0.14592E-05   -0.11446E-04 10640   0.349E-04 0.395E-04
CGA:  29    -0.128312905580E+04   -0.12651E-04   -0.29474E-04 10640   0.329E-03-0.455E-04
CGA:  30    -0.128312906724E+04   -0.11440E-04   -0.32162E-04 10640   0.251E-04 0.535E-04
CGA:  31    -0.128312906362E+04    0.36204E-05   -0.29391E-05 10640   0.181E-04 0.176E-04
CGA:  32    -0.128312907575E+04   -0.12132E-04   -0.24221E-04 10640   0.195E-03-0.139E-04
CGA:  33    -0.128312908944E+04   -0.13691E-04   -0.21541E-04 10640   0.232E-04 0.208E-04
CGA:  34    -0.128312908714E+04    0.23040E-05   -0.36403E-05 10640   0.169E-04 0.176E-04
  10 F= -.12831291E+04 E0= -.12831291E+04  d E =0.632533E-01  mag=    47.0000
       N       E                     dE             d eps       ncg     rms          ort
SDA:   1    -0.127942754571E+04    0.37015E+01    0.00000E+00 10640   0.989E+01 0.000E+00
CGA:   2    -0.128185547557E+04   -0.24279E+01   -0.24288E+01 10640   0.469E+01 0.953E-02
CGA:   3    -0.128283389691E+04   -0.97842E+00   -0.97932E+00 10640   0.115E+01-0.935E-02
CGA:   4    -0.128299976478E+04   -0.16587E+00   -0.16526E+00 10640   0.219E+00 0.726E-02
CGA:   5    -0.128304161473E+04   -0.41850E-01   -0.41483E-01 10640   0.567E-01-0.122E-02
CGA:   6    -0.128305250240E+04   -0.10888E-01   -0.10784E-01 10640   0.175E-01-0.466E-03
CGA:   7    -0.128305593918E+04   -0.34368E-02   -0.34929E-02 10640   0.560E-02 0.338E-03
CGA:   8    -0.128305726307E+04   -0.13239E-02   -0.12652E-02 10640   0.270E-02-0.352E-03
CGA:   9    -0.128305786116E+04   -0.59809E-03   -0.60190E-03 10640   0.121E-02 0.349E-04
CGA:  10    -0.128305835569E+04   -0.49452E-03   -0.55911E-03 10640   0.224E-02-0.791E-03
CGA:  11    -0.128305856247E+04   -0.20679E-03   -0.24736E-03 10640   0.412E-03 0.166E-03
CGA:  12    -0.128305871488E+04   -0.15241E-03   -0.14915E-03 10640   0.315E-03-0.121E-03
CGA:  13    -0.128305887986E+04   -0.16497E-03    0.18567E-02 10640   0.332E-03-0.134E-04
CGA:  14    -0.128305900974E+04   -0.12988E-03   -0.15275E-03 10640   0.741E-03-0.196E-03
CGA:  15    -0.128305921403E+04   -0.20429E-03   -0.15685E-03 10640   0.576E-03-0.301E-03
CGA:  16    -0.128305924069E+04   -0.26663E-04   -0.46447E-04 10640   0.219E-03 0.887E-04
CGA:  17    -0.128305923847E+04    0.22215E-05   -0.19935E-04 10640   0.802E-04 0.825E-04
CGA:  18    -0.128305924782E+04   -0.93464E-05   -0.15890E-04 10640   0.860E-04 0.339E-04
CGA:  19    -0.128305921188E+04    0.35941E-04   -0.91053E-04 10640   0.109E-02-0.306E-03
CGA:  20    -0.128305933499E+04   -0.12312E-03   -0.16244E-03 10640   0.255E-03 0.200E-03
CGA:  21    -0.128305942791E+04   -0.92917E-04   -0.84779E-04 10640   0.150E-03-0.144E-03
CGA:  22    -0.128305943083E+04   -0.29232E-05   -0.14694E-04 10640   0.398E-04 0.500E-04
  11 F= -.12830594E+04 E0= -.12830594E+04  d E =0.696563E-01  mag=    47.0000
       N       E                     dE             d eps       ncg     rms          ort
SDA:   1    -0.125722716069E+04    0.25832E+02    0.00000E+00 10640   0.769E+02 0.000E+00
CGA:   2    -0.127359026886E+04   -0.16363E+02   -0.16340E+02 10640   0.329E+02 0.768E-01
CGA:   3    -0.128090745104E+04   -0.73172E+01   -0.73395E+01 10640   0.101E+02 0.581E-01
CGA:   4    -0.128233039443E+04   -0.14229E+01   -0.13554E+01 10640   0.170E+01 0.418E+00
CGA:   5    -0.128265344290E+04   -0.32305E+00   -0.32436E+00 10640   0.473E+00 0.459E-02
CGA:   6    -0.128274308263E+04   -0.89640E-01   -0.89996E-01 10640   0.145E+00 0.676E-02
CGA:   7    -0.128277584242E+04   -0.32760E-01   -0.32717E-01 10640   0.531E-01-0.714E-03
CGA:   8    -0.128278651391E+04   -0.10671E-01   -0.10712E-01 10640   0.242E-01 0.802E-03
CGA:   9    -0.128279275701E+04   -0.62431E-02   -0.62610E-02 10640   0.148E-01 0.758E-03
CGA:  10    -0.128279559091E+04   -0.28339E-02   -0.30472E-02 10640   0.694E-02 0.285E-02
CGA:  11    -0.128279789236E+04   -0.23015E-02   -0.22964E-02 10640   0.365E-02 0.153E-02
CGA:  12    -0.128279879448E+04   -0.90212E-03   -0.10001E-02 10640   0.204E-02 0.197E-02
CGA:  13    -0.128279953349E+04   -0.73901E-03   -0.71978E-03 10640   0.257E-02 0.244E-03
CGA:  14    -0.128279990591E+04   -0.37242E-03   -0.49893E-03 10640   0.122E-02 0.125E-02
CGA:  15    -0.128280020786E+04   -0.30195E-03   -0.37802E-03 10640   0.121E-02 0.123E-02
CGA:  16    -0.128280048019E+04   -0.27233E-03   -0.27211E-03 10640   0.138E-02-0.175E-05
CGA:  17    -0.128280072282E+04   -0.24263E-03   -0.29234E-03 10640   0.853E-03 0.944E-03
CGA:  18    -0.128280077388E+04   -0.51062E-04   -0.10518E-03 10640   0.467E-03 0.390E-03
CGA:  19    -0.128280087970E+04   -0.10582E-03   -0.13542E-03 10640   0.622E-03 0.519E-03
CGA:  20    -0.128280106683E+04   -0.18713E-03   -0.19833E-03 10640   0.149E-02-0.167E-03
CGA:  21    -0.128280131439E+04   -0.24756E-03   -0.26176E-03 10640   0.202E-02 0.860E-03
CGA:  22    -0.128280140450E+04   -0.90107E-04   -0.17601E-03 10640   0.302E-03 0.518E-03
CGA:  23    -0.128280140187E+04    0.26304E-05   -0.34346E-04 10640   0.268E-03 0.236E-03
CGA:  24    -0.128280157124E+04   -0.16937E-03   -0.13464E-03 10640   0.593E-03 0.132E-03
CGA:  25    -0.128280170795E+04   -0.13671E-03   -0.17355E-03 10640   0.187E-03 0.652E-03
CGA:  26    -0.128280172208E+04   -0.14124E-04   -0.29511E-04 10640   0.169E-03 0.168E-03
CGA:  27    -0.128280181491E+04   -0.92834E-04   -0.68476E-04 10640   0.165E-03 0.152E-03
CGA:  28    -0.128280182072E+04   -0.58048E-05   -0.22474E-04 10640   0.146E-03 0.142E-03
CGA:  29    -0.128280189023E+04   -0.69515E-04   -0.53549E-04 10640   0.144E-03 0.133E-03
CGA:  30    -0.128280190580E+04   -0.15568E-04   -0.25000E-04 10640   0.136E-03 0.118E-03
CGA:  31    -0.128280194696E+04   -0.41165E-04   -0.38003E-04 10640   0.162E-03 0.101E-03
CGA:  32    -0.128280197396E+04   -0.27001E-04   -0.30779E-04 10640   0.176E-03 0.619E-04
CGA:  33    -0.128280201639E+04   -0.42422E-04   -0.50986E-04 10640   0.140E-03 0.226E-03
CGA:  34    -0.128280205430E+04   -0.37915E-04   -0.37480E-04 10640   0.249E-03 0.201E-04
CGA:  35    -0.128280220258E+04   -0.14828E-03   -0.11341E-03 10640   0.156E-03 0.227E-03
CGA:  36    -0.128280219036E+04    0.12224E-04   -0.89744E-05 10640   0.865E-04 0.108E-03
CGA:  37    -0.128280218426E+04    0.60982E-05   -0.64918E-05 10640   0.704E-04 0.742E-04
CGA:  38    -0.128280218876E+04   -0.44952E-05   -0.10449E-04 10640   0.672E-04 0.676E-04
CGA:  39    -0.128280222859E+04   -0.39837E-04   -0.28028E-04 10640   0.629E-04 0.632E-04
CGA:  40    -0.128280222937E+04   -0.77809E-06   -0.77927E-05 10640   0.594E-04 0.597E-04
CGA:  41    -0.128280225843E+04   -0.29062E-04   -0.21675E-04 10640   0.555E-04 0.567E-04
CGA:  42    -0.128280226282E+04   -0.43878E-05   -0.88137E-05 10640   0.532E-04 0.533E-04
CGA:  43    -0.128280229935E+04   -0.36532E-04   -0.25021E-04 10640   0.523E-04 0.491E-04
CGA:  44    -0.128280229780E+04    0.15553E-05   -0.53417E-05 10640   0.468E-04 0.469E-04
CGA:  45    -0.128280231300E+04   -0.15199E-04   -0.13280E-04 10640   0.441E-04 0.453E-04
CGA:  46    -0.128280232484E+04   -0.11842E-04   -0.11312E-04 10640   0.421E-04 0.425E-04
CGA:  47    -0.128280233982E+04   -0.14986E-04   -0.12721E-04 10640   0.416E-04 0.393E-04
CGA:  48    -0.128280234708E+04   -0.72528E-05   -0.86428E-05 10640   0.415E-04 0.351E-04
CGA:  49    -0.128280235902E+04   -0.11944E-04   -0.11225E-04 10640   0.511E-04 0.285E-04
CGA:  50    -0.128280236468E+04   -0.56604E-05   -0.78746E-05 10640   0.420E-04 0.239E-04
CGA:  51    -0.128280237687E+04   -0.12183E-04   -0.13522E-04 10640   0.472E-04 0.583E-04
CGA:  52    -0.128280238722E+04   -0.10356E-04   -0.10510E-04 10640   0.624E-04 0.847E-05
CGA:  53    -0.128280241058E+04   -0.23362E-04   -0.20618E-04 10640   0.451E-04 0.678E-04
CGA:  54    -0.128280241117E+04   -0.59104E-06   -0.43108E-05 10640   0.258E-04 0.254E-04
  12 F= -.12828024E+04 E0= -.12828023E+04  d E =0.257020E+00  mag=    47.0000
       N       E                     dE             d eps       ncg     rms          ort
SDA:   1    -0.127794178849E+04    0.48606E+01    0.00000E+00 10640   0.171E+02 0.000E+00
CGA:   2    -0.128111269882E+04   -0.31709E+01   -0.31695E+01 10640   0.662E+01 0.153E-03
CGA:   3    -0.128259614393E+04   -0.14834E+01   -0.14834E+01 10640   0.283E+01 0.133E-02
CGA:   4    -0.128298080411E+04   -0.38466E+00   -0.38642E+00 10640   0.405E+00-0.835E-02
CGA:   5    -0.128304924884E+04   -0.68445E-01   -0.68624E-01 10640   0.102E+00 0.471E-02
CGA:   6    -0.128307127078E+04   -0.22022E-01   -0.21974E-01 10640   0.330E-01-0.391E-02
CGA:   7    -0.128307700874E+04   -0.57380E-02   -0.57832E-02 10640   0.106E-01 0.117E-02
CGA:   8    -0.128307939357E+04   -0.23848E-02   -0.23751E-02 10640   0.492E-02-0.144E-02
CGA:   9    -0.128308046413E+04   -0.10706E-02   -0.11143E-02 10640   0.363E-02-0.109E-02
CGA:  10    -0.128308118516E+04   -0.72103E-03   -0.95211E-03 10640   0.456E-02-0.204E-02
CGA:  11    -0.128308167655E+04   -0.49140E-03   -0.50128E-03 10640   0.105E-02 0.941E-04
CGA:  12    -0.128308168368E+04   -0.71241E-05   -0.74026E-03 10640   0.448E-02-0.157E-02
CGA:  13    -0.128308227406E+04   -0.59038E-03   -0.61576E-03 10640   0.117E-02 0.241E-03
CGA:  14    -0.128308255970E+04   -0.28564E-03   -0.27813E-03 10640   0.566E-03-0.477E-03
CGA:  15    -0.128308264443E+04   -0.84737E-04   -0.11212E-03 10640   0.804E-03-0.290E-03
CGA:  16    -0.128308278515E+04   -0.14071E-03   -0.12020E-03 10640   0.407E-03-0.211E-03
CGA:  17    -0.128308287228E+04   -0.87136E-04   -0.11560E-03 10640   0.346E-03-0.196E-03
CGA:  18    -0.128308302867E+04   -0.15638E-03    0.29360E-04 10640   0.249E-03-0.128E-04
CGA:  19    -0.128308317905E+04   -0.15039E-03    0.11295E-03 10640   0.623E-04 0.102E-03
CGA:  20    -0.128308324591E+04   -0.66859E-04    0.20500E-04 10640   0.350E-04 0.341E-04
CGA:  21    -0.128308327971E+04   -0.33794E-04    0.46088E-05 10640   0.321E-04 0.102E-04
CGA:  22    -0.128308331858E+04   -0.38872E-04    0.57817E-05 10640   0.252E-04 0.280E-04
CGA:  23    -0.128308334377E+04   -0.25192E-04    0.30738E-05 10640   0.258E-04 0.705E-05
CGA:  24    -0.128308338058E+04   -0.36803E-04    0.32841E-05 10640   0.219E-04 0.243E-04
CGA:  25    -0.128308340004E+04   -0.19468E-04    0.34313E-05 10640   0.207E-04 0.442E-05
CGA:  26    -0.128308342675E+04   -0.26705E-04    0.26547E-05 10640   0.186E-04 0.195E-04
CGA:  27    -0.128308344469E+04   -0.17938E-04    0.24446E-05 10640   0.176E-04 0.267E-05
CGA:  28    -0.128308346782E+04   -0.23135E-04    0.19103E-05 10640   0.162E-04 0.160E-04
CGA:  29    -0.128308348121E+04   -0.13388E-04    0.30509E-05 10640   0.153E-04 0.119E-05
CGA:  30    -0.128308349939E+04   -0.18185E-04    0.16480E-05 10640   0.143E-04 0.130E-04
CGA:  31    -0.128308351233E+04   -0.12938E-04    0.21738E-05 10640   0.134E-04 0.601E-07
CGA:  32    -0.128308352755E+04   -0.15223E-04    0.13105E-05 10640   0.127E-04 0.107E-04
CGA:  33    -0.128308353773E+04   -0.10180E-04    0.25922E-05 10640   0.119E-04-0.774E-06
CGA:  34    -0.128308355022E+04   -0.12490E-04    0.11016E-05 10640   0.114E-04 0.877E-05
CGA:  35    -0.128308355961E+04   -0.93883E-05    0.21534E-05 10640   0.106E-04-0.142E-05
  13 F= -.12830836E+04 E0= -.12830835E+04  d E =-.281148E+00  mag=    47.0000
       N       E                     dE             d eps       ncg     rms          ort
SDA:   1    -0.128222992738E+04    0.85362E+00    0.00000E+00 10640   0.291E+01 0.000E+00
CGA:   2    -0.128277530013E+04   -0.54537E+00   -0.54541E+00 10640   0.113E+01 0.357E-02
CGA:   3    -0.128303124756E+04   -0.25595E+00   -0.25593E+00 10640   0.468E+00-0.175E-02
CGA:   4    -0.128309577721E+04   -0.64530E-01   -0.64465E-01 10640   0.661E-01-0.128E-02
CGA:   5    -0.128310735548E+04   -0.11578E-01   -0.11590E-01 10640   0.172E-01 0.295E-03
CGA:   6    -0.128311111817E+04   -0.37627E-02   -0.37347E-02 10640   0.639E-02-0.146E-02
CGA:   7    -0.128311211174E+04   -0.99357E-03   -0.10087E-02 10640   0.181E-02 0.259E-03
CGA:   8    -0.128311257793E+04   -0.46619E-03   -0.47403E-03 10640   0.995E-03-0.383E-03
CGA:   9    -0.128311278875E+04   -0.21082E-03   -0.28250E-03 10640   0.153E-02-0.559E-03
CGA:  10    -0.128311300294E+04   -0.21419E-03   -0.19340E-03 10640   0.451E-03-0.181E-03
CGA:  11    -0.128311311700E+04   -0.11406E-03   -0.14905E-03 10640   0.530E-03-0.246E-03
CGA:  12    -0.128311323222E+04   -0.11522E-03   -0.97165E-04 10640   0.503E-03-0.315E-03
CGA:  13    -0.128311326220E+04   -0.29979E-04   -0.40084E-04 10640   0.415E-04 0.652E-04
CGA:  14    -0.128311328874E+04   -0.26544E-04    0.23324E-04 10640   0.713E-04 0.157E-04
CGA:  15    -0.128311339458E+04   -0.10584E-03    0.83935E-05 10640   0.446E-04 0.517E-04
CGA:  16    -0.128311345351E+04   -0.58927E-04    0.27253E-05 10640   0.353E-04 0.980E-05
CGA:  17    -0.128311349577E+04   -0.42266E-04    0.43367E-05 10640   0.234E-04 0.254E-04
CGA:  18    -0.128311350902E+04   -0.13246E-04    0.11513E-04 10640   0.207E-04 0.119E-04
CGA:  19    -0.128311353691E+04   -0.27890E-04    0.12232E-05 10640   0.250E-04 0.689E-05
CGA:  20    -0.128311358409E+04   -0.47183E-04    0.18400E-05 10640   0.172E-04 0.282E-04
CGA:  21    -0.128311358644E+04   -0.23478E-05   -0.28907E-05 10640   0.126E-04 0.878E-05
  14 F= -.12831136E+04 E0= -.12831136E+04  d E =-.300268E-01  mag=    47.0000
       N       E                     dE             d eps       ncg     rms          ort
SDA:   1    -0.128299051850E+04    0.12307E+00    0.00000E+00 10640   0.379E+00 0.000E+00
CGA:   2    -0.128307008800E+04   -0.79569E-01   -0.79613E-01 10640   0.155E+00 0.266E-02
CGA:   3    -0.128310697944E+04   -0.36891E-01   -0.36916E-01 10640   0.505E-01-0.248E-02
CGA:   4    -0.128311374609E+04   -0.67666E-02   -0.67289E-02 10640   0.903E-02-0.379E-03
CGA:   5    -0.128311542136E+04   -0.16753E-02   -0.16553E-02 10640   0.252E-02-0.529E-03
CGA:   6    -0.128311599154E+04   -0.57019E-03   -0.59552E-03 10640   0.159E-02-0.821E-03
CGA:   7    -0.128311613278E+04   -0.14124E-03   -0.14871E-03 10640   0.433E-03 0.927E-04
CGA:   8    -0.128311619785E+04   -0.65069E-04   -0.69752E-04 10640   0.194E-03 0.722E-04
CGA:   9    -0.128311615535E+04    0.42496E-04   -0.12593E-03 10640   0.170E-02-0.491E-03
CGA:  10    -0.128311631471E+04   -0.15936E-03   -0.17184E-03 10640   0.242E-03 0.101E-03
CGA:  11    -0.128311623259E+04    0.82122E-04   -0.17650E-03 10640   0.136E-02-0.558E-03
CGA:  12    -0.128311645558E+04   -0.22299E-03   -0.22621E-03 10640   0.343E-03 0.410E-04
CGA:  13    -0.128311649292E+04   -0.37347E-04   -0.41982E-04 10640   0.316E-04 0.376E-04
CGA:  14    -0.128311649603E+04   -0.31091E-05   -0.48745E-05 10640   0.138E-04 0.179E-04
  15 F= -.12831165E+04 E0= -.12831165E+04  d E =-.290959E-02  mag=    47.0000
       N       E                     dE             d eps       ncg     rms          ort
SDA:   1    -0.127861789136E+04    0.44986E+01    0.00000E+00 10640   0.125E+02 0.000E+00
CGA:   2    -0.128156675750E+04   -0.29489E+01   -0.29488E+01 10640   0.553E+01 0.191E-01
CGA:   3    -0.128282659647E+04   -0.12598E+01   -0.12598E+01 10640   0.124E+01-0.118E-01
CGA:   4    -0.128301548248E+04   -0.18889E+00   -0.18869E+00 10640   0.259E+00 0.668E-03
CGA:   5    -0.128306054355E+04   -0.45061E-01   -0.44834E-01 10640   0.741E-01-0.410E-02
CGA:   6    -0.128307417773E+04   -0.13634E-01   -0.13539E-01 10640   0.237E-01-0.240E-02
CGA:   7    -0.128307909539E+04   -0.49177E-02   -0.49170E-02 10640   0.650E-02-0.306E-04
CGA:   8    -0.128308080346E+04   -0.17081E-02   -0.17801E-02 10640   0.521E-02-0.141E-02
CGA:   9    -0.128308167575E+04   -0.87228E-03   -0.85993E-03 10640   0.258E-02-0.797E-03
CGA:  10    -0.128308145256E+04    0.22318E-03   -0.15336E-02 10640   0.108E-01-0.368E-02
CGA:  11    -0.128308300682E+04   -0.15543E-02   -0.15279E-02 10640   0.265E-02-0.232E-03
CGA:  12    -0.128308344313E+04   -0.43631E-03   -0.43448E-03 10640   0.629E-03-0.199E-04
CGA:  13    -0.128308359369E+04   -0.15056E-03   -0.15038E-03 10640   0.295E-03 0.151E-03
CGA:  14    -0.128308234464E+04    0.12491E-02   -0.67753E-03 10640   0.102E-01-0.137E-02
CGA:  15    -0.128308354104E+04   -0.11964E-02   -0.13068E-02 10640   0.132E-02 0.395E-03
CGA:  16    -0.128308384256E+04   -0.30151E-03   -0.32133E-03 10640   0.388E-03 0.107E-03
CGA:  17    -0.128308395475E+04   -0.11220E-03   -0.28071E-03 10640   0.321E-02-0.653E-03
CGA:  18    -0.128308409657E+04   -0.14182E-03   -0.28251E-03 10640   0.199E-03 0.445E-03
CGA:  19    -0.128308408685E+04    0.97169E-05   -0.21412E-04 10640   0.848E-04 0.994E-04
CGA:  20    -0.128308409716E+04   -0.10307E-04   -0.19084E-04 10640   0.564E-04 0.362E-04
CGA:  21    -0.128308416410E+04   -0.66939E-04    0.16577E-03 10640   0.121E-03-0.775E-04
CGA:  22    -0.128308415319E+04    0.10908E-04   -0.10016E-04 10640   0.507E-04 0.705E-04
CGA:  23    -0.128308415432E+04   -0.11303E-05   -0.78058E-05 10640   0.229E-04 0.315E-04
CGA:  24    -0.128308417315E+04   -0.18832E-04    0.25482E-04 10640   0.114E-04 0.103E-04
CGA:  25    -0.128308417126E+04    0.18948E-05   -0.17207E-05 10640   0.961E-05 0.144E-04
  16 F= -.12830842E+04 E0= -.12830841E+04  d E =0.323248E-01  mag=    47.0000
       N       E                     dE             d eps       ncg     rms          ort
SDA:   1    -0.128118041973E+04    0.19038E+01    0.00000E+00 10640   0.514E+01 0.000E+00
CGA:   2    -0.128245995564E+04   -0.12795E+01   -0.12795E+01 10640   0.238E+01-0.122E-03
CGA:   3    -0.128299573570E+04   -0.53578E+00   -0.53559E+00 10640   0.407E+00-0.287E-02
CGA:   4    -0.128306369062E+04   -0.67955E-01   -0.67962E-01 10640   0.785E-01 0.649E-04
CGA:   5    -0.128308006053E+04   -0.16370E-01   -0.16313E-01 10640   0.187E-01-0.488E-03
CGA:   6    -0.128308400718E+04   -0.39467E-02   -0.39390E-02 10640   0.713E-02-0.603E-04
CGA:   7    -0.128308522677E+04   -0.12196E-02   -0.12072E-02 10640   0.228E-02-0.777E-04
CGA:   8    -0.128308573447E+04   -0.50770E-03   -0.50236E-03 10640   0.998E-03-0.628E-04
CGA:   9    -0.128308601388E+04   -0.27941E-03   -0.27763E-03 10640   0.701E-03-0.138E-03
CGA:  10    -0.128308618157E+04   -0.16769E-03   -0.16257E-03 10640   0.463E-03-0.173E-03
CGA:  11    -0.128308628213E+04   -0.10056E-03   -0.15313E-03 10640   0.900E-03-0.370E-03
CGA:  12    -0.128308635617E+04   -0.74036E-04   -0.92012E-04 10640   0.180E-03 0.932E-04
CGA:  13    -0.128308641192E+04   -0.55756E-04   -0.56116E-04 10640   0.929E-04 0.336E-04
CGA:  14    -0.128308644929E+04   -0.37372E-04   -0.43212E-04 10640   0.320E-03-0.593E-04
CGA:  15    -0.128308646742E+04   -0.18130E-04   -0.28001E-04 10640   0.386E-04 0.484E-04
CGA:  16    -0.128308648007E+04   -0.12652E-04   -0.12666E-04 10640   0.624E-04 0.507E-05
CGA:  17    -0.128308645110E+04    0.28970E-04   -0.55316E-04 10640   0.717E-03-0.171E-03
CGA:  18    -0.128308650928E+04   -0.58176E-04   -0.80051E-04 10640   0.179E-03 0.112E-03
CGA:  19    -0.128308655497E+04   -0.45690E-04   -0.48012E-04 10640   0.350E-04 0.331E-04
CGA:  20    -0.128308653113E+04    0.23837E-04   -0.27629E-04 10640   0.805E-03-0.140E-03
CGA:  21    -0.128308657218E+04   -0.41045E-04   -0.66016E-04 10640   0.398E-04 0.112E-03
CGA:  22    -0.128308657316E+04   -0.97921E-06   -0.46114E-05 10640   0.211E-04 0.179E-04
CGA:  23    -0.128308658348E+04   -0.10324E-04   -0.10811E-04 10640   0.344E-04-0.840E-05
CGA:  24    -0.128308659044E+04   -0.69540E-05   -0.56189E-05 10640   0.717E-04-0.504E-04
  17 F= -.12830866E+04 E0= -.12830866E+04  d E =-.241918E-02  mag=    47.0000
       N       E                     dE             d eps       ncg     rms          ort
SDA:   1    -0.127140386159E+04    0.11683E+02    0.00000E+00 10640   0.314E+02 0.000E+00
CGA:   2    -0.127922789214E+04   -0.78240E+01   -0.78243E+01 10640   0.147E+02-0.857E-02
CGA:   3    -0.128251578464E+04   -0.32879E+01   -0.32883E+01 10640   0.250E+01 0.824E-02
CGA:   4    -0.128293155105E+04   -0.41577E+00   -0.41588E+00 10640   0.496E+00-0.411E-03
CGA:   5    -0.128302880553E+04   -0.97254E-01   -0.97504E-01 10640   0.138E+00 0.339E-02
CGA:   6    -0.128305304018E+04   -0.24235E-01   -0.24208E-01 10640   0.544E-01 0.397E-03
CGA:   7    -0.128306350101E+04   -0.10461E-01   -0.10314E-01 10640   0.144E-01-0.184E-02
CGA:   8    -0.128306678607E+04   -0.32851E-02   -0.32904E-02 10640   0.586E-02 0.218E-03
CGA:   9    -0.128306845876E+04   -0.16727E-02   -0.16871E-02 10640   0.453E-02-0.690E-03
CGA:  10    -0.128306918917E+04   -0.73041E-03   -0.73418E-03 10640   0.170E-02 0.589E-04
CGA:  11    -0.128306966592E+04   -0.47675E-03   -0.47583E-03 10640   0.761E-03 0.581E-04
CGA:  12    -0.128306991343E+04   -0.24751E-03   -0.26678E-03 10640   0.998E-03-0.245E-03
CGA:  13    -0.128306999817E+04   -0.84741E-04   -0.10598E-03 10640   0.561E-03 0.195E-03
CGA:  14    -0.128307004506E+04   -0.46882E-04   -0.80949E-04 10640   0.376E-03 0.245E-03
CGA:  15    -0.128307013242E+04   -0.87360E-04   -0.10219E-03 10640   0.331E-03 0.232E-03
CGA:  16    -0.128307021571E+04   -0.83290E-04   -0.11865E-03 10640   0.108E-02-0.321E-03
CGA:  17    -0.128307026775E+04   -0.52042E-04   -0.93112E-04 10640   0.107E-03 0.247E-03
CGA:  18    -0.128307026443E+04    0.33232E-05   -0.97241E-05 10640   0.719E-04 0.759E-04
CGA:  19    -0.128307029780E+04   -0.33372E-04   -0.26029E-04 10640   0.640E-04 0.585E-04
CGA:  20    -0.128307031094E+04   -0.13146E-04   -0.14139E-04 10640   0.659E-04 0.430E-04
CGA:  21    -0.128307033310E+04   -0.22154E-04   -0.21411E-04 10640   0.150E-03 0.892E-05
CGA:  22    -0.128307043297E+04   -0.99875E-04   -0.77402E-04 10640   0.715E-04 0.106E-03
CGA:  23    -0.128307043402E+04   -0.10481E-05   -0.65039E-05 10640   0.289E-04 0.329E-04
  18 F= -.12830704E+04 E0= -.12830704E+04  d E =0.161564E-01  mag=    47.0000
       N       E                     dE             d eps       ncg     rms          ort
SDA:   1    -0.127490951026E+04    0.81609E+01    0.00000E+00 10640   0.223E+02 0.000E+00
CGA:   2    -0.128033575856E+04   -0.54262E+01   -0.54263E+01 10640   0.104E+02-0.568E-02
CGA:   3    -0.128261589446E+04   -0.22801E+01   -0.22799E+01 10640   0.215E+01 0.270E-02
CGA:   4    -0.128293330178E+04   -0.31741E+00   -0.31759E+00 10640   0.477E+00 0.254E-02
CGA:   5    -0.128301271035E+04   -0.79409E-01   -0.79564E-01 10640   0.137E+00 0.231E-02
CGA:   6    -0.128303684677E+04   -0.24136E-01   -0.24287E-01 10640   0.372E-01 0.301E-02
CGA:   7    -0.128304608028E+04   -0.92335E-02   -0.92657E-02 10640   0.139E-01-0.293E-02
CGA:   8    -0.128304817120E+04   -0.20909E-02   -0.21353E-02 10640   0.527E-02 0.743E-03
CGA:   9    -0.128304964745E+04   -0.14763E-02   -0.14830E-02 10640   0.259E-02-0.175E-03
CGA:  10    -0.128305037720E+04   -0.72975E-03   -0.75507E-03 10640   0.210E-02-0.356E-03
CGA:  11    -0.128305068374E+04   -0.30654E-03   -0.31234E-03 10640   0.793E-03 0.963E-04
CGA:  12    -0.128305085196E+04   -0.16822E-03   -0.17387E-03 10640   0.376E-03 0.251E-03
CGA:  13    -0.128305101935E+04   -0.16739E-03   -0.22894E-03 10640   0.121E-02-0.266E-03
CGA:  14    -0.128305110926E+04   -0.89912E-04   -0.12364E-03 10640   0.253E-03 0.243E-03
CGA:  15    -0.128305113304E+04   -0.23772E-04   -0.40745E-04 10640   0.167E-03 0.167E-03
CGA:  16    -0.128305057735E+04    0.55568E-03   -0.30126E-03 10640   0.933E-02-0.636E-03
CGA:  17    -0.128305132052E+04   -0.74316E-03   -0.86374E-03 10640   0.285E-03 0.461E-03
CGA:  18    -0.128305130819E+04    0.12323E-04   -0.28606E-04 10640   0.116E-03 0.133E-03
CGA:  19    -0.128305131264E+04   -0.44468E-05   -0.24544E-04 10640   0.107E-03 0.822E-04
CGA:  20    -0.128305143874E+04   -0.12610E-03    0.35663E-04 10640   0.456E-03-0.882E-04
CGA:  21    -0.128305142197E+04    0.16767E-04   -0.30604E-04 10640   0.774E-04 0.155E-03
CGA:  22    -0.128305140823E+04    0.13738E-04   -0.51633E-05 10640   0.465E-04 0.609E-04
CGA:  23    -0.128305140871E+04   -0.47728E-06   -0.77788E-05 10640   0.429E-04 0.410E-04
CGA:  24    -0.128305144830E+04   -0.39586E-04    0.19350E-04 10640   0.443E-04 0.378E-04
CGA:  25    -0.128305144790E+04    0.39394E-06   -0.63889E-05 10640   0.390E-04 0.353E-04
CGA:  26    -0.128305147651E+04   -0.28606E-04    0.52249E-04 10640   0.463E-04 0.320E-04
CGA:  27    -0.128305148443E+04   -0.79213E-05   -0.98688E-05 10640   0.588E-04 0.172E-04
CGA:  28    -0.128305154750E+04   -0.63073E-04   -0.46813E-04 10640   0.405E-04 0.626E-04
CGA:  29    -0.128305162237E+04   -0.74864E-04    0.38269E-05 10640   0.113E-03-0.132E-04
CGA:  30    -0.128305170449E+04   -0.82119E-04    0.20765E-04 10640   0.244E-03 0.474E-04
CGA:  31    -0.128305170671E+04   -0.22184E-05   -0.40992E-04 10640   0.385E-04 0.182E-03
  19 F= -.12830517E+04 E0= -.12830517E+04  d E =0.187273E-01  mag=    47.0000
       N       E                     dE             d eps       ncg     rms          ort
SDA:   1    -0.126842504049E+04    0.14627E+02    0.00000E+00 10640   0.457E+02 0.000E+00
CGA:   2    -0.127752004612E+04   -0.90950E+01   -0.90788E+01 10640   0.183E+02 0.751E-01
CGA:   3    -0.128178329735E+04   -0.42633E+01   -0.42686E+01 10640   0.619E+01 0.206E-01
CGA:   4    -0.128262568802E+04   -0.84239E+00   -0.84076E+00 10640   0.105E+01 0.347E-01
CGA:   5    -0.128280449981E+04   -0.17881E+00   -0.17857E+00 10640   0.281E+00 0.179E-02
CGA:   6    -0.128285861986E+04   -0.54120E-01   -0.54003E-01 10640   0.881E-01-0.182E-02
CGA:   7    -0.128287581816E+04   -0.17198E-01   -0.17128E-01 10640   0.308E-01-0.352E-03
CGA:   8    -0.128288194165E+04   -0.61235E-02   -0.59964E-02 10640   0.118E-01-0.162E-02
CGA:   9    -0.128288476753E+04   -0.28259E-02   -0.28150E-02 10640   0.638E-02-0.478E-03
CGA:  10    -0.128288651994E+04   -0.17524E-02   -0.17816E-02 10640   0.571E-02-0.152E-02
CGA:  11    -0.128288740989E+04   -0.88995E-03   -0.85239E-03 10640   0.233E-02-0.466E-03
CGA:  12    -0.128288816497E+04   -0.75508E-03   -0.92481E-03 10640   0.301E-02-0.104E-02
CGA:  13    -0.128288857247E+04   -0.40750E-03   -0.59305E-03 10640   0.550E-02-0.235E-02
CGA:  14    -0.128288906969E+04   -0.49722E-03   -0.64012E-03 10640   0.145E-02 0.891E-03
CGA:  15    -0.128288951421E+04   -0.44453E-03   -0.44598E-03 10640   0.578E-03 0.186E-03
CGA:  16    -0.128288971596E+04   -0.20175E-03   -0.22984E-03 10640   0.151E-02-0.351E-03
CGA:  17    -0.128288977004E+04   -0.54077E-04   -0.12807E-03 10640   0.232E-03 0.393E-03
CGA:  18    -0.128288978364E+04   -0.13600E-04   -0.33531E-04 10640   0.182E-03 0.131E-03
CGA:  19    -0.128288989641E+04   -0.11276E-03    0.12271E-03 10640   0.231E-03 0.181E-04
CGA:  20    -0.128288993058E+04   -0.34176E-04   -0.46563E-04 10640   0.111E-03 0.163E-03
CGA:  21    -0.128288992677E+04    0.38102E-05   -0.94312E-05 10640   0.709E-04 0.777E-04
CGA:  22    -0.128288995122E+04   -0.24452E-04   -0.21236E-04 10640   0.620E-04 0.610E-04
CGA:  23    -0.128289007334E+04   -0.12212E-03   -0.13916E-04 10640   0.629E-03 0.338E-05
CGA:  24    -0.128289019901E+04   -0.12566E-03   -0.17435E-03 10640   0.939E-04 0.254E-03
CGA:  25    -0.128289022961E+04   -0.30603E-04   -0.29465E-04 10640   0.116E-03-0.550E-05
CGA:  26    -0.128288963210E+04    0.59751E-03   -0.32401E-03 10640   0.294E-02-0.392E-03
CGA:  27    -0.128288995541E+04   -0.32331E-03   -0.50068E-03 10640   0.881E-03 0.300E-03
CGA:  28    -0.128289033699E+04   -0.38158E-03   -0.29556E-03 10640   0.289E-03-0.187E-03
CGA:  29    -0.128289031444E+04    0.22556E-04   -0.23975E-04 10640   0.102E-03 0.746E-04
CGA:  30    -0.128289029455E+04    0.19886E-04   -0.14817E-04 10640   0.750E-04 0.588E-04
CGA:  31    -0.128289027302E+04    0.21528E-04   -0.82066E-04 10640   0.236E-02-0.248E-03
CGA:  32    -0.128289032727E+04   -0.54252E-04   -0.20325E-03 10640   0.948E-04 0.287E-03
CGA:  33    -0.128289031738E+04    0.98952E-05   -0.11475E-04 10640   0.421E-04 0.384E-04
CGA:  34    -0.128289033499E+04   -0.17610E-04   -0.15462E-04 10640   0.358E-04-0.569E-05
CGA:  35    -0.128289034407E+04   -0.90805E-05   -0.23003E-04 10640   0.463E-03-0.113E-03
CGA:  36    -0.128289033026E+04    0.13809E-04   -0.47980E-04 10640   0.908E-04 0.121E-03
CGA:  37    -0.128289033514E+04   -0.48808E-05   -0.19341E-04 10640   0.478E-04 0.335E-04
CGA:  38    -0.128289037727E+04   -0.42130E-04   -0.27917E-04 10640   0.157E-03-0.931E-04
CGA:  39    -0.128289036043E+04    0.16845E-04   -0.12657E-04 10640   0.367E-04 0.608E-04
CGA:  40    -0.128289035363E+04    0.67962E-05   -0.43391E-05 10640   0.210E-04 0.242E-04
  20 F= -.12828904E+04 E0= -.12828903E+04  d E =0.161353E+00  mag=    47.0000
       N       E                     dE             d eps       ncg     rms          ort
SDA:   1    -0.127889896597E+04    0.39914E+01    0.00000E+00 10640   0.137E+02 0.000E+00
CGA:   2    -0.128151155973E+04   -0.26126E+01   -0.26120E+01 10640   0.516E+01 0.192E-01
CGA:   3    -0.128275737700E+04   -0.12458E+01   -0.12458E+01 10640   0.183E+01 0.904E-02
CGA:   4    -0.128301006941E+04   -0.25269E+00   -0.25192E+00 10640   0.299E+00 0.175E-02
CGA:   5    -0.128306010156E+04   -0.50032E-01   -0.50144E-01 10640   0.829E-01 0.202E-03
CGA:   6    -0.128307568186E+04   -0.15580E-01   -0.15674E-01 10640   0.242E-01 0.822E-03
CGA:   7    -0.128308105055E+04   -0.53687E-02   -0.52107E-02 10640   0.865E-02-0.733E-03
CGA:   8    -0.128308238967E+04   -0.13391E-02   -0.14232E-02 10640   0.278E-02 0.379E-03
CGA:   9    -0.128308334662E+04   -0.95695E-03   -0.91146E-03 10640   0.206E-02-0.421E-03
CGA:  10    -0.128308376104E+04   -0.41442E-03   -0.39242E-03 10640   0.122E-02-0.110E-03
CGA:  11    -0.128308414705E+04   -0.38600E-03   -0.36174E-03 10640   0.941E-03-0.258E-03
CGA:  12    -0.128308440993E+04   -0.26288E-03   -0.23466E-03 10640   0.120E-02-0.329E-03
CGA:  13    -0.128308463758E+04   -0.22765E-03   -0.19309E-03 10640   0.749E-03-0.234E-03
CGA:  14    -0.128308489518E+04   -0.25760E-03   -0.25926E-03 10640   0.630E-03-0.475E-04
CGA:  15    -0.128308514783E+04   -0.25265E-03   -0.31824E-03 10640   0.199E-02-0.452E-03
CGA:  16    -0.128308526727E+04   -0.11944E-03   -0.20597E-03 10640   0.302E-03 0.299E-03
CGA:  17    -0.128308529361E+04   -0.26338E-04   -0.55861E-04 10640   0.162E-03 0.132E-03
CGA:  18    -0.128308535265E+04   -0.59040E-04   -0.58665E-04 10640   0.125E-03-0.332E-05
CGA:  19    -0.128308535356E+04   -0.90498E-06   -0.14491E-04 10640   0.824E-04 0.542E-04
CGA:  20    -0.128308534453E+04    0.90224E-05   -0.10898E-04 10640   0.627E-04 0.755E-04
  21 F= -.12830853E+04 E0= -.12830853E+04  d E =-.194991E+00  mag=    47.0000
       N       E                     dE             d eps       ncg     rms          ort
SDA:   1    -0.128276105030E+04    0.32430E+00    0.00000E+00 10640   0.112E+01 0.000E+00
CGA:   2    -0.128297133471E+04   -0.21028E+00   -0.21020E+00 10640   0.439E+00-0.883E-04
CGA:   3    -0.128306893027E+04   -0.97596E-01   -0.97639E-01 10640   0.185E+00 0.325E-03
CGA:   4    -0.128309411795E+04   -0.25188E-01   -0.25200E-01 10640   0.261E-01 0.745E-03
[...]
CGA:   7    -0.128323266797E+04   -0.33042E-02   -0.32983E-02 10640   0.494E-02-0.117E-03
CGA:   8    -0.128323373387E+04   -0.10659E-02   -0.10450E-02 10640   0.243E-02-0.601E-03
CGA:   9    -0.128323422579E+04   -0.49192E-03   -0.48859E-03 10640   0.116E-02-0.192E-03
CGA:  10    -0.128323452381E+04   -0.29802E-03   -0.30445E-03 10640   0.711E-03-0.161E-03
CGA:  11    -0.128323466414E+04   -0.14033E-03   -0.13982E-03 10640   0.343E-03-0.265E-04
CGA:  12    -0.128323476889E+04   -0.10475E-03   -0.10970E-03 10640   0.293E-03-0.566E-04
CGA:  13    -0.128323479807E+04   -0.29179E-04   -0.13620E-03 10640   0.148E-02-0.348E-03
CGA:  14    -0.128323492242E+04   -0.12436E-03   -0.14096E-03 10640   0.181E-03 0.101E-03
CGA:  15    -0.128323497271E+04   -0.50291E-04   -0.50147E-04 10640   0.834E-04 0.544E-04
CGA:  16    -0.128323500399E+04   -0.31275E-04   -0.41035E-04 10640   0.327E-03-0.807E-04
CGA:  17    -0.128323501962E+04   -0.15634E-04   -0.26851E-04 10640   0.385E-04 0.627E-04
CGA:  18    -0.128323502133E+04   -0.17087E-05   -0.51732E-05 10640   0.317E-04 0.245E-04
CGA:  19    -0.128323503731E+04   -0.15980E-04    0.19013E-03 10640   0.413E-04 0.581E-05
CGA:  20    -0.128323505256E+04   -0.15244E-04   -0.14181E-04 10640   0.202E-04 0.243E-04
CGA:  21    -0.128323505353E+04   -0.97423E-06   -0.27658E-05 10640   0.149E-04 0.160E-04
CGA:  22    -0.128323506182E+04   -0.82946E-05    0.12757E-04 10640   0.126E-04 0.128E-04
  43 F= -.12832351E+04 E0= -.12832350E+04  d E =-.100375E+00  mag=    47.0000
       N       E                     dE             d eps       ncg     rms          ort
SDA:   1    -0.128309388525E+04    0.14117E+00    0.00000E+00 10640   0.466E+00 0.000E+00
CGA:   2    -0.128319141301E+04   -0.97528E-01   -0.97541E-01 10640   0.188E+00 0.558E-03
CGA:   3    -0.128323625993E+04   -0.44847E-01   -0.44847E-01 10640   0.498E-01-0.220E-03
CGA:   4    -0.128324346023E+04   -0.72003E-02   -0.72354E-02 10640   0.911E-02 0.406E-03
CGA:   5    -0.128324523463E+04   -0.17744E-02   -0.17473E-02 10640   0.307E-02-0.616E-03
CGA:   6    -0.128324576212E+04   -0.52749E-03   -0.51709E-03 10640   0.944E-03-0.202E-03
CGA:   7    -0.128324594746E+04   -0.18534E-03   -0.18508E-03 10640   0.257E-03-0.129E-04
CGA:   8    -0.128324598620E+04   -0.38738E-04   -0.12792E-03 10640   0.103E-02-0.321E-03
CGA:   9    -0.128324606838E+04   -0.82180E-04   -0.98212E-04 10640   0.123E-03 0.113E-03
CGA:  10    -0.128324610707E+04   -0.38689E-04   -0.49438E-04 10640   0.144E-03-0.843E-04
CGA:  11    -0.128324611913E+04   -0.12063E-04   -0.67916E-04 10640   0.610E-03-0.241E-03
CGA:  12    -0.128324615015E+04   -0.31017E-04   -0.56280E-04 10640   0.730E-04 0.159E-03
CGA:  13    -0.128324616073E+04   -0.10576E-04   -0.12157E-04 10640   0.237E-04 0.141E-04
CGA:  14    -0.128324619057E+04   -0.29846E-04    0.27722E-05 10640   0.277E-04-0.693E-05
CGA:  15    -0.128324621369E+04   -0.23115E-04    0.15810E-05 10640   0.464E-04 0.100E-04
CGA:  16    -0.128324624583E+04   -0.32147E-04    0.11641E-03 10640   0.322E-04 0.314E-04
CGA:  17    -0.128324627370E+04   -0.27863E-04    0.47477E-05 10640   0.278E-04-0.601E-05
CGA:  18    -0.128324627195E+04    0.17483E-05   -0.13161E-05 10640   0.181E-04 0.170E-04
  44 F= -.12832463E+04 E0= -.12832462E+04  d E =-.112101E-01  mag=    47.0000
       N       E                     dE             d eps       ncg     rms          ort
SDA:   1    -0.128100389685E+04    0.22424E+01    0.00000E+00 10640   0.680E+01 0.000E+00
CGA:   2    -0.128246179908E+04   -0.14579E+01   -0.14579E+01 10640   0.280E+01 0.818E-03
CGA:   3    -0.128312618101E+04   -0.66438E+00   -0.66428E+00 10640   0.652E+00 0.512E-02
CGA:   4    -0.128322789586E+04   -0.10171E+00   -0.10174E+00 10640   0.116E+00-0.461E-03
CGA:   5    -0.128325008892E+04   -0.22193E-01   -0.22169E-01 10640   0.349E-01-0.648E-03
CGA:   6    -0.128325637535E+04   -0.62864E-02   -0.62304E-02 10640   0.125E-01-0.155E-02
CGA:   7    -0.128325873771E+04   -0.23624E-02   -0.23572E-02 10640   0.330E-02-0.298E-03
CGA:   8    -0.128325955147E+04   -0.81375E-03   -0.83895E-03 10640   0.206E-02-0.526E-03
CGA:   9    -0.128325998989E+04   -0.43842E-03   -0.48225E-03 10640   0.179E-02-0.698E-03
CGA:  10    -0.128326027901E+04   -0.28912E-03   -0.40304E-03 10640   0.174E-02-0.941E-03
CGA:  11    -0.128326057297E+04   -0.29396E-03   -0.27819E-03 10640   0.880E-03-0.240E-03
CGA:  12    -0.128326075491E+04   -0.18194E-03   -0.18426E-03 10640   0.298E-03-0.108E-03
CGA:  13    -0.128326085163E+04   -0.96723E-04   -0.10994E-03 10640   0.305E-03-0.668E-04
CGA:  14    -0.128326098357E+04   -0.13194E-03    0.13644E-03 10640   0.222E-03-0.907E-05
CGA:  15    -0.128326089137E+04    0.92195E-04   -0.21889E-03 10640   0.199E-02-0.400E-03
CGA:  16    -0.128326128159E+04   -0.39022E-03   -0.35226E-03 10640   0.794E-03-0.400E-03
CGA:  17    -0.128326133758E+04   -0.55991E-04   -0.74658E-04 10640   0.133E-03 0.127E-03
CGA:  18    -0.128326133951E+04   -0.19296E-05   -0.12824E-04 10640   0.602E-04 0.621E-04
CGA:  19    -0.128326135034E+04   -0.10822E-04   -0.13580E-04 10640   0.642E-04 0.284E-04
CGA:  20    -0.128326067913E+04    0.67121E-03   -0.36260E-03 10640   0.449E-02-0.611E-03
CGA:  21    -0.128326113340E+04   -0.45427E-03   -0.54885E-03 10640   0.946E-03 0.327E-03
CGA:  22    -0.128326136319E+04   -0.22979E-03   -0.22938E-03 10640   0.231E-03-0.140E-05
CGA:  23    -0.128326144480E+04   -0.81614E-04   -0.76692E-04 10640   0.257E-03-0.549E-04
CGA:  24    -0.128326145747E+04   -0.12669E-04   -0.26668E-04 10640   0.944E-04 0.502E-04
CGA:  25    -0.128326146475E+04   -0.72764E-05   -0.13687E-04 10640   0.426E-04 0.229E-04
CGA:  26    -0.128326148099E+04   -0.16242E-04   -0.27765E-04 10640   0.252E-03-0.854E-04
CGA:  27    -0.128326150186E+04   -0.20870E-04   -0.30142E-04 10640   0.240E-04 0.342E-04
CGA:  28    -0.128326151085E+04   -0.89876E-05   -0.77688E-05 10640   0.277E-04-0.126E-04
  45 F= -.12832615E+04 E0= -.12832615E+04  d E =-.152389E-01  mag=    47.0000
       N       E                     dE             d eps       ncg     rms          ort
SDA:   1    -0.128274991747E+04    0.51158E+00    0.00000E+00 10640   0.149E+01 0.000E+00
CGA:   2    -0.128307793912E+04   -0.32802E+00   -0.32829E+00 10640   0.641E+00 0.208E-02
CGA:   3    -0.128322556816E+04   -0.14763E+00   -0.14747E+00 10640   0.163E+00-0.154E-02
CGA:   4    -0.128324919725E+04   -0.23629E-01   -0.23805E-01 10640   0.291E-01 0.992E-03
CGA:   5    -0.128325472233E+04   -0.55251E-02   -0.54388E-02 10640   0.884E-02-0.531E-03
CGA:   6    -0.128325636459E+04   -0.16423E-02   -0.15879E-02 10640   0.285E-02-0.357E-03
CGA:   7    -0.128325692202E+04   -0.55743E-03   -0.55565E-03 10640   0.807E-03-0.109E-04
CGA:   8    -0.128325717055E+04   -0.24853E-03   -0.24309E-03 10640   0.834E-03-0.326E-03
CGA:   9    -0.128325725814E+04   -0.87589E-04   -0.82199E-04 10640   0.356E-03-0.340E-04
CGA:  10    -0.128325735122E+04   -0.93083E-04   -0.88866E-04 10640   0.378E-03-0.834E-04
CGA:  11    -0.128325741086E+04   -0.59637E-04   -0.11573E-03 10640   0.143E-02-0.608E-03
CGA:  12    -0.128325752948E+04   -0.11861E-03   -0.15177E-03 10640   0.252E-03 0.165E-03
CGA:  13    -0.128325759305E+04   -0.63570E-04   -0.64288E-04 10640   0.642E-04 0.985E-05
CGA:  14    -0.128325763853E+04   -0.45484E-04    0.70461E-04 10640   0.955E-04-0.547E-05
CGA:  15    -0.128325765207E+04   -0.13536E-04   -0.16027E-04 10640   0.460E-04 0.217E-04
CGA:  16    -0.128325765434E+04   -0.22710E-05   -0.68819E-05 10640   0.325E-04 0.270E-04
  46 F= -.12832577E+04 E0= -.12832576E+04  d E =0.385651E-02  mag=    47.0000
       N       E                     dE             d eps       ncg     rms          ort
SDA:   1    -0.127336030710E+04    0.98973E+01    0.00000E+00 10640   0.310E+02 0.000E+00
CGA:   2    -0.127964013885E+04   -0.62798E+01   -0.62814E+01 10640   0.120E+02 0.701E-02
CGA:   3    -0.128254361737E+04   -0.29035E+01   -0.29037E+01 10640   0.338E+01 0.591E-02
CGA:   4    -0.128304105333E+04   -0.49744E+00   -0.49617E+00 10640   0.594E+00 0.878E-02
CGA:   5    -0.128314858811E+04   -0.10753E+00   -0.10789E+00 10640   0.164E+00 0.452E-02
CGA:   6    -0.128317930267E+04   -0.30715E-01   -0.30771E-01 10640   0.504E-01 0.900E-03
CGA:   7    -0.128319008150E+04   -0.10779E-01   -0.10730E-01 10640   0.160E-01-0.928E-03
CGA:   8    -0.128319311156E+04   -0.30301E-02   -0.30315E-02 10640   0.650E-02 0.593E-04
CGA:   9    -0.128319493648E+04   -0.18249E-02   -0.18465E-02 10640   0.391E-02-0.828E-03
CGA:  10    -0.128319557634E+04   -0.63987E-03   -0.66865E-03 10640   0.148E-02 0.470E-03
CGA:  11    -0.128319612907E+04   -0.55273E-03   -0.56344E-03 10640   0.823E-03-0.126E-03
CGA:  12    -0.128319638604E+04   -0.25697E-03   -0.26153E-03 10640   0.745E-03-0.524E-04
CGA:  13    -0.128319657315E+04   -0.18710E-03   -0.18760E-03 10640   0.716E-03-0.100E-03
CGA:  14    -0.128319677578E+04   -0.20263E-03   -0.20614E-03 10640   0.555E-03-0.548E-04
CGA:  15    -0.128319691110E+04   -0.13532E-03   -0.13582E-03 10640   0.355E-03 0.178E-03
CGA:  16    -0.128319702272E+04   -0.11162E-03   -0.11566E-03 10640   0.162E-03 0.191E-03
CGA:  17    -0.128319709195E+04   -0.69226E-04   -0.79393E-04 10640   0.378E-03-0.457E-04
CGA:  18    -0.128319710590E+04   -0.13951E-04   -0.29600E-04 10640   0.187E-03 0.928E-04
CGA:  19    -0.128319710804E+04   -0.21372E-05   -0.18640E-04 10640   0.951E-04 0.872E-04
CGA:  20    -0.128319711268E+04   -0.46467E-05   -0.15450E-04 10640   0.932E-04 0.723E-04
CGA:  21    -0.128319713472E+04   -0.22040E-04   -0.34035E-04 10640   0.389E-03-0.106E-03
CGA:  22    -0.128319715015E+04   -0.15427E-04   -0.30666E-04 10640   0.343E-04 0.860E-04
CGA:  23    -0.128319714895E+04    0.11976E-05   -0.29375E-05 10640   0.223E-04 0.231E-04
CGA:  24    -0.128319718207E+04   -0.33119E-04   -0.21786E-04 10640   0.472E-04 0.149E-04
CGA:  25    -0.128319718353E+04   -0.14545E-05   -0.45400E-05 10640   0.172E-04 0.171E-04
  47 F= -.12831972E+04 E0= -.12831971E+04  d E =0.604708E-01  mag=    47.0000
       N       E                     dE             d eps       ncg     rms          ort
SDA:   1    -0.128084092853E+04    0.23563E+01    0.00000E+00 10640   0.796E+01 0.000E+00
CGA:   2    -0.128237329778E+04   -0.15324E+01   -0.15321E+01 10640   0.298E+01 0.345E-02
CGA:   3    -0.128309391093E+04   -0.72061E+00   -0.72067E+00 10640   0.974E+00 0.101E-02
CGA:   4    -0.128323332906E+04   -0.13942E+00   -0.13970E+00 10640   0.158E+00 0.254E-02
CGA:   5    -0.128326222452E+04   -0.28895E-01   -0.28790E-01 10640   0.458E-01-0.132E-02
CGA:   6    -0.128327074500E+04   -0.85205E-02   -0.84843E-02 10640   0.137E-01-0.544E-03
CGA:   7    -0.128327347962E+04   -0.27346E-02   -0.27423E-02 10640   0.371E-02 0.207E-03
CGA:   8    -0.128327438743E+04   -0.90781E-03   -0.90640E-03 10640   0.213E-02-0.586E-03
CGA:   9    -0.128327470812E+04   -0.32069E-03   -0.32727E-03 10640   0.737E-03 0.115E-03
CGA:  10    -0.128327496597E+04   -0.25785E-03   -0.35367E-03 10640   0.955E-03-0.445E-03
CGA:  11    -0.128327514103E+04   -0.17506E-03   -0.17031E-03 10640   0.247E-03-0.643E-04
CGA:  12    -0.128327518210E+04   -0.41067E-04   -0.41371E-04 10640   0.917E-04 0.519E-05
CGA:  13    -0.128327514402E+04    0.38075E-04   -0.95453E-04 10640   0.112E-02-0.172E-03
CGA:  14    -0.128327527669E+04   -0.13267E-03   -0.13010E-03 10640   0.174E-03-0.131E-04
CGA:  15    -0.128327530865E+04   -0.31957E-04   -0.32965E-04 10640   0.457E-04 0.124E-04
CGA:  16    -0.128327532708E+04   -0.18427E-04   -0.21350E-04 10640   0.785E-04-0.176E-04
CGA:  17    -0.128327533163E+04   -0.45470E-05   -0.66768E-05 10640   0.498E-04 0.151E-04
  48 F= -.12832753E+04 E0= -.12832753E+04  d E =-.781481E-01  mag=    47.0000
       N       E                     dE             d eps       ncg     rms          ort
SDA:   1    -0.128302191518E+04    0.25341E+00    0.00000E+00 10640   0.822E+00 0.000E+00
CGA:   2    -0.128319097051E+04   -0.16906E+00   -0.16907E+00 10640   0.318E+00 0.427E-03
CGA:   3    -0.128326901105E+04   -0.78041E-01   -0.78051E-01 10640   0.776E-01 0.572E-03
CGA:   4    -0.128328112969E+04   -0.12119E-01   -0.12182E-01 10640   0.130E-01 0.644E-03
CGA:   5    -0.128328398706E+04   -0.28574E-02   -0.28157E-02 10640   0.422E-02-0.102E-02
CGA:   6    -0.128328461189E+04   -0.62483E-03   -0.63985E-03 10640   0.129E-02 0.177E-03
CGA:   7    -0.128328490647E+04   -0.29459E-03   -0.29162E-03 10640   0.407E-03-0.936E-04
CGA:   8    -0.128328501317E+04   -0.10670E-03   -0.14375E-03 10640   0.742E-03-0.275E-03
CGA:   9    -0.128328506609E+04   -0.52919E-04   -0.70538E-04 10640   0.106E-03 0.113E-03
CGA:  10    -0.128328510220E+04   -0.36113E-04   -0.38154E-04 10640   0.109E-03-0.303E-04
CGA:  11    -0.128328515506E+04   -0.52859E-04    0.26996E-04 10640   0.136E-03-0.381E-04
CGA:  12    -0.128328506251E+04    0.92553E-04   -0.75917E-04 10640   0.107E-02-0.277E-03
CGA:  13    -0.128328521812E+04   -0.15561E-03   -0.16237E-03 10640   0.264E-03 0.539E-04
CGA:  14    -0.128328527090E+04   -0.52781E-04   -0.52564E-04 10640   0.104E-03-0.218E-05
CGA:  15    -0.128328530290E+04   -0.31992E-04   -0.32154E-04 10640   0.593E-04-0.365E-05
CGA:  16    -0.128328530420E+04   -0.13004E-05   -0.56616E-05 10640   0.178E-04 0.254E-04
  49 F= -.12832853E+04 E0= -.12832853E+04  d E =-.997257E-02  mag=    47.0000
       N       E                     dE             d eps       ncg     rms          ort
SDA:   1    -0.128215835377E+04    0.11269E+01    0.00000E+00 10640   0.360E+01 0.000E+00
CGA:   2    -0.128288164339E+04   -0.72329E+00   -0.72335E+00 10640   0.136E+01 0.111E-02
CGA:   3    -0.128321893669E+04   -0.33729E+00   -0.33730E+00 10640   0.345E+00 0.328E-02
CGA:   4    -0.128327362510E+04   -0.54688E-01   -0.54813E-01 10640   0.534E-01 0.126E-02
CGA:   5    -0.128328538283E+04   -0.11758E-01   -0.11716E-01 10640   0.133E-01-0.151E-02
CGA:   6    -0.128328826314E+04   -0.28803E-02   -0.28784E-02 10640   0.421E-02-0.756E-04
CGA:   7    -0.128328922578E+04   -0.96263E-03   -0.95216E-03 10640   0.176E-02-0.652E-03
CGA:   8    -0.128328953917E+04   -0.31339E-03   -0.31198E-03 10640   0.691E-03-0.397E-04
CGA:   9    -0.128328968839E+04   -0.14922E-03   -0.38407E-03 10640   0.224E-02-0.717E-03
CGA:  10    -0.128328994622E+04   -0.25783E-03   -0.26270E-03 10640   0.438E-03 0.403E-04
CGA:  11    -0.128329006390E+04   -0.11768E-03   -0.12036E-03 10640   0.239E-03-0.137E-03
CGA:  12    -0.128329011185E+04   -0.47951E-04   -0.79849E-04 10640   0.585E-03-0.135E-03
CGA:  13    -0.128329019694E+04   -0.85094E-04   -0.75485E-04 10640   0.170E-03-0.704E-04
CGA:  14    -0.128329024433E+04   -0.47391E-04   -0.50412E-04 10640   0.112E-03-0.374E-04
CGA:  15    -0.128329027046E+04   -0.26126E-04   -0.40332E-04 10640   0.378E-03-0.706E-04
CGA:  16    -0.128329032027E+04   -0.49806E-04   -0.45004E-04 10640   0.766E-04-0.306E-04
CGA:  17    -0.128329002846E+04    0.29180E-03   -0.15794E-03 10640   0.328E-02-0.295E-03
CGA:  18    -0.128329034452E+04   -0.31606E-03   -0.34113E-03 10640   0.407E-03 0.831E-04
CGA:  19    -0.128329044837E+04   -0.10385E-03   -0.10692E-03 10640   0.120E-03 0.154E-04
CGA:  20    -0.128329047459E+04   -0.26219E-04   -0.23977E-04 10640   0.217E-04-0.828E-05
CGA:  21    -0.128329047728E+04   -0.26931E-05   -0.48805E-05 10640   0.162E-04 0.111E-04
CGA:  22    -0.128329049543E+04   -0.18150E-04    0.11061E-04 10640   0.580E-04-0.444E-05
CGA:  23    -0.128329005385E+04    0.44158E-03   -0.23756E-03 10640   0.245E-02-0.244E-03
CGA:  24    -0.128329047593E+04   -0.42208E-03   -0.45421E-03 10640   0.697E-03 0.627E-04
CGA:  25    -0.128329064018E+04   -0.16425E-03   -0.16193E-03 10640   0.162E-03-0.358E-05
CGA:  26    -0.128329065342E+04   -0.13239E-04   -0.18352E-04 10640   0.109E-04 0.908E-05
CGA:  27    -0.128329065059E+04    0.28298E-05   -0.12533E-05 10640   0.584E-05 0.699E-05
  50 F= -.12832907E+04 E0= -.12832906E+04  d E =-.534639E-02  mag=    47.0000
       N       E                     dE             d eps       ncg     rms          ort
SDA:   1    -0.128244808331E+04    0.84257E+00    0.00000E+00 10640   0.253E+01 0.000E+00
CGA:   2    -0.128299139292E+04   -0.54331E+00   -0.54333E+00 10640   0.103E+01 0.253E-02
CGA:   3    -0.128323533317E+04   -0.24394E+00   -0.24405E+00 10640   0.249E+00-0.670E-03
CGA:   4    -0.128327435561E+04   -0.39022E-01   -0.39425E-01 10640   0.439E-01 0.139E-02
CGA:   5    -0.128328324590E+04   -0.88903E-02   -0.87390E-02 10640   0.118E-01-0.402E-03
CGA:   6    -0.128328530775E+04   -0.20619E-02   -0.21083E-02 10640   0.418E-02 0.156E-03
CGA:   7    -0.128328619284E+04   -0.88509E-03   -0.83434E-03 10640   0.129E-02-0.147E-03
CGA:   8    -0.128328648534E+04   -0.29250E-03   -0.27441E-03 10640   0.607E-03-0.576E-04
CGA:   9    -0.128328662019E+04   -0.13485E-03   -0.13606E-03 10640   0.283E-03 0.523E-05
CGA:  10    -0.128328670968E+04   -0.89485E-04   -0.85766E-04 10640   0.179E-03-0.190E-04
CGA:  11    -0.128328675259E+04   -0.42915E-04   -0.42165E-04 10640   0.117E-03-0.318E-05
CGA:  12    -0.128328679605E+04   -0.43454E-04   -0.39430E-04 10640   0.132E-03-0.310E-04
CGA:  13    -0.128328683383E+04   -0.37779E-04   -0.32356E-04 10640   0.153E-03-0.413E-04
CGA:  14    -0.128328686501E+04   -0.31187E-04   -0.30623E-04 10640   0.958E-04-0.437E-05
CGA:  15    -0.128328691429E+04   -0.49279E-04   -0.67212E-04 10640   0.253E-03-0.679E-04
CGA:  16    -0.128328692443E+04   -0.10134E-04   -0.29047E-04 10640   0.579E-04 0.547E-04
CGA:  17    -0.128328694989E+04   -0.25461E-04   -0.23647E-04 10640   0.384E-04-0.163E-04
CGA:  18    -0.128328696244E+04   -0.12555E-04   -0.11296E-04 10640   0.126E-03-0.398E-04
CGA:  19    -0.128328696101E+04    0.14297E-05   -0.11222E-04 10640   0.210E-04 0.363E-04
  51 F= -.12832870E+04 E0= -.12832869E+04  d E =0.368957E-02  mag=    47.0000
       N       E                     dE             d eps       ncg     rms          ort
SDA:   1    -0.127175523404E+04    0.11532E+02    0.00000E+00 10640   0.369E+02 0.000E+00
CGA:   2    -0.127903229259E+04   -0.72771E+01   -0.72874E+01 10640   0.138E+02 0.373E-01
CGA:   3    -0.128245373482E+04   -0.34214E+01   -0.34156E+01 10640   0.378E+01 0.206E-01
CGA:   4    -0.128303775796E+04   -0.58402E+00   -0.58833E+00 10640   0.636E+00-0.164E-01
CGA:   5    -0.128315745196E+04   -0.11969E+00   -0.11961E+00 10640   0.168E+00 0.809E-02
CGA:   6    -0.128319122247E+04   -0.33771E-01   -0.33606E-01 10640   0.557E-01-0.252E-02
CGA:   7    -0.128320201014E+04   -0.10788E-01   -0.10881E-01 10640   0.145E-01 0.832E-03
CGA:   8    -0.128320579261E+04   -0.37825E-02   -0.36533E-02 10640   0.836E-02-0.126E-02
CGA:   9    -0.128320737922E+04   -0.15866E-02   -0.15578E-02 10640   0.397E-02-0.185E-03
CGA:  10    -0.128320846722E+04   -0.10880E-02   -0.10738E-02 10640   0.203E-02-0.222E-03
CGA:  11    -0.128320915684E+04   -0.68962E-03   -0.74933E-03 10640   0.335E-02-0.107E-02
CGA:  12    -0.128320945964E+04   -0.30281E-03   -0.36113E-03 10640   0.591E-03 0.264E-03
CGA:  13    -0.128320973723E+04   -0.27759E-03   -0.30431E-03 10640   0.784E-03-0.179E-03
CGA:  14    -0.128320849013E+04    0.12471E-02   -0.62847E-03 10640   0.172E-01-0.230E-02
CGA:  15    -0.128321004444E+04   -0.15543E-02   -0.18564E-02 10640   0.185E-02 0.136E-02
CGA:  16    -0.128321055578E+04   -0.51135E-03   -0.53526E-03 10640   0.892E-03 0.257E-03
CGA:  17    -0.128321083294E+04   -0.27716E-03   -0.24054E-03 10640   0.535E-03-0.302E-03
CGA:  18    -0.128321086504E+04   -0.32096E-04   -0.55809E-04 10640   0.266E-03 0.123E-03
CGA:  19    -0.128321088387E+04   -0.18827E-04   -0.42907E-04 10640   0.149E-03 0.114E-03
CGA:  20    -0.128321095653E+04   -0.72665E-04   -0.73186E-04 10640   0.242E-03-0.398E-04
CGA:  21    -0.128321100394E+04   -0.47408E-04   -0.35845E-04 10640   0.262E-03-0.915E-04
CGA:  22    -0.128321102296E+04   -0.19017E-04   -0.20783E-04 10640   0.299E-03 0.702E-05
CGA:  23    -0.128321105843E+04   -0.35469E-04   -0.51205E-04 10640   0.338E-03 0.102E-03
