       N       E                     dE             d eps       ncg     rms          ort
DAV:   1     0.102849570789E+05    0.10285E+05   -0.42429E+05 10640   0.155E+03
DAV:   2    -0.114566523160E+03   -0.10400E+05   -0.98146E+04 10640   0.474E+02
DAV:   3    -0.152189489078E+04   -0.14073E+04   -0.13118E+04 10640   0.182E+02
DAV:   4    -0.160400845192E+04   -0.82114E+02   -0.79873E+02 10640   0.462E+01
DAV:   5    -0.160637550770E+04   -0.23671E+01   -0.23594E+01 10640   0.839E+00
SDA:   6    -0.725308446739E+03    0.88107E+03   -0.23594E+01 10640   0.298E+04 0.000E+00
CGA:   7    -0.109996164645E+04   -0.37465E+03   -0.37769E+03 10640   0.208E+04-0.504E+02
CGA:   8    -0.113837299713E+04   -0.38411E+02   -0.10564E+03 10640   0.148E+04-0.119E+04
CGA:   9    -0.115429610423E+04   -0.15923E+02   -0.70317E+02 10640   0.201E+04-0.149E+04
CGA:  10    -0.114255289387E+04    0.11743E+02   -0.10973E+03 10640   0.236E+04-0.160E+04
CGA:  11    -0.115439922930E+04   -0.11846E+02   -0.11373E+03 10640   0.273E+04-0.252E+04
CGA:  12    -0.113585167751E+04    0.18548E+02   -0.14568E+03 10640   0.310E+04-0.247E+04
CGA:  13    -0.115026374937E+04   -0.14412E+02   -0.15149E+03 10640   0.315E+04-0.310E+04
CGA:  14    -0.114571243043E+04    0.45513E+01   -0.16151E+03 10640   0.312E+04-0.285E+04
CGA:  15    -0.117578221640E+04   -0.30070E+02   -0.14583E+03 10640   0.259E+04-0.288E+04
CGA:  16    -0.119449233573E+04   -0.18710E+02   -0.11979E+03 10640   0.199E+04-0.216E+04
CGA:  17    -0.122842158724E+04   -0.33929E+02   -0.80340E+02 10640   0.102E+04-0.141E+04
CGA:  18    -0.124851850374E+04   -0.20097E+02   -0.36741E+02 10640   0.340E+03-0.530E+03
CGA:  19    -0.125593558873E+04   -0.74171E+01   -0.11466E+02 10640   0.974E+02-0.112E+03
CGA:  20    -0.126223920429E+04   -0.63036E+01   -0.55261E+01 10640   0.683E+02 0.182E+01
CGA:  21    -0.126786888906E+04   -0.56297E+01   -0.61378E+01 10640   0.822E+02 0.192E+01
CGA:  22    -0.127356461987E+04   -0.56957E+01   -0.44110E+01 10640   0.240E+02 0.507E+01
CGA:  23    -0.127556249639E+04   -0.19979E+01   -0.22177E+01 10640   0.291E+02 0.793E+00
CGA:  24    -0.127743523176E+04   -0.18727E+01   -0.16565E+01 10640   0.156E+02 0.425E+00
CGA:  25    -0.127837819976E+04   -0.94297E+00   -0.11353E+01 10640   0.990E+01-0.644E+00
CGA:  26    -0.127902927189E+04   -0.65107E+00   -0.63730E+00 10640   0.604E+01-0.389E+00
CGA:  27    -0.127963038596E+04   -0.60111E+00   -0.61089E+00 10640   0.365E+01 0.573E+00
CGA:  28    -0.128016154532E+04   -0.53116E+00   -0.53494E+00 10640   0.427E+01-0.332E+00
CGA:  29    -0.128082970269E+04   -0.66816E+00   -0.72926E+00 10640   0.275E+01-0.123E+01
CGA:  30    -0.128112103370E+04   -0.29133E+00   -0.31464E+00 10640   0.282E+01-0.563E+00
CGA:  31    -0.128157515379E+04   -0.45412E+00   -0.60287E+00 10640   0.298E+01-0.101E+01
CGA:  32    -0.128182735805E+04   -0.25220E+00   -0.25295E+00 10640   0.130E+01-0.321E+00
CGA:  33    -0.128212021263E+04   -0.29285E+00   -0.30539E+00 10640   0.154E+01-0.948E-01
CGA:  34    -0.128237089873E+04   -0.25069E+00   -0.25871E+00 10640   0.606E+00-0.164E+00
CGA:  35    -0.128249888686E+04   -0.12799E+00   -0.12180E+00 10640   0.352E+00 0.632E-01
CGA:  36    -0.128259723434E+04   -0.98347E-01   -0.87277E-01 10640   0.188E+00 0.129E+00
CGA:  37    -0.128264315632E+04   -0.45922E-01   -0.42997E-01 10640   0.101E+00 0.121E+00
CGA:  38    -0.128266452115E+04   -0.21365E-01   -0.19065E-01 10640   0.674E-01 0.523E-01
CGA:  39    -0.128267525676E+04   -0.10736E-01   -0.10408E-01 10640   0.486E-01 0.432E-01
CGA:  40    -0.128268350381E+04   -0.82470E-02   -0.77773E-02 10640   0.381E-01 0.364E-01
CGA:  41    -0.128268842500E+04   -0.49212E-02   -0.52442E-02 10640   0.308E-01 0.313E-01
CGA:  42    -0.128269243659E+04   -0.40116E-02   -0.42608E-02 10640   0.258E-01 0.272E-01
CGA:  43    -0.128269514449E+04   -0.27079E-02   -0.32286E-02 10640   0.223E-01 0.237E-01
CGA:  44    -0.128269728827E+04   -0.21438E-02   -0.26811E-02 10640   0.196E-01 0.208E-01
CGA:  45    -0.128269889880E+04   -0.16105E-02   -0.22059E-02 10640   0.175E-01 0.185E-01
CGA:  46    -0.128270017567E+04   -0.12769E-02   -0.18731E-02 10640   0.158E-01 0.166E-01
CGA:  47    -0.128270119111E+04   -0.10154E-02   -0.16052E-02 10640   0.143E-01 0.150E-01
CGA:  48    -0.128270201343E+04   -0.82233E-03   -0.13936E-02 10640   0.131E-01 0.137E-01
CGA:  49    -0.128270268674E+04   -0.67331E-03   -0.12214E-02 10640   0.120E-01 0.125E-01
CGA:  50    -0.128270324402E+04   -0.55728E-03   -0.10796E-02 10640   0.111E-01 0.116E-01
CGA:  51    -0.128270370957E+04   -0.46556E-03   -0.96111E-03 10640   0.103E-01 0.107E-01
CGA:  52    -0.128270410175E+04   -0.39217E-03   -0.86108E-03 10640   0.964E-02 0.997E-02
CGA:  53    -0.128270443460E+04   -0.33285E-03   -0.77578E-03 10640   0.903E-02 0.932E-02
CGA:  54    -0.128270471902E+04   -0.28442E-03   -0.70242E-03 10640   0.848E-02 0.875E-02
CGA:  55    -0.128270496356E+04   -0.24455E-03   -0.63885E-03 10640   0.799E-02 0.823E-02
CGA:  56    -0.128270517503E+04   -0.21147E-03   -0.58339E-03 10640   0.756E-02 0.777E-02
CGA:  57    -0.128270535887E+04   -0.18384E-03   -0.53472E-03 10640   0.717E-02 0.736E-02
CGA:  58    -0.128270551949E+04   -0.16062E-03   -0.49177E-03 10640   0.681E-02 0.698E-02
CGA:  59    -0.128270566049E+04   -0.14100E-03   -0.45369E-03 10640   0.649E-02 0.664E-02
CGA:  60    -0.128270578482E+04   -0.12433E-03   -0.41976E-03 10640   0.619E-02 0.634E-02
CGA:  61    -0.128270589494E+04   -0.11012E-03   -0.38942E-03 10640   0.592E-02 0.606E-02
CGA:  62    -0.128270599288E+04   -0.97938E-04   -0.36218E-03 10640   0.568E-02 0.580E-02
CGA:  63    -0.128270608035E+04   -0.87464E-04   -0.33764E-03 10640   0.545E-02 0.556E-02
CGA:  64    -0.128270615877E+04   -0.78427E-04   -0.31546E-03 10640   0.525E-02 0.535E-02
CGA:  65    -0.128270622938E+04   -0.70608E-04   -0.29535E-03 10640   0.505E-02 0.515E-02
CGA:  66    -0.128270629320E+04   -0.63819E-04   -0.27706E-03 10640   0.488E-02 0.496E-02
CGA:  67    -0.128270635111E+04   -0.57912E-04   -0.26039E-03 10640   0.471E-02 0.479E-02
CGA:  68    -0.128270640387E+04   -0.52758E-04   -0.24515E-03 10640   0.456E-02 0.464E-02
CGA:  69    -0.128270645212E+04   -0.48250E-04   -0.23119E-03 10640   0.442E-02 0.449E-02
CGA:  70    -0.128270649642E+04   -0.44301E-04   -0.21836E-03 10640   0.429E-02 0.435E-02
CGA:  71    -0.128270653725E+04   -0.40832E-04   -0.20656E-03 10640   0.416E-02 0.422E-02
CGA:  72    -0.128270657503E+04   -0.37780E-04   -0.19567E-03 10640   0.405E-02 0.411E-02
CGA:  73    -0.128270661012E+04   -0.35089E-04   -0.18560E-03 10640   0.394E-02 0.399E-02
CGA:  74    -0.128270664283E+04   -0.32712E-04   -0.17628E-03 10640   0.384E-02 0.389E-02
CGA:  75    -0.128270667344E+04   -0.30607E-04   -0.16763E-03 10640   0.375E-02 0.379E-02
CGA:  76    -0.128270670218E+04   -0.28742E-04   -0.15959E-03 10640   0.366E-02 0.370E-02
CGA:  77    -0.128270672927E+04   -0.27084E-04   -0.15210E-03 10640   0.357E-02 0.361E-02
CGA:  78    -0.128270675488E+04   -0.25608E-04   -0.14512E-03 10640   0.349E-02 0.353E-02
CGA:  79    -0.128270677917E+04   -0.24291E-04   -0.13860E-03 10640   0.342E-02 0.345E-02
CGA:  80    -0.128270680228E+04   -0.23113E-04   -0.13249E-03 10640   0.335E-02 0.338E-02
CGA:  81    -0.128270682433E+04   -0.22055E-04   -0.12678E-03 10640   0.328E-02 0.331E-02
CGA:  82    -0.128270684544E+04   -0.21107E-04   -0.12141E-03 10640   0.321E-02 0.325E-02
CGA:  83    -0.128270686569E+04   -0.20250E-04   -0.11637E-03 10640   0.315E-02 0.318E-02
CGA:  84    -0.128270688517E+04   -0.19476E-04   -0.11162E-03 10640   0.310E-02 0.312E-02
CGA:  85    -0.128270690394E+04   -0.18775E-04   -0.10715E-03 10640   0.304E-02 0.307E-02
CGA:  86    -0.128270692208E+04   -0.18137E-04   -0.10293E-03 10640   0.299E-02 0.301E-02
CGA:  87    -0.128270693963E+04   -0.17555E-04   -0.98952E-04 10640   0.294E-02 0.296E-02
CGA:  88    -0.128270695665E+04   -0.17021E-04   -0.95186E-04 10640   0.289E-02 0.292E-02
CGA:  89    -0.128270697318E+04   -0.16531E-04   -0.91623E-04 10640   0.285E-02 0.287E-02
CGA:  90    -0.128270698926E+04   -0.16080E-04   -0.88246E-04 10640   0.280E-02 0.283E-02
CGA:  91    -0.128270700492E+04   -0.15661E-04   -0.85043E-04 10640   0.276E-02 0.278E-02
CGA:  92    -0.128270702020E+04   -0.15272E-04   -0.82002E-04 10640   0.272E-02 0.274E-02
CGA:  93    -0.128270703511E+04   -0.14909E-04   -0.79112E-04 10640   0.269E-02 0.270E-02
CGA:  94    -0.128270704968E+04   -0.14570E-04   -0.76363E-04 10640   0.265E-02 0.267E-02
CGA:  95    -0.128270706393E+04   -0.14249E-04   -0.73745E-04 10640   0.261E-02 0.263E-02
CGA:  96    -0.128270707787E+04   -0.13945E-04   -0.71249E-04 10640   0.258E-02 0.260E-02
CGA:  97    -0.128270709153E+04   -0.13659E-04   -0.68871E-04 10640   0.255E-02 0.256E-02
CGA:  98    -0.128270710492E+04   -0.13389E-04   -0.66602E-04 10640   0.252E-02 0.253E-02
CGA:  99    -0.128270711805E+04   -0.13134E-04   -0.64435E-04 10640   0.249E-02 0.250E-02
CGA: 100    -0.128270713094E+04   -0.12889E-04   -0.62364E-04 10640   0.246E-02 0.247E-02
CGA: 101    -0.128270714360E+04   -0.12654E-04   -0.60384E-04 10640   0.243E-02 0.245E-02
CGA: 102    -0.128270715603E+04   -0.12430E-04   -0.58488E-04 10640   0.241E-02 0.242E-02
CGA: 103    -0.128270716824E+04   -0.12212E-04   -0.56673E-04 10640   0.238E-02 0.239E-02
CGA: 104    -0.128270718024E+04   -0.12003E-04   -0.54933E-04 10640   0.236E-02 0.237E-02
CGA: 105    -0.128270719204E+04   -0.11799E-04   -0.53265E-04 10640   0.233E-02 0.234E-02
CGA: 106    -0.128270720364E+04   -0.11602E-04   -0.51664E-04 10640   0.231E-02 0.232E-02
CGA: 107    -0.128270721505E+04   -0.11410E-04   -0.50127E-04 10640   0.229E-02 0.230E-02
CGA: 108    -0.128270722627E+04   -0.11223E-04   -0.48652E-04 10640   0.227E-02 0.228E-02
CGA: 109    -0.128270723731E+04   -0.11041E-04   -0.47233E-04 10640   0.225E-02 0.226E-02
CGA: 110    -0.128270724818E+04   -0.10863E-04   -0.45869E-04 10640   0.223E-02 0.224E-02
CGA: 111    -0.128270725887E+04   -0.10690E-04   -0.44557E-04 10640   0.221E-02 0.222E-02
CGA: 112    -0.128270726939E+04   -0.10519E-04   -0.43294E-04 10640   0.219E-02 0.220E-02
CGA: 113    -0.128270727974E+04   -0.10353E-04   -0.42078E-04 10640   0.217E-02 0.218E-02
CGA: 114    -0.128270728993E+04   -0.10189E-04   -0.40907E-04 10640   0.215E-02 0.216E-02
CGA: 115    -0.128270729996E+04   -0.10030E-04   -0.39777E-04 10640   0.214E-02 0.214E-02
CGA: 116    -0.128270730983E+04   -0.98712E-05   -0.38689E-04 10640   0.212E-02 0.213E-02
CGA: 117    -0.128270731955E+04   -0.97173E-05   -0.37638E-04 10640   0.210E-02 0.211E-02
CGA: 118    -0.128270732911E+04   -0.95645E-05   -0.36625E-04 10640   0.209E-02 0.210E-02
CGA: 119    -0.128270733853E+04   -0.94156E-05   -0.35647E-04 10640   0.207E-02 0.208E-02
CGA: 120    -0.128270734780E+04   -0.92683E-05   -0.34702E-04 10640   0.206E-02 0.207E-02
CGA: 121    -0.128270735692E+04   -0.91224E-05   -0.33789E-04 10640   0.204E-02 0.205E-02
CGA: 122    -0.128270736590E+04   -0.89813E-05   -0.32907E-04 10640   0.203E-02 0.204E-02
CGA: 123    -0.128270737474E+04   -0.88394E-05   -0.32054E-04 10640   0.202E-02 0.202E-02
CGA: 124    -0.128270738344E+04   -0.87014E-05   -0.31229E-04 10640   0.201E-02 0.201E-02
CGA: 125    -0.128270739201E+04   -0.85647E-05   -0.30431E-04 10640   0.199E-02 0.200E-02
CGA: 126    -0.128270740044E+04   -0.84301E-05   -0.29659E-04 10640   0.198E-02 0.199E-02
CGA: 127    -0.128270740873E+04   -0.82984E-05   -0.28912E-04 10640   0.197E-02 0.198E-02
CGA: 128    -0.128270741690E+04   -0.81668E-05   -0.28187E-04 10640   0.196E-02 0.196E-02
CGA: 129    -0.128270742494E+04   -0.80382E-05   -0.27486E-04 10640   0.195E-02 0.195E-02
CGA: 130    -0.128270743285E+04   -0.79110E-05   -0.26807E-04 10640   0.194E-02 0.194E-02
CGA: 131    -0.128270744064E+04   -0.77860E-05   -0.26148E-04 10640   0.193E-02 0.193E-02
CGA: 132    -0.128270744830E+04   -0.76628E-05   -0.25510E-04 10640   0.192E-02 0.192E-02
CGA: 133    -0.128270745584E+04   -0.75402E-05   -0.24890E-04 10640   0.191E-02 0.191E-02
CGA: 134    -0.128270746326E+04   -0.74212E-05   -0.24290E-04 10640   0.190E-02 0.190E-02
CGA: 135    -0.128270747056E+04   -0.73023E-05   -0.23707E-04 10640   0.189E-02 0.189E-02
CGA: 136    -0.128270747775E+04   -0.71853E-05   -0.23142E-04 10640   0.188E-02 0.188E-02
CGA: 137    -0.128270748482E+04   -0.70709E-05   -0.22593E-04 10640   0.187E-02 0.187E-02
CGA: 138    -0.128270749178E+04   -0.69570E-05   -0.22060E-04 10640   0.186E-02 0.186E-02
CGA: 139    -0.128270749862E+04   -0.68456E-05   -0.21542E-04 10640   0.185E-02 0.186E-02
CGA: 140    -0.128270750536E+04   -0.67356E-05   -0.21039E-04 10640   0.184E-02 0.185E-02
CGA: 141    -0.128270751198E+04   -0.66261E-05   -0.20551E-04 10640   0.184E-02 0.184E-02
CGA: 142    -0.128270751850E+04   -0.65197E-05   -0.20076E-04 10640   0.183E-02 0.183E-02
CGA: 143    -0.128270752492E+04   -0.64142E-05   -0.19614E-04 10640   0.182E-02 0.182E-02
CGA: 144    -0.128270753123E+04   -0.63097E-05   -0.19165E-04 10640   0.181E-02 0.182E-02
CGA: 145    -0.128270753743E+04   -0.62083E-05   -0.18729E-04 10640   0.181E-02 0.181E-02
CGA: 146    -0.128270754354E+04   -0.61066E-05   -0.18305E-04 10640   0.180E-02 0.180E-02
CGA: 147    -0.128270754955E+04   -0.60082E-05   -0.17892E-04 10640   0.179E-02 0.180E-02
CGA: 148    -0.128270755546E+04   -0.59090E-05   -0.17490E-04 10640   0.178E-02 0.179E-02
CGA: 149    -0.128270756127E+04   -0.58131E-05   -0.17099E-04 10640   0.178E-02 0.178E-02
CGA: 150    -0.128270756699E+04   -0.57171E-05   -0.16718E-04 10640   0.177E-02 0.178E-02
CGA: 151    -0.128270757261E+04   -0.56248E-05   -0.16348E-04 10640   0.177E-02 0.177E-02
CGA: 152    -0.128270757815E+04   -0.55316E-05   -0.15987E-04 10640   0.176E-02 0.176E-02
CGA: 153    -0.128270758359E+04   -0.54403E-05   -0.15636E-04 10640   0.175E-02 0.176E-02
CGA: 154    -0.128270758894E+04   -0.53514E-05   -0.15294E-04 10640   0.175E-02 0.175E-02
CGA: 155    -0.128270759420E+04   -0.52630E-05   -0.14960E-04 10640   0.174E-02 0.175E-02
CGA: 156    -0.128270759938E+04   -0.51761E-05   -0.14635E-04 10640   0.174E-02 0.174E-02
CGA: 157    -0.128270760447E+04   -0.50906E-05   -0.14318E-04 10640   0.173E-02 0.173E-02
CGA: 158    -0.128270760947E+04   -0.50060E-05   -0.14010E-04 10640   0.173E-02 0.173E-02
CGA: 159    -0.128270761440E+04   -0.49236E-05   -0.13709E-04 10640   0.172E-02 0.172E-02
CGA: 160    -0.128270761924E+04   -0.48414E-05   -0.13416E-04 10640   0.172E-02 0.172E-02
CGA: 161    -0.128270762400E+04   -0.47611E-05   -0.13130E-04 10640   0.171E-02 0.171E-02
CGA: 162    -0.128270762868E+04   -0.46814E-05   -0.12851E-04 10640   0.171E-02 0.171E-02
CGA: 163    -0.128270763328E+04   -0.46039E-05   -0.12579E-04 10640   0.170E-02 0.170E-02
CGA: 164    -0.128270763781E+04   -0.45269E-05   -0.12313E-04 10640   0.170E-02 0.170E-02
CGA: 165    -0.128270764226E+04   -0.44512E-05   -0.12054E-04 10640   0.169E-02 0.170E-02
CGA: 166    -0.128270764664E+04   -0.43764E-05   -0.11802E-04 10640   0.169E-02 0.169E-02
CGA: 167    -0.128270765094E+04   -0.43041E-05   -0.11555E-04 10640   0.168E-02 0.169E-02
CGA: 168    -0.128270765517E+04   -0.42318E-05   -0.11314E-04 10640   0.168E-02 0.168E-02
CGA: 169    -0.128270765933E+04   -0.41601E-05   -0.11079E-04 10640   0.168E-02 0.168E-02
CGA: 170    -0.128270766343E+04   -0.40911E-05   -0.10850E-04 10640   0.167E-02 0.167E-02
CGA: 171    -0.128270766745E+04   -0.40219E-05   -0.10626E-04 10640   0.167E-02 0.167E-02
CGA: 172    -0.128270767140E+04   -0.39542E-05   -0.10407E-04 10640   0.166E-02 0.167E-02
CGA: 173    -0.128270767529E+04   -0.38877E-05   -0.10194E-04 10640   0.166E-02 0.166E-02
   1 F= -.12827077E+04 E0= -.12827076E+04  d E =-.128271E+04  mag=    47.0000
       N       E                     dE             d eps       ncg     rms          ort
SDA:   1    -0.128270913422E+04   -0.14628E-02    0.00000E+00 10640   0.203E-02 0.000E+00
CGA:   2    -0.128270919009E+04   -0.55866E-04   -0.37941E-04 10640   0.186E-02 0.195E-02
CGA:   3    -0.128270923665E+04   -0.46560E-04   -0.32771E-04 10640   0.174E-02 0.181E-02
CGA:   4    -0.128270927722E+04   -0.40570E-04   -0.29444E-04 10640   0.165E-02 0.170E-02
CGA:   5    -0.128270931362E+04   -0.36398E-04   -0.27125E-04 10640   0.158E-02 0.162E-02
CGA:   6    -0.128270934693E+04   -0.33312E-04   -0.25405E-04 10640   0.152E-02 0.155E-02
CGA:   7    -0.128270937786E+04   -0.30932E-04   -0.24075E-04 10640   0.147E-02 0.150E-02
CGA:   8    -0.128270940690E+04   -0.29041E-04   -0.23015E-04 10640   0.143E-02 0.145E-02
CGA:   9    -0.128270943440E+04   -0.27493E-04   -0.22142E-04 10640   0.140E-02 0.141E-02
CGA:  10    -0.128270946060E+04   -0.26200E-04   -0.21410E-04 10640   0.136E-02 0.138E-02
CGA:  11    -0.128270948570E+04   -0.25101E-04   -0.20783E-04 10640   0.133E-02 0.135E-02
CGA:  12    -0.128270950985E+04   -0.24155E-04   -0.20240E-04 10640   0.131E-02 0.132E-02
CGA:  13    -0.128270953318E+04   -0.23328E-04   -0.19761E-04 10640   0.128E-02 0.130E-02
CGA:  14    -0.128270955578E+04   -0.22599E-04   -0.19336E-04 10640   0.126E-02 0.127E-02
CGA:  15    -0.128270957773E+04   -0.21949E-04   -0.18954E-04 10640   0.124E-02 0.125E-02
CGA:  16    -0.128270959910E+04   -0.21368E-04   -0.18608E-04 10640   0.122E-02 0.123E-02
CGA:  17    -0.128270961994E+04   -0.20843E-04   -0.18292E-04 10640   0.121E-02 0.121E-02
CGA:  18    -0.128270964031E+04   -0.20365E-04   -0.18003E-04 10640   0.119E-02 0.120E-02
CGA:  19    -0.128270966024E+04   -0.19934E-04   -0.17737E-04 10640   0.117E-02 0.118E-02
CGA:  20    -0.128270967978E+04   -0.19538E-04   -0.17490E-04 10640   0.116E-02 0.117E-02
CGA:  21    -0.128270969896E+04   -0.19178E-04   -0.17264E-04 10640   0.114E-02 0.115E-02
CGA:  22    -0.128270971781E+04   -0.18849E-04   -0.17053E-04 10640   0.113E-02 0.114E-02
CGA:  23    -0.128270973635E+04   -0.18545E-04   -0.16856E-04 10640   0.112E-02 0.112E-02
CGA:  24    -0.128270975462E+04   -0.18268E-04   -0.16673E-04 10640   0.111E-02 0.111E-02
CGA:  25    -0.128270977263E+04   -0.18013E-04   -0.16503E-04 10640   0.109E-02 0.110E-02
CGA:  26    -0.128270979041E+04   -0.17782E-04   -0.16345E-04 10640   0.108E-02 0.109E-02
CGA:  27    -0.128270980798E+04   -0.17567E-04   -0.16196E-04 10640   0.107E-02 0.108E-02
CGA:  28    -0.128270982536E+04   -0.17376E-04   -0.16060E-04 10640   0.106E-02 0.107E-02
CGA:  29    -0.128270984256E+04   -0.17200E-04   -0.15933E-04 10640   0.105E-02 0.106E-02
CGA:  30    -0.128270985960E+04   -0.17040E-04   -0.15814E-04 10640   0.104E-02 0.105E-02
CGA:  31    -0.128270987650E+04   -0.16898E-04   -0.15706E-04 10640   0.103E-02 0.104E-02
CGA:  32    -0.128270989327E+04   -0.16772E-04   -0.15608E-04 10640   0.102E-02 0.103E-02
CGA:  33    -0.128270990993E+04   -0.16659E-04   -0.15516E-04 10640   0.101E-02 0.102E-02
CGA:  34    -0.128270992649E+04   -0.16560E-04   -0.15433E-04 10640   0.101E-02 0.101E-02
CGA:  35    -0.128270994296E+04   -0.16477E-04   -0.15358E-04 10640   0.998E-03 0.100E-02
CGA:  36    -0.128270995937E+04   -0.16405E-04   -0.15291E-04 10640   0.989E-03 0.993E-03
CGA:  37    -0.128270997571E+04   -0.16347E-04   -0.15232E-04 10640   0.982E-03 0.986E-03
CGA:  38    -0.128270999202E+04   -0.16301E-04   -0.15181E-04 10640   0.974E-03 0.978E-03
CGA:  39    -0.128271000829E+04   -0.16269E-04   -0.15138E-04 10640   0.966E-03 0.970E-03
CGA:  40    -0.128271002453E+04   -0.16248E-04   -0.15102E-04 10640   0.959E-03 0.963E-03
CGA:  41    -0.128271004077E+04   -0.16238E-04   -0.15073E-04 10640   0.952E-03 0.956E-03
CGA:  42    -0.128271005701E+04   -0.16242E-04   -0.15052E-04 10640   0.945E-03 0.949E-03
CGA:  43    -0.128271007327E+04   -0.16256E-04   -0.15038E-04 10640   0.938E-03 0.942E-03
CGA:  44    -0.128271008955E+04   -0.16284E-04   -0.15033E-04 10640   0.932E-03 0.935E-03
CGA:  45    -0.128271010587E+04   -0.16320E-04   -0.15033E-04 10640   0.925E-03 0.928E-03
CGA:  46    -0.128271012224E+04   -0.16366E-04   -0.15040E-04 10640   0.919E-03 0.922E-03
CGA:  47    -0.128271013867E+04   -0.16425E-04   -0.15055E-04 10640   0.912E-03 0.916E-03
CGA:  48    -0.128271015516E+04   -0.16494E-04   -0.15077E-04 10640   0.906E-03 0.909E-03
CGA:  49    -0.128271017173E+04   -0.16573E-04   -0.15106E-04 10640   0.900E-03 0.903E-03
CGA:  50    -0.128271018840E+04   -0.16666E-04   -0.15143E-04 10640   0.894E-03 0.897E-03
CGA:  51    -0.128271020517E+04   -0.16768E-04   -0.15188E-04 10640   0.888E-03 0.891E-03
CGA:  52    -0.128271022205E+04   -0.16881E-04   -0.15239E-04 10640   0.883E-03 0.886E-03
CGA:  53    -0.128271023906E+04   -0.17008E-04   -0.15300E-04 10640   0.877E-03 0.880E-03
CGA:  54    -0.128271025620E+04   -0.17145E-04   -0.15367E-04 10640   0.871E-03 0.874E-03
CGA:  55    -0.128271027349E+04   -0.17294E-04   -0.15443E-04 10640   0.866E-03 0.869E-03
CGA:  56    -0.128271029095E+04   -0.17452E-04   -0.15525E-04 10640   0.860E-03 0.863E-03
CGA:  57    -0.128271030857E+04   -0.17627E-04   -0.15618E-04 10640   0.855E-03 0.858E-03
CGA:  58    -0.128271032639E+04   -0.17812E-04   -0.15718E-04 10640   0.850E-03 0.853E-03
CGA:  59    -0.128271034440E+04   -0.18010E-04   -0.15827E-04 10640   0.844E-03 0.847E-03
CGA:  60    -0.128271036261E+04   -0.18219E-04   -0.15943E-04 10640   0.839E-03 0.842E-03
CGA:  61    -0.128271038106E+04   -0.18445E-04   -0.16071E-04 10640   0.834E-03 0.837E-03
CGA:  62    -0.128271039974E+04   -0.18682E-04   -0.16206E-04 10640   0.829E-03 0.832E-03
CGA:  63    -0.128271041868E+04   -0.18935E-04   -0.16353E-04 10640   0.824E-03 0.826E-03
CGA:  64    -0.128271043788E+04   -0.19203E-04   -0.16508E-04 10640   0.819E-03 0.821E-03
CGA:  65    -0.128271045737E+04   -0.19486E-04   -0.16674E-04 10640   0.814E-03 0.816E-03
CGA:  66    -0.128271047715E+04   -0.19785E-04   -0.16851E-04 10640   0.808E-03 0.811E-03
CGA:  67    -0.128271049725E+04   -0.20100E-04   -0.17038E-04 10640   0.803E-03 0.806E-03
CGA:  68    -0.128271051768E+04   -0.20434E-04   -0.17238E-04 10640   0.798E-03 0.801E-03
CGA:  69    -0.128271053847E+04   -0.20783E-04   -0.17448E-04 10640   0.793E-03 0.796E-03
CGA:  70    -0.128271055962E+04   -0.21154E-04   -0.17672E-04 10640   0.788E-03 0.791E-03
CGA:  71    -0.128271058117E+04   -0.21544E-04   -0.17909E-04 10640   0.783E-03 0.786E-03
CGA:  72    -0.128271060312E+04   -0.21953E-04   -0.18158E-04 10640   0.778E-03 0.781E-03
CGA:  73    -0.128271062550E+04   -0.22384E-04   -0.18421E-04 10640   0.773E-03 0.776E-03
CGA:  74    -0.128271064834E+04   -0.22843E-04   -0.18703E-04 10640   0.768E-03 0.771E-03
CGA:  75    -0.128271067167E+04   -0.23321E-04   -0.18997E-04 10640   0.763E-03 0.765E-03
CGA:  76    -0.128271069549E+04   -0.23827E-04   -0.19309E-04 10640   0.757E-03 0.760E-03
CGA:  77    -0.128271071985E+04   -0.24358E-04   -0.19637E-04 10640   0.752E-03 0.755E-03
CGA:  78    -0.128271074477E+04   -0.24921E-04   -0.19985E-04 10640   0.747E-03 0.750E-03
CGA:  79    -0.128271077029E+04   -0.25514E-04   -0.20352E-04 10640   0.742E-03 0.744E-03
CGA:  80    -0.128271079643E+04   -0.26140E-04   -0.20740E-04 10640   0.736E-03 0.739E-03
CGA:  81    -0.128271082323E+04   -0.26798E-04   -0.21148E-04 10640   0.731E-03 0.734E-03
CGA:  82    -0.128271085072E+04   -0.27496E-04   -0.21581E-04 10640   0.725E-03 0.728E-03
CGA:  83    -0.128271087895E+04   -0.28230E-04   -0.22036E-04 10640   0.720E-03 0.723E-03
CGA:  84    -0.128271090796E+04   -0.29011E-04   -0.22521E-04 10640   0.714E-03 0.717E-03
CGA:  85    -0.128271093780E+04   -0.29835E-04   -0.23032E-04 10640   0.708E-03 0.711E-03
CGA:  86    -0.128271096850E+04   -0.30707E-04   -0.23573E-04 10640   0.702E-03 0.705E-03
CGA:  87    -0.128271100014E+04   -0.31632E-04   -0.24146E-04 10640   0.696E-03 0.699E-03
CGA:  88    -0.128271103275E+04   -0.32617E-04   -0.24755E-04 10640   0.690E-03 0.693E-03
CGA:  89    -0.128271106641E+04   -0.33657E-04   -0.25397E-04 10640   0.684E-03 0.687E-03
CGA:  90    -0.128271110118E+04   -0.34766E-04   -0.26081E-04 10640   0.678E-03 0.681E-03
CGA:  91    -0.128271113713E+04   -0.35951E-04   -0.26811E-04 10640   0.671E-03 0.674E-03
CGA:  92    -0.128271117434E+04   -0.37211E-04   -0.27585E-04 10640   0.665E-03 0.668E-03
CGA:  93    -0.128271121289E+04   -0.38556E-04   -0.28410E-04 10640   0.658E-03 0.661E-03
CGA:  94    -0.128271125289E+04   -0.39993E-04   -0.29289E-04 10640   0.651E-03 0.654E-03
CGA:  95    -0.128271129442E+04   -0.41538E-04   -0.30232E-04 10640   0.644E-03 0.647E-03
CGA:  96    -0.128271133762E+04   -0.43195E-04   -0.31240E-04 10640   0.636E-03 0.640E-03
CGA:  97    -0.128271138259E+04   -0.44972E-04   -0.32318E-04 10640   0.629E-03 0.632E-03
CGA:  98    -0.128271142948E+04   -0.46892E-04   -0.33478E-04 10640   0.621E-03 0.625E-03
CGA:  99    -0.128271147845E+04   -0.48965E-04   -0.34728E-04 10640   0.613E-03 0.617E-03
CGA: 100    -0.128271152965E+04   -0.51205E-04   -0.36072E-04 10640   0.604E-03 0.609E-03
CGA: 101    -0.128271158330E+04   -0.53646E-04   -0.37531E-04 10640   0.596E-03 0.600E-03
CGA: 102    -0.128271163960E+04   -0.56296E-04   -0.39109E-04 10640   0.587E-03 0.591E-03
CGA: 103    -0.128271169879E+04   -0.59193E-04   -0.40826E-04 10640   0.577E-03 0.582E-03
CGA: 104    -0.128271176116E+04   -0.62375E-04   -0.42702E-04 10640   0.568E-03 0.572E-03
CGA: 105    -0.128271182703E+04   -0.65866E-04   -0.44751E-04 10640   0.557E-03 0.562E-03
CGA: 106    -0.128271189676E+04   -0.69731E-04   -0.47008E-04 10640   0.547E-03 0.552E-03
CGA: 107    -0.128271197078E+04   -0.74025E-04   -0.49502E-04 10640   0.536E-03 0.541E-03
CGA: 108    -0.128271204960E+04   -0.78812E-04   -0.52267E-04 10640   0.524E-03 0.530E-03
CGA: 109    -0.128271213379E+04   -0.84189E-04   -0.55354E-04 10640   0.512E-03 0.518E-03
CGA: 110    -0.128271222405E+04   -0.90263E-04   -0.58819E-04 10640   0.499E-03 0.505E-03
CGA: 111    -0.128271232122E+04   -0.97174E-04   -0.62739E-04 10640   0.485E-03 0.492E-03
CGA: 112    -0.128271242634E+04   -0.10512E-03   -0.67215E-04 10640   0.470E-03 0.477E-03
CGA: 113    -0.128271254067E+04   -0.11432E-03   -0.72365E-04 10640   0.454E-03 0.462E-03
CGA: 114    -0.128271266579E+04   -0.12512E-03   -0.78366E-04 10640   0.437E-03 0.446E-03
CGA: 115    -0.128271280376E+04   -0.13797E-03   -0.85459E-04 10640   0.419E-03 0.428E-03
CGA: 116    -0.128271295727E+04   -0.15350E-03   -0.93975E-04 10640   0.399E-03 0.409E-03
CGA: 117    -0.128271312990E+04   -0.17263E-03   -0.10440E-03 10640   0.377E-03 0.388E-03
CGA: 118    -0.128271332663E+04   -0.19673E-03   -0.11746E-03 10640   0.352E-03 0.364E-03
CGA: 119    -0.128271355467E+04   -0.22804E-03   -0.13436E-03 10640   0.324E-03 0.338E-03
CGA: 120    -0.128271382500E+04   -0.27033E-03   -0.15715E-03 10640   0.291E-03 0.307E-03
CGA: 121    -0.128271415529E+04   -0.33029E-03   -0.18962E-03 10640   0.253E-03 0.271E-03
CGA: 122    -0.128271462571E+04   -0.47042E-03   -0.20218E-02 10640   0.200E-03 0.225E-03
CGA: 123    -0.128271529201E+04   -0.66630E-03   -0.14404E-02 10640   0.128E-03 0.159E-03
CGA: 124    -0.128271592992E+04   -0.63791E-03   -0.14737E-03 10640   0.884E-03 0.356E-04
CGA: 125    -0.128271605856E+04   -0.12864E-03   -0.25432E-03 10640   0.122E-02 0.300E-03
CGA: 126    -0.128271410264E+04    0.19559E-02   -0.19700E-03 10640   0.118E-01 0.143E-02
CGA: 127    -0.128269023921E+04    0.23863E-01   -0.17347E-02 10640   0.141E+00 0.132E-01
CGA: 128    -0.128245892300E+04    0.23132E+00   -0.22482E-01 10640   0.125E+01 0.112E+00
CGA: 129    -0.127961930842E+04    0.28396E+01   -0.17204E+00 10640   0.257E+02 0.174E+01
CGA: 130    -0.127078851576E+04    0.88308E+01   -0.59654E+01 10640   0.589E+02 0.525E+01
CGA: 131    -0.119881188390E+04    0.71977E+02   -0.98791E+01 10640   0.460E+03 0.353E+02
CGA: 132    -0.121014497496E+04   -0.11333E+02   -0.15377E+03 10640   0.238E+03 0.590E+02
CGA: 133    -0.115960483861E+04    0.50540E+02   -0.65808E+02 10640   0.443E+03 0.973E+02
CGA: 134    -0.119467546652E+04   -0.35071E+02   -0.17598E+03 10640   0.192E+03 0.103E+03
CGA: 135    -0.116783444801E+04    0.26841E+02   -0.41070E+02 10640   0.311E+03 0.607E+02
CGA: 136    -0.115700120560E+04    0.10833E+02   -0.91840E+02 10640   0.415E+03 0.137E+03
CGA: 137    -0.119020372255E+04   -0.33203E+02   -0.94372E+02 10640   0.318E+03-0.290E+02
CGA: 138    -0.117081379106E+04    0.19390E+02   -0.28096E+02 10640   0.265E+03 0.118E+03
CGA: 139    -0.120578509417E+04   -0.34971E+02   -0.56046E+02 10640   0.173E+03 0.887E+02
CGA: 140    -0.123410826547E+04   -0.28323E+02   -0.37105E+02 10640   0.162E+03-0.109E+02
CGA: 141    -0.123120828256E+04    0.29000E+01   -0.11400E+02 10640   0.790E+02 0.574E+02
CGA: 142    -0.124174710131E+04   -0.10539E+02   -0.18679E+02 10640   0.158E+03-0.168E+02
CGA: 143    -0.121724559057E+04    0.24502E+02   -0.12183E+02 10640   0.137E+03 0.209E+02
CGA: 144    -0.121335172686E+04    0.38939E+01   -0.22446E+02 10640   0.241E+03 0.153E+02
CGA: 145    -0.113210227856E+04    0.81249E+02   -0.12041E+02 10640   0.230E+03 0.113E+03
CGA: 146    -0.113427725116E+04   -0.21750E+01   -0.43997E+02 10640   0.565E+03-0.128E+02
CGA: 147    -0.925154435366E+03    0.20912E+03   -0.54302E+02 10640   0.592E+03 0.158E+03
CGA: 148    -0.895076428629E+03    0.30078E+02   -0.11825E+03 10640   0.700E+03 0.163E+03
CGA: 149    -0.706558411173E+03    0.18852E+03   -0.66547E+02 10640   0.768E+03 0.210E+03
CGA: 150    -0.674085802930E+03    0.32473E+02   -0.12871E+03 10640   0.130E+04 0.341E+03
CGA: 151    -0.371704601817E+03    0.30238E+03   -0.21571E+03 10640   0.131E+04 0.293E+03
CGA: 152    -0.407356377470E+03   -0.35652E+02   -0.23222E+03 10640   0.176E+04 0.804E+03
CGA: 153    -0.639920592212E+03   -0.23256E+03   -0.23583E+03 10640   0.180E+04 0.175E+03
CGA: 154    -0.887476343444E+03   -0.24756E+03   -0.25247E+03 10640   0.503E+03 0.450E+03
CGA: 155    -0.959727108527E+03   -0.72251E+02   -0.77156E+02 10640   0.118E+04-0.384E+03
CGA: 156    -0.977604197385E+03   -0.17877E+02   -0.10065E+03 10640   0.666E+03-0.276E+03
CGA: 157    -0.103205906945E+04   -0.54455E+02   -0.30597E+02 10640   0.310E+03 0.974E+02
CGA: 158    -0.104625781734E+04   -0.14199E+02   -0.50751E+02 10640   0.607E+03-0.181E+02
CGA: 159    -0.111929003654E+04   -0.73032E+02   -0.65950E+02 10640   0.464E+03-0.660E+02
CGA: 160    -0.115113806128E+04   -0.31848E+02   -0.40643E+02 10640   0.270E+03-0.142E+03
CGA: 161    -0.116939525047E+04   -0.18257E+02   -0.94927E+01 10640   0.671E+02 0.913E+02
CGA: 162    -0.118015864662E+04   -0.10763E+02   -0.11698E+02 10640   0.263E+03 0.528E+00
CGA: 163    -0.119191717026E+04   -0.11759E+02   -0.22947E+02 10640   0.476E+03-0.499E+02
CGA: 164    -0.118195805875E+04    0.99591E+01   -0.19536E+02 10640   0.184E+03 0.163E+03
CGA: 165    -0.119754878837E+04   -0.15591E+02   -0.21226E+02 10640   0.180E+03-0.360E+02
CGA: 166    -0.120314688345E+04   -0.55981E+01   -0.96426E+01 10640   0.161E+03-0.227E+02
CGA: 167    -0.121071836904E+04   -0.75715E+01   -0.94405E+01 10640   0.168E+03 0.961E+01
CGA: 168    -0.121289442544E+04   -0.21761E+01   -0.97484E+01 10640   0.223E+03-0.105E+03
CGA: 169    -0.121894737151E+04   -0.60529E+01   -0.15562E+02 10640   0.196E+03-0.722E+02
CGA: 170    -0.122464713461E+04   -0.56998E+01   -0.98872E+01 10640   0.259E+03-0.929E+02
CGA: 171    -0.124140239821E+04   -0.16755E+02   -0.11423E+02 10640   0.157E+03-0.429E+02
CGA: 172    -0.124696284447E+04   -0.55604E+01   -0.93197E+01 10640   0.120E+03-0.113E+03
CGA: 173    -0.124814927294E+04   -0.11864E+01   -0.71650E+01 10640   0.108E+03-0.598E+02
CGA: 174    -0.124857832538E+04   -0.42905E+00   -0.32545E+01 10640   0.223E+03-0.102E+03
CGA: 175    -0.124062398820E+04    0.79543E+01   -0.12524E+02 10640   0.295E+03-0.151E+03
CGA: 176    -0.124042369624E+04    0.20029E+00   -0.16242E+02 10640   0.198E+03-0.164E+03
CGA: 177    -0.125102140376E+04   -0.10598E+02   -0.79109E+01 10640   0.259E+03-0.431E+03
CGA: 178    -0.124524016936E+04    0.57812E+01   -0.14578E+02 10640   0.163E+03-0.963E+02
CGA: 179    -0.125461327291E+04   -0.93731E+01   -0.39875E+01 10640   0.128E+03-0.196E+03
CGA: 180    -0.124781069278E+04    0.68026E+01   -0.63109E+01 10640   0.158E+03-0.638E+02
CGA: 181    -0.125675646476E+04   -0.89458E+01   -0.31315E+01 10640   0.160E+03-0.186E+03
CGA: 182    -0.125035050363E+04    0.64060E+01   -0.74267E+01 10640   0.335E+03-0.153E+03
CGA: 183    -0.124516325605E+04    0.51872E+01   -0.15186E+02 10640   0.302E+03-0.212E+03
CGA: 184    -0.124654468120E+04   -0.13814E+01   -0.13598E+02 10640   0.166E+03-0.151E+03
CGA: 185    -0.125735629685E+04   -0.10812E+02   -0.51365E+01 10640   0.191E+03-0.367E+03
CGA: 186    -0.125226941158E+04    0.50869E+01   -0.80756E+01 10640   0.272E+03-0.157E+03
CGA: 187    -0.125172289708E+04    0.54651E+00   -0.10550E+02 10640   0.270E+03-0.236E+03
CGA: 188    -0.125121379769E+04    0.50910E+00   -0.11212E+02 10640   0.169E+03-0.148E+03
CGA: 189    -0.125807674195E+04   -0.68629E+01   -0.52033E+01 10640   0.180E+03-0.274E+03
CGA: 190    -0.125611039004E+04    0.19664E+01   -0.66493E+01 10640   0.259E+03-0.197E+03
CGA: 191    -0.125675681879E+04   -0.64643E+00   -0.92072E+01 10640   0.199E+03-0.188E+03
CGA: 192    -0.125727581206E+04   -0.51899E+00   -0.71117E+01 10640   0.242E+03-0.237E+03
CGA: 193    -0.125888300483E+04   -0.16072E+01   -0.81271E+01 10640   0.159E+03-0.166E+03
CGA: 194    -0.126047758163E+04   -0.15946E+01   -0.51297E+01 10640   0.167E+03-0.191E+03
CGA: 195    -0.126163833592E+04   -0.11608E+01   -0.51526E+01 10640   0.991E+02-0.107E+03
CGA: 196    -0.126316060475E+04   -0.15223E+01   -0.26930E+01 10640   0.510E+02-0.734E+02
CGA: 197    -0.126381218876E+04   -0.65158E+00   -0.13580E+01 10640   0.221E+02-0.239E+02
CGA: 198    -0.126492546302E+04   -0.11133E+01   -0.11034E+01 10640   0.164E+02 0.525E+00
CGA: 199    -0.126573725090E+04   -0.81179E+00   -0.90296E+00 10640   0.141E+02 0.293E+00
CGA: 200    -0.126794612563E+04   -0.22089E+01   -0.19135E+01 10640   0.172E+02 0.490E+01
   2 F= -.12679461E+04 E0= -.12679277E+04  d E =0.147615E+02  mag=    47.0556
       N       E                     dE             d eps       ncg     rms          ort
SDA:   1    -0.124650557951E+04    0.19232E+02    0.00000E+00 10640   0.576E+03 0.000E+00
CGA:   2    -0.127558421968E+04   -0.29079E+02   -0.23475E+02 10640   0.657E+02-0.284E+01
CGA:   3    -0.127822299835E+04   -0.26388E+01   -0.27327E+01 10640   0.154E+02-0.152E+01
CGA:   4    -0.127913398369E+04   -0.91099E+00   -0.91477E+00 10640   0.587E+01-0.183E-01
CGA:   5    -0.127995357623E+04   -0.81959E+00   -0.81219E+00 10640   0.579E+01 0.753E-01
CGA:   6    -0.128050464921E+04   -0.55107E+00   -0.54829E+00 10640   0.237E+01-0.107E-01
CGA:   7    -0.128084208497E+04   -0.33744E+00   -0.35640E+00 10640   0.374E+01-0.269E+00
CGA:   8    -0.128107317450E+04   -0.23109E+00   -0.22908E+00 10640   0.225E+01-0.297E+00
CGA:   9    -0.128133194914E+04   -0.25877E+00   -0.27798E+00 10640   0.138E+01-0.392E+00
CGA:  10    -0.128149128952E+04   -0.15934E+00   -0.48537E-01 10640   0.403E+01-0.965E+00
CGA:  11    -0.128194338679E+04   -0.45210E+00   -0.46739E+00 10640   0.103E+01 0.477E-01
CGA:  12    -0.128214599360E+04   -0.20261E+00   -0.20101E+00 10640   0.829E+00 0.232E-01
CGA:  13    -0.128225666519E+04   -0.11067E+00   -0.11064E+00 10640   0.471E+00-0.452E-02
CGA:  14    -0.128235462773E+04   -0.97963E-01   -0.98417E-01 10640   0.348E+00-0.226E-01
CGA:  15    -0.128242221493E+04   -0.67587E-01   -0.70098E-01 10640   0.224E+00-0.434E-01
CGA:  16    -0.128247131278E+04   -0.49098E-01   -0.58550E-01 10640   0.247E+00-0.648E-01
CGA:  17    -0.128251407717E+04   -0.42764E-01   -0.56478E-01 10640   0.219E+00-0.858E-01
CGA:  18    -0.128254524343E+04   -0.31166E-01   -0.67754E-01 10640   0.357E+00-0.119E+00
CGA:  19    -0.128259078520E+04   -0.45542E-01   -0.45275E-01 10640   0.957E-01-0.915E-02
CGA:  20    -0.128261979526E+04   -0.29010E-01   -0.27946E-01 10640   0.682E-01 0.950E-02
CGA:  21    -0.128263645964E+04   -0.16664E-01   -0.16361E-01 10640   0.278E-01 0.116E-01
CGA:  22    -0.128264834634E+04   -0.11887E-01   -0.10945E-01 10640   0.190E-01 0.664E-02
CGA:  23    -0.128265313018E+04   -0.47838E-02   -0.47643E-02 10640   0.800E-02 0.871E-02
CGA:  24    -0.128265637016E+04   -0.32400E-02   -0.29330E-02 10640   0.619E-02 0.595E-02
CGA:  25    -0.128265806795E+04   -0.16978E-02   -0.16420E-02 10640   0.760E-02 0.885E-03
CGA:  26    -0.128266179522E+04   -0.37273E-02   -0.30064E-02 10640   0.723E-02 0.509E-02
CGA:  27    -0.128266299520E+04   -0.12000E-02   -0.12615E-02 10640   0.396E-02 0.161E-02
CGA:  28    -0.128266535268E+04   -0.23575E-02   -0.19833E-02 10640   0.755E-02 0.184E-02
CGA:  29    -0.128267253203E+04   -0.71793E-02   -0.56013E-02 10640   0.981E-02 0.531E-02
CGA:  30    -0.128267434940E+04   -0.18174E-02   -0.18721E-02 10640   0.377E-02 0.125E-02
CGA:  31    -0.128267604617E+04   -0.16968E-02   -0.17444E-02 10640   0.584E-02-0.300E-03
CGA:  32    -0.128267803013E+04   -0.19840E-02   -0.20051E-02 10640   0.110E-01-0.251E-03
CGA:  33    -0.128268415063E+04   -0.61205E-02   -0.57494E-02 10640   0.190E-01 0.781E-03
CGA:  34    -0.128269303685E+04   -0.88862E-02   -0.11154E-01 10640   0.313E-01-0.882E-02
CGA:  35    -0.128269490210E+04   -0.18652E-02   -0.16911E-02 10640   0.147E-01-0.134E-02
CGA:  36    -0.128269596975E+04   -0.10677E-02   -0.12223E-02 10640   0.641E-02 0.790E-03
CGA:  37    -0.128269653446E+04   -0.56471E-03   -0.74647E-03 10640   0.499E-02 0.116E-02
CGA:  38    -0.128269710543E+04   -0.57097E-03   -0.71733E-03 10640   0.367E-02 0.108E-02
CGA:  39    -0.128269748640E+04   -0.38097E-03   -0.49554E-03 10640   0.219E-02 0.835E-03
CGA:  40    -0.128269759865E+04   -0.11226E-03   -0.25169E-03 10640   0.161E-02 0.958E-03
CGA:  41    -0.128269760676E+04   -0.81107E-05   -0.19626E-03 10640   0.146E-02 0.128E-02
CGA:  42    -0.128269772602E+04   -0.11926E-03   -0.19342E-03 10640   0.773E-03 0.819E-03
CGA:  43    -0.128269783878E+04   -0.11276E-03   -0.13744E-03 10640   0.573E-03 0.596E-03
CGA:  44    -0.128269786423E+04   -0.25450E-04   -0.71375E-04 10640   0.480E-03 0.496E-03
CGA:  45    -0.128269788943E+04   -0.25207E-04   -0.62113E-04 10640   0.424E-03 0.444E-03
CGA:  46    -0.128269790137E+04   -0.11934E-04   -0.49123E-04 10640   0.387E-03 0.402E-03
CGA:  47    -0.128269791009E+04   -0.87194E-05   -0.42987E-04 10640   0.358E-03 0.370E-03
CGA:  48    -0.128269791522E+04   -0.51312E-05   -0.37530E-04 10640   0.334E-03 0.344E-03
CGA:  49    -0.128269791839E+04   -0.31711E-05   -0.33487E-04 10640   0.313E-03 0.322E-03
CGA:  50    -0.128269792009E+04   -0.16966E-05   -0.30117E-04 10640   0.296E-03 0.304E-03
CGA:  51    -0.128269792080E+04   -0.71230E-06   -0.27318E-04 10640   0.280E-03 0.287E-03
CGA:  52    -0.128269792082E+04   -0.24836E-07   -0.24938E-04 10640   0.266E-03 0.272E-03
CGA:  53    -0.128269792040E+04    0.42633E-06   -0.22897E-04 10640   0.254E-03 0.259E-03
CGA:  54    -0.128269791970E+04    0.69914E-06   -0.21130E-04 10640   0.242E-03 0.248E-03
CGA:  55    -0.128269791885E+04    0.84361E-06   -0.19586E-04 10640   0.232E-03 0.237E-03
CGA:  56    -0.128269791796E+04    0.89325E-06   -0.18230E-04 10640   0.223E-03 0.227E-03
CGA:  57    -0.128269791709E+04    0.87341E-06   -0.17032E-04 10640   0.214E-03 0.218E-03
CGA:  58    -0.128269791628E+04    0.80429E-06   -0.15968E-04 10640   0.206E-03 0.210E-03
CGA:  59    -0.128269791558E+04    0.70194E-06   -0.15018E-04 10640   0.199E-03 0.203E-03
CGA:  60    -0.128269791501E+04    0.57623E-06   -0.14165E-04 10640   0.192E-03 0.196E-03
CGA:  61    -0.128269791457E+04    0.43755E-06   -0.13397E-04 10640   0.186E-03 0.189E-03
CGA:  62    -0.128269791428E+04    0.29227E-06   -0.12701E-04 10640   0.180E-03 0.183E-03
CGA:  63    -0.128269791413E+04    0.14145E-06   -0.12068E-04 10640   0.175E-03 0.178E-03
CGA:  64    -0.128269791414E+04   -0.69631E-08   -0.11490E-04 10640   0.170E-03 0.173E-03
CGA:  65    -0.128269791429E+04   -0.15233E-06   -0.10959E-04 10640   0.165E-03 0.168E-03
CGA:  66    -0.128269791459E+04   -0.29308E-06   -0.10472E-04 10640   0.161E-03 0.163E-03
CGA:  67    -0.128269791501E+04   -0.42768E-06   -0.10021E-04 10640   0.157E-03 0.159E-03
   3 F= -.12826979E+04 E0= -.12826978E+04  d E =-.147518E+02  mag=    47.0000
       N       E                     dE             d eps       ncg     rms          ort
SDA:   1    -0.128035513869E+04    0.23428E+01    0.00000E+00 10640   0.708E+01 0.000E+00
CGA:   2    -0.128181299592E+04   -0.14579E+01   -0.14591E+01 10640   0.321E+01-0.105E-01
CGA:   3    -0.128245543718E+04   -0.64244E+00   -0.64103E+00 10640   0.117E+01 0.157E-01
CGA:   4    -0.128262596035E+04   -0.17052E+00   -0.17013E+00 10640   0.181E+00 0.243E-01
CGA:   5    -0.128265953642E+04   -0.33576E-01   -0.33485E-01 10640   0.437E-01 0.173E-02
CGA:   6    -0.128266704671E+04   -0.75103E-02   -0.73178E-02 10640   0.121E-01 0.524E-02
CGA:   7    -0.128267006658E+04   -0.30199E-02   -0.29358E-02 10640   0.435E-02 0.993E-03
CGA:   8    -0.128267101916E+04   -0.95257E-03   -0.92694E-03 10640   0.186E-02 0.418E-03
CGA:   9    -0.128267135447E+04   -0.33531E-03   -0.31974E-03 10640   0.766E-03 0.813E-03
CGA:  10    -0.128267148284E+04   -0.12838E-03   -0.13807E-03 10640   0.479E-03 0.714E-03
CGA:  11    -0.128267153351E+04   -0.50666E-04   -0.57086E-04 10640   0.327E-03 0.337E-03
CGA:  12    -0.128267155515E+04   -0.21644E-04   -0.32607E-04 10640   0.274E-03 0.291E-03
CGA:  13    -0.128267156964E+04   -0.14490E-04   -0.25476E-04 10640   0.246E-03 0.258E-03
CGA:  14    -0.128267158106E+04   -0.11416E-04   -0.21833E-04 10640   0.225E-03 0.234E-03
CGA:  15    -0.128267158992E+04   -0.88629E-05   -0.18968E-04 10640   0.209E-03 0.216E-03
CGA:  16    -0.128267159704E+04   -0.71189E-05   -0.16830E-04 10640   0.196E-03 0.202E-03
CGA:  17    -0.128267160285E+04   -0.58110E-05   -0.15127E-04 10640   0.185E-03 0.190E-03
CGA:  18    -0.128267160767E+04   -0.48156E-05   -0.13735E-04 10640   0.175E-03 0.180E-03
CGA:  19    -0.128267161172E+04   -0.40494E-05   -0.12578E-04 10640   0.167E-03 0.171E-03
CGA:  20    -0.128267161517E+04   -0.34541E-05   -0.11600E-04 10640   0.160E-03 0.164E-03
CGA:  21    -0.128267161816E+04   -0.29882E-05   -0.10762E-04 10640   0.154E-03 0.157E-03
CGA:  22    -0.128267162078E+04   -0.26226E-05   -0.10038E-04 10640   0.149E-03 0.151E-03
   4 F= -.12826716E+04 E0= -.12826711E+04  d E =0.262942E-01  mag=    47.0000
       N       E                     dE             d eps       ncg     rms          ort
SDA:   1    -0.126381071424E+04    0.18861E+02    0.00000E+00 10640   0.618E+02 0.000E+00
CGA:   2    -0.127591505828E+04   -0.12104E+02   -0.12101E+02 10640   0.222E+02 0.628E-01
CGA:   3    -0.128150746616E+04   -0.55924E+01   -0.55749E+01 10640   0.598E+01 0.110E+00
CGA:   4    -0.128248121456E+04   -0.97375E+00   -0.97462E+00 10640   0.102E+01-0.175E-01
CGA:   5    -0.128268028357E+04   -0.19907E+00   -0.20035E+00 10640   0.267E+00-0.175E-01
CGA:   6    -0.128273202556E+04   -0.51742E-01   -0.52247E-01 10640   0.987E-01-0.648E-02
CGA:   7    -0.128275124533E+04   -0.19220E-01   -0.20147E-01 10640   0.354E-01-0.115E-01
CGA:   8    -0.128275768606E+04   -0.64407E-02   -0.69071E-02 10640   0.183E-01-0.531E-02
CGA:   9    -0.128276102108E+04   -0.33350E-02   -0.53024E-02 10640   0.229E-01-0.961E-02
CGA:  10    -0.128276396570E+04   -0.29446E-02   -0.28977E-02 10640   0.555E-02-0.212E-02
CGA:  11    -0.128275620413E+04    0.77616E-02   -0.42880E-02 10640   0.854E-01-0.153E-01
CGA:  12    -0.128276561435E+04   -0.94102E-02   -0.94223E-02 10640   0.125E-01 0.553E-03
CGA:  13    -0.128276823471E+04   -0.26204E-02   -0.26195E-02 10640   0.122E-02-0.134E-04
CGA:  14    -0.128276868528E+04   -0.45058E-03   -0.54387E-03 10640   0.158E-02-0.492E-03
CGA:  15    -0.128276922991E+04   -0.54463E-03    0.15127E-02 10640   0.163E-02-0.470E-03
CGA:  16    -0.128276999035E+04   -0.76044E-03    0.63607E-03 10640   0.988E-03 0.169E-03
CGA:  17    -0.128276975900E+04    0.23136E-03   -0.86240E-03 10640   0.115E-01-0.210E-02
CGA:  18    -0.128277139416E+04   -0.16352E-02   -0.14757E-02 10640   0.144E-02-0.103E-02
CGA:  19    -0.128277151573E+04   -0.12157E-03   -0.18117E-03 10640   0.295E-03 0.409E-03
CGA:  20    -0.128277151036E+04    0.53757E-05   -0.35706E-04 10640   0.151E-03 0.224E-03
CGA:  21    -0.128277151562E+04   -0.52643E-05   -0.19932E-04 10640   0.998E-04 0.107E-03
   5 F= -.12827715E+04 E0= -.12827715E+04  d E =-.998948E-01  mag=    47.0000
       N       E                     dE             d eps       ncg     rms          ort
SDA:   1    -0.125088542592E+04    0.31886E+02    0.00000E+00 10640   0.107E+03 0.000E+00
CGA:   2    -0.127038285495E+04   -0.19497E+02   -0.19167E+02 10640   0.422E+02 0.350E+00
CGA:   3    -0.127953014186E+04   -0.91473E+01   -0.91936E+01 10640   0.171E+02 0.543E+00
CGA:   4    -0.128201002106E+04   -0.24799E+01   -0.23189E+01 10640   0.237E+01 0.921E+00
CGA:   5    -0.128247628752E+04   -0.46627E+00   -0.46742E+00 10640   0.642E+00 0.129E-01
CGA:   6    -0.128260186113E+04   -0.12557E+00   -0.12584E+00 10640   0.208E+00 0.952E-02
CGA:   7    -0.128264354090E+04   -0.41680E-01   -0.41586E-01 10640   0.784E-01-0.313E-02
CGA:   8    -0.128265582749E+04   -0.12287E-01   -0.12595E-01 10640   0.268E-01 0.488E-02
CGA:   9    -0.128266334400E+04   -0.75165E-02   -0.75905E-02 10640   0.184E-01-0.209E-02
CGA:  10    -0.128266592053E+04   -0.25765E-02   -0.28299E-02 10640   0.725E-02 0.392E-02
CGA:  11    -0.128266783881E+04   -0.19183E-02   -0.19430E-02 10640   0.364E-02 0.270E-02
CGA:  12    -0.128266895326E+04   -0.11145E-02   -0.11182E-02 10640   0.318E-02 0.681E-03
CGA:  13    -0.128266932523E+04   -0.37196E-03   -0.53466E-03 10640   0.180E-02 0.186E-02
CGA:  14    -0.128266967908E+04   -0.35386E-03   -0.36670E-03 10640   0.108E-02 0.625E-03
CGA:  15    -0.128267016060E+04   -0.48151E-03   -0.44134E-03 10640   0.852E-03 0.500E-03
CGA:  16    -0.128267043070E+04   -0.27010E-03   -0.27622E-03 10640   0.763E-03 0.987E-03
CGA:  17    -0.128267060342E+04   -0.17272E-03   -0.17299E-03 10640   0.498E-03 0.418E-03
CGA:  18    -0.128267070758E+04   -0.10416E-03   -0.10732E-03 10640   0.502E-03 0.268E-03
CGA:  19    -0.128267084766E+04   -0.14008E-03   -0.13815E-03 10640   0.951E-03 0.414E-04
CGA:  20    -0.128267109037E+04   -0.24271E-03   -0.23974E-03 10640   0.657E-03 0.835E-03
CGA:  21    -0.128267121377E+04   -0.12340E-03   -0.11970E-03 10640   0.532E-03-0.771E-04
CGA:  22    -0.128267190507E+04   -0.69130E-03   -0.35342E-04 10640   0.420E-02-0.109E-04
CGA:  23    -0.128267227922E+04   -0.37415E-03   -0.62139E-03 10640   0.465E-03 0.953E-03
CGA:  24    -0.128267238263E+04   -0.10341E-03   -0.10835E-03 10640   0.389E-03 0.220E-04
CGA:  25    -0.128267254396E+04   -0.16133E-03   -0.17623E-03 10640   0.851E-03-0.358E-03
CGA:  26    -0.128267256364E+04   -0.19687E-04   -0.75128E-04 10640   0.158E-03 0.188E-03
CGA:  27    -0.128267262683E+04   -0.63188E-04   -0.10286E-03 10640   0.821E-03-0.253E-03
CGA:  28    -0.128267283111E+04   -0.20428E-03   -0.13183E-03 10640   0.300E-03-0.321E-03
CGA:  29    -0.128267282301E+04    0.81051E-05   -0.15370E-04 10640   0.110E-03 0.815E-04
   6 F= -.12826728E+04 E0= -.12826715E+04  d E =0.986926E-01  mag=    47.0000
       N       E                     dE             d eps       ncg     rms          ort
SDA:   1    -0.123600696306E+04    0.46666E+02    0.00000E+00 10640   0.159E+03 0.000E+00
CGA:   2    -0.126550977340E+04   -0.29503E+02   -0.29470E+02 10640   0.541E+02 0.115E+01
CGA:   3    -0.127953037572E+04   -0.14021E+02   -0.14038E+02 10640   0.160E+02 0.103E+00
CGA:   4    -0.128199554273E+04   -0.24652E+01   -0.24833E+01 10640   0.255E+01-0.152E-01
CGA:   5    -0.128248428988E+04   -0.48875E+00   -0.48693E+00 10640   0.743E+00 0.217E-02
CGA:   6    -0.128262649627E+04   -0.14221E+00   -0.14219E+00 10640   0.238E+00-0.387E-02
CGA:   7    -0.128267694147E+04   -0.50445E-01   -0.49999E-01 10640   0.655E-01-0.421E-02
CGA:   8    -0.128269314570E+04   -0.16204E-01   -0.16054E-01 10640   0.318E-01-0.257E-02
CGA:   9    -0.128270170703E+04   -0.85613E-02   -0.84504E-02 10640   0.215E-01-0.411E-02
CGA:  10    -0.128270712105E+04   -0.54140E-02   -0.53377E-02 10640   0.133E-01-0.438E-02
CGA:  11    -0.128271055928E+04   -0.34382E-02   -0.36856E-02 10640   0.132E-01-0.521E-02
CGA:  12    -0.128271287300E+04   -0.23137E-02   -0.21788E-02 10640   0.930E-02-0.434E-02
CGA:  13    -0.128271509324E+04   -0.22202E-02   -0.30043E-02 10640   0.130E-01-0.438E-02
CGA:  14    -0.128271666115E+04   -0.15679E-02   -0.14210E-02 10640   0.774E-02-0.140E-02
CGA:  15    -0.128271903001E+04   -0.23689E-02   -0.23897E-02 10640   0.588E-02-0.545E-03
CGA:  16    -0.128271983068E+04   -0.80067E-03   -0.91356E-03 10640   0.284E-02 0.799E-03
CGA:  17    -0.128272023211E+04   -0.40143E-03   -0.56587E-03 10640   0.149E-02 0.131E-02
CGA:  18    -0.128272038920E+04   -0.15708E-03   -0.30372E-03 10640   0.761E-03 0.945E-03
CGA:  19    -0.128272043949E+04   -0.50295E-04   -0.11214E-03 10640   0.463E-03 0.443E-03
CGA:  20    -0.128272042260E+04    0.16888E-04   -0.49489E-04 10640   0.365E-03 0.384E-03
CGA:  21    -0.128272040383E+04    0.18772E-04   -0.37691E-04 10640   0.319E-03 0.336E-03
CGA:  22    -0.128272038177E+04    0.22066E-04   -0.29223E-04 10640   0.287E-03 0.300E-03
CGA:  23    -0.128272035954E+04    0.22225E-04   -0.24185E-04 10640   0.263E-03 0.273E-03
CGA:  24    -0.128272033772E+04    0.21822E-04   -0.20439E-04 10640   0.244E-03 0.251E-03
CGA:  25    -0.128272031663E+04    0.21083E-04   -0.17547E-04 10640   0.227E-03 0.234E-03
CGA:  26    -0.128272029644E+04    0.20191E-04   -0.15235E-04 10640   0.213E-03 0.219E-03
CGA:  27    -0.128272027721E+04    0.19229E-04   -0.13348E-04 10640   0.201E-03 0.206E-03
CGA:  28    -0.128272025897E+04    0.18248E-04   -0.11785E-04 10640   0.190E-03 0.195E-03
CGA:  29    -0.128272024169E+04    0.17276E-04   -0.10477E-04 10640   0.181E-03 0.185E-03
CGA:  30    -0.128272022536E+04    0.16330E-04   -0.93713E-05 10640   0.172E-03 0.176E-03
CGA:  31    -0.128272020994E+04    0.15421E-04   -0.84295E-05 10640   0.165E-03 0.168E-03
CGA:  32    -0.128272019538E+04    0.14556E-04   -0.76212E-05 10640   0.159E-03 0.162E-03
CGA:  33    -0.128272018165E+04    0.13736E-04   -0.69229E-05 10640   0.153E-03 0.155E-03
CGA:  34    -0.128272016869E+04    0.12962E-04   -0.63157E-05 10640   0.148E-03 0.150E-03
CGA:  35    -0.128272015645E+04    0.12234E-04   -0.57843E-05 10640   0.143E-03 0.145E-03
CGA:  36    -0.128272014490E+04    0.11551E-04   -0.53166E-05 10640   0.139E-03 0.141E-03
CGA:  37    -0.128272013399E+04    0.10910E-04   -0.49027E-05 10640   0.135E-03 0.136E-03
CGA:  38    -0.128272012368E+04    0.10310E-04   -0.45344E-05 10640   0.131E-03 0.133E-03
CGA:  39    -0.128272011393E+04    0.97486E-05   -0.42051E-05 10640   0.128E-03 0.129E-03
   7 F= -.12827201E+04 E0= -.12827201E+04  d E =-.472909E-01  mag=    47.0000
       N       E                     dE             d eps       ncg     rms          ort
SDA:   1    -0.127633590308E+04    0.63842E+01    0.00000E+00 10640   0.221E+02 0.000E+00
CGA:   2    -0.128055320583E+04   -0.42173E+01   -0.42200E+01 10640   0.830E+01-0.252E-01
CGA:   3    -0.128257420164E+04   -0.20210E+01   -0.20167E+01 10640   0.270E+01 0.321E-01
CGA:   4    -0.128296462772E+04   -0.39043E+00   -0.39038E+00 10640   0.417E+00 0.128E-01
CGA:   5    -0.128303977306E+04   -0.75145E-01   -0.74934E-01 10640   0.116E+00 0.583E-02
CGA:   6    -0.128306270069E+04   -0.22928E-01   -0.22907E-01 10640   0.343E-01 0.420E-03
CGA:   7    -0.128306972782E+04   -0.70271E-02   -0.69241E-02 10640   0.916E-02 0.180E-02
CGA:   8    -0.128307188860E+04   -0.21608E-02   -0.21870E-02 10640   0.456E-02-0.313E-03
CGA:   9    -0.128307282854E+04   -0.93994E-03   -0.92028E-03 10640   0.193E-02 0.337E-03
CGA:  10    -0.128307326787E+04   -0.43933E-03   -0.40787E-03 10640   0.662E-03 0.721E-03
CGA:  11    -0.128307344682E+04   -0.17895E-03   -0.16563E-03 10640   0.342E-03 0.488E-03
CGA:  12    -0.128307354058E+04   -0.93764E-04   -0.80943E-04 10640   0.269E-03 0.159E-03
CGA:  13    -0.128307361981E+04   -0.79229E-04   -0.73172E-04 10640   0.147E-03 0.243E-03
CGA:  14    -0.128307364334E+04   -0.23524E-04   -0.23654E-04 10640   0.115E-03 0.121E-03
CGA:  15    -0.128307367474E+04   -0.31405E-04   -0.25393E-04 10640   0.102E-03 0.103E-03
CGA:  16    -0.128307369364E+04   -0.18897E-04   -0.17901E-04 10640   0.927E-04 0.907E-04
CGA:  17    -0.128307372103E+04   -0.27393E-04   -0.21814E-04 10640   0.876E-04 0.793E-04
CGA:  18    -0.128307373680E+04   -0.15766E-04   -0.15328E-04 10640   0.805E-04 0.688E-04
CGA:  19    -0.128307376154E+04   -0.24747E-04   -0.20127E-04 10640   0.880E-04 0.567E-04
CGA:  20    -0.128307377430E+04   -0.12753E-04   -0.13620E-04 10640   0.730E-04 0.477E-04
CGA:  21    -0.128307379680E+04   -0.22500E-04   -0.19164E-04 10640   0.968E-04 0.368E-04
CGA:  22    -0.128307380871E+04   -0.11918E-04   -0.13231E-04 10640   0.636E-04 0.329E-04
CGA:  23    -0.128307384470E+04   -0.35983E-04   -0.26134E-04 10640   0.851E-04 0.740E-04
CGA:  24    -0.128307386176E+04   -0.17065E-04   -0.17276E-04 10640   0.105E-03-0.956E-05
CGA:  25    -0.128307396873E+04   -0.10697E-03   -0.68406E-04 10640   0.792E-04 0.680E-04
CGA:  26    -0.128307397694E+04   -0.82075E-05   -0.90105E-05 10640   0.262E-04 0.843E-05
   8 F= -.12830740E+04 E0= -.12830740E+04  d E =-.353863E+00  mag=    47.0000
       N       E                     dE             d eps       ncg     rms          ort
SDA:   1    -0.127998843623E+04    0.30855E+01    0.00000E+00 10640   0.101E+02 0.000E+00
CGA:   2    -0.128193056775E+04   -0.19421E+01   -0.19420E+01 10640   0.385E+01 0.437E-02
CGA:   3    -0.128285715684E+04   -0.92659E+00   -0.92618E+00 10640   0.130E+01 0.518E-02
CGA:   4    -0.128303962121E+04   -0.18246E+00   -0.18269E+00 10640   0.197E+00 0.128E-01
CGA:   5    -0.128307575847E+04   -0.36137E-01   -0.36156E-01 10640   0.551E-01 0.100E-02
CGA:   6    -0.128308628141E+04   -0.10523E-01   -0.10537E-01 10640   0.158E-01 0.122E-02
CGA:   7    -0.128308959884E+04   -0.33174E-02   -0.33146E-02 10640   0.457E-02 0.730E-03
CGA:   8    -0.128309057924E+04   -0.98040E-03   -0.97970E-03 10640   0.196E-02 0.214E-03
CGA:   9    -0.128309101809E+04   -0.43885E-03   -0.43485E-03 10640   0.838E-03 0.402E-03
CGA:  10    -0.128309116224E+04   -0.14416E-03   -0.16518E-03 10640   0.372E-03 0.546E-03
CGA:  11    -0.128309122166E+04   -0.59412E-04   -0.65586E-04 10640   0.225E-03 0.257E-03
CGA:  12    -0.128309124995E+04   -0.28293E-04   -0.35942E-04 10640   0.182E-03 0.194E-03
CGA:  13    -0.128309127236E+04   -0.22415E-04   -0.28795E-04 10640   0.157E-03 0.164E-03
CGA:  14    -0.128309129007E+04   -0.17705E-04   -0.23883E-04 10640   0.139E-03 0.145E-03
CGA:  15    -0.128309130411E+04   -0.14037E-04   -0.20257E-04 10640   0.126E-03 0.131E-03
CGA:  16    -0.128309131766E+04   -0.13558E-04   -0.18685E-04 10640   0.116E-03 0.120E-03
CGA:  17    -0.128309132881E+04   -0.11151E-04   -0.16377E-04 10640   0.107E-03 0.111E-03
CGA:  18    -0.128309134014E+04   -0.11321E-04   -0.15575E-04 10640   0.100E-03 0.104E-03
CGA:  19    -0.128309135025E+04   -0.10113E-04   -0.14199E-04 10640   0.939E-04 0.968E-04
CGA:  20    -0.128309136055E+04   -0.10297E-04   -0.13635E-04 10640   0.883E-04 0.910E-04
CGA:  21    -0.128309137035E+04   -0.98024E-05   -0.12805E-04 10640   0.833E-04 0.857E-04
CGA:  22    -0.128309138037E+04   -0.10022E-04   -0.12405E-04 10640   0.787E-04 0.809E-04
CGA:  23    -0.128309139031E+04   -0.99413E-05   -0.11905E-04 10640   0.745E-04 0.765E-04
CGA:  24    -0.128309140059E+04   -0.10280E-04   -0.11662E-04 10640   0.706E-04 0.725E-04
CGA:  25    -0.128309141106E+04   -0.10473E-04   -0.11385E-04 10640   0.669E-04 0.687E-04
CGA:  26    -0.128309142205E+04   -0.10987E-04   -0.11304E-04 10640   0.633E-04 0.650E-04
CGA:  27    -0.128309143348E+04   -0.11428E-04   -0.11216E-04 10640   0.599E-04 0.616E-04
CGA:  28    -0.128309144570E+04   -0.12223E-04   -0.11332E-04 10640   0.566E-04 0.582E-04
CGA:  29    -0.128309145868E+04   -0.12981E-04   -0.11452E-04 10640   0.533E-04 0.549E-04
CGA:  30    -0.128309147303E+04   -0.14347E-04   -0.11902E-04 10640   0.500E-04 0.516E-04
CGA:  31    -0.128309148862E+04   -0.15590E-04   -0.12308E-04 10640   0.467E-04 0.483E-04
CGA:  32    -0.128309150732E+04   -0.18703E-04   -0.13691E-04 10640   0.431E-04 0.448E-04
CGA:  33    -0.128309152706E+04   -0.19733E-04   -0.14039E-04 10640   0.399E-04 0.410E-04
CGA:  34    -0.128309156551E+04   -0.38454E-04   -0.24395E-04 10640   0.505E-04 0.335E-04
CGA:  35    -0.128309157054E+04   -0.50331E-05   -0.69022E-05 10640   0.374E-04 0.238E-04
CGA:  36    -0.128309162783E+04   -0.57288E-04   -0.37772E-04 10640   0.977E-04 0.405E-04
CGA:  37    -0.128309164879E+04   -0.20958E-04   -0.18566E-04 10640   0.105E-03-0.531E-04
CGA:  38    -0.128309165446E+04   -0.56718E-05   -0.92032E-05 10640   0.225E-04 0.246E-04
CGA:  39    -0.128309166618E+04   -0.11714E-04   -0.10790E-04 10640   0.981E-04 0.557E-05
CGA:  40    -0.128309173120E+04   -0.65021E-04    0.10386E-03 10640   0.134E-03 0.863E-04
CGA:  41    -0.128309175714E+04   -0.25946E-04   -0.22343E-04 10640   0.695E-04-0.540E-04
CGA:  42    -0.128309176514E+04   -0.79980E-05   -0.82290E-05 10640   0.292E-04 0.734E-05
CGA:  43    -0.128309168679E+04    0.78355E-04   -0.43125E-04 10640   0.137E-02-0.999E-04
CGA:  44    -0.128309185129E+04   -0.16450E-03   -0.14685E-03 10640   0.102E-03-0.536E-04
CGA:  45    -0.128309186290E+04   -0.11612E-04   -0.14714E-04 10640   0.697E-05 0.124E-04
CGA:  46    -0.128309187535E+04   -0.12453E-04    0.14527E-05 10640   0.869E-05 0.341E-05
CGA:  47    -0.128309189169E+04   -0.16336E-04    0.40447E-05 10640   0.939E-05 0.108E-04
CGA:  48    -0.128309190456E+04   -0.12874E-04    0.23951E-05 10640   0.148E-04-0.960E-06
CGA:  49    -0.128309189548E+04    0.90876E-05   -0.13515E-04 10640   0.298E-03-0.358E-04
CGA:  50    -0.128309194040E+04   -0.44920E-04   -0.36837E-04 10640   0.543E-04-0.265E-04
CGA:  51    -0.128309195331E+04   -0.12912E-04   -0.11971E-04 10640   0.587E-05-0.571E-05
CGA:  52    -0.128309195263E+04    0.67887E-06   -0.36387E-06 10640   0.269E-05 0.318E-05
   9 F= -.12830920E+04 E0= -.12830919E+04  d E =-.179757E-01  mag=    47.0000
       N       E                     dE             d eps       ncg     rms          ort
SDA:   1    -0.127363728908E+04    0.94547E+01    0.00000E+00 10640   0.303E+02 0.000E+00
CGA:   2    -0.127953701612E+04   -0.58997E+01   -0.59007E+01 10640   0.115E+02 0.405E-01
CGA:   3    -0.128240829581E+04   -0.28713E+01   -0.28738E+01 10640   0.337E+01 0.692E-03
CGA:   4    -0.128291153869E+04   -0.50324E+00   -0.50061E+00 10640   0.523E+00 0.117E-01
CGA:   5    -0.128300851829E+04   -0.96980E-01   -0.96845E-01 10640   0.161E+00-0.152E-02
CGA:   6    -0.128303758826E+04   -0.29070E-01   -0.28943E-01 10640   0.483E-01-0.456E-03
CGA:   7    -0.128304802062E+04   -0.10432E-01   -0.10323E-01 10640   0.128E-01-0.858E-03
CGA:   8    -0.128305087829E+04   -0.28577E-02   -0.28294E-02 10640   0.567E-02-0.255E-03
CGA:   9    -0.128305244235E+04   -0.15641E-02   -0.15153E-02 10640   0.406E-02-0.966E-03
CGA:  10    -0.128305340137E+04   -0.95902E-03   -0.90336E-03 10640   0.268E-02-0.106E-02
CGA:  11    -0.128305404653E+04   -0.64516E-03   -0.78641E-03 10640   0.411E-02-0.177E-02
CGA:  12    -0.128305453108E+04   -0.48454E-03   -0.48276E-03 10640   0.968E-03 0.828E-05
CGA:  13    -0.128305488779E+04   -0.35672E-03   -0.36841E-03 10640   0.683E-03-0.171E-03
CGA:  14    -0.128305505622E+04   -0.16842E-03   -0.16780E-03 10640   0.539E-03-0.372E-04
CGA:  15    -0.128305505888E+04   -0.26600E-05   -0.37676E-03 10640   0.352E-02-0.880E-03
CGA:  16    -0.128305540561E+04   -0.34674E-03   -0.40498E-03 10640   0.572E-03 0.276E-03
CGA:  17    -0.128305553183E+04   -0.12622E-03   -0.13497E-03 10640   0.192E-03 0.829E-04
CGA:  18    -0.128305561282E+04   -0.80988E-04   -0.89618E-04 10640   0.496E-03-0.975E-04
CGA:  19    -0.128305564487E+04   -0.32049E-04   -0.52399E-04 10640   0.735E-04 0.948E-04
CGA:  20    -0.128305566108E+04   -0.16216E-04   -0.19202E-04 10640   0.722E-04 0.319E-04
CGA:  21    -0.128305569190E+04   -0.30819E-04   -0.72572E-04 10640   0.503E-03-0.107E-03
CGA:  22    -0.128305573615E+04   -0.44246E-04   -0.67041E-04 10640   0.115E-03 0.118E-03
CGA:  23    -0.128305575716E+04   -0.21010E-04   -0.26773E-04 10640   0.346E-04 0.444E-04
CGA:  24    -0.128305577446E+04   -0.17303E-04   -0.21499E-04 10640   0.150E-03-0.307E-04
CGA:  25    -0.128305577967E+04   -0.52145E-05   -0.15182E-04 10640   0.332E-04 0.462E-04
  10 F= -.12830558E+04 E0= -.12830558E+04  d E =0.361730E-01  mag=    47.0000
       N       E                     dE             d eps       ncg     rms          ort
SDA:   1    -0.125752532571E+04    0.25530E+02    0.00000E+00 10640   0.847E+02 0.000E+00
CGA:   2    -0.127347376145E+04   -0.15948E+02   -0.15934E+02 10640   0.298E+02 0.158E+00
CGA:   3    -0.128120103626E+04   -0.77273E+01   -0.77311E+01 10640   0.857E+01 0.543E-01
CGA:   4    -0.128253088131E+04   -0.13298E+01   -0.13304E+01 10640   0.122E+01 0.503E-01
CGA:   5    -0.128278112871E+04   -0.25025E+00   -0.25068E+00 10640   0.351E+00 0.373E-02
CGA:   6    -0.128284552217E+04   -0.64393E-01   -0.64698E-01 10640   0.134E+00 0.480E-02
CGA:   7    -0.128287041095E+04   -0.24889E-01   -0.24782E-01 10640   0.343E-01-0.869E-03
CGA:   8    -0.128287811563E+04   -0.77047E-02   -0.77468E-02 10640   0.127E-01 0.101E-02
CGA:   9    -0.128288138637E+04   -0.32707E-02   -0.32883E-02 10640   0.664E-02 0.967E-03
CGA:  10    -0.128288237473E+04   -0.98835E-03   -0.12050E-02 10640   0.236E-02 0.220E-02
CGA:  11    -0.128288294396E+04   -0.56923E-03   -0.64846E-03 10640   0.108E-02 0.140E-02
CGA:  12    -0.128288317947E+04   -0.23551E-03   -0.24789E-03 10640   0.820E-03 0.415E-03
CGA:  13    -0.128288325815E+04   -0.78680E-04   -0.16730E-03 10640   0.459E-03 0.794E-03
CGA:  14    -0.128288327693E+04   -0.18782E-04   -0.62528E-04 10640   0.357E-03 0.374E-03
CGA:  15    -0.128288328698E+04   -0.10051E-04   -0.48022E-04 10640   0.321E-03 0.336E-03
CGA:  16    -0.128288329148E+04   -0.44971E-05   -0.40335E-04 10640   0.296E-03 0.308E-03
CGA:  17    -0.128288329472E+04   -0.32370E-05   -0.36004E-04 10640   0.276E-03 0.286E-03
CGA:  18    -0.128288329585E+04   -0.11350E-05   -0.31846E-04 10640   0.259E-03 0.267E-03
CGA:  19    -0.128288329587E+04   -0.21082E-07   -0.28636E-04 10640   0.244E-03 0.251E-03
CGA:  20    -0.128288329500E+04    0.87767E-06   -0.25879E-04 10640   0.231E-03 0.237E-03
CGA:  21    -0.128288329351E+04    0.14821E-05   -0.23552E-04 10640   0.219E-03 0.225E-03
CGA:  22    -0.128288329162E+04    0.18928E-05   -0.21555E-04 10640   0.209E-03 0.214E-03
CGA:  23    -0.128288328946E+04    0.21567E-05   -0.19828E-04 10640   0.200E-03 0.205E-03
CGA:  24    -0.128288328715E+04    0.23124E-05   -0.18323E-04 10640   0.192E-03 0.196E-03
CGA:  25    -0.128288328476E+04    0.23883E-05   -0.17000E-04 10640   0.185E-03 0.188E-03
CGA:  26    -0.128288328236E+04    0.24052E-05   -0.15831E-04 10640   0.178E-03 0.181E-03
CGA:  27    -0.128288327999E+04    0.23716E-05   -0.14798E-04 10640   0.172E-03 0.175E-03
CGA:  28    -0.128288327767E+04    0.23129E-05   -0.13870E-04 10640   0.166E-03 0.169E-03
CGA:  29    -0.128288327543E+04    0.22450E-05   -0.13030E-04 10640   0.161E-03 0.164E-03
CGA:  30    -0.128288327326E+04    0.21694E-05   -0.12264E-04 10640   0.156E-03 0.159E-03
CGA:  31    -0.128288327117E+04    0.20891E-05   -0.11566E-04 10640   0.152E-03 0.154E-03
CGA:  32    -0.128288326916E+04    0.20059E-05   -0.10925E-04 10640   0.148E-03 0.150E-03
CGA:  33    -0.128288326724E+04    0.19224E-05   -0.10336E-04 10640   0.144E-03 0.146E-03
  11 F= -.12828833E+04 E0= -.12828826E+04  d E =0.172512E+00  mag=    47.0000
       N       E                     dE             d eps       ncg     rms          ort
SDA:   1    -0.127237839801E+04    0.10505E+02    0.00000E+00 10640   0.356E+02 0.000E+00
CGA:   2    -0.127914668408E+04   -0.67683E+01   -0.67659E+01 10640   0.131E+02 0.541E-01
CGA:   3    -0.128244890147E+04   -0.33022E+01   -0.33007E+01 10640   0.407E+01 0.554E-02
CGA:   4    -0.128304819306E+04   -0.59929E+00   -0.59925E+00 10640   0.625E+00-0.940E-02
CGA:   5    -0.128315926071E+04   -0.11107E+00   -0.11106E+00 10640   0.191E+00 0.123E-02
CGA:   6    -0.128319463305E+04   -0.35372E-01   -0.35480E-01 10640   0.573E-01-0.322E-02
CGA:   7    -0.128320647640E+04   -0.11843E-01   -0.11894E-01 10640   0.150E-01-0.850E-03
CGA:   8    -0.128320960512E+04   -0.31287E-02   -0.31437E-02 10640   0.637E-02-0.256E-03
CGA:   9    -0.128321119968E+04   -0.15946E-02   -0.20379E-02 10640   0.716E-02-0.268E-02
CGA:  10    -0.128321199461E+04   -0.79493E-03   -0.96522E-03 10640   0.385E-02-0.267E-02
CGA:  11    -0.128320516730E+04    0.68273E-02   -0.36832E-02 10640   0.424E-01-0.100E-01
CGA:  12    -0.128321189276E+04   -0.67255E-02   -0.66097E-02 10640   0.108E-01-0.738E-03
CGA:  13    -0.128321351539E+04   -0.16226E-02   -0.17483E-02 10640   0.246E-02 0.909E-03
CGA:  14    -0.128321408284E+04   -0.56745E-03   -0.61349E-03 10640   0.150E-02 0.663E-03
CGA:  15    -0.128321460716E+04   -0.52432E-03   -0.52667E-03 10640   0.840E-03 0.118E-03
CGA:  16    -0.128321470957E+04   -0.10242E-03   -0.14868E-03 10640   0.253E-03 0.354E-03
CGA:  17    -0.128321472545E+04   -0.15878E-04   -0.44431E-04 10640   0.105E-03 0.173E-03
CGA:  18    -0.128321475043E+04   -0.24977E-04   -0.25851E-04 10640   0.724E-04 0.261E-04
CGA:  19    -0.128321474297E+04    0.74568E-05   -0.67931E-05 10640   0.426E-04 0.701E-04
  12 F= -.12832147E+04 E0= -.12832147E+04  d E =-.331476E+00  mag=    47.0000
       N       E                     dE             d eps       ncg     rms          ort
SDA:   1    -0.128086569063E+04    0.23491E+01    0.00000E+00 10640   0.733E+01 0.000E+00
CGA:   2    -0.128228189042E+04   -0.14162E+01   -0.14165E+01 10640   0.275E+01 0.488E-02
CGA:   3    -0.128297290072E+04   -0.69101E+00   -0.69101E+00 10640   0.819E+00-0.277E-02
CGA:   4    -0.128309434602E+04   -0.12145E+00   -0.12110E+00 10640   0.127E+00-0.226E-02
CGA:   5    -0.128311761117E+04   -0.23265E-01   -0.23208E-01 10640   0.394E-01-0.816E-03
CGA:   6    -0.128312470736E+04   -0.70962E-02   -0.70815E-02 10640   0.116E-01-0.167E-03
CGA:   7    -0.128312721165E+04   -0.25043E-02   -0.24974E-02 10640   0.307E-02-0.249E-03
CGA:   8    -0.128312784264E+04   -0.63098E-03   -0.63388E-03 10640   0.125E-02 0.101E-03
CGA:   9    -0.128312822112E+04   -0.37848E-03   -0.40436E-03 10640   0.122E-02-0.345E-03
CGA:  10    -0.128312844936E+04   -0.22824E-03   -0.24971E-03 10640   0.102E-02-0.530E-03
CGA:  11    -0.128312817358E+04    0.27578E-03   -0.39433E-03 10640   0.466E-02-0.153E-02
CGA:  12    -0.128312872456E+04   -0.55098E-03   -0.55792E-03 10640   0.112E-02 0.607E-04
CGA:  13    -0.128312899170E+04   -0.26714E-03   -0.27048E-03 10640   0.363E-03 0.165E-03
CGA:  14    -0.128312909215E+04   -0.10046E-03   -0.10248E-03 10640   0.195E-03 0.161E-03
CGA:  15    -0.128312918370E+04   -0.91548E-04   -0.92359E-04 10640   0.191E-03-0.114E-04
CGA:  16    -0.128312920016E+04   -0.16465E-04   -0.23666E-04 10640   0.800E-04 0.554E-04
CGA:  17    -0.128312920000E+04    0.16481E-06   -0.93210E-05 10640   0.489E-04 0.575E-04
  13 F= -.12831292E+04 E0= -.12831292E+04  d E =0.855430E-01  mag=    47.0000
       N       E                     dE             d eps       ncg     rms          ort
SDA:   1    -0.126204962770E+04    0.21080E+02    0.00000E+00 10640   0.690E+02 0.000E+00
CGA:   2    -0.127518409556E+04   -0.13134E+02   -0.13130E+02 10640   0.248E+02 0.168E-01
CGA:   3    -0.128157073807E+04   -0.63866E+01   -0.63848E+01 10640   0.704E+01 0.587E-01
CGA:   4    -0.128265576992E+04   -0.10850E+01   -0.10860E+01 10640   0.101E+01 0.358E-01
CGA:   5    -0.128285919702E+04   -0.20343E+00   -0.20357E+00 10640   0.304E+00 0.364E-02
CGA:   6    -0.128291318446E+04   -0.53987E-01   -0.54132E-01 10640   0.110E+00 0.345E-02
CGA:   7    -0.128293419744E+04   -0.21013E-01   -0.20999E-01 10640   0.264E-01-0.113E-03
CGA:   8    -0.128294048361E+04   -0.62862E-02   -0.62841E-02 10640   0.103E-01 0.253E-03
CGA:   9    -0.128294280674E+04   -0.23231E-02   -0.23287E-02 10640   0.485E-02 0.131E-02
CGA:  10    -0.128294364944E+04   -0.84270E-03   -0.94207E-03 10640   0.170E-02 0.176E-02
CGA:  11    -0.128294408352E+04   -0.43408E-03   -0.46396E-03 10640   0.788E-03 0.114E-02
CGA:  12    -0.128294419975E+04   -0.11623E-03   -0.13894E-03 10640   0.514E-03 0.470E-03
CGA:  13    -0.128294425003E+04   -0.50281E-04   -0.76905E-04 10640   0.403E-03 0.367E-03
CGA:  14    -0.128294428022E+04   -0.30187E-04   -0.56191E-04 10640   0.334E-03 0.328E-03
CGA:  15    -0.128294429033E+04   -0.10113E-04   -0.39398E-04 10640   0.293E-03 0.302E-03
CGA:  16    -0.128294430109E+04   -0.10764E-04   -0.35372E-04 10640   0.264E-03 0.277E-03
CGA:  17    -0.128294430464E+04   -0.35415E-05   -0.28405E-04 10640   0.244E-03 0.254E-03
CGA:  18    -0.128294430693E+04   -0.22928E-05   -0.25196E-04 10640   0.227E-03 0.235E-03
CGA:  19    -0.128294430736E+04   -0.42809E-06   -0.22097E-04 10640   0.213E-03 0.220E-03
CGA:  20    -0.128294430676E+04    0.60029E-06   -0.19750E-04 10640   0.201E-03 0.207E-03
CGA:  21    -0.128294430542E+04    0.13325E-05   -0.17801E-04 10640   0.191E-03 0.196E-03
CGA:  22    -0.128294430360E+04    0.18240E-05   -0.16172E-04 10640   0.182E-03 0.187E-03
CGA:  23    -0.128294430145E+04    0.21481E-05   -0.14790E-04 10640   0.174E-03 0.178E-03
CGA:  24    -0.128294429910E+04    0.23547E-05   -0.13600E-04 10640   0.167E-03 0.171E-03
CGA:  25    -0.128294429662E+04    0.24770E-05   -0.12566E-04 10640   0.161E-03 0.164E-03
CGA:  26    -0.128294429409E+04    0.25344E-05   -0.11660E-04 10640   0.155E-03 0.158E-03
CGA:  27    -0.128294429155E+04    0.25397E-05   -0.10864E-04 10640   0.150E-03 0.153E-03
CGA:  28    -0.128294428903E+04    0.25131E-05   -0.10156E-04 10640   0.146E-03 0.148E-03
  14 F= -.12829443E+04 E0= -.12829438E+04  d E =0.184911E+00  mag=    47.0000
       N       E                     dE             d eps       ncg     rms          ort
SDA:   1    -0.126098694263E+04    0.21957E+02    0.00000E+00 10640   0.733E+02 0.000E+00
CGA:   2    -0.127482610618E+04   -0.13839E+02   -0.13833E+02 10640   0.265E+02 0.136E+00
CGA:   3    -0.128159802562E+04   -0.67719E+01   -0.67645E+01 10640   0.800E+01 0.432E-01
CGA:   4    -0.128279995331E+04   -0.12019E+01   -0.12019E+01 10640   0.120E+01-0.168E-02
CGA:   5    -0.128301995029E+04   -0.22000E+00   -0.21993E+00 10640   0.374E+00 0.306E-02
CGA:   6    -0.128308786979E+04   -0.67920E-01   -0.68010E-01 10640   0.114E+00-0.288E-02
CGA:   7    -0.128311147909E+04   -0.23609E-01   -0.23655E-01 10640   0.284E-01-0.726E-03
CGA:   8    -0.128311771060E+04   -0.62315E-02   -0.62186E-02 10640   0.118E-01 0.245E-03
CGA:   9    -0.128312076167E+04   -0.30511E-02   -0.33671E-02 10640   0.947E-02-0.255E-02
CGA:  10    -0.128312231960E+04   -0.15579E-02   -0.16491E-02 10640   0.424E-02-0.163E-02
CGA:  11    -0.128312273118E+04   -0.41158E-03   -0.18798E-02 10640   0.953E-02-0.401E-02
CGA:  12    -0.128312403169E+04   -0.13005E-02   -0.12757E-02 10640   0.243E-02-0.433E-03
CGA:  13    -0.128312452168E+04   -0.48999E-03   -0.48980E-03 10640   0.751E-03 0.101E-04
CGA:  14    -0.128312472784E+04   -0.20616E-03   -0.19710E-03 10640   0.464E-03 0.123E-03
CGA:  15    -0.128312494341E+04   -0.21557E-03    0.10831E-02 10640   0.164E-03 0.224E-03
CGA:  16    -0.128312505538E+04   -0.11197E-03    0.10912E-03 10640   0.119E-03 0.151E-03
CGA:  17    -0.128312508093E+04   -0.25548E-04   -0.24665E-04 10640   0.100E-03 0.548E-04
CGA:  18    -0.128312515117E+04   -0.70247E-04    0.54892E-04 10640   0.763E-04 0.117E-03
CGA:  19    -0.128312519712E+04   -0.45950E-04    0.12696E-04 10640   0.630E-04 0.515E-04
CGA:  20    -0.128312522040E+04   -0.23273E-04   -0.18628E-04 10640   0.696E-04 0.444E-04
CGA:  21    -0.128312526653E+04   -0.46132E-04    0.99338E-05 10640   0.627E-04 0.353E-04
CGA:  22    -0.128312527150E+04   -0.49719E-05   -0.80257E-05 10640   0.485E-04 0.446E-04
CGA:  23    -0.128312529700E+04   -0.25501E-04    0.12939E-04 10640   0.462E-04 0.449E-04
CGA:  24    -0.128312538244E+04   -0.85433E-04   -0.38231E-04 10640   0.242E-03 0.209E-04
CGA:  25    -0.128312548979E+04   -0.10735E-03   -0.25727E-03 10640   0.307E-02-0.401E-03
CGA:  26    -0.128312571795E+04   -0.22816E-03   -0.26308E-03 10640   0.260E-04 0.135E-03
CGA:  27    -0.128312571306E+04    0.48908E-05   -0.13116E-05 10640   0.166E-04 0.201E-04
  15 F= -.12831257E+04 E0= -.12831257E+04  d E =-.181424E+00  mag=    47.0000
       N       E                     dE             d eps       ncg     rms          ort
SDA:   1    -0.128227502386E+04    0.85069E+00    0.00000E+00 10640   0.228E+01 0.000E+00
CGA:   2    -0.128275157761E+04   -0.47655E+00   -0.47670E+00 10640   0.943E+00 0.167E-02
CGA:   3    -0.128298194945E+04   -0.23037E+00   -0.23030E+00 10640   0.234E+00-0.135E-02
CGA:   4    -0.128301728272E+04   -0.35333E-01   -0.35244E-01 10640   0.387E-01-0.384E-03
CGA:   5    -0.128302457906E+04   -0.72963E-02   -0.72739E-02 10640   0.122E-01-0.171E-03
CGA:   6    -0.128302668998E+04   -0.21109E-02   -0.21165E-02 10640   0.366E-02 0.641E-04
CGA:   7    -0.128302750118E+04   -0.81120E-03   -0.80379E-03 10640   0.981E-03-0.927E-04
CGA:   8    -0.128302769848E+04   -0.19730E-03   -0.20390E-03 10640   0.387E-03 0.843E-04
CGA:   9    -0.128302782005E+04   -0.12158E-03   -0.12161E-03 10640   0.306E-03-0.352E-04
CGA:  10    -0.128302788972E+04   -0.69670E-04   -0.68429E-04 10640   0.192E-03-0.290E-04
CGA:  11    -0.128302795147E+04   -0.61743E-04   -0.72555E-04 10640   0.247E-03-0.821E-04
CGA:  12    -0.128302798407E+04   -0.32600E-04   -0.29932E-04 10640   0.161E-03-0.332E-04
CGA:  13    -0.128302802640E+04   -0.42333E-04   -0.42074E-04 10640   0.122E-03 0.206E-04
CGA:  14    -0.128302804963E+04   -0.23234E-04   -0.27292E-04 10640   0.995E-04 0.443E-04
CGA:  15    -0.128302807995E+04   -0.30317E-04   -0.32579E-04 10640   0.513E-04 0.500E-04
CGA:  16    -0.128302810059E+04   -0.20642E-04   -0.31048E-04 10640   0.134E-03-0.324E-04
CGA:  17    -0.128302809887E+04    0.17253E-05   -0.10713E-04 10640   0.307E-04 0.570E-04
  16 F= -.12830281E+04 E0= -.12830281E+04  d E =0.976142E-01  mag=    47.0000
       N       E                     dE             d eps       ncg     rms          ort
SDA:   1    -0.125098261935E+04    0.32045E+02    0.00000E+00 10640   0.105E+03 0.000E+00
CGA:   2    -0.127105326101E+04   -0.20071E+02   -0.20064E+02 10640   0.379E+02 0.985E-01
CGA:   3    -0.128081451288E+04   -0.97613E+01   -0.97634E+01 10640   0.106E+02 0.817E-01
CGA:   4    -0.128246289758E+04   -0.16484E+01   -0.16496E+01 10640   0.151E+01 0.471E-01
CGA:   5    -0.128277441512E+04   -0.31152E+00   -0.31192E+00 10640   0.433E+00 0.647E-02
CGA:   6    -0.128285574071E+04   -0.81326E-01   -0.81400E-01 10640   0.165E+00 0.199E-02
CGA:   7    -0.128288551862E+04   -0.29778E-01   -0.29757E-01 10640   0.413E-01 0.323E-03
CGA:   8    -0.128289531006E+04   -0.97914E-02   -0.97927E-02 10640   0.164E-01 0.123E-03
CGA:   9    -0.128289917934E+04   -0.38693E-02   -0.38912E-02 10640   0.834E-02 0.129E-02
CGA:  10    -0.128290062356E+04   -0.14442E-02   -0.16068E-02 10640   0.296E-02 0.220E-02
CGA:  11    -0.128290151114E+04   -0.88757E-03   -0.89919E-03 10640   0.117E-02 0.130E-02
CGA:  12    -0.128290174817E+04   -0.23703E-03   -0.30292E-03 10640   0.709E-03 0.967E-03
CGA:  13    -0.128290186658E+04   -0.11841E-03   -0.13893E-03 10640   0.519E-03 0.415E-03
CGA:  14    -0.128290192998E+04   -0.63400E-04   -0.86786E-04 10640   0.445E-03 0.309E-03
CGA:  15    -0.128290194788E+04   -0.17896E-04   -0.54752E-04 10640   0.351E-03 0.317E-03
CGA:  16    -0.128290198347E+04   -0.35600E-04   -0.57176E-04 10640   0.315E-03 0.307E-03
CGA:  17    -0.128290199311E+04   -0.96315E-05   -0.39633E-04 10640   0.286E-03 0.288E-03
CGA:  18    -0.128290201179E+04   -0.18687E-04   -0.40861E-04 10640   0.264E-03 0.271E-03
CGA:  19    -0.128290202075E+04   -0.89583E-05   -0.33155E-04 10640   0.248E-03 0.255E-03
CGA:  20    -0.128290203140E+04   -0.10651E-04   -0.31713E-04 10640   0.233E-03 0.240E-03
CGA:  21    -0.128290203909E+04   -0.76895E-05   -0.28204E-04 10640   0.221E-03 0.227E-03
CGA:  22    -0.128290204633E+04   -0.72399E-05   -0.26216E-04 10640   0.210E-03 0.215E-03
CGA:  23    -0.128290205255E+04   -0.62150E-05   -0.24130E-04 10640   0.200E-03 0.205E-03
CGA:  24    -0.128290205820E+04   -0.56533E-05   -0.22441E-04 10640   0.191E-03 0.195E-03
CGA:  25    -0.128290206335E+04   -0.51454E-05   -0.20918E-04 10640   0.183E-03 0.187E-03
CGA:  26    -0.128290206811E+04   -0.47621E-05   -0.19579E-04 10640   0.176E-03 0.179E-03
CGA:  27    -0.128290207257E+04   -0.44586E-05   -0.18386E-04 10640   0.169E-03 0.172E-03
CGA:  28    -0.128290207677E+04   -0.41996E-05   -0.17308E-04 10640   0.163E-03 0.166E-03
CGA:  29    -0.128290208074E+04   -0.39705E-05   -0.16326E-04 10640   0.157E-03 0.160E-03
CGA:  30    -0.128290208450E+04   -0.37676E-05   -0.15427E-04 10640   0.152E-03 0.154E-03
CGA:  31    -0.128290208809E+04   -0.35848E-05   -0.14602E-04 10640   0.147E-03 0.149E-03
CGA:  32    -0.128290209151E+04   -0.34186E-05   -0.13841E-04 10640   0.142E-03 0.145E-03
CGA:  33    -0.128290209477E+04   -0.32650E-05   -0.13137E-04 10640   0.138E-03 0.140E-03
CGA:  34    -0.128290209790E+04   -0.31233E-05   -0.12483E-04 10640   0.134E-03 0.136E-03
CGA:  35    -0.128290210088E+04   -0.29884E-05   -0.11874E-04 10640   0.130E-03 0.132E-03
CGA:  36    -0.128290210375E+04   -0.28614E-05   -0.11305E-04 10640   0.127E-03 0.129E-03
CGA:  37    -0.128290210649E+04   -0.27409E-05   -0.10772E-04 10640   0.124E-03 0.125E-03
CGA:  38    -0.128290210911E+04   -0.26288E-05   -0.10273E-04 10640   0.120E-03 0.122E-03
  17 F= -.12829021E+04 E0= -.12829014E+04  d E =0.125990E+00  mag=    47.0000
       N       E                     dE             d eps       ncg     rms          ort
SDA:   1    -0.127202570344E+04    0.10876E+02    0.00000E+00 10640   0.369E+02 0.000E+00
CGA:   2    -0.127905730466E+04   -0.70316E+01   -0.70299E+01 10640   0.134E+02 0.425E-01
CGA:   3    -0.128249894568E+04   -0.34416E+01   -0.34403E+01 10640   0.398E+01 0.295E-02
CGA:   4    -0.128309769959E+04   -0.59875E+00   -0.59878E+00 10640   0.603E+00-0.101E-01
CGA:   5    -0.128320788489E+04   -0.11019E+00   -0.11018E+00 10640   0.190E+00 0.852E-03
CGA:   6    -0.128324203784E+04   -0.34153E-01   -0.34258E-01 10640   0.595E-01-0.323E-02
CGA:   7    -0.128325398918E+04   -0.11951E-01   -0.11961E-01 10640   0.143E-01-0.112E-03
CGA:   8    -0.128325716384E+04   -0.31747E-02   -0.31764E-02 10640   0.608E-02-0.760E-05
CGA:   9    -0.128325868741E+04   -0.15236E-02   -0.19741E-02 10640   0.750E-02-0.267E-02
CGA:  10    -0.128325945195E+04   -0.76454E-03   -0.82810E-03 10640   0.321E-02-0.202E-02
CGA:  11    -0.128325893959E+04    0.51236E-03   -0.14466E-02 10640   0.124E-01-0.436E-02
CGA:  12    -0.128326074302E+04   -0.18034E-02   -0.17491E-02 10640   0.311E-02-0.110E-02
CGA:  13    -0.128326120135E+04   -0.45833E-03   -0.46725E-03 10640   0.705E-03 0.400E-03
CGA:  14    -0.128326135034E+04   -0.14899E-03   -0.14874E-03 10640   0.411E-03 0.300E-03
CGA:  15    -0.128326045350E+04    0.89684E-03   -0.50743E-03 10640   0.832E-02-0.156E-02
CGA:  16    -0.128326127131E+04   -0.81781E-03   -0.92869E-03 10640   0.128E-02 0.522E-03
CGA:  17    -0.128326160268E+04   -0.33137E-03   -0.33171E-03 10640   0.482E-03 0.468E-05
CGA:  18    -0.128326174721E+04   -0.14453E-03   -0.25793E-03 10640   0.214E-02-0.541E-03
CGA:  19    -0.128326186389E+04   -0.11668E-03   -0.19455E-03 10640   0.142E-03 0.330E-03
CGA:  20    -0.128326186677E+04   -0.28791E-05   -0.17572E-04 10640   0.680E-04 0.685E-04
CGA:  21    -0.128326188723E+04   -0.20460E-04   -0.21458E-04 10640   0.415E-04 0.100E-04
CGA:  22    -0.128326192075E+04   -0.33524E-04    0.49793E-04 10640   0.865E-04-0.346E-04
CGA:  23    -0.128326191806E+04    0.26942E-05   -0.70141E-05 10640   0.292E-04 0.432E-04
  18 F= -.12832619E+04 E0= -.12832619E+04  d E =-.359809E+00  mag=    47.0000
[...]
CGA:  11    -0.128295779145E+04   -0.18547E-03   -0.20454E-03 10640   0.730E-03 0.852E-03
CGA:  12    -0.128295783475E+04   -0.43300E-04   -0.88832E-04 10640   0.604E-03 0.658E-03
CGA:  13    -0.128295787085E+04   -0.36100E-04   -0.73137E-04 10640   0.520E-03 0.558E-03
CGA:  14    -0.128295789021E+04   -0.19360E-04   -0.56396E-04 10640   0.463E-03 0.489E-03
CGA:  15    -0.128295790153E+04   -0.11324E-04   -0.46487E-04 10640   0.420E-03 0.440E-03
CGA:  16    -0.128295790746E+04   -0.59326E-05   -0.39242E-04 10640   0.386E-03 0.402E-03
CGA:  17    -0.128295790980E+04   -0.23322E-05   -0.33785E-04 10640   0.358E-03 0.371E-03
CGA:  18    -0.128295790967E+04    0.12260E-06   -0.29535E-04 10640   0.336E-03 0.346E-03
CGA:  19    -0.128295790785E+04    0.18196E-05   -0.26137E-04 10640   0.316E-03 0.326E-03
CGA:  20    -0.128295790486E+04    0.29999E-05   -0.23362E-04 10640   0.300E-03 0.308E-03
CGA:  21    -0.128295790104E+04    0.38157E-05   -0.21056E-04 10640   0.286E-03 0.293E-03
CGA:  22    -0.128295789667E+04    0.43685E-05   -0.19111E-04 10640   0.273E-03 0.279E-03
CGA:  23    -0.128295789194E+04    0.47279E-05   -0.17451E-04 10640   0.262E-03 0.268E-03
CGA:  24    -0.128295788700E+04    0.49463E-05   -0.16019E-04 10640   0.252E-03 0.257E-03
CGA:  25    -0.128295788193E+04    0.50622E-05   -0.14771E-04 10640   0.244E-03 0.248E-03
CGA:  26    -0.128295787683E+04    0.51019E-05   -0.13676E-04 10640   0.236E-03 0.240E-03
CGA:  27    -0.128295787175E+04    0.50870E-05   -0.12707E-04 10640   0.229E-03 0.232E-03
CGA:  28    -0.128295786672E+04    0.50303E-05   -0.11843E-04 10640   0.222E-03 0.225E-03
CGA:  29    -0.128295786177E+04    0.49446E-05   -0.11069E-04 10640   0.216E-03 0.219E-03
CGA:  30    -0.128295785693E+04    0.48389E-05   -0.10371E-04 10640   0.210E-03 0.213E-03
  43 F= -.12829579E+04 E0= -.12829573E+04  d E =0.377246E+00  mag=    47.0000
       N       E                     dE             d eps       ncg     rms          ort
SDA:   1    -0.125433804843E+04    0.28620E+02    0.00000E+00 10640   0.968E+02 0.000E+00
CGA:   2    -0.127241674747E+04   -0.18079E+02   -0.18068E+02 10640   0.339E+02 0.208E+00
CGA:   3    -0.128123373927E+04   -0.88170E+01   -0.88046E+01 10640   0.100E+02 0.559E-01
CGA:   4    -0.128277922825E+04   -0.15455E+01   -0.15452E+01 10640   0.142E+01 0.248E-02
CGA:   5    -0.128306262015E+04   -0.28339E+00   -0.28306E+00 10640   0.408E+00 0.542E-02
CGA:   6    -0.128314153949E+04   -0.78919E-01   -0.79584E-01 10640   0.150E+00-0.974E-02
CGA:   7    -0.128316769043E+04   -0.26151E-01   -0.26025E-01 10640   0.346E-01 0.298E-02
CGA:   8    -0.128317583900E+04   -0.81486E-02   -0.80999E-02 10640   0.136E-01 0.547E-03
CGA:   9    -0.128317949107E+04   -0.36521E-02   -0.47246E-02 10640   0.160E-01-0.522E-02
CGA:  10    -0.128318102481E+04   -0.15337E-02   -0.15440E-02 10640   0.600E-02-0.128E-02
CGA:  11    -0.128318221304E+04   -0.11882E-02   -0.13636E-02 10640   0.663E-02-0.179E-02
CGA:  12    -0.128318281717E+04   -0.60414E-03   -0.11807E-02 10640   0.686E-02-0.576E-02
CGA:  13    -0.128318386803E+04   -0.10509E-02   -0.10546E-02 10640   0.215E-02 0.693E-03
CGA:  14    -0.128318431530E+04   -0.44728E-03   -0.44405E-03 10640   0.621E-03 0.116E-03
CGA:  15    -0.128318459116E+04   -0.27585E-03   -0.36533E-03 10640   0.100E-02-0.223E-03
CGA:  16    -0.128318471936E+04   -0.12821E-03   -0.13217E-03 10640   0.604E-03-0.158E-03
CGA:  17    -0.128318338646E+04    0.13329E-02   -0.72241E-03 10640   0.798E-02-0.197E-02
CGA:  18    -0.128318472394E+04   -0.13375E-02   -0.13923E-02 10640   0.154E-02 0.369E-03
CGA:  19    -0.128318513705E+04   -0.41312E-03   -0.41557E-03 10640   0.688E-03 0.400E-04
CGA:  20    -0.128318522947E+04   -0.92413E-04   -0.12119E-03 10640   0.331E-03 0.195E-03
CGA:  21    -0.128318533227E+04   -0.10281E-03   -0.11003E-03 10640   0.154E-03 0.135E-03
CGA:  22    -0.128318540618E+04   -0.73911E-04   -0.77376E-04 10640   0.303E-03-0.720E-04
CGA:  23    -0.128318540469E+04    0.14897E-05   -0.10411E-04 10640   0.235E-03 0.480E-04
CGA:  24    -0.128318539713E+04    0.75698E-05   -0.14234E-04 10640   0.853E-04 0.884E-04
  44 F= -.12831854E+04 E0= -.12831854E+04  d E =-.227540E+00  mag=    47.0000
       N       E                     dE             d eps       ncg     rms          ort
SDA:   1    -0.127956142456E+04    0.36240E+01    0.00000E+00 10640   0.124E+02 0.000E+00
CGA:   2    -0.128194218138E+04   -0.23808E+01   -0.23798E+01 10640   0.448E+01-0.445E-02
CGA:   3    -0.128310484125E+04   -0.11627E+01   -0.11628E+01 10640   0.121E+01 0.120E-01
CGA:   4    -0.128329313231E+04   -0.18829E+00   -0.18920E+00 10640   0.168E+00 0.811E-02
CGA:   5    -0.128332939352E+04   -0.36261E-01   -0.36304E-01 10640   0.412E-01 0.857E-03
CGA:   6    -0.128333850873E+04   -0.91152E-02   -0.91624E-02 10640   0.130E-01 0.116E-02
CGA:   7    -0.128334108236E+04   -0.25736E-02   -0.25213E-02 10640   0.509E-02-0.707E-03
CGA:   8    -0.128334196591E+04   -0.88354E-03   -0.88691E-03 10640   0.167E-02 0.546E-04
CGA:   9    -0.128334231637E+04   -0.35046E-03   -0.36596E-03 10640   0.524E-03 0.426E-03
CGA:  10    -0.128334245634E+04   -0.13998E-03   -0.14649E-03 10640   0.250E-03 0.227E-03
CGA:  11    -0.128334246558E+04   -0.92324E-05   -0.41080E-04 10640   0.132E-03 0.236E-03
CGA:  12    -0.128334247193E+04   -0.63559E-05   -0.17568E-04 10640   0.885E-04 0.102E-03
CGA:  13    -0.128334248233E+04   -0.10397E-04   -0.15280E-04 10640   0.675E-04 0.750E-04
CGA:  14    -0.128334248104E+04    0.12867E-05   -0.69801E-05 10640   0.596E-04 0.631E-04
  45 F= -.12833425E+04 E0= -.12833424E+04  d E =-.157084E+00  mag=    47.0000
       N       E                     dE             d eps       ncg     rms          ort
SDA:   1    -0.128329433059E+04    0.48152E-01    0.00000E+00 10640   0.161E+00 0.000E+00
CGA:   2    -0.128332658404E+04   -0.32253E-01   -0.32257E-01 10640   0.615E-01 0.202E-03
CGA:   3    -0.128334212808E+04   -0.15544E-01   -0.15540E-01 10640   0.157E-01 0.107E-03
CGA:   4    -0.128334451164E+04   -0.23836E-02   -0.24016E-02 10640   0.238E-02 0.262E-03
CGA:   5    -0.128334499844E+04   -0.48681E-03   -0.48756E-03 10640   0.734E-03 0.443E-04
CGA:   6    -0.128334511884E+04   -0.12040E-03   -0.12455E-03 10640   0.250E-03 0.813E-04
CGA:   7    -0.128334516994E+04   -0.51106E-04   -0.52372E-04 10640   0.712E-04 0.472E-04
CGA:   8    -0.128334519953E+04   -0.29581E-04   -0.28617E-04 10640   0.540E-04 0.768E-05
CGA:   9    -0.128334520334E+04   -0.38101E-05   -0.77327E-05 10640   0.372E-04 0.429E-04
  46 F= -.12833452E+04 E0= -.12833452E+04  d E =-.272229E-02  mag=    47.0000
       N       E                     dE             d eps       ncg     rms          ort
SDA:   1    -0.128096694570E+04    0.23783E+01    0.00000E+00 10640   0.759E+01 0.000E+00
CGA:   2    -0.128245515999E+04   -0.14882E+01   -0.14885E+01 10640   0.279E+01 0.158E-01
CGA:   3    -0.128317011266E+04   -0.71495E+00   -0.71516E+00 10640   0.745E+00-0.694E-02
CGA:   4    -0.128328780719E+04   -0.11769E+00   -0.11763E+00 10640   0.110E+00-0.155E-02
CGA:   5    -0.128331109539E+04   -0.23288E-01   -0.23289E-01 10640   0.270E-01-0.493E-03
CGA:   6    -0.128331746347E+04   -0.63681E-02   -0.63921E-02 10640   0.897E-02-0.895E-03
CGA:   7    -0.128331891897E+04   -0.14555E-02   -0.14867E-02 10640   0.238E-02 0.771E-03
CGA:   8    -0.128331967317E+04   -0.75420E-03   -0.89060E-03 10640   0.239E-02-0.102E-02
CGA:   9    -0.128331992135E+04   -0.24818E-03   -0.24684E-03 10640   0.127E-02-0.358E-04
CGA:  10    -0.128332022818E+04   -0.30682E-03   -0.31947E-03 10640   0.106E-02-0.326E-03
CGA:  11    -0.128331386052E+04    0.63677E-02   -0.34652E-02 10640   0.478E-01-0.621E-02
CGA:  12    -0.128331891464E+04   -0.50541E-02   -0.54634E-02 10640   0.744E-02 0.263E-02
CGA:  13    -0.128332088035E+04   -0.19657E-02   -0.19874E-02 10640   0.109E-02 0.169E-03
CGA:  14    -0.128332120160E+04   -0.32126E-03   -0.31132E-03 10640   0.977E-03-0.101E-03
CGA:  15    -0.128332127668E+04   -0.75073E-04   -0.13865E-03 10640   0.334E-03 0.298E-03
CGA:  16    -0.128332129107E+04   -0.14393E-04   -0.53477E-04 10640   0.161E-03 0.165E-03
CGA:  17    -0.128332131986E+04   -0.28792E-04   -0.42610E-04 10640   0.972E-04 0.803E-04
CGA:  18    -0.128332133517E+04   -0.15307E-04   -0.23195E-04 10640   0.508E-04 0.435E-04
CGA:  19    -0.128332132865E+04    0.65178E-05   -0.62140E-05 10640   0.353E-04 0.516E-04
  47 F= -.12833213E+04 E0= -.12833213E+04  d E =0.238747E-01  mag=    47.0000
       N       E                     dE             d eps       ncg     rms          ort
SDA:   1    -0.125739455177E+04    0.25927E+02    0.00000E+00 10640   0.959E+02 0.000E+00
CGA:   2    -0.127341038513E+04   -0.16016E+02   -0.15625E+02 10640   0.281E+02 0.271E+01
CGA:   3    -0.128080159605E+04   -0.73912E+01   -0.74080E+01 10640   0.112E+02 0.161E+00
CGA:   4    -0.128248626028E+04   -0.16847E+01   -0.16614E+01 10640   0.184E+01 0.184E+00
CGA:   5    -0.128279887354E+04   -0.31261E+00   -0.31392E+00 10640   0.530E+00 0.131E-01
CGA:   6    -0.128290163615E+04   -0.10276E+00   -0.10284E+00 10640   0.156E+00 0.236E-02
CGA:   7    -0.128293685512E+04   -0.35219E-01   -0.35166E-01 10640   0.464E-01-0.734E-03
CGA:   8    -0.128294624273E+04   -0.93876E-02   -0.93893E-02 10640   0.214E-01 0.240E-03
CGA:   9    -0.128295087013E+04   -0.46274E-02   -0.46472E-02 10640   0.102E-01 0.399E-03
CGA:  10    -0.128295303785E+04   -0.21677E-02   -0.22854E-02 10640   0.407E-02 0.243E-02
CGA:  11    -0.128295415150E+04   -0.11136E-02   -0.11773E-02 10640   0.185E-02 0.189E-02
CGA:  12    -0.128295473880E+04   -0.58731E-03   -0.63232E-03 10640   0.110E-02 0.140E-02
CGA:  13    -0.128295504656E+04   -0.30776E-03   -0.30157E-03 10640   0.815E-03 0.628E-03
CGA:  14    -0.128295525838E+04   -0.21182E-03   -0.21297E-03 10640   0.989E-03 0.368E-03
CGA:  15    -0.128295553363E+04   -0.27525E-03   -0.32178E-03 10640   0.559E-03 0.116E-02
CGA:  16    -0.128295560560E+04   -0.71973E-04   -0.10328E-03 10640   0.478E-03 0.404E-03
CGA:  17    -0.128295576022E+04   -0.15463E-03   -0.14164E-03 10640   0.546E-03 0.344E-03
CGA:  18    -0.128295580844E+04   -0.48220E-04   -0.82441E-04 10640   0.425E-03 0.313E-03
CGA:  19    -0.128295592575E+04   -0.11731E-03   -0.11369E-03 10640   0.498E-03 0.288E-03
CGA:  20    -0.128295598224E+04   -0.56485E-04   -0.79477E-04 10640   0.415E-03 0.240E-03
CGA:  21    -0.128295612426E+04   -0.14202E-03   -0.14778E-03 10640   0.444E-03 0.563E-03
CGA:  22    -0.128295622235E+04   -0.98096E-04   -0.10025E-03 10640   0.549E-03 0.886E-04
CGA:  23    -0.128295645828E+04   -0.23593E-03   -0.20226E-03 10640   0.398E-03 0.575E-03
CGA:  24    -0.128295647957E+04   -0.21286E-04   -0.47304E-04 10640   0.227E-03 0.196E-03
CGA:  25    -0.128295653042E+04   -0.50858E-04   -0.65363E-04 10640   0.350E-03 0.274E-03
CGA:  26    -0.128295663604E+04   -0.10562E-03   -0.12271E-03 10640   0.106E-02-0.158E-03
CGA:  27    -0.128295678759E+04   -0.15155E-03   -0.14860E-03 10640   0.230E-02 0.351E-03
CGA:  28    -0.128295718331E+04   -0.39572E-03   -0.49414E-03 10640   0.160E-03 0.112E-02
CGA:  29    -0.128295722826E+04   -0.44949E-04   -0.49218E-04 10640   0.125E-03 0.116E-03
CGA:  30    -0.128295668800E+04    0.54025E-03   -0.29184E-03 10640   0.874E-02-0.557E-03
CGA:  31    -0.128295749457E+04   -0.80657E-03   -0.88011E-03 10640   0.169E-03 0.328E-03
CGA:  32    -0.128295750907E+04   -0.14497E-04   -0.21734E-04 10640   0.624E-04 0.246E-04
CGA:  33    -0.128295757165E+04   -0.62579E-04   -0.52367E-04 10640   0.265E-03 0.314E-04
CGA:  34    -0.128295764213E+04   -0.70481E-04   -0.48880E-04 10640   0.128E-03-0.890E-04
CGA:  35    -0.128295767879E+04   -0.36662E-04   -0.36308E-04 10640   0.165E-03 0.238E-04
CGA:  36    -0.128295772051E+04   -0.41721E-04   -0.47734E-04 10640   0.107E-03 0.355E-04
CGA:  37    -0.128295784124E+04   -0.12073E-03    0.17657E-03 10640   0.155E-03 0.382E-04
CGA:  38    -0.128295788975E+04   -0.48510E-04   -0.58319E-04 10640   0.823E-04 0.749E-04
CGA:  39    -0.128295795076E+04   -0.61011E-04   -0.80343E-04 10640   0.647E-03-0.761E-04
CGA:  40    -0.128295800369E+04   -0.52928E-04   -0.62789E-04 10640   0.247E-04 0.340E-04
CGA:  41    -0.128295801425E+04   -0.10556E-04   -0.89181E-05 10640   0.874E-04-0.302E-04
CGA:  42    -0.128295801746E+04   -0.32164E-05   -0.84647E-05 10640   0.107E-04 0.179E-04
  48 F= -.12829580E+04 E0= -.12829576E+04  d E =0.363311E+00  mag=    47.0000
       N       E                     dE             d eps       ncg     rms          ort
SDA:   1    -0.126036191305E+04    0.22596E+02    0.00000E+00 10640   0.819E+02 0.000E+00
CGA:   2    -0.127475967274E+04   -0.14398E+02   -0.14084E+02 10640   0.254E+02 0.223E+01
CGA:   3    -0.128157204966E+04   -0.68124E+01   -0.68361E+01 10640   0.857E+01 0.571E-01
CGA:   4    -0.128292968032E+04   -0.13576E+01   -0.13526E+01 10640   0.127E+01 0.457E-01
CGA:   5    -0.128316880352E+04   -0.23912E+00   -0.23854E+00 10640   0.418E+00-0.303E-02
CGA:   6    -0.128324241165E+04   -0.73608E-01   -0.73069E-01 10640   0.132E+00-0.316E-02
CGA:   7    -0.128326930831E+04   -0.26897E-01   -0.26911E-01 10640   0.320E-01 0.375E-03
CGA:   8    -0.128327739141E+04   -0.80831E-02   -0.80472E-02 10640   0.141E-01-0.459E-03
CGA:   9    -0.128328119244E+04   -0.38010E-02   -0.36982E-02 10640   0.111E-01-0.197E-02
CGA:  10    -0.128328371164E+04   -0.25192E-02   -0.23551E-02 10640   0.619E-02-0.236E-02
CGA:  11    -0.128328523533E+04   -0.15237E-02   -0.24023E-02 10640   0.131E-01-0.482E-02
CGA:  12    -0.128328670840E+04   -0.14731E-02   -0.15105E-02 10640   0.285E-02 0.218E-03
CGA:  13    -0.128328748117E+04   -0.77277E-03   -0.78453E-03 10640   0.125E-02 0.293E-03
CGA:  14    -0.128328796048E+04   -0.47931E-03   -0.48078E-03 10640   0.135E-02-0.353E-04
CGA:  15    -0.128328845395E+04   -0.49346E-03   -0.52128E-03 10640   0.131E-02-0.319E-03
CGA:  16    -0.128328881361E+04   -0.35967E-03   -0.42654E-03 10640   0.220E-02-0.606E-03
CGA:  17    -0.128328908068E+04   -0.26707E-03   -0.23728E-03 10640   0.143E-02-0.265E-03
CGA:  18    -0.128328942440E+04   -0.34372E-03   -0.34009E-03 10640   0.198E-02-0.101E-03
CGA:  19    -0.128328996451E+04   -0.54011E-03   -0.53251E-03 10640   0.166E-02-0.377E-03
CGA:  20    -0.128329023536E+04   -0.27085E-03   -0.25235E-03 10640   0.107E-02-0.171E-03
CGA:  21    -0.128329044164E+04   -0.20628E-03   -0.20644E-03 10640   0.544E-03-0.111E-04
CGA:  22    -0.128329051133E+04   -0.69685E-04   -0.77747E-04 10640   0.271E-03 0.492E-04
CGA:  23    -0.128329052714E+04   -0.15808E-04   -0.38831E-04 10640   0.172E-03 0.142E-03
CGA:  24    -0.128329052404E+04    0.30918E-05   -0.16695E-04 10640   0.924E-04 0.106E-03
  49 F= -.12832905E+04 E0= -.12832905E+04  d E =-.332507E+00  mag=    47.0000
       N       E                     dE             d eps       ncg     rms          ort
SDA:   1    -0.128267663208E+04    0.61390E+00    0.00000E+00 10640   0.213E+01 0.000E+00
CGA:   2    -0.128309800381E+04   -0.42137E+00   -0.42090E+00 10640   0.796E+00-0.601E-02
CGA:   3    -0.128329622067E+04   -0.19822E+00   -0.19828E+00 10640   0.209E+00 0.394E-02
CGA:   4    -0.128332884811E+04   -0.32627E-01   -0.32920E-01 10640   0.296E-01 0.277E-02
CGA:   5    -0.128333504371E+04   -0.61956E-02   -0.62673E-02 10640   0.663E-02 0.150E-02
CGA:   6    -0.128333651906E+04   -0.14754E-02   -0.14980E-02 10640   0.202E-02 0.574E-03
CGA:   7    -0.128333699256E+04   -0.47350E-03   -0.46623E-03 10640   0.101E-02-0.178E-03
CGA:   8    -0.128333715305E+04   -0.16049E-03   -0.16085E-03 10640   0.348E-03 0.651E-05
CGA:   9    -0.128333719390E+04   -0.40852E-04   -0.55558E-04 10640   0.134E-03 0.166E-03
CGA:  10    -0.128333719270E+04    0.11959E-05   -0.18197E-04 10640   0.781E-04 0.129E-03
  50 F= -.12833372E+04 E0= -.12833372E+04  d E =-.466687E-01  mag=    47.0000
       N       E                     dE             d eps       ncg     rms          ort
SDA:   1    -0.128156566560E+04    0.17715E+01    0.00000E+00 10640   0.556E+01 0.000E+00
CGA:   2    -0.128269221972E+04   -0.11266E+01   -0.11263E+01 10640   0.215E+01-0.706E-02
CGA:   3    -0.128322593629E+04   -0.53372E+00   -0.53367E+00 10640   0.526E+00 0.127E-02
CGA:   4    -0.128330914036E+04   -0.83204E-01   -0.83390E-01 10640   0.773E-01 0.265E-02
CGA:   5    -0.128332572680E+04   -0.16586E-01   -0.16613E-01 10640   0.168E-01 0.274E-02
CGA:   6    -0.128332982231E+04   -0.40955E-02   -0.40868E-02 10640   0.475E-02 0.739E-03
CGA:   7    -0.128333093857E+04   -0.11163E-02   -0.11168E-02 10640   0.222E-02-0.307E-03
CGA:   8    -0.128333137021E+04   -0.43164E-03   -0.42578E-03 10640   0.128E-02-0.312E-03
CGA:   9    -0.128333156292E+04   -0.19270E-03   -0.20157E-03 10640   0.378E-03 0.223E-03
CGA:  10    -0.128333159507E+04   -0.32158E-04   -0.56610E-04 10640   0.216E-03 0.262E-03
CGA:  11    -0.128333162275E+04   -0.27676E-04   -0.34325E-04 10640   0.129E-03 0.116E-03
CGA:  12    -0.128333163398E+04   -0.11231E-04   -0.17700E-04 10640   0.927E-04 0.852E-04
CGA:  13    -0.128333165141E+04   -0.17433E-04   -0.18252E-04 10640   0.781E-04 0.654E-04
CGA:  14    -0.128333166041E+04   -0.89997E-05   -0.11933E-04 10640   0.650E-04 0.523E-04
CGA:  15    -0.128333167414E+04   -0.13730E-04   -0.13592E-04 10640   0.646E-04 0.426E-04
CGA:  16    -0.128333168120E+04   -0.70546E-05   -0.93374E-05 10640   0.525E-04 0.370E-04
CGA:  17    -0.128333169222E+04   -0.11024E-04   -0.10885E-04 10640   0.548E-04 0.332E-04
CGA:  18    -0.128333169863E+04   -0.64040E-05   -0.80775E-05 10640   0.453E-04 0.299E-04
  51 F= -.12833317E+04 E0= -.12833316E+04  d E =0.549408E-02  mag=    47.0000
       N       E                     dE             d eps       ncg     rms          ort
SDA:   1    -0.126016060304E+04    0.23171E+02    0.00000E+00 10640   0.748E+02 0.000E+00
CGA:   2    -0.127446380085E+04   -0.14303E+02   -0.14305E+02 10640   0.268E+02 0.111E+00
CGA:   3    -0.128134836288E+04   -0.68846E+01   -0.68797E+01 10640   0.745E+01 0.543E-01
CGA:   4    -0.128251685978E+04   -0.11685E+01   -0.11688E+01 10640   0.102E+01 0.101E-01
CGA:   5    -0.128274175745E+04   -0.22490E+00   -0.22504E+00 10640   0.254E+00-0.714E-02
CGA:   6    -0.128279894310E+04   -0.57186E-01   -0.57242E-01 10640   0.801E-01-0.194E-02
CGA:   7    -0.128281396743E+04   -0.15024E-01   -0.15006E-01 10640   0.268E-01-0.126E-02
CGA:   8    -0.128281908564E+04   -0.51182E-02   -0.51224E-02 10640   0.107E-01 0.582E-03
CGA:   9    -0.128282182558E+04   -0.27399E-02   -0.27333E-02 10640   0.562E-02 0.159E-03
CGA:  10    -0.128282340009E+04   -0.15745E-02   -0.21255E-02 10640   0.944E-02-0.326E-02
CGA:  11    -0.128282438489E+04   -0.98480E-03   -0.10276E-02 10640   0.151E-02 0.442E-03
CGA:  12    -0.128282490379E+04   -0.51889E-03   -0.54667E-03 10640   0.129E-02-0.201E-03
CGA:  13    -0.128282373352E+04    0.11703E-02   -0.10109E-02 10640   0.205E-01-0.316E-02
CGA:  14    -0.128282555526E+04   -0.18217E-02   -0.20331E-02 10640   0.187E-02 0.161E-02
CGA:  15    -0.128282598858E+04   -0.43332E-03   -0.44452E-03 10640   0.998E-03 0.536E-03
CGA:  16    -0.128282629215E+04   -0.30356E-03   -0.30236E-03 10640   0.574E-03-0.244E-03
CGA:  17    -0.128282631879E+04   -0.26648E-04   -0.53363E-04 10640   0.330E-03 0.228E-03
CGA:  18    -0.128282633619E+04   -0.17398E-04   -0.48480E-04 10640   0.231E-03 0.241E-03
CGA:  19    -0.128282599544E+04    0.34075E-03   -0.20326E-03 10640   0.691E-02-0.586E-03
CGA:  20    -0.128282650250E+04   -0.50706E-03   -0.66456E-03 10640   0.497E-03 0.574E-03
CGA:  21    -0.128282656561E+04   -0.63117E-04   -0.10188E-03 10640   0.286E-03 0.185E-03
CGA:  22    -0.128282666065E+04   -0.95032E-04   -0.94140E-04 10640   0.134E-03-0.563E-05
CGA:  23    -0.128282666082E+04   -0.17153E-06   -0.18990E-04 10640   0.107E-03 0.795E-04
CGA:  24    -0.128282667528E+04   -0.14467E-04   -0.23941E-04 10640   0.813E-04 0.649E-04
CGA:  25    -0.128282667796E+04   -0.26751E-05   -0.91070E-04 10640   0.177E-02-0.117E-03
