       N       E                     dE             d eps       ncg     rms          ort
DAV:   1     0.102775361263E+05    0.10278E+05   -0.42433E+05 10640   0.155E+03
DAV:   2    -0.116707372145E+03   -0.10394E+05   -0.98114E+04 10640   0.473E+02
DAV:   3    -0.152221296557E+04   -0.14055E+04   -0.13116E+04 10640   0.182E+02
DAV:   4    -0.160428286938E+04   -0.82070E+02   -0.79837E+02 10640   0.462E+01
DAV:   5    -0.160664510396E+04   -0.23622E+01   -0.23547E+01 10640   0.838E+00
SDA:   6    -0.728150284185E+03    0.87849E+03   -0.23547E+01 10640   0.291E+04 0.000E+00
CGA:   7    -0.113289524174E+04   -0.40474E+03   -0.40111E+03 10640   0.114E+04-0.196E+02
CGA:   8    -0.115336581260E+04   -0.20471E+02   -0.63993E+02 10640   0.127E+04-0.667E+03
CGA:   9    -0.116018125468E+04   -0.68154E+01   -0.60899E+02 10640   0.176E+04-0.112E+04
CGA:  10    -0.114107734096E+04    0.19104E+02   -0.95305E+02 10640   0.245E+04-0.157E+04
CGA:  11    -0.114178454941E+04   -0.70721E+00   -0.12077E+03 10640   0.279E+04-0.238E+04
CGA:  12    -0.111328243105E+04    0.28502E+02   -0.15088E+03 10640   0.360E+04-0.280E+04
CGA:  13    -0.112295992224E+04   -0.96775E+01   -0.18020E+03 10640   0.382E+04-0.365E+04
CGA:  14    -0.111495189188E+04    0.80080E+01   -0.19682E+03 10640   0.415E+04-0.376E+04
CGA:  15    -0.115140250496E+04   -0.36451E+02   -0.19368E+03 10640   0.336E+04-0.371E+04
CGA:  16    -0.119128057165E+04   -0.39878E+02   -0.14707E+03 10640   0.240E+04-0.295E+04
CGA:  17    -0.123372158155E+04   -0.42441E+02   -0.90741E+02 10640   0.865E+03-0.137E+04
CGA:  18    -0.125425452855E+04   -0.20533E+02   -0.27291E+02 10640   0.127E+03-0.255E+03
CGA:  19    -0.125981725148E+04   -0.55627E+01   -0.51001E+01 10640   0.449E+02 0.642E+01
CGA:  20    -0.126698717344E+04   -0.71699E+01   -0.70153E+01 10640   0.108E+03 0.444E+01
CGA:  21    -0.127564745804E+04   -0.86603E+01   -0.74002E+01 10640   0.144E+02 0.929E+01
CGA:  22    -0.127677509033E+04   -0.11276E+01   -0.11635E+01 10640   0.158E+02-0.363E+00
CGA:  23    -0.127888495304E+04   -0.21099E+01   -0.20905E+01 10640   0.113E+02 0.571E+00
CGA:  24    -0.127956394978E+04   -0.67900E+00   -0.83896E+00 10640   0.419E+01-0.826E+00
CGA:  25    -0.128008342935E+04   -0.51948E+00   -0.52192E+00 10640   0.516E+01-0.336E+00
CGA:  26    -0.128092999215E+04   -0.84656E+00   -0.86946E+00 10640   0.323E+01-0.690E+00
CGA:  27    -0.128129397419E+04   -0.36398E+00   -0.36582E+00 10640   0.271E+01-0.441E+00
CGA:  28    -0.128167490441E+04   -0.38093E+00   -0.82606E+00 10640   0.837E+01-0.217E+01
CGA:  29    -0.128211559830E+04   -0.44069E+00   -0.60207E+00 10640   0.187E+01-0.763E+00
CGA:  30    -0.128246793282E+04   -0.35233E+00   -0.35889E+00 10640   0.173E+01-0.846E-01
CGA:  31    -0.128275570661E+04   -0.28777E+00   -0.27456E+00 10640   0.378E+00 0.265E+00
CGA:  32    -0.128285470710E+04   -0.99000E-01   -0.10219E+00 10640   0.417E+00-0.372E-01
CGA:  33    -0.128296520846E+04   -0.11050E+00   -0.14213E+00 10640   0.511E+00-0.131E+00
CGA:  34    -0.128303190272E+04   -0.66694E-01   -0.73671E-01 10640   0.230E+00-0.123E+00
CGA:  35    -0.128306584877E+04   -0.33946E-01   -0.61046E-01 10640   0.301E+00-0.138E+00
CGA:  36    -0.128311806459E+04   -0.52216E-01   -0.52211E-01 10640   0.104E+00 0.156E-02
CGA:  37    -0.128314563559E+04   -0.27571E-01   -0.29005E-01 10640   0.114E+00-0.126E-01
CGA:  38    -0.128317603774E+04   -0.30402E-01   -0.34083E-01 10640   0.545E-01-0.208E-01
CGA:  39    -0.128318262727E+04   -0.65895E-02   -0.64533E-02 10640   0.102E-01-0.343E-02
CGA:  40    -0.128318613147E+04   -0.35042E-02    0.58468E-01 10640   0.812E-02 0.585E-02
CGA:  41    -0.128317958320E+04    0.65483E-02   -0.42970E-02 10640   0.150E+00-0.168E-01
CGA:  42    -0.128319538547E+04   -0.15802E-01   -0.16290E-01 10640   0.887E-02 0.453E-02
CGA:  43    -0.128319655425E+04   -0.11688E-02   -0.13253E-02 10640   0.289E-02 0.937E-03
CGA:  44    -0.128319821099E+04   -0.16567E-02   -0.21110E-02 10640   0.942E-02-0.130E-02
CGA:  45    -0.128319957240E+04   -0.13614E-02   -0.12513E-02 10640   0.114E-01-0.141E-02
CGA:  46    -0.128320156314E+04   -0.19907E-02   -0.17878E-02 10640   0.854E-02-0.164E-02
CGA:  47    -0.128320399674E+04   -0.24336E-02   -0.38127E-02 10640   0.303E-01-0.693E-02
CGA:  48    -0.128320916226E+04   -0.51655E-02   -0.51705E-02 10640   0.595E-02 0.734E-04
CGA:  49    -0.128321008116E+04   -0.91889E-03   -0.97005E-03 10640   0.254E-02 0.346E-03
CGA:  50    -0.128321103423E+04   -0.95307E-03   -0.93970E-03 10640   0.101E-02 0.336E-03
CGA:  51    -0.128321124488E+04   -0.21065E-03   -0.21669E-03 10640   0.313E-03 0.487E-04
CGA:  52    -0.128321123372E+04    0.11156E-04   -0.37092E-04 10640   0.220E-03 0.250E-03
CGA:  53    -0.128321121604E+04    0.17684E-04   -0.19433E-04 10640   0.161E-03 0.178E-03
CGA:  54    -0.128321120164E+04    0.14402E-04   -0.15020E-04 10640   0.147E-03 0.152E-03
CGA:  55    -0.128321119021E+04    0.11423E-04   -0.14146E-04 10640   0.138E-03 0.142E-03
CGA:  56    -0.128321118049E+04    0.97236E-05   -0.13361E-04 10640   0.132E-03 0.135E-03
CGA:  57    -0.128321117189E+04    0.86053E-05   -0.12599E-04 10640   0.127E-03 0.129E-03
CGA:  58    -0.128321116418E+04    0.77069E-05   -0.11923E-04 10640   0.123E-03 0.125E-03
CGA:  59    -0.128321115727E+04    0.69116E-05   -0.11335E-04 10640   0.119E-03 0.121E-03
CGA:  60    -0.128321115109E+04    0.61794E-05   -0.10822E-04 10640   0.116E-03 0.117E-03
CGA:  61    -0.128321114559E+04    0.54956E-05   -0.10368E-04 10640   0.113E-03 0.114E-03
   1 F= -.12832111E+04 E0= -.12832111E+04  d E =-.128321E+04  mag=    47.0000
       N       E                     dE             d eps       ncg     rms          ort
SDA:   1    -0.128321360158E+04   -0.24505E-02    0.00000E+00 10640   0.438E-02 0.000E+00
CGA:   2    -0.128321444745E+04   -0.84587E-03   -0.84774E-03 10640   0.165E-02 0.904E-04
CGA:   3    -0.128321484462E+04   -0.39717E-03   -0.39262E-03 10640   0.464E-03 0.220E-03
CGA:   4    -0.128321490935E+04   -0.64732E-04   -0.75800E-04 10640   0.128E-03 0.157E-03
CGA:   5    -0.128321492867E+04   -0.19314E-04   -0.25766E-04 10640   0.934E-04 0.106E-03
CGA:   6    -0.128321493970E+04   -0.11037E-04   -0.14643E-04 10640   0.718E-04 0.708E-04
CGA:   7    -0.128321494513E+04   -0.54322E-05   -0.99505E-05 10640   0.667E-04 0.678E-04
CGA:   8    -0.128321495261E+04   -0.74785E-05   -0.10437E-04 10640   0.637E-04 0.649E-04
   2 F= -.12832150E+04 E0= -.12832149E+04  d E =-.380702E-02  mag=    47.0000
       N       E                     dE             d eps       ncg     rms          ort
SDA:   1    -0.128312359772E+04    0.91347E-01    0.00000E+00 10640   0.409E+00 0.000E+00
CGA:   2    -0.128320293734E+04   -0.79340E-01   -0.79338E-01 10640   0.150E+00-0.384E-03
CGA:   3    -0.128324068620E+04   -0.37749E-01   -0.37741E-01 10640   0.417E-01 0.605E-04
CGA:   4    -0.128324700173E+04   -0.63155E-02   -0.63523E-02 10640   0.645E-02 0.795E-03
CGA:   5    -0.128324837005E+04   -0.13683E-02   -0.13711E-02 10640   0.207E-02-0.238E-03
CGA:   6    -0.128324867593E+04   -0.30588E-03   -0.31547E-03 10640   0.595E-03 0.248E-03
CGA:   7    -0.128324880526E+04   -0.12932E-03   -0.12947E-03 10640   0.173E-03 0.101E-03
CGA:   8    -0.128324887278E+04   -0.67529E-04   -0.90580E-04 10640   0.347E-03-0.919E-04
CGA:   9    -0.128324888528E+04   -0.12493E-04   -0.29990E-04 10640   0.939E-04 0.144E-03
CGA:  10    -0.128324888959E+04   -0.43090E-05   -0.12132E-04 10640   0.603E-04 0.706E-04
CGA:  11    -0.128324891498E+04   -0.25393E-04    0.82469E-04 10640   0.484E-04 0.314E-04
CGA:  12    -0.128324891263E+04    0.23488E-05   -0.30318E-05 10640   0.370E-04 0.402E-04
   3 F= -.12832489E+04 E0= -.12832489E+04  d E =-.339600E-01  mag=    47.0000
       N       E                     dE             d eps       ncg     rms          ort
SDA:   1    -0.127637792312E+04    0.68710E+01    0.00000E+00 10640   0.230E+02 0.000E+00
CGA:   2    -0.128074214870E+04   -0.43642E+01   -0.43643E+01 10640   0.831E+01 0.455E-02
CGA:   3    -0.128280825789E+04   -0.20661E+01   -0.20641E+01 10640   0.254E+01 0.212E-01
CGA:   4    -0.128318544442E+04   -0.37719E+00   -0.37760E+00 10640   0.421E+00 0.123E-01
CGA:   5    -0.128326148889E+04   -0.76044E-01   -0.76038E-01 10640   0.128E+00-0.313E-03
CGA:   6    -0.128328456690E+04   -0.23078E-01   -0.23074E-01 10640   0.382E-01-0.656E-03
CGA:   7    -0.128329234781E+04   -0.77809E-02   -0.77614E-02 10640   0.952E-02 0.112E-02
CGA:   8    -0.128329475948E+04   -0.24117E-02   -0.24901E-02 10640   0.556E-02-0.116E-02
CGA:   9    -0.128329555094E+04   -0.79146E-03   -0.81122E-03 10640   0.197E-02 0.832E-03
CGA:  10    -0.128329610098E+04   -0.55004E-03   -0.52698E-03 10640   0.894E-03 0.523E-03
CGA:  11    -0.128329642764E+04   -0.32667E-03   -0.33871E-03 10640   0.118E-02-0.111E-03
CGA:  12    -0.128329650534E+04   -0.77694E-04   -0.11389E-03 10640   0.651E-03 0.419E-03
CGA:  13    -0.128329653468E+04   -0.29341E-04   -0.73166E-04 10640   0.373E-03 0.400E-03
CGA:  14    -0.128329665630E+04   -0.12162E-03   -0.11757E-03 10640   0.371E-03 0.314E-04
CGA:  15    -0.128329668883E+04   -0.32532E-04   -0.47188E-04 10640   0.144E-03 0.193E-03
CGA:  16    -0.128329670499E+04   -0.16158E-04   -0.20972E-04 10640   0.105E-03 0.109E-03
CGA:  17    -0.128329673172E+04   -0.26731E-04   -0.23453E-04 10640   0.942E-04 0.902E-04
CGA:  18    -0.128329673866E+04   -0.69408E-05   -0.12094E-04 10640   0.859E-04 0.846E-04
CGA:  19    -0.128329675919E+04   -0.20530E-04   -0.18326E-04 10640   0.809E-04 0.804E-04
CGA:  20    -0.128329676782E+04   -0.86284E-05   -0.11802E-04 10640   0.762E-04 0.760E-04
CGA:  21    -0.128329678565E+04   -0.17837E-04   -0.16035E-04 10640   0.722E-04 0.721E-04
CGA:  22    -0.128329679437E+04   -0.87125E-05   -0.11029E-04 10640   0.684E-04 0.683E-04
CGA:  23    -0.128329681040E+04   -0.16030E-04   -0.14379E-04 10640   0.649E-04 0.648E-04
CGA:  24    -0.128329681875E+04   -0.83583E-05   -0.10174E-04 10640   0.616E-04 0.615E-04
CGA:  25    -0.128329683350E+04   -0.14746E-04   -0.13109E-04 10640   0.587E-04 0.584E-04
CGA:  26    -0.128329684124E+04   -0.77407E-05   -0.92906E-05 10640   0.558E-04 0.554E-04
CGA:  27    -0.128329685505E+04   -0.13812E-04   -0.12109E-04 10640   0.534E-04 0.526E-04
CGA:  28    -0.128329686198E+04   -0.69311E-05   -0.83939E-05 10640   0.507E-04 0.499E-04
CGA:  29    -0.128329687509E+04   -0.13105E-04   -0.11302E-04 10640   0.489E-04 0.474E-04
CGA:  30    -0.128329688112E+04   -0.60282E-05   -0.75173E-05 10640   0.462E-04 0.450E-04
CGA:  31    -0.128329689361E+04   -0.12498E-04   -0.10605E-04 10640   0.450E-04 0.426E-04
CGA:  32    -0.128329689876E+04   -0.51476E-05   -0.67053E-05 10640   0.422E-04 0.405E-04
   4 F= -.12832969E+04 E0= -.12832969E+04  d E =-.479861E-01  mag=    47.0000
       N       E                     dE             d eps       ncg     rms          ort
SDA:   1    -0.128276960795E+04    0.52729E+00    0.00000E+00 10640   0.187E+01 0.000E+00
CGA:   2    -0.128311986050E+04   -0.35025E+00   -0.35025E+00 10640   0.649E+00-0.228E-03
CGA:   3    -0.128328755808E+04   -0.16770E+00   -0.16764E+00 10640   0.189E+00 0.487E-03
CGA:   4    -0.128331755102E+04   -0.29993E-01   -0.29902E-01 10640   0.290E-01-0.273E-02
CGA:   5    -0.128332297180E+04   -0.54208E-02   -0.54209E-02 10640   0.716E-02 0.127E-02
CGA:   6    -0.128332474664E+04   -0.17748E-02   -0.18645E-02 10640   0.398E-02-0.149E-02
CGA:   7    -0.128332510996E+04   -0.36332E-03   -0.39982E-03 10640   0.895E-03 0.562E-03
CGA:   8    -0.128332523580E+04   -0.12584E-03   -0.13775E-03 10640   0.414E-03 0.218E-03
CGA:   9    -0.128332515268E+04    0.83126E-04   -0.28052E-03 10640   0.251E-02-0.101E-02
CGA:  10    -0.128332540147E+04   -0.24879E-03   -0.28905E-03 10640   0.432E-03 0.457E-03
CGA:  11    -0.128332552353E+04   -0.12206E-03   -0.17050E-03 10640   0.324E-03-0.362E-03
CGA:  12    -0.128332557530E+04   -0.51770E-04   -0.53957E-04 10640   0.384E-04 0.546E-04
CGA:  13    -0.128332560547E+04   -0.30166E-04    0.71753E-05 10640   0.210E-04-0.544E-05
CGA:  14    -0.128332561462E+04   -0.91543E-05    0.77580E-05 10640   0.125E-04 0.256E-05
   5 F= -.12833256E+04 E0= -.12833256E+04  d E =-.287159E-01  mag=    47.0000
       N       E                     dE             d eps       ncg     rms          ort
SDA:   1    -0.128325804499E+04    0.67560E-01    0.00000E+00 10640   0.229E+00 0.000E+00
CGA:   2    -0.128330199625E+04   -0.43951E-01   -0.43961E-01 10640   0.826E-01 0.788E-03
CGA:   3    -0.128332330685E+04   -0.21311E-01   -0.21342E-01 10640   0.240E-01-0.638E-03
CGA:   4    -0.128332701034E+04   -0.37035E-02   -0.36773E-02 10640   0.382E-02-0.490E-03
CGA:   5    -0.128332777606E+04   -0.76572E-03   -0.76589E-03 10640   0.142E-02-0.347E-03
CGA:   6    -0.128332800668E+04   -0.23061E-03   -0.22675E-03 10640   0.485E-03-0.135E-03
CGA:   7    -0.128332810616E+04   -0.99480E-04   -0.10284E-03 10640   0.172E-03-0.105E-03
CGA:   8    -0.128332813282E+04   -0.26663E-04   -0.26643E-04 10640   0.618E-04-0.283E-05
CGA:   9    -0.128332816985E+04   -0.37027E-04    0.12636E-04 10640   0.215E-04 0.113E-04
CGA:  10    -0.128332819433E+04   -0.24485E-04    0.19186E-05 10640   0.903E-05 0.103E-04
CGA:  11    -0.128332821485E+04   -0.20520E-04    0.49417E-06 10640   0.586E-05 0.721E-05
CGA:  12    -0.128332822414E+04   -0.92857E-05    0.20772E-06 10640   0.419E-05 0.369E-05
   6 F= -.12833282E+04 E0= -.12833282E+04  d E =-.260952E-02  mag=    47.0000
       N       E                     dE             d eps       ncg     rms          ort
SDA:   1    -0.128262475613E+04    0.70346E+00    0.00000E+00 10640   0.218E+01 0.000E+00
CGA:   2    -0.128306321646E+04   -0.43846E+00   -0.43846E+00 10640   0.839E+00 0.153E-02
CGA:   3    -0.128327246870E+04   -0.20925E+00   -0.20917E+00 10640   0.216E+00 0.134E-02
CGA:   4    -0.128330636293E+04   -0.33894E-01   -0.33821E-01 10640   0.342E-01-0.138E-02
CGA:   5    -0.128331324742E+04   -0.68845E-02   -0.68841E-02 10640   0.987E-02-0.305E-03
CGA:   6    -0.128331518858E+04   -0.19412E-02   -0.19359E-02 10640   0.417E-02-0.889E-03
CGA:   7    -0.128331585964E+04   -0.67106E-03   -0.66836E-03 10640   0.968E-03-0.936E-04
CGA:   8    -0.128331610215E+04   -0.24252E-03   -0.24916E-03 10640   0.496E-03-0.107E-03
CGA:   9    -0.128331628406E+04   -0.18191E-03    0.78695E-02 10640   0.232E-03 0.239E-04
CGA:  10    -0.128331638588E+04   -0.10182E-03    0.11342E-02 10640   0.809E-04 0.555E-04
CGA:  11    -0.128331646557E+04   -0.79689E-04    0.10968E-04 10640   0.410E-04 0.478E-04
CGA:  12    -0.128331649958E+04   -0.34011E-04    0.41190E-05 10640   0.290E-04 0.198E-04
CGA:  13    -0.128331654074E+04   -0.41159E-04    0.33191E-05 10640   0.199E-04 0.284E-04
CGA:  14    -0.128331656369E+04   -0.22952E-04    0.11315E-05 10640   0.157E-04 0.154E-04
CGA:  15    -0.128331658251E+04   -0.18816E-04    0.83643E-06 10640   0.146E-04 0.139E-04
CGA:  16    -0.128331660108E+04   -0.18569E-04    0.70679E-06 10640   0.138E-04 0.127E-04
CGA:  17    -0.128331661693E+04   -0.15850E-04    0.78115E-06 10640   0.133E-04 0.115E-04
CGA:  18    -0.128331663302E+04   -0.16093E-04    0.69789E-06 10640   0.132E-04 0.101E-04
CGA:  19    -0.128331664631E+04   -0.13287E-04    0.93044E-06 10640   0.136E-04 0.848E-05
CGA:  20    -0.128331666057E+04   -0.14266E-04    0.90409E-06 10640   0.149E-04 0.633E-05
CGA:  21    -0.128331668724E+04   -0.26667E-04    0.11352E-05 10640   0.111E-04 0.203E-04
CGA:  22    -0.128331669678E+04   -0.95426E-05    0.10256E-05 10640   0.119E-04 0.559E-05
   7 F= -.12833167E+04 E0= -.12833167E+04  d E =0.115274E-01  mag=    47.0000
       N       E                     dE             d eps       ncg     rms          ort
SDA:   1    -0.127583337339E+04    0.74833E+01    0.00000E+00 10640   0.254E+02 0.000E+00
CGA:   2    -0.128044844450E+04   -0.46151E+01   -0.46135E+01 10640   0.870E+01-0.811E-02
CGA:   3    -0.128263556595E+04   -0.21871E+01   -0.21853E+01 10640   0.306E+01 0.251E-01
CGA:   4    -0.128308107949E+04   -0.44551E+00   -0.44575E+00 10640   0.464E+00 0.192E-01
CGA:   5    -0.128316325283E+04   -0.82173E-01   -0.82225E-01 10640   0.138E+00 0.249E-02
CGA:   6    -0.128318911329E+04   -0.25860E-01   -0.25881E-01 10640   0.409E-01 0.136E-02
CGA:   7    -0.128319752564E+04   -0.84123E-02   -0.84083E-02 10640   0.104E-01 0.183E-02
CGA:   8    -0.128320003278E+04   -0.25071E-02   -0.25416E-02 10640   0.580E-02-0.104E-02
CGA:   9    -0.128320076595E+04   -0.73316E-03   -0.79365E-03 10640   0.186E-02 0.121E-02
CGA:  10    -0.128320110396E+04   -0.33802E-03   -0.37269E-03 10640   0.960E-03 0.102E-02
CGA:  11    -0.128320131927E+04   -0.21531E-03   -0.21385E-03 10640   0.991E-03 0.619E-04
CGA:  12    -0.128320138513E+04   -0.65857E-04   -0.12273E-03 10640   0.454E-03 0.683E-03
CGA:  13    -0.128320138409E+04    0.10386E-05   -0.33785E-04 10640   0.251E-03 0.288E-03
CGA:  14    -0.128320139262E+04   -0.85283E-05   -0.27141E-04 10640   0.217E-03 0.228E-03
CGA:  15    -0.128320140732E+04   -0.14700E-04   -0.27057E-04 10640   0.194E-03 0.204E-03
CGA:  16    -0.128320141413E+04   -0.68130E-05   -0.20750E-04 10640   0.178E-03 0.185E-03
CGA:  17    -0.128320141908E+04   -0.49435E-05   -0.18128E-04 10640   0.166E-03 0.171E-03
CGA:  18    -0.128320142213E+04   -0.30572E-05   -0.15785E-04 10640   0.155E-03 0.160E-03
CGA:  19    -0.128320142404E+04   -0.19039E-05   -0.14029E-04 10640   0.146E-03 0.151E-03
CGA:  20    -0.128320142511E+04   -0.10755E-05   -0.12598E-04 10640   0.139E-03 0.143E-03
CGA:  21    -0.128320142560E+04   -0.48435E-06   -0.11415E-04 10640   0.132E-03 0.136E-03
CGA:  22    -0.128320142566E+04   -0.60427E-07   -0.10420E-04 10640   0.127E-03 0.129E-03
   8 F= -.12832014E+04 E0= -.12832014E+04  d E =0.115271E+00  mag=    47.0000
       N       E                     dE             d eps       ncg     rms          ort
SDA:   1    -0.128083668975E+04    0.23647E+01    0.00000E+00 10640   0.845E+01 0.000E+00
CGA:   2    -0.128240219294E+04   -0.15655E+01   -0.15655E+01 10640   0.290E+01 0.185E-02
CGA:   3    -0.128315181853E+04   -0.74963E+00   -0.74905E+00 10640   0.886E+00 0.346E-02
CGA:   4    -0.128328972044E+04   -0.13790E+00   -0.13789E+00 10640   0.128E+00-0.693E-02
CGA:   5    -0.128331489147E+04   -0.25171E-01   -0.25101E-01 10640   0.346E-01 0.190E-02
CGA:   6    -0.128332237582E+04   -0.74844E-02   -0.77219E-02 10640   0.152E-01-0.391E-02
CGA:   7    -0.128332440584E+04   -0.20300E-02   -0.20452E-02 10640   0.291E-02 0.135E-02
CGA:   8    -0.128332512337E+04   -0.71752E-03   -0.70531E-03 10640   0.119E-02 0.202E-03
CGA:   9    -0.128332200335E+04    0.31200E-02   -0.16963E-02 10640   0.320E-01-0.497E-02
CGA:  10    -0.128332496864E+04   -0.29653E-02   -0.32446E-02 10640   0.313E-02 0.205E-02
CGA:  11    -0.128332592264E+04   -0.95400E-03   -0.95197E-03 10640   0.997E-03-0.349E-03
CGA:  12    -0.128332618021E+04   -0.25757E-03   -0.25710E-03 10640   0.112E-02-0.565E-03
CGA:  13    -0.128332622317E+04   -0.42966E-04   -0.10043E-03 10640   0.157E-03 0.290E-03
CGA:  14    -0.128332622972E+04   -0.65419E-05   -0.21008E-04 10640   0.847E-04 0.830E-04
CGA:  15    -0.128332629110E+04   -0.61385E-04    0.34791E-04 10640   0.766E-04 0.287E-06
CGA:  16    -0.128332629368E+04   -0.25837E-05   -0.88132E-05 10640   0.266E-04 0.396E-04
   9 F= -.12833263E+04 E0= -.12833262E+04  d E =-.124868E+00  mag=    47.0000
       N       E                     dE             d eps       ncg     rms          ort
SDA:   1    -0.128289906485E+04    0.42723E+00    0.00000E+00 10640   0.149E+01 0.000E+00
CGA:   2    -0.128317208863E+04   -0.27302E+00   -0.27305E+00 10640   0.502E+00 0.691E-03
CGA:   3    -0.128330237030E+04   -0.13028E+00   -0.13028E+00 10640   0.158E+00 0.489E-04
CGA:   4    -0.128332696066E+04   -0.24590E-01   -0.24432E-01 10640   0.235E-01-0.154E-02
CGA:   5    -0.128333135028E+04   -0.43896E-02   -0.44006E-02 10640   0.679E-02 0.211E-03
CGA:   6    -0.128333279405E+04   -0.14438E-02   -0.14183E-02 10640   0.291E-02-0.685E-03
CGA:   7    -0.128333324703E+04   -0.45299E-03   -0.45277E-03 10640   0.630E-03 0.900E-06
CGA:   8    -0.128333339000E+04   -0.14296E-03   -0.14303E-03 10640   0.254E-03 0.644E-05
CGA:   9    -0.128333353250E+04   -0.14250E-03    0.18148E-03 10640   0.145E-03 0.698E-05
CGA:  10    -0.128333278422E+04    0.74827E-03   -0.40250E-03 10640   0.637E-02-0.748E-03
CGA:  11    -0.128333371775E+04   -0.93352E-03   -0.78006E-03 10640   0.112E-02-0.557E-03
CGA:  12    -0.128333386157E+04   -0.14383E-03   -0.18343E-03 10640   0.184E-03 0.169E-03
CGA:  13    -0.128333389619E+04   -0.34619E-04   -0.47674E-04 10640   0.972E-04 0.723E-04
CGA:  14    -0.128333395155E+04   -0.55363E-04   -0.58245E-04 10640   0.255E-03-0.875E-04
CGA:  15    -0.128333394577E+04    0.57797E-05   -0.19398E-04 10640   0.394E-04 0.787E-04
  10 F= -.12833339E+04 E0= -.12833339E+04  d E =-.765209E-02  mag=    47.0000
       N       E                     dE             d eps       ncg     rms          ort
SDA:   1    -0.128309595754E+04    0.23799E+00    0.00000E+00 10640   0.780E+00 0.000E+00
CGA:   2    -0.128324074723E+04   -0.14479E+00   -0.14482E+00 10640   0.266E+00 0.309E-03
CGA:   3    -0.128330996044E+04   -0.69213E-01   -0.69264E-01 10640   0.815E-01 0.331E-03
CGA:   4    -0.128332244093E+04   -0.12480E-01   -0.12426E-01 10640   0.125E-01-0.214E-03
CGA:   5    -0.128332475688E+04   -0.23159E-02   -0.23198E-02 10640   0.384E-02 0.329E-04
CGA:   6    -0.128332552559E+04   -0.76872E-03   -0.73999E-03 10640   0.141E-02-0.196E-03
CGA:   7    -0.128332580991E+04   -0.28432E-03   -0.27278E-03 10640   0.385E-03-0.917E-04
CGA:   8    -0.128332589623E+04   -0.86311E-04   -0.83060E-04 10640   0.200E-03-0.353E-04
CGA:   9    -0.128332534798E+04    0.54824E-03   -0.22720E-03 10640   0.693E-02-0.830E-03
CGA:  10    -0.128332594887E+04   -0.60088E-03   -0.66359E-03 10640   0.658E-03 0.294E-03
CGA:  11    -0.128332613291E+04   -0.18404E-03   -0.18253E-03 10640   0.180E-03-0.176E-04
CGA:  12    -0.128332619373E+04   -0.60824E-04   -0.73653E-04 10640   0.531E-03-0.171E-03
CGA:  13    -0.128332620885E+04   -0.15116E-04   -0.44697E-04 10640   0.517E-04 0.114E-03
CGA:  14    -0.128332620885E+04   -0.52387E-09   -0.61471E-05 10640   0.269E-04 0.258E-04
  11 F= -.12833262E+04 E0= -.12833262E+04  d E =0.773693E-02  mag=    47.0000
       N       E                     dE             d eps       ncg     rms          ort
SDA:   1    -0.127768202749E+04    0.56442E+01    0.00000E+00 10640   0.191E+02 0.000E+00
CGA:   2    -0.128115867940E+04   -0.34767E+01   -0.34687E+01 10640   0.653E+01 0.447E-01
CGA:   3    -0.128281037549E+04   -0.16517E+01   -0.16532E+01 10640   0.229E+01 0.667E-02
CGA:   4    -0.128314471867E+04   -0.33434E+00   -0.33434E+00 10640   0.336E+00 0.221E-01
CGA:   5    -0.128320634954E+04   -0.61631E-01   -0.61687E-01 10640   0.101E+00 0.641E-03
CGA:   6    -0.128322499618E+04   -0.18647E-01   -0.18748E-01 10640   0.310E-01 0.966E-03
CGA:   7    -0.128323120511E+04   -0.62089E-02   -0.62914E-02 10640   0.798E-02 0.992E-03
CGA:   8    -0.128323308867E+04   -0.18836E-02   -0.18484E-02 10640   0.410E-02-0.562E-03
CGA:   9    -0.128323363270E+04   -0.54404E-03   -0.63128E-03 10640   0.134E-02 0.758E-03
CGA:  10    -0.128323389579E+04   -0.26309E-03   -0.31352E-03 10640   0.580E-03 0.634E-03
CGA:  11    -0.128323401477E+04   -0.11898E-03   -0.15088E-03 10640   0.372E-03 0.330E-03
CGA:  12    -0.128323402240E+04   -0.76314E-05   -0.40328E-04 10640   0.207E-03 0.205E-03
CGA:  13    -0.128323404396E+04   -0.21566E-04   -0.35783E-04 10640   0.160E-03 0.163E-03
CGA:  14    -0.128323404089E+04    0.30730E-05   -0.17575E-04 10640   0.137E-03 0.141E-03
CGA:  15    -0.128323404186E+04   -0.96983E-06   -0.17013E-04 10640   0.123E-03 0.129E-03
CGA:  16    -0.128323403932E+04    0.25363E-05   -0.13247E-04 10640   0.113E-03 0.117E-03
CGA:  17    -0.128323403670E+04    0.26237E-05   -0.11707E-04 10640   0.105E-03 0.109E-03
CGA:  18    -0.128323403352E+04    0.31797E-05   -0.10197E-04 10640   0.983E-04 0.101E-03
  12 F= -.12832340E+04 E0= -.12832340E+04  d E =0.921753E-01  mag=    47.0000
       N       E                     dE             d eps       ncg     rms          ort
SDA:   1    -0.127934993670E+04    0.38841E+01    0.00000E+00 10640   0.136E+02 0.000E+00
CGA:   2    -0.128185529589E+04   -0.25054E+01   -0.25054E+01 10640   0.463E+01 0.557E-02
CGA:   3    -0.128305562246E+04   -0.12003E+01   -0.12001E+01 10640   0.143E+01 0.233E-02
CGA:   4    -0.128327761036E+04   -0.22199E+00   -0.22175E+00 10640   0.201E+00-0.452E-02
CGA:   5    -0.128331824466E+04   -0.40634E-01   -0.40647E-01 10640   0.540E-01 0.142E-02
CGA:   6    -0.128332991208E+04   -0.11667E-01   -0.11672E-01 10640   0.208E-01-0.324E-02
CGA:   7    -0.128333306897E+04   -0.31569E-02   -0.32212E-02 10640   0.422E-02 0.137E-02
CGA:   8    -0.128333428069E+04   -0.12117E-02   -0.12361E-02 10640   0.193E-02-0.379E-03
CGA:   9    -0.128333479338E+04   -0.51269E-03   -0.71541E-03 10640   0.264E-02-0.104E-02
CGA:  10    -0.128333512707E+04   -0.33368E-03   -0.33584E-03 10640   0.543E-03 0.301E-04
CGA:  11    -0.128333404506E+04    0.10820E-02   -0.58709E-03 10640   0.112E-01-0.196E-02
CGA:  12    -0.128333526095E+04   -0.12159E-02   -0.12581E-02 10640   0.189E-02 0.332E-03
CGA:  13    -0.128333564590E+04   -0.38495E-03   -0.38977E-03 10640   0.213E-03 0.908E-04
CGA:  14    -0.128333570668E+04   -0.60775E-04   -0.61723E-04 10640   0.103E-03-0.372E-04
CGA:  15    -0.128333572653E+04   -0.19856E-04   -0.19307E-04 10640   0.586E-04-0.209E-04
CGA:  16    -0.128333577620E+04   -0.49667E-04    0.52711E-05 10640   0.286E-04 0.157E-04
CGA:  17    -0.128333580939E+04   -0.33187E-04    0.55667E-05 10640   0.242E-04 0.785E-05
CGA:  18    -0.128333584275E+04   -0.33364E-04    0.33651E-05 10640   0.178E-04 0.126E-04
CGA:  19    -0.128333585853E+04   -0.15780E-04    0.29336E-05 10640   0.141E-04 0.758E-06
CGA:  20    -0.128333583517E+04    0.23362E-04   -0.13883E-04 10640   0.324E-03-0.355E-04
CGA:  21    -0.128333591534E+04   -0.80173E-04   -0.56021E-04 10640   0.130E-03-0.837E-04
CGA:  22    -0.128333592347E+04   -0.81238E-05   -0.14609E-04 10640   0.180E-04 0.224E-04
  13 F= -.12833359E+04 E0= -.12833359E+04  d E =-.101890E+00  mag=    47.0000
       N       E                     dE             d eps       ncg     rms          ort
SDA:   1    -0.128329606327E+04    0.39852E-01    0.00000E+00 10640   0.135E+00 0.000E+00
CGA:   2    -0.128332106237E+04   -0.24999E-01   -0.24982E-01 10640   0.457E-01-0.698E-04
CGA:   3    -0.128333296740E+04   -0.11905E-01   -0.11933E-01 10640   0.136E-01 0.172E-03
CGA:   4    -0.128333519522E+04   -0.22278E-02   -0.21726E-02 10640   0.204E-02-0.233E-03
CGA:   5    -0.128333555612E+04   -0.36090E-03   -0.37692E-03 10640   0.521E-03 0.843E-04
CGA:   6    -0.128333570841E+04   -0.15230E-03   -0.13808E-03 10640   0.331E-03-0.121E-03
CGA:   7    -0.128333573555E+04   -0.27135E-04   -0.32940E-04 10640   0.764E-04 0.250E-04
CGA:   8    -0.128333574335E+04   -0.77997E-05   -0.11471E-04 10640   0.378E-04 0.172E-04
CGA:   9    -0.128333573350E+04    0.98451E-05   -0.31340E-04 10640   0.431E-03-0.123E-03
CGA:  10    -0.128333577493E+04   -0.41429E-04   -0.49827E-04 10640   0.794E-04 0.351E-04
CGA:  11    -0.128333579750E+04   -0.22574E-04   -0.20440E-04 10640   0.190E-04-0.194E-04
CGA:  12    -0.128333581241E+04   -0.14908E-04    0.47638E-05 10640   0.209E-04-0.636E-05
CGA:  13    -0.128333581316E+04   -0.74862E-06   -0.16622E-05 10640   0.838E-05 0.412E-05
  14 F= -.12833358E+04 E0= -.12833358E+04  d E =0.110306E-03  mag=    47.0000
       N       E                     dE             d eps       ncg     rms          ort
SDA:   1    -0.128086554400E+04    0.24703E+01    0.00000E+00 10640   0.824E+01 0.000E+00
CGA:   2    -0.128239473347E+04   -0.15292E+01   -0.15283E+01 10640   0.283E+01 0.679E-02
CGA:   3    -0.128312254866E+04   -0.72782E+00   -0.72815E+00 10640   0.889E+00 0.273E-02
CGA:   4    -0.128325532944E+04   -0.13278E+00   -0.13364E+00 10640   0.130E+00 0.770E-02
CGA:   5    -0.128328063630E+04   -0.25307E-01   -0.25281E-01 10640   0.403E-01-0.227E-03
CGA:   6    -0.128328756837E+04   -0.69321E-02   -0.70760E-02 10640   0.122E-01 0.126E-02
CGA:   7    -0.128329009707E+04   -0.25287E-02   -0.25497E-02 10640   0.314E-02 0.254E-03
CGA:   8    -0.128329086919E+04   -0.77212E-03   -0.75836E-03 10640   0.175E-02-0.273E-03
CGA:   9    -0.128329103800E+04   -0.16882E-03   -0.22991E-03 10640   0.554E-03 0.442E-03
CGA:  10    -0.128329109758E+04   -0.59577E-04   -0.10263E-03 10640   0.302E-03 0.333E-03
CGA:  11    -0.128329115017E+04   -0.52592E-04   -0.57366E-04 10640   0.239E-03 0.595E-04
CGA:  12    -0.128329114756E+04    0.26119E-05   -0.30444E-04 10640   0.127E-03 0.207E-03
  15 F= -.12832911E+04 E0= -.12832911E+04  d E =0.446656E-01  mag=    47.0000
       N       E                     dE             d eps       ncg     rms          ort
SDA:   1    -0.127462673011E+04    0.86644E+01    0.00000E+00 10640   0.297E+02 0.000E+00
CGA:   2    -0.128003639301E+04   -0.54097E+01   -0.54100E+01 10640   0.994E+01 0.207E-01
CGA:   3    -0.128261623379E+04   -0.25798E+01   -0.25797E+01 10640   0.315E+01 0.195E-02
CGA:   4    -0.128310507882E+04   -0.48885E+00   -0.48911E+00 10640   0.430E+00-0.240E-02
CGA:   5    -0.128319349638E+04   -0.88418E-01   -0.88415E-01 10640   0.116E+00 0.945E-03
CGA:   6    -0.128321809358E+04   -0.24597E-01   -0.24505E-01 10640   0.418E-01-0.346E-02
CGA:   7    -0.128322512314E+04   -0.70296E-02   -0.71058E-02 10640   0.959E-02 0.137E-02
CGA:   8    -0.128322765754E+04   -0.25344E-02   -0.25555E-02 10640   0.476E-02-0.933E-03
CGA:   9    -0.128322870265E+04   -0.10451E-02   -0.10488E-02 10640   0.292E-02-0.504E-03
CGA:  10    -0.128322940939E+04   -0.70673E-03   -0.80902E-03 10640   0.305E-02-0.140E-02
CGA:  11    -0.128322972111E+04   -0.31172E-03   -0.55336E-03 10640   0.351E-02-0.226E-02
CGA:  12    -0.128323018647E+04   -0.46536E-03   -0.48508E-03 10640   0.126E-02 0.190E-03
CGA:  13    -0.128323052113E+04   -0.33466E-03   -0.33427E-03 10640   0.369E-03 0.356E-04
CGA:  14    -0.128323036005E+04    0.16108E-03   -0.39707E-03 10640   0.394E-02-0.692E-03
CGA:  15    -0.128323072532E+04   -0.36527E-03   -0.42347E-03 10640   0.417E-03 0.352E-03
CGA:  16    -0.128323085528E+04   -0.12996E-03   -0.13102E-03 10640   0.314E-03-0.687E-04
CGA:  17    -0.128323092526E+04   -0.69976E-04   -0.68953E-04 10640   0.215E-03-0.958E-04
CGA:  18    -0.128323095114E+04   -0.25888E-04   -0.28457E-04 10640   0.116E-03 0.309E-04
CGA:  19    -0.128323098718E+04   -0.36040E-04   -0.36100E-04 10640   0.124E-03-0.242E-04
CGA:  20    -0.128323087663E+04    0.11055E-03   -0.93904E-04 10640   0.152E-02-0.299E-03
CGA:  21    -0.128323102265E+04   -0.14602E-03   -0.18214E-03 10640   0.306E-03 0.202E-03
CGA:  22    -0.128323110121E+04   -0.78556E-04   -0.80998E-04 10640   0.831E-04 0.403E-04
CGA:  23    -0.128323112125E+04   -0.20039E-04   -0.40609E-04 10640   0.385E-03-0.146E-03
CGA:  24    -0.128323113292E+04   -0.11674E-04   -0.33287E-04 10640   0.431E-04 0.104E-03
CGA:  25    -0.128323113151E+04    0.14151E-05   -0.40957E-05 10640   0.194E-04 0.260E-04
CGA:  26    -0.128323113432E+04   -0.28145E-05   -0.20832E-04 10640   0.962E-04-0.228E-04
  16 F= -.12832311E+04 E0= -.12832311E+04  d E =0.600132E-01  mag=    47.0000
       N       E                     dE             d eps       ncg     rms          ort
SDA:   1    -0.128012321766E+04    0.31079E+01    0.00000E+00 10640   0.109E+02 0.000E+00
CGA:   2    -0.128215319717E+04   -0.20300E+01   -0.20290E+01 10640   0.378E+01 0.330E-02
CGA:   3    -0.128311581113E+04   -0.96261E+00   -0.96301E+00 10640   0.119E+01 0.551E-02
CGA:   4    -0.128329349495E+04   -0.17768E+00   -0.17860E+00 10640   0.174E+00 0.767E-02
CGA:   5    -0.128332687461E+04   -0.33380E-01   -0.33426E-01 10640   0.544E-01 0.580E-03
CGA:   6    -0.128333644251E+04   -0.95679E-02   -0.96583E-02 10640   0.168E-01 0.892E-03
CGA:   7    -0.128333983353E+04   -0.33910E-02   -0.34175E-02 10640   0.420E-02 0.361E-03
CGA:   8    -0.128334089947E+04   -0.10659E-02   -0.10528E-02 10640   0.231E-02-0.433E-03
CGA:   9    -0.128334116948E+04   -0.27001E-03   -0.32263E-03 10640   0.740E-03 0.452E-03
CGA:  10    -0.128334128874E+04   -0.11926E-03   -0.15367E-03 10640   0.334E-03 0.364E-03
CGA:  11    -0.128334134518E+04   -0.56443E-04   -0.76936E-04 10640   0.181E-03 0.188E-03
CGA:  12    -0.128334134949E+04   -0.43134E-05   -0.20460E-04 10640   0.105E-03 0.112E-03
CGA:  13    -0.128334135743E+04   -0.79333E-05   -0.16140E-04 10640   0.793E-04 0.848E-04
  17 F= -.12833414E+04 E0= -.12833413E+04  d E =-.110223E+00  mag=    47.0000
       N       E                     dE             d eps       ncg     rms          ort
SDA:   1    -0.128185071884E+04    0.14906E+01    0.00000E+00 10640   0.489E+01 0.000E+00
CGA:   2    -0.128275606495E+04   -0.90535E+00   -0.90521E+00 10640   0.168E+01 0.197E-02
CGA:   3    -0.128318644536E+04   -0.43038E+00   -0.43030E+00 10640   0.537E+00 0.296E-02
CGA:   4    -0.128326583031E+04   -0.79385E-01   -0.79908E-01 10640   0.782E-01 0.679E-02
CGA:   5    -0.128328100735E+04   -0.15177E-01   -0.15165E-01 10640   0.246E-01-0.261E-03
CGA:   6    -0.128328522608E+04   -0.42187E-02   -0.42821E-02 10640   0.721E-02 0.116E-02
CGA:   7    -0.128328676121E+04   -0.15351E-02   -0.15427E-02 10640   0.188E-02 0.330E-03
CGA:   8    -0.128328726425E+04   -0.50304E-03   -0.51340E-03 10640   0.134E-02-0.303E-03
CGA:   9    -0.128328734917E+04   -0.84914E-04   -0.13233E-03 10640   0.497E-03 0.430E-03
CGA:  10    -0.128328736940E+04   -0.20236E-04   -0.62771E-04 10640   0.295E-03 0.335E-03
CGA:  11    -0.128328742494E+04   -0.55535E-04   -0.57475E-04 10640   0.202E-03 0.888E-04
CGA:  12    -0.128328742345E+04    0.14869E-05   -0.23420E-04 10640   0.117E-03 0.197E-03
  18 F= -.12832874E+04 E0= -.12832874E+04  d E =0.539340E-01  mag=    47.0000
       N       E                     dE             d eps       ncg     rms          ort
SDA:   1    -0.127542272488E+04    0.78647E+01    0.00000E+00 10640   0.267E+02 0.000E+00
CGA:   2    -0.128034920922E+04   -0.49265E+01   -0.49266E+01 10640   0.910E+01 0.178E-01
CGA:   3    -0.128270244510E+04   -0.23532E+01   -0.23528E+01 10640   0.278E+01 0.182E-02
CGA:   4    -0.128313665832E+04   -0.43421E+00   -0.43409E+00 10640   0.382E+00-0.300E-02
CGA:   5    -0.128321689076E+04   -0.80232E-01   -0.80233E-01 10640   0.100E+00 0.251E-03
CGA:   6    -0.128323859861E+04   -0.21708E-01   -0.21762E-01 10640   0.355E-01-0.360E-02
CGA:   7    -0.128324439068E+04   -0.57921E-02   -0.58438E-02 10640   0.810E-02 0.171E-02
CGA:   8    -0.128324662968E+04   -0.22390E-02   -0.23018E-02 10640   0.383E-02-0.892E-03
CGA:   9    -0.128324757877E+04   -0.94908E-03   -0.99193E-03 10640   0.209E-02-0.491E-03
CGA:  10    -0.128324701048E+04    0.56829E-03   -0.12362E-02 10640   0.143E-01-0.383E-02
CGA:  11    -0.128324844341E+04   -0.14329E-02   -0.15146E-02 10640   0.146E-02 0.696E-03
CGA:  12    -0.128324883208E+04   -0.38867E-03   -0.38923E-03 10640   0.521E-03-0.188E-04
CGA:  13    -0.128324897352E+04   -0.14145E-03   -0.16476E-03 10640   0.813E-03-0.250E-03
CGA:  14    -0.128324906217E+04   -0.88640E-04   -0.83620E-04 10640   0.432E-03-0.144E-03
CGA:  15    -0.128324912668E+04   -0.64516E-04   -0.55961E-04 10640   0.320E-03-0.116E-03
CGA:  16    -0.128324923691E+04   -0.11023E-03    0.71002E-03 10640   0.256E-03-0.394E-04
CGA:  17    -0.128324928753E+04   -0.50620E-04   -0.60671E-04 10640   0.425E-03-0.233E-03
CGA:  18    -0.128324932978E+04   -0.42251E-04   -0.49544E-04 10640   0.841E-04 0.661E-04
CGA:  19    -0.128324935625E+04   -0.26465E-04   -0.25615E-04 10640   0.511E-04 0.211E-04
CGA:  20    -0.128324937125E+04   -0.15001E-04   -0.15031E-04 10640   0.437E-04-0.316E-05
CGA:  21    -0.128324938286E+04   -0.11611E-04   -0.11052E-04 10640   0.303E-04 0.126E-04
CGA:  22    -0.128324939511E+04   -0.12246E-04   -0.14880E-04 10640   0.820E-04-0.174E-04
CGA:  23    -0.128324940558E+04   -0.10477E-04   -0.10410E-04 10640   0.139E-04-0.373E-06
CGA:  24    -0.128324941065E+04   -0.50665E-05   -0.44658E-05 10640   0.953E-05 0.637E-05
  19 F= -.12832494E+04 E0= -.12832494E+04  d E =0.380128E-01  mag=    47.0000
       N       E                     dE             d eps       ncg     rms          ort
SDA:   1    -0.127880457166E+04    0.44448E+01    0.00000E+00 10640   0.153E+02 0.000E+00
CGA:   2    -0.128166081222E+04   -0.28562E+01   -0.28554E+01 10640   0.529E+01 0.157E-02
CGA:   3    -0.128301474465E+04   -0.13539E+01   -0.13537E+01 10640   0.164E+01 0.108E-01
CGA:   4    -0.128326288318E+04   -0.24814E+00   -0.24906E+00 10640   0.234E+00 0.129E-01
CGA:   5    -0.128330960467E+04   -0.46721E-01   -0.46723E-01 10640   0.719E-01 0.566E-04
CGA:   6    -0.128332226648E+04   -0.12662E-01   -0.12770E-01 10640   0.226E-01 0.199E-02
CGA:   7    -0.128332686630E+04   -0.45998E-02   -0.46057E-02 10640   0.589E-02 0.204E-03
CGA:   8    -0.128332826966E+04   -0.14034E-02   -0.14061E-02 10640   0.309E-02-0.484E-03
CGA:   9    -0.128332865267E+04   -0.38301E-03   -0.43500E-03 10640   0.983E-03 0.676E-03
CGA:  10    -0.128332882227E+04   -0.16960E-03   -0.20095E-03 10640   0.455E-03 0.526E-03
CGA:  11    -0.128332890381E+04   -0.81549E-04   -0.85747E-04 10640   0.335E-03 0.118E-03
CGA:  12    -0.128332891861E+04   -0.14794E-04   -0.47519E-04 10640   0.172E-03 0.298E-03
CGA:  13    -0.128332891484E+04    0.37671E-05   -0.13873E-04 10640   0.120E-03 0.129E-03
CGA:  14    -0.128332891554E+04   -0.70242E-06   -0.12502E-04 10640   0.105E-03 0.111E-03
CGA:  15    -0.128332891609E+04   -0.55103E-06   -0.10728E-04 10640   0.940E-04 0.990E-04
  20 F= -.12833289E+04 E0= -.12833289E+04  d E =-.795054E-01  mag=    47.0000
       N       E                     dE             d eps       ncg     rms          ort
SDA:   1    -0.128163879350E+04    0.16901E+01    0.00000E+00 10640   0.537E+01 0.000E+00
CGA:   2    -0.128263663856E+04   -0.99785E+00   -0.99783E+00 10640   0.186E+01 0.222E-02
CGA:   3    -0.128311073621E+04   -0.47410E+00   -0.47378E+00 10640   0.588E+00 0.390E-02
CGA:   4    -0.128319791158E+04   -0.87175E-01   -0.87595E-01 10640   0.837E-01 0.981E-02
CGA:   5    -0.128321479609E+04   -0.16885E-01   -0.16888E-01 10640   0.264E-01-0.990E-03
CGA:   6    -0.128321917225E+04   -0.43762E-02   -0.44269E-02 10640   0.725E-02 0.208E-02
CGA:   7    -0.128322088744E+04   -0.17152E-02   -0.17139E-02 10640   0.207E-02 0.576E-04
CGA:   8    -0.128322138118E+04   -0.49373E-03   -0.49977E-03 10640   0.122E-02-0.134E-03
CGA:   9    -0.128322147853E+04   -0.97358E-04   -0.13516E-03 10640   0.445E-03 0.481E-03
CGA:  10    -0.128322150458E+04   -0.26044E-04   -0.60303E-04 10640   0.279E-03 0.358E-03
CGA:  11    -0.128322154149E+04   -0.36917E-04   -0.42138E-04 10640   0.172E-03 0.140E-03
CGA:  12    -0.128322153895E+04    0.25412E-05   -0.12882E-04 10640   0.127E-03 0.138E-03
CGA:  13    -0.128322153884E+04    0.11425E-06   -0.11061E-04 10640   0.112E-03 0.119E-03
  21 F= -.12832215E+04 E0= -.12832215E+04  d E =0.107377E+00  mag=    47.0000
       N       E                     dE             d eps       ncg     rms          ort
SDA:   1    -0.127384947328E+04    0.93721E+01    0.00000E+00 10640   0.321E+02 0.000E+00
CGA:   2    -0.127978961524E+04   -0.59401E+01   -0.59400E+01 10640   0.110E+02 0.218E-01
CGA:   3    -0.128262488734E+04   -0.28353E+01   -0.28342E+01 10640   0.331E+01 0.492E-02
CGA:   4    -0.128314275462E+04   -0.51787E+00   -0.51779E+00 10640   0.456E+00-0.422E-02
CGA:   5    -0.128323903888E+04   -0.96284E-01   -0.96279E-01 10640   0.120E+00 0.410E-03
CGA:   6    -0.128326476604E+04   -0.25727E-01   -0.25898E-01 10640   0.426E-01-0.436E-02
CGA:   7    -0.128327165101E+04   -0.68850E-02   -0.69093E-02 10640   0.984E-02 0.229E-02
CGA:   8    -0.128327429744E+04   -0.26464E-02   -0.27117E-02 10640   0.442E-02-0.777E-03
CGA:   9    -0.128327544237E+04   -0.11449E-02   -0.12475E-02 10640   0.295E-02-0.825E-03
CGA:  10    -0.128327597896E+04   -0.53659E-03   -0.75774E-03 10640   0.384E-02-0.174E-02
CGA:  11    -0.128327644369E+04   -0.46472E-03   -0.44849E-03 10640   0.768E-03-0.198E-03
CGA:  12    -0.128327657197E+04   -0.12829E-03   -0.38745E-03 10640   0.208E-02-0.760E-03
CGA:  13    -0.128327684577E+04   -0.27380E-03   -0.26173E-03 10640   0.435E-03-0.141E-03
CGA:  14    -0.128327693933E+04   -0.93558E-04   -0.99705E-04 10640   0.182E-03-0.147E-03
CGA:  15    -0.128327701095E+04   -0.71613E-04    0.28393E-04 10640   0.841E-04 0.208E-04
CGA:  16    -0.128327707491E+04   -0.63967E-04    0.14813E-04 10640   0.311E-04 0.419E-04
CGA:  17    -0.128327712125E+04   -0.46340E-04    0.34143E-05 10640   0.291E-04 0.307E-04
CGA:  18    -0.128327714745E+04   -0.26197E-04    0.25499E-05 10640   0.261E-04 0.136E-04
CGA:  19    -0.128327718825E+04   -0.40801E-04    0.25083E-05 10640   0.182E-04 0.286E-04
CGA:  20    -0.128327720524E+04   -0.16994E-04    0.14810E-05 10640   0.150E-04 0.146E-04
CGA:  21    -0.128327722174E+04   -0.16496E-04    0.93262E-06 10640   0.144E-04 0.129E-04
CGA:  22    -0.128327723518E+04   -0.13444E-04    0.11725E-05 10640   0.142E-04 0.115E-04
CGA:  23    -0.128327724950E+04   -0.14318E-04    0.10156E-05 10640   0.146E-04 0.983E-05
CGA:  24    -0.128327726024E+04   -0.10741E-04    0.19233E-05 10640   0.159E-04 0.754E-05
CGA:  25    -0.128327727291E+04   -0.12669E-04    0.17635E-05 10640   0.187E-04 0.419E-05
CGA:  26    -0.128327729639E+04   -0.23479E-04    0.17383E-05 10640   0.140E-04 0.219E-04
CGA:  27    -0.128327730289E+04   -0.65051E-05    0.11235E-04 10640   0.169E-04 0.219E-05
  22 F= -.12832773E+04 E0= -.12832773E+04  d E =-.557641E-01  mag=    47.0000
       N       E                     dE             d eps       ncg     rms          ort
SDA:   1    -0.128142425403E+04    0.18530E+01    0.00000E+00 10640   0.648E+01 0.000E+00
CGA:   2    -0.128263355032E+04   -0.12093E+01   -0.12092E+01 10640   0.224E+01-0.179E-02
CGA:   3    -0.128320642087E+04   -0.57287E+00   -0.57246E+00 10640   0.683E+00 0.657E-02
CGA:   4    -0.128331058246E+04   -0.10416E+00   -0.10455E+00 10640   0.953E-01 0.759E-02
CGA:   5    -0.128333027326E+04   -0.19691E-01   -0.19691E-01 10640   0.288E-01-0.221E-03
CGA:   6    -0.128333526972E+04   -0.49965E-02   -0.50390E-02 10640   0.891E-02 0.148E-02
CGA:   7    -0.128333716041E+04   -0.18907E-02   -0.18905E-02 10640   0.250E-02-0.107E-03
CGA:   8    -0.128333773717E+04   -0.57676E-03   -0.58517E-03 10640   0.131E-02-0.251E-03
CGA:   9    -0.128333787403E+04   -0.13685E-03   -0.16146E-03 10640   0.407E-03 0.364E-03
CGA:  10    -0.128333792094E+04   -0.46910E-04   -0.66445E-04 10640   0.217E-03 0.264E-03
CGA:  11    -0.128333795134E+04   -0.30408E-04   -0.33862E-04 10640   0.130E-03 0.817E-04
CGA:  12    -0.128333795305E+04   -0.17029E-05   -0.16275E-04 10640   0.842E-04 0.139E-03
  23 F= -.12833380E+04 E0= -.12833379E+04  d E =-.606502E-01  mag=    47.0000
       N       E                     dE             d eps       ncg     rms          ort
SDA:   1    -0.128315628801E+04    0.18166E+00    0.00000E+00 10640   0.589E+00 0.000E+00
CGA:   2    -0.128326922613E+04   -0.11294E+00   -0.11292E+00 10640   0.211E+00 0.309E-02
CGA:   3    -0.128332384798E+04   -0.54622E-01   -0.54794E-01 10640   0.649E-01-0.246E-02
CGA:   4    -0.128333358626E+04   -0.97383E-02   -0.96828E-02 10640   0.107E-01-0.145E-02
CGA:   5    -0.128333552090E+04   -0.19346E-02   -0.19336E-02 10640   0.351E-02-0.474E-03
CGA:   6    -0.128333614735E+04   -0.62646E-03   -0.62654E-03 10640   0.117E-02-0.279E-03
CGA:   7    -0.128333633606E+04   -0.18871E-03   -0.19000E-03 10640   0.223E-03 0.123E-03
CGA:   8    -0.128333638710E+04   -0.51042E-04   -0.50096E-04 10640   0.690E-04 0.550E-04
CGA:   9    -0.128333639228E+04   -0.51814E-05   -0.65494E-04 10640   0.288E-03-0.105E-03
CGA:  10    -0.128333642491E+04   -0.32624E-04   -0.12709E-03 10640   0.106E-02-0.418E-03
CGA:  11    -0.128333650299E+04   -0.78082E-04   -0.98834E-04 10640   0.734E-04 0.158E-03
CGA:  12    -0.128333651683E+04   -0.13841E-04   -0.13833E-04 10640   0.189E-04-0.146E-06
CGA:  13    -0.128333637050E+04    0.14633E-03   -0.79334E-04 10640   0.152E-02-0.144E-03
CGA:  14    -0.128333650912E+04   -0.13863E-03   -0.15741E-03 10640   0.106E-03 0.701E-04
CGA:  15    -0.128333455408E+04    0.19550E-02   -0.10651E-02 10640   0.107E-01-0.107E-02
CGA:  16    -0.128333606201E+04   -0.15079E-02   -0.18341E-02 10640   0.227E-02 0.698E-03
CGA:  17    -0.128333658235E+04   -0.52034E-03   -0.44326E-03 10640   0.251E-03-0.160E-03
CGA:  18    -0.128333658172E+04    0.62597E-06   -0.26294E-04 10640   0.384E-04 0.515E-04
  24 F= -.12833366E+04 E0= -.12833365E+04  d E =0.137133E-02  mag=    47.0000
       N       E                     dE             d eps       ncg     rms          ort
SDA:   1    -0.128305607297E+04    0.28051E+00    0.00000E+00 10640   0.943E+00 0.000E+00
CGA:   2    -0.128323272698E+04   -0.17665E+00   -0.17644E+00 10640   0.320E+00 0.476E-03
CGA:   3    -0.128331579488E+04   -0.83068E-01   -0.83449E-01 10640   0.931E-01 0.918E-03
CGA:   4    -0.128332976063E+04   -0.13966E-01   -0.14479E-01 10640   0.131E-01 0.139E-02
CGA:   5    -0.128333262124E+04   -0.28606E-02   -0.28391E-02 10640   0.351E-02-0.699E-04
CGA:   6    -0.128333318312E+04   -0.56189E-03   -0.67057E-03 10640   0.102E-02 0.337E-03
CGA:   7    -0.128333350083E+04   -0.31770E-03   -0.26627E-03 10640   0.478E-03-0.190E-03
CGA:   8    -0.128333352652E+04   -0.25693E-04   -0.55718E-04 10640   0.143E-03 0.870E-04
CGA:   9    -0.128333352621E+04    0.31357E-06   -0.23203E-04 10640   0.705E-04 0.697E-04
CGA:  10    -0.128333352848E+04   -0.22716E-05   -0.14658E-04 10640   0.304E-04 0.389E-04
  25 F= -.12833335E+04 E0= -.12833335E+04  d E =0.305324E-02  mag=    47.0000
       N       E                     dE             d eps       ncg     rms          ort
SDA:   1    -0.128271584481E+04    0.61768E+00    0.00000E+00 10640   0.211E+01 0.000E+00
CGA:   2    -0.128310347389E+04   -0.38763E+00   -0.38822E+00 10640   0.700E+00 0.262E-02
CGA:   3    -0.128328838066E+04   -0.18491E+00   -0.18462E+00 10640   0.210E+00-0.236E-02
CGA:   4    -0.128332204028E+04   -0.33660E-01   -0.33285E-01 10640   0.292E-01-0.155E-02
CGA:   5    -0.128332835207E+04   -0.63118E-02   -0.62686E-02 10640   0.712E-02-0.240E-03
CGA:   6    -0.128333014403E+04   -0.17920E-02   -0.17302E-02 10640   0.238E-02-0.441E-03
CGA:   7    -0.128333040452E+04   -0.26049E-03   -0.33656E-03 10640   0.604E-03 0.340E-03
CGA:   8    -0.128333055024E+04   -0.14572E-03   -0.14766E-03 10640   0.254E-03 0.132E-04
CGA:   9    -0.128333062930E+04   -0.79052E-04   -0.15402E-03 10640   0.802E-03-0.319E-03
CGA:  10    -0.128333071038E+04   -0.81084E-04   -0.10130E-03 10640   0.147E-03 0.842E-04
CGA:  11    -0.128333060167E+04    0.10871E-03   -0.13701E-03 10640   0.203E-02-0.503E-03
CGA:  12    -0.128333080561E+04   -0.20393E-03   -0.23900E-03 10640   0.368E-03 0.136E-03
CGA:  13    -0.128333085710E+04   -0.51498E-04   -0.63383E-04 10640   0.408E-04 0.574E-04
CGA:  14    -0.128333087462E+04   -0.17515E-04   -0.19361E-04 10640   0.678E-04-0.361E-04
CGA:  15    -0.128333087349E+04    0.11281E-05   -0.53060E-05 10640   0.119E-04 0.229E-04
  26 F= -.12833309E+04 E0= -.12833308E+04  d E =0.265499E-02  mag=    47.0000
       N       E                     dE             d eps       ncg     rms          ort
SDA:   1    -0.128207605174E+04    0.12548E+01    0.00000E+00 10640   0.429E+01 0.000E+00
CGA:   2    -0.128286800888E+04   -0.79196E+00   -0.79147E+00 10640   0.142E+01 0.207E-03
CGA:   3    -0.128324051926E+04   -0.37251E+00   -0.37291E+00 10640   0.428E+00 0.478E-02
CGA:   4    -0.128330692097E+04   -0.66402E-01   -0.67171E-01 10640   0.573E-01 0.470E-02
CGA:   5    -0.128331945285E+04   -0.12532E-01   -0.12569E-01 10640   0.142E-01 0.370E-03
CGA:   6    -0.128332249415E+04   -0.30413E-02   -0.31293E-02 10640   0.379E-02 0.965E-03
CGA:   7    -0.128332350492E+04   -0.10108E-02   -0.96892E-03 10640   0.189E-02-0.612E-03
CGA:   8    -0.128332367457E+04   -0.16964E-03   -0.21676E-03 10640   0.559E-03 0.286E-03
CGA:   9    -0.128332371836E+04   -0.43788E-04   -0.87318E-04 10640   0.276E-03 0.273E-03
CGA:  10    -0.128332374994E+04   -0.31586E-04   -0.54550E-04 10640   0.115E-03 0.149E-03
CGA:  11    -0.128332375350E+04   -0.35582E-05   -0.14907E-04 10640   0.661E-04 0.756E-04
  27 F= -.12833238E+04 E0= -.12833237E+04  d E =0.711999E-02  mag=    47.0000
       N       E                     dE             d eps       ncg     rms          ort
SDA:   1    -0.128124952750E+04    0.20742E+01    0.00000E+00 10640   0.712E+01 0.000E+00
CGA:   2    -0.128255590849E+04   -0.13064E+01   -0.13069E+01 10640   0.236E+01 0.780E-02
CGA:   3    -0.128317825060E+04   -0.62234E+00   -0.62236E+00 10640   0.720E+00-0.489E-02
CGA:   4    -0.128329207290E+04   -0.11382E+00   -0.11350E+00 10640   0.981E-01-0.336E-02
CGA:   5    -0.128331296331E+04   -0.20890E-01   -0.20889E-01 10640   0.243E-01-0.127E-04
CGA:   6    -0.128331872489E+04   -0.57616E-02   -0.57415E-02 10640   0.874E-02-0.131E-02
CGA:   7    -0.128331986855E+04   -0.11437E-02   -0.12379E-02 10640   0.215E-02 0.960E-03
CGA:   8    -0.128332038650E+04   -0.51796E-03   -0.51939E-03 10640   0.840E-03 0.518E-04
CGA:   9    -0.128332061711E+04   -0.23061E-03   -0.44104E-03 10640   0.195E-02-0.783E-03
CGA:  10    -0.128332079743E+04   -0.18031E-03   -0.22047E-03 10640   0.317E-03 0.282E-03
CGA:  11    -0.128332074665E+04    0.50780E-04   -0.23940E-03 10640   0.180E-02-0.710E-03
CGA:  12    -0.128332102300E+04   -0.27635E-03   -0.28140E-03 10640   0.361E-03 0.459E-04
CGA:  13    -0.128332106839E+04   -0.45393E-04   -0.49736E-04 10640   0.528E-04 0.337E-04
CGA:  14    -0.128332108273E+04   -0.14338E-04   -0.14307E-04 10640   0.206E-04-0.273E-05
CGA:  15    -0.128332110778E+04   -0.25050E-04    0.17085E-05 10640   0.155E-04 0.455E-06
CGA:  16    -0.128332114201E+04   -0.34236E-04    0.64440E-06 10640   0.124E-04 0.860E-05
CGA:  17    -0.128332114600E+04   -0.39902E-05   -0.46280E-05 10640   0.270E-04-0.550E-05
  28 F= -.12833211E+04 E0= -.12833211E+04  d E =0.260750E-02  mag=    47.0000
       N       E                     dE             d eps       ncg     rms          ort
SDA:   1    -0.128076270157E+04    0.25584E+01    0.00000E+00 10640   0.871E+01 0.000E+00
CGA:   2    -0.128238515579E+04   -0.16225E+01   -0.16219E+01 10640   0.295E+01-0.169E-02
CGA:   3    -0.128315020804E+04   -0.76505E+00   -0.76506E+00 10640   0.870E+00 0.958E-02
CGA:   4    -0.128328579605E+04   -0.13559E+00   -0.13647E+00 10640   0.118E+00 0.878E-02
CGA:   5    -0.128331162491E+04   -0.25829E-01   -0.25868E-01 10640   0.293E-01 0.103E-02
CGA:   6    -0.128331793627E+04   -0.63114E-02   -0.63714E-02 10640   0.882E-02 0.162E-02
CGA:   7    -0.128331985804E+04   -0.19218E-02   -0.18826E-02 10640   0.392E-02-0.795E-03
CGA:   8    -0.128332040742E+04   -0.54939E-03   -0.57224E-03 10640   0.111E-02 0.269E-03
CGA:   9    -0.128332058634E+04   -0.17891E-03   -0.21039E-03 10640   0.412E-03 0.471E-03
CGA:  10    -0.128332064687E+04   -0.60531E-04   -0.85139E-04 10640   0.215E-03 0.258E-03
CGA:  11    -0.128332064718E+04   -0.31161E-06   -0.20868E-04 10640   0.132E-03 0.148E-03
CGA:  12    -0.128332064448E+04    0.26998E-05   -0.12808E-04 10640   0.106E-03 0.117E-03
  29 F= -.12833206E+04 E0= -.12833206E+04  d E =0.501522E-03  mag=    47.0000
       N       E                     dE             d eps       ncg     rms          ort
SDA:   1    -0.128094839075E+04    0.23723E+01    0.00000E+00 10640   0.812E+01 0.000E+00
CGA:   2    -0.128245099228E+04   -0.15026E+01   -0.15028E+01 10640   0.275E+01 0.900E-02
CGA:   3    -0.128316755578E+04   -0.71656E+00   -0.71673E+00 10640   0.828E+00-0.524E-02
CGA:   4    -0.128329807593E+04   -0.13052E+00   -0.13028E+00 10640   0.114E+00-0.433E-02
CGA:   5    -0.128332210754E+04   -0.24032E-01   -0.24032E-01 10640   0.295E-01 0.222E-03
CGA:   6    -0.128332860405E+04   -0.64965E-02   -0.65085E-02 10640   0.119E-01-0.168E-02
CGA:   7    -0.128333016932E+04   -0.15653E-02   -0.16328E-02 10640   0.269E-02 0.103E-02
CGA:   8    -0.128333077489E+04   -0.60557E-03   -0.60629E-03 10640   0.899E-03 0.292E-03
CGA:   9    -0.128333068842E+04    0.86474E-04   -0.69457E-03 10640   0.569E-02-0.160E-02
CGA:  10    -0.128333116045E+04   -0.47203E-03   -0.57802E-03 10640   0.718E-03 0.835E-03
CGA:  11    -0.128333138286E+04   -0.22241E-03   -0.23663E-03 10640   0.402E-03-0.238E-03
CGA:  12    -0.128333153998E+04   -0.15712E-03    0.11607E-03 10640   0.328E-03-0.192E-03
CGA:  13    -0.128333156037E+04   -0.20392E-04   -0.22844E-04 10640   0.173E-03 0.254E-04
CGA:  14    -0.128333155813E+04    0.22395E-05   -0.12657E-04 10640   0.844E-04 0.946E-04
CGA:  15    -0.128333157545E+04   -0.17322E-04   -0.17558E-04 10640   0.227E-04 0.237E-04
CGA:  16    -0.128333159068E+04   -0.15229E-04    0.15293E-04 10640   0.736E-05 0.668E-05
CGA:  17    -0.128333160403E+04   -0.13352E-04    0.46695E-06 10640   0.557E-05 0.486E-05
CGA:  18    -0.128333160957E+04   -0.55395E-05    0.47131E-06 10640   0.461E-05 0.357E-05
  30 F= -.12833316E+04 E0= -.12833316E+04  d E =-.109651E-01  mag=    47.0000
       N       E                     dE             d eps       ncg     rms          ort
SDA:   1    -0.128175635726E+04    0.15752E+01    0.00000E+00 10640   0.539E+01 0.000E+00
CGA:   2    -0.128276112294E+04   -0.10048E+01   -0.10046E+01 10640   0.183E+01-0.391E-02
CGA:   3    -0.128323537540E+04   -0.47425E+00   -0.47380E+00 10640   0.539E+00 0.913E-02
CGA:   4    -0.128331959947E+04   -0.84224E-01   -0.84648E-01 10640   0.724E-01 0.693E-02
CGA:   5    -0.128333548186E+04   -0.15882E-01   -0.15881E-01 10640   0.176E-01 0.117E-02
CGA:   6    -0.128333942683E+04   -0.39450E-02   -0.39392E-02 10640   0.496E-02 0.116E-02
CGA:   7    -0.128334058997E+04   -0.11631E-02   -0.11663E-02 10640   0.247E-02-0.598E-03
CGA:   8    -0.128334089491E+04   -0.30494E-03   -0.31871E-03 10640   0.713E-03 0.205E-03
CGA:   9    -0.128334099054E+04   -0.95629E-04   -0.11666E-03 10640   0.310E-03 0.345E-03
CGA:  10    -0.128334102422E+04   -0.33687E-04   -0.53516E-04 10640   0.142E-03 0.214E-03
CGA:  11    -0.128334102809E+04   -0.38631E-05   -0.14768E-04 10640   0.942E-04 0.108E-03
  31 F= -.12833410E+04 E0= -.12833410E+04  d E =-.941851E-02  mag=    47.0000
       N       E                     dE             d eps       ncg     rms          ort
SDA:   1    -0.128250024690E+04    0.84078E+00    0.00000E+00 10640   0.286E+01 0.000E+00
CGA:   2    -0.128303508010E+04   -0.53483E+00   -0.53485E+00 10640   0.984E+00 0.424E-02
CGA:   3    -0.128329106950E+04   -0.25599E+00   -0.25625E+00 10640   0.295E+00-0.449E-02
CGA:   4    -0.128333760495E+04   -0.46535E-01   -0.46397E-01 10640   0.417E-01-0.362E-02
CGA:   5    -0.128334608360E+04   -0.84787E-02   -0.84736E-02 10640   0.107E-01 0.469E-03
CGA:   6    -0.128334847865E+04   -0.23951E-02   -0.24290E-02 10640   0.506E-02-0.117E-02
CGA:   7    -0.128334903908E+04   -0.56044E-03   -0.59831E-03 10640   0.104E-02 0.605E-03
CGA:   8    -0.128334921824E+04   -0.17916E-03   -0.18823E-03 10640   0.406E-03 0.289E-03
CGA:   9    -0.128334931209E+04   -0.93848E-04   -0.20918E-03 10640   0.149E-02-0.544E-03
CGA:  10    -0.128334941981E+04   -0.10771E-03   -0.13297E-03 10640   0.171E-03 0.229E-03
CGA:  11    -0.128334946622E+04   -0.46417E-04   -0.75865E-04 10640   0.288E-03-0.156E-03
CGA:  12    -0.128334925917E+04    0.20706E-03   -0.16539E-03 10640   0.465E-02-0.101E-02
CGA:  13    -0.128334954498E+04   -0.28581E-03   -0.37572E-03 10640   0.197E-03 0.665E-03
CGA:  14    -0.128334954956E+04   -0.45792E-05   -0.17443E-04 10640   0.604E-04 0.922E-04
CGA:  15    -0.128334956284E+04   -0.13281E-04   -0.13209E-04 10640   0.206E-04-0.119E-05
CGA:  16    -0.128334960393E+04   -0.41093E-04    0.53364E-06 10640   0.241E-04-0.163E-04
CGA:  17    -0.128334960201E+04    0.19230E-05   -0.98970E-06 10640   0.130E-04 0.175E-04
  32 F= -.12833496E+04 E0= -.12833496E+04  d E =-.857392E-02  mag=    47.0000
       N       E                     dE             d eps       ncg     rms          ort
SDA:   1    -0.128300308507E+04    0.34652E+00    0.00000E+00 10640   0.117E+01 0.000E+00
CGA:   2    -0.128322519637E+04   -0.22211E+00   -0.22210E+00 10640   0.407E+00-0.325E-02
CGA:   3    -0.128332923056E+04   -0.10403E+00   -0.10371E+00 10640   0.115E+00 0.485E-02
CGA:   4    -0.128334736189E+04   -0.18131E-01   -0.18239E-01 10640   0.158E-01 0.281E-02
CGA:   5    -0.128335079273E+04   -0.34308E-02   -0.34162E-02 10640   0.358E-02 0.804E-03
CGA:   6    -0.128335169063E+04   -0.89790E-03   -0.88826E-03 10640   0.970E-03 0.228E-03
CGA:   7    -0.128335194387E+04   -0.25324E-03   -0.25828E-03 10640   0.385E-03-0.914E-04
CGA:   8    -0.128335202667E+04   -0.82805E-04   -0.86630E-04 10640   0.256E-03-0.756E-04
CGA:   9    -0.128335202644E+04    0.23043E-06   -0.15547E-04 10640   0.125E-03 0.126E-03
  33 F= -.12833520E+04 E0= -.12833520E+04  d E =-.242444E-02  mag=    47.0000
       N       E                     dE             d eps       ncg     rms          ort
SDA:   1    -0.128321588560E+04    0.13614E+00    0.00000E+00 10640   0.419E+00 0.000E+00
CGA:   2    -0.128330214975E+04   -0.86264E-01   -0.86256E-01 10640   0.166E+00 0.564E-03
CGA:   3    -0.128334287537E+04   -0.40726E-01   -0.40810E-01 10640   0.442E-01-0.152E-02
CGA:   4    -0.128335004459E+04   -0.71692E-02   -0.71122E-02 10640   0.773E-02-0.197E-02
CGA:   5    -0.128335130039E+04   -0.12558E-02   -0.12688E-02 10640   0.171E-02 0.727E-03
CGA:   6    -0.128335176450E+04   -0.46412E-03   -0.51664E-03 10640   0.125E-02-0.596E-03
CGA:   7    -0.128335183068E+04   -0.66171E-04   -0.84886E-04 10640   0.460E-03 0.213E-03
CGA:   8    -0.128335185948E+04   -0.28805E-04   -0.45646E-04 10640   0.178E-03 0.162E-03
CGA:   9    -0.128335189893E+04   -0.39452E-04   -0.39258E-04 10640   0.102E-03-0.947E-05
CGA:  10    -0.128335194948E+04   -0.50548E-04    0.20131E-04 10640   0.890E-04-0.299E-04
CGA:  11    -0.128335197413E+04   -0.24646E-04    0.77317E-04 10640   0.679E-04-0.212E-04
CGA:  12    -0.128335197780E+04   -0.36788E-05   -0.48063E-05 10640   0.441E-04 0.126E-04
  34 F= -.12833520E+04 E0= -.12833519E+04  d E =0.486404E-04  mag=    47.0000
       N       E                     dE             d eps       ncg     rms          ort
SDA:   1    -0.128328315310E+04    0.68821E-01    0.00000E+00 10640   0.190E+00 0.000E+00
CGA:   2    -0.128332562050E+04   -0.42467E-01   -0.42441E-01 10640   0.824E-01 0.618E-03
CGA:   3    -0.128334452050E+04   -0.18900E-01   -0.18943E-01 10640   0.219E-01-0.887E-03
CGA:   4    -0.128334740906E+04   -0.28886E-02   -0.29676E-02 10640   0.351E-02 0.177E-02
CGA:   5    -0.128334822250E+04   -0.81344E-03   -0.82023E-03 10640   0.964E-03-0.189E-03
CGA:   6    -0.128334838241E+04   -0.15991E-03   -0.16077E-03 10640   0.250E-03 0.145E-03
CGA:   7    -0.128334845504E+04   -0.72630E-04   -0.11912E-03 10640   0.296E-03-0.200E-03
CGA:   8    -0.128334849903E+04   -0.43992E-04   -0.45782E-04 10640   0.464E-04 0.459E-04
CGA:   9    -0.128334850539E+04   -0.63557E-05   -0.72270E-05 10640   0.152E-04 0.154E-04
  35 F= -.12833485E+04 E0= -.12833485E+04  d E =0.347241E-02  mag=    47.0000
       N       E                     dE             d eps       ncg     rms          ort
SDA:   1    -0.128328252437E+04    0.65975E-01    0.00000E+00 10640   0.155E+00 0.000E+00
CGA:   2    -0.128332593837E+04   -0.43414E-01   -0.43546E-01 10640   0.735E-01-0.138E-02
CGA:   3    -0.128334055638E+04   -0.14618E-01   -0.14608E-01 10640   0.135E-01 0.877E-03
CGA:   4    -0.128334289708E+04   -0.23407E-02   -0.23300E-02 10640   0.345E-02-0.540E-03
CGA:   5    -0.128334336612E+04   -0.46904E-03   -0.48817E-03 10640   0.681E-03 0.464E-03
CGA:   6    -0.128334353300E+04   -0.16688E-03   -0.16663E-03 10640   0.251E-03 0.880E-05
CGA:   7    -0.128334344566E+04    0.87336E-04   -0.17257E-03 10640   0.162E-02-0.529E-03
CGA:   8    -0.128334356264E+04   -0.11698E-03   -0.15868E-03 10640   0.246E-03 0.368E-03
CGA:   9    -0.128334360977E+04   -0.47131E-04   -0.49452E-04 10640   0.962E-04 0.531E-04
CGA:  10    -0.128334296953E+04    0.64025E-03   -0.34545E-03 10640   0.487E-02-0.716E-03
CGA:  11    -0.128334335909E+04   -0.38956E-03   -0.51094E-03 10640   0.752E-03 0.513E-03
CGA:  12    -0.128334359838E+04   -0.23929E-03   -0.23670E-03 10640   0.251E-03-0.342E-04
CGA:  13    -0.128334367878E+04   -0.80403E-04   -0.58400E-04 10640   0.299E-03-0.195E-03
CGA:  14    -0.128334367344E+04    0.53363E-05   -0.21983E-04 10640   0.440E-04 0.996E-04
  36 F= -.12833437E+04 E0= -.12833436E+04  d E =0.483195E-02  mag=    47.0000
       N       E                     dE             d eps       ncg     rms          ort
SDA:   1    -0.128327770430E+04    0.65974E-01    0.00000E+00 10640   0.163E+00 0.000E+00
CGA:   2    -0.128331699138E+04   -0.39287E-01   -0.39219E-01 10640   0.732E-01-0.822E-03
CGA:   3    -0.128333332274E+04   -0.16331E-01   -0.16402E-01 10640   0.143E-01 0.745E-03
CGA:   4    -0.128333585768E+04   -0.25349E-02   -0.24862E-02 10640   0.309E-02-0.344E-03
CGA:   5    -0.128333628554E+04   -0.42786E-03   -0.48648E-03 10640   0.618E-03 0.407E-03
CGA:   6    -0.128333648142E+04   -0.19588E-03   -0.19200E-03 10640   0.380E-03-0.153E-03
CGA:   7    -0.128333651199E+04   -0.30565E-04   -0.39334E-04 10640   0.124E-03 0.548E-04
CGA:   8    -0.128333652758E+04   -0.15598E-04   -0.19565E-04 10640   0.503E-04 0.261E-04
CGA:   9    -0.128333652514E+04    0.24416E-05   -0.36081E-04 10640   0.345E-03-0.125E-03
CGA:  10    -0.128333653988E+04   -0.14740E-04   -0.35022E-04 10640   0.684E-04 0.104E-03
CGA:  11    -0.128333655083E+04   -0.10945E-04   -0.13352E-04 10640   0.163E-04 0.174E-04
CGA:  12    -0.128333656641E+04   -0.15587E-04    0.80734E-05 10640   0.358E-04-0.183E-04
CGA:  13    -0.128333656298E+04    0.34349E-05   -0.16264E-05 10640   0.137E-04 0.215E-04
  37 F= -.12833366E+04 E0= -.12833365E+04  d E =0.711047E-02  mag=    47.0000
       N       E                     dE             d eps       ncg     rms          ort
SDA:   1    -0.128332000072E+04    0.16566E-01    0.00000E+00 10640   0.367E-01 0.000E+00
CGA:   2    -0.128332938348E+04   -0.93828E-02   -0.93810E-02 10640   0.184E-01-0.771E-03
CGA:   3    -0.128333289433E+04   -0.35108E-02   -0.35531E-02 10640   0.383E-02 0.702E-03
CGA:   4    -0.128333358926E+04   -0.69494E-03   -0.66193E-03 10640   0.987E-03-0.371E-03
CGA:   5    -0.128333367374E+04   -0.84476E-04   -0.11231E-03 10640   0.197E-03 0.225E-03
CGA:   6    -0.128333370140E+04   -0.27658E-04   -0.34352E-04 10640   0.738E-04 0.655E-04
CGA:   7    -0.128333359635E+04    0.10505E-03   -0.79519E-04 10640   0.138E-02-0.324E-03
CGA:   8    -0.128333367560E+04   -0.79254E-04   -0.12584E-03 10640   0.202E-03 0.270E-03
CGA:   9    -0.128333370876E+04   -0.33160E-04   -0.38437E-04 10640   0.764E-04 0.529E-04
CGA:  10    -0.128333344776E+04    0.26101E-03   -0.88861E-04 10640   0.317E-02-0.522E-03
CGA:  11    -0.128333364533E+04   -0.19757E-03   -0.27771E-03 10640   0.300E-03 0.428E-03
CGA:  12    -0.128333369305E+04   -0.47719E-04   -0.57130E-04 10640   0.133E-03 0.861E-04
CGA:  13    -0.128333373500E+04   -0.41950E-04   -0.58366E-04 10640   0.402E-03-0.238E-03
CGA:  14    -0.128333373906E+04   -0.40595E-05   -0.29327E-04 10640   0.616E-04 0.126E-03
  38 F= -.12833337E+04 E0= -.12833337E+04  d E =0.282392E-02  mag=    47.0000
       N       E                     dE             d eps       ncg     rms          ort
SDA:   1    -0.128322384872E+04    0.10989E+00    0.00000E+00 10640   0.281E+00 0.000E+00
CGA:   2    -0.128329066774E+04   -0.66819E-01   -0.66807E-01 10640   0.125E+00-0.687E-03
CGA:   3    -0.128331976038E+04   -0.29093E-01   -0.29105E-01 10640   0.224E-01 0.532E-03
CGA:   4    -0.128332365264E+04   -0.38923E-02   -0.38858E-02 10640   0.431E-02-0.820E-04
CGA:   5    -0.128332444015E+04   -0.78751E-03   -0.81016E-03 10640   0.864E-03 0.375E-03
CGA:   6    -0.128332472369E+04   -0.28354E-03   -0.30636E-03 10640   0.581E-03-0.285E-03
CGA:   7    -0.128332474305E+04   -0.19357E-04   -0.38294E-04 10640   0.235E-03 0.125E-03
CGA:   8    -0.128332475673E+04   -0.13684E-04   -0.26769E-04 10640   0.995E-04 0.881E-04
CGA:   9    -0.128332478748E+04   -0.30746E-04   -0.30005E-04 10640   0.806E-04-0.467E-04
CGA:  10    -0.128332469995E+04    0.87524E-04   -0.32167E-04 10640   0.679E-03-0.231E-03
CGA:  11    -0.128332473779E+04   -0.37835E-04   -0.74952E-04 10640   0.186E-03 0.249E-03
CGA:  12    -0.128332477807E+04   -0.40279E-04   -0.44358E-04 10640   0.556E-04 0.524E-04
CGA:  13    -0.128332482915E+04   -0.51088E-04    0.20178E-04 10640   0.699E-04-0.410E-04
CGA:  14    -0.128332482242E+04    0.67361E-05   -0.28187E-05 10640   0.312E-04 0.459E-04
  39 F= -.12833248E+04 E0= -.12833248E+04  d E =0.891664E-02  mag=    47.0000
       N       E                     dE             d eps       ncg     rms          ort
SDA:   1    -0.128319447040E+04    0.13036E+00    0.00000E+00 10640   0.323E+00 0.000E+00
CGA:   2    -0.128327353137E+04   -0.79061E-01   -0.79097E-01 10640   0.151E+00-0.217E-02
CGA:   3    -0.128330621004E+04   -0.32679E-01   -0.32700E-01 10640   0.300E-01 0.205E-02
CGA:   4    -0.128331129430E+04   -0.50843E-02   -0.50032E-02 10640   0.679E-02-0.128E-02
CGA:   5    -0.128331223012E+04   -0.93582E-03   -0.99967E-03 10640   0.134E-02 0.907E-03
CGA:   6    -0.128331259329E+04   -0.36316E-03   -0.36509E-03 10640   0.546E-03-0.105E-03
CGA:   7    -0.128331271056E+04   -0.11727E-03   -0.11800E-03 10640   0.192E-03-0.616E-04
CGA:   8    -0.128331273192E+04   -0.21361E-04   -0.25011E-04 10640   0.681E-04 0.478E-04
CGA:   9    -0.128331275149E+04   -0.19576E-04   -0.19527E-04 10640   0.393E-04 0.486E-05
CGA:  10    -0.128331275224E+04   -0.75176E-06   -0.25615E-04 10640   0.201E-03-0.639E-04
CGA:  11    -0.128331276250E+04   -0.10257E-04   -0.18492E-04 10640   0.356E-04 0.563E-04
CGA:  12    -0.128331276405E+04   -0.15527E-05   -0.45768E-05 10640   0.198E-04 0.230E-04
CGA:  13    -0.128331277312E+04   -0.90624E-05    0.15704E-03 10640   0.131E-04 0.306E-05
  40 F= -.12833128E+04 E0= -.12833127E+04  d E =0.120493E-01  mag=    47.0000
       N       E                     dE             d eps       ncg     rms          ort
SDA:   1    -0.128315537593E+04    0.15739E+00    0.00000E+00 10640   0.365E+00 0.000E+00
CGA:   2    -0.128325411432E+04   -0.98738E-01   -0.98787E-01 10640   0.172E+00-0.960E-03
CGA:   3    -0.128329063376E+04   -0.36519E-01   -0.36525E-01 10640   0.277E-01 0.525E-03
CGA:   4    -0.128329560261E+04   -0.49689E-02   -0.49552E-02 10640   0.583E-02-0.313E-03
CGA:   5    -0.128329665109E+04   -0.10485E-02   -0.10639E-02 10640   0.114E-02 0.445E-03
CGA:   6    -0.128329700055E+04   -0.34946E-03   -0.37436E-03 10640   0.632E-03-0.284E-03
CGA:   7    -0.128329704655E+04   -0.46005E-04   -0.58679E-04 10640   0.211E-03 0.129E-03
CGA:   8    -0.128329707478E+04   -0.28232E-04   -0.33411E-04 10640   0.925E-04 0.605E-04
CGA:   9    -0.128329708028E+04   -0.54975E-05   -0.60210E-04 10640   0.417E-03-0.186E-03
CGA:  10    -0.128329710857E+04   -0.28293E-04   -0.44989E-04 10640   0.855E-04 0.140E-03
CGA:  11    -0.128329712618E+04   -0.17602E-04   -0.18538E-04 10640   0.193E-04 0.158E-04
CGA:  12    -0.128329714367E+04   -0.17491E-04    0.33565E-05 10640   0.186E-04-0.604E-05
CGA:  13    -0.128329714334E+04    0.33028E-06   -0.96783E-06 10640   0.159E-04 0.908E-05
  41 F= -.12832971E+04 E0= -.12832971E+04  d E =0.156298E-01  mag=    47.0000
       N       E                     dE             d eps       ncg     rms          ort
SDA:   1    -0.128309649925E+04    0.20064E+00    0.00000E+00 10640   0.472E+00 0.000E+00
CGA:   2    -0.128322062312E+04   -0.12412E+00   -0.12420E+00 10640   0.223E+00-0.135E-02
CGA:   3    -0.128326841714E+04   -0.47794E-01   -0.47784E-01 10640   0.373E-01 0.105E-02
CGA:   4    -0.128327500849E+04   -0.65914E-02   -0.65629E-02 10640   0.828E-02-0.908E-03
CGA:   5    -0.128327634365E+04   -0.13352E-02   -0.13648E-02 10640   0.176E-02 0.836E-03
CGA:   6    -0.128327682121E+04   -0.47756E-03   -0.49871E-03 10640   0.107E-02-0.384E-03
CGA:   7    -0.128327691657E+04   -0.95361E-04   -0.10688E-03 10640   0.318E-03 0.149E-03
CGA:   8    -0.128327695679E+04   -0.40218E-04   -0.46692E-04 10640   0.140E-03 0.891E-04
CGA:   9    -0.128327699862E+04   -0.41834E-04   -0.54981E-04 10640   0.239E-03-0.122E-03
CGA:  10    -0.128327701727E+04   -0.18650E-04   -0.25014E-04 10640   0.514E-04 0.646E-04
CGA:  11    -0.128327702987E+04   -0.12594E-04   -0.12621E-04 10640   0.194E-04 0.495E-05
CGA:  12    -0.128327703897E+04   -0.91006E-05    0.26410E-04 10640   0.205E-04 0.617E-05
  42 F= -.12832770E+04 E0= -.12832770E+04  d E =0.201044E-01  mag=    47.0000
       N       E                     dE             d eps       ncg     rms          ort
SDA:   1    -0.128300498412E+04    0.27205E+00    0.00000E+00 10640   0.641E+00 0.000E+00
CGA:   2    -0.128317517292E+04   -0.17019E+00   -0.17027E+00 10640   0.304E+00-0.118E-02
CGA:   3    -0.128324001442E+04   -0.64841E-01   -0.64830E-01 10640   0.517E-01 0.835E-03
CGA:   4    -0.128324877287E+04   -0.87585E-02   -0.87241E-02 10640   0.123E-01-0.103E-02
CGA:   5    -0.128325069099E+04   -0.19181E-02   -0.19509E-02 10640   0.296E-02 0.872E-03
CGA:   6    -0.128325135790E+04   -0.66691E-03   -0.67010E-03 10640   0.119E-02-0.234E-03
CGA:   7    -0.128325156395E+04   -0.20605E-03   -0.20654E-03 10640   0.306E-03 0.495E-04
CGA:   8    -0.128325163246E+04   -0.68511E-04   -0.68086E-04 10640   0.128E-03 0.271E-04
CGA:   9    -0.128325167052E+04   -0.38056E-04   -0.67183E-04 10640   0.293E-03-0.102E-03
CGA:  10    -0.128325169131E+04   -0.20797E-04   -0.29004E-04 10640   0.586E-04 0.723E-04
CGA:  11    -0.128325170232E+04   -0.11003E-04   -0.11882E-04 10640   0.244E-04 0.197E-04
CGA:  12    -0.128325154028E+04    0.16204E-03   -0.87281E-04 10640   0.167E-02-0.184E-03
CGA:  13    -0.128325166839E+04   -0.12811E-03   -0.16213E-03 10640   0.191E-03 0.127E-03
CGA:  14    -0.128325171736E+04   -0.48971E-04   -0.51601E-04 10640   0.441E-04 0.240E-04
CGA:  15    -0.128325142944E+04    0.28792E-03   -0.60983E-04 10640   0.417E-02-0.398E-03
CGA:  16    -0.128325170699E+04   -0.27755E-03   -0.36900E-03 10640   0.146E-03 0.318E-03
CGA:  17    -0.128325171926E+04   -0.12272E-04   -0.24495E-04 10640   0.718E-04 0.540E-04
CGA:  18    -0.128325175304E+04   -0.33782E-04   -0.31030E-04 10640   0.497E-04-0.489E-04
CGA:  19    -0.128325175119E+04    0.18588E-05   -0.39144E-05 10640   0.128E-04 0.200E-04
  43 F= -.12832518E+04 E0= -.12832517E+04  d E =0.252878E-01  mag=    47.0000
       N       E                     dE             d eps       ncg     rms          ort
SDA:   1    -0.128286185856E+04    0.38989E+00    0.00000E+00 10640   0.939E+00 0.000E+00
CGA:   2    -0.128310728745E+04   -0.24543E+00   -0.24540E+00 10640   0.440E+00-0.375E-03
CGA:   3    -0.128320385148E+04   -0.96564E-01   -0.96577E-01 10640   0.705E-01-0.533E-04
CGA:   4    -0.128321624065E+04   -0.12389E-01   -0.12347E-01 10640   0.142E-01-0.270E-03
CGA:   5    -0.128321901240E+04   -0.27718E-02   -0.28218E-02 10640   0.308E-02 0.404E-03
CGA:   6    -0.128321982683E+04   -0.81443E-03   -0.79636E-03 10640   0.137E-02-0.273E-03
CGA:   7    -0.128321996792E+04   -0.14109E-03   -0.17036E-03 10640   0.370E-03 0.168E-03
CGA:   8    -0.128322005845E+04   -0.90538E-04   -0.92274E-04 10640   0.164E-03 0.210E-04
CGA:   9    -0.128322001863E+04    0.39827E-04   -0.13141E-03 10640   0.170E-02-0.375E-03
CGA:  10    -0.128322010663E+04   -0.88003E-04   -0.15302E-03 10640   0.195E-03 0.288E-03
CGA:  11    -0.128322013022E+04   -0.23591E-04   -0.34182E-04 10640   0.837E-04 0.653E-04
CGA:  12    -0.128322015579E+04   -0.25568E-04   -0.48437E-04 10640   0.394E-03-0.176E-03
CGA:  13    -0.128322016102E+04   -0.52294E-05   -0.31961E-04 10640   0.684E-04 0.118E-03
  44 F= -.12832202E+04 E0= -.12832201E+04  d E =0.315902E-01  mag=    47.0000
       N       E                     dE             d eps       ncg     rms          ort
SDA:   1    -0.128263596097E+04    0.58419E+00    0.00000E+00 10640   0.143E+01 0.000E+00
CGA:   2    -0.128300766321E+04   -0.37170E+00   -0.37170E+00 10640   0.675E+00-0.570E-04
CGA:   3    -0.128315589483E+04   -0.14823E+00   -0.14820E+00 10640   0.113E+00-0.674E-03
CGA:   4    -0.128317456060E+04   -0.18666E-01   -0.18677E-01 10640   0.250E-01 0.139E-03
CGA:   5    -0.128317908921E+04   -0.45286E-02   -0.45337E-02 10640   0.721E-02 0.682E-04
CGA:   6    -0.128318032131E+04   -0.12321E-02   -0.12469E-02 10640   0.227E-02 0.159E-03
CGA:   7    -0.128318085194E+04   -0.53063E-03   -0.52513E-03 10640   0.651E-03-0.130E-03
CGA:   8    -0.128318097687E+04   -0.12494E-03   -0.12882E-03 10640   0.252E-03 0.702E-04
CGA:   9    -0.128318106608E+04   -0.89202E-04   -0.96362E-04 10640   0.301E-03-0.870E-04
CGA:  10    -0.128318109016E+04   -0.24087E-04   -0.26598E-04 10640   0.136E-03 0.192E-04
CGA:  11    -0.128318110755E+04   -0.17388E-04   -0.20602E-04 10640   0.953E-04 0.273E-04
CGA:  12    -0.128318113185E+04   -0.24297E-04   -0.23496E-04 10640   0.504E-04-0.163E-04
CGA:  13    -0.128318114669E+04   -0.14841E-04   -0.18604E-04 10640   0.102E-03-0.198E-04
CGA:  14    -0.128318114754E+04   -0.85207E-06   -0.53481E-05 10640   0.785E-04 0.254E-04
  45 F= -.12831811E+04 E0= -.12831811E+04  d E =0.390135E-01  mag=    47.0000
       N       E                     dE             d eps       ncg     rms          ort
SDA:   1    -0.128227366269E+04    0.90748E+00    0.00000E+00 10640   0.224E+01 0.000E+00
CGA:   2    -0.128286265643E+04   -0.58899E+00   -0.58900E+00 10640   0.107E+01-0.760E-03
CGA:   3    -0.128309384531E+04   -0.23119E+00   -0.23119E+00 10640   0.180E+00-0.424E-03
CGA:   4    -0.128312315004E+04   -0.29305E-01   -0.29267E-01 10640   0.407E-01-0.412E-03
CGA:   5    -0.128313030694E+04   -0.71569E-02   -0.71853E-02 10640   0.114E-01 0.484E-03
CGA:   6    -0.128313235498E+04   -0.20480E-02   -0.20523E-02 10640   0.356E-02 0.869E-04
CGA:   7    -0.128313317413E+04   -0.81915E-03   -0.81766E-03 10640   0.107E-02-0.228E-03
CGA:   8    -0.128313335881E+04   -0.18467E-03   -0.19018E-03 10640   0.408E-03 0.129E-03
CGA:   9    -0.128313350185E+04   -0.14304E-03   -0.17059E-03 10640   0.535E-03-0.195E-03
CGA:  10    -0.128313353226E+04   -0.30411E-04   -0.32868E-04 10640   0.292E-03 0.207E-04
CGA:  11    -0.128313356257E+04   -0.30310E-04   -0.35606E-04 10640   0.182E-03 0.461E-04
CGA:  12    -0.128313360560E+04   -0.43029E-04   -0.41972E-04 10640   0.968E-04-0.382E-04
CGA:  13    -0.128313360322E+04    0.23834E-05   -0.39327E-04 10640   0.565E-03-0.145E-03
CGA:  14    -0.128313363402E+04   -0.30800E-04   -0.49526E-04 10640   0.950E-04 0.125E-03
CGA:  15    -0.128313364755E+04   -0.13531E-04   -0.17273E-04 10640   0.637E-04 0.448E-04
CGA:  16    -0.128313367122E+04   -0.23671E-04   -0.30521E-04 10640   0.110E-03-0.705E-04
CGA:  17    -0.128313367638E+04   -0.51569E-05   -0.10392E-04 10640   0.318E-04 0.378E-04
  46 F= -.12831337E+04 E0= -.12831336E+04  d E =0.474712E-01  mag=    47.0000
       N       E                     dE             d eps       ncg     rms          ort
SDA:   1    -0.128167033173E+04    0.14633E+01    0.00000E+00 10640   0.360E+01 0.000E+00
CGA:   2    -0.128264704864E+04   -0.97672E+00   -0.97676E+00 10640   0.172E+01-0.110E-02
CGA:   3    -0.128301404332E+04   -0.36699E+00   -0.36699E+00 10640   0.274E+00-0.101E-02
CGA:   4    -0.128305967979E+04   -0.45636E-01   -0.45596E-01 10640   0.630E-01-0.646E-03
CGA:   5    -0.128307081865E+04   -0.11139E-01   -0.11165E-01 10640   0.178E-01 0.656E-03
CGA:   6    -0.128307400449E+04   -0.31858E-02   -0.31885E-02 10640   0.569E-02 0.867E-04
CGA:   7    -0.128307528475E+04   -0.12803E-02   -0.12827E-02 10640   0.167E-02-0.364E-03
CGA:   8    -0.128307559342E+04   -0.30867E-03   -0.31168E-03 10640   0.649E-03 0.170E-03
CGA:   9    -0.128307580963E+04   -0.21621E-03   -0.26233E-03 10640   0.876E-03-0.307E-03
CGA:  10    -0.128307586478E+04   -0.55150E-04   -0.55474E-04 10640   0.445E-03 0.400E-05
CGA:  11    -0.128307591103E+04   -0.46252E-04   -0.52089E-04 10640   0.282E-03 0.571E-04
CGA:  12    -0.128307597113E+04   -0.60096E-04   -0.59072E-04 10640   0.135E-03-0.360E-04
CGA:  13    -0.128307597762E+04   -0.64914E-05   -0.51054E-04 10640   0.731E-03-0.203E-03
CGA:  14    -0.128307601737E+04   -0.39753E-04   -0.60886E-04 10640   0.101E-03 0.153E-03
CGA:  15    -0.128307602596E+04   -0.85813E-05   -0.14408E-04 10640   0.694E-04 0.588E-04
CGA:  16    -0.128307568336E+04    0.34260E-03   -0.18460E-03 10640   0.504E-02-0.386E-03
CGA:  17    -0.128307604667E+04   -0.36331E-03   -0.43003E-03 10640   0.122E-03 0.262E-03
CGA:  18    -0.128307605789E+04   -0.11223E-04   -0.21447E-04 10640   0.594E-04 0.503E-04
CGA:  19    -0.128307608684E+04   -0.28948E-04   -0.27363E-04 10640   0.679E-04-0.449E-04
CGA:  20    -0.128307608810E+04   -0.12563E-05   -0.62810E-05 10640   0.174E-04 0.190E-04
  47 F= -.12830761E+04 E0= -.12830760E+04  d E =0.575883E-01  mag=    47.0000
       N       E                     dE             d eps       ncg     rms          ort
SDA:   1    -0.128058013182E+04    0.24960E+01    0.00000E+00 10640   0.630E+01 0.000E+00
CGA:   2    -0.128224768602E+04   -0.16676E+01   -0.16675E+01 10640   0.300E+01-0.159E-02
CGA:   3    -0.128289773962E+04   -0.65005E+00   -0.65005E+00 10640   0.476E+00-0.885E-03
CGA:   4    -0.128297759758E+04   -0.79858E-01   -0.79738E-01 10640   0.106E+00-0.807E-03
CGA:   5    -0.128299678926E+04   -0.19192E-01   -0.19281E-01 10640   0.305E-01 0.774E-03
CGA:   6    -0.128300217595E+04   -0.53867E-02   -0.53801E-02 10640   0.102E-01 0.425E-05
CGA:   7    -0.128300436574E+04   -0.21898E-02   -0.21540E-02 10640   0.272E-02-0.368E-03
CGA:   8    -0.128300493815E+04   -0.57241E-03   -0.58438E-03 10640   0.111E-02 0.156E-03
CGA:   9    -0.128300530409E+04   -0.36594E-03   -0.37273E-03 10640   0.122E-02-0.356E-03
CGA:  10    -0.128300542585E+04   -0.12176E-03   -0.12245E-03 10640   0.435E-03 0.663E-05
CGA:  11    -0.128300548874E+04   -0.62887E-04   -0.71610E-04 10640   0.289E-03 0.683E-04
CGA:  12    -0.128300556418E+04   -0.75444E-04   -0.68796E-04 10640   0.150E-03-0.833E-04
CGA:  13    -0.128300558293E+04   -0.18742E-04   -0.65425E-04 10640   0.413E-03-0.142E-03
CGA:  14    -0.128300560025E+04   -0.17320E-04   -0.46408E-04 10640   0.129E-03 0.158E-03
CGA:  15    -0.128300562116E+04   -0.20919E-04   -0.29152E-04 10640   0.639E-04 0.657E-04
CGA:  16    -0.128300568057E+04   -0.59403E-04    0.13968E-04 10640   0.999E-04-0.191E-04
CGA:  17    -0.128300568731E+04   -0.67414E-05   -0.11124E-04 10640   0.676E-04 0.355E-04
  48 F= -.12830057E+04 E0= -.12830056E+04  d E =0.704008E-01  mag=    47.0000
       N       E                     dE             d eps       ncg     rms          ort
SDA:   1    -0.128129120817E+04    0.17145E+01    0.00000E+00 10640   0.438E+01 0.000E+00
CGA:   2    -0.128242186908E+04   -0.11307E+01   -0.11306E+01 10640   0.207E+01-0.347E-02
CGA:   3    -0.128287854110E+04   -0.45667E+00   -0.45676E+00 10640   0.333E+00 0.146E-02
CGA:   4    -0.128293512724E+04   -0.56586E-01   -0.56404E-01 10640   0.698E-01-0.201E-02
CGA:   5    -0.128294821420E+04   -0.13087E-01   -0.13186E-01 10640   0.182E-01 0.154E-02
CGA:   6    -0.128295176941E+04   -0.35552E-02   -0.35327E-02 10640   0.732E-02-0.332E-03
CGA:   7    -0.128295309873E+04   -0.13293E-02   -0.13155E-02 10640   0.195E-02-0.197E-03
CGA:   8    -0.128295348305E+04   -0.38433E-03   -0.39306E-03 10640   0.662E-03 0.217E-03
CGA:   9    -0.128295370430E+04   -0.22125E-03   -0.38743E-03 10640   0.165E-02-0.589E-03
CGA:  10    -0.128295381145E+04   -0.10715E-03   -0.16292E-03 10640   0.283E-03 0.352E-03
CGA:  11    -0.128295385991E+04   -0.48459E-04   -0.55616E-04 10640   0.963E-04 0.801E-04
CGA:  12    -0.128295392349E+04   -0.63576E-04    0.37145E-03 10640   0.128E-03-0.455E-04
[...]
CGA:   8    -0.128256609135E+04   -0.73766E-02   -0.73671E-02 10640   0.142E-01-0.901E-03
CGA:   9    -0.128257006303E+04   -0.39717E-02   -0.42286E-02 10640   0.123E-01-0.396E-02
CGA:  10    -0.128257169774E+04   -0.16347E-02   -0.15937E-02 10640   0.386E-02-0.599E-03
CGA:  11    -0.128257274231E+04   -0.10446E-02   -0.10858E-02 10640   0.223E-02-0.754E-03
CGA:  12    -0.128257308373E+04   -0.34143E-03   -0.66358E-03 10640   0.591E-02-0.255E-02
CGA:  13    -0.128257348533E+04   -0.40160E-03   -0.56658E-03 10640   0.751E-03 0.110E-02
CGA:  14    -0.128257357684E+04   -0.91510E-04   -0.12809E-03 10640   0.461E-03 0.371E-03
CGA:  15    -0.128257375449E+04   -0.17764E-03   -0.17945E-03 10640   0.308E-03-0.788E-04
CGA:  16    -0.128257381693E+04   -0.62437E-04   -0.62229E-04 10640   0.350E-03 0.375E-04
CGA:  17    -0.128257386973E+04   -0.52803E-04   -0.66408E-04 10640   0.214E-03 0.194E-03
CGA:  18    -0.128257395129E+04   -0.81562E-04   -0.92222E-04 10640   0.414E-03-0.549E-04
CGA:  19    -0.128257398815E+04   -0.36862E-04   -0.40322E-04 10640   0.145E-03 0.304E-04
CGA:  20    -0.128257400654E+04   -0.18385E-04   -0.21243E-04 10640   0.150E-03 0.277E-04
CGA:  21    -0.128257409406E+04   -0.87525E-04   -0.96069E-04 10640   0.537E-03-0.311E-04
CGA:  22    -0.128257416358E+04   -0.69520E-04   -0.59022E-04 10640   0.408E-03-0.103E-03
CGA:  23    -0.128257421216E+04   -0.48577E-04   -0.43658E-04 10640   0.438E-03-0.499E-04
CGA:  24    -0.128257427378E+04   -0.61620E-04   -0.64051E-04 10640   0.558E-03 0.238E-04
CGA:  25    -0.128257434588E+04   -0.72095E-04   -0.75905E-04 10640   0.249E-03 0.239E-04
CGA:  26    -0.128257438903E+04   -0.43156E-04   -0.35335E-04 10640   0.113E-03-0.865E-04
CGA:  27    -0.128257442313E+04   -0.34097E-04    0.28038E-03 10640   0.111E-03-0.503E-04
CGA:  28    -0.128257442498E+04   -0.18526E-05   -0.43196E-05 10640   0.662E-04 0.156E-04
  52 F= -.12825744E+04 E0= -.12825744E+04  d E =0.138582E+00  mag=    47.0000
       N       E                     dE             d eps       ncg     rms          ort
SDA:   1    -0.124908910597E+04    0.33485E+02    0.00000E+00 10640   0.885E+02 0.000E+00
CGA:   2    -0.127172065516E+04   -0.22632E+02   -0.22630E+02 10640   0.415E+02 0.135E-01
CGA:   3    -0.128096947686E+04   -0.92488E+01   -0.92486E+01 10640   0.657E+01-0.152E-01
CGA:   4    -0.128209347337E+04   -0.11240E+01   -0.11242E+01 10640   0.130E+01 0.490E-02
CGA:   5    -0.128236573840E+04   -0.27227E+00   -0.27227E+00 10640   0.305E+00 0.507E-02
CGA:   6    -0.128243511485E+04   -0.69376E-01   -0.69469E-01 10640   0.111E+00-0.481E-02
CGA:   7    -0.128245470487E+04   -0.19590E-01   -0.19497E-01 10640   0.386E-01-0.291E-02
CGA:   8    -0.128246329537E+04   -0.85905E-02   -0.86607E-02 10640   0.182E-01-0.320E-02
CGA:   9    -0.128246749542E+04   -0.42001E-02   -0.43236E-02 10640   0.113E-01-0.247E-02
CGA:  10    -0.128246965287E+04   -0.21574E-02   -0.21823E-02 10640   0.523E-02-0.215E-02
CGA:  11    -0.128247073933E+04   -0.10865E-02   -0.12853E-02 10640   0.373E-02-0.218E-02
CGA:  12    -0.128247113282E+04   -0.39348E-03   -0.36828E-03 10640   0.141E-02-0.520E-03
CGA:  13    -0.128247149277E+04   -0.35995E-03   -0.36473E-03 10640   0.826E-03-0.570E-04
CGA:  14    -0.128247169992E+04   -0.20715E-03   -0.24041E-03 10640   0.144E-02-0.395E-03
CGA:  15    -0.128247179373E+04   -0.93816E-04   -0.10117E-03 10640   0.102E-02 0.807E-04
CGA:  16    -0.128247184439E+04   -0.50660E-04   -0.87437E-04 10640   0.425E-03 0.269E-03
CGA:  17    -0.128247187213E+04   -0.27737E-04   -0.54074E-04 10640   0.355E-03 0.236E-03
CGA:  18    -0.128247195893E+04   -0.86795E-04   -0.97132E-04 10640   0.575E-03-0.153E-03
CGA:  19    -0.128247197552E+04   -0.16597E-04   -0.32664E-04 10640   0.385E-03 0.146E-03
CGA:  20    -0.128247197615E+04   -0.62630E-06   -0.27441E-04 10640   0.910E-04 0.183E-03
  53 F= -.12824720E+04 E0= -.12824719E+04  d E =0.102449E+00  mag=    47.0000
       N       E                     dE             d eps       ncg     rms          ort
SDA:   1    -0.125021465748E+04    0.32257E+02    0.00000E+00 10640   0.874E+02 0.000E+00
CGA:   2    -0.127163546998E+04   -0.21421E+02   -0.21410E+02 10640   0.410E+02 0.145E+00
CGA:   3    -0.128079600901E+04   -0.91605E+01   -0.91630E+01 10640   0.753E+01-0.595E-01
CGA:   4    -0.128200555302E+04   -0.12095E+01   -0.12106E+01 10640   0.142E+01-0.490E-02
CGA:   5    -0.128229349371E+04   -0.28794E+00   -0.28783E+00 10640   0.353E+00 0.140E-01
CGA:   6    -0.128236852414E+04   -0.75030E-01   -0.75218E-01 10640   0.131E+00-0.107E-01
CGA:   7    -0.128239252260E+04   -0.23998E-01   -0.23985E-01 10640   0.371E-01-0.244E-02
CGA:   8    -0.128240141003E+04   -0.88874E-02   -0.90479E-02 10640   0.182E-01-0.285E-02
CGA:   9    -0.128240585053E+04   -0.44405E-02   -0.52266E-02 10640   0.189E-01-0.679E-02
CGA:  10    -0.128240786960E+04   -0.20191E-02   -0.19611E-02 10640   0.615E-02-0.156E-02
CGA:  11    -0.128240916640E+04   -0.12968E-02   -0.13365E-02 10640   0.499E-02-0.108E-02
CGA:  12    -0.128241002470E+04   -0.85830E-03   -0.93822E-03 10640   0.403E-02-0.305E-02
CGA:  13    -0.128241049274E+04   -0.46804E-03   -0.51210E-03 10640   0.121E-02 0.586E-03
CGA:  14    -0.128241086360E+04   -0.37086E-03   -0.37139E-03 10640   0.478E-03-0.864E-05
CGA:  15    -0.128241109361E+04   -0.23001E-03   -0.38435E-03 10640   0.121E-02-0.258E-03
CGA:  16    -0.128241125437E+04   -0.16076E-03   -0.17155E-03 10640   0.372E-03 0.120E-03
CGA:  17    -0.128241132499E+04   -0.70613E-04   -0.23829E-03 10640   0.125E-02-0.475E-03
CGA:  18    -0.128241144267E+04   -0.11769E-03   -0.14529E-03 10640   0.290E-03 0.215E-03
CGA:  19    -0.128241154528E+04   -0.10261E-03   -0.11139E-03 10640   0.171E-03-0.100E-03
CGA:  20    -0.128241162459E+04   -0.79309E-04    0.30031E-04 10640   0.155E-03 0.280E-04
CGA:  21    -0.128241168780E+04   -0.63207E-04   -0.14077E-03 10640   0.800E-03-0.149E-03
CGA:  22    -0.128241183659E+04   -0.14879E-03   -0.13732E-03 10640   0.299E-03-0.114E-03
CGA:  23    -0.128241186451E+04   -0.27926E-04   -0.34865E-04 10640   0.523E-04 0.538E-04
CGA:  24    -0.128241188087E+04   -0.16358E-04   -0.16588E-04 10640   0.104E-03-0.243E-04
CGA:  25    -0.128241191572E+04   -0.34852E-04    0.35053E-04 10640   0.228E-03-0.426E-04
CGA:  26    -0.128241194831E+04   -0.32590E-04   -0.25334E-04 10640   0.322E-03-0.105E-03
CGA:  27    -0.128241195674E+04   -0.84308E-05   -0.13798E-04 10640   0.265E-03 0.272E-04
CGA:  28    -0.128241196560E+04   -0.88591E-05   -0.22108E-04 10640   0.158E-03 0.755E-04
CGA:  29    -0.128241198723E+04   -0.21627E-04   -0.25731E-04 10640   0.191E-03 0.347E-04
CGA:  30    -0.128241204268E+04   -0.55453E-04   -0.63275E-04 10640   0.278E-03-0.209E-03
CGA:  31    -0.128241208872E+04   -0.46037E-04   -0.45063E-04 10640   0.748E-04-0.128E-04
CGA:  32    -0.128241209185E+04   -0.31283E-05   -0.70857E-05 10640   0.174E-04 0.300E-04
  54 F= -.12824121E+04 E0= -.12824120E+04  d E =0.598843E-01  mag=    47.0000
       N       E                     dE             d eps       ncg     rms          ort
SDA:   1    -0.127280641532E+04    0.96057E+01    0.00000E+00 10640   0.273E+02 0.000E+00
CGA:   2    -0.127911317038E+04   -0.63068E+01   -0.63067E+01 10640   0.122E+02 0.765E-02
CGA:   3    -0.128195795152E+04   -0.28448E+01   -0.28447E+01 10640   0.239E+01-0.388E-02
CGA:   4    -0.128233749357E+04   -0.37954E+00   -0.37990E+00 10640   0.427E+00 0.103E-01
CGA:   5    -0.128242529312E+04   -0.87800E-01   -0.87798E-01 10640   0.119E+00-0.165E-03
CGA:   6    -0.128244684687E+04   -0.21554E-01   -0.21554E-01 10640   0.448E-01 0.227E-03
CGA:   7    -0.128245501000E+04   -0.81631E-02   -0.81453E-02 10640   0.118E-01-0.453E-03
CGA:   8    -0.128245794202E+04   -0.29320E-02   -0.29830E-02 10640   0.593E-02-0.121E-02
CGA:   9    -0.128245903482E+04   -0.10928E-02   -0.10947E-02 10640   0.258E-02 0.222E-03
CGA:  10    -0.128245967390E+04   -0.63908E-03   -0.63480E-03 10640   0.103E-02 0.190E-03
CGA:  11    -0.128245998823E+04   -0.31434E-03   -0.49215E-03 10640   0.239E-02-0.776E-03
CGA:  12    -0.128246012014E+04   -0.13191E-03   -0.20369E-03 10640   0.343E-03 0.511E-03
CGA:  13    -0.128246014270E+04   -0.22564E-04   -0.45559E-04 10640   0.221E-03 0.208E-03
CGA:  14    -0.128245930879E+04    0.83392E-03   -0.44878E-03 10640   0.128E-01-0.970E-03
CGA:  15    -0.128246021810E+04   -0.90932E-03   -0.11058E-02 10640   0.450E-03 0.683E-03
CGA:  16    -0.128246023953E+04   -0.21429E-04   -0.67485E-04 10640   0.196E-03 0.197E-03
CGA:  17    -0.128246029542E+04   -0.55889E-04   -0.60152E-04 10640   0.908E-04 0.282E-04
CGA:  18    -0.128246032550E+04   -0.30084E-04   -0.28987E-04 10640   0.144E-03-0.143E-04
CGA:  19    -0.128246032417E+04    0.13361E-05   -0.16599E-04 10640   0.149E-03 0.822E-04
CGA:  20    -0.128246032445E+04   -0.28285E-06   -0.16448E-04 10640   0.646E-04 0.698E-04
CGA:  21    -0.128246032707E+04   -0.26219E-05   -0.13382E-04 10640   0.517E-04 0.567E-04
CGA:  22    -0.128246036507E+04   -0.37995E-04    0.57468E-04 10640   0.111E-03-0.610E-05
CGA:  23    -0.128246038864E+04   -0.23572E-04   -0.26489E-04 10640   0.930E-04 0.567E-04
CGA:  24    -0.128246037824E+04    0.10399E-04   -0.51895E-05 10640   0.426E-04 0.594E-04
CGA:  25    -0.128246037207E+04    0.61685E-05   -0.23635E-05 10640   0.295E-04 0.341E-04
  55 F= -.12824604E+04 E0= -.12824603E+04  d E =-.482802E-01  mag=    47.0000
       N       E                     dE             d eps       ncg     rms          ort
SDA:   1    -0.127727063417E+04    0.51897E+01    0.00000E+00 10640   0.135E+02 0.000E+00
CGA:   2    -0.128082540389E+04   -0.35548E+01   -0.35548E+01 10640   0.641E+01-0.177E-02
CGA:   3    -0.128223257827E+04   -0.14072E+01   -0.14072E+01 10640   0.969E+00-0.224E-02
CGA:   4    -0.128240110817E+04   -0.16853E+00   -0.16859E+00 10640   0.195E+00 0.606E-03
CGA:   5    -0.128244174917E+04   -0.40641E-01   -0.40702E-01 10640   0.435E-01 0.949E-03
CGA:   6    -0.128245221096E+04   -0.10462E-01   -0.10427E-01 10640   0.150E-01-0.109E-02
CGA:   7    -0.128245475017E+04   -0.25392E-02   -0.25436E-02 10640   0.547E-02 0.605E-04
CGA:   8    -0.128245600320E+04   -0.12530E-02   -0.12326E-02 10640   0.269E-02-0.524E-03
CGA:   9    -0.128245661195E+04   -0.60874E-03   -0.60618E-03 10640   0.145E-02-0.207E-03
CGA:  10    -0.128245692013E+04   -0.30819E-03   -0.30330E-03 10640   0.684E-03-0.144E-03
CGA:  11    -0.128245709972E+04   -0.17959E-03   -0.19948E-03 10640   0.623E-03-0.306E-03
CGA:  12    -0.128245714462E+04   -0.44895E-04   -0.45924E-04 10640   0.256E-03 0.833E-05
CGA:  13    -0.128245717340E+04   -0.28782E-04   -0.37412E-04 10640   0.199E-03 0.772E-04
CGA:  14    -0.128245721810E+04   -0.44703E-04   -0.47252E-04 10640   0.963E-04 0.374E-04
CGA:  15    -0.128245721920E+04   -0.10943E-05   -0.88223E-04 10640   0.980E-03-0.167E-03
CGA:  16    -0.128245725679E+04   -0.37597E-04   -0.83601E-04 10640   0.144E-03 0.249E-03
CGA:  17    -0.128245725910E+04   -0.23057E-05   -0.17284E-04 10640   0.863E-04 0.895E-04
CGA:  18    -0.128245730324E+04   -0.44140E-04    0.46332E-02 10640   0.700E-04 0.726E-05
CGA:  19    -0.128245730247E+04    0.77257E-06   -0.68053E-05 10640   0.270E-04 0.458E-04
  56 F= -.12824573E+04 E0= -.12824573E+04  d E =0.306961E-02  mag=    47.0000
       N       E                     dE             d eps       ncg     rms          ort
SDA:   1    -0.126437379351E+04    0.18084E+02    0.00000E+00 10640   0.506E+02 0.000E+00
CGA:   2    -0.127621760829E+04   -0.11844E+02   -0.11844E+02 10640   0.232E+02 0.333E-01
CGA:   3    -0.128149626268E+04   -0.52787E+01   -0.52785E+01 10640   0.483E+01-0.153E-01
CGA:   4    -0.128222603303E+04   -0.72977E+00   -0.73122E+00 10640   0.942E+00 0.110E-02
CGA:   5    -0.128239794499E+04   -0.17191E+00   -0.17193E+00 10640   0.283E+00 0.113E-02
CGA:   6    -0.128244808132E+04   -0.50136E-01   -0.50096E-01 10640   0.846E-01 0.163E-03
CGA:   7    -0.128246684435E+04   -0.18763E-01   -0.18743E-01 10640   0.254E-01-0.370E-02
CGA:   8    -0.128247184675E+04   -0.50024E-02   -0.49910E-02 10640   0.114E-01-0.478E-03
CGA:   9    -0.128247466240E+04   -0.28156E-02   -0.28796E-02 10640   0.746E-02-0.206E-02
CGA:  10    -0.128247615250E+04   -0.14901E-02   -0.15356E-02 10640   0.453E-02-0.188E-02
CGA:  11    -0.128247695097E+04   -0.79847E-03   -0.80832E-03 10640   0.201E-02-0.977E-03
CGA:  12    -0.128247644555E+04    0.50542E-03   -0.10755E-02 10640   0.139E-01-0.349E-02
CGA:  13    -0.128247763504E+04   -0.11895E-02   -0.13371E-02 10640   0.169E-02 0.100E-02
CGA:  14    -0.128247804192E+04   -0.40688E-03   -0.41243E-03 10640   0.555E-03 0.347E-03
CGA:  15    -0.128247822554E+04   -0.18362E-03   -0.23328E-03 10640   0.163E-02-0.467E-03
CGA:  16    -0.128247829488E+04   -0.69335E-04   -0.13073E-03 10640   0.203E-03 0.372E-03
CGA:  17    -0.128247830074E+04   -0.58689E-05   -0.23854E-04 10640   0.142E-03 0.125E-03
CGA:  18    -0.128247837466E+04   -0.73917E-04    0.13763E-03 10640   0.133E-03 0.460E-04
CGA:  19    -0.128247840967E+04   -0.35010E-04   -0.37093E-04 10640   0.586E-04 0.917E-04
CGA:  20    -0.128247842535E+04   -0.15681E-04   -0.14771E-04 10640   0.491E-04 0.434E-04
CGA:  21    -0.128247845601E+04   -0.30655E-04    0.16625E-04 10640   0.522E-04 0.322E-04
CGA:  22    -0.128247846068E+04   -0.46721E-05   -0.74224E-05 10640   0.414E-04 0.305E-04
CGA:  23    -0.128247848373E+04   -0.23050E-04    0.21307E-04 10640   0.454E-04 0.285E-04
CGA:  24    -0.128247849421E+04   -0.10480E-04   -0.10447E-04 10640   0.623E-04 0.145E-04
CGA:  25    -0.128247853500E+04   -0.40787E-04    0.10459E-03 10640   0.369E-04 0.728E-04
CGA:  26    -0.128247855962E+04   -0.24621E-04    0.90579E-05 10640   0.491E-04 0.109E-04
CGA:  27    -0.128247859750E+04   -0.37884E-04    0.23818E-04 10640   0.328E-04 0.577E-04
CGA:  28    -0.128247859805E+04   -0.54608E-06   -0.32743E-05 10640   0.218E-04 0.213E-04
  57 F= -.12824786E+04 E0= -.12824785E+04  d E =-.212956E-01  mag=    47.0000
       N       E                     dE             d eps       ncg     rms          ort
SDA:   1    -0.127580155808E+04    0.66770E+01    0.00000E+00 10640   0.198E+02 0.000E+00
CGA:   2    -0.128012675931E+04   -0.43252E+01   -0.43252E+01 10640   0.849E+01 0.266E-02
CGA:   3    -0.128216802798E+04   -0.20413E+01   -0.20412E+01 10640   0.191E+01-0.378E-02
CGA:   4    -0.128245723570E+04   -0.28921E+00   -0.28941E+00 10640   0.339E+00 0.794E-02
CGA:   5    -0.128252028111E+04   -0.63045E-01   -0.63060E-01 10640   0.109E+00 0.566E-03
CGA:   6    -0.128253880703E+04   -0.18526E-01   -0.18545E-01 10640   0.330E-01 0.471E-03
CGA:   7    -0.128254574274E+04   -0.69357E-02   -0.69358E-02 10640   0.835E-02 0.509E-04
CGA:   8    -0.128254778487E+04   -0.20421E-02   -0.20700E-02 10640   0.460E-02-0.837E-03
CGA:   9    -0.128254856317E+04   -0.77830E-03   -0.77978E-03 10640   0.187E-02 0.603E-04
CGA:  10    -0.128254897100E+04   -0.40783E-03   -0.40781E-03 10640   0.606E-03 0.357E-03
CGA:  11    -0.128254920276E+04   -0.23176E-03   -0.35626E-03 10640   0.127E-02-0.446E-03
CGA:  12    -0.128254926265E+04   -0.59894E-04   -0.11518E-03 10640   0.238E-03 0.404E-03
CGA:  13    -0.128254927946E+04   -0.16808E-04   -0.33000E-04 10640   0.135E-03 0.139E-03
CGA:  14    -0.128254935441E+04   -0.74946E-04    0.51857E-04 10640   0.986E-04 0.351E-04
CGA:  15    -0.128254936251E+04   -0.80962E-05   -0.15956E-04 10640   0.569E-04 0.897E-04
  58 F= -.12825494E+04 E0= -.12825493E+04  d E =-.707645E-01  mag=    47.0000
       N       E                     dE             d eps       ncg     rms          ort
SDA:   1    -0.127885119269E+04    0.36982E+01    0.00000E+00 10640   0.989E+01 0.000E+00
CGA:   2    -0.128136748285E+04   -0.25163E+01   -0.25164E+01 10640   0.464E+01-0.202E-02
CGA:   3    -0.128240609865E+04   -0.10386E+01   -0.10386E+01 10640   0.749E+00-0.270E-02
CGA:   4    -0.128253052298E+04   -0.12442E+00   -0.12445E+00 10640   0.159E+00 0.801E-03
CGA:   5    -0.128256027641E+04   -0.29753E-01   -0.29768E-01 10640   0.471E-01 0.866E-03
CGA:   6    -0.128256846249E+04   -0.81861E-02   -0.81804E-02 10640   0.162E-01-0.129E-03
CGA:   7    -0.128257179335E+04   -0.33309E-02   -0.33329E-02 10640   0.425E-02-0.571E-03
CGA:   8    -0.128257277180E+04   -0.97845E-03   -0.98395E-03 10640   0.214E-02-0.143E-03
CGA:   9    -0.128257325579E+04   -0.48399E-03   -0.49919E-03 10640   0.157E-02-0.407E-03
CGA:  10    -0.128257349772E+04   -0.24193E-03   -0.24223E-03 10640   0.457E-03 0.194E-04
CGA:  11    -0.128257365571E+04   -0.15798E-03   -0.19844E-03 10640   0.372E-03-0.182E-03
CGA:  12    -0.128257369875E+04   -0.43042E-04   -0.42798E-04 10640   0.249E-03-0.971E-05
CGA:  13    -0.128257374481E+04   -0.46060E-04   -0.47302E-04 10640   0.125E-03 0.600E-04
CGA:  14    -0.128257378096E+04   -0.36147E-04   -0.35742E-04 10640   0.113E-03 0.261E-04
CGA:  15    -0.128257380822E+04   -0.27263E-04   -0.27812E-04 10640   0.778E-04 0.489E-04
CGA:  16    -0.128257381719E+04   -0.89675E-05   -0.14721E-04 10640   0.547E-04 0.689E-04
  59 F= -.12825738E+04 E0= -.12825738E+04  d E =-.244547E-01  mag=    47.0000
       N       E                     dE             d eps       ncg     rms          ort
SDA:   1    -0.127335466514E+04    0.92191E+01    0.00000E+00 10640   0.273E+02 0.000E+00
CGA:   2    -0.127928253135E+04   -0.59279E+01   -0.59278E+01 10640   0.117E+02 0.135E-01
CGA:   3    -0.128208080808E+04   -0.27983E+01   -0.27979E+01 10640   0.269E+01 0.266E-02
CGA:   4    -0.128249035680E+04   -0.40955E+00   -0.40962E+00 10640   0.458E+00 0.726E-02
CGA:   5    -0.128257894388E+04   -0.88587E-01   -0.88557E-01 10640   0.143E+00-0.234E-02
CGA:   6    -0.128260348896E+04   -0.24545E-01   -0.24535E-01 10640   0.451E-01 0.106E-04
CGA:   7    -0.128261294305E+04   -0.94541E-02   -0.94603E-02 10640   0.120E-01-0.126E-02
CGA:   8    -0.128261575273E+04   -0.28097E-02   -0.28643E-02 10640   0.657E-02-0.135E-02
CGA:   9    -0.128261695948E+04   -0.12067E-02   -0.12066E-02 10640   0.307E-02-0.409E-03
CGA:  10    -0.128261773944E+04   -0.77996E-03   -0.11842E-02 10640   0.472E-02-0.197E-02
CGA:  11    -0.128261825816E+04   -0.51872E-03   -0.53348E-03 10640   0.899E-03 0.147E-03
CGA:  12    -0.128261851522E+04   -0.25706E-03   -0.35597E-03 10640   0.115E-02-0.574E-03
CGA:  13    -0.128261869295E+04   -0.17773E-03   -0.17587E-03 10640   0.350E-03-0.258E-04
CGA:  14    -0.128261874380E+04   -0.50850E-04   -0.14672E-03 10640   0.139E-02-0.453E-03
CGA:  15    -0.128261889596E+04   -0.15216E-03   -0.15441E-03 10640   0.240E-03 0.214E-04
CGA:  16    -0.128261785319E+04    0.10428E-02   -0.56170E-03 10640   0.786E-02-0.113E-02
CGA:  17    -0.128261901650E+04   -0.11633E-02   -0.11841E-02 10640   0.213E-02 0.900E-04
CGA:  18    -0.128261935330E+04   -0.33680E-03   -0.32355E-03 10640   0.877E-04-0.526E-04
CGA:  19    -0.128261938739E+04   -0.34087E-04   -0.34757E-04 10640   0.151E-03-0.252E-04
CGA:  20    -0.128261772258E+04    0.16648E-02   -0.90447E-03 10640   0.150E-01-0.939E-03
CGA:  21    -0.128261928757E+04   -0.15650E-02   -0.16119E-02 10640   0.218E-02 0.114E-03
CGA:  22    -0.128261988662E+04   -0.59906E-03   -0.60862E-03 10640   0.189E-03 0.261E-04
CGA:  23    -0.128261994527E+04   -0.58649E-04   -0.51280E-04 10640   0.598E-04-0.193E-04
CGA:  24    -0.128261994362E+04    0.16495E-05   -0.66292E-05 10640   0.124E-04 0.166E-04
  60 F= -.12826199E+04 E0= -.12826199E+04  d E =-.461264E-01  mag=    47.0000
       N       E                     dE             d eps       ncg     rms          ort
SDA:   1    -0.128030917890E+04    0.23108E+01    0.00000E+00 10640   0.774E+01 0.000E+00
CGA:   2    -0.128182331044E+04   -0.15141E+01   -0.15130E+01 10640   0.290E+01 0.111E-01
CGA:   3    -0.128256124701E+04   -0.73794E+00   -0.73815E+00 10640   0.801E+00-0.172E-02
CGA:   4    -0.128268181857E+04   -0.12057E+00   -0.12107E+00 10640   0.121E+00 0.386E-02
CGA:   5    -0.128270502940E+04   -0.23211E-01   -0.23248E-01 10640   0.388E-01 0.138E-03
