       N       E                     dE             d eps       ncg     rms          rms(c)
DAV:   1     0.427386590218E+04    0.42739E+04   -0.15632E+05  7704   0.146E+03
DAV:   2     0.347041821598E+03   -0.39268E+04   -0.37771E+04  7424   0.430E+02
DAV:   3    -0.322369328876E+03   -0.66941E+03   -0.63075E+03 10072   0.152E+02
DAV:   4    -0.374314375921E+03   -0.51945E+02   -0.51474E+02  9464   0.436E+01
DAV:   5    -0.375685353507E+03   -0.13710E+01   -0.13681E+01  9904   0.835E+00    0.714E+01
DAV:   6    -0.325601798721E+03    0.50084E+02   -0.40371E+02  9920   0.525E+01    0.436E+01
DAV:   7    -0.321650863681E+03    0.39509E+01   -0.19361E+02  9904   0.415E+01    0.287E+01
DAV:   8    -0.315637926756E+03    0.60129E+01   -0.31353E+01  9920   0.162E+01    0.879E+00
DAV:   9    -0.316152027667E+03   -0.51410E+00   -0.73119E+00 10000   0.711E+00    0.802E+00
DAV:  10    -0.315729178414E+03    0.42285E+00   -0.17883E+00  9864   0.439E+00    0.435E+00
DAV:  11    -0.315666361777E+03    0.62817E-01   -0.54538E-01 10128   0.212E+00    0.191E+00
DAV:  12    -0.315670329043E+03   -0.39673E-02   -0.91815E-02  9792   0.116E+00    0.108E+00
DAV:  13    -0.315668841757E+03    0.14873E-02   -0.30823E-02  9920   0.804E-01    0.641E-01
DAV:  14    -0.315668840047E+03    0.17097E-05   -0.68577E-03  9904   0.377E-01    0.341E-01
DAV:  15    -0.315668985361E+03   -0.14531E-03   -0.37985E-03  9704   0.202E-01    0.101E-01
DAV:  16    -0.315669052660E+03   -0.67299E-04   -0.66111E-04  9688   0.109E-01    0.657E-02
DAV:  17    -0.315669075839E+03   -0.23179E-04   -0.18443E-04  9632   0.612E-02    0.365E-02
DAV:  18    -0.315669099217E+03   -0.23378E-04   -0.29582E-05  6696   0.191E-02    0.224E-02
DAV:  19    -0.315669115173E+03   -0.15956E-04   -0.17055E-05  5328   0.146E-02    0.126E-02
DAV:  20    -0.315669117789E+03   -0.26161E-05   -0.71177E-06  4096   0.134E-02
   1 F= -.31566912E+03 E0= -.31566804E+03  d E =-.315669E+03  mag=     0.0001
       N       E                     dE             d eps       ncg     rms          rms(c)
DAV:   1    -0.315724386509E+03   -0.55271E-01   -0.11557E-02  8176   0.173E-01    0.497E-02
DAV:   2    -0.315724441151E+03   -0.54642E-04   -0.74186E-04  8608   0.644E-02    0.427E-02
DAV:   3    -0.315724434618E+03    0.65332E-05   -0.53807E-05  8328   0.310E-02    0.243E-02
DAV:   4    -0.315724431936E+03    0.26816E-05   -0.10681E-05  5232   0.167E-02
   2 F= -.31572443E+03 E0= -.31572335E+03  d E =-.553141E-01  mag=     0.0000
       N       E                     dE             d eps       ncg     rms          rms(c)
DAV:   1    -0.318013232160E+03   -0.22888E+01   -0.45042E+01  7896   0.111E+01    0.564E+00
DAV:   2    -0.318266454253E+03   -0.25322E+00   -0.31266E+00  8976   0.412E+00    0.276E+00
DAV:   3    -0.318239629113E+03    0.26825E-01   -0.30223E-01  9664   0.191E+00    0.205E+00
DAV:   4    -0.318227096711E+03    0.12532E-01   -0.97614E-02  9888   0.113E+00    0.187E+00
DAV:   5    -0.318218535076E+03    0.85616E-02   -0.30529E-02  9720   0.582E-01    0.996E-01
DAV:   6    -0.318217011139E+03    0.15239E-02   -0.17012E-02  9936   0.338E-01    0.341E-01
DAV:   7    -0.318216813547E+03    0.19759E-03   -0.29125E-03  9848   0.179E-01    0.205E-01
DAV:   8    -0.318216722372E+03    0.91175E-04   -0.51183E-04  9888   0.939E-02    0.161E-01
DAV:   9    -0.318216649463E+03    0.72909E-04   -0.59554E-04  9832   0.905E-02    0.845E-02
DAV:  10    -0.318216608422E+03    0.41041E-04   -0.24157E-04  9488   0.516E-02    0.262E-02
DAV:  11    -0.318216608247E+03    0.17427E-06   -0.32222E-05  5480   0.165E-02
   3 F= -.31821661E+03 E0= -.31821541E+03  d E =-.249218E+01  mag=    -0.0000
       N       E                     dE             d eps       ncg     rms          rms(c)
DAV:   1    -0.318844555816E+03   -0.62795E+00   -0.66066E+01  7840   0.222E+01    0.643E+00
DAV:   2    -0.319430068635E+03   -0.58551E+00   -0.65623E+00  8040   0.619E+00    0.296E+00
DAV:   3    -0.319405313824E+03    0.24755E-01   -0.41356E-01  9728   0.221E+00    0.221E+00
DAV:   4    -0.319390578458E+03    0.14735E-01   -0.12148E-01  9944   0.141E+00    0.204E+00
DAV:   5    -0.319380624699E+03    0.99538E-02   -0.44762E-02  9704   0.611E-01    0.103E+00
DAV:   6    -0.319379565039E+03    0.10597E-02   -0.22463E-02  9920   0.430E-01    0.282E-01
DAV:   7    -0.319379253067E+03    0.31197E-03   -0.36728E-03  9848   0.228E-01    0.195E-01
DAV:   8    -0.319379156850E+03    0.96217E-04   -0.74474E-04  9856   0.116E-01    0.147E-01
DAV:   9    -0.319379107120E+03    0.49730E-04   -0.46306E-04  9856   0.806E-02    0.976E-02
DAV:  10    -0.319379058019E+03    0.49101E-04   -0.29797E-04  9832   0.529E-02    0.400E-02
DAV:  11    -0.319379061644E+03   -0.36253E-05   -0.67725E-05  7632   0.285E-02
   4 F= -.31937906E+03 E0= -.31937765E+03  d E =-.116245E+01  mag=    -0.0000
       N       E                     dE             d eps       ncg     rms          rms(c)
DAV:   1    -0.319152496898E+03    0.22656E+00   -0.31415E+01  7920   0.239E+01    0.218E+00
DAV:   2    -0.319658867685E+03   -0.50637E+00   -0.53800E+00  7544   0.560E+00    0.110E+00
DAV:   3    -0.319665524854E+03   -0.66572E-02   -0.15555E-01  9920   0.119E+00    0.713E-01
DAV:   4    -0.319664350779E+03    0.11741E-02   -0.25973E-02  9936   0.725E-01    0.635E-01
DAV:   5    -0.319662112855E+03    0.22379E-02   -0.13449E-02  9848   0.411E-01    0.287E-01
DAV:   6    -0.319662293805E+03   -0.18095E-03   -0.36767E-03 10320   0.172E-01    0.203E-01
DAV:   7    -0.319662267350E+03    0.26455E-04   -0.58162E-04  9880   0.788E-02    0.171E-01
DAV:   8    -0.319662251649E+03    0.15701E-04   -0.17843E-04  9880   0.472E-02    0.108E-01
DAV:   9    -0.319662232124E+03    0.19525E-04   -0.17573E-04  9920   0.595E-02    0.569E-02
DAV:  10    -0.319662217860E+03    0.14264E-04   -0.16709E-04  9152   0.436E-02    0.289E-02
DAV:  11    -0.319662218961E+03   -0.11011E-05   -0.15515E-05  4472   0.119E-02
   5 F= -.31966222E+03 E0= -.31966032E+03  d E =-.283157E+00  mag=     0.0000
       N       E                     dE             d eps       ncg     rms          rms(c)
DAV:   1    -0.318679629242E+03    0.98259E+00   -0.66366E+01  7840   0.367E+01    0.341E+00
DAV:   2    -0.319908266779E+03   -0.12286E+01   -0.12980E+01  7544   0.879E+00    0.191E+00
DAV:   3    -0.319923631764E+03   -0.15365E-01   -0.41075E-01  9912   0.194E+00    0.123E+00
DAV:   4    -0.319917501603E+03    0.61302E-02   -0.76243E-02  9848   0.111E+00    0.113E+00
DAV:   5    -0.319913763625E+03    0.37380E-02   -0.21123E-02  9960   0.516E-01    0.575E-01
DAV:   6    -0.319914459147E+03   -0.69552E-03   -0.90255E-03 10736   0.313E-01    0.371E-01
DAV:   7    -0.319914304336E+03    0.15481E-03   -0.29723E-03  9896   0.251E-01    0.275E-01
DAV:   8    -0.319914279209E+03    0.25127E-04   -0.53919E-04  9888   0.102E-01    0.207E-01
DAV:   9    -0.319914187236E+03    0.91973E-04   -0.44916E-04 10080   0.692E-02    0.116E-01
DAV:  10    -0.319914134754E+03    0.52483E-04   -0.43498E-04 10120   0.681E-02    0.305E-02
DAV:  11    -0.319914138966E+03   -0.42120E-05   -0.11395E-04  9104   0.374E-02    0.453E-02
DAV:  12    -0.319914136211E+03    0.27550E-05   -0.87529E-06  4192   0.146E-02
   6 F= -.31991414E+03 E0= -.31991151E+03  d E =-.251917E+00  mag=     0.0000
       N       E                     dE             d eps       ncg     rms          rms(c)
DAV:   1    -0.319346399305E+03    0.56774E+00   -0.49167E+01  7872   0.285E+01    0.339E+00
DAV:   2    -0.320156852078E+03   -0.81045E+00   -0.86557E+00  7520   0.772E+00    0.245E+00
DAV:   3    -0.320152991321E+03    0.38608E-02   -0.40204E-01  9976   0.213E+00    0.140E+00
DAV:   4    -0.320145695717E+03    0.72956E-02   -0.67633E-02 10112   0.111E+00    0.133E+00
DAV:   5    -0.320142734256E+03    0.29615E-02   -0.28602E-02  9824   0.538E-01    0.664E-01
DAV:   6    -0.320142710907E+03    0.23349E-04   -0.14602E-02 10072   0.446E-01    0.346E-01
DAV:   7    -0.320142415603E+03    0.29530E-03   -0.27250E-03  9872   0.239E-01    0.204E-01
DAV:   8    -0.320142472614E+03   -0.57010E-04   -0.71823E-04  9928   0.953E-02    0.147E-01
DAV:   9    -0.320142347637E+03    0.12498E-03   -0.36759E-04  9960   0.656E-02    0.895E-02
DAV:  10    -0.320142287509E+03    0.60127E-04   -0.34626E-04  9432   0.530E-02    0.363E-02
DAV:  11    -0.320142285226E+03    0.22836E-05   -0.10757E-04  8992   0.370E-02    0.232E-02
DAV:  12    -0.320142285819E+03   -0.59304E-06   -0.76280E-06  4160   0.116E-02
   7 F= -.32014229E+03 E0= -.32013940E+03  d E =-.228150E+00  mag=     0.0000
       N       E                     dE             d eps       ncg     rms          rms(c)
DAV:   1    -0.319460587088E+03    0.68170E+00   -0.73141E+01  7776   0.279E+01    0.794E+00
DAV:   2    -0.320390074472E+03   -0.92949E+00   -0.99675E+00  8008   0.847E+00    0.376E+00
DAV:   3    -0.320380975089E+03    0.90994E-02   -0.57767E-01  9976   0.273E+00    0.287E+00
DAV:   4    -0.320358896838E+03    0.22078E-01   -0.13259E-01  9936   0.150E+00    0.240E+00
DAV:   5    -0.320350263423E+03    0.86334E-02   -0.56376E-02  9448   0.633E-01    0.120E+00
DAV:   6    -0.320350276106E+03   -0.12683E-04   -0.23018E-02  9848   0.490E-01    0.568E-01
DAV:   7    -0.320349922214E+03    0.35389E-03   -0.33601E-03  9840   0.261E-01    0.311E-01
DAV:   8    -0.320350003664E+03   -0.81450E-04   -0.95986E-04 10040   0.123E-01    0.196E-01
DAV:   9    -0.320349905018E+03    0.98645E-04   -0.65850E-04  9936   0.992E-02    0.859E-02
DAV:  10    -0.320349842904E+03    0.62114E-04   -0.41092E-04  9744   0.571E-02    0.399E-02
DAV:  11    -0.320349846246E+03   -0.33419E-05   -0.79617E-05  7952   0.266E-02
   8 F= -.32034985E+03 E0= -.32034769E+03  d E =-.207560E+00  mag=    -0.0000
       N       E                     dE             d eps       ncg     rms          rms(c)
DAV:   1    -0.320463163183E+03   -0.11332E+00   -0.23716E+01  7632   0.922E+00    0.383E+00
DAV:   2    -0.320623121331E+03   -0.15996E+00   -0.18134E+00  8896   0.364E+00    0.204E+00
DAV:   3    -0.320609372364E+03    0.13749E-01   -0.19266E-01  9744   0.166E+00    0.119E+00
DAV:   4    -0.320601294745E+03    0.80776E-02   -0.58607E-02  9840   0.984E-01    0.116E+00
DAV:   5    -0.320597982430E+03    0.33123E-02   -0.17516E-02  9664   0.416E-01    0.680E-01
DAV:   6    -0.320597412514E+03    0.56992E-03   -0.87101E-03  9984   0.300E-01    0.213E-01
DAV:   7    -0.320597323966E+03    0.88548E-04   -0.19208E-03  9992   0.173E-01    0.121E-01
DAV:   8    -0.320597286267E+03    0.37699E-04   -0.52548E-04  9968   0.101E-01    0.860E-02
DAV:   9    -0.320597261757E+03    0.24510E-04   -0.13773E-04  9480   0.402E-02    0.516E-02
DAV:  10    -0.320597251002E+03    0.10755E-04   -0.91871E-05  8184   0.255E-02    0.290E-02
DAV:  11    -0.320597251011E+03   -0.88730E-08   -0.25900E-05  6336   0.193E-02
   9 F= -.32059725E+03 E0= -.32059510E+03  d E =-.247405E+00  mag=    -0.0000
       N       E                     dE             d eps       ncg     rms          rms(c)
DAV:   1    -0.320650308501E+03   -0.53057E-01   -0.10865E+00  7504   0.424E+00    0.590E-01
DAV:   2    -0.320669430417E+03   -0.19122E-01   -0.20007E-01  7536   0.116E+00    0.314E-01
DAV:   3    -0.320669605345E+03   -0.17493E-03   -0.71886E-03  9920   0.287E-01    0.203E-01
DAV:   4    -0.320669536829E+03    0.68516E-04   -0.18314E-03 10024   0.196E-01    0.188E-01
DAV:   5    -0.320669380793E+03    0.15604E-03   -0.76947E-04  9832   0.108E-01    0.990E-02
DAV:   6    -0.320669394721E+03   -0.13928E-04   -0.26099E-04  9920   0.473E-02    0.602E-02
DAV:   7    -0.320669398192E+03   -0.34711E-05   -0.78200E-05  9336   0.359E-02
  10 F= -.32066940E+03 E0= -.32066721E+03  d E =-.721472E-01  mag=    -0.0000
       N       E                     dE             d eps       ncg     rms          rms(c)
DAV:   1    -0.320284987376E+03    0.38441E+00   -0.60191E+01  7792   0.244E+01    0.715E+00
DAV:   2    -0.320986222698E+03   -0.70124E+00   -0.75083E+00  8096   0.717E+00    0.367E+00
DAV:   3    -0.320978072106E+03    0.81506E-02   -0.38405E-01  9888   0.215E+00    0.264E+00
DAV:   4    -0.320965422257E+03    0.12650E-01   -0.96200E-02 10016   0.132E+00    0.232E+00
DAV:   5    -0.320957535234E+03    0.78870E-02   -0.62240E-02  8944   0.621E-01    0.963E-01
DAV:   6    -0.320958107465E+03   -0.57223E-03   -0.16238E-02  9712   0.374E-01    0.566E-01
DAV:   7    -0.320958065218E+03    0.42247E-04   -0.20464E-03  9744   0.191E-01    0.355E-01
DAV:   8    -0.320958219586E+03   -0.15437E-03   -0.77720E-04  9904   0.128E-01    0.227E-01
DAV:   9    -0.320958139863E+03    0.79723E-04   -0.86752E-04  9840   0.130E-01    0.905E-02
DAV:  10    -0.320958100030E+03    0.39834E-04   -0.35435E-04  9776   0.651E-02    0.374E-02
DAV:  11    -0.320958102290E+03   -0.22605E-05   -0.42793E-05  7288   0.214E-02
  11 F= -.32095810E+03 E0= -.32095572E+03  d E =-.288704E+00  mag=    -0.0000
       N       E                     dE             d eps       ncg     rms          rms(c)
DAV:   1    -0.319796898491E+03    0.11612E+01   -0.71191E+01  7792   0.334E+01    0.619E+00
DAV:   2    -0.321002381669E+03   -0.12055E+01   -0.12779E+01  7488   0.876E+00    0.210E+00
DAV:   3    -0.321010127073E+03   -0.77454E-02   -0.46903E-01 10080   0.222E+00    0.176E+00
DAV:   4    -0.321005925602E+03    0.42015E-02   -0.10097E-01 10096   0.132E+00    0.161E+00
DAV:   5    -0.320997516360E+03    0.84092E-02   -0.30334E-02  9968   0.703E-01    0.898E-01
DAV:   6    -0.320996493201E+03    0.10232E-02   -0.19924E-02  9712   0.404E-01    0.377E-01
DAV:   7    -0.320996006631E+03    0.48657E-03   -0.66391E-03  9984   0.283E-01    0.295E-01
DAV:   8    -0.320995971962E+03    0.34669E-04   -0.88330E-04  9776   0.117E-01    0.210E-01
DAV:   9    -0.320995936071E+03    0.35891E-04   -0.51811E-04 10128   0.102E-01    0.134E-01
DAV:  10    -0.320995891168E+03    0.44903E-04   -0.33225E-04  9888   0.686E-02    0.408E-02
DAV:  11    -0.320995898661E+03   -0.74923E-05   -0.88937E-05  9008   0.302E-02
  12 F= -.32099590E+03 E0= -.32099391E+03  d E =-.377964E-01  mag=    -0.0000
       N       E                     dE             d eps       ncg     rms          rms(c)
DAV:   1    -0.320858869135E+03    0.13702E+00   -0.15255E+01  7712   0.153E+01    0.241E+00
DAV:   2    -0.321106511165E+03   -0.24764E+00   -0.26336E+00  7488   0.422E+00    0.141E+00
DAV:   3    -0.321106606118E+03   -0.94954E-04   -0.11070E-01 10000   0.113E+00    0.892E-01
DAV:   4    -0.321104965480E+03    0.16406E-02   -0.29078E-02  9968   0.772E-01    0.799E-01
DAV:   5    -0.321102214618E+03    0.27509E-02   -0.11411E-02  9760   0.387E-01    0.440E-01
DAV:   6    -0.321102159373E+03    0.55245E-04   -0.45577E-03 10064   0.196E-01    0.269E-01
DAV:   7    -0.321102110856E+03    0.48517E-04   -0.10245E-03  9888   0.123E-01    0.198E-01
DAV:   8    -0.321102119140E+03   -0.82835E-05   -0.21202E-04  9872   0.613E-02    0.147E-01
DAV:   9    -0.321102079226E+03    0.39914E-04   -0.16976E-04  9904   0.507E-02    0.916E-02
DAV:  10    -0.321102046536E+03    0.32689E-04   -0.18253E-04  8592   0.332E-02    0.193E-02
DAV:  11    -0.321102051152E+03   -0.46152E-05   -0.47487E-05  6128   0.195E-02
  13 F= -.32110205E+03 E0= -.32109990E+03  d E =-.106152E+00  mag=     0.0000
       N       E                     dE             d eps       ncg     rms          rms(c)
DAV:   1    -0.321110050174E+03   -0.80036E-02   -0.59837E-01  7520   0.295E+00    0.424E-01
DAV:   2    -0.321119440186E+03   -0.93900E-02   -0.98936E-02  7664   0.825E-01    0.187E-01
DAV:   3    -0.321119531389E+03   -0.91203E-04   -0.30287E-03  9632   0.174E-01    0.142E-01
DAV:   4    -0.321119504551E+03    0.26838E-04   -0.48301E-04 10000   0.950E-02    0.116E-01
DAV:   5    -0.321119447802E+03    0.56749E-04   -0.24850E-04  9776   0.637E-02    0.683E-02
DAV:   6    -0.321119449342E+03   -0.15407E-05   -0.10504E-04  8624   0.262E-02    0.297E-02
DAV:   7    -0.321119450853E+03   -0.15106E-05   -0.16387E-05  4752   0.169E-02
  14 F= -.32111945E+03 E0= -.32111729E+03  d E =-.173997E-01  mag=    -0.0000
       N       E                     dE             d eps       ncg     rms          rms(c)
DAV:   1    -0.320341047431E+03    0.77840E+00   -0.47755E+01  7568   0.290E+01    0.396E+00
DAV:   2    -0.321217320499E+03   -0.87627E+00   -0.92127E+00  7568   0.792E+00    0.177E+00
DAV:   3    -0.321230905421E+03   -0.13585E-01   -0.26716E-01  9744   0.166E+00    0.137E+00
DAV:   4    -0.321229315841E+03    0.15896E-02   -0.35925E-02 10016   0.802E-01    0.116E+00
DAV:   5    -0.321225856464E+03    0.34594E-02   -0.18278E-02  9584   0.493E-01    0.601E-01
DAV:   6    -0.321226620308E+03   -0.76384E-03   -0.60093E-03 10048   0.230E-01    0.203E-01
DAV:   7    -0.321226659865E+03   -0.39557E-04   -0.17706E-03  9920   0.208E-01    0.148E-01
DAV:   8    -0.321226583741E+03    0.76124E-04   -0.36572E-04  9904   0.103E-01    0.868E-02
DAV:   9    -0.321226556778E+03    0.26962E-04   -0.25190E-04  9248   0.421E-02    0.394E-02
DAV:  10    -0.321226560984E+03   -0.42055E-05   -0.88032E-05  8816   0.327E-02
  15 F= -.32122656E+03 E0= -.32122431E+03  d E =-.107110E+00  mag=    -0.0000
       N       E                     dE             d eps       ncg     rms          rms(c)
DAV:   1    -0.318352012902E+03    0.28745E+01   -0.12040E+02  7696   0.485E+01    0.755E+00
DAV:   2    -0.320912633098E+03   -0.25606E+01   -0.26758E+01  7424   0.130E+01    0.252E+00
DAV:   3    -0.320946183596E+03   -0.33550E-01   -0.96077E-01  9808   0.293E+00    0.213E+00
DAV:   4    -0.320935379646E+03    0.10804E-01   -0.17308E-01 10048   0.172E+00    0.182E+00
DAV:   5    -0.320922734342E+03    0.12645E-01   -0.49669E-02  9968   0.780E-01    0.106E+00
DAV:   6    -0.320921508123E+03    0.12262E-02   -0.24018E-02  9488   0.454E-01    0.456E-01
DAV:   7    -0.320921636499E+03   -0.12838E-03   -0.75309E-03  9952   0.371E-01    0.387E-01
DAV:   8    -0.320921409372E+03    0.22713E-03   -0.17678E-03  9952   0.216E-01    0.277E-01
DAV:   9    -0.320921341200E+03    0.68172E-04   -0.72419E-04  9952   0.877E-02    0.153E-01
DAV:  10    -0.320921321872E+03    0.19328E-04   -0.40851E-04 10032   0.601E-02    0.797E-02
DAV:  11    -0.320921315011E+03    0.68608E-05   -0.16675E-04  9312   0.390E-02    0.402E-02
DAV:  12    -0.320921314808E+03    0.20321E-06   -0.32936E-05  7008   0.247E-02
  16 F= -.32092131E+03 E0= -.32091896E+03  d E =0.305246E+00  mag=     0.0000
       N       E                     dE             d eps       ncg     rms          rms(c)
DAV:   1    -0.320454072652E+03    0.46724E+00   -0.40066E+01  7760   0.281E+01    0.379E+00
DAV:   2    -0.321254585726E+03   -0.80051E+00   -0.84316E+00  7440   0.751E+00    0.201E+00
DAV:   3    -0.321262924281E+03   -0.83386E-02   -0.29840E-01 10000   0.158E+00    0.132E+00
DAV:   4    -0.321260038670E+03    0.28856E-02   -0.62171E-02  9840   0.116E+00    0.115E+00
DAV:   5    -0.321253930049E+03    0.61086E-02   -0.26068E-02  9792   0.582E-01    0.704E-01
DAV:   6    -0.321253457179E+03    0.47287E-03   -0.10816E-02  9600   0.288E-01    0.382E-01
DAV:   7    -0.321253525021E+03   -0.67842E-04   -0.31632E-03  9840   0.215E-01    0.366E-01
DAV:   8    -0.321253450957E+03    0.74064E-04   -0.71261E-04  9856   0.122E-01    0.266E-01
DAV:   9    -0.321253369245E+03    0.81712E-04   -0.33541E-04 10032   0.720E-02    0.174E-01
DAV:  10    -0.321253303631E+03    0.65615E-04   -0.29819E-04  9872   0.449E-02    0.671E-02
DAV:  11    -0.321253298755E+03    0.48760E-05   -0.13587E-04  9008   0.284E-02    0.332E-02
DAV:  12    -0.321253297638E+03    0.11170E-05   -0.14755E-05  5008   0.184E-02
  17 F= -.32125330E+03 E0= -.32125100E+03  d E =-.331983E+00  mag=    -0.0000
       N       E                     dE             d eps       ncg     rms          rms(c)
DAV:   1    -0.321193337588E+03    0.59961E-01   -0.46813E+00  7728   0.908E+00    0.126E+00
DAV:   2    -0.321281601904E+03   -0.88264E-01   -0.92652E-01  7472   0.241E+00    0.573E-01
DAV:   3    -0.321282423918E+03   -0.82201E-03   -0.30916E-02  9664   0.487E-01    0.389E-01
DAV:   4    -0.321282045038E+03    0.37888E-03   -0.45175E-03  9888   0.291E-01    0.311E-01
DAV:   5    -0.321281600443E+03    0.44460E-03   -0.21614E-03  9984   0.196E-01    0.186E-01
DAV:   6    -0.321281502479E+03    0.97963E-04   -0.12424E-03  8752   0.928E-02    0.870E-02
DAV:   7    -0.321281510165E+03   -0.76854E-05   -0.25023E-04  9056   0.500E-02    0.994E-02
DAV:   8    -0.321281504293E+03    0.58716E-05   -0.42185E-05  7600   0.282E-02
  18 F= -.32128150E+03 E0= -.32127923E+03  d E =-.282067E-01  mag=     0.0000
       N       E                     dE             d eps       ncg     rms          rms(c)
DAV:   1    -0.321281452728E+03    0.57437E-04   -0.11795E-01  7760   0.139E+00    0.206E-01
DAV:   2    -0.321283496911E+03   -0.20442E-02   -0.21722E-02  7680   0.385E-01    0.844E-02
DAV:   3    -0.321283520682E+03   -0.23771E-04   -0.68753E-04  9728   0.884E-02    0.580E-02
DAV:   4    -0.321283518150E+03    0.25316E-05   -0.16153E-04  9760   0.604E-02    0.508E-02
DAV:   5    -0.321283505004E+03    0.13146E-04   -0.62157E-05  9040   0.346E-02    0.259E-02
DAV:   6    -0.321283504807E+03    0.19678E-06   -0.17332E-05  4608   0.133E-02
  19 F= -.32128350E+03 E0= -.32128122E+03  d E =-.200051E-02  mag=     0.0000
       N       E                     dE             d eps       ncg     rms          rms(c)
DAV:   1    -0.321254880307E+03    0.28625E-01   -0.16824E+00  7600   0.561E+00    0.648E-01
DAV:   2    -0.321288853543E+03   -0.33973E-01   -0.35666E-01  7536   0.153E+00    0.291E-01
DAV:   3    -0.321289428908E+03   -0.57537E-03   -0.10691E-02  9552   0.335E-01    0.211E-01
DAV:   4    -0.321289382202E+03    0.46706E-04   -0.18119E-03  9904   0.194E-01    0.183E-01
DAV:   5    -0.321289258092E+03    0.12411E-03   -0.64795E-04  9920   0.103E-01    0.101E-01
DAV:   6    -0.321289269771E+03   -0.11680E-04   -0.22645E-04  9904   0.421E-02    0.432E-02
DAV:   7    -0.321289273867E+03   -0.40954E-05   -0.46735E-05  8336   0.282E-02
  20 F= -.32128927E+03 E0= -.32128696E+03  d E =-.576906E-02  mag=     0.0000
       N       E                     dE             d eps       ncg     rms          rms(c)
DAV:   1    -0.321213808705E+03    0.75461E-01   -0.41321E+00  7712   0.879E+00    0.948E-01
DAV:   2    -0.321296015797E+03   -0.82207E-01   -0.86482E-01  7472   0.234E+00    0.428E-01
DAV:   3    -0.321297521366E+03   -0.15056E-02   -0.24540E-02  9776   0.509E-01    0.318E-01
DAV:   4    -0.321297423503E+03    0.97862E-04   -0.34144E-03  9776   0.269E-01    0.269E-01
DAV:   5    -0.321297215677E+03    0.20783E-03   -0.14718E-03  9736   0.146E-01    0.130E-01
DAV:   6    -0.321297276183E+03   -0.60507E-04   -0.41084E-04  9848   0.722E-02    0.529E-02
DAV:   7    -0.321297274450E+03    0.17330E-05   -0.16229E-04  9984   0.661E-02    0.348E-02
DAV:   8    -0.321297270278E+03    0.41726E-05   -0.19762E-05  5968   0.269E-02
  21 F= -.32129727E+03 E0= -.32129496E+03  d E =-.799641E-02  mag=     0.0000
       N       E                     dE             d eps       ncg     rms          rms(c)
DAV:   1    -0.319955682979E+03    0.13416E+01   -0.65482E+01  7616   0.357E+01    0.397E+00
DAV:   2    -0.321278861835E+03   -0.13232E+01   -0.13883E+01  7424   0.966E+00    0.176E+00
DAV:   3    -0.321302630252E+03   -0.23768E-01   -0.39992E-01 10008   0.197E+00    0.135E+00
DAV:   4    -0.321299831849E+03    0.27984E-02   -0.47830E-02  9744   0.102E+00    0.116E+00
DAV:   5    -0.321296305124E+03    0.35267E-02   -0.19301E-02  9888   0.510E-01    0.629E-01
DAV:   6    -0.321297202917E+03   -0.89779E-03   -0.82625E-03 10112   0.337E-01    0.273E-01
DAV:   7    -0.321297039245E+03    0.16367E-03   -0.34725E-03 10096   0.285E-01    0.169E-01
DAV:   8    -0.321297023124E+03    0.16120E-04   -0.48287E-04  9904   0.103E-01    0.109E-01
DAV:   9    -0.321296972170E+03    0.50954E-04   -0.25656E-04 10000   0.477E-02    0.591E-02
DAV:  10    -0.321296961552E+03    0.10618E-04   -0.13758E-04  9208   0.345E-02    0.312E-02
DAV:  11    -0.321296963716E+03   -0.21645E-05   -0.18671E-05  4920   0.208E-02
  22 F= -.32129696E+03 E0= -.32129457E+03  d E =0.306561E-03  mag=     0.0000
       N       E                     dE             d eps       ncg     rms          rms(c)
DAV:   1    -0.321190304187E+03    0.10666E+00   -0.46274E+00  7872   0.107E+01    0.119E+00
DAV:   2    -0.321305588733E+03   -0.11528E+00   -0.12058E+00  7552   0.286E+00    0.590E-01
DAV:   3    -0.321307725670E+03   -0.21369E-02   -0.45605E-02  9776   0.739E-01    0.376E-01
DAV:   4    -0.321307214132E+03    0.51154E-03   -0.10054E-02 10128   0.465E-01    0.335E-01
DAV:   5    -0.321306766545E+03    0.44759E-03   -0.24654E-03 10016   0.203E-01    0.187E-01
DAV:   6    -0.321306747513E+03    0.19033E-04   -0.96187E-04 10120   0.899E-02    0.986E-02
DAV:   7    -0.321306762119E+03   -0.14606E-04   -0.27903E-04  9904   0.651E-02    0.959E-02
DAV:   8    -0.321306757430E+03    0.46890E-05   -0.93203E-05  9632   0.454E-02
  23 F= -.32130676E+03 E0= -.32130443E+03  d E =-.979371E-02  mag=    -0.0000
       N       E                     dE             d eps       ncg     rms          rms(c)
DAV:   1    -0.321149058433E+03    0.15770E+00   -0.77793E+00  7632   0.124E+01    0.126E+00
DAV:   2    -0.321306916671E+03   -0.15786E+00   -0.16589E+00  7424   0.327E+00    0.575E-01
DAV:   3    -0.321309736637E+03   -0.28200E-02   -0.45704E-02  9760   0.692E-01    0.428E-01
DAV:   4    -0.321309559114E+03    0.17752E-03   -0.61708E-03  9840   0.362E-01    0.362E-01
DAV:   5    -0.321309193120E+03    0.36599E-03   -0.26163E-03  9808   0.199E-01    0.179E-01
DAV:   6    -0.321309296628E+03   -0.10351E-03   -0.77990E-04 10112   0.100E-01    0.776E-02
DAV:   7    -0.321309293268E+03    0.33600E-05   -0.30986E-04 10224   0.912E-02    0.546E-02
DAV:   8    -0.321309286998E+03    0.62701E-05   -0.47887E-05  7984   0.373E-02
  24 F= -.32130929E+03 E0= -.32130697E+03  d E =-.252957E-02  mag=     0.0000
       N       E                     dE             d eps       ncg     rms          rms(c)
DAV:   1    -0.321303475018E+03    0.58182E-02   -0.31534E-01  7728   0.239E+00    0.290E-01
DAV:   2    -0.321309526878E+03   -0.60519E-02   -0.63695E-02  7728   0.674E-01    0.184E-01
DAV:   3    -0.321309575376E+03   -0.48498E-04   -0.30907E-03  9824   0.231E-01    0.108E-01
DAV:   4    -0.321309526243E+03    0.49133E-04   -0.57169E-04 10128   0.119E-01    0.100E-01
DAV:   5    -0.321309501188E+03    0.25055E-04   -0.15955E-04  9744   0.463E-02    0.547E-02
DAV:   6    -0.321309507094E+03   -0.59060E-05   -0.71706E-05  9344   0.337E-02
  25 F= -.32130951E+03 E0= -.32130723E+03  d E =-.220096E-03  mag=    -0.0000
       N       E                     dE             d eps       ncg     rms          rms(c)
DAV:   1    -0.321303495357E+03    0.60058E-02   -0.29494E-01  7616   0.243E+00    0.250E-01
DAV:   2    -0.321309750893E+03   -0.62555E-02   -0.65468E-02  7424   0.652E-01    0.119E-01
DAV:   3    -0.321309860997E+03   -0.11010E-03   -0.19017E-03  9728   0.144E-01    0.878E-02
DAV:   4    -0.321309854130E+03    0.68666E-05   -0.28257E-04  9648   0.775E-02    0.769E-02
DAV:   5    -0.321309836792E+03    0.17339E-04   -0.97020E-05  9504   0.407E-02    0.428E-02
DAV:   6    -0.321309839273E+03   -0.24813E-05   -0.35683E-05  7056   0.247E-02
  26 F= -.32130984E+03 E0= -.32130755E+03  d E =-.332179E-03  mag=    -0.0000
