       N       E                     dE             d eps       ncg     rms          rms(c)
DAV:   1     0.612110515417E+04    0.61211E+04   -0.19752E+05  4984   0.171E+03
DAV:   2     0.735953588502E+03   -0.53852E+04   -0.50485E+04  4672   0.527E+02
DAV:   3    -0.260192379421E+03   -0.99615E+03   -0.83366E+03  4828   0.228E+02
DAV:   4    -0.416331254054E+03   -0.15614E+03   -0.14746E+03  6712   0.848E+01
DAV:   5    -0.420474108380E+03   -0.41429E+01   -0.41170E+01  6704   0.175E+01    0.620E-01
RMM:   6    -0.421019741341E+03   -0.54563E+00   -0.98171E-01  5338   0.253E+00    0.593E-01
RMM:   7    -0.421029252319E+03   -0.95110E-02   -0.13224E-01  6358   0.705E-01    0.546E-01
RMM:   8    -0.421028559747E+03    0.69257E-03   -0.15852E-02  6479   0.203E-01    0.339E-01
RMM:   9    -0.421027973220E+03    0.58653E-03   -0.12883E-03  6081   0.756E-02    0.236E-01
RMM:  10    -0.421027890419E+03    0.82800E-04   -0.32475E-04  5482   0.401E-02    0.189E-01
RMM:  11    -0.421027880860E+03    0.95591E-05   -0.80130E-05  4501   0.227E-02
   1 F= -.42102788E+03 E0= -.42101386E+03  d E =-.421028E+03  mag=    62.0000
       N       E                     dE             d eps       ncg     rms          rms(c)
DAV:   1    -0.421119020399E+03   -0.91130E-01   -0.17385E+00  6240   0.622E+00    0.236E+00
RMM:   2    -0.421039552188E+03    0.79468E-01   -0.30899E-01  4919   0.194E+00    0.134E+00
RMM:   3    -0.421030960240E+03    0.85919E-02   -0.13297E-01  5789   0.833E-01    0.704E-01
RMM:   4    -0.421025493339E+03    0.54669E-02   -0.13475E-02  5427   0.425E-01    0.903E-01
RMM:   5    -0.421023551426E+03    0.19419E-02   -0.22872E-03  5362   0.146E-01    0.412E-01
RMM:   6    -0.421023230385E+03    0.32104E-03   -0.87013E-04  5227   0.877E-02    0.141E-01
RMM:   7    -0.421023117738E+03    0.11265E-03   -0.80992E-04  5472   0.662E-02    0.218E-01
RMM:   8    -0.421022953800E+03    0.16394E-03   -0.20270E-04  4954   0.401E-02    0.702E-02
RMM:   9    -0.421022949681E+03    0.41185E-05   -0.51376E-05  3989   0.207E-02
   2 F= -.42102295E+03 E0= -.42100891E+03  d E =0.493118E-02  mag=    62.0000
       N       E                     dE             d eps       ncg     rms          rms(c)
DAV:   1    -0.421057062343E+03   -0.34109E-01   -0.57102E-01  6160   0.355E+00    0.133E+00
RMM:   2    -0.421032687488E+03    0.24375E-01   -0.99167E-02  4903   0.111E+00    0.762E-01
RMM:   3    -0.421029969307E+03    0.27182E-02   -0.40626E-02  5832   0.465E-01    0.503E-01
RMM:   4    -0.421030182956E+03   -0.21365E-03   -0.53126E-03  5560   0.246E-01    0.109E+00
RMM:   5    -0.421026968253E+03    0.32147E-02   -0.16451E-03  5011   0.131E-01    0.162E-01
RMM:   6    -0.421027428050E+03   -0.45980E-03   -0.40313E-04  5070   0.623E-02    0.157E-01
RMM:   7    -0.421027364873E+03    0.63177E-04   -0.15806E-04  4800   0.349E-02    0.112E-01
RMM:   8    -0.421027297262E+03    0.67612E-04   -0.17044E-04  4926   0.329E-02    0.457E-02
RMM:   9    -0.421027289005E+03    0.82564E-05   -0.17761E-05  2967   0.144E-02
   3 F= -.42102729E+03 E0= -.42101326E+03  d E =0.591855E-03  mag=    62.0000
       N       E                     dE             d eps       ncg     rms          rms(c)
DAV:   1    -0.421030476997E+03   -0.31797E-02   -0.50472E-02  6208   0.106E+00    0.398E-01
RMM:   2    -0.421028293762E+03    0.21832E-02   -0.88604E-03  4926   0.331E-01    0.232E-01
RMM:   3    -0.421028076540E+03    0.21722E-03   -0.37230E-03  5834   0.140E-01    0.186E-01
RMM:   4    -0.421028148601E+03   -0.72060E-04   -0.53869E-04  5269   0.762E-02    0.369E-01
RMM:   5    -0.421027772161E+03    0.37644E-03   -0.19188E-04  4368   0.464E-02    0.630E-02
RMM:   6    -0.421027827623E+03   -0.55462E-04   -0.36944E-05  3494   0.208E-02    0.619E-02
RMM:   7    -0.421027815930E+03    0.11694E-04   -0.16148E-05  3000   0.150E-02    0.260E-02
RMM:   8    -0.421027811576E+03    0.43537E-05   -0.18749E-05  2813   0.137E-02
   4 F= -.42102781E+03 E0= -.42101379E+03  d E =0.692842E-04  mag=    62.0000
