       N       E                     dE             d eps       ncg     rms          ort
DAV:   1     0.824827236542E+04    0.82483E+04   -0.24587E+05  8424   0.238E+03
DAV:   2     0.873794973908E+03   -0.73745E+04   -0.69040E+04  8424   0.657E+02
DAV:   3    -0.737084192587E+03   -0.16109E+04   -0.14224E+04  8424   0.284E+02
DAV:   4    -0.895886249069E+03   -0.15880E+03   -0.15603E+03  8424   0.862E+01
DAV:   5    -0.898557983511E+03   -0.26717E+01   -0.26578E+01  8424   0.125E+01
SDA:   6    -0.260692446552E+03    0.63787E+03   -0.26578E+01  8424   0.372E+04 0.000E+00
CGA:   7    -0.631858974731E+03   -0.37117E+03   -0.41616E+03  8424   0.356E+03 0.542E+02
CGA:   8    -0.664238488276E+03   -0.32380E+02   -0.32727E+02  8424   0.168E+03 0.699E+01
CGA:   9    -0.681520652636E+03   -0.17282E+02   -0.17456E+02  8424   0.552E+02 0.440E+01
CGA:  10    -0.687422696961E+03   -0.59020E+01   -0.40918E+01  8424   0.899E+02 0.350E+02
CGA:  11    -0.687445753514E+03   -0.23057E-01   -0.79750E+01  8424   0.839E+02-0.636E+00
CGA:  12    -0.689895871381E+03   -0.24501E+01   -0.49600E+01  8424   0.506E+02-0.219E+02
CGA:  13    -0.693600448235E+03   -0.37046E+01   -0.18904E+01  8424   0.158E+03-0.130E+03
CGA:  14    -0.688469530222E+03    0.51309E+01   -0.99289E+01  8424   0.207E+03-0.446E+02
CGA:  15    -0.693459035542E+03   -0.49895E+01   -0.10767E+02  8424   0.644E+02-0.394E+02
CGA:  16    -0.696518570792E+03   -0.30595E+01   -0.17828E+01  8424   0.661E+02 0.166E+02
CGA:  17    -0.691214608587E+03    0.53040E+01   -0.25607E+01  8424   0.215E+03-0.159E+03
CGA:  18    -0.689712908304E+03    0.15017E+01   -0.10414E+02  8424   0.362E+03-0.146E+03
CGA:  19    -0.692496283493E+03   -0.27834E+01   -0.20398E+02  8424   0.115E+03-0.120E+03
CGA:  20    -0.697363734241E+03   -0.48675E+01   -0.27671E+01  8424   0.450E+02 0.590E+02
CGA:  21    -0.698962614281E+03   -0.15989E+01   -0.95135E+00  8424   0.716E+01 0.143E+02
CGA:  22    -0.699132114147E+03   -0.16950E+00   -0.23337E+00  8424   0.496E+01-0.256E+01
CGA:  23    -0.699190502043E+03   -0.58388E-01   -0.10155E+00  8424   0.561E+01-0.110E+01
CGA:  24    -0.699397532326E+03   -0.20703E+00   -0.14482E+00  8424   0.535E+01 0.198E+01
CGA:  25    -0.699560888837E+03   -0.16336E+00   -0.12331E+00  8424   0.153E+01 0.203E+01
CGA:  26    -0.699645318129E+03   -0.84429E-01   -0.80604E-01  8424   0.264E+01 0.723E-01
CGA:  27    -0.699719400254E+03   -0.74082E-01   -0.81103E-01  8424   0.299E+01-0.139E+00
CGA:  28    -0.699774510905E+03   -0.55111E-01   -0.50482E-01  8424   0.213E+01 0.248E+00
CGA:  29    -0.699820889430E+03   -0.46379E-01   -0.55441E-01  8424   0.251E+01-0.423E+00
CGA:  30    -0.699850176315E+03   -0.29287E-01   -0.24398E-01  8424   0.202E+01 0.433E+00
CGA:  31    -0.699877560132E+03   -0.27384E-01   -0.19958E-01  8424   0.980E+00 0.867E+00
CGA:  32    -0.699895833833E+03   -0.18274E-01   -0.17824E-01  8424   0.634E+00 0.256E-01
CGA:  33    -0.699907824635E+03   -0.11991E-01   -0.15010E-01  8424   0.112E+01-0.106E+00
CGA:  34    -0.699921765151E+03   -0.13941E-01   -0.20285E-01  8424   0.124E+01-0.198E+00
CGA:  35    -0.699937762390E+03   -0.15997E-01   -0.17326E-01  8424   0.855E+00-0.122E-01
CGA:  36    -0.699955203854E+03   -0.17441E-01   -0.16808E-01  8424   0.613E+00 0.580E-01
CGA:  37    -0.699969166999E+03   -0.13963E-01   -0.14904E-01  8424   0.356E+00-0.143E-01
CGA:  38    -0.699976078306E+03   -0.69113E-02   -0.77496E-02  8424   0.200E+00-0.221E-01
CGA:  39    -0.699981964873E+03   -0.58866E-02   -0.62978E-02  8424   0.247E+00-0.422E-02
CGA:  40    -0.699993060911E+03   -0.11096E-01   -0.11529E-01  8424   0.279E+00 0.895E-02
CGA:  41    -0.700004727366E+03   -0.11666E-01   -0.12327E-01  8424   0.184E+00 0.850E-02
CGA:  42    -0.700015357913E+03   -0.10631E-01   -0.10680E-01  8424   0.141E+00 0.975E-02
CGA:  43    -0.700021535012E+03   -0.61771E-02   -0.63838E-02  8424   0.516E-01 0.667E-02
CGA:  44    -0.700024708225E+03   -0.31732E-02   -0.31788E-02  8424   0.532E-01 0.463E-02
CGA:  45    -0.700029151191E+03   -0.44430E-02   -0.43410E-02  8424   0.305E-01 0.617E-02
CGA:  46    -0.700031120749E+03   -0.19696E-02   -0.19712E-02  8424   0.220E-01 0.154E-03
CGA:  47    -0.700033587953E+03   -0.24672E-02   -0.27911E-02  8424   0.240E-01-0.484E-02
CGA:  48    -0.700034849138E+03   -0.12612E-02   -0.12708E-02  8424   0.197E-01-0.248E-02
CGA:  49    -0.700036254510E+03   -0.14054E-02   -0.14293E-02  8424   0.105E-01-0.140E-02
CGA:  50    -0.700036872248E+03   -0.61774E-03   -0.61699E-03  8424   0.791E-02-0.645E-03
SDA:  51    -0.700037772852E+03   -0.90060E-03   -0.11922E-02  8424   0.124E-01-0.296E-02
CGA:  52    -0.700038708586E+03   -0.93573E-03   -0.94844E-03  8424   0.406E-02-0.182E-02
CGA:  53    -0.700038848343E+03   -0.13976E-03   -0.68060E-03  8424   0.191E-01-0.425E-02
CGA:  54    -0.700039629924E+03   -0.78158E-03   -0.79506E-03  8424   0.131E-02 0.302E-03
CGA:  55    -0.700039748931E+03   -0.11901E-03   -0.11531E-03  8424   0.532E-03 0.301E-03
CGA:  56    -0.700039849723E+03   -0.10079E-03    0.89081E-03  8424   0.471E-03 0.488E-03
CGA:  57    -0.700039947809E+03   -0.98086E-04    0.45709E-04  8424   0.331E-03 0.262E-03
CGA:  58    -0.700040019306E+03   -0.71497E-04    0.28104E-04  8424   0.296E-03 0.229E-03
CGA:  59    -0.700040080490E+03   -0.61184E-04    0.29601E-04  8424   0.274E-03 0.194E-03
CGA:  60    -0.700040135786E+03   -0.55296E-04    0.29830E-04  8424   0.260E-03 0.159E-03
CGA:  61    -0.700040185942E+03   -0.50157E-04    0.34115E-04  8424   0.255E-03 0.125E-03
CGA:  62    -0.700040280298E+03   -0.94356E-04    0.21363E-04  8424   0.186E-03 0.334E-03
CGA:  63    -0.700040319442E+03   -0.39143E-04    0.17514E-04  8424   0.191E-03 0.966E-04
CGA:  64    -0.700040356250E+03   -0.36808E-04    0.24834E-04  8424   0.203E-03 0.678E-04
CGA:  65    -0.700040430606E+03   -0.74356E-04    0.12833E-04  8424   0.153E-03 0.251E-03
CGA:  66    -0.700040461330E+03   -0.30724E-04    0.16683E-04  8424   0.170E-03 0.511E-04
CGA:  67    -0.700040526148E+03   -0.64818E-04    0.93689E-05  8424   0.131E-03 0.210E-03
CGA:  68    -0.700040552961E+03   -0.26813E-04    0.13411E-04  8424   0.143E-03 0.401E-04
CGA:  69    -0.700040608842E+03   -0.55881E-04    0.70306E-05  8424   0.115E-03 0.176E-03
CGA:  70    -0.700040633008E+03   -0.24166E-04    0.10873E-04  8424   0.131E-03 0.289E-04
CGA:  71    -0.700040684927E+03   -0.51919E-04    0.55277E-05  8424   0.109E-03 0.156E-03
CGA:  72    -0.700040706423E+03   -0.21496E-04    0.12794E-04  8424   0.120E-03 0.191E-04
CGA:  73    -0.700040752232E+03   -0.45809E-04    0.45611E-05  8424   0.104E-03 0.135E-03
CGA:  74    -0.700040772690E+03   -0.20458E-04    0.12596E-04  8424   0.120E-03 0.668E-05
CGA:  75    -0.700040816897E+03   -0.44207E-04    0.36896E-05  8424   0.110E-03 0.123E-03
CGA:  76    -0.700040834814E+03   -0.17916E-04    0.47234E-04  8424   0.123E-03-0.870E-05
CGA:  77    -0.700040873886E+03   -0.39073E-04    0.32722E-05  8424   0.117E-03 0.109E-03
CGA:  78    -0.700040891827E+03   -0.17941E-04    0.22663E-03  8424   0.138E-03-0.297E-04
CGA:  79    -0.700040930571E+03   -0.38744E-04    0.25591E-05  8424   0.145E-03 0.991E-04
CGA:  80    -0.700040938752E+03   -0.81810E-05   -0.17962E-04  8424   0.645E-03-0.199E-03
CGA:  81    -0.700040969063E+03   -0.30311E-04   -0.27685E-04  8424   0.668E-04-0.767E-04
CGA:  82    -0.700040988228E+03   -0.19165E-04    0.19373E-05  8424   0.418E-04 0.467E-04
CGA:  83    -0.700041004149E+03   -0.15921E-04    0.10484E-05  8424   0.408E-04 0.412E-04
CGA:  84    -0.700041019872E+03   -0.15723E-04    0.10032E-05  8424   0.399E-04 0.403E-04
CGA:  85    -0.700041035366E+03   -0.15494E-04    0.96825E-06  8424   0.391E-04 0.394E-04
CGA:  86    -0.700041050620E+03   -0.15254E-04    0.93768E-06  8424   0.382E-04 0.386E-04
CGA:  87    -0.700041065647E+03   -0.15028E-04    0.90818E-06  8424   0.374E-04 0.378E-04
CGA:  88    -0.700041080453E+03   -0.14806E-04    0.88045E-06  8424   0.367E-04 0.370E-04
CGA:  89    -0.700041095048E+03   -0.14594E-04    0.85368E-06  8424   0.359E-04 0.362E-04
CGA:  90    -0.700041109437E+03   -0.14389E-04    0.82814E-06  8424   0.352E-04 0.355E-04
CGA:  91    -0.700041123630E+03   -0.14194E-04    0.80338E-06  8424   0.345E-04 0.348E-04
CGA:  92    -0.700041137626E+03   -0.13996E-04    0.78057E-06  8424   0.339E-04 0.341E-04
CGA:  93    -0.700041151443E+03   -0.13817E-04    0.75797E-06  8424   0.333E-04 0.334E-04
CGA:  94    -0.700041165040E+03   -0.13597E-04    0.74134E-06  8424   0.328E-04 0.327E-04
CGA:  95    -0.700041178499E+03   -0.13459E-04    0.72594E-06  8424   0.326E-04 0.317E-04
CGA:  96    -0.700041191628E+03   -0.13129E-04    0.74402E-06  8424   0.333E-04 0.303E-04
CGA:  97    -0.700041204680E+03   -0.13053E-04    0.79463E-06  8424   0.359E-04 0.276E-04
CGA:  98    -0.700041217202E+03   -0.12522E-04    0.10419E-05  8424   0.425E-04 0.220E-04
CGA:  99    -0.700041229551E+03   -0.12349E-04    0.17591E-05  8424   0.564E-04 0.112E-04
CGA: 100    -0.700041259189E+03   -0.29639E-04    0.15455E-05  8424   0.444E-04 0.691E-04
CGA: 101    -0.700041270653E+03   -0.11464E-04    0.23957E-05  8424   0.588E-04 0.523E-05
CGA: 102    -0.700041298597E+03   -0.27944E-04    0.13764E-05  8424   0.519E-04 0.638E-04
CGA: 103    -0.700041310069E+03   -0.11471E-04    0.42908E-05  8424   0.673E-04-0.583E-05
CGA: 104    -0.700041336771E+03   -0.26703E-04    0.11612E-05  8424   0.681E-04 0.572E-04
CGA: 105    -0.700041142529E+03    0.19424E-03   -0.10538E-03  8424   0.774E-02-0.553E-03
CGA: 106    -0.700041411685E+03   -0.26916E-03   -0.26577E-03  8424   0.396E-04-0.353E-04
CGA: 107    -0.700041433870E+03   -0.22184E-04    0.23469E-05  8424   0.333E-04 0.100E-04
CGA: 108    -0.700041465404E+03   -0.31535E-04    0.15047E-05  8424   0.375E-04 0.312E-04
CGA: 109    -0.700041480200E+03   -0.14796E-04    0.51398E-05  8424   0.531E-04 0.386E-05
CGA: 110    -0.700041515719E+03   -0.35519E-04    0.30468E-05  8424   0.760E-04 0.922E-05
CGA: 111    -0.700041591766E+03   -0.76048E-04    0.26899E-05  8424   0.519E-04 0.791E-04
CGA: 112    -0.700041609880E+03   -0.18114E-04    0.11098E-04  8424   0.543E-04-0.867E-06
CGA: 113    -0.700041635259E+03   -0.25379E-04    0.45171E-05  8424   0.953E-04-0.251E-04
CGA: 114    -0.700041692605E+03   -0.57346E-04    0.10612E-05  8424   0.125E-03 0.249E-04
CGA: 115    -0.700041786647E+03   -0.94041E-04    0.83976E-05  8424   0.272E-03 0.118E-04
CGA: 116    -0.700042000687E+03   -0.21404E-03    0.11651E-04  8424   0.150E-03 0.275E-04
CGA: 117    -0.700042123480E+03   -0.12279E-03    0.60737E-05  8424   0.391E-03-0.372E-04
CGA: 118    -0.700042437085E+03   -0.31361E-03    0.64965E-05  8424   0.397E-03-0.164E-03
CGA: 119    -0.700042659578E+03   -0.22249E-03    0.58652E-05  8424   0.201E-02-0.946E-03
CGA: 120    -0.700042744529E+03   -0.84951E-04   -0.87028E-04  8424   0.189E-03 0.216E-04
CGA: 121    -0.700042766918E+03   -0.22389E-04   -0.22859E-04  8424   0.232E-04 0.534E-04
CGA: 122    -0.700042767613E+03   -0.69490E-06   -0.17997E-05  8424   0.123E-04 0.163E-04
   1 F= -.70004277E+03 E0= -.70003235E+03  d E =-.700043E+03  mag=     1.9911
       N       E                     dE             d eps       ncg     rms          ort
SDA:   1    -0.700016545299E+03    0.26222E-01    0.00000E+00  8424   0.851E-01 0.000E+00
CGA:   2    -0.700031624470E+03   -0.15079E-01   -0.15176E-01  8424   0.522E-01-0.171E-02
CGA:   3    -0.700036112170E+03   -0.44877E-02   -0.44893E-02  8424   0.355E-01 0.199E-03
CGA:   4    -0.700040373333E+03   -0.42612E-02   -0.42633E-02  8424   0.753E-02 0.101E-02
CGA:   5    -0.700041592745E+03   -0.12194E-02   -0.12254E-02  8424   0.281E-02-0.165E-03
CGA:   6    -0.700041888002E+03   -0.29526E-03   -0.29476E-03  8424   0.125E-02-0.314E-04
CGA:   7    -0.700041993417E+03   -0.10541E-03   -0.10218E-03  8424   0.540E-03-0.810E-04
CGA:   8    -0.700042056210E+03   -0.62794E-04   -0.63196E-04  8424   0.188E-03-0.899E-04
CGA:   9    -0.700042063838E+03   -0.76275E-05   -0.11045E-04  8424   0.670E-04 0.681E-04
   2 F= -.70004206E+03 E0= -.70003162E+03  d E =0.703775E-03  mag=     1.9909
       N       E                     dE             d eps       ncg     rms          ort
SDA:   1    -0.700027037994E+03    0.15018E-01    0.00000E+00  8424   0.572E-01 0.000E+00
CGA:   2    -0.700034554912E+03   -0.75169E-02   -0.74974E-02  8424   0.494E-01 0.124E-02
CGA:   3    -0.700038512860E+03   -0.39579E-02   -0.39770E-02  8424   0.173E-01 0.424E-03
CGA:   4    -0.700041769973E+03   -0.32571E-02   -0.33348E-02  8424   0.634E-02-0.102E-02
CGA:   5    -0.700042352876E+03   -0.58290E-03   -0.58667E-03  8424   0.293E-02 0.197E-03
CGA:   6    -0.700042596996E+03   -0.24412E-03   -0.25075E-03  8424   0.936E-03 0.195E-03
CGA:   7    -0.700042698910E+03   -0.10191E-03   -0.10280E-03  8424   0.234E-03 0.718E-04
CGA:   8    -0.700042727891E+03   -0.28980E-04   -0.28953E-04  8424   0.839E-04 0.582E-04
CGA:   9    -0.700042738803E+03   -0.10912E-04   -0.10983E-04  8424   0.625E-04 0.723E-05
CGA:  10    -0.700042747663E+03   -0.88601E-05   -0.91535E-05  8424   0.340E-04-0.141E-04
   3 F= -.70004275E+03 E0= -.70003233E+03  d E =0.199495E-04  mag=     1.9909
       N       E                     dE             d eps       ncg     rms          ort
SDA:   1    -0.700042174837E+03    0.56397E-03    0.00000E+00  8424   0.184E-02 0.000E+00
CGA:   2    -0.700042488170E+03   -0.31333E-03   -0.34045E-03  8424   0.203E-02-0.375E-03
CGA:   3    -0.700042591675E+03   -0.10350E-03   -0.10355E-03  8424   0.756E-03 0.137E-05
CGA:   4    -0.700042656865E+03   -0.65190E-04   -0.69666E-04  8424   0.392E-03 0.208E-03
CGA:   5    -0.700042683806E+03   -0.26941E-04   -0.30997E-04  8424   0.132E-03 0.801E-04
CGA:   6    -0.700042701865E+03   -0.18059E-04   -0.18097E-04  8424   0.482E-04-0.926E-05
CGA:   7    -0.700042709116E+03   -0.72512E-05   -0.85401E-05  8424   0.359E-04-0.161E-04
   4 F= -.70004271E+03 E0= -.70003229E+03  d E =0.584966E-04  mag=     1.9909
       N       E                     dE             d eps       ncg     rms          ort
SDA:   1    -0.700042496355E+03    0.20551E-03    0.00000E+00  8424   0.440E-02 0.000E+00
CGA:   2    -0.700042668641E+03   -0.17229E-03   -0.17929E-03  8424   0.232E-03 0.111E-03
CGA:   3    -0.700042681768E+03   -0.13127E-04   -0.16862E-04  8424   0.917E-04 0.989E-04
CGA:   4    -0.700042691566E+03   -0.97975E-05   -0.11078E-04  8424   0.713E-04 0.582E-04
CGA:   5    -0.700042699871E+03   -0.83049E-05   -0.13394E-04  8424   0.289E-03-0.620E-04
CGA:   6    -0.700042708872E+03   -0.90008E-05   -0.11275E-04  8424   0.229E-04 0.323E-04
   5 F= -.70004271E+03 E0= -.70003229E+03  d E =0.587410E-04  mag=     1.9909
       N       E                     dE             d eps       ncg     rms          ort
SDA:   1    -0.700042584628E+03    0.11524E-03    0.00000E+00  8424   0.151E-02 0.000E+00
CGA:   2    -0.700042664562E+03   -0.79934E-04   -0.73214E-04  8424   0.159E-03-0.129E-03
CGA:   3    -0.700042613500E+03    0.51062E-04   -0.47630E-04  8424   0.221E-02-0.434E-03
CGA:   4    -0.700042696094E+03   -0.82595E-04   -0.93861E-04  8424   0.152E-03 0.171E-03
CGA:   5    -0.700042696383E+03   -0.28878E-06   -0.59164E-05  8424   0.416E-04 0.783E-04
   6 F= -.70004270E+03 E0= -.70003227E+03  d E =0.712294E-04  mag=     1.9909
