       N       E                     dE             d eps       ncg     rms          rms(c)
DAV:   1     0.580937573390E+04    0.58094E+04   -0.20832E+05 16808   0.162E+03
DAV:   2     0.353467202184E+03   -0.54559E+04   -0.49356E+04 16584   0.492E+02
DAV:   3    -0.472468031885E+03   -0.82594E+03   -0.77531E+03 17632   0.201E+02
DAV:   4    -0.515929501784E+03   -0.43461E+02   -0.42881E+02 18336   0.469E+01
DAV:   5    -0.516459059910E+03   -0.52956E+00   -0.52825E+00 18120   0.561E+00    0.121E+02
DAV:   6    -0.452610820585E+03    0.63848E+02   -0.51466E+02 20688   0.878E+01    0.102E+02
DAV:   7    -0.429821973658E+03    0.22789E+02   -0.27702E+02 18304   0.984E+01    0.577E+01
DAV:   8    -0.432327688547E+03   -0.25057E+01   -0.72954E+01 20240   0.330E+01    0.626E+01
DAV:   9    -0.423303218025E+03    0.90245E+01   -0.52964E+01 19680   0.303E+01    0.546E+01
DAV:  10    -0.416261547973E+03    0.70417E+01   -0.13315E+01 18984   0.171E+01    0.331E+01
DAV:  11    -0.416061047654E+03    0.20050E+00   -0.58648E+00 18312   0.134E+01    0.329E+01
DAV:  12    -0.416052506284E+03    0.85414E-02   -0.82701E+00 17952   0.975E+00    0.229E+01
DAV:  13    -0.416675863494E+03   -0.62336E+00   -0.31624E+00 17904   0.548E+00    0.223E+01
DAV:  14    -0.416266430359E+03    0.40943E+00   -0.16636E+00 18032   0.552E+00    0.140E+01
DAV:  15    -0.416740698381E+03   -0.47427E+00   -0.23235E-01 17552   0.263E+00    0.126E+01
DAV:  16    -0.417214290843E+03   -0.47359E+00   -0.59092E-01 18544   0.378E+00    0.156E+01
DAV:  17    -0.417223394329E+03   -0.91035E-02   -0.14631E+00 17856   0.414E+00    0.913E+00
DAV:  18    -0.417401182521E+03   -0.17779E+00   -0.26702E-01 18448   0.336E+00    0.616E+00
DAV:  19    -0.417557631680E+03   -0.15645E+00   -0.92677E-02 19656   0.193E+00    0.401E+00
DAV:  20    -0.417583781388E+03   -0.26150E-01   -0.66436E-02 18032   0.204E+00    0.321E+00
DAV:  21    -0.417571146297E+03    0.12635E-01   -0.36018E-02 18008   0.158E+00    0.211E+00
DAV:  22    -0.417591835313E+03   -0.20689E-01   -0.15686E-02 19800   0.906E-01    0.981E-01
DAV:  23    -0.417596244299E+03   -0.44090E-02   -0.10647E-02 18336   0.689E-01    0.847E-01
DAV:  24    -0.417594668148E+03    0.15762E-02   -0.65044E-03 18016   0.605E-01    0.543E-01
DAV:  25    -0.417595721069E+03   -0.10529E-02   -0.15443E-03 19616   0.256E-01    0.249E-01
DAV:  26    -0.417595865931E+03   -0.14486E-03   -0.85108E-04 18128   0.209E-01    0.234E-01
DAV:  27    -0.417595733788E+03    0.13214E-03   -0.51533E-04 18064   0.180E-01    0.118E-01
DAV:  28    -0.417595747860E+03   -0.14072E-04   -0.10309E-04 17800   0.628E-02    0.601E-02
DAV:  29    -0.417595757729E+03   -0.98692E-05   -0.51112E-05 16016   0.541E-02
   1 F= -.41759576E+03 E0= -.41758883E+03  d E =-.417596E+03  mag=    41.0021
       N       E                     dE             d eps       ncg     rms          rms(c)
DAV:   1    -0.417599431744E+03   -0.36839E-02   -0.29670E-02 21912   0.113E+00    0.112E-01
DAV:   2    -0.417600155821E+03   -0.72408E-03   -0.67292E-03 18192   0.204E-01    0.121E-01
DAV:   3    -0.417600181519E+03   -0.25698E-04   -0.50038E-04 17736   0.157E-01    0.105E-01
DAV:   4    -0.417600143343E+03    0.38176E-04   -0.75907E-05 15320   0.754E-02    0.317E-02
DAV:   5    -0.417600145092E+03   -0.17490E-05   -0.19398E-05 11560   0.238E-02
   2 F= -.41760015E+03 E0= -.41759325E+03  d E =-.438736E-02  mag=    41.0001
       N       E                     dE             d eps       ncg     rms          rms(c)
DAV:   1    -0.417537858433E+03    0.62285E-01   -0.42124E+00 21376   0.133E+01    0.131E+00
DAV:   2    -0.417637147152E+03   -0.99289E-01   -0.96413E-01 18224   0.228E+00    0.953E-01
DAV:   3    -0.417644608200E+03   -0.74610E-02   -0.49929E-02 17824   0.134E+00    0.115E+00
DAV:   4    -0.417639378376E+03    0.52298E-02   -0.11233E-02 18248   0.726E-01    0.364E-01
DAV:   5    -0.417639373216E+03    0.51597E-05   -0.19721E-03 18600   0.220E-01    0.313E-01
DAV:   6    -0.417639441726E+03   -0.68510E-04   -0.15411E-03 18656   0.300E-01    0.314E-01
DAV:   7    -0.417639167021E+03    0.27471E-03   -0.73042E-04 18768   0.210E-01    0.599E-02
DAV:   8    -0.417639199883E+03   -0.32863E-04   -0.18464E-04 17968   0.560E-02    0.434E-02
DAV:   9    -0.417639203578E+03   -0.36951E-05   -0.43389E-05 15424   0.550E-02
   3 F= -.41763920E+03 E0= -.41763245E+03  d E =-.390585E-01  mag=    41.0000
       N       E                     dE             d eps       ncg     rms          rms(c)
DAV:   1    -0.417548435008E+03    0.90765E-01   -0.63744E+00 20456   0.142E+01    0.134E+00
DAV:   2    -0.417656790992E+03   -0.10836E+00   -0.10522E+00 18184   0.249E+00    0.106E+00
DAV:   3    -0.417664660416E+03   -0.78694E-02   -0.59208E-02 17872   0.142E+00    0.124E+00
DAV:   4    -0.417658579798E+03    0.60806E-02   -0.12241E-02 18840   0.777E-01    0.392E-01
DAV:   5    -0.417658680231E+03   -0.10043E-03   -0.25518E-03 18880   0.275E-01    0.366E-01
DAV:   6    -0.417658616578E+03    0.63652E-04   -0.21253E-03 19064   0.361E-01    0.324E-01
DAV:   7    -0.417658356559E+03    0.26002E-03   -0.91052E-04 18504   0.221E-01    0.613E-02
DAV:   8    -0.417658389125E+03   -0.32567E-04   -0.21993E-04 17960   0.591E-02    0.466E-02
DAV:   9    -0.417658392711E+03   -0.35853E-05   -0.51377E-05 15800   0.572E-02
   4 F= -.41765839E+03 E0= -.41765186E+03  d E =-.191891E-01  mag=    41.0000
       N       E                     dE             d eps       ncg     rms          rms(c)
DAV:   1    -0.417655770953E+03    0.26182E-02   -0.12440E+00 18664   0.360E+00    0.323E-01
DAV:   2    -0.417662669344E+03   -0.68984E-02   -0.67276E-02 18432   0.686E-01    0.338E-01
DAV:   3    -0.417662771999E+03   -0.10265E-03   -0.37373E-03 18344   0.408E-01    0.295E-01
DAV:   4    -0.417662418451E+03    0.35355E-03   -0.65444E-04 18960   0.200E-01    0.111E-01
DAV:   5    -0.417662417764E+03    0.68711E-06   -0.26056E-04 19208   0.950E-02    0.116E-01
DAV:   6    -0.417662397326E+03    0.20438E-04   -0.26483E-04 19304   0.129E-01    0.840E-02
DAV:   7    -0.417662378687E+03    0.18640E-04   -0.74764E-05 17496   0.634E-02    0.184E-02
DAV:   8    -0.417662379992E+03   -0.13051E-05   -0.12859E-05 10488   0.218E-02
   5 F= -.41766238E+03 E0= -.41765599E+03  d E =-.398728E-02  mag=    41.0000
       N       E                     dE             d eps       ncg     rms          rms(c)
DAV:   1    -0.417641534962E+03    0.20844E-01   -0.51444E+00 18440   0.700E+00    0.571E-01
DAV:   2    -0.417667300222E+03   -0.25765E-01   -0.25426E-01 18280   0.132E+00    0.545E-01
DAV:   3    -0.417667886206E+03   -0.58598E-03   -0.12978E-02 18312   0.706E-01    0.510E-01
DAV:   4    -0.417666646438E+03    0.12398E-02   -0.23556E-03 19304   0.386E-01    0.170E-01
DAV:   5    -0.417666531678E+03    0.11476E-03   -0.80661E-04 19904   0.132E-01    0.159E-01
DAV:   6    -0.417666561191E+03   -0.29513E-04   -0.59367E-04 19192   0.197E-01    0.171E-01
DAV:   7    -0.417666459049E+03    0.10214E-03   -0.21918E-04 18424   0.117E-01    0.259E-02
DAV:   8    -0.417666466563E+03   -0.75142E-05   -0.43577E-05 16464   0.269E-02
   6 F= -.41766647E+03 E0= -.41766026E+03  d E =-.408657E-02  mag=    41.0000
       N       E                     dE             d eps       ncg     rms          rms(c)
DAV:   1    -0.417658053813E+03    0.84052E-02   -0.82671E-01 20608   0.431E+00    0.383E-01
DAV:   2    -0.417667957103E+03   -0.99033E-02   -0.92933E-02 18184   0.776E-01    0.405E-01
DAV:   3    -0.417668300241E+03   -0.34314E-03   -0.57777E-03 17560   0.500E-01    0.348E-01
DAV:   4    -0.417667839254E+03    0.46099E-03   -0.82268E-04 18768   0.252E-01    0.108E-01
DAV:   5    -0.417667849936E+03   -0.10682E-04   -0.26226E-04 19648   0.857E-02    0.112E-01
DAV:   6    -0.417667818375E+03    0.31561E-04   -0.21356E-04 18232   0.109E-01    0.751E-02
DAV:   7    -0.417667809061E+03    0.93139E-05   -0.77080E-05 18352   0.545E-02
   7 F= -.41766781E+03 E0= -.41766152E+03  d E =-.134250E-02  mag=    41.0000
