       N       E                     dE             d eps       ncg     rms          rms(c)
DAV:   1     0.582461847914E+04    0.58246E+04   -0.21051E+05 16240   0.165E+03
DAV:   2     0.410620419287E+03   -0.54140E+04   -0.49311E+04 15992   0.500E+02
DAV:   3    -0.427792915049E+03   -0.83841E+03   -0.78143E+03 16944   0.202E+02
DAV:   4    -0.475880809785E+03   -0.48088E+02   -0.47537E+02 17992   0.487E+01
DAV:   5    -0.476554947679E+03   -0.67414E+00   -0.67256E+00 17264   0.637E+00    0.111E+02
DAV:   6    -0.394740214850E+03    0.81815E+02   -0.56588E+02 19824   0.939E+01    0.980E+01
DAV:   7    -0.385855333287E+03    0.88849E+01   -0.22519E+02 17848   0.767E+01    0.517E+01
DAV:   8    -0.378698224360E+03    0.71571E+01   -0.35346E+01 18632   0.248E+01    0.265E+01
DAV:   9    -0.379214790138E+03   -0.51657E+00   -0.78437E+00 17904   0.134E+01    0.197E+01
DAV:  10    -0.379436279973E+03   -0.22149E+00   -0.30425E+00 17256   0.516E+00    0.861E+00
DAV:  11    -0.379158044241E+03    0.27824E+00   -0.12827E+00 18704   0.543E+00    0.300E+00
DAV:  12    -0.379226242689E+03   -0.68198E-01   -0.19966E-01 17288   0.182E+00    0.211E+00
DAV:  13    -0.379235075197E+03   -0.88325E-02   -0.43257E-02 16864   0.816E-01    0.980E-01
DAV:  14    -0.379237681237E+03   -0.26060E-02   -0.87860E-03 18432   0.389E-01    0.555E-01
DAV:  15    -0.379238477503E+03   -0.79627E-03   -0.43795E-03 16912   0.194E-01    0.287E-01
DAV:  16    -0.379238309177E+03    0.16833E-03   -0.12170E-03 17448   0.114E-01    0.147E-01
DAV:  17    -0.379238363704E+03   -0.54527E-04   -0.38176E-04 17736   0.679E-02    0.649E-02
DAV:  18    -0.379238403729E+03   -0.40025E-04   -0.71688E-05 16616   0.352E-02    0.264E-02
DAV:  19    -0.379238416188E+03   -0.12458E-04   -0.25921E-05 17056   0.185E-02    0.179E-02
DAV:  20    -0.379238422029E+03   -0.58418E-05   -0.91091E-06 15088   0.972E-03    0.112E-02
DAV:  21    -0.379238424433E+03   -0.24032E-05   -0.25384E-06 13632   0.487E-03    0.580E-03
DAV:  22    -0.379238425051E+03   -0.61828E-06   -0.98753E-07  9936   0.391E-03
   1 F= -.37923843E+03 E0= -.37923843E+03  d E =-.379238E+03  mag=    55.0001
       N       E                     dE             d eps       ncg     rms          rms(c)
DAV:   1    -0.379234857852E+03    0.35666E-02   -0.10926E-01 22480   0.241E+00    0.261E-01
DAV:   2    -0.379238019039E+03   -0.31612E-02   -0.29964E-02 16992   0.407E-01    0.138E-01
DAV:   3    -0.379238197249E+03   -0.17821E-03   -0.96139E-04 16148   0.983E-02    0.704E-02
DAV:   4    -0.379238191215E+03    0.60335E-05   -0.67960E-05 18504   0.234E-02    0.471E-02
DAV:   5    -0.379238179729E+03    0.11486E-04   -0.10736E-05 19048   0.194E-02    0.288E-02
DAV:   6    -0.379238177637E+03    0.20920E-05   -0.11616E-05 19328   0.168E-02    0.110E-02
DAV:   7    -0.379238178078E+03   -0.44113E-06   -0.45103E-06 16184   0.669E-03
   2 F= -.37923818E+03 E0= -.37923818E+03  d E =0.246973E-03  mag=    55.0000
       N       E                     dE             d eps       ncg     rms          rms(c)
DAV:   1    -0.379236297373E+03    0.18803E-02   -0.70358E-02 22436   0.194E+00    0.210E-01
DAV:   2    -0.379238340364E+03   -0.20430E-02   -0.19357E-02 17008   0.327E-01    0.110E-01
DAV:   3    -0.379238454485E+03   -0.11412E-03   -0.62141E-04 16124   0.791E-02    0.567E-02
DAV:   4    -0.379238450504E+03    0.39810E-05   -0.43987E-05 18504   0.189E-02    0.377E-02
DAV:   5    -0.379238442939E+03    0.75655E-05   -0.68459E-06 17672   0.155E-02    0.232E-02
DAV:   6    -0.379238441519E+03    0.14200E-05   -0.75255E-06 18608   0.136E-02    0.881E-03
DAV:   7    -0.379238441799E+03   -0.27999E-06   -0.28468E-06 13624   0.539E-03
   3 F= -.37923844E+03 E0= -.37923844E+03  d E =-.263721E-03  mag=    55.0000
       N       E                     dE             d eps       ncg     rms          rms(c)
DAV:   1    -0.379236759631E+03    0.16819E-02   -0.93623E-02 20716   0.176E+00    0.183E-01
DAV:   2    -0.379238396340E+03   -0.16367E-02   -0.15387E-02 17064   0.308E-01    0.985E-02
DAV:   3    -0.379238463742E+03   -0.67402E-04   -0.43230E-04 16236   0.669E-02    0.514E-02
DAV:   4    -0.379238459886E+03    0.38560E-05   -0.32525E-05 18352   0.186E-02    0.345E-02
DAV:   5    -0.379238453032E+03    0.68539E-05   -0.70888E-06 16776   0.157E-02    0.201E-02
DAV:   6    -0.379238452425E+03    0.60735E-06   -0.71191E-06 17904   0.117E-02
   4 F= -.37923845E+03 E0= -.37923845E+03  d E =-.106259E-04  mag=    55.0000
       N       E                     dE             d eps       ncg     rms          rms(c)
DAV:   1    -0.379237705750E+03    0.74728E-03   -0.42274E-02 20708   0.118E+00    0.123E-01
DAV:   2    -0.379238443414E+03   -0.73766E-03   -0.69253E-03 17056   0.207E-01    0.657E-02
DAV:   3    -0.379238473494E+03   -0.30080E-04   -0.19508E-04 16216   0.448E-02    0.339E-02
DAV:   4    -0.379238471649E+03    0.18453E-05   -0.14643E-05 18088   0.125E-02    0.228E-02
DAV:   5    -0.379238468498E+03    0.31503E-05   -0.30683E-06 13864   0.105E-02    0.134E-02
DAV:   6    -0.379238468192E+03    0.30622E-06   -0.32550E-06 14152   0.786E-03
   5 F= -.37923847E+03 E0= -.37923847E+03  d E =-.157676E-04  mag=    55.0000
       N       E                     dE             d eps       ncg     rms          rms(c)
DAV:   1    -0.379236701612E+03    0.17669E-02   -0.97732E-02 20824   0.174E+00    0.188E-01
DAV:   2    -0.379238418135E+03   -0.17165E-02   -0.16089E-02 16788   0.305E-01    0.945E-02
DAV:   3    -0.379238493548E+03   -0.75413E-04   -0.46798E-04 16484   0.646E-02    0.466E-02
DAV:   4    -0.379238489393E+03    0.41547E-05   -0.34470E-05 18296   0.184E-02    0.334E-02
DAV:   5    -0.379238483187E+03    0.62064E-05   -0.69739E-06 17076   0.152E-02    0.196E-02
DAV:   6    -0.379238482464E+03    0.72284E-06   -0.64478E-06 18168   0.118E-02
   6 F= -.37923848E+03 E0= -.37923848E+03  d E =-.142717E-04  mag=    55.0000
       N       E                     dE             d eps       ncg     rms          rms(c)
DAV:   1    -0.379237636027E+03    0.84716E-03   -0.47133E-02 20816   0.121E+00    0.130E-01
DAV:   2    -0.379238461744E+03   -0.82572E-03   -0.77397E-03 16828   0.211E-01    0.656E-02
DAV:   3    -0.379238497342E+03   -0.35598E-04   -0.22216E-04 16452   0.447E-02    0.322E-02
DAV:   4    -0.379238495235E+03    0.21073E-05   -0.16363E-05 17984   0.128E-02    0.229E-02
DAV:   5    -0.379238492144E+03    0.30910E-05   -0.32580E-06 14692   0.106E-02    0.136E-02
DAV:   6    -0.379238491757E+03    0.38715E-06   -0.32272E-06 14392   0.817E-03
   7 F= -.37923849E+03 E0= -.37923849E+03  d E =-.929307E-05  mag=    55.0000
       N       E                     dE             d eps       ncg     rms          rms(c)
DAV:   1    -0.379236488869E+03    0.20033E-02   -0.10532E-01 21640   0.189E+00    0.195E-01
DAV:   2    -0.379238376596E+03   -0.18877E-02   -0.17645E-02 16472   0.324E-01    0.103E-01
DAV:   3    -0.379238464003E+03   -0.87406E-04   -0.56343E-04 16204   0.699E-02    0.492E-02
DAV:   4    -0.379238459362E+03    0.46411E-05   -0.38445E-05 18832   0.181E-02    0.330E-02
DAV:   5    -0.379238452722E+03    0.66394E-05   -0.71230E-06 17056   0.168E-02    0.193E-02
DAV:   6    -0.379238452220E+03    0.50240E-06   -0.72097E-06 18752   0.123E-02
   8 F= -.37923845E+03 E0= -.37923845E+03  d E =0.395372E-04  mag=    55.0000
       N       E                     dE             d eps       ncg     rms          rms(c)
DAV:   1    -0.379237291314E+03    0.11614E-02   -0.65170E-02 21620   0.149E+00    0.153E-01
DAV:   2    -0.379238456743E+03   -0.11654E-02   -0.10901E-02 16448   0.254E-01    0.806E-02
DAV:   3    -0.379238510080E+03   -0.53337E-04   -0.34890E-04 16244   0.549E-02    0.382E-02
DAV:   4    -0.379238507042E+03    0.30384E-05   -0.23790E-05 18848   0.142E-02    0.257E-02
DAV:   5    -0.379238502839E+03    0.42031E-05   -0.43904E-06 16128   0.133E-02    0.150E-02
DAV:   6    -0.379238502464E+03    0.37472E-06   -0.44234E-06 17440   0.953E-03
   9 F= -.37923850E+03 E0= -.37923850E+03  d E =-.502443E-04  mag=    55.0000
       N       E                     dE             d eps       ncg     rms          rms(c)
DAV:   1    -0.379237029083E+03    0.14738E-02   -0.96761E-02 20312   0.162E+00    0.169E-01
DAV:   2    -0.379238498579E+03   -0.14695E-02   -0.13781E-02 16820   0.290E-01    0.864E-02
DAV:   3    -0.379238550532E+03   -0.51953E-04   -0.36660E-04 16312   0.578E-02    0.425E-02
DAV:   4    -0.379238545967E+03    0.45658E-05   -0.26702E-05 18880   0.149E-02    0.300E-02
DAV:   5    -0.379238539636E+03    0.63305E-05   -0.58675E-06 16824   0.152E-02    0.169E-02
DAV:   6    -0.379238539334E+03    0.30178E-06   -0.64130E-06 17960   0.105E-02
  10 F= -.37923854E+03 E0= -.37923854E+03  d E =-.368703E-04  mag=    55.0000
       N       E                     dE             d eps       ncg     rms          rms(c)
DAV:   1    -0.379237944383E+03    0.59525E-03   -0.37461E-02 20312   0.101E+00    0.105E-01
DAV:   2    -0.379238512157E+03   -0.56777E-03   -0.53276E-03 16808   0.180E-01    0.534E-02
DAV:   3    -0.379238532015E+03   -0.19858E-04   -0.14201E-04 16312   0.358E-02    0.259E-02
DAV:   4    -0.379238530131E+03    0.18840E-05   -0.10165E-05 17240   0.908E-03    0.184E-02
DAV:   5    -0.379238527603E+03    0.25275E-05   -0.20553E-06 10816   0.952E-03    0.106E-02
DAV:   6    -0.379238527467E+03    0.13630E-06   -0.31614E-06 15076   0.670E-03
  11 F= -.37923853E+03 E0= -.37923853E+03  d E =0.118675E-04  mag=    55.0000
       N       E                     dE             d eps       ncg     rms          rms(c)
DAV:   1    -0.379237185656E+03    0.13419E-02   -0.83555E-02 21920   0.161E+00    0.156E-01
DAV:   2    -0.379238500997E+03   -0.13153E-02   -0.12460E-02 16536   0.274E-01    0.887E-02
DAV:   3    -0.379238568274E+03   -0.67277E-04   -0.39237E-04 16092   0.615E-02    0.439E-02
DAV:   4    -0.379238564637E+03    0.36374E-05   -0.28303E-05 18616   0.183E-02    0.276E-02
DAV:   5    -0.379238559817E+03    0.48196E-05   -0.71115E-06 17004   0.142E-02    0.161E-02
DAV:   6    -0.379238559566E+03    0.25156E-06   -0.51428E-06 17568   0.990E-03
  12 F= -.37923856E+03 E0= -.37923856E+03  d E =-.320990E-04  mag=    55.0000
