       N       E                     dE             d eps       ncg     rms          ort
DAV:   1     0.284187277210E+04    0.28419E+04   -0.29370E+05  2880   0.141E+03
DAV:   2    -0.970989044377E+03   -0.38129E+04   -0.36772E+04  2880   0.312E+02
DAV:   3    -0.123041182209E+04   -0.25942E+03   -0.25780E+03  2880   0.851E+01
DAV:   4    -0.123343278091E+04   -0.30210E+01   -0.30107E+01  2880   0.978E+00
DAV:   5    -0.123348190944E+04   -0.49129E-01   -0.49022E-01  2880   0.115E+00
SDA:   6    -0.872189431712E+03    0.36129E+03   -0.49022E-01  2880   0.620E+03 0.000E+00
CGA:   7    -0.985353342570E+03   -0.11316E+03   -0.11297E+03  2880   0.442E+02-0.266E+01
CGA:   8    -0.998552816737E+03   -0.13199E+02   -0.13172E+02  2880   0.105E+02 0.227E+00
CGA:   9    -0.100240353992E+04   -0.38507E+01   -0.38521E+01  2880   0.402E+01-0.135E-01
CGA:  10    -0.100367807476E+04   -0.12745E+01   -0.12784E+01  2880   0.870E+00-0.329E-01
CGA:  11    -0.100401275799E+04   -0.33468E+00   -0.33480E+00  2880   0.189E+00-0.515E-03
CGA:  12    -0.100407826177E+04   -0.65504E-01   -0.65495E-01  2880   0.433E-01 0.359E-04
CGA:  13    -0.100409464130E+04   -0.16380E-01   -0.16504E-01  2880   0.994E-02-0.853E-03
CGA:  14    -0.100409835149E+04   -0.37102E-02   -0.36324E-02  2880   0.217E-02 0.578E-03
CGA:  15    -0.100409930524E+04   -0.95375E-03   -0.92340E-03  2880   0.538E-03 0.194E-03
CGA:  16    -0.100409958108E+04   -0.27585E-03   -0.38361E-03  2880   0.426E-03-0.270E-03
CGA:  17    -0.100409968352E+04   -0.10243E-03   -0.10460E-03  2880   0.436E-04 0.766E-04
CGA:  18    -0.100409969934E+04   -0.15827E-04   -0.15370E-04  2880   0.157E-04 0.174E-04
CGA:  19    -0.100409970985E+04   -0.10508E-04   -0.10970E-04  2880   0.817E-05-0.209E-05
CGA:  20    -0.100409971236E+04   -0.25132E-05   -0.24302E-05  2880   0.387E-05 0.140E-05
   1 F= -.10040997E+04 E0= -.10040997E+04  d E =-.100410E+04  mag=     0.0000
       N       E                     dE             d eps       ncg     rms          ort
SDA:   1    -0.100410792913E+04   -0.82193E-02    0.00000E+00  2880   0.138E-02 0.000E+00
CGA:   2    -0.100410844268E+04   -0.51355E-03   -0.51227E-03  2880   0.278E-03 0.148E-04
CGA:   3    -0.100410851320E+04   -0.70515E-04   -0.70594E-04  2880   0.445E-04 0.214E-05
CGA:   4    -0.100410852646E+04   -0.13261E-04   -0.13326E-04  2880   0.939E-05-0.594E-05
CGA:   5    -0.100410852886E+04   -0.24008E-05   -0.23996E-05  2880   0.177E-05 0.161E-06
   2 F= -.10041085E+04 E0= -.10041085E+04  d E =-.881649E-02  mag=     0.0000
       N       E                     dE             d eps       ncg     rms          ort
SDA:   1    -0.100386129010E+04    0.24724E+00    0.00000E+00  2880   0.104E+01 0.000E+00
CGA:   2    -0.100424764774E+04   -0.38636E+00   -0.38618E+00  2880   0.211E+00 0.136E-02
CGA:   3    -0.100430051394E+04   -0.52866E-01   -0.52862E-01  2880   0.349E-01-0.249E-04
CGA:   4    -0.100430970765E+04   -0.91937E-02   -0.91905E-02  2880   0.552E-02-0.128E-03
CGA:   5    -0.100431158099E+04   -0.18733E-02   -0.18743E-02  2880   0.143E-02-0.188E-04
CGA:   6    -0.100431214494E+04   -0.56396E-03   -0.55913E-03  2880   0.449E-03 0.463E-04
CGA:   7    -0.100431233288E+04   -0.18793E-03   -0.18966E-03  2880   0.124E-03-0.149E-04
CGA:   8    -0.100431237618E+04   -0.43301E-04   -0.43577E-04  2880   0.202E-04-0.437E-05
CGA:   9    -0.100431238382E+04   -0.76446E-05   -0.78948E-05  2880   0.430E-05-0.246E-05
   3 F= -.10043124E+04 E0= -.10043124E+04  d E =-.203855E+00  mag=    -0.0000
       N       E                     dE             d eps       ncg     rms          ort
SDA:   1    -0.100323651050E+04    0.10759E+01    0.00000E+00  2880   0.304E+01 0.000E+00
CGA:   2    -0.100436507951E+04   -0.11286E+01   -0.11280E+01  2880   0.620E+00 0.402E-02
CGA:   3    -0.100451461681E+04   -0.14954E+00   -0.14957E+00  2880   0.105E+00 0.755E-04
CGA:   4    -0.100454243719E+04   -0.27820E-01   -0.27815E-01  2880   0.160E-01-0.756E-04
CGA:   5    -0.100454790485E+04   -0.54677E-02   -0.54685E-02  2880   0.416E-02-0.271E-04
CGA:   6    -0.100454956423E+04   -0.16594E-02   -0.16537E-02  2880   0.136E-02 0.607E-04
CGA:   7    -0.100455010694E+04   -0.54271E-03   -0.54320E-03  2880   0.345E-03-0.585E-05
CGA:   8    -0.100455023335E+04   -0.12641E-03   -0.12714E-03  2880   0.606E-04-0.134E-04
CGA:   9    -0.100455025549E+04   -0.22144E-04   -0.22427E-04  2880   0.110E-04-0.423E-05
CGA:  10    -0.100455025905E+04   -0.35538E-05   -0.35337E-05  2880   0.198E-05 0.828E-06
   4 F= -.10045503E+04 E0= -.10045503E+04  d E =-.237875E+00  mag=     0.0000
       N       E                     dE             d eps       ncg     rms          ort
SDA:   1    -0.100385735470E+04    0.69290E+00    0.00000E+00  2880   0.188E+01 0.000E+00
CGA:   2    -0.100453973036E+04   -0.68238E+00   -0.68242E+00  2880   0.402E+00-0.168E-02
CGA:   3    -0.100463591926E+04   -0.96189E-01   -0.96266E-01  2880   0.630E-01-0.172E-03
CGA:   4    -0.100465263972E+04   -0.16720E-01   -0.16729E-01  2880   0.859E-02 0.149E-03
CGA:   5    -0.100465541440E+04   -0.27747E-02   -0.27748E-02  2880   0.186E-02 0.125E-04
CGA:   6    -0.100465614119E+04   -0.72679E-03   -0.72951E-03  2880   0.647E-03-0.453E-04
CGA:   7    -0.100465636885E+04   -0.22766E-03   -0.22649E-03  2880   0.158E-03 0.472E-04
CGA:   8    -0.100465643707E+04   -0.68220E-04   -0.68635E-04  2880   0.349E-04-0.594E-05
CGA:   9    -0.100465645029E+04   -0.13217E-04   -0.13524E-04  2880   0.748E-05-0.479E-05
CGA:  10    -0.100465645221E+04   -0.19192E-05   -0.19499E-05  2880   0.122E-05 0.768E-06
   5 F= -.10046565E+04 E0= -.10046565E+04  d E =-.106193E+00  mag=     0.0000
       N       E                     dE             d eps       ncg     rms          ort
SDA:   1    -0.100373513050E+04    0.92132E+00    0.00000E+00  2880   0.229E+01 0.000E+00
CGA:   2    -0.100456456254E+04   -0.82943E+00   -0.82952E+00  2880   0.483E+00-0.226E-02
CGA:   3    -0.100468617007E+04   -0.12161E+00   -0.12165E+00  2880   0.713E-01-0.311E-03
CGA:   4    -0.100470476354E+04   -0.18593E-01   -0.18604E-01  2880   0.103E-01 0.137E-03
CGA:   5    -0.100470801560E+04   -0.32521E-02   -0.32529E-02  2880   0.213E-02 0.518E-04
CGA:   6    -0.100470886445E+04   -0.84886E-03   -0.85323E-03  2880   0.728E-03-0.656E-04
CGA:   7    -0.100470912233E+04   -0.25788E-03   -0.25660E-03  2880   0.183E-03 0.457E-04
CGA:   8    -0.100470919816E+04   -0.75827E-04   -0.75821E-04  2880   0.356E-04 0.158E-06
CGA:   9    -0.100470921344E+04   -0.15276E-04   -0.16181E-04  2880   0.101E-04-0.791E-05
CGA:  10    -0.100470921545E+04   -0.20129E-05   -0.21219E-05  2880   0.193E-05 0.147E-05
   6 F= -.10047092E+04 E0= -.10047092E+04  d E =-.527632E-01  mag=     0.0000
       N       E                     dE             d eps       ncg     rms          ort
SDA:   1    -0.100306380871E+04    0.16454E+01    0.00000E+00  2880   0.390E+01 0.000E+00
CGA:   2    -0.100442717736E+04   -0.13634E+01   -0.13634E+01  2880   0.832E+00-0.321E-02
CGA:   3    -0.100464153542E+04   -0.21436E+00   -0.21439E+00  2880   0.130E+00-0.487E-03
CGA:   4    -0.100467738555E+04   -0.35850E-01   -0.35853E-01  2880   0.190E-01 0.747E-04
CGA:   5    -0.100468356297E+04   -0.61774E-02   -0.61777E-02  2880   0.429E-02 0.921E-04
CGA:   6    -0.100468532006E+04   -0.17571E-02   -0.17623E-02  2880   0.144E-02-0.645E-04
CGA:   7    -0.100468586271E+04   -0.54265E-03   -0.54166E-03  2880   0.397E-03 0.206E-04
CGA:   8    -0.100468601429E+04   -0.15158E-03   -0.15210E-03  2880   0.768E-04-0.123E-04
CGA:   9    -0.100468603973E+04   -0.25444E-04   -0.25432E-04  2880   0.127E-04 0.258E-05
CGA:  10    -0.100468604572E+04   -0.59861E-05   -0.70513E-05  2880   0.634E-05-0.533E-05
   7 F= -.10046860E+04 E0= -.10046860E+04  d E =0.231697E-01  mag=     0.0000
       N       E                     dE             d eps       ncg     rms          ort
SDA:   1    -0.100441806019E+04    0.26798E+00    0.00000E+00  2880   0.738E+00 0.000E+00
CGA:   2    -0.100467687295E+04   -0.25881E+00   -0.25881E+00  2880   0.178E+00 0.431E-03
CGA:   3    -0.100472197956E+04   -0.45107E-01   -0.45113E-01  2880   0.280E-01 0.163E-03
CGA:   4    -0.100473043152E+04   -0.84520E-02   -0.84503E-02  2880   0.452E-02-0.508E-04
CGA:   5    -0.100473196307E+04   -0.15316E-02   -0.15316E-02  2880   0.122E-02-0.304E-04
CGA:   6    -0.100473241507E+04   -0.45200E-03   -0.45098E-03  2880   0.352E-03 0.297E-04
CGA:   7    -0.100473255889E+04   -0.14382E-03   -0.14437E-03  2880   0.100E-03-0.890E-05
CGA:   8    -0.100473259289E+04   -0.34000E-04   -0.33987E-04  2880   0.178E-04 0.209E-05
CGA:   9    -0.100473260038E+04   -0.74934E-05   -0.77846E-05  2880   0.554E-05-0.344E-05
   8 F= -.10047326E+04 E0= -.10047326E+04  d E =-.465547E-01  mag=    -0.0000
       N       E                     dE             d eps       ncg     rms          ort
SDA:   1    -0.100470663007E+04    0.25963E-01    0.00000E+00  2880   0.689E-01 0.000E+00
CGA:   2    -0.100473143879E+04   -0.24809E-01   -0.24809E-01  2880   0.149E-01-0.346E-04
CGA:   3    -0.100473503030E+04   -0.35915E-02   -0.35941E-02  2880   0.233E-02 0.295E-04
CGA:   4    -0.100473566487E+04   -0.63456E-03   -0.63335E-03  2880   0.314E-03-0.184E-04
CGA:   5    -0.100473576422E+04   -0.99355E-04   -0.99315E-04  2880   0.652E-04-0.265E-05
CGA:   6    -0.100473578628E+04   -0.22061E-04   -0.22011E-04  2880   0.178E-04 0.636E-05
CGA:   7    -0.100473579567E+04   -0.93885E-05   -0.10779E-04  2880   0.127E-04-0.633E-05
   9 F= -.10047358E+04 E0= -.10047358E+04  d E =-.319529E-02  mag=    -0.0000
       N       E                     dE             d eps       ncg     rms          ort
SDA:   1    -0.100450093733E+04    0.23485E+00    0.00000E+00  2880   0.560E+00 0.000E+00
CGA:   2    -0.100470885682E+04   -0.20792E+00   -0.20793E+00  2880   0.112E+00-0.158E-03
CGA:   3    -0.100473602563E+04   -0.27169E-01   -0.27166E-01  2880   0.170E-01-0.376E-04
CGA:   4    -0.100474038558E+04   -0.43599E-02   -0.43611E-02  2880   0.227E-02 0.127E-04
CGA:   5    -0.100474108003E+04   -0.69445E-03   -0.69456E-03  2880   0.398E-03 0.470E-05
CGA:   6    -0.100474123375E+04   -0.15372E-03   -0.15370E-03  2880   0.127E-03 0.276E-06
CGA:   7    -0.100474128631E+04   -0.52560E-04   -0.52859E-04  2880   0.416E-04-0.365E-05
CGA:   8    -0.100474130176E+04   -0.15456E-04   -0.15492E-04  2880   0.760E-05-0.765E-06
CGA:   9    -0.100474130441E+04   -0.26453E-05   -0.26435E-05  2880   0.123E-05 0.123E-06
  10 F= -.10047413E+04 E0= -.10047413E+04  d E =-.550874E-02  mag=     0.0000
       N       E                     dE             d eps       ncg     rms          ort
SDA:   1    -0.100409215380E+04    0.64915E+00    0.00000E+00  2880   0.152E+01 0.000E+00
CGA:   2    -0.100465179053E+04   -0.55964E+00   -0.55964E+00  2880   0.306E+00-0.992E-04
CGA:   3    -0.100472752992E+04   -0.75739E-01   -0.75730E-01  2880   0.452E-01-0.948E-04
CGA:   4    -0.100473921360E+04   -0.11684E-01   -0.11685E-01  2880   0.648E-02 0.138E-04
CGA:   5    -0.100474121156E+04   -0.19980E-02   -0.19979E-02  2880   0.118E-02 0.511E-06
CGA:   6    -0.100474167168E+04   -0.46012E-03   -0.45986E-03  2880   0.384E-03 0.441E-05
CGA:   7    -0.100474182798E+04   -0.15630E-03   -0.15676E-03  2880   0.123E-03-0.610E-05
CGA:   8    -0.100474187454E+04   -0.46564E-04   -0.46800E-04  2880   0.233E-04-0.451E-05
CGA:   9    -0.100474188225E+04   -0.77018E-05   -0.76976E-05  2880   0.363E-05 0.775E-06
  11 F= -.10047419E+04 E0= -.10047419E+04  d E =-.577839E-03  mag=     0.0000
       N       E                     dE             d eps       ncg     rms          ort
SDA:   1    -0.100157017777E+04    0.31717E+01    0.00000E+00  2880   0.728E+01 0.000E+00
CGA:   2    -0.100430683339E+04   -0.27367E+01   -0.27368E+01  2880   0.144E+01-0.428E-02
CGA:   3    -0.100466261784E+04   -0.35578E+00   -0.35591E+00  2880   0.206E+00-0.134E-03
CGA:   4    -0.100471619814E+04   -0.53580E-01   -0.53583E-01  2880   0.313E-01 0.774E-04
CGA:   5    -0.100472589800E+04   -0.96999E-02   -0.96999E-02  2880   0.567E-02 0.816E-05
CGA:   6    -0.100472813091E+04   -0.22329E-02   -0.22337E-02  2880   0.189E-02-0.131E-04
CGA:   7    -0.100472888701E+04   -0.75611E-03   -0.75646E-03  2880   0.569E-03-0.522E-05
CGA:   8    -0.100472910322E+04   -0.21620E-03   -0.21679E-03  2880   0.110E-03-0.133E-04
CGA:   9    -0.100472914214E+04   -0.38923E-04   -0.38966E-04  2880   0.189E-04-0.200E-05
CGA:  10    -0.100472914943E+04   -0.72952E-05   -0.74631E-05  2880   0.458E-05-0.276E-05
  12 F= -.10047291E+04 E0= -.10047291E+04  d E =0.127328E-01  mag=    -0.0000
       N       E                     dE             d eps       ncg     rms          ort
SDA:   1    -0.100379808507E+04    0.93106E+00    0.00000E+00  2880   0.220E+01 0.000E+00
CGA:   2    -0.100461600523E+04   -0.81792E+00   -0.81791E+00  2880   0.455E+00 0.664E-04
CGA:   3    -0.100472689629E+04   -0.11089E+00   -0.11086E+00  2880   0.667E-01-0.616E-04
CGA:   4    -0.100474453682E+04   -0.17641E-01   -0.17643E-01  2880   0.986E-02 0.312E-04
CGA:   5    -0.100474763231E+04   -0.30955E-02   -0.30955E-02  2880   0.190E-02 0.390E-05
CGA:   6    -0.100474837305E+04   -0.74075E-03   -0.74132E-03  2880   0.626E-03-0.103E-04
CGA:   7    -0.100474861570E+04   -0.24265E-03   -0.24250E-03  2880   0.183E-03 0.288E-05
CGA:   8    -0.100474868538E+04   -0.69678E-04   -0.69663E-04  2880   0.337E-04 0.438E-06
CGA:   9    -0.100474869900E+04   -0.13623E-04   -0.13890E-04  2880   0.784E-05-0.390E-05
CGA:  10    -0.100474870119E+04   -0.21863E-05   -0.21970E-05  2880   0.116E-05 0.365E-06
  13 F= -.10047487E+04 E0= -.10047487E+04  d E =-.195518E-01  mag=     0.0000
       N       E                     dE             d eps       ncg     rms          ort
SDA:   1    -0.100423528811E+04    0.51341E+00    0.00000E+00  2880   0.117E+01 0.000E+00
CGA:   2    -0.100466813022E+04   -0.43284E+00   -0.43284E+00  2880   0.253E+00-0.122E-04
CGA:   3    -0.100473011024E+04   -0.61980E-01   -0.61976E-01  2880   0.382E-01-0.985E-06
CGA:   4    -0.100474060695E+04   -0.10497E-01   -0.10493E-01  2880   0.584E-02-0.456E-04
CGA:   5    -0.100474246878E+04   -0.18618E-02   -0.18620E-02  2880   0.128E-02 0.732E-05
CGA:   6    -0.100474295555E+04   -0.48677E-03   -0.48637E-03  2880   0.421E-03 0.982E-05
CGA:   7    -0.100474312481E+04   -0.16925E-03   -0.16972E-03  2880   0.121E-03-0.787E-05
CGA:   8    -0.100474317042E+04   -0.45611E-04   -0.45703E-04  2880   0.226E-04-0.229E-05
CGA:   9    -0.100474317821E+04   -0.77917E-05   -0.77887E-05  2880   0.387E-05 0.515E-06
  14 F= -.10047432E+04 E0= -.10047432E+04  d E =0.552298E-02  mag=     0.0000
       N       E                     dE             d eps       ncg     rms          ort
SDA:   1    -0.100445872276E+04    0.28445E+00    0.00000E+00  2880   0.680E+00 0.000E+00
CGA:   2    -0.100471182941E+04   -0.25311E+00   -0.25311E+00  2880   0.142E+00-0.138E-03
CGA:   3    -0.100474650140E+04   -0.34672E-01   -0.34669E-01  2880   0.208E-01-0.492E-04
CGA:   4    -0.100475208309E+04   -0.55817E-02   -0.55826E-02  2880   0.314E-02 0.126E-04
CGA:   5    -0.100475307641E+04   -0.99332E-03   -0.99316E-03  2880   0.629E-03-0.508E-05
CGA:   6    -0.100475331918E+04   -0.24276E-03   -0.24277E-03  2880   0.210E-03-0.403E-07
CGA:   7    -0.100475340194E+04   -0.82761E-04   -0.82803E-04  2880   0.611E-04-0.866E-06
CGA:   8    -0.100475342559E+04   -0.23652E-04   -0.23712E-04  2880   0.116E-04-0.145E-05
CGA:   9    -0.100475342987E+04   -0.42805E-05   -0.42959E-05  2880   0.214E-05-0.561E-06
  15 F= -.10047534E+04 E0= -.10047534E+04  d E =-.102517E-01  mag=    -0.0000
       N       E                     dE             d eps       ncg     rms          ort
SDA:   1    -0.100473646240E+04    0.16963E-01    0.00000E+00  2880   0.401E-01 0.000E+00
CGA:   2    -0.100475144558E+04   -0.14983E-01   -0.14983E-01  2880   0.797E-02 0.322E-05
CGA:   3    -0.100475343100E+04   -0.19854E-02   -0.19851E-02  2880   0.113E-02-0.248E-05
CGA:   4    -0.100475372327E+04   -0.29227E-03   -0.29159E-03  2880   0.171E-03-0.767E-05
CGA:   5    -0.100475377457E+04   -0.51304E-04   -0.51349E-04  2880   0.295E-04 0.114E-05
CGA:   6    -0.100475378594E+04   -0.11371E-04   -0.11336E-04  2880   0.924E-05 0.857E-06
CGA:   7    -0.100475379039E+04   -0.44500E-05   -0.47593E-05  2880   0.459E-05-0.196E-05
  16 F= -.10047538E+04 E0= -.10047538E+04  d E =-.360520E-03  mag=    -0.0000
       N       E                     dE             d eps       ncg     rms          ort
SDA:   1    -0.100347283057E+04    0.12810E+01    0.00000E+00  2880   0.296E+01 0.000E+00
CGA:   2    -0.100458314257E+04   -0.11103E+01   -0.11103E+01  2880   0.583E+00-0.298E-03
CGA:   3    -0.100472795796E+04   -0.14482E+00   -0.14480E+00  2880   0.817E-01-0.109E-03
CGA:   4    -0.100474889158E+04   -0.20934E-01   -0.20931E-01  2880   0.123E-01-0.308E-04
CGA:   5    -0.100475261474E+04   -0.37232E-02   -0.37235E-02  2880   0.213E-02 0.104E-04
CGA:   6    -0.100475344450E+04   -0.82976E-03   -0.82966E-03  2880   0.695E-03 0.214E-05
CGA:   7    -0.100475373488E+04   -0.29037E-03   -0.29139E-03  2880   0.222E-03-0.129E-04
CGA:   8    -0.100475381642E+04   -0.81546E-04   -0.81584E-04  2880   0.391E-04-0.115E-05
CGA:   9    -0.100475383186E+04   -0.15435E-04   -0.15673E-04  2880   0.740E-05-0.415E-05
CGA:  10    -0.100475383413E+04   -0.22695E-05   -0.22697E-05  2880   0.117E-05 0.628E-07
  17 F= -.10047538E+04 E0= -.10047538E+04  d E =-.437330E-04  mag=     0.0000
       N       E                     dE             d eps       ncg     rms          ort
SDA:   1    -0.100396695523E+04    0.78688E+00    0.00000E+00  2880   0.178E+01 0.000E+00
CGA:   2    -0.100462224069E+04   -0.65529E+00   -0.65531E+00  2880   0.376E+00-0.922E-03
CGA:   3    -0.100471523195E+04   -0.92991E-01   -0.93004E-01  2880   0.547E-01 0.392E-04
CGA:   4    -0.100472990083E+04   -0.14669E-01   -0.14685E-01  2880   0.840E-02 0.216E-03
CGA:   5    -0.100473255238E+04   -0.26515E-02   -0.26514E-02  2880   0.170E-02-0.288E-05
CGA:   6    -0.100473321910E+04   -0.66672E-03   -0.66918E-03  2880   0.597E-03-0.453E-04
CGA:   7    -0.100473342849E+04   -0.20939E-03   -0.20878E-03  2880   0.151E-03 0.362E-04
CGA:   8    -0.100473349201E+04   -0.63523E-04   -0.63414E-04  2880   0.313E-04 0.211E-05
CGA:   9    -0.100473350552E+04   -0.13507E-04   -0.14261E-04  2880   0.957E-05-0.729E-05
CGA:  10    -0.100473350703E+04   -0.15119E-05   -0.17421E-05  2880   0.214E-05 0.202E-05
  18 F= -.10047335E+04 E0= -.10047335E+04  d E =0.203271E-01  mag=     0.0000
       N       E                     dE             d eps       ncg     rms          ort
SDA:   1    -0.100393361182E+04    0.79989E+00    0.00000E+00  2880   0.191E+01 0.000E+00
CGA:   2    -0.100463885829E+04   -0.70525E+00   -0.70525E+00  2880   0.395E+00 0.831E-04
CGA:   3    -0.100473689391E+04   -0.98036E-01   -0.98014E-01  2880   0.569E-01-0.215E-03
CGA:   4    -0.100475204793E+04   -0.15154E-01   -0.15145E-01  2880   0.881E-02-0.142E-03
CGA:   5    -0.100475477579E+04   -0.27279E-02   -0.27280E-02  2880   0.168E-02 0.798E-05
CGA:   6    -0.100475541807E+04   -0.64228E-03   -0.64078E-03  2880   0.547E-03 0.291E-04
CGA:   7    -0.100475565109E+04   -0.23302E-03   -0.23633E-03  2880   0.191E-03-0.356E-04
CGA:   8    -0.100475571620E+04   -0.65108E-04   -0.65166E-04  2880   0.327E-04-0.194E-05
CGA:   9    -0.100475572722E+04   -0.11022E-04   -0.11017E-04  2880   0.542E-05 0.235E-05
CGA:  10    -0.100475572987E+04   -0.26512E-05   -0.34220E-05  2880   0.372E-05-0.307E-05
  19 F= -.10047557E+04 E0= -.10047557E+04  d E =-.222228E-01  mag=    -0.0000
