       N       E                     dE             d eps       ncg     rms          ort
DAV:   1     0.758627472199E+04    0.75863E+04   -0.39045E+05  6664   0.178E+03
DAV:   2    -0.264439428859E+03   -0.78507E+04   -0.72421E+04  6664   0.452E+02
DAV:   3    -0.129435811433E+04   -0.10299E+04   -0.99965E+03  6664   0.181E+02
DAV:   4    -0.133424819661E+04   -0.39890E+02   -0.39542E+02  6664   0.370E+01
DAV:   5    -0.133494644232E+04   -0.69825E+00   -0.69604E+00  6664   0.489E+00
SDA:   6    -0.112039076196E+04    0.21456E+03   -0.69604E+00  6664   0.368E+02 0.000E+00
CGA:   7    -0.112654859097E+04   -0.61578E+01   -0.61742E+01  6664   0.707E+01 0.307E+00
CGA:   8    -0.112771158626E+04   -0.11630E+01   -0.11663E+01  6664   0.178E+01 0.103E+00
CGA:   9    -0.112816653473E+04   -0.45495E+00   -0.45077E+00  6664   0.752E+00 0.784E-01
CGA:  10    -0.112832720019E+04   -0.16067E+00   -0.16063E+00  6664   0.305E+00 0.535E-02
CGA:  11    -0.112841491206E+04   -0.87712E-01   -0.91299E-01  6664   0.154E+00-0.372E-01
CGA:  12    -0.112844828866E+04   -0.33377E-01   -0.34107E-01  6664   0.623E-01-0.152E-01
CGA:  13    -0.112845984255E+04   -0.11554E-01   -0.11560E-01  6664   0.141E-01 0.718E-02
CGA:  14    -0.112846222550E+04   -0.23829E-02   -0.25915E-02  6664   0.424E-02 0.500E-02
CGA:  15    -0.112846306400E+04   -0.83850E-03   -0.93153E-03  6664   0.166E-02 0.218E-02
CGA:  16    -0.112846364981E+04   -0.58581E-03   -0.54888E-03  6664   0.666E-03 0.288E-03
CGA:  17    -0.112846366973E+04   -0.19922E-04   -0.81242E-04  6664   0.368E-03 0.584E-03
CGA:  18    -0.112846366185E+04    0.78817E-05   -0.28937E-04  6664   0.243E-03 0.294E-03
CGA:  19    -0.112846365647E+04    0.53783E-05   -0.19238E-04  6664   0.183E-03 0.208E-03
CGA:  20    -0.112846365445E+04    0.20171E-05   -0.15285E-04  6664   0.144E-03 0.160E-03
CGA:  21    -0.112846365484E+04   -0.38727E-06   -0.12781E-04  6664   0.115E-03 0.127E-03
CGA:  22    -0.112846365627E+04   -0.14333E-05   -0.10549E-04  6664   0.919E-04 0.102E-03
   1 F= -.11284637E+04 E0= -.11284637E+04  d E =-.112846E+04  mag=    65.0000
       N       E                     dE             d eps       ncg     rms          ort
SDA:   1    -0.112844649041E+04    0.17164E-01    0.00000E+00  6664   0.428E-01 0.000E+00
CGA:   2    -0.112845825729E+04   -0.11767E-01   -0.11825E-01  6664   0.224E-01-0.583E-03
CGA:   3    -0.112846215376E+04   -0.38965E-02   -0.38948E-02  6664   0.513E-02-0.108E-02
CGA:   4    -0.112846301383E+04   -0.86007E-03   -0.86071E-03  6664   0.113E-02 0.497E-03
CGA:   5    -0.112846316057E+04   -0.14674E-03   -0.16458E-03  6664   0.269E-03 0.401E-03
CGA:   6    -0.112846319942E+04   -0.38845E-04   -0.46568E-04  6664   0.107E-03 0.161E-03
CGA:   7    -0.112846323929E+04   -0.39875E-04   -0.53659E-04  6664   0.186E-03-0.418E-04
CGA:   8    -0.112846325158E+04   -0.12286E-04   -0.14036E-04  6664   0.831E-04 0.268E-04
CGA:   9    -0.112846325862E+04   -0.70464E-05   -0.90953E-05  6664   0.251E-04 0.226E-04
   2 F= -.11284633E+04 E0= -.11284633E+04  d E =0.397648E-03  mag=    65.0000
       N       E                     dE             d eps       ncg     rms          ort
SDA:   1    -0.112845406971E+04    0.91819E-02    0.00000E+00  6664   0.249E-01 0.000E+00
CGA:   2    -0.112846077562E+04   -0.67059E-02   -0.67379E-02  6664   0.134E-01-0.381E-03
CGA:   3    -0.112846288625E+04   -0.21106E-02   -0.21325E-02  6664   0.236E-02 0.834E-03
CGA:   4    -0.112846345235E+04   -0.56611E-03   -0.56717E-03  6664   0.665E-03-0.278E-04
CGA:   5    -0.112846328117E+04    0.17118E-03   -0.39628E-03  6664   0.372E-02-0.137E-02
CGA:   6    -0.112846367349E+04   -0.39232E-03   -0.44108E-03  6664   0.346E-03 0.534E-03
CGA:   7    -0.112846370063E+04   -0.27146E-04   -0.44216E-04  6664   0.117E-03 0.183E-03
CGA:   8    -0.112846372076E+04   -0.20125E-04   -0.21110E-04  6664   0.370E-04 0.511E-04
CGA:   9    -0.112846372102E+04   -0.26367E-06   -0.45753E-05  6664   0.214E-04 0.380E-04
   3 F= -.11284637E+04 E0= -.11284637E+04  d E =-.647486E-04  mag=    65.0000
       N       E                     dE             d eps       ncg     rms          ort
SDA:   1    -0.112846358195E+04    0.13881E-03    0.00000E+00  6664   0.427E-03 0.000E+00
CGA:   2    -0.112846368434E+04   -0.10239E-03   -0.10235E-03  6664   0.185E-03 0.635E-06
CGA:   3    -0.112846369640E+04   -0.12057E-04   -0.18551E-04  6664   0.440E-04 0.720E-04
CGA:   4    -0.112846369797E+04   -0.15684E-05   -0.48722E-05  6664   0.192E-04 0.312E-04
   4 F= -.11284637E+04 E0= -.11284637E+04  d E =-.416937E-04  mag=    65.0000
       N       E                     dE             d eps       ncg     rms          ort
SDA:   1    -0.112846366622E+04    0.30180E-04    0.00000E+00  6664   0.118E-03 0.000E+00
CGA:   2    -0.112846367650E+04   -0.10282E-04   -0.59550E-04  6664   0.479E-03-0.152E-03
CGA:   3    -0.112846373098E+04   -0.54485E-04   -0.52392E-04  6664   0.371E-04-0.241E-04
CGA:   4    -0.112846373080E+04    0.18555E-06   -0.23282E-05  6664   0.122E-04 0.199E-04
   5 F= -.11284637E+04 E0= -.11284637E+04  d E =-.745272E-04  mag=    65.0000
       N       E                     dE             d eps       ncg     rms          ort
SDA:   1    -0.112846372927E+04    0.17099E-05    0.00000E+00  6664   0.185E-04 0.000E+00
CGA:   2    -0.112846372775E+04    0.15239E-05   -0.63648E-06  6664   0.126E-04 0.150E-04
CGA:   3    -0.112846372652E+04    0.12284E-05   -0.37246E-06  6664   0.103E-04 0.113E-04
CGA:   4    -0.112846372551E+04    0.10077E-05   -0.28725E-06  6664   0.892E-05 0.950E-05
   6 F= -.11284637E+04 E0= -.11284637E+04  d E =-.692428E-04  mag=    65.0000
