       N       E                     dE             d eps       ncg     rms          ort
DAV:   1     0.112985967583E+05    0.11299E+05   -0.46660E+05  8540   0.170E+03
DAV:   2     0.823860142688E+02   -0.11216E+05   -0.10208E+05  8540   0.487E+02
DAV:   3    -0.154351401879E+04   -0.16259E+04   -0.15407E+04  8540   0.197E+02
DAV:   4    -0.162683397271E+04   -0.83320E+02   -0.82197E+02  8540   0.455E+01
DAV:   5    -0.162787768150E+04   -0.10437E+01   -0.10408E+01  8540   0.554E+00
SDA:   6    -0.793879876005E+03    0.83400E+03   -0.10408E+01  8540   0.284E+04 0.000E+00
CGA:   7    -0.119890831717E+04   -0.40503E+03   -0.40593E+03  8540   0.289E+03 0.239E+02
CGA:   8    -0.125262171831E+04   -0.53713E+02   -0.53730E+02  8540   0.660E+02 0.189E+01
CGA:   9    -0.127400725628E+04   -0.21386E+02   -0.21330E+02  8540   0.350E+02 0.375E+00
CGA:  10    -0.128216681364E+04   -0.81596E+01   -0.81839E+01  8540   0.982E+01-0.746E+00
CGA:  11    -0.128452594524E+04   -0.23591E+01   -0.23812E+01  8540   0.249E+01-0.520E+00
CGA:  12    -0.128509759392E+04   -0.57165E+00   -0.57667E+00  8540   0.695E+00-0.132E+00
CGA:  13    -0.128527710841E+04   -0.17951E+00   -0.17925E+00  8540   0.220E+00 0.340E-02
CGA:  14    -0.128534810292E+04   -0.70995E-01   -0.73865E-01  8540   0.950E-01-0.239E-01
CGA:  15    -0.128536525480E+04   -0.17152E-01   -0.56293E-01  8540   0.159E+00-0.885E-01
CGA:  16    -0.128540309462E+04   -0.37840E-01   -0.37843E-01  8540   0.250E-01 0.105E-02
CGA:  17    -0.128541214195E+04   -0.90473E-02   -0.11358E-01  8540   0.181E-01-0.109E-01
CGA:  18    -0.128540827426E+04    0.38677E-02   -0.78392E-02  8540   0.574E-01-0.225E-01
CGA:  19    -0.128541823058E+04   -0.99563E-02   -0.10285E-01  8540   0.930E-02 0.358E-02
CGA:  20    -0.128542168300E+04   -0.34524E-02   -0.33538E-02  8540   0.154E-02 0.145E-02
CGA:  21    -0.128542219817E+04   -0.51517E-03   -0.51322E-03  8540   0.522E-03 0.152E-03
CGA:  22    -0.128542240088E+04   -0.20271E-03   -0.23535E-03  8540   0.499E-03-0.243E-03
CGA:  23    -0.128542284711E+04   -0.44623E-03    0.19069E-04  8540   0.260E-03-0.129E-04
CGA:  24    -0.128542333992E+04   -0.49280E-03    0.14564E-04  8540   0.236E-03-0.146E-04
CGA:  25    -0.128542389378E+04   -0.55386E-03    0.92341E-05  8540   0.120E-03 0.329E-04
CGA:  26    -0.128542420680E+04   -0.31302E-03    0.63461E-05  8540   0.884E-04-0.190E-04
CGA:  27    -0.128542441145E+04   -0.20465E-03    0.27172E-05  8540   0.331E-04-0.159E-04
CGA:  28    -0.128542440704E+04    0.44114E-05   -0.10251E-05  8540   0.267E-04 0.222E-04
   1 F= -.12854244E+04 E0= -.12854244E+04  d E =-.128542E+04  mag=   126.0000
       N       E                     dE             d eps       ncg     rms          ort
SDA:   1    -0.128542568165E+04   -0.12702E-02    0.00000E+00  8540   0.210E-02 0.000E+00
CGA:   2    -0.128542593321E+04   -0.25156E-03   -0.31617E-03  8540   0.645E-03 0.605E-03
CGA:   3    -0.128542603372E+04   -0.10051E-03   -0.13407E-03  8540   0.235E-03 0.369E-03
CGA:   4    -0.128542580143E+04    0.23229E-03   -0.25184E-03  8540   0.295E-02-0.587E-03
CGA:   5    -0.128542609006E+04   -0.28863E-03   -0.36506E-03  8540   0.187E-03 0.462E-03
CGA:   6    -0.128542611239E+04   -0.22333E-04   -0.30943E-04  8540   0.525E-04 0.627E-04
CGA:   7    -0.128542561240E+04    0.49999E-03   -0.26953E-03  8540   0.220E-02-0.418E-03
CGA:   8    -0.128542602542E+04   -0.41302E-03   -0.47015E-03  8540   0.365E-03 0.200E-03
CGA:   9    -0.128542618623E+04   -0.16080E-03   -0.14154E-03  8540   0.221E-03-0.149E-03
CGA:  10    -0.128542617175E+04    0.14474E-04   -0.11341E-04  8540   0.110E-03 0.659E-04
CGA:  11    -0.128542615530E+04    0.16452E-04   -0.92961E-05  8540   0.375E-04 0.654E-04
CGA:  12    -0.128542615476E+04    0.54063E-06   -0.52244E-05  8540   0.110E-04 0.192E-04
   2 F= -.12854262E+04 E0= -.12854262E+04  d E =-.174772E-02  mag=   126.0000
       N       E                     dE             d eps       ncg     rms          ort
SDA:   1    -0.128294757931E+04    0.24786E+01    0.00000E+00  8540   0.723E+01 0.000E+00
CGA:   2    -0.128454042810E+04   -0.15928E+01   -0.15952E+01  8540   0.319E+01 0.388E-02
CGA:   3    -0.128528723433E+04   -0.74681E+00   -0.74678E+00  8540   0.712E+00-0.186E-02
CGA:   4    -0.128543175623E+04   -0.14452E+00   -0.14424E+00  8540   0.132E+00-0.150E-02
CGA:   5    -0.128545999321E+04   -0.28237E-01   -0.28228E-01  8540   0.315E-01-0.908E-04
CGA:   6    -0.128546735365E+04   -0.73604E-02   -0.73661E-02  8540   0.847E-02 0.285E-04
CGA:   7    -0.128546958579E+04   -0.22321E-02   -0.22203E-02  8540   0.257E-02-0.104E-03
CGA:   8    -0.128547037430E+04   -0.78851E-03   -0.77555E-03  8540   0.915E-03-0.196E-03
CGA:   9    -0.128547068954E+04   -0.31524E-03   -0.31610E-03  8540   0.406E-03-0.178E-03
CGA:  10    -0.128547080950E+04   -0.11996E-03   -0.11968E-03  8540   0.159E-03-0.774E-04
CGA:  11    -0.128547086032E+04   -0.50821E-04   -0.71622E-04  8540   0.169E-03-0.111E-03
CGA:  12    -0.128547090954E+04   -0.49224E-04   -0.46285E-04  8540   0.386E-04-0.282E-04
CGA:  13    -0.128547093453E+04   -0.24986E-04    0.14249E-03  8540   0.119E-04-0.429E-05
CGA:  14    -0.128547094503E+04   -0.10497E-04    0.61169E-05  8540   0.342E-05 0.133E-05
CGA:  15    -0.128547095713E+04   -0.12101E-04    0.21770E-06  8540   0.176E-05 0.152E-06
CGA:  16    -0.128547096433E+04   -0.71992E-05    0.80509E-07  8540   0.902E-06 0.116E-06
   3 F= -.12854710E+04 E0= -.12854710E+04  d E =-.448096E-01  mag=   126.0000
       N       E                     dE             d eps       ncg     rms          ort
SDA:   1    -0.128285586586E+04    0.26151E+01    0.00000E+00  8540   0.728E+01 0.000E+00
CGA:   2    -0.128446874047E+04   -0.16129E+01   -0.16140E+01  8540   0.323E+01 0.480E-03
CGA:   3    -0.128521968378E+04   -0.75094E+00   -0.75120E+00  8540   0.703E+00 0.466E-03
CGA:   4    -0.128536370692E+04   -0.14402E+00   -0.14409E+00  8540   0.129E+00 0.226E-03
CGA:   5    -0.128539130742E+04   -0.27601E-01   -0.27636E-01  8540   0.306E-01 0.212E-03
CGA:   6    -0.128539859253E+04   -0.72851E-02   -0.72844E-02  8540   0.838E-02-0.149E-04
CGA:   7    -0.128540072417E+04   -0.21316E-02   -0.21427E-02  8540   0.246E-02 0.131E-03
CGA:   8    -0.128540137033E+04   -0.64615E-03   -0.66221E-03  8540   0.719E-03 0.229E-03
CGA:   9    -0.128540158818E+04   -0.21785E-03   -0.22432E-03  8540   0.229E-03 0.140E-03
CGA:  10    -0.128540165429E+04   -0.66108E-04   -0.71771E-04  8540   0.852E-04 0.848E-04
CGA:  11    -0.128540166887E+04   -0.14586E-04   -0.22616E-04  8540   0.389E-04 0.606E-04
CGA:  12    -0.128540167106E+04   -0.21882E-05   -0.64395E-05  8540   0.229E-04 0.276E-04
   4 F= -.12854017E+04 E0= -.12854017E+04  d E =0.692933E-01  mag=   126.0000
       N       E                     dE             d eps       ncg     rms          ort
SDA:   1    -0.127875827050E+04    0.66434E+01    0.00000E+00  8540   0.199E+02 0.000E+00
CGA:   2    -0.128282994544E+04   -0.40717E+01   -0.40778E+01  8540   0.800E+01 0.258E-01
CGA:   3    -0.128480086197E+04   -0.19709E+01   -0.19712E+01  8540   0.201E+01-0.157E-02
CGA:   4    -0.128521487640E+04   -0.41401E+00   -0.41346E+00  8540   0.370E+00-0.661E-02
CGA:   5    -0.128529377402E+04   -0.78898E-01   -0.78860E-01  8540   0.864E-01-0.628E-03
CGA:   6    -0.128531405290E+04   -0.20279E-01   -0.20297E-01  8540   0.232E-01 0.326E-03
CGA:   7    -0.128532017631E+04   -0.61234E-02   -0.61224E-02  8540   0.696E-02-0.508E-04
CGA:   8    -0.128532226582E+04   -0.20895E-02   -0.20978E-02  8540   0.246E-02-0.441E-03
CGA:   9    -0.128532308450E+04   -0.81868E-03   -0.85614E-03  8540   0.110E-02-0.431E-03
CGA:  10    -0.128532338366E+04   -0.29916E-03   -0.30336E-03  8540   0.377E-03-0.898E-04
CGA:  11    -0.128532350815E+04   -0.12449E-03   -0.12858E-03  8540   0.133E-03-0.507E-04
CGA:  12    -0.128532357840E+04   -0.70251E-04    0.44808E-03  8540   0.456E-04 0.213E-04
CGA:  13    -0.128532362257E+04   -0.44170E-04    0.18844E-04  8540   0.203E-04 0.163E-04
CGA:  14    -0.128532364973E+04   -0.27161E-04    0.60815E-05  8540   0.102E-04 0.103E-04
CGA:  15    -0.128532365843E+04   -0.86998E-05    0.34303E-05  8540   0.474E-05 0.513E-05
   5 F= -.12853237E+04 E0= -.12853237E+04  d E =0.780126E-01  mag=   126.0000
       N       E                     dE             d eps       ncg     rms          ort
SDA:   1    -0.128279326792E+04    0.25304E+01    0.00000E+00  8540   0.785E+01 0.000E+00
CGA:   2    -0.128442320305E+04   -0.16299E+01   -0.16309E+01  8540   0.322E+01 0.315E-02
CGA:   3    -0.128520575640E+04   -0.78255E+00   -0.78281E+00  8540   0.782E+00 0.330E-02
CGA:   4    -0.128536714841E+04   -0.16139E+00   -0.16149E+00  8540   0.144E+00 0.937E-03
CGA:   5    -0.128539806782E+04   -0.30919E-01   -0.30928E-01  8540   0.334E-01 0.767E-04
CGA:   6    -0.128540607856E+04   -0.80107E-02   -0.80001E-02  8540   0.930E-02-0.267E-03
CGA:   7    -0.128540845410E+04   -0.23755E-02   -0.23781E-02  8540   0.271E-02 0.120E-03
CGA:   8    -0.128540916060E+04   -0.70651E-03   -0.71116E-03  8540   0.755E-03 0.251E-03
CGA:   9    -0.128540939873E+04   -0.23813E-03   -0.23674E-03  8540   0.238E-03 0.133E-03
CGA:  10    -0.128540947196E+04   -0.73233E-04   -0.74248E-04  8540   0.852E-04 0.819E-04
CGA:  11    -0.128540949082E+04   -0.18856E-04   -0.23046E-04  8540   0.357E-04 0.557E-04
CGA:  12    -0.128540949414E+04   -0.33173E-05   -0.59210E-05  8540   0.197E-04 0.244E-04
   6 F= -.12854095E+04 E0= -.12854095E+04  d E =-.858357E-01  mag=   126.0000
       N       E                     dE             d eps       ncg     rms          ort
SDA:   1    -0.128505516369E+04    0.35433E+00    0.00000E+00  8540   0.101E+01 0.000E+00
CGA:   2    -0.128527713594E+04   -0.22197E+00   -0.22201E+00  8540   0.451E+00 0.444E-03
CGA:   3    -0.128538339402E+04   -0.10626E+00   -0.10627E+00  8540   0.984E-01 0.173E-03
CGA:   4    -0.128540340927E+04   -0.20015E-01   -0.20010E-01  8540   0.178E-01-0.110E-03
CGA:   5    -0.128540726006E+04   -0.38508E-02   -0.38538E-02  8540   0.426E-02 0.742E-04
CGA:   6    -0.128540827018E+04   -0.10101E-02   -0.10103E-02  8540   0.113E-02 0.117E-04
CGA:   7    -0.128540857055E+04   -0.30037E-03   -0.30055E-03  8540   0.349E-03-0.140E-04
CGA:   8    -0.128540866525E+04   -0.94694E-04   -0.94414E-04  8540   0.106E-03 0.125E-04
CGA:   9    -0.128540870275E+04   -0.37503E-04   -0.37777E-04  8540   0.402E-04-0.303E-05
CGA:  10    -0.128540871467E+04   -0.11923E-04   -0.11733E-04  8540   0.126E-04 0.442E-05
CGA:  11    -0.128540871781E+04   -0.31344E-05   -0.32602E-05  8540   0.403E-05 0.477E-05
   7 F= -.12854087E+04 E0= -.12854087E+04  d E =0.776330E-03  mag=   126.0000
       N       E                     dE             d eps       ncg     rms          ort
SDA:   1    -0.127844196564E+04    0.69667E+01    0.00000E+00  8540   0.192E+02 0.000E+00
CGA:   2    -0.128287547441E+04   -0.44335E+01   -0.44348E+01  8540   0.886E+01 0.286E-01
CGA:   3    -0.128488988789E+04   -0.20144E+01   -0.20144E+01  8540   0.181E+01-0.639E-02
CGA:   4    -0.128525767752E+04   -0.36779E+00   -0.36754E+00  8540   0.332E+00-0.523E-02
CGA:   5    -0.128532995733E+04   -0.72280E-01   -0.72288E-01  8540   0.796E-01 0.133E-03
CGA:   6    -0.128534876492E+04   -0.18808E-01   -0.18811E-01  8540   0.213E-01 0.236E-03
CGA:   7    -0.128535439012E+04   -0.56252E-02   -0.56277E-02  8540   0.652E-02-0.178E-03
CGA:   8    -0.128535633257E+04   -0.19425E-02   -0.19600E-02  8540   0.230E-02-0.334E-03
CGA:   9    -0.128535708912E+04   -0.75654E-03   -0.79654E-03  8540   0.942E-03-0.357E-03
CGA:  10    -0.128535734691E+04   -0.25779E-03   -0.26259E-03  8540   0.295E-03-0.675E-04
CGA:  11    -0.128535744859E+04   -0.10168E-03   -0.11483E-03  8540   0.137E-03-0.840E-04
CGA:  12    -0.128535750524E+04   -0.56654E-04    0.17997E-03  8540   0.485E-04 0.193E-04
CGA:  13    -0.128535754060E+04   -0.35359E-04    0.41015E-04  8540   0.199E-04 0.114E-04
CGA:  14    -0.128535755994E+04   -0.19342E-04    0.73551E-05  8540   0.942E-05 0.795E-05
CGA:  15    -0.128535757350E+04   -0.13556E-04    0.19627E-05  8540   0.537E-05 0.519E-05
CGA:  16    -0.128535757955E+04   -0.60556E-05    0.66564E-06  8540   0.225E-05 0.250E-05
   8 F= -.12853576E+04 E0= -.12853576E+04  d E =0.511383E-01  mag=   126.0000
       N       E                     dE             d eps       ncg     rms          ort
SDA:   1    -0.127955394387E+04    0.58036E+01    0.00000E+00  8540   0.177E+02 0.000E+00
CGA:   2    -0.128318985056E+04   -0.36359E+01   -0.36387E+01  8540   0.717E+01 0.195E-01
CGA:   3    -0.128495883584E+04   -0.17690E+01   -0.17692E+01  8540   0.177E+01 0.689E-02
CGA:   4    -0.128532328543E+04   -0.36445E+00   -0.36453E+00  8540   0.319E+00 0.760E-03
CGA:   5    -0.128539282048E+04   -0.69535E-01   -0.69527E-01  8540   0.756E-01-0.314E-03
CGA:   6    -0.128541075471E+04   -0.17934E-01   -0.17917E-01  8540   0.207E-01-0.766E-03
CGA:   7    -0.128541601669E+04   -0.52620E-02   -0.52626E-02  8540   0.602E-02 0.259E-03
CGA:   8    -0.128541761902E+04   -0.16023E-02   -0.16008E-02  8540   0.170E-02 0.457E-03
CGA:   9    -0.128541817324E+04   -0.55421E-03   -0.54566E-03  8540   0.548E-03 0.217E-03
CGA:  10    -0.128541834830E+04   -0.17506E-03   -0.17238E-03  8540   0.188E-03 0.153E-03
CGA:  11    -0.128541839929E+04   -0.50992E-04   -0.54459E-04  8540   0.692E-04 0.984E-04
CGA:  12    -0.128541840735E+04   -0.80623E-05   -0.11954E-04  8540   0.353E-04 0.443E-04
   9 F= -.12854184E+04 E0= -.12854184E+04  d E =-.608278E-01  mag=   126.0000
       N       E                     dE             d eps       ncg     rms          ort
SDA:   1    -0.128505729462E+04    0.36110E+00    0.00000E+00  8540   0.118E+01 0.000E+00
CGA:   2    -0.128529972781E+04   -0.24243E+00   -0.24255E+00  8540   0.478E+00 0.214E-02
CGA:   3    -0.128541815690E+04   -0.11843E+00   -0.11843E+00  8540   0.120E+00-0.140E-02
CGA:   4    -0.128544276494E+04   -0.24608E-01   -0.24571E-01  8540   0.216E-01-0.932E-03
CGA:   5    -0.128544744068E+04   -0.46757E-02   -0.46747E-02  8540   0.509E-02-0.438E-04
CGA:   6    -0.128544861750E+04   -0.11768E-02   -0.11773E-02  8540   0.133E-02 0.372E-04
CGA:   7    -0.128544898201E+04   -0.36451E-03   -0.36605E-03  8540   0.425E-03-0.515E-04
CGA:   8    -0.128544911581E+04   -0.13380E-03   -0.15458E-03  8540   0.268E-03-0.155E-03
CGA:   9    -0.128544916246E+04   -0.46642E-04   -0.76853E-04  8540   0.220E-03-0.151E-03
CGA:  10    -0.128544920721E+04   -0.44757E-04   -0.45529E-04  8540   0.438E-04 0.140E-04
CGA:  11    -0.128544922310E+04   -0.15882E-04   -0.15960E-04  8540   0.106E-04-0.951E-06
CGA:  12    -0.128544923254E+04   -0.94426E-05    0.18449E-05  8540   0.305E-05 0.338E-05
  10 F= -.12854492E+04 E0= -.12854492E+04  d E =-.308252E-01  mag=   126.0000
       N       E                     dE             d eps       ncg     rms          ort
SDA:   1    -0.128516712207E+04    0.28210E+00    0.00000E+00  8540   0.833E+00 0.000E+00
CGA:   2    -0.128534054819E+04   -0.17343E+00   -0.17353E+00  8540   0.345E+00 0.143E-02
CGA:   3    -0.128542551647E+04   -0.84968E-01   -0.84953E-01  8540   0.852E-01-0.130E-02
CGA:   4    -0.128544289795E+04   -0.17381E-01   -0.17337E-01  8540   0.153E-01-0.826E-03
CGA:   5    -0.128544620890E+04   -0.33110E-02   -0.33082E-02  8540   0.365E-02-0.778E-04
CGA:   6    -0.128544705261E+04   -0.84371E-03   -0.84383E-03  8540   0.951E-03 0.425E-05
CGA:   7    -0.128544731643E+04   -0.26382E-03   -0.26540E-03  8540   0.319E-03-0.632E-04
CGA:   8    -0.128544741511E+04   -0.98684E-04   -0.12181E-03  8540   0.252E-03-0.150E-03
CGA:   9    -0.128544743074E+04   -0.15634E-04   -0.72905E-04  8540   0.333E-03-0.202E-03
CGA:  10    -0.128544749994E+04   -0.69198E-04   -0.70103E-04  8540   0.702E-04 0.135E-04
CGA:  11    -0.128544752499E+04   -0.25050E-04   -0.25060E-04  8540   0.175E-04-0.181E-06
CGA:  12    -0.128544753733E+04   -0.12335E-04    0.87646E-05  8540   0.515E-05 0.572E-05
CGA:  13    -0.128544754532E+04   -0.79910E-05    0.84906E-06  8540   0.179E-05 0.217E-05
  11 F= -.12854475E+04 E0= -.12854475E+04  d E =0.168722E-02  mag=   126.0000
       N       E                     dE             d eps       ncg     rms          ort
SDA:   1    -0.128430952719E+04    0.11380E+01    0.00000E+00  8540   0.304E+01 0.000E+00
CGA:   2    -0.128502093777E+04   -0.71141E+00   -0.71159E+00  8540   0.145E+01 0.258E-02
CGA:   3    -0.128534739423E+04   -0.32646E+00   -0.32637E+00  8540   0.290E+00-0.216E-02
CGA:   4    -0.128540575077E+04   -0.58357E-01   -0.58285E-01  8540   0.514E-01-0.103E-02
CGA:   5    -0.128541691018E+04   -0.11159E-01   -0.11164E-01  8540   0.125E-01 0.680E-04
CGA:   6    -0.128541981617E+04   -0.29060E-02   -0.29109E-02  8540   0.318E-02 0.140E-03
CGA:   7    -0.128542063626E+04   -0.82008E-03   -0.82040E-03  8540   0.953E-03 0.341E-04
CGA:   8    -0.128542093693E+04   -0.30067E-03   -0.30362E-03  8540   0.359E-03-0.578E-04
CGA:   9    -0.128542105864E+04   -0.12172E-03   -0.12905E-03  8540   0.171E-03-0.634E-04
CGA:  10    -0.128542110369E+04   -0.45045E-04   -0.45135E-04  8540   0.586E-04-0.196E-05
CGA:  11    -0.128542112351E+04   -0.19817E-04   -0.19703E-04  8540   0.231E-04 0.168E-05
CGA:  12    -0.128542105013E+04    0.73373E-04   -0.40230E-04  8540   0.391E-03-0.753E-04
CGA:  13    -0.128542115607E+04   -0.10593E-03   -0.10315E-03  8540   0.482E-04-0.115E-04
CGA:  14    -0.128542117056E+04   -0.14493E-04   -0.15041E-04  8540   0.701E-05 0.315E-05
CGA:  15    -0.128542117939E+04   -0.88277E-05    0.84064E-05  8540   0.343E-05-0.134E-05
  12 F= -.12854212E+04 E0= -.12854212E+04  d E =0.263659E-01  mag=   126.0000
       N       E                     dE             d eps       ncg     rms          ort
SDA:   1    -0.127075944058E+04    0.14662E+02    0.00000E+00  8540   0.429E+02 0.000E+00
CGA:   2    -0.127971149495E+04   -0.89521E+01   -0.89827E+01  8540   0.179E+02 0.542E-02
CGA:   3    -0.128406603567E+04   -0.43545E+01   -0.43581E+01  8540   0.418E+01 0.145E-01
CGA:   4    -0.128492720292E+04   -0.86117E+00   -0.86031E+00  8540   0.745E+00-0.299E-02
CGA:   5    -0.128509067965E+04   -0.16348E+00   -0.16337E+00  8540   0.181E+00-0.759E-03
CGA:   6    -0.128513337877E+04   -0.42699E-01   -0.42671E-01  8540   0.491E-01-0.213E-03
CGA:   7    -0.128514617005E+04   -0.12791E-01   -0.12823E-01  8540   0.148E-01 0.201E-03
CGA:   8    -0.128515030300E+04   -0.41330E-02   -0.41692E-02  8540   0.458E-02 0.288E-03
CGA:   9    -0.128515185668E+04   -0.15537E-02   -0.15530E-02  8540   0.160E-02-0.121E-04
CGA:  10    -0.128515236244E+04   -0.50575E-03   -0.51425E-03  8540   0.522E-03 0.116E-03
CGA:  11    -0.128515250688E+04   -0.14445E-03   -0.15778E-03  8540   0.151E-03 0.121E-03
CGA:  12    -0.128515255209E+04   -0.45207E-04   -0.51397E-04  8540   0.618E-04 0.563E-04
CGA:  13    -0.128515256186E+04   -0.97668E-05   -0.17953E-04  8540   0.340E-04 0.483E-04
  13 F= -.12851526E+04 E0= -.12851526E+04  d E =0.268618E+00  mag=   126.0000
       N       E                     dE             d eps       ncg     rms          ort
SDA:   1    -0.128139360379E+04    0.37589E+01    0.00000E+00  8540   0.122E+02 0.000E+00
CGA:   2    -0.128392187276E+04   -0.25283E+01   -0.25310E+01  8540   0.507E+01 0.327E-02
CGA:   3    -0.128515703300E+04   -0.12352E+01   -0.12354E+01  8540   0.120E+01-0.990E-03
CGA:   4    -0.128540378157E+04   -0.24675E+00   -0.24668E+00  8540   0.215E+00-0.722E-03
CGA:   5    -0.128545094890E+04   -0.47167E-01   -0.47152E-01  8540   0.519E-01-0.202E-03
CGA:   6    -0.128546326754E+04   -0.12319E-01   -0.12287E-01  8540   0.142E-01-0.336E-03
CGA:   7    -0.128546700382E+04   -0.37363E-02   -0.37306E-02  8540   0.432E-02-0.868E-04
CGA:   8    -0.128546822130E+04   -0.12175E-02   -0.12164E-02  8540   0.134E-02-0.269E-04
CGA:   9    -0.128546865993E+04   -0.43863E-03   -0.43880E-03  8540   0.451E-03-0.369E-04
CGA:  10    -0.128546880819E+04   -0.14826E-03   -0.14827E-03  8540   0.149E-03-0.129E-05
CGA:  11    -0.128546886628E+04   -0.58093E-04   -0.60570E-04  8540   0.599E-04-0.310E-04
CGA:  12    -0.128546888110E+04   -0.14818E-04   -0.32227E-04  8540   0.937E-04-0.501E-04
CGA:  13    -0.128546890313E+04   -0.22031E-04   -0.22118E-04  8540   0.116E-04 0.761E-06
CGA:  14    -0.128546883196E+04    0.71165E-04   -0.38382E-04  8540   0.328E-03-0.528E-04
CGA:  15    -0.128546890617E+04   -0.74208E-04   -0.78234E-04  8540   0.447E-04 0.104E-04
CGA:  16    -0.128546892670E+04   -0.20530E-04   -0.18107E-04  8540   0.168E-04-0.114E-04
CGA:  17    -0.128546892853E+04   -0.18265E-05   -0.24413E-05  8540   0.380E-05 0.155E-05
  14 F= -.12854689E+04 E0= -.12854689E+04  d E =-.316367E+00  mag=   126.0000
       N       E                     dE             d eps       ncg     rms          ort
SDA:   1    -0.128423221905E+04    0.12367E+01    0.00000E+00  8540   0.389E+01 0.000E+00
CGA:   2    -0.128501665449E+04   -0.78444E+00   -0.78587E+00  8540   0.155E+01 0.539E-03
CGA:   3    -0.128540345064E+04   -0.38680E+00   -0.38679E+00  8540   0.394E+00-0.879E-03
CGA:   4    -0.128548467994E+04   -0.81229E-01   -0.81059E-01  8540   0.705E-01-0.587E-03
CGA:   5    -0.128550002274E+04   -0.15343E-01   -0.15306E-01  8540   0.170E-01-0.152E-03
CGA:   6    -0.128550402845E+04   -0.40057E-02   -0.39783E-02  8540   0.458E-02-0.112E-03
CGA:   7    -0.128550524169E+04   -0.12132E-02   -0.12004E-02  8540   0.139E-02-0.605E-04
CGA:   8    -0.128550564944E+04   -0.40776E-03   -0.39842E-03  8540   0.451E-03-0.528E-04
CGA:   9    -0.128550580764E+04   -0.15819E-03   -0.15308E-03  8540   0.175E-03-0.484E-04
CGA:  10    -0.128550587083E+04   -0.63188E-04   -0.61124E-04  8540   0.779E-04-0.332E-04
CGA:  11    -0.128550590051E+04   -0.29682E-04   -0.33414E-04  8540   0.673E-04-0.473E-04
CGA:  12    -0.128550591905E+04   -0.18539E-04   -0.17346E-04  8540   0.135E-04-0.608E-05
CGA:  13    -0.128550574785E+04    0.17119E-03   -0.92487E-04  8540   0.841E-03-0.858E-04
CGA:  14    -0.128550592557E+04   -0.17772E-03   -0.18262E-03  8540   0.747E-04 0.805E-05
CGA:  15    -0.128550595286E+04   -0.27297E-04   -0.28342E-04  8540   0.114E-04 0.256E-05
CGA:  16    -0.128550595904E+04   -0.61726E-05   -0.52016E-05  8540   0.871E-05-0.305E-05
  15 F= -.12855060E+04 E0= -.12855060E+04  d E =-.370305E-01  mag=   126.0000
       N       E                     dE             d eps       ncg     rms          ort
SDA:   1    -0.128548326116E+04    0.22692E-01    0.00000E+00  8540   0.694E-01 0.000E+00
CGA:   2    -0.128549846229E+04   -0.15201E-01   -0.15197E-01  8540   0.308E-01-0.393E-04
CGA:   3    -0.128550565404E+04   -0.71918E-02   -0.72171E-02  8540   0.698E-02 0.404E-04
CGA:   4    -0.128550705794E+04   -0.14039E-02   -0.14151E-02  8540   0.123E-02 0.225E-04
CGA:   5    -0.128550733176E+04   -0.27382E-03   -0.26987E-03  8540   0.302E-03-0.962E-05
CGA:   6    -0.128550740669E+04   -0.74933E-04   -0.71906E-04  8540   0.842E-04-0.791E-05
CGA:   7    -0.128550742644E+04   -0.19751E-04   -0.20380E-04  8540   0.238E-04 0.174E-05
CGA:   8    -0.128550743169E+04   -0.52423E-05   -0.61826E-05  8540   0.662E-05 0.280E-05
  16 F= -.12855074E+04 E0= -.12855074E+04  d E =-.147265E-02  mag=   126.0000
       N       E                     dE             d eps       ncg     rms          ort
SDA:   1    -0.128240888075E+04    0.30985E+01    0.00000E+00  8540   0.838E+01 0.000E+00
CGA:   2    -0.128437614699E+04   -0.19673E+01   -0.19693E+01  8540   0.400E+01 0.866E-03
CGA:   3    -0.128526713152E+04   -0.89098E+00   -0.89135E+00  8540   0.795E+00 0.252E-02
CGA:   4    -0.128542914488E+04   -0.16201E+00   -0.16206E+00  8540   0.137E+00 0.755E-05
CGA:   5    -0.128545935958E+04   -0.30215E-01   -0.30195E-01  8540   0.336E-01-0.125E-03
CGA:   6    -0.128546730610E+04   -0.79465E-02   -0.79453E-02  8540   0.892E-02-0.119E-04
CGA:   7    -0.128546958081E+04   -0.22747E-02   -0.22937E-02  8540   0.272E-02 0.813E-04
CGA:   8    -0.128547035645E+04   -0.77564E-03   -0.78908E-03  8540   0.888E-03 0.711E-04
CGA:   9    -0.128547066415E+04   -0.30769E-03   -0.30887E-03  8540   0.328E-03 0.885E-05
CGA:  10    -0.128547078498E+04   -0.12083E-03   -0.12090E-03  8540   0.129E-03 0.544E-06
CGA:  11    -0.128547082844E+04   -0.43465E-04   -0.44612E-04  8540   0.493E-04 0.104E-04
CGA:  12    -0.128547084763E+04   -0.19186E-04   -0.19869E-04  8540   0.241E-04 0.891E-05
CGA:  13    -0.128547086462E+04   -0.16990E-04   -0.17327E-04  8540   0.241E-04-0.223E-05
CGA:  14    -0.128547087471E+04   -0.10095E-04   -0.10099E-04  8540   0.137E-04-0.652E-06
CGA:  15    -0.128547087763E+04   -0.29173E-05   -0.35896E-05  8540   0.523E-05 0.359E-05
  17 F= -.12854709E+04 E0= -.12854709E+04  d E =0.365541E-01  mag=   126.0000
       N       E                     dE             d eps       ncg     rms          ort
SDA:   1    -0.127243081640E+04    0.13040E+02    0.00000E+00  8540   0.400E+02 0.000E+00
CGA:   2    -0.128030949205E+04   -0.78787E+01   -0.79315E+01  8540   0.157E+02-0.196E-01
CGA:   3    -0.128425953648E+04   -0.39500E+01   -0.39540E+01  8540   0.410E+01 0.176E-01
CGA:   4    -0.128510304043E+04   -0.84350E+00   -0.84247E+00  8540   0.722E+00-0.245E-02
CGA:   5    -0.128525821572E+04   -0.15518E+00   -0.15505E+00  8540   0.175E+00-0.985E-03
CGA:   6    -0.128529878823E+04   -0.40573E-01   -0.40558E-01  8540   0.459E-01-0.149E-03
CGA:   7    -0.128531057293E+04   -0.11785E-01   -0.11815E-01  8540   0.138E-01 0.210E-03
CGA:   8    -0.128531448537E+04   -0.39124E-02   -0.39192E-02  8540   0.431E-02 0.585E-04
CGA:   9    -0.128531598329E+04   -0.14979E-02   -0.14930E-02  8540   0.167E-02-0.134E-03
CGA:  10    -0.128531651040E+04   -0.52711E-03   -0.53179E-03  8540   0.571E-03 0.891E-04
CGA:  11    -0.128531669047E+04   -0.18008E-03   -0.18571E-03  8540   0.171E-03 0.803E-04
CGA:  12    -0.128531676455E+04   -0.74074E-04   -0.74027E-04  8540   0.847E-04 0.958E-05
CGA:  13    -0.128531679306E+04   -0.28509E-04   -0.29753E-04  8540   0.406E-04 0.290E-04
CGA:  14    -0.128531680898E+04   -0.15925E-04   -0.17163E-04  8540   0.212E-04 0.211E-04
CGA:  15    -0.128531680058E+04    0.84066E-05   -0.31753E-04  8540   0.184E-03-0.357E-04
CGA:  16    -0.128531682671E+04   -0.26133E-04   -0.35793E-04  8540   0.167E-04 0.415E-04
CGA:  17    -0.128531683418E+04   -0.74661E-05   -0.72616E-05  8540   0.775E-05-0.338E-05
  18 F= -.12853168E+04 E0= -.12853168E+04  d E =0.154043E+00  mag=   126.0000
       N       E                     dE             d eps       ncg     rms          ort
SDA:   1    -0.128225643598E+04    0.30604E+01    0.00000E+00  8540   0.989E+01 0.000E+00
CGA:   2    -0.128427138251E+04   -0.20149E+01   -0.20177E+01  8540   0.400E+01 0.567E-03
CGA:   3    -0.128525805966E+04   -0.98668E+00   -0.98733E+00  8540   0.995E+00 0.173E-02
CGA:   4    -0.128546330373E+04   -0.20524E+00   -0.20530E+00  8540   0.183E+00-0.383E-04
CGA:   5    -0.128550260527E+04   -0.39302E-01   -0.39250E-01  8540   0.434E-01-0.372E-03
CGA:   6    -0.128551289063E+04   -0.10285E-01   -0.10221E-01  8540   0.118E-01-0.475E-03
CGA:   7    -0.128551596635E+04   -0.30757E-02   -0.30640E-02  8540   0.359E-02-0.112E-03
CGA:   8    -0.128551692398E+04   -0.95763E-03   -0.96523E-03  8540   0.105E-02 0.815E-04
CGA:   9    -0.128551727649E+04   -0.35252E-03   -0.35293E-03  8540   0.369E-03 0.135E-04
CGA:  10    -0.128551741201E+04   -0.13552E-03   -0.13558E-03  8540   0.146E-03-0.107E-04
CGA:  11    -0.128551746605E+04   -0.54033E-04   -0.54480E-04  8540   0.539E-04-0.165E-04
CGA:  12    -0.128551748538E+04   -0.19334E-04   -0.19774E-04  8540   0.248E-04-0.810E-05
CGA:  13    -0.128551749316E+04   -0.77831E-05   -0.77652E-05  8540   0.942E-05 0.243E-05
CGA:  14    -0.128551749223E+04    0.92901E-06   -0.12534E-04  8540   0.486E-04-0.159E-04
CGA:  15    -0.128551750237E+04   -0.10133E-04   -0.11545E-04  8540   0.481E-05 0.845E-05
CGA:  16    -0.128551750053E+04    0.18338E-05   -0.62860E-05  8540   0.263E-04-0.113E-04
  19 F= -.12855175E+04 E0= -.12855175E+04  d E =-.200666E+00  mag=   126.0000
       N       E                     dE             d eps       ncg     rms          ort
SDA:   1    -0.128493732059E+04    0.58018E+00    0.00000E+00  8540   0.187E+01 0.000E+00
CGA:   2    -0.128531433604E+04   -0.37702E+00   -0.37738E+00  8540   0.752E+00 0.384E-03
CGA:   3    -0.128550117202E+04   -0.18684E+00   -0.18699E+00  8540   0.191E+00 0.493E-03
CGA:   4    -0.128554062849E+04   -0.39456E-01   -0.39466E-01  8540   0.346E-01-0.306E-05
CGA:   5    -0.128554814431E+04   -0.75158E-02   -0.74855E-02  8540   0.828E-02-0.183E-03
CGA:   6    -0.128555011493E+04   -0.19706E-02   -0.19436E-02  8540   0.226E-02-0.184E-03
CGA:   7    -0.128555070035E+04   -0.58542E-03   -0.57969E-03  8540   0.692E-03-0.501E-04
CGA:   8    -0.128555088213E+04   -0.18178E-03   -0.18267E-03  8540   0.201E-03 0.858E-05
CGA:   9    -0.128555095610E+04   -0.73978E-04   -0.73908E-04  8540   0.854E-04-0.174E-04
CGA:  10    -0.128555099003E+04   -0.33921E-04   -0.40289E-04  8540   0.779E-04-0.426E-04
CGA:  11    -0.128555098618E+04    0.38465E-05   -0.29052E-04  8540   0.159E-03-0.889E-04
CGA:  12    -0.128555101964E+04   -0.33460E-04   -0.36016E-04  8540   0.316E-04 0.153E-04
CGA:  13    -0.128555103590E+04   -0.16264E-04   -0.16447E-04  8540   0.135E-04-0.204E-05
CGA:  14    -0.128555103990E+04   -0.39923E-05   -0.41796E-05  8540   0.417E-05 0.321E-05
  20 F= -.12855510E+04 E0= -.12855510E+04  d E =-.335394E-01  mag=   126.0000
       N       E                     dE             d eps       ncg     rms          ort
SDA:   1    -0.128525331537E+04    0.29772E+00    0.00000E+00  8540   0.972E+00 0.000E+00
CGA:   2    -0.128544642704E+04   -0.19311E+00   -0.19326E+00  8540   0.384E+00 0.287E-03
CGA:   3    -0.128554279941E+04   -0.96372E-01   -0.96413E-01  8540   0.102E+00 0.119E-03
CGA:   4    -0.128556393447E+04   -0.21135E-01   -0.21137E-01  8540   0.180E-01-0.134E-04
CGA:   5    -0.128556783922E+04   -0.39047E-02   -0.38898E-02  8540   0.430E-02-0.109E-03
CGA:   6    -0.128556884489E+04   -0.10057E-02   -0.99711E-03  8540   0.117E-02-0.721E-04
CGA:   7    -0.128556913142E+04   -0.28652E-03   -0.28819E-03  8540   0.331E-03 0.170E-04
CGA:   8    -0.128556921648E+04   -0.85061E-04   -0.87159E-04  8540   0.928E-04 0.249E-04
CGA:   9    -0.128556924857E+04   -0.32093E-04   -0.32230E-04  8540   0.340E-04 0.822E-05
CGA:  10    -0.128556926319E+04   -0.14621E-04   -0.14772E-04  8540   0.178E-04-0.255E-05
CGA:  11    -0.128556926983E+04   -0.66425E-05   -0.70291E-05  8540   0.883E-05-0.458E-05
  21 F= -.12855693E+04 E0= -.12855693E+04  d E =-.182299E-01  mag=   126.0000
       N       E                     dE             d eps       ncg     rms          ort
SDA:   1    -0.128517091846E+04    0.39834E+00    0.00000E+00  8540   0.120E+01 0.000E+00
CGA:   2    -0.128544229265E+04   -0.27137E+00   -0.27148E+00  8540   0.538E+00 0.519E-03
CGA:   3    -0.128556407963E+04   -0.12179E+00   -0.12184E+00  8540   0.115E+00 0.372E-03
CGA:   4    -0.128558813074E+04   -0.24051E-01   -0.24058E-01  8540   0.208E-01 0.436E-04
CGA:   5    -0.128559269515E+04   -0.45644E-02   -0.45460E-02  8540   0.499E-02-0.186E-03
CGA:   6    -0.128559388134E+04   -0.11862E-02   -0.11810E-02  8540   0.143E-02-0.688E-04
CGA:   7    -0.128559422074E+04   -0.33940E-03   -0.34372E-03  8540   0.391E-03 0.634E-04
CGA:   8    -0.128559431762E+04   -0.96883E-04   -0.10100E-03  8540   0.112E-03 0.663E-04
CGA:   9    -0.128559434994E+04   -0.32318E-04   -0.34040E-04  8540   0.397E-04 0.368E-04
CGA:  10    -0.128559436198E+04   -0.12036E-04   -0.13069E-04  8540   0.170E-04 0.185E-04
CGA:  11    -0.128559436617E+04   -0.41893E-05   -0.52961E-05  8540   0.830E-05 0.125E-04
  22 F= -.12855944E+04 E0= -.12855944E+04  d E =-.250963E-01  mag=   126.0000
       N       E                     dE             d eps       ncg     rms          ort
SDA:   1    -0.127629364746E+04    0.93007E+01    0.00000E+00  8540   0.278E+02 0.000E+00
CGA:   2    -0.128200418591E+04   -0.57105E+01   -0.57217E+01  8540   0.115E+02 0.439E-01
CGA:   3    -0.128480419472E+04   -0.28000E+01   -0.28006E+01  8540   0.276E+01 0.791E-02
CGA:   4    -0.128537164872E+04   -0.56745E+00   -0.56706E+00  8540   0.504E+00-0.530E-02
CGA:   5    -0.128548071602E+04   -0.10907E+00   -0.10903E+00  8540   0.123E+00-0.865E-03
CGA:   6    -0.128550896293E+04   -0.28247E-01   -0.28258E-01  8540   0.321E-01 0.203E-03
CGA:   7    -0.128551729741E+04   -0.83345E-02   -0.83408E-02  8540   0.966E-02 0.424E-03
CGA:   8    -0.128552003945E+04   -0.27420E-02   -0.27408E-02  8540   0.298E-02 0.183E-03
CGA:   9    -0.128552107380E+04   -0.10344E-02   -0.10348E-02  8540   0.112E-02-0.868E-05
CGA:  10    -0.128552140540E+04   -0.33160E-03   -0.32850E-03  8540   0.348E-03 0.167E-03
CGA:  11    -0.128552149862E+04   -0.93217E-04   -0.97634E-04  8540   0.112E-03 0.131E-03
CGA:  12    -0.128552152660E+04   -0.27984E-04   -0.32496E-04  8540   0.497E-04 0.686E-04
CGA:  13    -0.128552153419E+04   -0.75916E-05   -0.10030E-04  8540   0.290E-04 0.344E-04
  23 F= -.12855215E+04 E0= -.12855215E+04  d E =0.728320E-01  mag=   126.0000
       N       E                     dE             d eps       ncg     rms          ort
SDA:   1    -0.128187878686E+04    0.36427E+01    0.00000E+00  8540   0.115E+02 0.000E+00
CGA:   2    -0.128424618253E+04   -0.23674E+01   -0.23689E+01  8540   0.473E+01 0.115E-01
CGA:   3    -0.128539530856E+04   -0.11491E+01   -0.11493E+01  8540   0.113E+01 0.442E-02
CGA:   4    -0.128562840890E+04   -0.23310E+00   -0.23314E+00  8540   0.209E+00 0.411E-03
CGA:   5    -0.128567373161E+04   -0.45323E-01   -0.45299E-01  8540   0.502E-01-0.665E-03
CGA:   6    -0.128568561931E+04   -0.11888E-01   -0.11870E-01  8540   0.140E-01-0.101E-02
CGA:   7    -0.128568921204E+04   -0.35927E-02   -0.35944E-02  8540   0.427E-02-0.205E-03
CGA:   8    -0.128569033556E+04   -0.11235E-02   -0.11217E-02  8540   0.121E-02 0.151E-03
CGA:   9    -0.128569075331E+04   -0.41775E-03   -0.41629E-03  8540   0.431E-03 0.183E-04
CGA:  10    -0.128569091187E+04   -0.15856E-03   -0.16089E-03  8540   0.176E-03-0.218E-04
CGA:  11    -0.128569097591E+04   -0.64044E-04   -0.72153E-04  8540   0.861E-04-0.486E-04
CGA:  12    -0.128569099498E+04   -0.19064E-04   -0.18994E-04  8540   0.292E-04 0.208E-05
CGA:  13    -0.128569100480E+04   -0.98213E-05   -0.96182E-05  8540   0.125E-04 0.426E-05
  24 F= -.12856910E+04 E0= -.12856910E+04  d E =-.169471E+00  mag=   126.0000
       N       E                     dE             d eps       ncg     rms          ort
SDA:   1    -0.128543424794E+04    0.25675E+00    0.00000E+00  8540   0.865E+00 0.000E+00
CGA:   2    -0.128561118648E+04   -0.17694E+00   -0.17701E+00  8540   0.350E+00 0.582E-03
CGA:   3    -0.128569637636E+04   -0.85190E-01   -0.85206E-01  8540   0.876E-01 0.319E-03
CGA:   4    -0.128571465115E+04   -0.18275E-01   -0.18281E-01  8540   0.163E-01 0.804E-04
CGA:   5    -0.128571817190E+04   -0.35208E-02   -0.35137E-02  8540   0.387E-02-0.138E-03
CGA:   6    -0.128571910795E+04   -0.93605E-03   -0.93111E-03  8540   0.115E-02-0.206E-03
CGA:   7    -0.128571939107E+04   -0.28311E-03   -0.28290E-03  8540   0.347E-03-0.437E-04
CGA:   8    -0.128571947945E+04   -0.88381E-04   -0.88381E-04  8540   0.988E-04 0.415E-05
CGA:   9    -0.128571951776E+04   -0.38310E-04   -0.43405E-04  8540   0.641E-04-0.302E-04
CGA:  10    -0.128571948197E+04    0.35783E-04   -0.44224E-04  8540   0.327E-03-0.111E-03
CGA:  11    -0.128571955602E+04   -0.74041E-04   -0.72105E-04  8540   0.483E-04-0.218E-04
CGA:  12    -0.128571956726E+04   -0.11246E-04   -0.11783E-04  8540   0.102E-04 0.122E-04
CGA:  13    -0.128571956161E+04    0.56558E-05   -0.15595E-04  8540   0.804E-04-0.233E-04
CGA:  14    -0.128571957581E+04   -0.14202E-04   -0.16008E-04  8540   0.611E-05 0.121E-04
CGA:  15    -0.128571957649E+04   -0.68630E-06   -0.61231E-05  8540   0.207E-04-0.102E-04
  25 F= -.12857196E+04 E0= -.12857196E+04  d E =-.285717E-01  mag=   126.0000
       N       E                     dE             d eps       ncg     rms          ort
SDA:   1    -0.128508576473E+04    0.63381E+00    0.00000E+00  8540   0.196E+01 0.000E+00
CGA:   2    -0.128551154736E+04   -0.42578E+00   -0.42604E+00  8540   0.839E+00 0.882E-03
CGA:   3    -0.128570510303E+04   -0.19356E+00   -0.19364E+00  8540   0.193E+00 0.446E-03
CGA:   4    -0.128574572034E+04   -0.40617E-01   -0.40618E-01  8540   0.363E-01-0.288E-04
CGA:   5    -0.128575354537E+04   -0.78250E-02   -0.77962E-02  8540   0.851E-02-0.249E-03
CGA:   6    -0.128575559037E+04   -0.20450E-02   -0.20258E-02  8540   0.250E-02-0.213E-03
CGA:   7    -0.128575621526E+04   -0.62489E-03   -0.62439E-03  8540   0.725E-03-0.762E-05
CGA:   8    -0.128575640334E+04   -0.18808E-03   -0.19061E-03  8540   0.212E-03 0.425E-04
CGA:   9    -0.128575647859E+04   -0.75251E-04   -0.75189E-04  8540   0.784E-04 0.391E-05
CGA:  10    -0.128575651228E+04   -0.33689E-04   -0.38423E-04  8540   0.628E-04-0.295E-04
CGA:  11    -0.128575652260E+04   -0.10319E-04   -0.23144E-04  8540   0.748E-04-0.490E-04
CGA:  12    -0.128575653788E+04   -0.15276E-04   -0.16689E-04  8540   0.151E-04 0.119E-04
CGA:  13    -0.128575654468E+04   -0.68022E-05   -0.66940E-05  8540   0.538E-05 0.236E-05
  26 F= -.12857565E+04 E0= -.12857565E+04  d E =-.369682E-01  mag=   126.0000
       N       E                     dE             d eps       ncg     rms          ort
SDA:   1    -0.128529835037E+04    0.45819E+00    0.00000E+00  8540   0.135E+01 0.000E+00
CGA:   2    -0.128565026619E+04   -0.35192E+00   -0.35193E+00  8540   0.620E+00-0.959E-04
CGA:   3    -0.128577579119E+04   -0.12553E+00   -0.12558E+00  8540   0.118E+00 0.322E-03
CGA:   4    -0.128580090943E+04   -0.25118E-01   -0.25126E-01  8540   0.222E-01 0.482E-04
CGA:   5    -0.128580574953E+04   -0.48401E-02   -0.48032E-02  8540   0.530E-02-0.314E-03
CGA:   6    -0.128580706306E+04   -0.13135E-02   -0.12979E-02  8540   0.164E-02-0.190E-03
CGA:   7    -0.128580744692E+04   -0.38385E-03   -0.38833E-03  8540   0.462E-03 0.550E-04
CGA:   8    -0.128580756665E+04   -0.11973E-03   -0.12417E-03  8540   0.145E-03 0.710E-04
CGA:   9    -0.128580761733E+04   -0.50684E-04   -0.51025E-04  8540   0.548E-04 0.244E-04
CGA:  10    -0.128580763969E+04   -0.22351E-04   -0.22202E-04  8540   0.268E-04 0.523E-05
CGA:  11    -0.128580765176E+04   -0.12076E-04   -0.12164E-04  8540   0.157E-04-0.102E-05
CGA:  12    -0.128580765443E+04   -0.26719E-05   -0.34061E-05  8540   0.796E-05 0.733E-05
  27 F= -.12858077E+04 E0= -.12858077E+04  d E =-.511098E-01  mag=   126.0000
       N       E                     dE             d eps       ncg     rms          ort
SDA:   1    -0.127228173174E+04    0.13526E+02    0.00000E+00  8540   0.414E+02 0.000E+00
CGA:   2    -0.128054990179E+04   -0.82682E+01   -0.82980E+01  8540   0.164E+02 0.509E-01
CGA:   3    -0.128460209318E+04   -0.40522E+01   -0.40539E+01  8540   0.412E+01 0.186E-01
CGA:   4    -0.128545661311E+04   -0.85452E+00   -0.85398E+00  8540   0.761E+00-0.661E-02
CGA:   5    -0.128561965686E+04   -0.16304E+00   -0.16293E+00  8540   0.183E+00-0.186E-02
CGA:   6    -0.128566198361E+04   -0.42327E-01   -0.42321E-01  8540   0.489E-01-0.165E-03
CGA:   7    -0.128567467882E+04   -0.12695E-01   -0.12705E-01  8540   0.148E-01 0.305E-03
CGA:   8    -0.128567882647E+04   -0.41477E-02   -0.41498E-02  8540   0.458E-02 0.206E-03
CGA:   9    -0.128568041513E+04   -0.15887E-02   -0.15919E-02  8540   0.172E-02-0.618E-04
CGA:  10    -0.128568096703E+04   -0.55190E-03   -0.54865E-03  8540   0.573E-03 0.102E-03
CGA:  11    -0.128568113767E+04   -0.17064E-03   -0.17180E-03  8540   0.163E-03 0.121E-03
CGA:  12    -0.128568119574E+04   -0.58071E-04   -0.57992E-04  8540   0.663E-04 0.484E-04
CGA:  13    -0.128568121373E+04   -0.17994E-04   -0.20453E-04  8540   0.356E-04 0.449E-04
CGA:  14    -0.128568122050E+04   -0.67615E-05   -0.81802E-05  8540   0.198E-04 0.235E-04
  28 F= -.12856812E+04 E0= -.12856812E+04  d E =0.126434E+00  mag=   126.0000
       N       E                     dE             d eps       ncg     rms          ort
SDA:   1    -0.128052839606E+04    0.51528E+01    0.00000E+00  8540   0.163E+02 0.000E+00
CGA:   2    -0.128387304600E+04   -0.33446E+01   -0.33487E+01  8540   0.662E+01 0.153E-01
CGA:   3    -0.128547180187E+04   -0.15988E+01   -0.15990E+01  8540   0.158E+01 0.373E-02
CGA:   4    -0.128580086259E+04   -0.32906E+00   -0.32911E+00  8540   0.301E+00 0.113E-03
CGA:   5    -0.128586531782E+04   -0.64455E-01   -0.64441E-01  8540   0.717E-01-0.370E-03
CGA:   6    -0.128588210603E+04   -0.16788E-01   -0.16757E-01  8540   0.198E-01-0.831E-03
CGA:   7    -0.128588723215E+04   -0.51261E-02   -0.51258E-02  8540   0.604E-02-0.439E-04
CGA:   8    -0.128588885346E+04   -0.16213E-02   -0.16214E-02  8540   0.175E-02 0.226E-03
CGA:   9    -0.128588945686E+04   -0.60340E-03   -0.59972E-03  8540   0.621E-03 0.608E-04
CGA:  10    -0.128588966119E+04   -0.20433E-03   -0.20144E-03  8540   0.207E-03 0.707E-04
CGA:  11    -0.128588973466E+04   -0.73474E-04   -0.72237E-04  8540   0.643E-04 0.325E-04
CGA:  12    -0.128588975924E+04   -0.24573E-04   -0.23913E-04  8540   0.251E-04 0.146E-04
CGA:  13    -0.128588976293E+04   -0.36897E-05   -0.55855E-05  8540   0.135E-04 0.194E-04
  29 F= -.12858898E+04 E0= -.12858898E+04  d E =-.208542E+00  mag=   126.0000
       N       E                     dE             d eps       ncg     rms          ort
SDA:   1    -0.128529190190E+04    0.59786E+00    0.00000E+00  8540   0.190E+01 0.000E+00
CGA:   2    -0.128568041218E+04   -0.38851E+00   -0.38868E+00  8540   0.769E+00 0.149E-02
CGA:   3    -0.128586802011E+04   -0.18761E+00   -0.18763E+00  8540   0.190E+00 0.421E-03
CGA:   4    -0.128590778906E+04   -0.39769E-01   -0.39759E-01  8540   0.356E-01-0.215E-03
CGA:   5    -0.128591540308E+04   -0.76140E-02   -0.76082E-02  8540   0.846E-02-0.131E-03
CGA:   6    -0.128591737749E+04   -0.19744E-02   -0.19711E-02  8540   0.236E-02-0.129E-03
CGA:   7    -0.128591797590E+04   -0.59841E-03   -0.59841E-03  8540   0.703E-03-0.806E-05
CGA:   8    -0.128591816988E+04   -0.19398E-03   -0.19394E-03  8540   0.216E-03 0.207E-05
CGA:   9    -0.128591825156E+04   -0.81680E-04   -0.89685E-04  8540   0.122E-03-0.518E-04
CGA:  10    -0.128591828362E+04   -0.32054E-04   -0.34797E-04  8540   0.554E-04-0.258E-04
CGA:  11    -0.128591829358E+04   -0.99595E-05   -0.27309E-04  8540   0.783E-04-0.493E-04
CGA:  12    -0.128591831299E+04   -0.19415E-04   -0.19412E-04  8540   0.124E-04-0.863E-07
CGA:  13    -0.128591825652E+04    0.56475E-04   -0.30515E-04  8540   0.307E-03-0.506E-04
CGA:  14    -0.128591831630E+04   -0.59783E-04   -0.64895E-04  8540   0.253E-04 0.162E-04
CGA:  15    -0.128591832543E+04   -0.91350E-05   -0.23046E-04  8540   0.693E-04-0.390E-04
CGA:  16    -0.128591832702E+04   -0.15897E-05   -0.11506E-04  8540   0.154E-04 0.274E-04
  30 F= -.12859183E+04 E0= -.12859183E+04  d E =-.285641E-01  mag=   126.0000
       N       E                     dE             d eps       ncg     rms          ort
SDA:   1    -0.128553130655E+04    0.38702E+00    0.00000E+00  8540   0.117E+01 0.000E+00
CGA:   2    -0.128578321116E+04   -0.25190E+00   -0.25224E+00  8540   0.506E+00 0.630E-03
CGA:   3    -0.128590203708E+04   -0.11883E+00   -0.11886E+00  8540   0.117E+00-0.253E-04
CGA:   4    -0.128592631175E+04   -0.24275E-01   -0.24197E-01  8540   0.219E-01-0.309E-03
CGA:   5    -0.128593093678E+04   -0.46250E-02   -0.46061E-02  8540   0.521E-02-0.856E-04
CGA:   6    -0.128593214285E+04   -0.12061E-02   -0.12054E-02  8540   0.142E-02-0.445E-05
CGA:   7    -0.128593250118E+04   -0.35833E-03   -0.36118E-03  8540   0.410E-03 0.157E-04
CGA:   8    -0.128593262338E+04   -0.12220E-03   -0.12103E-03  8540   0.135E-03-0.903E-05
CGA:   9    -0.128593267728E+04   -0.53901E-04   -0.53538E-04  8540   0.727E-04-0.328E-04
CGA:  10    -0.128593269777E+04   -0.20486E-04   -0.19707E-04  8540   0.302E-04-0.135E-04
CGA:  11    -0.128593270798E+04   -0.10206E-04   -0.10225E-04  8540   0.146E-04-0.948E-05
CGA:  12    -0.128593271686E+04   -0.88875E-05    0.28327E-04  8540   0.751E-05-0.243E-05
  31 F= -.12859327E+04 E0= -.12859327E+04  d E =-.143898E-01  mag=   126.0000
       N       E                     dE             d eps       ncg     rms          ort
SDA:   1    -0.128551190398E+04    0.42080E+00    0.00000E+00  8540   0.113E+01 0.000E+00
CGA:   2    -0.128580410812E+04   -0.29220E+00   -0.29235E+00  8540   0.557E+00 0.622E-03
CGA:   3    -0.128591825033E+04   -0.11414E+00   -0.11412E+00  8540   0.104E+00-0.151E-03
CGA:   4    -0.128593936981E+04   -0.21119E-01   -0.21065E-01  8540   0.191E-01-0.293E-03
CGA:   5    -0.128594339717E+04   -0.40274E-02   -0.40094E-02  8540   0.463E-02-0.108E-03
CGA:   6    -0.128594446419E+04   -0.10670E-02   -0.10701E-02  8540   0.125E-02 0.205E-04
CGA:   7    -0.128594476091E+04   -0.29672E-03   -0.30542E-03  8540   0.353E-03 0.688E-04
CGA:   8    -0.128594486983E+04   -0.10892E-03   -0.11017E-03  8540   0.123E-03 0.183E-04
CGA:   9    -0.128594491836E+04   -0.48524E-04   -0.48751E-04  8540   0.577E-04-0.127E-04
CGA:  10    -0.128594493207E+04   -0.13712E-04   -0.14310E-04  8540   0.185E-04 0.701E-05
CGA:  11    -0.128594493684E+04   -0.47763E-05   -0.52958E-05  8540   0.681E-05 0.511E-05
  32 F= -.12859449E+04 E0= -.12859449E+04  d E =-.122200E-01  mag=   126.0000
       N       E                     dE             d eps       ncg     rms          ort
SDA:   1    -0.127254366944E+04    0.13401E+02    0.00000E+00  8540   0.402E+02 0.000E+00
CGA:   2    -0.128069334368E+04   -0.81497E+01   -0.81797E+01  8540   0.163E+02 0.207E-01
CGA:   3    -0.128468972423E+04   -0.39964E+01   -0.39986E+01  8540   0.409E+01 0.160E-01
CGA:   4    -0.128552985535E+04   -0.84013E+00   -0.83983E+00  8540   0.757E+00-0.357E-02
CGA:   5    -0.128569019743E+04   -0.16034E+00   -0.16022E+00  8540   0.180E+00-0.145E-02
CGA:   6    -0.128573198908E+04   -0.41792E-01   -0.41765E-01  8540   0.486E-01-0.349E-03
CGA:   7    -0.128574447324E+04   -0.12484E-01   -0.12508E-01  8540   0.144E-01 0.361E-03
CGA:   8    -0.128574846557E+04   -0.39923E-02   -0.40056E-02  8540   0.439E-02 0.301E-03
CGA:   9    -0.128574995472E+04   -0.14891E-02   -0.14884E-02  8540   0.161E-02 0.492E-04
CGA:  10    -0.128575046489E+04   -0.51017E-03   -0.51090E-03  8540   0.536E-03 0.155E-03
CGA:  11    -0.128575062576E+04   -0.16087E-03   -0.16564E-03  8540   0.160E-03 0.134E-03
CGA:  12    -0.128575067519E+04   -0.49429E-04   -0.52761E-04  8540   0.639E-04 0.644E-04
CGA:  13    -0.128575068725E+04   -0.12056E-04   -0.18004E-04  8540   0.364E-04 0.528E-04
CGA:  14    -0.128575069100E+04   -0.37537E-05   -0.69316E-05  8540   0.228E-04 0.270E-04
  33 F= -.12857507E+04 E0= -.12857507E+04  d E =0.194246E+00  mag=   126.0000
       N       E                     dE             d eps       ncg     rms          ort
SDA:   1    -0.128132864201E+04    0.44220E+01    0.00000E+00  8540   0.137E+02 0.000E+00
CGA:   2    -0.128420746089E+04   -0.28788E+01   -0.28816E+01  8540   0.572E+01 0.113E-01
CGA:   3    -0.128556355824E+04   -0.13561E+01   -0.13564E+01  8540   0.133E+01 0.328E-02
CGA:   4    -0.128583887304E+04   -0.27531E+00   -0.27532E+00  8540   0.257E+00-0.173E-03
CGA:   5    -0.128589335278E+04   -0.54480E-01   -0.54482E-01  8540   0.610E-01-0.498E-04
CGA:   6    -0.128590754449E+04   -0.14192E-01   -0.14176E-01  8540   0.168E-01-0.343E-03
CGA:   7    -0.128591192857E+04   -0.43841E-02   -0.43836E-02  8540   0.514E-02-0.296E-04
CGA:   8    -0.128591334803E+04   -0.14195E-02   -0.14196E-02  8540   0.157E-02 0.617E-04
CGA:   9    -0.128591389745E+04   -0.54941E-03   -0.55577E-03  8540   0.620E-03-0.881E-04
CGA:  10    -0.128591408487E+04   -0.18742E-03   -0.18700E-03  8540   0.205E-03 0.108E-04
CGA:  11    -0.128591415800E+04   -0.73135E-04   -0.73677E-04  8540   0.673E-04-0.792E-05
CGA:  12    -0.128591418527E+04   -0.27266E-04   -0.37657E-04  8540   0.725E-04-0.354E-04
CGA:  13    -0.128591420271E+04   -0.17436E-04   -0.17745E-04  8540   0.113E-04 0.540E-05
CGA:  14    -0.128591416844E+04    0.34264E-04   -0.19112E-04  8540   0.185E-03-0.357E-04
CGA:  15    -0.128591422411E+04   -0.55672E-04   -0.52318E-04  8540   0.355E-04-0.128E-04
CGA:  16    -0.128591422582E+04   -0.17059E-05   -0.57479E-05  8540   0.661E-05 0.113E-04
  34 F= -.12859142E+04 E0= -.12859142E+04  d E =-.163535E+00  mag=   126.0000
       N       E                     dE             d eps       ncg     rms          ort
SDA:   1    -0.128543149511E+04    0.48273E+00    0.00000E+00  8540   0.151E+01 0.000E+00
CGA:   2    -0.128574625929E+04   -0.31476E+00   -0.31514E+00  8540   0.631E+00 0.229E-03
CGA:   3    -0.128589697662E+04   -0.15072E+00   -0.15072E+00  8540   0.150E+00-0.281E-03
CGA:   4    -0.128592807149E+04   -0.31095E-01   -0.31027E-01  8540   0.281E-01-0.257E-03
CGA:   5    -0.128593403391E+04   -0.59624E-02   -0.59678E-02  8540   0.672E-02 0.128E-04
CGA:   6    -0.128593556774E+04   -0.15338E-02   -0.15409E-02  8540   0.182E-02 0.298E-04
CGA:   7    -0.128593603973E+04   -0.47199E-03   -0.47372E-03  8540   0.542E-03 0.928E-05
CGA:   8    -0.128593620672E+04   -0.16699E-03   -0.16264E-03  8540   0.189E-03-0.329E-04
CGA:   9    -0.128593628365E+04   -0.76938E-04   -0.77683E-04  8540   0.122E-03-0.649E-04
CGA:  10    -0.128593631047E+04   -0.26819E-04   -0.25066E-04  8540   0.443E-04-0.157E-04
CGA:  11    -0.128593632618E+04   -0.15703E-04   -0.15406E-04  8540   0.220E-04-0.143E-04
CGA:  12    -0.128593634021E+04   -0.14035E-04    0.25705E-04  8540   0.140E-04-0.567E-05
CGA:  13    -0.128593635261E+04   -0.12400E-04    0.51461E-05  8540   0.703E-05-0.188E-05
CGA:  14    -0.128593636076E+04   -0.81503E-05    0.21276E-05  8540   0.341E-05-0.129E-05
  35 F= -.12859364E+04 E0= -.12859364E+04  d E =-.221349E-01  mag=   126.0000
       N       E                     dE             d eps       ncg     rms          ort
SDA:   1    -0.128534515683E+04    0.59120E+00    0.00000E+00  8540   0.170E+01 0.000E+00
CGA:   2    -0.128572135047E+04   -0.37619E+00   -0.37651E+00  8540   0.775E+00 0.529E-03
CGA:   3    -0.128589992861E+04   -0.17858E+00   -0.17853E+00  8540   0.165E+00-0.525E-03
CGA:   4    -0.128593350073E+04   -0.33572E-01   -0.33486E-01  8540   0.297E-01-0.429E-03
CGA:   5    -0.128593993465E+04   -0.64339E-02   -0.64360E-02  8540   0.728E-02 0.239E-05
CGA:   6    -0.128594159383E+04   -0.16592E-02   -0.16699E-02  8540   0.191E-02 0.687E-04
CGA:   7    -0.128594208293E+04   -0.48910E-03   -0.49258E-03  8540   0.562E-03 0.290E-04
CGA:   8    -0.128594225765E+04   -0.17472E-03   -0.17269E-03  8540   0.202E-03-0.311E-04
CGA:   9    -0.128594233172E+04   -0.74066E-04   -0.75394E-04  8540   0.998E-04-0.453E-04
CGA:  10    -0.128594235396E+04   -0.22243E-04   -0.22256E-04  8540   0.299E-04 0.129E-06
CGA:  11    -0.128594236399E+04   -0.10034E-04   -0.99610E-05  8540   0.103E-04-0.245E-05
CGA:  12    -0.128594237188E+04   -0.78849E-05    0.10795E-04  8540   0.479E-05-0.831E-06
  36 F= -.12859424E+04 E0= -.12859424E+04  d E =-.601112E-02  mag=   126.0000
       N       E                     dE             d eps       ncg     rms          ort
SDA:   1    -0.128584684133E+04    0.95523E-01    0.00000E+00  8540   0.250E+00 0.000E+00
CGA:   2    -0.128591224406E+04   -0.65403E-01   -0.65404E-01  8540   0.127E+00-0.724E-04
CGA:   3    -0.128593833419E+04   -0.26090E-01   -0.26072E-01  8540   0.209E-01-0.127E-03
CGA:   4    -0.128594259912E+04   -0.42649E-02   -0.42649E-02  8540   0.387E-02-0.162E-05
CGA:   5    -0.128594345385E+04   -0.85473E-03   -0.85274E-03  8540   0.959E-03-0.176E-04
CGA:   6    -0.128594367278E+04   -0.21893E-03   -0.21912E-03  8540   0.248E-03 0.161E-05
CGA:   7    -0.128594373109E+04   -0.58304E-04   -0.59835E-04  8540   0.706E-04 0.173E-04
CGA:   8    -0.128594375061E+04   -0.19526E-04   -0.20130E-04  8540   0.220E-04 0.103E-04
CGA:   9    -0.128594375719E+04   -0.65707E-05   -0.68681E-05  8540   0.754E-05 0.602E-05
  37 F= -.12859438E+04 E0= -.12859438E+04  d E =-.138531E-02  mag=   126.0000
       N       E                     dE             d eps       ncg     rms          ort
SDA:   1    -0.128429825807E+04    0.16455E+01    0.00000E+00  8540   0.407E+01 0.000E+00
CGA:   2    -0.128544907311E+04   -0.11508E+01   -0.11508E+01  8540   0.208E+01-0.475E-03
CGA:   3    -0.128585352921E+04   -0.40446E+00   -0.40447E+00  8540   0.318E+00 0.223E-06
CGA:   4    -0.128591920594E+04   -0.65677E-01   -0.65732E-01  8540   0.596E-01 0.551E-03
CGA:   5    -0.128593238555E+04   -0.13180E-01   -0.13180E-01  8540   0.146E-01-0.891E-05
CGA:   6    -0.128593577523E+04   -0.33897E-02   -0.33883E-02  8540   0.385E-02-0.247E-04
CGA:   7    -0.128593675702E+04   -0.98179E-03   -0.98578E-03  8540   0.120E-02 0.104E-03
CGA:   8    -0.128593710684E+04   -0.34981E-03   -0.35043E-03  8540   0.396E-03 0.876E-04
CGA:   9    -0.128593724245E+04   -0.13561E-03   -0.13460E-03  8540   0.131E-03 0.405E-04
CGA:  10    -0.128593728236E+04   -0.39912E-04   -0.40339E-04  8540   0.398E-04 0.298E-04
CGA:  11    -0.128593729192E+04   -0.95523E-05   -0.10931E-04  8540   0.148E-04 0.200E-04
  38 F= -.12859373E+04 E0= -.12859373E+04  d E =0.646527E-02  mag=   126.0000
       N       E                     dE             d eps       ncg     rms          ort
SDA:   1    -0.128328740439E+04    0.26499E+01    0.00000E+00  8540   0.633E+01 0.000E+00
CGA:   2    -0.128523076600E+04   -0.19434E+01   -0.19434E+01  8540   0.313E+01-0.298E-02
CGA:   3    -0.128580167040E+04   -0.57090E+00   -0.57092E+00  8540   0.461E+00-0.405E-03
CGA:   4    -0.128589835871E+04   -0.96688E-01   -0.96764E-01  8540   0.890E-01 0.104E-02
CGA:   5    -0.128591785904E+04   -0.19500E-01   -0.19503E-01  8540   0.211E-01 0.307E-04
CGA:   6    -0.128592277185E+04   -0.49128E-02   -0.49109E-02  8540   0.570E-02-0.506E-04
CGA:   7    -0.128592425352E+04   -0.14817E-02   -0.14830E-02  8540   0.181E-02 0.114E-03
CGA:   8    -0.128592480435E+04   -0.55082E-03   -0.54852E-03  8540   0.647E-03 0.887E-04
CGA:   9    -0.128592503333E+04   -0.22898E-03   -0.22757E-03  8540   0.216E-03 0.226E-04
CGA:  10    -0.128592510594E+04   -0.72612E-04   -0.72244E-04  8540   0.674E-04 0.782E-05
CGA:  11    -0.128592512778E+04   -0.21841E-04   -0.21560E-04  8540   0.214E-04 0.919E-05
CGA:  12    -0.128592513433E+04   -0.65481E-05   -0.66180E-05  8540   0.922E-05 0.907E-05
  39 F= -.12859251E+04 E0= -.12859251E+04  d E =0.121576E-01  mag=   126.0000
       N       E                     dE             d eps       ncg     rms          ort
SDA:   1    -0.128488806248E+04    0.10371E+01    0.00000E+00  8540   0.279E+01 0.000E+00
CGA:   2    -0.128556276796E+04   -0.67471E+00   -0.67480E+00  8540   0.138E+01 0.120E-02
CGA:   3    -0.128586442248E+04   -0.30165E+00   -0.30163E+00  8540   0.254E+00-0.584E-03
CGA:   4    -0.128591531597E+04   -0.50893E-01   -0.50891E-01  8540   0.458E-01-0.599E-04
CGA:   5    -0.128592533171E+04   -0.10016E-01   -0.10019E-01  8540   0.114E-01 0.376E-04
CGA:   6    -0.128592798026E+04   -0.26485E-02   -0.26481E-02  8540   0.290E-02-0.151E-04
CGA:   7    -0.128592872086E+04   -0.74060E-03   -0.74048E-03  8540   0.876E-03-0.110E-04
CGA:   8    -0.128592897585E+04   -0.25499E-03   -0.25518E-03  8540   0.288E-03-0.795E-05
CGA:   9    -0.128592907772E+04   -0.10187E-03   -0.10612E-03  8540   0.124E-03-0.412E-04
CGA:  10    -0.128592911624E+04   -0.38518E-04   -0.43274E-04  8540   0.623E-04-0.360E-04
CGA:  11    -0.128592913073E+04   -0.14494E-04   -0.22341E-04  8540   0.503E-04-0.350E-04
CGA:  12    -0.128592914546E+04   -0.14730E-04   -0.14746E-04  8540   0.156E-04-0.897E-05
CGA:  13    -0.128592915357E+04   -0.81093E-05    0.21698E-04  8540   0.353E-05 0.228E-05
  40 F= -.12859292E+04 E0= -.12859292E+04  d E =-.401924E-02  mag=   126.0000
       N       E                     dE             d eps       ncg     rms          ort
SDA:   1    -0.128562596404E+04    0.30318E+00    0.00000E+00  8540   0.861E+00 0.000E+00
CGA:   2    -0.128583204709E+04   -0.20608E+00   -0.20609E+00  8540   0.411E+00-0.296E-03
CGA:   3    -0.128592222526E+04   -0.90178E-01   -0.90204E-01  8540   0.802E-01 0.293E-03
CGA:   4    -0.128593843932E+04   -0.16214E-01   -0.16241E-01  8540   0.143E-01 0.311E-03
CGA:   5    -0.128594151156E+04   -0.30722E-02   -0.30779E-02  8540   0.343E-02 0.793E-04
CGA:   6    -0.128594234032E+04   -0.82876E-03   -0.82701E-03  8540   0.956E-03-0.472E-04
CGA:   7    -0.128594258595E+04   -0.24564E-03   -0.24534E-03  8540   0.299E-03-0.192E-04
CGA:   8    -0.128594266840E+04   -0.82444E-04   -0.82407E-04  8540   0.919E-04 0.585E-05
CGA:   9    -0.128594270030E+04   -0.31905E-04   -0.32182E-04  8540   0.352E-04-0.410E-05
CGA:  10    -0.128594271345E+04   -0.13144E-04   -0.16159E-04  8540   0.270E-04-0.150E-04
CGA:  11    -0.128594270744E+04    0.60056E-05   -0.12959E-04  8540   0.774E-04-0.348E-04
CGA:  12    -0.128594272496E+04   -0.17519E-04   -0.17681E-04  8540   0.137E-04 0.183E-05
CGA:  13    -0.128594272013E+04    0.48340E-05   -0.16336E-04  8540   0.708E-04-0.247E-04
CGA:  14    -0.128594273206E+04   -0.11936E-04   -0.14190E-04  8540   0.910E-05 0.146E-04
CGA:  15    -0.128594273658E+04   -0.45205E-05   -0.56624E-05  8540   0.607E-05-0.676E-05
  41 F= -.12859427E+04 E0= -.12859427E+04  d E =-.135830E-01  mag=   126.0000
       N       E                     dE             d eps       ncg     rms          ort
SDA:   1    -0.128582385967E+04    0.11887E+00    0.00000E+00  8540   0.350E+00 0.000E+00
CGA:   2    -0.128590435993E+04   -0.80500E-01   -0.80500E-01  8540   0.165E+00-0.149E-03
CGA:   3    -0.128594185795E+04   -0.37498E-01   -0.37490E-01  8540   0.343E-01-0.869E-04
CGA:   4    -0.128594859452E+04   -0.67366E-02   -0.67595E-02  8540   0.584E-02 0.167E-03
CGA:   5    -0.128594985106E+04   -0.12565E-02   -0.12594E-02  8540   0.145E-02 0.229E-04
CGA:   6    -0.128595020184E+04   -0.35078E-03   -0.34725E-03  8540   0.400E-03-0.433E-04
CGA:   7    -0.128595030261E+04   -0.10076E-03   -0.99714E-04  8540   0.122E-03-0.177E-04
CGA:   8    -0.128595033313E+04   -0.30523E-04   -0.30870E-04  8540   0.337E-04 0.708E-05
CGA:   9    -0.128595034129E+04   -0.81655E-05   -0.87699E-05  8540   0.102E-04 0.927E-05
  42 F= -.12859503E+04 E0= -.12859503E+04  d E =-.760471E-02  mag=   126.0000
       N       E                     dE             d eps       ncg     rms          ort
SDA:   1    -0.128498599894E+04    0.96433E+00    0.00000E+00  8540   0.265E+01 0.000E+00
CGA:   2    -0.128561443920E+04   -0.62844E+00   -0.62852E+00  8540   0.128E+01-0.700E-04
CGA:   3    -0.128589901992E+04   -0.28458E+00   -0.28460E+00  8540   0.256E+00 0.241E-03
CGA:   4    -0.128594936815E+04   -0.50348E-01   -0.50430E-01  8540   0.436E-01 0.794E-03
CGA:   5    -0.128595877537E+04   -0.94072E-02   -0.94171E-02  8540   0.109E-01 0.107E-03
CGA:   6    -0.128596133557E+04   -0.25602E-02   -0.25521E-02  8540   0.290E-02-0.143E-03
CGA:   7    -0.128596205536E+04   -0.71979E-03   -0.71892E-03  8540   0.856E-03-0.244E-04
CGA:   8    -0.128596228384E+04   -0.22848E-03   -0.22945E-03  8540   0.249E-03 0.646E-04
CGA:   9    -0.128596235819E+04   -0.74351E-04   -0.74633E-04  8540   0.820E-04 0.498E-04
CGA:  10    -0.128596238926E+04   -0.31077E-04   -0.30576E-04  8540   0.340E-04 0.189E-04
CGA:  11    -0.128596240362E+04   -0.14359E-04   -0.13976E-04  8540   0.155E-04 0.790E-05
CGA:  12    -0.128596240880E+04   -0.51812E-05   -0.52679E-05  8540   0.736E-05 0.744E-05
  43 F= -.12859624E+04 E0= -.12859624E+04  d E =-.120675E-01  mag=   126.0000
       N       E                     dE             d eps       ncg     rms          ort
SDA:   1    -0.128337358903E+04    0.25888E+01    0.00000E+00  8540   0.662E+01 0.000E+00
CGA:   2    -0.128513639862E+04   -0.17628E+01   -0.17628E+01  8540   0.328E+01-0.244E-03
CGA:   3    -0.128580640738E+04   -0.67001E+00   -0.67006E+00  8540   0.582E+00 0.107E-03
CGA:   4    -0.128592336953E+04   -0.11696E+00   -0.11707E+00  8540   0.103E+00 0.118E-02
CGA:   5    -0.128594573810E+04   -0.22369E-01   -0.22395E-01  8540   0.250E-01 0.373E-03
CGA:   6    -0.128595161372E+04   -0.58756E-02   -0.58740E-02  8540   0.683E-02-0.434E-04
CGA:   7    -0.128595340040E+04   -0.17867E-02   -0.17857E-02  8540   0.219E-02-0.818E-04
CGA:   8    -0.128595404187E+04   -0.64148E-03   -0.64023E-03  8540   0.743E-03 0.568E-04
CGA:   9    -0.128595428419E+04   -0.24232E-03   -0.23965E-03  8540   0.254E-03 0.673E-04
CGA:  10    -0.128595438560E+04   -0.10141E-03   -0.10109E-03  8540   0.110E-03 0.343E-05
CGA:  11    -0.128595442707E+04   -0.41469E-04   -0.40807E-04  8540   0.494E-04 0.751E-05
CGA:  12    -0.128595445276E+04   -0.25687E-04   -0.26476E-04  8540   0.380E-04-0.388E-05
CGA:  13    -0.128595436436E+04    0.88394E-04   -0.49931E-04  8540   0.449E-03-0.981E-04
CGA:  14    -0.128595446017E+04   -0.95803E-04   -0.10761E-03  8540   0.554E-04 0.393E-04
CGA:  15    -0.128595448920E+04   -0.29030E-04   -0.28529E-04  8540   0.271E-04-0.961E-05
CGA:  16    -0.128595449686E+04   -0.76640E-05   -0.80962E-05  8540   0.115E-04 0.267E-05
  44 F= -.12859545E+04 E0= -.12859545E+04  d E =0.791194E-02  mag=   126.0000
       N       E                     dE             d eps       ncg     rms          ort
SDA:   1    -0.128533185677E+04    0.62263E+00    0.00000E+00  8540   0.183E+01 0.000E+00
CGA:   2    -0.128572332163E+04   -0.39146E+00   -0.39185E+00  8540   0.812E+00 0.204E-03
CGA:   3    -0.128591543546E+04   -0.19211E+00   -0.19219E+00  8540   0.183E+00 0.238E-03
CGA:   4    -0.128595241443E+04   -0.36979E-01   -0.36974E-01  8540   0.321E-01-0.295E-04
CGA:   5    -0.128595932844E+04   -0.69140E-02   -0.69380E-02  8540   0.796E-02 0.793E-04
CGA:   6    -0.128596111841E+04   -0.17900E-02   -0.18167E-02  8540   0.197E-02 0.116E-03
CGA:   7    -0.128596160421E+04   -0.48579E-03   -0.49587E-03  8540   0.571E-03 0.515E-04
CGA:   8    -0.128596176625E+04   -0.16204E-03   -0.16440E-03  8540   0.174E-03 0.154E-04
CGA:   9    -0.128596182270E+04   -0.56449E-04   -0.57049E-04  8540   0.599E-04 0.556E-05
CGA:  10    -0.128596183510E+04   -0.12406E-04   -0.15453E-04  8540   0.190E-04 0.179E-04
CGA:  11    -0.128596183670E+04   -0.15986E-05   -0.44295E-05  8540   0.798E-05 0.122E-04
  45 F= -.12859618E+04 E0= -.12859618E+04  d E =-.733984E-02  mag=   126.0000
       N       E                     dE             d eps       ncg     rms          ort
SDA:   1    -0.128546175236E+04    0.50008E+00    0.00000E+00  8540   0.142E+01 0.000E+00
CGA:   2    -0.128578247918E+04   -0.32073E+00   -0.32098E+00  8540   0.656E+00 0.640E-03
CGA:   3    -0.128593467012E+04   -0.15219E+00   -0.15226E+00  8540   0.139E+00 0.339E-03
CGA:   4    -0.128596249340E+04   -0.27823E-01   -0.27809E-01  8540   0.236E-01-0.787E-04
CGA:   5    -0.128596755758E+04   -0.50642E-02   -0.50681E-02  8540   0.586E-02 0.165E-04
CGA:   6    -0.128596890917E+04   -0.13516E-02   -0.13599E-02  8540   0.149E-02 0.640E-04
CGA:   7    -0.128596926476E+04   -0.35559E-03   -0.36111E-03  8540   0.414E-03 0.493E-04
CGA:   8    -0.128596938071E+04   -0.11596E-03   -0.11801E-03  8540   0.125E-03 0.291E-04
CGA:   9    -0.128596942112E+04   -0.40407E-04   -0.40873E-04  8540   0.430E-04 0.122E-04
CGA:  10    -0.128596943085E+04   -0.97291E-05   -0.11342E-04  8540   0.145E-04 0.160E-04
  46 F= -.12859694E+04 E0= -.12859694E+04  d E =-.759415E-02  mag=   126.0000
       N       E                     dE             d eps       ncg     rms          ort
SDA:   1    -0.128579325710E+04    0.17616E+00    0.00000E+00  8540   0.462E+00 0.000E+00
CGA:   2    -0.128591061436E+04   -0.11736E+00   -0.11736E+00  8540   0.232E+00-0.137E-03
CGA:   3    -0.128595903592E+04   -0.48422E-01   -0.48444E-01  8540   0.409E-01 0.174E-03
CGA:   4    -0.128596730366E+04   -0.82677E-02   -0.82826E-02  8540   0.731E-02 0.126E-03
CGA:   5    -0.128596890753E+04   -0.16039E-02   -0.16067E-02  8540   0.179E-02 0.286E-04
CGA:   6    -0.128596932837E+04   -0.42085E-03   -0.42120E-03  8540   0.464E-03 0.456E-05
CGA:   7    -0.128596945035E+04   -0.12198E-03   -0.12182E-03  8540   0.146E-03-0.394E-05
CGA:   8    -0.128596948986E+04   -0.39506E-04   -0.39795E-04  8540   0.452E-04 0.107E-04
CGA:   9    -0.128596950236E+04   -0.12506E-04   -0.12879E-04  8540   0.137E-04 0.108E-04
CGA:  10    -0.128596950586E+04   -0.34953E-05   -0.39296E-05  8540   0.529E-05 0.651E-05
  47 F= -.12859695E+04 E0= -.12859695E+04  d E =-.750080E-04  mag=   126.0000
       N       E                     dE             d eps       ncg     rms          ort
SDA:   1    -0.128557438112E+04    0.39512E+00    0.00000E+00  8540   0.990E+00 0.000E+00
CGA:   2    -0.128585008704E+04   -0.27571E+00   -0.27571E+00  8540   0.498E+00-0.169E-03
CGA:   3    -0.128594670736E+04   -0.96620E-01   -0.96632E-01  8540   0.811E-01 0.128E-03
CGA:   4    -0.128596341468E+04   -0.16707E-01   -0.16723E-01  8540   0.149E-01 0.195E-03
CGA:   5    -0.128596666760E+04   -0.32529E-02   -0.32546E-02  8540   0.360E-02 0.239E-04
CGA:   6    -0.128596750842E+04   -0.84082E-03   -0.84080E-03  8540   0.958E-03-0.983E-06
CGA:   7    -0.128596776035E+04   -0.25194E-03   -0.25180E-03  8540   0.309E-03-0.112E-04
CGA:   8    -0.128596784962E+04   -0.89265E-04   -0.89071E-04  8540   0.105E-03 0.107E-04
CGA:   9    -0.128596788271E+04   -0.33093E-04   -0.32780E-04  8540   0.318E-04 0.112E-04
CGA:  10    -0.128596789387E+04   -0.11155E-04   -0.10986E-04  8540   0.110E-04 0.472E-05
CGA:  11    -0.128596789694E+04   -0.30758E-05   -0.31932E-05  8540   0.436E-05 0.465E-05
  48 F= -.12859679E+04 E0= -.12859679E+04  d E =0.160892E-02  mag=   126.0000
       N       E                     dE             d eps       ncg     rms          ort
SDA:   1    -0.128519868662E+04    0.76921E+00    0.00000E+00  8540   0.188E+01 0.000E+00
CGA:   2    -0.128575386518E+04   -0.55518E+00   -0.55518E+00  8540   0.929E+00-0.402E-03
CGA:   3    -0.128592735351E+04   -0.17349E+00   -0.17344E+00  8540   0.143E+00-0.568E-03
CGA:   4    -0.128595704590E+04   -0.29692E-01   -0.29695E-01  8540   0.276E-01 0.239E-04
CGA:   5    -0.128596297988E+04   -0.59340E-02   -0.59406E-02  8540   0.651E-02 0.121E-03
CGA:   6    -0.128596447126E+04   -0.14914E-02   -0.14941E-02  8540   0.169E-02 0.727E-04
CGA:   7    -0.128596492526E+04   -0.45400E-03   -0.45404E-03  8540   0.557E-03-0.196E-04
CGA:   8    -0.128596509319E+04   -0.16793E-03   -0.16764E-03  8540   0.200E-03 0.709E-05
CGA:   9    -0.128596516340E+04   -0.70210E-04   -0.70809E-04  8540   0.705E-04-0.712E-05
CGA:  10    -0.128596518693E+04   -0.23535E-04   -0.24110E-04  8540   0.257E-04-0.680E-05
CGA:  11    -0.128596519277E+04   -0.58359E-05   -0.59418E-05  8540   0.821E-05 0.586E-05
  49 F= -.12859652E+04 E0= -.12859652E+04  d E =0.270417E-02  mag=   126.0000
       N       E                     dE             d eps       ncg     rms          ort
SDA:   1    -0.128578990263E+04    0.17528E+00    0.00000E+00  8540   0.500E+00 0.000E+00
CGA:   2    -0.128590393591E+04   -0.11403E+00   -0.11408E+00  8540   0.236E+00 0.565E-03
CGA:   3    -0.128595724524E+04   -0.53309E-01   -0.53291E-01  8540   0.500E-01-0.399E-03
CGA:   4    -0.128596726076E+04   -0.10016E-01   -0.99926E-02  8540   0.903E-02-0.301E-03
CGA:   5    -0.128596916020E+04   -0.18994E-02   -0.18962E-02  8540   0.223E-02-0.554E-04
CGA:   6    -0.128596967128E+04   -0.51108E-03   -0.51097E-03  8540   0.586E-03-0.329E-05
CGA:   7    -0.128596980803E+04   -0.13676E-03   -0.13801E-03  8540   0.154E-03 0.390E-04
CGA:   8    -0.128596985767E+04   -0.49641E-04   -0.49689E-04  8540   0.537E-04-0.138E-05
CGA:   9    -0.128596987743E+04   -0.19754E-04   -0.27372E-04  8540   0.552E-04-0.310E-04
CGA:  10    -0.128596988559E+04   -0.81639E-05   -0.93644E-05  8540   0.716E-05 0.108E-04
  50 F= -.12859699E+04 E0= -.12859699E+04  d E =-.469282E-02  mag=   126.0000
       N       E                     dE             d eps       ncg     rms          ort
SDA:   1    -0.128586176512E+04    0.10811E+00    0.00000E+00  8540   0.281E+00 0.000E+00
CGA:   2    -0.128593893452E+04   -0.77169E-01   -0.77171E-01  8540   0.138E+00 0.899E-04
CGA:   3    -0.128596594961E+04   -0.27015E-01   -0.27012E-01  8540   0.233E-01-0.417E-04
CGA:   4    -0.128597074508E+04   -0.47955E-02   -0.48012E-02  8540   0.433E-02 0.779E-04
CGA:   5    -0.128597167893E+04   -0.93385E-03   -0.93268E-03  8540   0.104E-02-0.207E-04
CGA:   6    -0.128597193974E+04   -0.26080E-03   -0.25935E-03  8540   0.311E-03-0.679E-04
CGA:   7    -0.128597201107E+04   -0.71335E-04   -0.71372E-04  8540   0.902E-04 0.145E-05
CGA:   8    -0.128597203301E+04   -0.21939E-04   -0.22312E-04  8540   0.254E-04 0.162E-04
CGA:   9    -0.128597204155E+04   -0.85411E-05   -0.84657E-05  8540   0.917E-05 0.533E-05
  51 F= -.12859720E+04 E0= -.12859720E+04  d E =-.215596E-02  mag=   126.0000
       N       E                     dE             d eps       ncg     rms          ort
SDA:   1    -0.128593069035E+04    0.41343E-01    0.00000E+00  8540   0.111E+00 0.000E+00
CGA:   2    -0.128595898711E+04   -0.28297E-01   -0.28296E-01  8540   0.556E-01-0.704E-04
CGA:   3    -0.128597053325E+04   -0.11546E-01   -0.11549E-01  8540   0.987E-02 0.307E-04
CGA:   4    -0.128597250453E+04   -0.19713E-02   -0.19766E-02  8540   0.181E-02 0.720E-04
CGA:   5    -0.128597290310E+04   -0.39857E-03   -0.39672E-03  8540   0.460E-03-0.357E-04
CGA:   6    -0.128597301923E+04   -0.11613E-03   -0.11552E-03  8540   0.150E-03-0.549E-04
CGA:   7    -0.128597305019E+04   -0.30960E-04   -0.30952E-04  8540   0.399E-04-0.280E-06
CGA:   8    -0.128597305651E+04   -0.63237E-05   -0.74307E-05  8540   0.115E-04 0.140E-04
  52 F= -.12859731E+04 E0= -.12859731E+04  d E =-.101496E-02  mag=   126.0000
       N       E                     dE             d eps       ncg     rms          ort
SDA:   1    -0.128586640316E+04    0.10665E+00    0.00000E+00  8540   0.276E+00 0.000E+00
CGA:   2    -0.128593914181E+04   -0.72739E-01   -0.72737E-01  8540   0.141E+00 0.118E-03
CGA:   3    -0.128596791887E+04   -0.28777E-01   -0.28767E-01  8540   0.241E-01-0.207E-03
CGA:   4    -0.128597274537E+04   -0.48265E-02   -0.48222E-02  8540   0.442E-02-0.817E-04
CGA:   5    -0.128597370611E+04   -0.96074E-03   -0.95904E-03  8540   0.111E-02-0.522E-04
CGA:   6    -0.128597396190E+04   -0.25579E-03   -0.25528E-03  8540   0.296E-03-0.317E-04
CGA:   7    -0.128597403353E+04   -0.71636E-04   -0.71637E-04  8540   0.860E-04-0.760E-06
CGA:   8    -0.128597405418E+04   -0.20649E-04   -0.20753E-04  8540   0.237E-04 0.159E-04
CGA:   9    -0.128597406245E+04   -0.82708E-05   -0.80833E-05  8540   0.887E-05 0.467E-05
  53 F= -.12859741E+04 E0= -.12859741E+04  d E =-.100594E-02  mag=   126.0000
       N       E                     dE             d eps       ncg     rms          ort
SDA:   1    -0.128566181152E+04    0.31224E+00    0.00000E+00  8540   0.778E+00 0.000E+00
CGA:   2    -0.128587927445E+04   -0.21746E+00   -0.21744E+00  8540   0.395E+00 0.746E-03
CGA:   3    -0.128595687413E+04   -0.77600E-01   -0.77554E-01  8540   0.639E-01-0.767E-03
CGA:   4    -0.128596995586E+04   -0.13082E-01   -0.13064E-01  8540   0.121E-01-0.355E-03
CGA:   5    -0.128597252493E+04   -0.25691E-02   -0.25691E-02  8540   0.292E-02-0.179E-05
CGA:   6    -0.128597317862E+04   -0.65369E-03   -0.65516E-03  8540   0.737E-03 0.567E-04
CGA:   7    -0.128597337229E+04   -0.19367E-03   -0.19358E-03  8540   0.227E-03 0.997E-05
CGA:   8    -0.128597344394E+04   -0.71649E-04   -0.71820E-04  8540   0.841E-04-0.274E-05
CGA:   9    -0.128597347358E+04   -0.29637E-04   -0.30849E-04  8540   0.354E-04-0.102E-04
CGA:  10    -0.128597348245E+04   -0.88711E-05   -0.88222E-05  8540   0.995E-05 0.188E-05
  54 F= -.12859735E+04 E0= -.12859735E+04  d E =0.580004E-03  mag=   126.0000
       N       E                     dE             d eps       ncg     rms          ort
SDA:   1    -0.128579204569E+04    0.18143E+00    0.00000E+00  8540   0.476E+00 0.000E+00
CGA:   2    -0.128591147094E+04   -0.11943E+00   -0.11943E+00  8540   0.237E+00 0.620E-03
CGA:   3    -0.128596178971E+04   -0.50319E-01   -0.50314E-01  8540   0.417E-01-0.143E-03
CGA:   4    -0.128597025194E+04   -0.84622E-02   -0.84497E-02  8540   0.782E-02-0.248E-03
CGA:   5    -0.128597192257E+04   -0.16706E-02   -0.16720E-02  8540   0.191E-02 0.363E-04
CGA:   6    -0.128597234476E+04   -0.42218E-03   -0.42429E-03  8540   0.469E-03 0.738E-04
CGA:   7    -0.128597246168E+04   -0.11693E-03   -0.11720E-03  8540   0.134E-03 0.367E-04
CGA:   8    -0.128597250863E+04   -0.46948E-04   -0.47496E-04  8540   0.563E-04-0.686E-05
CGA:   9    -0.128597252805E+04   -0.19424E-04   -0.21515E-04  8540   0.302E-04-0.139E-04
CGA:  10    -0.128597253314E+04   -0.50846E-05   -0.52049E-05  8540   0.966E-05 0.387E-05
  55 F= -.12859725E+04 E0= -.12859725E+04  d E =0.949310E-03  mag=   126.0000
       N       E                     dE             d eps       ncg     rms          ort
SDA:   1    -0.128578273057E+04    0.18980E+00    0.00000E+00  8540   0.484E+00 0.000E+00
CGA:   2    -0.128591550903E+04   -0.13278E+00   -0.13278E+00  8540   0.246E+00-0.485E-03
CGA:   3    -0.128596423169E+04   -0.48723E-01   -0.48746E-01  8540   0.401E-01 0.387E-03
CGA:   4    -0.128597233269E+04   -0.81010E-02   -0.81196E-02  8540   0.744E-02 0.359E-03
CGA:   5    -0.128597395260E+04   -0.16199E-02   -0.16213E-02  8540   0.181E-02 0.387E-04
CGA:   6    -0.128597437756E+04   -0.42495E-03   -0.42464E-03  8540   0.485E-03-0.203E-04
CGA:   7    -0.128597449722E+04   -0.11967E-03   -0.11966E-03  8540   0.143E-03 0.844E-05
CGA:   8    -0.128597453615E+04   -0.38925E-04   -0.38617E-04  8540   0.423E-04 0.178E-04
CGA:   9    -0.128597454791E+04   -0.11762E-04   -0.11783E-04  8540   0.131E-04 0.137E-04
CGA:  10    -0.128597455179E+04   -0.38754E-05   -0.39926E-05  8540   0.474E-05 0.617E-05
  56 F= -.12859746E+04 E0= -.12859746E+04  d E =-.201865E-02  mag=   126.0000
       N       E                     dE             d eps       ncg     rms          ort
SDA:   1    -0.128595800654E+04    0.16541E-01    0.00000E+00  8540   0.506E-01 0.000E+00
CGA:   2    -0.128596833175E+04   -0.10325E-01   -0.10329E-01  8540   0.212E-01 0.617E-04
CGA:   3    -0.128597361456E+04   -0.52828E-02   -0.52829E-02  8540   0.518E-02-0.185E-04
CGA:   4    -0.128597463462E+04   -0.10201E-02   -0.10222E-02  8540   0.874E-03 0.450E-04
CGA:   5    -0.128597483105E+04   -0.19644E-03   -0.19599E-03  8540   0.232E-03-0.230E-04
CGA:   6    -0.128597489415E+04   -0.63093E-04   -0.66903E-04  8540   0.108E-03-0.691E-04
CGA:   7    -0.128597491329E+04   -0.19138E-04   -0.19418E-04  8540   0.386E-04-0.216E-04
CGA:   8    -0.128597491760E+04   -0.43185E-05   -0.51303E-05  8540   0.119E-04 0.103E-04
  57 F= -.12859749E+04 E0= -.12859749E+04  d E =-.365818E-03  mag=   126.0000
       N       E                     dE             d eps       ncg     rms          ort
SDA:   1    -0.128596825390E+04    0.66594E-02    0.00000E+00  8540   0.180E-01 0.000E+00
CGA:   2    -0.128597257795E+04   -0.43240E-02   -0.43234E-02  8540   0.868E-02 0.115E-03
CGA:   3    -0.128597450499E+04   -0.19270E-02   -0.19261E-02  8540   0.165E-02-0.675E-04
CGA:   4    -0.128597484784E+04   -0.34285E-03   -0.34126E-03  8540   0.314E-03-0.614E-04
CGA:   5    -0.128597491203E+04   -0.64187E-04   -0.64204E-04  8540   0.735E-04 0.759E-06
CGA:   6    -0.128597492739E+04   -0.15362E-04   -0.15510E-04  8540   0.167E-04 0.700E-05
CGA:   7    -0.128597493294E+04   -0.55429E-05   -0.58489E-05  8540   0.831E-05-0.346E-05
CGA:   8    -0.128597490216E+04    0.30772E-04   -0.16574E-04  8540   0.175E-03-0.320E-04
CGA:   9    -0.128597493250E+04   -0.30334E-04   -0.31187E-04  8540   0.212E-04 0.337E-05
CGA:  10    -0.128597493736E+04   -0.48659E-05   -0.56241E-05  8540   0.548E-05 0.485E-05
  58 F= -.12859749E+04 E0= -.12859749E+04  d E =-.197596E-04  mag=   126.0000
       N       E                     dE             d eps       ncg     rms          ort
SDA:   1    -0.128584916120E+04    0.12577E+00    0.00000E+00  8540   0.346E+00 0.000E+00
CGA:   2    -0.128592757623E+04   -0.78415E-01   -0.78503E-01  8540   0.163E+00 0.337E-03
CGA:   3    -0.128596517870E+04   -0.37602E-01   -0.37568E-01  8540   0.331E-01-0.222E-03
CGA:   4    -0.128597186074E+04   -0.66820E-02   -0.66413E-02  8540   0.585E-02-0.221E-03
CGA:   5    -0.128597313561E+04   -0.12749E-02   -0.12743E-02  8540   0.146E-02-0.647E-05
CGA:   6    -0.128597346157E+04   -0.32597E-03   -0.32990E-03  8540   0.358E-03 0.274E-04
CGA:   7    -0.128597355453E+04   -0.92956E-04   -0.93028E-04  8540   0.110E-03 0.617E-06
CGA:   8    -0.128597359233E+04   -0.37801E-04   -0.37507E-04  8540   0.502E-04-0.180E-04
CGA:   9    -0.128597360644E+04   -0.14105E-04   -0.25855E-04  8540   0.928E-04-0.452E-04
CGA:  10    -0.128597362103E+04   -0.14592E-04   -0.16352E-04  8540   0.120E-04 0.912E-05
CGA:  11    -0.128597362474E+04   -0.37134E-05   -0.38376E-05  8540   0.359E-05 0.181E-05
CGA:  12    -0.128597362786E+04   -0.31219E-05    0.11583E-04  8540   0.198E-05 0.627E-06
  59 F= -.12859736E+04 E0= -.12859736E+04  d E =0.130950E-02  mag=   126.0000
       N       E                     dE             d eps       ncg     rms          ort
SDA:   1    -0.128592140379E+04    0.52221E-01    0.00000E+00  8540   0.151E+00 0.000E+00
CGA:   2    -0.128595498823E+04   -0.33584E-01   -0.33590E-01  8540   0.700E-01-0.257E-04
CGA:   3    -0.128597120288E+04   -0.16215E-01   -0.16219E-01  8540   0.148E-01 0.274E-04
CGA:   4    -0.128597412594E+04   -0.29231E-02   -0.29369E-02  8540   0.256E-02 0.934E-04
CGA:   5    -0.128597468223E+04   -0.55629E-03   -0.55864E-03  8540   0.645E-03 0.186E-04
CGA:   6    -0.128597483655E+04   -0.15432E-03   -0.15320E-03  8540   0.172E-03-0.120E-04
CGA:   7    -0.128597487763E+04   -0.41080E-04   -0.41209E-04  8540   0.484E-04 0.157E-05
CGA:   8    -0.128597488978E+04   -0.12155E-04   -0.12489E-04  8540   0.131E-04 0.510E-05
CGA:   9    -0.128597489250E+04   -0.27170E-05   -0.32057E-05  8540   0.415E-05 0.503E-05
  60 F= -.12859749E+04 E0= -.12859749E+04  d E =-.126464E-02  mag=   126.0000
       N       E                     dE             d eps       ncg     rms          ort
SDA:   1    -0.128596602425E+04    0.88655E-02    0.00000E+00  8540   0.279E-01 0.000E+00
CGA:   2    -0.128597150286E+04   -0.54786E-02   -0.54793E-02  8540   0.110E-01-0.704E-05
CGA:   3    -0.128597429482E+04   -0.27920E-02   -0.27946E-02  8540   0.291E-02 0.510E-04
CGA:   4    -0.128597487751E+04   -0.58269E-03   -0.58636E-03  8540   0.496E-03 0.372E-04
CGA:   5    -0.128597498856E+04   -0.11105E-03   -0.11045E-03  8540   0.126E-03-0.856E-05
CGA:   6    -0.128597502188E+04   -0.33323E-04   -0.32824E-04  8540   0.431E-04-0.196E-04
CGA:   7    -0.128597503079E+04   -0.89118E-05   -0.87710E-05  8540   0.122E-04-0.297E-05
  61 F= -.12859750E+04 E0= -.12859750E+04  d E =-.138292E-03  mag=   126.0000
       N       E                     dE             d eps       ncg     rms          ort
SDA:   1    -0.128597381060E+04    0.12113E-02    0.00000E+00  8540   0.316E-02 0.000E+00
CGA:   2    -0.128597468658E+04   -0.87598E-03   -0.87596E-03  8540   0.162E-02-0.849E-05
CGA:   3    -0.128597499619E+04   -0.30961E-03   -0.31167E-03  8540   0.254E-03 0.236E-04
CGA:   4    -0.128597504777E+04   -0.51575E-04   -0.52080E-04  8540   0.464E-04 0.684E-05
CGA:   5    -0.128597505790E+04   -0.10135E-04   -0.10208E-04  8540   0.110E-04 0.126E-05
CGA:   6    -0.128597506088E+04   -0.29731E-05   -0.29653E-05  8540   0.377E-05-0.125E-05
  62 F= -.12859751E+04 E0= -.12859751E+04  d E =-.300843E-04  mag=   126.0000
