       N       E                     dE             d eps       ncg     rms          ort
DAV:   1     0.846518298454E+04    0.84652E+04   -0.38198E+05  6342   0.178E+03
DAV:   2     0.361896115955E+03   -0.81033E+04   -0.74527E+04  6342   0.460E+02
DAV:   3    -0.838410909090E+03   -0.12003E+04   -0.11734E+04  6342   0.197E+02
DAV:   4    -0.899791863172E+03   -0.61381E+02   -0.57958E+02  6342   0.444E+01
DAV:   5    -0.902069117280E+03   -0.22773E+01   -0.22182E+01  6342   0.726E+00
SDA:   6    -0.380832952193E+03    0.52124E+03   -0.22182E+01  6342   0.350E+04 0.000E+00
CGA:   7    -0.682838910649E+03   -0.30201E+03   -0.35584E+03  6342   0.333E+04-0.366E+03
CGA:   8    -0.585873747697E+03    0.96965E+02   -0.15709E+03  6342   0.538E+04-0.151E+04
CGA:   9    -0.548305596051E+03    0.37568E+02   -0.72436E+02  6342   0.870E+04-0.373E+04
CGA:  10    -0.513198381770E+03    0.35107E+02   -0.46165E+03  6342   0.771E+04-0.101E+04
CGA:  11    -0.437164919994E+03    0.76033E+02   -0.31675E+03  6342   0.111E+05-0.348E+04
CGA:  12    -0.470540279382E+03   -0.33375E+02   -0.25826E+03  6342   0.196E+04-0.771E+03
CGA:  13    -0.580765462491E+03   -0.11023E+03   -0.27048E+02  6342   0.349E+04 0.155E+04
CGA:  14    -0.572948822193E+03    0.78166E+01   -0.11441E+03  6342   0.489E+04-0.232E+04
CGA:  15    -0.636103360271E+03   -0.63155E+02   -0.13792E+03  6342   0.401E+04-0.227E+04
CGA:  16    -0.590225820989E+03    0.45878E+02   -0.83598E+02  6342   0.642E+04-0.215E+04
CGA:  17    -0.524769212730E+03    0.65457E+02   -0.21812E+03  6342   0.467E+04-0.479E+03
CGA:  18    -0.491557636866E+03    0.33212E+02   -0.13694E+03  6342   0.187E+04-0.133E+04
CGA:  19    -0.718648618390E+03   -0.22709E+03   -0.33741E+02  6342   0.348E+04 0.644E+03
CGA:  20    -0.646839293053E+03    0.71809E+02   -0.73789E+02  6342   0.412E+04-0.110E+04
CGA:  21    -0.653944844553E+03   -0.71056E+01   -0.27523E+02  6342   0.358E+04-0.190E+04
CGA:  22    -0.619938771309E+03    0.34006E+02   -0.23858E+02  6342   0.409E+04-0.225E+04
CGA:  23    -0.550233500459E+03    0.69705E+02   -0.17302E+03  6342   0.245E+04-0.600E+03
CGA:  24    -0.684243591377E+03   -0.13401E+03   -0.33111E+02  6342   0.477E+04 0.672E+04
CGA:  25    -0.642585961880E+03    0.41658E+02   -0.17955E+03  6342   0.628E+04-0.182E+04
CGA:  26    -0.603404943578E+03    0.39181E+02   -0.12329E+03  6342   0.251E+04-0.157E+04
CGA:  27    -0.675416351186E+03   -0.72011E+02   -0.97009E+02  6342   0.303E+04-0.106E+04
CGA:  28    -0.725964080812E+03   -0.50548E+02   -0.26065E+02  6342   0.164E+04-0.144E+04
CGA:  29    -0.690818029671E+03    0.35146E+02   -0.12025E+02  6342   0.506E+04-0.280E+04
CGA:  30    -0.685199789402E+03    0.56182E+01   -0.18533E+03  6342   0.391E+04-0.634E+03
CGA:  31    -0.648290653260E+03    0.36909E+02   -0.85340E+02  6342   0.326E+04-0.307E+04
CGA:  32    -0.704894452028E+03   -0.56604E+02   -0.10087E+03  6342   0.263E+04-0.838E+03
CGA:  33    -0.710251004373E+03   -0.53566E+01   -0.34935E+02  6342   0.437E+04-0.476E+04
CGA:  34    -0.718476137881E+03   -0.82251E+01   -0.14863E+03  6342   0.131E+04 0.177E+03
CGA:  35    -0.740551907066E+03   -0.22076E+02   -0.25403E+02  6342   0.240E+04-0.211E+04
CGA:  36    -0.759959075640E+03   -0.19407E+02   -0.54207E+02  6342   0.769E+03-0.102E+04
CGA:  37    -0.772115361193E+03   -0.12156E+02   -0.65760E+01  6342   0.336E+03 0.267E+03
CGA:  38    -0.777217106310E+03   -0.51017E+01   -0.43834E+01  6342   0.666E+02-0.485E+02
CGA:  39    -0.777621983058E+03   -0.40488E+00   -0.37419E+00  6342   0.309E+02 0.416E+01
CGA:  40    -0.777850004691E+03   -0.22802E+00   -0.29322E+00  6342   0.168E+02-0.675E+01
CGA:  41    -0.777954531944E+03   -0.10453E+00   -0.13203E+00  6342   0.118E+02-0.239E+01
CGA:  42    -0.778048272595E+03   -0.93741E-01   -0.11960E+00  6342   0.112E+02-0.189E+01
CGA:  43    -0.778188595839E+03   -0.14032E+00   -0.18206E+00  6342   0.155E+02-0.140E+01
CGA:  44    -0.778396557995E+03   -0.20796E+00   -0.28416E+00  6342   0.188E+02-0.223E+01
CGA:  45    -0.778816054131E+03   -0.41950E+00   -0.48383E+00  6342   0.126E+02 0.767E-02
CGA:  46    -0.779061637437E+03   -0.24558E+00   -0.27000E+00  6342   0.279E+01-0.255E+00
CGA:  47    -0.779146694113E+03   -0.85057E-01   -0.87488E-01  6342   0.149E+01 0.102E-01
CGA:  48    -0.779227772098E+03   -0.81078E-01   -0.81003E-01  6342   0.157E+01 0.291E-02
CGA:  49    -0.779372538025E+03   -0.14477E+00   -0.13490E+00  6342   0.894E+00 0.221E+00
CGA:  50    -0.779409531473E+03   -0.36993E-01   -0.38028E-01  6342   0.574E+00 0.227E-01
CGA:  51    -0.779432818555E+03   -0.23287E-01   -0.23285E-01  6342   0.592E+00 0.146E-03
CGA:  52    -0.779464146997E+03   -0.31328E-01   -0.31123E-01  6342   0.463E+00 0.219E-01
CGA:  53    -0.779496029797E+03   -0.31883E-01   -0.31451E-01  6342   0.250E+00 0.182E-01
CGA:  54    -0.779508495297E+03   -0.12465E-01   -0.12466E-01  6342   0.152E+00-0.220E-03
CGA:  55    -0.779513419174E+03   -0.49239E-02   -0.48978E-02  6342   0.155E+00 0.751E-04
CGA:  56    -0.779524521598E+03   -0.11102E-01   -0.11095E-01  6342   0.130E+00 0.220E-03
CGA:  57    -0.779532831298E+03   -0.83097E-02   -0.82406E-02  6342   0.776E-01 0.346E-02
CGA:  58    -0.779535181283E+03   -0.23500E-02   -0.23437E-02  6342   0.636E-01 0.938E-04
CGA:  59    -0.779538491943E+03   -0.33107E-02   -0.33029E-02  6342   0.526E-01 0.121E-02
CGA:  60    -0.779543162516E+03   -0.46706E-02   -0.46132E-02  6342   0.485E-01 0.141E-02
CGA:  61    -0.779545301960E+03   -0.21394E-02   -0.21411E-02  6342   0.607E-01 0.107E-03
CGA:  62    -0.779547120838E+03   -0.18189E-02   -0.18055E-02  6342   0.171E-01 0.160E-03
CGA:  63    -0.779548855227E+03   -0.17344E-02   -0.17206E-02  6342   0.299E-01 0.270E-03
CGA:  64    -0.779550072170E+03   -0.12169E-02   -0.12164E-02  6342   0.426E-01 0.163E-05
CGA:  65    -0.779552124609E+03   -0.20524E-02   -0.20533E-02  6342   0.186E-01 0.171E-03
SDA:  66    -0.779553577926E+03   -0.14533E-02   -0.14529E-02  6342   0.175E-01 0.160E-04
CGA:  67    -0.779553935387E+03   -0.35746E-03   -0.36116E-03  6342   0.890E-02-0.114E-03
CGA:  68    -0.779554323469E+03   -0.38808E-03   -0.38748E-03  6342   0.806E-02-0.312E-04
CGA:  69    -0.779555797359E+03   -0.14739E-02   -0.14717E-02  6342   0.127E-01 0.192E-04
CGA:  70    -0.779556508860E+03   -0.71150E-03   -0.71152E-03  6342   0.164E-01 0.388E-05
CGA:  71    -0.779556964588E+03   -0.45573E-03   -0.45936E-03  6342   0.110E-01-0.729E-04
CGA:  72    -0.779558322004E+03   -0.13574E-02   -0.13682E-02  6342   0.221E-01-0.161E-03
CGA:  73    -0.779559651094E+03   -0.13291E-02   -0.13303E-02  6342   0.319E-01-0.292E-03
CGA:  74    -0.779560416818E+03   -0.76572E-03   -0.77654E-03  6342   0.977E-02-0.323E-03
CGA:  75    -0.779560971405E+03   -0.55459E-03   -0.55458E-03  6342   0.806E-02 0.267E-04
CGA:  76    -0.779561797737E+03   -0.82633E-03   -0.82087E-03  6342   0.181E-01 0.117E-03
CGA:  77    -0.779562263520E+03   -0.46578E-03   -0.45920E-03  6342   0.886E-02 0.192E-03
CGA:  78    -0.779562788410E+03   -0.52489E-03   -0.52483E-03  6342   0.394E-02 0.343E-04
CGA:  79    -0.779563155038E+03   -0.36663E-03   -0.36631E-03  6342   0.982E-02 0.724E-05
CGA:  80    -0.779563487372E+03   -0.33233E-03   -0.33443E-03  6342   0.913E-02-0.348E-04
CGA:  81    -0.779564014495E+03   -0.52712E-03   -0.52710E-03  6342   0.368E-02-0.459E-04
CGA:  82    -0.779564187295E+03   -0.17280E-03   -0.17279E-03  6342   0.313E-02 0.857E-06
CGA:  83    -0.779564293609E+03   -0.10631E-03   -0.10644E-03  6342   0.361E-02 0.916E-05
CGA:  84    -0.779564635379E+03   -0.34177E-03   -0.33985E-03  6342   0.203E-02 0.496E-04
CGA:  85    -0.779564714292E+03   -0.78913E-04   -0.79218E-04  6342   0.149E-02 0.127E-04
CGA:  86    -0.779564749783E+03   -0.35491E-04   -0.35628E-04  6342   0.538E-03 0.871E-05
CGA:  87    -0.779564809252E+03   -0.59470E-04   -0.58334E-04  6342   0.857E-03 0.217E-04
CGA:  88    -0.779564858773E+03   -0.49520E-04   -0.49563E-04  6342   0.119E-02 0.162E-04
CGA:  89    -0.779564887113E+03   -0.28340E-04   -0.28798E-04  6342   0.209E-03 0.100E-04
CGA:  90    -0.779564897012E+03   -0.98988E-05   -0.99431E-05  6342   0.116E-03 0.500E-05
   1 F= -.77956490E+03 E0= -.77954026E+03  d E =-.492714E-01  mag=    65.0000
