       N       E                     dE             d eps       ncg     rms          ort
DAV:   1     0.828261885728E+04    0.82826E+04   -0.24673E+05  8424   0.238E+03
DAV:   2     0.917937505669E+03   -0.73647E+04   -0.69145E+04  8424   0.658E+02
DAV:   3    -0.678197556401E+03   -0.15961E+04   -0.14042E+04  8424   0.283E+02
DAV:   4    -0.834303613704E+03   -0.15611E+03   -0.15340E+03  8424   0.857E+01
DAV:   5    -0.836838139390E+03   -0.25345E+01   -0.25226E+01  8424   0.122E+01
SDA:   6    -0.258107306489E+03    0.57873E+03   -0.25226E+01  8424   0.638E+04 0.000E+00
CGA:   7    -0.235201450146E+03    0.22906E+02   -0.41428E+03  8424   0.267E+05-0.355E+04
CGA:   8     0.103792435306E+04    0.12731E+04   -0.16588E+04  8424   0.858E+05-0.340E+05
CGA:   9     0.483827156922E+04    0.38003E+04   -0.60920E+04  8424   0.186E+05-0.958E+04
CGA:  10     0.816158349332E+03   -0.40221E+04   -0.61271E+03  8424   0.193E+05-0.122E+05
CGA:  11     0.397512357787E+03   -0.41865E+03   -0.73770E+03  8424   0.333E+05-0.340E+05
CGA:  12     0.152668433444E+04    0.11292E+04   -0.17520E+04  8424   0.194E+06-0.125E+06
CGA:  13     0.470458341024E+04    0.31779E+04   -0.13578E+05  8424   0.182E+05-0.106E+05
CGA:  14    -0.283497482692E+03   -0.49881E+04   -0.58852E+03  8424   0.236E+05-0.979E+05
CGA:  15    -0.303768341596E+03   -0.20271E+02   -0.10428E+04  8424   0.232E+05-0.214E+05
CGA:  16    -0.416296968286E+03   -0.11253E+03   -0.98469E+03  8424   0.264E+04-0.257E+04
CGA:  17    -0.645972307283E+03   -0.22968E+03   -0.31315E+02  8424   0.217E+03 0.106E+04
CGA:  18    -0.655978709232E+03   -0.10006E+02   -0.23425E+02  8424   0.402E+02 0.340E+02
CGA:  19    -0.666263011388E+03   -0.10284E+02   -0.92318E+01  8424   0.282E+02 0.122E+02
CGA:  20    -0.670191572907E+03   -0.39286E+01   -0.40405E+01  8424   0.229E+02 0.990E-01
CGA:  21    -0.673265196417E+03   -0.30736E+01   -0.30744E+01  8424   0.732E+01-0.425E+00
CGA:  22    -0.674121857106E+03   -0.85666E+00   -0.50908E+00  8424   0.337E+01 0.265E+01
CGA:  23    -0.674477242928E+03   -0.35539E+00   -0.36661E+00  8424   0.116E+02-0.384E+00
CGA:  24    -0.674952503902E+03   -0.47526E+00   -0.29934E+00  8424   0.864E+01 0.790E+01
CGA:  25    -0.675248021003E+03   -0.29552E+00   -0.43549E+00  8424   0.635E+01-0.241E+01
CGA:  26    -0.675547430118E+03   -0.29941E+00   -0.29511E+00  8424   0.221E+01-0.282E-01
CGA:  27    -0.675739519217E+03   -0.19209E+00   -0.20664E+00  8424   0.150E+01 0.187E+00
CGA:  28    -0.675891450001E+03   -0.15193E+00   -0.15497E+00  8424   0.513E+00 0.560E-01
CGA:  29    -0.675991087753E+03   -0.99638E-01   -0.89333E-01  8424   0.192E+00 0.148E+00
CGA:  30    -0.676035879882E+03   -0.44792E-01   -0.43950E-01  8424   0.243E+00 0.130E-01
CGA:  31    -0.676083600481E+03   -0.47721E-01   -0.46436E-01  8424   0.138E+00 0.163E-01
CGA:  32    -0.676102456552E+03   -0.18856E-01   -0.18854E-01  8424   0.192E-01 0.884E-03
CGA:  33    -0.676106542342E+03   -0.40858E-02   -0.40050E-02  8424   0.110E-01 0.523E-03
CGA:  34    -0.676110083255E+03   -0.35409E-02   -0.48337E-02  8424   0.245E-01-0.431E-02
CGA:  35    -0.676112802405E+03   -0.27191E-02   -0.31844E-02  8424   0.231E-01-0.680E-02
CGA:  36    -0.676115345070E+03   -0.25427E-02   -0.26215E-02  8424   0.149E-01-0.519E-02
CGA:  37    -0.676116345852E+03   -0.10008E-02   -0.61097E-02  8424   0.646E-01-0.143E-01
CGA:  38    -0.676123935866E+03   -0.75900E-02   -0.73728E-02  8424   0.279E-01-0.489E-02
CGA:  39    -0.676128654749E+03   -0.47189E-02   -0.47655E-02  8424   0.225E-01-0.155E-02
CGA:  40    -0.676135448642E+03   -0.67939E-02   -0.83778E-02  8424   0.253E-01-0.596E-02
CGA:  41    -0.676134698320E+03    0.75032E-03   -0.38352E-02  8424   0.261E+00-0.199E-01
CGA:  42    -0.676158546565E+03   -0.23848E-01   -0.22557E-01  8424   0.387E-01 0.208E-01
CGA:  43    -0.676166226182E+03   -0.76796E-02   -0.74201E-02  8424   0.332E-01-0.371E-02
CGA:  44    -0.676180627188E+03   -0.14401E-01   -0.22664E-01  8424   0.113E+00-0.186E-01
CGA:  45    -0.676203313547E+03   -0.22686E-01   -0.22444E-01  8424   0.589E-01-0.453E-02
CGA:  46    -0.676211919039E+03   -0.86055E-02   -0.85260E-02  8424   0.296E-01-0.172E-03
CGA:  47    -0.676188590348E+03    0.23329E-01   -0.16346E-01  8424   0.754E+00-0.621E-01
CGA:  48    -0.676298454112E+03   -0.10986E+00   -0.11504E+00  8424   0.152E+00-0.426E-01
CGA:  49    -0.676334007778E+03   -0.35554E-01   -0.34559E-01  8424   0.575E-01-0.145E-02
CGA:  50    -0.676353075764E+03   -0.19068E-01   -0.17911E-01  8424   0.396E-01-0.737E-02
CGA:  51    -0.676367278468E+03   -0.14203E-01   -0.12960E-01  8424   0.402E-01-0.732E-02
CGA:  52    -0.676386141959E+03   -0.18863E-01   -0.22608E-01  8424   0.466E-01-0.194E-01
CGA:  53    -0.676394948187E+03   -0.88062E-02   -0.70078E-02  8424   0.202E-01-0.846E-02
CGA:  54    -0.676401637862E+03   -0.66897E-02   -0.61903E-02  8424   0.143E-01-0.365E-02
CGA:  55    -0.676405599106E+03   -0.39612E-02   -0.36742E-02  8424   0.762E-02-0.159E-02
CGA:  56    -0.676407755197E+03   -0.21561E-02   -0.22541E-02  8424   0.549E-02 0.560E-03
CGA:  57    -0.676409491406E+03   -0.17362E-02   -0.19584E-02  8424   0.317E-02 0.142E-02
CGA:  58    -0.676410489396E+03   -0.99799E-03   -0.11848E-02  8424   0.187E-02 0.102E-02
CGA:  59    -0.676410973869E+03   -0.48447E-03   -0.66883E-03  8424   0.869E-03 0.930E-03
CGA:  60    -0.676411141948E+03   -0.16808E-03   -0.30072E-03  8424   0.435E-03 0.581E-03
CGA:  61    -0.676411290281E+03   -0.14833E-03   -0.16098E-03  8424   0.358E-03 0.162E-03
CGA:  62    -0.676411374872E+03   -0.84591E-04   -0.13463E-03  8424   0.217E-03 0.292E-03
CGA:  63    -0.676411527147E+03   -0.15227E-03   -0.13855E-03  8424   0.372E-03 0.639E-04
CGA:  64    -0.676411653155E+03   -0.12601E-03   -0.16024E-03  8424   0.286E-03 0.296E-03
CGA:  65    -0.676411773655E+03   -0.12050E-03   -0.11961E-03  8424   0.448E-03-0.433E-04
CGA:  66    -0.676411871262E+03   -0.97608E-04   -0.11651E-03  8424   0.378E-03 0.137E-03
CGA:  67    -0.676412200314E+03   -0.32905E-03   -0.31458E-03  8424   0.140E-02 0.513E-04
CGA:  68    -0.676412787739E+03   -0.58742E-03   -0.18664E-02  8424   0.162E-01-0.214E-02
CGA:  69    -0.676415896556E+03   -0.31088E-02   -0.32570E-02  8424   0.223E-02 0.557E-03
CGA:  70    -0.676416503532E+03   -0.60698E-03   -0.51049E-03  8424   0.601E-03-0.399E-03
CGA:  71    -0.676411970661E+03    0.45329E-02   -0.24506E-02  8424   0.410E-01-0.251E-02
CGA:  72    -0.676418561973E+03   -0.65913E-02   -0.63138E-02  8424   0.458E-02-0.158E-02
CGA:  73    -0.676419633846E+03   -0.10719E-02   -0.11143E-02  8424   0.620E-03 0.782E-04
CGA:  74    -0.676419935511E+03   -0.30167E-03   -0.28308E-03  8424   0.390E-03-0.591E-04
CGA:  75    -0.676420082869E+03   -0.14736E-03   -0.17877E-03  8424   0.425E-03 0.129E-03
CGA:  76    -0.676420490466E+03   -0.40760E-03   -0.40775E-03  8424   0.131E-02 0.380E-05
CGA:  77    -0.676421257543E+03   -0.76708E-03   -0.78946E-03  8424   0.230E-02 0.129E-03
CGA:  78    -0.676423414295E+03   -0.21568E-02   -0.23105E-02  8424   0.862E-02-0.132E-02
CGA:  79    -0.676425683440E+03   -0.22691E-02   -0.19915E-02  8424   0.319E-02-0.587E-03
CGA:  80    -0.676426833898E+03   -0.11505E-02   -0.10096E-02  8424   0.188E-02-0.378E-03
CGA:  81    -0.676427977702E+03   -0.11438E-02   -0.12537E-02  8424   0.392E-02-0.179E-02
CGA:  82    -0.676428740622E+03   -0.76292E-03   -0.79843E-03  8424   0.745E-03 0.776E-04
CGA:  83    -0.676429106998E+03   -0.36638E-03   -0.27993E-03  8424   0.691E-03-0.285E-03
CGA:  84    -0.676429362861E+03   -0.25586E-03   -0.18709E-03  8424   0.465E-03-0.317E-03
CGA:  85    -0.676429932275E+03   -0.56941E-03    0.10850E-03  8424   0.610E-03-0.685E-04
CGA:  86    -0.676430707127E+03   -0.77485E-03    0.11044E-02  8424   0.594E-03-0.263E-03
CGA:  87    -0.676431576592E+03   -0.86946E-03    0.10997E-03  8424   0.806E-03-0.663E-04
CGA:  88    -0.676432819809E+03   -0.12432E-02    0.67536E-03  8424   0.805E-03-0.210E-03
CGA:  89    -0.676433806431E+03   -0.98662E-03    0.67989E-03  8424   0.130E-02-0.391E-03
CGA:  90    -0.676435537735E+03   -0.17313E-02    0.21456E-03  8424   0.213E-02-0.491E-03
CGA:  91    -0.676438176171E+03   -0.26384E-02    0.79404E-03  8424   0.414E-02-0.145E-02
CGA:  92    -0.676439028138E+03   -0.85197E-03   -0.77975E-03  8424   0.919E-03-0.169E-03
CGA:  93    -0.676439224318E+03   -0.19618E-03   -0.24305E-03  8424   0.263E-03 0.137E-03
CGA:  94    -0.676439313553E+03   -0.89236E-04   -0.10176E-03  8424   0.118E-03 0.467E-04
CGA:  95    -0.676439395377E+03   -0.81824E-04   -0.81650E-04  8424   0.259E-03-0.371E-04
CGA:  96    -0.676439429859E+03   -0.34482E-04   -0.37847E-04  8424   0.163E-03 0.836E-05
CGA:  97    -0.676439469089E+03   -0.39230E-04   -0.32681E-04  8424   0.136E-03-0.185E-04
CGA:  98    -0.676439691750E+03   -0.22266E-03    0.50049E-04  8424   0.424E-03-0.533E-04
CGA:  99    -0.676440239194E+03   -0.54744E-03    0.78271E-04  8424   0.139E-02-0.757E-03
CGA: 100    -0.676440637277E+03   -0.39808E-03   -0.38037E-03  8424   0.746E-03-0.621E-04
CGA: 101    -0.676441022260E+03   -0.38498E-03   -0.34673E-03  8424   0.122E-02-0.712E-03
CGA: 102    -0.676441207461E+03   -0.18520E-03   -0.19055E-03  8424   0.215E-03 0.163E-04
CGA: 103    -0.676441489642E+03   -0.28218E-03    0.22851E-03  8424   0.202E-03-0.127E-03
CGA: 104    -0.676441592157E+03   -0.10251E-03   -0.89651E-04  8424   0.394E-03-0.174E-03
CGA: 105    -0.676441743158E+03   -0.15100E-03   -0.85688E-04  8424   0.221E-03-0.220E-03
CGA: 106    -0.676441781416E+03   -0.38258E-04   -0.31241E-04  8424   0.278E-04-0.193E-04
CGA: 107    -0.676441953031E+03   -0.17161E-03    0.10166E-05  8424   0.212E-04 0.179E-04
CGA: 108    -0.676442072516E+03   -0.11949E-03    0.10582E-05  8424   0.491E-04 0.556E-05
CGA: 109    -0.676442522906E+03   -0.45039E-03    0.22903E-05  8424   0.247E-04 0.423E-04
CGA: 110    -0.676442620573E+03   -0.97667E-04    0.19172E-05  8424   0.446E-04-0.427E-05
CGA: 111    -0.676442918197E+03   -0.29762E-03    0.12087E-05  8424   0.737E-04 0.135E-04
CGA: 112    -0.676443509802E+03   -0.59160E-03    0.42867E-05  8424   0.581E-04 0.495E-04
CGA: 113    -0.676443573147E+03   -0.63346E-04    0.10794E-03  8424   0.148E-03-0.628E-04
CGA: 114    -0.676443648614E+03   -0.75467E-04   -0.59704E-04  8424   0.392E-03-0.203E-03
CGA: 115    -0.676443697682E+03   -0.49068E-04   -0.53424E-04  8424   0.207E-04 0.132E-04
CGA: 116    -0.676443789797E+03   -0.92115E-04    0.13512E-05  8424   0.368E-04-0.567E-05
CGA: 117    -0.676444023945E+03   -0.23415E-03    0.72743E-06  8424   0.624E-04 0.221E-04
CGA: 118    -0.676444086597E+03   -0.62652E-04    0.16228E-03  8424   0.927E-04-0.529E-04
CGA: 119    -0.676444187962E+03   -0.10137E-03    0.11516E-03  8424   0.209E-03-0.107E-03
CGA: 120    -0.676444218749E+03   -0.30787E-04   -0.33034E-04  8424   0.203E-04 0.763E-05
CGA: 121    -0.676444310362E+03   -0.91613E-04    0.12041E-05  8424   0.283E-04-0.311E-05
CGA: 122    -0.676444510528E+03   -0.20017E-03    0.63801E-06  8424   0.375E-04 0.226E-04
CGA: 123    -0.676444577843E+03   -0.67315E-04    0.82541E-05  8424   0.436E-04-0.180E-04
CGA: 124    -0.676444756293E+03   -0.17845E-03    0.64738E-06  8424   0.609E-04 0.674E-05
CGA: 125    -0.676445085562E+03   -0.32927E-03    0.36919E-05  8424   0.330E-04 0.268E-04
CGA: 126    -0.676445302449E+03   -0.21689E-03    0.25717E-05  8424   0.769E-04-0.272E-06
CGA: 127    -0.676445944265E+03   -0.64182E-03    0.20177E-05  8424   0.151E-03 0.480E-04
CGA: 128    -0.676445884638E+03    0.59627E-04   -0.11689E-03  8424   0.238E-02-0.537E-03
CGA: 129    -0.676446137542E+03   -0.25290E-03   -0.30726E-03  8424   0.506E-04 0.174E-03
CGA: 130    -0.676446187711E+03   -0.50169E-04    0.32697E-03  8424   0.891E-04-0.458E-04
CGA: 131    -0.676446283614E+03   -0.95903E-04    0.95633E-04  8424   0.282E-03-0.128E-03
CGA: 132    -0.676446310460E+03   -0.26846E-04   -0.36275E-04  8424   0.137E-04 0.302E-04
CGA: 133    -0.676446371551E+03   -0.61091E-04    0.88462E-06  8424   0.284E-04-0.235E-05
CGA: 134    -0.676446587641E+03   -0.21609E-03    0.52254E-06  8424   0.623E-04 0.685E-05
CGA: 135    -0.676447157406E+03   -0.56977E-03    0.21986E-05  8424   0.103E-03 0.435E-04
CGA: 136    -0.676447177138E+03   -0.19731E-04   -0.18362E-04  8424   0.163E-04-0.538E-05
CGA: 137    -0.676447261430E+03   -0.84292E-04    0.58246E-06  8424   0.157E-04 0.140E-05
CGA: 138    -0.676447397528E+03   -0.13610E-03    0.41467E-06  8424   0.122E-04 0.162E-04
CGA: 139    -0.676447453464E+03   -0.55936E-04    0.57159E-06  8424   0.123E-04 0.336E-05
CGA: 140    -0.676447584076E+03   -0.13061E-03    0.36179E-06  8424   0.140E-04 0.117E-04
CGA: 141    -0.676447640952E+03   -0.56876E-04    0.76093E-06  8424   0.134E-04 0.175E-05
CGA: 142    -0.676447769226E+03   -0.12827E-03    0.34407E-06  8424   0.161E-04 0.101E-04
CGA: 143    -0.676447821969E+03   -0.52743E-04    0.11511E-05  8424   0.156E-04-0.165E-06
CGA: 144    -0.676447949266E+03   -0.12730E-03    0.36219E-06  8424   0.192E-04 0.815E-05
CGA: 145    -0.676448002161E+03   -0.52895E-04    0.17326E-05  8424   0.181E-04-0.262E-05
CGA: 146    -0.676448128365E+03   -0.12620E-03    0.37635E-06  8424   0.230E-04 0.571E-05
CGA: 147    -0.676448341196E+03   -0.21283E-03    0.84812E-06  8424   0.134E-04 0.234E-04
CGA: 148    -0.676448381783E+03   -0.40587E-04    0.10654E-05  8424   0.306E-04-0.545E-05
CGA: 149    -0.676448565973E+03   -0.18419E-03    0.34062E-06  8424   0.589E-04 0.111E-04
CGA: 150    -0.676449022130E+03   -0.45616E-03    0.28772E-05  8424   0.140E-03-0.145E-04
CGA: 151    -0.676450111367E+03   -0.10892E-02    0.19380E-05  8424   0.310E-03 0.617E-04
CGA: 152    -0.676452510538E+03   -0.23992E-02    0.17147E-04  8424   0.781E-03-0.217E-03
CGA: 153    -0.676452689967E+03   -0.17943E-03   -0.13307E-03  8424   0.938E-04-0.189E-03
CGA: 154    -0.676452700550E+03   -0.10583E-04   -0.12338E-04  8424   0.425E-05 0.760E-05
CGA: 155    -0.676452724819E+03   -0.24269E-04    0.15838E-06  8424   0.882E-05 0.651E-06
CGA: 156    -0.676452819601E+03   -0.94782E-04    0.18474E-06  8424   0.872E-05 0.715E-05
CGA: 157    -0.676452858443E+03   -0.38842E-04    0.36779E-06  8424   0.138E-04-0.375E-05
CGA: 158    -0.676452932435E+03   -0.73992E-04    0.13989E-06  8424   0.186E-04 0.115E-05
CGA: 159    -0.676453060085E+03   -0.12765E-03    0.56041E-06  8424   0.264E-04 0.253E-05
CGA: 160    -0.676453289651E+03   -0.22957E-03    0.67730E-06  8424   0.352E-04 0.254E-05
CGA: 161    -0.676453612679E+03   -0.32303E-03    0.78947E-06  8424   0.311E-04 0.205E-04
CGA: 162    -0.676453618167E+03   -0.54879E-05   -0.56365E-05  8424   0.719E-05 0.696E-06
   1 F= -.67645362E+03 E0= -.67645362E+03  d E =-.676454E+03  mag=     1.0000
       N       E                     dE             d eps       ncg     rms          ort
SDA:   1    -0.676453681304E+03   -0.68625E-04    0.00000E+00  8424   0.103E-03 0.000E+00
CGA:   2    -0.676453708784E+03   -0.27480E-04   -0.56694E-04  8424   0.605E-03-0.174E-03
CGA:   3    -0.676453761869E+03   -0.53085E-04   -0.63904E-04  8424   0.347E-04 0.380E-04
CGA:   4    -0.676453776022E+03   -0.14153E-04   -0.13025E-04  8424   0.851E-04-0.468E-04
CGA:   5    -0.676453796139E+03   -0.20117E-04   -0.13901E-04  8424   0.282E-04-0.293E-04
CGA:   6    -0.676453823953E+03   -0.27814E-04    0.32021E-05  8424   0.572E-04-0.258E-04
CGA:   7    -0.676453837725E+03   -0.13772E-04   -0.98017E-05  8424   0.180E-04-0.205E-04
CGA:   8    -0.676453866179E+03   -0.28454E-04    0.83613E-06  8424   0.142E-04-0.663E-05
CGA:   9    -0.676453912202E+03   -0.46023E-04    0.25546E-06  8424   0.447E-05 0.391E-05
CGA:  10    -0.676453947637E+03   -0.35435E-04    0.13117E-06  8424   0.432E-05 0.161E-05
CGA:  11    -0.676454003759E+03   -0.56122E-04    0.84093E-07  8424   0.422E-05 0.402E-05
CGA:  12    -0.676454024350E+03   -0.20591E-04    0.12801E-06  8424   0.258E-05 0.131E-05
CGA:  13    -0.676454058033E+03   -0.33684E-04    0.46350E-07  8424   0.280E-05 0.259E-05
CGA:  14    -0.676454078661E+03   -0.20627E-04    0.52972E-07  8424   0.207E-05 0.186E-05
CGA:  15    -0.676454100247E+03   -0.21586E-04    0.26983E-07  8424   0.218E-05 0.181E-05
CGA:  16    -0.676454118726E+03   -0.18479E-04    0.35508E-07  8424   0.268E-05 0.154E-05
CGA:  17    -0.676454142472E+03   -0.23746E-04    0.41642E-07  8424   0.480E-05 0.493E-06
CGA:  18    -0.676454198793E+03   -0.56322E-04    0.77918E-07  8424   0.331E-05 0.544E-05
CGA:  19    -0.676454213344E+03   -0.14551E-04    0.11341E-06  8424   0.715E-05-0.750E-06
CGA:  20    -0.676454274989E+03   -0.61645E-04    0.66975E-07  8424   0.103E-04 0.464E-05
CGA:  21    -0.676454303575E+03   -0.28586E-04    0.62716E-06  8424   0.311E-04-0.129E-04
CGA:  22    -0.676454305722E+03   -0.21471E-05   -0.32612E-05  8424   0.221E-05 0.445E-05
   2 F= -.67645431E+03 E0= -.67645431E+03  d E =-.687554E-03  mag=     1.0000
       N       E                     dE             d eps       ncg     rms          ort
SDA:   1    -0.676453140975E+03    0.11626E-02    0.00000E+00  8424   0.345E-02 0.000E+00
CGA:   2    -0.676453888763E+03   -0.74779E-03   -0.75310E-03  8424   0.152E-02 0.423E-04
CGA:   3    -0.676454234808E+03   -0.34604E-03   -0.33345E-03  8424   0.510E-03-0.105E-03
CGA:   4    -0.676454314720E+03   -0.79912E-04   -0.77416E-04  8424   0.122E-03-0.150E-04
CGA:   5    -0.676454340542E+03   -0.25823E-04   -0.23437E-04  8424   0.358E-04-0.191E-04
CGA:   6    -0.676454366814E+03   -0.26272E-04    0.12723E-04  8424   0.344E-04-0.204E-04
CGA:   7    -0.676454376529E+03   -0.97145E-05   -0.78657E-05  8424   0.292E-04-0.212E-04
CGA:   8    -0.676454397611E+03   -0.21082E-04    0.28400E-04  8424   0.852E-04-0.459E-04
CGA:   9    -0.676454405444E+03   -0.78328E-05   -0.91980E-05  8424   0.263E-05 0.670E-05
   3 F= -.67645441E+03 E0= -.67645441E+03  d E =-.997221E-04  mag=     1.0000
       N       E                     dE             d eps       ncg     rms          ort
SDA:   1    -0.676224655462E+03    0.22974E+00    0.00000E+00  8424   0.611E+00 0.000E+00
CGA:   2    -0.676375480793E+03   -0.15083E+00   -0.15081E+00  8424   0.285E+00-0.459E-03
CGA:   3    -0.676430237287E+03   -0.54756E-01   -0.54725E-01  8424   0.756E-01-0.256E-03
CGA:   4    -0.676442629456E+03   -0.12392E-01   -0.12397E-01  8424   0.187E-01 0.489E-04
CGA:   5    -0.676445813718E+03   -0.31843E-02   -0.32007E-02  8424   0.359E-02 0.139E-03
CGA:   6    -0.676446542316E+03   -0.72860E-03   -0.73358E-03  8424   0.819E-03 0.632E-04
CGA:   7    -0.676446757078E+03   -0.21476E-03   -0.21307E-03  8424   0.318E-03-0.783E-04
CGA:   8    -0.676446848609E+03   -0.91530E-04   -0.10416E-03  8424   0.252E-03-0.147E-03
CGA:   9    -0.676446547659E+03    0.30095E-03   -0.14355E-03  8424   0.224E-02-0.570E-03
CGA:  10    -0.676446934329E+03   -0.38667E-03   -0.38715E-03  8424   0.330E-03 0.282E-05
CGA:  11    -0.676447061497E+03   -0.12717E-03   -0.13532E-03  8424   0.169E-03-0.839E-04
CGA:  12    -0.676447099281E+03   -0.37783E-04   -0.78743E-04  8424   0.298E-03-0.134E-03
CGA:  13    -0.676447184530E+03   -0.85249E-04   -0.75116E-04  8424   0.158E-03-0.126E-03
CGA:  14    -0.676447206021E+03   -0.21492E-04   -0.20566E-04  8424   0.498E-04-0.907E-05
CGA:  15    -0.676446542124E+03    0.66390E-03   -0.36133E-03  8424   0.414E-02-0.431E-03
CGA:  16    -0.676447375835E+03   -0.83371E-03   -0.80695E-03  8424   0.141E-03-0.678E-04
CGA:  17    -0.676447401914E+03   -0.26079E-04   -0.28310E-04  8424   0.429E-04 0.616E-05
CGA:  18    -0.676447462359E+03   -0.60444E-04    0.55356E-04  8424   0.776E-04-0.351E-04
CGA:  19    -0.676447469984E+03   -0.76254E-05   -0.10908E-04  8424   0.106E-04 0.803E-05
   4 F= -.67644747E+03 E0= -.67644747E+03  d E =0.693546E-02  mag=     1.0000
       N       E                     dE             d eps       ncg     rms          ort
SDA:   1    -0.676312543191E+03    0.13492E+00    0.00000E+00  8424   0.441E+00 0.000E+00
CGA:   2    -0.676399863806E+03   -0.87321E-01   -0.87396E-01  8424   0.171E+00 0.130E-03
CGA:   3    -0.676436270467E+03   -0.36407E-01   -0.36424E-01  8424   0.583E-01 0.197E-04
CGA:   4    -0.676445986975E+03   -0.97165E-02   -0.97100E-02  8424   0.146E-01-0.388E-04
CGA:   5    -0.676448552496E+03   -0.25655E-02   -0.25461E-02  8424   0.286E-02-0.661E-04
CGA:   6    -0.676449164970E+03   -0.61247E-03   -0.59079E-03  8424   0.663E-03-0.842E-04
CGA:   7    -0.676449324706E+03   -0.15974E-03   -0.15113E-03  8424   0.216E-03-0.394E-04
CGA:   8    -0.676449386025E+03   -0.61319E-04   -0.55406E-04  8424   0.769E-04-0.348E-04
CGA:   9    -0.676449384352E+03    0.16728E-05   -0.52100E-04  8424   0.462E-03-0.145E-03
CGA:  10    -0.676449465485E+03   -0.81133E-04   -0.78613E-04  8424   0.527E-04-0.901E-05
CGA:  11    -0.676448400672E+03    0.10648E-02   -0.58081E-03  8424   0.594E-02-0.500E-03
CGA:  12    -0.676449458113E+03   -0.10574E-02   -0.11008E-02  8424   0.663E-03 0.671E-04
CGA:  13    -0.676449673309E+03   -0.21520E-03   -0.18728E-03  8424   0.104E-03-0.571E-04
CGA:  14    -0.676449680101E+03   -0.67919E-05   -0.15944E-04  8424   0.286E-04 0.158E-04
CGA:  15    -0.676447948885E+03    0.17312E-02   -0.95275E-03  8424   0.703E-02-0.481E-03
CGA:  16    -0.676449743804E+03   -0.17949E-02   -0.18196E-02  8424   0.951E-03 0.233E-04
CGA:  17    -0.676449951067E+03   -0.20726E-03   -0.19104E-03  8424   0.319E-03-0.168E-04
CGA:  18    -0.676450039465E+03   -0.88399E-04   -0.84814E-04  8424   0.703E-04-0.366E-05
CGA:  19    -0.676450103928E+03   -0.64463E-04   -0.37841E-04  8424   0.756E-04-0.436E-04
CGA:  20    -0.676450107603E+03   -0.36746E-05   -0.12315E-04  8424   0.157E-04 0.900E-05
CGA:  21    -0.676450150890E+03   -0.43288E-04    0.65981E-04  8424   0.195E-03-0.479E-04
CGA:  22    -0.676450175241E+03   -0.24351E-04   -0.33952E-04  8424   0.373E-04 0.107E-04
CGA:  23    -0.676450214700E+03   -0.39459E-04   -0.15521E-04  8424   0.563E-04-0.376E-04
CGA:  24    -0.676450218466E+03   -0.37665E-05   -0.77280E-05  8424   0.814E-05 0.462E-05
   5 F= -.67645022E+03 E0= -.67645022E+03  d E =-.274848E-02  mag=     1.0000
       N       E                     dE             d eps       ncg     rms          ort
SDA:   1    -0.676442588522E+03    0.76262E-02    0.00000E+00  8424   0.266E-01 0.000E+00
CGA:   2    -0.676448128970E+03   -0.55404E-02   -0.55038E-02  8424   0.117E-01-0.525E-04
CGA:   3    -0.676450467561E+03   -0.23386E-02   -0.23426E-02  8424   0.410E-02 0.193E-05
CGA:   4    -0.676451114995E+03   -0.64743E-03   -0.63066E-03  8424   0.982E-03-0.238E-04
CGA:   5    -0.676451311393E+03   -0.19640E-03   -0.17667E-03  8424   0.197E-03-0.298E-04
CGA:   6    -0.676451359101E+03   -0.47707E-04   -0.40782E-04  8424   0.508E-04-0.116E-04
CGA:   7    -0.676451391662E+03   -0.32561E-04   -0.18185E-04  8424   0.653E-04-0.357E-04
CGA:   8    -0.676451404665E+03   -0.13003E-04   -0.10157E-04  8424   0.981E-05-0.470E-05
CGA:   9    -0.676451443936E+03   -0.39270E-04    0.17192E-05  8424   0.555E-04-0.154E-04
CGA:  10    -0.676451454177E+03   -0.10241E-04   -0.89035E-05  8424   0.857E-05-0.235E-05
CGA:  11    -0.676451496674E+03   -0.42497E-04    0.10820E-05  8424   0.550E-04-0.151E-04
CGA:  12    -0.676451501838E+03   -0.51638E-05   -0.71616E-05  8424   0.778E-05 0.350E-05
   6 F= -.67645150E+03 E0= -.67645150E+03  d E =-.128337E-02  mag=     1.0000
       N       E                     dE             d eps       ncg     rms          ort
SDA:   1    -0.676436485102E+03    0.15012E-01    0.00000E+00  8424   0.513E-01 0.000E+00
CGA:   2    -0.676447346055E+03   -0.10861E-01   -0.10851E-01  8424   0.213E-01-0.316E-04
CGA:   3    -0.676451790276E+03   -0.44442E-02   -0.44250E-02  8424   0.681E-02-0.473E-04
CGA:   4    -0.676452934125E+03   -0.11438E-02   -0.11267E-02  8424   0.169E-02-0.379E-04
CGA:   5    -0.676453235292E+03   -0.30117E-03   -0.29275E-03  8424   0.335E-03-0.198E-04
CGA:   6    -0.676453310536E+03   -0.75244E-04   -0.69546E-04  8424   0.813E-04-0.153E-04
CGA:   7    -0.676453346163E+03   -0.35627E-04   -0.26687E-04  8424   0.719E-04-0.402E-04
CGA:   8    -0.676453171368E+03    0.17480E-03   -0.50978E-04  8424   0.161E-02-0.267E-03
CGA:   9    -0.676453427502E+03   -0.25613E-03   -0.25051E-03  8424   0.237E-03-0.130E-04
CGA:  10    -0.676453515079E+03   -0.87576E-04   -0.82456E-04  8424   0.720E-04-0.229E-04
CGA:  11    -0.676453551706E+03   -0.36628E-04   -0.34090E-04  8424   0.123E-03-0.622E-04
CGA:  12    -0.676453576926E+03   -0.25219E-04   -0.22576E-04  8424   0.139E-04-0.701E-05
CGA:  13    -0.676453613627E+03   -0.36701E-04    0.22612E-05  8424   0.321E-04-0.103E-04
CGA:  14    -0.676453616902E+03   -0.32751E-05   -0.40126E-05  8424   0.308E-05 0.177E-05
   7 F= -.67645362E+03 E0= -.67645362E+03  d E =-.211506E-02  mag=     1.0000
       N       E                     dE             d eps       ncg     rms          ort
SDA:   1    -0.676452553794E+03    0.10598E-02    0.00000E+00  8424   0.810E-02 0.000E+00
CGA:   2    -0.676454354805E+03   -0.18010E-02   -0.17970E-02  8424   0.372E-02-0.145E-04
CGA:   3    -0.676455117141E+03   -0.76234E-03   -0.75517E-03  8424   0.110E-02-0.244E-04
CGA:   4    -0.676455302825E+03   -0.18568E-03   -0.17816E-03  8424   0.281E-03-0.230E-04
CGA:   5    -0.676455361097E+03   -0.58272E-04   -0.50680E-04  8424   0.668E-04-0.261E-04
CGA:   6    -0.676455387311E+03   -0.26214E-04   -0.20876E-04  8424   0.717E-04-0.456E-04
CGA:   7    -0.676455403231E+03   -0.15921E-04   -0.11672E-04  8424   0.168E-04-0.145E-04
CGA:   8    -0.676455425322E+03   -0.22091E-04    0.33726E-05  8424   0.316E-04-0.140E-04
CGA:   9    -0.676455438097E+03   -0.12775E-04   -0.80836E-05  8424   0.301E-04-0.253E-04
CGA:  10    -0.676455449495E+03   -0.11399E-04   -0.70062E-05  8424   0.195E-04-0.221E-04
CGA:  11    -0.676455447790E+03    0.17053E-05   -0.12491E-04  8424   0.226E-03-0.650E-04
CGA:  12    -0.676455487214E+03   -0.39424E-04   -0.35751E-04  8424   0.243E-05-0.134E-04
CGA:  13    -0.676455506593E+03   -0.19379E-04    0.52285E-07  8424   0.361E-05 0.237E-07
CGA:  14    -0.676455551937E+03   -0.45344E-04    0.55253E-07  8424   0.351E-05 0.283E-05
CGA:  15    -0.676455571107E+03   -0.19170E-04    0.13327E-06  8424   0.651E-05-0.196E-05
CGA:  16    -0.676455583491E+03   -0.12384E-04    0.10719E-05  8424   0.232E-04-0.852E-05
CGA:  17    -0.676455539765E+03    0.43726E-04   -0.20419E-04  8424   0.952E-03-0.140E-03
CGA:  18    -0.676455629829E+03   -0.90064E-04   -0.10179E-03  8424   0.984E-05 0.351E-04
CGA:  19    -0.676455646551E+03   -0.16722E-04    0.23404E-05  8424   0.180E-04-0.921E-05
CGA:  20    -0.676455558176E+03    0.88375E-04   -0.22260E-04  8424   0.129E-02-0.137E-03
CGA:  21    -0.676455700352E+03   -0.14218E-03   -0.14505E-03  8424   0.288E-04 0.778E-05
CGA:  22    -0.676455676992E+03    0.23360E-04   -0.29993E-04  8424   0.298E-03-0.912E-04
CGA:  23    -0.676455760459E+03   -0.83467E-04   -0.77745E-04  8424   0.276E-04-0.265E-04
CGA:  24    -0.676455768988E+03   -0.85294E-05   -0.50966E-05  8424   0.111E-04-0.130E-04
   8 F= -.67645577E+03 E0= -.67645577E+03  d E =-.215209E-02  mag=     1.0000
       N       E                     dE             d eps       ncg     rms          ort
SDA:   1    -0.676452906378E+03    0.28541E-02    0.00000E+00  8424   0.198E-01 0.000E+00
CGA:   2    -0.676458103517E+03   -0.51971E-02   -0.52013E-02  8424   0.868E-02 0.222E-04
CGA:   3    -0.676459816622E+03   -0.17131E-02   -0.17101E-02  8424   0.230E-02-0.135E-04
CGA:   4    -0.676460220160E+03   -0.40354E-03   -0.38886E-03  8424   0.588E-03-0.565E-04
CGA:   5    -0.676460334715E+03   -0.11455E-03   -0.10314E-03  8424   0.132E-03-0.480E-04
CGA:   6    -0.676460371139E+03   -0.36424E-04   -0.31319E-04  8424   0.575E-04-0.346E-04
CGA:   7    -0.676460313171E+03    0.57968E-04   -0.42162E-04  8424   0.876E-03-0.168E-03
CGA:   8    -0.676460432929E+03   -0.11976E-03   -0.11796E-03  8424   0.738E-04-0.622E-05
CGA:   9    -0.676460463331E+03   -0.30402E-04   -0.30456E-04  8424   0.683E-04-0.400E-04
CGA:  10    -0.676460483620E+03   -0.20290E-04   -0.15570E-04  8424   0.218E-04-0.254E-04
CGA:  11    -0.676460504423E+03   -0.20802E-04    0.31628E-05  8424   0.147E-04-0.806E-05
CGA:  12    -0.676460539377E+03   -0.34955E-04    0.51348E-06  8424   0.399E-05 0.104E-05
CGA:  13    -0.676460566319E+03   -0.26942E-04    0.12755E-06  8424   0.329E-05 0.352E-06
CGA:  14    -0.676460604391E+03   -0.38072E-04    0.59530E-07  8424   0.300E-05 0.210E-05
CGA:  15    -0.676460620064E+03   -0.15673E-04    0.11171E-06  8424   0.254E-05 0.185E-06
CGA:  16    -0.676460652380E+03   -0.32316E-04    0.39559E-07  8424   0.272E-05 0.160E-05
CGA:  17    -0.676460666551E+03   -0.14172E-04    0.10115E-06  8424   0.292E-05 0.200E-06
CGA:  18    -0.676460704315E+03   -0.37764E-04    0.45855E-07  8424   0.361E-05 0.113E-05
CGA:  19    -0.676460762861E+03   -0.58546E-04    0.75350E-07  8424   0.262E-05 0.436E-05
CGA:  20    -0.676460775510E+03   -0.12649E-04    0.10727E-06  8424   0.379E-05 0.228E-07
CGA:  21    -0.676460817987E+03   -0.42476E-04    0.60950E-07  8424   0.321E-05 0.126E-05
CGA:  22    -0.676460868844E+03   -0.50857E-04    0.63174E-07  8424   0.363E-05 0.311E-05
CGA:  23    -0.676460880745E+03   -0.11901E-04    0.24025E-06  8424   0.645E-05-0.133E-05
CGA:  24    -0.676460926558E+03   -0.45814E-04    0.64198E-07  8424   0.695E-05 0.401E-06
CGA:  25    -0.676460991970E+03   -0.65412E-04    0.15003E-06  8424   0.168E-04-0.307E-05
CGA:  26    -0.676461151977E+03   -0.16001E-03    0.94061E-07  8424   0.484E-04 0.598E-06
CGA:  27    -0.676461647739E+03   -0.49576E-03    0.90489E-06  8424   0.586E-04 0.976E-05
CGA:  28    -0.676462326591E+03   -0.67885E-03    0.13087E-05  8424   0.825E-04-0.332E-05
CGA:  29    -0.676463318480E+03   -0.99189E-03    0.10696E-05  8424   0.755E-04 0.227E-04
CGA:  30    -0.676464212638E+03   -0.89416E-03    0.18608E-05  8424   0.151E-03-0.541E-04
CGA:  31    -0.676464268201E+03   -0.55563E-04   -0.40282E-04  8424   0.113E-03-0.110E-03
CGA:  32    -0.676464267932E+03    0.26984E-06   -0.10526E-04  8424   0.127E-04 0.355E-04
   9 F= -.67646427E+03 E0= -.67646427E+03  d E =-.849894E-02  mag=     1.0000
       N       E                     dE             d eps       ncg     rms          ort
SDA:   1    -0.676455972336E+03    0.82959E-02    0.00000E+00  8424   0.398E-01 0.000E+00
CGA:   2    -0.676463687381E+03   -0.77150E-02   -0.77012E-02  8424   0.149E-01-0.873E-04
CGA:   3    -0.676467045571E+03   -0.33582E-02   -0.33750E-02  8424   0.527E-02 0.125E-03
CGA:   4    -0.676467906874E+03   -0.86130E-03   -0.86375E-03  8424   0.123E-02 0.119E-04
CGA:   5    -0.676468137575E+03   -0.23070E-03   -0.22281E-03  8424   0.259E-03-0.492E-04
CGA:   6    -0.676468204950E+03   -0.67375E-04   -0.61696E-04  8424   0.110E-03-0.667E-04
CGA:   7    -0.676468232000E+03   -0.27050E-04   -0.27254E-04  8424   0.907E-04-0.615E-04
CGA:   8    -0.676468243876E+03   -0.11876E-04   -0.12774E-04  8424   0.129E-04 0.473E-05
CGA:   9    -0.676468254231E+03   -0.10354E-04    0.11265E-04  8424   0.503E-05-0.160E-05
CGA:  10    -0.676468268839E+03   -0.14608E-04    0.16892E-06  8424   0.327E-05 0.653E-07
CGA:  11    -0.676468289774E+03   -0.20935E-04    0.59807E-07  8424   0.211E-05 0.128E-05
CGA:  12    -0.676468313315E+03   -0.23542E-04    0.40602E-07  8424   0.189E-05 0.152E-05
CGA:  13    -0.676468321266E+03   -0.79512E-05    0.54002E-07  8424   0.143E-05 0.589E-06
  10 F= -.67646832E+03 E0= -.67646832E+03  d E =-.405333E-02  mag=     1.0000
       N       E                     dE             d eps       ncg     rms          ort
SDA:   1    -0.676459487079E+03    0.88262E-02    0.00000E+00  8424   0.346E-01 0.000E+00
CGA:   2    -0.676467689722E+03   -0.82026E-02   -0.82026E-02  8424   0.167E-01-0.352E-05
CGA:   3    -0.676470988901E+03   -0.32992E-02   -0.33053E-02  8424   0.424E-02 0.481E-04
CGA:   4    -0.676471683351E+03   -0.69445E-03   -0.69138E-03  8424   0.105E-02-0.218E-04
CGA:   5    -0.676471882399E+03   -0.19905E-03   -0.19271E-03  8424   0.237E-03-0.539E-04
CGA:   6    -0.676471937239E+03   -0.54840E-04   -0.52363E-04  8424   0.757E-04-0.390E-04
CGA:   7    -0.676471956638E+03   -0.19399E-04   -0.22279E-04  8424   0.832E-04-0.489E-04
CGA:   8    -0.676471972109E+03   -0.15471E-04   -0.13703E-04  8424   0.157E-04-0.134E-04
CGA:   9    -0.676471985403E+03   -0.13293E-04    0.25755E-05  8424   0.505E-05-0.216E-05
CGA:  10    -0.676471999877E+03   -0.14475E-04    0.13341E-06  8424   0.231E-05 0.699E-06
CGA:  11    -0.676472015898E+03   -0.16021E-04    0.40146E-07  8424   0.140E-05 0.146E-05
CGA:  12    -0.676472025117E+03   -0.92188E-05    0.19509E-07  8424   0.113E-05 0.785E-06
  11 F= -.67647203E+03 E0= -.67647203E+03  d E =-.370385E-02  mag=     1.0000
       N       E                     dE             d eps       ncg     rms          ort
SDA:   1    -0.676465417208E+03    0.65987E-02    0.00000E+00  8424   0.206E-01 0.000E+00
CGA:   2    -0.676470472772E+03   -0.50556E-02   -0.50545E-02  8424   0.965E-02-0.263E-04
CGA:   3    -0.676472359055E+03   -0.18863E-02   -0.18795E-02  8424   0.255E-02-0.750E-04
CGA:   4    -0.676472780679E+03   -0.42162E-03   -0.41941E-03  8424   0.628E-03-0.194E-04
CGA:   5    -0.676472887214E+03   -0.10654E-03   -0.10646E-03  8424   0.123E-03-0.835E-06
CGA:   6    -0.676472915415E+03   -0.28201E-04   -0.27697E-04  8424   0.345E-04-0.110E-04
CGA:   7    -0.676472652160E+03    0.26326E-03   -0.14230E-03  8424   0.187E-02-0.215E-03
CGA:   8    -0.676472924603E+03   -0.27244E-03   -0.27114E-03  8424   0.197E-03-0.409E-05
CGA:   9    -0.676472979124E+03   -0.54521E-04   -0.52247E-04  8424   0.495E-04-0.109E-04
CGA:  10    -0.676472999890E+03   -0.20766E-04   -0.19291E-04  8424   0.432E-04-0.288E-04
CGA:  11    -0.676473009995E+03   -0.10105E-04   -0.85537E-05  8424   0.722E-05-0.591E-05
CGA:  12    -0.676473026452E+03   -0.16457E-04    0.71814E-06  8424   0.686E-05-0.302E-05
CGA:  13    -0.676473043335E+03   -0.16883E-04    0.24100E-06  8424   0.111E-04-0.330E-05
CGA:  14    -0.676473093746E+03   -0.50410E-04    0.14651E-06  8424   0.121E-04-0.294E-05
CGA:  15    -0.676473155709E+03   -0.61963E-04    0.29607E-06  8424   0.578E-05-0.840E-06
CGA:  16    -0.676473196329E+03   -0.40620E-04    0.16247E-06  8424   0.967E-05-0.502E-06
CGA:  17    -0.676473278865E+03   -0.82536E-04    0.21015E-06  8424   0.115E-04-0.117E-05
CGA:  18    -0.676473382912E+03   -0.10405E-03    0.21549E-06  8424   0.810E-05 0.247E-05
CGA:  19    -0.676473471911E+03   -0.88999E-04    0.24291E-06  8424   0.185E-04-0.431E-05
CGA:  20    -0.676473474171E+03   -0.22603E-05   -0.25262E-05  8424   0.243E-05 0.849E-06
  12 F= -.67647347E+03 E0= -.67647347E+03  d E =-.144905E-02  mag=     1.0000
       N       E                     dE             d eps       ncg     rms          ort
SDA:   1    -0.676469731619E+03    0.37403E-02    0.00000E+00  8424   0.840E-02 0.000E+00
CGA:   2    -0.676471856292E+03   -0.21247E-02   -0.21149E-02  8424   0.420E-02-0.552E-04
CGA:   3    -0.676472677800E+03   -0.82151E-03   -0.81011E-03  8424   0.107E-02-0.505E-04
CGA:   4    -0.676472854097E+03   -0.17630E-03   -0.17348E-03  8424   0.255E-03-0.115E-04
CGA:   5    -0.676472896105E+03   -0.42008E-04   -0.42654E-04  8424   0.501E-04 0.275E-05
CGA:   6    -0.676472908916E+03   -0.12811E-04   -0.11933E-04  8424   0.157E-04-0.577E-05
CGA:   7    -0.676472923695E+03   -0.14779E-04    0.66388E-05  8424   0.195E-04-0.104E-04
CGA:   8    -0.676472930808E+03   -0.71130E-05   -0.54115E-05  8424   0.225E-04-0.166E-04
  13 F= -.67647293E+03 E0= -.67647293E+03  d E =0.543363E-03  mag=     1.0000
       N       E                     dE             d eps       ncg     rms          ort
SDA:   1    -0.676467328113E+03    0.55956E-02    0.00000E+00  8424   0.115E-01 0.000E+00
CGA:   2    -0.676470216262E+03   -0.28881E-02   -0.28819E-02  8424   0.566E-02-0.544E-04
CGA:   3    -0.676471318896E+03   -0.11026E-02   -0.10931E-02  8424   0.158E-02-0.580E-04
CGA:   4    -0.676471562310E+03   -0.24341E-03   -0.23948E-03  8424   0.395E-03-0.199E-04
CGA:   5    -0.676471629436E+03   -0.67126E-04   -0.66690E-04  8424   0.719E-04-0.260E-05
CGA:   6    -0.676471646104E+03   -0.16668E-04   -0.16244E-04  8424   0.201E-04-0.397E-05
CGA:   7    -0.676471660671E+03   -0.14567E-04    0.19196E-04  8424   0.162E-04-0.879E-05
CGA:   8    -0.676471679407E+03   -0.18735E-04    0.71466E-06  8424   0.114E-04-0.613E-05
CGA:   9    -0.676471700062E+03   -0.20656E-04    0.34022E-06  8424   0.737E-05-0.139E-05
CGA:  10    -0.676471721938E+03   -0.21876E-04    0.25782E-06  8424   0.512E-05-0.114E-06
CGA:  11    -0.676471744986E+03   -0.23048E-04    0.13978E-06  8424   0.323E-05 0.477E-06
CGA:  12    -0.676471768354E+03   -0.23368E-04    0.64290E-07  8424   0.243E-05 0.123E-05
CGA:  13    -0.676471795549E+03   -0.27195E-04    0.48778E-07  8424   0.196E-05 0.143E-05
CGA:  14    -0.676471803701E+03   -0.81520E-05    0.60641E-07  8424   0.113E-05 0.389E-06
  14 F= -.67647180E+03 E0= -.67647180E+03  d E =0.112711E-02  mag=     1.0000
       N       E                     dE             d eps       ncg     rms          ort
SDA:   1    -0.676467194739E+03    0.46008E-02    0.00000E+00  8424   0.974E-02 0.000E+00
CGA:   2    -0.676469820374E+03   -0.26256E-02   -0.26265E-02  8424   0.518E-02 0.140E-04
CGA:   3    -0.676470794700E+03   -0.97433E-03   -0.97277E-03  8424   0.114E-02-0.121E-04
CGA:   4    -0.676470984696E+03   -0.19000E-03   -0.18529E-03  8424   0.281E-03-0.301E-04
CGA:   5    -0.676471042564E+03   -0.57868E-04   -0.53378E-04  8424   0.758E-04-0.385E-04
CGA:   6    -0.676471062452E+03   -0.19889E-04   -0.19714E-04  8424   0.528E-04-0.378E-04
CGA:   7    -0.676471079251E+03   -0.16799E-04    0.10095E-03  8424   0.366E-04-0.227E-04
CGA:   8    -0.676471102719E+03   -0.23467E-04    0.37809E-05  8424   0.176E-04-0.582E-05
CGA:   9    -0.676471123925E+03   -0.21206E-04    0.16894E-05  8424   0.835E-05-0.149E-05
CGA:  10    -0.676471144294E+03   -0.20369E-04    0.34809E-06  8424   0.449E-05-0.393E-06
CGA:  11    -0.676471163078E+03   -0.18784E-04    0.10571E-06  8424   0.241E-05 0.401E-06
CGA:  12    -0.676471181510E+03   -0.18433E-04    0.38440E-07  8424   0.180E-05 0.116E-05
CGA:  13    -0.676471204437E+03   -0.22927E-04    0.31378E-07  8424   0.145E-05 0.139E-05
CGA:  14    -0.676471213136E+03   -0.86989E-05    0.25327E-07  8424   0.875E-06 0.593E-06
  15 F= -.67647121E+03 E0= -.67647121E+03  d E =0.590566E-03  mag=     1.0000
       N       E                     dE             d eps       ncg     rms          ort
SDA:   1    -0.676453933744E+03    0.17271E-01    0.00000E+00  8424   0.386E-01 0.000E+00
CGA:   2    -0.676464848471E+03   -0.10915E-01   -0.10917E-01  8424   0.203E-01 0.100E-03
CGA:   3    -0.676468544077E+03   -0.36956E-02   -0.37001E-02  8424   0.437E-02 0.331E-04
CGA:   4    -0.676469268884E+03   -0.72481E-03   -0.71564E-03  8424   0.106E-02-0.690E-04
CGA:   5    -0.676469473597E+03   -0.20471E-03   -0.19445E-03  8424   0.255E-03-0.976E-04
CGA:   6    -0.676469534303E+03   -0.60705E-04   -0.58597E-04  8424   0.957E-04-0.641E-04
CGA:   7    -0.676469554971E+03   -0.20669E-04   -0.20984E-04  8424   0.589E-04-0.377E-04
CGA:   8    -0.676469576296E+03   -0.21325E-04    0.10939E-03  8424   0.246E-04-0.131E-04
CGA:   9    -0.676469599402E+03   -0.23106E-04    0.24499E-05  8424   0.874E-05-0.107E-05
CGA:  10    -0.676469619889E+03   -0.20487E-04    0.36184E-06  8424   0.355E-05 0.633E-06
CGA:  11    -0.676469637457E+03   -0.17568E-04    0.76601E-07  8424   0.191E-05 0.686E-06
CGA:  12    -0.676469656164E+03   -0.18707E-04    0.24297E-07  8424   0.155E-05 0.123E-05
CGA:  13    -0.676469666308E+03   -0.10143E-04    0.20962E-07  8424   0.956E-06 0.793E-06
CGA:  14    -0.676469676279E+03   -0.99708E-05    0.78941E-08  8424   0.848E-06 0.775E-06
  16 F= -.67646968E+03 E0= -.67646968E+03  d E =0.153686E-02  mag=     1.0000
       N       E                     dE             d eps       ncg     rms          ort
SDA:   1    -0.676462579473E+03    0.70868E-02    0.00000E+00  8424   0.212E-01 0.000E+00
CGA:   2    -0.676466973955E+03   -0.43945E-02   -0.43961E-02  8424   0.895E-02 0.173E-04
CGA:   3    -0.676468925389E+03   -0.19514E-02   -0.19465E-02  8424   0.292E-02-0.793E-04
CGA:   4    -0.676469407131E+03   -0.48174E-03   -0.47536E-03  8424   0.698E-03-0.567E-04
CGA:   5    -0.676469533241E+03   -0.12611E-03   -0.12246E-03  8424   0.149E-03-0.392E-04
CGA:   6    -0.676469568502E+03   -0.35261E-04   -0.34552E-04  8424   0.536E-04-0.329E-04
CGA:   7    -0.676469553642E+03    0.14860E-04   -0.28400E-04  8424   0.351E-03-0.104E-03
CGA:   8    -0.676469605713E+03   -0.52071E-04   -0.49394E-04  8424   0.331E-04-0.183E-04
CGA:   9    -0.676469359514E+03    0.24620E-03   -0.13284E-03  8424   0.165E-02-0.198E-03
CGA:  10    -0.676469630606E+03   -0.27109E-03   -0.26589E-03  8424   0.184E-03-0.151E-04
CGA:  11    -0.676469682862E+03   -0.52256E-04   -0.50120E-04  8424   0.172E-04-0.981E-05
CGA:  12    -0.676469704659E+03   -0.21797E-04    0.10161E-04  8424   0.136E-04-0.970E-05
CGA:  13    -0.676469711236E+03   -0.65768E-05   -0.57169E-05  8424   0.224E-04-0.139E-04
CGA:  14    -0.676469245992E+03    0.46524E-03   -0.49860E-04  8424   0.424E-02-0.294E-03
CGA:  15    -0.676469744254E+03   -0.49826E-03   -0.55688E-03  8424   0.188E-03 0.143E-03
CGA:  16    -0.676469797907E+03   -0.53653E-04   -0.42162E-04  8424   0.158E-04-0.351E-04
CGA:  17    -0.676469802539E+03   -0.46318E-05   -0.35170E-05  8424   0.632E-05-0.437E-05
  17 F= -.67646980E+03 E0= -.67646980E+03  d E =-.126261E-03  mag=     1.0000
       N       E                     dE             d eps       ncg     rms          ort
SDA:   1    -0.676468259482E+03    0.15384E-02    0.00000E+00  8424   0.634E-02 0.000E+00
CGA:   2    -0.676469634759E+03   -0.13753E-02   -0.13302E-02  8424   0.300E-02-0.150E-03
CGA:   3    -0.676470214180E+03   -0.57942E-03   -0.58347E-03  8424   0.907E-03 0.129E-04
CGA:   4    -0.676470365958E+03   -0.15178E-03   -0.14831E-03  8424   0.217E-03-0.109E-04
CGA:   5    -0.676470407830E+03   -0.41872E-04   -0.37357E-04  8424   0.502E-04-0.154E-04
CGA:   6    -0.676470419399E+03   -0.11569E-04   -0.10119E-04  8424   0.149E-04-0.612E-05
CGA:   7    -0.676470441249E+03   -0.21850E-04    0.32834E-05  8424   0.302E-04-0.145E-04
CGA:   8    -0.676470445709E+03   -0.44600E-05   -0.42910E-05  8424   0.358E-05-0.568E-06
  18 F= -.67647045E+03 E0= -.67647045E+03  d E =-.643170E-03  mag=     1.0000
       N       E                     dE             d eps       ncg     rms          ort
SDA:   1    -0.676468453788E+03    0.19875E-02    0.00000E+00  8424   0.820E-02 0.000E+00
CGA:   2    -0.676470249345E+03   -0.17956E-02   -0.17772E-02  8424   0.370E-02-0.882E-04
CGA:   3    -0.676471017485E+03   -0.76814E-03   -0.76421E-03  8424   0.113E-02-0.199E-04
CGA:   4    -0.676471198272E+03   -0.18079E-03   -0.17879E-03  8424   0.264E-03-0.827E-05
CGA:   5    -0.676471244264E+03   -0.45992E-04   -0.45387E-04  8424   0.557E-04-0.278E-05
CGA:   6    -0.676471259992E+03   -0.15728E-04   -0.13977E-04  8424   0.229E-04-0.135E-04
CGA:   7    -0.676471279828E+03   -0.19836E-04    0.63351E-05  8424   0.310E-04-0.171E-04
CGA:   8    -0.676471287972E+03   -0.81448E-05   -0.61021E-05  8424   0.119E-04-0.114E-04
  19 F= -.67647129E+03 E0= -.67647129E+03  d E =-.842264E-03  mag=     1.0000
       N       E                     dE             d eps       ncg     rms          ort
SDA:   1    -0.676470202235E+03    0.10776E-02    0.00000E+00  8424   0.205E-02 0.000E+00
CGA:   2    -0.676470623690E+03   -0.42146E-03   -0.41690E-03  8424   0.881E-03-0.280E-04
CGA:   3    -0.676470823223E+03   -0.19953E-03   -0.19518E-03  8424   0.308E-03-0.326E-04
CGA:   4    -0.676470879559E+03   -0.56336E-04   -0.50517E-04  8424   0.885E-04-0.320E-04
CGA:   5    -0.676470900750E+03   -0.21191E-04   -0.17343E-04  8424   0.355E-04-0.308E-04
CGA:   6    -0.676470885865E+03    0.14885E-04   -0.17220E-04  8424   0.331E-03-0.788E-04
CGA:   7    -0.676470933400E+03   -0.47535E-04   -0.42712E-04  8424   0.344E-04-0.211E-04
CGA:   8    -0.676470934401E+03   -0.10011E-05   -0.21554E-04  8424   0.190E-03-0.637E-04
CGA:   9    -0.676470964884E+03   -0.30484E-04   -0.28608E-04  8424   0.179E-04-0.889E-05
CGA:  10    -0.676470705255E+03    0.25963E-03   -0.14105E-03  8424   0.162E-02-0.158E-03
CGA:  11    -0.676471003382E+03   -0.29813E-03   -0.29037E-03  8424   0.166E-03-0.170E-04
CGA:  12    -0.676471049565E+03   -0.46182E-04   -0.41640E-04  8424   0.961E-05-0.125E-04
CGA:  13    -0.676471070726E+03   -0.21162E-04    0.27181E-05  8424   0.264E-04-0.111E-04
CGA:  14    -0.676471073543E+03   -0.28174E-05   -0.37276E-05  8424   0.280E-05 0.198E-05
  20 F= -.67647107E+03 E0= -.67647107E+03  d E =0.214429E-03  mag=     1.0000
       N       E                     dE             d eps       ncg     rms          ort
SDA:   1    -0.676469475305E+03    0.15954E-02    0.00000E+00  8424   0.513E-02 0.000E+00
CGA:   2    -0.676470628199E+03   -0.11529E-02   -0.11387E-02  8424   0.241E-02-0.407E-04
CGA:   3    -0.676471135979E+03   -0.50778E-03   -0.50681E-03  8424   0.707E-03-0.344E-05
CGA:   4    -0.676471257065E+03   -0.12109E-03   -0.11243E-03  8424   0.168E-03-0.227E-04
CGA:   5    -0.676471295222E+03   -0.38157E-04   -0.31227E-04  8424   0.429E-04-0.210E-04
CGA:   6    -0.676471307914E+03   -0.12693E-04   -0.94484E-05  8424   0.194E-04-0.127E-04
CGA:   7    -0.676471327250E+03   -0.19336E-04    0.77729E-05  8424   0.557E-04-0.228E-04
CGA:   8    -0.676471335606E+03   -0.83558E-05   -0.77070E-05  8424   0.638E-05-0.183E-05
