       N       E                     dE             d eps       ncg     rms          ort
DAV:   1     0.828425352098E+04    0.82843E+04   -0.24669E+05  8424   0.238E+03
DAV:   2     0.918108617208E+03   -0.73661E+04   -0.69162E+04  8424   0.658E+02
DAV:   3    -0.678422405220E+03   -0.15965E+04   -0.14041E+04  8424   0.283E+02
DAV:   4    -0.834686010721E+03   -0.15626E+03   -0.15355E+03  8424   0.857E+01
DAV:   5    -0.837220431109E+03   -0.25344E+01   -0.25225E+01  8424   0.122E+01
SDA:   6    -0.243717992798E+03    0.59350E+03   -0.25225E+01  8424   0.744E+04 0.000E+00
CGA:   7    -0.159391473666E+03    0.84327E+02   -0.44678E+03  8424   0.307E+05-0.477E+04
CGA:   8     0.188405432145E+04    0.20434E+04   -0.19767E+04  8424   0.167E+06-0.591E+05
CGA:   9     0.534384931706E+04    0.34598E+04   -0.13425E+05  8424   0.303E+05-0.173E+05
CGA:  10     0.253533452344E+04   -0.28085E+04   -0.13823E+04  8424   0.107E+06-0.138E+06
CGA:  11     0.513482198282E+04    0.25995E+04   -0.74647E+04  8424   0.212E+05-0.133E+05
CGA:  12     0.942793426474E+03   -0.41920E+04   -0.75339E+03  8424   0.339E+05-0.790E+05
CGA:  13     0.220401303719E+04    0.12612E+04   -0.18003E+04  8424   0.116E+06-0.583E+05
CGA:  14     0.456461778726E+04    0.23606E+04   -0.76367E+04  8424   0.192E+05-0.138E+05
CGA:  15    -0.581891935278E+03   -0.51465E+04   -0.53808E+03  8424   0.236E+04 0.220E+03
CGA:  16    -0.616904980102E+03   -0.35013E+02   -0.11309E+03  8424   0.325E+03-0.296E+03
CGA:  17    -0.638342870877E+03   -0.21438E+02   -0.18087E+02  8424   0.145E+03 0.526E+02
CGA:  18    -0.654045719673E+03   -0.15703E+02   -0.17268E+02  8424   0.902E+02 0.141E+02
CGA:  19    -0.658535753907E+03   -0.44900E+01   -0.73180E+01  8424   0.838E+02-0.928E+01
CGA:  20    -0.665857006390E+03   -0.73213E+01   -0.78436E+01  8424   0.746E+02 0.256E+01
CGA:  21    -0.670217540983E+03   -0.43605E+01   -0.42693E+01  8424   0.672E+02-0.599E+02
CGA:  22    -0.671333788478E+03   -0.11162E+01   -0.35919E+01  8424   0.483E+02-0.335E+02
CGA:  23    -0.673544894502E+03   -0.22111E+01   -0.20699E+01  8424   0.581E+01-0.293E+01
CGA:  24    -0.674063079238E+03   -0.51818E+00   -0.52043E+00  8424   0.773E+01-0.179E-01
CGA:  25    -0.674683638073E+03   -0.62056E+00   -0.65232E+00  8424   0.385E+01-0.254E+00
CGA:  26    -0.675129756343E+03   -0.44612E+00   -0.44612E+00  8424   0.257E+01-0.820E-02
CGA:  27    -0.675428378574E+03   -0.29862E+00   -0.29993E+00  8424   0.145E+01 0.289E+00
CGA:  28    -0.675594239429E+03   -0.16586E+00   -0.16988E+00  8424   0.123E+01 0.129E+00
CGA:  29    -0.675670753453E+03   -0.76514E-01   -0.73669E-01  8424   0.107E+01 0.227E-01
CGA:  30    -0.675746431627E+03   -0.75678E-01   -0.76525E-01  8424   0.874E+00 0.314E-01
CGA:  31    -0.675792365732E+03   -0.45934E-01   -0.52060E-01  8424   0.348E+00-0.391E-01
CGA:  32    -0.675814991238E+03   -0.22626E-01   -0.24244E-01  8424   0.264E+00-0.248E-02
CGA:  33    -0.675835419349E+03   -0.20428E-01   -0.20964E-01  8424   0.755E-01 0.543E-02
CGA:  34    -0.675844673805E+03   -0.92545E-02   -0.91639E-02  8424   0.786E-01 0.526E-02
CGA:  35    -0.675855858100E+03   -0.11184E-01   -0.10961E-01  8424   0.364E-01 0.526E-02
CGA:  36    -0.675864163176E+03   -0.83051E-02   -0.84085E-02  8424   0.461E-01-0.120E-02
CGA:  37    -0.675869299540E+03   -0.51364E-02   -0.51413E-02  8424   0.295E-01-0.330E-02
CGA:  38    -0.675876407693E+03   -0.71082E-02   -0.82717E-02  8424   0.425E-01-0.590E-02
CGA:  39    -0.675883098680E+03   -0.66910E-02   -0.69597E-02  8424   0.421E-01-0.408E-02
CGA:  40    -0.675889094860E+03   -0.59962E-02   -0.64368E-02  8424   0.313E-01-0.969E-02
CGA:  41    -0.675895472179E+03   -0.63773E-02    0.74482E-01  8424   0.170E-01 0.160E-01
CGA:  42    -0.675898881390E+03   -0.34092E-02   -0.39846E-02  8424   0.313E-01-0.571E-02
CGA:  43    -0.675903475861E+03   -0.45945E-02   -0.52457E-02  8424   0.444E-01-0.588E-02
CGA:  44    -0.675910136847E+03   -0.66610E-02   -0.74393E-02  8424   0.472E-01-0.117E-01
CGA:  45    -0.675915403146E+03   -0.52663E-02   -0.53490E-02  8424   0.515E-01-0.107E-01
CGA:  46    -0.675727783759E+03    0.18762E+00   -0.55211E-01  8424   0.399E+01-0.458E+00
CGA:  47    -0.675897729100E+03   -0.16995E+00   -0.44560E+00  8424   0.910E+00-0.834E+00
CGA:  48    -0.675990022256E+03   -0.92293E-01   -0.89863E-01  8424   0.642E-01 0.195E-01
CGA:  49    -0.676025078318E+03   -0.35056E-01   -0.46700E-01  8424   0.205E+00-0.247E-01
CGA:  50    -0.676057983798E+03   -0.32905E-01   -0.32182E-01  8424   0.164E+00-0.324E-01
CGA:  51    -0.676089175466E+03   -0.31192E-01   -0.30094E-01  8424   0.139E+00-0.205E-01
CGA:  52    -0.676120863106E+03   -0.31688E-01   -0.31451E-01  8424   0.849E-01-0.229E-01
CGA:  53    -0.676140762254E+03   -0.19899E-01   -0.20311E-01  8424   0.914E-01-0.207E-01
CGA:  54    -0.676159402166E+03   -0.18640E-01   -0.18652E-01  8424   0.720E-01-0.206E-01
CGA:  55    -0.676172466640E+03   -0.13064E-01   -0.12557E-01  8424   0.485E-01-0.120E-01
CGA:  56    -0.676181010478E+03   -0.85438E-02   -0.81095E-02  8424   0.209E-01-0.664E-02
CGA:  57    -0.676185091461E+03   -0.40810E-02   -0.40174E-02  8424   0.175E-01-0.162E-02
CGA:  58    -0.676189395096E+03   -0.43036E-02   -0.43012E-02  8424   0.130E-01 0.398E-03
CGA:  59    -0.676191994915E+03   -0.25998E-02   -0.27014E-02  8424   0.845E-02 0.167E-02
CGA:  60    -0.676193889880E+03   -0.18950E-02   -0.20188E-02  8424   0.511E-02 0.261E-02
CGA:  61    -0.676194845504E+03   -0.95562E-03   -0.11344E-02  8424   0.268E-02 0.206E-02
CGA:  62    -0.676195441642E+03   -0.59614E-03   -0.70343E-03  8424   0.186E-02 0.164E-02
CGA:  63    -0.676195916178E+03   -0.47454E-03   -0.47311E-03  8424   0.105E-02 0.240E-03
CGA:  64    -0.676196275315E+03   -0.35914E-03   -0.33841E-03  8424   0.473E-03 0.593E-03
CGA:  65    -0.676196403717E+03   -0.12840E-03   -0.12511E-03  8424   0.305E-03 0.246E-03
CGA:  66    -0.676196472391E+03   -0.68675E-04   -0.72138E-04  8424   0.252E-03 0.229E-03
CGA:  67    -0.676196553849E+03   -0.81458E-04   -0.73211E-04  8424   0.227E-03 0.205E-03
CGA:  68    -0.676196618887E+03   -0.65038E-04   -0.61692E-04  8424   0.211E-03 0.181E-03
CGA:  69    -0.676196698436E+03   -0.79549E-04   -0.68515E-04  8424   0.220E-03 0.155E-03
CGA:  70    -0.676196763492E+03   -0.65056E-04   -0.62044E-04  8424   0.232E-03 0.119E-03
CGA:  71    -0.676196829927E+03   -0.66435E-04   -0.64716E-04  8424   0.261E-03 0.834E-04
CGA:  72    -0.676197156465E+03   -0.32654E-03   -0.21520E-03  8424   0.167E-03 0.314E-03
CGA:  73    -0.676197255638E+03   -0.99174E-04   -0.86508E-04  8424   0.410E-03 0.506E-04
CGA:  74    -0.676197600528E+03   -0.34489E-03    0.67843E-03  8424   0.190E-03 0.487E-03
CGA:  75    -0.676197719014E+03   -0.11849E-03    0.34746E-03  8424   0.235E-03 0.479E-04
CGA:  76    -0.676197940331E+03   -0.22132E-03    0.14348E-03  8424   0.196E-03 0.287E-03
CGA:  77    -0.676198003852E+03   -0.63521E-04   -0.63231E-04  8424   0.311E-03 0.759E-05
CGA:  78    -0.676198266725E+03   -0.26287E-03    0.11723E-03  8424   0.283E-03 0.313E-03
CGA:  79    -0.676198177666E+03    0.89059E-04   -0.20651E-03  8424   0.400E-02-0.677E-03
CGA:  80    -0.676198602362E+03   -0.42470E-03   -0.47424E-03  8424   0.127E-03 0.255E-03
CGA:  81    -0.676198690034E+03   -0.87672E-04    0.27740E-03  8424   0.174E-03 0.814E-04
CGA:  82    -0.676198818280E+03   -0.12825E-03    0.12245E-03  8424   0.224E-03 0.290E-04
CGA:  83    -0.676199056750E+03   -0.23847E-03    0.79043E-04  8424   0.194E-03 0.255E-03
CGA:  84    -0.676199120623E+03   -0.63873E-04   -0.64494E-04  8424   0.305E-03-0.229E-04
CGA:  85    -0.676199387402E+03   -0.26678E-03    0.65300E-04  8424   0.330E-03 0.256E-03
CGA:  86    -0.676199463949E+03   -0.76548E-04   -0.15961E-03  8424   0.154E-02-0.464E-03
CGA:  87    -0.676199645059E+03   -0.18111E-03   -0.20469E-03  8424   0.109E-03 0.130E-03
CGA:  88    -0.676199746518E+03   -0.10146E-03    0.43422E-04  8424   0.142E-03 0.822E-04
CGA:  89    -0.676199866581E+03   -0.12006E-03    0.55010E-04  8424   0.148E-03 0.552E-04
CGA:  90    -0.676200075349E+03   -0.20877E-03    0.47065E-04  8424   0.139E-03 0.201E-03
CGA:  91    -0.676200167277E+03   -0.91928E-04    0.23826E-03  8424   0.136E-03 0.589E-04
CGA:  92    -0.676200377236E+03   -0.20996E-03    0.37763E-04  8424   0.135E-03 0.188E-03
CGA:  93    -0.676200491970E+03   -0.11473E-03    0.51416E-04  8424   0.122E-03 0.665E-04
CGA:  94    -0.676200686754E+03   -0.19478E-03    0.36864E-04  8424   0.130E-03 0.177E-03
CGA:  95    -0.676200792512E+03   -0.10576E-03    0.58685E-04  8424   0.112E-03 0.745E-04
CGA:  96    -0.676200905147E+03   -0.11263E-03    0.25917E-04  8424   0.107E-03 0.835E-04
CGA:  97    -0.676201005141E+03   -0.99994E-04    0.30526E-04  8424   0.106E-03 0.862E-04
CGA:  98    -0.676201120556E+03   -0.11542E-03    0.20427E-04  8424   0.106E-03 0.871E-04
CGA:  99    -0.676201219022E+03   -0.98466E-04    0.30655E-04  8424   0.107E-03 0.872E-04
CGA: 100    -0.676201338302E+03   -0.11928E-03    0.19465E-04  8424   0.108E-03 0.867E-04
CGA: 101    -0.676201434312E+03   -0.96011E-04    0.36099E-04  8424   0.111E-03 0.854E-04
CGA: 102    -0.676201559115E+03   -0.12480E-03    0.19758E-04  8424   0.114E-03 0.831E-04
CGA: 103    -0.676201650080E+03   -0.90965E-04    0.56425E-04  8424   0.120E-03 0.794E-04
CGA: 104    -0.676201783406E+03   -0.13333E-03    0.21902E-04  8424   0.128E-03 0.735E-04
CGA: 105    -0.676201864181E+03   -0.80775E-04    0.50610E-03  8424   0.141E-03 0.640E-04
CGA: 106    -0.676202011356E+03   -0.14717E-03    0.29822E-04  8424   0.162E-03 0.483E-04
CGA: 107    -0.676202251538E+03   -0.24018E-03    0.40668E-04  8424   0.146E-03 0.217E-03
CGA: 108    -0.676202269734E+03   -0.18196E-04   -0.14482E-03  8424   0.190E-02-0.188E-03
CGA: 109    -0.676202696080E+03   -0.42635E-03   -0.34731E-03  8424   0.312E-03-0.508E-03
CGA: 110    -0.676202825554E+03   -0.12947E-03   -0.17978E-03  8424   0.105E-02-0.114E-03
CGA: 111    -0.676203646715E+03   -0.82116E-03    0.16082E-03  8424   0.416E-03 0.586E-03
CGA: 112    -0.676203772179E+03   -0.12546E-03   -0.18950E-03  8424   0.187E-02-0.628E-03
CGA: 113    -0.676203968983E+03   -0.19680E-03   -0.23985E-03  8424   0.113E-03 0.187E-03
CGA: 114    -0.676204085522E+03   -0.11654E-03    0.62473E-04  8424   0.203E-03 0.729E-04
CGA: 115    -0.676204266529E+03   -0.18101E-03    0.12440E-03  8424   0.348E-03-0.376E-04
CGA: 116    -0.676204654650E+03   -0.38812E-03    0.50478E-04  8424   0.448E-03 0.283E-03
CGA: 117    -0.676204721633E+03   -0.66983E-04   -0.74315E-04  8424   0.132E-03 0.399E-04
CGA: 118    -0.676204904084E+03   -0.18245E-03    0.28027E-04  8424   0.169E-03 0.140E-03
CGA: 119    -0.676205078631E+03   -0.17455E-03    0.54794E-04  8424   0.230E-03 0.409E-04
CGA: 120    -0.676205432283E+03   -0.35365E-03    0.57759E-04  8424   0.201E-03 0.287E-03
CGA: 121    -0.676205464140E+03   -0.31856E-04   -0.17163E-03  8424   0.211E-02-0.273E-03
CGA: 122    -0.676205912127E+03   -0.44799E-03   -0.37837E-03  8424   0.260E-03-0.379E-03
CGA: 123    -0.676206080231E+03   -0.16810E-03    0.34611E-03  8424   0.150E-03 0.120E-03
CGA: 124    -0.676206376528E+03   -0.29630E-03    0.42773E-04  8424   0.148E-03 0.212E-03
CGA: 125    -0.676206549253E+03   -0.17273E-03    0.40239E-04  8424   0.163E-03 0.115E-03
CGA: 126    -0.676206720035E+03   -0.17078E-03    0.60865E-04  8424   0.188E-03 0.993E-04
CGA: 127    -0.676206898607E+03   -0.17857E-03    0.99290E-04  8424   0.226E-03 0.729E-04
CGA: 128    -0.676207298974E+03   -0.40037E-03    0.69252E-04  8424   0.205E-03 0.318E-03
CGA: 129    -0.676207479004E+03   -0.18003E-03    0.15516E-03  8424   0.238E-03 0.727E-04
CGA: 130    -0.676207893224E+03   -0.41422E-03    0.70214E-04  8424   0.225E-03 0.327E-03
CGA: 131    -0.676208081848E+03   -0.18862E-03    0.22114E-03  8424   0.250E-03 0.716E-04
CGA: 132    -0.676208496977E+03   -0.41513E-03    0.75238E-04  8424   0.245E-03 0.334E-03
CGA: 133    -0.676208701156E+03   -0.20418E-03    0.25151E-03  8424   0.263E-03 0.695E-04
CGA: 134    -0.676209128968E+03   -0.42781E-03    0.76256E-04  8424   0.264E-03 0.342E-03
CGA: 135    -0.676209328693E+03   -0.19972E-03    0.71938E-03  8424   0.274E-03 0.688E-04
CGA: 136    -0.676209758285E+03   -0.42959E-03    0.81672E-04  8424   0.280E-03 0.350E-03
CGA: 137    -0.676209986371E+03   -0.22809E-03    0.33778E-03  8424   0.284E-03 0.704E-04
CGA: 138    -0.676210431533E+03   -0.44516E-03    0.82211E-04  8424   0.293E-03 0.359E-03
CGA: 139    -0.676210642094E+03   -0.21056E-03    0.38440E-02  8424   0.291E-03 0.747E-04
CGA: 140    -0.676211091485E+03   -0.44939E-03    0.88774E-04  8424   0.303E-03 0.369E-03
CGA: 141    -0.676211342790E+03   -0.25131E-03    0.31415E-03  8424   0.298E-03 0.807E-04
CGA: 142    -0.676211812215E+03   -0.46942E-03    0.89449E-04  8424   0.310E-03 0.381E-03
CGA: 143    -0.676212032513E+03   -0.22030E-03    0.24952E-01  8424   0.305E-03 0.873E-04
CGA: 144    -0.676212509554E+03   -0.47704E-03    0.96059E-04  8424   0.315E-03 0.392E-03
CGA: 145    -0.676212782602E+03   -0.27305E-03    0.25333E-03  8424   0.311E-03 0.935E-04
CGA: 146    -0.676213280783E+03   -0.49818E-03    0.96086E-04  8424   0.319E-03 0.403E-03
CGA: 147    -0.676213508400E+03   -0.22762E-03    0.89710E-02  8424   0.315E-03 0.986E-04
CGA: 148    -0.676214015493E+03   -0.50709E-03    0.10031E-03  8424   0.320E-03 0.412E-03
CGA: 149    -0.676214307308E+03   -0.29181E-03    0.20020E-03  8424   0.319E-03 0.103E-03
CGA: 150    -0.676214831771E+03   -0.52446E-03    0.98768E-04  8424   0.320E-03 0.418E-03
CGA: 151    -0.676215064548E+03   -0.23278E-03    0.21982E-02  8424   0.319E-03 0.107E-03
CGA: 152    -0.676215598115E+03   -0.53357E-03    0.99061E-04  8424   0.317E-03 0.422E-03
CGA: 153    -0.676215905501E+03   -0.30739E-03    0.15437E-03  8424   0.317E-03 0.113E-03
CGA: 154    -0.676216450257E+03   -0.54476E-03    0.97126E-04  8424   0.313E-03 0.423E-03
CGA: 155    -0.676216690545E+03   -0.24029E-03    0.67396E-03  8424   0.312E-03 0.121E-03
CGA: 156    -0.676217245220E+03   -0.55467E-03    0.94573E-04  8424   0.306E-03 0.422E-03
CGA: 157    -0.676217565731E+03   -0.32051E-03    0.11383E-03  8424   0.301E-03 0.133E-03
CGA: 158    -0.676218123494E+03   -0.55776E-03    0.93566E-04  8424   0.296E-03 0.419E-03
CGA: 159    -0.676218380208E+03   -0.25671E-03    0.23810E-03  8424   0.285E-03 0.150E-03
CGA: 160    -0.676218704192E+03   -0.32398E-03    0.84462E-04  8424   0.299E-03 0.144E-03
CGA: 161    -0.676218952602E+03   -0.24841E-03    0.30809E-03  8424   0.319E-03 0.129E-03
CGA: 162    -0.676219564030E+03   -0.61143E-03    0.91020E-04  8424   0.304E-03 0.457E-03
CGA: 163    -0.676219900705E+03   -0.33668E-03    0.96160E-04  8424   0.328E-03 0.127E-03
CGA: 164    -0.676220529670E+03   -0.62896E-03    0.91123E-04  8424   0.311E-03 0.467E-03
CGA: 165    -0.676220787654E+03   -0.25798E-03    0.32884E-03  8424   0.337E-03 0.127E-03
CGA: 166    -0.676221437975E+03   -0.65032E-03    0.90042E-04  8424   0.320E-03 0.475E-03
CGA: 167    -0.676221796060E+03   -0.35808E-03    0.98350E-04  8424   0.346E-03 0.126E-03
CGA: 168    -0.676222460723E+03   -0.66466E-03    0.90673E-04  8424   0.329E-03 0.482E-03
CGA: 169    -0.676222732114E+03   -0.27139E-03    0.35638E-03  8424   0.352E-03 0.125E-03
CGA: 170    -0.676223414469E+03   -0.68235E-03    0.88147E-04  8424   0.335E-03 0.484E-03
CGA: 171    -0.676223793569E+03   -0.37910E-03    0.10034E-03  8424   0.352E-03 0.126E-03
CGA: 172    -0.676224478401E+03   -0.68483E-03    0.86496E-04  8424   0.338E-03 0.478E-03
CGA: 173    -0.676224768847E+03   -0.29045E-03    0.28485E-03  8424   0.343E-03 0.131E-03
CGA: 174    -0.676225459719E+03   -0.69087E-03    0.80398E-04  8424   0.335E-03 0.465E-03
CGA: 175    -0.676225852780E+03   -0.39306E-03    0.90488E-04  8424   0.322E-03 0.143E-03
CGA: 176    -0.676226526544E+03   -0.67376E-03    0.76290E-04  8424   0.324E-03 0.445E-03
CGA: 177    -0.676226848002E+03   -0.32146E-03    0.14496E-03  8424   0.293E-03 0.162E-03
CGA: 178    -0.676227517321E+03   -0.66932E-03    0.67877E-04  8424   0.311E-03 0.422E-03
CGA: 179    -0.676227911338E+03   -0.39402E-03    0.70136E-04  8424   0.267E-03 0.181E-03
CGA: 180    -0.676228244200E+03   -0.33286E-03    0.62291E-04  8424   0.260E-03 0.199E-03
CGA: 181    -0.676228631741E+03   -0.38754E-03    0.41841E-04  8424   0.262E-03 0.200E-03
CGA: 182    -0.676228965115E+03   -0.33337E-03    0.58653E-04  8424   0.268E-03 0.195E-03
CGA: 183    -0.676229359437E+03   -0.39432E-03    0.44362E-04  8424   0.278E-03 0.187E-03
CGA: 184    -0.676229691857E+03   -0.33242E-03    0.71577E-04  8424   0.290E-03 0.176E-03
CGA: 185    -0.676230094456E+03   -0.40260E-03    0.54006E-04  8424   0.307E-03 0.160E-03
CGA: 186    -0.676230423904E+03   -0.32945E-03    0.10610E-03  8424   0.327E-03 0.141E-03
CGA: 187    -0.676231200433E+03   -0.77653E-03    0.65508E-04  8424   0.308E-03 0.476E-03
CGA: 188    -0.676231615586E+03   -0.41515E-03    0.60437E-04  8424   0.326E-03 0.139E-03
CGA: 189    -0.676232404180E+03   -0.78859E-03    0.62555E-04  8424   0.308E-03 0.473E-03
CGA: 190    -0.676232742755E+03   -0.33858E-03    0.99884E-04  8424   0.325E-03 0.137E-03
CGA: 191    -0.676233541859E+03   -0.79910E-03    0.59717E-04  8424   0.309E-03 0.468E-03
CGA: 192    -0.676233976185E+03   -0.43433E-03    0.55869E-04  8424   0.327E-03 0.134E-03
CGA: 193    -0.676234790262E+03   -0.81408E-03    0.57235E-04  8424   0.310E-03 0.467E-03
CGA: 194    -0.676235136411E+03   -0.34615E-03    0.95640E-04  8424   0.328E-03 0.131E-03
CGA: 195    -0.676235965511E+03   -0.82910E-03    0.54885E-04  8424   0.311E-03 0.464E-03
CGA: 196    -0.676236418215E+03   -0.45270E-03    0.52374E-04  8424   0.330E-03 0.126E-03
CGA: 197    -0.676237260746E+03   -0.84253E-03    0.53043E-04  8424   0.312E-03 0.463E-03
CGA: 198    -0.676237613182E+03   -0.35244E-03    0.93646E-04  8424   0.333E-03 0.122E-03
CGA: 199    -0.676238472026E+03   -0.85884E-03    0.50790E-04  8424   0.314E-03 0.460E-03
CGA: 200    -0.676238941387E+03   -0.46936E-03    0.50235E-04  8424   0.336E-03 0.116E-03
   1 F= -.67623894E+03 E0= -.67623894E+03  d E =-.676239E+03  mag=     1.0000
       N       E                     dE             d eps       ncg     rms          ort
SDA:   1    -0.676243273600E+03   -0.48016E-02    0.00000E+00  8424   0.531E-02 0.000E+00
CGA:   2    -0.676244742676E+03   -0.14691E-02   -0.13757E-02  8424   0.313E-02-0.981E-03
CGA:   3    -0.676245605238E+03   -0.86256E-03   -0.84032E-03  8424   0.214E-02-0.107E-02
CGA:   4    -0.676246044041E+03   -0.43880E-03   -0.61637E-03  8424   0.620E-02-0.204E-02
CGA:   5    -0.676246837199E+03   -0.79316E-03   -0.75502E-03  8424   0.112E-02-0.167E-03
CGA:   6    -0.676236950933E+03    0.98863E-02   -0.53344E-02  8424   0.793E-01-0.653E-02
CGA:   7    -0.676247478004E+03   -0.10527E-01   -0.10468E-01  8424   0.941E-02-0.482E-04
CGA:   8    -0.676250009275E+03   -0.25313E-02   -0.24206E-02  8424   0.318E-02-0.328E-03
CGA:   9    -0.676251203502E+03   -0.11942E-02   -0.10265E-02  8424   0.134E-02-0.683E-03
CGA:  10    -0.676251751217E+03   -0.54771E-03   -0.68514E-03  8424   0.505E-02-0.166E-02
CGA:  11    -0.676252701728E+03   -0.95051E-03   -0.90033E-03  8424   0.752E-03-0.126E-03
CGA:  12    -0.676253618368E+03   -0.91664E-03    0.15788E-02  8424   0.641E-03-0.777E-04
CGA:  13    -0.676254840137E+03   -0.12218E-02    0.17307E-03  8424   0.751E-03 0.276E-04
CGA:  14    -0.676257074819E+03   -0.22347E-02    0.13763E-03  8424   0.138E-02 0.126E-03
CGA:  15    -0.676262029457E+03   -0.49546E-02    0.25153E-03  8424   0.108E-02 0.957E-03
CGA:  16    -0.676262629318E+03   -0.59986E-03   -0.68978E-03  8424   0.303E-02-0.107E-02
CGA:  17    -0.676263211319E+03   -0.58200E-03   -0.53693E-03  8424   0.435E-03-0.115E-03
CGA:  18    -0.676263955694E+03   -0.74437E-03    0.17353E-03  8424   0.845E-03-0.188E-03
CGA:  19    -0.676265699076E+03   -0.17434E-02    0.54556E-04  8424   0.144E-02-0.590E-04
CGA:  20    -0.676269761315E+03   -0.40622E-02    0.19858E-03  8424   0.203E-02 0.351E-03
CGA:  21    -0.676276274801E+03   -0.65135E-02    0.49100E-03  8424   0.356E-02-0.274E-03
CGA:  22    -0.676286542770E+03   -0.10268E-01    0.39566E-03  8424   0.615E-02-0.228E-02
CGA:  23    -0.676288042017E+03   -0.14992E-02   -0.13782E-02  8424   0.227E-02-0.397E-03
CGA:  24    -0.676288620974E+03   -0.57896E-03   -0.54271E-03  8424   0.270E-03-0.134E-03
CGA:  25    -0.676288889584E+03   -0.26861E-03    0.17716E-02  8424   0.641E-03-0.272E-03
CGA:  26    -0.676289010646E+03   -0.12106E-03   -0.11306E-03  8424   0.919E-04-0.240E-04
CGA:  27    -0.676289236406E+03   -0.22576E-03    0.13757E-04  8424   0.191E-03-0.327E-04
CGA:  28    -0.676289819149E+03   -0.58274E-03    0.79313E-05  8424   0.229E-03 0.107E-04
CGA:  29    -0.676290713396E+03   -0.89425E-03    0.21584E-04  8424   0.499E-03-0.490E-04
CGA:  30    -0.676292951265E+03   -0.22379E-02    0.20137E-04  8424   0.978E-03-0.684E-04
CGA:  31    -0.676297580648E+03   -0.46294E-02    0.45587E-04  8424   0.125E-02-0.348E-03
CGA:  32    -0.676303003515E+03   -0.54229E-02    0.34001E-04  8424   0.384E-02-0.180E-02
CGA:  33    -0.676303740109E+03   -0.73659E-03   -0.68675E-03  8424   0.783E-03-0.169E-03
CGA:  34    -0.676303885382E+03   -0.14527E-03   -0.18730E-03  8424   0.245E-03 0.185E-03
CGA:  35    -0.676303948190E+03   -0.62808E-04   -0.87849E-04  8424   0.159E-03 0.142E-03
CGA:  36    -0.676303996727E+03   -0.48537E-04   -0.49502E-04  8424   0.181E-03 0.646E-05
CGA:  37    -0.676304007849E+03   -0.11122E-04   -0.40349E-04  8424   0.914E-04 0.123E-03
CGA:  38    -0.676304003339E+03    0.45095E-05   -0.10823E-04  8424   0.427E-04 0.479E-04
   2 F= -.67630400E+03 E0= -.67630400E+03  d E =-.650620E-01  mag=     1.0000
       N       E                     dE             d eps       ncg     rms          ort
SDA:   1    -0.676303176204E+03    0.83164E-03    0.00000E+00  8424   0.244E-01 0.000E+00
CGA:   2    -0.676310606657E+03   -0.74305E-02   -0.74414E-02  8424   0.774E-02 0.102E-03
CGA:   3    -0.676312251343E+03   -0.16447E-02   -0.16225E-02  8424   0.252E-02-0.112E-03
CGA:   4    -0.676312656262E+03   -0.40492E-03   -0.41121E-03  8424   0.563E-03 0.274E-04
CGA:   5    -0.676312719810E+03   -0.63549E-04   -0.84201E-04  8424   0.117E-03 0.877E-04
CGA:   6    -0.676312723643E+03   -0.38331E-05   -0.18160E-04  8424   0.459E-04 0.604E-04
   3 F= -.67631272E+03 E0= -.67631272E+03  d E =-.872030E-02  mag=     1.0000
       N       E                     dE             d eps       ncg     rms          ort
SDA:   1    -0.662206177300E+03    0.14107E+02    0.00000E+00  8424   0.377E+02 0.000E+00
CGA:   2    -0.672770357232E+03   -0.10564E+02   -0.10571E+02  8424   0.139E+02 0.484E-01
CGA:   3    -0.675409360311E+03   -0.26390E+01   -0.26696E+01  8424   0.438E+01-0.204E-01
CGA:   4    -0.676211060633E+03   -0.80170E+00   -0.79883E+00  8424   0.972E+00 0.268E-02
CGA:   5    -0.676383577231E+03   -0.17252E+00   -0.17260E+00  8424   0.247E+00 0.945E-03
CGA:   6    -0.676429755630E+03   -0.46178E-01   -0.46714E-01  8424   0.635E-01 0.334E-02
CGA:   7    -0.676447877094E+03   -0.18121E-01   -0.18150E-01  8424   0.261E-01 0.793E-03
CGA:   8    -0.676454467595E+03   -0.65905E-02   -0.66622E-02  8424   0.976E-02 0.119E-02
CGA:   9    -0.676456725180E+03   -0.22576E-02   -0.24162E-02  8424   0.354E-02 0.216E-02
CGA:  10    -0.676457530455E+03   -0.80528E-03   -0.95727E-03  8424   0.163E-02 0.179E-02
CGA:  11    -0.676457729242E+03   -0.19879E-03   -0.30378E-03  8424   0.833E-03 0.901E-03
CGA:  12    -0.676457734102E+03   -0.48602E-05   -0.11947E-03  8424   0.691E-03 0.748E-03
CGA:  13    -0.676457716757E+03    0.17345E-04   -0.88285E-04  8424   0.622E-03 0.655E-03
CGA:  14    -0.676457689782E+03    0.26975E-04   -0.72134E-04  8424   0.579E-03 0.600E-03
CGA:  15    -0.676457658371E+03    0.31411E-04   -0.61927E-04  8424   0.548E-03 0.563E-03
CGA:  16    -0.676457624913E+03    0.33458E-04   -0.54738E-04  8424   0.524E-03 0.536E-03
CGA:  17    -0.676457590640E+03    0.34273E-04   -0.49300E-04  8424   0.506E-03 0.515E-03
CGA:  18    -0.676457556243E+03    0.34397E-04   -0.44979E-04  8424   0.491E-03 0.499E-03
CGA:  19    -0.676457522133E+03    0.34110E-04   -0.41420E-04  8424   0.479E-03 0.485E-03
CGA:  20    -0.676457488563E+03    0.33570E-04   -0.38408E-04  8424   0.468E-03 0.473E-03
CGA:  21    -0.676457455691E+03    0.32872E-04   -0.35808E-04  8424   0.459E-03 0.463E-03
CGA:  22    -0.676457423614E+03    0.32077E-04   -0.33526E-04  8424   0.451E-03 0.455E-03
CGA:  23    -0.676457392394E+03    0.31220E-04   -0.31496E-04  8424   0.444E-03 0.447E-03
CGA:  24    -0.676457362065E+03    0.30328E-04   -0.29676E-04  8424   0.438E-03 0.440E-03
CGA:  25    -0.676457332648E+03    0.29417E-04   -0.28035E-04  8424   0.432E-03 0.435E-03
CGA:  26    -0.676457304146E+03    0.28503E-04   -0.26538E-04  8424   0.427E-03 0.429E-03
CGA:  27    -0.676457276553E+03    0.27593E-04   -0.25162E-04  8424   0.422E-03 0.424E-03
CGA:  28    -0.676457249858E+03    0.26695E-04   -0.23890E-04  8424   0.418E-03 0.420E-03
CGA:  29    -0.676457224048E+03    0.25810E-04   -0.22710E-04  8424   0.414E-03 0.416E-03
CGA:  30    -0.676457199105E+03    0.24943E-04   -0.21610E-04  8424   0.410E-03 0.412E-03
CGA:  31    -0.676457175008E+03    0.24096E-04   -0.20583E-04  8424   0.407E-03 0.409E-03
CGA:  32    -0.676457151739E+03    0.23270E-04   -0.19621E-04  8424   0.404E-03 0.405E-03
CGA:  33    -0.676457129274E+03    0.22465E-04   -0.18717E-04  8424   0.401E-03 0.402E-03
CGA:  34    -0.676457107590E+03    0.21684E-04   -0.17866E-04  8424   0.398E-03 0.399E-03
CGA:  35    -0.676457086664E+03    0.20926E-04   -0.17065E-04  8424   0.395E-03 0.397E-03
CGA:  36    -0.676457066473E+03    0.20191E-04   -0.16308E-04  8424   0.393E-03 0.394E-03
CGA:  37    -0.676457046992E+03    0.19481E-04   -0.15592E-04  8424   0.391E-03 0.392E-03
CGA:  38    -0.676457028199E+03    0.18793E-04   -0.14914E-04  8424   0.388E-03 0.389E-03
CGA:  39    -0.676457010070E+03    0.18129E-04   -0.14271E-04  8424   0.386E-03 0.387E-03
CGA:  40    -0.676456992583E+03    0.17488E-04   -0.13660E-04  8424   0.384E-03 0.385E-03
CGA:  41    -0.676456975714E+03    0.16869E-04   -0.13080E-04  8424   0.382E-03 0.383E-03
CGA:  42    -0.676456959441E+03    0.16272E-04   -0.12529E-04  8424   0.381E-03 0.381E-03
CGA:  43    -0.676456943744E+03    0.15698E-04   -0.12003E-04  8424   0.379E-03 0.380E-03
CGA:  44    -0.676456928600E+03    0.15143E-04   -0.11503E-04  8424   0.377E-03 0.378E-03
CGA:  45    -0.676456913991E+03    0.14609E-04   -0.11025E-04  8424   0.376E-03 0.376E-03
CGA:  46    -0.676456899898E+03    0.14093E-04   -0.10569E-04  8424   0.374E-03 0.375E-03
CGA:  47    -0.676456886302E+03    0.13596E-04   -0.10133E-04  8424   0.373E-03 0.373E-03
CGA:  48    -0.676456873186E+03    0.13116E-04   -0.97169E-05  8424   0.371E-03 0.372E-03
CGA:  49    -0.676456860532E+03    0.12653E-04   -0.93190E-05  8424   0.370E-03 0.371E-03
CGA:  50    -0.676456848326E+03    0.12207E-04   -0.89387E-05  8424   0.369E-03 0.369E-03
CGA:  51    -0.676456836551E+03    0.11774E-04   -0.85750E-05  8424   0.367E-03 0.368E-03
CGA:  52    -0.676456825196E+03    0.11356E-04   -0.82270E-05  8424   0.366E-03 0.367E-03
CGA:  53    -0.676456814248E+03    0.10948E-04   -0.78945E-05  8424   0.365E-03 0.365E-03
CGA:  54    -0.676456803699E+03    0.10549E-04   -0.75747E-05  8424   0.364E-03 0.364E-03
CGA:  55    -0.676456793549E+03    0.10151E-04   -0.72679E-05  8424   0.364E-03 0.362E-03
CGA:  56    -0.676456783799E+03    0.97496E-05   -0.69705E-05  8424   0.365E-03 0.359E-03
   4 F= -.67645678E+03 E0= -.67645678E+03  d E =-.144060E+00  mag=     1.0000
       N       E                     dE             d eps       ncg     rms          ort
SDA:   1    -0.676103516312E+03    0.35328E+00    0.00000E+00  8424   0.114E+01 0.000E+00
CGA:   2    -0.676341057176E+03   -0.23754E+00   -0.23596E+00  8424   0.468E+00 0.109E-01
CGA:   3    -0.676439072575E+03   -0.98015E-01   -0.97198E-01  8424   0.148E+00 0.581E-02
CGA:   4    -0.676464052668E+03   -0.24980E-01   -0.24650E-01  8424   0.374E-01 0.366E-02
CGA:   5    -0.676470579049E+03   -0.65264E-02   -0.63177E-02  8424   0.705E-02 0.244E-02
CGA:   6    -0.676471953947E+03   -0.13749E-02   -0.12248E-02  8424   0.170E-02 0.189E-02
CGA:   7    -0.676472176466E+03   -0.22252E-03   -0.20965E-03  8424   0.891E-03 0.136E-02
CGA:   8    -0.676472221861E+03   -0.45395E-04   -0.60772E-04  8424   0.672E-03 0.763E-03
CGA:   9    -0.676472240437E+03   -0.18577E-04   -0.37796E-04  8424   0.575E-03 0.618E-03
CGA:  10    -0.676472248887E+03   -0.84492E-05   -0.28304E-04  8424   0.517E-03 0.542E-03
CGA:  11    -0.676472252125E+03   -0.32382E-05   -0.22856E-04  8424   0.476E-03 0.494E-03
CGA:  12    -0.676472252305E+03   -0.17981E-06   -0.19250E-04  8424   0.446E-03 0.459E-03
CGA:  13    -0.676472250555E+03    0.17498E-05   -0.16658E-04  8424   0.423E-03 0.432E-03
CGA:  14    -0.676472247534E+03    0.30205E-05   -0.14686E-04  8424   0.404E-03 0.411E-03
CGA:  15    -0.676472243656E+03    0.38780E-05   -0.13125E-04  8424   0.388E-03 0.394E-03
CGA:  16    -0.676472239195E+03    0.44614E-05   -0.11852E-04  8424   0.375E-03 0.380E-03
CGA:  17    -0.676472234338E+03    0.48566E-05   -0.10788E-04  8424   0.363E-03 0.368E-03
   5 F= -.67647223E+03 E0= -.67647223E+03  d E =-.154505E-01  mag=     1.0000
       N       E                     dE             d eps       ncg     rms          ort
SDA:   1    -0.676453289046E+03    0.18950E-01    0.00000E+00  8424   0.586E-01 0.000E+00
CGA:   2    -0.676468322207E+03   -0.15033E-01   -0.14463E-01  8424   0.252E-01 0.316E-02
CGA:   3    -0.676473210860E+03   -0.48887E-02   -0.45614E-02  8424   0.579E-02 0.341E-02
CGA:   4    -0.676474271155E+03   -0.10603E-02   -0.94650E-03  8424   0.152E-02 0.180E-02
CGA:   5    -0.676474505161E+03   -0.23401E-03   -0.21020E-03  8424   0.628E-03 0.112E-02
CGA:   6    -0.676474535289E+03   -0.30128E-04   -0.40743E-04  8424   0.455E-03 0.525E-03
CGA:   7    -0.676474544008E+03   -0.87196E-05   -0.22891E-04  8424   0.390E-03 0.420E-03
CGA:   8    -0.676474546265E+03   -0.22568E-05   -0.16795E-04  8424   0.352E-03 0.370E-03
CGA:   9    -0.676474545465E+03    0.80026E-06   -0.13447E-04  8424   0.325E-03 0.338E-03
CGA:  10    -0.676474542986E+03    0.24792E-05   -0.11278E-04  8424   0.306E-03 0.315E-03
   6 F= -.67647454E+03 E0= -.67647454E+03  d E =-.230865E-02  mag=     1.0000
       N       E                     dE             d eps       ncg     rms          ort
SDA:   1    -0.676422036334E+03    0.52509E-01    0.00000E+00  8424   0.147E+00 0.000E+00
CGA:   2    -0.676466199867E+03   -0.44164E-01   -0.43589E-01  8424   0.667E-01 0.257E-02
CGA:   3    -0.676478113378E+03   -0.11914E-01   -0.11672E-01  8424   0.149E-01 0.277E-02
CGA:   4    -0.676480714568E+03   -0.26012E-02   -0.24941E-02  8424   0.356E-02 0.150E-02
CGA:   5    -0.676481313948E+03   -0.59938E-03   -0.54924E-03  8424   0.819E-03 0.106E-02
CGA:   6    -0.676481401921E+03   -0.87973E-04   -0.93297E-04  8424   0.461E-03 0.706E-03
CGA:   7    -0.676481415679E+03   -0.13758E-04   -0.27654E-04  8424   0.353E-03 0.398E-03
CGA:   8    -0.676481418253E+03   -0.25736E-05   -0.17181E-04  8424   0.307E-03 0.328E-03
CGA:   9    -0.676481417077E+03    0.11755E-05   -0.13032E-04  8424   0.280E-03 0.293E-03
CGA:  10    -0.676481414121E+03    0.29558E-05   -0.10651E-04  8424   0.261E-03 0.270E-03
   7 F= -.67648141E+03 E0= -.67648141E+03  d E =-.687114E-02  mag=     1.0000
       N       E                     dE             d eps       ncg     rms          ort
SDA:   1    -0.676250586513E+03    0.23083E+00    0.00000E+00  8424   0.684E+00 0.000E+00
CGA:   2    -0.676401337922E+03   -0.15075E+00   -0.15029E+00  8424   0.306E+00 0.327E-02
CGA:   3    -0.676465102074E+03   -0.63764E-01   -0.63438E-01  8424   0.890E-01 0.274E-02
CGA:   4    -0.676479623428E+03   -0.14521E-01   -0.14455E-01  8424   0.212E-01 0.100E-02
CGA:   5    -0.676483304798E+03   -0.36814E-02   -0.36291E-02  8424   0.418E-02 0.745E-03
CGA:   6    -0.676484103589E+03   -0.79879E-03   -0.73707E-03  8424   0.971E-03 0.914E-03
CGA:   7    -0.676484239515E+03   -0.13593E-03   -0.13218E-03  8424   0.447E-03 0.672E-03
CGA:   8    -0.676484263993E+03   -0.24478E-04   -0.34917E-04  8424   0.318E-03 0.368E-03
CGA:   9    -0.676484271034E+03   -0.70415E-05   -0.19626E-04  8424   0.269E-03 0.290E-03
CGA:  10    -0.676484272725E+03   -0.16910E-05   -0.14268E-04  8424   0.240E-03 0.252E-03
CGA:  11    -0.676484271887E+03    0.83805E-06   -0.11315E-04  8424   0.220E-03 0.228E-03
   8 F= -.67648427E+03 E0= -.67648427E+03  d E =-.285777E-02  mag=     1.0000
       N       E                     dE             d eps       ncg     rms          ort
SDA:   1    -0.676153515595E+03    0.33076E+00    0.00000E+00  8424   0.935E+00 0.000E+00
CGA:   2    -0.676372748622E+03   -0.21923E+00   -0.21885E+00  8424   0.443E+00 0.265E-02
CGA:   3    -0.676461197431E+03   -0.88449E-01   -0.88241E-01  8424   0.120E+00 0.206E-02
CGA:   4    -0.676480777180E+03   -0.19580E-01   -0.19521E-01  8424   0.284E-01 0.104E-02
CGA:   5    -0.676485663308E+03   -0.48861E-02   -0.48514E-02  8424   0.560E-02 0.573E-03
CGA:   6    -0.676486794857E+03   -0.11315E-02   -0.10810E-02  8424   0.127E-02 0.656E-03
CGA:   7    -0.676487001187E+03   -0.20633E-03   -0.19315E-03  8424   0.488E-03 0.679E-03
CGA:   8    -0.676487037564E+03   -0.36378E-04   -0.45478E-04  8424   0.315E-03 0.377E-03
CGA:   9    -0.676487048031E+03   -0.10466E-04   -0.22840E-04  8424   0.259E-03 0.283E-03
CGA:  10    -0.676487051432E+03   -0.34014E-05   -0.15993E-04  8424   0.228E-03 0.241E-03
CGA:  11    -0.676487051631E+03   -0.19932E-06   -0.12433E-04  8424   0.207E-03 0.215E-03
CGA:  12    -0.676487050108E+03    0.15231E-05   -0.10203E-04  8424   0.192E-03 0.198E-03
   9 F= -.67648705E+03 E0= -.67648705E+03  d E =-.277822E-02  mag=     1.0000
       N       E                     dE             d eps       ncg     rms          ort
SDA:   1    -0.676142153872E+03    0.34490E+00    0.00000E+00  8424   0.957E+00 0.000E+00
CGA:   2    -0.676366089110E+03   -0.22394E+00   -0.22372E+00  8424   0.456E+00 0.154E-02
CGA:   3    -0.676457333740E+03   -0.91245E-01   -0.91244E-01  8424   0.123E+00-0.892E-04
CGA:   4    -0.676477212855E+03   -0.19879E-01   -0.19849E-01  8424   0.286E-01 0.617E-03
CGA:   5    -0.676482064167E+03   -0.48513E-02   -0.47914E-02  8424   0.571E-02 0.118E-02
CGA:   6    -0.676483186304E+03   -0.11221E-02   -0.10581E-02  8424   0.127E-02 0.108E-02
CGA:   7    -0.676483419026E+03   -0.23272E-03   -0.21776E-03  8424   0.494E-03 0.662E-03
CGA:   8    -0.676483473227E+03   -0.54201E-04   -0.56907E-04  8424   0.301E-03 0.358E-03
CGA:   9    -0.676483487684E+03   -0.14457E-04   -0.25022E-04  8424   0.250E-03 0.270E-03
CGA:  10    -0.676483493378E+03   -0.56944E-05   -0.17446E-04  8424   0.221E-03 0.233E-03
CGA:  11    -0.676483495089E+03   -0.17107E-05   -0.13546E-04  8424   0.202E-03 0.209E-03
CGA:  12    -0.676483494626E+03    0.46303E-06   -0.11105E-04  8424   0.187E-03 0.193E-03
  10 F= -.67648349E+03 E0= -.67648349E+03  d E =0.355548E-02  mag=     1.0000
       N       E                     dE             d eps       ncg     rms          ort
SDA:   1    -0.676197911411E+03    0.28558E+00    0.00000E+00  8424   0.797E+00 0.000E+00
CGA:   2    -0.676378900285E+03   -0.18099E+00   -0.18098E+00  8424   0.367E+00 0.104E-04
CGA:   3    -0.676453609161E+03   -0.74709E-01   -0.74740E-01  8424   0.105E+00-0.421E-03
CGA:   4    -0.676470535734E+03   -0.16927E-01   -0.16878E-01  8424   0.244E-01 0.114E-02
CGA:   5    -0.676474606037E+03   -0.40703E-02   -0.40110E-02  8424   0.461E-02 0.143E-02
CGA:   6    -0.676475518079E+03   -0.91204E-03   -0.86165E-03  8424   0.107E-02 0.948E-03
CGA:   7    -0.676475712309E+03   -0.19423E-03   -0.18453E-03  8424   0.416E-03 0.564E-03
CGA:   8    -0.676475753549E+03   -0.41241E-04   -0.46105E-04  8424   0.255E-03 0.304E-03
CGA:   9    -0.676475764010E+03   -0.10460E-04   -0.20726E-04  8424   0.211E-03 0.229E-03
CGA:  10    -0.676475767216E+03   -0.32059E-05   -0.14285E-04  8424   0.187E-03 0.197E-03
CGA:  11    -0.676475767237E+03   -0.21086E-07   -0.11021E-04  8424   0.170E-03 0.177E-03
  11 F= -.67647577E+03 E0= -.67647577E+03  d E =0.772739E-02  mag=     1.0000
       N       E                     dE             d eps       ncg     rms          ort
SDA:   1    -0.676314196033E+03    0.16157E+00    0.00000E+00  8424   0.383E+00 0.000E+00
CGA:   2    -0.676431236060E+03   -0.11704E+00   -0.11712E+00  8424   0.167E+00-0.403E-03
CGA:   3    -0.676460555937E+03   -0.29320E-01   -0.29283E-01  8424   0.373E-01 0.693E-03
CGA:   4    -0.676466938143E+03   -0.63822E-02   -0.63457E-02  8424   0.945E-02 0.855E-03
CGA:   5    -0.676468503899E+03   -0.15658E-02   -0.15401E-02  8424   0.180E-02 0.843E-03
CGA:   6    -0.676468829330E+03   -0.32543E-03   -0.30882E-03  8424   0.488E-03 0.613E-03
CGA:   7    -0.676468894373E+03   -0.65044E-04   -0.72804E-04  8424   0.251E-03 0.375E-03
CGA:   8    -0.676468907449E+03   -0.13076E-04   -0.22013E-04  8424   0.184E-03 0.208E-03
CGA:   9    -0.676468909858E+03   -0.24089E-05   -0.12591E-04  8424   0.159E-03 0.169E-03
  12 F= -.67646891E+03 E0= -.67646891E+03  d E =0.685738E-02  mag=     1.0000
       N       E                     dE             d eps       ncg     rms          ort
SDA:   1    -0.676336052227E+03    0.13286E+00    0.00000E+00  8424   0.323E+00 0.000E+00
CGA:   2    -0.676427621134E+03   -0.91569E-01   -0.91327E-01  8424   0.156E+00 0.149E-02
CGA:   3    -0.676455930910E+03   -0.28310E-01   -0.28259E-01  8424   0.339E-01 0.992E-03
CGA:   4    -0.676461596768E+03   -0.56659E-02   -0.56549E-02  8424   0.880E-02 0.325E-03
CGA:   5    -0.676463143975E+03   -0.15472E-02   -0.15417E-02  8424   0.179E-02 0.139E-03
CGA:   6    -0.676463493353E+03   -0.34938E-03   -0.33693E-03  8424   0.429E-03 0.257E-03
CGA:   7    -0.676463545906E+03   -0.52553E-04   -0.58125E-04  8424   0.195E-03 0.275E-03
CGA:   8    -0.676463552900E+03   -0.69940E-05   -0.15948E-04  8424   0.139E-03 0.159E-03
  13 F= -.67646355E+03 E0= -.67646355E+03  d E =0.535696E-02  mag=     1.0000
       N       E                     dE             d eps       ncg     rms          ort
SDA:   1    -0.676426627091E+03    0.36919E-01    0.00000E+00  8424   0.987E-01 0.000E+00
CGA:   2    -0.676454858914E+03   -0.28232E-01   -0.28102E-01  8424   0.445E-01 0.839E-03
CGA:   3    -0.676462919968E+03   -0.80611E-02   -0.80338E-02  8424   0.104E-01 0.682E-03
CGA:   4    -0.676464717522E+03   -0.17976E-02   -0.17922E-02  8424   0.268E-02 0.189E-03
CGA:   5    -0.676465179393E+03   -0.46187E-03   -0.45867E-03  8424   0.556E-03 0.124E-03
CGA:   6    -0.676465264435E+03   -0.85042E-04   -0.84679E-04  8424   0.164E-03 0.216E-03
CGA:   7    -0.676465273408E+03   -0.89738E-05   -0.18695E-04  8424   0.102E-03 0.157E-03
  14 F= -.67646527E+03 E0= -.67646527E+03  d E =-.172051E-02  mag=     1.0000
       N       E                     dE             d eps       ncg     rms          ort
SDA:   1    -0.676322779349E+03    0.14249E+00    0.00000E+00  8424   0.330E+00 0.000E+00
CGA:   2    -0.676441710937E+03   -0.11893E+00   -0.11892E+00  8424   0.104E+00 0.569E-04
CGA:   3    -0.676459872492E+03   -0.18162E-01   -0.18149E-01  8424   0.261E-01 0.475E-03
CGA:   4    -0.676464522313E+03   -0.46498E-02   -0.46450E-02  8424   0.648E-02 0.171E-03
CGA:   5    -0.676465603952E+03   -0.10816E-02   -0.10789E-02  8424   0.136E-02 0.189E-03
CGA:   6    -0.676465854425E+03   -0.25047E-03   -0.24405E-03  8424   0.332E-03 0.283E-03
CGA:   7    -0.676465905905E+03   -0.51480E-04   -0.54847E-04  8424   0.163E-03 0.210E-03
CGA:   8    -0.676465918572E+03   -0.12667E-04   -0.17895E-04  8424   0.108E-03 0.124E-03
CGA:   9    -0.676465920972E+03   -0.23991E-05   -0.89786E-05  8424   0.926E-04 0.987E-04
  15 F= -.67646592E+03 E0= -.67646592E+03  d E =-.647563E-03  mag=     1.0000
       N       E                     dE             d eps       ncg     rms          ort
SDA:   1    -0.676433743482E+03    0.32175E-01    0.00000E+00  8424   0.789E-01 0.000E+00
CGA:   2    -0.676452604922E+03   -0.18861E-01   -0.18851E-01  8424   0.385E-01 0.964E-04
CGA:   3    -0.676460299560E+03   -0.76946E-02   -0.76895E-02  8424   0.101E-01 0.919E-04
CGA:   4    -0.676461874954E+03   -0.15754E-02   -0.15732E-02  8424   0.225E-02 0.368E-03
CGA:   5    -0.676462231477E+03   -0.35652E-03   -0.35583E-03  8424   0.442E-03 0.371E-03
CGA:   6    -0.676462295675E+03   -0.64198E-04   -0.68326E-04  8424   0.161E-03 0.230E-03
