       N       E                     dE             d eps       ncg     rms          ort
DAV:   1     0.828277382849E+04    0.82828E+04   -0.24672E+05  8424   0.238E+03
DAV:   2     0.918020052300E+03   -0.73648E+04   -0.69145E+04  8424   0.658E+02
DAV:   3    -0.678155341251E+03   -0.15962E+04   -0.14044E+04  8424   0.283E+02
DAV:   4    -0.834309344847E+03   -0.15615E+03   -0.15345E+03  8424   0.857E+01
DAV:   5    -0.836842231472E+03   -0.25329E+01   -0.25211E+01  8424   0.122E+01
SDA:   6    -0.258822651396E+03    0.57802E+03   -0.25211E+01  8424   0.631E+04 0.000E+00
CGA:   7    -0.240147463553E+03    0.18675E+02   -0.41769E+03  8424   0.272E+05-0.356E+04
CGA:   8     0.103767980220E+04    0.12778E+04   -0.17008E+04  8424   0.751E+05-0.296E+05
CGA:   9     0.478969543705E+04    0.37520E+04   -0.51536E+04  8424   0.184E+05-0.954E+04
CGA:  10     0.805008354987E+03   -0.39847E+04   -0.58335E+03  8424   0.225E+05-0.203E+05
CGA:  11     0.655828962616E+03   -0.14918E+03   -0.93069E+03  8424   0.628E+05-0.523E+05
CGA:  12     0.426660500625E+04    0.36108E+04   -0.38993E+04  8424   0.175E+05-0.853E+04
CGA:  13     0.283515923929E+03   -0.39831E+04   -0.45242E+03  8424   0.248E+05-0.568E+05
CGA:  14     0.659483586688E+03    0.37597E+03   -0.11070E+04  8424   0.573E+04-0.442E+04
CGA:  15    -0.579401690076E+03   -0.12389E+04   -0.69194E+02  8424   0.539E+04 0.219E+05
CGA:  16    -0.651500998866E+03   -0.72099E+02   -0.23138E+03  8424   0.689E+02-0.485E+02
CGA:  17    -0.660785727376E+03   -0.92847E+01   -0.93245E+01  8424   0.368E+02 0.150E+02
CGA:  18    -0.667401088410E+03   -0.66154E+01   -0.65099E+01  8424   0.258E+02 0.814E+01
CGA:  19    -0.672097075362E+03   -0.46960E+01   -0.46888E+01  8424   0.121E+02 0.787E+00
CGA:  20    -0.673944297522E+03   -0.18472E+01   -0.12381E+01  8424   0.836E+01-0.403E+00
CGA:  21    -0.674260894266E+03   -0.31660E+00   -0.32523E+00  8424   0.123E+02-0.312E+01
CGA:  22    -0.673851283897E+03    0.40961E+00   -0.39110E+00  8424   0.329E+02-0.339E+01
CGA:  23    -0.674376353239E+03   -0.52507E+00   -0.58013E+00  8424   0.806E+01-0.163E+02
CGA:  24    -0.674554206079E+03   -0.17785E+00   -0.93629E-01  8424   0.724E+01 0.379E+01
CGA:  25    -0.674946077830E+03   -0.39187E+00   -0.21372E+00  8424   0.327E+01 0.726E+01
CGA:  26    -0.675235184359E+03   -0.28911E+00   -0.25270E+00  8424   0.326E+01-0.249E-02
CGA:  27    -0.675534856136E+03   -0.29967E+00   -0.31017E+00  8424   0.220E+01 0.250E+00
CGA:  28    -0.675809514574E+03   -0.27466E+00   -0.28179E+00  8424   0.177E+01-0.441E+00
CGA:  29    -0.675930728102E+03   -0.12121E+00   -0.12881E+00  8424   0.833E+00 0.145E+00
CGA:  30    -0.675989570874E+03   -0.58843E-01   -0.64184E-01  8424   0.442E+00 0.105E-01
CGA:  31    -0.676039262700E+03   -0.49692E-01   -0.49568E-01  8424   0.195E+00 0.280E-01
CGA:  32    -0.676074653262E+03   -0.35391E-01   -0.35658E-01  8424   0.142E+00-0.508E-02
CGA:  33    -0.676089113221E+03   -0.14460E-01   -0.14441E-01  8424   0.541E-01-0.808E-02
CGA:  34    -0.676101064645E+03   -0.11951E-01   -0.12553E-01  8424   0.287E-01-0.445E-02
CGA:  35    -0.676107038656E+03   -0.59740E-02   -0.58330E-02  8424   0.157E-01 0.138E-02
CGA:  36    -0.676111301265E+03   -0.42626E-02   -0.45278E-02  8424   0.203E-01-0.169E-02
CGA:  37    -0.676113911857E+03   -0.26106E-02   -0.26356E-02  8424   0.114E-01-0.140E-02
CGA:  38    -0.676116835586E+03   -0.29237E-02   -0.44169E-02  8424   0.251E-01-0.524E-02
CGA:  39    -0.676119048630E+03   -0.22130E-02   -0.57204E-02  8424   0.608E-01-0.133E-01
CGA:  40    -0.676127783344E+03   -0.87347E-02   -0.87407E-02  8424   0.319E-01 0.657E-03
CGA:  41    -0.676133444476E+03   -0.56611E-02   -0.57915E-02  8424   0.141E-01-0.608E-02
CGA:  42    -0.676136836720E+03   -0.33922E-02   -0.39192E-02  8424   0.157E-01-0.285E-02
CGA:  43    -0.676139318135E+03   -0.24814E-02   -0.31395E-02  8424   0.302E-01-0.826E-02
CGA:  44    -0.676141590679E+03   -0.22725E-02   -0.24208E-02  8424   0.743E-02 0.197E-02
CGA:  45    -0.676144566508E+03   -0.29758E-02   -0.42215E-02  8424   0.144E-01-0.350E-02
CGA:  46    -0.676144192460E+03    0.37405E-03   -0.49591E-02  8424   0.642E-01-0.113E-01
CGA:  47    -0.676153697392E+03   -0.95049E-02   -0.94749E-02  8424   0.508E-01 0.782E-03
CGA:  48    -0.676166106170E+03   -0.12409E-01   -0.12810E-01  8424   0.205E-01-0.988E-02
CGA:  49    -0.676171223392E+03   -0.51172E-02   -0.57464E-02  8424   0.322E-01-0.455E-02
CGA:  50    -0.676186180486E+03   -0.14957E-01   -0.82822E-03  8424   0.388E+00-0.174E-01
CGA:  51    -0.676250363901E+03   -0.64183E-01   -0.63338E-01  8424   0.113E+00 0.637E-02
CGA:  52    -0.676279160359E+03   -0.28796E-01   -0.28519E-01  8424   0.680E-01-0.879E-02
CGA:  53    -0.676304518987E+03   -0.25359E-01   -0.25833E-01  8424   0.648E-01-0.106E-01
CGA:  54    -0.676331056329E+03   -0.26537E-01   -0.32448E-01  8424   0.115E+00-0.263E-01
CGA:  55    -0.676356732827E+03   -0.25676E-01   -0.36103E-01  8424   0.139E+00-0.624E-01
CGA:  56    -0.676389774392E+03   -0.33042E-01   -0.32784E-01  8424   0.577E-01-0.268E-02
CGA:  57    -0.676405756991E+03   -0.15983E-01   -0.15910E-01  8424   0.126E-01-0.542E-03
CGA:  58    -0.676410460679E+03   -0.47037E-02   -0.46998E-02  8424   0.327E-02-0.838E-03
CGA:  59    -0.676411340055E+03   -0.87938E-03   -0.92737E-03  8424   0.166E-02 0.600E-03
CGA:  60    -0.676412338314E+03   -0.99826E-03   -0.97957E-03  8424   0.154E-02 0.133E-03
CGA:  61    -0.676413384896E+03   -0.10466E-02   -0.11093E-02  8424   0.153E-02-0.253E-03
CGA:  62    -0.676413938393E+03   -0.55350E-03   -0.12207E-02  8424   0.654E-02-0.126E-02
CGA:  63    -0.676415441258E+03   -0.15029E-02   -0.12709E-02  8424   0.189E-02-0.105E-02
CGA:  64    -0.676416217893E+03   -0.77664E-03   -0.87233E-03  8424   0.257E-02-0.707E-03
CGA:  65    -0.676399859535E+03    0.16358E-01   -0.94747E-02  8424   0.829E-01-0.868E-02
CGA:  66    -0.676413268901E+03   -0.13409E-01   -0.13279E-01  8424   0.129E-01 0.382E-02
CGA:  67    -0.676418325503E+03   -0.50566E-02   -0.52794E-02  8424   0.671E-02 0.599E-03
CGA:  68    -0.676420105555E+03   -0.17801E-02   -0.21498E-02  8424   0.177E-02 0.946E-03
CGA:  69    -0.676420564912E+03   -0.45936E-03   -0.61078E-03  8424   0.128E-02 0.430E-03
CGA:  70    -0.676421063147E+03   -0.49823E-03   -0.60469E-03  8424   0.667E-03 0.363E-03
CGA:  71    -0.676421201880E+03   -0.13873E-03   -0.24171E-03  8424   0.285E-03 0.280E-03
CGA:  72    -0.676421381515E+03   -0.17963E-03   -0.19039E-03  8424   0.348E-03 0.659E-04
CGA:  73    -0.676421692185E+03   -0.31067E-03   -0.42191E-03  8424   0.200E-02-0.330E-03
CGA:  74    -0.676421964800E+03   -0.27261E-03   -0.37038E-03  8424   0.622E-03 0.211E-03
CGA:  75    -0.676422433628E+03   -0.46883E-03   -0.51519E-03  8424   0.120E-02-0.393E-03
CGA:  76    -0.676422930766E+03   -0.49714E-03   -0.41467E-03  8424   0.801E-03-0.287E-03
CGA:  77    -0.676423285828E+03   -0.35506E-03   -0.28570E-03  8424   0.125E-02-0.454E-03
CGA:  78    -0.676423472093E+03   -0.18627E-03   -0.22783E-03  8424   0.359E-03 0.984E-04
CGA:  79    -0.676423714648E+03   -0.24256E-03   -0.26322E-03  8424   0.792E-03-0.239E-03
CGA:  80    -0.676423949984E+03   -0.23534E-03   -0.23610E-03  8424   0.376E-03 0.171E-05
CGA:  81    -0.676423503580E+03    0.44640E-03   -0.51671E-03  8424   0.103E-01-0.122E-02
CGA:  82    -0.676424725819E+03   -0.12222E-02   -0.14346E-02  8424   0.103E-02 0.545E-03
CGA:  83    -0.676425064880E+03   -0.33906E-03   -0.35200E-03  8424   0.226E-03 0.462E-04
CGA:  84    -0.676425359947E+03   -0.29507E-03    0.98982E-03  8424   0.741E-03-0.135E-04
CGA:  85    -0.676426282003E+03   -0.92206E-03    0.15162E-02  8424   0.143E-02 0.287E-03
CGA:  86    -0.676420621909E+03    0.56601E-02   -0.56828E-02  8424   0.119E+00-0.554E-02
CGA:  87    -0.676437826165E+03   -0.17204E-01   -0.16688E-01  8424   0.342E-02-0.385E-02
CGA:  88    -0.676438546115E+03   -0.71995E-03   -0.74284E-03  8424   0.622E-03 0.566E-04
CGA:  89    -0.676438676740E+03   -0.13063E-03   -0.16421E-03  8424   0.143E-03 0.860E-04
CGA:  90    -0.676438756721E+03   -0.79981E-04   -0.82977E-04  8424   0.113E-03 0.222E-04
CGA:  91    -0.676437885146E+03    0.87158E-03   -0.47521E-03  8424   0.469E-02-0.445E-03
CGA:  92    -0.676438710760E+03   -0.82561E-03   -0.10436E-02  8424   0.115E-02 0.247E-03
CGA:  93    -0.676439380520E+03   -0.66976E-03   -0.54297E-03  8424   0.860E-03-0.196E-03
CGA:  94    -0.676439713223E+03   -0.33270E-03   -0.23601E-03  8424   0.466E-03-0.132E-03
CGA:  95    -0.676440061398E+03   -0.34818E-03   -0.19497E-03  8424   0.525E-03-0.292E-03
CGA:  96    -0.676440265065E+03   -0.20367E-03   -0.13264E-03  8424   0.209E-03-0.959E-04
CGA:  97    -0.676440369418E+03   -0.10435E-03   -0.20011E-03  8424   0.276E-02-0.448E-03
CGA:  98    -0.676440751257E+03   -0.38184E-03   -0.39235E-03  8424   0.224E-03 0.328E-04
CGA:  99    -0.676440959107E+03   -0.20785E-03   -0.13799E-03  8424   0.460E-03-0.219E-03
CGA: 100    -0.676441023688E+03   -0.64582E-04   -0.89225E-04  8424   0.663E-04 0.344E-04
CGA: 101    -0.676441171941E+03   -0.14825E-03    0.16563E-03  8424   0.691E-03-0.150E-03
CGA: 102    -0.676441271235E+03   -0.99294E-04   -0.11192E-03  8424   0.912E-04 0.193E-04
CGA: 103    -0.676441442644E+03   -0.17141E-03    0.44494E-03  8424   0.581E-03-0.175E-03
CGA: 104    -0.676441547626E+03   -0.10498E-03   -0.11598E-03  8424   0.101E-03 0.178E-04
CGA: 105    -0.676441622991E+03   -0.75365E-04   -0.90260E-04  8424   0.111E-02-0.269E-03
CGA: 106    -0.676441780117E+03   -0.15713E-03   -0.17680E-03  8424   0.128E-03 0.339E-04
CGA: 107    -0.676441608308E+03    0.17181E-03   -0.19008E-03  8424   0.290E-02-0.547E-03
CGA: 108    -0.676442136110E+03   -0.52780E-03   -0.59127E-03  8424   0.435E-03 0.111E-03
CGA: 109    -0.676442298973E+03   -0.16286E-03   -0.11104E-03  8424   0.878E-04-0.977E-04
CGA: 110    -0.676442409521E+03   -0.11055E-03    0.33240E-03  8424   0.313E-03-0.680E-04
CGA: 111    -0.676442556877E+03   -0.14736E-03   -0.73993E-04  8424   0.179E-03-0.143E-03
CGA: 112    -0.676442737630E+03   -0.18075E-03    0.12997E-03  8424   0.349E-03-0.108E-03
CGA: 113    -0.676442883258E+03   -0.14563E-03   -0.95839E-04  8424   0.189E-03-0.110E-03
CGA: 114    -0.676442944198E+03   -0.60940E-04   -0.38830E-04  8424   0.999E-04-0.552E-04
CGA: 115    -0.676443230058E+03   -0.28586E-03    0.12417E-04  8424   0.913E-04 0.686E-05
CGA: 116    -0.676443672012E+03   -0.44195E-03    0.14507E-04  8424   0.224E-03-0.115E-04
CGA: 117    -0.676444668945E+03   -0.99693E-03    0.24620E-04  8424   0.870E-03-0.120E-03
CGA: 118    -0.676444922305E+03   -0.25336E-03   -0.19239E-03  8424   0.214E-03-0.133E-03
CGA: 119    -0.676444970876E+03   -0.48570E-04   -0.40251E-04  8424   0.440E-04-0.190E-04
CGA: 120    -0.676445150444E+03   -0.17957E-03    0.51158E-05  8424   0.506E-04 0.265E-05
CGA: 121    -0.676445528967E+03   -0.37852E-03    0.37995E-05  8424   0.435E-04 0.444E-04
CGA: 122    -0.676445615603E+03   -0.86637E-04    0.25022E-04  8424   0.251E-03-0.482E-04
CGA: 123    -0.676445739274E+03   -0.12367E-03   -0.59613E-04  8424   0.174E-03-0.160E-03
CGA: 124    -0.676445763397E+03   -0.24123E-04   -0.24305E-04  8424   0.209E-04 0.582E-06
CGA: 125    -0.676445918568E+03   -0.15517E-03    0.12038E-05  8424   0.209E-04 0.207E-04
CGA: 126    -0.676446070247E+03   -0.15168E-03    0.12197E-05  8424   0.535E-04 0.978E-05
CGA: 127    -0.676446556851E+03   -0.48660E-03    0.55856E-05  8424   0.486E-04 0.533E-04
CGA: 128    -0.676446682194E+03   -0.12534E-03    0.12462E-04  8424   0.526E-03-0.103E-03
CGA: 129    -0.676446732289E+03   -0.50095E-04   -0.59426E-04  8424   0.192E-04 0.202E-04
CGA: 130    -0.676446866794E+03   -0.13450E-03    0.11683E-05  8424   0.382E-04 0.132E-04
CGA: 131    -0.676447000109E+03   -0.13332E-03    0.53113E-05  8424   0.289E-03-0.534E-04
CGA: 132    -0.676447035564E+03   -0.35455E-04   -0.35700E-04  8424   0.214E-04 0.855E-06
CGA: 133    -0.676447178573E+03   -0.14301E-03    0.11638E-05  8424   0.280E-04 0.143E-04
CGA: 134    -0.676447301499E+03   -0.12293E-03    0.25682E-05  8424   0.563E-04-0.198E-05
CGA: 135    -0.676447684915E+03   -0.38342E-03    0.25348E-05  8424   0.734E-04 0.439E-04
CGA: 136    -0.676447819774E+03   -0.13486E-03    0.29949E-04  8424   0.160E-03-0.687E-04
CGA: 137    -0.676447880708E+03   -0.60934E-04   -0.46419E-04  8424   0.797E-04-0.561E-04
CGA: 138    -0.676448085476E+03   -0.20477E-03    0.51736E-05  8424   0.204E-03-0.388E-04
CGA: 139    -0.676448705383E+03   -0.61991E-03    0.62228E-05  8424   0.178E-03 0.599E-04
CGA: 140    -0.676449191904E+03   -0.48652E-03    0.63797E-04  8424   0.111E-02-0.261E-03
CGA: 141    -0.676449438804E+03   -0.24690E-03   -0.16811E-03  8424   0.768E-04-0.208E-03
CGA: 142    -0.676449508941E+03   -0.70137E-04    0.18560E-03  8424   0.257E-03-0.711E-04
CGA: 143    -0.676449618981E+03   -0.11004E-03   -0.57120E-04  8424   0.188E-03-0.180E-03
CGA: 144    -0.676449645444E+03   -0.26463E-04   -0.24597E-04  8424   0.187E-04-0.489E-05
CGA: 145    -0.676449774314E+03   -0.12887E-03    0.69562E-06  8424   0.162E-04 0.174E-04
CGA: 146    -0.676449889086E+03   -0.11477E-03    0.61759E-06  8424   0.170E-04 0.152E-04
CGA: 147    -0.676450002799E+03   -0.11371E-03    0.69631E-06  8424   0.209E-04 0.131E-04
CGA: 148    -0.676450115855E+03   -0.11306E-03    0.11043E-05  8424   0.401E-04 0.442E-05
CGA: 149    -0.676450446402E+03   -0.33055E-03    0.19433E-05  8424   0.331E-04 0.428E-04
CGA: 150    -0.676450564122E+03   -0.11772E-03    0.29990E-05  8424   0.668E-04-0.150E-04
CGA: 151    -0.676450884738E+03   -0.32062E-03    0.10900E-05  8424   0.136E-03 0.210E-04
CGA: 152    -0.676451702845E+03   -0.81811E-03    0.11650E-04  8424   0.104E-03 0.515E-04
CGA: 153    -0.676452486862E+03   -0.78402E-03    0.74854E-05  8424   0.192E-03 0.231E-04
CGA: 154    -0.676453976050E+03   -0.14892E-02    0.10198E-04  8424   0.182E-03 0.938E-04
CGA: 155    -0.676455525485E+03   -0.15494E-02    0.13275E-04  8424   0.213E-03 0.825E-04
CGA: 156    -0.676457534351E+03   -0.20089E-02    0.13160E-04  8424   0.550E-03-0.511E-04
CGA: 157    -0.676462915154E+03   -0.53808E-02    0.82231E-05  8424   0.138E-02 0.170E-04
CGA: 158    -0.676477230460E+03   -0.14315E-01    0.36510E-04  8424   0.412E-02-0.302E-02
CGA: 159    -0.676477876664E+03   -0.64620E-03   -0.61654E-03  8424   0.284E-03-0.105E-03
CGA: 160    -0.676477871352E+03    0.53124E-05   -0.38522E-04  8424   0.812E-04 0.134E-03
   1 F= -.67647787E+03 E0= -.67647787E+03  d E =-.676478E+03  mag=     1.0000
       N       E                     dE             d eps       ncg     rms          ort
SDA:   1    -0.676477536843E+03    0.33982E-03    0.00000E+00  8424   0.123E-03 0.000E+00
CGA:   2    -0.676477526395E+03    0.10447E-04   -0.11851E-04  8424   0.477E-04 0.664E-04
CGA:   3    -0.676477514165E+03    0.12231E-04   -0.28412E-05  8424   0.381E-04 0.423E-04
CGA:   4    -0.676477503519E+03    0.10646E-04   -0.18460E-05  8424   0.338E-04 0.357E-04
CGA:   5    -0.676477493989E+03    0.95293E-05   -0.14246E-05  8424   0.312E-04 0.324E-04
   2 F= -.67647749E+03 E0= -.67647749E+03  d E =0.377362E-03  mag=     1.0000
       N       E                     dE             d eps       ncg     rms          ort
SDA:   1    -0.676475908442E+03    0.15951E-02    0.00000E+00  8424   0.439E-02 0.000E+00
CGA:   2    -0.676476701382E+03   -0.79294E-03   -0.81943E-03  8424   0.146E-02 0.164E-03
CGA:   3    -0.676476966814E+03   -0.26543E-03   -0.29676E-03  8424   0.487E-03 0.218E-03
CGA:   4    -0.676477016778E+03   -0.49964E-04   -0.80730E-04  8424   0.128E-03 0.164E-03
CGA:   5    -0.676477010961E+03    0.58165E-05   -0.16890E-04  8424   0.570E-04 0.101E-03
   3 F= -.67647701E+03 E0= -.67647701E+03  d E =0.483028E-03  mag=     1.0000
       N       E                     dE             d eps       ncg     rms          ort
SDA:   1    -0.676470228547E+03    0.67882E-02    0.00000E+00  8424   0.217E-01 0.000E+00
CGA:   2    -0.676474230200E+03   -0.40017E-02   -0.40185E-02  8424   0.771E-02 0.145E-03
CGA:   3    -0.676475902107E+03   -0.16719E-02   -0.16908E-02  8424   0.287E-02 0.248E-03
CGA:   4    -0.676476353421E+03   -0.45131E-03   -0.47423E-03  8424   0.678E-03 0.176E-03
CGA:   5    -0.676476440737E+03   -0.87317E-04   -0.10642E-03  8424   0.132E-03 0.141E-03
CGA:   6    -0.676476439293E+03    0.14447E-05   -0.15515E-04  8424   0.609E-04 0.947E-04
   4 F= -.67647644E+03 E0= -.67647644E+03  d E =0.571669E-03  mag=     1.0000
       N       E                     dE             d eps       ncg     rms          ort
SDA:   1    -0.676465721779E+03    0.10719E-01    0.00000E+00  8424   0.358E-01 0.000E+00
CGA:   2    -0.676472286408E+03   -0.65646E-02   -0.65763E-02  8424   0.127E-01 0.153E-03
CGA:   3    -0.676475099515E+03   -0.28131E-02   -0.28227E-02  8424   0.467E-02 0.303E-03
CGA:   4    -0.676475859062E+03   -0.75955E-03   -0.77820E-03  8424   0.111E-02 0.209E-03
CGA:   5    -0.676476027612E+03   -0.16855E-03   -0.18110E-03  8424   0.207E-03 0.137E-03
CGA:   6    -0.676476047479E+03   -0.19867E-04   -0.30685E-04  8424   0.650E-04 0.976E-04
CGA:   7    -0.676476043464E+03    0.40152E-05   -0.68888E-05  8424   0.380E-04 0.660E-04
   5 F= -.67647604E+03 E0= -.67647604E+03  d E =0.395829E-03  mag=     1.0000
       N       E                     dE             d eps       ncg     rms          ort
SDA:   1    -0.676471003010E+03    0.50445E-02    0.00000E+00  8424   0.146E-01 0.000E+00
CGA:   2    -0.676474033611E+03   -0.30306E-02   -0.30323E-02  8424   0.561E-02 0.129E-03
CGA:   3    -0.676475143411E+03   -0.11098E-02   -0.11166E-02  8424   0.169E-02 0.310E-03
CGA:   4    -0.676475425390E+03   -0.28198E-03   -0.29164E-03  8424   0.425E-03 0.177E-03
CGA:   5    -0.676475485498E+03   -0.60108E-04   -0.67678E-04  8424   0.826E-04 0.106E-03
CGA:   6    -0.676475486179E+03   -0.68060E-06   -0.89840E-05  8424   0.417E-04 0.665E-04
   6 F= -.67647549E+03 E0= -.67647549E+03  d E =0.557285E-03  mag=     1.0000
       N       E                     dE             d eps       ncg     rms          ort
SDA:   1    -0.676459952575E+03    0.15533E-01    0.00000E+00  8424   0.457E-01 0.000E+00
CGA:   2    -0.676468658264E+03   -0.87057E-02   -0.87067E-02  8424   0.167E-01 0.125E-03
CGA:   3    -0.676472307123E+03   -0.36489E-02   -0.36420E-02  8424   0.606E-02 0.344E-03
CGA:   4    -0.676473345969E+03   -0.10388E-02   -0.10449E-02  8424   0.149E-02 0.205E-03
CGA:   5    -0.676473582761E+03   -0.23679E-03   -0.24121E-03  8424   0.250E-03 0.110E-03
CGA:   6    -0.676473617633E+03   -0.34872E-04   -0.39263E-04  8424   0.650E-04 0.894E-04
CGA:   7    -0.676473617821E+03   -0.18775E-06   -0.69679E-05  8424   0.364E-04 0.596E-04
   7 F= -.67647362E+03 E0= -.67647362E+03  d E =0.186836E-02  mag=     1.0000
       N       E                     dE             d eps       ncg     rms          ort
SDA:   1    -0.676347303213E+03    0.12631E+00    0.00000E+00  8424   0.385E+00 0.000E+00
CGA:   2    -0.676423043921E+03   -0.75741E-01   -0.75737E-01  8424   0.147E+00 0.156E-03
CGA:   3    -0.676455026389E+03   -0.31982E-01   -0.31968E-01  8424   0.518E-01 0.370E-03
CGA:   4    -0.676463732138E+03   -0.87057E-02   -0.87096E-02  8424   0.129E-01 0.245E-03
CGA:   5    -0.676465883285E+03   -0.21511E-02   -0.21534E-02  8424   0.232E-02 0.137E-03
CGA:   6    -0.676466343234E+03   -0.45995E-03   -0.45817E-03  8424   0.502E-03 0.128E-03
CGA:   7    -0.676466437771E+03   -0.94537E-04   -0.94886E-04  8424   0.135E-03 0.128E-03
CGA:   8    -0.676466453396E+03   -0.15625E-04   -0.20987E-04  8424   0.566E-04 0.925E-04
CGA:   9    -0.676466453878E+03   -0.48208E-06   -0.47438E-05  8424   0.373E-04 0.448E-04
   8 F= -.67646645E+03 E0= -.67646645E+03  d E =0.716394E-02  mag=     1.0000
       N       E                     dE             d eps       ncg     rms          ort
SDA:   1    -0.676111981219E+03    0.35447E+00    0.00000E+00  8424   0.113E+01 0.000E+00
CGA:   2    -0.676330345148E+03   -0.21836E+00   -0.21832E+00  8424   0.416E+00 0.131E-02
CGA:   3    -0.676420733644E+03   -0.90388E-01   -0.90390E-01  8424   0.148E+00-0.122E-03
CGA:   4    -0.676445848381E+03   -0.25115E-01   -0.25115E-01  8424   0.381E-01 0.170E-03
CGA:   5    -0.676452265139E+03   -0.64168E-02   -0.64177E-02  8424   0.693E-02 0.244E-03
CGA:   6    -0.676453673968E+03   -0.14088E-02   -0.14066E-02  8424   0.154E-02 0.736E-04
CGA:   7    -0.676454012177E+03   -0.33821E-03   -0.33382E-03  8424   0.432E-03 0.107E-03
CGA:   8    -0.676454109990E+03   -0.97813E-04   -0.95067E-04  8424   0.109E-03 0.901E-04
CGA:   9    -0.676454131222E+03   -0.21232E-04   -0.21839E-04  8424   0.405E-04 0.575E-04
CGA:  10    -0.676454133130E+03   -0.19081E-05   -0.41831E-05  8424   0.260E-04 0.311E-04
   9 F= -.67645413E+03 E0= -.67645413E+03  d E =0.123207E-01  mag=     1.0000
       N       E                     dE             d eps       ncg     rms          ort
SDA:   1    -0.676309115136E+03    0.14502E+00    0.00000E+00  8424   0.442E+00 0.000E+00
CGA:   2    -0.676398883622E+03   -0.89768E-01   -0.89755E-01  8424   0.179E+00 0.297E-03
CGA:   3    -0.676437112468E+03   -0.38229E-01   -0.38254E-01  8424   0.591E-01-0.616E-03
CGA:   4    -0.676446899101E+03   -0.97866E-02   -0.97868E-02  8424   0.147E-01 0.127E-04
CGA:   5    -0.676449356901E+03   -0.24578E-02   -0.24592E-02  8424   0.272E-02 0.300E-03
CGA:   6    -0.676449891175E+03   -0.53427E-03   -0.53021E-03  8424   0.567E-03 0.209E-03
CGA:   7    -0.676450011904E+03   -0.12073E-03   -0.11834E-03  8424   0.159E-03 0.110E-03
CGA:   8    -0.676450046259E+03   -0.34355E-04   -0.34011E-04  8424   0.508E-04 0.654E-04
CGA:   9    -0.676450051513E+03   -0.52546E-05   -0.80063E-05  8424   0.262E-04 0.444E-04
  10 F= -.67645005E+03 E0= -.67645005E+03  d E =0.408162E-02  mag=     1.0000
       N       E                     dE             d eps       ncg     rms          ort
SDA:   1    -0.676352437443E+03    0.97609E-01    0.00000E+00  8424   0.283E+00 0.000E+00
CGA:   2    -0.676411139621E+03   -0.58702E-01   -0.58687E-01  8424   0.115E+00 0.320E-03
CGA:   3    -0.676435443023E+03   -0.24303E-01   -0.24322E-01  8424   0.375E-01-0.460E-03
CGA:   4    -0.676441704778E+03   -0.62618E-02   -0.62617E-02  8424   0.943E-02-0.160E-04
CGA:   5    -0.676443266731E+03   -0.15620E-02   -0.15627E-02  8424   0.172E-02 0.195E-03
CGA:   6    -0.676443603392E+03   -0.33666E-03   -0.33386E-03  8424   0.363E-03 0.134E-03
CGA:   7    -0.676443681402E+03   -0.78010E-04   -0.76228E-04  8424   0.105E-03 0.728E-04
CGA:   8    -0.676443702886E+03   -0.21484E-04   -0.21505E-04  8424   0.353E-04 0.475E-04
CGA:   9    -0.676443705904E+03   -0.30183E-05   -0.53021E-05  8424   0.195E-04 0.334E-04
  11 F= -.67644371E+03 E0= -.67644371E+03  d E =0.634561E-02  mag=     1.0000
       N       E                     dE             d eps       ncg     rms          ort
SDA:   1    -0.676376498593E+03    0.67204E-01    0.00000E+00  8424   0.184E+00 0.000E+00
CGA:   2    -0.676416204339E+03   -0.39706E-01   -0.39676E-01  8424   0.787E-01 0.533E-03
CGA:   3    -0.676432569060E+03   -0.16365E-01   -0.16367E-01  8424   0.238E-01-0.670E-04
CGA:   4    -0.676436504731E+03   -0.39357E-02   -0.39357E-02  8424   0.589E-02 0.216E-04
CGA:   5    -0.676437506578E+03   -0.10018E-02   -0.10018E-02  8424   0.112E-02 0.381E-04
CGA:   6    -0.676437732452E+03   -0.22587E-03   -0.22476E-03  8424   0.253E-03 0.348E-04
CGA:   7    -0.676437777230E+03   -0.44779E-04   -0.44630E-04  8424   0.687E-04 0.723E-04
CGA:   8    -0.676437785295E+03   -0.80651E-05   -0.10536E-04  8424   0.309E-04 0.492E-04
  12 F= -.67643779E+03 E0= -.67643779E+03  d E =0.592061E-02  mag=     1.0000
       N       E                     dE             d eps       ncg     rms          ort
SDA:   1    -0.675982881395E+03    0.45490E+00    0.00000E+00  8424   0.116E+01 0.000E+00
CGA:   2    -0.676268947542E+03   -0.28607E+00   -0.28598E+00  8424   0.554E+00 0.883E-03
CGA:   3    -0.676377543530E+03   -0.10860E+00   -0.10859E+00  8424   0.146E+00 0.206E-03
CGA:   4    -0.676401644224E+03   -0.24101E-01   -0.24100E-01  8424   0.349E-01-0.354E-03
CGA:   5    -0.676407562468E+03   -0.59182E-02   -0.59186E-02  8424   0.684E-02-0.244E-03
CGA:   6    -0.676408990611E+03   -0.14281E-02   -0.14289E-02  8424   0.163E-02-0.202E-04
CGA:   7    -0.676409356356E+03   -0.36575E-03   -0.36325E-03  8424   0.474E-03 0.471E-04
CGA:   8    -0.676409468616E+03   -0.11226E-03   -0.10906E-03  8424   0.136E-03 0.631E-04
CGA:   9    -0.676409505930E+03   -0.37314E-04   -0.35071E-04  8424   0.495E-04 0.433E-04
CGA:  10    -0.676409518941E+03   -0.13011E-04   -0.12565E-04  8424   0.249E-04 0.313E-04
CGA:  11    -0.676409522348E+03   -0.34066E-05   -0.38400E-05  8424   0.148E-04 0.177E-04
  13 F= -.67640952E+03 E0= -.67640952E+03  d E =0.282629E-01  mag=     1.0000
       N       E                     dE             d eps       ncg     rms          ort
SDA:   1    -0.657023069825E+03    0.19386E+02    0.00000E+00  8424   0.703E+02 0.000E+00
CGA:   2    -0.668989327085E+03   -0.11966E+02   -0.11973E+02  8424   0.223E+02 0.811E+00
CGA:   3    -0.674127205675E+03   -0.51379E+01   -0.51452E+01  8424   0.811E+01-0.114E+00
CGA:   4    -0.675539283501E+03   -0.14121E+01   -0.14121E+01  8424   0.216E+01 0.228E-03
CGA:   5    -0.675891042603E+03   -0.35176E+00   -0.35185E+00  8424   0.414E+00 0.395E-02
CGA:   6    -0.675976776759E+03   -0.85734E-01   -0.85744E-01  8424   0.940E-01-0.403E-03
CGA:   7    -0.675998220684E+03   -0.21444E-01   -0.21383E-01  8424   0.290E-01 0.120E-02
CGA:   8    -0.676005340559E+03   -0.71199E-02   -0.71016E-02  8424   0.817E-02 0.293E-03
CGA:   9    -0.676007583694E+03   -0.22431E-02   -0.22639E-02  8424   0.285E-02-0.230E-03
CGA:  10    -0.676008327307E+03   -0.74361E-03   -0.71642E-03  8424   0.101E-02 0.383E-03
CGA:  11    -0.676008626608E+03   -0.29930E-03   -0.28328E-03  8424   0.333E-03 0.282E-03
CGA:  12    -0.676008700139E+03   -0.73531E-04   -0.76730E-04  8424   0.150E-03 0.219E-03
CGA:  13    -0.676008716239E+03   -0.16100E-04   -0.21624E-04  8424   0.923E-04 0.111E-03
CGA:  14    -0.676008722323E+03   -0.60843E-05   -0.11532E-04  8424   0.745E-04 0.823E-04
  14 F= -.67600872E+03 E0= -.67600872E+03  d E =0.400800E+00  mag=     1.0000
       N       E                     dE             d eps       ncg     rms          ort
SDA:   1    -0.667009022305E+03    0.89997E+01    0.00000E+00  8424   0.320E+02 0.000E+00
CGA:   2    -0.673008757880E+03   -0.59997E+01   -0.59984E+01  8424   0.114E+02 0.194E+00
CGA:   3    -0.675524103452E+03   -0.25153E+01   -0.25167E+01  8424   0.393E+01-0.302E-01
CGA:   4    -0.676198499492E+03   -0.67440E+00   -0.67446E+00  8424   0.105E+01 0.401E-03
CGA:   5    -0.676374848329E+03   -0.17635E+00   -0.17637E+00  8424   0.204E+00 0.404E-03
CGA:   6    -0.676416296835E+03   -0.41449E-01   -0.41481E-01  8424   0.449E-01-0.166E-02
CGA:   7    -0.676426429890E+03   -0.10133E-01   -0.10113E-01  8424   0.136E-01 0.472E-03
CGA:   8    -0.676429728480E+03   -0.32986E-02   -0.32863E-02  8424   0.373E-02 0.230E-03
CGA:   9    -0.676430774220E+03   -0.10457E-02   -0.10540E-02  8424   0.128E-02-0.951E-04
CGA:  10    -0.676431111233E+03   -0.33701E-03   -0.32545E-03  8424   0.449E-03 0.173E-03
CGA:  11    -0.676431278590E+03   -0.16736E-03   -0.17017E-03  8424   0.189E-03-0.210E-04
CGA:  12    -0.676431313011E+03   -0.34422E-04   -0.35087E-04  8424   0.685E-04 0.681E-04
CGA:  13    -0.676431327470E+03   -0.14458E-04   -0.15864E-04  8424   0.314E-04 0.420E-04
CGA:  14    -0.676431344987E+03   -0.17517E-04   -0.18403E-04  8424   0.462E-04-0.245E-05
CGA:  15    -0.676431348522E+03   -0.35346E-05   -0.59249E-05  8424   0.273E-04 0.289E-04
  15 F= -.67643135E+03 E0= -.67643135E+03  d E =-.422626E+00  mag=     1.0000
       N       E                     dE             d eps       ncg     rms          ort
SDA:   1    -0.675984092613E+03    0.44725E+00    0.00000E+00  8424   0.158E+01 0.000E+00
CGA:   2    -0.676286739427E+03   -0.30265E+00   -0.30269E+00  8424   0.582E+00 0.156E-02
CGA:   3    -0.676413586769E+03   -0.12685E+00   -0.12685E+00  8424   0.211E+00-0.167E-03
CGA:   4    -0.676449573499E+03   -0.35987E-01   -0.35985E-01  8424   0.539E-01-0.856E-04
CGA:   5    -0.676458612954E+03   -0.90395E-02   -0.90411E-02  8424   0.984E-02 0.262E-04
CGA:   6    -0.676460623867E+03   -0.20109E-02   -0.20106E-02  8424   0.221E-02-0.574E-04
CGA:   7    -0.676461108951E+03   -0.48508E-03   -0.48462E-03  8424   0.643E-03 0.391E-04
CGA:   8    -0.676461262272E+03   -0.15332E-03   -0.15272E-03  8424   0.165E-03 0.252E-04
CGA:   9    -0.676461307472E+03   -0.45200E-04   -0.44713E-04  8424   0.520E-04 0.955E-05
CGA:  10    -0.676461319847E+03   -0.12375E-04   -0.12210E-04  8424   0.205E-04 0.195E-04
CGA:  11    -0.676461325426E+03   -0.55788E-05   -0.57184E-05  8424   0.104E-04 0.131E-04
  16 F= -.67646133E+03 E0= -.67646133E+03  d E =-.299769E-01  mag=     1.0000
       N       E                     dE             d eps       ncg     rms          ort
SDA:   1    -0.675513778010E+03    0.94754E+00    0.00000E+00  8424   0.306E+01 0.000E+00
CGA:   2    -0.676118395512E+03   -0.60462E+00   -0.60470E+00  8424   0.119E+01 0.325E-02
CGA:   3    -0.676376433288E+03   -0.25804E+00   -0.25804E+00  8424   0.417E+00-0.474E-03
CGA:   4    -0.676447262697E+03   -0.70829E-01   -0.70834E-01  8424   0.103E+00-0.178E-04
CGA:   5    -0.676464225603E+03   -0.16963E-01   -0.16973E-01  8424   0.186E-01 0.199E-03
CGA:   6    -0.676468074059E+03   -0.38485E-02   -0.38485E-02  8424   0.431E-02 0.171E-05
CGA:   7    -0.676469032418E+03   -0.95836E-03   -0.95726E-03  8424   0.124E-02 0.742E-04
CGA:   8    -0.676469336132E+03   -0.30371E-03   -0.30294E-03  8424   0.335E-03 0.240E-04
CGA:   9    -0.676469431395E+03   -0.95263E-04   -0.95825E-04  8424   0.114E-03-0.813E-05
CGA:  10    -0.676469459756E+03   -0.28361E-04   -0.27501E-04  8424   0.400E-04 0.255E-04
CGA:  11    -0.676469473249E+03   -0.13493E-04   -0.12888E-04  8424   0.164E-04 0.125E-04
CGA:  12    -0.676469477135E+03   -0.38862E-05   -0.41582E-05  8424   0.872E-05 0.114E-04
  17 F= -.67646948E+03 E0= -.67646948E+03  d E =-.815171E-02  mag=     1.0000
       N       E                     dE             d eps       ncg     rms          ort
SDA:   1    -0.676327665444E+03    0.14181E+00    0.00000E+00  8424   0.462E+00 0.000E+00
CGA:   2    -0.676430266348E+03   -0.10260E+00   -0.10260E+00  8424   0.199E+00 0.147E-03
CGA:   3    -0.676470285149E+03   -0.40019E-01   -0.40019E-01  8424   0.571E-01 0.911E-05
CGA:   4    -0.676479926855E+03   -0.96417E-02   -0.96457E-02  8424   0.148E-01 0.788E-04
CGA:   5    -0.676482470960E+03   -0.25441E-02   -0.25462E-02  8424   0.279E-02 0.488E-04
CGA:   6    -0.676483039190E+03   -0.56823E-03   -0.56831E-03  8424   0.634E-03 0.128E-04
CGA:   7    -0.676483180241E+03   -0.14105E-03   -0.14055E-03  8424   0.187E-03 0.403E-04
