       N       E                     dE             d eps       ncg     rms          ort
DAV:   1     0.828812848151E+04    0.82881E+04   -0.24701E+05  8424   0.239E+03
DAV:   2     0.919316571131E+03   -0.73688E+04   -0.69190E+04  8424   0.659E+02
DAV:   3    -0.677802891462E+03   -0.15971E+04   -0.14059E+04  8424   0.283E+02
DAV:   4    -0.834169969728E+03   -0.15637E+03   -0.15367E+03  8424   0.856E+01
DAV:   5    -0.836701734933E+03   -0.25318E+01   -0.25200E+01  8424   0.122E+01
SDA:   6    -0.277299712657E+03    0.55940E+03   -0.25200E+01  8424   0.393E+04 0.000E+00
CGA:   7    -0.571746872717E+03   -0.29445E+03   -0.37282E+03  8424   0.513E+04-0.153E+03
CGA:   8    -0.575164786528E+03   -0.34179E+01   -0.26307E+03  8424   0.845E+03-0.124E+04
CGA:   9    -0.578146685694E+03   -0.29819E+01   -0.43269E+02  8424   0.221E+04-0.316E+03
CGA:  10    -0.622915450074E+03   -0.44769E+02   -0.50543E+02  8424   0.551E+03-0.364E+02
CGA:  11    -0.644129765956E+03   -0.21214E+02   -0.16444E+02  8424   0.637E+03-0.462E+03
CGA:  12    -0.646065900187E+03   -0.19361E+01   -0.38860E+02  8424   0.540E+03-0.151E+03
CGA:  13    -0.656499057257E+03   -0.10433E+02   -0.15881E+02  8424   0.443E+03-0.397E+03
CGA:  14    -0.643817656455E+03    0.12681E+02   -0.20072E+02  8424   0.124E+04-0.493E+03
CGA:  15    -0.607787377162E+03    0.36030E+02   -0.67049E+02  8424   0.105E+04-0.508E+03
CGA:  16    -0.665939959937E+03   -0.58153E+02   -0.13974E+02  8424   0.104E+03 0.474E+03
CGA:  17    -0.664577110111E+03    0.13628E+01   -0.62739E+01  8424   0.202E+03-0.754E+02
CGA:  18    -0.668906988134E+03   -0.43299E+01   -0.50521E+01  8424   0.127E+02 0.303E+02
CGA:  19    -0.669319600547E+03   -0.41261E+00   -0.43460E+00  8424   0.195E+02-0.255E+01
CGA:  20    -0.670126269631E+03   -0.80667E+00   -0.13809E+01  8424   0.947E+02 0.122E+02
CGA:  21    -0.671634070971E+03   -0.15078E+01   -0.56540E+01  8424   0.288E+02-0.117E+02
CGA:  22    -0.673215620250E+03   -0.15815E+01   -0.13886E+01  8424   0.440E+01 0.700E+01
CGA:  23    -0.673519915882E+03   -0.30430E+00   -0.22260E+00  8424   0.271E+01 0.165E+01
CGA:  24    -0.673827372869E+03   -0.30746E+00   -0.29660E+00  8424   0.654E+01 0.165E-01
CGA:  25    -0.673948024041E+03   -0.12065E+00   -0.73757E-01  8424   0.614E+01 0.401E+01
CGA:  26    -0.674234199696E+03   -0.28618E+00   -0.41068E+00  8424   0.864E+00 0.239E+00
CGA:  27    -0.674535756367E+03   -0.30156E+00   -0.31561E+00  8424   0.134E+01-0.748E-01
CGA:  28    -0.674765174751E+03   -0.22942E+00   -0.22006E+00  8424   0.186E+00 0.105E+00
CGA:  29    -0.674801137132E+03   -0.35962E-01   -0.36093E-01  8424   0.123E+00-0.593E-02
CGA:  30    -0.674834690043E+03   -0.33553E-01   -0.44579E-01  8424   0.156E+00-0.438E-01
CGA:  31    -0.674857203673E+03   -0.22514E-01   -0.28407E-01  8424   0.888E-01-0.388E-01
CGA:  32    -0.674871438961E+03   -0.14235E-01   -0.18474E-01  8424   0.780E-01-0.316E-01
CGA:  33    -0.674882036489E+03   -0.10598E-01   -0.15164E-01  8424   0.647E-01-0.302E-01
CGA:  34    -0.674890652687E+03   -0.86162E-02   -0.14341E-01  8424   0.711E-01-0.280E-01
CGA:  35    -0.674899822975E+03   -0.91703E-02   -0.12437E-01  8424   0.651E-01-0.234E-01
CGA:  36    -0.674909930969E+03   -0.10108E-01   -0.10733E-01  8424   0.412E-01-0.884E-02
CGA:  37    -0.674917968560E+03   -0.80376E-02   -0.79562E-02  8424   0.262E-01 0.168E-02
CGA:  38    -0.674924510893E+03   -0.65423E-02   -0.63486E-02  8424   0.175E-01 0.356E-02
CGA:  39    -0.674929468997E+03   -0.49581E-02   -0.46913E-02  8424   0.137E-01 0.497E-02
CGA:  40    -0.674933487853E+03   -0.40189E-02   -0.37947E-02  8424   0.967E-02 0.717E-02
CGA:  41    -0.674935608462E+03   -0.21206E-02   -0.20557E-02  8424   0.506E-02 0.251E-02
CGA:  42    -0.674937447300E+03   -0.18388E-02   -0.16167E-02  8424   0.291E-02 0.339E-02
CGA:  43    -0.674938570146E+03   -0.11228E-02   -0.92802E-03  8424   0.247E-02 0.152E-02
CGA:  44    -0.674939097658E+03   -0.52751E-03   -0.51240E-03  8424   0.195E-02 0.156E-02
CGA:  45    -0.674940042522E+03   -0.94486E-03   -0.71299E-03  8424   0.218E-02 0.138E-02
CGA:  46    -0.674940502271E+03   -0.45975E-03   -0.45640E-03  8424   0.179E-02 0.121E-02
CGA:  47    -0.674941373727E+03   -0.87146E-03   -0.69494E-03  8424   0.257E-02 0.971E-03
CGA:  48    -0.674941821803E+03   -0.44808E-03   -0.47435E-03  8424   0.174E-02 0.844E-03
CGA:  49    -0.674943187767E+03   -0.13660E-02   -0.95057E-03  8424   0.252E-02 0.208E-02
CGA:  50    -0.674943894269E+03   -0.70650E-03   -0.72566E-03  8424   0.347E-02-0.307E-03
CGA:  51    -0.674948490684E+03   -0.45964E-02   -0.27297E-02  8424   0.441E-02 0.272E-02
CGA:  52    -0.674949022941E+03   -0.53226E-03   -0.61894E-03  8424   0.126E-02 0.719E-03
CGA:  53    -0.674952158507E+03   -0.31356E-02   -0.76924E-03  8424   0.148E-01 0.460E-03
CGA:  54    -0.674969786349E+03   -0.17628E-01   -0.29386E-01  8424   0.790E-01-0.137E-01
CGA:  55    -0.674981881251E+03   -0.12095E-01   -0.12895E-01  8424   0.168E-01 0.214E-02
CGA:  56    -0.674986581878E+03   -0.47006E-02   -0.48511E-02  8424   0.263E-02 0.680E-03
CGA:  57    -0.674987638937E+03   -0.10571E-02   -0.11184E-02  8424   0.153E-02 0.792E-03
CGA:  58    -0.674988199298E+03   -0.56036E-03   -0.66010E-03  8424   0.971E-03 0.653E-03
CGA:  59    -0.674988710040E+03   -0.51074E-03   -0.53012E-03  8424   0.717E-03 0.205E-03
CGA:  60    -0.674989062932E+03   -0.35289E-03   -0.35754E-03  8424   0.601E-03 0.695E-04
CGA:  61    -0.674989349847E+03   -0.28692E-03   -0.28332E-03  8424   0.818E-03-0.109E-03
CGA:  62    -0.674977908200E+03    0.11442E-01   -0.62737E-02  8424   0.704E-01-0.564E-02
CGA:  63    -0.674986818849E+03   -0.89106E-02   -0.93242E-02  8424   0.992E-02 0.259E-02
CGA:  64    -0.674990714847E+03   -0.38960E-02   -0.39061E-02  8424   0.529E-02-0.321E-06
CGA:  65    -0.674992812019E+03   -0.20972E-02   -0.19217E-02  8424   0.414E-02-0.433E-03
CGA:  66    -0.674994097153E+03   -0.12851E-02   -0.13470E-02  8424   0.216E-02 0.119E-03
CGA:  67    -0.674994913239E+03   -0.81609E-03   -0.76895E-03  8424   0.134E-02-0.135E-03
CGA:  68    -0.674995213105E+03   -0.29987E-03   -0.30752E-03  8424   0.545E-03 0.116E-04
CGA:  69    -0.674995334282E+03   -0.12118E-03   -0.15431E-03  8424   0.222E-03 0.747E-04
CGA:  70    -0.674995376713E+03   -0.42432E-04   -0.76887E-04  8424   0.148E-03 0.889E-04
CGA:  71    -0.674995391029E+03   -0.14316E-04   -0.46840E-04  8424   0.715E-04 0.727E-04
CGA:  72    -0.674995406753E+03   -0.15724E-04   -0.35133E-04  8424   0.674E-04 0.601E-04
CGA:  73    -0.674995417980E+03   -0.11227E-04   -0.18329E-04  8424   0.446E-04 0.197E-04
CGA:  74    -0.674995473043E+03   -0.55063E-04   -0.61822E-04  8424   0.194E-03-0.172E-04
CGA:  75    -0.674987957287E+03    0.75158E-02   -0.41490E-02  8424   0.260E-01-0.254E-02
CGA:  76    -0.674992439842E+03   -0.44826E-02   -0.45012E-02  8424   0.911E-02 0.745E-03
CGA:  77    -0.674997403141E+03   -0.49633E-02   -0.42894E-02  8424   0.313E-02-0.108E-02
CGA:  78    -0.674999065829E+03   -0.16627E-02   -0.11485E-02  8424   0.280E-02-0.794E-03
CGA:  79    -0.675000484078E+03   -0.14182E-02   -0.10035E-02  8424   0.173E-02-0.762E-03
CGA:  80    -0.675001321935E+03   -0.83786E-03   -0.50924E-03  8424   0.113E-02-0.553E-03
CGA:  81    -0.675001952198E+03   -0.63026E-03   -0.43166E-03  8424   0.138E-02-0.484E-03
CGA:  82    -0.675002081241E+03   -0.12904E-03   -0.12564E-03  8424   0.486E-03-0.717E-05
CGA:  83    -0.675002118340E+03   -0.37099E-04   -0.90794E-04  8424   0.389E-03 0.723E-04
CGA:  84    -0.675002190106E+03   -0.71766E-04   -0.10386E-03  8424   0.200E-03 0.473E-04
CGA:  85    -0.675002230297E+03   -0.40191E-04   -0.51921E-04  8424   0.194E-03 0.179E-04
CGA:  86    -0.675002220430E+03    0.98672E-05   -0.39880E-04  8424   0.118E-03 0.779E-04
CGA:  87    -0.675002196523E+03    0.23907E-04   -0.19626E-04  8424   0.449E-04 0.647E-04
CGA:  88    -0.675002201128E+03   -0.46048E-05   -0.10945E-04  8424   0.187E-04 0.123E-04
   1 F= -.67500220E+03 E0= -.67500220E+03  d E =-.675002E+03  mag=     5.0000
       N       E                     dE             d eps       ncg     rms          ort
SDA:   1    -0.675006620471E+03   -0.44239E-02    0.00000E+00  8424   0.209E-02 0.000E+00
CGA:   2    -0.675007174793E+03   -0.55432E-03   -0.56514E-03  8424   0.846E-03 0.247E-04
CGA:   3    -0.675007364666E+03   -0.18987E-03   -0.16819E-03  8424   0.277E-03-0.447E-04
CGA:   4    -0.675007409886E+03   -0.45220E-04   -0.44838E-04  8424   0.653E-04-0.923E-06
CGA:   5    -0.675007441604E+03   -0.31718E-04   -0.18497E-04  8424   0.657E-04-0.378E-04
CGA:   6    -0.675007465562E+03   -0.23958E-04   -0.11708E-04  8424   0.328E-04-0.279E-04
CGA:   7    -0.675007514657E+03   -0.49095E-04    0.47330E-05  8424   0.956E-04-0.238E-04
CGA:   8    -0.675007539825E+03   -0.25168E-04   -0.16461E-04  8424   0.223E-04-0.206E-04
CGA:   9    -0.675007580801E+03   -0.40976E-04    0.48525E-05  8424   0.807E-04-0.244E-04
CGA:  10    -0.675007611544E+03   -0.30743E-04   -0.17869E-04  8424   0.339E-04-0.365E-04
CGA:  11    -0.675007664499E+03   -0.52956E-04    0.32965E-05  8424   0.478E-04-0.152E-04
CGA:  12    -0.675007813256E+03   -0.14876E-03    0.18102E-05  8424   0.647E-04-0.363E-05
CGA:  13    -0.675007973777E+03   -0.16052E-03    0.11780E-04  8424   0.349E-03-0.861E-04
CGA:  14    -0.675008059668E+03   -0.85891E-04   -0.50782E-04  8424   0.545E-04-0.858E-04
CGA:  15    -0.675008072338E+03   -0.12669E-04   -0.92456E-05  8424   0.125E-04-0.110E-04
CGA:  16    -0.675008139594E+03   -0.67256E-04    0.47185E-06  8424   0.346E-04-0.581E-05
CGA:  17    -0.675008330723E+03   -0.19113E-03    0.53747E-06  8424   0.428E-04 0.712E-06
CGA:  18    -0.675008627284E+03   -0.29656E-03    0.20574E-05  8424   0.346E-04 0.705E-05
CGA:  19    -0.675008916914E+03   -0.28963E-03    0.17756E-05  8424   0.270E-03-0.480E-04
CGA:  20    -0.675008928026E+03   -0.11112E-04   -0.24947E-04  8424   0.954E-05 0.327E-04
CGA:  21    -0.675008942783E+03   -0.14757E-04    0.70059E-05  8424   0.744E-04-0.178E-04
CGA:  22    -0.675008985528E+03   -0.42745E-04   -0.18739E-04  8424   0.154E-03-0.971E-04
CGA:  23    -0.675008990204E+03   -0.46759E-05   -0.13427E-04  8424   0.529E-05 0.220E-04
   2 F= -.67500899E+03 E0= -.67500899E+03  d E =-.678908E-02  mag=     5.0000
       N       E                     dE             d eps       ncg     rms          ort
SDA:   1    -0.671927873619E+03    0.30811E+01    0.00000E+00  8424   0.868E+01 0.000E+00
CGA:   2    -0.674419700477E+03   -0.24918E+01   -0.24922E+01  8424   0.343E+01-0.453E-02
CGA:   3    -0.675049971667E+03   -0.63027E+00   -0.63196E+00  8424   0.974E+00-0.912E-03
CGA:   4    -0.675218854475E+03   -0.16888E+00   -0.16932E+00  8424   0.247E+00 0.186E-03
CGA:   5    -0.675259488133E+03   -0.40634E-01   -0.40597E-01  8424   0.497E-01-0.112E-03
CGA:   6    -0.675269906655E+03   -0.10419E-01   -0.10333E-01  8424   0.129E-01-0.409E-03
CGA:   7    -0.675273013354E+03   -0.31067E-02   -0.30647E-02  8424   0.489E-02-0.255E-03
CGA:   8    -0.675274205994E+03   -0.11926E-02   -0.11997E-02  8424   0.162E-02 0.464E-04
CGA:   9    -0.675274655568E+03   -0.44957E-03   -0.44942E-03  8424   0.602E-03-0.172E-05
CGA:  10    -0.675274874102E+03   -0.21853E-03   -0.21645E-03  8424   0.298E-03-0.828E-04
CGA:  11    -0.675274969175E+03   -0.95073E-04   -0.14954E-03  8424   0.538E-03-0.277E-03
CGA:  12    -0.675275091683E+03   -0.12251E-03   -0.11540E-03  8424   0.105E-03-0.398E-04
CGA:  13    -0.675275173152E+03   -0.81469E-04    0.22276E-03  8424   0.662E-04-0.109E-04
CGA:  14    -0.675275254319E+03   -0.81167E-04    0.14753E-04  8424   0.682E-04-0.875E-05
CGA:  15    -0.675275398292E+03   -0.14397E-03    0.52697E-05  8424   0.491E-04 0.877E-06
CGA:  16    -0.675275519201E+03   -0.12091E-03    0.44461E-05  8424   0.377E-04 0.134E-04
CGA:  17    -0.675275671118E+03   -0.15192E-03    0.29804E-05  8424   0.332E-04 0.130E-04
CGA:  18    -0.675275831483E+03   -0.16037E-03    0.23432E-05  8424   0.214E-04 0.225E-04
CGA:  19    -0.675275874901E+03   -0.43417E-04    0.25304E-05  8424   0.213E-04 0.892E-06
CGA:  20    -0.675275959121E+03   -0.84220E-04    0.10830E-05  8424   0.248E-04-0.420E-06
CGA:  21    -0.675276084159E+03   -0.12504E-03    0.82270E-06  8424   0.199E-04 0.135E-04
CGA:  22    -0.675276129007E+03   -0.44848E-04    0.19825E-05  8424   0.182E-04 0.125E-05
CGA:  23    -0.675276183628E+03   -0.54621E-04    0.13908E-05  8424   0.175E-04-0.283E-06
CGA:  24    -0.675276289680E+03   -0.10605E-03    0.47506E-06  8424   0.175E-04 0.106E-04
CGA:  25    -0.675276328877E+03   -0.39196E-04    0.17529E-05  8424   0.145E-04 0.125E-05
CGA:  26    -0.675276399742E+03   -0.70865E-04    0.61213E-06  8424   0.137E-04 0.225E-05
CGA:  27    -0.675276488704E+03   -0.88962E-04    0.48405E-06  8424   0.179E-04 0.704E-05
CGA:  28    -0.675276530551E+03   -0.41846E-04    0.16815E-05  8424   0.237E-04-0.464E-05
CGA:  29    -0.675276591484E+03   -0.60933E-04    0.95858E-06  8424   0.235E-04-0.758E-06
CGA:  30    -0.675276697679E+03   -0.10620E-03    0.86865E-06  8424   0.252E-04 0.193E-05
CGA:  31    -0.675276860840E+03   -0.16316E-03    0.77478E-06  8424   0.315E-04 0.163E-04
CGA:  32    -0.675276871195E+03   -0.10355E-04   -0.90809E-05  8424   0.282E-04-0.132E-04
CGA:  33    -0.675276942304E+03   -0.71108E-04    0.66649E-06  8424   0.257E-04-0.267E-05
CGA:  34    -0.675277035960E+03   -0.93657E-04    0.10317E-05  8424   0.185E-04 0.120E-05
CGA:  35    -0.675277106138E+03   -0.70178E-04    0.97793E-06  8424   0.394E-04-0.296E-05
CGA:  36    -0.675277320222E+03   -0.21408E-03    0.83895E-06  8424   0.479E-04 0.222E-04
CGA:  37    -0.675277375276E+03   -0.55054E-04    0.17858E-04  8424   0.195E-03-0.825E-04
CGA:  38    -0.675277380682E+03   -0.54061E-05   -0.17910E-04  8424   0.126E-04 0.436E-04
   3 F= -.67527738E+03 E0= -.67527738E+03  d E =-.268390E+00  mag=     5.0000
       N       E                     dE             d eps       ncg     rms          ort
SDA:   1    -0.667640634036E+03    0.76367E+01    0.00000E+00  8424   0.202E+02 0.000E+00
CGA:   2    -0.673647017638E+03   -0.60064E+01   -0.60078E+01  8424   0.694E+01-0.630E-02
CGA:   3    -0.674974978645E+03   -0.13280E+01   -0.13316E+01  8424   0.217E+01 0.421E-02
CGA:   4    -0.675353829918E+03   -0.37885E+00   -0.37956E+00  8424   0.490E+00-0.221E-03
CGA:   5    -0.675434680843E+03   -0.80851E-01   -0.80670E-01  8424   0.110E+00-0.435E-03
CGA:   6    -0.675457016712E+03   -0.22336E-01   -0.22289E-01  8424   0.300E-01-0.385E-03
CGA:   7    -0.675464461524E+03   -0.74448E-02   -0.73891E-02  8424   0.120E-01-0.781E-03
CGA:   8    -0.675467370300E+03   -0.29088E-02   -0.29181E-02  8424   0.399E-02 0.144E-03
CGA:   9    -0.675468447217E+03   -0.10769E-02   -0.10837E-02  8424   0.147E-02 0.154E-03
CGA:  10    -0.675468956794E+03   -0.50958E-03   -0.51232E-03  8424   0.640E-03-0.115E-03
CGA:  11    -0.675469128527E+03   -0.17173E-03   -0.17082E-03  8424   0.228E-03-0.408E-04
CGA:  12    -0.675469115551E+03    0.12977E-04   -0.17783E-03  8424   0.116E-02-0.365E-03
CGA:  13    -0.675469266767E+03   -0.15122E-03   -0.17789E-03  8424   0.184E-03 0.145E-03
CGA:  14    -0.675469341673E+03   -0.74905E-04   -0.78756E-04  8424   0.138E-03-0.726E-04
CGA:  15    -0.675469368903E+03   -0.27231E-04   -0.56192E-04  8424   0.258E-03-0.851E-04
CGA:  16    -0.675469464841E+03   -0.95938E-04   -0.99860E-04  8424   0.192E-03-0.986E-04
CGA:  17    -0.675469492425E+03   -0.27585E-04   -0.26499E-04  8424   0.787E-04-0.878E-05
CGA:  18    -0.675469226110E+03    0.26632E-03   -0.11313E-03  8424   0.221E-02-0.327E-03
CGA:  19    -0.675469668363E+03   -0.44225E-03   -0.44545E-03  8424   0.103E-03 0.153E-04
CGA:  20    -0.675469699936E+03   -0.31572E-04   -0.30082E-04  8424   0.481E-04-0.147E-04
CGA:  21    -0.675469745073E+03   -0.45137E-04    0.19126E-04  8424   0.399E-04 0.118E-05
CGA:  22    -0.675469780406E+03   -0.35334E-04    0.65957E-04  8424   0.293E-04 0.102E-04
CGA:  23    -0.675469844918E+03   -0.64512E-04    0.56227E-05  8424   0.276E-04 0.208E-04
CGA:  24    -0.675469866846E+03   -0.21927E-04    0.18778E-03  8424   0.324E-04-0.173E-05
CGA:  25    -0.675469914707E+03   -0.47861E-04    0.56281E-05  8424   0.223E-04 0.123E-04
CGA:  26    -0.675469966118E+03   -0.51411E-04    0.51482E-05  8424   0.273E-04 0.157E-04
CGA:  27    -0.675469976973E+03   -0.10855E-04   -0.13806E-04  8424   0.915E-04-0.246E-04
CGA:  28    -0.675470002938E+03   -0.25965E-04   -0.20379E-04  8424   0.311E-04-0.330E-04
CGA:  29    -0.675470029071E+03   -0.26133E-04    0.53799E-05  8424   0.106E-04 0.110E-04
CGA:  30    -0.675470055409E+03   -0.26338E-04    0.19645E-05  8424   0.125E-04 0.950E-05
CGA:  31    -0.675470073975E+03   -0.18566E-04    0.25618E-05  8424   0.163E-04 0.224E-05
CGA:  32    -0.675470115777E+03   -0.41802E-04    0.20247E-05  8424   0.140E-04 0.182E-04
CGA:  33    -0.675470132157E+03   -0.16379E-04    0.51273E-05  8424   0.168E-04 0.697E-07
CGA:  34    -0.675470170249E+03   -0.38092E-04    0.16715E-05  8424   0.163E-04 0.155E-04
CGA:  35    -0.675470188672E+03   -0.18423E-04    0.66340E-05  8424   0.163E-04-0.184E-05
CGA:  36    -0.675470222276E+03   -0.33604E-04    0.13733E-05  8424   0.159E-04 0.130E-04
CGA:  37    -0.675470237370E+03   -0.15093E-04    0.13165E-04  8424   0.129E-04-0.748E-06
CGA:  38    -0.675470267450E+03   -0.30081E-04    0.10839E-05  8424   0.123E-04 0.115E-04
CGA:  39    -0.675470285893E+03   -0.18443E-04    0.24966E-05  8424   0.917E-05 0.226E-05
CGA:  40    -0.675470313040E+03   -0.27147E-04    0.92361E-06  8424   0.962E-05 0.105E-04
CGA:  41    -0.675470327990E+03   -0.14950E-04    0.18031E-05  8424   0.734E-05 0.384E-05
CGA:  42    -0.675470355213E+03   -0.27223E-04    0.80464E-06  8424   0.829E-05 0.992E-05
CGA:  43    -0.675470371690E+03   -0.16476E-04    0.10002E-05  8424   0.650E-05 0.429E-05
CGA:  44    -0.675470386283E+03   -0.14594E-04    0.64878E-06  8424   0.587E-05 0.513E-05
CGA:  45    -0.675470401782E+03   -0.15498E-04    0.46261E-06  8424   0.562E-05 0.534E-05
CGA:  46    -0.675470416334E+03   -0.14552E-04    0.45426E-06  8424   0.548E-05 0.536E-05
CGA:  47    -0.675470431455E+03   -0.15121E-04    0.40544E-06  8424   0.539E-05 0.530E-05
CGA:  48    -0.675470445966E+03   -0.14511E-04    0.41254E-06  8424   0.533E-05 0.522E-05
CGA:  49    -0.675470460754E+03   -0.14789E-04    0.39108E-06  8424   0.530E-05 0.510E-05
CGA:  50    -0.675470475311E+03   -0.14557E-04    0.39433E-06  8424   0.530E-05 0.495E-05
CGA:  51    -0.675470489472E+03   -0.14161E-04    0.41040E-06  8424   0.537E-05 0.477E-05
CGA:  52    -0.675470504705E+03   -0.15233E-04    0.38321E-06  8424   0.571E-05 0.445E-05
CGA:  53    -0.675470516595E+03   -0.11889E-04    0.64000E-06  8424   0.720E-05 0.359E-05
CGA:  54    -0.675470535080E+03   -0.18486E-04    0.58872E-06  8424   0.139E-04 0.305E-06
CGA:  55    -0.675470574782E+03   -0.39702E-04    0.10750E-05  8424   0.121E-04 0.133E-04
CGA:  56    -0.675470578661E+03   -0.38786E-05   -0.65520E-05  8424   0.716E-04-0.173E-04
CGA:  57    -0.675470603091E+03   -0.24430E-04   -0.16473E-04  8424   0.509E-04-0.492E-04
CGA:  58    -0.675470605669E+03   -0.25779E-05   -0.53902E-05  8424   0.527E-05 0.101E-04
   4 F= -.67547061E+03 E0= -.67547061E+03  d E =-.193225E+00  mag=     5.0000
       N       E                     dE             d eps       ncg     rms          ort
SDA:   1    -0.674401627642E+03    0.10690E+01    0.00000E+00  8424   0.307E+01 0.000E+00
CGA:   2    -0.675188717767E+03   -0.78709E+00   -0.78709E+00  8424   0.121E+01-0.240E-02
CGA:   3    -0.675427595217E+03   -0.23888E+00   -0.23902E+00  8424   0.369E+00 0.755E-03
CGA:   4    -0.675490645550E+03   -0.63050E-01   -0.63293E-01  8424   0.890E-01 0.124E-02
CGA:   5    -0.675505338334E+03   -0.14693E-01   -0.14738E-01  8424   0.174E-01 0.228E-03
CGA:   6    -0.675509107244E+03   -0.37689E-02   -0.37296E-02  8424   0.461E-02-0.322E-03
CGA:   7    -0.675510202954E+03   -0.10957E-02   -0.10848E-02  8424   0.159E-02-0.119E-03
CGA:   8    -0.675510579481E+03   -0.37653E-03   -0.37858E-03  8424   0.494E-03 0.245E-04
CGA:   9    -0.675510709840E+03   -0.13036E-03   -0.13250E-03  8424   0.179E-03 0.366E-04
CGA:  10    -0.675510767044E+03   -0.57204E-04   -0.57665E-04  8424   0.811E-04 0.228E-04
CGA:  11    -0.675510807831E+03   -0.40787E-04   -0.50486E-04  8424   0.118E-03-0.418E-04
CGA:  12    -0.675510835105E+03   -0.27274E-04   -0.27613E-04  8424   0.308E-04 0.344E-05
CGA:  13    -0.675510851968E+03   -0.16863E-04   -0.16209E-04  8424   0.315E-04 0.338E-05
CGA:  14    -0.675510886516E+03   -0.34548E-04   -0.35890E-04  8424   0.961E-04-0.274E-05
CGA:  15    -0.675510940229E+03   -0.53714E-04   -0.53903E-04  8424   0.147E-03-0.567E-05
CGA:  16    -0.675510989095E+03   -0.48865E-04   -0.49900E-04  8424   0.105E-03 0.415E-04
CGA:  17    -0.675511045276E+03   -0.56181E-04   -0.55152E-04  8424   0.890E-04 0.281E-04
CGA:  18    -0.675511075328E+03   -0.30052E-04   -0.33887E-04  8424   0.532E-04 0.427E-04
CGA:  19    -0.675511093805E+03   -0.18478E-04   -0.22306E-04  8424   0.357E-04 0.385E-04
CGA:  20    -0.675511112933E+03   -0.19128E-04   -0.24419E-04  8424   0.104E-03-0.171E-04
CGA:  21    -0.675511112910E+03    0.23294E-07   -0.66045E-05  8424   0.865E-04 0.247E-04
CGA:  22    -0.675511112915E+03   -0.47803E-08   -0.10902E-04  8424   0.307E-04 0.396E-04
   5 F= -.67551111E+03 E0= -.67551111E+03  d E =-.405072E-01  mag=     5.0000
       N       E                     dE             d eps       ncg     rms          ort
SDA:   1    -0.673541426630E+03    0.19697E+01    0.00000E+00  8424   0.537E+01 0.000E+00
CGA:   2    -0.674929854085E+03   -0.13884E+01   -0.13884E+01  8424   0.242E+01-0.347E-02
CGA:   3    -0.675397744414E+03   -0.46789E+00   -0.46812E+00  8424   0.661E+00 0.179E-02
CGA:   4    -0.675508489754E+03   -0.11075E+00   -0.11102E+00  8424   0.154E+00 0.118E-02
CGA:   5    -0.675533982138E+03   -0.25492E-01   -0.25557E-01  8424   0.304E-01 0.336E-03
CGA:   6    -0.675540561662E+03   -0.65795E-02   -0.65664E-02  8424   0.814E-02-0.130E-03
CGA:   7    -0.675542448635E+03   -0.18870E-02   -0.18704E-02  8424   0.265E-02-0.197E-03
CGA:   8    -0.675543111268E+03   -0.66263E-03   -0.66188E-03  8424   0.893E-03-0.141E-04
CGA:   9    -0.675543375519E+03   -0.26425E-03   -0.26374E-03  8424   0.392E-03-0.449E-04
CGA:  10    -0.675543511903E+03   -0.13638E-03   -0.14234E-03  8424   0.263E-03-0.801E-04
CGA:  11    -0.675543568302E+03   -0.56399E-04   -0.13338E-03  8424   0.556E-03-0.237E-03
CGA:  12    -0.675543698262E+03   -0.12996E-03   -0.12548E-03  8424   0.144E-03-0.440E-04
CGA:  13    -0.675543743700E+03   -0.45437E-04   -0.45231E-04  8424   0.648E-04 0.117E-04
CGA:  14    -0.675543797493E+03   -0.53793E-04    0.60468E-04  8424   0.384E-04 0.245E-04
CGA:  15    -0.675543729721E+03    0.67772E-04   -0.46426E-04  8424   0.103E-02-0.112E-03
CGA:  16    -0.675543976084E+03   -0.24636E-03   -0.21211E-03  8424   0.232E-03-0.900E-04
CGA:  17    -0.675544008314E+03   -0.32230E-04   -0.45182E-04  8424   0.576E-04 0.362E-04
CGA:  18    -0.675544041916E+03   -0.33603E-04   -0.33372E-04  8424   0.809E-04-0.463E-05
CGA:  19    -0.675544077169E+03   -0.35253E-04   -0.58745E-04  8424   0.309E-03-0.996E-04
CGA:  20    -0.675544113069E+03   -0.35900E-04   -0.51045E-04  8424   0.678E-04 0.382E-04
CGA:  21    -0.675544161582E+03   -0.48513E-04   -0.56586E-04  8424   0.145E-03-0.407E-04
CGA:  22    -0.675544191627E+03   -0.30045E-04   -0.31890E-04  8424   0.304E-04 0.548E-05
CGA:  23    -0.675544007854E+03    0.18377E-03   -0.66922E-04  8424   0.159E-02-0.159E-03
CGA:  24    -0.675544226559E+03   -0.21870E-03   -0.26182E-03  8424   0.189E-03 0.983E-04
CGA:  25    -0.675544306865E+03   -0.80307E-04   -0.67524E-04  8424   0.577E-04-0.500E-04
CGA:  26    -0.675544313848E+03   -0.69826E-05   -0.97482E-05  8424   0.271E-04 0.782E-05
CGA:  27    -0.675544328851E+03   -0.15003E-04   -0.34649E-04  8424   0.156E-03-0.354E-04
CGA:  28    -0.675544403383E+03   -0.74532E-04   -0.61667E-04  8424   0.111E-03-0.657E-04
CGA:  29    -0.675544403799E+03   -0.41627E-06   -0.83842E-05  8424   0.459E-04 0.177E-04
   6 F= -.67554440E+03 E0= -.67554440E+03  d E =-.332909E-01  mag=     5.0000
       N       E                     dE             d eps       ncg     rms          ort
SDA:   1    -0.674038282990E+03    0.15061E+01    0.00000E+00  8424   0.429E+01 0.000E+00
CGA:   2    -0.675082297582E+03   -0.10440E+01   -0.10449E+01  8424   0.188E+01-0.141E-02
CGA:   3    -0.675448450056E+03   -0.36615E+00   -0.36591E+00  8424   0.504E+00 0.198E-02
CGA:   4    -0.675534253100E+03   -0.85803E-01   -0.85737E-01  8424   0.129E+00-0.251E-03
CGA:   5    -0.675556224897E+03   -0.21972E-01   -0.21964E-01  8424   0.258E-01-0.760E-04
CGA:   6    -0.675561500951E+03   -0.52761E-02   -0.53053E-02  8424   0.617E-02 0.104E-03
CGA:   7    -0.675562902220E+03   -0.14013E-02   -0.14071E-02  8424   0.199E-02 0.238E-04
CGA:   8    -0.675563433515E+03   -0.53130E-03   -0.52688E-03  8424   0.670E-03-0.245E-04
CGA:   9    -0.675563661533E+03   -0.22802E-03   -0.21529E-03  8424   0.345E-03-0.113E-03
CGA:  10    -0.675563772795E+03   -0.11126E-03   -0.10576E-03  8424   0.205E-03-0.867E-04
CGA:  11    -0.675563840472E+03   -0.67677E-04   -0.77733E-04  8424   0.238E-03-0.132E-03
CGA:  12    -0.675563901914E+03   -0.61442E-04   -0.57183E-04  8424   0.707E-04-0.222E-04
CGA:  13    -0.675563884588E+03    0.17326E-04   -0.72968E-04  8424   0.602E-03-0.127E-03
CGA:  14    -0.675564005226E+03   -0.12064E-03   -0.11177E-03  8424   0.815E-04-0.325E-04
CGA:  15    -0.675564033896E+03   -0.28670E-04   -0.27521E-04  8424   0.349E-04-0.130E-04
CGA:  16    -0.675564084958E+03   -0.51062E-04    0.66696E-05  8424   0.508E-04-0.113E-04
CGA:  17    -0.675564144077E+03   -0.59119E-04    0.80294E-05  8424   0.440E-04 0.426E-05
CGA:  18    -0.675564228671E+03   -0.84594E-04    0.10410E-04  8424   0.468E-04 0.102E-04
CGA:  19    -0.675564347057E+03   -0.11839E-03    0.96021E-05  8424   0.586E-04 0.805E-05
CGA:  20    -0.675564478217E+03   -0.13116E-03    0.13034E-04  8424   0.562E-04 0.142E-04
CGA:  21    -0.675564649568E+03   -0.17135E-03    0.86822E-05  8424   0.779E-04 0.174E-04
CGA:  22    -0.675564900340E+03   -0.25077E-03    0.12588E-04  8424   0.494E-04 0.315E-04
CGA:  23    -0.675565059438E+03   -0.15910E-03    0.96055E-05  8424   0.690E-04 0.160E-04
CGA:  24    -0.675565332312E+03   -0.27287E-03    0.84517E-05  8424   0.639E-04 0.142E-04
CGA:  25    -0.675565576998E+03   -0.24469E-03    0.65511E-05  8424   0.783E-04 0.153E-04
CGA:  26    -0.675565896231E+03   -0.31923E-03    0.78745E-05  8424   0.902E-04 0.660E-05
CGA:  27    -0.675566305781E+03   -0.40955E-03    0.57642E-05  8424   0.670E-04 0.142E-04
CGA:  28    -0.675566621057E+03   -0.31528E-03    0.47589E-05  8424   0.814E-04-0.670E-05
CGA:  29    -0.675567030208E+03   -0.40915E-03    0.30388E-05  8424   0.119E-03-0.373E-04
CGA:  30    -0.675567643553E+03   -0.61334E-03    0.14495E-05  8424   0.127E-03-0.369E-04
CGA:  31    -0.675568370347E+03   -0.72679E-03    0.23125E-05  8424   0.164E-03-0.619E-04
CGA:  32    -0.675569370370E+03   -0.10000E-02    0.14857E-05  8424   0.236E-03-0.159E-03
CGA:  33    -0.675569402313E+03   -0.31943E-04   -0.37307E-04  8424   0.563E-04 0.191E-04
CGA:  34    -0.675569430706E+03   -0.28393E-04   -0.35789E-04  8424   0.744E-04-0.459E-04
CGA:  35    -0.675569435076E+03   -0.43701E-05   -0.12179E-04  8424   0.196E-04 0.287E-04
   7 F= -.67556944E+03 E0= -.67556944E+03  d E =-.250313E-01  mag=     5.0000
       N       E                     dE             d eps       ncg     rms          ort
SDA:   1    -0.674775784797E+03    0.79365E+00    0.00000E+00  8424   0.220E+01 0.000E+00
CGA:   2    -0.675325482799E+03   -0.54970E+00   -0.55003E+00  8424   0.968E+00 0.520E-03
CGA:   3    -0.675512455552E+03   -0.18697E+00   -0.18684E+00  8424   0.269E+00 0.265E-04
CGA:   4    -0.675558982325E+03   -0.46527E-01   -0.46364E-01  8424   0.667E-01-0.783E-03
CGA:   5    -0.675570232596E+03   -0.11250E-01   -0.11195E-01  8424   0.135E-01-0.286E-03
CGA:   6    -0.675572957867E+03   -0.27253E-02   -0.27345E-02  8424   0.323E-02 0.500E-04
CGA:   7    -0.675573725653E+03   -0.76779E-03   -0.76848E-03  8424   0.110E-02 0.464E-05
CGA:   8    -0.675574020720E+03   -0.29507E-03   -0.28986E-03  8424   0.397E-03-0.547E-04
CGA:   9    -0.675574156821E+03   -0.13610E-03   -0.13748E-03  8424   0.259E-03-0.130E-03
CGA:  10    -0.675574222286E+03   -0.65465E-04   -0.81378E-04  8424   0.248E-03-0.141E-03
CGA:  11    -0.675574276224E+03   -0.53938E-04   -0.52966E-04  8424   0.615E-04-0.670E-05
CGA:  12    -0.675574302669E+03   -0.26445E-04   -0.31831E-04  8424   0.663E-04-0.301E-04
CGA:  13    -0.675574344973E+03   -0.42305E-04    0.83772E-05  8424   0.460E-04-0.602E-05
CGA:  14    -0.675574400151E+03   -0.55178E-04    0.91464E-05  8424   0.342E-04 0.285E-05
CGA:  15    -0.675574459992E+03   -0.59841E-04    0.51411E-05  8424   0.232E-04 0.669E-05
CGA:  16    -0.675574521464E+03   -0.61472E-04    0.24217E-05  8424   0.202E-04 0.111E-04
CGA:  17    -0.675574589020E+03   -0.67556E-04    0.25309E-05  8424   0.151E-04 0.118E-04
CGA:  18    -0.675574610838E+03   -0.21817E-04    0.27332E-05  8424   0.837E-05 0.388E-05
CGA:  19    -0.675574637570E+03   -0.26733E-04    0.75631E-06  8424   0.896E-05 0.463E-05
CGA:  20    -0.675574655818E+03   -0.18248E-04    0.89227E-06  8424   0.140E-04-0.182E-06
CGA:  21    -0.675574702331E+03   -0.46513E-04    0.67094E-06  8424   0.115E-04 0.795E-05
CGA:  22    -0.675574722121E+03   -0.19790E-04    0.15103E-05  8424   0.885E-05 0.948E-06
CGA:  23    -0.675574754692E+03   -0.32571E-04    0.46775E-06  8424   0.115E-04 0.343E-05
CGA:  24    -0.675574815078E+03   -0.60386E-04    0.67810E-06  8424   0.814E-05 0.139E-04
CGA:  25    -0.675574832819E+03   -0.17741E-04    0.73083E-06  8424   0.105E-04 0.108E-05
CGA:  26    -0.675574876328E+03   -0.43509E-04    0.53113E-06  8424   0.809E-05 0.530E-05
CGA:  27    -0.675574895485E+03   -0.19156E-04    0.64203E-06  8424   0.504E-05 0.323E-05
CGA:  28    -0.675574923981E+03   -0.28496E-04    0.27772E-06  8424   0.620E-05 0.466E-05
CGA:  29    -0.675574943479E+03   -0.19498E-04    0.33485E-06  8424   0.767E-05 0.195E-05
CGA:  30    -0.675574985022E+03   -0.41543E-04    0.38777E-06  8424   0.674E-05 0.604E-05
CGA:  31    -0.675575003089E+03   -0.18067E-04    0.44994E-06  8424   0.561E-05 0.245E-05
CGA:  32    -0.675575035544E+03   -0.32455E-04    0.28436E-06  8424   0.730E-05 0.442E-05
CGA:  33    -0.675575055134E+03   -0.19590E-04    0.48626E-06  8424   0.108E-04-0.651E-07
CGA:  34    -0.675575100353E+03   -0.45219E-04    0.40295E-06  8424   0.105E-04 0.417E-05
CGA:  35    -0.675575163253E+03   -0.62900E-04    0.52391E-06  8424   0.114E-04 0.111E-04
CGA:  36    -0.675575179623E+03   -0.16370E-04    0.20986E-05  8424   0.327E-04-0.974E-05
CGA:  37    -0.675575189812E+03   -0.10189E-04   -0.67714E-05  8424   0.260E-04-0.222E-04
CGA:  38    -0.675575198279E+03   -0.84674E-05   -0.99224E-05  8424   0.144E-03-0.530E-04
CGA:  39    -0.675575217903E+03   -0.19624E-04   -0.17198E-04  8424   0.467E-05-0.103E-04
CGA:  40    -0.675575236303E+03   -0.18400E-04    0.14356E-06  8424   0.509E-05 0.236E-05
CGA:  41    -0.675575251999E+03   -0.15696E-04    0.25057E-06  8424   0.122E-04-0.744E-06
CGA:  42    -0.675575310621E+03   -0.58622E-04    0.24957E-06  8424   0.170E-04 0.101E-04
CGA:  43    -0.675575324600E+03   -0.13978E-04    0.14524E-04  8424   0.721E-04-0.276E-04
CGA:  44    -0.675575335874E+03   -0.11274E-04   -0.90778E-05  8424   0.567E-05-0.101E-04
CGA:  45    -0.675575354905E+03   -0.19031E-04    0.16598E-06  8424   0.501E-05 0.206E-05
CGA:  46    -0.675575387122E+03   -0.32217E-04    0.18602E-06  8424   0.326E-05 0.575E-05
CGA:  47    -0.675575404876E+03   -0.17754E-04    0.75459E-07  8424   0.415E-05 0.253E-05
CGA:  48    -0.675575418549E+03   -0.13673E-04    0.17466E-06  8424   0.894E-05 0.401E-06
CGA:  49    -0.675575472125E+03   -0.53576E-04    0.22596E-06  8424   0.676E-05 0.960E-05
CGA:  50    -0.675575491596E+03   -0.19471E-04    0.33708E-06  8424   0.227E-04-0.580E-05
CGA:  51    -0.675575495976E+03   -0.43797E-05   -0.33013E-05  8424   0.666E-05-0.577E-05
   8 F= -.67557550E+03 E0= -.67557550E+03  d E =-.606090E-02  mag=     5.0000
       N       E                     dE             d eps       ncg     rms          ort
SDA:   1    -0.675240235786E+03    0.33526E+00    0.00000E+00  8424   0.925E+00 0.000E+00
CGA:   2    -0.675464216587E+03   -0.22398E+00   -0.22405E+00  8424   0.421E+00 0.622E-03
CGA:   3    -0.675548419229E+03   -0.84203E-01   -0.84175E-01  8424   0.116E+00-0.251E-03
CGA:   4    -0.675567747480E+03   -0.19328E-01   -0.19264E-01  8424   0.275E-01-0.457E-03
CGA:   5    -0.675572475122E+03   -0.47276E-02   -0.46919E-02  8424   0.560E-02-0.274E-03
CGA:   6    -0.675573667188E+03   -0.11921E-02   -0.11820E-02  8424   0.140E-02-0.118E-03
CGA:   7    -0.675573988556E+03   -0.32137E-03   -0.31984E-03  8424   0.441E-03-0.249E-04
CGA:   8    -0.675574119227E+03   -0.13067E-03   -0.13174E-03  8424   0.210E-03-0.870E-04
CGA:   9    -0.675573606217E+03    0.51301E-03   -0.22836E-03  8424   0.383E-02-0.699E-03
CGA:  10    -0.675574229024E+03   -0.62281E-03   -0.63300E-03  8424   0.411E-03 0.557E-04
CGA:  11    -0.675574373775E+03   -0.14475E-03   -0.14557E-03  8424   0.167E-03-0.653E-04
CGA:  12    -0.675574430548E+03   -0.56772E-04   -0.68229E-04  8424   0.148E-03-0.779E-04
CGA:  13    -0.675574518062E+03   -0.87514E-04    0.22645E-04  8424   0.793E-04-0.307E-04
CGA:  14    -0.675574573071E+03   -0.55009E-04    0.39946E-04  8424   0.569E-04-0.169E-04
CGA:  15    -0.675574657416E+03   -0.84345E-04    0.44483E-05  8424   0.354E-04-0.166E-05
CGA:  16    -0.675574738848E+03   -0.81432E-04    0.24229E-05  8424   0.200E-04 0.797E-05
CGA:  17    -0.675574804125E+03   -0.65277E-04    0.14657E-05  8424   0.159E-04 0.703E-05
CGA:  18    -0.675574888007E+03   -0.83882E-04    0.78988E-06  8424   0.134E-04 0.965E-05
CGA:  19    -0.675574912883E+03   -0.24876E-04    0.13534E-05  8424   0.993E-05 0.171E-05
CGA:  20    -0.675574961590E+03   -0.48707E-04    0.36277E-06  8424   0.106E-04 0.264E-05
CGA:  21    -0.675575033632E+03   -0.72042E-04    0.34247E-06  8424   0.835E-05 0.994E-05
CGA:  22    -0.675575060551E+03   -0.26919E-04    0.39047E-06  8424   0.630E-05 0.346E-05
CGA:  23    -0.675575106089E+03   -0.45538E-04    0.23903E-06  8424   0.615E-05 0.486E-05
CGA:  24    -0.675575129081E+03   -0.22992E-04    0.23874E-06  8424   0.816E-05 0.197E-05
CGA:  25    -0.675575190916E+03   -0.61836E-04    0.25322E-06  8424   0.573E-05 0.709E-05
CGA:  26    -0.675575214222E+03   -0.23306E-04    0.20086E-06  8424   0.429E-05 0.354E-05
CGA:  27    -0.675575242719E+03   -0.28497E-04    0.85597E-07  8424   0.486E-05 0.313E-05
CGA:  28    -0.675575260657E+03   -0.17938E-04    0.19200E-06  8424   0.736E-05 0.183E-05
CGA:  29    -0.675575325831E+03   -0.65174E-04    0.20922E-06  8424   0.485E-05 0.925E-05
CGA:  30    -0.675575355305E+03   -0.29474E-04    0.10679E-06  8424   0.526E-05 0.226E-05
CGA:  31    -0.675575403633E+03   -0.48328E-04    0.16380E-06  8424   0.498E-05 0.723E-05
CGA:  32    -0.675575427595E+03   -0.23962E-04    0.14328E-06  8424   0.451E-05 0.232E-05
CGA:  33    -0.675575473101E+03   -0.45506E-04    0.12637E-06  8424   0.485E-05 0.637E-05
CGA:  34    -0.675575498422E+03   -0.25322E-04    0.12681E-06  8424   0.398E-05 0.252E-05
CGA:  35    -0.675575520828E+03   -0.22406E-04    0.95483E-07  8424   0.368E-05 0.299E-05
CGA:  36    -0.675575546957E+03   -0.26130E-04    0.68179E-07  8424   0.379E-05 0.301E-05
CGA:  37    -0.675575566970E+03   -0.20013E-04    0.98102E-07  8424   0.452E-05 0.260E-05
CGA:  38    -0.675575596400E+03   -0.29430E-04    0.91915E-07  8424   0.714E-05 0.116E-05
CGA:  39    -0.675575656913E+03   -0.60514E-04    0.17576E-06  8424   0.482E-05 0.862E-05
CGA:  40    -0.675575672436E+03   -0.15522E-04    0.22559E-06  8424   0.857E-05 0.300E-06
CGA:  41    -0.675575737349E+03   -0.64913E-04    0.16740E-06  8424   0.730E-05 0.863E-05
CGA:  42    -0.675575771487E+03   -0.34137E-04    0.21729E-06  8424   0.161E-04-0.404E-05
CGA:  43    -0.675575773629E+03   -0.21424E-05   -0.22616E-05  8424   0.367E-05 0.579E-06
   9 F= -.67557577E+03 E0= -.67557577E+03  d E =-.277653E-03  mag=     5.0000
       N       E                     dE             d eps       ncg     rms          ort
SDA:   1    -0.675160281464E+03    0.41549E+00    0.00000E+00  8424   0.104E+01 0.000E+00
CGA:   2    -0.675453006558E+03   -0.29273E+00   -0.29274E+00  8424   0.519E+00 0.127E-03
CGA:   3    -0.675547153643E+03   -0.94147E-01   -0.94095E-01  8424   0.115E+00-0.366E-03
CGA:   4    -0.675566240069E+03   -0.19086E-01   -0.19080E-01  8424   0.278E-01-0.609E-04
CGA:   5    -0.675571036326E+03   -0.47963E-02   -0.47840E-02  8424   0.584E-02-0.913E-04
CGA:   6    -0.675572294529E+03   -0.12582E-02   -0.12443E-02  8424   0.142E-02-0.147E-03
CGA:   7    -0.675572621587E+03   -0.32706E-03   -0.32420E-03  8424   0.477E-03-0.413E-04
CGA:   8    -0.675572767311E+03   -0.14572E-03   -0.14754E-03  8424   0.253E-03-0.104E-03
CGA:   9    -0.675572814134E+03   -0.46823E-04   -0.11561E-03  8424   0.566E-03-0.244E-03
CGA:  10    -0.675572926989E+03   -0.11285E-03   -0.10728E-03  8424   0.102E-03-0.442E-04
CGA:  11    -0.675572881501E+03    0.45488E-04   -0.88878E-04  8424   0.793E-03-0.211E-03
CGA:  12    -0.675573041374E+03   -0.15987E-03   -0.14870E-03  8424   0.114E-03-0.727E-04
CGA:  13    -0.675573077828E+03   -0.36454E-04   -0.39036E-04  8424   0.110E-03-0.586E-04
CGA:  14    -0.675573115835E+03   -0.38006E-04   -0.32243E-04  8424   0.238E-03-0.135E-03
CGA:  15    -0.675573135653E+03   -0.19818E-04   -0.24596E-04  8424   0.763E-05 0.209E-04
CGA:  16    -0.675573160048E+03   -0.24395E-04    0.37608E-06  8424   0.165E-04 0.183E-05
CGA:  17    -0.675573248870E+03   -0.88823E-04    0.57687E-06  8424   0.161E-04 0.175E-04
CGA:  18    -0.675573277899E+03   -0.29029E-04    0.14386E-05  8424   0.330E-04-0.953E-05
CGA:  19    -0.675573287765E+03   -0.98657E-05   -0.11734E-04  8424   0.145E-03-0.554E-04
CGA:  20    -0.675573322205E+03   -0.34439E-04   -0.23663E-04  8424   0.444E-04-0.673E-04
CGA:  21    -0.675573353369E+03   -0.31165E-04    0.34787E-05  8424   0.943E-05 0.190E-05
CGA:  22    -0.675573394581E+03   -0.41212E-04    0.27603E-06  8424   0.110E-04 0.314E-05
CGA:  23    -0.675573455401E+03   -0.60820E-04    0.41651E-06  8424   0.570E-05 0.128E-04
CGA:  24    -0.675573481251E+03   -0.25850E-04    0.14587E-06  8424   0.580E-05 0.430E-05
CGA:  25    -0.675573507608E+03   -0.26357E-04    0.14798E-06  8424   0.693E-05 0.369E-05
CGA:  26    -0.675573530937E+03   -0.23328E-04    0.25252E-06  8424   0.115E-04 0.128E-05
CGA:  27    -0.675573600796E+03   -0.69860E-04    0.30136E-06  8424   0.835E-05 0.128E-04
CGA:  28    -0.675573626387E+03   -0.25590E-04    0.34210E-06  8424   0.141E-04-0.915E-06
CGA:  29    -0.675573692342E+03   -0.65955E-04    0.26964E-06  8424   0.152E-04 0.105E-04
CGA:  30    -0.675573717793E+03   -0.25451E-04    0.14604E-05  8424   0.223E-04-0.820E-05
CGA:  31    -0.675573740644E+03   -0.22851E-04    0.56348E-05  8424   0.519E-04-0.236E-04
CGA:  32    -0.675573755118E+03   -0.14474E-04   -0.10785E-04  8424   0.371E-04-0.342E-04
CGA:  33    -0.675573778986E+03   -0.23868E-04    0.16431E-03  8424   0.112E-03-0.546E-04
CGA:  34    -0.675573793574E+03   -0.14588E-04   -0.13414E-04  8424   0.548E-05-0.613E-05
CGA:  35    -0.675573820827E+03   -0.27253E-04    0.10083E-06  8424   0.489E-05 0.404E-05
CGA:  36    -0.675573840041E+03   -0.19215E-04    0.13329E-06  8424   0.632E-05 0.312E-05
CGA:  37    -0.675573870016E+03   -0.29975E-04    0.13824E-06  8424   0.115E-04 0.331E-06
CGA:  38    -0.675573935589E+03   -0.65573E-04    0.22595E-06  8424   0.101E-04 0.118E-04
CGA:  39    -0.675573944157E+03   -0.85672E-05    0.37159E-05  8424   0.250E-04-0.712E-05
