       N       E                     dE             d eps       ncg     rms          ort
DAV:   1     0.828471568588E+04    0.82847E+04   -0.24668E+05  8424   0.238E+03
DAV:   2     0.917789879832E+03   -0.73669E+04   -0.69170E+04  8424   0.658E+02
DAV:   3    -0.678790092838E+03   -0.15966E+04   -0.14045E+04  8424   0.283E+02
DAV:   4    -0.834791443503E+03   -0.15600E+03   -0.15329E+03  8424   0.857E+01
DAV:   5    -0.837321974477E+03   -0.25305E+01   -0.25187E+01  8424   0.122E+01
SDA:   6    -0.233384585199E+03    0.60394E+03   -0.25187E+01  8424   0.852E+04 0.000E+00
CGA:   7    -0.918380381313E+02    0.14155E+03   -0.47479E+03  8424   0.316E+05-0.551E+04
CGA:   8     0.273719274538E+04    0.28290E+04   -0.20469E+04  8424   0.274E+06-0.894E+05
CGA:   9     0.616909283682E+04    0.34319E+04   -0.23213E+05  8424   0.650E+05-0.399E+05
CGA:  10     0.465653070288E+04   -0.15126E+04   -0.37662E+04  8424   0.257E+05-0.154E+05
CGA:  11     0.336402766382E+04   -0.12925E+04   -0.84524E+03  8424   0.249E+06-0.246E+06
CGA:  12     0.578702147617E+04    0.24230E+04   -0.18948E+05  8424   0.428E+05-0.302E+05
CGA:  13     0.187533036245E+04   -0.39117E+04   -0.20662E+04  8424   0.138E+06-0.225E+06
CGA:  14     0.517584070508E+04    0.33005E+04   -0.94575E+04  8424   0.272E+05-0.167E+05
CGA:  15     0.175717197856E+04   -0.34187E+04   -0.99614E+03  8424   0.875E+05-0.155E+06
CGA:  16     0.481436780329E+04    0.30572E+04   -0.51776E+04  8424   0.197E+05-0.112E+05
CGA:  17     0.736049398510E+03   -0.40783E+04   -0.55475E+03  8424   0.708E+05-0.130E+06
CGA:  18     0.326029110524E+04    0.25242E+04   -0.38682E+04  8424   0.162E+06-0.674E+05
CGA:  19     0.450167576980E+04    0.12414E+04   -0.94923E+04  8424   0.162E+05-0.123E+05
CGA:  20     0.532801751432E+03   -0.39689E+04   -0.38050E+03  8424   0.426E+05 0.990E+05
CGA:  21     0.113591408700E+04    0.60311E+03   -0.18100E+04  8424   0.124E+06-0.102E+06
CGA:  22     0.378329510001E+04    0.26474E+04   -0.65266E+04  8424   0.159E+06-0.919E+05
CGA:  23     0.447589671942E+04    0.69260E+03   -0.81028E+04  8424   0.163E+05-0.136E+05
CGA:  24    -0.540475839816E+03   -0.50164E+04   -0.41528E+03  8424   0.264E+04-0.116E+05
CGA:  25    -0.621218878881E+03   -0.80743E+02   -0.86711E+02  8424   0.373E+03-0.110E+03
CGA:  26    -0.621188280216E+03    0.30599E-01   -0.13613E+02  8424   0.125E+04-0.529E+03
CGA:  27    -0.627888610312E+03   -0.67003E+01   -0.50221E+02  8424   0.387E+03-0.214E+03
CGA:  28    -0.646383231313E+03   -0.18495E+02   -0.11268E+02  8424   0.803E+02-0.120E+03
CGA:  29    -0.652713590262E+03   -0.63304E+01   -0.62211E+01  8424   0.434E+03 0.465E+01
CGA:  30    -0.658704044686E+03   -0.59905E+01   -0.15972E+02  8424   0.158E+03-0.150E+03
CGA:  31    -0.662036411602E+03   -0.33324E+01   -0.21929E+01  8424   0.674E+02 0.525E+02
CGA:  32    -0.663569909738E+03   -0.15335E+01   -0.34698E+01  8424   0.103E+03-0.269E+01
CGA:  33    -0.669962368828E+03   -0.63925E+01   -0.58529E+01  8424   0.362E+02-0.617E+01
CGA:  34    -0.671198431596E+03   -0.12361E+01   -0.16351E+01  8424   0.906E+01-0.247E-01
CGA:  35    -0.671946860011E+03   -0.74843E+00   -0.72058E+00  8424   0.149E+02-0.240E+01
CGA:  36    -0.672561658008E+03   -0.61480E+00   -0.55846E+00  8424   0.191E+02 0.156E+00
CGA:  37    -0.672976292830E+03   -0.41463E+00   -0.76896E+00  8424   0.292E+02-0.411E+01
CGA:  38    -0.673387284881E+03   -0.41099E+00   -0.58242E+00  8424   0.597E+01-0.843E+01
CGA:  39    -0.673848465065E+03   -0.46118E+00   -0.43621E+00  8424   0.352E+01 0.648E+00
CGA:  40    -0.674201055974E+03   -0.35259E+00   -0.34863E+00  8424   0.129E+01 0.256E+00
CGA:  41    -0.674357944033E+03   -0.15689E+00   -0.14695E+00  8424   0.544E+00 0.261E+00
CGA:  42    -0.674509042547E+03   -0.15110E+00   -0.15380E+00  8424   0.240E+00-0.200E-01
CGA:  43    -0.674563863789E+03   -0.54821E-01   -0.51970E-01  8424   0.141E+00 0.136E-01
CGA:  44    -0.674605190345E+03   -0.41327E-01   -0.47732E-01  8424   0.844E-01-0.275E-01
CGA:  45    -0.674622148400E+03   -0.16958E-01   -0.27572E-01  8424   0.973E-01-0.350E-01
CGA:  46    -0.674629117006E+03   -0.69686E-02   -0.24770E-01  8424   0.846E-01-0.569E-01
CGA:  47    -0.674650380069E+03   -0.21263E-01   -0.20180E-01  8424   0.257E-01 0.107E-01
CGA:  48    -0.674660357731E+03   -0.99777E-02   -0.98734E-02  8424   0.147E-01 0.581E-03
CGA:  49    -0.674664782088E+03   -0.44244E-02   -0.40955E-02  8424   0.768E-02 0.273E-02
CGA:  50    -0.674667958070E+03   -0.31760E-02   -0.29783E-02  8424   0.423E-02 0.116E-02
CGA:  51    -0.674670272861E+03   -0.23148E-02   -0.24170E-02  8424   0.437E-02-0.347E-03
CGA:  52    -0.674672017496E+03   -0.17446E-02   -0.14308E-02  8424   0.359E-02 0.175E-02
CGA:  53    -0.674675027234E+03   -0.30097E-02   -0.24745E-02  8424   0.500E-02 0.169E-02
CGA:  54    -0.674679117226E+03   -0.40900E-02   -0.72607E-02  8424   0.304E-01-0.481E-02
CGA:  55    -0.674684530823E+03   -0.54136E-02   -0.54394E-02  8424   0.742E-02 0.337E-03
CGA:  56    -0.674686759135E+03   -0.22283E-02   -0.22554E-02  8424   0.295E-02-0.468E-03
CGA:  57    -0.674687589717E+03   -0.83058E-03   -0.12657E-02  8424   0.656E-02-0.206E-02
CGA:  58    -0.674688292357E+03   -0.70264E-03   -0.84621E-03  8424   0.104E-02 0.114E-02
CGA:  59    -0.674688494238E+03   -0.20188E-03   -0.23513E-03  8424   0.744E-03 0.574E-03
CGA:  60    -0.674688607714E+03   -0.11348E-03   -0.66583E-03  8424   0.747E-02-0.862E-03
CGA:  61    -0.674689354028E+03   -0.74631E-03   -0.89531E-03  8424   0.578E-03 0.949E-03
CGA:  62    -0.674689440922E+03   -0.86894E-04   -0.11491E-03  8424   0.477E-03 0.294E-03
CGA:  63    -0.674689287308E+03    0.15361E-03   -0.19786E-03  8424   0.130E-01-0.755E-03
CGA:  64    -0.674690657815E+03   -0.13705E-02   -0.16606E-02  8424   0.529E-03 0.854E-03
CGA:  65    -0.674690726861E+03   -0.69046E-04   -0.11566E-03  8424   0.434E-03 0.176E-03
CGA:  66    -0.674691323757E+03   -0.59690E-03   -0.47694E-03  8424   0.106E-02 0.311E-03
CGA:  67    -0.674691693994E+03   -0.37024E-03   -0.31649E-03  8424   0.121E-02-0.306E-03
CGA:  68    -0.674692089213E+03   -0.39522E-03   -0.39114E-03  8424   0.172E-02-0.318E-03
CGA:  69    -0.674692476693E+03   -0.38748E-03   -0.43481E-03  8424   0.197E-02 0.363E-03
CGA:  70    -0.674693855761E+03   -0.13791E-02   -0.13650E-02  8424   0.367E-02 0.360E-04
CGA:  71    -0.674695075458E+03   -0.12197E-02   -0.10822E-02  8424   0.405E-02-0.100E-02
CGA:  72    -0.674683906543E+03    0.11169E-01   -0.59414E-02  8424   0.972E-01-0.111E-01
CGA:  73    -0.674702288735E+03   -0.18382E-01   -0.18528E-01  8424   0.136E-01 0.470E-04
CGA:  74    -0.674705131579E+03   -0.28428E-02   -0.35239E-02  8424   0.195E-02 0.121E-02
CGA:  75    -0.674705567534E+03   -0.43595E-03   -0.66527E-03  8424   0.126E-02 0.472E-03
CGA:  76    -0.674705831784E+03   -0.26425E-03   -0.55219E-03  8424   0.885E-03 0.707E-03
CGA:  77    -0.674705892702E+03   -0.60918E-04   -0.22356E-03  8424   0.658E-03 0.339E-03
CGA:  78    -0.674706047804E+03   -0.15510E-03   -0.32294E-03  8424   0.552E-03 0.470E-03
CGA:  79    -0.674706162645E+03   -0.11484E-03   -0.18142E-03  8424   0.557E-03 0.183E-03
CGA:  80    -0.674706258609E+03   -0.95964E-04   -0.25095E-03  8424   0.497E-03 0.457E-03
CGA:  81    -0.674706282892E+03   -0.24283E-04   -0.11218E-03  8424   0.349E-03 0.204E-03
CGA:  82    -0.674706361895E+03   -0.79002E-04   -0.17089E-03  8424   0.387E-03 0.316E-03
CGA:  83    -0.674706478571E+03   -0.11668E-03   -0.14383E-03  8424   0.341E-03 0.109E-03
CGA:  84    -0.674706577630E+03   -0.99059E-04   -0.17268E-03  8424   0.352E-03 0.343E-03
CGA:  85    -0.674706616008E+03   -0.38379E-04   -0.88773E-04  8424   0.250E-03 0.146E-03
CGA:  86    -0.674706690219E+03   -0.74211E-04   -0.12500E-03  8424   0.296E-03 0.222E-03
CGA:  87    -0.674706761319E+03   -0.71100E-04   -0.96646E-04  8424   0.234E-03 0.105E-03
CGA:  88    -0.674706875496E+03   -0.11418E-03   -0.13793E-03  8424   0.359E-03 0.195E-03
CGA:  89    -0.674706904279E+03   -0.28783E-04   -0.69480E-04  8424   0.202E-03 0.114E-03
CGA:  90    -0.674706957004E+03   -0.52725E-04   -0.85659E-04  8424   0.216E-03 0.155E-03
CGA:  91    -0.674707052679E+03   -0.95675E-04   -0.99327E-04  8424   0.230E-03 0.592E-04
CGA:  92    -0.674707131507E+03   -0.78828E-04   -0.11029E-03  8424   0.261E-03 0.220E-03
CGA:  93    -0.674707198132E+03   -0.66625E-04   -0.75385E-04  8424   0.236E-03 0.388E-04
CGA:  94    -0.674707237712E+03   -0.39579E-04   -0.75052E-04  8424   0.191E-03 0.157E-03
CGA:  95    -0.674707326111E+03   -0.88399E-04   -0.89364E-04  8424   0.167E-03 0.460E-04
CGA:  96    -0.674707449749E+03   -0.12364E-03   -0.11251E-03  8424   0.170E-03 0.187E-03
CGA:  97    -0.674707512958E+03   -0.63209E-04   -0.68726E-04  8424   0.136E-03 0.630E-04
CGA:  98    -0.674707567071E+03   -0.54114E-04   -0.69232E-04  8424   0.175E-03 0.130E-03
CGA:  99    -0.674707653173E+03   -0.86101E-04   -0.86848E-04  8424   0.452E-03-0.442E-04
CGA: 100    -0.674707740752E+03   -0.87580E-04   -0.10666E-03  8424   0.499E-03 0.108E-03
CGA: 101    -0.674707867379E+03   -0.12663E-03   -0.17080E-03  8424   0.720E-03 0.211E-03
CGA: 102    -0.674708294177E+03   -0.42680E-03   -0.43814E-03  8424   0.531E-03 0.271E-03
CGA: 103    -0.674708673632E+03   -0.37946E-03   -0.37880E-03  8424   0.195E-02-0.308E-04
CGA: 104    -0.674709500014E+03   -0.82638E-03   -0.82759E-03  8424   0.443E-02-0.402E-03
CGA: 105    -0.674710518713E+03   -0.10187E-02   -0.75937E-03  8424   0.631E-02-0.182E-02
CGA: 106    -0.674697116713E+03    0.13402E-01   -0.41902E-02  8424   0.122E+00-0.401E-01
CGA: 107    -0.674713831927E+03   -0.16715E-01   -0.16814E-01  8424   0.916E-02 0.566E-04
CGA: 108    -0.674717239375E+03   -0.34074E-02   -0.35904E-02  8424   0.480E-02 0.253E-02
CGA: 109    -0.674720126203E+03   -0.28868E-02   -0.28709E-02  8424   0.341E-02 0.309E-02
CGA: 110    -0.674721084483E+03   -0.95828E-03   -0.10493E-02  8424   0.326E-02 0.588E-03
CGA: 111    -0.674722422323E+03   -0.13378E-02   -0.14552E-02  8424   0.241E-02 0.158E-02
CGA: 112    -0.674724366874E+03   -0.19446E-02   -0.18295E-02  8424   0.235E-02 0.190E-02
CGA: 113    -0.674724840491E+03   -0.47362E-03   -0.53040E-03  8424   0.131E-02 0.236E-03
CGA: 114    -0.674725672934E+03   -0.83244E-03   -0.77627E-03  8424   0.178E-02 0.576E-03
CGA: 115    -0.674727532833E+03   -0.18599E-02   -0.18026E-02  8424   0.606E-02 0.151E-03
CGA: 116    -0.674731465953E+03   -0.39331E-02   -0.38266E-02  8424   0.604E-02 0.427E-04
CGA: 117    -0.674732772449E+03   -0.13065E-02   -0.12959E-02  8424   0.257E-02-0.469E-03
CGA: 118    -0.674733750624E+03   -0.97818E-03   -0.91476E-03  8424   0.311E-02-0.109E-02
CGA: 119    -0.674734303578E+03   -0.55295E-03   -0.11515E-02  8424   0.844E-02-0.344E-02
CGA: 120    -0.674735800593E+03   -0.14970E-02   -0.16552E-02  8424   0.213E-02 0.594E-03
CGA: 121    -0.674736485224E+03   -0.68463E-03   -0.73212E-03  8424   0.101E-02 0.365E-03
CGA: 122    -0.674737064718E+03   -0.57949E-03   -0.58997E-03  8424   0.211E-02-0.203E-03
CGA: 123    -0.674737701316E+03   -0.63660E-03   -0.64251E-03  8424   0.222E-02-0.280E-04
CGA: 124    -0.674738602972E+03   -0.90166E-03   -0.88816E-03  8424   0.387E-02-0.562E-03
CGA: 125    -0.674739809641E+03   -0.12067E-02   -0.14425E-02  8424   0.542E-02-0.462E-02
CGA: 126    -0.674740928323E+03   -0.11187E-02   -0.10884E-02  8424   0.148E-02-0.115E-03
CGA: 127    -0.674741362084E+03   -0.43376E-03   -0.41226E-03  8424   0.962E-03-0.156E-03
CGA: 128    -0.674741701872E+03   -0.33979E-03   -0.34303E-03  8424   0.495E-03 0.128E-03
CGA: 129    -0.674740851177E+03    0.85069E-03   -0.10457E-02  8424   0.973E-02-0.135E-02
CGA: 130    -0.674742324440E+03   -0.14733E-02   -0.17177E-02  8424   0.697E-03 0.785E-03
CGA: 131    -0.674742483808E+03   -0.15937E-03   -0.18639E-03  8424   0.181E-03 0.117E-03
CGA: 132    -0.674742540662E+03   -0.56855E-04   -0.68611E-04  8424   0.121E-03 0.821E-04
CGA: 133    -0.674742541226E+03   -0.56314E-06   -0.31515E-04  8424   0.632E-04 0.111E-03
CGA: 134    -0.674742545402E+03   -0.41765E-05   -0.14034E-04  8424   0.396E-04 0.441E-04
   1 F= -.67474255E+03 E0= -.67474255E+03  d E =-.674743E+03  mag=     5.0000
       N       E                     dE             d eps       ncg     rms          ort
SDA:   1    -0.674750778227E+03   -0.82370E-02    0.00000E+00  8424   0.116E-01 0.000E+00
CGA:   2    -0.674752962038E+03   -0.21838E-02   -0.19682E-02  8424   0.555E-02-0.402E-03
CGA:   3    -0.674754074267E+03   -0.11122E-02   -0.11055E-02  8424   0.142E-02-0.149E-04
CGA:   4    -0.674754289069E+03   -0.21480E-03   -0.24737E-03  8424   0.326E-03 0.580E-04
CGA:   5    -0.674754377550E+03   -0.88480E-04   -0.70613E-04  8424   0.121E-03-0.361E-04
CGA:   6    -0.674754417526E+03   -0.39976E-04   -0.25772E-04  8424   0.751E-04-0.324E-04
CGA:   7    -0.674754492120E+03   -0.74594E-04    0.59481E-03  8424   0.264E-03-0.660E-04
CGA:   8    -0.674754545695E+03   -0.53575E-04   -0.44086E-04  8424   0.661E-04-0.194E-04
CGA:   9    -0.674754583371E+03   -0.37677E-04   -0.30804E-04  8424   0.165E-03-0.530E-04
CGA:  10    -0.674754613321E+03   -0.29950E-04   -0.24538E-04  8424   0.379E-04-0.112E-04
CGA:  11    -0.674754691202E+03   -0.77881E-04    0.12838E-04  8424   0.173E-03-0.438E-04
CGA:  12    -0.674754702485E+03   -0.11283E-04   -0.20894E-04  8424   0.292E-04 0.201E-04
CGA:  13    -0.674754400285E+03    0.30220E-03   -0.76284E-04  8424   0.194E-02-0.215E-03
CGA:  14    -0.674754915646E+03   -0.51536E-03   -0.47950E-03  8424   0.204E-03-0.865E-04
CGA:  15    -0.674754971842E+03   -0.56196E-04   -0.37027E-04  8424   0.663E-04-0.422E-04
CGA:  16    -0.674755005410E+03   -0.33568E-04   -0.21796E-04  8424   0.135E-03-0.563E-04
CGA:  17    -0.674755055360E+03   -0.49950E-04   -0.26053E-04  8424   0.715E-04-0.571E-04
CGA:  18    -0.674755075231E+03   -0.19871E-04   -0.14947E-04  8424   0.579E-04-0.216E-04
CGA:  19    -0.674755165649E+03   -0.90418E-04    0.12590E-04  8424   0.577E-04-0.826E-05
CGA:  20    -0.674755367407E+03   -0.20176E-03    0.57006E-05  8424   0.522E-04 0.343E-05
CGA:  21    -0.674755501371E+03   -0.13396E-03    0.14749E-04  8424   0.119E-03-0.191E-04
CGA:  22    -0.674755931366E+03   -0.42999E-03    0.56306E-05  8424   0.252E-03-0.135E-04
CGA:  23    -0.674757046557E+03   -0.11152E-02    0.19660E-04  8424   0.567E-03-0.124E-03
CGA:  24    -0.674759180278E+03   -0.21337E-02    0.15526E-04  8424   0.593E-03-0.390E-03
CGA:  25    -0.674759312311E+03   -0.13203E-03   -0.12761E-03  8424   0.699E-04-0.127E-04
CGA:  26    -0.674759314416E+03   -0.21044E-05   -0.11102E-04  8424   0.151E-04 0.224E-04
   2 F= -.67475931E+03 E0= -.67475931E+03  d E =-.167690E-01  mag=     5.0000
       N       E                     dE             d eps       ncg     rms          ort
SDA:   1    -0.673578765465E+03    0.11805E+01    0.00000E+00  8424   0.367E+01 0.000E+00
CGA:   2    -0.674618740690E+03   -0.10400E+01   -0.10399E+01  8424   0.154E+01 0.346E-03
CGA:   3    -0.674902016109E+03   -0.28328E+00   -0.28345E+00  8424   0.413E+00-0.139E-02
CGA:   4    -0.674974141748E+03   -0.72126E-01   -0.72463E-01  8424   0.991E-01 0.603E-03
CGA:   5    -0.674990621919E+03   -0.16480E-01   -0.16553E-01  8424   0.208E-01 0.228E-03
CGA:   6    -0.674994738786E+03   -0.41169E-02   -0.41493E-02  8424   0.519E-02 0.120E-03
CGA:   7    -0.674995837181E+03   -0.10984E-02   -0.11691E-02  8424   0.192E-02 0.313E-03
CGA:   8    -0.674996252371E+03   -0.41519E-03   -0.46810E-03  8424   0.665E-03 0.252E-03
CGA:   9    -0.674996325401E+03   -0.73030E-04   -0.14048E-03  8424   0.238E-03 0.280E-03
CGA:  10    -0.674996319855E+03    0.55459E-05   -0.48106E-04  8424   0.124E-03 0.196E-03
CGA:  11    -0.674996310518E+03    0.93371E-05   -0.15870E-04  8424   0.774E-04 0.918E-04
   3 F= -.67499631E+03 E0= -.67499631E+03  d E =-.236996E+00  mag=     5.0000
       N       E                     dE             d eps       ncg     rms          ort
SDA:   1    -0.640735320287E+03    0.34261E+02    0.00000E+00  8424   0.905E+02 0.000E+00
CGA:   2    -0.666474174959E+03   -0.25739E+02   -0.25769E+02  8424   0.375E+02 0.154E+00
CGA:   3    -0.672873277246E+03   -0.63991E+01   -0.65629E+01  8424   0.108E+02-0.305E+00
CGA:   4    -0.674886886190E+03   -0.20136E+01   -0.20135E+01  8424   0.237E+01 0.172E-01
CGA:   5    -0.675290921410E+03   -0.40404E+00   -0.40379E+00  8424   0.612E+00 0.276E-02
CGA:   6    -0.675409293723E+03   -0.11837E+00   -0.11902E+00  8424   0.174E+00 0.288E-02
CGA:   7    -0.675455805222E+03   -0.46511E-01   -0.46619E-01  8424   0.767E-01 0.125E-02
CGA:   8    -0.675476385750E+03   -0.20581E-01   -0.20669E-01  8424   0.305E-01 0.145E-02
CGA:   9    -0.675484296057E+03   -0.79103E-02   -0.80677E-02  8424   0.108E-01 0.233E-02
CGA:  10    -0.675487496728E+03   -0.32007E-02   -0.32588E-02  8424   0.361E-02 0.130E-02
CGA:  11    -0.675488369996E+03   -0.87327E-03   -0.94538E-03  8424   0.115E-02 0.824E-03
CGA:  12    -0.675488593141E+03   -0.22315E-03   -0.29150E-03  8424   0.516E-03 0.616E-03
CGA:  13    -0.675488662490E+03   -0.69349E-04   -0.10561E-03  8424   0.308E-03 0.337E-03
CGA:  14    -0.675488681311E+03   -0.18821E-04   -0.54809E-04  8424   0.259E-03 0.278E-03
CGA:  15    -0.675488690278E+03   -0.89669E-05   -0.42426E-04  8424   0.232E-03 0.244E-03
CGA:  16    -0.675488693367E+03   -0.30891E-05   -0.34857E-04  8424   0.212E-03 0.222E-03
CGA:  17    -0.675488693829E+03   -0.46255E-06   -0.30083E-04  8424   0.197E-03 0.204E-03
CGA:  18    -0.675488692474E+03    0.13552E-05   -0.26375E-04  8424   0.184E-03 0.191E-03
CGA:  19    -0.675488689967E+03    0.25070E-05   -0.23454E-04  8424   0.174E-03 0.179E-03
CGA:  20    -0.675488686686E+03    0.32808E-05   -0.21057E-04  8424   0.165E-03 0.169E-03
CGA:  21    -0.675488682890E+03    0.37959E-05   -0.19048E-04  8424   0.157E-03 0.161E-03
CGA:  22    -0.675488678757E+03    0.41333E-05   -0.17338E-04  8424   0.150E-03 0.153E-03
CGA:  23    -0.675488674413E+03    0.43440E-05   -0.15863E-04  8424   0.144E-03 0.147E-03
CGA:  24    -0.675488669949E+03    0.44645E-05   -0.14579E-04  8424   0.138E-03 0.141E-03
CGA:  25    -0.675488665417E+03    0.45313E-05   -0.13452E-04  8424   0.133E-03 0.136E-03
CGA:  26    -0.675488660855E+03    0.45626E-05   -0.12455E-04  8424   0.129E-03 0.131E-03
CGA:  27    -0.675488656291E+03    0.45634E-05   -0.11567E-04  8424   0.125E-03 0.127E-03
CGA:  28    -0.675488651754E+03    0.45375E-05   -0.10770E-04  8424   0.121E-03 0.123E-03
CGA:  29    -0.675488647263E+03    0.44912E-05   -0.10053E-04  8424   0.118E-03 0.120E-03
   4 F= -.67548865E+03 E0= -.67548865E+03  d E =-.492337E+00  mag=     5.0000
       N       E                     dE             d eps       ncg     rms          ort
SDA:   1    -0.672105282955E+03    0.33834E+01    0.00000E+00  8424   0.117E+02 0.000E+00
CGA:   2    -0.674309847524E+03   -0.22046E+01   -0.22047E+01  8424   0.425E+01 0.342E-01
CGA:   3    -0.675229403618E+03   -0.91956E+00   -0.91985E+00  8424   0.149E+01-0.103E-01
CGA:   4    -0.675483632547E+03   -0.25423E+00   -0.25425E+00  8424   0.395E+00 0.321E-03
CGA:   5    -0.675549808213E+03   -0.66176E-01   -0.66201E-01  8424   0.787E-01 0.838E-03
CGA:   6    -0.675565813844E+03   -0.16006E-01   -0.16018E-01  8424   0.176E-01-0.103E-02
CGA:   7    -0.675569614038E+03   -0.38002E-02   -0.37907E-02  8424   0.524E-02 0.353E-03
CGA:   8    -0.675570908270E+03   -0.12942E-02   -0.12924E-02  8424   0.146E-02 0.367E-04
CGA:   9    -0.675571330831E+03   -0.42256E-03   -0.43614E-03  8424   0.577E-03-0.135E-03
CGA:  10    -0.675571482003E+03   -0.15117E-03   -0.14953E-03  8424   0.236E-03 0.186E-04
CGA:  11    -0.675571566232E+03   -0.84228E-04   -0.13137E-03  8424   0.328E-03-0.142E-03
CGA:  12    -0.675571609926E+03   -0.43694E-04   -0.50331E-04  8424   0.676E-04 0.974E-04
CGA:  13    -0.675571632556E+03   -0.22630E-04   -0.21984E-04  8424   0.442E-04 0.194E-04
CGA:  14    -0.675571651608E+03   -0.19052E-04   -0.16930E-04  8424   0.505E-04 0.267E-04
CGA:  15    -0.675571655392E+03   -0.37839E-05   -0.68842E-05  8424   0.299E-04 0.355E-04
   5 F= -.67557166E+03 E0= -.67557166E+03  d E =-.830081E-01  mag=     5.0000
       N       E                     dE             d eps       ncg     rms          ort
SDA:   1    -0.675490974318E+03    0.80677E-01    0.00000E+00  8424   0.220E+00 0.000E+00
CGA:   2    -0.675550816077E+03   -0.59842E-01   -0.59830E-01  8424   0.104E+00 0.216E-03
CGA:   3    -0.675570371343E+03   -0.19555E-01   -0.19550E-01  8424   0.248E-01-0.169E-03
CGA:   4    -0.675574497988E+03   -0.41266E-02   -0.41300E-02  8424   0.623E-02 0.575E-04
CGA:   5    -0.675575557777E+03   -0.10598E-02   -0.10619E-02  8424   0.129E-02 0.407E-04
CGA:   6    -0.675575836707E+03   -0.27893E-03   -0.27889E-03  8424   0.347E-03-0.147E-04
CGA:   7    -0.675575903272E+03   -0.66565E-04   -0.67731E-04  8424   0.111E-03 0.605E-04
CGA:   8    -0.675575923863E+03   -0.20591E-04   -0.22958E-04  8424   0.512E-04 0.597E-04
CGA:   9    -0.675575932824E+03   -0.89612E-05   -0.96905E-05  8424   0.301E-04 0.301E-04
   6 F= -.67557593E+03 E0= -.67557593E+03  d E =-.427743E-02  mag=     5.0000
       N       E                     dE             d eps       ncg     rms          ort
SDA:   1    -0.673750840776E+03    0.18251E+01    0.00000E+00  8424   0.465E+01 0.000E+00
CGA:   2    -0.675055226164E+03   -0.13044E+01   -0.13046E+01  8424   0.218E+01-0.254E-02
CGA:   3    -0.675460809015E+03   -0.40558E+00   -0.40561E+00  8424   0.494E+00 0.455E-03
CGA:   4    -0.675543264593E+03   -0.82456E-01   -0.82473E-01  8424   0.129E+00 0.360E-03
CGA:   5    -0.675565408104E+03   -0.22144E-01   -0.22149E-01  8424   0.262E-01 0.123E-03
CGA:   6    -0.675570894101E+03   -0.54860E-02   -0.54863E-02  8424   0.680E-02-0.125E-03
CGA:   7    -0.675572425936E+03   -0.15318E-02   -0.15312E-02  8424   0.226E-02 0.287E-04
CGA:   8    -0.675573005918E+03   -0.57998E-03   -0.57198E-03  8424   0.750E-03 0.178E-03
CGA:   9    -0.675573231588E+03   -0.22567E-03   -0.22011E-03  8424   0.316E-03 0.891E-04
CGA:  10    -0.675573325670E+03   -0.94081E-04   -0.89897E-04  8424   0.129E-03 0.102E-03
CGA:  11    -0.675573364662E+03   -0.38992E-04   -0.38269E-04  8424   0.599E-04 0.744E-04
CGA:  12    -0.675573387091E+03   -0.22429E-04   -0.19781E-04  8424   0.406E-04 0.230E-04
CGA:  13    -0.675573398427E+03   -0.11336E-04   -0.11819E-04  8424   0.288E-04 0.441E-04
CGA:  14    -0.675573406094E+03   -0.76669E-05   -0.70984E-05  8424   0.221E-04 0.221E-04
   7 F= -.67557341E+03 E0= -.67557341E+03  d E =0.252673E-02  mag=     5.0000
       N       E                     dE             d eps       ncg     rms          ort
SDA:   1    -0.675390767222E+03    0.18263E+00    0.00000E+00  8424   0.549E+00 0.000E+00
CGA:   2    -0.675513499039E+03   -0.12273E+00   -0.12273E+00  8424   0.238E+00 0.115E-03
CGA:   3    -0.675562010492E+03   -0.48511E-01   -0.48520E-01  8424   0.702E-01 0.302E-03
CGA:   4    -0.675573771138E+03   -0.11761E-01   -0.11771E-01  8424   0.171E-01 0.149E-03
CGA:   5    -0.675576649889E+03   -0.28788E-02   -0.28861E-02  8424   0.333E-02 0.123E-03
CGA:   6    -0.675577330874E+03   -0.68099E-03   -0.68248E-03  8424   0.764E-03 0.753E-04
CGA:   7    -0.675577512015E+03   -0.18114E-03   -0.18089E-03  8424   0.249E-03 0.270E-04
CGA:   8    -0.675577571755E+03   -0.59740E-04   -0.59455E-04  8424   0.802E-04 0.350E-04
CGA:   9    -0.675577591558E+03   -0.19803E-04   -0.19960E-04  8424   0.346E-04 0.323E-04
CGA:  10    -0.675577597410E+03   -0.58520E-05   -0.77722E-05  8424   0.225E-04 0.304E-04
   8 F= -.67557760E+03 E0= -.67557760E+03  d E =-.419132E-02  mag=     5.0000
       N       E                     dE             d eps       ncg     rms          ort
SDA:   1    -0.675514357079E+03    0.63234E-01    0.00000E+00  8424   0.178E+00 0.000E+00
CGA:   2    -0.675562714594E+03   -0.48358E-01   -0.48372E-01  8424   0.826E-01-0.275E-03
CGA:   3    -0.675577949437E+03   -0.15235E-01   -0.15243E-01  8424   0.201E-01 0.231E-03
CGA:   4    -0.675581337667E+03   -0.33882E-02   -0.33956E-02  8424   0.499E-02 0.150E-03
CGA:   5    -0.675582181704E+03   -0.84404E-03   -0.84751E-03  8424   0.101E-02 0.750E-04
CGA:   6    -0.675582389341E+03   -0.20764E-03   -0.20802E-03  8424   0.242E-03 0.420E-04
CGA:   7    -0.675582447623E+03   -0.58282E-04   -0.57869E-04  8424   0.888E-04 0.231E-04
CGA:   8    -0.675582464914E+03   -0.17292E-04   -0.18236E-04  8424   0.363E-04 0.377E-04
CGA:   9    -0.675582469265E+03   -0.43506E-05   -0.69144E-05  8424   0.233E-04 0.330E-04
   9 F= -.67558247E+03 E0= -.67558247E+03  d E =-.487186E-02  mag=     5.0000
       N       E                     dE             d eps       ncg     rms          ort
SDA:   1    -0.675446444323E+03    0.13602E+00    0.00000E+00  8424   0.349E+00 0.000E+00
CGA:   2    -0.675548907773E+03   -0.10246E+00   -0.10248E+00  8424   0.168E+00-0.239E-03
CGA:   3    -0.675579155022E+03   -0.30247E-01   -0.30257E-01  8424   0.363E-01 0.325E-03
CGA:   4    -0.675585229696E+03   -0.60747E-02   -0.60843E-02  8424   0.921E-02 0.239E-03
CGA:   5    -0.675586804925E+03   -0.15752E-02   -0.15786E-02  8424   0.186E-02 0.976E-04
CGA:   6    -0.675587203128E+03   -0.39820E-03   -0.39796E-03  8424   0.470E-03 0.269E-04
CGA:   7    -0.675587302727E+03   -0.99599E-04   -0.99306E-04  8424   0.149E-03 0.545E-04
CGA:   8    -0.675587332830E+03   -0.30104E-04   -0.31125E-04  8424   0.580E-04 0.639E-04
CGA:   9    -0.675587341705E+03   -0.88745E-05   -0.11806E-04  8424   0.346E-04 0.487E-04
  10 F= -.67558734E+03 E0= -.67558734E+03  d E =-.487244E-02  mag=     5.0000
       N       E                     dE             d eps       ncg     rms          ort
SDA:   1    -0.675424762524E+03    0.16257E+00    0.00000E+00  8424   0.429E+00 0.000E+00
CGA:   2    -0.675537223152E+03   -0.11246E+00   -0.11245E+00  8424   0.217E+00 0.864E-04
CGA:   3    -0.675579117934E+03   -0.41895E-01   -0.41895E-01  8424   0.497E-01 0.193E-04
CGA:   4    -0.675587027173E+03   -0.79092E-02   -0.79200E-02  8424   0.117E-01 0.263E-03
CGA:   5    -0.675589066755E+03   -0.20396E-02   -0.20415E-02  8424   0.241E-02 0.799E-04
CGA:   6    -0.675589595811E+03   -0.52906E-03   -0.53049E-03  8424   0.639E-03-0.636E-04
CGA:   7    -0.675589718843E+03   -0.12303E-03   -0.12297E-03  8424   0.173E-03 0.668E-04
CGA:   8    -0.675589754117E+03   -0.35274E-04   -0.35894E-04  8424   0.631E-04 0.680E-04
CGA:   9    -0.675589765186E+03   -0.11069E-04   -0.13234E-04  8424   0.344E-04 0.470E-04
CGA:  10    -0.675589767878E+03   -0.26918E-05   -0.44476E-05  8424   0.241E-04 0.271E-04
  11 F= -.67558977E+03 E0= -.67558977E+03  d E =-.242617E-02  mag=     5.0000
       N       E                     dE             d eps       ncg     rms          ort
SDA:   1    -0.675217892897E+03    0.37187E+00    0.00000E+00  8424   0.941E+00 0.000E+00
CGA:   2    -0.675487353050E+03   -0.26946E+00   -0.26946E+00  8424   0.470E+00-0.843E-04
CGA:   3    -0.675571793600E+03   -0.84441E-01   -0.84446E-01  8424   0.101E+00 0.397E-03
CGA:   4    -0.675588477307E+03   -0.16684E-01   -0.16687E-01  8424   0.251E-01 0.101E-03
CGA:   5    -0.675592828874E+03   -0.43516E-02   -0.43507E-02  8424   0.526E-02-0.594E-04
CGA:   6    -0.675593929757E+03   -0.11009E-02   -0.11020E-02  8424   0.127E-02-0.522E-04
CGA:   7    -0.675594201860E+03   -0.27210E-03   -0.27056E-03  8424   0.385E-03 0.617E-04
CGA:   8    -0.675594299832E+03   -0.97972E-04   -0.95590E-04  8424   0.128E-03 0.516E-04
CGA:   9    -0.675594341133E+03   -0.41301E-04   -0.39213E-04  8424   0.600E-04 0.272E-04
CGA:  10    -0.675594360811E+03   -0.19678E-04   -0.18150E-04  8424   0.323E-04 0.288E-04
CGA:  11    -0.675594370125E+03   -0.93142E-05   -0.93984E-05  8424   0.199E-04 0.283E-04
  12 F= -.67559437E+03 E0= -.67559437E+03  d E =-.460225E-02  mag=     5.0000
       N       E                     dE             d eps       ncg     rms          ort
SDA:   1    -0.675473303738E+03    0.12106E+00    0.00000E+00  8424   0.339E+00 0.000E+00
CGA:   2    -0.675555929672E+03   -0.82626E-01   -0.82626E-01  8424   0.168E+00-0.592E-04
CGA:   3    -0.675588856122E+03   -0.32926E-01   -0.32928E-01  8424   0.426E-01 0.262E-03
CGA:   4    -0.675595753560E+03   -0.68974E-02   -0.69007E-02  8424   0.100E-01 0.782E-04
CGA:   5    -0.675597494370E+03   -0.17408E-02   -0.17399E-02  8424   0.210E-02-0.380E-04
CGA:   6    -0.675597939052E+03   -0.44468E-03   -0.44563E-03  8424   0.507E-03-0.598E-04
CGA:   7    -0.675598053193E+03   -0.11414E-03   -0.11436E-03  8424   0.168E-03-0.647E-05
CGA:   8    -0.675598098940E+03   -0.45748E-04   -0.46750E-04  8424   0.736E-04-0.124E-04
CGA:   9    -0.675598117236E+03   -0.18296E-04   -0.39788E-04  8424   0.156E-03-0.570E-04
CGA:  10    -0.675598151849E+03   -0.34612E-04   -0.34618E-04  8424   0.445E-04-0.224E-04
CGA:  11    -0.675598057293E+03    0.94556E-04   -0.52108E-04  8424   0.848E-03-0.128E-03
CGA:  12    -0.675598210262E+03   -0.15297E-03   -0.15001E-03  8424   0.893E-04-0.131E-04
CGA:  13    -0.675598239271E+03   -0.29009E-04   -0.28698E-04  8424   0.295E-04-0.473E-05
CGA:  14    -0.675597781687E+03    0.45758E-03   -0.24855E-03  8424   0.447E-02-0.252E-03
CGA:  15    -0.675598299457E+03   -0.51777E-03   -0.54582E-03  8424   0.207E-03 0.555E-04
CGA:  16    -0.675598383555E+03   -0.84098E-04   -0.75389E-04  8424   0.749E-04-0.271E-04
CGA:  17    -0.675598401691E+03   -0.18137E-04   -0.17990E-04  8424   0.248E-04-0.529E-06
CGA:  18    -0.675597242481E+03    0.11592E-02   -0.63745E-03  8424   0.946E-02-0.361E-03
CGA:  19    -0.675598426001E+03   -0.11835E-02   -0.12815E-02  8424   0.796E-03 0.113E-03
CGA:  20    -0.675598644710E+03   -0.21871E-03   -0.19168E-03  8424   0.708E-04-0.304E-04
CGA:  21    -0.675598666836E+03   -0.22126E-04   -0.22703E-04  8424   0.502E-04 0.674E-06
CGA:  22    -0.675598706950E+03   -0.40114E-04   -0.19835E-04  8424   0.671E-04-0.312E-04
CGA:  23    -0.675598713027E+03   -0.60769E-05   -0.94694E-05  8424   0.148E-04 0.390E-05
CGA:  24    -0.675598756370E+03   -0.43343E-04    0.17710E-04  8424   0.621E-04-0.138E-04
CGA:  25    -0.675598771901E+03   -0.15531E-04   -0.16385E-04  8424   0.169E-04 0.111E-05
CGA:  26    -0.675598811726E+03   -0.39825E-04    0.33716E-04  8424   0.275E-03-0.410E-04
CGA:  27    -0.675598827147E+03   -0.15421E-04   -0.32130E-04  8424   0.219E-04 0.207E-04
CGA:  28    -0.675598847161E+03   -0.20015E-04   -0.15307E-04  8424   0.543E-04-0.194E-04
CGA:  29    -0.675598880069E+03   -0.32907E-04   -0.16716E-04  8424   0.593E-04-0.283E-04
CGA:  30    -0.675598881414E+03   -0.13457E-05   -0.67110E-05  8424   0.609E-05 0.723E-05
  13 F= -.67559888E+03 E0= -.67559888E+03  d E =-.451129E-02  mag=     5.0000
       N       E                     dE             d eps       ncg     rms          ort
SDA:   1    -0.675550681054E+03    0.48199E-01    0.00000E+00  8424   0.130E+00 0.000E+00
CGA:   2    -0.675583951278E+03   -0.33270E-01   -0.33294E-01  8424   0.645E-01 0.570E-04
CGA:   3    -0.675596584192E+03   -0.12633E-01   -0.12593E-01  8424   0.152E-01-0.875E-04
CGA:   4    -0.675599023786E+03   -0.24396E-02   -0.24339E-02  8424   0.368E-02-0.134E-04
CGA:   5    -0.675599669954E+03   -0.64617E-03   -0.64389E-03  8424   0.772E-03-0.497E-05
CGA:   6    -0.675599835538E+03   -0.16558E-03   -0.16163E-03  8424   0.200E-03-0.826E-05
CGA:   7    -0.675599889732E+03   -0.54194E-04   -0.47659E-04  8424   0.755E-04-0.151E-04
CGA:   8    -0.675599933766E+03   -0.44034E-04   -0.35213E-04  8424   0.137E-03-0.591E-04
CGA:   9    -0.675599958450E+03   -0.24684E-04   -0.23267E-04  8424   0.250E-04-0.303E-05
CGA:  10    -0.675599997056E+03   -0.38606E-04    0.28325E-04  8424   0.593E-04-0.192E-04
CGA:  11    -0.675600012580E+03   -0.15523E-04   -0.12673E-04  8424   0.171E-04-0.701E-05
CGA:  12    -0.675600060221E+03   -0.47641E-04    0.27997E-05  8424   0.390E-04-0.875E-05
CGA:  13    -0.675600064614E+03   -0.43931E-05   -0.65309E-05  8424   0.103E-04 0.489E-05
  14 F= -.67560006E+03 E0= -.67560006E+03  d E =-.118320E-02  mag=     5.0000
       N       E                     dE             d eps       ncg     rms          ort
SDA:   1    -0.675559488611E+03    0.40572E-01    0.00000E+00  8424   0.104E+00 0.000E+00
CGA:   2    -0.675587360816E+03   -0.27872E-01   -0.27825E-01  8424   0.538E-01-0.164E-03
CGA:   3    -0.675597313301E+03   -0.99525E-02   -0.99792E-02  8424   0.122E-01 0.624E-04
CGA:   4    -0.675599297005E+03   -0.19837E-02   -0.19865E-02  8424   0.298E-02 0.521E-05
CGA:   5    -0.675599814519E+03   -0.51751E-03   -0.51149E-03  8424   0.634E-03-0.175E-04
CGA:   6    -0.675599957298E+03   -0.14278E-03   -0.13522E-03  8424   0.168E-03-0.258E-04
CGA:   7    -0.675600014393E+03   -0.57095E-04   -0.47001E-04  8424   0.106E-03-0.499E-04
CGA:   8    -0.675600047643E+03   -0.33250E-04   -0.41475E-04  8424   0.282E-03-0.113E-03
CGA:   9    -0.675600107103E+03   -0.59460E-04   -0.49937E-04  8424   0.626E-04-0.306E-04
CGA:  10    -0.675600070269E+03    0.36834E-04   -0.61998E-04  8424   0.699E-03-0.155E-03
CGA:  11    -0.675600208838E+03   -0.13857E-03   -0.12507E-03  8424   0.102E-03-0.415E-04
CGA:  12    -0.675600243661E+03   -0.34822E-04   -0.31938E-04  8424   0.324E-04-0.187E-04
CGA:  13    -0.675600298780E+03   -0.55120E-04    0.54302E-05  8424   0.106E-03-0.287E-04
CGA:  14    -0.675600304426E+03   -0.56458E-05   -0.11295E-04  8424   0.102E-04 0.152E-04
  15 F= -.67560030E+03 E0= -.67560030E+03  d E =-.239812E-03  mag=     5.0000
       N       E                     dE             d eps       ncg     rms          ort
SDA:   1    -0.675578938837E+03    0.21360E-01    0.00000E+00  8424   0.532E-01 0.000E+00
CGA:   2    -0.675593193726E+03   -0.14255E-01   -0.14277E-01  8424   0.283E-01 0.108E-03
CGA:   3    -0.675598556649E+03   -0.53629E-02   -0.53377E-02  8424   0.624E-02-0.973E-04
CGA:   4    -0.675599542406E+03   -0.98576E-03   -0.99480E-03  8424   0.144E-02 0.312E-04
CGA:   5    -0.675599799436E+03   -0.25703E-03   -0.25278E-03  8424   0.325E-03-0.173E-04
CGA:   6    -0.675599895438E+03   -0.96003E-04   -0.83594E-04  8424   0.145E-03-0.817E-04
CGA:   7    -0.675599931649E+03   -0.36211E-04   -0.30204E-04  8424   0.875E-04-0.475E-04
CGA:   8    -0.675599998078E+03   -0.66430E-04    0.28110E-04  8424   0.792E-04-0.329E-04
CGA:   9    -0.675600078346E+03   -0.80268E-04    0.94913E-05  8424   0.641E-04-0.167E-04
CGA:  10    -0.675600184896E+03   -0.10655E-03    0.61470E-05  8424   0.447E-04-0.132E-06
CGA:  11    -0.675600287008E+03   -0.10211E-03    0.47444E-05  8424   0.335E-04 0.252E-05
CGA:  12    -0.675600397269E+03   -0.11026E-03    0.24225E-05  8424   0.237E-04 0.116E-04
CGA:  13    -0.675600501716E+03   -0.10445E-03    0.20430E-05  8424   0.161E-04 0.136E-04
CGA:  14    -0.675600540479E+03   -0.38762E-04    0.15976E-05  8424   0.141E-04-0.732E-06
CGA:  15    -0.675600587258E+03   -0.46779E-04    0.79776E-06  8424   0.159E-04 0.384E-05
CGA:  16    -0.675600684926E+03   -0.97668E-04    0.79743E-06  8424   0.148E-04 0.102E-04
CGA:  17    -0.675600713839E+03   -0.28913E-04    0.20243E-05  8424   0.145E-04-0.672E-06
CGA:  18    -0.675600775953E+03   -0.62113E-04    0.59802E-06  8424   0.164E-04 0.329E-05
CGA:  19    -0.675600867451E+03   -0.91499E-04    0.85220E-06  8424   0.145E-04 0.925E-05
CGA:  20    -0.675600905079E+03   -0.37628E-04    0.12758E-05  8424   0.121E-04 0.860E-06
CGA:  21    -0.675600952551E+03   -0.47472E-04    0.70013E-06  8424   0.953E-05 0.500E-05
CGA:  22    -0.675601028020E+03   -0.75469E-04    0.44502E-06  8424   0.119E-04 0.705E-05
CGA:  23    -0.675601054083E+03   -0.26062E-04    0.13686E-05  8424   0.142E-04-0.780E-06
CGA:  24    -0.675601123608E+03   -0.69526E-04    0.47800E-06  8424   0.131E-04 0.569E-05
CGA:  25    -0.675601209811E+03   -0.86203E-04    0.74814E-06  8424   0.124E-04 0.687E-05
CGA:  26    -0.675601239054E+03   -0.29243E-04    0.12609E-05  8424   0.107E-04 0.592E-06
CGA:  27    -0.675601297032E+03   -0.57978E-04    0.40319E-06  8424   0.890E-05 0.606E-05
CGA:  28    -0.675601319568E+03   -0.22536E-04    0.81446E-06  8424   0.112E-04-0.205E-06
CGA:  29    -0.675601389380E+03   -0.69812E-04    0.30866E-06  8424   0.117E-04 0.683E-05
CGA:  30    -0.675601416879E+03   -0.27499E-04    0.11845E-05  8424   0.844E-05-0.101E-05
CGA:  31    -0.675601469637E+03   -0.52758E-04    0.20232E-06  8424   0.828E-05 0.675E-05
CGA:  32    -0.675601495285E+03   -0.25649E-04    0.57181E-06  8424   0.659E-05 0.139E-05
CGA:  33    -0.675601550211E+03   -0.54925E-04    0.19295E-06  8424   0.751E-05 0.630E-05
CGA:  34    -0.675601575440E+03   -0.25230E-04    0.46481E-06  8424   0.615E-05 0.188E-05
CGA:  35    -0.675601631138E+03   -0.55698E-04    0.18916E-06  8424   0.708E-05 0.616E-05
CGA:  36    -0.675601656349E+03   -0.25210E-04    0.40684E-06  8424   0.572E-05 0.213E-05
CGA:  37    -0.675601711022E+03   -0.54674E-04    0.18044E-06  8424   0.665E-05 0.608E-05
CGA:  38    -0.675601736546E+03   -0.25524E-04    0.34718E-06  8424   0.533E-05 0.236E-05
CGA:  39    -0.675601790774E+03   -0.54227E-04    0.17100E-06  8424   0.623E-05 0.605E-05
CGA:  40    -0.675601816435E+03   -0.25662E-04    0.29797E-06  8424   0.499E-05 0.255E-05
CGA:  41    -0.675601869874E+03   -0.53438E-04    0.16460E-06  8424   0.586E-05 0.606E-05
CGA:  42    -0.675601895855E+03   -0.25981E-04    0.25599E-06  8424   0.468E-05 0.272E-05
CGA:  43    -0.675601948881E+03   -0.53026E-04    0.15686E-06  8424   0.552E-05 0.607E-05
CGA:  44    -0.675601975165E+03   -0.26284E-04    0.22133E-06  8424   0.442E-05 0.285E-05
CGA:  45    -0.675602006860E+03   -0.31696E-04    0.10990E-06  8424   0.488E-05 0.298E-05
CGA:  46    -0.675602028276E+03   -0.21415E-04    0.21533E-06  8424   0.722E-05 0.178E-05
CGA:  47    -0.675602100573E+03   -0.72297E-04    0.23942E-06  8424   0.473E-05 0.933E-05
CGA:  48    -0.675602133757E+03   -0.33184E-04    0.12059E-06  8424   0.644E-05 0.208E-05
CGA:  49    -0.675602197798E+03   -0.64041E-04    0.24114E-06  8424   0.468E-05 0.829E-05
CGA:  50    -0.675602224407E+03   -0.26609E-04    0.15193E-06  8424   0.421E-05 0.282E-05
CGA:  51    -0.675602254791E+03   -0.30385E-04    0.10425E-06  8424   0.438E-05 0.295E-05
CGA:  52    -0.675602277519E+03   -0.22727E-04    0.15835E-06  8424   0.591E-05 0.225E-05
CGA:  53    -0.675602314023E+03   -0.36504E-04    0.17448E-06  8424   0.126E-04-0.975E-06
CGA:  54    -0.675602402447E+03   -0.88425E-04    0.21825E-06  8424   0.168E-04 0.997E-05
CGA:  55    -0.675602406508E+03   -0.40608E-05   -0.33976E-05  8424   0.757E-05-0.340E-05
  16 F= -.67560241E+03 E0= -.67560241E+03  d E =-.210208E-02  mag=     5.0000
       N       E                     dE             d eps       ncg     rms          ort
SDA:   1    -0.675436839873E+03    0.16556E+00    0.00000E+00  8424   0.416E+00 0.000E+00
CGA:   2    -0.675548251352E+03   -0.11141E+00   -0.11138E+00  8424   0.224E+00-0.282E-03
CGA:   3    -0.675590277826E+03   -0.42026E-01   -0.42062E-01  8424   0.503E-01 0.155E-03
CGA:   4    -0.675598183035E+03   -0.79052E-02   -0.79185E-02  8424   0.115E-01 0.534E-04
CGA:   5    -0.675600186268E+03   -0.20032E-02   -0.19961E-02  8424   0.242E-02-0.401E-04
CGA:   6    -0.675600725888E+03   -0.53962E-03   -0.52868E-03  8424   0.607E-03-0.823E-04
CGA:   7    -0.675600872622E+03   -0.14673E-03   -0.14026E-03  8424   0.215E-03-0.606E-04
CGA:   8    -0.675600942224E+03   -0.69603E-04   -0.74438E-04  8424   0.197E-03-0.111E-03
CGA:   9    -0.675600990244E+03   -0.48020E-04   -0.41632E-04  8424   0.661E-04-0.486E-04
CGA:  10    -0.675601038276E+03   -0.48031E-04    0.19287E-04  8424   0.272E-04-0.984E-05
CGA:  11    -0.675601085260E+03   -0.46984E-04    0.19348E-05  8424   0.134E-04 0.405E-05
CGA:  12    -0.675601138585E+03   -0.53325E-04    0.61815E-06  8424   0.937E-05 0.722E-05
CGA:  13    -0.675601167064E+03   -0.28480E-04    0.44781E-06  8424   0.817E-05 0.271E-05
CGA:  14    -0.675601224661E+03   -0.57597E-04    0.24849E-06  8424   0.827E-05 0.775E-05
CGA:  15    -0.675601251283E+03   -0.26621E-04    0.36707E-06  8424   0.774E-05 0.287E-05
CGA:  16    -0.675601310977E+03   -0.59695E-04    0.23315E-06  8424   0.845E-05 0.708E-05
CGA:  17    -0.675601337652E+03   -0.26675E-04    0.38428E-06  8424   0.844E-05 0.238E-05
CGA:  18    -0.675601400012E+03   -0.62360E-04    0.24043E-06  8424   0.908E-05 0.629E-05
CGA:  19    -0.675601425702E+03   -0.25690E-04    0.47637E-06  8424   0.904E-05 0.188E-05
CGA:  20    -0.675601487430E+03   -0.61727E-04    0.24727E-06  8424   0.995E-05 0.521E-05
CGA:  21    -0.675601513349E+03   -0.25919E-04    0.58236E-06  8424   0.104E-04 0.104E-05
CGA:  22    -0.675601576928E+03   -0.63579E-04    0.26468E-06  8424   0.112E-04 0.402E-05
CGA:  23    -0.675601671185E+03   -0.94257E-04    0.32462E-06  8424   0.938E-05 0.142E-04
CGA:  24    -0.675601695108E+03   -0.23923E-04    0.56422E-06  8424   0.126E-04 0.582E-06
CGA:  25    -0.675601766028E+03   -0.70920E-04    0.32890E-06  8424   0.948E-05 0.463E-05
CGA:  26    -0.675601848214E+03   -0.82185E-04    0.25817E-06  8424   0.103E-04 0.114E-04
CGA:  27    -0.675601870505E+03   -0.22291E-04    0.78363E-06  8424   0.180E-04-0.187E-05
CGA:  28    -0.675601950706E+03   -0.80202E-04    0.34959E-06  8424   0.144E-04 0.411E-05
CGA:  29    -0.675602048249E+03   -0.97543E-04    0.41066E-06  8424   0.354E-04 0.277E-05
CGA:  30    -0.675602303662E+03   -0.25541E-03    0.88639E-06  8424   0.407E-04 0.286E-04
CGA:  31    -0.675602311226E+03   -0.75640E-05   -0.63761E-05  8424   0.121E-04-0.663E-05
  17 F= -.67560231E+03 E0= -.67560231E+03  d E =0.952822E-04  mag=     5.0000
       N       E                     dE             d eps       ncg     rms          ort
SDA:   1    -0.674022015806E+03    0.15803E+01    0.00000E+00  8424   0.398E+01 0.000E+00
CGA:   2    -0.675087329598E+03   -0.10653E+01   -0.10654E+01  8424   0.216E+01 0.347E-03
CGA:   3    -0.675494134900E+03   -0.40681E+00   -0.40676E+00  8424   0.488E+00 0.374E-03
CGA:   4    -0.675570334654E+03   -0.76200E-01   -0.76252E-01  8424   0.110E+00 0.159E-03
CGA:   5    -0.675589341803E+03   -0.19007E-01   -0.19010E-01  8424   0.231E-01-0.161E-04
CGA:   6    -0.675594283251E+03   -0.49414E-02   -0.49284E-02  8424   0.550E-02-0.149E-03
CGA:   7    -0.675595467739E+03   -0.11845E-02   -0.11846E-02  8424   0.162E-02 0.917E-06
CGA:   8    -0.675595903757E+03   -0.43602E-03   -0.43385E-03  8424   0.583E-03-0.837E-04
CGA:   9    -0.675596090079E+03   -0.18632E-03   -0.19433E-03  8424   0.338E-03-0.136E-03
CGA:  10    -0.675596062908E+03    0.27171E-04   -0.21032E-03  8424   0.130E-02-0.461E-03
CGA:  11    -0.675596302259E+03   -0.23935E-03   -0.23722E-03  8424   0.202E-03-0.157E-04
CGA:  12    -0.675596290700E+03    0.11559E-04   -0.17310E-03  8424   0.114E-02-0.335E-03
CGA:  13    -0.675596466973E+03   -0.17627E-03   -0.18069E-03  8424   0.192E-03 0.244E-04
CGA:  14    -0.675596455433E+03    0.11539E-04   -0.14091E-03  8424   0.113E-02-0.394E-03
CGA:  15    -0.675596593295E+03   -0.13786E-03   -0.15674E-03  8424   0.167E-03 0.891E-04
CGA:  16    -0.675596655965E+03   -0.62670E-04   -0.91270E-04  8424   0.233E-03-0.175E-03
CGA:  17    -0.675596718845E+03   -0.62880E-04   -0.59678E-04  8424   0.752E-04-0.344E-04
CGA:  18    -0.675596791652E+03   -0.72807E-04    0.17142E-04  8424   0.133E-03-0.596E-04
CGA:  19    -0.675596803896E+03   -0.12243E-04   -0.15870E-04  8424   0.188E-04 0.161E-04
CGA:  20    -0.675596843929E+03   -0.40033E-04    0.19190E-05  8424   0.196E-04 0.658E-05
CGA:  21    -0.675596931809E+03   -0.87880E-04    0.11066E-05  8424   0.343E-04 0.913E-05
CGA:  22    -0.675597118167E+03   -0.18636E-03    0.18457E-05  8424   0.403E-04 0.448E-04
CGA:  23    -0.675596600153E+03    0.51801E-03   -0.28122E-03  8424   0.526E-02-0.329E-03
CGA:  24    -0.675597328806E+03   -0.72865E-03   -0.63642E-03  8424   0.232E-03-0.213E-03
CGA:  25    -0.675597407078E+03   -0.78272E-04   -0.74134E-04  8424   0.503E-04-0.166E-04
CGA:  26    -0.675597476383E+03   -0.69305E-04    0.44780E-04  8424   0.370E-03-0.886E-04
CGA:  27    -0.675597508343E+03   -0.31960E-04   -0.40488E-04  8424   0.189E-04 0.189E-04
CGA:  28    -0.675597570838E+03   -0.62494E-04    0.29102E-05  8424   0.303E-04 0.859E-06
CGA:  29    -0.675597724139E+03   -0.15330E-03    0.25486E-05  8424   0.138E-03-0.229E-04
CGA:  30    -0.675597745701E+03   -0.21562E-04   -0.20952E-04  8424   0.384E-04-0.150E-05
CGA:  31    -0.675597830061E+03   -0.84359E-04    0.91624E-05  8424   0.269E-04-0.102E-04
CGA:  32    -0.675597924323E+03   -0.94263E-04    0.14988E-05  8424   0.426E-04 0.796E-05
CGA:  33    -0.675598177189E+03   -0.25287E-03    0.43869E-05  8424   0.582E-04 0.159E-04
CGA:  34    -0.675598517770E+03   -0.34058E-03    0.69704E-05  8424   0.126E-03 0.645E-05
CGA:  35    -0.675599402462E+03   -0.88469E-03    0.74652E-05  8424   0.141E-03 0.482E-04
CGA:  36    -0.675600501905E+03   -0.10994E-02    0.11929E-04  8424   0.132E-03 0.905E-04
CGA:  37    -0.675600527674E+03   -0.25769E-04   -0.24005E-04  8424   0.353E-04-0.516E-05
CGA:  38    -0.675600591864E+03   -0.64190E-04    0.10231E-04  8424   0.232E-04-0.115E-04
CGA:  39    -0.675600668750E+03   -0.76886E-04    0.10552E-05  8424   0.413E-04-0.501E-05
CGA:  40    -0.675600831228E+03   -0.16248E-03    0.21282E-05  8424   0.536E-04 0.290E-05
CGA:  41    -0.675601134788E+03   -0.30356E-03    0.35187E-05  8424   0.485E-04 0.156E-04
CGA:  42    -0.675601407630E+03   -0.27284E-03    0.49216E-05  8424   0.949E-04-0.872E-05
CGA:  43    -0.675602027677E+03   -0.62005E-03    0.29386E-05  8424   0.102E-03 0.514E-05
CGA:  44    -0.675602762536E+03   -0.73486E-03    0.47945E-05  8424   0.198E-03 0.148E-04
CGA:  45    -0.675604190833E+03   -0.14283E-02    0.11248E-04  8424   0.231E-03-0.540E-04
CGA:  46    -0.675606008212E+03   -0.18174E-02    0.44911E-05  8424   0.274E-03-0.649E-04
CGA:  47    -0.675608220526E+03   -0.22123E-02    0.50600E-05  8424   0.436E-03-0.228E-03
CGA:  48    -0.675608279787E+03   -0.59262E-04   -0.74797E-04  8424   0.728E-04 0.446E-04
CGA:  49    -0.675608276950E+03    0.28377E-05   -0.12265E-04  8424   0.285E-04 0.440E-04
  18 F= -.67560828E+03 E0= -.67560828E+03  d E =-.596572E-02  mag=     5.0000
       N       E                     dE             d eps       ncg     rms          ort
SDA:   1    -0.675406592064E+03    0.20169E+00    0.00000E+00  8424   0.591E+00 0.000E+00
CGA:   2    -0.675542534263E+03   -0.13594E+00   -0.13602E+00  8424   0.277E+00 0.327E-03
CGA:   3    -0.675599110427E+03   -0.56576E-01   -0.56545E-01  8424   0.797E-01-0.153E-03
CGA:   4    -0.675611885352E+03   -0.12775E-01   -0.12767E-01  8424   0.184E-01-0.422E-04
CGA:   5    -0.675615005218E+03   -0.31199E-02   -0.31203E-02  8424   0.368E-02-0.104E-05
CGA:   6    -0.675615770828E+03   -0.76561E-03   -0.76514E-03  8424   0.877E-03-0.205E-05
CGA:   7    -0.675615959069E+03   -0.18824E-03   -0.19202E-03  8424   0.262E-03 0.213E-04
CGA:   8    -0.675616023477E+03   -0.64408E-04   -0.65978E-04  8424   0.844E-04 0.109E-04
CGA:   9    -0.675616044796E+03   -0.21319E-04   -0.22835E-04  8424   0.313E-04 0.123E-04
CGA:  10    -0.675616051042E+03   -0.62457E-05   -0.83559E-05  8424   0.155E-04 0.147E-04
  19 F= -.67561605E+03 E0= -.67561605E+03  d E =-.777409E-02  mag=     5.0000
       N       E                     dE             d eps       ncg     rms          ort
SDA:   1    -0.675518618719E+03    0.97426E-01    0.00000E+00  8424   0.251E+00 0.000E+00
CGA:   2    -0.675589390724E+03   -0.70772E-01   -0.70782E-01  8424   0.130E+00 0.972E-04
CGA:   3    -0.675612945590E+03   -0.23555E-01   -0.23544E-01  8424   0.282E-01-0.854E-04
CGA:   4    -0.675617509513E+03   -0.45639E-02   -0.45563E-02  8424   0.689E-02-0.455E-04
CGA:   5    -0.675618699089E+03   -0.11896E-02   -0.11904E-02  8424   0.140E-02 0.352E-05
CGA:   6    -0.675618984696E+03   -0.28561E-03   -0.28947E-03  8424   0.324E-03 0.308E-04
CGA:   7    -0.675619057890E+03   -0.73194E-04   -0.74200E-04  8424   0.104E-03 0.992E-05
CGA:   8    -0.675619082471E+03   -0.24581E-04   -0.25624E-04  8424   0.358E-04 0.130E-04
CGA:   9    -0.675619090285E+03   -0.78141E-05   -0.91026E-05  8424   0.159E-04 0.143E-04
  20 F= -.67561909E+03 E0= -.67561909E+03  d E =-.303924E-02  mag=     5.0000
       N       E                     dE             d eps       ncg     rms          ort
SDA:   1    -0.675499651249E+03    0.11943E+00    0.00000E+00  8424   0.342E+00 0.000E+00
CGA:   2    -0.675581740292E+03   -0.82089E-01   -0.82120E-01  8424   0.166E+00 0.411E-03
CGA:   3    -0.675614732397E+03   -0.32992E-01   -0.32988E-01  8424   0.433E-01-0.585E-04
CGA:   4    -0.675621760282E+03   -0.70279E-02   -0.70191E-02  8424   0.103E-01-0.725E-04
CGA:   5    -0.675623527092E+03   -0.17668E-02   -0.17614E-02  8424   0.206E-02-0.476E-04
CGA:   6    -0.675623967349E+03   -0.44026E-03   -0.43731E-03  8424   0.499E-03-0.419E-04
CGA:   7    -0.675624077358E+03   -0.11001E-03   -0.11003E-03  8424   0.156E-03 0.237E-06
CGA:   8    -0.675624121104E+03   -0.43746E-04   -0.43770E-04  8424   0.641E-04-0.111E-04
CGA:   9    -0.675624140924E+03   -0.19820E-04   -0.33342E-04  8424   0.121E-03-0.481E-04
CGA:  10    -0.675624168450E+03   -0.27526E-04   -0.26403E-04  8424   0.314E-04-0.151E-04
CGA:  11    -0.675624019318E+03    0.14913E-03   -0.80356E-04  8424   0.109E-02-0.128E-03
CGA:  12    -0.675624215724E+03   -0.19641E-03   -0.19324E-03  8424   0.108E-03-0.929E-05
CGA:  13    -0.675624249829E+03   -0.34105E-04   -0.33632E-04  8424   0.273E-04-0.249E-05
CGA:  14    -0.675624262768E+03   -0.12939E-04   -0.14228E-04  8424   0.135E-03-0.372E-04
CGA:  15    -0.675624275182E+03   -0.12414E-04   -0.16049E-04  8424   0.111E-04 0.957E-05
CGA:  16    -0.675624290789E+03   -0.15608E-04    0.77142E-05  8424   0.164E-04-0.964E-07
CGA:  17    -0.675624318280E+03   -0.27491E-04    0.51128E-05  8424   0.383E-04-0.805E-06
CGA:  18    -0.675624392729E+03   -0.74449E-04    0.77666E-05  8424   0.610E-04 0.122E-04
CGA:  19    -0.675624553540E+03   -0.16081E-03    0.17894E-04  8424   0.134E-03 0.384E-04
CGA:  20    -0.675624573694E+03   -0.20154E-04   -0.21584E-04  8424   0.316E-04 0.443E-05
CGA:  21    -0.675624591150E+03   -0.17456E-04   -0.19924E-04  8424   0.425E-04-0.171E-04
CGA:  22    -0.675624607916E+03   -0.16766E-04   -0.14292E-04  8424   0.473E-04-0.182E-04
CGA:  23    -0.675624613882E+03   -0.59664E-05   -0.53640E-05  8424   0.256E-04-0.232E-05
CGA:  24    -0.675624625264E+03   -0.11382E-04   -0.12472E-04  8424   0.139E-03-0.187E-04
CGA:  25    -0.675624649990E+03   -0.24726E-04   -0.18770E-04  8424   0.141E-04-0.187E-04
CGA:  26    -0.675624654867E+03   -0.48770E-05   -0.49706E-05  8424   0.143E-04 0.290E-05
  21 F= -.67562465E+03 E0= -.67562465E+03  d E =-.556458E-02  mag=     5.0000
       N       E                     dE             d eps       ncg     rms          ort
SDA:   1    -0.675589862538E+03    0.34787E-01    0.00000E+00  8424   0.945E-01 0.000E+00
CGA:   2    -0.675613988681E+03   -0.24126E-01   -0.24083E-01  8424   0.491E-01-0.245E-03
CGA:   3    -0.675623248039E+03   -0.92594E-02   -0.92814E-02  8424   0.116E-01 0.832E-04
