       N       E                     dE             d eps       ncg     rms          rms(c)
DAV:   1     0.306955737333E+04    0.30696E+04   -0.25845E+05 73644   0.131E+03
DAV:   2    -0.610946063049E+03   -0.36805E+04   -0.35473E+04 89508   0.297E+02
DAV:   3    -0.872715009164E+03   -0.26177E+03   -0.26009E+03 89112   0.838E+01
DAV:   4    -0.875997600034E+03   -0.32826E+01   -0.32705E+01 89532   0.101E+01
DAV:   5    -0.876053486545E+03   -0.55887E-01   -0.55750E-01 91056   0.122E+00    0.990E+01
DAV:   6    -0.780123229362E+03    0.95930E+02   -0.40614E+02 83004   0.319E+01    0.502E+01
DAV:   7    -0.789287135749E+03   -0.91639E+01   -0.21878E+01 83196   0.766E+00    0.163E+01
DAV:   8    -0.793483470694E+03   -0.41963E+01   -0.16719E+00 86292   0.249E+00    0.782E+00
DAV:   9    -0.795767070999E+03   -0.22836E+01   -0.11279E+00 89388   0.175E+00    0.383E+00
DAV:  10    -0.796283837853E+03   -0.51677E+00   -0.29679E-01 83844   0.942E-01    0.114E+00
DAV:  11    -0.796357428497E+03   -0.73591E-01   -0.40919E-02 88152   0.359E-01    0.613E-01
DAV:  12    -0.796367491223E+03   -0.10063E-01   -0.54214E-03 84948   0.140E-01    0.273E-01
DAV:  13    -0.796369762014E+03   -0.22708E-02   -0.12225E-03 87684   0.680E-02    0.879E-02
DAV:  14    -0.796370188611E+03   -0.42660E-03   -0.33305E-04 83556   0.357E-02    0.428E-02
DAV:  15    -0.796370218602E+03   -0.29991E-04   -0.38138E-05 82776   0.170E-02    0.281E-02
DAV:  16    -0.796370231534E+03   -0.12933E-04   -0.19663E-05 64068   0.125E-02    0.989E-03
DAV:  17    -0.796370232350E+03   -0.81573E-06   -0.74875E-06 62952   0.903E-03
   1 F= -.79637023E+03 E0= -.79637023E+03  d E =-.796370E+03  mag=    -0.0017
       N       E                     dE             d eps       ncg     rms          rms(c)
DAV:   1    -0.796371073064E+03   -0.84153E-03   -0.36121E-04 77988   0.332E-02    0.832E-03
DAV:   2    -0.796371073403E+03   -0.33924E-06   -0.93998E-06 61752   0.551E-03    0.414E-03
DAV:   3    -0.796371073038E+03    0.36557E-06   -0.61046E-07 44652   0.184E-03    0.228E-03
DAV:   4    -0.796371072752E+03    0.28603E-06   -0.31888E-07 44136   0.196E-03
   2 F= -.79637107E+03 E0= -.79637107E+03  d E =-.840401E-03  mag=    -0.0001
       N       E                     dE             d eps       ncg     rms          rms(c)
DAV:   1    -0.796391841362E+03   -0.20768E-01   -0.25736E-01 75792   0.868E-01    0.194E-01
DAV:   2    -0.796392260012E+03   -0.41865E-03   -0.60012E-03 89676   0.124E-01    0.718E-02
DAV:   3    -0.796392165031E+03    0.94980E-04   -0.15674E-04 92004   0.296E-02    0.378E-02
DAV:   4    -0.796392139734E+03    0.25297E-04   -0.11261E-04 89604   0.215E-02    0.149E-02
DAV:   5    -0.796392138269E+03    0.14652E-05   -0.21882E-05 74436   0.116E-02
   3 F= -.79639214E+03 E0= -.79639214E+03  d E =-.210655E-01  mag=    -0.0000
       N       E                     dE             d eps       ncg     rms          rms(c)
DAV:   1    -0.796433204643E+03   -0.41065E-01   -0.14950E+00 75000   0.206E+00    0.407E-01
DAV:   2    -0.796435598213E+03   -0.23936E-02   -0.33525E-02 89064   0.284E-01    0.161E-01
DAV:   3    -0.796435094618E+03    0.50360E-03   -0.77716E-04 91944   0.654E-02    0.876E-02
DAV:   4    -0.796434951204E+03    0.14341E-03   -0.62387E-04 89580   0.498E-02    0.321E-02
DAV:   5    -0.796434945813E+03    0.53912E-05   -0.13093E-04 89088   0.267E-02    0.279E-02
DAV:   6    -0.796434944639E+03    0.11737E-05   -0.19617E-05 68448   0.905E-03
   4 F= -.79643494E+03 E0= -.79643494E+03  d E =-.428064E-01  mag=    -0.0000
       N       E                     dE             d eps       ncg     rms          rms(c)
DAV:   1    -0.796471585536E+03   -0.36640E-01   -0.20802E+00 73944   0.239E+00    0.315E-01
DAV:   2    -0.796474983364E+03   -0.33978E-02   -0.44887E-02 88332   0.310E-01    0.174E-01
DAV:   3    -0.796474415554E+03    0.56781E-03   -0.71844E-04 90624   0.616E-02    0.102E-01
DAV:   4    -0.796474186314E+03    0.22924E-03   -0.82359E-04 89304   0.555E-02    0.323E-02
DAV:   5    -0.796474183063E+03    0.32511E-05   -0.17282E-04 89568   0.281E-02    0.235E-02
DAV:   6    -0.796474181966E+03    0.10978E-05   -0.25005E-05 77064   0.101E-02
   5 F= -.79647418E+03 E0= -.79647418E+03  d E =-.392373E-01  mag=    -0.0000
       N       E                     dE             d eps       ncg     rms          rms(c)
DAV:   1    -0.796505006594E+03   -0.30824E-01   -0.44357E+00 73488   0.351E+00    0.427E-01
DAV:   2    -0.796513123653E+03   -0.81171E-02   -0.97748E-02 87288   0.447E-01    0.243E-01
DAV:   3    -0.796512077333E+03    0.10463E-02   -0.13642E-03 89664   0.841E-02    0.140E-01
DAV:   4    -0.796511648644E+03    0.42869E-03   -0.13171E-03 87900   0.714E-02    0.424E-02
DAV:   5    -0.796511648962E+03   -0.31777E-06   -0.26906E-04 89616   0.319E-02    0.238E-02
DAV:   6    -0.796511649004E+03   -0.41939E-07   -0.32491E-05 80520   0.109E-02
   6 F= -.79651165E+03 E0= -.79651165E+03  d E =-.374670E-01  mag=    -0.0000
       N       E                     dE             d eps       ncg     rms          rms(c)
DAV:   1    -0.796522015274E+03   -0.10366E-01   -0.72241E+00 73440   0.459E+00    0.633E-01
DAV:   2    -0.796535125983E+03   -0.13111E-01   -0.15765E-01 88248   0.611E-01    0.293E-01
DAV:   3    -0.796533644414E+03    0.14816E-02   -0.31823E-03 90180   0.123E-01    0.168E-01
DAV:   4    -0.796533125026E+03    0.51939E-03   -0.18019E-03 88980   0.880E-02    0.629E-02
DAV:   5    -0.796533108758E+03    0.16268E-04   -0.33470E-04 90216   0.402E-02    0.379E-02
DAV:   6    -0.796533108333E+03    0.42535E-06   -0.92874E-05 88776   0.196E-02
   7 F= -.79653311E+03 E0= -.79653311E+03  d E =-.214593E-01  mag=    -0.0000
       N       E                     dE             d eps       ncg     rms          rms(c)
DAV:   1    -0.796524353565E+03    0.87552E-02   -0.62701E+00 73452   0.440E+00    0.831E-01
DAV:   2    -0.796536818687E+03   -0.12465E-01   -0.14548E-01 88536   0.604E-01    0.288E-01
DAV:   3    -0.796535496375E+03    0.13223E-02   -0.31316E-03 91020   0.122E-01    0.148E-01
DAV:   4    -0.796535104642E+03    0.39173E-03   -0.13076E-03 89340   0.797E-02    0.576E-02
DAV:   5    -0.796535080023E+03    0.24619E-04   -0.27922E-04 90408   0.389E-02    0.317E-02
DAV:   6    -0.796535078064E+03    0.19593E-05   -0.70750E-05 89172   0.179E-02
   8 F= -.79653508E+03 E0= -.79653508E+03  d E =-.196973E-02  mag=    -0.0000
       N       E                     dE             d eps       ncg     rms          rms(c)
DAV:   1    -0.796538043755E+03   -0.29637E-02   -0.80915E-01 73860   0.163E+00    0.443E-01
DAV:   2    -0.796539700662E+03   -0.16569E-02   -0.22184E-02 89436   0.251E-01    0.163E-01
DAV:   3    -0.796539288343E+03    0.41232E-03   -0.51680E-04 91440   0.546E-02    0.734E-02
DAV:   4    -0.796539166082E+03    0.12226E-03   -0.32391E-04 88716   0.439E-02    0.225E-02
DAV:   5    -0.796539163347E+03    0.27343E-05   -0.94602E-05 92568   0.219E-02
   9 F= -.79653916E+03 E0= -.79653916E+03  d E =-.408528E-02  mag=    -0.0000
       N       E                     dE             d eps       ncg     rms          rms(c)
DAV:   1    -0.796541664404E+03   -0.24983E-02   -0.20866E-01 74160   0.737E-01    0.137E-01
DAV:   2    -0.796542033861E+03   -0.36946E-03   -0.46791E-03 88740   0.995E-02    0.529E-02
DAV:   3    -0.796541975237E+03    0.58624E-04   -0.91265E-05 89232   0.213E-02    0.294E-02
DAV:   4    -0.796541957069E+03    0.18168E-04   -0.67279E-05 87000   0.160E-02    0.105E-02
DAV:   5    -0.796541957238E+03   -0.16908E-06   -0.12967E-05 57840   0.741E-03
  10 F= -.79654196E+03 E0= -.79654196E+03  d E =-.279389E-02  mag=     0.0000
       N       E                     dE             d eps       ncg     rms          rms(c)
DAV:   1    -0.796543712644E+03   -0.17556E-02   -0.82593E-01 73536   0.163E+00    0.218E-01
DAV:   2    -0.796545199017E+03   -0.14864E-02   -0.17702E-02 88752   0.220E-01    0.905E-02
DAV:   3    -0.796545041852E+03    0.15716E-03   -0.27449E-04 91824   0.389E-02    0.537E-02
DAV:   4    -0.796544976541E+03    0.65311E-04   -0.21712E-04 89028   0.349E-02    0.175E-02
DAV:   5    -0.796544976605E+03   -0.64269E-07   -0.52415E-05 87504   0.161E-02
  11 F= -.79654498E+03 E0= -.79654498E+03  d E =-.301937E-02  mag=    -0.0000
       N       E                     dE             d eps       ncg     rms          rms(c)
DAV:   1    -0.796543624778E+03    0.13518E-02   -0.28426E+00 73440   0.310E+00    0.323E-01
DAV:   2    -0.796548999092E+03   -0.53743E-02   -0.60720E-02 87540   0.422E-01    0.157E-01
DAV:   3    -0.796548625939E+03    0.37315E-03   -0.76685E-04 91512   0.638E-02    0.968E-02
DAV:   4    -0.796548444200E+03    0.18174E-03   -0.62627E-04 90048   0.634E-02    0.314E-02
DAV:   5    -0.796548446045E+03   -0.18444E-05   -0.15233E-04 89028   0.267E-02    0.227E-02
DAV:   6    -0.796548444335E+03    0.17100E-05   -0.44650E-05 82404   0.143E-02
  12 F= -.79654844E+03 E0= -.79654844E+03  d E =-.346773E-02  mag=     0.0000
       N       E                     dE             d eps       ncg     rms          rms(c)
DAV:   1    -0.796395995651E+03    0.15245E+00   -0.22757E+01 73440   0.883E+00    0.247E+00
DAV:   2    -0.796444155312E+03   -0.48160E-01   -0.64970E-01 89604   0.142E+00    0.859E-01
DAV:   3    -0.796431490806E+03    0.12665E-01   -0.15627E-02 91776   0.323E-01    0.406E-01
DAV:   4    -0.796427012221E+03    0.44786E-02   -0.10605E-02 89700   0.282E-01    0.138E-01
DAV:   5    -0.796426677656E+03    0.33456E-03   -0.38348E-03 91668   0.173E-01    0.114E-01
DAV:   6    -0.796426601246E+03    0.76410E-04   -0.72043E-04 90852   0.529E-02    0.819E-02
DAV:   7    -0.796426481763E+03    0.11948E-03   -0.13066E-04 90180   0.266E-02    0.443E-02
DAV:   8    -0.796426402375E+03    0.79387E-04   -0.14941E-04 91836   0.446E-02    0.202E-02
DAV:   9    -0.796426399219E+03    0.31565E-05   -0.79886E-05 91356   0.228E-02
  13 F= -.79642640E+03 E0= -.79642640E+03  d E =0.122045E+00  mag=    -0.0000
       N       E                     dE             d eps       ncg     rms          rms(c)
DAV:   1    -0.796501619903E+03   -0.75218E-01   -0.10093E+00 75324   0.183E+00    0.747E-01
DAV:   2    -0.796504125636E+03   -0.25057E-02   -0.39778E-02 89700   0.342E-01    0.291E-01
DAV:   3    -0.796502841332E+03    0.12843E-02   -0.11658E-03 91212   0.969E-02    0.125E-01
DAV:   4    -0.796502427955E+03    0.41338E-03   -0.80787E-04 89532   0.892E-02    0.391E-02
DAV:   5    -0.796502395316E+03    0.32638E-04   -0.38494E-04 92520   0.548E-02    0.301E-02
DAV:   6    -0.796502388859E+03    0.64575E-05   -0.68754E-05 87756   0.159E-02
  14 F= -.79650239E+03 E0= -.79650239E+03  d E =-.759896E-01  mag=    -0.0000
       N       E                     dE             d eps       ncg     rms          rms(c)
DAV:   1    -0.796524676044E+03   -0.22281E-01   -0.18606E-01 73776   0.791E-01    0.318E-01
DAV:   2    -0.796525113636E+03   -0.43759E-03   -0.73729E-03 89820   0.148E-01    0.120E-01
DAV:   3    -0.796524857851E+03    0.25578E-03   -0.21925E-04 91308   0.462E-02    0.511E-02
DAV:   4    -0.796524763683E+03    0.94168E-04   -0.15777E-04 89640   0.439E-02    0.167E-02
DAV:   5    -0.796524752408E+03    0.11275E-04   -0.87133E-05 92292   0.288E-02    0.130E-02
DAV:   6    -0.796524751155E+03    0.12531E-05   -0.20505E-05 57228   0.900E-03
  15 F= -.79652475E+03 E0= -.79652475E+03  d E =-.223623E-01  mag=     0.0000
       N       E                     dE             d eps       ncg     rms          rms(c)
DAV:   1    -0.796555898632E+03   -0.31146E-01   -0.15097E+00 73440   0.226E+00    0.866E-01
DAV:   2    -0.796559537349E+03   -0.36387E-02   -0.57910E-02 89952   0.412E-01    0.330E-01
DAV:   3    -0.796557745746E+03    0.17916E-02   -0.17849E-03 91416   0.118E-01    0.143E-01
DAV:   4    -0.796557157938E+03    0.58781E-03   -0.11207E-03 89736   0.107E-01    0.503E-02
DAV:   5    -0.796557093113E+03    0.64825E-04   -0.53881E-04 92664   0.722E-02    0.348E-02
DAV:   6    -0.796557087559E+03    0.55543E-05   -0.14265E-04 89916   0.232E-02    0.288E-02
DAV:   7    -0.796557076381E+03    0.11178E-04   -0.14442E-05 56460   0.700E-03    0.181E-02
DAV:   8    -0.796557061726E+03    0.14654E-04   -0.23248E-05 71424   0.165E-02    0.612E-03
DAV:   9    -0.796557060451E+03    0.12751E-05   -0.92923E-06 59388   0.895E-03
  16 F= -.79655706E+03 E0= -.79655706E+03  d E =-.323093E-01  mag=    -0.0000
       N       E                     dE             d eps       ncg     rms          rms(c)
DAV:   1    -0.796558850329E+03   -0.17886E-02   -0.68143E-02 74928   0.463E-01    0.157E-01
DAV:   2    -0.796558968105E+03   -0.11778E-03   -0.19407E-03 90828   0.739E-02    0.480E-02
DAV:   3    -0.796558923984E+03    0.44121E-04   -0.82491E-05 88380   0.208E-02    0.232E-02
DAV:   4    -0.796558912201E+03    0.11782E-04   -0.36227E-05 83268   0.150E-02    0.115E-02
DAV:   5    -0.796558910796E+03    0.14050E-05   -0.10003E-05 57960   0.980E-03
  17 F= -.79655891E+03 E0= -.79655891E+03  d E =-.185035E-02  mag=     0.0000
       N       E                     dE             d eps       ncg     rms          rms(c)
DAV:   1    -0.796560419617E+03   -0.15074E-02   -0.39291E-01 73440   0.108E+00    0.345E-01
DAV:   2    -0.796561022340E+03   -0.60272E-03   -0.92003E-03 90768   0.156E-01    0.870E-02
DAV:   3    -0.796560868505E+03    0.15384E-03   -0.40763E-04 91728   0.428E-02    0.430E-02
DAV:   4    -0.796560840312E+03    0.28193E-04   -0.15723E-04 89484   0.246E-02    0.250E-02
DAV:   5    -0.796560838801E+03    0.15102E-05   -0.23561E-05 75864   0.127E-02
  18 F= -.79656084E+03 E0= -.79656084E+03  d E =-.192801E-02  mag=    -0.0000
       N       E                     dE             d eps       ncg     rms          rms(c)
DAV:   1    -0.796561155735E+03   -0.31542E-03   -0.17485E-02 75552   0.234E-01    0.579E-02
DAV:   2    -0.796561190079E+03   -0.34344E-04   -0.42506E-04 89196   0.336E-02    0.180E-02
DAV:   3    -0.796561184661E+03    0.54182E-05   -0.66244E-06 56388   0.615E-03    0.930E-03
DAV:   4    -0.796561182654E+03    0.20068E-05   -0.73886E-06 53628   0.631E-03
  19 F= -.79656118E+03 E0= -.79656118E+03  d E =-.343853E-03  mag=     0.0000
       N       E                     dE             d eps       ncg     rms          rms(c)
DAV:   1    -0.796561271602E+03   -0.86941E-04   -0.24915E-01 73488   0.894E-01    0.148E-01
DAV:   2    -0.796561704137E+03   -0.43253E-03   -0.53565E-03 89064   0.121E-01    0.533E-02
DAV:   3    -0.796561652644E+03    0.51492E-04   -0.90077E-05 92340   0.202E-02    0.307E-02
DAV:   4    -0.796561629506E+03    0.23138E-04   -0.75024E-05 87192   0.198E-02    0.923E-03
DAV:   5    -0.796561628936E+03    0.57056E-06   -0.16317E-05 58176   0.965E-03
  20 F= -.79656163E+03 E0= -.79656163E+03  d E =-.446281E-03  mag=     0.0000
       N       E                     dE             d eps       ncg     rms          rms(c)
DAV:   1    -0.796561157782E+03    0.47172E-03   -0.19790E-01 73488   0.815E-01    0.984E-02
DAV:   2    -0.796561515529E+03   -0.35775E-03   -0.41445E-03 88920   0.109E-01    0.417E-02
DAV:   3    -0.796561485799E+03    0.29730E-04   -0.51574E-05 92208   0.155E-02    0.254E-02
DAV:   4    -0.796561472674E+03    0.13125E-04   -0.54166E-05 84576   0.169E-02    0.760E-03
DAV:   5    -0.796561472919E+03   -0.24543E-06   -0.11005E-05 50280   0.707E-03
  21 F= -.79656147E+03 E0= -.79656147E+03  d E =0.156016E-03  mag=    -0.0000
       N       E                     dE             d eps       ncg     rms          rms(c)
DAV:   1    -0.796558679979E+03    0.27927E-02   -0.84427E-01 73440   0.171E+00    0.212E-01
DAV:   2    -0.796560353949E+03   -0.16740E-02   -0.18614E-02 87672   0.236E-01    0.918E-02
DAV:   3    -0.796560236266E+03    0.11768E-03   -0.21755E-04 91872   0.343E-02    0.537E-02
DAV:   4    -0.796560186361E+03    0.49905E-04   -0.20654E-04 89472   0.355E-02    0.171E-02
DAV:   5    -0.796560186326E+03    0.34470E-07   -0.45666E-05 83148   0.159E-02
  22 F= -.79656019E+03 E0= -.79656019E+03  d E =0.128659E-02  mag=     0.0000
       N       E                     dE             d eps       ncg     rms          rms(c)
DAV:   1    -0.796555351153E+03    0.48352E-02   -0.17919E+00 73440   0.250E+00    0.331E-01
DAV:   2    -0.796558896181E+03   -0.35450E-02   -0.39454E-02 86760   0.345E-01    0.131E-01
DAV:   3    -0.796558624348E+03    0.27183E-03   -0.45410E-04 91824   0.505E-02    0.762E-02
DAV:   4    -0.796558494251E+03    0.13010E-03   -0.43458E-04 90240   0.569E-02    0.229E-02
DAV:   5    -0.796558496527E+03   -0.22767E-05   -0.13003E-04 89532   0.249E-02    0.198E-02
DAV:   6    -0.796558492396E+03    0.41316E-05   -0.24422E-05 58092   0.109E-02
  23 F= -.79655849E+03 E0= -.79655849E+03  d E =0.169393E-02  mag=     0.0000
       N       E                     dE             d eps       ncg     rms          rms(c)
DAV:   1    -0.796559499961E+03   -0.10034E-02   -0.26358E-01 73464   0.891E-01    0.280E-01
DAV:   2    -0.796559955159E+03   -0.45520E-03   -0.62945E-03 90720   0.127E-01    0.700E-02
DAV:   3    -0.796559858147E+03    0.97012E-04   -0.24250E-04 91848   0.346E-02    0.343E-02
DAV:   4    -0.796559841053E+03    0.17094E-04   -0.88846E-05 89580   0.178E-02    0.168E-02
DAV:   5    -0.796559840365E+03    0.68792E-06   -0.11914E-05 60312   0.834E-03
  24 F= -.79655984E+03 E0= -.79655984E+03  d E =-.134797E-02  mag=    -0.0000
       N       E                     dE             d eps       ncg     rms          rms(c)
DAV:   1    -0.796560336184E+03   -0.49513E-03   -0.14763E-01 73464   0.712E-01    0.120E-01
DAV:   2    -0.796560634074E+03   -0.29789E-03   -0.34091E-03 88620   0.100E-01    0.425E-02
DAV:   3    -0.796560604218E+03    0.29856E-04   -0.46588E-05 91248   0.164E-02    0.231E-02
DAV:   4    -0.796560592930E+03    0.11288E-04   -0.38723E-05 85044   0.157E-02    0.713E-03
DAV:   5    -0.796560592828E+03    0.10178E-06   -0.95970E-06 49428   0.778E-03
  25 F= -.79656059E+03 E0= -.79656059E+03  d E =-.752463E-03  mag=     0.0000
       N       E                     dE             d eps       ncg     rms          rms(c)
DAV:   1    -0.796557700978E+03    0.28920E-02   -0.17430E+00 73440   0.247E+00    0.296E-01
DAV:   2    -0.796561103765E+03   -0.34028E-02   -0.37450E-02 87288   0.337E-01    0.125E-01
DAV:   3    -0.796560904227E+03    0.19954E-03   -0.48727E-04 91956   0.497E-02    0.746E-02
DAV:   4    -0.796560832780E+03    0.71447E-04   -0.38863E-04 89712   0.479E-02    0.266E-02
DAV:   5    -0.796560834413E+03   -0.16328E-05   -0.73519E-05 83652   0.196E-02
  26 F= -.79656083E+03 E0= -.79656083E+03  d E =-.241585E-03  mag=    -0.0000
       N       E                     dE             d eps       ncg     rms          rms(c)
DAV:   1    -0.796497246058E+03    0.63587E-01   -0.30072E+01 73440   0.102E+01    0.115E+00
DAV:   2    -0.796557391120E+03   -0.60145E-01   -0.65691E-01 85512   0.140E+00    0.538E-01
DAV:   3    -0.796554134248E+03    0.32569E-02   -0.78127E-03 91608   0.196E-01    0.326E-01
DAV:   4    -0.796552755171E+03    0.13791E-02   -0.69754E-03 88848   0.205E-01    0.110E-01
DAV:   5    -0.796552745747E+03    0.94243E-05   -0.13364E-03 87312   0.860E-02    0.763E-02
DAV:   6    -0.796552748968E+03   -0.32218E-05   -0.55822E-04 87912   0.514E-02    0.351E-02
DAV:   7    -0.796552736041E+03    0.12927E-04   -0.58068E-05 84072   0.193E-02    0.220E-02
DAV:   8    -0.796552734207E+03    0.18342E-05   -0.18262E-05 61092   0.102E-02
  27 F= -.79655273E+03 E0= -.79655273E+03  d E =0.810021E-02  mag=    -0.0000
       N       E                     dE             d eps       ncg     rms          rms(c)
DAV:   1    -0.796556613251E+03   -0.38772E-02   -0.14682E+00 73440   0.226E+00    0.702E-01
DAV:   2    -0.796560367746E+03   -0.37545E-02   -0.47388E-02 89376   0.375E-01    0.246E-01
DAV:   3    -0.796559467807E+03    0.89994E-03   -0.10268E-03 91584   0.781E-02    0.106E-01
DAV:   4    -0.796559205404E+03    0.26240E-03   -0.64450E-04 88632   0.632E-02    0.329E-02
DAV:   5    -0.796559199672E+03    0.57318E-05   -0.21184E-04 93852   0.360E-02    0.269E-02
DAV:   6    -0.796559197367E+03    0.23050E-05   -0.29360E-05 63132   0.105E-02
  28 F= -.79655920E+03 E0= -.79655920E+03  d E =-.646316E-02  mag=     0.0000
       N       E                     dE             d eps       ncg     rms          rms(c)
DAV:   1    -0.796555457045E+03    0.37426E-02   -0.46401E+00 73440   0.404E+00    0.622E-01
DAV:   2    -0.796564722488E+03   -0.92654E-02   -0.10456E-01 88224   0.566E-01    0.224E-01
DAV:   3    -0.796563997299E+03    0.72519E-03   -0.16417E-03 92112   0.926E-02    0.130E-01
DAV:   4    -0.796563749042E+03    0.24826E-03   -0.11422E-03 90036   0.820E-02    0.458E-02
DAV:   5    -0.796563749082E+03   -0.40360E-07   -0.23812E-04 90336   0.368E-02    0.412E-02
DAV:   6    -0.796563748106E+03    0.97582E-06   -0.66523E-05 86496   0.173E-02
  29 F= -.79656375E+03 E0= -.79656375E+03  d E =-.455074E-02  mag=     0.0000
       N       E                     dE             d eps       ncg     rms          rms(c)
DAV:   1    -0.796563964819E+03   -0.21574E-03   -0.81577E-02 73488   0.527E-01    0.150E-01
DAV:   2    -0.796564110595E+03   -0.14578E-03   -0.19553E-03 90744   0.773E-02    0.381E-02
DAV:   3    -0.796564085487E+03    0.25108E-04   -0.65629E-05 89892   0.188E-02    0.202E-02
DAV:   4    -0.796564079662E+03    0.58248E-05   -0.28501E-05 77004   0.122E-02
  30 F= -.79656408E+03 E0= -.79656408E+03  d E =-.331556E-03  mag=     0.0000
       N       E                     dE             d eps       ncg     rms          rms(c)
DAV:   1    -0.796564336893E+03   -0.25141E-03   -0.73173E-03 75336   0.159E-01    0.474E-02
DAV:   2    -0.796564355082E+03   -0.18190E-04   -0.22314E-04 89592   0.258E-02    0.159E-02
DAV:   3    -0.796564351362E+03    0.37203E-05   -0.37744E-06 47616   0.528E-03    0.750E-03
DAV:   4    -0.796564350133E+03    0.12294E-05   -0.38838E-06 48888   0.510E-03
  31 F= -.79656435E+03 E0= -.79656435E+03  d E =-.270471E-03  mag=     0.0000
