       N       E                     dE             d eps       ncg     rms          ort
DAV:   1     0.846373128550E+04    0.84637E+04   -0.38840E+05  6342   0.184E+03
DAV:   2    -0.722718796716E+02   -0.85360E+04   -0.78556E+04  6342   0.481E+02
DAV:   3    -0.133868972137E+04   -0.12664E+04   -0.12355E+04  6342   0.207E+02
DAV:   4    -0.140512529420E+04   -0.66436E+02   -0.62984E+02  6342   0.471E+01
DAV:   5    -0.140749345867E+04   -0.23682E+01   -0.23076E+01  6342   0.738E+00
SDA:   6    -0.747184636212E+03    0.66031E+03   -0.23076E+01  6342   0.267E+04 0.000E+00
CGA:   7    -0.104890928698E+04   -0.30172E+03   -0.29925E+03  6342   0.577E+03-0.134E+03
CGA:   8    -0.104049059941E+04    0.84187E+01   -0.43132E+02  6342   0.176E+04-0.204E+03
CGA:   9    -0.107139307252E+04   -0.30902E+02   -0.43180E+02  6342   0.718E+03-0.463E+03
CGA:  10    -0.106647114617E+04    0.49219E+01   -0.22048E+02  6342   0.886E+03-0.648E+03
CGA:  11    -0.105432581368E+04    0.12145E+02   -0.51499E+02  6342   0.146E+04-0.609E+03
CGA:  12    -0.100338945206E+04    0.50936E+02   -0.90599E+02  6342   0.233E+04-0.112E+04
CGA:  13    -0.962908916297E+03    0.40481E+02   -0.14745E+03  6342   0.146E+04-0.110E+04
CGA:  14    -0.106100128218E+04   -0.98092E+02   -0.36324E+02  6342   0.147E+04-0.215E+04
CGA:  15    -0.100658979774E+04    0.54411E+02   -0.70149E+02  6342   0.433E+04-0.279E+04
CGA:  16    -0.979565609918E+03    0.27024E+02   -0.27044E+03  6342   0.303E+04-0.190E+04
CGA:  17    -0.103007546120E+04   -0.50510E+02   -0.10835E+03  6342   0.103E+04-0.563E+03
CGA:  18    -0.108571290759E+04   -0.55637E+02   -0.28712E+02  6342   0.112E+04-0.874E+03
CGA:  19    -0.107826339878E+04    0.74495E+01   -0.47893E+02  6342   0.159E+04-0.988E+03
CGA:  20    -0.107112151714E+04    0.71419E+01   -0.79067E+02  6342   0.126E+04-0.744E+03
CGA:  21    -0.108983684231E+04   -0.18715E+02   -0.26217E+02  6342   0.173E+04-0.381E+03
CGA:  22    -0.109452676981E+04   -0.46899E+01   -0.63930E+02  6342   0.893E+03-0.481E+03
CGA:  23    -0.110060793760E+04   -0.60812E+01   -0.27925E+02  6342   0.680E+03-0.197E+03
CGA:  24    -0.111132472048E+04   -0.10717E+02   -0.22047E+02  6342   0.438E+03-0.545E+03
CGA:  25    -0.110495616337E+04    0.63686E+01   -0.15425E+02  6342   0.108E+04-0.595E+03
CGA:  26    -0.110036559825E+04    0.45906E+01   -0.50093E+02  6342   0.539E+03-0.243E+03
CGA:  27    -0.111257527441E+04   -0.12210E+02   -0.17515E+02  6342   0.185E+03 0.852E+02
CGA:  28    -0.111384431565E+04   -0.12690E+01   -0.47420E+01  6342   0.353E+03-0.156E+03
CGA:  29    -0.110117091330E+04    0.12673E+02   -0.10548E+02  6342   0.914E+03-0.488E+03
CGA:  30    -0.110668536701E+04   -0.55145E+01   -0.34961E+02  6342   0.438E+03-0.332E+03
CGA:  31    -0.111893238320E+04   -0.12247E+02   -0.88520E+01  6342   0.196E+03 0.149E+03
CGA:  32    -0.110918247456E+04    0.97499E+01   -0.62086E+01  6342   0.686E+03-0.353E+03
CGA:  33    -0.110665500043E+04    0.25275E+01   -0.22180E+02  6342   0.708E+03-0.361E+03
CGA:  34    -0.111376459533E+04   -0.71096E+01   -0.22847E+02  6342   0.275E+03-0.354E+03
CGA:  35    -0.112181078558E+04   -0.80462E+01   -0.58610E+01  6342   0.198E+03-0.367E+03
CGA:  36    -0.112250837576E+04   -0.69759E+00   -0.44500E+01  6342   0.261E+03-0.207E+03
CGA:  37    -0.111965046814E+04    0.28579E+01   -0.71157E+01  6342   0.523E+03-0.292E+03
CGA:  38    -0.111710891247E+04    0.25416E+01   -0.14466E+02  6342   0.562E+03-0.425E+03
CGA:  39    -0.111709883512E+04    0.10077E-01   -0.15376E+02  6342   0.512E+03-0.467E+03
CGA:  40    -0.111943904017E+04   -0.23402E+01   -0.13711E+02  6342   0.481E+03-0.517E+03
CGA:  41    -0.112297105004E+04   -0.35320E+01   -0.13015E+02  6342   0.250E+03-0.305E+03
CGA:  42    -0.112646259614E+04   -0.34915E+01   -0.57752E+01  6342   0.655E+01-0.991E+01
CGA:  43    -0.112675596832E+04   -0.29337E+00   -0.32623E+00  6342   0.166E+01 0.118E+01
CGA:  44    -0.112705242744E+04   -0.29646E+00   -0.26293E+00  6342   0.198E+01 0.358E+00
CGA:  45    -0.112731126344E+04   -0.25884E+00   -0.24905E+00  6342   0.494E+00 0.238E+00
CGA:  46    -0.112734621885E+04   -0.34955E-01   -0.34231E-01  6342   0.124E+01-0.571E-01
CGA:  47    -0.112735038069E+04   -0.41618E-02   -0.20005E-02  6342   0.125E+01 0.104E+01
CGA:  48    -0.112738757397E+04   -0.37193E-01   -0.40719E-01  6342   0.532E+00-0.192E+00
CGA:  49    -0.112709503393E+04    0.29254E+00   -0.13699E+00  6342   0.257E+02-0.379E+01
CGA:  50    -0.112747627919E+04   -0.38125E+00   -0.97033E+00  6342   0.252E+01-0.419E+01
CGA:  51    -0.112757267573E+04   -0.96397E-01   -0.72406E-01  6342   0.211E+00 0.572E+00
CGA:  52    -0.112758080368E+04   -0.81280E-02   -0.81118E-02  6342   0.132E+00 0.361E-01
CGA:  53    -0.112759183551E+04   -0.11032E-01   -0.15216E-01  6342   0.739E+00-0.112E+00
CGA:  54    -0.112761812069E+04   -0.26285E-01   -0.30801E-01  6342   0.135E+00-0.943E-01
CGA:  55    -0.112763170634E+04   -0.13586E-01   -0.13495E-01  6342   0.164E+00 0.313E-02
CGA:  56    -0.112752474497E+04    0.10696E+00   -0.26710E-01  6342   0.841E+01-0.127E+01
CGA:  57    -0.112767932275E+04   -0.15458E+00   -0.55198E+00  6342   0.619E+00-0.738E+00
CGA:  58    -0.112772607484E+04   -0.46752E-01   -0.36656E-01  6342   0.633E-01 0.145E+00
CGA:  59    -0.112773193393E+04   -0.58591E-02   -0.53634E-02  6342   0.469E-01 0.115E-01
CGA:  60    -0.112773793238E+04   -0.59985E-02   -0.59402E-02  6342   0.878E-01-0.446E-02
CGA:  61    -0.112774841911E+04   -0.10487E-01   -0.10762E-01  6342   0.111E+00-0.235E-01
CGA:  62    -0.112776046947E+04   -0.12050E-01   -0.35500E-01  6342   0.241E+00-0.762E-01
CGA:  63    -0.112780326717E+04   -0.42798E-01   -0.42916E-01  6342   0.205E-01-0.607E-02
CGA:  64    -0.112780947962E+04   -0.62125E-02   -0.97253E-02  6342   0.256E-01-0.100E-01
CGA:  65    -0.112781300918E+04   -0.35296E-02   -0.34138E-02  6342   0.157E-01 0.129E-02
CGA:  66    -0.112781692691E+04   -0.39177E-02   -0.37334E-02  6342   0.944E-02 0.288E-02
CGA:  67    -0.112782035854E+04   -0.34316E-02   -0.32909E-02  6342   0.654E-02 0.124E-02
CGA:  68    -0.112782358913E+04   -0.32306E-02   -0.32304E-02  6342   0.108E-01 0.685E-04
CGA:  69    -0.112782847665E+04   -0.48875E-02   -0.52530E-02  6342   0.208E-01-0.125E-02
CGA:  70    -0.112783605330E+04   -0.75766E-02   -0.96679E-02  6342   0.433E-01-0.606E-02
CGA:  71    -0.112784115759E+04   -0.51043E-02   -0.40857E-02  6342   0.510E-01 0.243E-02
CGA:  72    -0.112785309859E+04   -0.11941E-01   -0.12076E-01  6342   0.543E-01-0.927E-02
CGA:  73    -0.112785911486E+04   -0.60163E-02   -0.57218E-02  6342   0.364E-01-0.932E-02
CGA:  74    -0.112786555716E+04   -0.64423E-02   -0.64670E-02  6342   0.279E-01-0.359E-02
CGA:  75    -0.112786984376E+04   -0.42866E-02   -0.43025E-02  6342   0.164E-01 0.129E-03
CGA:  76    -0.112787406949E+04   -0.42257E-02   -0.43239E-02  6342   0.200E-01-0.210E-02
CGA:  77    -0.112787860237E+04   -0.45329E-02   -0.73577E-02  6342   0.364E-01-0.134E-01
CGA:  78    -0.112789020667E+04   -0.11604E-01   -0.11192E-01  6342   0.104E-01 0.470E-02
CGA:  79    -0.112789635278E+04   -0.61461E-02   -0.62101E-02  6342   0.131E-01-0.145E-03
CGA:  80    -0.112790486500E+04   -0.85122E-02   -0.81597E-02  6342   0.193E-01 0.951E-03
CGA:  81    -0.112791539866E+04   -0.10534E-01   -0.90212E-02  6342   0.145E-01 0.874E-02
CGA:  82    -0.112793080221E+04   -0.15404E-01   -0.14185E-01  6342   0.206E-01 0.321E-02
CGA:  83    -0.112794305185E+04   -0.12250E-01   -0.12888E-01  6342   0.350E-01-0.255E-02
CGA:  84    -0.112795669117E+04   -0.13639E-01   -0.13678E-01  6342   0.381E-01 0.167E-03
CGA:  85    -0.112796937488E+04   -0.12684E-01   -0.12652E-01  6342   0.398E-01 0.155E-02
CGA:  86    -0.112798633507E+04   -0.16960E-01   -0.17179E-01  6342   0.407E-01-0.181E-02
CGA:  87    -0.112799993229E+04   -0.13597E-01   -0.13597E-01  6342   0.466E-01 0.137E-02
CGA:  88    -0.112801341837E+04   -0.13486E-01   -0.13745E-01  6342   0.363E-01 0.896E-02
CGA:  89    -0.112802448140E+04   -0.11063E-01   -0.11464E-01  6342   0.322E-01 0.858E-02
CGA:  90    -0.112803950731E+04   -0.15026E-01   -0.14571E-01  6342   0.315E-01 0.664E-02
CGA:  91    -0.112805584495E+04   -0.16338E-01   -0.16369E-01  6342   0.530E-01-0.144E-02
CGA:  92    -0.112807496356E+04   -0.19119E-01   -0.19484E-01  6342   0.639E-01-0.779E-02
CGA:  93    -0.112808804517E+04   -0.13082E-01   -0.12038E-01  6342   0.532E-01-0.735E-02
CGA:  94    -0.112810088103E+04   -0.12836E-01   -0.12199E-01  6342   0.556E-01-0.990E-02
CGA:  95    -0.112810990131E+04   -0.90203E-02   -0.77330E-02  6342   0.372E-01-0.739E-02
CGA:  96    -0.112811603510E+04   -0.61338E-02   -0.54512E-02  6342   0.314E-01-0.475E-02
CGA:  97    -0.112812140751E+04   -0.53724E-02   -0.51274E-02  6342   0.318E-01-0.222E-02
CGA:  98    -0.112812615587E+04   -0.47484E-02   -0.48420E-02  6342   0.264E-01 0.349E-03
CGA:  99    -0.112813077636E+04   -0.46205E-02   -0.48415E-02  6342   0.289E-01 0.157E-02
CGA: 100    -0.112813827988E+04   -0.75035E-02   -0.75546E-02  6342   0.420E-01 0.972E-03
CGA: 101    -0.112814886054E+04   -0.10581E-01   -0.10487E-01  6342   0.502E-01-0.297E-02
CGA: 102    -0.112815997290E+04   -0.11112E-01   -0.10752E-01  6342   0.637E-01-0.830E-02
CGA: 103    -0.112817152204E+04   -0.11549E-01   -0.10569E-01  6342   0.737E-01-0.119E-01
CGA: 104    -0.112818100271E+04   -0.94807E-02   -0.81875E-02  6342   0.619E-01-0.767E-02
CGA: 105    -0.112818813405E+04   -0.71313E-02   -0.68956E-02  6342   0.479E-01-0.350E-02
CGA: 106    -0.112819400882E+04   -0.58748E-02   -0.58608E-02  6342   0.419E-01-0.759E-04
CGA: 107    -0.112819919931E+04   -0.51905E-02   -0.53146E-02  6342   0.350E-01 0.113E-02
SDA: 108    -0.112820320019E+04   -0.40009E-02   -0.42514E-02  6342   0.266E-01 0.161E-02
CGA: 109    -0.112821767521E+04   -0.14475E-01   -0.13742E-01  6342   0.238E-01 0.275E-02
CGA: 110    -0.112823131842E+04   -0.13643E-01   -0.12035E-01  6342   0.145E-01 0.790E-02
CGA: 111    -0.112825314520E+04   -0.21827E-01   -0.22049E-01  6342   0.317E-01-0.703E-04
CGA: 112    -0.112827018115E+04   -0.17036E-01   -0.19651E-01  6342   0.292E-01-0.796E-02
CGA: 113    -0.112827978039E+04   -0.95992E-02   -0.97264E-02  6342   0.202E-01-0.850E-03
CGA: 114    -0.112828858279E+04   -0.88024E-02   -0.88305E-02  6342   0.162E-01-0.107E-02
CGA: 115    -0.112828833553E+04    0.24726E-03   -0.13660E-01  6342   0.588E-01-0.260E-01
CGA: 116    -0.112830307634E+04   -0.14741E-01   -0.16477E-01  6342   0.106E-01 0.761E-02
CGA: 117    -0.112831028758E+04   -0.72112E-02   -0.93830E-02  6342   0.188E-01-0.461E-02
CGA: 118    -0.112831274230E+04   -0.24547E-02   -0.25542E-02  6342   0.188E-01 0.471E-03
CGA: 119    -0.112831948505E+04   -0.67427E-02   -0.67947E-02  6342   0.122E-01 0.212E-02
CGA: 120    -0.112832543427E+04   -0.59492E-02   -0.60016E-02  6342   0.755E-02-0.597E-03
CGA: 121    -0.112832902300E+04   -0.35887E-02   -0.40147E-02  6342   0.740E-02-0.221E-02
CGA: 122    -0.112833083923E+04   -0.18162E-02   -0.18096E-02  6342   0.505E-02-0.152E-03
CGA: 123    -0.112833295078E+04   -0.21116E-02   -0.22215E-02  6342   0.391E-02-0.166E-02
CGA: 124    -0.112833504811E+04   -0.20973E-02    0.14952E-01  6342   0.336E-02-0.912E-03
CGA: 125    -0.112833246718E+04    0.25809E-02   -0.34554E-02  6342   0.240E-01-0.624E-02
CGA: 126    -0.112833739319E+04   -0.49260E-02   -0.59778E-02  6342   0.390E-02 0.527E-02
CGA: 127    -0.112833871744E+04   -0.13242E-02   -0.14847E-02  6342   0.136E-02 0.141E-02
CGA: 128    -0.112833948665E+04   -0.76921E-03   -0.76992E-03  6342   0.103E-02 0.398E-03
CGA: 129    -0.112833970762E+04   -0.22097E-03   -0.35275E-03  6342   0.821E-03 0.856E-03
CGA: 130    -0.112834004267E+04   -0.33505E-03   -0.33593E-03  6342   0.464E-03 0.376E-03
CGA: 131    -0.112834071044E+04   -0.66777E-03    0.69706E-03  6342   0.394E-03 0.465E-03
CGA: 132    -0.112834105179E+04   -0.34135E-03   -0.27025E-03  6342   0.341E-03 0.258E-03
CGA: 133    -0.112834122870E+04   -0.17691E-03   -0.16353E-03  6342   0.302E-03 0.247E-03
CGA: 134    -0.112834154749E+04   -0.31879E-03    0.27708E-03  6342   0.276E-03 0.243E-03
CGA: 135    -0.112834162301E+04   -0.75525E-04   -0.95578E-04  6342   0.255E-03 0.246E-03
CGA: 136    -0.112834188731E+04   -0.26430E-03    0.24056E-03  6342   0.246E-03 0.241E-03
CGA: 137    -0.112834198786E+04   -0.10055E-03   -0.10235E-03  6342   0.240E-03 0.232E-03
CGA: 138    -0.112834226108E+04   -0.27322E-03    0.14680E-03  6342   0.236E-03 0.224E-03
CGA: 139    -0.112834231017E+04   -0.49093E-04   -0.73731E-04  6342   0.228E-03 0.221E-03
CGA: 140    -0.112834255343E+04   -0.24325E-03    0.17315E-03  6342   0.227E-03 0.219E-03
CGA: 141    -0.112834262573E+04   -0.72308E-04   -0.83217E-04  6342   0.225E-03 0.215E-03
CGA: 142    -0.112834288117E+04   -0.25544E-03    0.12662E-03  6342   0.227E-03 0.211E-03
CGA: 143    -0.112834292191E+04   -0.40737E-04   -0.66550E-04  6342   0.221E-03 0.212E-03
CGA: 144    -0.112834315463E+04   -0.23272E-03    0.15756E-03  6342   0.224E-03 0.212E-03
CGA: 145    -0.112834322328E+04   -0.68655E-04   -0.79724E-04  6342   0.225E-03 0.210E-03
CGA: 146    -0.112834347373E+04   -0.25044E-03    0.12279E-03  6342   0.231E-03 0.208E-03
CGA: 147    -0.112834351424E+04   -0.40513E-04   -0.65985E-04  6342   0.225E-03 0.210E-03
CGA: 148    -0.112834374471E+04   -0.23047E-03    0.16092E-03  6342   0.231E-03 0.212E-03
CGA: 149    -0.112834381864E+04   -0.73924E-04   -0.82826E-04  6342   0.236E-03 0.209E-03
CGA: 150    -0.112834406990E+04   -0.25127E-03    0.14022E-03  6342   0.252E-03 0.204E-03
CGA: 151    -0.112834411675E+04   -0.46843E-04   -0.70861E-04  6342   0.240E-03 0.206E-03
CGA: 152    -0.112834434622E+04   -0.22947E-03    0.21448E-03  6342   0.256E-03 0.208E-03
CGA: 153    -0.112834443388E+04   -0.87663E-04   -0.93204E-04  6342   0.274E-03 0.195E-03
CGA: 154    -0.112834467884E+04   -0.24495E-03    0.37995E-03  6342   0.324E-03 0.170E-03
CGA: 155    -0.112834474384E+04   -0.65001E-04   -0.86489E-04  6342   0.277E-03 0.174E-03
CGA: 156    -0.112834495876E+04   -0.21492E-03    0.63431E-02  6342   0.323E-03 0.178E-03
CGA: 157    -0.112834506856E+04   -0.10980E-03   -0.11405E-03  6342   0.371E-03 0.135E-03
CGA: 158    -0.112834768341E+04   -0.26148E-02    0.12709E-01  6342   0.353E-03 0.554E-03
CGA: 159    -0.112834836971E+04   -0.68631E-03    0.31434E-03  6342   0.851E-03 0.131E-03
CGA: 160    -0.112835107237E+04   -0.27027E-02   -0.19532E-02  6342   0.252E-02 0.774E-03
CGA: 161    -0.112835212269E+04   -0.10503E-02   -0.68058E-03  6342   0.130E-02-0.725E-03
CGA: 162    -0.112835293511E+04   -0.81242E-03   -0.80710E-03  6342   0.150E-02 0.289E-04
CGA: 163    -0.112835407700E+04   -0.11419E-02   -0.11367E-02  6342   0.214E-02 0.576E-03
CGA: 164    -0.112835644574E+04   -0.23687E-02   -0.45637E-02  6342   0.313E-01-0.275E-02
CGA: 165    -0.112836056569E+04   -0.41199E-02   -0.52599E-02  6342   0.226E-02 0.293E-02
CGA: 166    -0.112836125376E+04   -0.68807E-03   -0.83811E-03  6342   0.970E-03 0.375E-03
CGA: 167    -0.112836183391E+04   -0.58014E-03   -0.12612E-02  6342   0.104E-01-0.173E-02
CGA: 168    -0.112836297381E+04   -0.11399E-02   -0.19393E-02  6342   0.139E-02 0.153E-02
CGA: 169    -0.112836348890E+04   -0.51508E-03   -0.60650E-03  6342   0.839E-03 0.274E-03
CGA: 170    -0.112372214022E+04    0.46413E+01    0.64080E+00  6342   0.775E+01-0.159E+00
CGA: 171    -0.112702502210E+04   -0.33029E+01   -0.49585E+01  6342   0.533E+01-0.155E+01
CGA: 172    -0.112670130788E+04    0.32371E+00   -0.18957E+00  6342   0.450E+01 0.388E+01
CGA: 173    -0.112714792128E+04   -0.44661E+00   -0.41058E+00  6342   0.248E+01 0.356E+01
CGA: 174    -0.112732697435E+04   -0.17905E+00   -0.23886E+00  6342   0.111E+01 0.109E+01
CGA: 175    -0.112708784431E+04    0.23913E+00   -0.96604E-01  6342   0.202E+01 0.105E+01
CGA: 176    -0.112824871402E+04   -0.11609E+01   -0.10084E+01  6342   0.434E+00-0.121E+00
CGA: 177    -0.112829764173E+04   -0.48928E-01   -0.14536E+00  6342   0.154E+00-0.106E-01
CGA: 178    -0.112835370431E+04   -0.56063E-01   -0.72473E-01  6342   0.357E-01-0.207E-02
CGA: 179    -0.112836770162E+04   -0.13997E-01   -0.15365E-01  6342   0.135E-01-0.104E-02
CGA: 180    -0.112837468859E+04   -0.69870E-02   -0.54305E-02  6342   0.379E-02-0.101E-02
CGA: 181    -0.112837578226E+04   -0.10937E-02   -0.12835E-02  6342   0.143E-02 0.392E-03
CGA: 182    -0.112837673942E+04   -0.95716E-03   -0.98551E-03  6342   0.224E-02-0.227E-03
CGA: 183    -0.112837819146E+04   -0.14520E-02   -0.11397E-02  6342   0.286E-02-0.973E-04
CGA: 184    -0.112837878072E+04   -0.58927E-03   -0.77439E-03  6342   0.262E-02 0.136E-02
CGA: 185    -0.112837944848E+04   -0.66775E-03   -0.11021E-02  6342   0.230E-02 0.149E-02
CGA: 186    -0.112772489200E+04    0.65456E+00   -0.39340E-02  6342   0.243E+00-0.135E-01
CGA: 187    -0.112758655994E+04    0.13833E+00   -0.12042E+00  6342   0.112E+01-0.438E+00
CGA: 188    -0.112767143108E+04   -0.84871E-01   -0.40627E-01  6342   0.974E+00 0.129E+01
CGA: 189    -0.112773089346E+04   -0.59462E-01   -0.31661E-01  6342   0.554E+00 0.789E+00
CGA: 190    -0.112777222516E+04   -0.41332E-01   -0.27148E-01  6342   0.178E+00 0.285E+00
CGA: 191    -0.112828196015E+04   -0.50973E+00    0.61150E-01  6342   0.618E+00-0.265E+00
CGA: 192    -0.112838357914E+04   -0.10162E+00   -0.11320E+00  6342   0.418E-02-0.186E-01
CGA: 193    -0.112838566810E+04   -0.20890E-02   -0.18995E-02  6342   0.381E-02-0.850E-03
CGA: 194    -0.112838733076E+04   -0.16627E-02   -0.15783E-02  6342   0.228E-02-0.574E-03
CGA: 195    -0.112838871792E+04   -0.13872E-02   -0.13861E-02  6342   0.281E-02 0.168E-04
CGA: 196    -0.112839084275E+04   -0.21248E-02   -0.21320E-02  6342   0.516E-02-0.101E-03
CGA: 197    -0.112839522150E+04   -0.43787E-02   -0.42740E-02  6342   0.681E-02 0.674E-03
CGA: 198    -0.112840438701E+04   -0.91655E-02   -0.10256E-01  6342   0.197E-01-0.198E-02
CGA: 199    -0.112841236253E+04   -0.79755E-02   -0.77292E-02  6342   0.206E-01-0.113E-02
CGA: 200    -0.112842121923E+04   -0.88567E-02   -0.90180E-02  6342   0.199E-01 0.884E-03
   1 F= -.11284212E+04 E0= -.11284212E+04  d E =-.112842E+04  mag=    65.0000
       N       E                     dE             d eps       ncg     rms          ort
SDA:   1    -0.112791417184E+04    0.49819E+00    0.00000E+00  6342   0.143E+01 0.000E+00
CGA:   2    -0.112829591791E+04   -0.38175E+00   -0.38312E+00  6342   0.574E+00 0.162E-02
CGA:   3    -0.112839633625E+04   -0.10042E+00   -0.10005E+00  6342   0.165E+00 0.112E-02
CGA:   4    -0.112842931758E+04   -0.32981E-01   -0.32977E-01  6342   0.310E-01-0.311E-04
CGA:   5    -0.112843485697E+04   -0.55394E-02   -0.55047E-02  6342   0.896E-02-0.940E-04
CGA:   6    -0.112843702554E+04   -0.21686E-02   -0.20977E-02  6342   0.336E-02-0.201E-03
CGA:   7    -0.112843786476E+04   -0.83922E-03   -0.85549E-03  6342   0.169E-02 0.497E-04
CGA:   8    -0.112843836209E+04   -0.49733E-03   -0.54575E-03  6342   0.119E-02 0.198E-03
CGA:   9    -0.112843899215E+04   -0.63006E-03   -0.63468E-03  6342   0.148E-02 0.590E-04
CGA:  10    -0.112843991946E+04   -0.92730E-03   -0.93030E-03  6342   0.262E-02-0.704E-04
CGA:  11    -0.112844153628E+04   -0.16168E-02   -0.16085E-02  6342   0.455E-02 0.190E-04
CGA:  12    -0.112844453397E+04   -0.29977E-02   -0.30471E-02  6342   0.731E-02-0.598E-03
CGA:  13    -0.112844763507E+04   -0.31011E-02   -0.29094E-02  6342   0.592E-02-0.160E-02
CGA:  14    -0.112844902399E+04   -0.13889E-02   -0.12381E-02  6342   0.298E-02-0.356E-03
CGA:  15    -0.112844972424E+04   -0.70025E-03   -0.71543E-03  6342   0.173E-02 0.550E-04
CGA:  16    -0.112845019515E+04   -0.47091E-03   -0.52269E-03  6342   0.137E-02 0.216E-03
CGA:  17    -0.112845065438E+04   -0.45923E-03   -0.51139E-03  6342   0.132E-02 0.278E-03
CGA:  18    -0.112845128912E+04   -0.63474E-03   -0.65818E-03  6342   0.163E-02 0.261E-03
CGA:  19    -0.112845222100E+04   -0.93189E-03   -0.93210E-03  6342   0.209E-02 0.337E-04
CGA:  20    -0.112845316947E+04   -0.94847E-03   -0.92551E-03  6342   0.232E-02-0.288E-03
CGA:  21    -0.112845381358E+04   -0.64411E-03   -0.61195E-03  6342   0.176E-02-0.168E-03
CGA:  22    -0.112845423157E+04   -0.41799E-03   -0.41283E-03  6342   0.103E-02-0.910E-05
CGA:  23    -0.112845447151E+04   -0.23994E-03   -0.24986E-03  6342   0.592E-03 0.453E-04
CGA:  24    -0.112845462442E+04   -0.15291E-03   -0.15654E-03  6342   0.346E-03 0.173E-04
CGA:  25    -0.112845473321E+04   -0.10879E-03   -0.10502E-03  6342   0.250E-03-0.239E-04
CGA:  26    -0.112845482842E+04   -0.95213E-04   -0.91580E-04  6342   0.271E-03-0.730E-04
CGA:  27    -0.112845491418E+04   -0.85761E-04   -0.88562E-04  6342   0.420E-03-0.132E-03
CGA:  28    -0.112845499167E+04   -0.77485E-04   -0.62686E-04  6342   0.546E-03-0.938E-04
CGA:  29    -0.112845512485E+04   -0.13318E-03   -0.12827E-03  6342   0.624E-03-0.272E-04
CGA:  30    -0.112845527673E+04   -0.15188E-03   -0.16452E-03  6342   0.670E-03 0.935E-04
CGA:  31    -0.112845546351E+04   -0.18679E-03   -0.21198E-03  6342   0.636E-03 0.178E-03
SDA:  32    -0.112845567378E+04   -0.21027E-03   -0.23189E-03  6342   0.547E-03 0.177E-03
CGA:  33    -0.112845605594E+04   -0.38216E-03   -0.45774E-03  6342   0.673E-03-0.175E-03
CGA:  34    -0.112845623809E+04   -0.18215E-03   -0.18378E-03  6342   0.346E-03 0.642E-04
CGA:  35    -0.112845639004E+04   -0.15195E-03   -0.15252E-03  6342   0.164E-03 0.235E-04
CGA:  36    -0.112845647924E+04   -0.89195E-04   -0.14044E-03  6342   0.316E-03-0.135E-03
CGA:  37    -0.112845656872E+04   -0.89487E-04   -0.95327E-04  6342   0.573E-04 0.408E-04
CGA:  38    -0.112845664093E+04   -0.72205E-04    0.51318E-04  6342   0.262E-04 0.125E-04
CGA:  39    -0.112845667257E+04   -0.31641E-04   -0.49802E-04  6342   0.134E-03-0.159E-04
CGA:  40    -0.112845671278E+04   -0.40209E-04   -0.40213E-04  6342   0.252E-04 0.125E-06
CGA:  41    -0.112845672265E+04   -0.98657E-05   -0.10292E-04  6342   0.115E-04 0.573E-05
CGA:  42    -0.112845673723E+04   -0.14587E-04    0.46827E-04  6342   0.957E-05 0.566E-05
CGA:  43    -0.112845675353E+04   -0.16299E-04    0.18107E-04  6342   0.928E-05 0.109E-04
CGA:  44    -0.112845675964E+04   -0.61120E-05   -0.63245E-05  6342   0.146E-04-0.104E-05
CGA:  45    -0.112845677109E+04   -0.11447E-04   -0.14379E-04  6342   0.415E-04-0.458E-05
CGA:  46    -0.112845678008E+04   -0.89892E-05   -0.10711E-04  6342   0.329E-04 0.121E-04
CGA:  47    -0.112845680215E+04   -0.22073E-04   -0.22146E-04  6342   0.475E-04-0.884E-05
CGA:  48    -0.112845681996E+04   -0.17812E-04   -0.17202E-04  6342   0.406E-04-0.317E-04
CGA:  49    -0.112845682154E+04   -0.15712E-05   -0.79927E-05  6342   0.121E-04 0.203E-04
CGA:  50    -0.112845682317E+04   -0.16327E-05   -0.15618E-04  6342   0.346E-04-0.176E-04
   2 F= -.11284568E+04 E0= -.11284568E+04  d E =-.356039E-01  mag=    65.0000
       N       E                     dE             d eps       ncg     rms          ort
SDA:   1    -0.112845550347E+04    0.13181E-02    0.00000E+00  6342   0.609E-02 0.000E+00
CGA:   2    -0.112845719778E+04   -0.16943E-02   -0.16636E-02  6342   0.249E-02-0.124E-03
CGA:   3    -0.112845758414E+04   -0.38636E-03   -0.40485E-03  6342   0.726E-03 0.530E-04
CGA:   4    -0.112845771758E+04   -0.13344E-03   -0.13955E-03  6342   0.150E-03 0.200E-04
CGA:   5    -0.112845773872E+04   -0.21145E-04   -0.23854E-04  6342   0.355E-04 0.834E-05
CGA:   6    -0.112845773899E+04   -0.26546E-06   -0.51808E-05  6342   0.109E-04 0.152E-04
   3 F= -.11284577E+04 E0= -.11284577E+04  d E =-.365198E-01  mag=    65.0000
       N       E                     dE             d eps       ncg     rms          ort
SDA:   1    -0.112836640787E+04    0.91331E-01    0.00000E+00  6342   0.261E+00 0.000E+00
CGA:   2    -0.112843716464E+04   -0.70757E-01   -0.70595E-01  6342   0.101E+00-0.103E-02
CGA:   3    -0.112845469629E+04   -0.17532E-01   -0.17643E-01  6342   0.303E-01 0.416E-03
CGA:   4    -0.112846069949E+04   -0.60032E-02   -0.60209E-02  6342   0.539E-02 0.841E-04
CGA:   5    -0.112846161230E+04   -0.91281E-03   -0.93840E-03  6342   0.142E-02 0.113E-03
CGA:   6    -0.112846187604E+04   -0.26374E-03   -0.29287E-03  6342   0.391E-03 0.157E-03
CGA:   7    -0.112846198677E+04   -0.11073E-03   -0.11126E-03  6342   0.163E-03 0.438E-05
CGA:   8    -0.112846205248E+04   -0.65709E-04   -0.80993E-04  6342   0.261E-03-0.129E-03
CGA:   9    -0.112846207320E+04   -0.20714E-04   -0.34570E-04  6342   0.343E-04 0.563E-04
CGA:  10    -0.112846207369E+04   -0.48862E-06   -0.53575E-05  6342   0.145E-04 0.205E-04
   4 F= -.11284621E+04 E0= -.11284621E+04  d E =-.408545E-01  mag=    65.0000
       N       E                     dE             d eps       ncg     rms          ort
SDA:   1    -0.112840885890E+04    0.53214E-01    0.00000E+00  6342   0.149E+00 0.000E+00
CGA:   2    -0.112844932134E+04   -0.40462E-01   -0.40381E-01  6342   0.584E-01-0.920E-03
CGA:   3    -0.112845926404E+04   -0.99427E-02   -0.10018E-01  6342   0.174E-01 0.395E-03
CGA:   4    -0.112846269213E+04   -0.34281E-02   -0.34424E-02  6342   0.319E-02 0.953E-04
CGA:   5    -0.112846322715E+04   -0.53503E-03   -0.54950E-03  6342   0.817E-03 0.857E-04
CGA:   6    -0.112846337083E+04   -0.14368E-03   -0.16238E-03  6342   0.225E-03 0.135E-03
CGA:   7    -0.112846343413E+04   -0.63298E-04   -0.64562E-04  6342   0.101E-03 0.161E-04
CGA:   8    -0.112846344548E+04   -0.11354E-04   -0.78199E-04  6342   0.469E-03-0.166E-03
CGA:   9    -0.112846349139E+04   -0.45901E-04   -0.63003E-04  6342   0.603E-04 0.827E-04
CGA:  10    -0.112846349567E+04   -0.42807E-05   -0.10371E-04  6342   0.255E-04 0.330E-04
CGA:  11    -0.112846350748E+04   -0.11818E-04   -0.18506E-04  6342   0.710E-04-0.165E-04
CGA:  12    -0.112846351126E+04   -0.37750E-05   -0.85666E-05  6342   0.100E-04 0.217E-04
   5 F= -.11284635E+04 E0= -.11284635E+04  d E =-.422920E-01  mag=    65.0000
       N       E                     dE             d eps       ncg     rms          ort
SDA:   1    -0.112845767864E+04    0.58288E-02    0.00000E+00  6342   0.162E-01 0.000E+00
CGA:   2    -0.112846216199E+04   -0.44833E-02   -0.44673E-02  6342   0.648E-02-0.366E-03
CGA:   3    -0.112846321087E+04   -0.10489E-02   -0.10722E-02  6342   0.183E-02 0.156E-03
CGA:   4    -0.112846357369E+04   -0.36282E-03   -0.36824E-03  6342   0.332E-03 0.477E-04
CGA:   5    -0.112846362639E+04   -0.52699E-04   -0.56729E-04  6342   0.891E-04 0.292E-04
CGA:   6    -0.112846363524E+04   -0.88504E-05   -0.14469E-04  6342   0.306E-04 0.378E-04
   6 F= -.11284636E+04 E0= -.11284636E+04  d E =-.424160E-01  mag=    65.0000
       N       E                     dE             d eps       ncg     rms          ort
SDA:   1    -0.112846240728E+04    0.12191E-02    0.00000E+00  6342   0.343E-02 0.000E+00
CGA:   2    -0.112846336779E+04   -0.96051E-03   -0.95971E-03  6342   0.146E-02-0.195E-03
CGA:   3    -0.112846357773E+04   -0.20995E-03   -0.21884E-03  6342   0.386E-03 0.712E-04
CGA:   4    -0.112846365392E+04   -0.76183E-04   -0.79103E-04  6342   0.776E-04 0.356E-04
CGA:   5    -0.112846366640E+04   -0.12486E-04   -0.13643E-04  6342   0.267E-04 0.103E-04
CGA:   6    -0.112846366729E+04   -0.88289E-06   -0.35419E-05  6342   0.137E-04 0.176E-04
   7 F= -.11284637E+04 E0= -.11284637E+04  d E =-.424481E-01  mag=    65.0000
       N       E                     dE             d eps       ncg     rms          ort
SDA:   1    -0.112846355277E+04    0.11363E-03    0.00000E+00  6342   0.372E-03 0.000E+00
CGA:   2    -0.112846364029E+04   -0.87515E-04   -0.88445E-04  6342   0.127E-03 0.562E-04
CGA:   3    -0.112846367778E+04   -0.37490E-04   -0.37692E-04  6342   0.924E-04-0.371E-04
CGA:   4    -0.112846368529E+04   -0.75125E-05   -0.84477E-05  6342   0.275E-04 0.750E-05
   8 F= -.11284637E+04 E0= -.11284637E+04  d E =-.424661E-01  mag=    65.0000
       N       E                     dE             d eps       ncg     rms          ort
SDA:   1    -0.112846347046E+04    0.20732E-03    0.00000E+00  6342   0.665E-03 0.000E+00
CGA:   2    -0.112846362848E+04   -0.15803E-03   -0.15821E-03  6342   0.195E-03 0.655E-04
CGA:   3    -0.112846368531E+04   -0.56825E-04   -0.58035E-04  6342   0.126E-03-0.406E-04
CGA:   4    -0.112846369761E+04   -0.12304E-04   -0.13587E-04  6342   0.298E-04 0.120E-04
CGA:   5    -0.112846370199E+04   -0.43795E-05   -0.46010E-05  6342   0.123E-04 0.230E-05
   9 F= -.11284637E+04 E0= -.11284637E+04  d E =-.424828E-01  mag=    65.0000
       N       E                     dE             d eps       ncg     rms          ort
SDA:   1    -0.112846372111E+04   -0.23497E-04    0.00000E+00  6342   0.181E-04 0.000E+00
CGA:   2    -0.112846372123E+04   -0.11893E-06   -0.15701E-05  6342   0.786E-05 0.998E-05
CGA:   3    -0.112846372095E+04    0.27614E-06   -0.62624E-06  6342   0.532E-05 0.622E-05
CGA:   4    -0.112846372077E+04    0.17945E-06   -0.44569E-06  6342   0.423E-05 0.467E-05
  10 F= -.11284637E+04 E0= -.11284637E+04  d E =-.425015E-01  mag=    65.0000
       N       E                     dE             d eps       ncg     rms          ort
SDA:   1    -0.112846372463E+04   -0.36784E-05    0.00000E+00  6342   0.581E-05 0.000E+00
CGA:   2    -0.112846372797E+04   -0.33348E-05    0.14902E-05  6342   0.384E-05 0.335E-05
CGA:   3    -0.112846372792E+04    0.42790E-07   -0.33955E-06  6342   0.313E-05 0.327E-05
CGA:   4    -0.112846372899E+04   -0.10636E-05   -0.85390E-06  6342   0.274E-05 0.284E-05
CGA:   5    -0.112846373526E+04   -0.62737E-05   -0.11535E-04  6342   0.484E-05 0.215E-05
  11 F= -.11284637E+04 E0= -.11284637E+04  d E =-.425160E-01  mag=    65.0000
       N       E                     dE             d eps       ncg     rms          ort
SDA:   1    -0.112846373902E+04   -0.10029E-04    0.00000E+00  6342   0.269E-05 0.000E+00
CGA:   2    -0.112846374057E+04   -0.15492E-05   -0.14209E-05  6342   0.776E-05 0.728E-06
CGA:   3    -0.112846374727E+04   -0.67043E-05   -0.70013E-05  6342   0.428E-04-0.102E-05
CGA:   4    -0.112846375802E+04   -0.10751E-04   -0.11152E-04  6342   0.554E-04 0.334E-05
CGA:   5    -0.112846376218E+04   -0.41557E-05   -0.87188E-05  6342   0.379E-04 0.184E-04
  12 F= -.11284638E+04 E0= -.11284638E+04  d E =-.425429E-01  mag=    65.0000
       N       E                     dE             d eps       ncg     rms          ort
SDA:   1    -0.112846376783E+04   -0.98041E-05    0.00000E+00  6342   0.260E-04 0.000E+00
CGA:   2    -0.112846377176E+04   -0.39355E-05   -0.35424E-05  6342   0.117E-04-0.180E-05
CGA:   3    -0.112846377537E+04   -0.36087E-05   -0.35401E-05  6342   0.685E-05-0.365E-05
CGA:   4    -0.112846377516E+04    0.20927E-06   -0.32043E-06  6342   0.259E-05 0.193E-05
  13 F= -.11284638E+04 E0= -.11284638E+04  d E =-.425559E-01  mag=    65.0000
       N       E                     dE             d eps       ncg     rms          ort
SDA:   1    -0.112846377820E+04   -0.28250E-05    0.00000E+00  6342   0.175E-05 0.000E+00
CGA:   2    -0.112846377781E+04    0.38298E-06   -0.53634E-07  6342   0.134E-05 0.154E-05
CGA:   3    -0.112846377751E+04    0.29986E-06   -0.35921E-07  6342   0.111E-05 0.123E-05
CGA:   4    -0.112846377727E+04    0.24505E-06   -0.27201E-07  6342   0.956E-06 0.104E-05
  14 F= -.11284638E+04 E0= -.11284638E+04  d E =-.425580E-01  mag=    65.0000
       N       E                     dE             d eps       ncg     rms          ort
SDA:   1    -0.112846376778E+04    0.97331E-05    0.00000E+00  6342   0.229E-05 0.000E+00
CGA:   2    -0.112846377453E+04   -0.67467E-05    0.64859E-07  6342   0.217E-05-0.932E-06
CGA:   3    -0.112846377795E+04   -0.34245E-05    0.41228E-07  6342   0.155E-05-0.639E-06
CGA:   4    -0.112846377773E+04    0.21848E-06   -0.21131E-07  6342   0.132E-05 0.989E-06
  15 F= -.11284638E+04 E0= -.11284638E+04  d E =-.425585E-01  mag=    65.0000
       N       E                     dE             d eps       ncg     rms          ort
SDA:   1    -0.112846376196E+04    0.15988E-04    0.00000E+00  6342   0.352E-05 0.000E+00
CGA:   2    -0.112846377091E+04   -0.89433E-05    0.96252E-07  6342   0.661E-05-0.371E-05
CGA:   3    -0.112846377101E+04   -0.10101E-06   -0.44325E-06  6342   0.756E-06 0.200E-05
CGA:   4    -0.112846377097E+04    0.32633E-07   -0.51900E-07  6342   0.286E-06 0.478E-06
  16 F= -.11284638E+04 E0= -.11284638E+04  d E =-.425517E-01  mag=    65.0000
       N       E                     dE             d eps       ncg     rms          ort
SDA:   1    -0.112846378028E+04   -0.92773E-05    0.00000E+00  6342   0.121E-05 0.000E+00
CGA:   2    -0.112846378005E+04    0.23245E-06   -0.10332E-07  6342   0.109E-05 0.115E-05
CGA:   3    -0.112846377985E+04    0.20044E-06   -0.82409E-08  6342   0.987E-06 0.103E-05
CGA:   4    -0.112846377968E+04    0.17543E-06   -0.67597E-08  6342   0.908E-06 0.945E-06
  17 F= -.11284638E+04 E0= -.11284638E+04  d E =-.425604E-01  mag=    65.0000
       N       E                     dE             d eps       ncg     rms          ort
SDA:   1    -0.112846375326E+04    0.26592E-04    0.00000E+00  6342   0.654E-05 0.000E+00
CGA:   2    -0.112846376653E+04   -0.13270E-04    0.12843E-06  6342   0.287E-05-0.236E-05
CGA:   3    -0.112846377333E+04   -0.68027E-05    0.17925E-07  6342   0.917E-06 0.120E-06
CGA:   4    -0.112846377324E+04    0.94398E-07   -0.27830E-07  6342   0.657E-06 0.807E-06
  18 F= -.11284638E+04 E0= -.11284638E+04  d E =-.425540E-01  mag=    65.0000
       N       E                     dE             d eps       ncg     rms          ort
SDA:   1    -0.112846376799E+04    0.53448E-05    0.00000E+00  6342   0.569E-06 0.000E+00
CGA:   2    -0.112846376898E+04   -0.98753E-06    0.11010E-07  6342   0.422E-06 0.539E-07
CGA:   3    -0.112846377075E+04   -0.17756E-05    0.35808E-08  6342   0.228E-06 0.296E-06
CGA:   4    -0.112846377158E+04   -0.82597E-06    0.18883E-08  6342   0.147E-06 0.771E-07
  19 F= -.11284638E+04 E0= -.11284638E+04  d E =-.425523E-01  mag=    65.0000
       N       E                     dE             d eps       ncg     rms          ort
SDA:   1    -0.112846111870E+04    0.26521E-02    0.00000E+00  6342   0.720E-02 0.000E+00
CGA:   2    -0.112846312469E+04   -0.20060E-02   -0.20607E-02  6342   0.315E-02-0.453E-03
CGA:   3    -0.112846358347E+04   -0.45878E-03   -0.46142E-03  6342   0.796E-03 0.181E-03
CGA:   4    -0.112846373943E+04   -0.15597E-03   -0.15491E-03  6342   0.143E-03 0.769E-04
CGA:   5    -0.112846376474E+04   -0.25302E-04   -0.25476E-04  6342   0.357E-04 0.192E-04
CGA:   6    -0.112846376601E+04   -0.12782E-05   -0.35072E-05  6342   0.179E-04 0.266E-04
  20 F= -.11284638E+04 E0= -.11284638E+04  d E =-.425468E-01  mag=    65.0000
