       N       E                     dE             d eps       ncg     rms          rms(c)
DAV:   1     0.304571067791E+04    0.30457E+04   -0.25770E+05 11544   0.130E+03
DAV:   2    -0.605060791363E+03   -0.36508E+04   -0.35259E+04 13980   0.297E+02
DAV:   3    -0.863701822795E+03   -0.25864E+03   -0.25601E+03 13968   0.834E+01
DAV:   4    -0.866988587123E+03   -0.32868E+01   -0.32741E+01 14028   0.101E+01
DAV:   5    -0.867046493333E+03   -0.57906E-01   -0.57759E-01 14316   0.124E+00    0.992E+01
DAV:   6    -0.776673281027E+03    0.90373E+02   -0.45010E+02 13428   0.325E+01    0.530E+01
DAV:   7    -0.781149955983E+03   -0.44767E+01   -0.41339E+01 13356   0.115E+01    0.218E+01
DAV:   8    -0.787406781884E+03   -0.62568E+01   -0.24191E+01 14172   0.923E+00    0.178E+01
DAV:   9    -0.789172428253E+03   -0.17656E+01   -0.43461E+01 14748   0.492E+00    0.106E+01
DAV:  10    -0.789320440044E+03   -0.14801E+00   -0.12307E+01 15252   0.438E+00    0.958E+00
DAV:  11    -0.789343048494E+03   -0.22608E-01   -0.11423E+01 14868   0.281E+00    0.732E+00
DAV:  12    -0.789776587197E+03   -0.43354E+00   -0.27260E+00 14700   0.237E+00    0.499E+00
DAV:  13    -0.789926890255E+03   -0.15030E+00   -0.87731E-01 14196   0.159E+00    0.355E+00
DAV:  14    -0.790034456663E+03   -0.10757E+00   -0.59445E-01 14808   0.122E+00    0.361E+00
DAV:  15    -0.790059655331E+03   -0.25199E-01   -0.29748E-01 14520   0.973E-01    0.374E+00
DAV:  16    -0.790053247475E+03    0.64079E-02   -0.25888E-01 14376   0.649E-01    0.330E+00
DAV:  17    -0.790046052414E+03    0.71951E-02   -0.58341E-02 14220   0.527E-01    0.213E+00
DAV:  18    -0.790052329730E+03   -0.62773E-02   -0.26212E-02 13896   0.344E-01    0.130E+00
DAV:  19    -0.790066198120E+03   -0.13868E-01   -0.32858E-02 14160   0.336E-01    0.145E+00
DAV:  20    -0.790073252327E+03   -0.70542E-02   -0.43280E-02 14808   0.364E-01    0.194E+00
DAV:  21    -0.790070646271E+03    0.26061E-02   -0.86259E-02 15552   0.400E-01    0.168E+00
DAV:  22    -0.790070532760E+03    0.11351E-03   -0.98553E-03 14424   0.258E-01    0.112E+00
DAV:  23    -0.790070488946E+03    0.43814E-04   -0.12150E-02 14364   0.226E-01    0.828E-01
DAV:  24    -0.790068788682E+03    0.17003E-02   -0.61790E-03 14472   0.160E-01    0.369E-01
DAV:  25    -0.790069419442E+03   -0.63076E-03   -0.71823E-03 14232   0.945E-02    0.522E-01
DAV:  26    -0.790070111118E+03   -0.69168E-03   -0.79663E-04 14244   0.670E-02    0.441E-01
DAV:  27    -0.790070195567E+03   -0.84449E-04   -0.13415E-03 14208   0.673E-02    0.259E-01
DAV:  28    -0.790070405909E+03   -0.21034E-03   -0.77348E-04 14412   0.537E-02    0.162E-01
DAV:  29    -0.790070539049E+03   -0.13314E-03   -0.33707E-04 13824   0.471E-02    0.122E-01
DAV:  30    -0.790070528848E+03    0.10200E-04   -0.31678E-04 14088   0.327E-02    0.365E-02
DAV:  31    -0.790070552214E+03   -0.23366E-04   -0.53750E-05 12504   0.149E-02    0.497E-02
DAV:  32    -0.790070555305E+03   -0.30912E-05   -0.80160E-06  8184   0.663E-03
   1 F= -.79007056E+03 E0= -.79004756E+03  d E =-.790071E+03  mag=     2.0005
       N       E                     dE             d eps       ncg     rms          rms(c)
DAV:   1    -0.790070650271E+03   -0.98057E-04   -0.25266E-05  9756   0.911E-03    0.346E-02
DAV:   2    -0.790070683030E+03   -0.32759E-04   -0.30709E-04 14052   0.258E-02    0.136E-01
DAV:   3    -0.790070645028E+03    0.38002E-04   -0.15555E-04 11952   0.186E-02    0.231E-02
DAV:   4    -0.790070654123E+03   -0.90955E-05   -0.25625E-05  9144   0.896E-03
   2 F= -.79007065E+03 E0= -.79004772E+03  d E =-.988179E-04  mag=     2.0002
       N       E                     dE             d eps       ncg     rms          rms(c)
DAV:   1    -0.790072492496E+03   -0.18475E-02   -0.19584E-03 11856   0.736E-02    0.403E-02
DAV:   2    -0.790072541138E+03   -0.48642E-04   -0.48926E-04 15696   0.291E-02    0.181E-01
DAV:   3    -0.790072478049E+03    0.63089E-04   -0.25321E-04 13548   0.219E-02    0.222E-02
DAV:   4    -0.790072492197E+03   -0.14148E-04   -0.29575E-05 10056   0.835E-03    0.166E-02
DAV:   5    -0.790072493366E+03   -0.11689E-05   -0.37139E-06  6384   0.432E-03
   3 F= -.79007249E+03 E0= -.79004952E+03  d E =-.183924E-02  mag=     2.0000
       N       E                     dE             d eps       ncg     rms          rms(c)
DAV:   1    -0.790079250289E+03   -0.67581E-02   -0.27857E-02 11808   0.277E-01    0.125E-01
DAV:   2    -0.790079653579E+03   -0.40329E-03   -0.40773E-03 15696   0.898E-02    0.511E-01
DAV:   3    -0.790079166073E+03    0.48751E-03   -0.22487E-03 16032   0.646E-02    0.563E-02
DAV:   4    -0.790079270411E+03   -0.10434E-03   -0.23005E-04 12804   0.258E-02    0.599E-02
DAV:   5    -0.790079271600E+03   -0.11887E-05   -0.50445E-05 11004   0.143E-02
   4 F= -.79007927E+03 E0= -.79005630E+03  d E =-.677823E-02  mag=     2.0000
       N       E                     dE             d eps       ncg     rms          rms(c)
DAV:   1    -0.790092865551E+03   -0.13595E-01   -0.12887E-01 11760   0.596E-01    0.251E-01
DAV:   2    -0.790094486193E+03   -0.16206E-02   -0.16181E-02 15444   0.181E-01    0.101E+00
DAV:   3    -0.790092594658E+03    0.18915E-02   -0.89454E-03 15984   0.129E-01    0.112E-01
DAV:   4    -0.790092968235E+03   -0.37358E-03   -0.90188E-04 12972   0.520E-02    0.122E-01
DAV:   5    -0.790092968190E+03    0.45249E-07   -0.21359E-04 13368   0.291E-02    0.575E-02
DAV:   6    -0.790092965643E+03    0.25468E-05   -0.11908E-04 12996   0.183E-02    0.535E-02
DAV:   7    -0.790092963792E+03    0.18506E-05   -0.25601E-05 10392   0.122E-02
   5 F= -.79009296E+03 E0= -.79007002E+03  d E =-.136922E-01  mag=     1.9999
       N       E                     dE             d eps       ncg     rms          rms(c)
DAV:   1    -0.790109020451E+03   -0.16055E-01   -0.22003E-01 11664   0.778E-01    0.273E-01
DAV:   2    -0.790110854960E+03   -0.18345E-02   -0.19209E-02 15084   0.205E-01    0.103E+00
DAV:   3    -0.790108881203E+03    0.19738E-02   -0.98760E-03 15780   0.137E-01    0.134E-01
DAV:   4    -0.790109265759E+03   -0.38456E-03   -0.10107E-03 13020   0.575E-02    0.126E-01
DAV:   5    -0.790109257232E+03    0.85273E-05   -0.25525E-04 13392   0.325E-02    0.619E-02
DAV:   6    -0.790109252470E+03    0.47620E-05   -0.12413E-04 14004   0.213E-02    0.525E-02
DAV:   7    -0.790109251611E+03    0.85947E-06   -0.30635E-05 11640   0.136E-02
   6 F= -.79010925E+03 E0= -.79008629E+03  d E =-.162878E-01  mag=     1.9999
       N       E                     dE             d eps       ncg     rms          rms(c)
DAV:   1    -0.790136342515E+03   -0.27090E-01   -0.87052E-01 11520   0.155E+00    0.401E-01
DAV:   2    -0.790140614337E+03   -0.42718E-02   -0.46480E-02 14412   0.325E-01    0.141E+00
DAV:   3    -0.790136831037E+03    0.37833E-02   -0.19469E-02 15156   0.197E-01    0.220E-01
DAV:   4    -0.790137499345E+03   -0.66831E-03   -0.21412E-03 13092   0.870E-02    0.184E-01
DAV:   5    -0.790137444467E+03    0.54878E-04   -0.63890E-04 13272   0.515E-02    0.986E-02
DAV:   6    -0.790137435487E+03    0.89798E-05   -0.32965E-04 14448   0.364E-02    0.973E-02
DAV:   7    -0.790137425045E+03    0.10442E-04   -0.10408E-04 13536   0.244E-02    0.715E-02
DAV:   8    -0.790137415925E+03    0.91200E-05   -0.11946E-04 13464   0.173E-02    0.436E-02
DAV:   9    -0.790137419309E+03   -0.33845E-05   -0.40381E-05  9108   0.120E-02
   7 F= -.79013742E+03 E0= -.79011440E+03  d E =-.281677E-01  mag=     1.9999
       N       E                     dE             d eps       ncg     rms          rms(c)
DAV:   1    -0.790175768791E+03   -0.38353E-01   -0.31226E+00 11520   0.296E+00    0.581E-01
DAV:   2    -0.790187025904E+03   -0.11257E-01   -0.12439E-01 14004   0.535E-01    0.201E+00
DAV:   3    -0.790179104090E+03    0.79218E-02   -0.38892E-02 15000   0.288E-01    0.345E-01
DAV:   4    -0.790180261210E+03   -0.11571E-02   -0.45750E-03 13140   0.127E-01    0.266E-01
DAV:   5    -0.790180066018E+03    0.19519E-03   -0.13267E-03 13332   0.771E-02    0.155E-01
DAV:   6    -0.790180045983E+03    0.20034E-04   -0.95405E-04 14472   0.596E-02    0.188E-01
DAV:   7    -0.790179985848E+03    0.60135E-04   -0.32298E-04 14100   0.421E-02    0.125E-01
DAV:   8    -0.790179965770E+03    0.20078E-04   -0.45559E-04 14040   0.308E-02    0.865E-02
DAV:   9    -0.790179982465E+03   -0.16695E-04   -0.12996E-04 12684   0.209E-02    0.953E-02
DAV:  10    -0.790179961357E+03    0.21108E-04   -0.18531E-04 12108   0.191E-02    0.462E-02
DAV:  11    -0.790179970314E+03   -0.89579E-05   -0.59798E-05 10248   0.136E-02
   8 F= -.79017997E+03 E0= -.79015692E+03  d E =-.425510E-01  mag=     1.9999
       N       E                     dE             d eps       ncg     rms          rms(c)
DAV:   1    -0.790220648328E+03   -0.40687E-01   -0.81144E+00 11520   0.486E+00    0.131E+00
DAV:   2    -0.790262787179E+03   -0.42139E-01   -0.60127E-01 14580   0.106E+00    0.391E+00
DAV:   3    -0.790231058126E+03    0.31729E-01   -0.10138E-01 15516   0.588E-01    0.123E+00
DAV:   4    -0.790231087906E+03   -0.29780E-04   -0.24852E-02 13824   0.260E-01    0.489E-01
DAV:   5    -0.790231784790E+03   -0.69688E-03   -0.59046E-03 13512   0.169E-01    0.299E-01
DAV:   6    -0.790231467270E+03    0.31752E-03   -0.22815E-03 14196   0.104E-01    0.242E-01
DAV:   7    -0.790231280149E+03    0.18712E-03   -0.96899E-04 14616   0.723E-02    0.130E-01
DAV:   8    -0.790231323895E+03   -0.43746E-04   -0.77624E-04 14112   0.532E-02    0.168E-01
DAV:   9    -0.790231282311E+03    0.41584E-04   -0.29403E-04 13980   0.360E-02    0.743E-02
DAV:  10    -0.790231294799E+03   -0.12488E-04   -0.17347E-04 13740   0.203E-02    0.728E-02
DAV:  11    -0.790231288121E+03    0.66780E-05   -0.12072E-04 10572   0.182E-02    0.531E-02
DAV:  12    -0.790231304117E+03   -0.15996E-04   -0.12385E-04 10752   0.142E-02    0.936E-02
DAV:  13    -0.790231282166E+03    0.21951E-04   -0.13491E-04  9240   0.130E-02    0.300E-02
DAV:  14    -0.790231288086E+03   -0.59200E-05   -0.20973E-05  8136   0.743E-03
   9 F= -.79023129E+03 E0= -.79020817E+03  d E =-.513178E-01  mag=     1.9999
       N       E                     dE             d eps       ncg     rms          rms(c)
DAV:   1    -0.790252033259E+03   -0.20751E-01   -0.17631E+01 11520   0.724E+00    0.401E+00
DAV:   2    -0.790618024084E+03   -0.36599E+00   -0.22236E+00 15996   0.284E+00    0.941E+00
DAV:   3    -0.790356758552E+03    0.26127E+00   -0.78855E+00 16788   0.165E+00    0.485E+00
DAV:   4    -0.790282684677E+03    0.74074E-01   -0.27287E-01 14520   0.102E+00    0.270E+00
DAV:   5    -0.790252153747E+03    0.30531E-01   -0.91966E-02 14052   0.688E-01    0.210E+00
DAV:   6    -0.790223797534E+03    0.28356E-01   -0.31502E-02 14040   0.479E-01    0.133E+00
DAV:   7    -0.790225325162E+03   -0.15276E-02   -0.30226E-02 13788   0.259E-01    0.127E+00
DAV:   8    -0.790229538236E+03   -0.42131E-02   -0.25416E-03 12108   0.114E-01    0.126E+00
DAV:   9    -0.790226452566E+03    0.30857E-02   -0.57902E-04 13632   0.548E-02    0.127E+00
DAV:  10    -0.790235508107E+03   -0.90555E-02   -0.55332E-03 15048   0.181E-01    0.890E-01
DAV:  11    -0.790244036749E+03   -0.85286E-02   -0.17244E-02 14592   0.300E-01    0.582E-01
DAV:  12    -0.790245206286E+03   -0.11695E-02   -0.13070E-02 13884   0.243E-01    0.397E-01
DAV:  13    -0.790244276910E+03    0.92938E-03   -0.47479E-03 13512   0.146E-01    0.366E-01
DAV:  14    -0.790244486959E+03   -0.21005E-03   -0.18508E-03 13968   0.790E-02    0.422E-01
DAV:  15    -0.790245173893E+03   -0.68693E-03   -0.21482E-03 14232   0.703E-02    0.444E-01
DAV:  16    -0.790245422307E+03   -0.24841E-03   -0.36305E-03 15528   0.101E-01    0.246E-01
DAV:  17    -0.790245383921E+03    0.38386E-04   -0.16303E-03 13200   0.882E-02    0.289E-01
DAV:  18    -0.790245266360E+03    0.11756E-03   -0.35815E-04 13536   0.288E-02    0.171E-01
DAV:  19    -0.790245370250E+03   -0.10389E-03   -0.20458E-04 13824   0.293E-02    0.604E-02
DAV:  20    -0.790245424233E+03   -0.53983E-04   -0.84313E-05 12120   0.155E-02    0.871E-02
DAV:  21    -0.790245413468E+03    0.10765E-04   -0.32765E-05  8664   0.938E-03    0.423E-02
DAV:  22    -0.790245420329E+03   -0.68606E-05   -0.14842E-05  9624   0.782E-03
  10 F= -.79024542E+03 E0= -.79022214E+03  d E =-.141322E-01  mag=     1.9989
       N       E                     dE             d eps       ncg     rms          rms(c)
DAV:   1    -0.790347411814E+03   -0.10200E+00   -0.84808E+00 11904   0.482E+00    0.556E+00
DAV:   2    -0.790617803624E+03   -0.27039E+00   -0.74182E+00 17772   0.360E+00    0.844E+00
DAV:   3    -0.790472055196E+03    0.14575E+00   -0.33744E+00 17028   0.207E+00    0.620E+00
DAV:   4    -0.790340859656E+03    0.13120E+00   -0.30113E-01 13992   0.985E-01    0.428E+00
DAV:   5    -0.790301672745E+03    0.39187E-01   -0.59812E-02 14244   0.614E-01    0.346E+00
DAV:   6    -0.790272233099E+03    0.29440E-01   -0.99045E-02 15732   0.561E-01    0.195E+00
DAV:   7    -0.790271781046E+03    0.45205E-03   -0.52872E-02 13392   0.454E-01    0.111E+00
DAV:   8    -0.790275385457E+03   -0.36044E-02   -0.37054E-02 14088   0.360E-01    0.131E+00
DAV:   9    -0.790270915137E+03    0.44703E-02   -0.12732E-02 14232   0.257E-01    0.644E-01
DAV:  10    -0.790270961867E+03   -0.46730E-04   -0.95730E-03 14112   0.161E-01    0.439E-01
DAV:  11    -0.790271050751E+03   -0.88884E-04   -0.35783E-03 13896   0.103E-01    0.256E-01
DAV:  12    -0.790271290969E+03   -0.24022E-03   -0.35861E-03 15312   0.833E-02    0.400E-01
DAV:  13    -0.790270998447E+03    0.29252E-03   -0.88528E-04 14016   0.561E-02    0.139E-01
DAV:  14    -0.790271035053E+03   -0.36606E-04   -0.53325E-04 13824   0.285E-02    0.881E-02
DAV:  15    -0.790271048029E+03   -0.12976E-04   -0.81533E-05 11724   0.181E-02    0.399E-02
DAV:  16    -0.790271057186E+03   -0.91572E-05   -0.85515E-05  9840   0.110E-02
  11 F= -.79027106E+03 E0= -.79024824E+03  d E =-.256369E-01  mag=     1.9978
       N       E                     dE             d eps       ncg     rms          rms(c)
DAV:   1    -0.790295297927E+03   -0.24250E-01   -0.91412E-01 11520   0.156E+00    0.236E+00
DAV:   2    -0.790453739792E+03   -0.15844E+00   -0.80026E-01 17904   0.162E+00    0.870E+00
DAV:   3    -0.790301369924E+03    0.15237E+00   -0.38566E+00 17640   0.111E+00    0.314E+00
DAV:   4    -0.790292943813E+03    0.84261E-02   -0.63395E-02 13116   0.502E-01    0.199E+00
DAV:   5    -0.790279441917E+03    0.13502E-01   -0.28911E-02 14076   0.337E-01    0.112E+00
DAV:   6    -0.790280864504E+03   -0.14226E-02   -0.29394E-02 13620   0.240E-01    0.103E+00
DAV:   7    -0.790285605057E+03   -0.47406E-02   -0.52985E-03 13212   0.159E-01    0.108E+00
DAV:   8    -0.790285325639E+03    0.27942E-03   -0.25166E-03 13740   0.103E-01    0.725E-01
DAV:   9    -0.790285630475E+03   -0.30484E-03   -0.34219E-03 15144   0.115E-01    0.403E-01
DAV:  10    -0.790285859344E+03   -0.22887E-03   -0.12779E-03 13680   0.757E-02    0.282E-01
DAV:  11    -0.790285784245E+03    0.75098E-04   -0.13815E-03 14640   0.591E-02    0.155E-01
DAV:  12    -0.790285870874E+03   -0.86629E-04   -0.85639E-04 13152   0.457E-02    0.114E-01
DAV:  13    -0.790285856882E+03    0.13992E-04   -0.28924E-04 12948   0.264E-02    0.871E-02
DAV:  14    -0.790285844344E+03    0.12539E-04   -0.10465E-04 12516   0.164E-02    0.355E-02
DAV:  15    -0.790285849249E+03   -0.49052E-05   -0.36741E-05  8412   0.101E-02
  12 F= -.79028585E+03 E0= -.79026278E+03  d E =-.147921E-01  mag=     1.9991
       N       E                     dE             d eps       ncg     rms          rms(c)
DAV:   1    -0.790288595121E+03   -0.27508E-02   -0.78139E-02 11520   0.468E-01    0.638E-01
DAV:   2    -0.790301202014E+03   -0.12607E-01   -0.92454E-02 17892   0.441E-01    0.286E+00
DAV:   3    -0.790285569648E+03    0.15632E-01   -0.51018E-02 16740   0.342E-01    0.339E-01
DAV:   4    -0.790287706224E+03   -0.21366E-02   -0.41535E-03 12720   0.105E-01    0.109E-01
DAV:   5    -0.790288031964E+03   -0.32574E-03   -0.52935E-04 13908   0.478E-02    0.127E-01
DAV:   6    -0.790288025658E+03    0.63059E-05   -0.16416E-04 13092   0.268E-02    0.577E-02
DAV:   7    -0.790288021973E+03    0.36854E-05   -0.80610E-05 12108   0.147E-02
  13 F= -.79028802E+03 E0= -.79026491E+03  d E =-.217272E-02  mag=     1.9998
       N       E                     dE             d eps       ncg     rms          rms(c)
DAV:   1    -0.790292289573E+03   -0.42639E-02   -0.30322E-01 11520   0.969E-01    0.407E-01
DAV:   2    -0.790297175304E+03   -0.48857E-02   -0.41329E-02 15900   0.299E-01    0.174E+00
DAV:   3    -0.790291560187E+03    0.56151E-02   -0.21844E-02 16008   0.214E-01    0.231E-01
DAV:   4    -0.790292484864E+03   -0.92468E-03   -0.26635E-03 12864   0.851E-02    0.186E-01
DAV:   5    -0.790292591880E+03   -0.10702E-03   -0.44314E-04 12720   0.444E-02    0.145E-01
DAV:   6    -0.790292542307E+03    0.49572E-04   -0.30742E-04 13248   0.275E-02    0.496E-02
DAV:   7    -0.790292569464E+03   -0.27157E-04   -0.15354E-04 12732   0.181E-02    0.105E-01
DAV:   8    -0.790292547151E+03    0.22313E-04   -0.44852E-05 10452   0.136E-02    0.556E-02
DAV:   9    -0.790292545075E+03    0.20758E-05   -0.75412E-05 10032   0.959E-03
  14 F= -.79029255E+03 E0= -.79026935E+03  d E =-.452310E-02  mag=     1.9999
       N       E                     dE             d eps       ncg     rms          rms(c)
DAV:   1    -0.790297146069E+03   -0.45989E-02   -0.78457E-01 11520   0.157E+00    0.562E-01
DAV:   2    -0.790307748420E+03   -0.10602E-01   -0.87815E-02 15600   0.437E-01    0.249E+00
DAV:   3    -0.790295918291E+03    0.11830E-01   -0.38683E-02 15828   0.302E-01    0.309E-01
DAV:   4    -0.790297853512E+03   -0.19352E-02   -0.63921E-03 12876   0.114E-01    0.310E-01
DAV:   5    -0.790297998194E+03   -0.14468E-03   -0.11972E-03 12324   0.658E-02    0.978E-02
DAV:   6    -0.790298025034E+03   -0.26840E-04   -0.43313E-04 13392   0.300E-02    0.140E-01
DAV:   7    -0.790298010382E+03    0.14652E-04   -0.72800E-05 13368   0.209E-02    0.129E-01
DAV:   8    -0.790297975971E+03    0.34411E-04   -0.32110E-04 13560   0.198E-02    0.633E-02
DAV:   9    -0.790297995370E+03   -0.19399E-04   -0.36881E-05 11316   0.131E-02    0.706E-02
DAV:  10    -0.790297986267E+03    0.91031E-05   -0.15045E-05  6828   0.764E-03
  15 F= -.79029799E+03 E0= -.79027477E+03  d E =-.544119E-02  mag=     2.0000
       N       E                     dE             d eps       ncg     rms          rms(c)
DAV:   1    -0.790280242933E+03    0.17752E-01   -0.13765E+01 11880   0.624E+00    0.623E+00
DAV:   2    -0.790640843493E+03   -0.36060E+00   -0.99210E+00 17616   0.393E+00    0.913E+00
DAV:   3    -0.790382569982E+03    0.25827E+00   -0.25848E+00 16860   0.210E+00    0.625E+00
DAV:   4    -0.790260110210E+03    0.12246E+00   -0.35670E-01 13968   0.977E-01    0.457E+00
DAV:   5    -0.790213382077E+03    0.46728E-01   -0.78486E-02 14508   0.627E-01    0.361E+00
DAV:   6    -0.790185121455E+03    0.28261E-01   -0.10449E-01 14928   0.604E-01    0.176E+00
DAV:   7    -0.790195119162E+03   -0.99977E-02   -0.40497E-02 12960   0.409E-01    0.201E+00
DAV:   8    -0.790187430859E+03    0.76883E-02   -0.63452E-02 15504   0.369E-01    0.104E+00
DAV:   9    -0.790187131070E+03    0.29979E-03   -0.96158E-03 13092   0.214E-01    0.618E-01
DAV:  10    -0.790187573722E+03   -0.44265E-03   -0.16063E-02 15132   0.159E-01    0.952E-01
DAV:  11    -0.790185982593E+03    0.15911E-02   -0.55809E-03 13392   0.133E-01    0.253E-01
DAV:  12    -0.790186385603E+03   -0.40301E-03   -0.19691E-03 13908   0.756E-02    0.326E-01
DAV:  13    -0.790186232697E+03    0.15291E-03   -0.74551E-04 12828   0.464E-02    0.855E-02
DAV:  14    -0.790186302164E+03   -0.69468E-04   -0.20378E-04 12300   0.238E-02    0.796E-02
DAV:  15    -0.790186305485E+03   -0.33205E-05   -0.76443E-05 10296   0.145E-02
  16 F= -.79018631E+03 E0= -.79016434E+03  d E =0.111681E+00  mag=     1.9973
       N       E                     dE             d eps       ncg     rms          rms(c)
DAV:   1    -0.790352610553E+03   -0.16631E+00   -0.71587E+00 11520   0.432E+00    0.482E+00
DAV:   2    -0.790839329868E+03   -0.48672E+00   -0.25569E+00 17316   0.313E+00    0.100E+01
DAV:   3    -0.790450026696E+03    0.38930E+00   -0.10915E+01 16824   0.189E+00    0.461E+00
DAV:   4    -0.790361036205E+03    0.88990E-01   -0.53266E-01 14292   0.112E+00    0.360E+00
DAV:   5    -0.790321612303E+03    0.39424E-01   -0.15486E-01 13728   0.710E-01    0.269E+00
DAV:   6    -0.790280579343E+03    0.41033E-01   -0.72611E-02 14616   0.586E-01    0.271E+00
DAV:   7    -0.790252085908E+03    0.28493E-01   -0.57259E-02 14400   0.458E-01    0.161E+00
DAV:   8    -0.790255583380E+03   -0.34975E-02   -0.59235E-02 13620   0.272E-01    0.156E+00
DAV:   9    -0.790259148794E+03   -0.35654E-02   -0.41672E-03 11832   0.154E-01    0.156E+00
DAV:  10    -0.790259482323E+03   -0.33353E-03   -0.36827E-04 12504   0.403E-02    0.161E+00
DAV:  11    -0.790255279562E+03    0.42028E-02   -0.55037E-04 14148   0.561E-02    0.170E+00
DAV:  12    -0.790253789578E+03    0.14900E-02   -0.38826E-04 12408   0.274E-02    0.158E+00
DAV:  13    -0.790260157367E+03   -0.63678E-02   -0.47493E-02 13560   0.247E-01    0.330E+00
DAV:  14    -0.790246915311E+03    0.13242E-01   -0.13252E-02 11640   0.286E-01    0.144E+00
DAV:  15    -0.790264750858E+03   -0.17836E-01   -0.45745E-02 14472   0.277E-01    0.297E+00
DAV:  16    -0.790247995428E+03    0.16755E-01   -0.61445E-03 11940   0.159E-01    0.164E+00
DAV:  17    -0.790245019906E+03    0.29755E-02   -0.99049E-03 12984   0.141E-01    0.458E-01
DAV:  18    -0.790248457044E+03   -0.34371E-02   -0.38618E-03 11796   0.114E-01    0.619E-01
DAV:  19    -0.790249218212E+03   -0.76117E-03   -0.11893E-03 11796   0.853E-02    0.509E-01
DAV:  20    -0.790248704727E+03    0.51349E-03   -0.12469E-03 13908   0.542E-02    0.160E-01
DAV:  21    -0.790249132506E+03   -0.42778E-03   -0.39988E-04 11856   0.366E-02    0.170E-01
DAV:  22    -0.790249236643E+03   -0.10414E-03   -0.17526E-04 12612   0.171E-02    0.168E-01
DAV:  23    -0.790249545104E+03   -0.30846E-03   -0.22464E-03 14892   0.613E-02    0.199E-01
DAV:  24    -0.790249623746E+03   -0.78642E-04   -0.34531E-04 13080   0.331E-02    0.252E-01
DAV:  25    -0.790249449695E+03    0.17405E-03   -0.16444E-04 12492   0.196E-02    0.109E-01
DAV:  26    -0.790249498233E+03   -0.48538E-04   -0.31635E-05 11124   0.141E-02    0.105E-01
DAV:  27    -0.790249493620E+03    0.46126E-05   -0.32288E-06  7284   0.384E-03
  17 F= -.79024949E+03 E0= -.79022218E+03  d E =-.631881E-01  mag=     1.5186
       N       E                     dE             d eps       ncg     rms          rms(c)
DAV:   1    -0.790267840006E+03   -0.18342E-01   -0.34864E-01 11520   0.844E-01    0.152E+00
DAV:   2    -0.790725716148E+03   -0.45788E+00   -0.61580E-01 18432   0.126E+00    0.950E+00
DAV:   3    -0.790234408259E+03    0.49131E+00   -0.11354E+00 16968   0.859E-01    0.168E+00
DAV:   4    -0.790273121203E+03   -0.38713E-01   -0.23726E-02 12324   0.259E-01    0.174E+00
DAV:   5    -0.790261907799E+03    0.11213E-01   -0.19193E-02 12900   0.142E-01    0.110E+00
DAV:   6    -0.790261787779E+03    0.12002E-03   -0.80066E-03 14556   0.203E-01    0.148E+00
DAV:   7    -0.790260438080E+03    0.13497E-02   -0.10166E-02 12108   0.200E-01    0.596E-01
DAV:   8    -0.790261041492E+03   -0.60341E-03   -0.30493E-03 13968   0.112E-01    0.464E-01
DAV:   9    -0.790261292834E+03   -0.25134E-03   -0.19012E-03 11976   0.943E-02    0.245E-01
DAV:  10    -0.790261540884E+03   -0.24805E-03   -0.48003E-04 12828   0.397E-02    0.335E-01
DAV:  11    -0.790261427346E+03    0.11354E-03   -0.44534E-04 13488   0.318E-02    0.212E-01
DAV:  12    -0.790261418686E+03    0.86605E-05   -0.58239E-04 14820   0.413E-02    0.106E-01
DAV:  13    -0.790261465172E+03   -0.46486E-04   -0.22820E-04 12408   0.297E-02    0.827E-02
DAV:  14    -0.790261467223E+03   -0.20510E-05   -0.66591E-05 10944   0.149E-02
  18 F= -.79026147E+03 E0= -.79023410E+03  d E =-.119736E-01  mag=     1.5167
       N       E                     dE             d eps       ncg     rms          rms(c)
DAV:   1    -0.790277247051E+03   -0.15782E-01   -0.11629E+00 11520   0.161E+00    0.197E+00
DAV:   2    -0.790832098876E+03   -0.55485E+00   -0.54714E-01 18516   0.168E+00    0.977E+00
DAV:   3    -0.790236816504E+03    0.59528E+00   -0.15794E+00 16752   0.987E-01    0.165E+00
DAV:   4    -0.790277340914E+03   -0.40524E-01   -0.49420E-02 12540   0.391E-01    0.161E+00
DAV:   5    -0.790277565513E+03   -0.22460E-03   -0.35582E-03 13524   0.120E-01    0.159E+00
DAV:   6    -0.790277375458E+03    0.19006E-03   -0.33608E-04 13212   0.306E-02    0.164E+00
DAV:   7    -0.790279019621E+03   -0.16442E-02   -0.14780E-02 15264   0.240E-01    0.196E+00
DAV:   8    -0.790283759932E+03   -0.47403E-02   -0.57812E-03 13692   0.172E-01    0.208E+00
DAV:   9    -0.790286657686E+03   -0.28978E-02   -0.16861E-03 13620   0.826E-02    0.217E+00
DAV:  10    -0.790278006133E+03    0.86516E-02   -0.44385E-03 13260   0.158E-01    0.221E+00
DAV:  11    -0.790301796257E+03   -0.23790E-01   -0.47106E-02 13800   0.476E-01    0.194E+00
DAV:  12    -0.790311987713E+03   -0.10191E-01   -0.54629E-02 14628   0.537E-01    0.202E+00
DAV:  13    -0.790301665985E+03    0.10322E-01   -0.40055E-02 15420   0.472E-01    0.216E+00
DAV:  14    -0.790303811844E+03   -0.21459E-02   -0.52444E-02 13344   0.462E-01    0.138E+00
DAV:  15    -0.790297840679E+03    0.59712E-02   -0.40721E-02 14376   0.420E-01    0.528E-01
DAV:  16    -0.790299703119E+03   -0.18624E-02   -0.60308E-03 13476   0.172E-01    0.555E-01
DAV:  17    -0.790298833381E+03    0.86974E-03   -0.22895E-03 13380   0.778E-02    0.455E-01
DAV:  18    -0.790298595653E+03    0.23773E-03   -0.79940E-04 14016   0.476E-02    0.349E-01
DAV:  19    -0.790298225115E+03    0.37054E-03   -0.71348E-04 13884   0.528E-02    0.221E-01
DAV:  20    -0.790298056737E+03    0.16838E-03   -0.66155E-04 13488   0.457E-02    0.115E-01
DAV:  21    -0.790298055456E+03    0.12803E-05   -0.84031E-05 12912   0.194E-02
  19 F= -.79029806E+03 E0= -.79027460E+03  d E =-.365882E-01  mag=     1.9959
       N       E                     dE             d eps       ncg     rms          rms(c)
DAV:   1    -0.790308560838E+03   -0.10504E-01   -0.27120E-01 11904   0.801E-01    0.157E+00
DAV:   2    -0.790353548652E+03   -0.44988E-01   -0.80723E-01 17892   0.107E+00    0.442E+00
DAV:   3    -0.790306962375E+03    0.46586E-01   -0.90005E-02 17364   0.711E-01    0.189E+00
DAV:   4    -0.790302575618E+03    0.43868E-02   -0.25227E-02 13608   0.264E-01    0.821E-01
DAV:   5    -0.790303822580E+03   -0.12470E-02   -0.71914E-03 13668   0.152E-01    0.159E-01
DAV:   6    -0.790305161668E+03   -0.13391E-02   -0.24287E-03 13116   0.947E-02    0.342E-01
DAV:   7    -0.790305005297E+03    0.15637E-03   -0.72394E-04 13860   0.558E-02    0.188E-01
DAV:   8    -0.790304959195E+03    0.46103E-04   -0.39985E-04 13272   0.335E-02    0.478E-02
DAV:   9    -0.790304993130E+03   -0.33935E-04   -0.93442E-05 12612   0.207E-02    0.444E-02
DAV:  10    -0.790304990343E+03    0.27871E-05   -0.35110E-05  9252   0.115E-02
  20 F= -.79030499E+03 E0= -.79028181E+03  d E =-.693489E-02  mag=     1.9997
       N       E                     dE             d eps       ncg     rms          rms(c)
DAV:   1    -0.790309177895E+03   -0.41848E-02   -0.31126E-01 11664   0.884E-01    0.166E+00
DAV:   2    -0.790359676910E+03   -0.50499E-01   -0.90332E-01 17904   0.113E+00    0.474E+00
DAV:   3    -0.790307384251E+03    0.52293E-01   -0.11796E-01 17256   0.753E-01    0.202E+00
DAV:   4    -0.790302845343E+03    0.45389E-02   -0.28047E-02 13536   0.279E-01    0.895E-01
DAV:   5    -0.790303892896E+03   -0.10476E-02   -0.77235E-03 13704   0.157E-01    0.169E-01
DAV:   6    -0.790305511366E+03   -0.16185E-02   -0.34202E-03 13044   0.101E-01    0.407E-01
DAV:   7    -0.790305294031E+03    0.21734E-03   -0.90974E-04 13392   0.604E-02    0.221E-01
DAV:   8    -0.790305232909E+03    0.61122E-04   -0.56707E-04 13368   0.352E-02    0.461E-02
DAV:   9    -0.790305285172E+03   -0.52263E-04   -0.10548E-04 12672   0.216E-02    0.569E-02
DAV:  10    -0.790305279423E+03    0.57491E-05   -0.54674E-05  9588   0.126E-02
  21 F= -.79030528E+03 E0= -.79028232E+03  d E =-.289080E-03  mag=     1.9999
       N       E                     dE             d eps       ncg     rms          rms(c)
DAV:   1    -0.790304022891E+03    0.12623E-02   -0.12234E-01 11520   0.614E-01    0.638E-01
DAV:   2    -0.790314301111E+03   -0.10278E-01   -0.13384E-01 17544   0.438E-01    0.267E+00
DAV:   3    -0.790300622224E+03    0.13679E-01   -0.34868E-02 16512   0.333E-01    0.369E-01
DAV:   4    -0.790303231149E+03   -0.26089E-02   -0.46022E-03 12600   0.107E-01    0.123E-01
DAV:   5    -0.790303614707E+03   -0.38356E-03   -0.45658E-04 13812   0.500E-02    0.812E-02
DAV:   6    -0.790303621360E+03   -0.66528E-05   -0.19434E-04 13788   0.261E-02    0.647E-02
DAV:   7    -0.790303619862E+03    0.14982E-05   -0.48644E-05 11904   0.149E-02
  22 F= -.79030362E+03 E0= -.79028065E+03  d E =0.165956E-02  mag=     2.0000
       N       E                     dE             d eps       ncg     rms          rms(c)
DAV:   1    -0.789783362038E+03    0.52026E+00   -0.50501E+01 11568   0.111E+01    0.766E+00
DAV:   2    -0.789781012999E+03    0.23490E-02   -0.26012E+00 14196   0.315E+00    0.556E+00
DAV:   3    -0.789843520563E+03   -0.62508E-01   -0.18389E+00 16416   0.228E+00    0.462E+00
DAV:   4    -0.789828419367E+03    0.15101E-01   -0.81831E-01 14952   0.136E+00    0.546E+00
DAV:   5    -0.789764994453E+03    0.63425E-01   -0.19922E+00 16488   0.978E-01    0.254E+00
DAV:   6    -0.789735971712E+03    0.29023E-01   -0.51544E-02 13452   0.541E-01    0.180E+00
DAV:   7    -0.789726634307E+03    0.93374E-02   -0.63954E-02 14412   0.485E-01    0.188E+00
DAV:   8    -0.789719788198E+03    0.68461E-02   -0.73047E-02 14088   0.341E-01    0.116E+00
DAV:   9    -0.789720307990E+03   -0.51979E-03   -0.24117E-02 13224   0.257E-01    0.990E-01
DAV:  10    -0.789723436796E+03   -0.31288E-02   -0.33788E-02 13500   0.217E-01    0.155E+00
DAV:  11    -0.789724856306E+03   -0.14195E-02   -0.34212E-03 12264   0.122E-01    0.158E+00
DAV:  12    -0.789724020931E+03    0.83538E-03   -0.22121E-02 15408   0.183E-01    0.119E+00
DAV:  13    -0.789722556930E+03    0.14640E-02   -0.22270E-03 12456   0.102E-01    0.115E+00
DAV:  14    -0.789717302172E+03    0.52548E-02   -0.32156E-03 15072   0.118E-01    0.101E+00
DAV:  15    -0.789725484494E+03   -0.81823E-02   -0.22382E-02 15804   0.244E-01    0.261E+00
DAV:  16    -0.789715163590E+03    0.10321E-01   -0.16095E-02 12456   0.176E-01    0.156E+00
DAV:  17    -0.789713864973E+03    0.12986E-02   -0.90593E-03 14832   0.172E-01    0.431E-01
DAV:  18    -0.789717142830E+03   -0.32779E-02   -0.28691E-03 13104   0.131E-01    0.513E-01
DAV:  19    -0.789716791716E+03    0.35111E-03   -0.18225E-03 14340   0.574E-02    0.382E-01
DAV:  20    -0.789716606299E+03    0.18542E-03   -0.28462E-04 13644   0.358E-02    0.210E-01
DAV:  21    -0.789716798057E+03   -0.19176E-03   -0.14737E-04 12240   0.282E-02    0.279E-01
DAV:  22    -0.789716636064E+03    0.16199E-03   -0.96028E-05 13284   0.177E-02    0.191E-01
DAV:  23    -0.789716589849E+03    0.46215E-04   -0.61965E-05 13200   0.150E-02    0.116E-01
DAV:  24    -0.789716587297E+03    0.25524E-05   -0.59874E-05 11652   0.139E-02
  23 F= -.78971659E+03 E0= -.78968991E+03  d E =0.587033E+00  mag=     1.6319
       N       E                     dE             d eps       ncg     rms          rms(c)
DAV:   1    -0.790879326366E+03   -0.11627E+01   -0.82033E+01 11976   0.121E+01    0.131E+01
DAV:   2    -0.793547061782E+03   -0.26677E+01   -0.82015E+01 17472   0.652E+00    0.116E+01
DAV:   3    -0.791373614473E+03    0.21734E+01   -0.13343E+01 15300   0.445E+00    0.931E+00
DAV:   4    -0.790956534266E+03    0.41708E+00   -0.73951E+00 14640   0.234E+00    0.741E+00
DAV:   5    -0.790619067688E+03    0.33747E+00   -0.13573E+00 14484   0.141E+00    0.613E+00
DAV:   6    -0.790489471330E+03    0.12960E+00   -0.17954E+00 15996   0.115E+00    0.535E+00
DAV:   7    -0.790330219104E+03    0.15925E+00   -0.14043E-01 15576   0.918E-01    0.524E+00
DAV:   8    -0.790260607010E+03    0.69612E-01   -0.13635E-01 14112   0.669E-01    0.436E+00
DAV:   9    -0.790250763715E+03    0.98433E-02   -0.83363E-01 18288   0.129E+00    0.591E+00
DAV:  10    -0.790179266333E+03    0.71497E-01   -0.12866E+00 15420   0.971E-01    0.368E+00
DAV:  11    -0.790203359078E+03   -0.24093E-01   -0.20478E-01 12816   0.555E-01    0.503E+00
DAV:  12    -0.790189931789E+03    0.13427E-01   -0.17957E-02 12096   0.254E-01    0.493E+00
DAV:  13    -0.790176650113E+03    0.13282E-01   -0.36557E-03 13512   0.110E-01    0.477E+00
DAV:  14    -0.790176773050E+03   -0.12294E-03   -0.38094E-04 13788   0.348E-02    0.475E+00
DAV:  15    -0.790177596090E+03   -0.82304E-03   -0.86467E-03 13728   0.216E-01    0.461E+00
DAV:  16    -0.790205700632E+03   -0.28105E-01   -0.45196E-02 14280   0.474E-01    0.450E+00
DAV:  17    -0.790199613189E+03    0.60874E-02   -0.60839E-01 15120   0.129E+00    0.522E+00
DAV:  18    -0.790193944659E+03    0.56685E-02   -0.11647E-01 13416   0.724E-01    0.400E+00
DAV:  19    -0.790208303032E+03   -0.14358E-01   -0.18640E-02 12756   0.299E-01    0.380E+00
DAV:  20    -0.790221392874E+03   -0.13090E-01   -0.57828E-02 15552   0.472E-01    0.325E+00
DAV:  21    -0.790194869931E+03    0.26523E-01   -0.84257E-02 14580   0.635E-01    0.140E+00
DAV:  22    -0.790214822765E+03   -0.19953E-01   -0.87581E-02 13044   0.375E-01    0.292E+00
DAV:  23    -0.790210889032E+03    0.39337E-02   -0.51886E-03 12000   0.177E-01    0.270E+00
DAV:  24    -0.790208777459E+03    0.21116E-02   -0.14609E-03 13512   0.811E-02    0.242E+00
DAV:  25    -0.790219505195E+03   -0.10728E-01   -0.79808E-03 14688   0.220E-01    0.240E+00
DAV:  26    -0.790213080810E+03    0.64244E-02   -0.13305E-02 15756   0.323E-01    0.163E+00
DAV:  27    -0.790213651479E+03   -0.57067E-03   -0.98826E-03 12936   0.217E-01    0.175E+00
DAV:  28    -0.790207587166E+03    0.60643E-02   -0.59684E-03 14592   0.199E-01    0.144E+00
DAV:  29    -0.790204497036E+03    0.30901E-02   -0.56984E-03 14196   0.135E-01    0.123E+00
DAV:  30    -0.790206474284E+03   -0.19772E-02   -0.27550E-03 13704   0.125E-01    0.108E+00
DAV:  31    -0.790204693427E+03    0.17809E-02   -0.76825E-03 12948   0.154E-01    0.664E-01
DAV:  32    -0.790205454960E+03   -0.76153E-03   -0.56623E-03 13896   0.135E-01    0.504E-01
DAV:  33    -0.790205935312E+03   -0.48035E-03   -0.70500E-04 12600   0.605E-02    0.454E-01
DAV:  34    -0.790206174279E+03   -0.23897E-03   -0.35604E-04 14340   0.354E-02    0.486E-01
DAV:  35    -0.790207233590E+03   -0.10593E-02   -0.31901E-04 14508   0.544E-02    0.395E-01
DAV:  36    -0.790209140701E+03   -0.19071E-02   -0.26787E-03 14928   0.126E-01    0.371E-01
DAV:  37    -0.790209215530E+03   -0.74830E-04   -0.22034E-03 12324   0.732E-02    0.188E-01
DAV:  38    -0.790209392254E+03   -0.17672E-03   -0.29505E-04 13716   0.269E-02    0.107E-01
DAV:  39    -0.790209534325E+03   -0.14207E-03   -0.12240E-04 14100   0.272E-02    0.725E-02
DAV:  40    -0.790209589831E+03   -0.55506E-04   -0.14708E-04 13860   0.234E-02    0.466E-02
DAV:  41    -0.790209609852E+03   -0.20021E-04   -0.36377E-05 11424   0.125E-02    0.267E-02
DAV:  42    -0.790209610591E+03   -0.73873E-06   -0.46250E-06  7548   0.484E-03
  24 F= -.79020961E+03 E0= -.79018755E+03  d E =-.493023E+00  mag=    -1.9950
       N       E                     dE             d eps       ncg     rms          rms(c)
DAV:   1    -0.790271711244E+03   -0.62101E-01   -0.13012E+00 11520   0.159E+00    0.281E+00
DAV:   2    -0.790546813612E+03   -0.27510E+00   -0.89382E-01 17628   0.182E+00    0.967E+00
DAV:   3    -0.790275288079E+03    0.27153E+00   -0.56938E+00 17364   0.125E+00    0.286E+00
DAV:   4    -0.790267290799E+03    0.79973E-02   -0.65101E-02 12648   0.491E-01    0.238E+00
DAV:   5    -0.790239776493E+03    0.27514E-01   -0.38579E-02 14172   0.340E-01    0.113E+00
DAV:   6    -0.790251747997E+03   -0.11972E-01   -0.63409E-02 13800   0.254E-01    0.189E+00
DAV:   7    -0.790254760778E+03   -0.30128E-02   -0.58055E-03 12972   0.190E-01    0.146E+00
DAV:   8    -0.790254978717E+03   -0.21794E-03   -0.40152E-03 14052   0.116E-01    0.888E-01
DAV:   9    -0.790257282663E+03   -0.23039E-02   -0.62262E-03 14820   0.183E-01    0.188E-01
DAV:  10    -0.790257949814E+03   -0.66715E-03   -0.24242E-03 12708   0.915E-02    0.175E-01
DAV:  11    -0.790257973942E+03   -0.24128E-04   -0.94347E-04 13260   0.399E-02    0.126E-01
DAV:  12    -0.790258005532E+03   -0.31590E-04   -0.41682E-04 14640   0.317E-02    0.111E-01
DAV:  13    -0.790257989789E+03    0.15743E-04   -0.14237E-04 12648   0.218E-02    0.635E-02
DAV:  14    -0.790257991203E+03   -0.14144E-05   -0.74572E-05 13272   0.160E-02
  25 F= -.79025799E+03 E0= -.79023542E+03  d E =-.483806E-01  mag=    -1.9991
       N       E                     dE             d eps       ncg     rms          rms(c)
DAV:   1    -0.790345374568E+03   -0.87385E-01   -0.12719E+01 11520   0.513E+00    0.448E+00
DAV:   2    -0.790658009570E+03   -0.31264E+00   -0.95455E-01 15936   0.256E+00    0.925E+00
DAV:   3    -0.790365592529E+03    0.29242E+00   -0.82150E+00 16884   0.172E+00    0.329E+00
DAV:   4    -0.790342203206E+03    0.23389E-01   -0.21564E-01 13656   0.949E-01    0.311E+00
DAV:   5    -0.790297217354E+03    0.44986E-01   -0.15559E-01 14892   0.605E-01    0.225E+00
DAV:   6    -0.790269929409E+03    0.27288E-01   -0.38963E-02 14088   0.389E-01    0.191E+00
DAV:   7    -0.790247059063E+03    0.22870E-01   -0.16276E-02 14928   0.340E-01    0.110E+00
DAV:   8    -0.790252241656E+03   -0.51826E-02   -0.16875E-02 12924   0.179E-01    0.149E+00
DAV:   9    -0.790249408904E+03    0.28328E-02   -0.20175E-03 12516   0.992E-02    0.135E+00
DAV:  10    -0.790246212731E+03    0.31962E-02   -0.22865E-03 13956   0.399E-02    0.987E-01
DAV:  11    -0.790245521661E+03    0.69107E-03   -0.33408E-02 14688   0.171E-01    0.760E-01
DAV:  12    -0.790244749980E+03    0.77168E-03   -0.87894E-03 13548   0.172E-01    0.718E-01
DAV:  13    -0.790245053145E+03   -0.30317E-03   -0.58658E-03 12672   0.130E-01    0.569E-01
DAV:  14    -0.790244472253E+03    0.58089E-03   -0.18053E-03 12636   0.892E-02    0.352E-01
DAV:  15    -0.790244447036E+03    0.25217E-04   -0.56330E-04 12000   0.509E-02    0.196E-01
DAV:  16    -0.790244496555E+03   -0.49519E-04   -0.45571E-04 13692   0.304E-02    0.180E-01
DAV:  17    -0.790244429241E+03    0.67314E-04   -0.23683E-04 12144   0.234E-02    0.732E-02
DAV:  18    -0.790244470477E+03   -0.41236E-04   -0.78336E-05 11772   0.148E-02    0.544E-02
DAV:  19    -0.790244488735E+03   -0.18258E-04   -0.26458E-05  8964   0.860E-03    0.390E-02
DAV:  20    -0.790244518587E+03   -0.29852E-04   -0.11545E-04 11592   0.120E-02    0.616E-02
DAV:  21    -0.790244529545E+03   -0.10957E-04   -0.22584E-05  7968   0.651E-03    0.763E-02
DAV:  22    -0.790244522617E+03    0.69278E-05   -0.19856E-06  6720   0.312E-03
  26 F= -.79024452E+03 E0= -.79021715E+03  d E =0.134686E-01  mag=    -1.5477
       N       E                     dE             d eps       ncg     rms          rms(c)
DAV:   1    -0.790283292538E+03   -0.38763E-01   -0.15229E+00 11556   0.172E+00    0.401E+00
DAV:   2    -0.790875563529E+03   -0.59227E+00   -0.10912E+01 18816   0.319E+00    0.601E+00
DAV:   3    -0.790482311530E+03    0.39325E+00   -0.69590E-01 17376   0.170E+00    0.413E+00
DAV:   4    -0.790404525372E+03    0.77786E-01   -0.36803E-01 13584   0.779E-01    0.320E+00
DAV:   5    -0.790311607715E+03    0.92918E-01   -0.49514E-02 14220   0.635E-01    0.249E+00
DAV:   6    -0.790279647245E+03    0.31960E-01   -0.29390E-02 14052   0.383E-01    0.203E+00
DAV:   7    -0.790264568132E+03    0.15079E-01   -0.76242E-03 15492   0.207E-01    0.155E+00
DAV:   8    -0.790255825663E+03    0.87425E-02   -0.93952E-03 16452   0.221E-01    0.628E-01
DAV:   9    -0.790269593407E+03   -0.13768E-01   -0.60810E-03 13068   0.157E-01    0.275E+00
DAV:  10    -0.790278353599E+03   -0.87602E-02   -0.22039E-02 13056   0.203E-01    0.382E+00
DAV:  11    -0.790247566076E+03    0.30788E-01   -0.50604E-02 14004   0.219E-01    0.104E+00
DAV:  12    -0.790256724751E+03   -0.91587E-02   -0.82865E-03 13128   0.168E-01    0.625E-01
DAV:  13    -0.790257352826E+03   -0.62808E-03   -0.28248E-03 11652   0.112E-01    0.334E-01
DAV:  14    -0.790257051848E+03    0.30098E-03   -0.20084E-03 14748   0.552E-02    0.171E-01
DAV:  15    -0.790257137360E+03   -0.85513E-04   -0.31830E-04 12528   0.346E-02    0.756E-02
DAV:  16    -0.790257149259E+03   -0.11899E-04   -0.65288E-05 11700   0.155E-02    0.340E-02
DAV:  17    -0.790257172615E+03   -0.23356E-04   -0.22800E-05  9660   0.100E-02    0.746E-02
DAV:  18    -0.790257173966E+03   -0.13509E-05   -0.22603E-05  8328   0.825E-03
  27 F= -.79025717E+03 E0= -.79023018E+03  d E =-.126513E-01  mag=    -1.5246
       N       E                     dE             d eps       ncg     rms          rms(c)
DAV:   1    -0.790258365113E+03   -0.11925E-02   -0.19939E-02 11520   0.237E-01    0.387E-01
DAV:   2    -0.790296041928E+03   -0.37677E-01   -0.98818E-02 17868   0.322E-01    0.439E+00
DAV:   3    -0.790248562844E+03    0.47479E-01   -0.21258E-01 14628   0.315E-01    0.595E-01
DAV:   4    -0.790258035796E+03   -0.94730E-02   -0.35629E-03 11580   0.127E-01    0.420E-01
DAV:   5    -0.790257814195E+03    0.22160E-03   -0.93269E-04 13872   0.586E-02    0.121E-01
DAV:   6    -0.790258031868E+03   -0.21767E-03   -0.25875E-04 12960   0.401E-02    0.990E-02
DAV:   7    -0.790258078824E+03   -0.46956E-04   -0.93049E-05 11700   0.248E-02    0.601E-02
DAV:   8    -0.790258071189E+03    0.76347E-05   -0.28968E-05 10704   0.112E-02
  28 F= -.79025807E+03 E0= -.79023094E+03  d E =-.897223E-03  mag=    -1.5267
       N       E                     dE             d eps       ncg     rms          rms(c)
DAV:   1    -0.790260383846E+03   -0.23050E-02   -0.41809E-01 11520   0.114E+00    0.456E-01
DAV:   2    -0.790306898970E+03   -0.46515E-01   -0.98758E-02 16272   0.398E-01    0.488E+00
DAV:   3    -0.790248141625E+03    0.58757E-01   -0.28825E-01 14388   0.356E-01    0.392E-01
DAV:   4    -0.790260241673E+03   -0.12100E-01   -0.50459E-03 11676   0.150E-01    0.285E-01
DAV:   5    -0.790260573516E+03   -0.33184E-03   -0.10127E-03 13332   0.595E-02    0.245E-01
DAV:   6    -0.790260633416E+03   -0.59900E-04   -0.11120E-04 13632   0.196E-02    0.297E-01
DAV:   7    -0.790260307284E+03    0.32613E-03   -0.24646E-04 12468   0.255E-02    0.880E-02
DAV:   8    -0.790260413553E+03   -0.10627E-03   -0.25138E-04 12924   0.275E-02    0.957E-02
DAV:   9    -0.790260433172E+03   -0.19618E-04   -0.83651E-05 12660   0.190E-02    0.871E-02
DAV:  10    -0.790260419809E+03    0.13363E-04   -0.15210E-04 12804   0.180E-02    0.553E-02
DAV:  11    -0.790260418724E+03    0.10849E-05   -0.56632E-05  9648   0.121E-02
  29 F= -.79026042E+03 E0= -.79023348E+03  d E =-.234753E-02  mag=    -1.5409
       N       E                     dE             d eps       ncg     rms          rms(c)
DAV:   1    -0.790273241356E+03   -0.12822E-01   -0.23539E+00 11520   0.256E+00    0.210E+00
DAV:   2    -0.790756805116E+03   -0.48356E+00   -0.32118E-01 18192   0.180E+00    0.959E+00
DAV:   3    -0.790229562588E+03    0.52724E+00   -0.23859E+00 16752   0.104E+00    0.165E+00
DAV:   4    -0.790258533292E+03   -0.28971E-01   -0.52727E-02 12660   0.482E-01    0.876E-01
DAV:   5    -0.790267498039E+03   -0.89647E-02   -0.32143E-02 13872   0.241E-01    0.164E+00
DAV:   6    -0.790256714527E+03    0.10784E-01   -0.14370E-02 12144   0.180E-01    0.131E+00
DAV:   7    -0.790250000106E+03    0.67144E-02   -0.99677E-03 14988   0.224E-01    0.133E+00
DAV:   8    -0.790248467774E+03    0.15323E-02   -0.18639E-02 12876   0.181E-01    0.849E-01
DAV:   9    -0.790251142202E+03   -0.26744E-02   -0.11499E-02 13488   0.201E-01    0.818E-01
DAV:  10    -0.790248748523E+03    0.23937E-02   -0.45682E-03 12336   0.153E-01    0.328E-01
DAV:  11    -0.790248943073E+03   -0.19455E-03   -0.14446E-03 13140   0.697E-02    0.293E-01
DAV:  12    -0.790248890830E+03    0.52243E-04   -0.61839E-04 13932   0.455E-02    0.220E-01
DAV:  13    -0.790248955852E+03   -0.65021E-04   -0.30646E-04 13284   0.296E-02    0.231E-01
DAV:  14    -0.790248856956E+03    0.98896E-04   -0.19130E-04 13008   0.240E-02    0.121E-01
DAV:  15    -0.790248900048E+03   -0.43092E-04   -0.18679E-04 13560   0.192E-02    0.802E-02
DAV:  16    -0.790248913947E+03   -0.13899E-04   -0.25473E-05 10056   0.116E-02    0.742E-02
DAV:  17    -0.790248924556E+03   -0.10609E-04   -0.72932E-05 10800   0.101E-02    0.715E-02
DAV:  18    -0.790248918026E+03    0.65293E-05   -0.16834E-04 13560   0.174E-02    0.406E-02
DAV:  19    -0.790248927037E+03   -0.90105E-05   -0.42734E-05 11004   0.105E-02
  30 F= -.79024893E+03 E0= -.79022218E+03  d E =0.114917E-01  mag=    -1.5807
       N       E                     dE             d eps       ncg     rms          rms(c)
DAV:   1    -0.789404622120E+03    0.84430E+00   -0.18875E+02 12480   0.203E+01    0.153E+01
DAV:   2    -0.792833751611E+03   -0.34291E+01   -0.87355E+01 15648   0.696E+00    0.136E+01
DAV:   3    -0.789781493353E+03    0.30523E+01   -0.14144E+01 15660   0.512E+00    0.868E+00
DAV:   4    -0.789006251387E+03    0.77524E+00   -0.42881E+00 14172   0.292E+00    0.639E+00
DAV:   5    -0.788814043886E+03    0.19221E+00   -0.26202E+00 14724   0.188E+00    0.447E+00
DAV:   6    -0.788849617225E+03   -0.35573E-01   -0.13115E+00 14748   0.121E+00    0.555E+00
DAV:   7    -0.788798522194E+03    0.51095E-01   -0.77666E-01 15792   0.981E-01    0.363E+00
DAV:   8    -0.788807968555E+03   -0.94464E-02   -0.48529E-02 12972   0.344E-01    0.375E+00
DAV:   9    -0.788790115990E+03    0.17853E-01   -0.56643E-03 13920   0.176E-01    0.391E+00
DAV:  10    -0.788837211116E+03   -0.47095E-01   -0.48659E-02 14832   0.376E-01    0.309E+00
DAV:  11    -0.788889381884E+03   -0.52171E-01   -0.24482E-01 14196   0.843E-01    0.372E+00
DAV:  12    -0.788857358820E+03    0.32023E-01   -0.26242E-01 14568   0.705E-01    0.241E+00
DAV:  13    -0.788902654044E+03   -0.45295E-01   -0.13217E-01 13800   0.420E-01    0.316E+00
DAV:  14    -0.788897493775E+03    0.51603E-02   -0.76468E-03 12024   0.206E-01    0.309E+00
DAV:  15    -0.788894012089E+03    0.34817E-02   -0.69965E-03 13632   0.145E-01    0.269E+00
DAV:  16    -0.788907318712E+03   -0.13307E-01   -0.28546E-02 13812   0.209E-01    0.237E+00
DAV:  17    -0.788904872146E+03    0.24466E-02   -0.86711E-03 12336   0.213E-01    0.228E+00
DAV:  18    -0.788905766228E+03   -0.89408E-03   -0.18584E-02 14472   0.264E-01    0.230E+00
DAV:  19    -0.788916908966E+03   -0.11143E-01   -0.34096E-02 14076   0.358E-01    0.191E+00
DAV:  20    -0.788907879123E+03    0.90298E-02   -0.54983E-02 14460   0.510E-01    0.113E+00
DAV:  21    -0.788914444380E+03   -0.65653E-02   -0.16110E-02 12732   0.249E-01    0.128E+00
DAV:  22    -0.788918292652E+03   -0.38483E-02   -0.85512E-03 13044   0.188E-01    0.146E+00
DAV:  23    -0.788920049919E+03   -0.17573E-02   -0.43982E-03 13188   0.154E-01    0.155E+00
DAV:  24    -0.788920468652E+03   -0.41873E-03   -0.12531E-03 13440   0.694E-02    0.145E+00
DAV:  25    -0.788920419816E+03    0.48837E-04   -0.90252E-04 15156   0.738E-02    0.128E+00
DAV:  26    -0.788920448649E+03   -0.28833E-04   -0.33867E-03 15216   0.138E-01    0.104E+00
DAV:  27    -0.788920458098E+03   -0.94488E-05   -0.23253E-03 14508   0.115E-01    0.804E-01
DAV:  28    -0.788919879680E+03    0.57842E-03   -0.11305E-03 13980   0.676E-02    0.672E-01
DAV:  29    -0.788919290807E+03    0.58887E-03   -0.73586E-04 14484   0.723E-02    0.484E-01
DAV:  30    -0.788919179300E+03    0.11151E-03   -0.16758E-03 13332   0.977E-02    0.271E-01
DAV:  31    -0.788919382684E+03   -0.20338E-03   -0.51380E-04 13536   0.467E-02    0.232E-01
DAV:  32    -0.788919576374E+03   -0.19369E-03   -0.49037E-05 12576   0.141E-02    0.220E-01
DAV:  33    -0.788919923220E+03   -0.34685E-03   -0.10971E-04 12840   0.210E-02    0.206E-01
DAV:  34    -0.788920389522E+03   -0.46630E-03   -0.88067E-04 13284   0.527E-02    0.127E-01
DAV:  35    -0.788920581052E+03   -0.19153E-03   -0.40601E-04 13728   0.323E-02    0.936E-02
DAV:  36    -0.788920639735E+03   -0.58683E-04   -0.50126E-05 11628   0.129E-02    0.705E-02
DAV:  37    -0.788920683283E+03   -0.43549E-04   -0.55532E-05 11916   0.124E-02    0.484E-02
DAV:  38    -0.788920707620E+03   -0.24336E-04   -0.15956E-04 12636   0.209E-02    0.234E-02
DAV:  39    -0.788920718592E+03   -0.10972E-04   -0.58214E-05 11940   0.131E-02    0.203E-02
DAV:  40    -0.788920724675E+03   -0.60837E-05   -0.71889E-06  7536   0.527E-03
  31 F= -.78892072E+03 E0= -.78890540E+03  d E =0.132820E+01  mag=     2.0003
       N       E                     dE             d eps       ncg     rms          rms(c)
DAV:   1    -0.789830932925E+03   -0.91021E+00   -0.67303E+01 11520   0.117E+01    0.929E+00
DAV:   2    -0.790766496827E+03   -0.93556E+00   -0.62750E+00 15024   0.465E+00    0.128E+01
DAV:   3    -0.790068256522E+03    0.69824E+00   -0.15212E+01 15060   0.237E+00    0.738E+00
DAV:   4    -0.789907221037E+03    0.16104E+00   -0.31629E+00 15492   0.211E+00    0.526E+00
DAV:   5    -0.789758309178E+03    0.14891E+00   -0.29228E-01 15576   0.133E+00    0.343E+00
DAV:   6    -0.789732007423E+03    0.26302E-01   -0.37811E-01 14352   0.924E-01    0.367E+00
DAV:   7    -0.789805187013E+03   -0.73180E-01   -0.18728E-01 13656   0.605E-01    0.538E+00
DAV:   8    -0.789790389755E+03    0.14797E-01   -0.15318E-02 12156   0.265E-01    0.525E+00
DAV:   9    -0.789785309467E+03    0.50803E-02   -0.54434E-03 13464   0.111E-01    0.516E+00
DAV:  10    -0.789783940771E+03    0.13687E-02   -0.21494E-02 15120   0.252E-01    0.487E+00
DAV:  11    -0.789749997658E+03    0.33943E-01   -0.14187E-01 15984   0.804E-01    0.188E+00
DAV:  12    -0.789759356253E+03   -0.93586E-02   -0.12802E-01 13704   0.660E-01    0.227E+00
DAV:  13    -0.789775276340E+03   -0.15920E-01   -0.16774E-01 15336   0.651E-01    0.218E+00
DAV:  14    -0.789773981400E+03    0.12949E-02   -0.86116E-02 14052   0.399E-01    0.223E+00
DAV:  15    -0.789768360542E+03    0.56209E-02   -0.52968E-02 12828   0.287E-01    0.107E+00
DAV:  16    -0.789778109473E+03   -0.97489E-02   -0.24816E-02 14280   0.209E-01    0.190E+00
DAV:  17    -0.789775317211E+03    0.27923E-02   -0.28469E-02 11772   0.231E-01    0.189E+00
DAV:  18    -0.789766492133E+03    0.88251E-02   -0.49291E-02 14484   0.211E-01    0.123E+00
DAV:  19    -0.789766208948E+03    0.28318E-03   -0.31036E-02 11808   0.212E-01    0.501E-01
DAV:  20    -0.789767504304E+03   -0.12954E-02   -0.63746E-03 12552   0.116E-01    0.329E-01
DAV:  21    -0.789767749927E+03   -0.24562E-03   -0.19664E-03 13860   0.647E-02    0.328E-01
DAV:  22    -0.789767325782E+03    0.42414E-03   -0.18116E-03 14844   0.596E-02    0.438E-01
DAV:  23    -0.789766644897E+03    0.68089E-03   -0.80884E-04 12684   0.765E-02    0.305E-01
DAV:  24    -0.789766407608E+03    0.23729E-03   -0.81666E-04 12564   0.424E-02    0.245E-01
DAV:  25    -0.789766724890E+03   -0.31728E-03   -0.13141E-04 11724   0.260E-02    0.236E-01
DAV:  26    -0.789767061794E+03   -0.33690E-03   -0.19861E-04 12912   0.260E-02    0.225E-01
DAV:  27    -0.789767553415E+03   -0.49162E-03   -0.10189E-03 13740   0.484E-02    0.211E-01
DAV:  28    -0.789767791333E+03   -0.23792E-03   -0.32989E-03 13308   0.735E-02    0.123E-01
DAV:  29    -0.789768087009E+03   -0.29568E-03   -0.14088E-03 13380   0.492E-02    0.118E-01
DAV:  30    -0.789768257081E+03   -0.17007E-03   -0.18381E-03 14748   0.454E-02    0.132E-01
DAV:  31    -0.789768709940E+03   -0.45286E-03   -0.13440E-03 12480   0.370E-02    0.238E-01
DAV:  32    -0.789768346015E+03    0.36393E-03   -0.11646E-03 11760   0.517E-02    0.137E-01
DAV:  33    -0.789768114886E+03    0.23113E-03   -0.13783E-03 13536   0.373E-02    0.720E-02
DAV:  34    -0.789768131306E+03   -0.16420E-04   -0.51975E-04 12780   0.278E-02    0.708E-02
DAV:  35    -0.789768133326E+03   -0.20198E-05   -0.23121E-04 12468   0.177E-02    0.574E-02
DAV:  36    -0.789768131560E+03    0.17652E-05   -0.71728E-05 11376   0.111E-02
  32 F= -.78976813E+03 E0= -.78974557E+03  d E =-.847407E+00  mag=     0.5352
       N       E                     dE             d eps       ncg     rms          rms(c)
DAV:   1    -0.790104808039E+03   -0.33667E+00   -0.86860E+00 11520   0.386E+00    0.522E+00
DAV:   2    -0.790885069616E+03   -0.78026E+00   -0.15280E+00 16728   0.312E+00    0.113E+01
DAV:   3    -0.790061311241E+03    0.82376E+00   -0.76842E+00 15444   0.170E+00    0.396E+00
DAV:   4    -0.790052716046E+03    0.85952E-02   -0.47657E-01 14028   0.124E+00    0.387E+00
DAV:   5    -0.790018418195E+03    0.34298E-01   -0.25322E-01 15036   0.724E-01    0.205E+00
DAV:   6    -0.790029123819E+03   -0.10706E-01   -0.13362E-01 14544   0.436E-01    0.325E+00
DAV:   7    -0.790042041853E+03   -0.12918E-01   -0.13056E-02 12384   0.233E-01    0.367E+00
DAV:   8    -0.790039394752E+03    0.26471E-02   -0.15732E-03 13092   0.896E-02    0.393E+00
DAV:   9    -0.790032893193E+03    0.65016E-02   -0.25597E-02 17880   0.320E-01    0.224E+00
DAV:  10    -0.790042560203E+03   -0.96670E-02   -0.40519E-02 14016   0.325E-01    0.715E-01
DAV:  11    -0.790053909893E+03   -0.11350E-01   -0.19707E-02 14028   0.257E-01    0.136E+00
DAV:  12    -0.790050892888E+03    0.30170E-02   -0.18818E-02 13140   0.181E-01    0.843E-01
DAV:  13    -0.790051038407E+03   -0.14552E-03   -0.39587E-03 12960   0.110E-01    0.497E-01
DAV:  14    -0.790051955499E+03   -0.91709E-03   -0.25797E-03 14292   0.896E-02    0.668E-01
DAV:  15    -0.790051951352E+03    0.41466E-05   -0.19547E-03 14172   0.687E-02    0.746E-01
DAV:  16    -0.790051311478E+03    0.63987E-03   -0.27028E-03 13584   0.633E-02    0.257E-01
DAV:  17    -0.790051821297E+03   -0.50982E-03   -0.68784E-04 13044   0.419E-02    0.554E-02
DAV:  18    -0.790051964740E+03   -0.14344E-03   -0.80387E-05 12384   0.207E-02    0.607E-02
DAV:  19    -0.790051969995E+03   -0.52552E-05   -0.32520E-05 10896   0.130E-02
  33 F= -.79005197E+03 E0= -.79003005E+03  d E =-.283838E+00  mag=     1.9972
       N       E                     dE             d eps       ncg     rms          rms(c)
DAV:   1    -0.789637283989E+03    0.41468E+00   -0.14302E+02 11520   0.161E+01    0.135E+01
DAV:   2    -0.789637188851E+03    0.95138E-04   -0.53262E+00 14316   0.341E+00    0.347E+00
DAV:   3    -0.789788659704E+03   -0.15147E+00   -0.12130E+00 14136   0.219E+00    0.772E+00
DAV:   4    -0.789630709584E+03    0.15795E+00   -0.29794E+00 14484   0.120E+00    0.372E+00
DAV:   5    -0.789639575599E+03   -0.88660E-02   -0.17271E+00 16992   0.117E+00    0.214E+00
DAV:   6    -0.789615962076E+03    0.23614E-01   -0.72326E-02 13788   0.646E-01    0.178E+00
DAV:   7    -0.789607692883E+03    0.82692E-02   -0.63827E-02 14688   0.440E-01    0.140E+00
DAV:   8    -0.789600624013E+03    0.70689E-02   -0.28726E-02 15492   0.417E-01    0.112E+00
DAV:   9    -0.789608610512E+03   -0.79865E-02   -0.29155E-02 13872   0.257E-01    0.184E+00
DAV:  10    -0.789604252265E+03    0.43582E-02   -0.29694E-02 15096   0.275E-01    0.140E+00
DAV:  11    -0.789607087746E+03   -0.28355E-02   -0.38390E-02 14028   0.225E-01    0.183E+00
DAV:  12    -0.789600127028E+03    0.69607E-02   -0.33920E-02 15852   0.250E-01    0.725E-01
DAV:  13    -0.789601265372E+03   -0.11383E-02   -0.70377E-03 12576   0.146E-01    0.420E-01
DAV:  14    -0.789602181239E+03   -0.91587E-03   -0.34677E-03 13620   0.120E-01    0.486E-01
DAV:  15    -0.789602198165E+03   -0.16925E-04   -0.28988E-03 13644   0.835E-02    0.408E-01
DAV:  16    -0.789602397402E+03   -0.19924E-03   -0.11408E-03 13140   0.559E-02    0.305E-01
DAV:  17    -0.789602389728E+03    0.76738E-05   -0.83796E-04 14772   0.604E-02    0.152E-01
DAV:  18    -0.789602482999E+03   -0.93271E-04   -0.38339E-04 12996   0.359E-02    0.117E-01
DAV:  19    -0.789602496835E+03   -0.13836E-04   -0.13575E-04 12840   0.249E-02    0.468E-02
DAV:  20    -0.789602510633E+03   -0.13798E-04   -0.45469E-05 12948   0.145E-02    0.262E-02
DAV:  21    -0.789602516329E+03   -0.56960E-05   -0.13420E-05  8832   0.818E-03
  34 F= -.78960252E+03 E0= -.78957843E+03  d E =0.449454E+00  mag=     1.9980
       N       E                     dE             d eps       ncg     rms          rms(c)
DAV:   1    -0.790766403629E+03   -0.11639E+01   -0.72227E+01 11940   0.110E+01    0.120E+01
DAV:   2    -0.792971734692E+03   -0.22053E+01   -0.70666E+01 18156   0.642E+00    0.117E+01
DAV:   3    -0.791457044424E+03    0.15147E+01   -0.14966E+01 15552   0.413E+00    0.895E+00
DAV:   4    -0.790974858834E+03    0.48219E+00   -0.57784E+00 14700   0.219E+00    0.716E+00
DAV:   5    -0.790705717264E+03    0.26914E+00   -0.13297E+00 14412   0.128E+00    0.633E+00
DAV:   6    -0.790605173114E+03    0.10054E+00   -0.54018E-01 13920   0.738E-01    0.524E+00
DAV:   7    -0.790510270818E+03    0.94902E-01   -0.35915E-01 17040   0.819E-01    0.478E+00
DAV:   8    -0.790392002264E+03    0.11827E+00   -0.18861E-01 16092   0.822E-01    0.450E+00
DAV:   9    -0.790362986982E+03    0.29015E-01   -0.35672E-02 13404   0.384E-01    0.418E+00
DAV:  10    -0.790303251867E+03    0.59735E-01   -0.61412E-01 16884   0.156E+00    0.494E+00
DAV:  11    -0.790412677365E+03   -0.10943E+00   -0.65131E-01 16152   0.160E+00    0.793E+00
DAV:  12    -0.790263491239E+03    0.14919E+00   -0.63969E-01 13236   0.687E-01    0.583E+00
DAV:  13    -0.790266387935E+03   -0.28967E-02   -0.28661E-02 13908   0.293E-01    0.555E+00
DAV:  14    -0.790281214579E+03   -0.14827E-01   -0.28141E-02 14916   0.323E-01    0.540E+00
DAV:  15    -0.790241716083E+03    0.39498E-01   -0.16436E-01 15708   0.851E-01    0.399E+00
DAV:  16    -0.790223046061E+03    0.18670E-01   -0.21211E-01 13980   0.622E-01    0.419E+00
DAV:  17    -0.790165224787E+03    0.57821E-01   -0.55456E-02 13272   0.503E-01    0.389E+00
DAV:  18    -0.790178805942E+03   -0.13581E-01   -0.95818E-02 14136   0.370E-01    0.496E+00
DAV:  19    -0.790190238331E+03   -0.11432E-01   -0.21323E-02 11820   0.314E-01    0.417E+00
DAV:  20    -0.790205552422E+03   -0.15314E-01   -0.27922E-02 13848   0.234E-01    0.407E+00
DAV:  21    -0.790203759505E+03    0.17929E-02   -0.89741E-03 13788   0.168E-01    0.362E+00
DAV:  22    -0.790209882496E+03   -0.61230E-02   -0.18353E-03 12108   0.829E-02    0.366E+00
DAV:  23    -0.790193820661E+03    0.16062E-01   -0.38284E-02 15312   0.406E-01    0.274E+00
DAV:  24    -0.790196502044E+03   -0.26814E-02   -0.79129E-03 12756   0.164E-01    0.261E+00
DAV:  25    -0.790194284464E+03    0.22176E-02   -0.51685E-03 15636   0.129E-01    0.252E+00
DAV:  26    -0.790186616730E+03    0.76677E-02   -0.67516E-03 14664   0.148E-01    0.218E+00
DAV:  27    -0.790194392976E+03   -0.77762E-02   -0.59335E-03 13860   0.126E-01    0.192E+00
DAV:  28    -0.790214306710E+03   -0.19914E-01   -0.85580E-03 15588   0.250E-01    0.186E+00
DAV:  29    -0.790219557057E+03   -0.52503E-02   -0.78792E-03 13824   0.162E-01    0.156E+00
DAV:  30    -0.790226521525E+03   -0.69645E-02   -0.34955E-03 15504   0.133E-01    0.134E+00
DAV:  31    -0.790232350513E+03   -0.58290E-02   -0.39670E-03 15300   0.155E-01    0.141E+00
DAV:  32    -0.790230676936E+03    0.16736E-02   -0.63546E-03 14160   0.161E-01    0.693E-01
DAV:  33    -0.790232997297E+03   -0.23204E-02   -0.24204E-03 13500   0.111E-01    0.517E-01
DAV:  34    -0.790233462680E+03   -0.46538E-03   -0.85028E-04 13560   0.631E-02    0.448E-01
DAV:  35    -0.790234120282E+03   -0.65760E-03   -0.75453E-04 15264   0.750E-02    0.283E-01
DAV:  36    -0.790234558578E+03   -0.43830E-03   -0.11038E-03 13248   0.713E-02    0.206E-01
DAV:  37    -0.790234488933E+03    0.69645E-04   -0.47318E-04 13440   0.385E-02    0.244E-01
DAV:  38    -0.790234322621E+03    0.16631E-03   -0.34989E-04 13596   0.335E-02    0.218E-01
DAV:  39    -0.790234437345E+03   -0.11472E-03   -0.32758E-04 14592   0.354E-02    0.191E-01
DAV:  40    -0.790234318669E+03    0.11868E-03   -0.28546E-04 13332   0.224E-02    0.175E-01
DAV:  41    -0.790233962060E+03    0.35661E-03   -0.14628E-03 13716   0.394E-02    0.121E-01
DAV:  42    -0.790234115354E+03   -0.15329E-03   -0.44462E-04 11904   0.281E-02    0.993E-02
DAV:  43    -0.790234309447E+03   -0.19409E-03   -0.42807E-04 12468   0.218E-02    0.171E-01
DAV:  44    -0.790234384326E+03   -0.74879E-04   -0.12405E-04 11796   0.305E-02    0.782E-02
DAV:  45    -0.790234434100E+03   -0.49774E-04   -0.92253E-05 13680   0.179E-02    0.632E-02
DAV:  46    -0.790234429780E+03    0.43198E-05   -0.81875E-05 10044   0.123E-02
  35 F= -.79023443E+03 E0= -.79020933E+03  d E =-.631913E+00  mag=    -0.6756
       N       E                     dE             d eps       ncg     rms          rms(c)
DAV:   1    -0.790274750068E+03   -0.40316E-01   -0.16038E+00 11520   0.186E+00    0.281E+00
DAV:   2    -0.790622403326E+03   -0.34765E+00   -0.65955E-01 17652   0.186E+00    0.913E+00
DAV:   3    -0.790284064479E+03    0.33834E+00   -0.59384E+00 17580   0.129E+00    0.266E+00
DAV:   4    -0.790287735137E+03   -0.36707E-02   -0.96882E-02 13020   0.568E-01    0.244E+00
DAV:   5    -0.790257439096E+03    0.30296E-01   -0.53405E-02 14460   0.381E-01    0.209E+00
DAV:   6    -0.790247130006E+03    0.10309E-01   -0.22401E-02 14184   0.227E-01    0.173E+00
DAV:   7    -0.790247574979E+03   -0.44497E-03   -0.16548E-03 11892   0.915E-02    0.175E+00
DAV:   8    -0.790248712422E+03   -0.11374E-02   -0.27098E-03 12912   0.437E-02    0.186E+00
DAV:   9    -0.790249470671E+03   -0.75825E-03   -0.62136E-04 12504   0.498E-02    0.185E+00
DAV:  10    -0.790244032778E+03    0.54379E-02   -0.48088E-03 12996   0.130E-01    0.185E+00
DAV:  11    -0.790242847934E+03    0.11848E-02   -0.33166E-02 13416   0.194E-01    0.179E+00
DAV:  12    -0.790233729406E+03    0.91185E-02   -0.20953E-02 11844   0.225E-01    0.904E-01
DAV:  13    -0.790238049345E+03   -0.43199E-02   -0.13648E-02 13800   0.152E-01    0.992E-01
DAV:  14    -0.790242275871E+03   -0.42265E-02   -0.67329E-03 12192   0.120E-01    0.115E+00
DAV:  15    -0.790242230712E+03    0.45160E-04   -0.57369E-04 11856   0.598E-02    0.115E+00
DAV:  16    -0.790242148304E+03    0.82408E-04   -0.27607E-05 11868   0.132E-02    0.115E+00
DAV:  17    -0.790241213153E+03    0.93515E-03   -0.11381E-04 12744   0.203E-02    0.122E+00
DAV:  18    -0.790245254468E+03   -0.40413E-02   -0.22722E-03 13344   0.698E-02    0.121E+00
DAV:  19    -0.790244016738E+03    0.12377E-02   -0.25383E-04 11748   0.336E-02    0.120E+00
DAV:  20    -0.790246494341E+03   -0.24776E-02   -0.10272E-03 15180   0.632E-02    0.106E+00
DAV:  21    -0.790259201483E+03   -0.12707E-01   -0.31310E-02 14832   0.376E-01    0.673E-01
DAV:  22    -0.790260879683E+03   -0.16782E-02   -0.11603E-02 13068   0.211E-01    0.511E-01
DAV:  23    -0.790258260214E+03    0.26195E-02   -0.71803E-03 14568   0.194E-01    0.809E-01
DAV:  24    -0.790257994823E+03    0.26539E-03   -0.87802E-03 12192   0.134E-01    0.469E-01
DAV:  25    -0.790258253179E+03   -0.25836E-03   -0.48111E-03 14436   0.101E-01    0.630E-01
DAV:  26    -0.790259470251E+03   -0.12171E-02   -0.24884E-03 12072   0.839E-02    0.676E-01
DAV:  27    -0.790260785630E+03   -0.13154E-02   -0.15910E-03 12444   0.103E-01    0.517E-01
DAV:  28    -0.790260909692E+03   -0.12406E-03   -0.95898E-04 14064   0.635E-02    0.313E-01
DAV:  29    -0.790261050967E+03   -0.14128E-03   -0.50961E-04 14412   0.531E-02    0.201E-01
DAV:  30    -0.790261127968E+03   -0.77001E-04   -0.21260E-04 12180   0.265E-02    0.180E-01
DAV:  31    -0.790261069662E+03    0.58306E-04   -0.11957E-04 12108   0.186E-02    0.116E-01
DAV:  32    -0.790261026506E+03    0.43156E-04   -0.13125E-04 13152   0.174E-02    0.536E-02
DAV:  33    -0.790261042036E+03   -0.15530E-04   -0.87714E-05 12372   0.157E-02    0.265E-02
DAV:  34    -0.790261066354E+03   -0.24318E-04   -0.18774E-05  9120   0.941E-03    0.256E-02
DAV:  35    -0.790261064962E+03    0.13917E-05   -0.10473E-05  8844   0.772E-03
  36 F= -.79026106E+03 E0= -.79023569E+03  d E =-.266352E-01  mag=    -0.7132
       N       E                     dE             d eps       ncg     rms          rms(c)
DAV:   1    -0.790274275541E+03   -0.13209E-01   -0.11870E+00 11520   0.171E+00    0.223E+00
DAV:   2    -0.790477816603E+03   -0.20354E+00   -0.38814E-01 17604   0.152E+00    0.828E+00
DAV:   3    -0.790280005580E+03    0.19781E+00   -0.42463E+00 17904   0.114E+00    0.255E+00
DAV:   4    -0.790287761837E+03   -0.77563E-02   -0.65551E-02 12756   0.455E-01    0.242E+00
DAV:   5    -0.790267529797E+03    0.20232E-01   -0.65326E-02 15048   0.351E-01    0.196E+00
DAV:   6    -0.790254274485E+03    0.13255E-01   -0.37230E-02 12996   0.210E-01    0.144E+00
DAV:   7    -0.790252889660E+03    0.13848E-02   -0.12770E-02 13296   0.139E-01    0.111E+00
DAV:   8    -0.790254136599E+03   -0.12469E-02   -0.15672E-03 11904   0.751E-02    0.106E+00
DAV:   9    -0.790252284092E+03    0.18525E-02   -0.36553E-04 12576   0.479E-02    0.104E+00
DAV:  10    -0.790244149317E+03    0.81348E-02   -0.15440E-02 13248   0.184E-01    0.926E-01
DAV:  11    -0.790250437988E+03   -0.62887E-02   -0.87374E-03 11784   0.146E-01    0.961E-01
DAV:  12    -0.790254460185E+03   -0.40222E-02   -0.26274E-03 12420   0.992E-02    0.974E-01
DAV:  13    -0.790254821619E+03   -0.36143E-03   -0.35268E-04 13584   0.370E-02    0.942E-01
DAV:  14    -0.790260153540E+03   -0.53319E-02   -0.31469E-03 15216   0.120E-01    0.710E-01
DAV:  15    -0.790264061669E+03   -0.39081E-02   -0.43791E-03 14448   0.154E-01    0.468E-01
DAV:  16    -0.790265982146E+03   -0.19205E-02   -0.11236E-02 15072   0.281E-01    0.348E-01
DAV:  17    -0.790265999873E+03   -0.17727E-04   -0.55353E-03 13368   0.129E-01    0.284E-01
DAV:  18    -0.790266633642E+03   -0.63377E-03   -0.12969E-03 13116   0.557E-02    0.243E-01
DAV:  19    -0.790267066514E+03   -0.43287E-03   -0.69861E-04 12876   0.576E-02    0.156E-01
DAV:  20    -0.790267199437E+03   -0.13292E-03   -0.61184E-04 12888   0.477E-02    0.142E-01
DAV:  21    -0.790267238352E+03   -0.38915E-04   -0.19306E-04 13224   0.278E-02    0.115E-01
DAV:  22    -0.790267229172E+03    0.91800E-05   -0.11801E-04 14100   0.190E-02    0.642E-02
DAV:  23    -0.790267236602E+03   -0.74300E-05   -0.31732E-05  9612   0.955E-03
  37 F= -.79026724E+03 E0= -.79024177E+03  d E =-.617164E-02  mag=    -0.7296
       N       E                     dE             d eps       ncg     rms          rms(c)
DAV:   1    -0.790268673490E+03   -0.14443E-02   -0.82251E-02 11520   0.502E-01    0.177E-01
DAV:   2    -0.790269325880E+03   -0.65239E-03   -0.59509E-03 14520   0.109E-01    0.428E-01
DAV:   3    -0.790268687429E+03    0.63845E-03   -0.44665E-03 15336   0.763E-02    0.121E-01
DAV:   4    -0.790268874894E+03   -0.18747E-03   -0.10633E-03 12660   0.438E-02    0.194E-01
DAV:   5    -0.790268816733E+03    0.58161E-04   -0.29127E-04 14292   0.299E-02    0.821E-02
DAV:   6    -0.790268857513E+03   -0.40780E-04   -0.70944E-05 12228   0.140E-02    0.822E-02
DAV:   7    -0.790268791212E+03    0.66301E-04   -0.11145E-04 11124   0.149E-02    0.843E-02
DAV:   8    -0.790268732355E+03    0.58857E-04   -0.16856E-04 12216   0.189E-02    0.694E-02
DAV:   9    -0.790268760389E+03   -0.28035E-04   -0.11274E-04 11436   0.169E-02    0.552E-02
DAV:  10    -0.790268775187E+03   -0.14798E-04   -0.45904E-05  8772   0.113E-02    0.239E-02
DAV:  11    -0.790268780315E+03   -0.51281E-05   -0.12580E-05  7980   0.708E-03
  38 F= -.79026878E+03 E0= -.79024331E+03  d E =-.154371E-02  mag=    -0.7214
       N       E                     dE             d eps       ncg     rms          rms(c)
DAV:   1    -0.790271507551E+03   -0.27324E-02   -0.45096E+00 11520   0.373E+00    0.185E+00
DAV:   2    -0.790339017561E+03   -0.67510E-01   -0.94898E-01 16104   0.136E+00    0.490E+00
DAV:   3    -0.790276120991E+03    0.62897E-01   -0.15792E-01 16476   0.847E-01    0.227E+00
DAV:   4    -0.790271806961E+03    0.43140E-02   -0.41098E-02 13848   0.318E-01    0.912E-01
DAV:   5    -0.790275193668E+03   -0.33867E-02   -0.21203E-02 13992   0.259E-01    0.110E+00
DAV:   6    -0.790275244654E+03   -0.50986E-04   -0.99094E-03 13236   0.174E-01    0.837E-01
DAV:   7    -0.790273695348E+03    0.15493E-02   -0.44358E-03 13932   0.112E-01    0.179E-01
DAV:   8    -0.790274773863E+03   -0.10785E-02   -0.27245E-03 12948   0.818E-02    0.595E-01
DAV:   9    -0.790274245528E+03    0.52833E-03   -0.80599E-04 12744   0.596E-02    0.380E-01
DAV:  10    -0.790274073732E+03    0.17180E-03   -0.91756E-04 14388   0.510E-02    0.172E-01
DAV:  11    -0.790274260250E+03   -0.18652E-03   -0.25882E-04 12084   0.327E-02    0.122E-01
DAV:  12    -0.790274251047E+03    0.92027E-05   -0.24783E-05 10188   0.105E-02
  39 F= -.79027425E+03 E0= -.79024910E+03  d E =-.547073E-02  mag=    -0.7105
       N       E                     dE             d eps       ncg     rms          rms(c)
DAV:   1    -0.790268633203E+03    0.56270E-02   -0.46738E+00 11544   0.385E+00    0.227E+00
DAV:   2    -0.790375956557E+03   -0.10732E+00   -0.15631E+00 16536   0.155E+00    0.619E+00
DAV:   3    -0.790292081959E+03    0.83875E-01   -0.13570E+00 16944   0.106E+00    0.375E+00
DAV:   4    -0.790268809219E+03    0.23273E-01   -0.53234E-02 13368   0.526E-01    0.119E+00
DAV:   5    -0.790269405169E+03   -0.59595E-03   -0.43970E-02 14076   0.392E-01    0.103E+00
DAV:   6    -0.790271854545E+03   -0.24494E-02   -0.30122E-02 14616   0.266E-01    0.944E-01
DAV:   7    -0.790270859272E+03    0.99527E-03   -0.75866E-03 13788   0.175E-01    0.860E-01
DAV:   8    -0.790270142633E+03    0.71664E-03   -0.14571E-02 14124   0.138E-01    0.548E-01
DAV:   9    -0.790270200744E+03   -0.58111E-04   -0.25641E-03 13764   0.949E-02    0.333E-01
DAV:  10    -0.790270777286E+03   -0.57654E-03   -0.37758E-03 12420   0.797E-02    0.360E-01
DAV:  11    -0.790270696078E+03    0.81208E-04   -0.56853E-04 12540   0.421E-02    0.363E-01
DAV:  12    -0.790270142651E+03    0.55343E-03   -0.31959E-03 17424   0.798E-02    0.186E-01
DAV:  13    -0.790270420439E+03   -0.27779E-03   -0.83155E-04 12504   0.411E-02    0.115E-01
DAV:  14    -0.790270525425E+03   -0.10499E-03   -0.34465E-04 13524   0.354E-02    0.793E-02
DAV:  15    -0.790270533070E+03   -0.76450E-05   -0.31809E-04 13584   0.298E-02    0.645E-02
DAV:  16    -0.790270547186E+03   -0.14116E-04   -0.96574E-05 11580   0.153E-02    0.487E-02
DAV:  17    -0.790270548172E+03   -0.98601E-06   -0.20063E-05  8256   0.888E-03
  40 F= -.79027055E+03 E0= -.79024615E+03  d E =0.370288E-02  mag=    -0.8138
       N       E                     dE             d eps       ncg     rms          rms(c)
DAV:   1    -0.790277907624E+03   -0.73604E-02   -0.19334E+00 11520   0.243E+00    0.139E+00
DAV:   2    -0.790312421450E+03   -0.34514E-01   -0.30200E-01 16248   0.957E-01    0.392E+00
DAV:   3    -0.790280704694E+03    0.31717E-01   -0.55612E-02 15084   0.621E-01    0.138E+00
DAV:   4    -0.790278269614E+03    0.24351E-02   -0.29361E-02 13656   0.350E-01    0.705E-01
DAV:   5    -0.790278476221E+03   -0.20661E-03   -0.18860E-02 13116   0.208E-01    0.502E-01
DAV:   6    -0.790278807029E+03   -0.33081E-03   -0.58154E-03 13608   0.131E-01    0.447E-01
DAV:   7    -0.790278258631E+03    0.54840E-03   -0.72906E-03 14052   0.109E-01    0.234E-01
DAV:   8    -0.790278340814E+03   -0.82183E-04   -0.12706E-03 12168   0.570E-02    0.165E-01
DAV:   9    -0.790278295869E+03    0.44945E-04   -0.35932E-04 13980   0.356E-02    0.146E-01
DAV:  10    -0.790278276905E+03    0.18964E-04   -0.48345E-04 14472   0.278E-02    0.105E-01
DAV:  11    -0.790278280224E+03   -0.33189E-05   -0.16097E-04 11412   0.173E-02    0.615E-02
DAV:  12    -0.790278276681E+03    0.35429E-05   -0.37473E-05  9876   0.106E-02
  41 F= -.79027828E+03 E0= -.79025374E+03  d E =-.772851E-02  mag=    -0.8471
       N       E                     dE             d eps       ncg     rms          rms(c)
DAV:   1    -0.790277803451E+03    0.47677E-03   -0.65166E-01 11520   0.142E+00    0.904E-01
DAV:   2    -0.790293235625E+03   -0.15432E-01   -0.79659E-02 15960   0.587E-01    0.316E+00
DAV:   3    -0.790275790191E+03    0.17445E-01   -0.27779E-02 15852   0.432E-01    0.597E-01
DAV:   4    -0.790278416012E+03   -0.26258E-02   -0.14744E-02 12768   0.184E-01    0.416E-01
DAV:   5    -0.790278431929E+03   -0.15917E-04   -0.18322E-03 12984   0.925E-02    0.255E-01
DAV:   6    -0.790278245499E+03    0.18643E-03   -0.16765E-03 15000   0.594E-02    0.139E-01
DAV:   7    -0.790278365030E+03   -0.11953E-03   -0.82376E-04 13056   0.420E-02    0.217E-01
DAV:   8    -0.790278271707E+03    0.93323E-04   -0.28697E-04 12732   0.289E-02    0.125E-01
DAV:   9    -0.790278264083E+03    0.76247E-05   -0.26457E-04 13632   0.214E-02    0.727E-02
DAV:  10    -0.790278278918E+03   -0.14835E-04   -0.43693E-05 10776   0.139E-02    0.531E-02
DAV:  11    -0.790278273565E+03    0.53526E-05   -0.23681E-05  9012   0.871E-03
  42 F= -.79027827E+03 E0= -.79025357E+03  d E =0.311571E-05  mag=    -0.8719
       N       E                     dE             d eps       ncg     rms          rms(c)
DAV:   1    -0.790276312337E+03    0.19666E-02   -0.33613E-01 11520   0.104E+00    0.253E-01
DAV:   2    -0.790278008073E+03   -0.16957E-02   -0.10863E-02 14172   0.188E-01    0.881E-01
DAV:   3    -0.790276445495E+03    0.15626E-02   -0.18103E-03 13908   0.104E-01    0.149E-01
DAV:   4    -0.790276873917E+03   -0.42842E-03   -0.15603E-03 13236   0.661E-02    0.195E-01
DAV:   5    -0.790276853015E+03    0.20901E-04   -0.47988E-04 13248   0.435E-02    0.137E-01
DAV:   6    -0.790276826847E+03    0.26168E-04   -0.15296E-04 13224   0.253E-02    0.620E-02
DAV:   7    -0.790276855142E+03   -0.28295E-04   -0.12316E-04 12528   0.185E-02    0.116E-01
DAV:   8    -0.790276825409E+03    0.29733E-04   -0.43103E-05  9120   0.134E-02    0.430E-02
DAV:   9    -0.790276830380E+03   -0.49711E-05   -0.18037E-05  8232   0.773E-03
  43 F= -.79027683E+03 E0= -.79025213E+03  d E =0.144319E-02  mag=    -0.8810
       N       E                     dE             d eps       ncg     rms          rms(c)
DAV:   1    -0.790180920190E+03    0.95905E-01   -0.25978E+01 11520   0.917E+00    0.307E+00
DAV:   2    -0.790337659310E+03   -0.15674E+00   -0.17674E+00 14712   0.223E+00    0.695E+00
DAV:   3    -0.790230983144E+03    0.10668E+00   -0.12447E+00 16104   0.130E+00    0.305E+00
DAV:   4    -0.790217751925E+03    0.13231E-01   -0.12691E-01 13872   0.658E-01    0.114E+00
DAV:   5    -0.790219876426E+03   -0.21245E-02   -0.53178E-02 13152   0.447E-01    0.117E+00
DAV:   6    -0.790218777910E+03    0.10985E-02   -0.37173E-02 15024   0.273E-01    0.875E-01
DAV:   7    -0.790217033868E+03    0.17440E-02   -0.88663E-03 13860   0.190E-01    0.531E-01
DAV:   8    -0.790216661608E+03    0.37226E-03   -0.64481E-03 14316   0.141E-01    0.324E-01
DAV:   9    -0.790217066153E+03   -0.40454E-03   -0.18340E-03 12552   0.901E-02    0.516E-01
DAV:  10    -0.790216571385E+03    0.49477E-03   -0.19442E-03 13272   0.708E-02    0.207E-01
DAV:  11    -0.790216739950E+03   -0.16857E-03   -0.61332E-04 12984   0.426E-02    0.243E-01
DAV:  12    -0.790216658441E+03    0.81510E-04   -0.89110E-04 12804   0.360E-02    0.139E-01
DAV:  13    -0.790216643236E+03    0.15205E-04   -0.31036E-04 12912   0.278E-02    0.431E-02
DAV:  14    -0.790216663269E+03   -0.20034E-04   -0.48315E-05 11100   0.144E-02    0.724E-02
DAV:  15    -0.790216653971E+03    0.92985E-05   -0.21905E-05  8988   0.104E-02
  44 F= -.79021665E+03 E0= -.79019268E+03  d E =0.601764E-01  mag=    -0.7910
       N       E                     dE             d eps       ncg     rms          rms(c)
DAV:   1    -0.790251868270E+03   -0.35205E-01   -0.65752E+00 11520   0.480E+00    0.337E+00
DAV:   2    -0.790586279523E+03   -0.33441E+00   -0.69502E-01 16980   0.226E+00    0.906E+00
DAV:   3    -0.790301126732E+03    0.28515E+00   -0.61474E+00 17424   0.146E+00    0.347E+00
DAV:   4    -0.790286254140E+03    0.14873E-01   -0.13826E-01 13704   0.784E-01    0.263E+00
DAV:   5    -0.790241073079E+03    0.45181E-01   -0.56103E-02 14484   0.526E-01    0.210E+00
DAV:   6    -0.790222848751E+03    0.18224E-01   -0.24792E-02 13260   0.315E-01    0.161E+00
DAV:   7    -0.790214997831E+03    0.78509E-02   -0.24424E-02 16476   0.312E-01    0.140E+00
DAV:   8    -0.790219381742E+03   -0.43839E-02   -0.57707E-03 12300   0.149E-01    0.164E+00
DAV:   9    -0.790213126987E+03    0.62548E-02   -0.20573E-02 13428   0.138E-01    0.803E-01
DAV:  10    -0.790214549576E+03   -0.14226E-02   -0.15242E-02 13572   0.180E-01    0.576E-01
DAV:  11    -0.790214356106E+03    0.19347E-03   -0.92187E-03 13212   0.140E-01    0.423E-01
DAV:  12    -0.790214232355E+03    0.12375E-03   -0.17913E-03 14160   0.859E-02    0.283E-01
DAV:  13    -0.790214301632E+03   -0.69276E-04   -0.43593E-03 14340   0.782E-02    0.320E-01
DAV:  14    -0.790214248232E+03    0.53400E-04   -0.10775E-03 13236   0.566E-02    0.131E-01
DAV:  15    -0.790214424745E+03   -0.17651E-03   -0.88184E-04 13560   0.329E-02    0.182E-01
DAV:  16    -0.790214421367E+03    0.33786E-05   -0.68923E-05 11868   0.192E-02
  45 F= -.79021442E+03 E0= -.79018711E+03  d E =0.223260E-02  mag=    -1.5128
       N       E                     dE             d eps       ncg     rms          rms(c)
DAV:   1    -0.790234094790E+03   -0.19670E-01   -0.34060E+00 11520   0.336E+00    0.103E+00
DAV:   2    -0.790283467616E+03   -0.49373E-01   -0.32648E-01 14472   0.742E-01    0.241E+00
DAV:   3    -0.790237748442E+03    0.45719E-01   -0.20269E-02 16608   0.481E-01    0.540E-01
DAV:   4    -0.790241024874E+03   -0.32764E-02   -0.18293E-02 13056   0.245E-01    0.867E-01
DAV:   5    -0.790243695702E+03   -0.26708E-02   -0.12573E-02 13248   0.141E-01    0.122E+00
DAV:   6    -0.790239222668E+03    0.44730E-02   -0.42240E-03 11808   0.109E-01    0.719E-01
DAV:   7    -0.790238473856E+03    0.74881E-03   -0.92896E-03 14508   0.117E-01    0.234E-01
DAV:   8    -0.790239304363E+03   -0.83051E-03   -0.27768E-03 12948   0.971E-02    0.241E-01
DAV:   9    -0.790239272457E+03    0.31906E-04   -0.88254E-04 13992   0.609E-02    0.128E-01
DAV:  10    -0.790239320204E+03   -0.47747E-04   -0.59001E-04 13776   0.419E-02    0.134E-01
DAV:  11    -0.790239294475E+03    0.25729E-04   -0.16639E-04 12888   0.280E-02    0.937E-02
DAV:  12    -0.790239282869E+03    0.11607E-04   -0.82711E-05 12108   0.171E-02    0.309E-02
DAV:  13    -0.790239288097E+03   -0.52280E-05   -0.51863E-05 10188   0.123E-02
  46 F= -.79023929E+03 E0= -.79021254E+03  d E =-.248667E-01  mag=    -1.5178
       N       E                     dE             d eps       ncg     rms          rms(c)
DAV:   1    -0.790247262403E+03   -0.79795E-02   -0.39874E+00 11520   0.332E+00    0.214E+00
DAV:   2    -0.790729540727E+03   -0.48228E+00   -0.48026E-01 16476   0.167E+00    0.961E+00
DAV:   3    -0.790219005115E+03    0.51054E+00   -0.21302E+00 16584   0.100E+00    0.190E+00
DAV:   4    -0.790247751831E+03   -0.28747E-01   -0.62102E-02 12912   0.511E-01    0.103E+00
DAV:   5    -0.790263567228E+03   -0.15815E-01   -0.50803E-02 13908   0.276E-01    0.213E+00
DAV:   6    -0.790247326863E+03    0.16240E-01   -0.23631E-02 12360   0.217E-01    0.162E+00
DAV:   7    -0.790241949049E+03    0.53778E-02   -0.19707E-02 15468   0.290E-01    0.194E+00
DAV:   8    -0.790243482587E+03   -0.15335E-02   -0.36858E-02 12408   0.228E-01    0.234E+00
DAV:   9    -0.790242016153E+03    0.14664E-02   -0.30515E-02 13992   0.329E-01    0.126E+00
DAV:  10    -0.790239537739E+03    0.24784E-02   -0.95067E-03 12072   0.221E-01    0.736E-01
DAV:  11    -0.790237369153E+03    0.21686E-02   -0.29046E-03 13452   0.114E-01    0.368E-01
[...]
DAV:   5    -0.790245190863E+03   -0.71807E-02   -0.60324E-02 12540   0.434E-01    0.194E+00
DAV:   6    -0.790259678357E+03   -0.14487E-01   -0.31822E-02 13032   0.185E-01    0.283E+00
DAV:   7    -0.790229888533E+03    0.29790E-01   -0.34042E-02 13452   0.283E-01    0.217E+00
DAV:   8    -0.790223874599E+03    0.60139E-02   -0.14464E-02 14196   0.255E-01    0.213E+00
DAV:   9    -0.790221766615E+03    0.21080E-02   -0.25587E-02 13572   0.207E-01    0.192E+00
DAV:  10    -0.790220112329E+03    0.16543E-02   -0.34750E-02 13476   0.289E-01    0.102E+00
DAV:  11    -0.790217808071E+03    0.23043E-02   -0.85782E-03 12084   0.195E-01    0.480E-01
DAV:  12    -0.790219272597E+03   -0.14645E-02   -0.74543E-03 13236   0.105E-01    0.714E-01
DAV:  13    -0.790219208108E+03    0.64490E-04   -0.58083E-04 11928   0.582E-02    0.688E-01
DAV:  14    -0.790218968866E+03    0.23924E-03   -0.31517E-04 14724   0.337E-02    0.570E-01
DAV:  15    -0.790219880835E+03   -0.91197E-03   -0.47175E-03 15744   0.138E-01    0.922E-01
DAV:  16    -0.790219246703E+03    0.63413E-03   -0.18810E-03 11892   0.806E-02    0.752E-01
DAV:  17    -0.790218492920E+03    0.75378E-03   -0.13504E-03 13260   0.463E-02    0.326E-01
DAV:  18    -0.790218953182E+03   -0.46026E-03   -0.95379E-04 12228   0.530E-02    0.237E-01
DAV:  19    -0.790218964791E+03   -0.11609E-04   -0.54188E-04 13404   0.313E-02    0.182E-01
DAV:  20    -0.790219024349E+03   -0.59558E-04   -0.14704E-04 11616   0.299E-02    0.114E-01
DAV:  21    -0.790219009874E+03    0.14475E-04   -0.12816E-04 13092   0.184E-02    0.520E-02
DAV:  22    -0.790219026036E+03   -0.16162E-04   -0.42313E-05 10908   0.106E-02    0.463E-02
DAV:  23    -0.790219022298E+03    0.37386E-05   -0.17303E-05  7860   0.605E-03
  51 F= -.79021902E+03 E0= -.79019323E+03  d E =0.251813E-01  mag=    -1.5899
       N       E                     dE             d eps       ncg     rms          rms(c)
DAV:   1    -0.790247228515E+03   -0.28202E-01   -0.42554E+00 11520   0.367E+00    0.215E+00
DAV:   2    -0.790318077307E+03   -0.70849E-01   -0.77177E-01 16308   0.156E+00    0.403E+00
DAV:   3    -0.790263992929E+03    0.54084E-01   -0.11727E-01 16416   0.101E+00    0.273E+00
DAV:   4    -0.790256436070E+03    0.75569E-02   -0.59284E-02 13008   0.378E-01    0.141E+00
DAV:   5    -0.790262061310E+03   -0.56252E-02   -0.18823E-02 14400   0.262E-01    0.241E+00
DAV:   6    -0.790266279348E+03   -0.42180E-02   -0.49790E-03 12300   0.144E-01    0.289E+00
DAV:   7    -0.790261002548E+03    0.52768E-02   -0.35862E-03 13104   0.113E-01    0.302E+00
DAV:   8    -0.790262508906E+03   -0.15064E-02   -0.35674E-03 13668   0.780E-02    0.292E+00
DAV:   9    -0.790273138961E+03   -0.10630E-01   -0.22796E-02 14736   0.203E-01    0.355E+00
DAV:  10    -0.790262055518E+03    0.11083E-01   -0.84096E-03 13392   0.157E-01    0.305E+00
DAV:  11    -0.790261253971E+03    0.80155E-03   -0.15709E-02 14424   0.188E-01    0.261E+00
DAV:  12    -0.790248897538E+03    0.12356E-01   -0.25478E-02 15744   0.368E-01    0.136E+00
DAV:  13    -0.790247945861E+03    0.95168E-03   -0.28343E-02 13476   0.296E-01    0.126E+00
DAV:  14    -0.790245756823E+03    0.21890E-02   -0.88368E-03 14220   0.163E-01    0.945E-01
DAV:  15    -0.790252597930E+03   -0.68411E-02   -0.59403E-03 13668   0.153E-01    0.729E-01
DAV:  16    -0.790260964665E+03   -0.83667E-02   -0.20660E-02 14868   0.295E-01    0.328E-01
DAV:  17    -0.790261419550E+03   -0.45488E-03   -0.15148E-02 13764   0.210E-01    0.318E-01
DAV:  18    -0.790261820800E+03   -0.40125E-03   -0.14397E-03 12744   0.715E-02    0.192E-01
DAV:  19    -0.790262185298E+03   -0.36450E-03   -0.59680E-04 12420   0.550E-02    0.138E-01
DAV:  20    -0.790262207268E+03   -0.21971E-04   -0.31581E-04 13548   0.309E-02    0.844E-02
DAV:  21    -0.790262215793E+03   -0.85245E-05   -0.12975E-04 12912   0.182E-02    0.478E-02
DAV:  22    -0.790262242205E+03   -0.26412E-04   -0.68990E-05 11844   0.154E-02    0.250E-02
DAV:  23    -0.790262246011E+03   -0.38055E-05   -0.40451E-05 11076   0.112E-02
  52 F= -.79026225E+03 E0= -.79023708E+03  d E =-.432237E-01  mag=    -1.0846
       N       E                     dE             d eps       ncg     rms          rms(c)
DAV:   1    -0.790277392958E+03   -0.15151E-01   -0.19450E+00 11520   0.249E+00    0.303E+00
DAV:   2    -0.790368970791E+03   -0.91578E-01   -0.16223E+00 17388   0.209E+00    0.576E+00
DAV:   3    -0.790303478734E+03    0.65492E-01   -0.18081E-01 16800   0.116E+00    0.357E+00
DAV:   4    -0.790266513056E+03    0.36966E-01   -0.76904E-02 14040   0.515E-01    0.216E+00
DAV:   5    -0.790260725577E+03    0.57875E-02   -0.24742E-02 14088   0.333E-01    0.543E-01
DAV:   6    -0.790265654042E+03   -0.49285E-02   -0.88500E-03 12432   0.200E-01    0.547E-01
DAV:   7    -0.790265217342E+03    0.43670E-03   -0.24265E-03 14436   0.102E-01    0.316E-01
DAV:   8    -0.790265164153E+03    0.53189E-04   -0.99194E-04 14712   0.652E-02    0.242E-01
DAV:   9    -0.790265261116E+03   -0.96963E-04   -0.91156E-04 12888   0.504E-02    0.259E-01
DAV:  10    -0.790265182093E+03    0.79023E-04   -0.27138E-04 15456   0.402E-02    0.185E-01
DAV:  11    -0.790265150287E+03    0.31806E-04   -0.26245E-04 12312   0.296E-02    0.461E-02
DAV:  12    -0.790265170031E+03   -0.19744E-04   -0.33843E-05 10956   0.123E-02    0.199E-02
DAV:  13    -0.790265171203E+03   -0.11721E-05   -0.15113E-05  7776   0.624E-03
  53 F= -.79026517E+03 E0= -.79024027E+03  d E =-.292519E-02  mag=    -0.9596
       N       E                     dE             d eps       ncg     rms          rms(c)
DAV:   1    -0.790267871207E+03   -0.27012E-02   -0.35271E-01 11520   0.110E+00    0.884E-01
DAV:   2    -0.790285712175E+03   -0.17841E-01   -0.55005E-02 16668   0.616E-01    0.358E+00
DAV:   3    -0.790262936090E+03    0.22776E-01   -0.30890E-02 16296   0.450E-01    0.475E-01
DAV:   4    -0.790267334546E+03   -0.43985E-02   -0.97574E-03 12480   0.180E-01    0.313E-01
DAV:   5    -0.790267501340E+03   -0.16679E-03   -0.19276E-03 13512   0.991E-02    0.186E-01
DAV:   6    -0.790267451353E+03    0.49987E-04   -0.52543E-04 14760   0.541E-02    0.139E-01
DAV:   7    -0.790267437758E+03    0.13595E-04   -0.36049E-04 13812   0.337E-02    0.103E-01
DAV:   8    -0.790267421217E+03    0.16541E-04   -0.14855E-04 13764   0.228E-02    0.468E-02
DAV:   9    -0.790267425384E+03   -0.41663E-05   -0.52039E-05 11400   0.140E-02
  54 F= -.79026743E+03 E0= -.79024249E+03  d E =-.225418E-02  mag=    -0.9959
       N       E                     dE             d eps       ncg     rms          rms(c)
DAV:   1    -0.790267226746E+03    0.19447E-03   -0.20998E-02 11520   0.269E-01    0.124E-01
DAV:   2    -0.790267615192E+03   -0.38845E-03   -0.16476E-03 16080   0.941E-02    0.536E-01
DAV:   3    -0.790267072167E+03    0.54302E-03   -0.63141E-04 15420   0.690E-02    0.852E-02
DAV:   4    -0.790267235792E+03   -0.16362E-03   -0.24097E-04 12120   0.292E-02    0.412E-02
DAV:   5    -0.790267245850E+03   -0.10058E-04   -0.33347E-05 11676   0.140E-02    0.303E-02
DAV:   6    -0.790267243871E+03    0.19785E-05   -0.15364E-05  7356   0.803E-03
  55 F= -.79026724E+03 E0= -.79024231E+03  d E =0.181512E-03  mag=    -0.9992
       N       E                     dE             d eps       ncg     rms          rms(c)
DAV:   1    -0.790268431033E+03   -0.11852E-02   -0.54277E-01 11520   0.129E+00    0.106E+00
DAV:   2    -0.790298976472E+03   -0.30545E-01   -0.16461E-01 17460   0.771E-01    0.412E+00
DAV:   3    -0.790264393410E+03    0.34583E-01   -0.11317E-01 17004   0.549E-01    0.126E+00
DAV:   4    -0.790265749106E+03   -0.13557E-02   -0.12030E-02 13392   0.185E-01    0.445E-01
DAV:   5    -0.790267195618E+03   -0.14465E-02   -0.25727E-03 12816   0.103E-01    0.246E-01
DAV:   6    -0.790267506744E+03   -0.31113E-03   -0.71831E-04 13680   0.554E-02    0.140E-01
DAV:   7    -0.790267579310E+03   -0.72566E-04   -0.36983E-04 12792   0.359E-02    0.151E-01
DAV:   8    -0.790267584727E+03   -0.54172E-05   -0.20536E-04 14484   0.300E-02    0.195E-01
DAV:   9    -0.790267527824E+03    0.56903E-04   -0.19306E-04 12204   0.254E-02    0.541E-02
DAV:  10    -0.790267540064E+03   -0.12240E-04   -0.60021E-05 10164   0.117E-02    0.248E-02
DAV:  11    -0.790267543593E+03   -0.35286E-05   -0.96489E-06  7824   0.608E-03
  56 F= -.79026754E+03 E0= -.79024271E+03  d E =-.299721E-03  mag=    -0.9675
       N       E                     dE             d eps       ncg     rms          rms(c)
DAV:   1    -0.790290013419E+03   -0.22473E-01   -0.87868E+00 11520   0.514E+00    0.375E+00
DAV:   2    -0.790368904689E+03   -0.78891E-01   -0.24491E+00 17304   0.258E+00    0.677E+00
DAV:   3    -0.790291486895E+03    0.77418E-01   -0.34910E-01 16596   0.136E+00    0.398E+00
DAV:   4    -0.790253545745E+03    0.37941E-01   -0.11495E-01 13908   0.590E-01    0.179E+00
DAV:   5    -0.790253950993E+03   -0.40525E-03   -0.36631E-02 14040   0.333E-01    0.730E-01
DAV:   6    -0.790256317361E+03   -0.23664E-02   -0.12826E-02 13128   0.205E-01    0.489E-01
DAV:   7    -0.790256815386E+03   -0.49803E-03   -0.35386E-03 13272   0.130E-01    0.356E-01
DAV:   8    -0.790256654927E+03    0.16046E-03   -0.24502E-03 14520   0.905E-02    0.359E-01
DAV:   9    -0.790256510050E+03    0.14488E-03   -0.13230E-03 13992   0.751E-02    0.156E-01
DAV:  10    -0.790256497856E+03    0.12195E-04   -0.69860E-04 14280   0.475E-02    0.808E-02
DAV:  11    -0.790256538952E+03   -0.41096E-04   -0.15762E-04 13068   0.241E-02    0.101E-01
DAV:  12    -0.790256521105E+03    0.17847E-04   -0.15599E-04 11748   0.210E-02    0.890E-02
DAV:  13    -0.790256525164E+03   -0.40591E-05   -0.55950E-05 11748   0.170E-02
  57 F= -.79025653E+03 E0= -.79023256E+03  d E =0.110184E-01  mag=    -0.7683
       N       E                     dE             d eps       ncg     rms          rms(c)
DAV:   1    -0.790282610946E+03   -0.26090E-01   -0.34185E+00 11520   0.320E+00    0.319E+00
DAV:   2    -0.790671254845E+03   -0.38864E+00   -0.57414E-01 17472   0.221E+00    0.952E+00
DAV:   3    -0.790297231785E+03    0.37402E+00   -0.61422E+00 16848   0.145E+00    0.302E+00
DAV:   4    -0.790291889496E+03    0.53423E-02   -0.10695E-01 13188   0.722E-01    0.226E+00
DAV:   5    -0.790256756437E+03    0.35133E-01   -0.43447E-02 13920   0.457E-01    0.209E+00
DAV:   6    -0.790242438350E+03    0.14318E-01   -0.29473E-02 14784   0.287E-01    0.129E+00
DAV:   7    -0.790243674929E+03   -0.12366E-02   -0.13071E-02 13920   0.144E-01    0.132E+00
DAV:   8    -0.790238143333E+03    0.55316E-02   -0.13860E-02 11940   0.146E-01    0.102E+00
DAV:   9    -0.790245072939E+03   -0.69296E-02   -0.24816E-02 14328   0.176E-01    0.225E+00
DAV:  10    -0.790248613677E+03   -0.35407E-02   -0.28837E-02 14004   0.327E-01    0.127E+00
DAV:  11    -0.790249644014E+03   -0.10303E-02   -0.77511E-03 11760   0.170E-01    0.154E+00
DAV:  12    -0.790242923734E+03    0.67203E-02   -0.29361E-03 14052   0.118E-01    0.139E+00
DAV:  13    -0.790237025798E+03    0.58979E-02   -0.40429E-03 15396   0.110E-01    0.860E-01
DAV:  14    -0.790237057664E+03   -0.31866E-04   -0.13337E-03 13068   0.655E-02    0.668E-01
DAV:  15    -0.790236484820E+03    0.57284E-03   -0.23259E-03 15048   0.559E-02    0.295E-01
DAV:  16    -0.790236797940E+03   -0.31312E-03   -0.29824E-04 12768   0.359E-02    0.859E-02
DAV:  17    -0.790237027590E+03   -0.22965E-03   -0.13005E-04 11652   0.228E-02    0.163E-01
DAV:  18    -0.790236978921E+03    0.48669E-04   -0.84424E-05 10224   0.124E-02    0.918E-02
DAV:  19    -0.790236991091E+03   -0.12170E-04   -0.59077E-05  9912   0.969E-03    0.485E-02
DAV:  20    -0.790237002704E+03   -0.11614E-04   -0.16246E-05  8268   0.613E-03    0.327E-02
DAV:  21    -0.790236997581E+03    0.51231E-05   -0.15646E-05  7404   0.479E-03
  58 F= -.79023700E+03 E0= -.79020988E+03  d E =0.195276E-01  mag=    -1.5192
       N       E                     dE             d eps       ncg     rms          rms(c)
DAV:   1    -0.790251375310E+03   -0.14373E-01   -0.26159E+01 11520   0.852E+00    0.269E+00
DAV:   2    -0.790503755147E+03   -0.25238E+00   -0.11564E+00 15060   0.232E+00    0.882E+00
DAV:   3    -0.790289845274E+03    0.21391E+00   -0.53043E+00 15336   0.125E+00    0.350E+00
DAV:   4    -0.790267139208E+03    0.22706E-01   -0.78155E-02 13800   0.745E-01    0.211E+00
DAV:   5    -0.790239689699E+03    0.27450E-01   -0.82769E-02 14052   0.556E-01    0.119E+00
DAV:   6    -0.790237982851E+03    0.17068E-02   -0.45166E-02 13032   0.346E-01    0.121E+00
DAV:   7    -0.790236942417E+03    0.10404E-02   -0.16212E-02 13200   0.186E-01    0.930E-01
DAV:   8    -0.790238405265E+03   -0.14628E-02   -0.19998E-03 13080   0.781E-02    0.972E-01
DAV:   9    -0.790235346806E+03    0.30585E-02   -0.30371E-03 15096   0.116E-01    0.124E+00
DAV:  10    -0.790240427390E+03   -0.50806E-02   -0.38652E-03 14580   0.129E-01    0.118E+00
DAV:  11    -0.790243495007E+03   -0.30676E-02   -0.10053E-02 14988   0.223E-01    0.970E-01
DAV:  12    -0.790241762091E+03    0.17329E-02   -0.12170E-02 13548   0.216E-01    0.385E-01
DAV:  13    -0.790239933782E+03    0.18283E-02   -0.73476E-03 14040   0.203E-01    0.603E-01
DAV:  14    -0.790240839709E+03   -0.90593E-03   -0.41289E-03 13656   0.105E-01    0.531E-01
DAV:  15    -0.790242137994E+03   -0.12983E-02   -0.16327E-03 13752   0.933E-02    0.374E-01
DAV:  16    -0.790242816507E+03   -0.67851E-03   -0.24765E-03 14184   0.111E-01    0.173E-01
DAV:  17    -0.790242937425E+03   -0.12092E-03   -0.10266E-03 12672   0.604E-02    0.999E-02
DAV:  18    -0.790242936589E+03    0.83612E-06   -0.11276E-04 14160   0.206E-02    0.678E-02
DAV:  19    -0.790242935132E+03    0.14564E-05   -0.31732E-05  9816   0.924E-03
  59 F= -.79024294E+03 E0= -.79021985E+03  d E =-.593755E-02  mag=    -1.9895
       N       E                     dE             d eps       ncg     rms          rms(c)
DAV:   1    -0.790325347511E+03   -0.82411E-01   -0.98181E+00 11520   0.542E+00    0.470E+00
DAV:   2    -0.790447109020E+03   -0.12176E+00   -0.48975E+00 17340   0.306E+00    0.696E+00
DAV:   3    -0.790372035781E+03    0.75073E-01   -0.48276E-01 16092   0.156E+00    0.413E+00
DAV:   4    -0.790315379196E+03    0.56657E-01   -0.21206E-01 13812   0.761E-01    0.323E+00
DAV:   5    -0.790276039069E+03    0.39340E-01   -0.66628E-02 14100   0.576E-01    0.796E-01
DAV:   6    -0.790280502514E+03   -0.44634E-02   -0.18060E-02 13380   0.292E-01    0.642E-01
DAV:   7    -0.790280340203E+03    0.16231E-03   -0.67310E-03 14940   0.176E-01    0.444E-01
DAV:   8    -0.790280224219E+03    0.11598E-03   -0.48598E-03 14424   0.130E-01    0.436E-01
DAV:   9    -0.790280215563E+03    0.86562E-05   -0.14692E-03 13572   0.887E-02    0.429E-01
DAV:  10    -0.790279832290E+03    0.38327E-03   -0.22852E-03 15264   0.708E-02    0.137E-01
DAV:  11    -0.790279981831E+03   -0.14954E-03   -0.39590E-04 12756   0.390E-02    0.139E-01
DAV:  12    -0.790279941744E+03    0.40087E-04   -0.37182E-04 13896   0.290E-02    0.932E-02
DAV:  13    -0.790279948558E+03   -0.68135E-05   -0.20264E-04 12444   0.213E-02    0.109E-01
DAV:  14    -0.790279929017E+03    0.19541E-04   -0.13370E-04 11472   0.172E-02    0.305E-02
DAV:  15    -0.790279936223E+03   -0.72062E-05   -0.23832E-05  8892   0.869E-03
  60 F= -.79027994E+03 E0= -.79025702E+03  d E =-.370011E-01  mag=    -1.9998
       N       E                     dE             d eps       ncg     rms          rms(c)
DAV:   1    -0.790280502839E+03   -0.57382E-03   -0.13215E+01 11520   0.618E+00    0.338E+00
DAV:   2    -0.790354498439E+03   -0.73996E-01   -0.25793E+00 16320   0.237E+00    0.616E+00
DAV:   3    -0.790293715469E+03    0.60783E-01   -0.28083E-01 16152   0.124E+00    0.337E+00
DAV:   4    -0.790268496326E+03    0.25219E-01   -0.12981E-01 14052   0.563E-01    0.126E+00
DAV:   5    -0.790271529711E+03   -0.30334E-02   -0.33336E-02 13920   0.350E-01    0.633E-01
DAV:   6    -0.790272253872E+03   -0.72416E-03   -0.12519E-02 12804   0.193E-01    0.416E-01
DAV:   7    -0.790272179458E+03    0.74414E-04   -0.32605E-03 14628   0.113E-01    0.418E-01
DAV:   8    -0.790271990271E+03    0.18919E-03   -0.50441E-03 15324   0.101E-01    0.357E-01
DAV:   9    -0.790271862480E+03    0.12779E-03   -0.15684E-03 13164   0.650E-02    0.135E-01
DAV:  10    -0.790271871817E+03   -0.93374E-05   -0.22252E-04 13992   0.337E-02    0.482E-02
DAV:  11    -0.790271895168E+03   -0.23351E-04   -0.15374E-04 13572   0.182E-02    0.600E-02
DAV:  12    -0.790271905654E+03   -0.10486E-04   -0.19680E-04  9912   0.180E-02    0.891E-02
DAV:  13    -0.790271888643E+03    0.17011E-04   -0.55179E-05  9048   0.138E-02    0.267E-02
DAV:  14    -0.790271894500E+03   -0.58566E-05   -0.39533E-05  8376   0.644E-03
  61 F= -.79027189E+03 E0= -.79024964E+03  d E =0.804172E-02  mag=    -1.9998
       N       E                     dE             d eps       ncg     rms          rms(c)
DAV:   1    -0.790283174751E+03   -0.11286E-01   -0.43167E+00 11520   0.352E+00    0.207E+00
DAV:   2    -0.790362766231E+03   -0.79591E-01   -0.55129E-01 15984   0.145E+00    0.624E+00
DAV:   3    -0.790282651617E+03    0.80115E-01   -0.13771E+00 16464   0.935E-01    0.203E+00
DAV:   4    -0.790281296270E+03    0.13553E-02   -0.42759E-02 13056   0.398E-01    0.818E-01
DAV:   5    -0.790281928281E+03   -0.63201E-03   -0.26496E-02 13116   0.241E-01    0.943E-01
DAV:   6    -0.790284067482E+03   -0.21392E-02   -0.55537E-03 13524   0.155E-01    0.114E+00
DAV:   7    -0.790282321641E+03    0.17458E-02   -0.35715E-03 14268   0.116E-01    0.596E-01
DAV:   8    -0.790282100696E+03    0.22095E-03   -0.42757E-03 13932   0.100E-01    0.225E-01
DAV:   9    -0.790282448403E+03   -0.34771E-03   -0.11355E-03 13056   0.675E-02    0.206E-01
DAV:  10    -0.790282440747E+03    0.76556E-05   -0.62453E-04 13812   0.493E-02    0.148E-01
DAV:  11    -0.790282446936E+03   -0.61885E-05   -0.78548E-04 13704   0.366E-02    0.143E-01
DAV:  12    -0.790282406338E+03    0.40598E-04   -0.33350E-04 13116   0.259E-02    0.511E-02
DAV:  13    -0.790282415029E+03   -0.86913E-05   -0.97234E-05 11160   0.131E-02
  62 F= -.79028242E+03 E0= -.79025976E+03  d E =-.105205E-01  mag=    -1.9997
       N       E                     dE             d eps       ncg     rms          rms(c)
DAV:   1    -0.790283031618E+03   -0.62528E-03   -0.29013E-01 11520   0.957E-01    0.927E-01
DAV:   2    -0.790304215567E+03   -0.21184E-01   -0.18318E-01 17256   0.649E-01    0.367E+00
DAV:   3    -0.790277919391E+03    0.26296E-01   -0.10133E-01 16560   0.468E-01    0.447E-01
DAV:   4    -0.790281467251E+03   -0.35479E-02   -0.75917E-03 12756   0.161E-01    0.131E-01
DAV:   5    -0.790282106670E+03   -0.63942E-03   -0.12075E-03 12900   0.768E-02    0.184E-01
DAV:   6    -0.790282061813E+03    0.44857E-04   -0.35728E-04 15612   0.394E-02    0.108E-01
DAV:   7    -0.790282055317E+03    0.64962E-05   -0.15920E-04 13848   0.263E-02    0.397E-02
DAV:   8    -0.790282060763E+03   -0.54460E-05   -0.64296E-05 13452   0.178E-02
  63 F= -.79028206E+03 E0= -.79025929E+03  d E =0.354266E-03  mag=    -1.9999
       N       E                     dE             d eps       ncg     rms          rms(c)
DAV:   1    -0.790283099024E+03   -0.10437E-02   -0.11374E-01 11520   0.593E-01    0.605E-01
DAV:   2    -0.790291604988E+03   -0.85060E-02   -0.11130E-01 17280   0.426E-01    0.241E+00
DAV:   3    -0.790280091085E+03    0.11514E-01   -0.24704E-02 16548   0.318E-01    0.365E-01
DAV:   4    -0.790282340484E+03   -0.22494E-02   -0.37820E-03 12576   0.102E-01    0.103E-01
DAV:   5    -0.790282718568E+03   -0.37808E-03   -0.44527E-04 13284   0.473E-02    0.116E-01
DAV:   6    -0.790282709739E+03    0.88290E-05   -0.13616E-04 13464   0.269E-02    0.514E-02
DAV:   7    -0.790282719388E+03   -0.96486E-05   -0.14351E-04 13188   0.163E-02    0.800E-02
DAV:   8    -0.790282716413E+03    0.29743E-05   -0.24497E-05  9264   0.117E-02
  64 F= -.79028272E+03 E0= -.79026000E+03  d E =-.655650E-03  mag=    -2.0000
