       N       E                     dE             d eps       ncg     rms          ort
DAV:   1     0.572386966065E+04    0.57239E+04   -0.22956E+05 33152   0.174E+03
DAV:   2     0.991938604900E+02   -0.56247E+04   -0.51141E+04 33152   0.502E+02
DAV:   3    -0.733892572886E+03   -0.83309E+03   -0.78224E+03 33152   0.203E+02
DAV:   4    -0.776586754928E+03   -0.42694E+02   -0.42207E+02 33152   0.471E+01
DAV:   5    -0.777102179564E+03   -0.51542E+00   -0.51447E+00 33152   0.565E+00
SDA:   6    -0.270583556075E+03    0.50652E+03   -0.51447E+00 33152   0.184E+04 0.000E+00
CGA:   7    -0.533718728256E+03   -0.26314E+03   -0.26010E+03 33152   0.205E+03 0.768E+01
CGA:   8    -0.572528356862E+03   -0.38810E+02   -0.38793E+02 33152   0.573E+02-0.419E+00
CGA:   9    -0.586659014913E+03   -0.14131E+02   -0.14084E+02 33152   0.281E+02 0.705E+00
CGA:  10    -0.593183742110E+03   -0.65247E+01   -0.65286E+01 33152   0.774E+01-0.173E+00
CGA:  11    -0.594979240482E+03   -0.17955E+01   -0.18034E+01 33152   0.202E+01-0.238E+00
CGA:  12    -0.595470339616E+03   -0.49110E+00   -0.49778E+00 33152   0.605E+00-0.131E+00
CGA:  13    -0.595640732866E+03   -0.17039E+00   -0.17712E+00 33152   0.240E+00-0.631E-01
CGA:  14    -0.595714307850E+03   -0.73575E-01   -0.84881E-01 33152   0.159E+00-0.624E-01
CGA:  15    -0.595727333917E+03   -0.13026E-01   -0.81414E-01 33152   0.308E+00-0.147E+00
CGA:  16    -0.595796901514E+03   -0.69568E-01   -0.69759E-01 33152   0.531E-01 0.118E-01
CGA:  17    -0.595815856508E+03   -0.18955E-01   -0.19629E-01 33152   0.171E-01-0.594E-02
CGA:  18    -0.595821389803E+03   -0.55333E-02   -0.54618E-02 33152   0.512E-02 0.648E-03
CGA:  19    -0.595813311916E+03    0.80779E-02   -0.48813E-02 33152   0.587E-01-0.127E-01
CGA:  20    -0.595827436028E+03   -0.14124E-01   -0.14396E-01 33152   0.909E-02 0.125E-02
CGA:  21    -0.595831406662E+03   -0.39706E-02   -0.37417E-02 33152   0.576E-02-0.471E-02
CGA:  22    -0.595832315774E+03   -0.90911E-03   -0.10418E-02 33152   0.670E-03 0.503E-03
CGA:  23    -0.595833521505E+03   -0.12057E-02    0.17696E-03 33152   0.273E-03-0.543E-04
CGA:  24    -0.595834634456E+03   -0.11130E-02    0.13427E-04 33152   0.171E-03 0.643E-04
CGA:  25    -0.595835449154E+03   -0.81470E-03    0.13511E-04 33152   0.999E-04-0.407E-04
CGA:  26    -0.595836181603E+03   -0.73245E-03    0.16558E-05 33152   0.533E-04-0.650E-05
CGA:  27    -0.595836559678E+03   -0.37807E-03    0.14107E-05 33152   0.228E-04 0.962E-05
CGA:  28    -0.595836728912E+03   -0.16923E-03    0.94232E-06 33152   0.132E-04 0.560E-05
CGA:  29    -0.595836864590E+03   -0.13568E-03    0.42199E-06 33152   0.787E-05-0.329E-06
CGA:  30    -0.595836867190E+03   -0.26007E-05   -0.26700E-05 33152   0.202E-05 0.789E-06
   1 F= -.59583687E+03 E0= -.59583687E+03  d E =-.595837E+03  mag=    55.0000
