       N       E                     dE             d eps       ncg     rms          rms(c)
DAV:   1     0.308010564984E+04    0.30801E+04   -0.25851E+05 73052   0.132E+03
DAV:   2    -0.603263360620E+03   -0.36834E+04   -0.35536E+04 87599   0.300E+02
DAV:   3    -0.871544490282E+03   -0.26828E+03   -0.26610E+03 88576   0.853E+01
DAV:   4    -0.875048237660E+03   -0.35037E+01   -0.34902E+01 87848   0.104E+01
DAV:   5    -0.875112660308E+03   -0.64423E-01   -0.64264E-01 89880   0.129E+00    0.988E+01
DAV:   6    -0.782430570191E+03    0.92682E+02   -0.39753E+02 83187   0.318E+01    0.510E+01
DAV:   7    -0.790971996326E+03   -0.85414E+01   -0.26642E+01 83608   0.887E+00    0.178E+01
DAV:   8    -0.794492190190E+03   -0.35202E+01   -0.91016E+00 95976   0.502E+00    0.953E+00
DAV:   9    -0.796173626635E+03   -0.16814E+01   -0.37328E+00 91128   0.332E+00    0.728E+00
DAV:  10    -0.796997450535E+03   -0.82382E+00   -0.52221E+00 90584   0.251E+00    0.578E+00
DAV:  11    -0.797321189946E+03   -0.32374E+00   -0.31430E+00 97088   0.206E+00    0.376E+00
DAV:  12    -0.797454200003E+03   -0.13301E+00   -0.39896E-01 87672   0.130E+00    0.213E+00
DAV:  13    -0.797521960995E+03   -0.67761E-01   -0.23966E-01 91096   0.879E-01    0.134E+00
DAV:  14    -0.797561815230E+03   -0.39854E-01   -0.11713E-01 87544   0.406E-01    0.325E+00
DAV:  15    -0.797550618169E+03    0.11197E-01   -0.18033E-02 92704   0.338E-01    0.293E+00
DAV:  16    -0.797532307998E+03    0.18310E-01   -0.12673E-01 98992   0.458E-01    0.150E+00
DAV:  17    -0.797540576769E+03   -0.82688E-02   -0.37415E-02 86640   0.302E-01    0.175E+00
DAV:  18    -0.797541080714E+03   -0.50394E-03   -0.19159E-02 89512   0.231E-01    0.134E+00
DAV:  19    -0.797539221279E+03    0.18594E-02   -0.13427E-02 90032   0.216E-01    0.427E-01
DAV:  20    -0.797540207251E+03   -0.98597E-03   -0.46019E-03 89008   0.118E-01    0.367E-01
DAV:  21    -0.797540624235E+03   -0.41698E-03   -0.80884E-04 91464   0.728E-02    0.202E-01
DAV:  22    -0.797540682951E+03   -0.58716E-04   -0.98028E-04 92184   0.628E-02    0.612E-02
DAV:  23    -0.797540722561E+03   -0.39610E-04   -0.13801E-04 80784   0.239E-02    0.600E-02
DAV:  24    -0.797540732647E+03   -0.10087E-04   -0.75717E-05 65008   0.113E-02    0.106E-01
DAV:  25    -0.797540713264E+03    0.19384E-04   -0.39621E-05 60064   0.122E-02    0.649E-02
DAV:  26    -0.797540716760E+03   -0.34965E-05   -0.74708E-05 70208   0.129E-02
   1 F= -.79754072E+03 E0= -.79752245E+03  d E =-.797541E+03  mag=     0.1628
