       N       E                     dE             d eps       ncg     rms          rms(c)
DAV:   1     0.306871189142E+04    0.30687E+04   -0.25830E+05 73572   0.131E+03
DAV:   2    -0.610814721167E+03   -0.36795E+04   -0.35454E+04 89616   0.297E+02
DAV:   3    -0.872201347225E+03   -0.26139E+03   -0.25972E+03 89040   0.837E+01
DAV:   4    -0.875464709688E+03   -0.32634E+01   -0.32514E+01 89340   0.101E+01
DAV:   5    -0.875520071448E+03   -0.55362E-01   -0.55228E-01 91080   0.121E+00    0.990E+01
DAV:   6    -0.779845515447E+03    0.95675E+02   -0.40564E+02 84024   0.319E+01    0.502E+01
DAV:   7    -0.789311961784E+03   -0.94664E+01   -0.22301E+01 83100   0.769E+00    0.163E+01
DAV:   8    -0.793340354900E+03   -0.40284E+01   -0.16577E+00 87732   0.245E+00    0.781E+00
DAV:   9    -0.795427903299E+03   -0.20875E+01   -0.94018E-01 87492   0.165E+00    0.383E+00
DAV:  10    -0.795936918028E+03   -0.50901E+00   -0.28438E-01 85500   0.928E-01    0.111E+00
DAV:  11    -0.796008387198E+03   -0.71469E-01   -0.41344E-02 86016   0.359E-01    0.622E-01
DAV:  12    -0.796017767822E+03   -0.93806E-02   -0.46492E-03 86508   0.135E-01    0.282E-01
DAV:  13    -0.796020288758E+03   -0.25209E-02   -0.15085E-03 86004   0.732E-02    0.825E-02
DAV:  14    -0.796020699004E+03   -0.41025E-03   -0.27546E-04 85704   0.332E-02    0.467E-02
DAV:  15    -0.796020735071E+03   -0.36068E-04   -0.42902E-05 82080   0.160E-02    0.300E-02
DAV:  16    -0.796020750899E+03   -0.15828E-04   -0.13081E-05 59388   0.101E-02    0.122E-02
DAV:  17    -0.796020753676E+03   -0.27769E-05   -0.79317E-06 60408   0.905E-03
   1 F= -.79602075E+03 E0= -.79602075E+03  d E =-.796021E+03  mag=    -0.0018
