       N       E                     dE             d eps       ncg     rms          ort
DAV:   1     0.793291854212E+04    0.79329E+04   -0.24678E+05  8424   0.244E+03
DAV:   2     0.711714447736E+03   -0.72212E+04   -0.68734E+04  8424   0.667E+02
DAV:   3    -0.687188466596E+03   -0.13989E+04   -0.12281E+04  8424   0.269E+02
DAV:   4    -0.809081200093E+03   -0.12189E+03   -0.11908E+03  8424   0.767E+01
DAV:   5    -0.810792020566E+03   -0.17108E+01   -0.17067E+01  8424   0.102E+01
SDA:   6    -0.694549878733E+03    0.11624E+03   -0.17067E+01  8424   0.487E+02 0.000E+00
CGA:   7    -0.702896200717E+03   -0.83463E+01   -0.83748E+01  8424   0.105E+02 0.328E+00
CGA:   8    -0.704855422021E+03   -0.19592E+01   -0.19627E+01  8424   0.419E+01 0.173E+00
CGA:   9    -0.705772390259E+03   -0.91697E+00   -0.91634E+00  8424   0.316E+01 0.387E-01
CGA:  10    -0.706115124614E+03   -0.34273E+00   -0.35559E+00  8424   0.151E+01-0.437E-01
CGA:  11    -0.706269840211E+03   -0.15472E+00   -0.15949E+00  8424   0.691E+00-0.275E-01
CGA:  12    -0.706387689063E+03   -0.11785E+00   -0.11806E+00  8424   0.204E+00 0.496E-02
CGA:  13    -0.706424906616E+03   -0.37218E-01   -0.37282E-01  8424   0.127E+00 0.690E-02
CGA:  14    -0.706441339783E+03   -0.16433E-01   -0.16692E-01  8424   0.878E-01 0.293E-02
CGA:  15    -0.706452771530E+03   -0.11432E-01   -0.11512E-01  8424   0.245E-01 0.151E-02
CGA:  16    -0.706456916059E+03   -0.41445E-02   -0.41639E-02  8424   0.108E-01 0.940E-03
CGA:  17    -0.706458407773E+03   -0.14917E-02   -0.15189E-02  8424   0.568E-02 0.451E-03
CGA:  18    -0.706459091703E+03   -0.68393E-03   -0.68005E-03  8424   0.243E-02-0.141E-03
CGA:  19    -0.706459556518E+03   -0.46481E-03   -0.48900E-03  8424   0.183E-02-0.828E-03
CGA:  20    -0.706459702251E+03   -0.14573E-03   -0.13133E-03  8424   0.604E-03-0.225E-03
CGA:  21    -0.706459766209E+03   -0.63959E-04   -0.67917E-04  8424   0.299E-03 0.829E-04
CGA:  22    -0.706459824467E+03   -0.58258E-04   -0.58304E-04  8424   0.109E-03 0.574E-04
CGA:  23    -0.706459787022E+03    0.37445E-04   -0.74384E-04  8424   0.177E-02-0.277E-03
CGA:  24    -0.706459878531E+03   -0.91509E-04   -0.10323E-03  8424   0.129E-03 0.731E-04
CGA:  25    -0.706459885664E+03   -0.71337E-05   -0.13155E-04  8424   0.594E-04 0.688E-04
CGA:  26    -0.706459910831E+03   -0.25166E-04    0.31959E-04  8424   0.672E-04 0.793E-05
CGA:  27    -0.706459943777E+03   -0.32946E-04    0.35831E-04  8424   0.412E-04-0.220E-04
CGA:  28    -0.706459961094E+03   -0.17317E-04    0.34748E-05  8424   0.503E-04-0.240E-04
CGA:  29    -0.706459966085E+03   -0.49906E-05   -0.46238E-05  8424   0.247E-04-0.432E-05
CGA:  30    -0.706459974150E+03   -0.80649E-05    0.17042E-03  8424   0.765E-05 0.835E-05
   1 F= -.70645997E+03 E0= -.70644897E+03  d E =-.706460E+03  mag=     0.8012
       N       E                     dE             d eps       ncg     rms          ort
SDA:   1    -0.706458561768E+03    0.14043E-02    0.00000E+00  8424   0.655E-02 0.000E+00
CGA:   2    -0.706459232226E+03   -0.67046E-03   -0.67369E-03  8424   0.334E-02 0.375E-04
CGA:   3    -0.706459768936E+03   -0.53671E-03   -0.53733E-03  8424   0.115E-02 0.470E-04
CGA:   4    -0.706459983786E+03   -0.21485E-03   -0.21535E-03  8424   0.338E-03-0.417E-04
CGA:   5    -0.706460033813E+03   -0.50027E-04   -0.49522E-04  8424   0.971E-04-0.241E-04
CGA:   6    -0.706460050011E+03   -0.16198E-04   -0.16361E-04  8424   0.415E-04-0.172E-04
CGA:   7    -0.706460055479E+03   -0.54677E-05   -0.76828E-05  8424   0.120E-03-0.421E-04
   2 F= -.70646006E+03 E0= -.70644911E+03  d E =-.813290E-04  mag=     0.8089
       N       E                     dE             d eps       ncg     rms          ort
SDA:   1    -0.706460047233E+03    0.27777E-05    0.00000E+00  8424   0.586E-03 0.000E+00
CGA:   2    -0.706460081024E+03   -0.33791E-04   -0.33399E-04  8424   0.171E-04-0.422E-05
CGA:   3    -0.706460086711E+03   -0.56868E-05    0.66062E-04  8424   0.646E-05 0.494E-05
CGA:   4    -0.706460091343E+03   -0.46321E-05    0.97794E-06  8424   0.282E-05 0.401E-05
   3 F= -.70646009E+03 E0= -.70644918E+03  d E =-.117193E-03  mag=     0.8122
       N       E                     dE             d eps       ncg     rms          ort
SDA:   1    -0.706459730216E+03    0.35650E-03    0.00000E+00  8424   0.108E-02 0.000E+00
CGA:   2    -0.706459974878E+03   -0.24466E-03   -0.25282E-03  8424   0.124E-02-0.116E-03
CGA:   3    -0.706460081663E+03   -0.10679E-03   -0.10550E-03  8424   0.283E-03-0.192E-04
CGA:   4    -0.706460116430E+03   -0.34767E-04   -0.36364E-04  8424   0.820E-04 0.479E-04
CGA:   5    -0.706460126029E+03   -0.95989E-05   -0.98415E-05  8424   0.357E-04 0.405E-05
   4 F= -.70646013E+03 E0= -.70644923E+03  d E =-.346859E-04  mag=     0.8150
       N       E                     dE             d eps       ncg     rms          ort
SDA:   1    -0.706459871765E+03    0.24466E-03    0.00000E+00  8424   0.457E-02 0.000E+00
CGA:   2    -0.706460129510E+03   -0.25774E-03   -0.25762E-03  8424   0.838E-04-0.239E-05
CGA:   3    -0.706460141776E+03   -0.12267E-04   -0.12195E-04  8424   0.258E-04-0.639E-05
CGA:   4    -0.706460146503E+03   -0.47267E-05   -0.61349E-05  8424   0.276E-04-0.140E-04
   5 F= -.70646015E+03 E0= -.70644927E+03  d E =-.551597E-04  mag=     0.8165
       N       E                     dE             d eps       ncg     rms          ort
SDA:   1    -0.706460124345E+03    0.17431E-04    0.00000E+00  8424   0.368E-03 0.000E+00
CGA:   2    -0.706460153547E+03   -0.29202E-04   -0.27937E-04  8424   0.262E-04-0.145E-04
CGA:   3    -0.706460157269E+03   -0.37217E-05   -0.35772E-05  8424   0.235E-04-0.110E-04
CGA:   4    -0.706460154106E+03    0.31631E-05   -0.55568E-05  8424   0.994E-04-0.346E-04
   6 F= -.70646015E+03 E0= -.70644929E+03  d E =-.627627E-04  mag=     0.8176
       N       E                     dE             d eps       ncg     rms          ort
SDA:   1    -0.706459991607E+03    0.16566E-03    0.00000E+00  8424   0.278E-02 0.000E+00
CGA:   2    -0.706460157228E+03   -0.16562E-03   -0.16430E-03  8424   0.828E-04-0.158E-04
CGA:   3    -0.706460167485E+03   -0.10257E-04   -0.97603E-05  8424   0.234E-04-0.127E-04
CGA:   4    -0.706460170979E+03   -0.34943E-05   -0.36267E-05  8424   0.978E-05-0.485E-05
   7 F= -.70646017E+03 E0= -.70644931E+03  d E =-.796362E-04  mag=     0.8184
       N       E                     dE             d eps       ncg     rms          ort
SDA:   1    -0.706460059346E+03    0.10814E-03    0.00000E+00  8424   0.201E-02 0.000E+00
CGA:   2    -0.706460170724E+03   -0.11138E-03   -0.11136E-03  8424   0.286E-04-0.214E-05
CGA:   3    -0.706460176724E+03   -0.60003E-05   -0.65858E-05  8424   0.147E-04-0.771E-05
CGA:   4    -0.706460179000E+03   -0.22762E-05   -0.27690E-05  8424   0.835E-05-0.496E-05
   8 F= -.70646018E+03 E0= -.70644932E+03  d E =-.876571E-04  mag=     0.8191
       N       E                     dE             d eps       ncg     rms          ort
SDA:   1    -0.706460156998E+03    0.19726E-04    0.00000E+00  8424   0.195E-03 0.000E+00
CGA:   2    -0.706460175553E+03   -0.18554E-04   -0.17820E-04  8424   0.362E-04-0.100E-04
CGA:   3    -0.706460181855E+03   -0.63022E-05   -0.65934E-05  8424   0.424E-04-0.103E-04
CGA:   4    -0.706460185396E+03   -0.35414E-05   -0.33250E-05  8424   0.975E-05-0.391E-05
   9 F= -.70646019E+03 E0= -.70644933E+03  d E =-.940532E-04  mag=     0.8194
       N       E                     dE             d eps       ncg     rms          ort
SDA:   1    -0.706460100850E+03    0.81005E-04    0.00000E+00  8424   0.706E-03 0.000E+00
CGA:   2    -0.706460149507E+03   -0.48657E-04   -0.47309E-04  8424   0.117E-03-0.150E-04
CGA:   3    -0.706460180628E+03   -0.31121E-04   -0.42794E-04  8424   0.132E-03-0.532E-04
CGA:   4    -0.706460185169E+03   -0.45410E-05   -0.56038E-05  8424   0.541E-04 0.121E-04
  10 F= -.70646019E+03 E0= -.70644934E+03  d E =-.938258E-04  mag=     0.8198
       N       E                     dE             d eps       ncg     rms          ort
SDA:   1    -0.706459887420E+03    0.29321E-03    0.00000E+00  8424   0.242E-02 0.000E+00
CGA:   2    -0.706460051566E+03   -0.16415E-03   -0.16116E-03  8424   0.399E-03-0.349E-04
CGA:   3    -0.706460161112E+03   -0.10955E-03   -0.12742E-03  8424   0.288E-03-0.104E-03
CGA:   4    -0.706460181307E+03   -0.20195E-04   -0.22710E-04  8424   0.812E-04 0.465E-04
CGA:   5    -0.706460186979E+03   -0.56721E-05   -0.79335E-05  8424   0.210E-04 0.306E-04
  11 F= -.70646019E+03 E0= -.70644934E+03  d E =-.956363E-04  mag=     0.8200
       N       E                     dE             d eps       ncg     rms          ort
SDA:   1    -0.706459318897E+03    0.86241E-03    0.00000E+00  8424   0.218E-02 0.000E+00
CGA:   2    -0.706459904966E+03   -0.58607E-03   -0.60643E-03  8424   0.174E-02-0.160E-03
CGA:   3    -0.706460074243E+03   -0.16928E-03   -0.17061E-03  8424   0.603E-03 0.249E-04
CGA:   4    -0.706460143090E+03   -0.68847E-04   -0.71168E-04  8424   0.119E-03 0.598E-04
CGA:   5    -0.706460163107E+03   -0.20018E-04   -0.20019E-04  8424   0.360E-04 0.658E-05
CGA:   6    -0.706460169331E+03   -0.62239E-05   -0.63571E-05  8424   0.246E-04-0.934E-05
  12 F= -.70646017E+03 E0= -.70644932E+03  d E =-.779883E-04  mag=     0.8203
       N       E                     dE             d eps       ncg     rms          ort
SDA:   1    -0.706459976271E+03    0.18684E-03    0.00000E+00  8424   0.810E-03 0.000E+00
CGA:   2    -0.706460071593E+03   -0.95322E-04   -0.97068E-04  8424   0.435E-03 0.559E-04
CGA:   3    -0.706460144478E+03   -0.72885E-04   -0.72633E-04  8424   0.195E-03 0.351E-04
CGA:   4    -0.706460174948E+03   -0.30470E-04   -0.30294E-04  8424   0.765E-04-0.310E-04
CGA:   5    -0.706460184943E+03   -0.99952E-05   -0.10134E-04  8424   0.198E-04-0.166E-04
  13 F= -.70646018E+03 E0= -.70644934E+03  d E =-.935997E-04  mag=     0.8203
       N       E                     dE             d eps       ncg     rms          ort
SDA:   1    -0.706460116861E+03    0.58087E-04    0.00000E+00  8424   0.290E-03 0.000E+00
CGA:   2    -0.706460153993E+03   -0.37132E-04   -0.37503E-04  8424   0.157E-03 0.219E-04
CGA:   3    -0.706460178686E+03   -0.24693E-04   -0.24685E-04  8424   0.699E-04 0.115E-04
CGA:   4    -0.706460190191E+03   -0.11504E-04   -0.11600E-04  8424   0.333E-04-0.103E-04
CGA:   5    -0.706460194334E+03   -0.41433E-05   -0.41462E-05  8424   0.726E-05-0.637E-05
  14 F= -.70646019E+03 E0= -.70644935E+03  d E =-.102991E-03  mag=     0.8203
       N       E                     dE             d eps       ncg     rms          ort
SDA:   1    -0.706460185996E+03    0.41947E-05    0.00000E+00  8424   0.100E-03 0.000E+00
CGA:   2    -0.706460192378E+03   -0.63820E-05   -0.66942E-05  8424   0.159E-04 0.396E-05
CGA:   3    -0.706460194580E+03   -0.22024E-05   -0.22258E-05  8424   0.641E-05 0.506E-05
CGA:   4    -0.706460196105E+03   -0.15247E-05   -0.15254E-05  8424   0.564E-05-0.148E-07
  15 F= -.70646020E+03 E0= -.70644935E+03  d E =-.104762E-03  mag=     0.8204
       N       E                     dE             d eps       ncg     rms          ort
SDA:   1    -0.706460168284E+03    0.26296E-04    0.00000E+00  8424   0.497E-03 0.000E+00
CGA:   2    -0.706460195929E+03   -0.27645E-04   -0.27788E-04  8424   0.843E-05 0.119E-05
CGA:   3    -0.706460196844E+03   -0.91497E-06   -0.96106E-06  8424   0.208E-05 0.200E-05
CGA:   4    -0.706460197356E+03   -0.51243E-06   -0.49480E-06  8424   0.117E-05 0.308E-06
  16 F= -.70646020E+03 E0= -.70644935E+03  d E =-.106013E-03  mag=     0.8204
       N       E                     dE             d eps       ncg     rms          ort
SDA:   1    -0.706460123321E+03    0.73523E-04    0.00000E+00  8424   0.394E-03 0.000E+00
CGA:   2    -0.706460169352E+03   -0.46032E-04   -0.45389E-04  8424   0.249E-03-0.278E-04
CGA:   3    -0.706460207129E+03   -0.37777E-04   -0.38989E-04  8424   0.102E-03-0.395E-04
CGA:   4    -0.706460220485E+03   -0.13356E-04   -0.13272E-04  8424   0.191E-04 0.528E-05
CGA:   5    -0.706460222529E+03   -0.20443E-05   -0.22252E-05  8424   0.500E-05 0.622E-05
  17 F= -.70646022E+03 E0= -.70644938E+03  d E =-.251728E-04  mag=     0.8205
       N       E                     dE             d eps       ncg     rms          ort
SDA:   1    -0.706459458983E+03    0.76150E-03    0.00000E+00  8424   0.241E-02 0.000E+00
CGA:   2    -0.706459951533E+03   -0.49255E-03   -0.50102E-03  8424   0.130E-02-0.117E-03
CGA:   3    -0.706460157186E+03   -0.20565E-03   -0.20680E-03  8424   0.749E-03-0.414E-04
CGA:   4    -0.706460231409E+03   -0.74223E-04   -0.74396E-04  8424   0.168E-03 0.410E-05
CGA:   5    -0.706460253802E+03   -0.22393E-04   -0.22502E-04  8424   0.346E-04 0.186E-04
CGA:   6    -0.706460258557E+03   -0.47553E-05   -0.48786E-05  8424   0.760E-05 0.104E-04
  18 F= -.70646026E+03 E0= -.70644941E+03  d E =-.612009E-04  mag=     0.8204
       N       E                     dE             d eps       ncg     rms          ort
SDA:   1    -0.706460155229E+03    0.98573E-04    0.00000E+00  8424   0.540E-03 0.000E+00
CGA:   2    -0.706460218938E+03   -0.63709E-04   -0.63775E-04  8424   0.358E-03 0.316E-05
CGA:   3    -0.706460275831E+03   -0.56893E-04   -0.57178E-04  8424   0.113E-03-0.124E-04
CGA:   4    -0.706460296432E+03   -0.20601E-04   -0.22940E-04  8424   0.575E-04-0.322E-04
CGA:   5    -0.706460299612E+03   -0.31808E-05   -0.35740E-05  8424   0.147E-04 0.731E-05
  19 F= -.70646030E+03 E0= -.70644946E+03  d E =-.410553E-04  mag=     0.8204
       N       E                     dE             d eps       ncg     rms          ort
SDA:   1    -0.706459200632E+03    0.10958E-02    0.00000E+00  8424   0.326E-02 0.000E+00
CGA:   2    -0.706459974538E+03   -0.77391E-03   -0.77845E-03  8424   0.176E-02-0.437E-04
CGA:   3    -0.706460273956E+03   -0.29942E-03   -0.30179E-03  8424   0.715E-03-0.693E-04
CGA:   4    -0.706460349219E+03   -0.75263E-04   -0.75218E-04  8424   0.220E-03-0.160E-05
CGA:   5    -0.706460373064E+03   -0.23845E-04   -0.24438E-04  8424   0.521E-04 0.211E-04
CGA:   6    -0.706460379080E+03   -0.60168E-05   -0.64521E-05  8424   0.113E-04 0.176E-04
  20 F= -.70646038E+03 E0= -.70644954E+03  d E =-.120523E-03  mag=     0.8202
       N       E                     dE             d eps       ncg     rms          ort
SDA:   1    -0.706455428794E+03    0.49443E-02    0.00000E+00  8424   0.150E-01 0.000E+00
CGA:   2    -0.706458055010E+03   -0.26262E-02   -0.26293E-02  8424   0.133E-01-0.819E-04
CGA:   3    -0.706459585975E+03   -0.15310E-02   -0.15287E-02  8424   0.368E-02-0.109E-03
CGA:   4    -0.706460225305E+03   -0.63933E-03   -0.64205E-03  8424   0.744E-03-0.677E-04
CGA:   5    -0.706460342157E+03   -0.11685E-03   -0.11562E-03  8424   0.193E-03 0.589E-04
CGA:   6    -0.706460365220E+03   -0.23062E-04   -0.23855E-04  8424   0.633E-04 0.330E-04
CGA:   7    -0.706460373032E+03   -0.78128E-05   -0.82418E-05  8424   0.189E-04 0.164E-04
  21 F= -.70646037E+03 E0= -.70644954E+03  d E =-.114475E-03  mag=     0.8200
       N       E                     dE             d eps       ncg     rms          ort
SDA:   1    -0.706458763892E+03    0.16013E-02    0.00000E+00  8424   0.473E-02 0.000E+00
CGA:   2    -0.706459746138E+03   -0.98225E-03   -0.97664E-03  8424   0.365E-02 0.820E-04
CGA:   3    -0.706460155397E+03   -0.40926E-03   -0.41075E-03  8424   0.129E-02 0.448E-04
CGA:   4    -0.706460352214E+03   -0.19682E-03   -0.19674E-03  8424   0.240E-03 0.776E-05
CGA:   5    -0.706460395436E+03   -0.43222E-04   -0.44210E-04  8424   0.103E-03-0.236E-04
CGA:   6    -0.706460408266E+03   -0.12830E-04   -0.12615E-04  8424   0.516E-04-0.275E-04
CGA:   7    -0.706460413717E+03   -0.54513E-05   -0.54780E-05  8424   0.250E-04-0.159E-04
  22 F= -.70646041E+03 E0= -.70644958E+03  d E =-.155160E-03  mag=     0.8205
       N       E                     dE             d eps       ncg     rms          ort
SDA:   1    -0.706460278366E+03    0.12990E-03    0.00000E+00  8424   0.394E-03 0.000E+00
CGA:   2    -0.706460364828E+03   -0.86462E-04   -0.83843E-04  8424   0.181E-03 0.366E-04
CGA:   3    -0.706460390635E+03   -0.25807E-04   -0.26024E-04  8424   0.784E-04 0.164E-04
CGA:   4    -0.706460400978E+03   -0.10343E-04   -0.10465E-04  8424   0.256E-04 0.566E-05
CGA:   5    -0.706460405897E+03   -0.49187E-05   -0.51567E-05  8424   0.122E-04-0.533E-05
  23 F= -.70646041E+03 E0= -.70644957E+03  d E =-.147339E-03  mag=     0.8206
       N       E                     dE             d eps       ncg     rms          ort
SDA:   1    -0.706459590546E+03    0.81043E-03    0.00000E+00  8424   0.131E-01 0.000E+00
CGA:   2    -0.706460328586E+03   -0.73804E-03   -0.73800E-03  8424   0.288E-03 0.862E-05
CGA:   3    -0.706460376018E+03   -0.47432E-04   -0.47278E-04  8424   0.881E-04 0.102E-04
CGA:   4    -0.706460390346E+03   -0.14328E-04   -0.14246E-04  8424   0.298E-04 0.130E-04
CGA:   5    -0.706460396549E+03   -0.62029E-05   -0.61711E-05  8424   0.915E-05 0.103E-05
  24 F= -.70646040E+03 E0= -.70644956E+03  d E =-.137992E-03  mag=     0.8206
       N       E                     dE             d eps       ncg     rms          ort
SDA:   1    -0.706460203068E+03    0.18728E-03    0.00000E+00  8424   0.323E-02 0.000E+00
CGA:   2    -0.706460384047E+03   -0.18098E-03   -0.18079E-03  8424   0.638E-04-0.482E-05
CGA:   3    -0.706460398380E+03   -0.14332E-04   -0.15987E-04  8424   0.378E-04-0.162E-04
CGA:   4    -0.706460403407E+03   -0.50276E-05   -0.50785E-05  8424   0.106E-04-0.191E-05
  25 F= -.70646040E+03 E0= -.70644957E+03  d E =-.144850E-03  mag=     0.8205
       N       E                     dE             d eps       ncg     rms          ort
SDA:   1    -0.706460188429E+03    0.20995E-03    0.00000E+00  8424   0.778E-03 0.000E+00
CGA:   2    -0.706460365682E+03   -0.17725E-03   -0.18077E-03  8424   0.466E-03-0.444E-04
CGA:   3    -0.706460425721E+03   -0.60039E-04   -0.60275E-04  8424   0.201E-03 0.116E-04
CGA:   4    -0.706460446819E+03   -0.21098E-04   -0.21937E-04  8424   0.477E-04 0.168E-04
CGA:   5    -0.706460453898E+03   -0.70793E-05   -0.71573E-05  8424   0.114E-04 0.517E-05
  26 F= -.70646045E+03 E0= -.70644962E+03  d E =-.504912E-04  mag=     0.8205
       N       E                     dE             d eps       ncg     rms          ort
SDA:   1    -0.706459636204E+03    0.81061E-03    0.00000E+00  8424   0.253E-02 0.000E+00
CGA:   2    -0.706460221995E+03   -0.58579E-03   -0.59515E-03  8424   0.156E-02-0.117E-03
CGA:   3    -0.706460405800E+03   -0.18380E-03   -0.18479E-03  8424   0.713E-03 0.272E-04
CGA:   4    -0.706460488386E+03   -0.82587E-04   -0.84444E-04  8424   0.145E-03 0.451E-04
CGA:   5    -0.706460514462E+03   -0.26076E-04   -0.26043E-04  8424   0.375E-04 0.252E-05
CGA:   6    -0.706460520428E+03   -0.59658E-05   -0.59657E-05  8424   0.891E-05 0.119E-05
  27 F= -.70646052E+03 E0= -.70644969E+03  d E =-.117021E-03  mag=     0.8205
       N       E                     dE             d eps       ncg     rms          ort
SDA:   1    -0.706457035045E+03    0.34794E-02    0.00000E+00  8424   0.101E-01 0.000E+00
CGA:   2    -0.706459364776E+03   -0.23297E-02   -0.23454E-02  8424   0.503E-02-0.202E-03
CGA:   3    -0.706460178110E+03   -0.81333E-03   -0.81296E-03  8424   0.204E-02 0.673E-04
CGA:   4    -0.706460408476E+03   -0.23037E-03   -0.23292E-03  8424   0.682E-03 0.539E-04
CGA:   5    -0.706460497200E+03   -0.88723E-04   -0.89085E-04  8424   0.174E-03 0.116E-04
CGA:   6    -0.706460524909E+03   -0.27709E-04   -0.27711E-04  8424   0.431E-04-0.375E-05
CGA:   7    -0.706460530345E+03   -0.54363E-05   -0.55879E-05  8424   0.163E-04 0.640E-05
  28 F= -.70646053E+03 E0= -.70644972E+03  d E =-.126938E-03  mag=     0.8205
       N       E                     dE             d eps       ncg     rms          ort
SDA:   1    -0.706459849435E+03    0.67547E-03    0.00000E+00  8424   0.261E-02 0.000E+00
CGA:   2    -0.706460159280E+03   -0.30984E-03   -0.31214E-03  8424   0.177E-02 0.632E-04
CGA:   3    -0.706460429272E+03   -0.26999E-03   -0.27017E-03  8424   0.467E-03 0.402E-04
CGA:   4    -0.706460530691E+03   -0.10142E-03   -0.10797E-03  8424   0.161E-03-0.895E-04
CGA:   5    -0.706460546003E+03   -0.15313E-04   -0.15753E-04  8424   0.445E-04 0.123E-04
CGA:   6    -0.706460550689E+03   -0.46857E-05   -0.50771E-05  8424   0.116E-04 0.800E-05
  29 F= -.70646055E+03 E0= -.70644974E+03  d E =-.147282E-03  mag=     0.8209
       N       E                     dE             d eps       ncg     rms          ort
SDA:   1    -0.706460123365E+03    0.42264E-03    0.00000E+00  8424   0.321E-02 0.000E+00
CGA:   2    -0.706460358646E+03   -0.23528E-03   -0.23601E-03  8424   0.665E-03 0.417E-05
CGA:   3    -0.706460476884E+03   -0.11824E-03   -0.11788E-03  8424   0.317E-03 0.168E-04
CGA:   4    -0.706460524138E+03   -0.47254E-04   -0.47224E-04  8424   0.944E-04-0.267E-05
CGA:   5    -0.706460543532E+03   -0.19393E-04   -0.20710E-04  8424   0.291E-04-0.203E-04
CGA:   6    -0.706460546457E+03   -0.29249E-05   -0.30302E-05  8424   0.564E-05 0.395E-05
  30 F= -.70646055E+03 E0= -.70644973E+03  d E =-.143049E-03  mag=     0.8210
       N       E                     dE             d eps       ncg     rms          ort
SDA:   1    -0.706460439227E+03    0.10430E-03    0.00000E+00  8424   0.501E-03 0.000E+00
CGA:   2    -0.706460521842E+03   -0.82616E-04   -0.82794E-04  8424   0.458E-03-0.362E-04
CGA:   3    -0.706460571865E+03   -0.50023E-04   -0.49694E-04  8424   0.125E-03-0.768E-05
CGA:   4    -0.706460587086E+03   -0.15221E-04   -0.16005E-04  8424   0.259E-04 0.274E-04
CGA:   5    -0.706460590669E+03   -0.35829E-05   -0.37566E-05  8424   0.125E-04 0.453E-05
  31 F= -.70646059E+03 E0= -.70644977E+03  d E =-.442123E-04  mag=     0.8211
       N       E                     dE             d eps       ncg     rms          ort
SDA:   1    -0.706459278190E+03    0.13089E-02    0.00000E+00  8424   0.508E-02 0.000E+00
CGA:   2    -0.706459959202E+03   -0.68101E-03   -0.67920E-03  8424   0.372E-02-0.860E-04
CGA:   3    -0.706460454366E+03   -0.49516E-03   -0.49428E-03  8424   0.109E-02-0.464E-04
CGA:   4    -0.706460626268E+03   -0.17190E-03   -0.17133E-03  8424   0.235E-03 0.900E-04
CGA:   5    -0.706460669279E+03   -0.43011E-04   -0.42998E-04  8424   0.727E-04 0.835E-06
CGA:   6    -0.706460683693E+03   -0.14414E-04   -0.17036E-04  8424   0.498E-04-0.333E-04
CGA:   7    -0.706460686372E+03   -0.26786E-05   -0.28464E-05  8424   0.183E-04 0.315E-05
  32 F= -.70646069E+03 E0= -.70644987E+03  d E =-.139915E-03  mag=     0.8212
       N       E                     dE             d eps       ncg     rms          ort
SDA:   1    -0.706455456595E+03    0.52271E-02    0.00000E+00  8424   0.154E-01 0.000E+00
CGA:   2    -0.706458901214E+03   -0.34446E-02   -0.34693E-02  8424   0.771E-02-0.336E-03
CGA:   3    -0.706460186224E+03   -0.12850E-02   -0.12830E-02  8424   0.230E-02 0.141E-03
CGA:   4    -0.706460542366E+03   -0.35614E-03   -0.35664E-03  8424   0.587E-03 0.110E-03
CGA:   5    -0.706460643378E+03   -0.10101E-03   -0.10145E-03  8424   0.332E-03-0.508E-04
CGA:   6    -0.706460673885E+03   -0.30508E-04   -0.29293E-04  8424   0.784E-04-0.204E-04
CGA:   7    -0.706460685802E+03   -0.11916E-04   -0.11831E-04  8424   0.201E-04 0.121E-04
CGA:   8    -0.706460691164E+03   -0.53624E-05   -0.81413E-05  8424   0.545E-04-0.142E-04
  33 F= -.70646069E+03 E0= -.70644987E+03  d E =-.144707E-03  mag=     0.8216
       N       E                     dE             d eps       ncg     rms          ort
SDA:   1    -0.706460083917E+03    0.60188E-03    0.00000E+00  8424   0.266E-02 0.000E+00
CGA:   2    -0.706460367212E+03   -0.28329E-03   -0.28556E-03  8424   0.155E-02 0.423E-04
CGA:   3    -0.706460616842E+03   -0.24963E-03   -0.24958E-03  8424   0.418E-03 0.388E-04
CGA:   4    -0.706460711334E+03   -0.94492E-04   -0.10107E-03  8424   0.164E-03-0.835E-04
CGA:   5    -0.706460726365E+03   -0.15031E-04   -0.15631E-04  8424   0.378E-04 0.143E-04
CGA:   6    -0.706460729217E+03   -0.28517E-05   -0.38316E-05  8424   0.116E-04 0.150E-04
  34 F= -.70646073E+03 E0= -.70644991E+03  d E =-.182760E-03  mag=     0.8216
       N       E                     dE             d eps       ncg     rms          ort
SDA:   1    -0.706460119578E+03    0.60679E-03    0.00000E+00  8424   0.180E-02 0.000E+00
CGA:   2    -0.706460493346E+03   -0.37377E-03   -0.36692E-03  8424   0.883E-03 0.135E-03
CGA:   3    -0.706460636764E+03   -0.14342E-03   -0.14326E-03  8424   0.601E-03-0.374E-04
CGA:   4    -0.706460708276E+03   -0.71512E-04   -0.69722E-04  8424   0.132E-03-0.534E-04
CGA:   5    -0.706460724695E+03   -0.16420E-04   -0.16663E-04  8424   0.270E-04 0.160E-04
CGA:   6    -0.706460728184E+03   -0.34891E-05   -0.37602E-05  8424   0.704E-05 0.954E-05
  35 F= -.70646073E+03 E0= -.70644991E+03  d E =-.181728E-03  mag=     0.8216
       N       E                     dE             d eps       ncg     rms          ort
SDA:   1    -0.706460485980E+03    0.23872E-03    0.00000E+00  8424   0.119E-02 0.000E+00
CGA:   2    -0.706460666447E+03   -0.18047E-03   -0.18054E-03  8424   0.716E-03 0.377E-04
CGA:   3    -0.706460760151E+03   -0.93705E-04   -0.93900E-04  8424   0.326E-03 0.706E-05
CGA:   4    -0.706460816527E+03   -0.56376E-04   -0.56846E-04  8424   0.872E-04-0.234E-04
CGA:   5    -0.706460828370E+03   -0.11843E-04   -0.11806E-04  8424   0.329E-04-0.498E-05
CGA:   6    -0.706460831700E+03   -0.33298E-05   -0.33265E-05  8424   0.877E-05-0.938E-07
  36 F= -.70646083E+03 E0= -.70645001E+03  d E =-.103515E-03  mag=     0.8216
       N       E                     dE             d eps       ncg     rms          ort
SDA:   1    -0.706457903314E+03    0.29251E-02    0.00000E+00  8424   0.105E-01 0.000E+00
CGA:   2    -0.706459566395E+03   -0.16631E-02   -0.16622E-02  8424   0.633E-02 0.138E-03
CGA:   3    -0.706460367089E+03   -0.80069E-03   -0.80143E-03  8424   0.296E-02 0.235E-04
CGA:   4    -0.706460856450E+03   -0.48936E-03   -0.49060E-03  8424   0.679E-03-0.898E-04
CGA:   5    -0.706460961056E+03   -0.10461E-03   -0.10470E-03  8424   0.233E-03-0.140E-04
CGA:   6    -0.706460986563E+03   -0.25507E-04   -0.25394E-04  8424   0.791E-04-0.287E-05
CGA:   7    -0.706460998607E+03   -0.12043E-04   -0.12081E-04  8424   0.308E-04-0.855E-05
CGA:   8    -0.706461003883E+03   -0.52757E-05   -0.63001E-05  8424   0.393E-04-0.130E-04
  37 F= -.70646100E+03 E0= -.70645018E+03  d E =-.275698E-03  mag=     0.8215
       N       E                     dE             d eps       ncg     rms          ort
SDA:   1    -0.706460844829E+03    0.15378E-03    0.00000E+00  8424   0.895E-03 0.000E+00
CGA:   2    -0.706460983181E+03   -0.13835E-03   -0.13821E-03  8424   0.388E-03 0.616E-04
CGA:   3    -0.706461056190E+03   -0.73008E-04   -0.72678E-04  8424   0.174E-03 0.142E-04
CGA:   4    -0.706461082752E+03   -0.26563E-04   -0.26375E-04  8424   0.105E-03-0.250E-04
CGA:   5    -0.706461093312E+03   -0.10559E-04   -0.10121E-04  8424   0.205E-04-0.108E-04
CGA:   6    -0.706461095257E+03   -0.19450E-05   -0.21607E-05  8424   0.538E-05 0.641E-05
  38 F= -.70646110E+03 E0= -.70645027E+03  d E =-.913741E-04  mag=     0.8214
       N       E                     dE             d eps       ncg     rms          ort
SDA:   1    -0.706458990543E+03    0.21028E-02    0.00000E+00  8424   0.929E-02 0.000E+00
CGA:   2    -0.706460024956E+03   -0.10344E-02   -0.10403E-02  8424   0.548E-02 0.137E-03
CGA:   3    -0.706460848533E+03   -0.82358E-03   -0.82409E-03  8424   0.163E-02 0.123E-03
CGA:   4    -0.706461199564E+03   -0.35103E-03   -0.36072E-03  8424   0.488E-03-0.152E-03
CGA:   5    -0.706461263715E+03   -0.64151E-04   -0.64371E-04  8424   0.120E-03 0.226E-04
CGA:   6    -0.706461280563E+03   -0.16847E-04   -0.17029E-04  8424   0.397E-04 0.951E-05
CGA:   7    -0.706461287557E+03   -0.69944E-05   -0.10963E-04  8424   0.114E-03-0.388E-04
  39 F= -.70646129E+03 E0= -.70645046E+03  d E =-.283674E-03  mag=     0.8213
       N       E                     dE             d eps       ncg     rms          ort
SDA:   1    -0.706452563666E+03    0.87169E-02    0.00000E+00  8424   0.287E-01 0.000E+00
CGA:   2    -0.706457285375E+03   -0.47217E-02   -0.47183E-02  8424   0.202E-01 0.342E-03
CGA:   3    -0.706459714780E+03   -0.24294E-02   -0.24332E-02  8424   0.746E-02 0.937E-04
CGA:   4    -0.706460985610E+03   -0.12708E-02   -0.12742E-02  8424   0.190E-02-0.200E-03
CGA:   5    -0.706461264995E+03   -0.27938E-03   -0.27939E-03  8424   0.596E-03 0.174E-05
CGA:   6    -0.706461339003E+03   -0.74009E-04   -0.74370E-04  8424   0.201E-03 0.122E-04
CGA:   7    -0.706461369173E+03   -0.30169E-04   -0.29978E-04  8424   0.116E-03-0.312E-04
CGA:   8    -0.706461387329E+03   -0.18156E-04   -0.22848E-04  8424   0.134E-03-0.580E-04
CGA:   9    -0.706461395726E+03   -0.83967E-05   -0.80574E-05  8424   0.602E-04-0.948E-05
  40 F= -.70646140E+03 E0= -.70645056E+03  d E =-.391843E-03  mag=     0.8211
       N       E                     dE             d eps       ncg     rms          ort
SDA:   1    -0.706459669741E+03    0.17176E-02    0.00000E+00  8424   0.897E-02 0.000E+00
CGA:   2    -0.706460489073E+03   -0.81933E-03   -0.81791E-03  8424   0.355E-02-0.457E-04
CGA:   3    -0.706461097666E+03   -0.60859E-03   -0.60992E-03  8424   0.147E-02-0.582E-04
CGA:   4    -0.706461334891E+03   -0.23723E-03   -0.23684E-03  8424   0.483E-03 0.285E-04
CGA:   5    -0.706461401954E+03   -0.67063E-04   -0.67470E-04  8424   0.765E-04 0.285E-04
CGA:   6    -0.706461418578E+03   -0.16624E-04   -0.17150E-04  8424   0.314E-04-0.860E-05
CGA:   7    -0.706461420049E+03   -0.14716E-05   -0.20358E-05  8424   0.991E-05 0.697E-05
  41 F= -.70646142E+03 E0= -.70645059E+03  d E =-.416167E-03  mag=     0.8208
       N       E                     dE             d eps       ncg     rms          ort
SDA:   1    -0.706461120706E+03    0.29787E-03    0.00000E+00  8424   0.176E-02 0.000E+00
CGA:   2    -0.706461303483E+03   -0.18278E-03   -0.18385E-03  8424   0.977E-03 0.258E-04
CGA:   3    -0.706461464522E+03   -0.16104E-03   -0.16047E-03  8424   0.289E-03 0.310E-04
CGA:   4    -0.706461523476E+03   -0.58953E-04   -0.60120E-04  8424   0.801E-04-0.203E-04
CGA:   5    -0.706461535340E+03   -0.11865E-04   -0.11894E-04  8424   0.219E-04-0.241E-05
CGA:   6    -0.706461539162E+03   -0.38219E-05   -0.40554E-05  8424   0.103E-04-0.544E-05
  42 F= -.70646154E+03 E0= -.70645070E+03  d E =-.119113E-03  mag=     0.8209
       N       E                     dE             d eps       ncg     rms          ort
SDA:   1    -0.706458277530E+03    0.32578E-02    0.00000E+00  8424   0.101E-01 0.000E+00
CGA:   2    -0.706460449190E+03   -0.21717E-02   -0.21662E-02  8424   0.577E-02 0.838E-04
CGA:   3    -0.706461244477E+03   -0.79529E-03   -0.79567E-03  8424   0.296E-02 0.199E-04
CGA:   4    -0.706461595868E+03   -0.35139E-03   -0.35074E-03  8424   0.702E-03-0.214E-04
CGA:   5    -0.706461710043E+03   -0.11417E-03   -0.11448E-03  8424   0.210E-03-0.230E-04
CGA:   6    -0.706461741241E+03   -0.31199E-04   -0.31240E-04  8424   0.910E-04-0.202E-04
CGA:   7    -0.706461754123E+03   -0.12882E-04   -0.13070E-04  8424   0.749E-04-0.258E-04
CGA:   8    -0.706461763226E+03   -0.91030E-05   -0.98837E-05  8424   0.498E-04-0.241E-04
  43 F= -.70646176E+03 E0= -.70645091E+03  d E =-.343177E-03  mag=     0.8212
       N       E                     dE             d eps       ncg     rms          ort
SDA:   1    -0.706447550568E+03    0.14204E-01    0.00000E+00  8424   0.417E-01 0.000E+00
CGA:   2    -0.706455810843E+03   -0.82603E-02   -0.82547E-02  8424   0.286E-01 0.127E-03
CGA:   3    -0.706459216668E+03   -0.34058E-02   -0.34093E-02  8424   0.122E-01 0.447E-04
CGA:   4    -0.706460923479E+03   -0.17068E-02   -0.17066E-02  8424   0.253E-02-0.202E-04
CGA:   5    -0.706461370605E+03   -0.44713E-03   -0.44813E-03  8424   0.822E-03-0.417E-04
CGA:   6    -0.706461477861E+03   -0.10726E-03   -0.10647E-03  8424   0.366E-03-0.349E-04
CGA:   7    -0.706461528434E+03   -0.50574E-04   -0.50084E-04  8424   0.189E-03-0.464E-04
CGA:   8    -0.706461560356E+03   -0.31922E-04   -0.33689E-04  8424   0.139E-03-0.344E-04
CGA:   9    -0.706461579283E+03   -0.18927E-04   -0.18918E-04  8424   0.752E-04 0.672E-06
CGA:  10    -0.706461594311E+03   -0.15028E-04   -0.15112E-04  8424   0.613E-04-0.189E-05
CGA:  11    -0.706461604888E+03   -0.10577E-04   -0.11231E-04  8424   0.550E-04-0.219E-04
CGA:  12    -0.706461611060E+03   -0.61725E-05   -0.69562E-05  8424   0.412E-04-0.211E-04
  44 F= -.70646161E+03 E0= -.70645074E+03  d E =-.191011E-03  mag=     0.8218
       N       E                     dE             d eps       ncg     rms          ort
SDA:   1    -0.706454445711E+03    0.71592E-02    0.00000E+00  8424   0.227E-01 0.000E+00
CGA:   2    -0.706458599013E+03   -0.41533E-02   -0.41534E-02  8424   0.164E-01-0.205E-04
CGA:   3    -0.706460557447E+03   -0.19584E-02   -0.19567E-02  8424   0.635E-02-0.279E-04
CGA:   4    -0.706461479295E+03   -0.92185E-03   -0.92183E-03  8424   0.149E-02-0.218E-05
CGA:   5    -0.706461708072E+03   -0.22878E-03   -0.22895E-03  8424   0.443E-03 0.372E-04
CGA:   6    -0.706461772482E+03   -0.64411E-04   -0.64801E-04  8424   0.138E-03 0.252E-04
CGA:   7    -0.706461788158E+03   -0.15675E-04   -0.16674E-04  8424   0.627E-04 0.232E-04
CGA:   8    -0.706461798508E+03   -0.10350E-04   -0.10579E-04  8424   0.242E-04 0.210E-04
CGA:   9    -0.706461808119E+03   -0.96113E-05   -0.88758E-05  8424   0.211E-04 0.616E-05
  45 F= -.70646181E+03 E0= -.70645095E+03  d E =-.388070E-03  mag=     0.8209
       N       E                     dE             d eps       ncg     rms          ort
SDA:   1    -0.706461551666E+03    0.24684E-03    0.00000E+00  8424   0.230E-02 0.000E+00
CGA:   2    -0.706461726501E+03   -0.17484E-03   -0.17468E-03  8424   0.648E-03-0.283E-05
CGA:   3    -0.706461872404E+03   -0.14590E-03   -0.14659E-03  8424   0.233E-03-0.977E-05
CGA:   4    -0.706461913052E+03   -0.40648E-04   -0.40437E-04  8424   0.461E-04 0.123E-04
CGA:   5    -0.706461922558E+03   -0.95058E-05   -0.99620E-05  8424   0.282E-04-0.101E-04
  46 F= -.70646192E+03 E0= -.70645106E+03  d E =-.114439E-03  mag=     0.8209
       N       E                     dE             d eps       ncg     rms          ort
SDA:   1    -0.706459354566E+03    0.25585E-02    0.00000E+00  8424   0.951E-02 0.000E+00
CGA:   2    -0.706460667939E+03   -0.13134E-02   -0.13133E-02  8424   0.723E-02-0.691E-05
CGA:   3    -0.706461636221E+03   -0.96828E-03   -0.96798E-03  8424   0.211E-02-0.147E-04
CGA:   4    -0.706462018869E+03   -0.38265E-03   -0.38248E-03  8424   0.424E-03 0.663E-05
CGA:   5    -0.706462099891E+03   -0.81022E-04   -0.81758E-04  8424   0.180E-03-0.225E-04
CGA:   6    -0.706462123075E+03   -0.23184E-04   -0.22398E-04  8424   0.100E-03-0.264E-04
CGA:   7    -0.706462137257E+03   -0.14183E-04   -0.14466E-04  8424   0.665E-04-0.288E-04
CGA:   8    -0.706462145677E+03   -0.84196E-05   -0.85280E-05  8424   0.348E-04-0.545E-05
  47 F= -.70646215E+03 E0= -.70645128E+03  d E =-.337558E-03  mag=     0.8209
       N       E                     dE             d eps       ncg     rms          ort
SDA:   1    -0.706451408208E+03    0.10729E-01    0.00000E+00  8424   0.301E-01 0.000E+00
CGA:   2    -0.706458001251E+03   -0.65930E-02   -0.66013E-02  8424   0.190E-01-0.151E-03
CGA:   3    -0.706460470785E+03   -0.24695E-02   -0.24706E-02  8424   0.937E-02 0.229E-04
CGA:   4    -0.706461569050E+03   -0.10983E-02   -0.11006E-02  8424   0.176E-02 0.436E-04
CGA:   5    -0.706461904193E+03   -0.33514E-03   -0.33626E-03  8424   0.565E-03-0.396E-04
CGA:   6    -0.706461994016E+03   -0.89823E-04   -0.89826E-04  8424   0.360E-03-0.651E-04
CGA:   7    -0.706462035105E+03   -0.41089E-04   -0.39912E-04  8424   0.164E-03-0.315E-04
CGA:   8    -0.706462067180E+03   -0.32075E-04   -0.31952E-04  8424   0.920E-04 0.233E-05
CGA:   9    -0.706462090232E+03   -0.23052E-04   -0.23429E-04  8424   0.804E-04-0.425E-05
CGA:  10    -0.706462106665E+03   -0.16433E-04   -0.18666E-04  8424   0.978E-04-0.295E-04
CGA:  11    -0.706462115179E+03   -0.85142E-05   -0.76290E-05  8424   0.500E-04-0.183E-04
  48 F= -.70646212E+03 E0= -.70645123E+03  d E =-.307060E-03  mag=     0.8207
       N       E                     dE             d eps       ncg     rms          ort
SDA:   1    -0.706458269737E+03    0.38369E-02    0.00000E+00  8424   0.125E-01 0.000E+00
CGA:   2    -0.706460489917E+03   -0.22202E-02   -0.22194E-02  8424   0.775E-02 0.120E-03
CGA:   3    -0.706461604538E+03   -0.11146E-02   -0.11147E-02  8424   0.347E-02-0.146E-05
CGA:   4    -0.706462017887E+03   -0.41335E-03   -0.41133E-03  8424   0.104E-02-0.396E-04
CGA:   5    -0.706462160812E+03   -0.14292E-03   -0.14319E-03  8424   0.255E-03 0.898E-05
CGA:   6    -0.706462201448E+03   -0.40636E-04   -0.40900E-04  8424   0.607E-04 0.437E-04
CGA:   7    -0.706462212204E+03   -0.10756E-04   -0.10933E-04  8424   0.389E-04 0.165E-04
CGA:   8    -0.706462219676E+03   -0.74715E-05   -0.75642E-05  8424   0.249E-04 0.829E-05
  49 F= -.70646222E+03 E0= -.70645134E+03  d E =-.411557E-03  mag=     0.8205
       N       E                     dE             d eps       ncg     rms          ort
SDA:   1    -0.706461105128E+03    0.11071E-02    0.00000E+00  8424   0.606E-02 0.000E+00
CGA:   2    -0.706461709526E+03   -0.60440E-03   -0.60758E-03  8424   0.310E-02 0.402E-04
CGA:   3    -0.706462227257E+03   -0.51773E-03   -0.51762E-03  8424   0.955E-03 0.398E-04
CGA:   4    -0.706462424886E+03   -0.19763E-03   -0.20134E-03  8424   0.256E-03-0.824E-04
CGA:   5    -0.706462460293E+03   -0.35407E-04   -0.35622E-04  8424   0.635E-04 0.160E-04
CGA:   6    -0.706462469458E+03   -0.91646E-05   -0.92742E-05  8424   0.219E-04 0.402E-05
  50 F= -.70646247E+03 E0= -.70645160E+03  d E =-.249782E-03  mag=     0.8202
       N       E                     dE             d eps       ncg     rms          ort
SDA:   1    -0.706451504066E+03    0.10956E-01    0.00000E+00  8424   0.328E-01 0.000E+00
CGA:   2    -0.706458587324E+03   -0.70833E-02   -0.70696E-02  8424   0.170E-01 0.257E-03
CGA:   3    -0.706461239744E+03   -0.26524E-02   -0.26506E-02  8424   0.922E-02-0.144E-03
CGA:   4    -0.706462232252E+03   -0.99251E-03   -0.98678E-03  8424   0.231E-02-0.100E-03
CGA:   5    -0.706462595872E+03   -0.36362E-03   -0.36362E-03  8424   0.593E-03 0.242E-06
CGA:   6    -0.706462688280E+03   -0.92409E-04   -0.92422E-04  8424   0.210E-03 0.170E-05
CGA:   7    -0.706462720323E+03   -0.32043E-04   -0.31887E-04  8424   0.151E-03-0.145E-04
CGA:   8    -0.706462744048E+03   -0.23725E-04   -0.23903E-04  8424   0.938E-04-0.220E-04
CGA:   9    -0.706462761775E+03   -0.17727E-04   -0.19278E-04  8424   0.919E-04-0.198E-04
CGA:  10    -0.706462775261E+03   -0.13486E-04   -0.13985E-04  8424   0.639E-04-0.187E-04
CGA:  11    -0.706462784083E+03   -0.88220E-05   -0.89882E-05  8424   0.545E-04-0.183E-04
  51 F= -.70646278E+03 E0= -.70645193E+03  d E =-.564407E-03  mag=     0.8192
       N       E                     dE             d eps       ncg     rms          ort
SDA:   1    -0.706461015385E+03    0.17599E-02    0.00000E+00  8424   0.587E-02 0.000E+00
CGA:   2    -0.706462215238E+03   -0.11999E-02   -0.11998E-02  8424   0.359E-02 0.361E-06
CGA:   3    -0.706462695467E+03   -0.48023E-03   -0.48014E-03  8424   0.190E-02-0.307E-05
CGA:   4    -0.706462930782E+03   -0.23531E-03   -0.23489E-03  8424   0.381E-03-0.104E-04
CGA:   5    -0.706462995150E+03   -0.64368E-04   -0.64394E-04  8424   0.109E-03-0.515E-05
CGA:   6    -0.706463009371E+03   -0.14221E-04   -0.14377E-04  8424   0.436E-04 0.488E-05
CGA:   7    -0.706463015436E+03   -0.60650E-05   -0.60805E-05  8424   0.212E-04 0.521E-06
  52 F= -.70646302E+03 E0= -.70645217E+03  d E =-.231353E-03  mag=     0.8194
       N       E                     dE             d eps       ncg     rms          ort
SDA:   1    -0.706459241364E+03    0.37680E-02    0.00000E+00  8424   0.143E-01 0.000E+00
CGA:   2    -0.706461033105E+03   -0.17917E-02   -0.17929E-02  8424   0.956E-02-0.782E-06
CGA:   3    -0.706462402875E+03   -0.13698E-02   -0.13696E-02  8424   0.315E-02-0.680E-05
CGA:   4    -0.706462931763E+03   -0.52889E-03   -0.52893E-03  8424   0.816E-03-0.198E-04
CGA:   5    -0.706463059610E+03   -0.12785E-03   -0.12781E-03  8424   0.250E-03-0.445E-05
CGA:   6    -0.706463095597E+03   -0.35987E-04   -0.36102E-04  8424   0.971E-04 0.550E-05
CGA:   7    -0.706463107853E+03   -0.12256E-04   -0.12201E-04  8424   0.509E-04-0.135E-05
CGA:   8    -0.706463119142E+03   -0.11289E-04   -0.12779E-04  8424   0.512E-04-0.161E-04
CGA:   9    -0.706463126068E+03   -0.69261E-05   -0.82030E-05  8424   0.581E-04-0.189E-04
  53 F= -.70646313E+03 E0= -.70645228E+03  d E =-.341985E-03  mag=     0.8200
       N       E                     dE             d eps       ncg     rms          ort
SDA:   1    -0.706460195324E+03    0.29238E-02    0.00000E+00  8424   0.142E-01 0.000E+00
CGA:   2    -0.706461665116E+03   -0.14698E-02   -0.14661E-02  8424   0.699E-02-0.825E-04
CGA:   3    -0.706462738721E+03   -0.10736E-02   -0.10727E-02  8424   0.252E-02-0.705E-04
CGA:   4    -0.706463200281E+03   -0.46156E-03   -0.46054E-03  8424   0.628E-03 0.566E-04
CGA:   5    -0.706463299298E+03   -0.99017E-04   -0.99185E-04  8424   0.199E-03 0.129E-04
CGA:   6    -0.706463326613E+03   -0.27315E-04   -0.27167E-04  8424   0.796E-04-0.457E-05
CGA:   7    -0.706463335208E+03   -0.85945E-05   -0.86802E-05  8424   0.268E-04 0.157E-05
  54 F= -.70646334E+03 E0= -.70645250E+03  d E =-.209140E-03  mag=     0.8204
       N       E                     dE             d eps       ncg     rms          ort
SDA:   1    -0.706462352436E+03    0.97418E-03    0.00000E+00  8424   0.356E-02 0.000E+00
CGA:   2    -0.706462920831E+03   -0.56839E-03   -0.56815E-03  8424   0.213E-02-0.707E-04
CGA:   3    -0.706463184194E+03   -0.26336E-03   -0.26261E-03  8424   0.967E-03-0.208E-04
CGA:   4    -0.706463323109E+03   -0.13891E-03   -0.13929E-03  8424   0.249E-03 0.235E-04
CGA:   5    -0.706463362099E+03   -0.38990E-04   -0.39069E-04  8424   0.644E-04 0.108E-04
CGA:   6    -0.706463374331E+03   -0.12232E-04   -0.12390E-04  8424   0.237E-04-0.647E-05
CGA:   7    -0.706463376553E+03   -0.22228E-05   -0.23877E-05  8424   0.993E-05 0.336E-05
  55 F= -.70646338E+03 E0= -.70645254E+03  d E =-.250486E-03  mag=     0.8208
       N       E                     dE             d eps       ncg     rms          ort
SDA:   1    -0.706460651113E+03    0.27232E-02    0.00000E+00  8424   0.879E-02 0.000E+00
CGA:   2    -0.706462354008E+03   -0.17029E-02   -0.17105E-02  8424   0.521E-02-0.211E-03
CGA:   3    -0.706463048414E+03   -0.69441E-03   -0.69395E-03  8424   0.275E-02-0.203E-04
CGA:   4    -0.706463373592E+03   -0.32518E-03   -0.32745E-03  8424   0.573E-03 0.573E-04
CGA:   5    -0.706463463767E+03   -0.90175E-04   -0.90227E-04  8424   0.145E-03 0.213E-04
CGA:   6    -0.706463488641E+03   -0.24874E-04   -0.24930E-04  8424   0.455E-04-0.634E-05
CGA:   7    -0.706463493181E+03   -0.45399E-05   -0.48793E-05  8424   0.166E-04 0.756E-05
  56 F= -.70646349E+03 E0= -.70645267E+03  d E =-.116627E-03  mag=     0.8209
       N       E                     dE             d eps       ncg     rms          ort
SDA:   1    -0.706463467908E+03    0.20733E-04    0.00000E+00  8424   0.223E-03 0.000E+00
CGA:   2    -0.706463487121E+03   -0.19213E-04   -0.19337E-04  8424   0.543E-04 0.158E-05
CGA:   3    -0.706463496242E+03   -0.91217E-05   -0.92098E-05  8424   0.371E-04-0.462E-05
CGA:   4    -0.706463501236E+03   -0.49935E-05   -0.49632E-05  8424   0.136E-04-0.681E-05
  57 F= -.70646350E+03 E0= -.70645268E+03  d E =-.124682E-03  mag=     0.8210
       N       E                     dE             d eps       ncg     rms          ort
SDA:   1    -0.706463415912E+03    0.80330E-04    0.00000E+00  8424   0.332E-03 0.000E+00
CGA:   2    -0.706463454706E+03   -0.38794E-04   -0.38046E-04  8424   0.209E-03-0.207E-04
CGA:   3    -0.706463487274E+03   -0.32569E-04   -0.33040E-04  8424   0.891E-04-0.245E-04
CGA:   4    -0.706463497901E+03   -0.10627E-04   -0.10795E-04  8424   0.146E-04 0.130E-04
CGA:   5    -0.706463499614E+03   -0.17130E-05   -0.19063E-05  8424   0.335E-05 0.549E-05
  58 F= -.70646350E+03 E0= -.70645268E+03  d E =-.123061E-03  mag=     0.8210
       N       E                     dE             d eps       ncg     rms          ort
SDA:   1    -0.706463469868E+03    0.28033E-04    0.00000E+00  8424   0.119E-03 0.000E+00
CGA:   2    -0.706463486913E+03   -0.17045E-04   -0.17173E-04  8424   0.478E-04 0.304E-04
CGA:   3    -0.706463496601E+03   -0.96887E-05   -0.95951E-05  8424   0.279E-04 0.780E-05
CGA:   4    -0.706463501785E+03   -0.51833E-05   -0.53242E-05  8424   0.179E-04-0.920E-05
  59 F= -.70646350E+03 E0= -.70645268E+03  d E =-.125231E-03  mag=     0.8211
       N       E                     dE             d eps       ncg     rms          ort
SDA:   1    -0.706463500217E+03   -0.36159E-05    0.00000E+00  8424   0.389E-04 0.000E+00
CGA:   2    -0.706463503104E+03   -0.28862E-05   -0.27687E-05  8424   0.621E-05-0.157E-05
CGA:   3    -0.706463504227E+03   -0.11234E-05   -0.14865E-05  8424   0.884E-05-0.342E-05
CGA:   4    -0.706463504721E+03   -0.49442E-06   -0.61506E-06  8424   0.154E-05 0.152E-05
  60 F= -.70646350E+03 E0= -.70645268E+03  d E =-.128168E-03  mag=     0.8211
       N       E                     dE             d eps       ncg     rms          ort
SDA:   1    -0.706463502427E+03    0.18000E-05    0.00000E+00  8424   0.249E-04 0.000E+00
CGA:   2    -0.706463504101E+03   -0.16741E-05   -0.15678E-05  8424   0.180E-05-0.139E-05
CGA:   3    -0.706463504617E+03   -0.51636E-06    0.10475E-05  8424   0.396E-06 0.300E-06
CGA:   4    -0.706463504676E+03   -0.58200E-07   -0.59092E-07  8424   0.134E-06 0.178E-06
  61 F= -.70646350E+03 E0= -.70645268E+03  d E =-.128122E-03  mag=     0.8211
       N       E                     dE             d eps       ncg     rms          ort
SDA:   1    -0.706463505121E+03   -0.50359E-06    0.00000E+00  8424   0.104E-05 0.000E+00
CGA:   2    -0.706463505049E+03    0.71803E-07   -0.22402E-07  8424   0.678E-06 0.845E-06
CGA:   3    -0.706463504996E+03    0.53187E-07   -0.11867E-07  8424   0.513E-06 0.595E-06
CGA:   4    -0.706463504954E+03    0.41626E-07   -0.78440E-08  8424   0.417E-06 0.467E-06
  62 F= -.70646350E+03 E0= -.70645268E+03  d E =-.128401E-03  mag=     0.8211
       N       E                     dE             d eps       ncg     rms          ort
SDA:   1    -0.706463502950E+03    0.20461E-05    0.00000E+00  8424   0.802E-05 0.000E+00
CGA:   2    -0.706463454230E+03    0.48720E-04   -0.26629E-04  8424   0.106E-02-0.899E-04
CGA:   3    -0.706463507893E+03   -0.53663E-04   -0.57494E-04  8424   0.975E-05 0.238E-04
CGA:   4    -0.706463507138E+03    0.75492E-06   -0.29999E-06  8424   0.407E-05 0.639E-05
  63 F= -.70646351E+03 E0= -.70645269E+03  d E =-.130584E-03  mag=     0.8211
       N       E                     dE             d eps       ncg     rms          ort
SDA:   1    -0.706462156806E+03    0.13511E-02    0.00000E+00  8424   0.444E-02 0.000E+00
CGA:   2    -0.706463007214E+03   -0.85041E-03   -0.85037E-03  8424   0.226E-02 0.179E-05
CGA:   3    -0.706463376566E+03   -0.36935E-03   -0.36970E-03  8424   0.105E-02 0.220E-04
CGA:   4    -0.706463502619E+03   -0.12605E-03   -0.12536E-03  8424   0.354E-03-0.118E-04
CGA:   5    -0.706463546955E+03   -0.44335E-04   -0.43672E-04  8424   0.909E-04-0.132E-04
CGA:   6    -0.706463559247E+03   -0.12292E-04   -0.12497E-04  8424   0.175E-04 0.679E-05
CGA:   7    -0.706463561653E+03   -0.24066E-05   -0.25552E-05  8424   0.614E-05 0.423E-05
  64 F= -.70646356E+03 E0= -.70645274E+03  d E =-.545155E-04  mag=     0.8212
       N       E                     dE             d eps       ncg     rms          ort
SDA:   1    -0.706463287518E+03    0.27173E-03    0.00000E+00  8424   0.156E-02 0.000E+00
CGA:   2    -0.706463418058E+03   -0.13054E-03   -0.13154E-03  8424   0.546E-03 0.112E-04
CGA:   3    -0.706463517466E+03   -0.99408E-04   -0.99141E-04  8424   0.194E-03 0.179E-04
CGA:   4    -0.706463555802E+03   -0.38336E-04   -0.38774E-04  8424   0.747E-04-0.158E-04
CGA:   5    -0.706463566247E+03   -0.10445E-04   -0.10320E-04  8424   0.186E-04-0.735E-05
CGA:   6    -0.706463567929E+03   -0.16816E-05   -0.19401E-05  8424   0.357E-05 0.509E-05
  65 F= -.70646357E+03 E0= -.70645274E+03  d E =-.607909E-04  mag=     0.8212
       N       E                     dE             d eps       ncg     rms          ort
SDA:   1    -0.706462527823E+03    0.10384E-02    0.00000E+00  8424   0.288E-02 0.000E+00
CGA:   2    -0.706463247152E+03   -0.71933E-03   -0.72877E-03  8424   0.154E-02-0.103E-03
CGA:   3    -0.706463501729E+03   -0.25458E-03   -0.25427E-03  8424   0.364E-03 0.529E-04
CGA:   4    -0.706463558188E+03   -0.56459E-04   -0.56809E-04  8424   0.943E-04 0.231E-04
CGA:   5    -0.706463575589E+03   -0.17401E-04   -0.17492E-04  8424   0.460E-04-0.103E-04
CGA:   6    -0.706463579297E+03   -0.37084E-05   -0.36984E-05  8424   0.123E-04-0.163E-06
  66 F= -.70646358E+03 E0= -.70645275E+03  d E =-.113684E-04  mag=     0.8213
       N       E                     dE             d eps       ncg     rms          ort
SDA:   1    -0.706463568411E+03    0.71777E-05    0.00000E+00  8424   0.211E-03 0.000E+00
CGA:   2    -0.706463579764E+03   -0.11353E-04   -0.11991E-04  8424   0.944E-05 0.589E-05
CGA:   3    -0.706463580392E+03   -0.62765E-06   -0.92219E-06  8424   0.428E-05 0.494E-05
CGA:   4    -0.706463581314E+03   -0.92255E-06   -0.88690E-06  8424   0.444E-05 0.647E-06
  67 F= -.70646358E+03 E0= -.70645275E+03  d E =-.133856E-04  mag=     0.8212
       N       E                     dE             d eps       ncg     rms          ort
SDA:   1    -0.706463575400E+03    0.49914E-05    0.00000E+00  8424   0.671E-04 0.000E+00
CGA:   2    -0.706463579897E+03   -0.44965E-05   -0.42053E-05  8424   0.478E-05-0.332E-05
CGA:   3    -0.706463581250E+03   -0.13531E-05    0.35894E-04  8424   0.160E-05 0.740E-06
CGA:   4    -0.706463581455E+03   -0.20454E-06   -0.22272E-06  8424   0.451E-06 0.676E-06
  68 F= -.70646358E+03 E0= -.70645275E+03  d E =-.135259E-04  mag=     0.8212
       N       E                     dE             d eps       ncg     rms          ort
SDA:   1    -0.706463581418E+03   -0.16809E-06    0.00000E+00  8424   0.385E-05 0.000E+00
CGA:   2    -0.706463581501E+03   -0.83299E-07   -0.20394E-06  8424   0.874E-06 0.136E-05
CGA:   3    -0.706463581473E+03    0.28402E-07   -0.46325E-07  8424   0.535E-06 0.765E-06
CGA:   4    -0.706463581472E+03    0.68394E-09   -0.30212E-07  8424   0.325E-06 0.398E-06
  69 F= -.70646358E+03 E0= -.70645275E+03  d E =-.135436E-04  mag=     0.8211
       N       E                     dE             d eps       ncg     rms          ort
SDA:   1    -0.706463580838E+03    0.63518E-06    0.00000E+00  8424   0.105E-05 0.000E+00
CGA:   2    -0.706463581355E+03   -0.51770E-06    0.67023E-07  8424   0.115E-05-0.893E-06
CGA:   3    -0.706463581376E+03   -0.20944E-07   -0.47288E-07  8424   0.103E-06 0.315E-06
CGA:   4    -0.706463581369E+03    0.71668E-08   -0.21238E-08  8424   0.542E-07 0.911E-07
  70 F= -.70646358E+03 E0= -.70645275E+03  d E =-.134406E-04  mag=     0.8211
       N       E                     dE             d eps       ncg     rms          ort
SDA:   1    -0.706463581193E+03    0.18307E-06    0.00000E+00  8424   0.516E-05 0.000E+00
CGA:   2    -0.706463581341E+03   -0.14771E-06   -0.22553E-06  8424   0.327E-06 0.116E-05
CGA:   3    -0.706463581320E+03    0.21493E-07   -0.58717E-08  8424   0.184E-06 0.294E-06
CGA:   4    -0.706463581306E+03    0.13206E-07   -0.18257E-08  8424   0.141E-06 0.162E-06
  71 F= -.70646358E+03 E0= -.70645275E+03  d E =-.133777E-04  mag=     0.8211
       N       E                     dE             d eps       ncg     rms          ort
SDA:   1    -0.706463087170E+03    0.49415E-03    0.00000E+00  8424   0.151E-02 0.000E+00
CGA:   2    -0.706463377699E+03   -0.29053E-03   -0.30260E-03  8424   0.125E-02-0.113E-03
CGA:   3    -0.706463507808E+03   -0.13011E-03   -0.13011E-03  8424   0.465E-03-0.796E-06
CGA:   4    -0.706463567935E+03   -0.60127E-04   -0.58526E-04  8424   0.787E-04 0.607E-04
CGA:   5    -0.706463581671E+03   -0.13736E-04   -0.13396E-04  8424   0.322E-04 0.681E-05
CGA:   6    -0.706463586140E+03   -0.44692E-05   -0.47545E-05  8424   0.211E-04-0.873E-05
  72 F= -.70646359E+03 E0= -.70645275E+03  d E =-.483341E-05  mag=     0.8210
       N       E                     dE             d eps       ncg     rms          ort
SDA:   1    -0.706463575980E+03    0.56910E-05    0.00000E+00  8424   0.786E-04 0.000E+00
CGA:   2    -0.706463583275E+03   -0.72955E-05   -0.73550E-05  8424   0.142E-04 0.495E-05
CGA:   3    -0.706463586433E+03   -0.31577E-05   -0.27330E-05  8424   0.578E-05 0.560E-05
CGA:   4    -0.706463587813E+03   -0.13800E-05   -0.25008E-05  8424   0.130E-04-0.556E-05
  73 F= -.70646359E+03 E0= -.70645275E+03  d E =-.650637E-05  mag=     0.8210
