       N       E                     dE             d eps       ncg     rms          ort
DAV:   1     0.288672418507E+04    0.28867E+04   -0.29235E+05  2880   0.140E+03
DAV:   2    -0.942395412597E+03   -0.38291E+04   -0.36925E+04  2880   0.312E+02
DAV:   3    -0.120695274878E+04   -0.26456E+03   -0.26285E+03  2880   0.860E+01
DAV:   4    -0.121011691713E+04   -0.31642E+01   -0.31530E+01  2880   0.997E+00
DAV:   5    -0.121017023786E+04   -0.53321E-01   -0.53208E-01  2880   0.119E+00
SDA:   6    -0.843101172368E+03    0.36707E+03   -0.53208E-01  2880   0.638E+03 0.000E+00
CGA:   7    -0.959107646356E+03   -0.11601E+03   -0.11578E+03  2880   0.449E+02-0.292E+01
CGA:   8    -0.972543286368E+03   -0.13436E+02   -0.13405E+02  2880   0.109E+02 0.245E+00
CGA:   9    -0.976521477287E+03   -0.39782E+01   -0.39787E+01  2880   0.414E+01-0.924E-02
CGA:  10    -0.977848376729E+03   -0.13269E+01   -0.13313E+01  2880   0.925E+00-0.374E-01
CGA:  11    -0.978198350900E+03   -0.34997E+00   -0.35014E+00  2880   0.203E+00-0.872E-03
CGA:  12    -0.978267758879E+03   -0.69408E-01   -0.69331E-01  2880   0.457E-01 0.631E-03
CGA:  13    -0.978285086658E+03   -0.17328E-01   -0.17483E-01  2880   0.107E-01-0.105E-02
CGA:  14    -0.978289099112E+03   -0.40125E-02   -0.39405E-02  2880   0.235E-02 0.515E-03
CGA:  15    -0.978290114258E+03   -0.10151E-02   -0.98363E-03  2880   0.580E-03 0.204E-03
CGA:  16    -0.978290410619E+03   -0.29636E-03   -0.41443E-03  2880   0.461E-03-0.294E-03
CGA:  17    -0.978290520099E+03   -0.10948E-03   -0.11208E-03  2880   0.478E-04 0.846E-04
CGA:  18    -0.978290537529E+03   -0.17430E-04   -0.16937E-04  2880   0.165E-04 0.180E-04
CGA:  19    -0.978290548533E+03   -0.11003E-04   -0.11582E-04  2880   0.880E-05-0.251E-05
CGA:  20    -0.978290550212E+03   -0.16787E-05   -0.18123E-05  2880   0.467E-05 0.312E-05
   1 F= -.97829055E+03 E0= -.97829055E+03  d E =-.978291E+03  mag=     0.0000
       N       E                     dE             d eps       ncg     rms          ort
SDA:   1    -0.978370061819E+03   -0.79513E-01    0.00000E+00  2880   0.171E-02 0.000E+00
CGA:   2    -0.978370709208E+03   -0.64739E-03   -0.64420E-03  2880   0.363E-03 0.320E-04
CGA:   3    -0.978370809869E+03   -0.10066E-03   -0.10066E-03  2880   0.579E-04 0.314E-08
CGA:   4    -0.978370826061E+03   -0.16192E-04   -0.16193E-04  2880   0.113E-04 0.558E-06
CGA:   5    -0.978370830001E+03   -0.39405E-05   -0.39145E-05  2880   0.342E-05 0.431E-06
   2 F= -.97837083E+03 E0= -.97837083E+03  d E =-.802798E-01  mag=     0.0000
       N       E                     dE             d eps       ncg     rms          ort
SDA:   1    -0.979615163776E+03   -0.12443E+01    0.00000E+00  2880   0.684E+00 0.000E+00
CGA:   2    -0.979876391683E+03   -0.26123E+00   -0.26141E+00  2880   0.148E+00-0.160E-02
CGA:   3    -0.979915449079E+03   -0.39057E-01   -0.39068E-01  2880   0.226E-01 0.783E-04
CGA:   4    -0.979921716838E+03   -0.62678E-02   -0.62679E-02  2880   0.436E-02 0.998E-05
CGA:   5    -0.979923243456E+03   -0.15266E-02   -0.15261E-02  2880   0.135E-02 0.893E-05
CGA:   6    -0.979923739739E+03   -0.49628E-03   -0.49698E-03  2880   0.385E-03-0.106E-04
CGA:   7    -0.979923884243E+03   -0.14450E-03   -0.14514E-03  2880   0.818E-04-0.810E-05
CGA:   8    -0.979923912030E+03   -0.27787E-04   -0.27848E-04  2880   0.139E-04-0.146E-05
CGA:   9    -0.979923917434E+03   -0.54041E-05   -0.54365E-05  2880   0.288E-05-0.354E-06
   3 F= -.97992392E+03 E0= -.97992392E+03  d E =-.155309E+01  mag=     0.0000
       N       E                     dE             d eps       ncg     rms          ort
SDA:   1    -0.981179782616E+03   -0.12559E+01    0.00000E+00  2880   0.818E+01 0.000E+00
CGA:   2    -0.984210949944E+03   -0.30312E+01   -0.30363E+01  2880   0.171E+01-0.603E-01
CGA:   3    -0.984646232737E+03   -0.43528E+00   -0.43600E+00  2880   0.261E+00 0.385E-02
CGA:   4    -0.984716075566E+03   -0.69843E-01   -0.69866E-01  2880   0.501E-01 0.313E-03
CGA:   5    -0.984733961039E+03   -0.17885E-01   -0.17878E-01  2880   0.152E-01 0.131E-03
CGA:   6    -0.984739798099E+03   -0.58371E-02   -0.58355E-02  2880   0.476E-02-0.503E-05
CGA:   7    -0.984741624226E+03   -0.18261E-02   -0.18252E-02  2880   0.104E-02 0.120E-04
CGA:   8    -0.984741996616E+03   -0.37239E-03   -0.37293E-03  2880   0.181E-03-0.137E-04
CGA:   9    -0.984742067455E+03   -0.70839E-04   -0.71237E-04  2880   0.349E-04-0.503E-05
CGA:  10    -0.984742079445E+03   -0.11990E-04   -0.11883E-04  2880   0.676E-05 0.388E-05
CGA:  11    -0.984742083172E+03   -0.37268E-05   -0.41878E-05  2880   0.339E-05-0.198E-05
   4 F= -.98474208E+03 E0= -.98474208E+03  d E =-.481817E+01  mag=     0.0000
       N       E                     dE             d eps       ncg     rms          ort
SDA:   1    -0.980096985484E+03    0.46451E+01    0.00000E+00  2880   0.240E+02 0.000E+00
CGA:   2    -0.988680515185E+03   -0.85835E+01   -0.85937E+01  2880   0.510E+01-0.268E+00
CGA:   3    -0.989963352018E+03   -0.12828E+01   -0.12865E+01  2880   0.814E+00 0.148E-01
CGA:   4    -0.990184866042E+03   -0.22151E+00   -0.22187E+00  2880   0.171E+00 0.298E-02
CGA:   5    -0.990247390252E+03   -0.62524E-01   -0.62464E-01  2880   0.503E-01 0.113E-02
CGA:   6    -0.990267290735E+03   -0.19900E-01   -0.19877E-01  2880   0.163E-01 0.211E-03
CGA:   7    -0.990273446070E+03   -0.61553E-02   -0.61509E-02  2880   0.359E-02 0.867E-04
CGA:   8    -0.990274754736E+03   -0.13087E-02   -0.13101E-02  2880   0.661E-03-0.496E-04
CGA:   9    -0.990275008366E+03   -0.25363E-03   -0.25434E-03  2880   0.123E-03-0.132E-04
CGA:  10    -0.990275054247E+03   -0.45880E-04   -0.45662E-04  2880   0.241E-04 0.531E-05
CGA:  11    -0.990275066381E+03   -0.12134E-04   -0.13134E-04  2880   0.911E-05-0.550E-05
CGA:  12    -0.990275068186E+03   -0.18050E-05   -0.19344E-05  2880   0.217E-05 0.173E-05
   5 F= -.99027507E+03 E0= -.99027507E+03  d E =-.553299E+01  mag=     0.0000
       N       E                     dE             d eps       ncg     rms          ort
SDA:   1    -0.988150174388E+03    0.21249E+01    0.00000E+00  2880   0.963E+01 0.000E+00
CGA:   2    -0.991677656067E+03   -0.35275E+01   -0.35290E+01  2880   0.183E+01-0.421E-01
CGA:   3    -0.992141692464E+03   -0.46404E+00   -0.46501E+00  2880   0.251E+00 0.181E-02
CGA:   4    -0.992210601407E+03   -0.68909E-01   -0.68924E-01  2880   0.486E-01 0.239E-03
CGA:   5    -0.992227266716E+03   -0.16665E-01   -0.16664E-01  2880   0.128E-01 0.109E-03
CGA:   6    -0.992232342410E+03   -0.50757E-02   -0.50738E-02  2880   0.431E-02 0.124E-04
CGA:   7    -0.992233972217E+03   -0.16298E-02   -0.16284E-02  2880   0.101E-02 0.340E-04
CGA:   8    -0.992234352232E+03   -0.38001E-03   -0.38121E-03  2880   0.198E-03-0.355E-04
CGA:   9    -0.992234421676E+03   -0.69444E-04   -0.69407E-04  2880   0.324E-04 0.160E-05
CGA:  10    -0.992234434328E+03   -0.12653E-04   -0.12590E-04  2880   0.665E-05 0.143E-05
CGA:  11    -0.992234437834E+03   -0.35060E-05   -0.41235E-05  2880   0.341E-05-0.248E-05
   6 F= -.99223444E+03 E0= -.99223444E+03  d E =-.195937E+01  mag=    -0.0000
       N       E                     dE             d eps       ncg     rms          ort
SDA:   1    -0.990011838662E+03    0.22226E+01    0.00000E+00  2880   0.772E+01 0.000E+00
CGA:   2    -0.992935932402E+03   -0.29241E+01   -0.29246E+01  2880   0.143E+01-0.166E-01
CGA:   3    -0.993296894987E+03   -0.36096E+00   -0.36150E+00  2880   0.195E+00 0.136E-03
CGA:   4    -0.993351530470E+03   -0.54635E-01   -0.54638E-01  2880   0.365E-01 0.127E-03
CGA:   5    -0.993363508332E+03   -0.11978E-01   -0.11979E-01  2880   0.918E-02 0.158E-04
CGA:   6    -0.993367120513E+03   -0.36122E-02   -0.36112E-02  2880   0.293E-02 0.125E-04
CGA:   7    -0.993368274433E+03   -0.11539E-02   -0.11530E-02  2880   0.712E-03 0.183E-04
CGA:   8    -0.993368541428E+03   -0.26700E-03   -0.26774E-03  2880   0.139E-03-0.300E-04
CGA:   9    -0.993368587797E+03   -0.46368E-04   -0.46370E-04  2880   0.217E-04 0.419E-05
CGA:  10    -0.993368596856E+03   -0.90596E-05   -0.90572E-05  2880   0.509E-05 0.449E-07
   7 F= -.99336860E+03 E0= -.99336860E+03  d E =-.113416E+01  mag=    -0.0000
       N       E                     dE             d eps       ncg     rms          ort
SDA:   1    -0.988869702962E+03    0.44989E+01    0.00000E+00  2880   0.120E+02 0.000E+00
CGA:   2    -0.993543094819E+03   -0.46734E+01   -0.46740E+01  2880   0.225E+01-0.156E-01
CGA:   3    -0.994107123329E+03   -0.56403E+00   -0.56488E+00  2880   0.314E+00 0.996E-03
CGA:   4    -0.994194046502E+03   -0.86923E-01   -0.86942E-01  2880   0.569E-01 0.272E-03
CGA:   5    -0.994212202102E+03   -0.18156E-01   -0.18159E-01  2880   0.139E-01 0.696E-04
CGA:   6    -0.994217656462E+03   -0.54544E-02   -0.54540E-02  2880   0.443E-02 0.123E-05
CGA:   7    -0.994219408415E+03   -0.17520E-02   -0.17514E-02  2880   0.114E-02 0.140E-04
CGA:   8    -0.994219822534E+03   -0.41412E-03   -0.41424E-03  2880   0.208E-03-0.274E-04
CGA:   9    -0.994219897955E+03   -0.75421E-04   -0.75488E-04  2880   0.365E-04-0.426E-05
CGA:  10    -0.994219912403E+03   -0.14448E-04   -0.14526E-04  2880   0.837E-05-0.160E-05
CGA:  11    -0.994219916262E+03   -0.38597E-05   -0.40494E-05  2880   0.276E-05-0.129E-05
   8 F= -.99421992E+03 E0= -.99421992E+03  d E =-.851319E+00  mag=    -0.0000
       N       E                     dE             d eps       ncg     rms          ort
SDA:   1    -0.987860664839E+03    0.63592E+01    0.00000E+00  2880   0.161E+02 0.000E+00
CGA:   2    -0.993795446210E+03   -0.59348E+01   -0.59348E+01  2880   0.316E+01-0.708E-02
CGA:   3    -0.994607921835E+03   -0.81248E+00   -0.81325E+00  2880   0.470E+00 0.185E-02
CGA:   4    -0.994729117432E+03   -0.12120E+00   -0.12123E+00  2880   0.735E-01 0.303E-03
CGA:   5    -0.994752803685E+03   -0.23686E-01   -0.23693E-01  2880   0.158E-01 0.132E-03
CGA:   6    -0.994759129222E+03   -0.63255E-02   -0.63240E-02  2880   0.523E-02 0.312E-04
CGA:   7    -0.994761223187E+03   -0.20940E-02   -0.20960E-02  2880   0.147E-02-0.516E-04
CGA:   8    -0.994761756295E+03   -0.53311E-03   -0.53315E-03  2880   0.262E-03-0.110E-04
CGA:   9    -0.994761855902E+03   -0.99607E-04   -0.99825E-04  2880   0.484E-04-0.100E-04
CGA:  10    -0.994761875629E+03   -0.19727E-04   -0.20141E-04  2880   0.126E-04-0.600E-05
CGA:  11    -0.994761879708E+03   -0.40789E-05   -0.40766E-05  2880   0.246E-05 0.100E-05
   9 F= -.99476188E+03 E0= -.99476188E+03  d E =-.541963E+00  mag=    -0.0000
       N       E                     dE             d eps       ncg     rms          ort
SDA:   1    -0.973405297269E+03    0.21357E+02    0.00000E+00  2880   0.504E+02 0.000E+00
CGA:   2    -0.990990804805E+03   -0.17586E+02   -0.17598E+02  2880   0.107E+02 0.122E+00
CGA:   3    -0.993740283043E+03   -0.27495E+01   -0.27600E+01  2880   0.172E+01 0.230E-01
CGA:   4    -0.994218259079E+03   -0.47798E+00   -0.47823E+00  2880   0.302E+00 0.217E-02
CGA:   5    -0.994320542973E+03   -0.10228E+00   -0.10232E+00  2880   0.808E-01 0.643E-03
CGA:   6    -0.994351922336E+03   -0.31379E-01   -0.31371E-01  2880   0.269E-01 0.224E-03
CGA:   7    -0.994362193919E+03   -0.10272E-01   -0.10270E-01  2880   0.694E-02 0.750E-04
CGA:   8    -0.994364704695E+03   -0.25108E-02   -0.25105E-02  2880   0.136E-02-0.737E-04
CGA:   9    -0.994365174793E+03   -0.47010E-03   -0.46993E-03  2880   0.253E-03-0.108E-04
CGA:  10    -0.994365276335E+03   -0.10154E-03   -0.10206E-03  2880   0.541E-04-0.120E-04
CGA:  11    -0.994365297805E+03   -0.21470E-04   -0.21427E-04  2880   0.108E-04 0.842E-06
CGA:  12    -0.994365303218E+03   -0.54133E-05   -0.56613E-05  2880   0.331E-05-0.169E-05
  10 F= -.99436530E+03 E0= -.99436530E+03  d E =0.396576E+00  mag=     0.0000
       N       E                     dE             d eps       ncg     rms          ort
SDA:   1    -0.989851660508E+03    0.45136E+01    0.00000E+00  2880   0.122E+02 0.000E+00
CGA:   2    -0.994090594845E+03   -0.42389E+01   -0.42398E+01  2880   0.315E+01 0.139E-01
CGA:   3    -0.994888379359E+03   -0.79778E+00   -0.79833E+00  2880   0.460E+00-0.376E-03
CGA:   4    -0.995029709339E+03   -0.14133E+00   -0.14136E+00  2880   0.834E-01 0.279E-03
CGA:   5    -0.995058009146E+03   -0.28300E-01   -0.28302E-01  2880   0.233E-01 0.969E-04
CGA:   6    -0.995066942560E+03   -0.89334E-02   -0.89352E-02  2880   0.714E-02-0.949E-04
CGA:   7    -0.995069643066E+03   -0.27005E-02   -0.26999E-02  2880   0.174E-02 0.403E-04
CGA:   8    -0.995070293409E+03   -0.65034E-03   -0.65056E-03  2880   0.345E-03-0.298E-04
CGA:   9    -0.995070412869E+03   -0.11946E-03   -0.11944E-03  2880   0.676E-04-0.139E-05
CGA:  10    -0.995070438293E+03   -0.25423E-04   -0.25399E-04  2880   0.119E-04 0.181E-05
CGA:  11    -0.995070444595E+03   -0.63028E-05   -0.74637E-05  2880   0.658E-05-0.472E-05
  11 F= -.99507044E+03 E0= -.99507044E+03  d E =-.705141E+00  mag=     0.0000
       N       E                     dE             d eps       ncg     rms          ort
SDA:   1    -0.995014421332E+03    0.56017E-01    0.00000E+00  2880   0.222E+00 0.000E+00
CGA:   2    -0.995092206078E+03   -0.77785E-01   -0.77791E-01  2880   0.524E-01 0.144E-03
CGA:   3    -0.995106092047E+03   -0.13886E-01   -0.13894E-01  2880   0.777E-02 0.108E-03
CGA:   4    -0.995108359159E+03   -0.22671E-02   -0.22583E-02  2880   0.133E-02-0.123E-03
CGA:   5    -0.995108797368E+03   -0.43821E-03   -0.43787E-03  2880   0.354E-03-0.136E-04
CGA:   6    -0.995108920404E+03   -0.12304E-03   -0.12323E-03  2880   0.973E-04 0.289E-04
CGA:   7    -0.995108969270E+03   -0.48866E-04   -0.51021E-04  2880   0.420E-04-0.169E-04
CGA:   8    -0.995108980003E+03   -0.10733E-04   -0.10775E-04  2880   0.750E-05 0.782E-06
CGA:   9    -0.995108982311E+03   -0.23076E-05   -0.23344E-05  2880   0.159E-05 0.481E-06
  12 F= -.99510898E+03 E0= -.99510898E+03  d E =-.385377E-01  mag=    -0.0000
       N       E                     dE             d eps       ncg     rms          ort
SDA:   1    -0.994451170257E+03    0.65781E+00    0.00000E+00  2880   0.168E+01 0.000E+00
CGA:   2    -0.995040484852E+03   -0.58931E+00   -0.58961E+00  2880   0.383E+00 0.293E-02
CGA:   3    -0.995143243003E+03   -0.10276E+00   -0.10267E+00  2880   0.579E-01 0.244E-03
CGA:   4    -0.995159325928E+03   -0.16083E-01   -0.16059E-01  2880   0.974E-02-0.283E-03
CGA:   5    -0.995162549112E+03   -0.32232E-02   -0.32217E-02  2880   0.261E-02-0.339E-04
CGA:   6    -0.995163521619E+03   -0.97251E-03   -0.97260E-03  2880   0.799E-03 0.852E-04
CGA:   7    -0.995163873168E+03   -0.35155E-03   -0.35431E-03  2880   0.253E-03-0.509E-04
CGA:   8    -0.995163955488E+03   -0.82320E-04   -0.82307E-04  2880   0.408E-04-0.367E-06
CGA:   9    -0.995163969851E+03   -0.14364E-04   -0.14369E-04  2880   0.753E-05 0.248E-06
CGA:  10    -0.995163973392E+03   -0.35407E-05   -0.38743E-05  2880   0.295E-05-0.245E-05
  13 F= -.99516397E+03 E0= -.99516397E+03  d E =-.549911E-01  mag=    -0.0000
       N       E                     dE             d eps       ncg     rms          ort
SDA:   1    -0.995143826290E+03    0.20144E-01    0.00000E+00  2880   0.821E-01 0.000E+00
CGA:   2    -0.995174214471E+03   -0.30388E-01   -0.30388E-01  2880   0.159E-01 0.330E-05
CGA:   3    -0.995178295189E+03   -0.40807E-02   -0.40838E-02  2880   0.225E-02 0.285E-04
CGA:   4    -0.995178874719E+03   -0.57953E-03   -0.57735E-03  2880   0.346E-03-0.195E-04
CGA:   5    -0.995178982445E+03   -0.10773E-03   -0.10746E-03  2880   0.635E-04-0.541E-05
CGA:   6    -0.995179004135E+03   -0.21690E-04   -0.21755E-04  2880   0.175E-04 0.578E-05
CGA:   7    -0.995179013680E+03   -0.95446E-05   -0.10482E-04  2880   0.107E-04-0.491E-05
  14 F= -.99517901E+03 E0= -.99517901E+03  d E =-.150403E-01  mag=     0.0000
       N       E                     dE             d eps       ncg     rms          ort
SDA:   1    -0.991603444777E+03    0.35756E+01    0.00000E+00  2880   0.865E+01 0.000E+00
CGA:   2    -0.994802446934E+03   -0.31990E+01   -0.31989E+01  2880   0.167E+01 0.798E-02
CGA:   3    -0.995231424678E+03   -0.42898E+00   -0.42889E+00  2880   0.237E+00 0.449E-03
CGA:   4    -0.995291800878E+03   -0.60376E-01   -0.60383E-01  2880   0.371E-01 0.791E-06
CGA:   5    -0.995303492746E+03   -0.11692E-01   -0.11692E-01  2880   0.716E-02-0.108E-04
CGA:   6    -0.995306317756E+03   -0.28250E-02   -0.28230E-02  2880   0.243E-02 0.457E-04
CGA:   7    -0.995307336490E+03   -0.10187E-02   -0.10216E-02  2880   0.738E-03-0.451E-04
CGA:   8    -0.995307603201E+03   -0.26671E-03   -0.26676E-03  2880   0.127E-03-0.402E-05
CGA:   9    -0.995307651124E+03   -0.47923E-04   -0.48123E-04  2880   0.228E-04-0.810E-05
CGA:  10    -0.995307658694E+03   -0.75708E-05   -0.75713E-05  2880   0.396E-05 0.128E-06
  15 F= -.99530766E+03 E0= -.99530766E+03  d E =-.128645E+00  mag=    -0.0000
       N       E                     dE             d eps       ncg     rms          ort
SDA:   1    -0.982338485184E+03    0.12969E+02    0.00000E+00  2880   0.306E+02 0.000E+00
CGA:   2    -0.993170391979E+03   -0.10832E+02   -0.10831E+02  2880   0.619E+01-0.789E-01
CGA:   3    -0.994828693852E+03   -0.16583E+01   -0.16637E+01  2880   0.906E+00 0.983E-02
CGA:   4    -0.995075379672E+03   -0.24669E+00   -0.24666E+00  2880   0.150E+00 0.629E-03
CGA:   5    -0.995125809019E+03   -0.50429E-01   -0.50430E-01  2880   0.373E-01-0.545E-04
CGA:   6    -0.995140676065E+03   -0.14867E-01   -0.14875E-01  2880   0.122E-01-0.188E-03
CGA:   7    -0.995145330200E+03   -0.46541E-02   -0.46492E-02  2880   0.305E-02 0.160E-03
CGA:   8    -0.995146467683E+03   -0.11375E-02   -0.11383E-02  2880   0.550E-03-0.530E-04
CGA:   9    -0.995146672529E+03   -0.20485E-03   -0.20502E-03  2880   0.102E-03-0.692E-05
CGA:  10    -0.995146711792E+03   -0.39263E-04   -0.39365E-04  2880   0.213E-04-0.299E-05
CGA:  11    -0.995146721733E+03   -0.99408E-05   -0.10416E-04  2880   0.665E-05-0.323E-05
  16 F= -.99514672E+03 E0= -.99514672E+03  d E =0.160937E+00  mag=     0.0000
       N       E                     dE             d eps       ncg     rms          ort
SDA:   1    -0.994871351056E+03    0.27536E+00    0.00000E+00  2880   0.110E+01 0.000E+00
CGA:   2    -0.995255233951E+03   -0.38388E+00   -0.38392E+00  2880   0.260E+00 0.160E-02
CGA:   3    -0.995324927904E+03   -0.69694E-01   -0.69660E-01  2880   0.409E-01-0.126E-03
CGA:   4    -0.995337024968E+03   -0.12097E-01   -0.12088E-01  2880   0.688E-02-0.165E-03
CGA:   5    -0.995339413734E+03   -0.23888E-02   -0.23888E-02  2880   0.194E-02 0.139E-04
CGA:   6    -0.995340149083E+03   -0.73535E-03   -0.73443E-03  2880   0.573E-03 0.377E-04
CGA:   7    -0.995340393323E+03   -0.24424E-03   -0.24690E-03  2880   0.166E-03-0.392E-04
CGA:   8    -0.995340446517E+03   -0.53194E-04   -0.53192E-04  2880   0.274E-04-0.815E-07
CGA:   9    -0.995340455900E+03   -0.93836E-05   -0.94078E-05  2880   0.505E-05 0.175E-05
  17 F= -.99534046E+03 E0= -.99534046E+03  d E =-.193734E+00  mag=     0.0000
       N       E                     dE             d eps       ncg     rms          ort
SDA:   1    -0.995333813177E+03    0.66333E-02    0.00000E+00  2880   0.114E+00 0.000E+00
CGA:   2    -0.995373179069E+03   -0.39366E-01   -0.39371E-01  2880   0.259E-01 0.198E-03
CGA:   3    -0.995380381584E+03   -0.72025E-02   -0.71989E-02  2880   0.427E-02-0.310E-04
CGA:   4    -0.995381625182E+03   -0.12436E-02   -0.12374E-02  2880   0.714E-03-0.883E-04
CGA:   5    -0.995381867204E+03   -0.24202E-03   -0.24202E-03  2880   0.199E-03 0.101E-06
CGA:   6    -0.995381938966E+03   -0.71762E-04   -0.71705E-04  2880   0.533E-04 0.167E-04
CGA:   7    -0.995381967474E+03   -0.28508E-04   -0.33150E-04  2880   0.354E-04-0.215E-04
CGA:   8    -0.995381972219E+03   -0.47446E-05   -0.50170E-05  2880   0.109E-04 0.208E-05
  18 F= -.99538197E+03 E0= -.99538197E+03  d E =-.415163E-01  mag=    -0.0000
       N       E                     dE             d eps       ncg     rms          ort
SDA:   1    -0.994005907026E+03    0.13761E+01    0.00000E+00  2880   0.351E+01 0.000E+00
CGA:   2    -0.995201665178E+03   -0.11958E+01   -0.11960E+01  2880   0.793E+00 0.115E-01
CGA:   3    -0.995428791308E+03   -0.22713E+00   -0.22698E+00  2880   0.136E+00-0.205E-03
CGA:   4    -0.995466830860E+03   -0.38040E-01   -0.38038E-01  2880   0.221E-01-0.229E-03
CGA:   5    -0.995474662649E+03   -0.78318E-02   -0.78311E-02  2880   0.669E-02 0.538E-04
CGA:   6    -0.995477298352E+03   -0.26357E-02   -0.26297E-02  2880   0.199E-02 0.125E-03
CGA:   7    -0.995478139290E+03   -0.84094E-03   -0.84932E-03  2880   0.558E-03-0.118E-03
CGA:   8    -0.995478318028E+03   -0.17874E-03   -0.17882E-03  2880   0.832E-04 0.762E-05
CGA:   9    -0.995478347860E+03   -0.29832E-04   -0.29817E-04  2880   0.155E-04 0.499E-05
CGA:  10    -0.995478355181E+03   -0.73210E-05   -0.11309E-04  2880   0.162E-04-0.118E-04
  19 F= -.99547836E+03 E0= -.99547836E+03  d E =-.963830E-01  mag=    -0.0000
       N       E                     dE             d eps       ncg     rms          ort
SDA:   1    -0.995448027820E+03    0.30320E-01    0.00000E+00  2880   0.984E-01 0.000E+00
CGA:   2    -0.995483450401E+03   -0.35423E-01   -0.35422E-01  2880   0.214E-01 0.113E-03
CGA:   3    -0.995489101446E+03   -0.56510E-02   -0.56512E-02  2880   0.323E-02 0.125E-04
CGA:   4    -0.995490002813E+03   -0.90137E-03   -0.89478E-03  2880   0.544E-03-0.863E-04
CGA:   5    -0.995490171989E+03   -0.16918E-03   -0.16921E-03  2880   0.128E-03 0.118E-05
CGA:   6    -0.995490215816E+03   -0.43828E-04   -0.43916E-04  2880   0.355E-04 0.151E-04
CGA:   7    -0.995490235620E+03   -0.19804E-04   -0.24712E-04  2880   0.322E-04-0.179E-04
CGA:   8    -0.995490240857E+03   -0.52364E-05   -0.62805E-05  2880   0.285E-05 0.625E-05
  20 F= -.99549024E+03 E0= -.99549024E+03  d E =-.118857E-01  mag=    -0.0000
       N       E                     dE             d eps       ncg     rms          ort
SDA:   1    -0.995161654419E+03    0.32858E+00    0.00000E+00  2880   0.823E+00 0.000E+00
CGA:   2    -0.995469409319E+03   -0.30775E+00   -0.30773E+00  2880   0.167E+00 0.589E-03
CGA:   3    -0.995511824969E+03   -0.42416E-01   -0.42397E-01  2880   0.238E-01-0.295E-04
CGA:   4    -0.995518103796E+03   -0.62788E-02   -0.62675E-02  2880   0.386E-02-0.142E-03
CGA:   5    -0.995519306992E+03   -0.12032E-02   -0.12034E-02  2880   0.781E-03 0.867E-05
CGA:   6    -0.995519602511E+03   -0.29552E-03   -0.29456E-03  2880   0.253E-03 0.268E-04
CGA:   7    -0.995519718248E+03   -0.11574E-03   -0.11929E-03  2880   0.996E-04-0.311E-04
CGA:   8    -0.995519745773E+03   -0.27525E-04   -0.27692E-04  2880   0.157E-04 0.548E-05
CGA:   9    -0.995519751181E+03   -0.54080E-05   -0.54264E-05  2880   0.320E-05 0.998E-06
  21 F= -.99551975E+03 E0= -.99551975E+03  d E =-.295103E-01  mag=     0.0000
       N       E                     dE             d eps       ncg     rms          ort
SDA:   1    -0.995105894774E+03    0.41385E+00    0.00000E+00  2880   0.103E+01 0.000E+00
CGA:   2    -0.995491877790E+03   -0.38598E+00   -0.38598E+00  2880   0.202E+00-0.885E-04
CGA:   3    -0.995543238178E+03   -0.51360E-01   -0.51350E-01  2880   0.279E-01-0.730E-04
CGA:   4    -0.995550334308E+03   -0.70961E-02   -0.70971E-02  2880   0.443E-02 0.532E-05
CGA:   5    -0.995551682348E+03   -0.13480E-02   -0.13488E-02  2880   0.782E-03 0.134E-04
CGA:   6    -0.995551990861E+03   -0.30851E-03   -0.30873E-03  2880   0.267E-03-0.642E-05
CGA:   7    -0.995552097699E+03   -0.10684E-03   -0.10694E-03  2880   0.812E-04-0.241E-05
CGA:   8    -0.995552127034E+03   -0.29335E-04   -0.29334E-04  2880   0.140E-04 0.181E-05
CGA:   9    -0.995552132687E+03   -0.56531E-05   -0.56938E-05  2880   0.276E-05-0.120E-05
  22 F= -.99555213E+03 E0= -.99555213E+03  d E =-.323815E-01  mag=    -0.0000
       N       E                     dE             d eps       ncg     rms          ort
SDA:   1    -0.981751872428E+03    0.13800E+02    0.00000E+00  2880   0.312E+02 0.000E+00
CGA:   2    -0.992594486630E+03   -0.10843E+02   -0.10844E+02  2880   0.667E+01 0.736E-02
CGA:   3    -0.994361917831E+03   -0.17674E+01   -0.17725E+01  2880   0.105E+01 0.957E-02
CGA:   4    -0.994658193764E+03   -0.29628E+00   -0.29633E+00  2880   0.182E+00 0.123E-02
CGA:   5    -0.994718779288E+03   -0.60586E-01   -0.60594E-01  2880   0.454E-01 0.181E-03
CGA:   6    -0.994736459979E+03   -0.17681E-01   -0.17685E-01  2880   0.146E-01-0.154E-03
CGA:   7    -0.994741998875E+03   -0.55389E-02   -0.55368E-02  2880   0.372E-02 0.994E-04
CGA:   8    -0.994743394889E+03   -0.13960E-02   -0.13966E-02  2880   0.718E-03-0.437E-04
CGA:   9    -0.994743649074E+03   -0.25419E-03   -0.25419E-03  2880   0.136E-03 0.613E-05
CGA:  10    -0.994743707749E+03   -0.58675E-04   -0.60120E-04  2880   0.357E-04-0.186E-04
CGA:  11    -0.994743718508E+03   -0.10759E-04   -0.10799E-04  2880   0.639E-05 0.303E-05
CGA:  12    -0.994743721065E+03   -0.25567E-05   -0.25533E-05  2880   0.155E-05 0.614E-06
  23 F= -.99474372E+03 E0= -.99474372E+03  d E =0.808412E+00  mag=     0.0000
       N       E                     dE             d eps       ncg     rms          ort
SDA:   1    -0.987143598543E+03    0.76001E+01    0.00000E+00  2880   0.198E+02 0.000E+00
CGA:   2    -0.994214886811E+03   -0.70713E+01   -0.70697E+01  2880   0.442E+01-0.750E-01
CGA:   3    -0.995324138736E+03   -0.11093E+01   -0.11138E+01  2880   0.664E+00 0.337E-02
CGA:   4    -0.995530506436E+03   -0.20637E+00   -0.20634E+00  2880   0.122E+00-0.107E-03
CGA:   5    -0.995572441473E+03   -0.41935E-01   -0.41940E-01  2880   0.345E-01 0.164E-03
CGA:   6    -0.995585767624E+03   -0.13326E-01   -0.13326E-01  2880   0.105E-01-0.362E-04
CGA:   7    -0.995589762804E+03   -0.39952E-02   -0.39951E-02  2880   0.263E-02 0.641E-05
CGA:   8    -0.995590724795E+03   -0.96199E-03   -0.96196E-03  2880   0.521E-03-0.192E-04
CGA:   9    -0.995590913722E+03   -0.18893E-03   -0.18891E-03  2880   0.108E-03-0.642E-05
CGA:  10    -0.995590955534E+03   -0.41812E-04   -0.41883E-04  2880   0.215E-04-0.286E-05
CGA:  11    -0.995590964734E+03   -0.91996E-05   -0.92533E-05  2880   0.462E-05-0.737E-06
  24 F= -.99559096E+03 E0= -.99559096E+03  d E =-.847244E+00  mag=    -0.0000
       N       E                     dE             d eps       ncg     rms          ort
SDA:   1    -0.995534563394E+03    0.56392E-01    0.00000E+00  2880   0.232E+00 0.000E+00
CGA:   2    -0.995613177896E+03   -0.78615E-01   -0.78628E-01  2880   0.524E-01 0.280E-03
CGA:   3    -0.995628063073E+03   -0.14885E-01   -0.14887E-01  2880   0.827E-02 0.626E-04
CGA:   4    -0.995630483972E+03   -0.24209E-02   -0.24057E-02  2880   0.138E-02-0.209E-03
CGA:   5    -0.995630940877E+03   -0.45690E-03   -0.45706E-03  2880   0.378E-03 0.699E-05
CGA:   6    -0.995631079351E+03   -0.13847E-03   -0.13834E-03  2880   0.104E-03 0.334E-04
CGA:   7    -0.995631135319E+03   -0.55968E-04   -0.63181E-04  2880   0.637E-04-0.367E-04
CGA:   8    -0.995631144499E+03   -0.91793E-05   -0.98916E-05  2880   0.175E-04 0.547E-05
  25 F= -.99563114E+03 E0= -.99563114E+03  d E =-.401798E-01  mag=     0.0000
       N       E                     dE             d eps       ncg     rms          ort
SDA:   1    -0.994231163369E+03    0.14000E+01    0.00000E+00  2880   0.352E+01 0.000E+00
CGA:   2    -0.995411466085E+03   -0.11803E+01   -0.11808E+01  2880   0.789E+00 0.125E-01
CGA:   3    -0.995642033750E+03   -0.23057E+00   -0.23041E+00  2880   0.130E+00-0.139E-03
CGA:   4    -0.995678432096E+03   -0.36398E-01   -0.36381E-01  2880   0.213E-01-0.484E-03
CGA:   5    -0.995685810604E+03   -0.73785E-02   -0.73784E-02  2880   0.640E-02 0.709E-04
CGA:   6    -0.995688331416E+03   -0.25208E-02   -0.25136E-02  2880   0.193E-02 0.161E-03
CGA:   7    -0.995689158623E+03   -0.82721E-03   -0.83720E-03  2880   0.570E-03-0.134E-03
CGA:   8    -0.995689334187E+03   -0.17556E-03   -0.17592E-03  2880   0.821E-04 0.172E-04
CGA:   9    -0.995689364966E+03   -0.30779E-04   -0.30763E-04  2880   0.165E-04 0.134E-05
CGA:  10    -0.995689372356E+03   -0.73899E-05   -0.11163E-04  2880   0.161E-04-0.120E-04
  26 F= -.99568937E+03 E0= -.99568937E+03  d E =-.582279E-01  mag=    -0.0000
       N       E                     dE             d eps       ncg     rms          ort
SDA:   1    -0.995551555931E+03    0.13781E+00    0.00000E+00  2880   0.342E+00 0.000E+00
CGA:   2    -0.995665979397E+03   -0.11442E+00   -0.11440E+00  2880   0.749E-01-0.580E-03
CGA:   3    -0.995687678481E+03   -0.21699E-01   -0.21698E-01  2880   0.122E-01-0.995E-04
CGA:   4    -0.995691027129E+03   -0.33486E-02   -0.33704E-02  2880   0.174E-02 0.283E-03
CGA:   5    -0.995691658538E+03   -0.63141E-03   -0.63139E-03  2880   0.527E-03 0.456E-05
CGA:   6    -0.995691884073E+03   -0.22554E-03   -0.22942E-03  2880   0.199E-03-0.466E-04
CGA:   7    -0.995691937047E+03   -0.52973E-04   -0.54631E-04  2880   0.401E-04 0.313E-04
CGA:   8    -0.995691951070E+03   -0.14024E-04   -0.14349E-04  2880   0.934E-05 0.754E-05
CGA:   9    -0.995691955820E+03   -0.47497E-05   -0.62796E-05  2880   0.887E-05-0.707E-05
  27 F= -.99569196E+03 E0= -.99569196E+03  d E =-.258346E-02  mag=     0.0000
       N       E                     dE             d eps       ncg     rms          ort
SDA:   1    -0.995681265822E+03    0.10685E-01    0.00000E+00  2880   0.348E-01 0.000E+00
CGA:   2    -0.995693149497E+03   -0.11884E-01   -0.11885E-01  2880   0.733E-02 0.961E-04
CGA:   3    -0.995695241995E+03   -0.20925E-02   -0.20925E-02  2880   0.116E-02 0.298E-05
CGA:   4    -0.995695578582E+03   -0.33659E-03   -0.33150E-03  2880   0.212E-03-0.846E-04
CGA:   5    -0.995695637303E+03   -0.58721E-04   -0.58994E-04  2880   0.467E-04 0.636E-05
CGA:   6    -0.995695651429E+03   -0.14126E-04   -0.14572E-04  2880   0.127E-04 0.115E-04
CGA:   7    -0.995695656461E+03   -0.50319E-05   -0.13947E-04  2880   0.355E-04-0.163E-04
  28 F= -.99569566E+03 E0= -.99569566E+03  d E =-.370064E-02  mag=    -0.0000
       N       E                     dE             d eps       ncg     rms          ort
SDA:   1    -0.995675043322E+03    0.20608E-01    0.00000E+00  2880   0.650E-01 0.000E+00
CGA:   2    -0.995698484205E+03   -0.23441E-01   -0.23441E-01  2880   0.132E-01 0.918E-04
CGA:   3    -0.995701996036E+03   -0.35118E-02   -0.35088E-02  2880   0.190E-02-0.294E-04
CGA:   4    -0.995702494537E+03   -0.49850E-03   -0.49342E-03  2880   0.312E-03-0.546E-04
CGA:   5    -0.995702585492E+03   -0.90954E-04   -0.91199E-04  2880   0.578E-04 0.510E-05
CGA:   6    -0.995702605664E+03   -0.20173E-04   -0.20192E-04  2880   0.165E-04 0.777E-05
CGA:   7    -0.995702612286E+03   -0.66214E-05   -0.16223E-04  2880   0.394E-04-0.185E-04
  29 F= -.99570261E+03 E0= -.99570261E+03  d E =-.695582E-02  mag=     0.0000
       N       E                     dE             d eps       ncg     rms          ort
SDA:   1    -0.995549744286E+03    0.15286E+00    0.00000E+00  2880   0.399E+00 0.000E+00
CGA:   2    -0.995696086992E+03   -0.14634E+00   -0.14634E+00  2880   0.793E-01 0.693E-04
CGA:   3    -0.995716643969E+03   -0.20557E-01   -0.20546E-01  2880   0.110E-01-0.909E-04
CGA:   4    -0.995719412093E+03   -0.27681E-02   -0.27642E-02  2880   0.173E-02-0.376E-04
CGA:   5    -0.995719933083E+03   -0.52099E-03   -0.52164E-03  2880   0.302E-03 0.130E-04
CGA:   6    -0.995720052417E+03   -0.11933E-03   -0.11924E-03  2880   0.999E-04 0.231E-05
CGA:   7    -0.995720096867E+03   -0.44450E-04   -0.45608E-04  2880   0.386E-04-0.115E-04
CGA:   8    -0.995720107243E+03   -0.10376E-04   -0.10546E-04  2880   0.606E-05 0.348E-05
CGA:   9    -0.995720109517E+03   -0.22742E-05   -0.22749E-05  2880   0.140E-05 0.665E-07
  30 F= -.99572011E+03 E0= -.99572011E+03  d E =-.174972E-01  mag=     0.0000
       N       E                     dE             d eps       ncg     rms          ort
SDA:   1    -0.990092086228E+03    0.56280E+01    0.00000E+00  2880   0.136E+02 0.000E+00
CGA:   2    -0.994970361010E+03   -0.48783E+01   -0.48789E+01  2880   0.272E+01 0.864E-02
CGA:   3    -0.995684432811E+03   -0.71407E+00   -0.71458E+00  2880   0.374E+00 0.217E-02
CGA:   4    -0.995779084648E+03   -0.94652E-01   -0.94746E-01  2880   0.616E-01 0.417E-03
CGA:   5    -0.995798179741E+03   -0.19095E-01   -0.19105E-01  2880   0.121E-01 0.106E-03
CGA:   6    -0.995803111303E+03   -0.49316E-02   -0.49322E-02  2880   0.418E-02-0.272E-04
CGA:   7    -0.995804805747E+03   -0.16944E-02   -0.16949E-02  2880   0.125E-02-0.184E-04
CGA:   8    -0.995805256276E+03   -0.45053E-03   -0.45046E-03  2880   0.210E-03-0.316E-05
CGA:   9    -0.995805336020E+03   -0.79744E-04   -0.79737E-04  2880   0.354E-04-0.820E-05
CGA:  10    -0.995805349533E+03   -0.13514E-04   -0.13572E-04  2880   0.758E-05-0.328E-05
CGA:  11    -0.995805352098E+03   -0.25649E-05   -0.25700E-05  2880   0.154E-05 0.614E-06
  31 F= -.99580535E+03 E0= -.99580535E+03  d E =-.852426E-01  mag=     0.0000
       N       E                     dE             d eps       ncg     rms          ort
SDA:   1    -0.993826884210E+03    0.19785E+01    0.00000E+00  2880   0.454E+01 0.000E+00
CGA:   2    -0.995438970203E+03   -0.16121E+01   -0.16116E+01  2880   0.982E+00-0.718E-02
CGA:   3    -0.995696588523E+03   -0.25762E+00   -0.25807E+00  2880   0.144E+00-0.182E-04
CGA:   4    -0.995736138017E+03   -0.39549E-01   -0.39599E-01  2880   0.231E-01 0.606E-03
CGA:   5    -0.995743755010E+03   -0.76170E-02   -0.76180E-02  2880   0.549E-02 0.185E-04
CGA:   6    -0.995745957130E+03   -0.22021E-02   -0.22056E-02  2880   0.184E-02-0.114E-03
CGA:   7    -0.995746619692E+03   -0.66256E-03   -0.66286E-03  2880   0.457E-03 0.682E-04
CGA:   8    -0.995746797932E+03   -0.17824E-03   -0.17825E-03  2880   0.888E-04-0.232E-05
CGA:   9    -0.995746830410E+03   -0.32478E-04   -0.32473E-04  2880   0.169E-04-0.924E-06
CGA:  10    -0.995746836787E+03   -0.63766E-05   -0.63828E-05  2880   0.329E-05-0.716E-06
  32 F= -.99574684E+03 E0= -.99574684E+03  d E =0.585153E-01  mag=    -0.0000
       N       E                     dE             d eps       ncg     rms          ort
SDA:   1    -0.994630928871E+03    0.11159E+01    0.00000E+00  2880   0.279E+01 0.000E+00
CGA:   2    -0.995603164405E+03   -0.97224E+00   -0.97247E+00  2880   0.691E+00 0.362E-02
CGA:   3    -0.995781954750E+03   -0.17879E+00   -0.17871E+00  2880   0.104E+00 0.236E-03
CGA:   4    -0.995814003456E+03   -0.32049E-01   -0.32032E-01  2880   0.177E-01-0.310E-03
CGA:   5    -0.995820012425E+03   -0.60090E-02   -0.60087E-02  2880   0.483E-02-0.137E-04
CGA:   6    -0.995821819848E+03   -0.18074E-02   -0.18067E-02  2880   0.138E-02 0.926E-04
CGA:   7    -0.995822393334E+03   -0.57349E-03   -0.57562E-03  2880   0.384E-03-0.508E-04
CGA:   8    -0.995822523626E+03   -0.13029E-03   -0.13032E-03  2880   0.678E-04 0.179E-05
CGA:   9    -0.995822548138E+03   -0.24513E-04   -0.24516E-04  2880   0.138E-04 0.369E-06
CGA:  10    -0.995822554064E+03   -0.59256E-05   -0.60461E-05  2880   0.349E-05-0.178E-05
  33 F= -.99582255E+03 E0= -.99582255E+03  d E =-.757173E-01  mag=    -0.0000
       N       E                     dE             d eps       ncg     rms          ort
SDA:   1    -0.995777948971E+03    0.44599E-01    0.00000E+00  2880   0.921E-01 0.000E+00
CGA:   2    -0.995809017802E+03   -0.31069E-01   -0.31075E-01  2880   0.209E-01 0.162E-03
CGA:   3    -0.995814798510E+03   -0.57807E-02   -0.57817E-02  2880   0.333E-02 0.185E-04
CGA:   4    -0.995815781975E+03   -0.98346E-03   -0.97397E-03  2880   0.559E-03-0.135E-03
CGA:   5    -0.995815956894E+03   -0.17492E-03   -0.17490E-03  2880   0.140E-03-0.527E-06
CGA:   6    -0.995816001817E+03   -0.44923E-04   -0.45598E-04  2880   0.353E-04 0.221E-04
CGA:   7    -0.995816022349E+03   -0.20532E-04   -0.27283E-04  2880   0.391E-04-0.217E-04
CGA:   8    -0.995816028732E+03   -0.63822E-05   -0.77239E-05  2880   0.333E-05 0.771E-05
  34 F= -.99581603E+03 E0= -.99581603E+03  d E =0.652533E-02  mag=     0.0000
       N       E                     dE             d eps       ncg     rms          ort
SDA:   1    -0.995616745958E+03    0.19928E+00    0.00000E+00  2880   0.518E+00 0.000E+00
CGA:   2    -0.995808029525E+03   -0.19128E+00   -0.19128E+00  2880   0.113E+00 0.172E-03
CGA:   3    -0.995836633233E+03   -0.28604E-01   -0.28588E-01  2880   0.168E-01-0.166E-03
CGA:   4    -0.995841357493E+03   -0.47243E-02   -0.47213E-02  2880   0.280E-02-0.423E-04
CGA:   5    -0.995842259705E+03   -0.90221E-03   -0.90286E-03  2880   0.664E-03 0.253E-04
CGA:   6    -0.995842518683E+03   -0.25898E-03   -0.25891E-03  2880   0.214E-03 0.180E-05
CGA:   7    -0.995842604743E+03   -0.86060E-04   -0.86714E-04  2880   0.645E-04-0.120E-04
CGA:   8    -0.995842626766E+03   -0.22023E-04   -0.22045E-04  2880   0.115E-04-0.237E-05
CGA:   9    -0.995842630044E+03   -0.32775E-05   -0.33585E-05  2880   0.197E-05 0.158E-05
  35 F= -.99584263E+03 E0= -.99584263E+03  d E =-.266013E-01  mag=    -0.0000
       N       E                     dE             d eps       ncg     rms          ort
SDA:   1    -0.995772144433E+03    0.70482E-01    0.00000E+00  2880   0.159E+00 0.000E+00
CGA:   2    -0.995828167553E+03   -0.56023E-01   -0.56021E-01  2880   0.343E-01-0.261E-03
CGA:   3    -0.995837302701E+03   -0.91351E-02   -0.91365E-02  2880   0.506E-02-0.242E-05
CGA:   4    -0.995838588244E+03   -0.12855E-02   -0.12990E-02  2880   0.740E-03 0.138E-03
CGA:   5    -0.995838835097E+03   -0.24685E-03   -0.24700E-03  2880   0.172E-03 0.594E-05
CGA:   6    -0.995838910390E+03   -0.75292E-04   -0.78168E-04  2880   0.789E-04-0.282E-04
CGA:   7    -0.995838925794E+03   -0.15404E-04   -0.17047E-04  2880   0.199E-04 0.173E-04
CGA:   8    -0.995838930057E+03   -0.42635E-05   -0.52666E-05  2880   0.603E-05 0.759E-05
  36 F= -.99583893E+03 E0= -.99583893E+03  d E =0.369999E-02  mag=     0.0000
       N       E                     dE             d eps       ncg     rms          ort
SDA:   1    -0.995833653944E+03    0.52718E-02    0.00000E+00  2880   0.136E-01 0.000E+00
CGA:   2    -0.995838631447E+03   -0.49775E-02   -0.49770E-02  2880   0.302E-02 0.232E-04
CGA:   3    -0.995839402363E+03   -0.77092E-03   -0.76868E-03  2880   0.452E-03-0.253E-04
CGA:   4    -0.995839526433E+03   -0.12407E-03   -0.12431E-03  2880   0.729E-04 0.390E-05
CGA:   5    -0.995839549424E+03   -0.22991E-04   -0.23067E-04  2880   0.164E-04 0.338E-05
CGA:   6    -0.995839556869E+03   -0.74455E-05   -0.76999E-05  2880   0.743E-05-0.224E-05
  37 F= -.99583956E+03 E0= -.99583956E+03  d E =-.626812E-03  mag=    -0.0000
       N       E                     dE             d eps       ncg     rms          ort
SDA:   1    -0.995807064305E+03    0.32485E-01    0.00000E+00  2880   0.889E-01 0.000E+00
CGA:   2    -0.995838285571E+03   -0.31221E-01   -0.31221E-01  2880   0.192E-01 0.257E-04
CGA:   3    -0.995843262200E+03   -0.49766E-02   -0.49756E-02  2880   0.274E-02-0.105E-04
CGA:   4    -0.995843972469E+03   -0.71027E-03   -0.70787E-03  2880   0.425E-03-0.310E-04
CGA:   5    -0.995844102285E+03   -0.12982E-03   -0.12982E-03  2880   0.785E-04 0.147E-06
CGA:   6    -0.995844130767E+03   -0.28482E-04   -0.28335E-04  2880   0.230E-04 0.499E-05
CGA:   7    -0.995844142415E+03   -0.11647E-04   -0.13104E-04  2880   0.150E-04-0.717E-05
CGA:   8    -0.995844144816E+03   -0.24017E-05   -0.25431E-05  2880   0.391E-05 0.146E-05
  38 F= -.99584414E+03 E0= -.99584414E+03  d E =-.458795E-02  mag=    -0.0000
       N       E                     dE             d eps       ncg     rms          ort
SDA:   1    -0.995842980898E+03    0.11615E-02    0.00000E+00  2880   0.149E-02 0.000E+00
CGA:   2    -0.995843515912E+03   -0.53501E-03   -0.53530E-03  2880   0.326E-03-0.101E-04
CGA:   3    -0.995843598914E+03   -0.83001E-04   -0.83105E-04  2880   0.481E-04 0.137E-05
CGA:   4    -0.995843609459E+03   -0.10545E-04   -0.11149E-04  2880   0.671E-05 0.621E-05
CGA:   5    -0.995843611695E+03   -0.22358E-05   -0.22556E-05  2880   0.156E-05 0.778E-06
  39 F= -.99584361E+03 E0= -.99584361E+03  d E =0.533122E-03  mag=     0.0000
       N       E                     dE             d eps       ncg     rms          ort
SDA:   1    -0.995842594817E+03    0.10146E-02    0.00000E+00  2880   0.436E-02 0.000E+00
CGA:   2    -0.995844166333E+03   -0.15715E-02   -0.15715E-02  2880   0.869E-03 0.597E-05
CGA:   3    -0.995844402688E+03   -0.23635E-03   -0.23561E-03  2880   0.118E-03-0.840E-05
CGA:   4    -0.995844430968E+03   -0.28280E-04   -0.28435E-04  2880   0.182E-04 0.138E-05
CGA:   5    -0.995844436383E+03   -0.54154E-05   -0.54408E-05  2880   0.321E-05 0.476E-06
  40 F= -.99584444E+03 E0= -.99584444E+03  d E =-.824688E-03  mag=    -0.0000
       N       E                     dE             d eps       ncg     rms          ort
SDA:   1    -0.995787567023E+03    0.56864E-01    0.00000E+00  2880   0.146E+00 0.000E+00
CGA:   2    -0.995839854314E+03   -0.52287E-01   -0.52287E-01  2880   0.304E-01-0.621E-05
CGA:   3    -0.995847777361E+03   -0.79230E-02   -0.79192E-02  2880   0.416E-02-0.427E-04
CGA:   4    -0.995848816971E+03   -0.10396E-02   -0.10400E-02  2880   0.635E-03 0.321E-05
CGA:   5    -0.995849010164E+03   -0.19319E-03   -0.19333E-03  2880   0.113E-03 0.364E-05
CGA:   6    -0.995849055365E+03   -0.45201E-04   -0.45269E-04  2880   0.376E-04-0.122E-05
CGA:   7    -0.995849071109E+03   -0.15744E-04   -0.15925E-04  2880   0.127E-04-0.216E-05
CGA:   8    -0.995849074948E+03   -0.38392E-05   -0.38651E-05  2880   0.195E-05 0.107E-05
  41 F= -.99584907E+03 E0= -.99584907E+03  d E =-.463856E-02  mag=     0.0000
       N       E                     dE             d eps       ncg     rms          ort
SDA:   1    -0.995546248297E+03    0.30282E+00    0.00000E+00  2880   0.740E+00 0.000E+00
CGA:   2    -0.995812642330E+03   -0.26639E+00   -0.26640E+00  2880   0.153E+00-0.203E-03
CGA:   3    -0.995852043159E+03   -0.39401E-01   -0.39394E-01  2880   0.210E-01-0.857E-04
CGA:   4    -0.995857286210E+03   -0.52431E-02   -0.52484E-02  2880   0.318E-02 0.550E-04
CGA:   5    -0.995858256281E+03   -0.97007E-03   -0.97036E-03  2880   0.560E-03 0.848E-05
CGA:   6    -0.995858479445E+03   -0.22316E-03   -0.22390E-03  2880   0.190E-03-0.119E-04
CGA:   7    -0.995858552736E+03   -0.73291E-04   -0.73106E-04  2880   0.555E-04 0.346E-05
CGA:   8    -0.995858573741E+03   -0.21005E-04   -0.20977E-04  2880   0.102E-04 0.969E-06
CGA:   9    -0.995858577802E+03   -0.40619E-05   -0.40955E-05  2880   0.185E-05-0.666E-06
  42 F= -.99585858E+03 E0= -.99585858E+03  d E =-.950285E-02  mag=    -0.0000
       N       E                     dE             d eps       ncg     rms          ort
SDA:   1    -0.987274219604E+03    0.85844E+01    0.00000E+00  2880   0.205E+02 0.000E+00
CGA:   2    -0.994590959720E+03   -0.73167E+01   -0.73167E+01  2880   0.417E+01 0.548E-02
CGA:   3    -0.995679879267E+03   -0.10889E+01   -0.10900E+01  2880   0.571E+00 0.525E-02
CGA:   4    -0.995825510207E+03   -0.14563E+00   -0.14573E+00  2880   0.935E-01 0.898E-03
CGA:   5    -0.995854729654E+03   -0.29219E-01   -0.29226E-01  2880   0.188E-01 0.166E-03
CGA:   6    -0.995862439281E+03   -0.77096E-02   -0.77129E-02  2880   0.646E-02-0.526E-04
CGA:   7    -0.995865060615E+03   -0.26213E-02   -0.26233E-02  2880   0.192E-02-0.318E-04
CGA:   8    -0.995865754056E+03   -0.69344E-03   -0.69377E-03  2880   0.325E-03-0.176E-04
CGA:   9    -0.995865876208E+03   -0.12215E-03   -0.12259E-03  2880   0.542E-04-0.130E-04
CGA:  10    -0.995865896964E+03   -0.20756E-04   -0.21078E-04  2880   0.122E-04-0.567E-05
CGA:  11    -0.995865900787E+03   -0.38233E-05   -0.38264E-05  2880   0.243E-05 0.159E-05
  43 F= -.99586590E+03 E0= -.99586590E+03  d E =-.732298E-02  mag=     0.0000
       N       E                     dE             d eps       ncg     rms          ort
SDA:   1    -0.995366392269E+03    0.49950E+00    0.00000E+00  2880   0.122E+01 0.000E+00
CGA:   2    -0.995801246090E+03   -0.43485E+00   -0.43485E+00  2880   0.270E+00 0.632E-03
CGA:   3    -0.995870274953E+03   -0.69029E-01   -0.69010E-01  2880   0.404E-01-0.127E-04
CGA:   4    -0.995881146491E+03   -0.10872E-01   -0.10861E-01  2880   0.656E-02-0.132E-03
CGA:   5    -0.995883262906E+03   -0.21164E-02   -0.21164E-02  2880   0.147E-02 0.136E-05
CGA:   6    -0.995883824074E+03   -0.56117E-03   -0.56031E-03  2880   0.468E-03 0.235E-04
CGA:   7    -0.995884012689E+03   -0.18861E-03   -0.18948E-03  2880   0.143E-03-0.168E-04
CGA:   8    -0.995884063383E+03   -0.50693E-04   -0.50745E-04  2880   0.250E-04-0.285E-05
CGA:   9    -0.995884072731E+03   -0.93490E-05   -0.93811E-05  2880   0.496E-05-0.994E-06
  44 F= -.99588407E+03 E0= -.99588407E+03  d E =-.181719E-01  mag=    -0.0000
       N       E                     dE             d eps       ncg     rms          ort
SDA:   1    -0.995836158240E+03    0.47905E-01    0.00000E+00  2880   0.118E+00 0.000E+00
CGA:   2    -0.995878001041E+03   -0.41843E-01   -0.41844E-01  2880   0.254E-01-0.199E-03
CGA:   3    -0.995884564004E+03   -0.65630E-02   -0.65693E-02  2880   0.366E-02 0.610E-04
CGA:   4    -0.995885493969E+03   -0.92996E-03   -0.93674E-03  2880   0.557E-03 0.732E-04
CGA:   5    -0.995885679324E+03   -0.18535E-03   -0.18525E-03  2880   0.124E-03-0.607E-05
CGA:   6    -0.995885729553E+03   -0.50229E-04   -0.50962E-04  2880   0.460E-04-0.100E-04
CGA:   7    -0.995885741028E+03   -0.11475E-04   -0.12078E-04  2880   0.108E-04 0.992E-05
CGA:   8    -0.995885744677E+03   -0.36485E-05   -0.37971E-05  2880   0.286E-05 0.282E-05
  45 F= -.99588574E+03 E0= -.99588574E+03  d E =-.167195E-02  mag=    -0.0000
       N       E                     dE             d eps       ncg     rms          ort
SDA:   1    -0.995846947631E+03    0.38793E-01    0.00000E+00  2880   0.960E-01 0.000E+00
CGA:   2    -0.995881688970E+03   -0.34741E-01   -0.34742E-01  2880   0.198E-01-0.730E-04
CGA:   3    -0.995886762022E+03   -0.50731E-02   -0.50696E-02  2880   0.275E-02-0.374E-04
CGA:   4    -0.995887439304E+03   -0.67728E-03   -0.68167E-03  2880   0.408E-03 0.426E-04
CGA:   5    -0.995887565380E+03   -0.12608E-03   -0.12626E-03  2880   0.739E-04 0.449E-05
CGA:   6    -0.995887597683E+03   -0.32303E-04   -0.33422E-04  2880   0.325E-04-0.108E-04
CGA:   7    -0.995887605519E+03   -0.78360E-05   -0.81430E-05  2880   0.798E-05 0.553E-05
  46 F= -.99588761E+03 E0= -.99588761E+03  d E =-.186084E-02  mag=     0.0000
       N       E                     dE             d eps       ncg     rms          ort
SDA:   1    -0.992266231100E+03    0.36214E+01    0.00000E+00  2880   0.855E+01 0.000E+00
CGA:   2    -0.995371781434E+03   -0.31056E+01   -0.31056E+01  2880   0.174E+01-0.727E-03
CGA:   3    -0.995818296935E+03   -0.44652E+00   -0.44664E+00  2880   0.239E+00 0.315E-03
CGA:   4    -0.995878772285E+03   -0.60475E-01   -0.60507E-01  2880   0.371E-01 0.323E-03
CGA:   5    -0.995890117708E+03   -0.11345E-01   -0.11347E-01  2880   0.680E-02 0.606E-04
CGA:   6    -0.995892836920E+03   -0.27192E-02   -0.27228E-02  2880   0.229E-02-0.546E-04
CGA:   7    -0.995893764944E+03   -0.92802E-03   -0.92800E-03  2880   0.696E-03 0.331E-06
CGA:   8    -0.995894025126E+03   -0.26018E-03   -0.26044E-03  2880   0.125E-03-0.741E-05
CGA:   9    -0.995894072509E+03   -0.47383E-04   -0.47699E-04  2880   0.208E-04-0.721E-05
CGA:  10    -0.995894080193E+03   -0.76842E-05   -0.78047E-05  2880   0.437E-05-0.219E-05
  47 F= -.99589408E+03 E0= -.99589408E+03  d E =-.647467E-02  mag=    -0.0000
       N       E                     dE             d eps       ncg     rms          ort
SDA:   1    -0.986331912441E+03    0.95622E+01    0.00000E+00  2880   0.225E+02 0.000E+00
CGA:   2    -0.994475451717E+03   -0.81435E+01   -0.81431E+01  2880   0.460E+01 0.185E-01
CGA:   3    -0.995655063931E+03   -0.11796E+01   -0.11800E+01  2880   0.642E+00 0.287E-02
CGA:   4    -0.995819676186E+03   -0.16461E+00   -0.16467E+00  2880   0.102E+00 0.460E-03
CGA:   5    -0.995851419401E+03   -0.31743E-01   -0.31748E-01  2880   0.202E-01 0.152E-03
CGA:   6    -0.995859576839E+03   -0.81574E-02   -0.81552E-02  2880   0.695E-02 0.284E-04
CGA:   7    -0.995862449212E+03   -0.28724E-02   -0.28797E-02  2880   0.216E-02-0.101E-03
CGA:   8    -0.995863219157E+03   -0.76994E-03   -0.77010E-03  2880   0.363E-03-0.849E-05
CGA:   9    -0.995863356854E+03   -0.13770E-03   -0.13835E-03  2880   0.627E-04-0.173E-04
CGA:  10    -0.995863380060E+03   -0.23207E-04   -0.23461E-04  2880   0.132E-04-0.555E-05
CGA:  11    -0.995863384480E+03   -0.44200E-05   -0.43959E-05  2880   0.265E-05 0.139E-05
  48 F= -.99586338E+03 E0= -.99586338E+03  d E =0.306957E-01  mag=    -0.0000
       N       E                     dE             d eps       ncg     rms          ort
SDA:   1    -0.984072147000E+03    0.11791E+02    0.00000E+00  2880   0.280E+02 0.000E+00
CGA:   2    -0.994165301290E+03   -0.10093E+02   -0.10093E+02  2880   0.578E+01 0.253E-01
CGA:   3    -0.995630051187E+03   -0.14647E+01   -0.14660E+01  2880   0.832E+00 0.168E-02
CGA:   4    -0.995842310480E+03   -0.21226E+00   -0.21232E+00  2880   0.130E+00 0.712E-03
CGA:   5    -0.995883166046E+03   -0.40856E-01   -0.40855E-01  2880   0.261E-01-0.333E-04
CGA:   6    -0.995893565307E+03   -0.10399E-01   -0.10399E-01  2880   0.883E-02-0.836E-05
CGA:   7    -0.995897095551E+03   -0.35302E-02   -0.35289E-02  2880   0.260E-02 0.226E-04
CGA:   8    -0.995898073228E+03   -0.97768E-03   -0.97926E-03  2880   0.478E-03-0.639E-04
CGA:   9    -0.995898244295E+03   -0.17107E-03   -0.17116E-03  2880   0.782E-04-0.572E-05
CGA:  10    -0.995898274085E+03   -0.29790E-04   -0.29929E-04  2880   0.162E-04-0.394E-05
CGA:  11    -0.995898281691E+03   -0.76060E-05   -0.87695E-05  2880   0.793E-05-0.540E-05
  49 F= -.99589828E+03 E0= -.99589828E+03  d E =-.348972E-01  mag=    -0.0000
       N       E                     dE             d eps       ncg     rms          ort
SDA:   1    -0.992833607041E+03    0.30647E+01    0.00000E+00  2880   0.716E+01 0.000E+00
CGA:   2    -0.995376765934E+03   -0.25432E+01   -0.25431E+01  2880   0.153E+01-0.345E-02
CGA:   3    -0.995767158596E+03   -0.39039E+00   -0.39065E+00  2880   0.220E+00 0.243E-03
CGA:   4    -0.995824169171E+03   -0.57011E-01   -0.57026E-01  2880   0.332E-01 0.247E-03
CGA:   5    -0.995834594612E+03   -0.10425E-01   -0.10423E-01  2880   0.639E-02-0.518E-04
CGA:   6    -0.995837072854E+03   -0.24782E-02   -0.24786E-02  2880   0.207E-02-0.845E-05
CGA:   7    -0.995837884505E+03   -0.81165E-03   -0.81062E-03  2880   0.619E-03 0.253E-04
CGA:   8    -0.995838126439E+03   -0.24193E-03   -0.24253E-03  2880   0.122E-03-0.172E-04
CGA:   9    -0.995838170073E+03   -0.43634E-04   -0.43648E-04  2880   0.203E-04-0.926E-06
CGA:  10    -0.995838177726E+03   -0.76522E-05   -0.76693E-05  2880   0.393E-05-0.665E-06
  50 F= -.99583818E+03 E0= -.99583818E+03  d E =0.601040E-01  mag=    -0.0000
       N       E                     dE             d eps       ncg     rms          ort
SDA:   1    -0.992997636113E+03    0.28405E+01    0.00000E+00  2880   0.692E+01 0.000E+00
CGA:   2    -0.995449049412E+03   -0.24514E+01   -0.24515E+01  2880   0.148E+01 0.506E-02
CGA:   3    -0.995830429725E+03   -0.38138E+00   -0.38122E+00  2880   0.212E+00-0.308E-03
CGA:   4    -0.995885023058E+03   -0.54593E-01   -0.54596E-01  2880   0.325E-01-0.435E-04
CGA:   5    -0.995895199859E+03   -0.10177E-01   -0.10179E-01  2880   0.634E-02 0.578E-04
CGA:   6    -0.995897705009E+03   -0.25051E-02   -0.25049E-02  2880   0.212E-02 0.450E-05
CGA:   7    -0.995898565036E+03   -0.86003E-03   -0.86245E-03  2880   0.680E-03-0.438E-04
CGA:   8    -0.995898807016E+03   -0.24198E-03   -0.24200E-03  2880   0.118E-03-0.205E-05
CGA:   9    -0.995898851953E+03   -0.44937E-04   -0.45059E-04  2880   0.215E-04-0.438E-05
CGA:  10    -0.995898860406E+03   -0.84531E-05   -0.86513E-05  2880   0.507E-05-0.325E-05
  51 F= -.99589886E+03 E0= -.99589886E+03  d E =-.606827E-01  mag=     0.0000
       N       E                     dE             d eps       ncg     rms          ort
SDA:   1    -0.995896863376E+03    0.19886E-02    0.00000E+00  2880   0.432E-02 0.000E+00
CGA:   2    -0.995898453605E+03   -0.15902E-02   -0.15901E-02  2880   0.876E-03 0.116E-04
CGA:   3    -0.995898673563E+03   -0.21996E-03   -0.22013E-03  2880   0.126E-03 0.158E-05
CGA:   4    -0.995898709889E+03   -0.36326E-04   -0.35562E-04  2880   0.233E-04-0.106E-04
CGA:   5    -0.995898716105E+03   -0.62158E-05   -0.62060E-05  2880   0.389E-05-0.167E-06
  52 F= -.99589872E+03 E0= -.99589872E+03  d E =0.144301E-03  mag=     0.0000
       N       E                     dE             d eps       ncg     rms          ort
SDA:   1    -0.995875609324E+03    0.23101E-01    0.00000E+00  2880   0.521E-01 0.000E+00
CGA:   2    -0.995895544080E+03   -0.19935E-01   -0.19935E-01  2880   0.994E-02 0.381E-05
CGA:   3    -0.995897947761E+03   -0.24037E-02   -0.24033E-02  2880   0.145E-02-0.467E-05
CGA:   4    -0.995898325622E+03   -0.37786E-03   -0.37687E-03  2880   0.215E-03-0.127E-04
CGA:   5    -0.995898389881E+03   -0.64260E-04   -0.64214E-04  2880   0.365E-04-0.137E-05
CGA:   6    -0.995898402398E+03   -0.12517E-04   -0.12479E-04  2880   0.104E-04 0.337E-05
CGA:   7    -0.995898408022E+03   -0.56244E-05   -0.67358E-05  2880   0.841E-05-0.426E-05
  53 F= -.99589841E+03 E0= -.99589841E+03  d E =0.308082E-03  mag=    -0.0000
       N       E                     dE             d eps       ncg     rms          ort
SDA:   1    -0.995797596026E+03    0.10081E+00    0.00000E+00  2880   0.229E+00 0.000E+00
CGA:   2    -0.995884420988E+03   -0.86825E-01   -0.86830E-01  2880   0.442E-01-0.117E-03
CGA:   3    -0.995895162281E+03   -0.10741E-01   -0.10744E-01  2880   0.638E-02 0.330E-04
CGA:   4    -0.995896790607E+03   -0.16283E-02   -0.16292E-02  2880   0.950E-03 0.106E-04
CGA:   5    -0.995897079041E+03   -0.28843E-03   -0.28818E-03  2880   0.163E-03-0.804E-05
CGA:   6    -0.995897140029E+03   -0.60988E-04   -0.60887E-04  2880   0.515E-04 0.225E-05
CGA:   7    -0.995897161302E+03   -0.21273E-04   -0.21272E-04  2880   0.165E-04 0.179E-07
CGA:   8    -0.995897168033E+03   -0.67312E-05   -0.68271E-05  2880   0.355E-05-0.127E-05
  54 F= -.99589717E+03 E0= -.99589717E+03  d E =0.123999E-02  mag=     0.0000
       N       E                     dE             d eps       ncg     rms          ort
SDA:   1    -0.994841707276E+03    0.10555E+01    0.00000E+00  2880   0.239E+01 0.000E+00
CGA:   2    -0.995760370747E+03   -0.91866E+00   -0.91870E+00  2880   0.459E+00-0.813E-03
CGA:   3    -0.995870448986E+03   -0.11008E+00   -0.11008E+00  2880   0.665E-01 0.484E-05
CGA:   4    -0.995887567239E+03   -0.17118E-01   -0.17127E-01  2880   0.982E-02 0.107E-03
CGA:   5    -0.995890527822E+03   -0.29606E-02   -0.29598E-02  2880   0.167E-02-0.234E-04
CGA:   6    -0.995891162222E+03   -0.63440E-03   -0.63464E-03  2880   0.558E-03-0.503E-05
CGA:   7    -0.995891383815E+03   -0.22159E-03   -0.22126E-03  2880   0.170E-03 0.538E-05
CGA:   8    -0.995891453914E+03   -0.70100E-04   -0.70793E-04  2880   0.362E-04-0.945E-05
CGA:   9    -0.995891465323E+03   -0.11409E-04   -0.11419E-04  2880   0.504E-05 0.130E-05
CGA:  10    -0.995891467508E+03   -0.21843E-05   -0.22979E-05  2880   0.147E-05-0.115E-05
  55 F= -.99589147E+03 E0= -.99589147E+03  d E =0.570053E-02  mag=     0.0000
       N       E                     dE             d eps       ncg     rms          ort
SDA:   1    -0.995787132155E+03    0.10433E+00    0.00000E+00  2880   0.244E+00 0.000E+00
CGA:   2    -0.995878950054E+03   -0.91818E-01   -0.91822E-01  2880   0.502E-01-0.128E-03
CGA:   3    -0.995891114223E+03   -0.12164E-01   -0.12162E-01  2880   0.735E-02-0.177E-04
CGA:   4    -0.995893061689E+03   -0.19475E-02   -0.19505E-02  2880   0.108E-02 0.382E-04
CGA:   5    -0.995893400379E+03   -0.33869E-03   -0.33881E-03  2880   0.213E-03 0.393E-05
CGA:   6    -0.995893485291E+03   -0.84912E-04   -0.85648E-04  2880   0.781E-04-0.120E-04
CGA:   7    -0.995893510612E+03   -0.25321E-04   -0.25318E-04  2880   0.193E-04 0.679E-05
CGA:   8    -0.995893518519E+03   -0.79071E-05   -0.78638E-05  2880   0.400E-05 0.139E-05
  56 F= -.99589352E+03 E0= -.99589352E+03  d E =-.205101E-02  mag=    -0.0000
       N       E                     dE             d eps       ncg     rms          ort
SDA:   1    -0.995612131231E+03    0.28138E+00    0.00000E+00  2880   0.655E+00 0.000E+00
CGA:   2    -0.995860243265E+03   -0.24811E+00   -0.24811E+00  2880   0.129E+00-0.106E-04
CGA:   3    -0.995891631020E+03   -0.31388E-01   -0.31381E-01  2880   0.186E-01-0.603E-04
CGA:   4    -0.995896446179E+03   -0.48152E-02   -0.48101E-02  2880   0.281E-02-0.543E-04
CGA:   5    -0.995897290747E+03   -0.84457E-03   -0.84500E-03  2880   0.489E-03 0.913E-05
CGA:   6    -0.995897476275E+03   -0.18553E-03   -0.18529E-03  2880   0.160E-03 0.769E-05
CGA:   7    -0.995897545867E+03   -0.69592E-04   -0.70601E-04  2880   0.589E-04-0.118E-04
CGA:   8    -0.995897564570E+03   -0.18703E-04   -0.18726E-04  2880   0.965E-05 0.244E-05
CGA:   9    -0.995897568408E+03   -0.38383E-05   -0.38536E-05  2880   0.195E-05-0.497E-06
  57 F= -.99589757E+03 E0= -.99589757E+03  d E =-.404989E-02  mag=     0.0000
       N       E                     dE             d eps       ncg     rms          ort
SDA:   1    -0.995894677351E+03    0.28872E-02    0.00000E+00  2880   0.809E-02 0.000E+00
CGA:   2    -0.995897581789E+03   -0.29044E-02   -0.29048E-02  2880   0.177E-02 0.477E-04
CGA:   3    -0.995898040042E+03   -0.45825E-03   -0.45665E-03  2880   0.278E-03-0.146E-04
CGA:   4    -0.995898125353E+03   -0.85311E-04   -0.83808E-04  2880   0.540E-04-0.263E-04
CGA:   5    -0.995898138195E+03   -0.12842E-04   -0.13246E-04  2880   0.995E-05 0.462E-05
CGA:   6    -0.995898140832E+03   -0.26374E-05   -0.29091E-05  2880   0.298E-05 0.321E-05
  58 F= -.99589814E+03 E0= -.99589814E+03  d E =-.572424E-03  mag=    -0.0000
       N       E                     dE             d eps       ncg     rms          ort
SDA:   1    -0.995896594136E+03    0.15441E-02    0.00000E+00  2880   0.336E-02 0.000E+00
CGA:   2    -0.995897809839E+03   -0.12157E-02   -0.12156E-02  2880   0.756E-03-0.251E-04
CGA:   3    -0.995897992555E+03   -0.18272E-03   -0.18372E-03  2880   0.115E-03 0.832E-05
CGA:   4    -0.995898019381E+03   -0.26826E-04   -0.28239E-04  2880   0.155E-04 0.120E-04
CGA:   5    -0.995898025141E+03   -0.57597E-05   -0.57607E-05  2880   0.429E-05 0.613E-07
  59 F= -.99589803E+03 E0= -.99589803E+03  d E =0.115691E-03  mag=     0.0000
