       N       E                     dE             d eps       ncg     rms          ort
DAV:   1     0.423700940947E+04    0.42370E+04   -0.16747E+05  1696   0.169E+03
DAV:   2     0.757522232555E+02   -0.41613E+04   -0.40562E+04  1696   0.488E+02
DAV:   3    -0.714187067224E+03   -0.78994E+03   -0.75452E+03  1696   0.178E+02
DAV:   4    -0.777626722476E+03   -0.63440E+02   -0.62927E+02  1696   0.523E+01
DAV:   5    -0.779117156208E+03   -0.14904E+01   -0.14858E+01  1696   0.950E+00
SDA:   6    -0.486075866020E+03    0.29304E+03   -0.14858E+01  1696   0.887E+03 0.000E+00
CGA:   7    -0.608362008453E+03   -0.12229E+03   -0.11720E+03  1696   0.105E+03 0.857E+00
CGA:   8    -0.628627525832E+03   -0.20266E+02   -0.20255E+02  1696   0.463E+02-0.161E+01
CGA:   9    -0.637728429160E+03   -0.91009E+01   -0.91002E+01  1696   0.172E+02 0.185E+00
CGA:  10    -0.641209087206E+03   -0.34807E+01   -0.34805E+01  1696   0.504E+01 0.568E-01
CGA:  11    -0.642150171386E+03   -0.94108E+00   -0.94088E+00  1696   0.153E+01-0.176E-01
CGA:  12    -0.642487301190E+03   -0.33713E+00   -0.33745E+00  1696   0.636E+00-0.132E-01
CGA:  13    -0.642645888057E+03   -0.15859E+00   -0.16038E+00  1696   0.252E+00-0.311E-01
CGA:  14    -0.642712621963E+03   -0.66734E-01   -0.67720E-01  1696   0.115E+00-0.119E-01
CGA:  15    -0.642740443024E+03   -0.27821E-01   -0.27561E-01  1696   0.577E-01 0.549E-02
CGA:  16    -0.642756823669E+03   -0.16381E-01   -0.16442E-01  1696   0.209E-01-0.910E-03
CGA:  17    -0.642763359377E+03   -0.65357E-02   -0.67640E-02  1696   0.104E-01-0.193E-02
CGA:  18    -0.642765697796E+03   -0.23384E-02   -0.23637E-02  1696   0.660E-02-0.754E-03
CGA:  19    -0.642767271303E+03   -0.15735E-02   -0.16904E-02  1696   0.468E-02-0.199E-02
CGA:  20    -0.642768057441E+03   -0.78614E-03   -0.80002E-03  1696   0.253E-02-0.574E-03
CGA:  21    -0.642768469726E+03   -0.41228E-03   -0.42650E-03  1696   0.971E-03 0.483E-03
CGA:  22    -0.642768688271E+03   -0.21855E-03   -0.22584E-03  1696   0.480E-03 0.291E-03
CGA:  23    -0.642768786191E+03   -0.97920E-04   -0.10560E-03  1696   0.186E-03 0.154E-03
CGA:  24    -0.642768818254E+03   -0.32062E-04   -0.39058E-04  1696   0.108E-03 0.122E-03
CGA:  25    -0.642768847015E+03   -0.28761E-04   -0.27266E-04  1696   0.711E-04 0.392E-04
CGA:  26    -0.642768870731E+03   -0.23717E-04   -0.23299E-04  1696   0.427E-04 0.170E-04
CGA:  27    -0.642768873680E+03   -0.29487E-05   -0.63243E-05  1696   0.208E-04 0.347E-04
   1 F= -.64276887E+03 E0= -.64276784E+03  d E =-.642769E+03  mag=     0.0000
