       N       E                     dE             d eps       ncg     rms          ort
DAV:   1     0.826067095200E+04    0.82607E+04   -0.24652E+05  8424   0.238E+03
DAV:   2     0.915794777696E+03   -0.73449E+04   -0.68944E+04  8424   0.656E+02
DAV:   3    -0.676038743178E+03   -0.15918E+04   -0.13968E+04  8424   0.282E+02
DAV:   4    -0.832457600607E+03   -0.15642E+03   -0.15363E+03  8424   0.858E+01
DAV:   5    -0.834997411166E+03   -0.25398E+01   -0.25276E+01  8424   0.122E+01
SDA:   6    -0.219067833413E+03    0.61593E+03   -0.25276E+01  8424   0.474E+04 0.000E+00
CGA:   7    -0.349633085587E+03   -0.13057E+03   -0.38960E+03  8424   0.216E+05-0.331E+04
CGA:   8     0.433279090102E+03    0.78291E+03   -0.12956E+04  8424   0.812E+05-0.352E+05
CGA:   9     0.490204567503E+04    0.44688E+04   -0.61463E+04  8424   0.244E+05-0.986E+04
CGA:  10     0.461909685478E+04   -0.28295E+03   -0.91763E+03  8424   0.451E+05-0.313E+05
CGA:  11     0.504475125307E+04    0.42565E+03   -0.23852E+04  8424   0.213E+05-0.163E+05
CGA:  12     0.399867827324E+03   -0.46449E+04   -0.49755E+03  8424   0.192E+05-0.557E+05
CGA:  13     0.372891388000E+03   -0.26976E+02   -0.79532E+03  8424   0.782E+05-0.680E+05
CGA:  14     0.295979503338E+04    0.25869E+04   -0.49899E+04  8424   0.894E+05-0.402E+05
CGA:  15     0.497322513054E+04    0.20134E+04   -0.50811E+04  8424   0.220E+05-0.166E+05
CGA:  16     0.398726669127E+03   -0.45745E+04   -0.62311E+03  8424   0.507E+05-0.993E+05
CGA:  17     0.140925755446E+04    0.10105E+04   -0.25947E+04  8424   0.102E+06-0.656E+05
CGA:  18     0.383885541795E+04    0.24296E+04   -0.58973E+04  8424   0.180E+06-0.974E+05
CGA:  19     0.482839440128E+04    0.98954E+03   -0.10290E+05  8424   0.187E+05-0.141E+05
CGA:  20    -0.376748767670E+03   -0.52051E+04   -0.54570E+03  8424   0.120E+05-0.526E+05
CGA:  21    -0.548538530546E+03   -0.17179E+03   -0.42566E+03  8424   0.538E+04-0.764E+04
CGA:  22    -0.619938496299E+03   -0.71400E+02   -0.19575E+03  8424   0.916E+03-0.166E+04
CGA:  23    -0.636834490226E+03   -0.16896E+02   -0.31960E+02  8424   0.994E+02 0.305E+02
CGA:  24    -0.645939653470E+03   -0.91052E+01   -0.95247E+01  8424   0.802E+02 0.850E+01
CGA:  25    -0.653250685790E+03   -0.73110E+01   -0.79696E+01  8424   0.102E+03 0.782E+01
CGA:  26    -0.656364128601E+03   -0.31134E+01   -0.47986E+01  8424   0.119E+03-0.471E+02
CGA:  27    -0.658064816491E+03   -0.17007E+01   -0.27581E+01  8424   0.150E+03-0.307E+02
CGA:  28    -0.660293137113E+03   -0.22283E+01   -0.51632E+01  8424   0.396E+02-0.141E+02
CGA:  29    -0.662133504220E+03   -0.18404E+01   -0.13673E+01  8424   0.182E+02 0.137E+02
CGA:  30    -0.662809667388E+03   -0.67616E+00   -0.59157E+00  8424   0.263E+02-0.551E+01
CGA:  31    -0.661942315160E+03    0.86735E+00   -0.62038E+00  8424   0.164E+03-0.109E+02
CGA:  32    -0.663130550185E+03   -0.11882E+01   -0.48253E+00  8424   0.751E+02 0.476E+02
CGA:  33    -0.662607999303E+03    0.52255E+00   -0.15800E+01  8424   0.368E+02-0.727E+02
CGA:  34    -0.664767976179E+03   -0.21600E+01   -0.19832E+01  8424   0.228E+02-0.237E+01
CGA:  35    -0.665904763053E+03   -0.11368E+01   -0.11568E+01  8424   0.135E+02-0.265E+00
CGA:  36    -0.666510318358E+03   -0.60556E+00   -0.63760E+00  8424   0.382E+01 0.217E-01
CGA:  37    -0.666897720684E+03   -0.38740E+00   -0.37877E+00  8424   0.317E+01 0.292E+00
CGA:  38    -0.667157392962E+03   -0.25967E+00   -0.26121E+00  8424   0.169E+01 0.250E+00
CGA:  39    -0.667311877043E+03   -0.15448E+00   -0.15370E+00  8424   0.291E+00 0.102E+00
CGA:  40    -0.667348275805E+03   -0.36399E-01   -0.34823E-01  8424   0.261E+00 0.369E-01
CGA:  41    -0.667389542333E+03   -0.41267E-01   -0.39756E-01  8424   0.236E+00 0.239E-01
CGA:  42    -0.667419841137E+03   -0.30299E-01   -0.29888E-01  8424   0.105E+00 0.916E-02
CGA:  43    -0.667434488091E+03   -0.14647E-01   -0.14337E-01  8424   0.644E-01 0.609E-02
CGA:  44    -0.667443746163E+03   -0.92581E-02   -0.89597E-02  8424   0.407E-01 0.578E-02
CGA:  45    -0.667453164789E+03   -0.94186E-02   -0.10438E-01  8424   0.551E-01-0.641E-02
CGA:  46    -0.667460329234E+03   -0.71644E-02   -0.82985E-02  8424   0.456E-01-0.140E-01
CGA:  47    -0.667465126184E+03   -0.47969E-02   -0.55818E-02  8424   0.332E-01-0.123E-01
CGA:  48    -0.667466682561E+03   -0.15564E-02   -0.11410E-01  8424   0.896E-01-0.265E-01
CGA:  49    -0.667478779885E+03   -0.12097E-01   -0.12151E-01  8424   0.381E-01-0.452E-02
CGA:  50    -0.667485507708E+03   -0.67278E-02   -0.71071E-02  8424   0.452E-01-0.531E-02
CGA:  51    -0.667494755950E+03   -0.92482E-02   -0.10325E-01  8424   0.315E-01-0.739E-02
CGA:  52    -0.667499854700E+03   -0.50987E-02   -0.54357E-02  8424   0.240E-01-0.464E-02
CGA:  53    -0.667503736483E+03   -0.38818E-02   -0.51378E-02  8424   0.275E-01-0.112E-01
CGA:  54    -0.667505569251E+03   -0.18328E-02   -0.46275E-02  8424   0.682E-01-0.166E-01
CGA:  55    -0.667511376483E+03   -0.58072E-02   -0.57827E-02  8424   0.147E-01-0.129E-02
CGA:  56    -0.667514596745E+03   -0.32203E-02   -0.35243E-02  8424   0.124E-01-0.322E-02
CGA:  57    -0.667515527766E+03   -0.93102E-03   -0.43269E-02  8424   0.523E-01-0.118E-01
CGA:  58    -0.667520402637E+03   -0.48749E-02   -0.49064E-02  8424   0.124E-01 0.265E-03
CGA:  59    -0.667522766889E+03   -0.23643E-02   -0.24234E-02  8424   0.781E-02-0.205E-02
CGA:  60    -0.667524084594E+03   -0.13177E-02   -0.18033E-02  8424   0.137E-01-0.445E-02
CGA:  61    -0.667526110377E+03   -0.20258E-02   -0.19551E-02  8424   0.863E-02-0.251E-02
CGA:  62    -0.667527167549E+03   -0.10572E-02   -0.26016E-02  8424   0.302E-01-0.781E-02
CGA:  63    -0.667529879039E+03   -0.27115E-02   -0.26058E-02  8424   0.712E-02-0.104E-02
CGA:  64    -0.667531644154E+03   -0.17651E-02   -0.20763E-02  8424   0.834E-02-0.248E-02
CGA:  65    -0.667533711883E+03   -0.20677E-02    0.10023E-01  8424   0.716E-02 0.597E-03
CGA:  66    -0.667537495963E+03   -0.37841E-02    0.19407E-02  8424   0.608E-02 0.587E-02
CGA:  67    -0.667538863164E+03   -0.13672E-02   -0.15949E-02  8424   0.118E-01-0.283E-02
CGA:  68    -0.667541274309E+03   -0.24111E-02    0.19292E-01  8424   0.143E-01-0.115E-02
CGA:  69    -0.667519891996E+03    0.21382E-01   -0.10261E-01  8424   0.467E+00-0.533E-01
CGA:  70    -0.667561067319E+03   -0.41175E-01   -0.41666E-01  8424   0.324E-01 0.443E-02
CGA:  71    -0.667565033946E+03   -0.39666E-02   -0.37868E-02  8424   0.148E-01-0.173E-02
CGA:  72    -0.667568026587E+03   -0.29926E-02   -0.30269E-02  8424   0.535E-02-0.301E-02
CGA:  73    -0.667570282899E+03   -0.22563E-02    0.15092E-02  8424   0.587E-02 0.142E-02
CGA:  74    -0.667574444679E+03   -0.41618E-02    0.21123E-02  8424   0.339E-02 0.484E-02
CGA:  75    -0.667575983555E+03   -0.15389E-02    0.32849E-02  8424   0.476E-02 0.810E-03
CGA:  76    -0.667579408642E+03   -0.34251E-02    0.14648E-02  8424   0.439E-02 0.381E-02
CGA:  77    -0.667573749792E+03    0.56588E-02   -0.35864E-02  8424   0.164E+00-0.152E-01
CGA:  78    -0.667585516642E+03   -0.11767E-01   -0.11564E-01  8424   0.120E-01 0.704E-02
CGA:  79    -0.667587300984E+03   -0.17843E-02   -0.15419E-02  8424   0.579E-02-0.240E-02
CGA:  80    -0.667590135222E+03   -0.28342E-02    0.13755E-02  8424   0.478E-02 0.303E-02
CGA:  81    -0.667582036934E+03    0.80983E-02   -0.49998E-02  8424   0.172E+00-0.160E-01
CGA:  82    -0.667600480413E+03   -0.18443E-01   -0.18529E-01  8424   0.583E-02-0.394E-02
CGA:  83    -0.667574344765E+03    0.26136E-01   -0.14163E-01  8424   0.432E+00-0.253E-01
CGA:  84    -0.667617503719E+03   -0.43159E-01   -0.43875E-01  8424   0.347E-01-0.926E-02
CGA:  85    -0.667622675598E+03   -0.51719E-02   -0.46011E-02  8424   0.218E-01-0.286E-02
CGA:  86    -0.667626240171E+03   -0.35646E-02   -0.30442E-02  8424   0.166E-01-0.170E-02
CGA:  87    -0.667640085806E+03   -0.13846E-01    0.39193E-01  8424   0.431E-01 0.508E-02
CGA:  88    -0.667704901948E+03   -0.64816E-01    0.31498E-01  8424   0.534E-01 0.543E-01
CGA:  89    -0.667716880419E+03   -0.11978E-01   -0.11425E-01  8424   0.645E-01-0.706E-02
CGA:  90    -0.667741189725E+03   -0.24309E-01   -0.25711E-01  8424   0.231E+00-0.240E-01
CGA:  91    -0.667778022323E+03   -0.36833E-01   -0.20832E-01  8424   0.386E+00 0.178E-01
CGA:  92    -0.667859534302E+03   -0.81512E-01   -0.54054E-01  8424   0.344E+00 0.389E-01
CGA:  93    -0.667922690018E+03   -0.63156E-01   -0.55363E-01  8424   0.245E+00-0.530E-01
CGA:  94    -0.667952473194E+03   -0.29783E-01   -0.25742E-01  8424   0.110E+00-0.364E-01
CGA:  95    -0.667967162420E+03   -0.14689E-01   -0.12259E-01  8424   0.751E-01-0.136E-01
CGA:  96    -0.667982250724E+03   -0.15088E-01   -0.13245E-01  8424   0.797E-01-0.144E-01
CGA:  97    -0.667996833412E+03   -0.14583E-01   -0.12517E-01  8424   0.799E-01-0.153E-01
CGA:  98    -0.668012144935E+03   -0.15312E-01   -0.13609E-01  8424   0.747E-01-0.156E-01
CGA:  99    -0.668025554518E+03   -0.13410E-01   -0.11944E-01  8424   0.626E-01-0.133E-01
CGA: 100    -0.668037874278E+03   -0.12320E-01   -0.11139E-01  8424   0.581E-01-0.125E-01
CGA: 101    -0.668050136209E+03   -0.12262E-01   -0.11319E-01  8424   0.508E-01-0.138E-01
CGA: 102    -0.668058528347E+03   -0.83921E-02   -0.71561E-02  8424   0.384E-01-0.102E-01
CGA: 103    -0.668067911889E+03   -0.93835E-02   -0.93740E-02  8424   0.479E-01-0.155E-01
CGA: 104    -0.668075237442E+03   -0.73256E-02   -0.57882E-02  8424   0.422E-01-0.156E-01
CGA: 105    -0.668083402500E+03   -0.81651E-02   -0.72976E-02  8424   0.469E-01-0.204E-01
CGA: 106    -0.668088913187E+03   -0.55107E-02   -0.95829E-02  8424   0.106E+00-0.435E-01
CGA: 107    -0.668110536310E+03   -0.21623E-01   -0.21282E-01  8424   0.521E-01-0.311E-02
CGA: 108    -0.668121823392E+03   -0.11287E-01   -0.11168E-01  8424   0.261E-01-0.133E-02
CGA: 109    -0.668131232004E+03   -0.94086E-02   -0.10054E-01  8424   0.240E-01-0.637E-02
CGA: 110    -0.668137946797E+03   -0.67148E-02   -0.92432E-02  8424   0.315E-01-0.121E-01
CGA: 111    -0.668143714324E+03   -0.57675E-02   -0.57331E-02  8424   0.105E-01-0.308E-03
CGA: 112    -0.668147456245E+03   -0.37419E-02   -0.39626E-02  8424   0.129E-01-0.286E-02
CGA: 113    -0.668150270623E+03   -0.28144E-02   -0.26998E-02  8424   0.144E-01-0.606E-02
CGA: 114    -0.668144654794E+03    0.56158E-02   -0.66490E-02  8424   0.849E-01-0.221E-01
CGA: 115    -0.668159758453E+03   -0.15104E-01   -0.14824E-01  8424   0.277E-01-0.228E-02
CGA: 116    -0.668165723226E+03   -0.59648E-02   -0.58821E-02  8424   0.132E-01-0.664E-03
CGA: 117    -0.668169767369E+03   -0.40441E-02   -0.40074E-02  8424   0.111E-01-0.361E-02
CGA: 118    -0.668172241188E+03   -0.24738E-02   -0.23336E-02  8424   0.658E-02-0.454E-02
CGA: 119    -0.668175260719E+03   -0.30195E-02    0.28621E-02  8424   0.436E-02 0.745E-03
CGA: 120    -0.668178581429E+03   -0.33207E-02    0.10780E-01  8424   0.411E-02 0.682E-03
CGA: 121    -0.668182829017E+03   -0.42476E-02    0.19085E-02  8424   0.322E-02 0.824E-03
CGA: 122    -0.668186962147E+03   -0.41331E-02    0.91317E-03  8424   0.302E-02 0.160E-02
CGA: 123    -0.668192003272E+03   -0.50411E-02    0.96934E-03  8424   0.287E-02 0.201E-02
CGA: 124    -0.668192628654E+03   -0.62538E-03   -0.16602E-02  8424   0.191E-01-0.399E-02
CGA: 125    -0.668194976776E+03   -0.23481E-02   -0.22378E-02  8424   0.201E-02-0.778E-03
CGA: 126    -0.668195616087E+03   -0.63931E-03   -0.72207E-03  8424   0.637E-02-0.157E-02
CGA: 127    -0.668196807947E+03   -0.11919E-02   -0.89524E-03  8424   0.230E-02-0.164E-02
CGA: 128    -0.668198153398E+03   -0.13455E-02    0.10896E-02  8424   0.233E-02-0.313E-06
CGA: 129    -0.668200706668E+03   -0.25533E-02    0.49691E-03  8424   0.131E-02 0.140E-02
CGA: 130    -0.668201729798E+03   -0.10231E-02    0.87697E-03  8424   0.210E-02-0.127E-03
CGA: 131    -0.668204406669E+03   -0.26769E-02    0.24025E-03  8424   0.224E-02 0.156E-02
CGA: 132    -0.668205100997E+03   -0.69433E-03   -0.10295E-02  8424   0.809E-02-0.234E-02
CGA: 133    -0.668206655011E+03   -0.15540E-02   -0.13202E-02  8424   0.194E-02-0.150E-02
CGA: 134    -0.668207919741E+03   -0.12647E-02    0.90824E-03  8424   0.175E-02 0.288E-03
CGA: 135    -0.668210266616E+03   -0.23469E-02    0.37103E-03  8424   0.236E-02 0.108E-02
CGA: 136    -0.668210872722E+03   -0.60611E-03   -0.49117E-03  8424   0.328E-02-0.108E-02
CGA: 137    -0.668213258635E+03   -0.23859E-02    0.23382E-03  8424   0.524E-02 0.986E-03
CGA: 138    -0.668218089716E+03   -0.48311E-02    0.72003E-02  8424   0.148E-01-0.139E-02
CGA: 139    -0.668232100015E+03   -0.14010E-01    0.15617E-02  8424   0.446E-01 0.276E-02
CGA: 140    -0.668282661460E+03   -0.50561E-01    0.14979E-01  8424   0.160E+00-0.146E-01
CGA: 141    -0.668323071661E+03   -0.40410E-01   -0.69829E-02  8424   0.259E+00-0.127E-01
CGA: 142    -0.668363174469E+03   -0.40103E-01   -0.78057E-02  8424   0.250E+00 0.399E-01
CGA: 143    -0.668426536239E+03   -0.63362E-01   -0.16381E-01  8424   0.165E+00-0.173E+00
CGA: 144    -0.668446903209E+03   -0.20367E-01   -0.20875E-01  8424   0.199E-01 0.295E-02
CGA: 145    -0.668451418249E+03   -0.45150E-02   -0.47382E-02  8424   0.129E-01 0.704E-02
CGA: 146    -0.668455529481E+03   -0.41112E-02   -0.42718E-02  8424   0.795E-02 0.866E-02
CGA: 147    -0.668457010776E+03   -0.14813E-02   -0.16850E-02  8424   0.570E-02 0.401E-02
CGA: 148    -0.668457982731E+03   -0.97195E-03   -0.11760E-02  8424   0.509E-02 0.378E-02
CGA: 149    -0.668458903625E+03   -0.92089E-03   -0.10806E-02  8424   0.476E-02 0.354E-02
CGA: 150    -0.668459580074E+03   -0.67645E-03   -0.90020E-03  8424   0.435E-02 0.338E-02
CGA: 151    -0.668460397268E+03   -0.81719E-03   -0.93532E-03  8424   0.424E-02 0.322E-02
CGA: 152    -0.668460947868E+03   -0.55060E-03   -0.76525E-03  8424   0.388E-02 0.309E-02
CGA: 153    -0.668461707416E+03   -0.75955E-03   -0.84475E-03  8424   0.384E-02 0.298E-02
CGA: 154    -0.668462201121E+03   -0.49371E-03   -0.68513E-03  8424   0.353E-02 0.287E-02
CGA: 155    -0.668462925406E+03   -0.72428E-03   -0.78140E-03  8424   0.353E-02 0.278E-02
CGA: 156    -0.668463389805E+03   -0.46440E-03   -0.63101E-03  8424   0.327E-02 0.267E-02
CGA: 157    -0.668464094488E+03   -0.70468E-03   -0.73689E-03  8424   0.331E-02 0.258E-02
CGA: 158    -0.668464539585E+03   -0.44510E-03   -0.59099E-03  8424   0.307E-02 0.248E-02
CGA: 159    -0.668465235782E+03   -0.69620E-03   -0.70632E-03  8424   0.317E-02 0.239E-02
CGA: 160    -0.668465663829E+03   -0.42805E-03   -0.55920E-03  8424   0.292E-02 0.229E-02
CGA: 161    -0.668466358106E+03   -0.69428E-03   -0.68550E-03  8424   0.308E-02 0.219E-02
CGA: 162    -0.668466768436E+03   -0.41033E-03   -0.53251E-03  8424   0.279E-02 0.209E-02
CGA: 163    -0.668467464054E+03   -0.69562E-03   -0.67113E-03  8424   0.305E-02 0.198E-02
CGA: 164    -0.668467856661E+03   -0.39261E-03   -0.50984E-03  8424   0.268E-02 0.189E-02
CGA: 165    -0.668468556068E+03   -0.69941E-03   -0.66133E-03  8424   0.306E-02 0.179E-02
CGA: 166    -0.668468933669E+03   -0.37760E-03   -0.49141E-03  8424   0.257E-02 0.171E-02
CGA: 167    -0.668469640704E+03   -0.70703E-03   -0.65593E-03  8424   0.311E-02 0.161E-02
CGA: 168    -0.668470007844E+03   -0.36714E-03   -0.47763E-03  8424   0.247E-02 0.154E-02
CGA: 169    -0.668471109843E+03   -0.11020E-02   -0.96322E-03  8424   0.319E-02 0.349E-02
CGA: 170    -0.668471752038E+03   -0.64220E-03   -0.65408E-03  8424   0.352E-02 0.621E-03
CGA: 171    -0.668473578865E+03   -0.18268E-02   -0.13863E-02  8424   0.292E-02 0.405E-02
CGA: 172    -0.668473947762E+03   -0.36890E-03   -0.45049E-03  8424   0.225E-02 0.110E-02
CGA: 173    -0.668475573977E+03   -0.16262E-02   -0.11710E-02  8424   0.317E-02 0.291E-02
CGA: 174    -0.668476220825E+03   -0.64685E-03   -0.64581E-03  8424   0.370E-02-0.530E-04
CGA: 175    -0.668479618947E+03   -0.33981E-02   -0.21350E-02  8424   0.319E-02 0.342E-02
CGA: 176    -0.668480024132E+03   -0.40518E-03   -0.46434E-03  8424   0.200E-02 0.570E-03
CGA: 177    -0.668485980212E+03   -0.59561E-02   -0.74275E-02  8424   0.845E-02 0.162E-02
CGA: 178    -0.668487288281E+03   -0.13081E-02   -0.11762E-02  8424   0.247E-02-0.496E-03
CGA: 179    -0.668488611442E+03   -0.13232E-02   -0.14624E-02  8424   0.794E-02-0.736E-03
CGA: 180    -0.668493669333E+03   -0.50579E-02    0.35055E-01  8424   0.113E-01 0.228E-02
CGA: 181    -0.668491344307E+03    0.23250E-02   -0.23240E-01  8424   0.219E+00-0.251E-01
CGA: 182    -0.668525135692E+03   -0.33791E-01   -0.34064E-01  8424   0.271E-01 0.559E-03
CGA: 183    -0.668529839431E+03   -0.47037E-02   -0.44166E-02  8424   0.277E-02-0.968E-03
CGA: 184    -0.668531042178E+03   -0.12027E-02   -0.11911E-02  8424   0.381E-02-0.720E-03
CGA: 185    -0.668533799368E+03   -0.27572E-02    0.11043E-01  8424   0.471E-02-0.939E-04
CGA: 186    -0.668538416980E+03   -0.46176E-02    0.12283E-01  8424   0.413E-02 0.555E-03
CGA: 187    -0.668543969531E+03   -0.55526E-02    0.35452E-02  8424   0.328E-02 0.751E-03
CGA: 188    -0.668549745968E+03   -0.57764E-02    0.14591E-02  8424   0.289E-02 0.138E-02
CGA: 189    -0.668555842900E+03   -0.60969E-02    0.15675E-02  8424   0.374E-02 0.859E-03
CGA: 190    -0.668564279122E+03   -0.84362E-02    0.12722E-02  8424   0.419E-02 0.152E-02
CGA: 191    -0.668575304042E+03   -0.11025E-01    0.13347E-02  8424   0.389E-02 0.209E-02
CGA: 192    -0.668585582784E+03   -0.10279E-01    0.14863E-02  8424   0.351E-02 0.132E-02
CGA: 193    -0.668595327628E+03   -0.97448E-02    0.87199E-03  8424   0.295E-02 0.967E-03
CGA: 194    -0.668603923433E+03   -0.85958E-02    0.59005E-03  8424   0.167E-02 0.152E-02
CGA: 195    -0.668604187103E+03   -0.26367E-03   -0.40200E-03  8424   0.652E-03 0.620E-03
CGA: 196    -0.668604305214E+03   -0.11811E-03   -0.22364E-03  8424   0.426E-03 0.520E-03
CGA: 197    -0.668604327625E+03   -0.22411E-04   -0.93537E-04  8424   0.310E-03 0.318E-03
CGA: 198    -0.668604312261E+03    0.15365E-04   -0.57168E-04  8424   0.283E-03 0.293E-03
CGA: 199    -0.668604297381E+03    0.14880E-04   -0.50668E-04  8424   0.265E-03 0.273E-03
CGA: 200    -0.668604283104E+03    0.14277E-04   -0.45843E-04  8424   0.250E-03 0.257E-03
   1 F= -.66860428E+03 E0= -.66860428E+03  d E =-.668604E+03  mag=     2.0000
       N       E                     dE             d eps       ncg     rms          ort
SDA:   1    -0.668615235989E+03   -0.10939E-01    0.00000E+00  8424   0.811E-02 0.000E+00
CGA:   2    -0.668617108978E+03   -0.18730E-02   -0.19349E-02  8424   0.348E-02 0.427E-03
CGA:   3    -0.668617867807E+03   -0.75883E-03   -0.76070E-03  8424   0.128E-02 0.823E-05
CGA:   4    -0.668618057136E+03   -0.18933E-03   -0.22685E-03  8424   0.456E-03 0.195E-03
CGA:   5    -0.668618098735E+03   -0.41600E-04   -0.86959E-04  8424   0.254E-03 0.234E-03
CGA:   6    -0.668618129283E+03   -0.30548E-04   -0.52866E-04  8424   0.195E-03 0.158E-03
CGA:   7    -0.668618137799E+03   -0.85159E-05   -0.34765E-04  8424   0.174E-03 0.161E-03
CGA:   8    -0.668618168296E+03   -0.30497E-04   -0.43549E-04  8424   0.174E-03 0.156E-03
CGA:   9    -0.668618173927E+03   -0.56309E-05   -0.29844E-04  8424   0.165E-03 0.153E-03
CGA:  10    -0.668618212507E+03   -0.38580E-04   -0.45465E-04  8424   0.176E-03 0.148E-03
CGA:  11    -0.668618217715E+03   -0.52080E-05   -0.28042E-04  8424   0.164E-03 0.143E-03
CGA:  12    -0.668618269479E+03   -0.51763E-04   -0.51390E-04  8424   0.202E-03 0.132E-03
CGA:  13    -0.668618274428E+03   -0.49496E-05   -0.27480E-04  8424   0.161E-03 0.128E-03
CGA:  14    -0.668618338868E+03   -0.64439E-04   -0.57700E-04  8424   0.235E-03 0.118E-03
CGA:  15    -0.668618347344E+03   -0.84764E-05   -0.29418E-04  8424   0.157E-03 0.116E-03
CGA:  16    -0.668618391783E+03   -0.44438E-04   -0.56334E-04  8424   0.263E-03 0.209E-03
CGA:  17    -0.668618462800E+03   -0.71018E-04   -0.68590E-04  8424   0.540E-03-0.767E-04
CGA:  18    -0.668618699454E+03   -0.23665E-03   -0.17644E-03  8424   0.119E-02 0.333E-03
CGA:  19    -0.668618770105E+03   -0.70650E-04   -0.10660E-03  8424   0.133E-03 0.171E-03
CGA:  20    -0.668618811238E+03   -0.41133E-04   -0.42145E-04  8424   0.298E-03 0.811E-04
CGA:  21    -0.668618896736E+03   -0.85498E-04   -0.10191E-03  8424   0.127E-02-0.311E-03
CGA:  22    -0.668618976122E+03   -0.79386E-04   -0.11507E-03  8424   0.129E-03 0.178E-03
CGA:  23    -0.668619025707E+03   -0.49584E-04   -0.47104E-04  8424   0.354E-03 0.634E-04
CGA:  24    -0.668619380754E+03   -0.35505E-03    0.39883E-03  8424   0.235E-03 0.508E-03
CGA:  25    -0.668619517137E+03   -0.13638E-03    0.13176E-02  8424   0.558E-03-0.106E-03
CGA:  26    -0.668619811365E+03   -0.29423E-03    0.62875E-04  8424   0.129E-02 0.236E-03
CGA:  27    -0.668620506486E+03   -0.69512E-03   -0.82918E-03  8424   0.636E-02-0.945E-03
CGA:  28    -0.668621322374E+03   -0.81589E-03   -0.68669E-03  8424   0.217E-03-0.720E-03
CGA:  29    -0.668620045383E+03    0.12770E-02   -0.68788E-03  8424   0.202E-01-0.106E-02
CGA:  30    -0.668622242351E+03   -0.21970E-02   -0.20173E-02  8424   0.237E-03-0.627E-03
CGA:  31    -0.668621417056E+03    0.82529E-03   -0.41814E-03  8424   0.109E-01-0.945E-03
CGA:  32    -0.668622951364E+03   -0.15343E-02   -0.14080E-02  8424   0.169E-02-0.337E-03
CGA:  33    -0.668623334224E+03   -0.38286E-03   -0.36758E-03  8424   0.175E-03-0.490E-04
CGA:  34    -0.668623650457E+03   -0.31623E-03    0.57333E-04  8424   0.370E-03-0.259E-04
CGA:  35    -0.668624361559E+03   -0.71110E-03    0.71772E-04  8424   0.875E-03-0.661E-05
CGA:  36    -0.668626776880E+03   -0.24153E-02    0.13367E-03  8424   0.710E-03 0.434E-03
CGA:  37    -0.668629257597E+03   -0.24807E-02    0.22711E-03  8424   0.688E-03 0.342E-03
CGA:  38    -0.668631385170E+03   -0.21276E-02    0.26930E-03  8424   0.265E-02-0.443E-03
CGA:  39    -0.668631920842E+03   -0.53567E-03   -0.39150E-03  8424   0.443E-03-0.392E-03
CGA:  40    -0.668632107611E+03   -0.18677E-03   -0.17801E-03  8424   0.681E-03-0.261E-03
CGA:  41    -0.668632316774E+03   -0.20916E-03   -0.12006E-03  8424   0.283E-03-0.274E-03
CGA:  42    -0.668632582960E+03   -0.26619E-03    0.66814E-04  8424   0.291E-03-0.735E-04
CGA:  43    -0.668633190432E+03   -0.60747E-03    0.27686E-04  8424   0.332E-03-0.172E-04
CGA:  44    -0.668633967578E+03   -0.77715E-03    0.48859E-04  8424   0.492E-03-0.372E-04
CGA:  45    -0.668635518934E+03   -0.15514E-02    0.40136E-04  8424   0.605E-03-0.482E-05
CGA:  46    -0.668637495590E+03   -0.19767E-02    0.61176E-04  8424   0.729E-03-0.234E-04
CGA:  47    -0.668640289722E+03   -0.27941E-02    0.55126E-04  8424   0.660E-03 0.620E-05
CGA:  48    -0.668642645836E+03   -0.23561E-02    0.61445E-04  8424   0.191E-02-0.449E-03
CGA:  49    -0.668642967783E+03   -0.32195E-03   -0.24507E-03  8424   0.118E-03-0.221E-03
CGA:  50    -0.668643005503E+03   -0.37720E-04   -0.31622E-04  8424   0.749E-04-0.367E-04
CGA:  51    -0.668643161591E+03   -0.15609E-03    0.52256E-05  8424   0.137E-03-0.463E-04
CGA:  52    -0.668643176067E+03   -0.14476E-04   -0.17937E-04  8424   0.262E-04 0.105E-04
CGA:  53    -0.668643271290E+03   -0.95223E-04    0.22392E-05  8424   0.208E-04-0.914E-06
CGA:  54    -0.668643429844E+03   -0.15855E-03    0.56382E-06  8424   0.379E-04 0.863E-05
CGA:  55    -0.668643763484E+03   -0.33364E-03    0.19822E-05  8424   0.355E-04 0.306E-04
CGA:  56    -0.668643845456E+03   -0.81972E-04    0.49432E-05  8424   0.969E-04-0.293E-04
CGA:  57    -0.668643861007E+03   -0.15551E-04   -0.13714E-04  8424   0.140E-04-0.600E-05
CGA:  58    -0.668643948989E+03   -0.87982E-04    0.41290E-06  8424   0.174E-04 0.392E-05
CGA:  59    -0.668644110373E+03   -0.16138E-03    0.64385E-06  8424   0.111E-04 0.179E-04
CGA:  60    -0.668644180051E+03   -0.69679E-04    0.37874E-06  8424   0.102E-04 0.511E-05
CGA:  61    -0.668644304744E+03   -0.12469E-03    0.36437E-06  8424   0.116E-04 0.125E-04
CGA:  62    -0.668644373697E+03   -0.68953E-04    0.41858E-06  8424   0.117E-04 0.394E-05
CGA:  63    -0.668644503691E+03   -0.12999E-03    0.38905E-06  8424   0.147E-04 0.103E-04
CGA:  64    -0.668644563077E+03   -0.59386E-04    0.85575E-06  8424   0.232E-04-0.153E-05
CGA:  65    -0.668644729415E+03   -0.16634E-03    0.53731E-06  8424   0.320E-04 0.315E-05
CGA:  66    -0.668645015496E+03   -0.28608E-03    0.95275E-06  8424   0.299E-04 0.280E-04
CGA:  67    -0.668645074205E+03   -0.58709E-04    0.50039E-05  8424   0.881E-04-0.315E-04
CGA:  68    -0.668645109797E+03   -0.35592E-04   -0.22305E-04  8424   0.921E-04-0.755E-04
CGA:  69    -0.668645136687E+03   -0.26890E-04   -0.17173E-04  8424   0.337E-04-0.415E-04
CGA:  70    -0.668645227480E+03   -0.90793E-04    0.75626E-06  8424   0.181E-04 0.187E-05
CGA:  71    -0.668645297049E+03   -0.69569E-04    0.11325E-05  8424   0.454E-04-0.693E-05
CGA:  72    -0.668645590375E+03   -0.29333E-03    0.48639E-06  8424   0.649E-04 0.260E-04
CGA:  73    -0.668645670640E+03   -0.80265E-04    0.25896E-04  8424   0.451E-03-0.157E-03
CGA:  74    -0.668645687185E+03   -0.16545E-04   -0.40834E-04  8424   0.177E-04 0.769E-04
CGA:  75    -0.668645693279E+03   -0.60938E-05   -0.38011E-05  8424   0.194E-04-0.110E-04
   2 F= -.66864569E+03 E0= -.66864569E+03  d E =-.414102E-01  mag=     2.0000
       N       E                     dE             d eps       ncg     rms          ort
SDA:   1    -0.666147321632E+03    0.24984E+01    0.00000E+00  8424   0.806E+01 0.000E+00
CGA:   2    -0.668147422863E+03   -0.20001E+01   -0.20011E+01  8424   0.350E+01 0.115E-02
CGA:   3    -0.668814541026E+03   -0.66712E+00   -0.66560E+00  8424   0.963E+00-0.527E-02
CGA:   4    -0.668985827360E+03   -0.17129E+00   -0.17077E+00  8424   0.247E+00-0.225E-02
CGA:   5    -0.669026694144E+03   -0.40867E-01   -0.41020E-01  8424   0.490E-01 0.775E-03
CGA:   6    -0.669036454202E+03   -0.97601E-02   -0.98724E-02  8424   0.114E-01 0.758E-03
CGA:   7    -0.669039112226E+03   -0.26580E-02   -0.27131E-02  8424   0.378E-02 0.523E-03
CGA:   8    -0.669039917526E+03   -0.80530E-03   -0.88498E-03  8424   0.118E-02 0.717E-03
CGA:   9    -0.669040043051E+03   -0.12552E-03   -0.23285E-03  8424   0.472E-03 0.659E-03
CGA:  10    -0.669040014131E+03    0.28920E-04   -0.49739E-04  8424   0.304E-03 0.365E-03
CGA:  11    -0.669039974237E+03    0.39894E-04   -0.23877E-04  8424   0.251E-03 0.275E-03
CGA:  12    -0.669039936043E+03    0.38194E-04   -0.16539E-04  8424   0.221E-03 0.235E-03
CGA:  13    -0.669039900498E+03    0.35545E-04   -0.12639E-04  8424   0.200E-03 0.210E-03
CGA:  14    -0.669039867586E+03    0.32912E-04   -0.10165E-04  8424   0.184E-03 0.192E-03
CGA:  15    -0.669039837110E+03    0.30477E-04   -0.84408E-05  8424   0.172E-03 0.178E-03
CGA:  16    -0.669039808844E+03    0.28266E-04   -0.71676E-05  8424   0.163E-03 0.167E-03
CGA:  17    -0.669039782576E+03    0.26268E-04   -0.61881E-05  8424   0.155E-03 0.158E-03
CGA:  18    -0.669039758117E+03    0.24460E-04   -0.54114E-05  8424   0.148E-03 0.151E-03
CGA:  19    -0.669039735298E+03    0.22819E-04   -0.47808E-05  8424   0.142E-03 0.145E-03
CGA:  20    -0.669039713973E+03    0.21325E-04   -0.42592E-05  8424   0.137E-03 0.140E-03
CGA:  21    -0.669039694012E+03    0.19961E-04   -0.38211E-05  8424   0.133E-03 0.135E-03
CGA:  22    -0.669039675301E+03    0.18711E-04   -0.34481E-05  8424   0.129E-03 0.131E-03
CGA:  23    -0.669039657740E+03    0.17561E-04   -0.31273E-05  8424   0.126E-03 0.127E-03
CGA:  24    -0.669039641239E+03    0.16501E-04   -0.28487E-05  8424   0.123E-03 0.124E-03
CGA:  25    -0.669039625717E+03    0.15522E-04   -0.26048E-05  8424   0.120E-03 0.121E-03
CGA:  26    -0.669039611103E+03    0.14614E-04   -0.23898E-05  8424   0.117E-03 0.119E-03
CGA:  27    -0.669039597331E+03    0.13772E-04   -0.21992E-05  8424   0.115E-03 0.116E-03
CGA:  28    -0.669039584342E+03    0.12989E-04   -0.20293E-05  8424   0.113E-03 0.114E-03
CGA:  29    -0.669039572083E+03    0.12260E-04   -0.18772E-05  8424   0.111E-03 0.112E-03
CGA:  30    -0.669039560504E+03    0.11579E-04   -0.17403E-05  8424   0.110E-03 0.110E-03
CGA:  31    -0.669039549560E+03    0.10944E-04   -0.16166E-05  8424   0.108E-03 0.109E-03
CGA:  32    -0.669039539210E+03    0.10350E-04   -0.15045E-05  8424   0.106E-03 0.107E-03
CGA:  33    -0.669039529416E+03    0.97935E-05   -0.14026E-05  8424   0.105E-03 0.106E-03
   3 F= -.66903953E+03 E0= -.66903953E+03  d E =-.393836E+00  mag=     2.0000
       N       E                     dE             d eps       ncg     rms          ort
SDA:   1    -0.644666697719E+03    0.24373E+02    0.00000E+00  8424   0.688E+02 0.000E+00
CGA:   2    -0.662379877854E+03   -0.17713E+02   -0.17707E+02  8424   0.282E+02 0.860E-01
CGA:   3    -0.667736921033E+03   -0.53570E+01   -0.53587E+01  8424   0.811E+01-0.284E-01
CGA:   4    -0.669185367954E+03   -0.14484E+01   -0.14500E+01  8424   0.208E+01-0.255E-01
CGA:   5    -0.669535012825E+03   -0.34964E+00   -0.34906E+00  8424   0.431E+00 0.125E-01
CGA:   6    -0.669622093848E+03   -0.87081E-01   -0.86123E-01  8424   0.105E+00 0.130E-01
CGA:   7    -0.669648949130E+03   -0.26855E-01   -0.26018E-01  8424   0.383E-01 0.745E-02
CGA:   8    -0.669658819224E+03   -0.98701E-02   -0.90755E-02  8424   0.126E-01 0.913E-02
CGA:   9    -0.669661693790E+03   -0.28746E-02   -0.26433E-02  8424   0.542E-02 0.756E-02
CGA:  10    -0.669662302354E+03   -0.60856E-03   -0.67313E-03  8424   0.335E-02 0.401E-02
CGA:  11    -0.669662473084E+03   -0.17073E-03   -0.31125E-03  8424   0.277E-02 0.303E-02
CGA:  12    -0.669662544066E+03   -0.70982E-04   -0.21980E-03  8424   0.242E-02 0.258E-02
CGA:  13    -0.669662566768E+03   -0.22702E-04   -0.16978E-03  8424   0.218E-02 0.229E-02
CGA:  14    -0.669662562334E+03    0.44338E-05   -0.13757E-03  8424   0.200E-02 0.209E-02
CGA:  15    -0.669662541515E+03    0.20819E-04   -0.11494E-03  8424   0.187E-02 0.193E-02
CGA:  16    -0.669662510447E+03    0.31068E-04   -0.98136E-04  8424   0.175E-02 0.181E-02
CGA:  17    -0.669662472897E+03    0.37549E-04   -0.85154E-04  8424   0.166E-02 0.170E-02
CGA:  18    -0.669662431299E+03    0.41598E-04   -0.74830E-04  8424   0.158E-02 0.162E-02
CGA:  19    -0.669662387279E+03    0.44020E-04   -0.66431E-04  8424   0.152E-02 0.155E-02
CGA:  20    -0.669662341954E+03    0.45325E-04   -0.59470E-04  8424   0.146E-02 0.149E-02
CGA:  21    -0.669662296103E+03    0.45851E-04   -0.53614E-04  8424   0.141E-02 0.143E-02
CGA:  22    -0.669662250279E+03    0.45824E-04   -0.48624E-04  8424   0.136E-02 0.138E-02
CGA:  23    -0.669662204876E+03    0.45403E-04   -0.44326E-04  8424   0.132E-02 0.134E-02
CGA:  24    -0.669662160176E+03    0.44700E-04   -0.40589E-04  8424   0.129E-02 0.130E-02
CGA:  25    -0.669662116377E+03    0.43799E-04   -0.37314E-04  8424   0.126E-02 0.127E-02
CGA:  26    -0.669662073620E+03    0.42757E-04   -0.34424E-04  8424   0.123E-02 0.124E-02
CGA:  27    -0.669662032000E+03    0.41620E-04   -0.31856E-04  8424   0.120E-02 0.121E-02
CGA:  28    -0.669661991577E+03    0.40423E-04   -0.29562E-04  8424   0.118E-02 0.119E-02
CGA:  29    -0.669661952390E+03    0.39187E-04   -0.27502E-04  8424   0.116E-02 0.117E-02
CGA:  30    -0.669661914455E+03    0.37935E-04   -0.25644E-04  8424   0.114E-02 0.115E-02
CGA:  31    -0.669661877777E+03    0.36678E-04   -0.23960E-04  8424   0.112E-02 0.113E-02
CGA:  32    -0.669661842349E+03    0.35428E-04   -0.22428E-04  8424   0.110E-02 0.111E-02
CGA:  33    -0.669661808156E+03    0.34193E-04   -0.21030E-04  8424   0.109E-02 0.109E-02
CGA:  34    -0.669661775177E+03    0.32978E-04   -0.19749E-04  8424   0.107E-02 0.108E-02
CGA:  35    -0.669661743390E+03    0.31788E-04   -0.18574E-04  8424   0.106E-02 0.107E-02
CGA:  36    -0.669661712765E+03    0.30625E-04   -0.17491E-04  8424   0.105E-02 0.105E-02
CGA:  37    -0.669661683273E+03    0.29492E-04   -0.16492E-04  8424   0.104E-02 0.104E-02
CGA:  38    -0.669661654882E+03    0.28391E-04   -0.15567E-04  8424   0.102E-02 0.103E-02
CGA:  39    -0.669661627558E+03    0.27324E-04   -0.14709E-04  8424   0.101E-02 0.102E-02
CGA:  40    -0.669661601268E+03    0.26290E-04   -0.13912E-04  8424   0.101E-02 0.101E-02
CGA:  41    -0.669661575980E+03    0.25289E-04   -0.13170E-04  8424   0.996E-03 0.100E-02
CGA:  42    -0.669661551658E+03    0.24322E-04   -0.12478E-04  8424   0.988E-03 0.992E-03
CGA:  43    -0.669661528271E+03    0.23387E-04   -0.11831E-04  8424   0.980E-03 0.984E-03
CGA:  44    -0.669661505785E+03    0.22486E-04   -0.11226E-04  8424   0.973E-03 0.976E-03
CGA:  45    -0.669661484168E+03    0.21617E-04   -0.10660E-04  8424   0.966E-03 0.969E-03
CGA:  46    -0.669661463389E+03    0.20779E-04   -0.10128E-04  8424   0.960E-03 0.963E-03
CGA:  47    -0.669661443416E+03    0.19972E-04   -0.96285E-05  8424   0.954E-03 0.956E-03
CGA:  48    -0.669661424221E+03    0.19195E-04   -0.91587E-05  8424   0.948E-03 0.950E-03
CGA:  49    -0.669661405774E+03    0.18448E-04   -0.87165E-05  8424   0.942E-03 0.945E-03
CGA:  50    -0.669661388046E+03    0.17728E-04   -0.82997E-05  8424   0.937E-03 0.940E-03
CGA:  51    -0.669661371011E+03    0.17035E-04   -0.79065E-05  8424   0.932E-03 0.935E-03
CGA:  52    -0.669661354642E+03    0.16369E-04   -0.75353E-05  8424   0.928E-03 0.930E-03
CGA:  53    -0.669661338914E+03    0.15728E-04   -0.71844E-05  8424   0.923E-03 0.925E-03
CGA:  54    -0.669661323801E+03    0.15112E-04   -0.68526E-05  8424   0.919E-03 0.921E-03
CGA:  55    -0.669661309281E+03    0.14520E-04   -0.65385E-05  8424   0.915E-03 0.917E-03
CGA:  56    -0.669661295330E+03    0.13951E-04   -0.62409E-05  8424   0.912E-03 0.913E-03
CGA:  57    -0.669661281926E+03    0.13404E-04   -0.59588E-05  8424   0.908E-03 0.910E-03
CGA:  58    -0.669661269048E+03    0.12878E-04   -0.56913E-05  8424   0.905E-03 0.906E-03
CGA:  59    -0.669661256674E+03    0.12373E-04   -0.54374E-05  8424   0.902E-03 0.903E-03
CGA:  60    -0.669661244786E+03    0.11888E-04   -0.51962E-05  8424   0.899E-03 0.900E-03
CGA:  61    -0.669661233364E+03    0.11422E-04   -0.49671E-05  8424   0.896E-03 0.897E-03
CGA:  62    -0.669661222391E+03    0.10974E-04   -0.47492E-05  8424   0.893E-03 0.894E-03
CGA:  63    -0.669661211847E+03    0.10544E-04   -0.45420E-05  8424   0.891E-03 0.892E-03
CGA:  64    -0.669661201717E+03    0.10130E-04   -0.43449E-05  8424   0.888E-03 0.889E-03
CGA:  65    -0.669661191983E+03    0.97333E-05   -0.41571E-05  8424   0.886E-03 0.887E-03
   4 F= -.66966119E+03 E0= -.66966119E+03  d E =-.621663E+00  mag=     2.0000
       N       E                     dE             d eps       ncg     rms          ort
SDA:   1    -0.667947491413E+03    0.17137E+01    0.00000E+00  8424   0.472E+01 0.000E+00
CGA:   2    -0.668854315547E+03   -0.90682E+00   -0.60734E+00  8424   0.192E+01 0.270E+01
CGA:   3    -0.669472733926E+03   -0.61842E+00   -0.25142E+00  8424   0.549E+00 0.852E+00
CGA:   4    -0.669708023253E+03   -0.23529E+00   -0.23413E+00  8424   0.188E+00 0.491E-02
CGA:   5    -0.669733085762E+03   -0.25063E-01   -0.24605E-01  8424   0.385E-01 0.820E-02
CGA:   6    -0.669741124640E+03   -0.80389E-02   -0.69693E-02  8424   0.113E-01 0.111E-01
CGA:   7    -0.669742964588E+03   -0.18399E-02   -0.16310E-02  8424   0.467E-02 0.697E-02
CGA:   8    -0.669743379641E+03   -0.41505E-03   -0.40332E-03  8424   0.323E-02 0.377E-02
CGA:   9    -0.669743541771E+03   -0.16213E-03   -0.21290E-03  8424   0.265E-02 0.290E-02
CGA:  10    -0.669743620338E+03   -0.78567E-04   -0.14618E-03  8424   0.231E-02 0.245E-02
CGA:  11    -0.669743657641E+03   -0.37303E-04   -0.10997E-03  8424   0.206E-02 0.217E-02
CGA:  12    -0.669743671623E+03   -0.13982E-04   -0.87201E-04  8424   0.189E-02 0.196E-02
CGA:  13    -0.669743671435E+03    0.18788E-06   -0.71608E-04  8424   0.175E-02 0.181E-02
CGA:  14    -0.669743662262E+03    0.91732E-05   -0.60300E-04  8424   0.164E-02 0.168E-02
CGA:  15    -0.669743647258E+03    0.15005E-04   -0.51751E-04  8424   0.155E-02 0.159E-02
CGA:  16    -0.669743628496E+03    0.18762E-04   -0.45151E-04  8424   0.148E-02 0.151E-02
CGA:  17    -0.669743607355E+03    0.21140E-04   -0.39950E-04  8424   0.142E-02 0.144E-02
CGA:  18    -0.669743584709E+03    0.22646E-04   -0.35683E-04  8424   0.136E-02 0.138E-02
CGA:  19    -0.669743561169E+03    0.23540E-04   -0.32126E-04  8424   0.132E-02 0.134E-02
CGA:  20    -0.669743537174E+03    0.23995E-04   -0.29120E-04  8424   0.128E-02 0.129E-02
CGA:  21    -0.669743513039E+03    0.24135E-04   -0.26550E-04  8424   0.124E-02 0.126E-02
CGA:  22    -0.669743488992E+03    0.24046E-04   -0.24328E-04  8424   0.121E-02 0.123E-02
CGA:  23    -0.669743465202E+03    0.23791E-04   -0.22391E-04  8424   0.119E-02 0.120E-02
CGA:  24    -0.669743441788E+03    0.23414E-04   -0.20689E-04  8424   0.116E-02 0.117E-02
CGA:  25    -0.669743418839E+03    0.22949E-04   -0.19182E-04  8424   0.114E-02 0.115E-02
CGA:  26    -0.669743396416E+03    0.22423E-04   -0.17839E-04  8424   0.112E-02 0.113E-02
CGA:  27    -0.669743374564E+03    0.21853E-04   -0.16636E-04  8424   0.110E-02 0.111E-02
CGA:  28    -0.669743353310E+03    0.21254E-04   -0.15553E-04  8424   0.108E-02 0.109E-02
CGA:  29    -0.669743332672E+03    0.20637E-04   -0.14573E-04  8424   0.107E-02 0.107E-02
CGA:  30    -0.669743312660E+03    0.20012E-04   -0.13682E-04  8424   0.106E-02 0.106E-02
CGA:  31    -0.669743293277E+03    0.19383E-04   -0.12869E-04  8424   0.104E-02 0.105E-02
CGA:  32    -0.669743274520E+03    0.18757E-04   -0.12125E-04  8424   0.103E-02 0.104E-02
CGA:  33    -0.669743256384E+03    0.18136E-04   -0.11441E-04  8424   0.102E-02 0.102E-02
CGA:  34    -0.669743238860E+03    0.17524E-04   -0.10811E-04  8424   0.101E-02 0.101E-02
CGA:  35    -0.669743221937E+03    0.16923E-04   -0.10229E-04  8424   0.100E-02 0.101E-02
CGA:  36    -0.669743205602E+03    0.16335E-04   -0.96900E-05  8424   0.995E-03 0.997E-03
CGA:  37    -0.669743189841E+03    0.15761E-04   -0.91891E-05  8424   0.987E-03 0.990E-03
CGA:  38    -0.669743174641E+03    0.15201E-04   -0.87229E-05  8424   0.980E-03 0.982E-03
CGA:  39    -0.669743159985E+03    0.14656E-04   -0.82880E-05  8424   0.974E-03 0.976E-03
CGA:  40    -0.669743145858E+03    0.14127E-04   -0.78814E-05  8424   0.968E-03 0.969E-03
CGA:  41    -0.669743132244E+03    0.13614E-04   -0.75007E-05  8424   0.962E-03 0.964E-03
CGA:  42    -0.669743119127E+03    0.13117E-04   -0.71435E-05  8424   0.957E-03 0.958E-03
CGA:  43    -0.669743106492E+03    0.12635E-04   -0.68079E-05  8424   0.952E-03 0.953E-03
CGA:  44    -0.669743094323E+03    0.12169E-04   -0.64920E-05  8424   0.947E-03 0.949E-03
CGA:  45    -0.669743082604E+03    0.11719E-04   -0.61943E-05  8424   0.943E-03 0.944E-03
CGA:  46    -0.669743071319E+03    0.11284E-04   -0.59133E-05  8424   0.939E-03 0.940E-03
CGA:  47    -0.669743060456E+03    0.10864E-04   -0.56480E-05  8424   0.936E-03 0.937E-03
CGA:  48    -0.669743049997E+03    0.10459E-04   -0.53985E-05  8424   0.933E-03 0.933E-03
CGA:  49    -0.669743039929E+03    0.10068E-04   -0.51680E-05  8424   0.931E-03 0.930E-03
CGA:  50    -0.669743030239E+03    0.96908E-05   -0.49495E-05  8424   0.928E-03 0.928E-03
   5 F= -.66974303E+03 E0= -.66974303E+03  d E =-.818383E-01  mag=     2.0000
       N       E                     dE             d eps       ncg     rms          ort
SDA:   1    -0.662412144316E+03    0.73309E+01    0.00000E+00  8424   0.191E+02 0.000E+00
CGA:   2    -0.666209095207E+03   -0.37970E+01   -0.24419E+01  8424   0.765E+01 0.107E+02
CGA:   3    -0.668743074198E+03   -0.25340E+01   -0.97922E+00  8424   0.216E+01 0.328E+01
CGA:   4    -0.669641293907E+03   -0.89822E+00   -0.90190E+00  8424   0.853E+00-0.165E-01
CGA:   5    -0.669750175703E+03   -0.10888E+00   -0.10824E+00  8424   0.142E+00 0.124E-01
CGA:   6    -0.669783290271E+03   -0.33115E-01   -0.30840E-01  8424   0.478E-01 0.169E-01
CGA:   7    -0.669793103718E+03   -0.98134E-02   -0.89584E-02  8424   0.151E-01 0.105E-01
CGA:   8    -0.669796076219E+03   -0.29725E-02   -0.25225E-02  8424   0.771E-02 0.942E-02
CGA:   9    -0.669797010728E+03   -0.93451E-03   -0.84120E-03  8424   0.454E-02 0.552E-02
CGA:  10    -0.669797353571E+03   -0.34284E-03   -0.37988E-03  8424   0.364E-02 0.400E-02
CGA:  11    -0.669797529333E+03   -0.17576E-03   -0.25307E-03  8424   0.315E-02 0.335E-02
CGA:  12    -0.669797628136E+03   -0.98802E-04   -0.19036E-03  8424   0.282E-02 0.295E-02
CGA:  13    -0.669797683769E+03   -0.55634E-04   -0.15213E-03  8424   0.259E-02 0.268E-02
CGA:  14    -0.669797712616E+03   -0.28847E-04   -0.12615E-03  8424   0.240E-02 0.248E-02
CGA:  15    -0.669797723826E+03   -0.11209E-04   -0.10728E-03  8424   0.226E-02 0.232E-02
CGA:  16    -0.669797722995E+03    0.83108E-06   -0.92931E-04  8424   0.214E-02 0.219E-02
CGA:  17    -0.669797713762E+03    0.92327E-05   -0.81670E-04  8424   0.204E-02 0.208E-02
CGA:  18    -0.669797698601E+03    0.15161E-04   -0.72612E-04  8424   0.196E-02 0.199E-02
CGA:  19    -0.669797679249E+03    0.19353E-04   -0.65182E-04  8424   0.188E-02 0.191E-02
CGA:  20    -0.669797656951E+03    0.22298E-04   -0.58991E-04  8424   0.182E-02 0.185E-02
CGA:  21    -0.669797632621E+03    0.24330E-04   -0.53762E-04  8424   0.177E-02 0.179E-02
CGA:  22    -0.669797606936E+03    0.25685E-04   -0.49293E-04  8424   0.172E-02 0.174E-02
CGA:  23    -0.669797580404E+03    0.26532E-04   -0.45436E-04  8424   0.168E-02 0.170E-02
CGA:  24    -0.669797553409E+03    0.26996E-04   -0.42075E-04  8424   0.164E-02 0.166E-02
CGA:  25    -0.669797526241E+03    0.27167E-04   -0.39124E-04  8424   0.161E-02 0.163E-02
CGA:  26    -0.669797499124E+03    0.27117E-04   -0.36512E-04  8424   0.158E-02 0.160E-02
CGA:  27    -0.669797472226E+03    0.26898E-04   -0.34185E-04  8424   0.156E-02 0.157E-02
CGA:  28    -0.669797445675E+03    0.26552E-04   -0.32097E-04  8424   0.153E-02 0.154E-02
CGA:  29    -0.669797419565E+03    0.26110E-04   -0.30212E-04  8424   0.151E-02 0.152E-02
CGA:  30    -0.669797393969E+03    0.25596E-04   -0.28502E-04  8424   0.149E-02 0.150E-02
CGA:  31    -0.669797368937E+03    0.25032E-04   -0.26942E-04  8424   0.148E-02 0.149E-02
CGA:  32    -0.669797344509E+03    0.24428E-04   -0.25516E-04  8424   0.146E-02 0.147E-02
CGA:  33    -0.669797320716E+03    0.23793E-04   -0.24220E-04  8424   0.145E-02 0.145E-02
CGA:  34    -0.669797297571E+03    0.23145E-04   -0.23020E-04  8424   0.144E-02 0.144E-02
CGA:  35    -0.669797275081E+03    0.22491E-04   -0.21904E-04  8424   0.142E-02 0.143E-02
CGA:  36    -0.669797253244E+03    0.21837E-04   -0.20861E-04  8424   0.141E-02 0.142E-02
CGA:  37    -0.669797232057E+03    0.21187E-04   -0.19883E-04  8424   0.140E-02 0.141E-02
CGA:  38    -0.669797211512E+03    0.20544E-04   -0.18965E-04  8424   0.139E-02 0.140E-02
CGA:  39    -0.669797191600E+03    0.19912E-04   -0.18099E-04  8424   0.138E-02 0.139E-02
CGA:  40    -0.669797172308E+03    0.19292E-04   -0.17281E-04  8424   0.138E-02 0.138E-02
CGA:  41    -0.669797153623E+03    0.18685E-04   -0.16507E-04  8424   0.137E-02 0.137E-02
CGA:  42    -0.669797135530E+03    0.18093E-04   -0.15774E-04  8424   0.136E-02 0.136E-02
CGA:  43    -0.669797118016E+03    0.17515E-04   -0.15079E-04  8424   0.135E-02 0.135E-02
CGA:  44    -0.669797101064E+03    0.16952E-04   -0.14419E-04  8424   0.134E-02 0.135E-02
CGA:  45    -0.669797084660E+03    0.16404E-04   -0.13791E-04  8424   0.134E-02 0.134E-02
CGA:  46    -0.669797068788E+03    0.15872E-04   -0.13195E-04  8424   0.133E-02 0.133E-02
CGA:  47    -0.669797053434E+03    0.15354E-04   -0.12627E-04  8424   0.132E-02 0.133E-02
CGA:  48    -0.669797038583E+03    0.14851E-04   -0.12087E-04  8424   0.132E-02 0.132E-02
CGA:  49    -0.669797024220E+03    0.14363E-04   -0.11572E-04  8424   0.131E-02 0.131E-02
CGA:  50    -0.669797010331E+03    0.13889E-04   -0.11082E-04  8424   0.131E-02 0.131E-02
CGA:  51    -0.669796996901E+03    0.13430E-04   -0.10613E-04  8424   0.130E-02 0.130E-02
CGA:  52    -0.669796983917E+03    0.12984E-04   -0.10167E-04  8424   0.130E-02 0.130E-02
CGA:  53    -0.669796971364E+03    0.12552E-04   -0.97405E-05  8424   0.129E-02 0.129E-02
CGA:  54    -0.669796959231E+03    0.12133E-04   -0.93334E-05  8424   0.129E-02 0.129E-02
CGA:  55    -0.669796947503E+03    0.11728E-04   -0.89445E-05  8424   0.128E-02 0.128E-02
CGA:  56    -0.669796936169E+03    0.11334E-04   -0.85732E-05  8424   0.128E-02 0.128E-02
CGA:  57    -0.669796925217E+03    0.10953E-04   -0.82184E-05  8424   0.127E-02 0.127E-02
CGA:  58    -0.669796914634E+03    0.10582E-04   -0.78796E-05  8424   0.127E-02 0.127E-02
CGA:  59    -0.669796904410E+03    0.10224E-04   -0.75558E-05  8424   0.126E-02 0.127E-02
CGA:  60    -0.669796894534E+03    0.98758E-05   -0.72470E-05  8424   0.126E-02 0.126E-02
   6 F= -.66979689E+03 E0= -.66979689E+03  d E =-.538643E-01  mag=     2.0000
       N       E                     dE             d eps       ncg     rms          ort
SDA:   1    -0.668489604621E+03    0.13073E+01    0.00000E+00  8424   0.343E+01 0.000E+00
CGA:   2    -0.669117058105E+03   -0.62745E+00   -0.41557E+00  8424   0.145E+01 0.195E+01
CGA:   3    -0.669577570889E+03   -0.46051E+00   -0.22277E+00  8424   0.475E+00 0.712E+00
CGA:   4    -0.669782736594E+03   -0.20517E+00   -0.20006E+00  8424   0.142E+00 0.228E-01
CGA:   5    -0.669802058088E+03   -0.19321E-01   -0.18812E-01  8424   0.292E-01 0.913E-02
CGA:   6    -0.669808291647E+03   -0.62336E-02   -0.52413E-02  8424   0.854E-02 0.104E-01
CGA:   7    -0.669809605330E+03   -0.13137E-02   -0.11710E-02  8424   0.380E-02 0.631E-02
CGA:   8    -0.669809850281E+03   -0.24495E-03   -0.27141E-03  8424   0.288E-02 0.325E-02
CGA:   9    -0.669809960935E+03   -0.11065E-03   -0.16689E-03  8424   0.246E-02 0.264E-02
CGA:  10    -0.669810019127E+03   -0.58193E-04   -0.12302E-03  8424   0.219E-02 0.231E-02
CGA:  11    -0.669810049428E+03   -0.30301E-04   -0.97466E-04  8424   0.200E-02 0.208E-02
CGA:  12    -0.669810062986E+03   -0.13558E-04   -0.80522E-04  8424   0.186E-02 0.192E-02
CGA:  13    -0.669810065789E+03   -0.28025E-05   -0.68398E-04  8424   0.175E-02 0.179E-02
CGA:  14    -0.669810061390E+03    0.43992E-05   -0.59268E-04  8424   0.166E-02 0.169E-02
CGA:  15    -0.669810052046E+03    0.93436E-05   -0.52132E-04  8424   0.158E-02 0.161E-02
CGA:  16    -0.669810039340E+03    0.12706E-04   -0.46493E-04  8424   0.152E-02 0.154E-02
CGA:  17    -0.669810024300E+03    0.15040E-04   -0.41873E-04  8424   0.147E-02 0.149E-02
CGA:  18    -0.669810007638E+03    0.16662E-04   -0.37994E-04  8424   0.142E-02 0.144E-02
CGA:  19    -0.669809989873E+03    0.17765E-04   -0.34692E-04  8424   0.138E-02 0.140E-02
CGA:  20    -0.669809971390E+03    0.18483E-04   -0.31847E-04  8424   0.134E-02 0.136E-02
CGA:  21    -0.669809952480E+03    0.18910E-04   -0.29370E-04  8424   0.131E-02 0.133E-02
CGA:  22    -0.669809933362E+03    0.19117E-04   -0.27196E-04  8424   0.128E-02 0.130E-02
CGA:  23    -0.669809914206E+03    0.19156E-04   -0.25273E-04  8424   0.126E-02 0.127E-02
CGA:  24    -0.669809895140E+03    0.19066E-04   -0.23559E-04  8424   0.124E-02 0.125E-02
CGA:  25    -0.669809876263E+03    0.18877E-04   -0.22024E-04  8424   0.122E-02 0.122E-02
CGA:  26    -0.669809857649E+03    0.18613E-04   -0.20640E-04  8424   0.120E-02 0.121E-02
CGA:  27    -0.669809839357E+03    0.18293E-04   -0.19387E-04  8424   0.118E-02 0.119E-02
CGA:  28    -0.669809821428E+03    0.17928E-04   -0.18247E-04  8424   0.117E-02 0.117E-02
CGA:  29    -0.669809803896E+03    0.17532E-04   -0.17205E-04  8424   0.115E-02 0.116E-02
CGA:  30    -0.669809786782E+03    0.17114E-04   -0.16249E-04  8424   0.114E-02 0.114E-02
CGA:  31    -0.669809770103E+03    0.16679E-04   -0.15369E-04  8424   0.113E-02 0.113E-02
CGA:  32    -0.669809753869E+03    0.16234E-04   -0.14557E-04  8424   0.112E-02 0.112E-02
CGA:  33    -0.669809738086E+03    0.15783E-04   -0.13805E-04  8424   0.111E-02 0.111E-02
CGA:  34    -0.669809722756E+03    0.15330E-04   -0.13106E-04  8424   0.110E-02 0.110E-02
CGA:  35    -0.669809707878E+03    0.14878E-04   -0.12456E-04  8424   0.109E-02 0.109E-02
CGA:  36    -0.669809693450E+03    0.14428E-04   -0.11849E-04  8424   0.108E-02 0.108E-02
CGA:  37    -0.669809679466E+03    0.13984E-04   -0.11282E-04  8424   0.107E-02 0.108E-02
CGA:  38    -0.669809665921E+03    0.13545E-04   -0.10750E-04  8424   0.107E-02 0.107E-02
CGA:  39    -0.669809652806E+03    0.13114E-04   -0.10251E-04  8424   0.106E-02 0.106E-02
CGA:  40    -0.669809640115E+03    0.12692E-04   -0.97813E-05  8424   0.105E-02 0.106E-02
CGA:  41    -0.669809627837E+03    0.12278E-04   -0.93393E-05  8424   0.105E-02 0.105E-02
CGA:  42    -0.669809615963E+03    0.11874E-04   -0.89224E-05  8424   0.104E-02 0.104E-02
CGA:  43    -0.669809604484E+03    0.11479E-04   -0.85287E-05  8424   0.104E-02 0.104E-02
CGA:  44    -0.669809593389E+03    0.11095E-04   -0.81564E-05  8424   0.103E-02 0.103E-02
CGA:  45    -0.669809582668E+03    0.10721E-04   -0.78040E-05  8424   0.103E-02 0.103E-02
CGA:  46    -0.669809572311E+03    0.10357E-04   -0.74700E-05  8424   0.102E-02 0.103E-02
CGA:  47    -0.669809562307E+03    0.10004E-04   -0.71532E-05  8424   0.102E-02 0.102E-02
CGA:  48    -0.669809552646E+03    0.96608E-05   -0.68522E-05  8424   0.102E-02 0.102E-02
   7 F= -.66980955E+03 E0= -.66980955E+03  d E =-.126581E-01  mag=     2.0000
       N       E                     dE             d eps       ncg     rms          ort
SDA:   1    -0.653042377430E+03    0.16767E+02    0.00000E+00  8424   0.413E+02 0.000E+00
CGA:   2    -0.661779685781E+03   -0.87373E+01   -0.48898E+01  8424   0.165E+02 0.217E+02
CGA:   3    -0.667560013072E+03   -0.57803E+01   -0.18860E+01  8424   0.534E+01 0.636E+01
CGA:   4    -0.669330920539E+03   -0.17709E+01   -0.17734E+01  8424   0.237E+01-0.160E-01
CGA:   5    -0.669662584516E+03   -0.33166E+00   -0.33074E+00  8424   0.279E+00 0.148E-01
CGA:   6    -0.669720164764E+03   -0.57580E-01   -0.56539E-01  8424   0.104E+00 0.876E-02
CGA:   7    -0.669744436922E+03   -0.24272E-01   -0.23519E-01  8424   0.259E-01 0.571E-02
CGA:   8    -0.669749669153E+03   -0.52322E-02   -0.46128E-02  8424   0.992E-02 0.835E-02
CGA:   9    -0.669752005724E+03   -0.23366E-02   -0.19730E-02  8424   0.543E-02 0.702E-02
CGA:  10    -0.669753023937E+03   -0.10182E-02   -0.84175E-03  8424   0.285E-02 0.328E-02
CGA:  11    -0.669753316306E+03   -0.29237E-03   -0.29413E-03  8424   0.237E-02 0.257E-02
CGA:  12    -0.669753515767E+03   -0.19946E-03   -0.22204E-03  8424   0.209E-02 0.221E-02
CGA:  13    -0.669753652209E+03   -0.13644E-03   -0.17499E-03  8424   0.189E-02 0.198E-02
CGA:  14    -0.669753749728E+03   -0.97519E-04   -0.14457E-03  8424   0.175E-02 0.181E-02
CGA:  15    -0.669753821196E+03   -0.71467E-04   -0.12311E-03  8424   0.163E-02 0.168E-02
CGA:  16    -0.669753874251E+03   -0.53055E-04   -0.10705E-03  8424   0.154E-02 0.158E-02
CGA:  17    -0.669753913808E+03   -0.39557E-04   -0.94556E-04  8424   0.147E-02 0.150E-02
CGA:  18    -0.669753943213E+03   -0.29405E-04   -0.84550E-04  8424   0.140E-02 0.143E-02
CGA:  19    -0.669753964836E+03   -0.21623E-04   -0.76355E-04  8424   0.135E-02 0.137E-02
CGA:  20    -0.669753980410E+03   -0.15574E-04   -0.69524E-04  8424   0.130E-02 0.133E-02
CGA:  21    -0.669753991232E+03   -0.10822E-04   -0.63746E-04  8424   0.126E-02 0.128E-02
CGA:  22    -0.669753998288E+03   -0.70557E-05   -0.58794E-04  8424   0.123E-02 0.124E-02
CGA:  23    -0.669754002338E+03   -0.40503E-05   -0.54502E-04  8424   0.120E-02 0.121E-02
CGA:  24    -0.669754003978E+03   -0.16397E-05   -0.50747E-04  8424   0.117E-02 0.118E-02
CGA:  25    -0.669754003677E+03    0.30083E-06   -0.47430E-04  8424   0.114E-02 0.116E-02
CGA:  26    -0.669754001810E+03    0.18671E-05   -0.44478E-04  8424   0.112E-02 0.113E-02
CGA:  27    -0.669753998677E+03    0.31324E-05   -0.41832E-04  8424   0.110E-02 0.111E-02
CGA:  28    -0.669753994523E+03    0.41543E-05   -0.39443E-04  8424   0.108E-02 0.109E-02
CGA:  29    -0.669753989545E+03    0.49781E-05   -0.37275E-04  8424   0.107E-02 0.107E-02
CGA:  30    -0.669753983905E+03    0.56403E-05   -0.35296E-04  8424   0.105E-02 0.106E-02
CGA:  31    -0.669753977735E+03    0.61696E-05   -0.33480E-04  8424   0.104E-02 0.104E-02
CGA:  32    -0.669753971146E+03    0.65894E-05   -0.31807E-04  8424   0.102E-02 0.103E-02
CGA:  33    -0.669753964226E+03    0.69194E-05   -0.30260E-04  8424   0.101E-02 0.102E-02
CGA:  34    -0.669753957052E+03    0.71743E-05   -0.28823E-04  8424   0.100E-02 0.101E-02
CGA:  35    -0.669753949686E+03    0.73659E-05   -0.27488E-04  8424   0.991E-03 0.996E-03
CGA:  36    -0.669753942188E+03    0.74986E-05   -0.26248E-04  8424   0.982E-03 0.986E-03
CGA:  37    -0.669753934598E+03    0.75896E-05   -0.25085E-04  8424   0.973E-03 0.977E-03
CGA:  38    -0.669753926952E+03    0.76460E-05   -0.23991E-04  8424   0.965E-03 0.968E-03
CGA:  39    -0.669753919278E+03    0.76735E-05   -0.22959E-04  8424   0.957E-03 0.960E-03
CGA:  40    -0.669753911603E+03    0.76760E-05   -0.21985E-04  8424   0.950E-03 0.953E-03
CGA:  41    -0.669753903945E+03    0.76574E-05   -0.21063E-04  8424   0.943E-03 0.946E-03
CGA:  42    -0.669753896325E+03    0.76205E-05   -0.20190E-04  8424   0.936E-03 0.939E-03
CGA:  43    -0.669753888756E+03    0.75686E-05   -0.19362E-04  8424   0.930E-03 0.933E-03
CGA:  44    -0.669753881253E+03    0.75034E-05   -0.18575E-04  8424   0.924E-03 0.927E-03
CGA:  45    -0.669753873826E+03    0.74264E-05   -0.17827E-04  8424   0.919E-03 0.921E-03
CGA:  46    -0.669753866487E+03    0.73391E-05   -0.17116E-04  8424   0.914E-03 0.916E-03
CGA:  47    -0.669753859244E+03    0.72428E-05   -0.16438E-04  8424   0.909E-03 0.911E-03
CGA:  48    -0.669753852106E+03    0.71383E-05   -0.15793E-04  8424   0.904E-03 0.906E-03
CGA:  49    -0.669753845079E+03    0.70266E-05   -0.15178E-04  8424   0.899E-03 0.901E-03
CGA:  50    -0.669753838171E+03    0.69083E-05   -0.14592E-04  8424   0.895E-03 0.897E-03
CGA:  51    -0.669753831388E+03    0.67831E-05   -0.14034E-04  8424   0.891E-03 0.893E-03
CGA:  52    -0.669753824742E+03    0.66458E-05   -0.13503E-04  8424   0.887E-03 0.889E-03
CGA:  53    -0.669753818241E+03    0.65012E-05   -0.12992E-04  8424   0.886E-03 0.884E-03
CGA:  54    -0.669753811926E+03    0.63147E-05   -0.12493E-04  8424   0.892E-03 0.875E-03
CGA:  55    -0.669753805783E+03    0.61436E-05   -0.11918E-04  8424   0.918E-03 0.854E-03
CGA:  56    -0.669753800065E+03    0.57175E-05   -0.11362E-04  8424   0.963E-03 0.810E-03
CGA:  57    -0.669753794755E+03    0.53107E-05   -0.10881E-04  8424   0.982E-03 0.767E-03
CGA:  58    -0.669753790083E+03    0.46712E-05   -0.10805E-04  8424   0.964E-03 0.760E-03
CGA:  59    -0.669753785226E+03    0.48572E-05   -0.10478E-04  8424   0.923E-03 0.788E-03
CGA:  60    -0.669753780619E+03    0.46072E-05   -0.10320E-04  8424   0.890E-03 0.821E-03
   8 F= -.66975378E+03 E0= -.66975378E+03  d E =0.557720E-01  mag=     2.0000
       N       E                     dE             d eps       ncg     rms          ort
SDA:   1    -0.657971782885E+03    0.11782E+02    0.00000E+00  8424   0.324E+02 0.000E+00
CGA:   2    -0.665289301053E+03   -0.73175E+01   -0.14687E+01  8424   0.109E+02 0.848E+01
CGA:   3    -0.668612446328E+03   -0.33231E+01   -0.26617E-02  8424   0.702E+01-0.366E+01
CGA:   4    -0.669130395843E+03   -0.51795E+00   -0.51763E+00  8424   0.221E+01 0.151E-01
CGA:   5    -0.669440889046E+03   -0.31049E+00   -0.30970E+00  8424   0.109E+01 0.163E-01
CGA:   6    -0.669599763131E+03   -0.15887E+00   -0.15853E+00  8424   0.438E+00 0.667E-02
CGA:   7    -0.669670440796E+03   -0.70678E-01   -0.70667E-01  8424   0.230E+00 0.121E-03
CGA:   8    -0.669709860692E+03   -0.39420E-01   -0.39215E-01  8424   0.111E+00 0.290E-02
CGA:   9    -0.669728168622E+03   -0.18308E-01   -0.18033E-01  8424   0.450E-01 0.490E-02
CGA:  10    -0.669735809359E+03   -0.76407E-02   -0.74772E-02  8424   0.184E-01 0.313E-02
CGA:  11    -0.669739328667E+03   -0.35193E-02   -0.33872E-02  8424   0.863E-02 0.210E-02
CGA:  12    -0.669740873297E+03   -0.15446E-02   -0.14547E-02  8424   0.381E-02 0.232E-02
CGA:  13    -0.669741456944E+03   -0.58365E-03   -0.57471E-03  8424   0.195E-02 0.210E-02
CGA:  14    -0.669741756333E+03   -0.29939E-03   -0.26912E-03  8424   0.957E-03 0.130E-02
CGA:  15    -0.669741829959E+03   -0.73626E-04   -0.90962E-04  8424   0.721E-03 0.828E-03
CGA:  16    -0.669741858018E+03   -0.28059E-04   -0.54365E-04  8424   0.611E-03 0.664E-03
CGA:  17    -0.669741869513E+03   -0.11495E-04   -0.39454E-04  8424   0.545E-03 0.577E-03
CGA:  18    -0.669741873048E+03   -0.35347E-05   -0.31337E-04  8424   0.502E-03 0.523E-03
CGA:  19    -0.669741872213E+03    0.83497E-06   -0.26229E-04  8424   0.471E-03 0.486E-03
CGA:  20    -0.669741868787E+03    0.34252E-05   -0.22707E-04  8424   0.448E-03 0.459E-03
CGA:  21    -0.669741863755E+03    0.50325E-05   -0.20116E-04  8424   0.429E-03 0.438E-03
CGA:  22    -0.669741857700E+03    0.60549E-05   -0.18116E-04  8424   0.415E-03 0.422E-03
CGA:  23    -0.669741850991E+03    0.67088E-05   -0.16513E-04  8424   0.403E-03 0.409E-03
CGA:  24    -0.669741843891E+03    0.70998E-05   -0.15215E-04  8424   0.394E-03 0.398E-03
CGA:  25    -0.669741836580E+03    0.73118E-05   -0.14143E-04  8424   0.386E-03 0.390E-03
CGA:  26    -0.669741829158E+03    0.74220E-05   -0.13210E-04  8424   0.379E-03 0.382E-03
CGA:  27    -0.669741821698E+03    0.74592E-05   -0.12386E-04  8424   0.373E-03 0.376E-03
CGA:  28    -0.669741814256E+03    0.74422E-05   -0.11651E-04  8424   0.368E-03 0.370E-03
CGA:  29    -0.669741806871E+03    0.73850E-05   -0.10988E-04  8424   0.363E-03 0.365E-03
CGA:  30    -0.669741799573E+03    0.72981E-05   -0.10386E-04  8424   0.358E-03 0.360E-03
   9 F= -.66974180E+03 E0= -.66974180E+03  d E =0.119810E-01  mag=     2.0000
       N       E                     dE             d eps       ncg     rms          ort
SDA:   1    -0.665055620857E+03    0.46862E+01    0.00000E+00  8424   0.126E+02 0.000E+00
CGA:   2    -0.668446993499E+03   -0.33914E+01   -0.33922E+01  8424   0.584E+01-0.407E-02
CGA:   3    -0.669528242826E+03   -0.10812E+01   -0.10819E+01  8424   0.145E+01-0.721E-02
CGA:   4    -0.669770292388E+03   -0.24205E+00   -0.24177E+00  8424   0.354E+00 0.330E-02
CGA:   5    -0.669830865821E+03   -0.60573E-01   -0.60164E-01  8424   0.729E-01 0.519E-02
CGA:   6    -0.669845587185E+03   -0.14721E-01   -0.14334E-01  8424   0.167E-01 0.394E-02
CGA:   7    -0.669849488821E+03   -0.39016E-02   -0.36322E-02  8424   0.500E-02 0.254E-02
CGA:   8    -0.669850706724E+03   -0.12179E-02   -0.10589E-02  8424   0.178E-02 0.204E-02
CGA:   9    -0.669851031551E+03   -0.32483E-03   -0.30591E-03  8424   0.967E-03 0.153E-02
CGA:  10    -0.669851102791E+03   -0.71240E-04   -0.87366E-04  8424   0.705E-03 0.805E-03
CGA:  11    -0.669851131251E+03   -0.28460E-04   -0.51781E-04  8424   0.604E-03 0.648E-03
CGA:  12    -0.669851144858E+03   -0.13607E-04   -0.38561E-04  8424   0.543E-03 0.570E-03
CGA:  13    -0.669851150744E+03   -0.58858E-05   -0.30963E-04  8424   0.499E-03 0.519E-03
CGA:  14    -0.669851151991E+03   -0.12468E-05   -0.25859E-04  8424   0.466E-03 0.481E-03
CGA:  15    -0.669851150244E+03    0.17470E-05   -0.22138E-04  8424   0.440E-03 0.451E-03
CGA:  16    -0.669851146488E+03    0.37559E-05   -0.19283E-04  8424   0.418E-03 0.427E-03
CGA:  17    -0.669851141357E+03    0.51308E-05   -0.17013E-04  8424   0.399E-03 0.407E-03
CGA:  18    -0.669851135280E+03    0.60767E-05   -0.15162E-04  8424   0.384E-03 0.390E-03
CGA:  19    -0.669851128558E+03    0.67223E-05   -0.13620E-04  8424   0.370E-03 0.376E-03
CGA:  20    -0.669851121406E+03    0.71516E-05   -0.12317E-04  8424   0.358E-03 0.363E-03
CGA:  21    -0.669851113984E+03    0.74222E-05   -0.11200E-04  8424   0.347E-03 0.352E-03
CGA:  22    -0.669851106410E+03    0.75742E-05   -0.10233E-04  8424   0.337E-03 0.342E-03
  10 F= -.66985111E+03 E0= -.66985111E+03  d E =-.109307E+00  mag=     2.0000
       N       E                     dE             d eps       ncg     rms          ort
SDA:   1    -0.668851486663E+03    0.99963E+00    0.00000E+00  8424   0.282E+01 0.000E+00
CGA:   2    -0.669542004882E+03   -0.69052E+00   -0.68916E+00  8424   0.136E+01 0.795E-02
CGA:   3    -0.669803335485E+03   -0.26133E+00   -0.26145E+00  8424   0.351E+00-0.127E-02
CGA:   4    -0.669860525557E+03   -0.57190E-01   -0.57008E-01  8424   0.836E-01 0.246E-02
CGA:   5    -0.669874804263E+03   -0.14279E-01   -0.14056E-01  8424   0.166E-01 0.303E-02
CGA:   6    -0.669878109334E+03   -0.33051E-02   -0.31065E-02  8424   0.365E-02 0.238E-02
CGA:   7    -0.669878768297E+03   -0.65896E-03   -0.58824E-03  8424   0.129E-02 0.180E-02
CGA:   8    -0.669878925781E+03   -0.15748E-03   -0.17443E-03  8424   0.749E-03 0.126E-02
CGA:   9    -0.669878954353E+03   -0.28572E-04   -0.51166E-04  8424   0.586E-03 0.652E-03
CGA:  10    -0.669878961903E+03   -0.75495E-05   -0.32393E-04  8424   0.509E-03 0.541E-03
CGA:  11    -0.669878961665E+03    0.23768E-06   -0.24300E-04  8424   0.460E-03 0.480E-03
CGA:  12    -0.669878957549E+03    0.41157E-05   -0.19517E-04  8424   0.424E-03 0.438E-03
CGA:  13    -0.669878951278E+03    0.62714E-05   -0.16289E-04  8424   0.398E-03 0.408E-03
CGA:  14    -0.669878943756E+03    0.75221E-05   -0.13938E-04  8424   0.376E-03 0.384E-03
CGA:  15    -0.669878935510E+03    0.82456E-05   -0.12138E-04  8424   0.358E-03 0.365E-03
CGA:  16    -0.669878926869E+03    0.86416E-05   -0.10711E-04  8424   0.344E-03 0.349E-03
  11 F= -.66987893E+03 E0= -.66987893E+03  d E =-.278205E-01  mag=     2.0000
       N       E                     dE             d eps       ncg     rms          ort
SDA:   1    -0.668704485922E+03    0.11744E+01    0.00000E+00  8424   0.303E+01 0.000E+00
CGA:   2    -0.669528185118E+03   -0.82370E+00   -0.82303E+00  8424   0.151E+01 0.310E-02
CGA:   3    -0.669802551803E+03   -0.27437E+00   -0.27411E+00  8424   0.353E+00 0.262E-02
CGA:   4    -0.669860844836E+03   -0.58293E-01   -0.58097E-01  8424   0.858E-01 0.271E-02
CGA:   5    -0.669875595492E+03   -0.14751E-01   -0.14615E-01  8424   0.174E-01 0.188E-02
CGA:   6    -0.669879125131E+03   -0.35296E-02   -0.33739E-02  8424   0.395E-02 0.175E-02
CGA:   7    -0.669879867654E+03   -0.74252E-03   -0.66430E-03  8424   0.130E-02 0.165E-02
CGA:   8    -0.669880041839E+03   -0.17418E-03   -0.18368E-03  8424   0.740E-03 0.117E-02
CGA:   9    -0.669880080543E+03   -0.38704E-04   -0.57437E-04  8424   0.556E-03 0.626E-03
CGA:  10    -0.669880092993E+03   -0.12451E-04   -0.34671E-04  8424   0.477E-03 0.509E-03
CGA:  11    -0.669880096385E+03   -0.33917E-05   -0.25745E-04  8424   0.428E-03 0.448E-03
CGA:  12    -0.669880095216E+03    0.11691E-05   -0.20558E-04  8424   0.394E-03 0.407E-03
CGA:  13    -0.669880091433E+03    0.37827E-05   -0.17076E-04  8424   0.367E-03 0.377E-03
CGA:  14    -0.669880086065E+03    0.53683E-05   -0.14549E-04  8424   0.346E-03 0.354E-03
CGA:  15    -0.669880079715E+03    0.63497E-05   -0.12621E-04  8424   0.329E-03 0.335E-03
CGA:  16    -0.669880072765E+03    0.69505E-05   -0.11098E-04  8424   0.314E-03 0.319E-03
  12 F= -.66988007E+03 E0= -.66988007E+03  d E =-.114590E-02  mag=     2.0000
       N       E                     dE             d eps       ncg     rms          ort
SDA:   1    -0.630746218884E+03    0.39134E+02    0.00000E+00  8424   0.122E+03 0.000E+00
CGA:   2    -0.655432432459E+03   -0.24686E+02   -0.24347E+02  8424   0.475E+02 0.326E+01
CGA:   3    -0.665965847848E+03   -0.10533E+02   -0.10567E+02  8424   0.145E+02-0.340E+00
CGA:   4    -0.668395159269E+03   -0.24293E+01   -0.24267E+01  8424   0.359E+01 0.285E-01
CGA:   5    -0.668999113305E+03   -0.60395E+00   -0.60321E+00  8424   0.750E+00 0.975E-02
CGA:   6    -0.669153538524E+03   -0.15443E+00   -0.15476E+00  8424   0.186E+00-0.344E-02
CGA:   7    -0.669195970097E+03   -0.42432E-01   -0.42322E-01  8424   0.592E-01 0.912E-03
CGA:   8    -0.669210959810E+03   -0.14990E-01   -0.14686E-01  8424   0.190E-01 0.229E-02
CGA:   9    -0.669216745005E+03   -0.57852E-02   -0.62409E-02  8424   0.908E-02-0.235E-02
CGA:  10    -0.669219152596E+03   -0.24076E-02   -0.27940E-02  8424   0.518E-02-0.176E-02
CGA:  11    -0.669218313393E+03    0.83920E-03   -0.28277E-02  8424   0.164E-01-0.687E-02
CGA:  12    -0.669220891074E+03   -0.25777E-02   -0.25899E-02  8424   0.265E-02 0.109E-02
CGA:  13    -0.669221629505E+03   -0.73843E-03   -0.14699E-02  8424   0.448E-02-0.208E-02
CGA:  14    -0.669222422793E+03   -0.79329E-03   -0.79412E-03  8424   0.930E-03 0.955E-04
CGA:  15    -0.669222804822E+03   -0.38203E-03    0.10540E-02  8424   0.254E-03 0.219E-03
CGA:  16    -0.669223039258E+03   -0.23444E-03    0.28787E-04  8424   0.222E-03 0.221E-03
CGA:  17    -0.669223175823E+03   -0.13656E-03    0.31279E-04  8424   0.171E-03 0.151E-03
CGA:  18    -0.669223332295E+03   -0.15647E-03    0.10820E-04  8424   0.153E-03 0.146E-03
CGA:  19    -0.669223467075E+03   -0.13478E-03    0.10332E-04  8424   0.143E-03 0.141E-03
CGA:  20    -0.669223610343E+03   -0.14327E-03    0.77943E-05  8424   0.136E-03 0.135E-03
CGA:  21    -0.669223743926E+03   -0.13358E-03    0.76397E-05  8424   0.130E-03 0.131E-03
CGA:  22    -0.669223880859E+03   -0.13693E-03    0.66113E-05  8424   0.126E-03 0.126E-03
CGA:  23    -0.669224012338E+03   -0.13148E-03    0.64525E-05  8424   0.122E-03 0.123E-03
CGA:  24    -0.669224145180E+03   -0.13284E-03    0.58942E-05  8424   0.119E-03 0.119E-03
CGA:  25    -0.669224274805E+03   -0.12963E-03    0.57466E-05  8424   0.117E-03 0.116E-03
CGA:  26    -0.669224404209E+03   -0.12940E-03    0.54696E-05  8424   0.115E-03 0.113E-03
CGA:  27    -0.669224532665E+03   -0.12846E-03    0.53201E-05  8424   0.114E-03 0.110E-03
CGA:  28    -0.669224658368E+03   -0.12570E-03    0.53819E-05  8424   0.114E-03 0.106E-03
CGA:  29    -0.669224786686E+03   -0.12832E-03    0.52232E-05  8424   0.116E-03 0.102E-03
CGA:  30    -0.669224908042E+03   -0.12136E-03    0.58678E-05  8424   0.118E-03 0.963E-04
CGA:  31    -0.669225037130E+03   -0.12909E-03    0.56759E-05  8424   0.123E-03 0.893E-04
CGA:  32    -0.669225153837E+03   -0.11671E-03    0.73089E-05  8424   0.128E-03 0.812E-04
CGA:  33    -0.669225284001E+03   -0.13016E-03    0.68554E-05  8424   0.134E-03 0.724E-04
CGA:  34    -0.669225396728E+03   -0.11273E-03    0.98556E-05  8424   0.140E-03 0.637E-04
CGA:  35    -0.669225646820E+03   -0.25009E-03    0.84140E-05  8424   0.129E-03 0.203E-03
CGA:  36    -0.669225775222E+03   -0.12840E-03    0.71070E-05  8424   0.130E-03 0.626E-04
CGA:  37    -0.669226016572E+03   -0.24135E-03    0.76150E-05  8424   0.124E-03 0.191E-03
CGA:  38    -0.669226126406E+03   -0.10983E-03    0.82979E-05  8424   0.122E-03 0.617E-04
CGA:  39    -0.669226359989E+03   -0.23358E-03    0.69710E-05  8424   0.119E-03 0.181E-03
CGA:  40    -0.669226484733E+03   -0.12474E-03    0.60856E-05  8424   0.116E-03 0.604E-04
CGA:  41    -0.669226593241E+03   -0.10851E-03    0.70331E-05  8424   0.112E-03 0.618E-04
CGA:  42    -0.669226714821E+03   -0.12158E-03    0.53932E-05  8424   0.108E-03 0.635E-04
CGA:  43    -0.669226823883E+03   -0.10906E-03    0.58243E-05  8424   0.104E-03 0.653E-04
CGA:  44    -0.669226942452E+03   -0.11857E-03    0.46741E-05  8424   0.100E-03 0.670E-04
CGA:  45    -0.669227051869E+03   -0.10942E-03    0.48208E-05  8424   0.971E-04 0.685E-04
CGA:  46    -0.669227167667E+03   -0.11580E-03    0.40730E-05  8424   0.941E-04 0.697E-04
CGA:  47    -0.669227277114E+03   -0.10945E-03    0.40910E-05  8424   0.914E-04 0.706E-04
CGA:  48    -0.669227390510E+03   -0.11340E-03    0.36203E-05  8424   0.890E-04 0.711E-04
CGA:  49    -0.669227499638E+03   -0.10913E-03    0.35879E-05  8424   0.870E-04 0.714E-04
CGA:  50    -0.669227611017E+03   -0.11138E-03    0.32910E-05  8424   0.851E-04 0.715E-04
CGA:  51    -0.669227719506E+03   -0.10849E-03    0.32442E-05  8424   0.835E-04 0.714E-04
CGA:  52    -0.669227829212E+03   -0.10971E-03    0.30494E-05  8424   0.820E-04 0.711E-04
CGA:  53    -0.669227936795E+03   -0.10758E-03    0.30055E-05  8424   0.808E-04 0.706E-04
CGA:  54    -0.669228045104E+03   -0.10831E-03    0.28666E-05  8424   0.796E-04 0.701E-04
CGA:  55    -0.669228151576E+03   -0.10647E-03    0.28353E-05  8424   0.785E-04 0.694E-04
CGA:  56    -0.669228258693E+03   -0.10712E-03    0.27233E-05  8424   0.776E-04 0.687E-04
CGA:  57    -0.669228363902E+03   -0.10521E-03    0.27104E-05  8424   0.767E-04 0.680E-04
CGA:  58    -0.669228469976E+03   -0.10607E-03    0.26074E-05  8424   0.758E-04 0.671E-04
CGA:  59    -0.669228573819E+03   -0.10384E-03    0.26164E-05  8424   0.751E-04 0.663E-04
CGA:  60    -0.669228678949E+03   -0.10513E-03    0.25111E-05  8424   0.743E-04 0.654E-04
CGA:  61    -0.669228781369E+03   -0.10242E-03    0.25430E-05  8424   0.736E-04 0.644E-04
CGA:  62    -0.669228885606E+03   -0.10424E-03    0.24287E-05  8424   0.730E-04 0.635E-04
CGA:  63    -0.669228986592E+03   -0.10099E-03    0.24821E-05  8424   0.723E-04 0.626E-04
CGA:  64    -0.669229089945E+03   -0.10335E-03    0.23554E-05  8424   0.717E-04 0.617E-04
CGA:  65    -0.669229189527E+03   -0.99582E-04    0.24265E-05  8424   0.711E-04 0.607E-04
CGA:  66    -0.669229291968E+03   -0.10244E-03    0.22871E-05  8424   0.704E-04 0.599E-04
CGA:  67    -0.669229390206E+03   -0.98239E-04    0.23702E-05  8424   0.698E-04 0.590E-04
CGA:  68    -0.669229491680E+03   -0.10147E-03    0.22203E-05  8424   0.691E-04 0.581E-04
CGA:  69    -0.669229588657E+03   -0.96977E-04    0.23088E-05  8424   0.685E-04 0.573E-04
CGA:  70    -0.669229689093E+03   -0.10044E-03    0.21525E-05  8424   0.678E-04 0.565E-04
CGA:  71    -0.669229784894E+03   -0.95802E-04    0.22404E-05  8424   0.671E-04 0.558E-04
CGA:  72    -0.669229884224E+03   -0.99330E-04    0.20827E-05  8424   0.664E-04 0.551E-04
CGA:  73    -0.669229978926E+03   -0.94702E-04    0.21653E-05  8424   0.656E-04 0.544E-04
CGA:  74    -0.669230077094E+03   -0.98169E-04    0.20109E-05  8424   0.649E-04 0.538E-04
CGA:  75    -0.669230170754E+03   -0.93660E-04    0.20855E-05  8424   0.642E-04 0.531E-04
CGA:  76    -0.669230267726E+03   -0.96972E-04    0.19382E-05  8424   0.634E-04 0.525E-04
CGA:  77    -0.669230360380E+03   -0.92654E-04    0.20038E-05  8424   0.627E-04 0.519E-04
CGA:  78    -0.669230456140E+03   -0.95760E-04    0.18657E-05  8424   0.619E-04 0.513E-04
CGA:  79    -0.669230547804E+03   -0.91664E-04    0.19228E-05  8424   0.612E-04 0.508E-04
CGA:  80    -0.669230642356E+03   -0.94552E-04    0.17948E-05  8424   0.605E-04 0.502E-04
CGA:  81    -0.669230733032E+03   -0.90676E-04    0.18446E-05  8424   0.597E-04 0.497E-04
CGA:  82    -0.669230826392E+03   -0.93360E-04    0.17264E-05  8424   0.590E-04 0.491E-04
CGA:  83    -0.669230916071E+03   -0.89679E-04    0.17704E-05  8424   0.583E-04 0.486E-04
CGA:  84    -0.669231008263E+03   -0.92192E-04    0.16611E-05  8424   0.576E-04 0.480E-04
CGA:  85    -0.669231096931E+03   -0.88668E-04    0.17009E-05  8424   0.570E-04 0.475E-04
CGA:  86    -0.669231187982E+03   -0.91051E-04    0.15990E-05  8424   0.563E-04 0.469E-04
CGA:  87    -0.669231275626E+03   -0.87645E-04    0.16359E-05  8424   0.557E-04 0.464E-04
CGA:  88    -0.669231365562E+03   -0.89935E-04    0.15402E-05  8424   0.550E-04 0.459E-04
CGA:  89    -0.669231452172E+03   -0.86610E-04    0.15752E-05  8424   0.544E-04 0.453E-04
CGA:  90    -0.669231541015E+03   -0.88843E-04    0.14845E-05  8424   0.538E-04 0.448E-04
CGA:  91    -0.669231626583E+03   -0.85568E-04    0.15182E-05  8424   0.532E-04 0.443E-04
CGA:  92    -0.669231714353E+03   -0.87770E-04    0.14314E-05  8424   0.526E-04 0.437E-04
CGA:  93    -0.669231798880E+03   -0.84527E-04    0.14642E-05  8424   0.520E-04 0.432E-04
CGA:  94    -0.669231885588E+03   -0.86708E-04    0.13807E-05  8424   0.514E-04 0.427E-04
CGA:  95    -0.669231969077E+03   -0.83489E-04    0.14127E-05  8424   0.508E-04 0.422E-04
CGA:  96    -0.669232054733E+03   -0.85656E-04    0.13321E-05  8424   0.503E-04 0.417E-04
CGA:  97    -0.669232137192E+03   -0.82459E-04    0.13632E-05  8424   0.497E-04 0.412E-04
CGA:  98    -0.669232221801E+03   -0.84609E-04    0.12853E-05  8424   0.491E-04 0.407E-04
CGA:  99    -0.669232303242E+03   -0.81441E-04    0.13152E-05  8424   0.486E-04 0.402E-04
CGA: 100    -0.669232386808E+03   -0.83566E-04    0.12400E-05  8424   0.480E-04 0.398E-04
CGA: 101    -0.669232467242E+03   -0.80434E-04    0.12686E-05  8424   0.475E-04 0.393E-04
CGA: 102    -0.669232549768E+03   -0.82526E-04    0.11962E-05  8424   0.469E-04 0.388E-04
CGA: 103    -0.669232629207E+03   -0.79439E-04    0.12233E-05  8424   0.464E-04 0.384E-04
CGA: 104    -0.669232710697E+03   -0.81491E-04    0.11537E-05  8424   0.459E-04 0.379E-04
CGA: 105    -0.669232789151E+03   -0.78453E-04    0.11794E-05  8424   0.453E-04 0.375E-04
CGA: 106    -0.669232869613E+03   -0.80462E-04    0.11126E-05  8424   0.448E-04 0.371E-04
CGA: 107    -0.669232947089E+03   -0.77476E-04    0.11368E-05  8424   0.443E-04 0.366E-04
CGA: 108    -0.669233026531E+03   -0.79442E-04    0.10728E-05  8424   0.438E-04 0.362E-04
CGA: 109    -0.669233103037E+03   -0.76506E-04    0.10957E-05  8424   0.433E-04 0.358E-04
CGA: 110    -0.669233181467E+03   -0.78430E-04    0.10344E-05  8424   0.428E-04 0.354E-04
CGA: 111    -0.669233257009E+03   -0.75542E-04    0.10562E-05  8424   0.423E-04 0.350E-04
CGA: 112    -0.669233334439E+03   -0.77430E-04    0.99741E-06  8424   0.418E-04 0.346E-04
CGA: 113    -0.669233409022E+03   -0.74583E-04    0.10183E-05  8424   0.413E-04 0.342E-04
CGA: 114    -0.669233485463E+03   -0.76440E-04    0.96182E-06  8424   0.408E-04 0.338E-04
CGA: 115    -0.669233559092E+03   -0.73629E-04    0.98187E-06  8424   0.404E-04 0.334E-04
CGA: 116    -0.669233634554E+03   -0.75462E-04    0.92761E-06  8424   0.399E-04 0.330E-04
CGA: 117    -0.669233707235E+03   -0.72681E-04    0.94701E-06  8424   0.394E-04 0.326E-04
CGA: 118    -0.669233781729E+03   -0.74495E-04    0.89476E-06  8424   0.390E-04 0.323E-04
CGA: 119    -0.669233853468E+03   -0.71739E-04    0.91360E-06  8424   0.385E-04 0.319E-04
CGA: 120    -0.669233927005E+03   -0.73538E-04    0.86321E-06  8424   0.381E-04 0.315E-04
CGA: 121    -0.669233997808E+03   -0.70803E-04    0.88158E-06  8424   0.377E-04 0.312E-04
CGA: 122    -0.669234070398E+03   -0.72590E-04    0.83291E-06  8424   0.372E-04 0.308E-04
CGA: 123    -0.669234140273E+03   -0.69874E-04    0.85085E-06  8424   0.368E-04 0.305E-04
CGA: 124    -0.669234211925E+03   -0.71652E-04    0.80381E-06  8424   0.364E-04 0.301E-04
CGA: 125    -0.669234280879E+03   -0.68954E-04    0.82133E-06  8424   0.360E-04 0.298E-04
CGA: 126    -0.669234351602E+03   -0.70723E-04    0.77584E-06  8424   0.355E-04 0.294E-04
CGA: 127    -0.669234419644E+03   -0.68043E-04    0.79296E-06  8424   0.351E-04 0.291E-04
CGA: 128    -0.669234489445E+03   -0.69801E-04    0.74896E-06  8424   0.347E-04 0.287E-04
CGA: 129    -0.669234556586E+03   -0.67141E-04    0.76565E-06  8424   0.343E-04 0.284E-04
CGA: 130    -0.669234625473E+03   -0.68887E-04    0.72311E-06  8424   0.339E-04 0.281E-04
CGA: 131    -0.669234691721E+03   -0.66248E-04    0.73935E-06  8424   0.336E-04 0.278E-04
CGA: 132    -0.669234759701E+03   -0.67980E-04    0.69823E-06  8424   0.332E-04 0.274E-04
CGA: 133    -0.669234825066E+03   -0.65365E-04    0.71401E-06  8424   0.328E-04 0.271E-04
CGA: 134    -0.669234892148E+03   -0.67081E-04    0.67429E-06  8424   0.324E-04 0.268E-04
CGA: 135    -0.669234956640E+03   -0.64492E-04    0.68960E-06  8424   0.320E-04 0.265E-04
CGA: 136    -0.669235022830E+03   -0.66190E-04    0.65126E-06  8424   0.317E-04 0.262E-04
CGA: 137    -0.669235086460E+03   -0.63629E-04    0.66607E-06  8424   0.313E-04 0.259E-04
CGA: 138    -0.669235151765E+03   -0.65305E-04    0.62909E-06  8424   0.310E-04 0.256E-04
CGA: 139    -0.669235214541E+03   -0.62776E-04    0.64340E-06  8424   0.306E-04 0.253E-04
CGA: 140    -0.669235278970E+03   -0.64429E-04    0.60776E-06  8424   0.303E-04 0.250E-04
CGA: 141    -0.669235340903E+03   -0.61933E-04    0.62156E-06  8424   0.299E-04 0.247E-04
CGA: 142    -0.669235404463E+03   -0.63560E-04    0.58724E-06  8424   0.296E-04 0.244E-04
CGA: 143    -0.669235465562E+03   -0.61099E-04    0.60052E-06  8424   0.292E-04 0.242E-04
CGA: 144    -0.669235528261E+03   -0.62699E-04    0.56749E-06  8424   0.289E-04 0.239E-04
CGA: 145    -0.669235588536E+03   -0.60275E-04    0.58026E-06  8424   0.286E-04 0.236E-04
CGA: 146    -0.669235650382E+03   -0.61846E-04    0.54848E-06  8424   0.282E-04 0.233E-04
CGA: 147    -0.669235709841E+03   -0.59459E-04    0.56075E-06  8424   0.279E-04 0.231E-04
CGA: 148    -0.669235770843E+03   -0.61001E-04    0.53018E-06  8424   0.276E-04 0.228E-04
CGA: 149    -0.669235829495E+03   -0.58653E-04    0.54196E-06  8424   0.273E-04 0.225E-04
CGA: 150    -0.669235889661E+03   -0.60165E-04    0.51257E-06  8424   0.270E-04 0.223E-04
CGA: 151    -0.669235947516E+03   -0.57856E-04    0.52386E-06  8424   0.267E-04 0.220E-04
CGA: 152    -0.669236006854E+03   -0.59338E-04    0.49562E-06  8424   0.264E-04 0.218E-04
CGA: 153    -0.669236063921E+03   -0.57067E-04    0.50644E-06  8424   0.261E-04 0.215E-04
CGA: 154    -0.669236122439E+03   -0.58518E-04    0.47929E-06  8424   0.258E-04 0.213E-04
CGA: 155    -0.669236178726E+03   -0.56287E-04    0.48967E-06  8424   0.255E-04 0.210E-04
CGA: 156    -0.669236236434E+03   -0.57708E-04    0.46357E-06  8424   0.252E-04 0.208E-04
CGA: 157    -0.669236291950E+03   -0.55515E-04    0.47351E-06  8424   0.249E-04 0.206E-04
CGA: 158    -0.669236348857E+03   -0.56907E-04    0.44842E-06  8424   0.246E-04 0.203E-04
CGA: 159    -0.669236403608E+03   -0.54752E-04    0.45794E-06  8424   0.244E-04 0.201E-04
CGA: 160    -0.669236459723E+03   -0.56115E-04    0.43381E-06  8424   0.241E-04 0.199E-04
CGA: 161    -0.669236513719E+03   -0.53996E-04    0.44294E-06  8424   0.238E-04 0.196E-04
CGA: 162    -0.669236569051E+03   -0.55332E-04    0.41972E-06  8424   0.235E-04 0.194E-04
CGA: 163    -0.669236622300E+03   -0.53249E-04    0.42849E-06  8424   0.233E-04 0.192E-04
CGA: 164    -0.669236676858E+03   -0.54558E-04    0.40613E-06  8424   0.230E-04 0.190E-04
CGA: 165    -0.669236729367E+03   -0.52509E-04    0.41456E-06  8424   0.228E-04 0.188E-04
CGA: 166    -0.669236783160E+03   -0.53792E-04    0.39304E-06  8424   0.225E-04 0.186E-04
CGA: 167    -0.669236834938E+03   -0.51779E-04    0.40114E-06  8424   0.222E-04 0.183E-04
CGA: 168    -0.669236887975E+03   -0.53036E-04    0.38042E-06  8424   0.220E-04 0.181E-04
CGA: 169    -0.669236939030E+03   -0.51056E-04    0.38820E-06  8424   0.217E-04 0.179E-04
CGA: 170    -0.669236991319E+03   -0.52289E-04    0.36825E-06  8424   0.215E-04 0.177E-04
CGA: 171    -0.669237041660E+03   -0.50341E-04    0.37574E-06  8424   0.213E-04 0.175E-04
CGA: 172    -0.669237093210E+03   -0.51550E-04    0.35652E-06  8424   0.210E-04 0.173E-04
CGA: 173    -0.669237142845E+03   -0.49634E-04    0.36372E-06  8424   0.208E-04 0.171E-04
CGA: 174    -0.669237193665E+03   -0.50820E-04    0.34520E-06  8424   0.206E-04 0.170E-04
CGA: 175    -0.669237242600E+03   -0.48935E-04    0.35214E-06  8424   0.203E-04 0.168E-04
CGA: 176    -0.669237292699E+03   -0.50099E-04    0.33429E-06  8424   0.201E-04 0.166E-04
CGA: 177    -0.669237340944E+03   -0.48244E-04    0.34097E-06  8424   0.199E-04 0.164E-04
CGA: 178    -0.669237390330E+03   -0.49387E-04    0.32376E-06  8424   0.197E-04 0.162E-04
CGA: 179    -0.669237437892E+03   -0.47562E-04    0.33020E-06  8424   0.194E-04 0.160E-04
CGA: 180    -0.669237486575E+03   -0.48683E-04    0.31360E-06  8424   0.192E-04 0.158E-04
CGA: 181    -0.669237533462E+03   -0.46887E-04    0.31982E-06  8424   0.190E-04 0.157E-04
CGA: 182    -0.669237581449E+03   -0.47988E-04    0.30381E-06  8424   0.188E-04 0.155E-04
CGA: 183    -0.669237627669E+03   -0.46220E-04    0.30981E-06  8424   0.186E-04 0.153E-04
CGA: 184    -0.669237674970E+03   -0.47301E-04    0.29436E-06  8424   0.184E-04 0.151E-04
CGA: 185    -0.669237720531E+03   -0.45561E-04    0.30016E-06  8424   0.182E-04 0.150E-04
CGA: 186    -0.669237767152E+03   -0.46622E-04    0.28526E-06  8424   0.180E-04 0.148E-04
CGA: 187    -0.669237812063E+03   -0.44910E-04    0.29085E-06  8424   0.178E-04 0.146E-04
CGA: 188    -0.669237858014E+03   -0.45951E-04    0.27647E-06  8424   0.176E-04 0.145E-04
CGA: 189    -0.669237902281E+03   -0.44268E-04    0.28187E-06  8424   0.174E-04 0.143E-04
CGA: 190    -0.669237947570E+03   -0.45289E-04    0.26800E-06  8424   0.172E-04 0.142E-04
CGA: 191    -0.669237991203E+03   -0.43633E-04    0.27321E-06  8424   0.170E-04 0.140E-04
[...]
CGA:  10    -0.669531231531E+03   -0.21111E-02   -0.20571E-02  8424   0.288E-02 0.816E-03
CGA:  11    -0.669532212176E+03   -0.98065E-03   -0.95773E-03  8424   0.106E-02 0.234E-03
CGA:  12    -0.669532466574E+03   -0.25440E-03   -0.25048E-03  8424   0.371E-03 0.392E-03
CGA:  13    -0.669532553214E+03   -0.86640E-04   -0.93524E-04  8424   0.193E-03 0.267E-03
CGA:  14    -0.669532588751E+03   -0.35537E-04   -0.37440E-04  8424   0.121E-03 0.133E-03
CGA:  15    -0.669532592177E+03   -0.34265E-05   -0.13841E-04  8424   0.106E-03 0.112E-03
CGA:  16    -0.669532594353E+03   -0.21752E-05   -0.11623E-04  8424   0.969E-04 0.101E-03
  42 F= -.66953259E+03 E0= -.66953259E+03  d E =0.109149E+00  mag=     2.0000
       N       E                     dE             d eps       ncg     rms          ort
SDA:   1    -0.664223855113E+03    0.53087E+01    0.00000E+00  8424   0.178E+02 0.000E+00
CGA:   2    -0.667830822166E+03   -0.36070E+01   -0.36062E+01  8424   0.720E+01 0.537E-01
CGA:   3    -0.669355484223E+03   -0.15247E+01   -0.15250E+01  8424   0.228E+01-0.139E-01
CGA:   4    -0.669731447578E+03   -0.37596E+00   -0.37605E+00  8424   0.565E+00 0.168E-02
CGA:   5    -0.669828738277E+03   -0.97291E-01   -0.97333E-01  8424   0.118E+00 0.173E-02
CGA:   6    -0.669852289275E+03   -0.23551E-01   -0.23555E-01  8424   0.265E-01-0.645E-03
CGA:   7    -0.669858020845E+03   -0.57316E-02   -0.57045E-02  8424   0.748E-02 0.113E-02
CGA:   8    -0.669859798544E+03   -0.17777E-02   -0.17538E-02  8424   0.203E-02 0.766E-03
CGA:   9    -0.669860318512E+03   -0.51997E-03   -0.50567E-03  8424   0.623E-03 0.462E-03
CGA:  10    -0.669860420653E+03   -0.10214E-03   -0.11916E-03  8424   0.293E-03 0.415E-03
CGA:  11    -0.669860441048E+03   -0.20395E-04   -0.36121E-04  8424   0.182E-03 0.220E-03
CGA:  12    -0.669860442030E+03   -0.98215E-06   -0.16928E-04  8424   0.147E-03 0.163E-03
CGA:  13    -0.669860438177E+03    0.38530E-05   -0.11249E-04  8424   0.129E-03 0.137E-03
  43 F= -.66986044E+03 E0= -.66986044E+03  d E =-.327844E+00  mag=     2.0000
       N       E                     dE             d eps       ncg     rms          ort
SDA:   1    -0.664927403755E+03    0.49330E+01    0.00000E+00  8424   0.141E+02 0.000E+00
CGA:   2    -0.668171477617E+03   -0.32441E+01   -0.32423E+01  8424   0.652E+01 0.263E-01
CGA:   3    -0.669479768278E+03   -0.13083E+01   -0.13085E+01  8424   0.179E+01-0.731E-02
CGA:   4    -0.669769409191E+03   -0.28964E+00   -0.28967E+00  8424   0.426E+00 0.115E-02
CGA:   5    -0.669843167368E+03   -0.73758E-01   -0.73765E-01  8424   0.891E-01 0.129E-02
CGA:   6    -0.669861070195E+03   -0.17903E-01   -0.17905E-01  8424   0.205E-01-0.876E-04
CGA:   7    -0.669865616316E+03   -0.45461E-02   -0.45150E-02  8424   0.592E-02 0.749E-03
CGA:   8    -0.669867068575E+03   -0.14523E-02   -0.14278E-02  8424   0.174E-02 0.473E-03
CGA:   9    -0.669867543609E+03   -0.47503E-03   -0.45527E-03  8424   0.579E-03 0.333E-03
CGA:  10    -0.669867676297E+03   -0.13269E-03   -0.13141E-03  8424   0.254E-03 0.321E-03
CGA:  11    -0.669867710913E+03   -0.34616E-04   -0.39709E-04  8424   0.135E-03 0.168E-03
CGA:  12    -0.669867716846E+03   -0.59324E-05   -0.14903E-04  8424   0.108E-03 0.120E-03
  44 F= -.66986772E+03 E0= -.66986772E+03  d E =-.727867E-02  mag=     2.0000
       N       E                     dE             d eps       ncg     rms          ort
SDA:   1    -0.661141387021E+03    0.87263E+01    0.00000E+00  8424   0.217E+02 0.000E+00
CGA:   2    -0.667123787964E+03   -0.59824E+01   -0.59814E+01  8424   0.113E+02 0.830E-02
CGA:   3    -0.669180179546E+03   -0.20564E+01   -0.20564E+01  8424   0.248E+01 0.171E-02
CGA:   4    -0.669578872166E+03   -0.39869E+00   -0.39870E+00  8424   0.588E+00 0.152E-03
CGA:   5    -0.669681825568E+03   -0.10295E+00   -0.10296E+00  8424   0.128E+00 0.458E-03
CGA:   6    -0.669707628449E+03   -0.25803E-01   -0.25788E-01  8424   0.295E-01 0.691E-03
CGA:   7    -0.669714381713E+03   -0.67533E-02   -0.67457E-02  8424   0.900E-02 0.163E-03
CGA:   8    -0.669716617249E+03   -0.22355E-02   -0.22134E-02  8424   0.288E-02 0.365E-03
CGA:   9    -0.669717455890E+03   -0.83864E-03   -0.81767E-03  8424   0.103E-02 0.244E-03
CGA:  10    -0.669717794918E+03   -0.33903E-03   -0.32054E-03  8424   0.378E-03 0.195E-03
CGA:  11    -0.669717879656E+03   -0.84738E-04   -0.85731E-04  8424   0.129E-03 0.194E-03
CGA:  12    -0.669717895731E+03   -0.16075E-04   -0.19793E-04  8424   0.694E-04 0.885E-04
CGA:  13    -0.669717898117E+03   -0.23856E-05   -0.76065E-05  8424   0.557E-04 0.621E-04
  45 F= -.66971790E+03 E0= -.66971790E+03  d E =0.149819E+00  mag=     2.0000
       N       E                     dE             d eps       ncg     rms          ort
SDA:   1    -0.632922630287E+03    0.36795E+02    0.00000E+00  8424   0.136E+03 0.000E+00
CGA:   2    -0.655618145073E+03   -0.22696E+02   -0.22783E+02  8424   0.443E+02 0.224E+01
CGA:   3    -0.666067184063E+03   -0.10449E+02   -0.10466E+02  8424   0.151E+02-0.298E+00
CGA:   4    -0.668628169448E+03   -0.25610E+01   -0.25617E+01  8424   0.391E+01 0.155E-01
CGA:   5    -0.669276192267E+03   -0.64802E+00   -0.64840E+00  8424   0.815E+00 0.103E-01
CGA:   6    -0.669445101848E+03   -0.16891E+00   -0.16895E+00  8424   0.193E+00-0.167E-02
CGA:   7    -0.669489373074E+03   -0.44271E-01   -0.44209E-01  8424   0.592E-01 0.139E-02
CGA:   8    -0.669503724312E+03   -0.14351E-01   -0.14316E-01  8424   0.176E-01 0.659E-03
CGA:   9    -0.669508693107E+03   -0.49688E-02   -0.50617E-02  8424   0.656E-02-0.987E-03
CGA:  10    -0.669510470192E+03   -0.17771E-02   -0.17680E-02  8424   0.253E-02 0.988E-04
CGA:  11    -0.669511329816E+03   -0.85962E-03   -0.98927E-03  8424   0.147E-02-0.700E-03
CGA:  12    -0.669511605002E+03   -0.27519E-03   -0.28063E-03  8424   0.583E-03-0.101E-03
CGA:  13    -0.669510168507E+03    0.14365E-02   -0.78427E-03  8424   0.864E-02-0.193E-02
CGA:  14    -0.669511984716E+03   -0.18162E-02   -0.18575E-02  8424   0.135E-02 0.238E-03
CGA:  15    -0.669512409034E+03   -0.42432E-03   -0.38804E-03  8424   0.680E-03-0.372E-03
CGA:  16    -0.669512534064E+03   -0.12503E-03   -0.12330E-03  8424   0.221E-03-0.146E-04
CGA:  17    -0.669512705799E+03   -0.17173E-03    0.46251E-03  8424   0.123E-03 0.170E-04
CGA:  18    -0.669512876252E+03   -0.17045E-03    0.32439E-04  8424   0.183E-03-0.357E-04
CGA:  19    -0.669513138599E+03   -0.26235E-03    0.13527E-04  8424   0.159E-03-0.266E-05
CGA:  20    -0.669513426028E+03   -0.28743E-03    0.18917E-04  8424   0.308E-03-0.358E-04
CGA:  21    -0.669514106318E+03   -0.68029E-03    0.15049E-04  8424   0.369E-03-0.277E-04
CGA:  22    -0.669515003727E+03   -0.89741E-03    0.23261E-04  8424   0.827E-03-0.180E-03
CGA:  23    -0.669517020983E+03   -0.20173E-02    0.14186E-04  8424   0.151E-02-0.401E-03
CGA:  24    -0.669520584409E+03   -0.35634E-02    0.27087E-04  8424   0.343E-02-0.234E-02
CGA:  25    -0.669521209125E+03   -0.62472E-03   -0.60782E-03  8424   0.819E-03-0.907E-04
CGA:  26    -0.669521398764E+03   -0.18964E-03   -0.20207E-03  8424   0.120E-03 0.120E-03
CGA:  27    -0.669521409461E+03   -0.10697E-04   -0.25419E-04  8424   0.712E-04 0.877E-04
CGA:  28    -0.669521417548E+03   -0.80867E-05   -0.14583E-04  8424   0.462E-04 0.468E-04
  46 F= -.66952142E+03 E0= -.66952142E+03  d E =0.196481E+00  mag=     2.0000
       N       E                     dE             d eps       ncg     rms          ort
SDA:   1    -0.661964087336E+03    0.75573E+01    0.00000E+00  8424   0.257E+02 0.000E+00
CGA:   2    -0.667014544960E+03   -0.50505E+01   -0.50711E+01  8424   0.101E+02 0.524E-02
CGA:   3    -0.669154729517E+03   -0.21402E+01   -0.21369E+01  8424   0.325E+01-0.197E-02
CGA:   4    -0.669697534528E+03   -0.54281E+00   -0.54335E+00  8424   0.819E+00 0.112E-02
CGA:   5    -0.669838085428E+03   -0.14055E+00   -0.14083E+00  8424   0.173E+00 0.126E-02
CGA:   6    -0.669872309313E+03   -0.34224E-01   -0.34147E-01  8424   0.382E-01-0.726E-03
CGA:   7    -0.669880666698E+03   -0.83574E-02   -0.84190E-02  8424   0.112E-01 0.837E-03
CGA:   8    -0.669883309846E+03   -0.26431E-02   -0.26722E-02  8424   0.315E-02 0.507E-03
CGA:   9    -0.669884136749E+03   -0.82690E-03   -0.83558E-03  8424   0.979E-03 0.254E-03
CGA:  10    -0.669884343756E+03   -0.20701E-03   -0.23090E-03  8424   0.366E-03 0.351E-03
CGA:  11    -0.669884403608E+03   -0.59852E-04   -0.87186E-04  8424   0.172E-03 0.254E-03
CGA:  12    -0.669884409996E+03   -0.63879E-05   -0.23791E-04  8424   0.106E-03 0.125E-03
  47 F= -.66988441E+03 E0= -.66988441E+03  d E =-.362992E+00  mag=     2.0000
       N       E                     dE             d eps       ncg     rms          ort
SDA:   1    -0.665815680114E+03    0.40687E+01    0.00000E+00  8424   0.117E+02 0.000E+00
CGA:   2    -0.668432119281E+03   -0.26164E+01   -0.26177E+01  8424   0.533E+01 0.156E-01
CGA:   3    -0.669519879182E+03   -0.10878E+01   -0.10873E+01  8424   0.152E+01-0.366E-02
CGA:   4    -0.669765539491E+03   -0.24566E+00   -0.24577E+00  8424   0.358E+00 0.744E-03
CGA:   5    -0.669827191102E+03   -0.61652E-01   -0.61731E-01  8424   0.750E-01 0.850E-03
CGA:   6    -0.669842216162E+03   -0.15025E-01   -0.15021E-01  8424   0.172E-01-0.837E-04
CGA:   7    -0.669846003271E+03   -0.37871E-02   -0.38009E-02  8424   0.499E-02 0.548E-03
CGA:   8    -0.669847193987E+03   -0.11907E-02   -0.11952E-02  8424   0.146E-02 0.364E-03
CGA:   9    -0.669847575516E+03   -0.38153E-03   -0.38167E-03  8424   0.495E-03 0.274E-03
CGA:  10    -0.669847679229E+03   -0.10371E-03   -0.11617E-03  8424   0.228E-03 0.270E-03
CGA:  11    -0.669847706281E+03   -0.27052E-04   -0.38113E-04  8424   0.124E-03 0.149E-03
CGA:  12    -0.669847708541E+03   -0.22600E-05   -0.15171E-04  8424   0.102E-03 0.112E-03
CGA:  13    -0.669847706813E+03    0.17282E-05   -0.10624E-04  8424   0.909E-04 0.962E-04
  48 F= -.66984771E+03 E0= -.66984771E+03  d E =0.367032E-01  mag=     2.0000
       N       E                     dE             d eps       ncg     rms          ort
SDA:   1    -0.647638872188E+03    0.22209E+02    0.00000E+00  8424   0.669E+02 0.000E+00
CGA:   2    -0.661512214477E+03   -0.13873E+02   -0.13883E+02  8424   0.291E+02 0.410E+00
CGA:   3    -0.667780474327E+03   -0.62683E+01   -0.62677E+01  8424   0.873E+01-0.768E-01
CGA:   4    -0.669192479516E+03   -0.14120E+01   -0.14128E+01  8424   0.204E+01 0.444E-02
CGA:   5    -0.669537488111E+03   -0.34501E+00   -0.34532E+00  8424   0.427E+00 0.442E-02
CGA:   6    -0.669623951498E+03   -0.86463E-01   -0.86452E-01  8424   0.100E+00-0.935E-03
CGA:   7    -0.669646481300E+03   -0.22530E-01   -0.22515E-01  8424   0.293E-01 0.111E-02
CGA:   8    -0.669653638780E+03   -0.71575E-02   -0.71488E-02  8424   0.901E-02 0.304E-03
CGA:   9    -0.669656217352E+03   -0.25786E-02   -0.26018E-02  8424   0.338E-02-0.327E-03
CGA:  10    -0.669657172817E+03   -0.95546E-03   -0.94218E-03  8424   0.129E-02 0.185E-03
CGA:  11    -0.669657625754E+03   -0.45294E-03   -0.47596E-03  8424   0.604E-03-0.183E-03
CGA:  12    -0.669657767985E+03   -0.14223E-03   -0.14060E-03  8424   0.244E-03 0.360E-04
CGA:  13    -0.669657706079E+03    0.61906E-04   -0.26383E-03  8424   0.159E-02-0.420E-03
CGA:  14    -0.669658042818E+03   -0.33674E-03   -0.34203E-03  8424   0.288E-03 0.969E-04
CGA:  15    -0.669658131883E+03   -0.89065E-04   -0.16323E-03  8424   0.778E-03-0.279E-03
CGA:  16    -0.669658222640E+03   -0.90758E-04   -0.10545E-03  8424   0.112E-03 0.101E-03
CGA:  17    -0.669657798164E+03    0.42448E-03   -0.23138E-03  8424   0.255E-02-0.432E-03
CGA:  18    -0.669658540770E+03   -0.74261E-03   -0.72235E-03  8424   0.406E-03-0.952E-04
CGA:  19    -0.669658595485E+03   -0.54715E-04   -0.62364E-04  8424   0.677E-04 0.230E-04
CGA:  20    -0.669658672191E+03   -0.76705E-04    0.12227E-03  8424   0.718E-04 0.161E-04
CGA:  21    -0.669658815361E+03   -0.14317E-03    0.29429E-04  8424   0.131E-03 0.316E-04
CGA:  22    -0.669659123336E+03   -0.30797E-03    0.59918E-04  8424   0.116E-03 0.118E-03
CGA:  23    -0.669659179413E+03   -0.56077E-04   -0.57263E-04  8424   0.167E-03-0.578E-04
CGA:  24    -0.669659283947E+03   -0.10453E-03    0.61913E-04  8424   0.171E-03-0.169E-04
CGA:  25    -0.669659450568E+03   -0.16662E-03    0.23881E-03  8424   0.280E-03-0.484E-04
CGA:  26    -0.669659788401E+03   -0.33783E-03    0.60382E-04  8424   0.348E-03 0.316E-04
CGA:  27    -0.669660242325E+03   -0.45392E-03    0.38070E-03  8424   0.464E-03-0.114E-03
CGA:  28    -0.669660906333E+03   -0.66401E-03    0.59108E-04  8424   0.492E-03-0.380E-04
CGA:  29    -0.669661659805E+03   -0.75347E-03    0.13848E-03  8424   0.680E-03-0.327E-03
CGA:  30    -0.669661826838E+03   -0.16703E-03   -0.17434E-03  8424   0.788E-04 0.338E-04
CGA:  31    -0.669661865469E+03   -0.38631E-04   -0.38638E-04  8424   0.245E-04-0.144E-05
CGA:  32    -0.669661872145E+03   -0.66766E-05   -0.69160E-05  8424   0.900E-05 0.132E-05
  49 F= -.66966187E+03 E0= -.66966187E+03  d E =0.185835E+00  mag=     2.0000
       N       E                     dE             d eps       ncg     rms          ort
SDA:   1    -0.648446030010E+03    0.21216E+02    0.00000E+00  8424   0.710E+02 0.000E+00
CGA:   2    -0.661866656931E+03   -0.13421E+02   -0.13592E+02  8424   0.276E+02-0.164E+00
CGA:   3    -0.667752367414E+03   -0.58857E+01   -0.58604E+01  8424   0.871E+01 0.115E+00
CGA:   4    -0.669249861009E+03   -0.14975E+01   -0.15018E+01  8424   0.221E+01 0.591E-02
CGA:   5    -0.669621699718E+03   -0.37184E+00   -0.37344E+00  8424   0.486E+00 0.131E-02
CGA:   6    -0.669716468378E+03   -0.94769E-01   -0.94474E-01  8424   0.108E+00-0.916E-03
CGA:   7    -0.669740335732E+03   -0.23867E-01   -0.24063E-01  8424   0.328E-01 0.121E-02
CGA:   8    -0.669748074356E+03   -0.77386E-02   -0.78272E-02  8424   0.957E-02 0.637E-03
CGA:   9    -0.669750703089E+03   -0.26287E-02   -0.26363E-02  8424   0.311E-02 0.749E-04
CGA:  10    -0.669751537784E+03   -0.83470E-03   -0.86603E-03  8424   0.116E-02 0.356E-03
CGA:  11    -0.669751869865E+03   -0.33208E-03   -0.35243E-03  8424   0.380E-03 0.233E-03
CGA:  12    -0.669751908684E+03   -0.38819E-04   -0.80982E-04  8424   0.169E-03 0.236E-03
CGA:  13    -0.669751904785E+03    0.38989E-05   -0.23006E-04  8424   0.108E-03 0.128E-03
CGA:  14    -0.669751892902E+03    0.11883E-04   -0.11149E-04  8424   0.916E-04 0.989E-04
CGA:  15    -0.669751880357E+03    0.12546E-04   -0.80634E-05  8424   0.830E-04 0.871E-04
CGA:  16    -0.669751867965E+03    0.12392E-04   -0.64542E-05  8424   0.775E-04 0.802E-04
CGA:  17    -0.669751855976E+03    0.11989E-04   -0.54379E-05  8424   0.736E-04 0.755E-04
CGA:  18    -0.669751844465E+03    0.11511E-04   -0.47195E-05  8424   0.706E-04 0.720E-04
CGA:  19    -0.669751833451E+03    0.11014E-04   -0.41753E-05  8424   0.682E-04 0.694E-04
CGA:  20    -0.669751822929E+03    0.10522E-04   -0.37437E-05  8424   0.663E-04 0.672E-04
CGA:  21    -0.669751812885E+03    0.10044E-04   -0.33898E-05  8424   0.646E-04 0.654E-04
CGA:  22    -0.669751803300E+03    0.95846E-05   -0.30924E-05  8424   0.632E-04 0.639E-04
  50 F= -.66975180E+03 E0= -.66975180E+03  d E =-.899312E-01  mag=     2.0000
       N       E                     dE             d eps       ncg     rms          ort
SDA:   1    -0.668735642027E+03    0.10162E+01    0.00000E+00  8424   0.281E+01 0.000E+00
CGA:   2    -0.669453812259E+03   -0.71817E+00   -0.71814E+00  8424   0.147E+01 0.580E-03
CGA:   3    -0.669736304364E+03   -0.28249E+00   -0.28250E+00  8424   0.353E+00-0.522E-04
CGA:   4    -0.669791812268E+03   -0.55508E-01   -0.55524E-01  8424   0.805E-01 0.174E-03
CGA:   5    -0.669805722779E+03   -0.13911E-01   -0.13928E-01  8424   0.170E-01 0.345E-03
CGA:   6    -0.669809114365E+03   -0.33916E-02   -0.33998E-02  8424   0.392E-02 0.391E-03
CGA:   7    -0.669809937110E+03   -0.82274E-03   -0.82762E-03  8424   0.106E-02 0.386E-03
CGA:   8    -0.669810137152E+03   -0.20004E-03   -0.21284E-03  8424   0.334E-03 0.363E-03
CGA:   9    -0.669810171499E+03   -0.34348E-04   -0.57621E-04  8424   0.173E-03 0.263E-03
CGA:  10    -0.669810172463E+03   -0.96315E-06   -0.17048E-04  8424   0.122E-03 0.141E-03
  51 F= -.66981017E+03 E0= -.66981017E+03  d E =-.583692E-01  mag=     2.0000
       N       E                     dE             d eps       ncg     rms          ort
SDA:   1    -0.646963722594E+03    0.22846E+02    0.00000E+00  8424   0.704E+02 0.000E+00
CGA:   2    -0.661303823333E+03   -0.14340E+02   -0.14337E+02  8424   0.296E+02 0.476E+00
CGA:   3    -0.667650177453E+03   -0.63464E+01   -0.63483E+01  8424   0.906E+01-0.968E-01
CGA:   4    -0.669131897458E+03   -0.14817E+01   -0.14825E+01  8424   0.217E+01 0.809E-02
CGA:   5    -0.669500746011E+03   -0.36885E+00   -0.36909E+00  8424   0.465E+00 0.596E-02
CGA:   6    -0.669593199710E+03   -0.92454E-01   -0.92455E-01  8424   0.108E+00-0.121E-02
CGA:   7    -0.669617261499E+03   -0.24062E-01   -0.24016E-01  8424   0.322E-01 0.176E-02
CGA:   8    -0.669625149742E+03   -0.78882E-02   -0.78650E-02  8424   0.983E-02 0.565E-03
CGA:   9    -0.669627936436E+03   -0.27867E-02   -0.27888E-02  8424   0.350E-02-0.281E-04
CGA:  10    -0.669628914010E+03   -0.97757E-03   -0.94766E-03  8424   0.127E-02 0.451E-03
CGA:  11    -0.669629332983E+03   -0.41897E-03   -0.40625E-03  8424   0.421E-03 0.166E-03
CGA:  12    -0.669629426919E+03   -0.93936E-04   -0.95975E-04  8424   0.161E-03 0.198E-03
CGA:  13    -0.669629461098E+03   -0.34179E-04   -0.39899E-04  8424   0.920E-04 0.133E-03
CGA:  14    -0.669629477824E+03   -0.16726E-04   -0.17815E-04  8424   0.638E-04 0.689E-04
CGA:  15    -0.669629480809E+03   -0.29845E-05   -0.80085E-05  8424   0.578E-04 0.603E-04
  52 F= -.66962948E+03 E0= -.66962948E+03  d E =0.180692E+00  mag=     2.0000
       N       E                     dE             d eps       ncg     rms          ort
SDA:   1    -0.655519855919E+03    0.14110E+02    0.00000E+00  8424   0.475E+02 0.000E+00
CGA:   2    -0.664517396101E+03   -0.89975E+01   -0.90024E+01  8424   0.184E+02 0.230E+00
CGA:   3    -0.668468023571E+03   -0.39506E+01   -0.39518E+01  8424   0.601E+01-0.613E-01
CGA:   4    -0.669486439599E+03   -0.10184E+01   -0.10188E+01  8424   0.151E+01 0.549E-02
CGA:   5    -0.669741060234E+03   -0.25462E+00   -0.25481E+00  8424   0.332E+00 0.458E-02
CGA:   6    -0.669805637980E+03   -0.64578E-01   -0.64568E-01  8424   0.740E-01-0.258E-02
CGA:   7    -0.669821739247E+03   -0.16101E-01   -0.16076E-01  8424   0.220E-01 0.120E-02
CGA:   8    -0.669827117984E+03   -0.53787E-02   -0.53753E-02  8424   0.644E-02 0.833E-04
CGA:   9    -0.669828980983E+03   -0.18630E-02   -0.19419E-02  8424   0.257E-02-0.794E-03
CGA:  10    -0.669829683813E+03   -0.70283E-03   -0.76150E-03  8424   0.131E-02-0.447E-03
CGA:  11    -0.669828949642E+03    0.73417E-03   -0.96901E-03  8424   0.753E-02-0.250E-02
CGA:  12    -0.669830155744E+03   -0.12061E-02   -0.12536E-02  8424   0.957E-03 0.592E-03
CGA:  13    -0.669830439239E+03   -0.28349E-03   -0.56747E-03  8424   0.197E-02-0.925E-03
CGA:  14    -0.669830646786E+03   -0.20755E-03   -0.25893E-03  8424   0.310E-03 0.408E-03
CGA:  15    -0.669830763978E+03   -0.11719E-03   -0.14659E-03  8424   0.279E-03-0.211E-03
CGA:  16    -0.669830915202E+03   -0.15122E-03    0.74091E-03  8424   0.995E-04-0.278E-04
CGA:  17    -0.669830944579E+03   -0.29377E-04   -0.33245E-04  8424   0.137E-03-0.349E-04
CGA:  18    -0.669831093017E+03   -0.14844E-03    0.54292E-05  8424   0.103E-03 0.604E-04
CGA:  19    -0.669831299404E+03   -0.20639E-03    0.12077E-04  8424   0.105E-03 0.135E-04
CGA:  20    -0.669831480893E+03   -0.18149E-03    0.81952E-05  8424   0.714E-04 0.491E-04
CGA:  21    -0.669831610414E+03   -0.12952E-03    0.10375E-04  8424   0.104E-03 0.253E-04
CGA:  22    -0.669831904650E+03   -0.29424E-03    0.62657E-05  8424   0.114E-03 0.907E-04
CGA:  23    -0.669832014071E+03   -0.10942E-03    0.18592E-04  8424   0.110E-03-0.629E-04
CGA:  24    -0.669832013937E+03    0.13379E-06   -0.89045E-05  8424   0.287E-04 0.494E-04
