       N       E                     dE             d eps       ncg     rms          ort
DAV:   1     0.827010349961E+04    0.82701E+04   -0.24654E+05  8424   0.238E+03
DAV:   2     0.919493314675E+03   -0.73506E+04   -0.68981E+04  8424   0.656E+02
DAV:   3    -0.674707006088E+03   -0.15942E+04   -0.14012E+04  8424   0.282E+02
DAV:   4    -0.830633287226E+03   -0.15593E+03   -0.15321E+03  8424   0.857E+01
DAV:   5    -0.833127310289E+03   -0.24940E+01   -0.24831E+01  8424   0.122E+01
SDA:   6    -0.257793635648E+03    0.57533E+03   -0.24831E+01  8424   0.405E+04 0.000E+00
CGA:   7    -0.562732618619E+03   -0.30494E+03   -0.40612E+03  8424   0.631E+04-0.724E+03
CGA:   8    -0.550998340226E+03    0.11734E+02   -0.26539E+03  8424   0.920E+03-0.195E+04
CGA:   9    -0.525191406142E+03    0.25807E+02   -0.46609E+02  8424   0.672E+04-0.791E+03
CGA:  10    -0.368568815999E+03    0.15662E+03   -0.44529E+03  8424   0.198E+05-0.947E+04
CGA:  11    -0.304906996179E+03    0.63662E+02   -0.14710E+04  8424   0.449E+04-0.372E+04
CGA:  12    -0.627331485815E+03   -0.32242E+03   -0.15797E+03  8424   0.545E+03 0.165E+02
CGA:  13    -0.652055197564E+03   -0.24724E+02   -0.17359E+02  8424   0.149E+03 0.142E+03
CGA:  14    -0.657746283268E+03   -0.56911E+01   -0.48133E+01  8424   0.501E+02 0.414E+02
CGA:  15    -0.659151685095E+03   -0.14054E+01   -0.94350E+00  8424   0.252E+02 0.396E+02
CGA:  16    -0.660121105491E+03   -0.96942E+00   -0.55094E+00  8424   0.157E+02 0.185E+02
CGA:  17    -0.662300932273E+03   -0.21798E+01   -0.21333E+01  8424   0.529E+02-0.750E+01
CGA:  18    -0.662687676250E+03   -0.38674E+00   -0.23860E+00  8424   0.612E+02 0.154E+02
CGA:  19    -0.662893645029E+03   -0.20597E+00   -0.16552E+01  8424   0.153E+03-0.140E+03
CGA:  20    -0.664276870120E+03   -0.13832E+01   -0.95494E+01  8424   0.213E+02-0.127E+02
CGA:  21    -0.665249847459E+03   -0.97298E+00   -0.54081E+00  8424   0.114E+02 0.153E+02
CGA:  22    -0.665816366193E+03   -0.56652E+00   -0.34829E+00  8424   0.467E+01 0.691E+01
CGA:  23    -0.666264324471E+03   -0.44796E+00   -0.36083E+00  8424   0.393E+01 0.233E+00
CGA:  24    -0.666940035713E+03   -0.67571E+00   -0.76558E+00  8424   0.168E+02-0.169E+01
CGA:  25    -0.667055478686E+03   -0.11544E+00   -0.64006E-01  8424   0.158E+02 0.692E+01
CGA:  26    -0.667459901519E+03   -0.40442E+00   -0.40615E+00  8424   0.577E+01 0.107E+00
CGA:  27    -0.667583860731E+03   -0.12396E+00   -0.18218E+00  8424   0.258E+01-0.108E+01
CGA:  28    -0.667661439119E+03   -0.77578E-01   -0.10526E+00  8424   0.122E+01-0.305E+00
CGA:  29    -0.667793522783E+03   -0.13208E+00   -0.13330E+00  8424   0.535E+00-0.480E-01
CGA:  30    -0.667849467654E+03   -0.55945E-01   -0.55615E-01  8424   0.371E+00 0.272E-01
CGA:  31    -0.667906021817E+03   -0.56554E-01   -0.53561E-01  8424   0.190E+00 0.545E-01
CGA:  32    -0.667950490408E+03   -0.44469E-01   -0.43779E-01  8424   0.155E+00 0.484E-02
CGA:  33    -0.667985345755E+03   -0.34855E-01   -0.42640E-01  8424   0.114E+00-0.491E-01
CGA:  34    -0.667997838264E+03   -0.12493E-01   -0.31296E-01  8424   0.152E+00-0.648E-01
CGA:  35    -0.668022365712E+03   -0.24527E-01   -0.25092E-01  8424   0.703E-01-0.161E-01
CGA:  36    -0.668043587115E+03   -0.21221E-01   -0.32435E-01  8424   0.967E-01-0.286E-01
CGA:  37    -0.668051602841E+03   -0.80157E-02   -0.78033E-02  8424   0.269E-01-0.132E-01
CGA:  38    -0.668056315100E+03   -0.47123E-02   -0.90916E-02  8424   0.867E-01-0.181E-01
CGA:  39    -0.668065466002E+03   -0.91509E-02   -0.92679E-02  8424   0.112E-01 0.107E-02
CGA:  40    -0.668069092012E+03   -0.36260E-02   -0.57742E-02  8424   0.277E-01-0.623E-02
CGA:  41    -0.668073090796E+03   -0.39988E-02   -0.39425E-02  8424   0.560E-02-0.169E-02
CGA:  42    -0.668072049553E+03    0.10412E-02   -0.32196E-02  8424   0.560E-01-0.100E-01
CGA:  43    -0.668077748909E+03   -0.56994E-02   -0.57655E-02  8424   0.599E-02-0.449E-03
CGA:  44    -0.668078941049E+03   -0.11921E-02   -0.28864E-02  8424   0.169E-01-0.585E-02
CGA:  45    -0.668081717232E+03   -0.27762E-02   -0.27551E-02  8424   0.556E-02-0.539E-03
CGA:  46    -0.668082831817E+03   -0.11146E-02   -0.20288E-02  8424   0.176E-01-0.540E-02
CGA:  47    -0.668085008843E+03   -0.21770E-02   -0.21654E-02  8424   0.429E-02-0.324E-03
CGA:  48    -0.668073343165E+03    0.11666E-01   -0.61480E-02  8424   0.135E+00-0.157E-01
CGA:  49    -0.668090391277E+03   -0.17048E-01   -0.17927E-01  8424   0.298E-01-0.255E-02
CGA:  50    -0.668095528481E+03   -0.51372E-02   -0.47747E-02  8424   0.273E-02-0.129E-02
CGA:  51    -0.668097587487E+03   -0.20590E-02    0.46096E-02  8424   0.241E-02 0.138E-02
CGA:  52    -0.668079516285E+03    0.18071E-01   -0.90010E-02  8424   0.329E+00-0.131E-01
CGA:  53    -0.668106000435E+03   -0.26484E-01   -0.35971E-01  8424   0.347E-01-0.682E-01
CGA:  54    -0.668110950980E+03   -0.49505E-02   -0.41213E-02  8424   0.306E-02 0.208E-03
CGA:  55    -0.668112919824E+03   -0.19688E-02   -0.20664E-02  8424   0.159E-01-0.148E-02
CGA:  56    -0.668118041795E+03   -0.51220E-02   -0.30232E-02  8424   0.409E-01-0.847E-02
CGA:  57    -0.668129578234E+03   -0.11536E-01   -0.11104E-01  8424   0.603E-02-0.152E-02
CGA:  58    -0.668131591427E+03   -0.20132E-02   -0.17344E-02  8424   0.629E-02-0.101E-02
CGA:  59    -0.668134641461E+03   -0.30500E-02   -0.45099E-02  8424   0.765E-01-0.516E-02
CGA:  60    -0.668143142144E+03   -0.85007E-02   -0.70844E-02  8424   0.851E-02 0.170E-02
CGA:  61    -0.668146306687E+03   -0.31645E-02   -0.27323E-02  8424   0.723E-02-0.184E-02
CGA:  62    -0.668072555577E+03    0.73751E-01   -0.38402E-01  8424   0.567E+00-0.327E-01
CGA:  63    -0.668182674699E+03   -0.11012E+00   -0.11061E+00  8424   0.821E-01-0.119E-01
CGA:  64    -0.668202726652E+03   -0.20052E-01   -0.19856E-01  8424   0.728E-02-0.115E-03
CGA:  65    -0.668208231750E+03   -0.55051E-02   -0.45917E-02  8424   0.247E-01-0.317E-02
CGA:  66    -0.668212810886E+03   -0.45791E-02   -0.16526E-02  8424   0.261E-01 0.809E-02
CGA:  67    -0.668219643086E+03   -0.68322E-02   -0.32321E-02  8424   0.139E-01 0.185E-01
CGA:  68    -0.668226307686E+03   -0.66646E-02   -0.56024E-02  8424   0.207E-01-0.263E-02
CGA:  69    -0.668229868471E+03   -0.35608E-02   -0.23440E-02  8424   0.114E-01 0.190E-02
CGA:  70    -0.668237738665E+03   -0.78702E-02   -0.48694E-02  8424   0.422E-01-0.212E-02
CGA:  71    -0.668241594237E+03   -0.38556E-02   -0.13120E-02  8424   0.461E-01 0.255E-01
CGA:  72    -0.668247848169E+03   -0.62539E-02   -0.53984E-02  8424   0.153E-01-0.327E-02
CGA:  73    -0.668252154595E+03   -0.43064E-02   -0.35209E-02  8424   0.154E-01-0.443E-03
CGA:  74    -0.668212852278E+03    0.39302E-01   -0.23818E-01  8424   0.976E+00-0.769E-01
CGA:  75    -0.668220058853E+03   -0.72066E-02   -0.11818E+00  8424   0.138E+01-0.866E+00
CGA:  76    -0.668200498750E+03    0.19560E-01   -0.14713E+00  8424   0.190E+01-0.161E+01
CGA:  77    -0.668159277802E+03    0.41221E-01   -0.21323E+00  8424   0.275E+01-0.215E+01
CGA:  78    -0.668037566690E+03    0.12171E+00   -0.31532E+00  8424   0.529E+01-0.393E+01
CGA:  79    -0.667786034689E+03    0.25153E+00   -0.65087E+00  8424   0.867E+01-0.604E+01
CGA:  80    -0.667283786023E+03    0.50225E+00   -0.10572E+01  8424   0.172E+02-0.124E+02
CGA:  81    -0.666979008515E+03    0.30478E+00   -0.20231E+01  8424   0.170E+02-0.145E+02
CGA:  82    -0.666988942734E+03   -0.99342E-02   -0.18348E+01  8424   0.207E+02-0.211E+02
CGA:  83    -0.667131092727E+03   -0.14215E+00   -0.21495E+01  8424   0.162E+02-0.170E+02
CGA:  84    -0.667045184213E+03    0.85909E-01   -0.17072E+01  8424   0.206E+02-0.202E+02
CGA:  85    -0.666988411166E+03    0.56773E-01   -0.21836E+01  8424   0.181E+02-0.175E+02
CGA:  86    -0.667068942547E+03   -0.80531E-01   -0.18178E+01  8424   0.207E+02-0.217E+02
CGA:  87    -0.667043198163E+03    0.25744E-01   -0.21119E+01  8424   0.183E+02-0.180E+02
CGA:  88    -0.667104247022E+03   -0.61049E-01   -0.17961E+01  8424   0.205E+02-0.213E+02
CGA:  89    -0.667149722941E+03   -0.45476E-01   -0.19977E+01  8424   0.181E+02-0.183E+02
CGA:  90    -0.667166908426E+03   -0.17185E-01   -0.17333E+01  8424   0.198E+02-0.202E+02
CGA:  91    -0.667297285298E+03   -0.13038E+00   -0.18389E+01  8424   0.172E+02-0.181E+02
CGA:  92    -0.667276759002E+03    0.20526E-01   -0.16143E+01  8424   0.185E+02-0.185E+02
CGA:  93    -0.667482969637E+03   -0.20621E+00   -0.16255E+01  8424   0.155E+02-0.172E+02
CGA:  94    -0.667452073836E+03    0.30896E-01   -0.14149E+01  8424   0.162E+02-0.160E+02
CGA:  95    -0.667711715304E+03   -0.25964E+00   -0.13361E+01  8424   0.125E+02-0.148E+02
CGA:  96    -0.667710829335E+03    0.88597E-03   -0.10963E+01  8424   0.122E+02-0.123E+02
CGA:  97    -0.667989157508E+03   -0.27833E+00   -0.92891E+00  8424   0.769E+01-0.102E+02
CGA:  98    -0.668057851672E+03   -0.68694E-01   -0.61325E+00  8424   0.592E+01-0.668E+01
CGA:  99    -0.668268479612E+03   -0.21063E+00   -0.37126E+00  8424   0.155E+01-0.314E+01
CGA: 100    -0.668323826312E+03   -0.55347E-01   -0.84123E-01  8424   0.171E+00-0.477E+00
CGA: 101    -0.668332960683E+03   -0.91344E-02   -0.86189E-02  8424   0.169E-01-0.145E-02
CGA: 102    -0.668340610823E+03   -0.76501E-02   -0.66521E-02  8424   0.918E-01 0.597E-02
CGA: 103    -0.667649109189E+03    0.69150E+00   -0.11342E+00  8424   0.869E+01-0.148E+01
CGA: 104    -0.668468066125E+03   -0.81896E+00   -0.94576E+00  8424   0.192E+00-0.525E+00
CGA: 105    -0.668499489512E+03   -0.31423E-01   -0.31366E-01  8424   0.368E-01-0.381E-03
CGA: 106    -0.668510856058E+03   -0.11367E-01   -0.11334E-01  8424   0.153E-01 0.740E-03
CGA: 107    -0.668515875391E+03   -0.50193E-02   -0.50817E-02  8424   0.130E-01-0.106E-02
CGA: 108    -0.668520688558E+03   -0.48132E-02   -0.49822E-02  8424   0.113E-01-0.140E-02
CGA: 109    -0.668524725685E+03   -0.40371E-02   -0.47132E-02  8424   0.157E-01-0.390E-02
CGA: 110    -0.668528327719E+03   -0.36020E-02   -0.41932E-02  8424   0.149E-01-0.546E-02
CGA: 111    -0.668531206513E+03   -0.28788E-02   -0.51858E-02  8424   0.271E-01-0.103E-01
CGA: 112    -0.668535476574E+03   -0.42701E-02   -0.43413E-02  8424   0.944E-02 0.221E-03
CGA: 113    -0.668539568293E+03   -0.40917E-02   -0.41813E-02  8424   0.110E-01-0.688E-03
CGA: 114    -0.668543609116E+03   -0.40408E-02   -0.41332E-02  8424   0.626E-02-0.992E-03
CGA: 115    -0.668546022564E+03   -0.24134E-02   -0.27451E-02  8424   0.799E-02-0.205E-02
CGA: 116    -0.668547990087E+03   -0.19675E-02   -0.25492E-02  8424   0.777E-02-0.400E-02
CGA: 117    -0.668550217561E+03   -0.22275E-02   -0.21958E-02  8424   0.567E-02-0.663E-03
CGA: 118    -0.668552277603E+03   -0.20600E-02   -0.23240E-02  8424   0.677E-02-0.220E-02
CGA: 119    -0.668550227490E+03    0.20501E-02   -0.42361E-02  8424   0.474E-01-0.934E-02
CGA: 120    -0.668556292991E+03   -0.60655E-02   -0.62118E-02  8424   0.740E-02-0.500E-03
CGA: 121    -0.668559497741E+03   -0.32048E-02   -0.33561E-02  8424   0.603E-02-0.150E-02
CGA: 122    -0.668561359808E+03   -0.18621E-02   -0.19378E-02  8424   0.508E-02-0.188E-02
CGA: 123    -0.668558920910E+03    0.24389E-02   -0.40224E-02  8424   0.435E-01-0.832E-02
CGA: 124    -0.668565172422E+03   -0.62515E-02   -0.63182E-02  8424   0.660E-02-0.249E-03
CGA: 125    -0.668567644797E+03   -0.24724E-02   -0.24516E-02  8424   0.533E-02-0.126E-02
CGA: 126    -0.668569653006E+03   -0.20082E-02   -0.24023E-02  8424   0.834E-02-0.238E-02
CGA: 127    -0.668571414320E+03   -0.17613E-02   -0.15429E-02  8424   0.434E-02-0.342E-02
CGA: 128    -0.668573545188E+03   -0.21309E-02    0.89693E-02  8424   0.393E-02-0.388E-03
CGA: 129    -0.668576834752E+03   -0.32896E-02    0.42437E-02  8424   0.344E-02 0.863E-03
CGA: 130    -0.668580654941E+03   -0.38202E-02    0.53738E-02  8424   0.295E-02 0.899E-03
CGA: 131    -0.668584411342E+03   -0.37564E-02    0.26010E-02  8424   0.256E-02 0.680E-03
CGA: 132    -0.668588008010E+03   -0.35967E-02    0.13976E-02  8424   0.233E-02 0.230E-03
CGA: 133    -0.668591814096E+03   -0.38061E-02    0.55318E-03  8424   0.206E-02 0.740E-03
CGA: 134    -0.668596195358E+03   -0.43813E-02    0.51085E-03  8424   0.174E-02 0.134E-02
CGA: 135    -0.668595963424E+03    0.23193E-03   -0.20447E-02  8424   0.182E-01-0.294E-02
CGA: 136    -0.668599018199E+03   -0.30548E-02   -0.29623E-02  8424   0.171E-02-0.446E-03
CGA: 137    -0.668599698315E+03   -0.68012E-03   -0.64411E-03  8424   0.254E-02-0.104E-02
CGA: 138    -0.668600236385E+03   -0.53807E-03   -0.44780E-03  8424   0.739E-03-0.388E-03
CGA: 139    -0.668601066540E+03   -0.83016E-03    0.20111E-03  8424   0.777E-03 0.663E-04
CGA: 140    -0.668602662258E+03   -0.15957E-02    0.13012E-03  8424   0.394E-03 0.692E-03
CGA: 141    -0.668603322836E+03   -0.66058E-03    0.74940E-04  8424   0.443E-03 0.199E-03
CGA: 142    -0.668603895591E+03   -0.57275E-03    0.15184E-03  8424   0.990E-03-0.191E-04
CGA: 143    -0.668605968904E+03   -0.20733E-02    0.11330E-03  8424   0.107E-02 0.813E-03
CGA: 144    -0.668606398254E+03   -0.42935E-03   -0.47287E-03  8424   0.364E-02-0.122E-02
CGA: 145    -0.668607020447E+03   -0.62219E-03   -0.54823E-03  8424   0.478E-03-0.270E-03
CGA: 146    -0.668607728022E+03   -0.70758E-03    0.85400E-04  8424   0.577E-03 0.157E-03
CGA: 147    -0.668609258062E+03   -0.15300E-02    0.99384E-04  8424   0.413E-03 0.619E-03
CGA: 148    -0.668609811938E+03   -0.55388E-03    0.11676E-03  8424   0.638E-03 0.832E-04
CGA: 149    -0.668611436842E+03   -0.16249E-02    0.89761E-04  8424   0.553E-03 0.629E-03
CGA: 150    -0.668612073929E+03   -0.63709E-03    0.23788E-03  8424   0.535E-03 0.340E-04
CGA: 151    -0.668613294140E+03   -0.12202E-02    0.65273E-04  8424   0.576E-03 0.457E-03
CGA: 152    -0.668613935463E+03   -0.64132E-03    0.27716E-03  8424   0.455E-03 0.721E-04
CGA: 153    -0.668615048074E+03   -0.11126E-02    0.57674E-04  8424   0.553E-03 0.392E-03
CGA: 154    -0.668615652460E+03   -0.60439E-03    0.28390E-03  8424   0.631E-03 0.389E-04
CGA: 155    -0.668616953441E+03   -0.13010E-02    0.92510E-04  8424   0.801E-03 0.298E-03
CGA: 156    -0.668619379149E+03   -0.24257E-02    0.14516E-03  8424   0.548E-03 0.103E-02
CGA: 157    -0.668619895435E+03   -0.51629E-03    0.56408E-03  8424   0.104E-02-0.105E-03
CGA: 158    -0.668621600102E+03   -0.17047E-02    0.10640E-03  8424   0.117E-02 0.390E-03
CGA: 159    -0.668624278957E+03   -0.26789E-02    0.28788E-03  8424   0.271E-02 0.372E-03
CGA: 160    -0.668631181806E+03   -0.69028E-02    0.48477E-03  8424   0.265E-02 0.187E-02
CGA: 161    -0.668631749785E+03   -0.56798E-03   -0.51322E-03  8424   0.757E-03-0.274E-03
CGA: 162    -0.668632557412E+03   -0.80763E-03    0.23920E-03  8424   0.740E-03-0.780E-04
CGA: 163    -0.668633846932E+03   -0.12895E-02    0.83741E-04  8424   0.654E-03 0.416E-03
CGA: 164    -0.668634493637E+03   -0.64671E-03    0.44255E-03  8424   0.675E-03-0.425E-04
CGA: 165    -0.668635629287E+03   -0.11356E-02    0.90780E-04  8424   0.687E-03 0.192E-03
CGA: 166    -0.668637504126E+03   -0.18748E-02    0.96361E-04  8424   0.677E-03 0.711E-03
CGA: 167    -0.668638033179E+03   -0.52905E-03    0.81344E-02  8424   0.124E-02-0.322E-03
CGA: 168    -0.668639496414E+03   -0.14632E-02    0.65130E-04  8424   0.182E-02 0.201E-03
CGA: 169    -0.668642182305E+03   -0.26859E-02    0.62812E-03  8424   0.456E-02-0.666E-03
CGA: 170    -0.668649753546E+03   -0.75712E-02    0.23150E-03  8424   0.125E-01 0.112E-02
CGA: 171    -0.668674067167E+03   -0.24314E-01    0.29116E-02  8424   0.154E-01-0.287E-02
CGA: 172    -0.668710450903E+03   -0.36384E-01    0.76415E-03  8424   0.105E-01 0.586E-02
CGA: 173    -0.668735229083E+03   -0.24778E-01    0.23035E-02  8424   0.238E-01-0.107E-01
CGA: 174    -0.668738244067E+03   -0.30150E-02   -0.31073E-02  8424   0.857E-03 0.387E-03
CGA: 175    -0.668738354640E+03   -0.11057E-03   -0.18747E-03  8424   0.441E-03 0.489E-03
CGA: 176    -0.668738366176E+03   -0.11536E-04   -0.78544E-04  8424   0.358E-03 0.358E-03
CGA: 177    -0.668738365569E+03    0.60656E-06   -0.60946E-04  8424   0.322E-03 0.332E-03
CGA: 178    -0.668738361410E+03    0.41590E-05   -0.52568E-04  8424   0.301E-03 0.309E-03
CGA: 179    -0.668738356457E+03    0.49526E-05   -0.47474E-04  8424   0.285E-03 0.292E-03
CGA: 180    -0.668738350793E+03    0.56640E-05   -0.43446E-04  8424   0.274E-03 0.279E-03
CGA: 181    -0.668738345501E+03    0.52928E-05   -0.40644E-04  8424   0.264E-03 0.269E-03
CGA: 182    -0.668738340479E+03    0.50222E-05   -0.38274E-04  8424   0.257E-03 0.260E-03
CGA: 183    -0.668738336162E+03    0.43164E-05   -0.36484E-04  8424   0.251E-03 0.254E-03
CGA: 184    -0.668738332522E+03    0.36399E-05   -0.34961E-04  8424   0.246E-03 0.248E-03
CGA: 185    -0.668738329748E+03    0.27744E-05   -0.33755E-04  8424   0.242E-03 0.244E-03
CGA: 186    -0.668738327809E+03    0.19386E-05   -0.32718E-04  8424   0.239E-03 0.240E-03
CGA: 187    -0.668738326804E+03    0.10053E-05   -0.31884E-04  8424   0.236E-03 0.237E-03
CGA: 188    -0.668738326677E+03    0.12695E-06   -0.31154E-04  8424   0.234E-03 0.235E-03
CGA: 189    -0.668738327502E+03   -0.82502E-06   -0.30569E-04  8424   0.232E-03 0.233E-03
CGA: 190    -0.668738329190E+03   -0.16884E-05   -0.30029E-04  8424   0.230E-03 0.231E-03
CGA: 191    -0.668738331865E+03   -0.26744E-05   -0.29626E-04  8424   0.229E-03 0.229E-03
CGA: 192    -0.668738335295E+03   -0.34299E-05   -0.29174E-04  8424   0.228E-03 0.228E-03
CGA: 193    -0.668738339893E+03   -0.45982E-05   -0.28984E-04  8424   0.227E-03 0.227E-03
CGA: 194    -0.668738344731E+03   -0.48380E-05   -0.28378E-04  8424   0.227E-03 0.226E-03
CGA: 195    -0.668738351663E+03   -0.69320E-05   -0.28726E-04  8424   0.228E-03 0.224E-03
CGA: 196    -0.668738356636E+03   -0.49733E-05   -0.27076E-04  8424   0.232E-03 0.220E-03
CGA: 197    -0.668738366300E+03   -0.96637E-05   -0.28776E-04  8424   0.241E-03 0.213E-03
CGA: 198    -0.668738370579E+03   -0.42795E-05   -0.25514E-04  8424   0.243E-03 0.205E-03
CGA: 199    -0.668738381799E+03   -0.11219E-04   -0.28528E-04  8424   0.250E-03 0.199E-03
CGA: 200    -0.668738388586E+03   -0.67875E-05   -0.25934E-04  8424   0.243E-03 0.198E-03
   1 F= -.66873839E+03 E0= -.66873839E+03  d E =-.668738E+03  mag=     4.0000
       N       E                     dE             d eps       ncg     rms          ort
SDA:   1    -0.668740969431E+03   -0.25876E-02    0.00000E+00  8424   0.374E-02 0.000E+00
CGA:   2    -0.668741818306E+03   -0.84887E-03   -0.83870E-03  8424   0.184E-02 0.305E-03
CGA:   3    -0.668742182837E+03   -0.36453E-03   -0.36761E-03  8424   0.642E-03 0.414E-03
CGA:   4    -0.668742294512E+03   -0.11167E-03   -0.12405E-03  8424   0.334E-03 0.356E-03
CGA:   5    -0.668742349581E+03   -0.55068E-04   -0.58414E-04  8424   0.254E-03 0.214E-03
CGA:   6    -0.668742386204E+03   -0.36624E-04   -0.41848E-04  8424   0.234E-03 0.212E-03
CGA:   7    -0.668742424060E+03   -0.37855E-04   -0.40848E-04  8424   0.227E-03 0.214E-03
CGA:   8    -0.668742462583E+03   -0.38523E-04   -0.40503E-04  8424   0.223E-03 0.216E-03
CGA:   9    -0.668742503051E+03   -0.40468E-04   -0.41071E-04  8424   0.221E-03 0.217E-03
CGA:  10    -0.668742547379E+03   -0.44328E-04   -0.42812E-04  8424   0.220E-03 0.217E-03
CGA:  11    -0.668742592066E+03   -0.44687E-04   -0.42986E-04  8424   0.221E-03 0.217E-03
CGA:  12    -0.668742645101E+03   -0.53035E-04   -0.47304E-04  8424   0.224E-03 0.215E-03
CGA:  13    -0.668742691300E+03   -0.46199E-04   -0.44333E-04  8424   0.229E-03 0.211E-03
CGA:  14    -0.668742754950E+03   -0.63651E-04   -0.54305E-04  8424   0.258E-03 0.197E-03
CGA:  15    -0.668742791963E+03   -0.37012E-04   -0.42143E-04  8424   0.255E-03 0.180E-03
CGA:  16    -0.668742858251E+03   -0.66288E-04   -0.59698E-04  8424   0.337E-03 0.152E-03
CGA:  17    -0.668742892581E+03   -0.34330E-04   -0.43966E-04  8424   0.254E-03 0.153E-03
CGA:  18    -0.668742999199E+03   -0.10662E-03   -0.88578E-04  8424   0.371E-03 0.354E-03
CGA:  19    -0.668743065467E+03   -0.66268E-04   -0.66886E-04  8424   0.403E-03 0.507E-04
CGA:  20    -0.668743276346E+03   -0.21088E-03   -0.14885E-03  8424   0.388E-03 0.458E-03
CGA:  21    -0.668743320036E+03   -0.43690E-04   -0.51989E-04  8424   0.269E-03 0.129E-03
CGA:  22    -0.668743506820E+03   -0.18678E-03   -0.12926E-03  8424   0.447E-03 0.342E-03
CGA:  23    -0.668743587189E+03   -0.80369E-04   -0.79994E-04  8424   0.469E-03-0.166E-04
CGA:  24    -0.668744032875E+03   -0.44569E-03   -0.26750E-03  8424   0.492E-03 0.443E-03
CGA:  25    -0.668744095370E+03   -0.62496E-04   -0.69462E-04  8424   0.306E-03 0.856E-04
CGA:  26    -0.668744670276E+03   -0.57491E-03   -0.36171E-03  8424   0.984E-03 0.256E-03
CGA:  27    -0.668744851234E+03   -0.18096E-03   -0.17654E-03  8424   0.475E-03-0.583E-04
CGA:  28    -0.668745049581E+03   -0.19835E-03   -0.19944E-03  8424   0.108E-02-0.110E-04
CGA:  29    -0.668745608803E+03   -0.55922E-03    0.24270E-01  8424   0.881E-03 0.829E-03
CGA:  30    -0.668745851809E+03   -0.24301E-03   -0.24378E-03  8424   0.645E-03-0.584E-04
CGA:  31    -0.668746049785E+03   -0.19798E-03   -0.20299E-03  8424   0.911E-03-0.738E-04
CGA:  32    -0.668746531809E+03   -0.48202E-03    0.91398E-03  8424   0.870E-03 0.648E-03
CGA:  33    -0.668746806700E+03   -0.27489E-03   -0.28761E-03  8424   0.987E-03-0.203E-03
CGA:  34    -0.668747058272E+03   -0.25157E-03   -0.38027E-03  8424   0.210E-02-0.567E-03
CGA:  35    -0.668747567557E+03   -0.50928E-03   -0.50129E-03  8424   0.122E-02-0.184E-03
CGA:  36    -0.668747825302E+03   -0.25775E-03   -0.25345E-03  8424   0.439E-03-0.856E-04
CGA:  37    -0.668748095749E+03   -0.27045E-03    0.28970E-03  8424   0.428E-03 0.311E-03
CGA:  38    -0.668746367449E+03    0.17283E-02   -0.93524E-03  8424   0.228E-01-0.165E-02
CGA:  39    -0.668749122538E+03   -0.27551E-02   -0.27992E-02  8424   0.115E-02 0.941E-04
CGA:  40    -0.668749624669E+03   -0.50213E-03   -0.49360E-03  8424   0.500E-03-0.153E-03
CGA:  41    -0.668743769505E+03    0.58552E-02   -0.31503E-02  8424   0.793E-01-0.275E-02
CGA:  42    -0.668752403810E+03   -0.86343E-02   -0.90268E-02  8424   0.224E-02-0.150E-02
CGA:  43    -0.668753078324E+03   -0.67451E-03   -0.54662E-03  8424   0.115E-02-0.221E-03
CGA:  44    -0.668753467632E+03   -0.38931E-03   -0.32161E-03  8424   0.643E-03-0.157E-03
CGA:  45    -0.668753581240E+03   -0.11361E-03   -0.70893E-03  8424   0.101E-01-0.775E-03
CGA:  46    -0.668753289485E+03    0.29175E-03   -0.14330E-02  8424   0.614E-02 0.543E-04
CGA:  47    -0.668742001207E+03    0.11288E-01   -0.86396E-03  8424   0.316E-01 0.499E-02
CGA:  48    -0.668696627445E+03    0.45374E-01   -0.54544E-02  8424   0.216E+00 0.250E-01
CGA:  49    -0.668711154582E+03   -0.14527E-01   -0.74216E-01  8424   0.862E-01 0.414E-01
CGA:  50    -0.668611520628E+03    0.99634E-01   -0.15782E-01  8424   0.287E+00 0.930E-01
CGA:  51    -0.668616528517E+03   -0.50079E-02   -0.88692E-01  8424   0.264E+00 0.157E+00
CGA:  52    -0.668717503183E+03   -0.10097E+00   -0.11967E+00  8424   0.104E+00 0.166E-01
CGA:  53    -0.668726800763E+03   -0.92976E-02   -0.33648E-01  8424   0.829E-01 0.199E-01
CGA:  54    -0.668747037323E+03   -0.20237E-01   -0.22982E-01  8424   0.142E-01-0.307E-02
CGA:  55    -0.668750328744E+03   -0.32914E-02   -0.33631E-02  8424   0.114E-01 0.123E-02
CGA:  56    -0.668754692603E+03   -0.43639E-02   -0.43600E-02  8424   0.826E-02-0.116E-02
CGA:  57    -0.668757016738E+03   -0.23241E-02   -0.24436E-02  8424   0.360E-02-0.730E-04
CGA:  58    -0.668757964516E+03   -0.94778E-03   -0.91943E-03  8424   0.296E-02-0.264E-03
CGA:  59    -0.668758853491E+03   -0.88898E-03   -0.74948E-03  8424   0.147E-02-0.602E-03
CGA:  60    -0.668750404259E+03    0.84492E-02   -0.18748E-02  8424   0.430E-01-0.137E-01
CGA:  61    -0.668754795347E+03   -0.43911E-02   -0.76189E-02  8424   0.332E-01-0.700E-03
CGA:  62    -0.668761475572E+03   -0.66802E-02   -0.10807E-01  8424   0.989E-02 0.160E-02
CGA:  63    -0.668762804302E+03   -0.13287E-02   -0.14759E-02  8424   0.326E-02-0.308E-03
CGA:  64    -0.668764030162E+03   -0.12259E-02   -0.11835E-02  8424   0.269E-02-0.467E-03
CGA:  65    -0.668764990041E+03   -0.95988E-03   -0.73668E-03  8424   0.232E-02-0.112E-02
CGA:  66    -0.668765681848E+03   -0.69181E-03   -0.78437E-03  8424   0.335E-02-0.133E-02
CGA:  67    -0.668766505352E+03   -0.82350E-03   -0.62411E-03  8424   0.139E-02-0.601E-03
CGA:  68    -0.668767152933E+03   -0.64758E-03   -0.79140E-03  8424   0.363E-02-0.762E-03
CGA:  69    -0.668767839233E+03   -0.68630E-03   -0.55833E-03  8424   0.695E-03-0.366E-03
CGA:  70    -0.668768152521E+03   -0.31329E-03   -0.34451E-03  8424   0.206E-02-0.563E-03
CGA:  71    -0.668768584727E+03   -0.43221E-03   -0.32906E-03  8424   0.494E-03-0.310E-03
CGA:  72    -0.668282779613E+03    0.48581E+00    0.63733E-01  8424   0.105E+00-0.114E-01
CGA:  73    -0.667459987564E+03    0.82279E+00   -0.16784E+00  8424   0.111E+02-0.872E+00
CGA:  74    -0.667886057013E+03   -0.42607E+00   -0.25500E+00  8424   0.738E+01 0.907E+01
CGA:  75    -0.668451470669E+03   -0.56541E+00   -0.37582E+00  8424   0.242E+01 0.419E+01
CGA:  76    -0.668614511703E+03   -0.16304E+00   -0.24291E+00  8424   0.753E+00 0.427E+00
CGA:  77    -0.668110928501E+03    0.50358E+00   -0.13337E+00  8424   0.371E+01 0.148E+00
CGA:  78    -0.662752513315E+03    0.53584E+01   -0.24726E+00  8424   0.221E+02 0.433E+01
CGA:  79    -0.665413877429E+03   -0.26614E+01   -0.66080E+01  8424   0.132E+02-0.576E+00
CGA:  80    -0.664794541553E+03    0.61934E+00   -0.15026E+01  8424   0.647E+01 0.380E+01
CGA:  81    -0.664223492099E+03    0.57105E+00   -0.15911E+01  8424   0.125E+02 0.406E+01
CGA:  82    -0.666125282734E+03   -0.19018E+01   -0.31601E+01  8424   0.982E+01-0.247E+01
CGA:  83    -0.667642801201E+03   -0.15175E+01   -0.22727E+01  8424   0.176E+01 0.108E+01
CGA:  84    -0.668244965484E+03   -0.60216E+00   -0.62137E+00  8424   0.497E+00 0.389E+00
CGA:  85    -0.668435423013E+03   -0.19046E+00   -0.20804E+00  8424   0.416E+00 0.911E-01
CGA:  86    -0.668571173463E+03   -0.13575E+00   -0.14172E+00  8424   0.162E+00 0.118E+00
CGA:  87    -0.668631044481E+03   -0.59871E-01   -0.64120E-01  8424   0.131E+00 0.473E-02
CGA:  88    -0.668671132146E+03   -0.40088E-01   -0.43484E-01  8424   0.701E-01-0.110E-02
CGA:  89    -0.668701504703E+03   -0.30373E-01   -0.30217E-01  8424   0.610E-01-0.785E-02
CGA:  90    -0.668725805107E+03   -0.24300E-01   -0.19457E-01  8424   0.566E-01-0.143E-01
CGA:  91    -0.668735972821E+03   -0.10168E-01   -0.99819E-02  8424   0.232E-01-0.425E-02
CGA:  92    -0.668743291977E+03   -0.73192E-02   -0.68395E-02  8424   0.233E-01-0.148E-02
CGA:  93    -0.668749898991E+03   -0.66070E-02   -0.56931E-02  8424   0.132E-01-0.220E-02
CGA:  94    -0.668754155283E+03   -0.42563E-02   -0.39301E-02  8424   0.115E-01-0.201E-02
CGA:  95    -0.668767712749E+03   -0.13557E-01    0.55464E-02  8424   0.504E-01-0.171E-01
CGA:  96    -0.668775578645E+03   -0.78659E-02   -0.73311E-02  8424   0.759E-02-0.152E-03
CGA:  97    -0.668779472430E+03   -0.38938E-02   -0.39331E-02  8424   0.963E-02-0.709E-03
CGA:  98    -0.668782448264E+03   -0.29758E-02   -0.28276E-02  8424   0.388E-02-0.738E-03
CGA:  99    -0.668783562375E+03   -0.11141E-02   -0.96986E-03  8424   0.131E-02-0.701E-03
CGA: 100    -0.668784060446E+03   -0.49807E-03   -0.58731E-03  8424   0.174E-02-0.960E-03
CGA: 101    -0.668784585624E+03   -0.52518E-03   -0.44762E-03  8424   0.108E-02-0.387E-03
CGA: 102    -0.668784923745E+03   -0.33812E-03   -0.55143E-03  8424   0.300E-02-0.102E-02
CGA: 103    -0.668785627997E+03   -0.70425E-03   -0.58745E-03  8424   0.932E-03-0.454E-03
CGA: 104    -0.668785961258E+03   -0.33326E-03   -0.30343E-03  8424   0.743E-03-0.478E-03
CGA: 105    -0.668786229273E+03   -0.26802E-03   -0.20007E-03  8424   0.748E-03-0.394E-03
CGA: 106    -0.668786377357E+03   -0.14808E-03   -0.11439E-03  8424   0.173E-03-0.118E-03
CGA: 107    -0.668786743914E+03   -0.36656E-03    0.15397E-04  8424   0.123E-03 0.933E-04
CGA: 108    -0.668787034447E+03   -0.29053E-03    0.14146E-04  8424   0.271E-03 0.199E-04
CGA: 109    -0.668787966365E+03   -0.93192E-03    0.26261E-04  8424   0.212E-03 0.256E-03
CGA: 110    -0.668788222365E+03   -0.25600E-03    0.10156E-03  8424   0.298E-03-0.733E-04
CGA: 111    -0.668788885914E+03   -0.66355E-03    0.13402E-04  8424   0.392E-03 0.155E-03
CGA: 112    -0.668788222186E+03    0.66373E-03   -0.47829E-03  8424   0.757E-02-0.143E-02
CGA: 113    -0.668789864991E+03   -0.16428E-02   -0.15741E-02  8424   0.421E-03-0.268E-03
CGA: 114    -0.668790025186E+03   -0.16019E-03   -0.12271E-03  8424   0.592E-03-0.261E-03
CGA: 115    -0.668790225125E+03   -0.19994E-03   -0.12715E-03  8424   0.429E-03-0.320E-03
CGA: 116    -0.668790344188E+03   -0.11906E-03   -0.82132E-04  8424   0.251E-03-0.158E-03
CGA: 117    -0.668790792727E+03   -0.44854E-03    0.13787E-04  8424   0.103E-03 0.136E-03
CGA: 118    -0.668791065784E+03   -0.27306E-03    0.98950E-05  8424   0.253E-03 0.168E-04
CGA: 119    -0.668791996472E+03   -0.93069E-03    0.21916E-04  8424   0.142E-03 0.272E-03
CGA: 120    -0.668792182372E+03   -0.18590E-03    0.52092E-04  8424   0.470E-03-0.773E-04
CGA: 121    -0.668792376449E+03   -0.19408E-03   -0.12553E-03  8424   0.829E-03-0.457E-03
CGA: 122    -0.668792490970E+03   -0.11452E-03   -0.10388E-03  8424   0.975E-04-0.397E-04
CGA: 123    -0.668792767575E+03   -0.27660E-03    0.66272E-05  8424   0.988E-04 0.736E-04
CGA: 124    -0.668793002404E+03   -0.23483E-03    0.97331E-05  8424   0.222E-03 0.158E-04
CGA: 125    -0.668793797472E+03   -0.79507E-03    0.17546E-04  8424   0.157E-03 0.231E-03
CGA: 126    -0.668793997066E+03   -0.19959E-03    0.50694E-04  8424   0.359E-03-0.819E-04
CGA: 127    -0.668794128325E+03   -0.13126E-03   -0.15871E-03  8424   0.167E-02-0.593E-03
CGA: 128    -0.668794377426E+03   -0.24910E-03   -0.22986E-03  8424   0.114E-03-0.740E-04
CGA: 129    -0.668794629057E+03   -0.25163E-03    0.10557E-04  8424   0.181E-03 0.161E-04
CGA: 130    -0.668795243008E+03   -0.61395E-03    0.13802E-04  8424   0.125E-03 0.184E-03
CGA: 131    -0.668795435082E+03   -0.19207E-03    0.23850E-04  8424   0.228E-03-0.245E-04
CGA: 132    -0.668796057513E+03   -0.62243E-03    0.10326E-04  8424   0.308E-03 0.144E-03
CGA: 133    -0.668794534677E+03    0.15228E-02   -0.45890E-03  8424   0.142E-01-0.180E-02
CGA: 134    -0.668796967073E+03   -0.24324E-02   -0.24254E-02  8424   0.470E-03-0.615E-04
CGA: 135    -0.668797163194E+03   -0.19612E-03   -0.15729E-03  8424   0.711E-03-0.431E-03
CGA: 136    -0.668797314212E+03   -0.15102E-03   -0.12594E-03  8424   0.131E-03-0.103E-03
CGA: 137    -0.668797600468E+03   -0.28626E-03    0.10748E-04  8424   0.146E-03 0.249E-04
CGA: 138    -0.668798114202E+03   -0.51373E-03    0.13615E-04  8424   0.840E-04 0.131E-03
CGA: 139    -0.668798340416E+03   -0.22621E-03    0.75223E-05  8424   0.180E-03 0.629E-05
CGA: 140    -0.668799028746E+03   -0.68833E-03    0.11790E-04  8424   0.145E-03 0.176E-03
CGA: 141    -0.668799185429E+03   -0.15668E-03    0.93890E-04  8424   0.421E-03-0.116E-03
CGA: 142    -0.668799348082E+03   -0.16265E-03   -0.11303E-03  8424   0.529E-03-0.352E-03
CGA: 143    -0.668799457711E+03   -0.10963E-03   -0.85660E-04  8424   0.108E-03-0.995E-04
CGA: 144    -0.668799714397E+03   -0.25669E-03    0.62473E-05  8424   0.706E-04 0.546E-04
CGA: 145    -0.668799891072E+03   -0.17668E-03    0.62582E-05  8424   0.164E-03 0.110E-04
CGA: 146    -0.668800566215E+03   -0.67514E-03    0.10450E-04  8424   0.103E-03 0.173E-03
CGA: 147    -0.668800750676E+03   -0.18446E-03    0.15655E-04  8424   0.292E-03-0.588E-04
CGA: 148    -0.668800843652E+03   -0.92977E-04   -0.64920E-04  8424   0.261E-03-0.167E-03
CGA: 149    -0.668800928248E+03   -0.84595E-04   -0.11242E-03  8424   0.189E-02-0.567E-03
CGA: 150    -0.668801138895E+03   -0.21065E-03   -0.20848E-03  8424   0.584E-04-0.896E-05
CGA: 151    -0.668801327047E+03   -0.18815E-03    0.32053E-05  8424   0.909E-04 0.312E-04
CGA: 152    -0.668801468680E+03   -0.14163E-03    0.15321E-04  8424   0.293E-03-0.541E-04
CGA: 153    -0.668801583765E+03   -0.11508E-03   -0.83454E-04  8424   0.758E-03-0.366E-03
CGA: 154    -0.668801692662E+03   -0.10890E-03   -0.91444E-04  8424   0.715E-04-0.737E-04
CGA: 155    -0.668801878549E+03   -0.18589E-03    0.37362E-05  8424   0.803E-04 0.333E-04
CGA: 156    -0.668802251308E+03   -0.37276E-03    0.60039E-05  8424   0.603E-04 0.900E-04
CGA: 157    -0.668802406743E+03   -0.15544E-03    0.40540E-05  8424   0.135E-03 0.565E-05
CGA: 158    -0.668802936169E+03   -0.52943E-03    0.64499E-05  8424   0.102E-03 0.140E-03
CGA: 159    -0.668803073801E+03   -0.13763E-03    0.19990E-04  8424   0.356E-03-0.957E-04
CGA: 160    -0.668803164505E+03   -0.90705E-04   -0.62073E-04  8424   0.170E-03-0.160E-03
CGA: 161    -0.668803399866E+03   -0.23536E-03    0.61674E-05  8424   0.586E-04 0.593E-04
CGA: 162    -0.668803630805E+03   -0.23094E-03    0.42171E-05  8424   0.145E-03 0.136E-04
CGA: 163    -0.668804341230E+03   -0.71042E-03    0.64434E-05  8424   0.198E-03 0.168E-03
CGA: 164    -0.668804407012E+03   -0.65782E-04   -0.48867E-04  8424   0.313E-03-0.173E-03
CGA: 165    -0.668804517178E+03   -0.11017E-03   -0.78948E-04  8424   0.588E-03-0.353E-03
CGA: 166    -0.668804598470E+03   -0.81292E-04   -0.70246E-04  8424   0.529E-04-0.523E-04
CGA: 167    -0.668804747437E+03   -0.14897E-03    0.20893E-05  8424   0.598E-04 0.257E-04
CGA: 168    -0.668805043753E+03   -0.29632E-03    0.34946E-05  8424   0.459E-04 0.682E-04
CGA: 169    -0.668805166065E+03   -0.12231E-03    0.24044E-05  8424   0.905E-04 0.651E-05
CGA: 170    -0.668805553474E+03   -0.38741E-03    0.35295E-05  8424   0.645E-04 0.984E-04
CGA: 171    -0.668805675034E+03   -0.12156E-03    0.55245E-05  8424   0.170E-03-0.362E-04
CGA: 172    -0.668805725801E+03   -0.50767E-04   -0.61278E-04  8424   0.842E-03-0.305E-03
CGA: 173    -0.668805870215E+03   -0.14441E-03   -0.11051E-03  8424   0.841E-04-0.173E-03
CGA: 174    -0.668805998105E+03   -0.12789E-03    0.52400E-05  8424   0.843E-04 0.302E-06
CGA: 175    -0.668806253645E+03   -0.25554E-03    0.35661E-05  8424   0.511E-04 0.509E-04
CGA: 176    -0.668806368625E+03   -0.11498E-03    0.31753E-05  8424   0.156E-03-0.243E-04
CGA: 177    -0.668806814921E+03   -0.44630E-03    0.17068E-05  8424   0.496E-03 0.448E-04
CGA: 178    -0.668808440389E+03   -0.16255E-02    0.33585E-04  8424   0.389E-03 0.124E-03
CGA: 179    -0.668809870590E+03   -0.14302E-02    0.21213E-04  8424   0.307E-03 0.860E-04
CGA: 180    -0.668811057530E+03   -0.11869E-02    0.14931E-04  8424   0.197E-03 0.781E-04
CGA: 181    -0.668811926051E+03   -0.86852E-03    0.85967E-05  8424   0.166E-03 0.344E-04
CGA: 182    -0.668812717392E+03   -0.79134E-03    0.57118E-05  8424   0.726E-04 0.672E-04
CGA: 183    -0.668813121267E+03   -0.40388E-03    0.30903E-05  8424   0.129E-03-0.160E-05
CGA: 184    -0.668813913790E+03   -0.79252E-03    0.22543E-05  8424   0.593E-04 0.106E-03
CGA: 185    -0.668812307075E+03    0.16067E-02   -0.88793E-03  8424   0.203E-01-0.100E-02
CGA: 186    -0.668814269581E+03   -0.19625E-02   -0.19385E-02  8424   0.114E-03 0.289E-03
CGA: 187    -0.668814290217E+03   -0.20636E-04   -0.16585E-04  8424   0.185E-04-0.103E-04
CGA: 188    -0.668814395338E+03   -0.10512E-03    0.92992E-06  8424   0.408E-04-0.471E-05
CGA: 189    -0.668814672571E+03   -0.27723E-03    0.10812E-05  8424   0.569E-04 0.110E-04
CGA: 190    -0.668815166337E+03   -0.49377E-03    0.35645E-05  8424   0.739E-04 0.151E-04
CGA: 191    -0.668815894599E+03   -0.72826E-03    0.39651E-05  8424   0.183E-03-0.449E-05
CGA: 192    -0.668817701500E+03   -0.18069E-02    0.51564E-05  8424   0.320E-03-0.183E-04
CGA: 193    -0.668821067046E+03   -0.33655E-02    0.77421E-05  8424   0.692E-03-0.153E-03
CGA: 194    -0.668828844112E+03   -0.77771E-02    0.50356E-05  8424   0.101E-02-0.846E-03
CGA: 195    -0.668828934578E+03   -0.90466E-04   -0.16779E-03  8424   0.250E-03 0.171E-03
CGA: 196    -0.668828926010E+03    0.85682E-05   -0.45645E-04  8424   0.124E-03 0.114E-03
CGA: 197    -0.668828886719E+03    0.39291E-04   -0.19169E-04  8424   0.165E-03 0.994E-04
CGA: 198    -0.668828860926E+03    0.25794E-04   -0.23987E-04  8424   0.101E-03 0.512E-04
CGA: 199    -0.668828811792E+03    0.49134E-04   -0.11738E-04  8424   0.158E-03 0.110E-03
CGA: 200    -0.668828782195E+03    0.29597E-04   -0.19932E-04  8424   0.148E-03 0.585E-04
   2 F= -.66882878E+03 E0= -.66882878E+03  d E =-.903936E-01  mag=     4.0000
       N       E                     dE             d eps       ncg     rms          ort
SDA:   1    -0.668697027233E+03    0.13178E+00    0.00000E+00  8424   0.477E+00 0.000E+00
CGA:   2    -0.668812726827E+03   -0.11570E+00   -0.11571E+00  8424   0.224E+00 0.393E-03
CGA:   3    -0.668855570905E+03   -0.42844E-01   -0.42981E-01  8424   0.602E-01 0.626E-03
CGA:   4    -0.668865362270E+03   -0.97914E-02   -0.98470E-02  8424   0.158E-01 0.732E-03
CGA:   5    -0.668867911762E+03   -0.25495E-02   -0.26135E-02  8424   0.335E-02 0.663E-03
CGA:   6    -0.668868441000E+03   -0.52924E-03   -0.58061E-03  8424   0.160E-02 0.459E-03
CGA:   7    -0.668868584232E+03   -0.14323E-03   -0.20621E-03  8424   0.853E-03 0.854E-04
CGA:   8    -0.668868618005E+03   -0.33773E-04   -0.78122E-04  8424   0.548E-03 0.788E-04
CGA:   9    -0.668868632103E+03   -0.14099E-04   -0.50654E-04  8424   0.216E-03 0.209E-03
CGA:  10    -0.668868623427E+03    0.86762E-05   -0.24584E-04  8424   0.128E-03 0.174E-03
CGA:  11    -0.668868618685E+03    0.47418E-05   -0.12366E-04  8424   0.639E-04 0.805E-04
   3 F= -.66886862E+03 E0= -.66886862E+03  d E =-.398365E-01  mag=     4.0000
       N       E                     dE             d eps       ncg     rms          ort
SDA:   1    -0.655371230729E+03    0.13497E+02    0.00000E+00  8424   0.372E+02 0.000E+00
CGA:   2    -0.664601717691E+03   -0.92305E+01   -0.92319E+01  8424   0.176E+02 0.178E-01
CGA:   3    -0.667939349000E+03   -0.33376E+01   -0.33387E+01  8424   0.458E+01 0.166E-01
CGA:   4    -0.668699035945E+03   -0.75969E+00   -0.76059E+00  8424   0.115E+01 0.606E-02
CGA:   5    -0.668894043010E+03   -0.19501E+00   -0.19519E+00  8424   0.239E+00 0.158E-02
CGA:   6    -0.668941706387E+03   -0.47663E-01   -0.47629E-01  8424   0.631E-01-0.122E-02
CGA:   7    -0.668955916426E+03   -0.14210E-01   -0.14235E-01  8424   0.206E-01 0.107E-02
CGA:   8    -0.668961018140E+03   -0.51017E-02   -0.51243E-02  8424   0.772E-02 0.120E-02
CGA:   9    -0.668963329043E+03   -0.23109E-02   -0.22935E-02  8424   0.342E-02 0.972E-03
CGA:  10    -0.668964552095E+03   -0.12231E-02   -0.11868E-02  8424   0.176E-02 0.822E-03
CGA:  11    -0.668965166922E+03   -0.61483E-03   -0.60666E-03  8424   0.751E-03 0.652E-03
CGA:  12    -0.668965409410E+03   -0.24249E-03   -0.25302E-03  8424   0.413E-03 0.513E-03
CGA:  13    -0.668965515398E+03   -0.10599E-03   -0.10736E-03  8424   0.238E-03 0.240E-03
CGA:  14    -0.668965565470E+03   -0.50072E-04   -0.56099E-04  8424   0.192E-03 0.207E-03
CGA:  15    -0.668965606574E+03   -0.41104E-04   -0.45791E-04  8424   0.169E-03 0.184E-03
CGA:  16    -0.668965633415E+03   -0.26840E-04   -0.35498E-04  8424   0.154E-03 0.165E-03
CGA:  17    -0.668965658400E+03   -0.24985E-04   -0.32378E-04  8424   0.141E-03 0.151E-03
CGA:  18    -0.668965676128E+03   -0.17728E-04   -0.26901E-04  8424   0.131E-03 0.139E-03
CGA:  19    -0.668965692099E+03   -0.15972E-04   -0.24502E-04  8424   0.122E-03 0.128E-03
CGA:  20    -0.668965704438E+03   -0.12338E-04   -0.21353E-04  8424   0.114E-03 0.120E-03
CGA:  21    -0.668965715139E+03   -0.10701E-04   -0.19392E-04  8424   0.108E-03 0.112E-03
CGA:  22    -0.668965723926E+03   -0.87874E-05   -0.17434E-04  8424   0.102E-03 0.106E-03
CGA:  23    -0.668965731489E+03   -0.75628E-05   -0.15948E-04  8424   0.975E-04 0.101E-03
CGA:  24    -0.668965737934E+03   -0.64447E-05   -0.14621E-04  8424   0.934E-04 0.960E-04
CGA:  25    -0.668965743535E+03   -0.56010E-05   -0.13523E-04  8424   0.899E-04 0.920E-04
CGA:  26    -0.668965748435E+03   -0.49006E-05   -0.12573E-04  8424   0.867E-04 0.886E-04
CGA:  27    -0.668965752772E+03   -0.43372E-05   -0.11758E-04  8424   0.840E-04 0.856E-04
CGA:  28    -0.668965756663E+03   -0.38911E-05   -0.11055E-04  8424   0.816E-04 0.830E-04
CGA:  29    -0.668965760176E+03   -0.35129E-05   -0.10433E-04  8424   0.795E-04 0.807E-04
   4 F= -.66896576E+03 E0= -.66896576E+03  d E =-.971415E-01  mag=     4.0000
       N       E                     dE             d eps       ncg     rms          ort
SDA:   1    -0.666118232920E+03    0.28475E+01    0.00000E+00  8424   0.848E+01 0.000E+00
CGA:   2    -0.667977447946E+03   -0.18592E+01   -0.18590E+01  8424   0.386E+01 0.115E-01
CGA:   3    -0.668780358296E+03   -0.80291E+00   -0.80292E+00  8424   0.114E+01-0.469E-02
CGA:   4    -0.668964327759E+03   -0.18397E+00   -0.18400E+00  8424   0.267E+00 0.427E-03
CGA:   5    -0.669009998460E+03   -0.45671E-01   -0.45694E-01  8424   0.549E-01 0.628E-03
CGA:   6    -0.669021059229E+03   -0.11061E-01   -0.11061E-01  8424   0.130E-01-0.298E-03
CGA:   7    -0.669023909455E+03   -0.28502E-02   -0.28434E-02  8424   0.379E-02 0.388E-03
CGA:   8    -0.669024876333E+03   -0.96688E-03   -0.96263E-03  8424   0.126E-02 0.950E-04
CGA:   9    -0.669025271816E+03   -0.39548E-03   -0.39902E-03  8424   0.616E-03-0.357E-04
CGA:  10    -0.669025476953E+03   -0.20514E-03   -0.19482E-03  8424   0.355E-03 0.868E-04
CGA:  11    -0.669025657225E+03   -0.18027E-03   -0.17509E-03  8424   0.324E-03 0.192E-04
CGA:  12    -0.669025806613E+03   -0.14939E-03   -0.12939E-03  8424   0.294E-03 0.124E-03
CGA:  13    -0.669026052452E+03   -0.24584E-03   -0.20363E-03  8424   0.370E-03 0.142E-03
CGA:  14    -0.669026500670E+03   -0.44822E-03   -0.37878E-03  8424   0.629E-03 0.105E-03
CGA:  15    -0.669027133083E+03   -0.63241E-03   -0.59434E-03  8424   0.105E-02-0.103E-03
CGA:  16    -0.669022772033E+03    0.43610E-02   -0.23284E-02  8424   0.284E-01-0.521E-02
CGA:  17    -0.669026798916E+03   -0.40269E-02   -0.42384E-02  8424   0.481E-02 0.431E-03
CGA:  18    -0.669028173440E+03   -0.13745E-02   -0.14608E-02  8424   0.135E-02 0.400E-03
CGA:  19    -0.669028754168E+03   -0.58073E-03   -0.60221E-03  8424   0.108E-02 0.229E-03
CGA:  20    -0.669028860275E+03   -0.10611E-03   -0.26583E-03  8424   0.457E-03 0.552E-03
CGA:  21    -0.669028995555E+03   -0.13528E-03   -0.15960E-03  8424   0.279E-03 0.178E-03
CGA:  22    -0.669029030997E+03   -0.35441E-04   -0.96335E-04  8424   0.203E-03 0.264E-03
CGA:  23    -0.669029062397E+03   -0.31400E-04   -0.58169E-04  8424   0.165E-03 0.148E-03
CGA:  24    -0.669029067423E+03   -0.50256E-05   -0.36962E-04  8424   0.152E-03 0.136E-03
CGA:  25    -0.669029084185E+03   -0.16762E-04   -0.39781E-04  8424   0.148E-03 0.125E-03
CGA:  26    -0.669029085977E+03   -0.17918E-05   -0.29500E-04  8424   0.135E-03 0.117E-03
CGA:  27    -0.669029097550E+03   -0.11574E-04   -0.32249E-04  8424   0.131E-03 0.111E-03
CGA:  28    -0.669029098448E+03   -0.89747E-06   -0.24886E-04  8424   0.120E-03 0.106E-03
CGA:  29    -0.669029106256E+03   -0.78080E-05   -0.26636E-04  8424   0.116E-03 0.102E-03
CGA:  30    -0.669029106760E+03   -0.50381E-06   -0.21422E-04  8424   0.108E-03 0.991E-04
CGA:  31    -0.669029111861E+03   -0.51012E-05   -0.22347E-04  8424   0.104E-03 0.965E-04
CGA:  32    -0.669029112128E+03   -0.26685E-06   -0.18687E-04  8424   0.984E-04 0.938E-04
CGA:  33    -0.669029115330E+03   -0.32020E-05   -0.19039E-04  8424   0.945E-04 0.915E-04
CGA:  34    -0.669029115410E+03   -0.79883E-07   -0.16470E-04  8424   0.907E-04 0.893E-04
CGA:  35    -0.669029117313E+03   -0.19035E-05   -0.16466E-04  8424   0.876E-04 0.871E-04
CGA:  36    -0.669029117211E+03    0.10173E-06   -0.14629E-04  8424   0.849E-04 0.849E-04
CGA:  37    -0.669029118256E+03   -0.10446E-05   -0.14438E-04  8424   0.824E-04 0.829E-04
CGA:  38    -0.669029117965E+03    0.29137E-06   -0.13069E-04  8424   0.803E-04 0.809E-04
CGA:  39    -0.669029118468E+03   -0.50310E-06   -0.12817E-04  8424   0.784E-04 0.791E-04
CGA:  40    -0.669029117994E+03    0.47402E-06   -0.11728E-04  8424   0.766E-04 0.773E-04
CGA:  41    -0.669029118163E+03   -0.16917E-06   -0.11490E-04  8424   0.749E-04 0.756E-04
CGA:  42    -0.669029117529E+03    0.63373E-06   -0.10567E-04  8424   0.734E-04 0.741E-04
CGA:  43    -0.669029117503E+03    0.26543E-07   -0.10381E-04  8424   0.720E-04 0.726E-04
   5 F= -.66902912E+03 E0= -.66902912E+03  d E =-.633573E-01  mag=     4.0000
       N       E                     dE             d eps       ncg     rms          ort
SDA:   1    -0.661243534993E+03    0.77856E+01    0.00000E+00  8424   0.201E+02 0.000E+00
CGA:   2    -0.666450178782E+03   -0.52066E+01   -0.52068E+01  8424   0.107E+02 0.634E-02
CGA:   3    -0.668488685150E+03   -0.20385E+01   -0.20382E+01  8424   0.251E+01-0.888E-03
CGA:   4    -0.668883348788E+03   -0.39466E+00   -0.39483E+00  8424   0.568E+00 0.787E-03
CGA:   5    -0.668981365534E+03   -0.98017E-01   -0.98105E-01  8424   0.121E+00 0.836E-03
CGA:   6    -0.669006192762E+03   -0.24827E-01   -0.24846E-01  8424   0.292E-01 0.365E-03
CGA:   7    -0.669012542471E+03   -0.63497E-02   -0.63705E-02  8424   0.823E-02 0.580E-03
CGA:   8    -0.669014572101E+03   -0.20296E-02   -0.20337E-02  8424   0.266E-02 0.445E-03
CGA:   9    -0.669015282206E+03   -0.71011E-03   -0.70918E-03  8424   0.908E-03 0.395E-03
CGA:  10    -0.669015505471E+03   -0.22327E-03   -0.23379E-03  8424   0.363E-03 0.390E-03
CGA:  11    -0.669015560975E+03   -0.55504E-04   -0.82512E-04  8424   0.177E-03 0.297E-03
CGA:  12    -0.669015564410E+03   -0.34353E-05   -0.21151E-04  8424   0.120E-03 0.141E-03
CGA:  13    -0.669015558852E+03    0.55581E-05   -0.10854E-04  8424   0.102E-03 0.110E-03
   6 F= -.66901556E+03 E0= -.66901556E+03  d E =0.135587E-01  mag=     4.0000
       N       E                     dE             d eps       ncg     rms          ort
SDA:   1    -0.657080178526E+03    0.11935E+02    0.00000E+00  8424   0.353E+02 0.000E+00
CGA:   2    -0.664686450264E+03   -0.76063E+01   -0.76076E+01  8424   0.156E+02 0.881E-01
CGA:   3    -0.667926639586E+03   -0.32402E+01   -0.32396E+01  8424   0.465E+01-0.216E-01
CGA:   4    -0.668680021490E+03   -0.75338E+00   -0.75370E+00  8424   0.111E+01 0.235E-02
CGA:   5    -0.668869872681E+03   -0.18985E+00   -0.19001E+00  8424   0.234E+00 0.276E-02
CGA:   6    -0.668916418791E+03   -0.46546E-01   -0.46539E-01  8424   0.544E-01-0.388E-03
CGA:   7    -0.668928369596E+03   -0.11951E-01   -0.11946E-01  8424   0.161E-01 0.129E-02
CGA:   8    -0.668932288427E+03   -0.39188E-02   -0.39067E-02  8424   0.478E-02 0.605E-03
CGA:   9    -0.668933593405E+03   -0.13050E-02   -0.12866E-02  8424   0.159E-02 0.436E-03
CGA:  10    -0.668934006042E+03   -0.41264E-03   -0.40513E-03  8424   0.614E-03 0.536E-03
CGA:  11    -0.668934160665E+03   -0.15462E-03   -0.16286E-03  8424   0.272E-03 0.378E-03
CGA:  12    -0.668934196394E+03   -0.35729E-04   -0.45351E-04  8424   0.157E-03 0.183E-03
CGA:  13    -0.668934202366E+03   -0.59724E-05   -0.19312E-04  8424   0.132E-03 0.143E-03
CGA:  14    -0.668934203888E+03   -0.15219E-05   -0.14357E-04  8424   0.118E-03 0.124E-03
CGA:  15    -0.668934203216E+03    0.67147E-06   -0.11601E-04  8424   0.109E-03 0.113E-03
   7 F= -.66893420E+03 E0= -.66893420E+03  d E =0.813556E-01  mag=     4.0000
       N       E                     dE             d eps       ncg     rms          ort
SDA:   1    -0.665976848119E+03    0.29574E+01    0.00000E+00  8424   0.100E+02 0.000E+00
CGA:   2    -0.667940930865E+03   -0.19641E+01   -0.19641E+01  8424   0.387E+01 0.209E-01
CGA:   3    -0.668771277147E+03   -0.83035E+00   -0.83048E+00  8424   0.133E+01-0.641E-02
CGA:   4    -0.668991748953E+03   -0.22047E+00   -0.22053E+00  8424   0.332E+00 0.127E-02
CGA:   5    -0.669048835873E+03   -0.57087E-01   -0.57121E-01  8424   0.694E-01 0.135E-02
CGA:   6    -0.669062546650E+03   -0.13711E-01   -0.13712E-01  8424   0.155E-01-0.503E-03
CGA:   7    -0.669065811400E+03   -0.32647E-02   -0.32511E-02  8424   0.434E-02 0.791E-03
CGA:   8    -0.669066846899E+03   -0.10355E-02   -0.10218E-02  8424   0.117E-02 0.472E-03
CGA:   9    -0.669067150998E+03   -0.30410E-03   -0.29543E-03  8424   0.369E-03 0.282E-03
CGA:  10    -0.669067208076E+03   -0.57079E-04   -0.69318E-04  8424   0.188E-03 0.262E-03
CGA:  11    -0.669067220115E+03   -0.12039E-04   -0.22903E-04  8424   0.126E-03 0.147E-03
CGA:  12    -0.669067221148E+03   -0.10323E-05   -0.12050E-04  8424   0.106E-03 0.115E-03
   8 F= -.66906722E+03 E0= -.66906722E+03  d E =-.133018E+00  mag=     4.0000
       N       E                     dE             d eps       ncg     rms          ort
SDA:   1    -0.668515204487E+03    0.55202E+00    0.00000E+00  8424   0.168E+01 0.000E+00
CGA:   2    -0.668863990245E+03   -0.34879E+00   -0.34869E+00  8424   0.707E+00 0.316E-02
CGA:   3    -0.669014192374E+03   -0.15020E+00   -0.15022E+00  8424   0.228E+00-0.814E-03
CGA:   4    -0.669051238805E+03   -0.37046E-01   -0.37059E-01  8424   0.545E-01 0.530E-03
CGA:   5    -0.669060521443E+03   -0.92826E-02   -0.92917E-02  8424   0.110E-01 0.671E-03
CGA:   6    -0.669062694110E+03   -0.21727E-02   -0.21688E-02  8424   0.250E-02 0.330E-03
CGA:   7    -0.669063177126E+03   -0.48302E-03   -0.48110E-03  8424   0.677E-03 0.509E-03
CGA:   8    -0.669063287297E+03   -0.11017E-03   -0.12251E-03  8424   0.258E-03 0.371E-03
CGA:   9    -0.669063305676E+03   -0.18379E-04   -0.30315E-04  8424   0.153E-03 0.185E-03
CGA:  10    -0.669063304442E+03    0.12341E-05   -0.12378E-04  8424   0.128E-03 0.139E-03
   9 F= -.66906330E+03 E0= -.66906330E+03  d E =0.391671E-02  mag=     4.0000
       N       E                     dE             d eps       ncg     rms          ort
SDA:   1    -0.666855081139E+03    0.22082E+01    0.00000E+00  8424   0.559E+01 0.000E+00
CGA:   2    -0.668346814742E+03   -0.14917E+01   -0.14915E+01  8424   0.293E+01 0.226E-02
CGA:   3    -0.668894098381E+03   -0.54728E+00   -0.54730E+00  8424   0.676E+00-0.122E-02
CGA:   4    -0.669001362985E+03   -0.10726E+00   -0.10728E+00  8424   0.158E+00 0.735E-03
CGA:   5    -0.669028681658E+03   -0.27319E-01   -0.27319E-01  8424   0.334E-01 0.695E-03
CGA:   6    -0.669035452016E+03   -0.67704E-02   -0.67584E-02  8424   0.796E-02 0.423E-03
CGA:   7    -0.669037179500E+03   -0.17275E-02   -0.17088E-02  8424   0.225E-02 0.499E-03
CGA:   8    -0.669037732441E+03   -0.55294E-03   -0.53441E-03  8424   0.730E-03 0.396E-03
CGA:   9    -0.669037900403E+03   -0.16796E-03   -0.16371E-03  8424   0.306E-03 0.360E-03
CGA:  10    -0.669037951560E+03   -0.51157E-04   -0.63137E-04  8424   0.186E-03 0.288E-03
CGA:  11    -0.669037964683E+03   -0.13123E-04   -0.22116E-04  8424   0.135E-03 0.154E-03
CGA:  12    -0.669037967429E+03   -0.27458E-05   -0.12795E-04  8424   0.118E-03 0.126E-03
  10 F= -.66903797E+03 E0= -.66903797E+03  d E =0.253370E-01  mag=     4.0000
       N       E                     dE             d eps       ncg     rms          ort
SDA:   1    -0.660114083040E+03    0.89239E+01    0.00000E+00  8424   0.291E+02 0.000E+00
CGA:   2    -0.665719799167E+03   -0.56057E+01   -0.56009E+01  8424   0.110E+02 0.130E+00
CGA:   3    -0.668095325823E+03   -0.23755E+01   -0.23772E+01  8424   0.377E+01-0.314E-01
CGA:   4    -0.668725833496E+03   -0.63051E+00   -0.63052E+00  8424   0.950E+00 0.393E-02
CGA:   5    -0.668888698912E+03   -0.16287E+00   -0.16286E+00  8424   0.202E+00 0.410E-02
CGA:   6    -0.668928353825E+03   -0.39655E-01   -0.39679E-01  8424   0.452E-01-0.947E-03
CGA:   7    -0.668938047621E+03   -0.96938E-02   -0.96270E-02  8424   0.130E-01 0.155E-02
CGA:   8    -0.668941256158E+03   -0.32085E-02   -0.31679E-02  8424   0.365E-02 0.647E-03
CGA:   9    -0.668942253547E+03   -0.99739E-03   -0.97201E-03  8424   0.114E-02 0.326E-03
CGA:  10    -0.668942516771E+03   -0.26322E-03   -0.25216E-03  8424   0.439E-03 0.468E-03
CGA:  11    -0.668942619773E+03   -0.10300E-03   -0.10626E-03  8424   0.224E-03 0.325E-03
CGA:  12    -0.668942654732E+03   -0.34959E-04   -0.37202E-04  8424   0.133E-03 0.153E-03
CGA:  13    -0.668942659765E+03   -0.50334E-05   -0.14161E-04  8424   0.115E-03 0.123E-03
CGA:  14    -0.668942663231E+03   -0.34655E-05   -0.11639E-04  8424   0.103E-03 0.108E-03
  11 F= -.66894266E+03 E0= -.66894266E+03  d E =0.953042E-01  mag=     4.0000
       N       E                     dE             d eps       ncg     rms          ort
SDA:   1    -0.667149957275E+03    0.17927E+01    0.00000E+00  8424   0.626E+01 0.000E+00
CGA:   2    -0.668376622234E+03   -0.12267E+01   -0.12262E+01  8424   0.241E+01 0.145E-01
CGA:   3    -0.668890954055E+03   -0.51433E+00   -0.51452E+00  8424   0.827E+00-0.431E-02
CGA:   4    -0.669028406918E+03   -0.13745E+00   -0.13746E+00  8424   0.208E+00 0.104E-02
CGA:   5    -0.669064152536E+03   -0.35746E-01   -0.35746E-01  8424   0.437E-01 0.970E-03
CGA:   6    -0.669072791820E+03   -0.86393E-02   -0.86503E-02  8424   0.975E-02-0.447E-03
CGA:   7    -0.669074824894E+03   -0.20331E-02   -0.20124E-02  8424   0.270E-02 0.582E-03
CGA:   8    -0.669075473325E+03   -0.64843E-03   -0.63302E-03  8424   0.723E-03 0.330E-03
CGA:   9    -0.669075665978E+03   -0.19265E-03   -0.18374E-03  8424   0.232E-03 0.181E-03
CGA:  10    -0.669075704319E+03   -0.38341E-04   -0.43345E-04  8424   0.119E-03 0.167E-03
CGA:  11    -0.669075714186E+03   -0.98672E-05   -0.14843E-04  8424   0.797E-04 0.929E-04
  12 F= -.66907571E+03 E0= -.66907571E+03  d E =-.133051E+00  mag=     4.0000
       N       E                     dE             d eps       ncg     rms          ort
SDA:   1    -0.668294915576E+03    0.78079E+00    0.00000E+00  8424   0.249E+01 0.000E+00
CGA:   2    -0.668799399069E+03   -0.50448E+00   -0.50431E+00  8424   0.100E+01 0.487E-02
CGA:   3    -0.669011262347E+03   -0.21186E+00   -0.21192E+00  8424   0.330E+00-0.148E-02
CGA:   4    -0.669065573575E+03   -0.54311E-01   -0.54317E-01  8424   0.816E-01 0.455E-03
CGA:   5    -0.669079640281E+03   -0.14067E-01   -0.14068E-01  8424   0.170E-01 0.542E-03
CGA:   6    -0.669083029166E+03   -0.33889E-02   -0.33900E-02  8424   0.383E-02-0.493E-04
CGA:   7    -0.669083825355E+03   -0.79619E-03   -0.78596E-03  8424   0.106E-02 0.338E-03
CGA:   8    -0.669084068841E+03   -0.24349E-03   -0.23681E-03  8424   0.293E-03 0.230E-03
CGA:   9    -0.669084133105E+03   -0.64264E-04   -0.64127E-04  8424   0.115E-03 0.148E-03
CGA:  10    -0.669084141841E+03   -0.87365E-05   -0.13789E-04  8424   0.719E-04 0.852E-04
  13 F= -.66908414E+03 E0= -.66908414E+03  d E =-.842766E-02  mag=     4.0000
       N       E                     dE             d eps       ncg     rms          ort
SDA:   1    -0.668763699048E+03    0.32043E+00    0.00000E+00  8424   0.835E+00 0.000E+00
CGA:   2    -0.668973278833E+03   -0.20958E+00   -0.20949E+00  8424   0.423E+00 0.990E-03
CGA:   3    -0.669054646071E+03   -0.81367E-01   -0.81373E-01  8424   0.104E+00-0.365E-03
CGA:   4    -0.669071196153E+03   -0.16550E-01   -0.16556E-01  8424   0.244E-01 0.339E-03
CGA:   5    -0.669075403215E+03   -0.42071E-02   -0.42083E-02  8424   0.515E-02 0.329E-03
CGA:   6    -0.669076439104E+03   -0.10359E-02   -0.10325E-02  8424   0.118E-02 0.150E-03
CGA:   7    -0.669076671467E+03   -0.23236E-03   -0.22956E-03  8424   0.323E-03 0.230E-03
CGA:   8    -0.669076727372E+03   -0.55905E-04   -0.59733E-04  8424   0.125E-03 0.171E-03
CGA:   9    -0.669076737771E+03   -0.10399E-04   -0.15252E-04  8424   0.741E-04 0.892E-04
CGA:  10    -0.669076737964E+03   -0.19325E-06   -0.61970E-05  8424   0.618E-04 0.669E-04
  14 F= -.66907674E+03 E0= -.66907674E+03  d E =0.740388E-02  mag=     4.0000
       N       E                     dE             d eps       ncg     rms          ort
SDA:   1    -0.660894294653E+03    0.81824E+01    0.00000E+00  8424   0.253E+02 0.000E+00
CGA:   2    -0.665985281277E+03   -0.50910E+01   -0.50858E+01  8424   0.104E+02 0.105E+00
CGA:   3    -0.668205391890E+03   -0.22201E+01   -0.22217E+01  8424   0.341E+01-0.301E-01
CGA:   4    -0.668764686542E+03   -0.55929E+00   -0.55931E+00  8424   0.814E+00 0.354E-02
CGA:   5    -0.668903410599E+03   -0.13872E+00   -0.13872E+00  8424   0.172E+00 0.320E-02
CGA:   6    -0.668937329045E+03   -0.33918E-01   -0.33953E-01  8424   0.395E-01-0.121E-02
CGA:   7    -0.668945890265E+03   -0.85612E-02   -0.85181E-02  8424   0.114E-01 0.906E-03
CGA:   8    -0.668948735508E+03   -0.28452E-02   -0.28510E-02  8424   0.339E-02-0.797E-04
CGA:   9    -0.668949681236E+03   -0.94573E-03   -0.97654E-03  8424   0.127E-02-0.269E-03
CGA:  10    -0.668950042847E+03   -0.36161E-03   -0.37288E-03  8424   0.571E-03-0.829E-04
CGA:  11    -0.668950006932E+03    0.35915E-04   -0.39755E-03  8424   0.193E-02-0.781E-03
CGA:  12    -0.668950345868E+03   -0.33894E-03   -0.34393E-03  8424   0.263E-03 0.133E-03
CGA:  13    -0.668950471207E+03   -0.12534E-03    0.76457E-03  8424   0.857E-04 0.882E-04
CGA:  14    -0.668950536326E+03   -0.65120E-04    0.37263E-04  8424   0.513E-04 0.546E-04
CGA:  15    -0.668950570572E+03   -0.34246E-04    0.98275E-05  8424   0.362E-04 0.359E-04
CGA:  16    -0.668950612847E+03   -0.42274E-04    0.22517E-05  8424   0.320E-04 0.315E-04
CGA:  17    -0.668950643449E+03   -0.30602E-04    0.27691E-05  8424   0.293E-04 0.289E-04
CGA:  18    -0.668950682689E+03   -0.39240E-04    0.14694E-05  8424   0.273E-04 0.268E-04
CGA:  19    -0.668950711882E+03   -0.29194E-04    0.19546E-05  8424   0.259E-04 0.252E-04
CGA:  20    -0.668950750132E+03   -0.38250E-04    0.11283E-05  8424   0.248E-04 0.238E-04
CGA:  21    -0.668950777561E+03   -0.27429E-04    0.16752E-05  8424   0.240E-04 0.227E-04
CGA:  22    -0.668950816021E+03   -0.38460E-04    0.93939E-06  8424   0.235E-04 0.217E-04
CGA:  23    -0.668950841323E+03   -0.25302E-04    0.16597E-05  8424   0.232E-04 0.208E-04
CGA:  24    -0.668950880687E+03   -0.39363E-04    0.83567E-06  8424   0.230E-04 0.199E-04
CGA:  25    -0.668950903694E+03   -0.23008E-04    0.18374E-05  8424   0.229E-04 0.190E-04
CGA:  26    -0.668950944164E+03   -0.40470E-04    0.78624E-06  8424   0.230E-04 0.181E-04
CGA:  27    -0.668950964970E+03   -0.20806E-04    0.22020E-05  8424   0.231E-04 0.172E-04
CGA:  28    -0.668951006391E+03   -0.41421E-04    0.77610E-06  8424   0.233E-04 0.163E-04
CGA:  29    -0.668951025275E+03   -0.18884E-04    0.27941E-05  8424   0.236E-04 0.153E-04
CGA:  30    -0.668951067321E+03   -0.42046E-04    0.79896E-06  8424   0.239E-04 0.143E-04
CGA:  31    -0.668951084635E+03   -0.17314E-04    0.37159E-05  8424   0.244E-04 0.133E-04
CGA:  32    -0.668951126943E+03   -0.42308E-04    0.85369E-06  8424   0.248E-04 0.122E-04
CGA:  33    -0.668951186449E+03   -0.59506E-04    0.14606E-05  8424   0.231E-04 0.366E-04
CGA:  34    -0.668951202152E+03   -0.15702E-04    0.41962E-05  8424   0.234E-04 0.117E-04
CGA:  35    -0.668951243583E+03   -0.41431E-04    0.79968E-06  8424   0.238E-04 0.108E-04
CGA:  36    -0.668951300880E+03   -0.57297E-04    0.13061E-05  8424   0.223E-04 0.342E-04
CGA:  37    -0.668951315095E+03   -0.14216E-04    0.49026E-05  8424   0.225E-04 0.104E-04
CGA:  38    -0.668951370049E+03   -0.54953E-04    0.12182E-05  8424   0.213E-04 0.324E-04
CGA:  39    -0.668951410311E+03   -0.40263E-04    0.66541E-06  8424   0.214E-04 0.994E-05
CGA:  40    -0.668951463967E+03   -0.53656E-04    0.11219E-05  8424   0.203E-04 0.309E-04
CGA:  41    -0.668951476016E+03   -0.12049E-04    0.56299E-05  8424   0.203E-04 0.956E-05
CGA:  42    -0.668951527209E+03   -0.51192E-04    0.10650E-05  8424   0.194E-04 0.294E-04
CGA:  43    -0.668951566257E+03   -0.39048E-04    0.56012E-06  8424   0.193E-04 0.922E-05
CGA:  44    -0.668951616373E+03   -0.50116E-04    0.97847E-06  8424   0.185E-04 0.280E-04
CGA:  45    -0.668951626372E+03   -0.99988E-05    0.75950E-05  8424   0.184E-04 0.887E-05
  15 F= -.66895163E+03 E0= -.66895163E+03  d E =0.125112E+00  mag=     4.0000
       N       E                     dE             d eps       ncg     rms          ort
SDA:   1    -0.664371827791E+03    0.45798E+01    0.00000E+00  8424   0.155E+02 0.000E+00
CGA:   2    -0.667362879831E+03   -0.29911E+01   -0.29924E+01  8424   0.595E+01 0.361E-01
CGA:   3    -0.668638874489E+03   -0.12760E+01   -0.12760E+01  8424   0.203E+01-0.120E-01
CGA:   4    -0.668978708574E+03   -0.33983E+00   -0.33996E+00  8424   0.510E+00 0.152E-02
CGA:   5    -0.669065724140E+03   -0.87016E-01   -0.87089E-01  8424   0.109E+00 0.158E-02
CGA:   6    -0.669087034202E+03   -0.21310E-01   -0.21297E-01  8424   0.242E-01-0.988E-03
CGA:   7    -0.669092190349E+03   -0.51561E-02   -0.51513E-02  8424   0.691E-02 0.704E-03
CGA:   8    -0.669093855788E+03   -0.16654E-02   -0.16585E-02  8424   0.189E-02 0.281E-03
CGA:   9    -0.669094384620E+03   -0.52883E-03   -0.52721E-03  8424   0.602E-03 0.272E-04
CGA:  10    -0.669094524148E+03   -0.13953E-03   -0.13749E-03  8424   0.206E-03 0.162E-03
CGA:  11    -0.669094577501E+03   -0.53353E-04   -0.54073E-04  8424   0.831E-04 0.104E-03
CGA:  12    -0.669094584296E+03   -0.67942E-05   -0.11210E-04  8424   0.462E-04 0.565E-04
  16 F= -.66909458E+03 E0= -.66909458E+03  d E =-.142958E+00  mag=     4.0000
       N       E                     dE             d eps       ncg     rms          ort
SDA:   1    -0.668953106450E+03    0.14147E+00    0.00000E+00  8424   0.362E+00 0.000E+00
CGA:   2    -0.669047558847E+03   -0.94452E-01   -0.94442E-01  8424   0.193E+00 0.127E-03
CGA:   3    -0.669084042609E+03   -0.36484E-01   -0.36484E-01  8424   0.449E-01 0.224E-04
CGA:   4    -0.669091089960E+03   -0.70474E-02   -0.70559E-02  8424   0.102E-01 0.172E-03
CGA:   5    -0.669092826412E+03   -0.17365E-02   -0.17424E-02  8424   0.216E-02 0.181E-03
CGA:   6    -0.669093253423E+03   -0.42701E-03   -0.42785E-03  8424   0.489E-03 0.141E-03
CGA:   7    -0.669093337012E+03   -0.83589E-04   -0.88103E-04  8424   0.136E-03 0.144E-03
CGA:   8    -0.669093348633E+03   -0.11621E-04   -0.20290E-04  8424   0.672E-04 0.103E-03
CGA:   9    -0.669093348477E+03    0.15608E-06   -0.57661E-05  8424   0.468E-04 0.543E-04
  17 F= -.66909335E+03 E0= -.66909335E+03  d E =0.123582E-02  mag=     4.0000
       N       E                     dE             d eps       ncg     rms          ort
SDA:   1    -0.660712671237E+03    0.83807E+01    0.00000E+00  8424   0.226E+02 0.000E+00
CGA:   2    -0.666174598577E+03   -0.54619E+01   -0.54589E+01  8424   0.113E+02 0.393E-01
CGA:   3    -0.668396888546E+03   -0.22223E+01   -0.22225E+01  8424   0.292E+01-0.145E-01
CGA:   4    -0.668860144915E+03   -0.46326E+00   -0.46335E+00  8424   0.669E+00 0.199E-02
CGA:   5    -0.668975492303E+03   -0.11535E+00   -0.11537E+00  8424   0.143E+00 0.144E-02
CGA:   6    -0.669004338313E+03   -0.28846E-01   -0.28856E-01  8424   0.341E-01-0.634E-03
CGA:   7    -0.669011856750E+03   -0.75184E-02   -0.75081E-02  8424   0.989E-02 0.283E-03
CGA:   8    -0.669014359555E+03   -0.25028E-02   -0.25241E-02  8424   0.330E-02-0.324E-03
CGA:   9    -0.669015286608E+03   -0.92705E-03   -0.96405E-03  8424   0.134E-02-0.333E-03
CGA:  10    -0.669015681446E+03   -0.39484E-03   -0.52894E-03  8424   0.107E-02-0.553E-03
CGA:  11    -0.669015803358E+03   -0.12191E-03   -0.27260E-03  8424   0.951E-03-0.675E-03
CGA:  12    -0.669016047879E+03   -0.24452E-03   -0.25543E-03  8424   0.502E-03-0.222E-03
CGA:  13    -0.669016156109E+03   -0.10823E-03   -0.15082E-03  8424   0.518E-03-0.251E-03
CGA:  14    -0.669016273329E+03   -0.11722E-03   -0.11494E-03  8424   0.370E-03-0.264E-03
CGA:  15    -0.669016313197E+03   -0.39868E-04   -0.41793E-04  8424   0.276E-04 0.167E-04
CGA:  16    -0.669016356851E+03   -0.43654E-04    0.13580E-05  8424   0.228E-04 0.214E-04
CGA:  17    -0.669016396141E+03   -0.39290E-04    0.89971E-06  8424   0.211E-04 0.128E-04
CGA:  18    -0.669016429823E+03   -0.33683E-04    0.92193E-06  8424   0.207E-04 0.105E-04
CGA:  19    -0.669016501461E+03   -0.71637E-04    0.83532E-06  8424   0.167E-04 0.284E-04
CGA:  20    -0.669016537694E+03   -0.36233E-04    0.48754E-06  8424   0.174E-04 0.911E-05
CGA:  21    -0.669016569986E+03   -0.32292E-04    0.62240E-06  8424   0.189E-04 0.717E-05
CGA:  22    -0.669016641570E+03   -0.71584E-04    0.59718E-06  8424   0.159E-04 0.256E-04
CGA:  23    -0.669016676336E+03   -0.34766E-04    0.45782E-06  8424   0.176E-04 0.652E-05
CGA:  24    -0.669016746397E+03   -0.70061E-04    0.52347E-06  8424   0.149E-04 0.241E-04
CGA:  25    -0.669016777122E+03   -0.30724E-04    0.46374E-06  8424   0.166E-04 0.603E-05
CGA:  26    -0.669016845756E+03   -0.68634E-04    0.47119E-06  8424   0.141E-04 0.228E-04
CGA:  27    -0.669016878513E+03   -0.32757E-04    0.37964E-06  8424   0.159E-04 0.556E-05
CGA:  28    -0.669016945601E+03   -0.67088E-04    0.43208E-06  8424   0.135E-04 0.216E-04
CGA:  29    -0.669016974947E+03   -0.29346E-04    0.39391E-06  8424   0.152E-04 0.515E-05
CGA:  30    -0.669017040315E+03   -0.65368E-04    0.39565E-06  8424   0.130E-04 0.205E-04
CGA:  31    -0.669017071254E+03   -0.30939E-04    0.33790E-06  8424   0.146E-04 0.472E-05
CGA:  32    -0.669017134806E+03   -0.63552E-04    0.36414E-06  8424   0.126E-04 0.194E-04
CGA:  33    -0.669017162826E+03   -0.28020E-04    0.35568E-06  8424   0.139E-04 0.435E-05
CGA:  34    -0.669017224295E+03   -0.61470E-04    0.33265E-06  8424   0.122E-04 0.182E-04
CGA:  35    -0.669017253641E+03   -0.29345E-04    0.31405E-06  8424   0.132E-04 0.406E-05
CGA:  36    -0.669017312678E+03   -0.59037E-04    0.30341E-06  8424   0.118E-04 0.170E-04
CGA:  37    -0.669017339454E+03   -0.26777E-04    0.32665E-06  8424   0.122E-04 0.400E-05
CGA:  38    -0.669017395611E+03   -0.56157E-04    0.27311E-06  8424   0.112E-04 0.157E-04
CGA:  39    -0.669017423633E+03   -0.28022E-04    0.27585E-06  8424   0.109E-04 0.426E-05
CGA:  40    -0.669017476617E+03   -0.52984E-04    0.24358E-06  8424   0.104E-04 0.143E-04
CGA:  41    -0.669017502313E+03   -0.25697E-04    0.26011E-06  8424   0.938E-05 0.480E-05
CGA:  42    -0.669017552082E+03   -0.49769E-04    0.21602E-06  8424   0.953E-05 0.130E-04
CGA:  43    -0.669017578842E+03   -0.26760E-04    0.20270E-06  8424   0.814E-05 0.532E-05
CGA:  44    -0.669017603887E+03   -0.25044E-04    0.15540E-06  8424   0.771E-05 0.579E-05
CGA:  45    -0.669017629691E+03   -0.25805E-04    0.13349E-06  8424   0.749E-05 0.589E-05
CGA:  46    -0.669017654553E+03   -0.24861E-04    0.13094E-06  8424   0.736E-05 0.586E-05
CGA:  47    -0.669017679752E+03   -0.25199E-04    0.12419E-06  8424   0.729E-05 0.577E-05
CGA:  48    -0.669017704401E+03   -0.24649E-04    0.12492E-06  8424   0.728E-05 0.562E-05
CGA:  49    -0.669017729020E+03   -0.24619E-04    0.12478E-06  8424   0.734E-05 0.541E-05
CGA:  50    -0.669017753439E+03   -0.24419E-04    0.12816E-06  8424   0.749E-05 0.513E-05
CGA:  51    -0.669017777485E+03   -0.24046E-04    0.13607E-06  8424   0.775E-05 0.475E-05
CGA:  52    -0.669017801635E+03   -0.24150E-04    0.14597E-06  8424   0.819E-05 0.423E-05
CGA:  53    -0.669017825147E+03   -0.23511E-04    0.16973E-06  8424   0.888E-05 0.350E-05
CGA:  54    -0.669017874702E+03   -0.49555E-04    0.18413E-06  8424   0.785E-05 0.124E-04
CGA:  55    -0.669017898176E+03   -0.23473E-04    0.15509E-06  8424   0.853E-05 0.333E-05
CGA:  56    -0.669017946572E+03   -0.48397E-04    0.17251E-06  8424   0.752E-05 0.119E-04
CGA:  57    -0.669017968729E+03   -0.22157E-04    0.15136E-06  8424   0.823E-05 0.314E-05
CGA:  58    -0.669018016097E+03   -0.47368E-04    0.16197E-06  8424   0.724E-05 0.114E-04
CGA:  59    -0.669018038650E+03   -0.22553E-04    0.13616E-06  8424   0.789E-05 0.297E-05
CGA:  60    -0.669018084746E+03   -0.46096E-04    0.15138E-06  8424   0.697E-05 0.109E-04
CGA:  61    -0.669018105640E+03   -0.20893E-04    0.13711E-06  8424   0.759E-05 0.280E-05
CGA:  62    -0.669018150642E+03   -0.45002E-04    0.14138E-06  8424   0.673E-05 0.104E-04
CGA:  63    -0.669018172234E+03   -0.21593E-04    0.12241E-06  8424   0.728E-05 0.264E-05
CGA:  64    -0.669018215866E+03   -0.43632E-04    0.13205E-06  8424   0.651E-05 0.995E-05
CGA:  65    -0.669018235697E+03   -0.19831E-04    0.12589E-06  8424   0.701E-05 0.247E-05
CGA:  66    -0.669018278272E+03   -0.42575E-04    0.12269E-06  8424   0.632E-05 0.949E-05
CGA:  67    -0.669018298795E+03   -0.20523E-04    0.11337E-06  8424   0.672E-05 0.231E-05
CGA:  68    -0.669018339864E+03   -0.41069E-04    0.11471E-06  8424   0.614E-05 0.902E-05
CGA:  69    -0.669018358880E+03   -0.19017E-04    0.11622E-06  8424   0.645E-05 0.217E-05
CGA:  70    -0.669018398949E+03   -0.40069E-04    0.10592E-06  8424   0.596E-05 0.857E-05
CGA:  71    -0.669018418270E+03   -0.19321E-04    0.10705E-06  8424   0.614E-05 0.206E-05
CGA:  72    -0.669018456645E+03   -0.38375E-04    0.99103E-07  8424   0.576E-05 0.811E-05
CGA:  73    -0.669018475106E+03   -0.18460E-04    0.10485E-06  8424   0.581E-05 0.200E-05
CGA:  74    -0.669018512507E+03   -0.37401E-04    0.90823E-07  8424   0.553E-05 0.767E-05
CGA:  75    -0.669018530520E+03   -0.18013E-04    0.98808E-07  8424   0.542E-05 0.200E-05
CGA:  76    -0.669018566058E+03   -0.35538E-04    0.85002E-07  8424   0.525E-05 0.722E-05
CGA:  77    -0.669018584150E+03   -0.18092E-04    0.87942E-07  8424   0.500E-05 0.206E-05
CGA:  78    -0.669018618790E+03   -0.34640E-04    0.77421E-07  8424   0.494E-05 0.679E-05
CGA:  79    -0.669018635506E+03   -0.16716E-04    0.84509E-07  8424   0.457E-05 0.217E-05
CGA:  80    -0.669018668320E+03   -0.32814E-04    0.72720E-07  8424   0.462E-05 0.639E-05
CGA:  81    -0.669018686044E+03   -0.17724E-04    0.68345E-07  8424   0.417E-05 0.228E-05
CGA:  82    -0.669018718238E+03   -0.32193E-04    0.66333E-07  8424   0.431E-05 0.604E-05
CGA:  83    -0.669018733813E+03   -0.15576E-04    0.68496E-07  8424   0.383E-05 0.237E-05
CGA:  84    -0.669018750724E+03   -0.16910E-04    0.48360E-07  8424   0.359E-05 0.259E-05
CGA:  85    -0.669018766710E+03   -0.15986E-04    0.44985E-07  8424   0.343E-05 0.270E-05
CGA:  86    -0.669018782825E+03   -0.16115E-04    0.40438E-07  8424   0.331E-05 0.275E-05
CGA:  87    -0.669018798937E+03   -0.16112E-04    0.37685E-07  8424   0.323E-05 0.277E-05
CGA:  88    -0.669018814509E+03   -0.15571E-04    0.37102E-07  8424   0.317E-05 0.277E-05
CGA:  89    -0.669018830617E+03   -0.16108E-04    0.34365E-07  8424   0.313E-05 0.274E-05
CGA:  90    -0.669018845710E+03   -0.15093E-04    0.35840E-07  8424   0.310E-05 0.271E-05
CGA:  91    -0.669018861807E+03   -0.16097E-04    0.32724E-07  8424   0.308E-05 0.266E-05
CGA:  92    -0.669018876394E+03   -0.14587E-04    0.36040E-07  8424   0.308E-05 0.260E-05
CGA:  93    -0.669018892533E+03   -0.16139E-04    0.32196E-07  8424   0.309E-05 0.252E-05
CGA:  94    -0.669018906546E+03   -0.14013E-04    0.37979E-07  8424   0.313E-05 0.243E-05
CGA:  95    -0.669018922806E+03   -0.16260E-04    0.33037E-07  8424   0.319E-05 0.231E-05
CGA:  96    -0.669018936163E+03   -0.13357E-04    0.42845E-07  8424   0.329E-05 0.216E-05
CGA:  97    -0.669018952627E+03   -0.16464E-04    0.36290E-07  8424   0.344E-05 0.197E-05
CGA:  98    -0.669018965245E+03   -0.12618E-04    0.53705E-07  8424   0.366E-05 0.172E-05
CGA:  99    -0.669018995505E+03   -0.30259E-04    0.54459E-07  8424   0.329E-05 0.541E-05
CGA: 100    -0.669019011692E+03   -0.16187E-04    0.36886E-07  8424   0.348E-05 0.169E-05
CGA: 101    -0.669019023640E+03   -0.11948E-04    0.58507E-07  8424   0.376E-05 0.139E-05
CGA: 102    -0.669019053104E+03   -0.29464E-04    0.51379E-07  8424   0.339E-05 0.519E-05
CGA: 103    -0.669019069122E+03   -0.16018E-04    0.39703E-07  8424   0.363E-05 0.132E-05
CGA: 104    -0.669019097605E+03   -0.28483E-04    0.48801E-07  8424   0.329E-05 0.497E-05
CGA: 105    -0.669019108717E+03   -0.11113E-04    0.56372E-07  8424   0.355E-05 0.123E-05
CGA: 106    -0.669019136727E+03   -0.28009E-04    0.46319E-07  8424   0.322E-05 0.481E-05
CGA: 107    -0.669019152249E+03   -0.15522E-04    0.36938E-07  8424   0.346E-05 0.114E-05
CGA: 108    -0.669019179390E+03   -0.27141E-04    0.44114E-07  8424   0.315E-05 0.462E-05
CGA: 109    -0.669019189656E+03   -0.10266E-04    0.56405E-07  8424   0.341E-05 0.104E-05
CGA: 110    -0.669019216279E+03   -0.26624E-04    0.41876E-07  8424   0.311E-05 0.446E-05
CGA: 111    -0.669019231371E+03   -0.15091E-04    0.35525E-07  8424   0.335E-05 0.933E-06
CGA: 112    -0.669019257212E+03   -0.25842E-04    0.39948E-07  8424   0.309E-05 0.430E-05
CGA: 113    -0.669019266620E+03   -0.94080E-05    0.59599E-07  8424   0.333E-05 0.810E-06
  18 F= -.66901927E+03 E0= -.66901927E+03  d E =0.740819E-01  mag=     4.0000
       N       E                     dE             d eps       ncg     rms          ort
SDA:   1    -0.649930243102E+03    0.19089E+02    0.00000E+00  8424   0.650E+02 0.000E+00
CGA:   2    -0.661742999979E+03   -0.11813E+02   -0.11851E+02  8424   0.238E+02 0.319E+00
CGA:   3    -0.667017246902E+03   -0.52742E+01   -0.52740E+01  8424   0.812E+01-0.790E-01
CGA:   4    -0.668393085747E+03   -0.13758E+01   -0.13766E+01  8424   0.205E+01 0.529E-02
CGA:   5    -0.668734305660E+03   -0.34122E+00   -0.34163E+00  8424   0.434E+00 0.484E-02
CGA:   6    -0.668820210620E+03   -0.85905E-01   -0.85862E-01  8424   0.989E-01-0.218E-02
CGA:   7    -0.668841863315E+03   -0.21653E-01   -0.21647E-01  8424   0.295E-01 0.145E-02
CGA:   8    -0.668848903347E+03   -0.70400E-02   -0.70310E-02  8424   0.848E-02 0.471E-03
CGA:   9    -0.668851261462E+03   -0.23581E-02   -0.23751E-02  8424   0.290E-02-0.291E-03
CGA:  10    -0.668852090534E+03   -0.82907E-03   -0.82754E-03  8424   0.121E-02 0.190E-04
CGA:  11    -0.668852493872E+03   -0.40334E-03   -0.41777E-03  8424   0.527E-03-0.122E-03
CGA:  12    -0.668852617906E+03   -0.12403E-03   -0.12147E-03  8424   0.196E-03 0.953E-04
CGA:  13    -0.668852685895E+03   -0.67989E-04   -0.64525E-04  8424   0.112E-03 0.717E-04
CGA:  14    -0.668852725360E+03   -0.39465E-04   -0.38059E-04  8424   0.858E-04 0.856E-04
CGA:  15    -0.668852738651E+03   -0.13292E-04   -0.16136E-04  8424   0.563E-04 0.613E-04
CGA:  16    -0.668852749981E+03   -0.11329E-04   -0.12151E-04  8424   0.497E-04 0.508E-04
CGA:  17    -0.668852754051E+03   -0.40706E-05   -0.77113E-05  8424   0.471E-04 0.478E-04
  19 F= -.66885275E+03 E0= -.66885275E+03  d E =0.166513E+00  mag=     4.0000
       N       E                     dE             d eps       ncg     rms          ort
SDA:   1    -0.664541488127E+03    0.43113E+01    0.00000E+00  8424   0.150E+02 0.000E+00
CGA:   2    -0.667426296537E+03   -0.28848E+01   -0.28870E+01  8424   0.566E+01 0.326E-01
CGA:   3    -0.668648024678E+03   -0.12217E+01   -0.12216E+01  8424   0.197E+01-0.109E-01
CGA:   4    -0.668975669413E+03   -0.32764E+00   -0.32777E+00  8424   0.494E+00 0.857E-03
CGA:   5    -0.669060347759E+03   -0.84678E-01   -0.84765E-01  8424   0.104E+00 0.155E-02
CGA:   6    -0.669080679629E+03   -0.20332E-01   -0.20321E-01  8424   0.228E-01-0.467E-03
CGA:   7    -0.669085583839E+03   -0.49042E-02   -0.49042E-02  8424   0.649E-02 0.730E-03
CGA:   8    -0.669087149625E+03   -0.15658E-02   -0.15608E-02  8424   0.178E-02 0.297E-03
CGA:   9    -0.669087612102E+03   -0.46248E-03   -0.45714E-03  8424   0.511E-03 0.191E-03
CGA:  10    -0.669087707570E+03   -0.95468E-04   -0.10392E-03  8424   0.196E-03 0.243E-03
CGA:  11    -0.669087733143E+03   -0.25573E-04   -0.39275E-04  8424   0.103E-03 0.170E-03
CGA:  12    -0.669087738121E+03   -0.49782E-05   -0.12352E-04  8424   0.679E-04 0.797E-04
  20 F= -.66908774E+03 E0= -.66908774E+03  d E =-.234984E+00  mag=     4.0000
       N       E                     dE             d eps       ncg     rms          ort
SDA:   1    -0.668791905779E+03    0.29583E+00    0.00000E+00  8424   0.834E+00 0.000E+00
CGA:   2    -0.668990778594E+03   -0.19887E+00   -0.19886E+00  8424   0.411E+00 0.235E-03
CGA:   3    -0.669072377783E+03   -0.81599E-01   -0.81599E-01  8424   0.110E+00-0.811E-05
CGA:   4    -0.669089787230E+03   -0.17409E-01   -0.17417E-01  8424   0.254E-01 0.158E-03
CGA:   5    -0.669094120840E+03   -0.43336E-02   -0.43405E-02  8424   0.523E-02 0.225E-03
CGA:   6    -0.669095144518E+03   -0.10237E-02   -0.10249E-02  8424   0.118E-02 0.229E-03
CGA:   7    -0.669095382196E+03   -0.23768E-03   -0.23877E-03  8424   0.318E-03 0.204E-03
CGA:   8    -0.669095435253E+03   -0.53057E-04   -0.59271E-04  8424   0.113E-03 0.155E-03
CGA:   9    -0.669095441258E+03   -0.60049E-05   -0.16677E-04  8424   0.645E-04 0.109E-03
  21 F= -.66909544E+03 E0= -.66909544E+03  d E =-.770314E-02  mag=     4.0000
       N       E                     dE             d eps       ncg     rms          ort
SDA:   1    -0.658821263079E+03    0.10274E+02    0.00000E+00  8424   0.253E+02 0.000E+00
CGA:   2    -0.665994324025E+03   -0.71731E+01   -0.71747E+01  8424   0.137E+02-0.164E-01
CGA:   3    -0.668458876060E+03   -0.24646E+01   -0.24647E+01  8424   0.288E+01 0.768E-02
CGA:   4    -0.668918408798E+03   -0.45953E+00   -0.45955E+00  8424   0.682E+00 0.180E-03
CGA:   5    -0.669036986242E+03   -0.11858E+00   -0.11859E+00  8424   0.147E+00 0.479E-03
CGA:   6    -0.669067172366E+03   -0.30186E-01   -0.30165E-01  8424   0.347E-01 0.128E-02
CGA:   7    -0.669074930123E+03   -0.77578E-02   -0.77496E-02  8424   0.104E-01 0.247E-03
CGA:   8    -0.669077512721E+03   -0.25826E-02   -0.25550E-02  8424   0.334E-02 0.522E-03
CGA:   9    -0.669078410200E+03   -0.89748E-03   -0.86572E-03  8424   0.111E-02 0.587E-03
CGA:  10    -0.669078730722E+03   -0.32052E-03   -0.30418E-03  8424   0.417E-03 0.430E-03
CGA:  11    -0.669078801248E+03   -0.70526E-04   -0.86678E-04  8424   0.187E-03 0.336E-03
CGA:  12    -0.669078805047E+03   -0.37990E-05   -0.18544E-04  8424   0.128E-03 0.153E-03
  22 F= -.66907881E+03 E0= -.66907881E+03  d E =0.166362E-01  mag=     4.0000
       N       E                     dE             d eps       ncg     rms          ort
SDA:   1    -0.652902033045E+03    0.16177E+02    0.00000E+00  8424   0.494E+02 0.000E+00
CGA:   2    -0.662872162145E+03   -0.99701E+01   -0.99612E+01  8424   0.211E+02 0.327E+00
CGA:   3    -0.667513272426E+03   -0.46411E+01   -0.46440E+01  8424   0.680E+01-0.681E-01
CGA:   4    -0.668616008387E+03   -0.11027E+01   -0.11030E+01  8424   0.157E+01 0.376E-02
CGA:   5    -0.668876947769E+03   -0.26094E+00   -0.26104E+00  8424   0.310E+00 0.370E-02
CGA:   6    -0.668940314270E+03   -0.63367E-01   -0.63398E-01  8424   0.747E-01-0.166E-02
CGA:   7    -0.668956786533E+03   -0.16472E-01   -0.16431E-01  8424   0.208E-01 0.117E-02
CGA:   8    -0.668961766363E+03   -0.49798E-02   -0.49450E-02  8424   0.578E-02 0.744E-03
CGA:   9    -0.668963426600E+03   -0.16602E-02   -0.16644E-02  8424   0.208E-02-0.483E-04
CGA:  10    -0.668963940643E+03   -0.51404E-03   -0.49342E-03  8424   0.721E-03 0.465E-03
CGA:  11    -0.668964163534E+03   -0.22289E-03   -0.21242E-03  8424   0.253E-03 0.237E-03
CGA:  12    -0.668964209602E+03   -0.46068E-04   -0.53545E-04  8424   0.121E-03 0.187E-03
CGA:  13    -0.668964210577E+03   -0.97489E-06   -0.11396E-04  8424   0.878E-04 0.101E-03
  23 F= -.66896421E+03 E0= -.66896421E+03  d E =0.114594E+00  mag=     4.0000
       N       E                     dE             d eps       ncg     rms          ort
SDA:   1    -0.659696927890E+03    0.92673E+01    0.00000E+00  8424   0.298E+02 0.000E+00
CGA:   2    -0.665677864125E+03   -0.59809E+01   -0.59776E+01  8424   0.119E+02 0.143E+00
CGA:   3    -0.668218115911E+03   -0.25403E+01   -0.25413E+01  8424   0.379E+01-0.305E-01
CGA:   4    -0.668847679121E+03   -0.62956E+00   -0.62961E+00  8424   0.951E+00 0.542E-03
CGA:   5    -0.669010164166E+03   -0.16249E+00   -0.16252E+00  8424   0.196E+00 0.191E-02
CGA:   6    -0.669049245842E+03   -0.39082E-01   -0.39098E-01  8424   0.442E-01-0.130E-02
CGA:   7    -0.669059169901E+03   -0.99241E-02   -0.99125E-02  8424   0.132E-01 0.293E-03
CGA:   8    -0.669062482234E+03   -0.33123E-02   -0.33351E-02  8424   0.402E-02-0.370E-03
CGA:   9    -0.669063627311E+03   -0.11451E-02   -0.12581E-02  8424   0.195E-02-0.870E-03
CGA:  10    -0.669064092695E+03   -0.46538E-03   -0.59726E-03  8424   0.135E-02-0.690E-03
CGA:  11    -0.669060453259E+03    0.36394E-02   -0.19597E-02  8424   0.227E-01-0.428E-02
CGA:  12    -0.669064048758E+03   -0.35955E-02   -0.36893E-02  8424   0.316E-02 0.420E-03
CGA:  13    -0.669065067791E+03   -0.10190E-02   -0.99009E-03  8424   0.146E-02-0.475E-03
[...]
CGA:   2    -0.663095041884E+03   -0.98368E+01   -0.98704E+01  8424   0.207E+02 0.439E-01
CGA:   3    -0.667500740970E+03   -0.44057E+01   -0.43997E+01  8424   0.643E+01-0.906E-02
CGA:   4    -0.668551047304E+03   -0.10503E+01   -0.10516E+01  8424   0.151E+01 0.144E-02
CGA:   5    -0.668806323885E+03   -0.25528E+00   -0.25577E+00  8424   0.320E+00 0.246E-02
CGA:   6    -0.668870371488E+03   -0.64048E-01   -0.63955E-01  8424   0.732E-01-0.103E-02
CGA:   7    -0.668886506229E+03   -0.16135E-01   -0.16185E-01  8424   0.214E-01 0.859E-03
CGA:   8    -0.668891720359E+03   -0.52141E-02   -0.52205E-02  8424   0.638E-02 0.173E-03
CGA:   9    -0.668893519965E+03   -0.17996E-02   -0.18005E-02  8424   0.225E-02-0.179E-03
CGA:  10    -0.668894182842E+03   -0.66288E-03   -0.66077E-03  8424   0.919E-03 0.782E-04
CGA:  11    -0.668894510451E+03   -0.32761E-03   -0.33634E-03  8424   0.437E-03-0.115E-03
CGA:  12    -0.668894613748E+03   -0.10330E-03   -0.10377E-03  8424   0.183E-03 0.529E-04
CGA:  13    -0.668894708132E+03   -0.94384E-04   -0.11958E-03  8424   0.340E-03-0.865E-04
CGA:  14    -0.668894770705E+03   -0.62573E-04   -0.74671E-04  8424   0.520E-03-0.113E-03
CGA:  15    -0.668894892923E+03   -0.12222E-03   -0.20857E-03  8424   0.114E-02-0.343E-03
CGA:  16    -0.668895247138E+03   -0.35421E-03   -0.35321E-03  8424   0.518E-03-0.176E-03
CGA:  17    -0.668895350063E+03   -0.10293E-03   -0.10653E-03  8424   0.188E-03 0.490E-04
CGA:  18    -0.668895401414E+03   -0.51350E-04   -0.14178E-03  8424   0.641E-03-0.242E-03
CGA:  19    -0.668895549235E+03   -0.14782E-03   -0.14354E-03  8424   0.101E-03-0.402E-04
CGA:  20    -0.668895566561E+03   -0.17326E-04   -0.59199E-04  8424   0.575E-03-0.142E-03
CGA:  21    -0.668895652545E+03   -0.85984E-04   -0.80919E-04  8424   0.506E-04-0.256E-04
CGA:  22    -0.668895689134E+03   -0.36589E-04    0.54841E-04  8424   0.286E-04 0.675E-05
CGA:  23    -0.668895743427E+03   -0.54293E-04    0.35000E-05  8424   0.263E-04 0.245E-04
CGA:  24    -0.668895766501E+03   -0.23074E-04    0.13234E-04  8424   0.221E-04 0.132E-04
CGA:  25    -0.668895806907E+03   -0.40407E-04    0.20761E-05  8424   0.323E-04 0.738E-05
CGA:  26    -0.668895873839E+03   -0.66932E-04    0.52710E-05  8424   0.203E-04 0.397E-04
CGA:  27    -0.668895887901E+03   -0.14061E-04    0.70451E-04  8424   0.277E-04 0.721E-05
CGA:  28    -0.668895956129E+03   -0.68228E-04    0.35551E-05  8424   0.190E-04 0.341E-04
CGA:  29    -0.668895989933E+03   -0.33805E-04    0.18484E-05  8424   0.211E-04 0.832E-05
CGA:  30    -0.668896039393E+03   -0.49460E-04    0.34090E-05  8424   0.177E-04 0.270E-04
CGA:  31    -0.668896063289E+03   -0.23896E-04    0.27878E-05  8424   0.152E-04 0.989E-05
CGA:  32    -0.668896090354E+03   -0.27065E-04    0.14872E-05  8424   0.146E-04 0.103E-04
CGA:  33    -0.668896111014E+03   -0.20660E-04    0.20957E-05  8424   0.142E-04 0.103E-04
CGA:  34    -0.668896140569E+03   -0.29555E-04    0.11007E-05  8424   0.144E-04 0.983E-05
CGA:  35    -0.668896156803E+03   -0.16234E-04    0.33965E-05  8424   0.155E-04 0.875E-05
CGA:  36    -0.668896190682E+03   -0.33879E-04    0.11191E-05  8424   0.186E-04 0.639E-05
CGA:  37    -0.668896241197E+03   -0.50515E-04    0.22674E-05  8424   0.144E-04 0.251E-04
CGA:  38    -0.668896254309E+03   -0.13113E-04    0.64081E-05  8424   0.165E-04 0.641E-05
CGA:  39    -0.668896307193E+03   -0.52883E-04    0.16611E-05  8424   0.135E-04 0.226E-04
CGA:  40    -0.668896336723E+03   -0.29530E-04    0.96751E-06  8424   0.137E-04 0.673E-05
CGA:  41    -0.668896379298E+03   -0.42575E-04    0.15980E-05  8424   0.127E-04 0.197E-04
CGA:  42    -0.668896398474E+03   -0.19176E-04    0.16519E-05  8424   0.116E-04 0.693E-05
CGA:  43    -0.668896425016E+03   -0.26541E-04    0.78405E-06  8424   0.109E-04 0.747E-05
CGA:  44    -0.668896440689E+03   -0.15674E-04    0.15402E-05  8424   0.106E-04 0.758E-05
CGA:  45    -0.668896470010E+03   -0.29320E-04    0.55472E-06  8424   0.108E-04 0.732E-05
CGA:  46    -0.668896481422E+03   -0.11413E-04    0.29514E-05  8424   0.115E-04 0.659E-05
CGA:  47    -0.668896515291E+03   -0.33868E-04    0.54883E-06  8424   0.133E-04 0.511E-05
CGA:  48    -0.668896559124E+03   -0.43833E-04    0.12881E-05  8424   0.106E-04 0.185E-04
CGA:  49    -0.668896567650E+03   -0.85264E-05    0.83031E-05  8424   0.121E-04 0.507E-05
  27 F= -.66889657E+03 E0= -.66889657E+03  d E =0.183256E+00  mag=     4.0000
       N       E                     dE             d eps       ncg     rms          ort
SDA:   1    -0.665125746139E+03    0.37708E+01    0.00000E+00  8424   0.128E+02 0.000E+00
CGA:   2    -0.667650268791E+03   -0.25245E+01   -0.25304E+01  8424   0.507E+01 0.532E-02
CGA:   3    -0.668724943029E+03   -0.10747E+01   -0.10733E+01  8424   0.166E+01-0.216E-02
CGA:   4    -0.669001418182E+03   -0.27648E+00   -0.27668E+00  8424   0.417E+00 0.479E-03
CGA:   5    -0.669073186492E+03   -0.71768E-01   -0.71886E-01  8424   0.905E-01 0.584E-03
CGA:   6    -0.669091018636E+03   -0.17832E-01   -0.17762E-01  8424   0.197E-01-0.648E-03
CGA:   7    -0.669095298444E+03   -0.42798E-02   -0.43044E-02  8424   0.582E-02 0.309E-03
CGA:   8    -0.669096727275E+03   -0.14288E-02   -0.14299E-02  8424   0.170E-02 0.201E-04
CGA:   9    -0.669097208192E+03   -0.48092E-03   -0.47993E-03  8424   0.586E-03-0.102E-03
CGA:  10    -0.669097377427E+03   -0.16923E-03   -0.16948E-03  8424   0.248E-03-0.153E-04
CGA:  11    -0.669097464518E+03   -0.87091E-04   -0.12831E-03  8424   0.331E-03-0.173E-03
CGA:  12    -0.669097509601E+03   -0.45083E-04   -0.53881E-04  8424   0.510E-04 0.622E-04
CGA:  13    -0.669097533158E+03   -0.23557E-04   -0.34748E-04  8424   0.103E-03-0.409E-04
CGA:  14    -0.669097549228E+03   -0.16070E-04   -0.19246E-04  8424   0.211E-04 0.255E-04
CGA:  15    -0.669097565958E+03   -0.16730E-04    0.92326E-04  8424   0.167E-04 0.586E-05
CGA:  16    -0.669097584504E+03   -0.18546E-04   -0.16187E-05  8424   0.212E-03-0.199E-04
CGA:  17    -0.669097639718E+03   -0.55213E-04   -0.58517E-04  8424   0.409E-04 0.117E-04
CGA:  18    -0.669097649380E+03   -0.96618E-05   -0.11246E-04  8424   0.127E-04 0.553E-05
  28 F= -.66909765E+03 E0= -.66909765E+03  d E =-.201082E+00  mag=     4.0000
       N       E                     dE             d eps       ncg     rms          ort
SDA:   1    -0.668697771733E+03    0.39987E+00    0.00000E+00  8424   0.118E+01 0.000E+00
CGA:   2    -0.668958508075E+03   -0.26074E+00   -0.26094E+00  8424   0.536E+00 0.176E-03
CGA:   3    -0.669067752057E+03   -0.10924E+00   -0.10917E+00  8424   0.155E+00-0.893E-04
CGA:   4    -0.669092620548E+03   -0.24868E-01   -0.24885E-01  8424   0.370E-01 0.360E-04
CGA:   5    -0.669099037718E+03   -0.64172E-02   -0.64318E-02  8424   0.795E-02 0.395E-04
CGA:   6    -0.669100633447E+03   -0.15957E-02   -0.15860E-02  8424   0.179E-02-0.381E-04
CGA:   7    -0.669101029528E+03   -0.39608E-03   -0.39979E-03  8424   0.546E-03 0.160E-04
CGA:   8    -0.669101165976E+03   -0.13645E-03   -0.13629E-03  8424   0.177E-03-0.104E-05
CGA:   9    -0.669101221876E+03   -0.55900E-04   -0.54359E-04  8424   0.813E-04-0.127E-04
CGA:  10    -0.669101250123E+03   -0.28246E-04   -0.28063E-04  8424   0.521E-04-0.391E-05
CGA:  11    -0.669101275173E+03   -0.25050E-04   -0.30829E-04  8424   0.972E-04-0.301E-04
CGA:  12    -0.669101293309E+03   -0.18136E-04   -0.20387E-04  8424   0.246E-04 0.100E-04
CGA:  13    -0.669101289232E+03    0.40767E-05   -0.37327E-04  8424   0.244E-03-0.442E-04
CGA:  14    -0.669101327350E+03   -0.38118E-04   -0.46155E-04  8424   0.538E-04 0.287E-04
CGA:  15    -0.669101352033E+03   -0.24682E-04   -0.22942E-04  8424   0.414E-04-0.241E-04
CGA:  16    -0.669101362226E+03   -0.10194E-04   -0.10134E-04  8424   0.524E-04-0.895E-05
CGA:  17    -0.669101351243E+03    0.10983E-04   -0.70017E-04  8424   0.508E-03-0.710E-04
CGA:  18    -0.669101505314E+03   -0.15407E-03   -0.13553E-03  8424   0.184E-03-0.753E-04
CGA:  19    -0.669101519435E+03   -0.14121E-04   -0.22093E-04  8424   0.257E-04 0.221E-04
CGA:  20    -0.669101521141E+03   -0.17062E-05   -0.45953E-05  8424   0.168E-04 0.889E-05
CGA:  21    -0.669101469562E+03    0.51579E-04   -0.35573E-04  8424   0.381E-03-0.798E-04
CGA:  22    -0.669101597279E+03   -0.12772E-03   -0.11721E-03  8424   0.758E-04-0.492E-04
CGA:  23    -0.669101602134E+03   -0.48551E-05   -0.10617E-04  8424   0.216E-04 0.164E-04
  29 F= -.66910160E+03 E0= -.66910160E+03  d E =-.395275E-02  mag=     4.0000
       N       E                     dE             d eps       ncg     rms          ort
SDA:   1    -0.668400137871E+03    0.70146E+00    0.00000E+00  8424   0.175E+01 0.000E+00
CGA:   2    -0.668878363205E+03   -0.47823E+00   -0.47828E+00  8424   0.940E+00-0.814E-05
CGA:   3    -0.669050457726E+03   -0.17209E+00   -0.17204E+00  8424   0.206E+00-0.928E-04
CGA:   4    -0.669083090358E+03   -0.32633E-01   -0.32659E-01  8424   0.484E-01 0.658E-04
CGA:   5    -0.669091499431E+03   -0.84091E-02   -0.84302E-02  8424   0.105E-01 0.690E-04
CGA:   6    -0.669093622320E+03   -0.21229E-02   -0.21224E-02  8424   0.246E-02-0.349E-05
CGA:   7    -0.669094156287E+03   -0.53397E-03   -0.53931E-03  8424   0.730E-03 0.263E-04
CGA:   8    -0.669094335464E+03   -0.17918E-03   -0.18213E-03  8424   0.246E-03 0.178E-04
CGA:   9    -0.669094400546E+03   -0.65082E-04   -0.68217E-04  8424   0.957E-04 0.235E-04
CGA:  10    -0.669094423737E+03   -0.23191E-04   -0.27551E-04  8424   0.427E-04 0.325E-04
CGA:  11    -0.669094430720E+03   -0.69829E-05   -0.12100E-04  8424   0.221E-04 0.285E-04
  30 F= -.66909443E+03 E0= -.66909443E+03  d E =0.717141E-02  mag=     4.0000
       N       E                     dE             d eps       ncg     rms          ort
SDA:   1    -0.656925211488E+03    0.12169E+02    0.00000E+00  8424   0.365E+02 0.000E+00
CGA:   2    -0.664503114807E+03   -0.75779E+01   -0.76115E+01  8424   0.159E+02-0.148E-01
CGA:   3    -0.667858210286E+03   -0.33551E+01   -0.33480E+01  8424   0.491E+01 0.124E-01
CGA:   4    -0.668659200243E+03   -0.80099E+00   -0.80231E+00  8424   0.115E+01 0.844E-03
CGA:   5    -0.668854415043E+03   -0.19521E+00   -0.19574E+00  8424   0.245E+00 0.178E-02
CGA:   6    -0.668903177323E+03   -0.48762E-01   -0.48693E-01  8424   0.556E-01-0.426E-03
CGA:   7    -0.668915387224E+03   -0.12210E-01   -0.12296E-01  8424   0.163E-01 0.787E-03
CGA:   8    -0.668919288379E+03   -0.39012E-02   -0.39296E-02  8424   0.476E-02 0.328E-03
CGA:   9    -0.668920569126E+03   -0.12807E-02   -0.12904E-02  8424   0.153E-02 0.178E-03
CGA:  10    -0.668920963290E+03   -0.39416E-03   -0.41288E-03  8424   0.559E-03 0.324E-03
CGA:  11    -0.668921096046E+03   -0.13276E-03   -0.15349E-03  8424   0.201E-03 0.236E-03
CGA:  12    -0.668921111993E+03   -0.15947E-04   -0.43291E-04  8424   0.106E-03 0.172E-03
CGA:  13    -0.668921107508E+03    0.44853E-05   -0.12178E-04  8424   0.777E-04 0.887E-04
  31 F= -.66892111E+03 E0= -.66892111E+03  d E =0.173323E+00  mag=     4.0000
       N       E                     dE             d eps       ncg     rms          ort
SDA:   1    -0.664132898814E+03    0.47882E+01    0.00000E+00  8424   0.162E+02 0.000E+00
CGA:   2    -0.667291920107E+03   -0.31590E+01   -0.31651E+01  8424   0.634E+01 0.188E-01
CGA:   3    -0.668636449764E+03   -0.13445E+01   -0.13433E+01  8424   0.209E+01-0.660E-02
CGA:   4    -0.668986766370E+03   -0.35032E+00   -0.35057E+00  8424   0.530E+00 0.103E-02
CGA:   5    -0.669077618078E+03   -0.90852E-01   -0.91002E-01  8424   0.115E+00 0.117E-02
CGA:   6    -0.669100194764E+03   -0.22577E-01   -0.22530E-01  8424   0.251E-01-0.664E-03
CGA:   7    -0.669105574996E+03   -0.53802E-02   -0.54121E-02  8424   0.731E-02 0.712E-03
CGA:   8    -0.669107314277E+03   -0.17393E-02   -0.17490E-02  8424   0.203E-02 0.369E-03
CGA:   9    -0.669107842529E+03   -0.52825E-03   -0.52998E-03  8424   0.599E-03 0.200E-03
CGA:  10    -0.669107962872E+03   -0.12034E-03   -0.13372E-03  8424   0.227E-03 0.248E-03
CGA:  11    -0.669107995222E+03   -0.32350E-04   -0.50080E-04  8424   0.115E-03 0.179E-03
CGA:  12    -0.669107998071E+03   -0.28499E-05   -0.14108E-04  8424   0.756E-04 0.885E-04
  32 F= -.66910800E+03 E0= -.66910800E+03  d E =-.186891E+00  mag=     4.0000
       N       E                     dE             d eps       ncg     rms          ort
SDA:   1    -0.669021504972E+03    0.86490E-01    0.00000E+00  8424   0.240E+00 0.000E+00
CGA:   2    -0.669078439600E+03   -0.56935E-01   -0.56934E-01  8424   0.120E+00 0.422E-03
CGA:   3    -0.669102179749E+03   -0.23740E-01   -0.23752E-01  8424   0.313E-01 0.301E-03
CGA:   4    -0.669107110130E+03   -0.49304E-02   -0.49504E-02  8424   0.710E-02 0.260E-03
CGA:   5    -0.669108297438E+03   -0.11873E-02   -0.12030E-02  8424   0.148E-02 0.254E-03
CGA:   6    -0.669108552534E+03   -0.25510E-03   -0.26824E-03  8424   0.327E-03 0.253E-03
CGA:   7    -0.669108581842E+03   -0.29308E-04   -0.48066E-04  8424   0.129E-03 0.190E-03
CGA:   8    -0.669108579614E+03    0.22281E-05   -0.11134E-04  8424   0.843E-04 0.101E-03
  33 F= -.66910858E+03 E0= -.66910858E+03  d E =-.581542E-03  mag=     4.0000
       N       E                     dE             d eps       ncg     rms          ort
SDA:   1    -0.666454449604E+03    0.26541E+01    0.00000E+00  8424   0.654E+01 0.000E+00
CGA:   2    -0.668303949686E+03   -0.18495E+01   -0.18495E+01  8424   0.356E+01-0.112E-02
CGA:   3    -0.668941522443E+03   -0.63757E+00   -0.63761E+00  8424   0.740E+00 0.992E-03
CGA:   4    -0.669059645103E+03   -0.11812E+00   -0.11814E+00  8424   0.175E+00 0.203E-03
CGA:   5    -0.669090063689E+03   -0.30419E-01   -0.30432E-01  8424   0.380E-01 0.380E-03
CGA:   6    -0.669097669330E+03   -0.76056E-02   -0.76079E-02  8424   0.870E-02 0.646E-03
CGA:   7    -0.669099547547E+03   -0.18782E-02   -0.18747E-02  8424   0.248E-02 0.415E-03
CGA:   8    -0.669100110914E+03   -0.56337E-03   -0.55847E-03  8424   0.746E-03 0.450E-03
CGA:   9    -0.669100248687E+03   -0.13777E-03   -0.15074E-03  8424   0.294E-03 0.391E-03
CGA:  10    -0.669100274218E+03   -0.25531E-04   -0.39578E-04  8424   0.167E-03 0.206E-03
CGA:  11    -0.669100274085E+03    0.13373E-06   -0.15650E-04  8424   0.135E-03 0.150E-03
CGA:  12    -0.669100269730E+03    0.43548E-05   -0.10334E-04  8424   0.117E-03 0.125E-03
  34 F= -.66910027E+03 E0= -.66910027E+03  d E =0.830988E-02  mag=     4.0000
       N       E                     dE             d eps       ncg     rms          ort
SDA:   1    -0.660498719968E+03    0.86016E+01    0.00000E+00  8424   0.265E+02 0.000E+00
CGA:   2    -0.665858540983E+03   -0.53598E+01   -0.53568E+01  8424   0.110E+02 0.984E-01
CGA:   3    -0.668202610078E+03   -0.23441E+01   -0.23449E+01  8424   0.351E+01-0.234E-01
CGA:   4    -0.668778178095E+03   -0.57557E+00   -0.57564E+00  8424   0.845E+00 0.175E-02
CGA:   5    -0.668922714268E+03   -0.14454E+00   -0.14458E+00  8424   0.180E+00 0.280E-02
CGA:   6    -0.668958631357E+03   -0.35917E-01   -0.35927E-01  8424   0.400E-01-0.636E-03
CGA:   7    -0.668967274389E+03   -0.86430E-02   -0.86033E-02  8424   0.115E-01 0.122E-02
CGA:   8    -0.668970084795E+03   -0.28104E-02   -0.27771E-02  8424   0.325E-02 0.668E-03
CGA:   9    -0.668970954839E+03   -0.87004E-03   -0.84715E-03  8424   0.993E-03 0.392E-03
CGA:  10    -0.668971170855E+03   -0.21602E-03   -0.21482E-03  8424   0.403E-03 0.481E-03
CGA:  11    -0.668971238119E+03   -0.67264E-04   -0.84642E-04  8424   0.210E-03 0.354E-03
CGA:  12    -0.668971251886E+03   -0.13766E-04   -0.25134E-04  8424   0.141E-03 0.165E-03
CGA:  13    -0.668971250546E+03    0.13399E-05   -0.11788E-04  8424   0.120E-03 0.130E-03
  35 F= -.66897125E+03 E0= -.66897125E+03  d E =0.129019E+00  mag=     4.0000
       N       E                     dE             d eps       ncg     rms          ort
SDA:   1    -0.666947066369E+03    0.20242E+01    0.00000E+00  8424   0.689E+01 0.000E+00
CGA:   2    -0.668318977628E+03   -0.13719E+01   -0.13714E+01  8424   0.275E+01 0.160E-01
CGA:   3    -0.668905671702E+03   -0.58669E+00   -0.58685E+00  8424   0.911E+00-0.414E-02
CGA:   4    -0.669055689805E+03   -0.15002E+00   -0.15004E+00  8424   0.225E+00 0.120E-02
CGA:   5    -0.669094364387E+03   -0.38675E-01   -0.38680E-01  8424   0.480E-01 0.108E-02
CGA:   6    -0.669103854294E+03   -0.94899E-02   -0.94919E-02  8424   0.105E-01-0.104E-03
CGA:   7    -0.669106009838E+03   -0.21555E-02   -0.21329E-02  8424   0.282E-02 0.855E-03
CGA:   8    -0.669106654890E+03   -0.64505E-03   -0.62910E-03  8424   0.745E-03 0.591E-03
CGA:   9    -0.669106798103E+03   -0.14321E-03   -0.14903E-03  8424   0.270E-03 0.390E-03
CGA:  10    -0.669106811327E+03   -0.13224E-04   -0.28383E-04  8424   0.168E-03 0.203E-03
CGA:  11    -0.669106810326E+03    0.10008E-05   -0.13435E-04  8424   0.137E-03 0.151E-03
  36 F= -.66910681E+03 E0= -.66910681E+03  d E =-.135560E+00  mag=     4.0000
       N       E                     dE             d eps       ncg     rms          ort
SDA:   1    -0.668588669472E+03    0.51814E+00    0.00000E+00  8424   0.168E+01 0.000E+00
CGA:   2    -0.668926940938E+03   -0.33827E+00   -0.33814E+00  8424   0.681E+00 0.324E-02
CGA:   3    -0.669071685483E+03   -0.14474E+00   -0.14476E+00  8424   0.222E+00-0.472E-03
CGA:   4    -0.669107992550E+03   -0.36307E-01   -0.36310E-01  8424   0.542E-01 0.443E-03
CGA:   5    -0.669117359140E+03   -0.93666E-02   -0.93651E-02  8424   0.115E-01 0.517E-03
CGA:   6    -0.669119626881E+03   -0.22677E-02   -0.22607E-02  8424   0.246E-02 0.284E-03
CGA:   7    -0.669120107968E+03   -0.48109E-03   -0.47364E-03  8424   0.648E-03 0.437E-03
CGA:   8    -0.669120225135E+03   -0.11717E-03   -0.12126E-03  8424   0.224E-03 0.317E-03
CGA:   9    -0.669120245614E+03   -0.20479E-04   -0.34603E-04  8424   0.119E-03 0.209E-03
CGA:  10    -0.669120244554E+03    0.10606E-05   -0.87247E-05  8424   0.920E-04 0.103E-03
  37 F= -.66912024E+03 E0= -.66912024E+03  d E =-.134342E-01  mag=     4.0000
       N       E                     dE             d eps       ncg     rms          ort
SDA:   1    -0.669084607104E+03    0.35639E-01    0.00000E+00  8424   0.107E+00 0.000E+00
CGA:   2    -0.669107561407E+03   -0.22954E-01   -0.22926E-01  8424   0.474E-01 0.484E-03
CGA:   3    -0.669117393164E+03   -0.98318E-02   -0.98211E-02  8424   0.141E-01 0.224E-03
CGA:   4    -0.669119694939E+03   -0.23018E-02   -0.23020E-02  8424   0.336E-02 0.230E-03
CGA:   5    -0.669120243324E+03   -0.54838E-03   -0.54898E-03  8424   0.661E-03 0.305E-03
CGA:   6    -0.669120340181E+03   -0.96858E-04   -0.10218E-03  8424   0.178E-03 0.254E-03
CGA:   7    -0.669120350134E+03   -0.99529E-05   -0.21422E-04  8424   0.928E-04 0.154E-03
  38 F= -.66912035E+03 E0= -.66912035E+03  d E =-.105581E-03  mag=     4.0000
       N       E                     dE             d eps       ncg     rms          ort
SDA:   1    -0.665370205574E+03    0.37501E+01    0.00000E+00  8424   0.112E+02 0.000E+00
CGA:   2    -0.667718906640E+03   -0.23487E+01   -0.23468E+01  8424   0.473E+01 0.274E-01
CGA:   3    -0.668714966618E+03   -0.99606E+00   -0.99643E+00  8424   0.147E+01-0.720E-02
CGA:   4    -0.668954617217E+03   -0.23965E+00   -0.23965E+00  8424   0.354E+00 0.452E-03
CGA:   5    -0.669015556380E+03   -0.60939E-01   -0.60916E-01  8424   0.745E-01 0.170E-02
CGA:   6    -0.669030495556E+03   -0.14939E-01   -0.14930E-01  8424   0.167E-01 0.215E-03
CGA:   7    -0.669034192558E+03   -0.36970E-02   -0.36580E-02  8424   0.489E-02 0.683E-03
CGA:   8    -0.669035399004E+03   -0.12064E-02   -0.11784E-02  8424   0.143E-02 0.417E-03
CGA:   9    -0.669035787349E+03   -0.38835E-03   -0.36703E-03  8424   0.477E-03 0.308E-03
CGA:  10    -0.669035887649E+03   -0.10030E-03   -0.99996E-04  8424   0.237E-03 0.310E-03
CGA:  11    -0.669035918030E+03   -0.30380E-04   -0.34659E-04  8424   0.143E-03 0.171E-03
CGA:  12    -0.669035928619E+03   -0.10589E-04   -0.17118E-04  8424   0.118E-03 0.129E-03
CGA:  13    -0.669035933700E+03   -0.50812E-05   -0.12149E-04  8424   0.103E-03 0.110E-03
