       N       E                     dE             d eps       ncg     rms          ort
DAV:   1     0.826731014715E+04    0.82673E+04   -0.24658E+05  8424   0.238E+03
DAV:   2     0.917607981970E+03   -0.73497E+04   -0.68993E+04  8424   0.657E+02
DAV:   3    -0.674820110980E+03   -0.15924E+04   -0.13996E+04  8424   0.282E+02
DAV:   4    -0.830452549252E+03   -0.15563E+03   -0.15293E+03  8424   0.857E+01
DAV:   5    -0.832946822396E+03   -0.24943E+01   -0.24833E+01  8424   0.122E+01
SDA:   6    -0.260942825418E+03    0.57200E+03   -0.24833E+01  8424   0.393E+04 0.000E+00
CGA:   7    -0.603278333604E+03   -0.34234E+03   -0.42111E+03  8424   0.399E+03 0.779E+02
CGA:   8    -0.636351507692E+03   -0.33073E+02   -0.21351E+02  8424   0.123E+03 0.188E+03
CGA:   9    -0.647462724984E+03   -0.11111E+02   -0.16756E+02  8424   0.216E+03-0.589E+01
CGA:  10    -0.653681202599E+03   -0.62185E+01   -0.94082E+01  8424   0.161E+03-0.979E+02
CGA:  11    -0.650992689780E+03    0.26885E+01   -0.30716E+01  8424   0.219E+03-0.117E+03
CGA:  12    -0.654095744794E+03   -0.31031E+01   -0.18397E+02  8424   0.164E+03-0.543E+01
CGA:  13    -0.661220297710E+03   -0.71246E+01   -0.11558E+02  8424   0.959E+02-0.396E+02
CGA:  14    -0.664007764972E+03   -0.27875E+01   -0.39147E+01  8424   0.103E+03 0.164E+02
CGA:  15    -0.658488312495E+03    0.55195E+01   -0.59911E+01  8424   0.133E+03-0.692E+02
CGA:  16    -0.660756709926E+03   -0.22684E+01   -0.75661E+01  8424   0.965E+02-0.562E+02
CGA:  17    -0.665182780687E+03   -0.44261E+01   -0.34227E+01  8424   0.929E+02-0.642E+02
CGA:  18    -0.664392499311E+03    0.79028E+00   -0.48169E+01  8424   0.149E+03-0.904E+02
CGA:  19    -0.663991575827E+03    0.40092E+00   -0.83064E+01  8424   0.786E+02-0.612E+02
CGA:  20    -0.667819183203E+03   -0.38276E+01   -0.22409E+01  8424   0.797E+01-0.296E+02
CGA:  21    -0.668015749605E+03   -0.19657E+00   -0.26423E+00  8424   0.395E+01-0.803E+00
CGA:  22    -0.668159675634E+03   -0.14393E+00   -0.16616E+00  8424   0.318E+01-0.404E+00
CGA:  23    -0.668376343016E+03   -0.21667E+00   -0.24268E+00  8424   0.261E+01 0.124E+00
CGA:  24    -0.668503773473E+03   -0.12743E+00   -0.12147E+00  8424   0.929E+00 0.194E+00
CGA:  25    -0.668578746401E+03   -0.74973E-01   -0.79338E-01  8424   0.966E+00 0.598E-02
CGA:  26    -0.668652794168E+03   -0.74048E-01   -0.71831E-01  8424   0.556E+00 0.612E-01
CGA:  27    -0.668706898595E+03   -0.54104E-01   -0.56233E-01  8424   0.346E+00 0.498E-01
CGA:  28    -0.668735211409E+03   -0.28313E-01   -0.29843E-01  8424   0.257E+00 0.105E-01
CGA:  29    -0.668774135374E+03   -0.38924E-01   -0.37523E-01  8424   0.209E+00 0.279E-01
CGA:  30    -0.668800687348E+03   -0.26552E-01   -0.26392E-01  8424   0.137E+00 0.241E-01
CGA:  31    -0.668825804240E+03   -0.25117E-01   -0.24617E-01  8424   0.145E+00 0.825E-02
CGA:  32    -0.668855503811E+03   -0.29700E-01   -0.27622E-01  8424   0.648E-01 0.225E-01
CGA:  33    -0.668872719429E+03   -0.17216E-01   -0.18602E-01  8424   0.127E+00-0.103E-01
CGA:  34    -0.668886800380E+03   -0.14081E-01   -0.14877E-01  8424   0.123E+00-0.325E-01
CGA:  35    -0.668895789984E+03   -0.89896E-02   -0.86354E-02  8424   0.137E+00-0.955E-02
CGA:  36    -0.668917207152E+03   -0.21417E-01   -0.21153E-01  8424   0.146E+00-0.636E-02
CGA:  37    -0.668733218282E+03    0.18399E+00   -0.68192E-01  8424   0.315E+01-0.636E+00
CGA:  38    -0.669011686611E+03   -0.27847E+00   -0.35196E+00  8424   0.685E+00-0.327E+00
CGA:  39    -0.669137340127E+03   -0.12565E+00   -0.12537E+00  8424   0.331E+00-0.805E-02
CGA:  40    -0.669246021718E+03   -0.10868E+00   -0.10842E+00  8424   0.219E+00-0.673E-02
CGA:  41    -0.669304912438E+03   -0.58891E-01   -0.60573E-01  8424   0.192E+00-0.291E-01
CGA:  42    -0.669371787016E+03   -0.66875E-01   -0.78179E-01  8424   0.287E+00-0.480E-01
CGA:  43    -0.669425631244E+03   -0.53844E-01   -0.54748E-01  8424   0.181E+00-0.609E-01
CGA:  44    -0.669476985863E+03   -0.51355E-01   -0.76107E-01  8424   0.263E+00-0.817E-01
CGA:  45    -0.669508271254E+03   -0.31285E-01   -0.28048E-01  8424   0.115E+00-0.444E-01
CGA:  46    -0.669534070959E+03   -0.25800E-01   -0.26416E-01  8424   0.123E+00-0.266E-01
CGA:  47    -0.669562500526E+03   -0.28430E-01   -0.30360E-01  8424   0.106E+00-0.301E-01
CGA:  48    -0.669580898604E+03   -0.18398E-01   -0.17972E-01  8424   0.629E-01-0.125E-01
CGA:  49    -0.669593828911E+03   -0.12930E-01   -0.12910E-01  8424   0.460E-01-0.106E-02
CGA:  50    -0.669605579152E+03   -0.11750E-01   -0.11732E-01  8424   0.369E-01 0.368E-02
CGA:  51    -0.669615449609E+03   -0.98705E-02   -0.99110E-02  8424   0.263E-01 0.609E-02
CGA:  52    -0.669622764270E+03   -0.73147E-02   -0.74042E-02  8424   0.164E-01 0.648E-02
CGA:  53    -0.669627316982E+03   -0.45527E-02   -0.46579E-02  8424   0.984E-02 0.399E-02
CGA:  54    -0.669630894761E+03   -0.35778E-02   -0.34885E-02  8424   0.767E-02 0.272E-02
CGA:  55    -0.669633080035E+03   -0.21853E-02   -0.22355E-02  8424   0.400E-02 0.184E-02
CGA:  56    -0.669634914840E+03   -0.18348E-02   -0.17751E-02  8424   0.444E-02 0.490E-03
CGA:  57    -0.669636830949E+03   -0.19161E-02   -0.27766E-02  8424   0.120E-01-0.310E-02
CGA:  58    -0.669639634819E+03   -0.28039E-02   -0.27817E-02  8424   0.526E-02-0.532E-03
CGA:  59    -0.669621249751E+03    0.18385E-01   -0.99822E-02  8424   0.138E+00-0.181E-01
CGA:  60    -0.669642721216E+03   -0.21471E-01   -0.21739E-01  8424   0.201E-01 0.291E-02
CGA:  61    -0.669649143461E+03   -0.64222E-02   -0.62104E-02  8424   0.384E-02-0.124E-02
CGA:  62    -0.669651001587E+03   -0.18581E-02   -0.19531E-02  8424   0.489E-02-0.131E-02
CGA:  63    -0.669650554052E+03    0.44754E-03   -0.32601E-02  8424   0.310E-01-0.694E-02
CGA:  64    -0.669655834989E+03   -0.52809E-02   -0.54151E-02  8424   0.569E-02 0.534E-03
CGA:  65    -0.669658682707E+03   -0.28477E-02   -0.28615E-02  8424   0.414E-02-0.131E-02
CGA:  66    -0.669660115028E+03   -0.14323E-02   -0.13734E-02  8424   0.398E-02-0.111E-02
CGA:  67    -0.669660614016E+03   -0.49899E-03   -0.23458E-02  8424   0.236E-01-0.580E-02
CGA:  68    -0.669664567455E+03   -0.39534E-02   -0.40482E-02  8424   0.442E-02 0.375E-03
CGA:  69    -0.669666681900E+03   -0.21144E-02   -0.20768E-02  8424   0.451E-02-0.196E-02
CGA:  70    -0.669666384776E+03    0.29712E-03   -0.26660E-02  8424   0.205E-01-0.519E-02
CGA:  71    -0.669670619728E+03   -0.42350E-02   -0.38771E-02  8424   0.655E-02-0.120E-02
CGA:  72    -0.669673291333E+03   -0.26716E-02   -0.26474E-02  8424   0.229E-02-0.376E-03
CGA:  73    -0.669674317507E+03   -0.10262E-02   -0.14309E-02  8424   0.863E-02-0.237E-02
CGA:  74    -0.669675590780E+03   -0.12733E-02   -0.12792E-02  8424   0.104E-02 0.310E-04
CGA:  75    -0.669676906694E+03   -0.13159E-02    0.81435E-03  8424   0.103E-02 0.173E-03
CGA:  76    -0.669678679381E+03   -0.17727E-02    0.54351E-03  8424   0.141E-02 0.156E-03
CGA:  77    -0.669681977570E+03   -0.32982E-02    0.35532E-03  8424   0.170E-02 0.621E-03
CGA:  78    -0.669687259280E+03   -0.52817E-02    0.47541E-03  8424   0.139E-02 0.195E-02
CGA:  79    -0.669687931507E+03   -0.67223E-03   -0.67623E-03  8424   0.309E-02-0.667E-03
CGA:  80    -0.669689508160E+03   -0.15767E-02    0.19133E-01  8424   0.433E-02-0.172E-02
CGA:  81    -0.669691127959E+03   -0.16198E-02   -0.15052E-02  8424   0.199E-02-0.860E-03
CGA:  82    -0.669687418374E+03    0.37096E-02   -0.24499E-02  8424   0.440E-01-0.583E-02
CGA:  83    -0.669694246927E+03   -0.68286E-02   -0.68468E-02  8424   0.338E-02 0.122E-03
CGA:  84    -0.669695881201E+03   -0.16343E-02   -0.16035E-02  8424   0.265E-02-0.845E-03
CGA:  85    -0.669696850225E+03   -0.96902E-03   -0.90424E-03  8424   0.229E-02-0.123E-02
CGA:  86    -0.669698516150E+03   -0.16659E-02    0.89721E-03  8424   0.352E-02-0.931E-03
CGA:  87    -0.669701890806E+03   -0.33747E-02    0.88297E-03  8424   0.447E-02-0.450E-03
CGA:  88    -0.669708857246E+03   -0.69664E-02    0.12795E-02  8424   0.148E-02 0.156E-02
CGA:  89    -0.669711285396E+03   -0.24282E-02    0.25040E-02  8424   0.539E-02-0.130E-02
CGA:  90    -0.669711986684E+03   -0.70129E-03   -0.74528E-03  8424   0.406E-03 0.149E-03
CGA:  91    -0.669712661804E+03   -0.67512E-03    0.15281E-03  8424   0.449E-03 0.243E-04
CGA:  92    -0.669713892516E+03   -0.12307E-02    0.69757E-04  8424   0.488E-03 0.191E-03
CGA:  93    -0.669715849849E+03   -0.19573E-02    0.89721E-04  8424   0.624E-03 0.349E-03
CGA:  94    -0.669716517456E+03   -0.66761E-03    0.15210E-02  8424   0.161E-02-0.466E-03
CGA:  95    -0.669716813181E+03   -0.29573E-03   -0.27141E-03  8424   0.269E-03-0.738E-04
CGA:  96    -0.669717520877E+03   -0.70770E-03    0.31445E-04  8424   0.381E-03 0.636E-04
CGA:  97    -0.669719041755E+03   -0.15209E-02    0.45525E-04  8424   0.195E-03 0.399E-03
CGA:  98    -0.669719521136E+03   -0.47938E-03    0.28304E-04  8424   0.315E-03 0.740E-04
CGA:  99    -0.669720986718E+03   -0.14656E-02    0.39750E-04  8424   0.264E-03 0.318E-03
CGA: 100    -0.669721443126E+03   -0.45641E-03    0.74134E-04  8424   0.534E-03-0.508E-04
CGA: 101    -0.669723048547E+03   -0.16054E-02    0.34280E-04  8424   0.785E-03 0.189E-03
CGA: 102    -0.669726058232E+03   -0.30097E-02    0.12456E-03  8424   0.958E-03 0.380E-03
CGA: 103    -0.669729788966E+03   -0.37307E-02    0.18705E-03  8424   0.226E-02 0.301E-04
CGA: 104    -0.669739944660E+03   -0.10156E-01    0.15077E-03  8424   0.362E-02 0.112E-02
CGA: 105    -0.669757064903E+03   -0.17120E-01    0.54001E-03  8424   0.137E-01-0.352E-02
CGA: 106    -0.669758612083E+03   -0.15472E-02   -0.17590E-02  8424   0.569E-03 0.729E-03
CGA: 107    -0.669758867011E+03   -0.25493E-03   -0.24742E-03  8424   0.376E-03-0.187E-03
CGA: 108    -0.669759209688E+03   -0.34268E-03    0.11367E-03  8424   0.525E-03-0.146E-03
CGA: 109    -0.669759637512E+03   -0.42782E-03    0.15193E-03  8424   0.742E-03-0.159E-03
CGA: 110    -0.669760641963E+03   -0.10045E-02    0.10162E-03  8424   0.668E-03 0.203E-03
CGA: 111    -0.669761806422E+03   -0.11645E-02    0.37198E-03  8424   0.157E-02-0.377E-03
CGA: 112    -0.669762012653E+03   -0.20623E-03   -0.23678E-03  8424   0.195E-03 0.105E-03
CGA: 113    -0.669762315723E+03   -0.30307E-03    0.67762E-04  8424   0.176E-03-0.124E-04
CGA: 114    -0.669762784802E+03   -0.46908E-03    0.15959E-04  8424   0.167E-03 0.628E-04
CGA: 115    -0.669763389765E+03   -0.60496E-03    0.23941E-04  8424   0.247E-03 0.695E-04
CGA: 116    -0.669764627160E+03   -0.12374E-02    0.25067E-04  8424   0.222E-03 0.235E-03
CGA: 117    -0.669764911540E+03   -0.28438E-03    0.10289E-03  8424   0.167E-03-0.181E-04
CGA: 118    -0.669765256020E+03   -0.34448E-03    0.21264E-04  8424   0.152E-03 0.762E-04
CGA: 119    -0.669765822480E+03   -0.56646E-03    0.24919E-04  8424   0.130E-03 0.831E-04
CGA: 120    -0.669766029927E+03   -0.20745E-03    0.34251E-04  8424   0.124E-03 0.124E-04
CGA: 121    -0.669766481452E+03   -0.45152E-03    0.10497E-04  8424   0.129E-03 0.919E-04
CGA: 122    -0.669766657511E+03   -0.17606E-03    0.49624E-04  8424   0.156E-03-0.925E-05
CGA: 123    -0.669767171527E+03   -0.51402E-03    0.10321E-04  8424   0.185E-03 0.845E-04
CGA: 124    -0.669767391239E+03   -0.21971E-03    0.11196E-03  8424   0.156E-03-0.384E-04
CGA: 125    -0.669767837838E+03   -0.44660E-03    0.86464E-05  8424   0.174E-03 0.793E-04
CGA: 126    -0.669768010482E+03   -0.17264E-03    0.28156E-03  8424   0.187E-03-0.405E-04
CGA: 127    -0.669768502843E+03   -0.49236E-03    0.10639E-04  8424   0.232E-03 0.558E-04
CGA: 128    -0.669769380774E+03   -0.87793E-03    0.28274E-04  8424   0.154E-03 0.192E-03
CGA: 129    -0.669768364541E+03    0.10162E-02   -0.29052E-03  8424   0.113E-01-0.904E-03
CGA: 130    -0.669770451097E+03   -0.20866E-02   -0.17823E-02  8424   0.346E-03-0.984E-03
CGA: 131    -0.669770594844E+03   -0.14375E-03   -0.13123E-03  8424   0.389E-03-0.165E-03
CGA: 132    -0.669771203101E+03   -0.60826E-03    0.24057E-04  8424   0.333E-03 0.491E-05
CGA: 133    -0.669772028384E+03   -0.82528E-03    0.54404E-04  8424   0.228E-03 0.991E-04
CGA: 134    -0.669772729214E+03   -0.70083E-03    0.50403E-04  8424   0.435E-03 0.257E-04
CGA: 135    -0.669774543557E+03   -0.18143E-02    0.41534E-04  8424   0.503E-03 0.186E-03
CGA: 136    -0.669777098571E+03   -0.25550E-02    0.66092E-04  8424   0.936E-03 0.320E-03
CGA: 137    -0.669777228600E+03   -0.13003E-03   -0.14862E-03  8424   0.146E-03 0.585E-04
CGA: 138    -0.669777571610E+03   -0.34301E-03    0.26971E-04  8424   0.102E-03 0.370E-04
CGA: 139    -0.669778091583E+03   -0.51997E-03    0.91534E-05  8424   0.195E-03 0.598E-04
CGA: 140    -0.669778115512E+03   -0.23929E-04   -0.15947E-03  8424   0.225E-02-0.395E-03
CGA: 141    -0.669778682492E+03   -0.56698E-03   -0.39037E-03  8424   0.289E-03-0.569E-03
CGA: 142    -0.669778897493E+03   -0.21500E-03    0.94769E-03  8424   0.371E-03-0.836E-04
CGA: 143    -0.669779678316E+03   -0.78082E-03    0.29269E-04  8424   0.149E-03 0.103E-03
CGA: 144    -0.669780209773E+03   -0.53146E-03    0.22946E-04  8424   0.135E-03 0.951E-04
CGA: 145    -0.669780526412E+03   -0.31664E-03    0.21451E-04  8424   0.559E-03-0.109E-03
CGA: 146    -0.669780600863E+03   -0.74450E-04   -0.76665E-04  8424   0.767E-04 0.736E-05
CGA: 147    -0.669780909058E+03   -0.30819E-03    0.52897E-05  8424   0.830E-04 0.732E-04
CGA: 148    -0.669781212539E+03   -0.30348E-03    0.62858E-05  8424   0.163E-03 0.312E-04
CGA: 149    -0.669782017713E+03   -0.80517E-03    0.17360E-04  8424   0.104E-03 0.187E-03
CGA: 150    -0.669782297273E+03   -0.27956E-03    0.12185E-04  8424   0.141E-03 0.193E-04
CGA: 151    -0.669782926344E+03   -0.62907E-03    0.12281E-04  8424   0.166E-03 0.139E-03
CGA: 152    -0.669783246100E+03   -0.31976E-03    0.34246E-04  8424   0.285E-03-0.617E-04
CGA: 153    -0.669783912367E+03   -0.66627E-03    0.13315E-04  8424   0.510E-03 0.379E-04
CGA: 154    -0.669785598268E+03   -0.16859E-02    0.60050E-04  8424   0.468E-03 0.334E-03
CGA: 155    -0.669785798484E+03   -0.20022E-03   -0.22682E-03  8424   0.287E-02-0.921E-03
CGA: 156    -0.669786088858E+03   -0.29037E-03   -0.34360E-03  8424   0.814E-04 0.169E-03
CGA: 157    -0.669786336522E+03   -0.24766E-03    0.84156E-05  8424   0.166E-03 0.378E-04
CGA: 158    -0.669787221215E+03   -0.88469E-03    0.17005E-04  8424   0.146E-03 0.180E-03
CGA: 159    -0.669787488484E+03   -0.26727E-03    0.29743E-04  8424   0.140E-03 0.123E-04
CGA: 160    -0.669788064189E+03   -0.57570E-03    0.10209E-04  8424   0.208E-03 0.872E-04
CGA: 161    -0.669788264185E+03   -0.20000E-03    0.49384E-03  8424   0.428E-03-0.998E-04
CGA: 162    -0.669789015346E+03   -0.75116E-03    0.17256E-04  8424   0.763E-03-0.121E-03
CGA: 163    -0.669790841181E+03   -0.18258E-02    0.43342E-04  8424   0.198E-02 0.445E-04
CGA: 164    -0.669796383703E+03   -0.55425E-02    0.23103E-03  8424   0.848E-03 0.896E-03
CGA: 165    -0.669798831829E+03   -0.24481E-02    0.21638E-03  8424   0.241E-02-0.298E-03
CGA: 166    -0.669806018550E+03   -0.71867E-02    0.81656E-04  8424   0.876E-02-0.117E-02
CGA: 167    -0.669834386061E+03   -0.28368E-01    0.16078E-03  8424   0.438E-01-0.162E-01
CGA: 168    -0.669842842862E+03   -0.84568E-02   -0.87729E-02  8424   0.627E-02 0.147E-02
CGA: 169    -0.669844200929E+03   -0.13581E-02   -0.12927E-02  8424   0.600E-03-0.292E-03
CGA: 170    -0.669844298089E+03   -0.97161E-04   -0.13469E-03  8424   0.173E-03 0.206E-03
CGA: 171    -0.669844330996E+03   -0.32906E-04   -0.56456E-04  8424   0.129E-03 0.141E-03
CGA: 172    -0.669844406078E+03   -0.75082E-04   -0.67929E-04  8424   0.191E-03 0.536E-04
CGA: 173    -0.669844457833E+03   -0.51755E-04   -0.77615E-04  8424   0.124E-03 0.208E-03
CGA: 174    -0.669844565491E+03   -0.10766E-03   -0.10196E-03  8424   0.275E-03 0.103E-04
CGA: 175    -0.669844825876E+03   -0.26039E-03   -0.20028E-03  8424   0.365E-03 0.212E-03
CGA: 176    -0.669844986376E+03   -0.16050E-03   -0.16471E-03  8424   0.716E-03-0.242E-03
CGA: 177    -0.669845032340E+03   -0.45965E-04   -0.90091E-04  8424   0.997E-04 0.144E-03
CGA: 178    -0.669845062829E+03   -0.30489E-04   -0.35951E-04  8424   0.168E-03 0.444E-04
CGA: 179    -0.669845293384E+03   -0.23056E-03    0.33822E-03  8424   0.252E-03 0.167E-03
CGA: 180    -0.669845378543E+03   -0.85158E-04   -0.18929E-03  8424   0.109E-02-0.310E-03
CGA: 181    -0.669845530221E+03   -0.15168E-03   -0.18967E-03  8424   0.171E-03 0.149E-03
CGA: 182    -0.669845406480E+03    0.12374E-03   -0.23732E-03  8424   0.227E-02-0.456E-03
CGA: 183    -0.669845916602E+03   -0.51012E-03   -0.54136E-03  8424   0.254E-03 0.143E-03
CGA: 184    -0.669845922296E+03   -0.56936E-05   -0.21265E-03  8424   0.270E-02-0.608E-03
CGA: 185    -0.669846220130E+03   -0.29783E-03   -0.38390E-03  8424   0.217E-03 0.279E-03
CGA: 186    -0.669846337954E+03   -0.11782E-03   -0.12953E-03  8424   0.360E-03-0.129E-03
CGA: 187    -0.669846468971E+03   -0.13102E-03   -0.25404E-03  8424   0.154E-02-0.488E-03
CGA: 188    -0.669846649279E+03   -0.18031E-03   -0.23917E-03  8424   0.186E-03 0.194E-03
CGA: 189    -0.669846615479E+03    0.33799E-04   -0.23698E-03  8424   0.160E-02-0.404E-03
CGA: 190    -0.669847199548E+03   -0.58407E-03   -0.55468E-03  8424   0.192E-03-0.218E-03
CGA: 191    -0.669847279010E+03   -0.79462E-04   -0.79513E-04  8424   0.336E-03-0.214E-04
CGA: 192    -0.669847788405E+03   -0.50940E-03    0.90112E-04  8424   0.235E-03 0.164E-03
CGA: 193    -0.669848366953E+03   -0.57855E-03    0.11415E-03  8424   0.400E-03 0.109E-03
CGA: 194    -0.669849328583E+03   -0.96163E-03    0.19277E-03  8424   0.536E-03 0.241E-03
CGA: 195    -0.669849572238E+03   -0.24365E-03   -0.22835E-03  8424   0.482E-03-0.303E-03
CGA: 196    -0.669849685862E+03   -0.11362E-03   -0.10832E-03  8424   0.134E-03-0.220E-04
CGA: 197    -0.669849957041E+03   -0.27118E-03    0.22669E-04  8424   0.162E-03 0.466E-04
CGA: 198    -0.669850440288E+03   -0.48325E-03    0.36230E-04  8424   0.135E-03 0.179E-03
CGA: 199    -0.669850609995E+03   -0.16971E-03    0.84909E-04  8424   0.236E-03-0.166E-04
CGA: 200    -0.669851155998E+03   -0.54600E-03    0.25600E-04  8424   0.271E-03 0.171E-03
   1 F= -.66985116E+03 E0= -.66985116E+03  d E =-.669851E+03  mag=     2.0000
       N       E                     dE             d eps       ncg     rms          ort
SDA:   1    -0.669849788768E+03    0.82123E-03    0.00000E+00  8424   0.150E-01 0.000E+00
CGA:   2    -0.669851794184E+03   -0.20054E-02   -0.19815E-02  8424   0.245E-02-0.350E-04
CGA:   3    -0.669852474947E+03   -0.68076E-03   -0.63269E-03  8424   0.151E-02-0.241E-03
CGA:   4    -0.669852951783E+03   -0.47684E-03   -0.41544E-03  8424   0.101E-02-0.430E-03
CGA:   5    -0.669853156063E+03   -0.20428E-03   -0.13095E-03  8424   0.478E-03-0.284E-03
CGA:   6    -0.669853486962E+03   -0.33090E-03    0.59617E-03  8424   0.844E-03-0.201E-03
CGA:   7    -0.669854276060E+03   -0.78910E-03    0.11852E-03  8424   0.110E-02-0.145E-03
CGA:   8    -0.669855639489E+03   -0.13634E-02    0.26298E-03  8424   0.146E-02-0.914E-04
CGA:   9    -0.669857722143E+03   -0.20827E-02    0.35326E-03  8424   0.179E-02-0.258E-03
CGA:  10    -0.669860706529E+03   -0.29844E-02    0.23287E-03  8424   0.169E-02 0.216E-05
CGA:  11    -0.669863884330E+03   -0.31778E-02    0.30495E-03  8424   0.163E-02-0.138E-03
CGA:  12    -0.669867209103E+03   -0.33248E-02    0.20245E-03  8424   0.159E-02-0.387E-03
CGA:  13    -0.669870751602E+03   -0.35425E-02    0.10824E-03  8424   0.115E-02-0.182E-03
CGA:  14    -0.669873412915E+03   -0.26613E-02    0.10650E-03  8424   0.914E-03-0.342E-03
CGA:  15    -0.669875665587E+03   -0.22527E-02    0.44487E-04  8424   0.739E-03-0.369E-03
CGA:  16    -0.669877468310E+03   -0.18027E-02    0.25022E-04  8424   0.581E-03-0.302E-03
CGA:  17    -0.669878915578E+03   -0.14473E-02    0.18817E-04  8424   0.376E-03-0.191E-03
CGA:  18    -0.669879936297E+03   -0.10207E-02    0.14503E-04  8424   0.281E-03-0.123E-03
CGA:  19    -0.669880581379E+03   -0.64508E-03    0.13547E-04  8424   0.224E-03-0.119E-03
CGA:  20    -0.669881090263E+03   -0.50888E-03    0.76316E-05  8424   0.162E-03-0.440E-04
CGA:  21    -0.669881486833E+03   -0.39657E-03    0.10934E-04  8424   0.132E-03-0.137E-04
CGA:  22    -0.669881692444E+03   -0.20561E-03    0.26392E-04  8424   0.116E-03-0.383E-05
CGA:  23    -0.669881886425E+03   -0.19398E-03    0.23650E-04  8424   0.907E-04 0.198E-04
CGA:  24    -0.669882041687E+03   -0.15526E-03    0.32223E-04  8424   0.831E-04 0.314E-04
CGA:  25    -0.669882080837E+03   -0.39150E-04   -0.41922E-04  8424   0.660E-04 0.456E-04
CGA:  26    -0.669882102138E+03   -0.21302E-04   -0.22567E-04  8424   0.316E-04 0.149E-04
CGA:  27    -0.669882093639E+03    0.84997E-05   -0.29617E-05  8424   0.237E-04 0.331E-04
   2 F= -.66988209E+03 E0= -.66988209E+03  d E =-.309376E-01  mag=     2.0000
       N       E                     dE             d eps       ncg     rms          ort
SDA:   1    -0.669856696307E+03    0.25406E-01    0.00000E+00  8424   0.964E-01 0.000E+00
CGA:   2    -0.669875802131E+03   -0.19106E-01   -0.19125E-01  8424   0.376E-01 0.845E-04
CGA:   3    -0.669883826766E+03   -0.80246E-02   -0.80263E-02  8424   0.127E-01 0.367E-05
CGA:   4    -0.669885917548E+03   -0.20908E-02   -0.21059E-02  8424   0.322E-02 0.725E-04
CGA:   5    -0.669886452286E+03   -0.53474E-03   -0.54959E-03  8424   0.646E-03 0.777E-04
CGA:   6    -0.669886563953E+03   -0.11167E-03   -0.12184E-03  8424   0.144E-03 0.612E-04
CGA:   7    -0.669886577083E+03   -0.13130E-04   -0.24526E-04  8424   0.504E-04 0.613E-04
CGA:   8    -0.669886573952E+03    0.31310E-05   -0.74664E-05  8424   0.295E-04 0.463E-04
   3 F= -.66988657E+03 E0= -.66988657E+03  d E =-.448031E-02  mag=     2.0000
       N       E                     dE             d eps       ncg     rms          ort
SDA:   1    -0.668958843312E+03    0.92773E+00    0.00000E+00  8424   0.280E+01 0.000E+00
CGA:   2    -0.669549218186E+03   -0.59037E+00   -0.59072E+00  8424   0.119E+01 0.151E-02
CGA:   3    -0.669794799639E+03   -0.24558E+00   -0.24546E+00  8424   0.366E+00-0.106E-02
CGA:   4    -0.669855433362E+03   -0.60634E-01   -0.60635E-01  8424   0.919E-01-0.178E-04
CGA:   5    -0.669871114729E+03   -0.15681E-01   -0.15721E-01  8424   0.185E-01 0.302E-03
CGA:   6    -0.669874763625E+03   -0.36489E-02   -0.36574E-02  8424   0.415E-02 0.920E-04
CGA:   7    -0.669875674172E+03   -0.91055E-03   -0.92079E-03  8424   0.122E-02 0.168E-03
CGA:   8    -0.669875956747E+03   -0.28258E-03   -0.28850E-03  8424   0.344E-03 0.115E-03
CGA:   9    -0.669876034356E+03   -0.77608E-04   -0.82774E-04  8424   0.108E-03 0.920E-04
CGA:  10    -0.669876044167E+03   -0.98111E-05   -0.19957E-04  8424   0.549E-04 0.795E-04
   4 F= -.66987604E+03 E0= -.66987604E+03  d E =0.105298E-01  mag=     2.0000
       N       E                     dE             d eps       ncg     rms          ort
SDA:   1    -0.669790597022E+03    0.85437E-01    0.00000E+00  8424   0.287E+00 0.000E+00
CGA:   2    -0.669850051591E+03   -0.59455E-01   -0.59474E-01  8424   0.123E+00 0.331E-03
CGA:   3    -0.669875961722E+03   -0.25910E-01   -0.25918E-01  8424   0.397E-01 0.155E-03
CGA:   4    -0.669882369936E+03   -0.64082E-02   -0.64187E-02  8424   0.945E-02 0.106E-03
CGA:   5    -0.669883970871E+03   -0.16009E-02   -0.16091E-02  8424   0.188E-02 0.101E-03
CGA:   6    -0.669884328171E+03   -0.35730E-03   -0.36219E-03  8424   0.421E-03 0.890E-04
CGA:   7    -0.669884404743E+03   -0.76572E-04   -0.81900E-04  8424   0.116E-03 0.930E-04
CGA:   8    -0.669884416437E+03   -0.11694E-04   -0.19243E-04  8424   0.474E-04 0.721E-04
CGA:   9    -0.669884415913E+03    0.52371E-06   -0.45738E-05  8424   0.308E-04 0.368E-04
   5 F= -.66988442E+03 E0= -.66988442E+03  d E =-.837175E-02  mag=     2.0000
       N       E                     dE             d eps       ncg     rms          ort
SDA:   1    -0.666665611308E+03    0.32188E+01    0.00000E+00  8424   0.952E+01 0.000E+00
CGA:   2    -0.668691845638E+03   -0.20262E+01   -0.20264E+01  8424   0.412E+01 0.103E-01
CGA:   3    -0.669551253736E+03   -0.85941E+00   -0.85936E+00  8424   0.128E+01-0.364E-02
CGA:   4    -0.669757582247E+03   -0.20633E+00   -0.20636E+00  8424   0.310E+00 0.410E-04
CGA:   5    -0.669810808687E+03   -0.53226E-01   -0.53244E-01  8424   0.631E-01 0.301E-03
CGA:   6    -0.669823432927E+03   -0.12624E-01   -0.12616E-01  8424   0.150E-01-0.556E-03
CGA:   7    -0.669826794445E+03   -0.33615E-02   -0.33639E-02  8424   0.459E-02-0.180E-03
CGA:   8    -0.669827973046E+03   -0.11786E-02   -0.12044E-02  8424   0.165E-02-0.504E-03
CGA:   9    -0.669828392118E+03   -0.41907E-03   -0.64019E-03  8424   0.181E-02-0.101E-02
CGA:  10    -0.669828767914E+03   -0.37580E-03   -0.36972E-03  8424   0.420E-03-0.257E-03
CGA:  11    -0.669828956476E+03   -0.18856E-03    0.26096E-03  8424   0.928E-04 0.719E-04
CGA:  12    -0.669829086478E+03   -0.13000E-03    0.75050E-05  8424   0.589E-04 0.512E-04
CGA:  13    -0.669829177232E+03   -0.90754E-04    0.27815E-05  8424   0.418E-04 0.374E-04
CGA:  14    -0.669829267546E+03   -0.90314E-04    0.12555E-05  8424   0.377E-04 0.377E-04
CGA:  15    -0.669829353179E+03   -0.85633E-04    0.10633E-05  8424   0.359E-04 0.364E-04
CGA:  16    -0.669829440490E+03   -0.87311E-04    0.92991E-06  8424   0.347E-04 0.351E-04
CGA:  17    -0.669829524817E+03   -0.84327E-04    0.89738E-06  8424   0.337E-04 0.340E-04
CGA:  18    -0.669829610494E+03   -0.85677E-04    0.82480E-06  8424   0.328E-04 0.331E-04
CGA:  19    -0.669829693645E+03   -0.83150E-04    0.80914E-06  8424   0.321E-04 0.323E-04
CGA:  20    -0.669829778201E+03   -0.84556E-04    0.75486E-06  8424   0.315E-04 0.316E-04
CGA:  21    -0.669829860084E+03   -0.81882E-04    0.75173E-06  8424   0.310E-04 0.310E-04
CGA:  22    -0.669829943908E+03   -0.83824E-04    0.70436E-06  8424   0.306E-04 0.303E-04
CGA:  23    -0.669830024212E+03   -0.80304E-04    0.72300E-06  8424   0.306E-04 0.294E-04
CGA:  24    -0.669830107617E+03   -0.83405E-04    0.68947E-06  8424   0.313E-04 0.282E-04
CGA:  25    -0.669830185825E+03   -0.78208E-04    0.78478E-06  8424   0.337E-04 0.258E-04
CGA:  26    -0.669830268827E+03   -0.83002E-04    0.86127E-06  8424   0.398E-04 0.210E-04
CGA:  27    -0.669830344035E+03   -0.75208E-04    0.14210E-05  8424   0.535E-04 0.109E-04
CGA:  28    -0.669830531756E+03   -0.18772E-03    0.15235E-05  8424   0.419E-04 0.664E-04
CGA:  29    -0.669830615045E+03   -0.83289E-04    0.14023E-05  8424   0.556E-04 0.605E-05
CGA:  30    -0.669830798675E+03   -0.18363E-03    0.13439E-05  8424   0.485E-04 0.622E-04
CGA:  31    -0.669830865231E+03   -0.66556E-04    0.27080E-05  8424   0.660E-04-0.454E-05
CGA:  32    -0.669831046131E+03   -0.18090E-03    0.11941E-05  8424   0.681E-04 0.581E-04
CGA:  33    -0.669831132772E+03   -0.86640E-04    0.42633E-05  8424   0.952E-04-0.303E-04
CGA:  34    -0.669831312121E+03   -0.17935E-03    0.92464E-06  8424   0.125E-03 0.485E-04
CGA:  35    -0.669831071649E+03    0.24047E-03   -0.94944E-04  8424   0.426E-02-0.630E-03
CGA:  36    -0.669831600823E+03   -0.52917E-03   -0.47278E-03  8424   0.788E-04-0.399E-03
CGA:  37    -0.669831666043E+03   -0.65219E-04    0.10274E-04  8424   0.778E-04-0.228E-04
CGA:  38    -0.669831831203E+03   -0.16516E-03    0.13397E-05  8424   0.438E-04 0.448E-04
CGA:  39    -0.669831919107E+03   -0.87904E-04    0.17522E-05  8424   0.474E-04 0.120E-05
CGA:  40    -0.669832076815E+03   -0.15771E-03    0.10734E-05  8424   0.407E-04 0.383E-04
CGA:  41    -0.669832149176E+03   -0.72361E-04    0.19211E-05  8424   0.318E-04 0.977E-05
CGA:  42    -0.669832287432E+03   -0.13826E-03    0.79372E-06  8424   0.309E-04 0.307E-04
CGA:  43    -0.669832364697E+03   -0.77266E-04    0.92973E-06  8424   0.208E-04 0.181E-04
CGA:  44    -0.669832439367E+03   -0.74670E-04    0.40858E-06  8424   0.202E-04 0.196E-04
CGA:  45    -0.669832513431E+03   -0.74064E-04    0.38330E-06  8424   0.200E-04 0.194E-04
CGA:  46    -0.669832587429E+03   -0.73999E-04    0.37650E-06  8424   0.199E-04 0.191E-04
CGA:  47    -0.669832660658E+03   -0.73229E-04    0.37982E-06  8424   0.201E-04 0.186E-04
CGA:  48    -0.669832733688E+03   -0.73030E-04    0.38846E-06  8424   0.207E-04 0.178E-04
CGA:  49    -0.669832806056E+03   -0.72368E-04    0.41742E-06  8424   0.220E-04 0.165E-04
CGA:  50    -0.669832877860E+03   -0.71805E-04    0.48224E-06  8424   0.248E-04 0.141E-04
CGA:  51    -0.669832949135E+03   -0.71274E-04    0.63271E-06  8424   0.305E-04 0.968E-05
CGA:  52    -0.669833109108E+03   -0.15997E-03    0.78014E-06  8424   0.242E-04 0.414E-04
CGA:  53    -0.669833178780E+03   -0.69672E-04    0.61211E-06  8424   0.296E-04 0.908E-05
CGA:  54    -0.669833335681E+03   -0.15690E-03    0.73490E-06  8424   0.237E-04 0.399E-04
CGA:  55    -0.669833404338E+03   -0.68658E-04    0.59428E-06  8424   0.290E-04 0.836E-05
CGA:  56    -0.669833558309E+03   -0.15397E-03    0.69272E-06  8424   0.235E-04 0.384E-04
CGA:  57    -0.669833625214E+03   -0.66906E-04    0.60147E-06  8424   0.289E-04 0.728E-05
CGA:  58    -0.669833776660E+03   -0.15145E-03    0.65496E-06  8424   0.238E-04 0.371E-04
CGA:  59    -0.669833842802E+03   -0.66142E-04    0.63000E-06  8424   0.294E-04 0.569E-05
CGA:  60    -0.669833991548E+03   -0.14875E-03    0.61601E-06  8424   0.251E-04 0.357E-04
CGA:  61    -0.669834055740E+03   -0.64192E-04    0.73592E-06  8424   0.314E-04 0.298E-05
CGA:  62    -0.669834202433E+03   -0.14669E-03    0.57751E-06  8424   0.284E-04 0.343E-04
CGA:  63    -0.669834265809E+03   -0.63376E-04    0.98960E-06  8424   0.356E-04-0.175E-05
CGA:  64    -0.669834409179E+03   -0.14337E-03    0.53209E-06  8424   0.352E-04 0.322E-04
CGA:  65    -0.669834470987E+03   -0.61808E-04    0.16900E-05  8424   0.436E-04-0.100E-04
CGA:  66    -0.669834610538E+03   -0.13955E-03    0.47527E-06  8424   0.474E-04 0.291E-04
CGA:  67    -0.669834670771E+03   -0.60233E-04    0.36955E-05  8424   0.555E-04-0.227E-04
CGA:  68    -0.669834801929E+03   -0.13116E-03    0.43629E-06  8424   0.612E-04 0.251E-04
CGA:  69    -0.669835009411E+03   -0.20748E-03    0.29152E-05  8424   0.662E-04 0.122E-05
CGA:  70    -0.669835295612E+03   -0.28620E-03    0.10923E-05  8424   0.589E-04 0.563E-04
CGA:  71    -0.669835350609E+03   -0.54997E-04    0.80889E-05  8424   0.597E-04-0.338E-04
CGA:  72    -0.669835408104E+03   -0.57496E-04    0.76883E-05  8424   0.650E-04-0.379E-04
CGA:  73    -0.669835464142E+03   -0.56037E-04    0.10656E-04  8424   0.723E-04-0.444E-04
CGA:  74    -0.669835517651E+03   -0.53510E-04    0.17631E-04  8424   0.822E-04-0.532E-04
CGA:  75    -0.669835575259E+03   -0.57608E-04    0.23900E-04  8424   0.956E-04-0.648E-04
CGA:  76    -0.669835624131E+03   -0.48872E-04    0.30487E-03  8424   0.115E-03-0.810E-04
CGA:  77    -0.669835682751E+03   -0.58621E-04    0.34965E-03  8424   0.141E-03-0.104E-03
CGA:  78    -0.669835711766E+03   -0.29015E-04   -0.45155E-04  8424   0.424E-03-0.219E-03
CGA:  79    -0.669835796307E+03   -0.84541E-04   -0.69986E-04  8424   0.940E-04-0.172E-03
CGA:  80    -0.669835868041E+03   -0.71734E-04    0.42259E-05  8424   0.128E-04 0.906E-05
CGA:  81    -0.669835931618E+03   -0.63577E-04    0.20768E-06  8424   0.119E-04 0.122E-04
CGA:  82    -0.669835985415E+03   -0.53797E-04    0.17850E-06  8424   0.122E-04 0.983E-05
CGA:  83    -0.669836037712E+03   -0.52297E-04    0.19300E-06  8424   0.126E-04 0.929E-05
CGA:  84    -0.669836092000E+03   -0.54288E-04    0.19867E-06  8424   0.132E-04 0.856E-05
CGA:  85    -0.669836142100E+03   -0.50100E-04    0.24266E-06  8424   0.143E-04 0.752E-05
CGA:  86    -0.669836197554E+03   -0.55454E-04    0.25474E-06  8424   0.161E-04 0.596E-05
CGA:  87    -0.669836307493E+03   -0.10994E-03    0.31580E-06  8424   0.140E-04 0.224E-04
CGA:  88    -0.669836356007E+03   -0.48514E-04    0.28188E-06  8424   0.153E-04 0.584E-05
CGA:  89    -0.669836464685E+03   -0.10868E-03    0.29159E-06  8424   0.136E-04 0.214E-04
CGA:  90    -0.669836516537E+03   -0.51852E-04    0.24816E-06  8424   0.146E-04 0.576E-05
CGA:  91    -0.669836619467E+03   -0.10293E-03    0.27900E-06  8424   0.133E-04 0.204E-04
CGA:  92    -0.669836668358E+03   -0.48892E-04    0.25368E-06  8424   0.136E-04 0.579E-05
CGA:  93    -0.669836769140E+03   -0.10078E-03    0.25189E-06  8424   0.130E-04 0.192E-04
CGA:  94    -0.669836817168E+03   -0.48029E-04    0.24562E-06  8424   0.127E-04 0.586E-05
CGA:  95    -0.669836911719E+03   -0.94551E-04    0.23906E-06  8424   0.127E-04 0.182E-04
CGA:  96    -0.669836960900E+03   -0.49180E-04    0.22510E-06  8424   0.118E-04 0.602E-05
CGA:  97    -0.669837053631E+03   -0.92731E-04    0.21634E-06  8424   0.123E-04 0.172E-04
CGA:  98    -0.669837098614E+03   -0.44984E-04    0.23215E-06  8424   0.110E-04 0.617E-05
CGA:  99    -0.669837146076E+03   -0.47462E-04    0.17382E-06  8424   0.102E-04 0.705E-05
CGA: 100    -0.669837192469E+03   -0.46393E-04    0.15017E-06  8424   0.963E-05 0.757E-05
CGA: 101    -0.669837237947E+03   -0.45478E-04    0.13712E-06  8424   0.931E-05 0.784E-05
CGA: 102    -0.669837284731E+03   -0.46785E-04    0.12372E-06  8424   0.913E-05 0.793E-05
CGA: 103    -0.669837329152E+03   -0.44421E-04    0.12571E-06  8424   0.903E-05 0.793E-05
CGA: 104    -0.669837375876E+03   -0.46724E-04    0.11632E-06  8424   0.901E-05 0.785E-05
CGA: 105    -0.669837419472E+03   -0.43596E-04    0.12503E-06  8424   0.907E-05 0.770E-05
CGA: 106    -0.669837466083E+03   -0.46611E-04    0.11768E-06  8424   0.924E-05 0.746E-05
CGA: 107    -0.669837508717E+03   -0.42634E-04    0.13501E-06  8424   0.957E-05 0.709E-05
CGA: 108    -0.669837555400E+03   -0.46683E-04    0.13141E-06  8424   0.102E-04 0.650E-05
CGA: 109    -0.669837596650E+03   -0.41250E-04    0.17212E-06  8424   0.113E-04 0.556E-05
CGA: 110    -0.669837643841E+03   -0.47191E-04    0.18335E-06  8424   0.132E-04 0.398E-05
CGA: 111    -0.669837738960E+03   -0.95119E-04    0.22286E-06  8424   0.112E-04 0.176E-04
CGA: 112    -0.669837778311E+03   -0.39351E-04    0.22473E-06  8424   0.134E-04 0.350E-05
CGA: 113    -0.669837873492E+03   -0.95181E-04    0.21657E-06  8424   0.114E-04 0.174E-04
CGA: 114    -0.669837919015E+03   -0.45523E-04    0.19726E-06  8424   0.141E-04 0.269E-05
CGA: 115    -0.669838013247E+03   -0.94232E-04    0.21461E-06  8424   0.122E-04 0.172E-04
CGA: 116    -0.669838051058E+03   -0.37811E-04    0.28234E-06  8424   0.155E-04 0.128E-05
CGA: 117    -0.669838146024E+03   -0.94966E-04    0.20456E-06  8424   0.142E-04 0.169E-04
CGA: 118    -0.669838189736E+03   -0.43712E-04    0.33299E-06  8424   0.189E-04-0.173E-05
CGA: 119    -0.669838283747E+03   -0.94011E-04    0.19430E-06  8424   0.200E-04 0.163E-04
CGA: 120    -0.669838319368E+03   -0.35621E-04    0.93713E-06  8424   0.278E-04-0.920E-05
CGA: 121    -0.669838414785E+03   -0.95417E-04    0.15439E-06  8424   0.371E-04 0.140E-04
CGA: 122    -0.669838456379E+03   -0.41594E-04    0.35604E-05  8424   0.532E-04-0.303E-04
CGA: 123    -0.669838485082E+03   -0.28703E-04    0.65972E-04  8424   0.798E-04-0.511E-04
CGA: 124    -0.669838531453E+03   -0.46371E-04    0.53452E-04  8424   0.124E-03-0.855E-04
CGA: 125    -0.669838554242E+03   -0.22788E-04   -0.18886E-04  8424   0.271E-04-0.416E-04
CGA: 126    -0.669838608234E+03   -0.53992E-04    0.41696E-06  8424   0.773E-05 0.688E-05
CGA: 127    -0.669838656622E+03   -0.48388E-04    0.12473E-06  8424   0.799E-05 0.814E-05
CGA: 128    -0.669838695005E+03   -0.38384E-04    0.10709E-06  8424   0.847E-05 0.500E-05
CGA: 129    -0.669838730793E+03   -0.35788E-04    0.13114E-06  8424   0.913E-05 0.435E-05
CGA: 130    -0.669838768789E+03   -0.37995E-04    0.14382E-06  8424   0.101E-04 0.347E-05
CGA: 131    -0.669838846385E+03   -0.77597E-04    0.15767E-06  8424   0.909E-05 0.137E-04
CGA: 132    -0.669838881099E+03   -0.34714E-04    0.15797E-06  8424   0.986E-05 0.331E-05
CGA: 133    -0.669838956497E+03   -0.75398E-04    0.15231E-06  8424   0.905E-05 0.133E-04
CGA: 134    -0.669838993830E+03   -0.37333E-04    0.14412E-06  8424   0.966E-05 0.316E-05
CGA: 135    -0.669839067711E+03   -0.73881E-04    0.14587E-06  8424   0.903E-05 0.129E-04
CGA: 136    -0.669839100768E+03   -0.33057E-04    0.16471E-06  8424   0.944E-05 0.303E-05
CGA: 137    -0.669839172243E+03   -0.71475E-04    0.14084E-06  8424   0.898E-05 0.125E-04
CGA: 138    -0.669839209018E+03   -0.36775E-04    0.14421E-06  8424   0.912E-05 0.297E-05
CGA: 139    -0.669839278778E+03   -0.69760E-04    0.13368E-06  8424   0.887E-05 0.120E-04
CGA: 140    -0.669839310294E+03   -0.31516E-04    0.16732E-06  8424   0.874E-05 0.299E-05
CGA: 141    -0.669839377379E+03   -0.67085E-04    0.12904E-06  8424   0.868E-05 0.116E-04
CGA: 142    -0.669839413587E+03   -0.36208E-04    0.13636E-06  8424   0.826E-05 0.312E-05
CGA: 143    -0.669839479125E+03   -0.65538E-04    0.12179E-06  8424   0.840E-05 0.111E-04
CGA: 144    -0.669839509333E+03   -0.30209E-04    0.15640E-06  8424   0.778E-05 0.331E-05
CGA: 145    -0.669839572209E+03   -0.62876E-04    0.11827E-06  8424   0.810E-05 0.107E-04
CGA: 146    -0.669839607692E+03   -0.35483E-04    0.12033E-06  8424   0.729E-05 0.354E-05
CGA: 147    -0.669839669668E+03   -0.61976E-04    0.11171E-06  8424   0.778E-05 0.104E-04
CGA: 148    -0.669839698800E+03   -0.29132E-04    0.13832E-06  8424   0.689E-05 0.372E-05
CGA: 149    -0.669839758287E+03   -0.59487E-04    0.11011E-06  8424   0.751E-05 0.101E-04
CGA: 150    -0.669839792931E+03   -0.34644E-04    0.10529E-06  8424   0.653E-05 0.388E-05
CGA: 151    -0.669839822408E+03   -0.29477E-04    0.94026E-07  8424   0.600E-05 0.454E-05
CGA: 152    -0.669839854887E+03   -0.32478E-04    0.70513E-07  8424   0.571E-05 0.488E-05
CGA: 153    -0.669839885198E+03   -0.30312E-04    0.68599E-07  8424   0.556E-05 0.504E-05
CGA: 154    -0.669839916703E+03   -0.31505E-04    0.62109E-07  8424   0.547E-05 0.510E-05
CGA: 155    -0.669839947144E+03   -0.30441E-04    0.62464E-07  8424   0.543E-05 0.511E-05
CGA: 156    -0.669839978194E+03   -0.31050E-04    0.60080E-07  8424   0.541E-05 0.509E-05
CGA: 157    -0.669840008438E+03   -0.30244E-04    0.61410E-07  8424   0.542E-05 0.505E-05
CGA: 158    -0.669840039236E+03   -0.30798E-04    0.60381E-07  8424   0.546E-05 0.497E-05
CGA: 159    -0.669840069096E+03   -0.29860E-04    0.63439E-07  8424   0.555E-05 0.486E-05
CGA: 160    -0.669840099784E+03   -0.30688E-04    0.63688E-07  8424   0.571E-05 0.469E-05
CGA: 161    -0.669840129083E+03   -0.29298E-04    0.71276E-07  8424   0.600E-05 0.442E-05
CGA: 162    -0.669840159822E+03   -0.30740E-04    0.75060E-07  8424   0.650E-05 0.399E-05
CGA: 163    -0.669840188310E+03   -0.28488E-04    0.96617E-07  8424   0.734E-05 0.329E-05
CGA: 164    -0.669840219299E+03   -0.30989E-04    0.11387E-06  8424   0.876E-05 0.216E-05
CGA: 165    -0.669840284112E+03   -0.64812E-04    0.12533E-06  8424   0.764E-05 0.112E-04
CGA: 166    -0.669840311495E+03   -0.27383E-04    0.14283E-06  8424   0.925E-05 0.162E-05
CGA: 167    -0.669840376040E+03   -0.64545E-04    0.12325E-06  8424   0.827E-05 0.111E-04
CGA: 168    -0.669840406391E+03   -0.30351E-04    0.15038E-06  8424   0.103E-04 0.670E-06
CGA: 169    -0.669840470863E+03   -0.64472E-04    0.12108E-06  8424   0.970E-05 0.110E-04
CGA: 170    -0.669840496561E+03   -0.25698E-04    0.25936E-06  8424   0.126E-04-0.128E-05
CGA: 171    -0.669840561116E+03   -0.64555E-04    0.11646E-06  8424   0.133E-04 0.108E-04
CGA: 172    -0.669840591670E+03   -0.30555E-04    0.42740E-06  8424   0.182E-04-0.593E-05
CGA: 173    -0.669840657622E+03   -0.65952E-04    0.97209E-07  8424   0.239E-04 0.969E-05
CGA: 174    -0.669840678956E+03   -0.21334E-04    0.33517E-05  8424   0.346E-04-0.191E-04
CGA: 175    -0.669840710111E+03   -0.31155E-04    0.47761E-05  8424   0.519E-04-0.329E-04
CGA: 176    -0.669840709645E+03    0.46626E-06   -0.21231E-04  8424   0.384E-03-0.129E-03
CGA: 177    -0.669840772319E+03   -0.62674E-04   -0.51752E-04  8424   0.313E-04-0.956E-04
CGA: 178    -0.669840801287E+03   -0.28968E-04    0.18623E-05  8424   0.140E-04-0.595E-05
CGA: 179    -0.669840842873E+03   -0.41586E-04    0.21222E-06  8424   0.487E-05 0.623E-05
CGA: 180    -0.669840884679E+03   -0.41806E-04    0.76255E-07  8424   0.524E-05 0.662E-05
CGA: 181    -0.669840910099E+03   -0.25419E-04    0.71116E-07  8424   0.575E-05 0.359E-05
CGA: 182    -0.669840938342E+03   -0.28244E-04    0.77130E-07  8424   0.668E-05 0.286E-05
CGA: 183    -0.669840995635E+03   -0.57293E-04    0.11299E-06  8424   0.555E-05 0.987E-05
CGA: 184    -0.669841020229E+03   -0.24593E-04    0.83507E-07  8424   0.630E-05 0.302E-05
CGA: 185    -0.669841048304E+03   -0.28075E-04    0.94038E-07  8424   0.758E-05 0.200E-05
CGA: 186    -0.669841105797E+03   -0.57493E-04    0.11236E-06  8424   0.653E-05 0.989E-05
CGA: 187    -0.669841129221E+03   -0.23424E-04    0.12500E-06  8424   0.785E-05 0.163E-05
CGA: 188    -0.669841186155E+03   -0.56934E-04    0.10947E-06  8424   0.696E-05 0.974E-05
CGA: 189    -0.669841213920E+03   -0.27766E-04    0.11777E-06  8424   0.846E-05 0.100E-05
CGA: 190    -0.669841270280E+03   -0.56360E-04    0.10763E-06  8424   0.784E-05 0.962E-05
CGA: 191    -0.669841292168E+03   -0.21887E-04    0.20185E-06  8424   0.965E-05-0.137E-06
CGA: 192    -0.669841347917E+03   -0.55749E-04    0.10424E-06  8424   0.961E-05 0.942E-05
CGA: 193    -0.669841376222E+03   -0.28305E-04    0.23192E-06  8424   0.119E-04-0.226E-05
CGA: 194    -0.669841431895E+03   -0.55673E-04    0.96581E-07  8424   0.132E-04 0.903E-05
CGA: 195    -0.669841450788E+03   -0.18893E-04    0.82532E-06  8424   0.164E-04-0.638E-05
CGA: 196    -0.669841504403E+03   -0.53615E-04    0.86132E-07  8424   0.202E-04 0.824E-05
CGA: 197    -0.669841535141E+03   -0.30738E-04    0.11581E-05  8424   0.247E-04-0.141E-04
CGA: 198    -0.669841550842E+03   -0.15701E-04    0.98842E-05  8424   0.305E-04-0.193E-04
CGA: 199    -0.669841581951E+03   -0.31109E-04    0.33828E-05  8424   0.378E-04-0.257E-04
CGA: 200    -0.669841567528E+03    0.14422E-04   -0.20108E-04  8424   0.458E-03-0.120E-03
   6 F= -.66984157E+03 E0= -.66984157E+03  d E =0.428484E-01  mag=     2.0000
       N       E                     dE             d eps       ncg     rms          ort
SDA:   1    -0.668596920311E+03    0.12447E+01    0.00000E+00  8424   0.422E+01 0.000E+00
CGA:   2    -0.669423007675E+03   -0.82609E+00   -0.82653E+00  8424   0.163E+01 0.447E-02
CGA:   3    -0.669771476815E+03   -0.34847E+00   -0.34839E+00  8424   0.554E+00-0.193E-02
CGA:   4    -0.669863473071E+03   -0.91996E-01   -0.92006E-01  8424   0.141E+00 0.451E-04
CGA:   5    -0.669887678660E+03   -0.24206E-01   -0.24231E-01  8424   0.290E-01 0.313E-03
CGA:   6    -0.669893426272E+03   -0.57476E-02   -0.57395E-02  8424   0.648E-02-0.195E-03
CGA:   7    -0.669894817963E+03   -0.13917E-02   -0.13964E-02  8424   0.186E-02 0.225E-03
CGA:   8    -0.669895260747E+03   -0.44278E-03   -0.44357E-03  8424   0.514E-03 0.127E-03
CGA:   9    -0.669895398908E+03   -0.13816E-03   -0.13734E-03  8424   0.162E-03 0.605E-04
CGA:  10    -0.669895426258E+03   -0.27350E-04   -0.32351E-04  8424   0.696E-04 0.859E-04
CGA:  11    -0.669895434029E+03   -0.77705E-05   -0.11194E-04  8424   0.383E-04 0.464E-04
   7 F= -.66989543E+03 E0= -.66989543E+03  d E =-.538665E-01  mag=     2.0000
       N       E                     dE             d eps       ncg     rms          ort
SDA:   1    -0.669835850021E+03    0.59576E-01    0.00000E+00  8424   0.169E+00 0.000E+00
CGA:   2    -0.669873628201E+03   -0.37778E-01   -0.37779E-01  8424   0.787E-01 0.275E-03
CGA:   3    -0.669889771737E+03   -0.16144E-01   -0.16145E-01  8424   0.226E-01 0.400E-04
CGA:   4    -0.669893405529E+03   -0.36338E-02   -0.36384E-02  8424   0.528E-02 0.703E-04
CGA:   5    -0.669894300016E+03   -0.89449E-03   -0.89948E-03  8424   0.109E-02 0.973E-04
CGA:   6    -0.669894503268E+03   -0.20325E-03   -0.20655E-03  8424   0.246E-03 0.105E-03
CGA:   7    -0.669894539392E+03   -0.36124E-04   -0.42231E-04  8424   0.828E-04 0.102E-03
CGA:   8    -0.669894543280E+03   -0.38873E-05   -0.12125E-04  8424   0.474E-04 0.747E-04
   8 F= -.66989454E+03 E0= -.66989454E+03  d E =0.890749E-03  mag=     2.0000
       N       E                     dE             d eps       ncg     rms          ort
SDA:   1    -0.669321934203E+03    0.57261E+00    0.00000E+00  8424   0.143E+01 0.000E+00
CGA:   2    -0.669711923381E+03   -0.38999E+00   -0.38998E+00  8424   0.766E+00-0.695E-04
CGA:   3    -0.669852406223E+03   -0.14048E+00   -0.14050E+00  8424   0.169E+00 0.516E-03
CGA:   4    -0.669879368291E+03   -0.26962E-01   -0.26960E-01  8424   0.395E-01-0.714E-04
CGA:   5    -0.669886185599E+03   -0.68173E-02   -0.68197E-02  8424   0.844E-02 0.754E-04
CGA:   6    -0.669887856738E+03   -0.16711E-02   -0.16719E-02  8424   0.190E-02 0.278E-03
CGA:   7    -0.669888263986E+03   -0.40725E-03   -0.40604E-03  8424   0.530E-03 0.198E-03
CGA:   8    -0.669888366647E+03   -0.10266E-03   -0.10643E-03  8424   0.177E-03 0.199E-03
CGA:   9    -0.669888387154E+03   -0.20507E-04   -0.31064E-04  8424   0.962E-04 0.145E-03
CGA:  10    -0.669888390154E+03   -0.30001E-05   -0.10133E-04  8424   0.683E-04 0.784E-04
   9 F= -.66988839E+03 E0= -.66988839E+03  d E =0.615313E-02  mag=     2.0000
       N       E                     dE             d eps       ncg     rms          ort
SDA:   1    -0.666626977243E+03    0.32614E+01    0.00000E+00  8424   0.916E+01 0.000E+00
CGA:   2    -0.668709137222E+03   -0.20822E+01   -0.20816E+01  8424   0.435E+01 0.107E-01
CGA:   3    -0.669591899971E+03   -0.88276E+00   -0.88281E+00  8424   0.122E+01-0.321E-02
CGA:   4    -0.669785887165E+03   -0.19399E+00   -0.19401E+00  8424   0.287E+00 0.461E-03
CGA:   5    -0.669835269989E+03   -0.49383E-01   -0.49391E-01  8424   0.590E-01 0.485E-03
CGA:   6    -0.669847162148E+03   -0.11892E-01   -0.11896E-01  8424   0.142E-01-0.268E-03
CGA:   7    -0.669850295939E+03   -0.31338E-02   -0.31330E-02  8424   0.419E-02 0.205E-04
CGA:   8    -0.669851360044E+03   -0.10641E-02   -0.10806E-02  8424   0.142E-02-0.241E-03
CGA:   9    -0.669851765791E+03   -0.40575E-03   -0.46486E-03  8424   0.821E-03-0.384E-03
CGA:  10    -0.669851707644E+03    0.58147E-04   -0.42147E-03  8424   0.243E-02-0.956E-03
CGA:  11    -0.669852160673E+03   -0.45303E-03   -0.44904E-03  8424   0.383E-03-0.987E-04
CGA:  12    -0.669851994552E+03    0.16612E-03   -0.34680E-03  8424   0.253E-02-0.714E-03
CGA:  13    -0.669852450110E+03   -0.45556E-03   -0.45060E-03  8424   0.409E-03-0.610E-04
CGA:  14    -0.669852562987E+03   -0.11288E-03   -0.17114E-03  8424   0.594E-03-0.336E-03
CGA:  15    -0.669852649624E+03   -0.86636E-04   -0.85207E-04  8424   0.801E-04-0.118E-04
CGA:  16    -0.669852720660E+03   -0.71037E-04    0.13411E-04  8424   0.277E-04 0.163E-04
CGA:  17    -0.669852779784E+03   -0.59124E-04    0.17620E-05  8424   0.278E-04 0.244E-04
CGA:  18    -0.669852829481E+03   -0.49697E-04    0.14576E-05  8424   0.245E-04 0.174E-04
CGA:  19    -0.669852870748E+03   -0.41267E-04    0.13985E-05  8424   0.256E-04 0.153E-04
CGA:  20    -0.669852919308E+03   -0.48560E-04    0.12366E-05  8424   0.280E-04 0.127E-04
CGA:  21    -0.669853012534E+03   -0.93226E-04    0.16315E-05  8424   0.238E-04 0.408E-04
CGA:  22    -0.669853051690E+03   -0.39156E-04    0.13973E-05  8424   0.260E-04 0.125E-04
CGA:  23    -0.669853099565E+03   -0.47875E-04    0.13001E-05  8424   0.300E-04 0.878E-05
CGA:  24    -0.669853192521E+03   -0.92956E-04    0.14831E-05  8424   0.254E-04 0.392E-04
CGA:  25    -0.669853228916E+03   -0.36395E-04    0.18344E-05  8424   0.295E-04 0.745E-05
CGA:  26    -0.669853321009E+03   -0.92093E-04    0.13374E-05  8424   0.252E-04 0.373E-04
CGA:  27    -0.669853367178E+03   -0.46169E-04    0.12687E-05  8424   0.300E-04 0.557E-05
CGA:  28    -0.669853457057E+03   -0.89879E-04    0.12557E-05  8424   0.261E-04 0.358E-04
CGA:  29    -0.669853490999E+03   -0.33942E-04    0.22216E-05  8424   0.314E-04 0.275E-05
CGA:  30    -0.669853580391E+03   -0.89392E-04    0.11225E-05  8424   0.288E-04 0.340E-04
CGA:  31    -0.669853624970E+03   -0.44579E-04    0.18554E-05  8424   0.349E-04-0.184E-05
CGA:  32    -0.669853711015E+03   -0.86045E-04    0.10293E-05  8424   0.347E-04 0.319E-04
CGA:  33    -0.669853742225E+03   -0.31210E-04    0.60054E-05  8424   0.417E-04-0.958E-05
CGA:  34    -0.669853827074E+03   -0.84850E-04    0.87540E-06  8424   0.451E-04 0.292E-04
CGA:  35    -0.669853870345E+03   -0.43271E-04    0.67879E-05  8424   0.524E-04-0.215E-04
CGA:  36    -0.669853948734E+03   -0.78388E-04    0.77915E-06  8424   0.590E-04 0.260E-04
CGA:  37    -0.669854069358E+03   -0.12062E-03    0.69266E-05  8424   0.566E-04 0.218E-05
CGA:  38    -0.669854234189E+03   -0.16483E-03    0.17003E-05  8424   0.440E-04 0.537E-04
CGA:  39    -0.669854271533E+03   -0.37344E-04    0.87813E-05  8424   0.429E-04-0.205E-04
CGA:  40    -0.669854337574E+03   -0.66041E-04    0.64471E-06  8424   0.414E-04 0.221E-04
CGA:  41    -0.669854371822E+03   -0.34247E-04    0.88558E-05  8424   0.359E-04-0.165E-04
CGA:  42    -0.669854437467E+03   -0.65645E-04    0.56950E-06  8424   0.316E-04 0.207E-04
CGA:  43    -0.669854469993E+03   -0.32526E-04    0.41033E-05  8424   0.247E-04-0.655E-05
CGA:  44    -0.669854527546E+03   -0.57553E-04    0.53583E-06  8424   0.219E-04 0.188E-04
CGA:  45    -0.669854563629E+03   -0.36083E-04    0.12876E-05  8424   0.166E-04 0.162E-05
CGA:  46    -0.669854621706E+03   -0.58077E-04    0.43122E-06  8424   0.166E-04 0.173E-04
CGA:  47    -0.669854651147E+03   -0.29441E-04    0.87747E-06  8424   0.129E-04 0.534E-05
CGA:  48    -0.669854706179E+03   -0.55032E-04    0.41493E-06  8424   0.141E-04 0.165E-04
CGA:  49    -0.669854740982E+03   -0.34803E-04    0.47909E-06  8424   0.112E-04 0.660E-05
CGA:  50    -0.669854797886E+03   -0.56904E-04    0.37510E-06  8424   0.127E-04 0.160E-04
CGA:  51    -0.669854825740E+03   -0.27855E-04    0.50600E-06  8424   0.104E-04 0.696E-05
CGA:  52    -0.669854857655E+03   -0.31914E-04    0.26971E-06  8424   0.948E-05 0.812E-05
CGA:  53    -0.669854887561E+03   -0.29906E-04    0.23897E-06  8424   0.908E-05 0.849E-05
CGA:  54    -0.669854917671E+03   -0.30110E-04    0.21572E-06  8424   0.886E-05 0.856E-05
CGA:  55    -0.669854947883E+03   -0.30213E-04    0.20383E-06  8424   0.872E-05 0.853E-05
CGA:  56    -0.669854977293E+03   -0.29409E-04    0.20293E-06  8424   0.861E-05 0.845E-05
CGA:  57    -0.669855007444E+03   -0.30151E-04    0.19162E-06  8424   0.852E-05 0.835E-05
CGA:  58    -0.669855036211E+03   -0.28767E-04    0.19817E-06  8424   0.847E-05 0.821E-05
CGA:  59    -0.669855066353E+03   -0.30142E-04    0.18517E-06  8424   0.848E-05 0.803E-05
CGA:  60    -0.669855094245E+03   -0.27892E-04    0.20341E-06  8424   0.861E-05 0.776E-05
CGA:  61    -0.669855124589E+03   -0.30344E-04    0.19021E-06  8424   0.896E-05 0.734E-05
CGA:  62    -0.669855151254E+03   -0.26665E-04    0.24233E-06  8424   0.977E-05 0.659E-05
CGA:  63    -0.669855182049E+03   -0.30795E-04    0.24639E-06  8424   0.115E-04 0.521E-05
CGA:  64    -0.669855206833E+03   -0.24785E-04    0.46465E-06  8424   0.150E-04 0.255E-05
CGA:  65    -0.669855272212E+03   -0.65378E-04    0.40064E-06  8424   0.124E-04 0.179E-04
CGA:  66    -0.669855303657E+03   -0.31446E-04    0.41096E-06  8424   0.170E-04 0.542E-06
CGA:  67    -0.669855369149E+03   -0.65492E-04    0.36954E-06  8424   0.157E-04 0.173E-04
CGA:  68    -0.669855389372E+03   -0.20223E-04    0.13629E-05  8424   0.234E-04-0.468E-05
CGA:  69    -0.669855454996E+03   -0.65624E-04    0.31420E-06  8424   0.293E-04 0.157E-04
CGA:  70    -0.669855489055E+03   -0.34059E-04    0.30084E-05  8424   0.484E-04-0.236E-04
CGA:  71    -0.669855500237E+03   -0.11182E-04   -0.95268E-05  8424   0.344E-04-0.272E-04
CGA:  72    -0.669855534597E+03   -0.34359E-04    0.45504E-05  8424   0.575E-04-0.308E-04
CGA:  73    -0.669855545394E+03   -0.10798E-04   -0.91243E-05  8424   0.179E-04-0.175E-04
CGA:  74    -0.669855581749E+03   -0.36354E-04    0.32406E-06  8424   0.700E-05 0.928E-05
CGA:  75    -0.669855607988E+03   -0.26239E-04    0.13492E-06  8424   0.724E-05 0.570E-05
CGA:  76    -0.669855630472E+03   -0.22484E-04    0.17388E-06  8424   0.771E-05 0.519E-05
CGA:  77    -0.669855657554E+03   -0.27082E-04    0.16004E-06  8424   0.850E-05 0.444E-05
CGA:  78    -0.669855678026E+03   -0.20472E-04    0.27831E-06  8424   0.988E-05 0.323E-05
CGA:  79    -0.669855731044E+03   -0.53018E-04    0.25156E-06  8424   0.833E-05 0.134E-04
CGA:  80    -0.669855758188E+03   -0.27143E-04    0.18868E-06  8424   0.954E-05 0.300E-05
CGA:  81    -0.669855808600E+03   -0.50412E-04    0.24000E-06  8424   0.818E-05 0.127E-04
CGA:  82    -0.669855828323E+03   -0.19723E-04    0.26799E-06  8424   0.935E-05 0.270E-05
CGA:  83    -0.669855878662E+03   -0.50339E-04    0.21915E-06  8424   0.816E-05 0.122E-04
CGA:  84    -0.669855904452E+03   -0.25790E-04    0.19178E-06  8424   0.914E-05 0.237E-05
CGA:  85    -0.669855952057E+03   -0.47605E-04    0.20847E-06  8424   0.820E-05 0.116E-04
CGA:  86    -0.669855971346E+03   -0.19289E-04    0.27664E-06  8424   0.896E-05 0.200E-05
CGA:  87    -0.669856018493E+03   -0.47147E-04    0.18721E-06  8424   0.828E-05 0.110E-04
CGA:  88    -0.669856042707E+03   -0.24213E-04    0.21338E-06  8424   0.871E-05 0.168E-05
CGA:  89    -0.669856086697E+03   -0.43990E-04    0.17703E-06  8424   0.826E-05 0.103E-04
CGA:  90    -0.669856106068E+03   -0.19371E-04    0.28031E-06  8424   0.826E-05 0.153E-05
CGA:  91    -0.669856149280E+03   -0.43212E-04    0.15635E-06  8424   0.803E-05 0.962E-05
CGA:  92    -0.669856171536E+03   -0.22256E-04    0.22083E-06  8424   0.757E-05 0.164E-05
CGA:  93    -0.669856211338E+03   -0.39802E-04    0.14760E-06  8424   0.753E-05 0.896E-05
CGA:  94    -0.669856231263E+03   -0.19925E-04    0.21936E-06  8424   0.672E-05 0.200E-05
CGA:  95    -0.669856270449E+03   -0.39186E-04    0.12974E-06  8424   0.690E-05 0.836E-05
CGA:  96    -0.669856290683E+03   -0.20235E-04    0.17720E-06  8424   0.593E-05 0.242E-05
CGA:  97    -0.669856327215E+03   -0.36531E-04    0.12351E-06  8424   0.631E-05 0.787E-05
CGA:  98    -0.669856347375E+03   -0.20161E-04    0.14635E-06  8424   0.531E-05 0.275E-05
CGA:  99    -0.669856383876E+03   -0.36501E-04    0.11108E-06  8424   0.583E-05 0.746E-05
CGA: 100    -0.669856402586E+03   -0.18711E-04    0.13461E-06  8424   0.487E-05 0.293E-05
CGA: 101    -0.669856421785E+03   -0.19198E-04    0.88318E-07  8424   0.440E-05 0.350E-05
CGA: 102    -0.669856441149E+03   -0.19365E-04    0.70442E-07  8424   0.417E-05 0.373E-05
CGA: 103    -0.669856459574E+03   -0.18425E-04    0.66529E-07  8424   0.405E-05 0.380E-05
CGA: 104    -0.669856478905E+03   -0.19331E-04    0.59204E-07  8424   0.397E-05 0.381E-05
CGA: 105    -0.669856497022E+03   -0.18117E-04    0.61209E-07  8424   0.392E-05 0.378E-05
CGA: 106    -0.669856516208E+03   -0.19186E-04    0.55890E-07  8424   0.389E-05 0.374E-05
CGA: 107    -0.669856533993E+03   -0.17785E-04    0.59755E-07  8424   0.388E-05 0.367E-05
CGA: 108    -0.669856553085E+03   -0.19091E-04    0.54797E-07  8424   0.389E-05 0.359E-05
CGA: 109    -0.669856570436E+03   -0.17351E-04    0.61482E-07  8424   0.395E-05 0.347E-05
CGA: 110    -0.669856589506E+03   -0.19070E-04    0.57231E-07  8424   0.410E-05 0.328E-05
CGA: 111    -0.669856606319E+03   -0.16813E-04    0.71314E-07  8424   0.440E-05 0.299E-05
CGA: 112    -0.669856625435E+03   -0.19116E-04    0.71598E-07  8424   0.497E-05 0.249E-05
CGA: 113    -0.669856641538E+03   -0.16104E-04    0.11344E-06  8424   0.603E-05 0.163E-05
CGA: 114    -0.669856680770E+03   -0.39231E-04    0.11376E-06  8424   0.499E-05 0.784E-05
CGA: 115    -0.669856699931E+03   -0.19161E-04    0.93292E-07  8424   0.613E-05 0.131E-05
CGA: 116    -0.669856738570E+03   -0.38640E-04    0.10787E-06  8424   0.517E-05 0.759E-05
CGA: 117    -0.669856753083E+03   -0.14513E-04    0.13996E-06  8424   0.653E-05 0.783E-06
CGA: 118    -0.669856791557E+03   -0.38474E-04    0.10188E-06  8424   0.577E-05 0.737E-05
CGA: 119    -0.669856810698E+03   -0.19141E-04    0.12785E-06  8424   0.761E-05-0.267E-06
CGA: 120    -0.669856849006E+03   -0.38307E-04    0.94992E-07  8424   0.754E-05 0.709E-05
CGA: 121    -0.669856861348E+03   -0.12342E-04    0.41502E-06  8424   0.106E-04-0.279E-05
CGA: 122    -0.669856899735E+03   -0.38387E-04    0.79300E-07  8424   0.133E-04 0.631E-05
CGA: 123    -0.669856919990E+03   -0.20255E-04    0.82007E-06  8424   0.200E-04-0.104E-04
CGA: 124    -0.669856918224E+03    0.17657E-05   -0.92073E-05  8424   0.181E-03-0.524E-04
CGA: 125    -0.669856958254E+03   -0.40030E-04   -0.31106E-04  8424   0.630E-04-0.101E-03
CGA: 126    -0.669856964972E+03   -0.67177E-05   -0.69580E-05  8424   0.282E-05 0.163E-05
  10 F= -.66985696E+03 E0= -.66985696E+03  d E =0.314252E-01  mag=     2.0000
       N       E                     dE             d eps       ncg     rms          ort
SDA:   1    -0.669175251243E+03    0.68171E+00    0.00000E+00  8424   0.226E+01 0.000E+00
CGA:   2    -0.669631305961E+03   -0.45605E+00   -0.45621E+00  8424   0.916E+00 0.220E-02
CGA:   3    -0.669825883835E+03   -0.19458E+00   -0.19453E+00  8424   0.300E+00-0.130E-02
CGA:   4    -0.669875070080E+03   -0.49186E-01   -0.49185E-01  8424   0.745E-01-0.553E-04
CGA:   5    -0.669887952544E+03   -0.12882E-01   -0.12893E-01  8424   0.154E-01 0.141E-03
CGA:   6    -0.669891035532E+03   -0.30830E-02   -0.30769E-02  8424   0.351E-02-0.161E-03
CGA:   7    -0.669891790573E+03   -0.75504E-03   -0.75663E-03  8424   0.101E-02 0.888E-04
CGA:   8    -0.669892041252E+03   -0.25068E-03   -0.25051E-03  8424   0.297E-03 0.276E-04
CGA:   9    -0.669892131245E+03   -0.89993E-04   -0.91764E-04  8424   0.122E-03-0.272E-04
CGA:  10    -0.669892157617E+03   -0.26372E-04   -0.26389E-04  8424   0.451E-04 0.253E-04
CGA:  11    -0.669892175563E+03   -0.17946E-04   -0.17647E-04  8424   0.265E-04 0.322E-05
CGA:  12    -0.669892183464E+03   -0.79014E-05   -0.76434E-05  8424   0.167E-04 0.924E-05
  11 F= -.66989218E+03 E0= -.66989218E+03  d E =-.352185E-01  mag=     2.0000
       N       E                     dE             d eps       ncg     rms          ort
SDA:   1    -0.669794558975E+03    0.97617E-01    0.00000E+00  8424   0.279E+00 0.000E+00
CGA:   2    -0.669857898774E+03   -0.63340E-01   -0.63343E-01  8424   0.133E+00 0.215E-03
CGA:   3    -0.669885175925E+03   -0.27277E-01   -0.27271E-01  8424   0.373E-01-0.202E-03
CGA:   4    -0.669891166330E+03   -0.59904E-02   -0.59878E-02  8424   0.863E-02-0.389E-04
CGA:   5    -0.669892645314E+03   -0.14790E-02   -0.14800E-02  8424   0.178E-02 0.150E-04
CGA:   6    -0.669892999780E+03   -0.35447E-03   -0.35507E-03  8424   0.416E-03 0.189E-04
CGA:   7    -0.669893086725E+03   -0.86945E-04   -0.87729E-04  8424   0.116E-03 0.390E-04
CGA:   8    -0.669893113052E+03   -0.26327E-04   -0.26783E-04  8424   0.374E-04 0.281E-04
CGA:   9    -0.669893120144E+03   -0.70919E-05   -0.82207E-05  8424   0.182E-04 0.224E-04
  12 F= -.66989312E+03 E0= -.66989312E+03  d E =-.936680E-03  mag=     2.0000
       N       E                     dE             d eps       ncg     rms          ort
SDA:   1    -0.669604260573E+03    0.28885E+00    0.00000E+00  8424   0.752E+00 0.000E+00
CGA:   2    -0.669793946645E+03   -0.18969E+00   -0.18967E+00  8424   0.401E+00 0.343E-03
CGA:   3    -0.669872106330E+03   -0.78160E-01   -0.78151E-01  8424   0.971E-01-0.352E-03
CGA:   4    -0.669887321956E+03   -0.15216E-01   -0.15209E-01  8424   0.215E-01-0.122E-03
CGA:   5    -0.669891020952E+03   -0.36990E-02   -0.36985E-02  8424   0.455E-02-0.142E-04
CGA:   6    -0.669891946619E+03   -0.92567E-03   -0.92603E-03  8424   0.107E-02 0.323E-04
CGA:   7    -0.669892179199E+03   -0.23258E-03   -0.23254E-03  8424   0.296E-03 0.316E-04
CGA:   8    -0.669892255685E+03   -0.76485E-04   -0.76135E-04  8424   0.994E-04 0.977E-05
CGA:   9    -0.669892281881E+03   -0.26196E-04   -0.25589E-04  8424   0.365E-04 0.183E-04
CGA:  10    -0.669892293684E+03   -0.11803E-04   -0.11172E-04  8424   0.187E-04 0.152E-04
CGA:  11    -0.669892298013E+03   -0.43288E-05   -0.48913E-05  8424   0.112E-04 0.158E-04
  13 F= -.66989230E+03 E0= -.66989230E+03  d E =0.822132E-03  mag=     2.0000
       N       E                     dE             d eps       ncg     rms          ort
SDA:   1    -0.666077152029E+03    0.38151E+01    0.00000E+00  8424   0.102E+02 0.000E+00
CGA:   2    -0.668554429085E+03   -0.24773E+01   -0.24770E+01  8424   0.526E+01 0.707E-02
CGA:   3    -0.669593467712E+03   -0.10390E+01   -0.10390E+01  8424   0.134E+01-0.191E-02
CGA:   4    -0.669803804144E+03   -0.21034E+00   -0.21039E+00  8424   0.303E+00 0.470E-03
CGA:   5    -0.669855870575E+03   -0.52066E-01   -0.52090E-01  8424   0.629E-01 0.512E-03
CGA:   6    -0.669868636500E+03   -0.12766E-01   -0.12768E-01  8424   0.153E-01 0.285E-03
CGA:   7    -0.669871884270E+03   -0.32478E-02   -0.32467E-02  8424   0.418E-02 0.521E-03
CGA:   8    -0.669872892979E+03   -0.10087E-02   -0.10010E-02  8424   0.123E-02 0.349E-03
CGA:   9    -0.669873184985E+03   -0.29201E-03   -0.28964E-03  8424   0.396E-03 0.346E-03
CGA:  10    -0.669873260999E+03   -0.76014E-04   -0.86556E-04  8424   0.185E-03 0.258E-03
CGA:  11    -0.669873276177E+03   -0.15178E-04   -0.25075E-04  8424   0.110E-03 0.135E-03
CGA:  12    -0.669873275509E+03    0.66748E-06   -0.10379E-04  8424   0.900E-04 0.993E-04
  14 F= -.66987328E+03 E0= -.66987328E+03  d E =0.190225E-01  mag=     2.0000
       N       E                     dE             d eps       ncg     rms          ort
SDA:   1    -0.669144539801E+03    0.72874E+00    0.00000E+00  8424   0.224E+01 0.000E+00
CGA:   2    -0.669626660397E+03   -0.48212E+00   -0.48205E+00  8424   0.990E+00 0.274E-02
CGA:   3    -0.669832267814E+03   -0.20561E+00   -0.20562E+00  8424   0.294E+00-0.146E-02
CGA:   4    -0.669879952966E+03   -0.47685E-01   -0.47690E-01  8424   0.711E-01 0.915E-04
CGA:   5    -0.669892264051E+03   -0.12311E-01   -0.12318E-01  8424   0.148E-01 0.315E-03
CGA:   6    -0.669895232150E+03   -0.29681E-02   -0.29684E-02  8424   0.343E-02-0.466E-04
CGA:   7    -0.669895955790E+03   -0.72364E-03   -0.71989E-03  8424   0.962E-03 0.220E-03
CGA:   8    -0.669896181614E+03   -0.22582E-03   -0.22190E-03  8424   0.278E-03 0.173E-03
CGA:   9    -0.669896248830E+03   -0.67216E-04   -0.66393E-04  8424   0.104E-03 0.111E-03
CGA:  10    -0.669896261068E+03   -0.12238E-04   -0.18684E-04  8424   0.625E-04 0.950E-04
CGA:  11    -0.669896262206E+03   -0.11378E-05   -0.61346E-05  8424   0.470E-04 0.530E-04
  15 F= -.66989626E+03 E0= -.66989626E+03  d E =-.229867E-01  mag=     2.0000
       N       E                     dE             d eps       ncg     rms          ort
SDA:   1    -0.669866554338E+03    0.29707E-01    0.00000E+00  8424   0.791E-01 0.000E+00
CGA:   2    -0.669886717660E+03   -0.20163E-01   -0.20143E-01  8424   0.426E-01 0.269E-03
CGA:   3    -0.669894969996E+03   -0.82523E-02   -0.82514E-02  8424   0.101E-01 0.127E-03
CGA:   4    -0.669896540871E+03   -0.15709E-02   -0.15739E-02  8424   0.221E-02 0.957E-04
CGA:   5    -0.669896911197E+03   -0.37033E-03   -0.37233E-03  8424   0.462E-03 0.110E-03
CGA:   6    -0.669896993566E+03   -0.82369E-04   -0.83614E-04  8424   0.116E-03 0.109E-03
CGA:   7    -0.669897005827E+03   -0.12262E-04   -0.17218E-04  8424   0.541E-04 0.784E-04
CGA:   8    -0.669897006693E+03   -0.86608E-06   -0.48547E-05  8424   0.385E-04 0.441E-04
  16 F= -.66989701E+03 E0= -.66989701E+03  d E =-.744488E-03  mag=     2.0000
       N       E                     dE             d eps       ncg     rms          ort
SDA:   1    -0.665191528678E+03    0.47055E+01    0.00000E+00  8424   0.116E+02 0.000E+00
CGA:   2    -0.668440974286E+03   -0.32494E+01   -0.32497E+01  8424   0.643E+01-0.329E-02
CGA:   3    -0.669606836008E+03   -0.11659E+01   -0.11658E+01  8424   0.136E+01 0.135E-02
CGA:   4    -0.669819618309E+03   -0.21278E+00   -0.21279E+00  8424   0.310E+00 0.110E-03
CGA:   5    -0.669873572235E+03   -0.53954E-01   -0.53954E-01  8424   0.667E-01 0.337E-03
CGA:   6    -0.669887265454E+03   -0.13693E-01   -0.13677E-01  8424   0.157E-01 0.526E-03
CGA:   7    -0.669890703385E+03   -0.34379E-02   -0.34310E-02  8424   0.454E-02 0.171E-03
CGA:   8    -0.669891823061E+03   -0.11197E-02   -0.10997E-02  8424   0.144E-02 0.327E-03
CGA:   9    -0.669892213126E+03   -0.39006E-03   -0.37104E-03  8424   0.499E-03 0.320E-03
CGA:  10    -0.669892351993E+03   -0.13887E-03   -0.13105E-03  8424   0.223E-03 0.259E-03
CGA:  11    -0.669892385300E+03   -0.33307E-04   -0.36496E-04  8424   0.117E-03 0.143E-03
CGA:  12    -0.669892393931E+03   -0.86309E-05   -0.14779E-04  8424   0.941E-04 0.104E-03
  17 F= -.66989239E+03 E0= -.66989239E+03  d E =0.461276E-02  mag=     2.0000
       N       E                     dE             d eps       ncg     rms          ort
SDA:   1    -0.666291003897E+03    0.36014E+01    0.00000E+00  8424   0.103E+02 0.000E+00
CGA:   2    -0.668548750370E+03   -0.22577E+01   -0.22570E+01  8424   0.488E+01 0.143E-01
CGA:   3    -0.669577224522E+03   -0.10285E+01   -0.10286E+01  8424   0.142E+01-0.574E-02
CGA:   4    -0.669801837900E+03   -0.22461E+00   -0.22464E+00  8424   0.316E+00 0.924E-03
CGA:   5    -0.669855943477E+03   -0.54106E-01   -0.54121E-01  8424   0.660E-01 0.157E-02
CGA:   6    -0.669869393865E+03   -0.13450E-01   -0.13449E-01  8424   0.158E-01 0.572E-04
CGA:   7    -0.669872698400E+03   -0.33045E-02   -0.32833E-02  8424   0.420E-02 0.809E-03
CGA:   8    -0.669873639554E+03   -0.94115E-03   -0.92014E-03  8424   0.113E-02 0.804E-03
CGA:   9    -0.669873908386E+03   -0.26883E-03   -0.26332E-03  8424   0.408E-03 0.454E-03
CGA:  10    -0.669873960976E+03   -0.52589E-04   -0.73018E-04  8424   0.229E-03 0.359E-03
CGA:  11    -0.669873965170E+03   -0.41943E-05   -0.21338E-04  8424   0.170E-03 0.194E-03
CGA:  12    -0.669873963166E+03    0.20039E-05   -0.13391E-04  8424   0.145E-03 0.156E-03
  18 F= -.66987396E+03 E0= -.66987396E+03  d E =0.184308E-01  mag=     2.0000
       N       E                     dE             d eps       ncg     rms          ort
SDA:   1    -0.669666623378E+03    0.20734E+00    0.00000E+00  8424   0.714E+00 0.000E+00
CGA:   2    -0.669811048811E+03   -0.14443E+00   -0.14438E+00  8424   0.299E+00 0.126E-02
CGA:   3    -0.669874657615E+03   -0.63609E-01   -0.63576E-01  8424   0.963E-01 0.704E-03
CGA:   4    -0.669890290091E+03   -0.15632E-01   -0.15637E-01  8424   0.229E-01 0.463E-03
CGA:   5    -0.669894211613E+03   -0.39215E-02   -0.39216E-02  8424   0.474E-02 0.370E-03
CGA:   6    -0.669895109056E+03   -0.89744E-03   -0.89183E-03  8424   0.104E-02 0.384E-03
CGA:   7    -0.669895290442E+03   -0.18139E-03   -0.18399E-03  8424   0.302E-03 0.341E-03
CGA:   8    -0.669895323833E+03   -0.33390E-04   -0.46395E-04  8424   0.152E-03 0.235E-03
CGA:   9    -0.669895326109E+03   -0.22764E-05   -0.12727E-04  8424   0.107E-03 0.124E-03
  19 F= -.66989533E+03 E0= -.66989533E+03  d E =-.213629E-01  mag=     2.0000
       N       E                     dE             d eps       ncg     rms          ort
SDA:   1    -0.669735732284E+03    0.15959E+00    0.00000E+00  8424   0.494E+00 0.000E+00
CGA:   2    -0.669841217215E+03   -0.10548E+00   -0.10543E+00  8424   0.219E+00 0.910E-03
CGA:   3    -0.669886133418E+03   -0.44916E-01   -0.44892E-01  8424   0.653E-01 0.511E-03
CGA:   4    -0.669896798891E+03   -0.10665E-01   -0.10666E-01  8424   0.157E-01 0.419E-03
CGA:   5    -0.669899467764E+03   -0.26689E-02   -0.26669E-02  8424   0.324E-02 0.343E-03
CGA:   6    -0.669900086299E+03   -0.61854E-03   -0.61237E-03  8424   0.704E-03 0.296E-03
CGA:   7    -0.669900207085E+03   -0.12079E-03   -0.12231E-03  8424   0.216E-03 0.257E-03
CGA:   8    -0.669900228355E+03   -0.21270E-04   -0.31606E-04  8424   0.115E-03 0.180E-03
CGA:   9    -0.669900229463E+03   -0.11074E-05   -0.90548E-05  8424   0.838E-04 0.957E-04
  20 F= -.66990023E+03 E0= -.66990023E+03  d E =-.490335E-02  mag=     2.0000
       N       E                     dE             d eps       ncg     rms          ort
SDA:   1    -0.669893233409E+03    0.69949E-02    0.00000E+00  8424   0.221E-01 0.000E+00
CGA:   2    -0.669898055273E+03   -0.48219E-02   -0.48034E-02  8424   0.949E-02 0.285E-03
CGA:   3    -0.669900062722E+03   -0.20074E-02   -0.19905E-02  8424   0.275E-02 0.329E-03
CGA:   4    -0.669900483915E+03   -0.42119E-03   -0.42438E-03  8424   0.603E-03 0.327E-03
CGA:   5    -0.669900563969E+03   -0.80055E-04   -0.86870E-04  8424   0.146E-03 0.231E-03
CGA:   6    -0.669900571889E+03   -0.79198E-05   -0.17022E-04  8424   0.771E-04 0.126E-03
  21 F= -.66990057E+03 E0= -.66990057E+03  d E =-.342426E-03  mag=     2.0000
       N       E                     dE             d eps       ncg     rms          ort
SDA:   1    -0.669244040096E+03    0.65652E+00    0.00000E+00  8424   0.190E+01 0.000E+00
CGA:   2    -0.669653605053E+03   -0.40956E+00   -0.40937E+00  8424   0.871E+00 0.259E-02
CGA:   3    -0.669842793385E+03   -0.18919E+00   -0.18925E+00  8424   0.257E+00-0.111E-02
CGA:   4    -0.669882510548E+03   -0.39717E-01   -0.39718E-01  8424   0.566E-01 0.996E-03
CGA:   5    -0.669892241880E+03   -0.97313E-02   -0.97164E-02  8424   0.115E-01 0.931E-03
CGA:   6    -0.669894617987E+03   -0.23761E-02   -0.23690E-02  8424   0.290E-02 0.151E-03
CGA:   7    -0.669895172930E+03   -0.55494E-03   -0.54272E-03  8424   0.699E-03 0.456E-03
CGA:   8    -0.669895278832E+03   -0.10590E-03   -0.11348E-03  8424   0.267E-03 0.393E-03
CGA:   9    -0.669895297054E+03   -0.18222E-04   -0.28319E-04  8424   0.155E-03 0.192E-03
CGA:  10    -0.669895296674E+03    0.37990E-06   -0.11173E-04  8424   0.125E-03 0.138E-03
  22 F= -.66989530E+03 E0= -.66989530E+03  d E =0.527522E-02  mag=     2.0000
       N       E                     dE             d eps       ncg     rms          ort
SDA:   1    -0.668848202375E+03    0.10471E+01    0.00000E+00  8424   0.317E+01 0.000E+00
CGA:   2    -0.669500987607E+03   -0.65279E+00   -0.65249E+00  8424   0.138E+01 0.447E-02
CGA:   3    -0.669799004893E+03   -0.29802E+00   -0.29802E+00  8424   0.432E+00-0.310E-03
CGA:   4    -0.669867752832E+03   -0.68748E-01   -0.68746E-01  8424   0.979E-01 0.201E-03
CGA:   5    -0.669884652450E+03   -0.16900E-01   -0.16892E-01  8424   0.208E-01 0.387E-03
CGA:   6    -0.669888790342E+03   -0.41379E-02   -0.41221E-02  8424   0.479E-02 0.363E-03
CGA:   7    -0.669889787678E+03   -0.99734E-03   -0.98028E-03  8424   0.124E-02 0.382E-03
CGA:   8    -0.669890085235E+03   -0.29756E-03   -0.28412E-03  8424   0.339E-03 0.255E-03
CGA:   9    -0.669890147350E+03   -0.62114E-04   -0.63361E-04  8424   0.131E-03 0.192E-03
CGA:  10    -0.669890156254E+03   -0.89043E-05   -0.14170E-04  8424   0.814E-04 0.990E-04
  23 F= -.66989016E+03 E0= -.66989016E+03  d E =0.514042E-02  mag=     2.0000
       N       E                     dE             d eps       ncg     rms          ort
SDA:   1    -0.669659260080E+03    0.23089E+00    0.00000E+00  8424   0.767E+00 0.000E+00
CGA:   2    -0.669810647746E+03   -0.15139E+00   -0.15133E+00  8424   0.315E+00 0.116E-02
CGA:   3    -0.669879831407E+03   -0.69184E-01   -0.69192E-01  8424   0.105E+00-0.197E-03
CGA:   4    -0.669896627694E+03   -0.16796E-01   -0.16796E-01  8424   0.240E-01 0.324E-03
CGA:   5    -0.669900728477E+03   -0.41008E-02   -0.40967E-02  8424   0.496E-02 0.406E-03
CGA:   6    -0.669901724821E+03   -0.99634E-03   -0.99084E-03  8424   0.114E-02 0.152E-03
CGA:   7    -0.669901931292E+03   -0.20647E-03   -0.20372E-03  8424   0.283E-03 0.254E-03
CGA:   8    -0.669901960933E+03   -0.29641E-04   -0.39434E-04  8424   0.127E-03 0.200E-03
CGA:   9    -0.669901963456E+03   -0.25233E-05   -0.10396E-04  8424   0.828E-04 0.999E-04
  24 F= -.66990196E+03 E0= -.66990196E+03  d E =-.118072E-01  mag=     2.0000
       N       E                     dE             d eps       ncg     rms          ort
SDA:   1    -0.669891600189E+03    0.10361E-01    0.00000E+00  8424   0.267E-01 0.000E+00
CGA:   2    -0.669898549029E+03   -0.69488E-02   -0.69134E-02  8424   0.140E-01 0.327E-03
CGA:   3    -0.669901212985E+03   -0.26640E-02   -0.26553E-02  8424   0.312E-02 0.283E-03
CGA:   4    -0.669901691074E+03   -0.47809E-03   -0.47978E-03  8424   0.691E-03 0.214E-03
CGA:   5    -0.669901788467E+03   -0.97393E-04   -0.10143E-03  8424   0.146E-03 0.195E-03
CGA:   6    -0.669901795681E+03   -0.72142E-05   -0.15747E-04  8424   0.720E-04 0.117E-03
  25 F= -.66990180E+03 E0= -.66990180E+03  d E =0.167775E-03  mag=     2.0000
       N       E                     dE             d eps       ncg     rms          ort
SDA:   1    -0.668518464279E+03    0.13833E+01    0.00000E+00  8424   0.305E+01 0.000E+00
CGA:   2    -0.669688436327E+03   -0.11700E+01   -0.11721E+01  8424   0.936E+00-0.914E-02
CGA:   3    -0.669842002193E+03   -0.15357E+00   -0.15354E+00  8424   0.215E+00 0.582E-02
CGA:   4    -0.669880821876E+03   -0.38820E-01   -0.38832E-01  8424   0.564E-01-0.701E-03
CGA:   5    -0.669890236561E+03   -0.94147E-02   -0.94173E-02  8424   0.120E-01-0.428E-03
CGA:   6    -0.669892577724E+03   -0.23412E-02   -0.23213E-02  8424   0.285E-02 0.597E-03
CGA:   7    -0.669893293640E+03   -0.71592E-03   -0.71234E-03  8424   0.999E-03 0.476E-04
CGA:   8    -0.669893490205E+03   -0.19656E-03   -0.19097E-03  8424   0.302E-03 0.269E-03
CGA:   9    -0.669893546583E+03   -0.56378E-04   -0.59117E-04  8424   0.148E-03 0.196E-03
CGA:  10    -0.669893570465E+03   -0.23882E-04   -0.24215E-04  8424   0.791E-04 0.950E-04
CGA:  11    -0.669893572045E+03   -0.15797E-05   -0.71134E-05  8424   0.646E-04 0.715E-04
  26 F= -.66989357E+03 E0= -.66989357E+03  d E =0.822364E-02  mag=     2.0000
       N       E                     dE             d eps       ncg     rms          ort
SDA:   1    -0.667378534180E+03    0.25150E+01    0.00000E+00  8424   0.747E+01 0.000E+00
CGA:   2    -0.668923753312E+03   -0.15452E+01   -0.15444E+01  8424   0.333E+01 0.142E-01
CGA:   3    -0.669642838619E+03   -0.71909E+00   -0.71939E+00  8424   0.104E+01-0.608E-02
CGA:   4    -0.669805870516E+03   -0.16303E+00   -0.16303E+00  8424   0.228E+00-0.436E-03
CGA:   5    -0.669844770558E+03   -0.38900E-01   -0.38897E-01  8424   0.470E-01 0.404E-03
CGA:   6    -0.669854507403E+03   -0.97368E-02   -0.97632E-02  8424   0.117E-01-0.622E-03
CGA:   7    -0.669856984142E+03   -0.24767E-02   -0.24791E-02  8424   0.322E-02-0.498E-04
CGA:   8    -0.669857831854E+03   -0.84771E-03   -0.91527E-03  8424   0.129E-02-0.578E-03
CGA:   9    -0.669858008052E+03   -0.17620E-03   -0.50166E-03  8424   0.202E-02-0.108E-02
CGA:  10    -0.669858382147E+03   -0.37409E-03   -0.37326E-03  8424   0.349E-03-0.162E-03
CGA:  11    -0.669858512611E+03   -0.13046E-03    0.41247E-03  8424   0.630E-04 0.903E-04
CGA:  12    -0.669858585829E+03   -0.73218E-04    0.52422E-05  8424   0.312E-04 0.293E-04
CGA:  13    -0.669858666173E+03   -0.80344E-04    0.11935E-05  8424   0.236E-04 0.286E-04
CGA:  14    -0.669858714089E+03   -0.47916E-04    0.51494E-06  8424   0.163E-04 0.166E-04
CGA:  15    -0.669858760827E+03   -0.46737E-04    0.23574E-06  8424   0.151E-04 0.154E-04
CGA:  16    -0.669858805701E+03   -0.44874E-04    0.20881E-06  8424   0.142E-04 0.146E-04
CGA:  17    -0.669858850595E+03   -0.44894E-04    0.18449E-06  8424   0.136E-04 0.138E-04
CGA:  18    -0.669858894409E+03   -0.43814E-04    0.17086E-06  8424   0.130E-04 0.132E-04
CGA:  19    -0.669858937915E+03   -0.43506E-04    0.15701E-06  8424   0.125E-04 0.127E-04
CGA:  20    -0.669858980706E+03   -0.42791E-04    0.14717E-06  8424   0.121E-04 0.123E-04
CGA:  21    -0.669859023079E+03   -0.42373E-04    0.13799E-06  8424   0.117E-04 0.118E-04
CGA:  22    -0.669859064901E+03   -0.41821E-04    0.13074E-06  8424   0.113E-04 0.115E-04
CGA:  23    -0.669859106282E+03   -0.41381E-04    0.12421E-06  8424   0.110E-04 0.112E-04
CGA:  24    -0.669859147216E+03   -0.40934E-04    0.11861E-06  8424   0.107E-04 0.109E-04
CGA:  25    -0.669859187675E+03   -0.40459E-04    0.11381E-06  8424   0.105E-04 0.106E-04
CGA:  26    -0.669859227836E+03   -0.40162E-04    0.10905E-06  8424   0.102E-04 0.104E-04
CGA:  27    -0.669859267324E+03   -0.39488E-04    0.10591E-06  8424   0.100E-04 0.101E-04
CGA:  28    -0.669859307039E+03   -0.39715E-04    0.10065E-06  8424   0.985E-05 0.990E-05
CGA:  29    -0.669859344958E+03   -0.37919E-04    0.10188E-06  8424   0.974E-05 0.965E-05
CGA:  30    -0.669859385517E+03   -0.40560E-04    0.92443E-07  8424   0.987E-05 0.929E-05
CGA:  31    -0.669859419509E+03   -0.33991E-04    0.11562E-06  8424   0.106E-04 0.855E-05
CGA:  32    -0.669859464493E+03   -0.44984E-04    0.99275E-07  8424   0.129E-04 0.682E-05
CGA:  33    -0.669859489226E+03   -0.24733E-04    0.30367E-06  8424   0.184E-04 0.286E-05
CGA:  34    -0.669859581262E+03   -0.92037E-04    0.21611E-06  8424   0.146E-04 0.218E-04
CGA:  35    -0.669859631591E+03   -0.50328E-04    0.17022E-06  8424   0.195E-04 0.227E-06
CGA:  36    -0.669859716290E+03   -0.84699E-04    0.18335E-06  8424   0.189E-04 0.193E-04
CGA:  37    -0.669859732904E+03   -0.16614E-04    0.13481E-05  8424   0.235E-04-0.487E-05
CGA:  38    -0.669859810330E+03   -0.77426E-04    0.15397E-06  8424   0.258E-04 0.166E-04
CGA:  39    -0.669859867137E+03   -0.56807E-04    0.51033E-06  8424   0.286E-04-0.116E-04
CGA:  40    -0.669859940132E+03   -0.72995E-04    0.13246E-06  8424   0.303E-04 0.144E-04
CGA:  41    -0.669859934610E+03    0.55224E-05   -0.13482E-04  8424   0.301E-03-0.744E-04
CGA:  42    -0.669860056518E+03   -0.12191E-03    0.21034E-01  8424   0.365E-03-0.316E-03
CGA:  43    -0.669860066771E+03   -0.10253E-04   -0.25025E-04  8424   0.366E-04 0.110E-03
CGA:  44    -0.669860069372E+03   -0.26012E-05   -0.35023E-05  8424   0.714E-05 0.735E-05
  27 F= -.66986007E+03 E0= -.66986007E+03  d E =0.335027E-01  mag=     2.0000
       N       E                     dE             d eps       ncg     rms          ort
SDA:   1    -0.669581507006E+03    0.27856E+00    0.00000E+00  8424   0.913E+00 0.000E+00
CGA:   2    -0.669776779142E+03   -0.19527E+00   -0.19525E+00  8424   0.417E+00 0.728E-03
CGA:   3    -0.669864323693E+03   -0.87545E-01   -0.87539E-01  8424   0.123E+00 0.199E-03
CGA:   4    -0.669883732130E+03   -0.19408E-01   -0.19414E-01  8424   0.275E-01 0.135E-03
CGA:   5    -0.669888443638E+03   -0.47115E-02   -0.47135E-02  8424   0.570E-02 0.102E-03
CGA:   6    -0.669889620149E+03   -0.11765E-02   -0.11765E-02  8424   0.138E-02-0.235E-05
CGA:   7    -0.669889903538E+03   -0.28339E-03   -0.28205E-03  8424   0.360E-03 0.894E-04
CGA:   8    -0.669889973834E+03   -0.70296E-04   -0.70906E-04  8424   0.982E-04 0.106E-03
CGA:   9    -0.669889989246E+03   -0.15412E-04   -0.18315E-04  8424   0.423E-04 0.628E-04
CGA:  10    -0.669889991091E+03   -0.18450E-05   -0.45065E-05  8424   0.276E-04 0.326E-04
  28 F= -.66988999E+03 E0= -.66988999E+03  d E =-.299217E-01  mag=     2.0000
       N       E                     dE             d eps       ncg     rms          ort
SDA:   1    -0.669694453823E+03    0.19554E+00    0.00000E+00  8424   0.610E+00 0.000E+00
CGA:   2    -0.669824539688E+03   -0.13009E+00   -0.13007E+00  8424   0.279E+00 0.427E-03
CGA:   3    -0.669883199197E+03   -0.58660E-01   -0.58646E-01  8424   0.824E-01 0.415E-03
CGA:   4    -0.669896218976E+03   -0.13020E-01   -0.13026E-01  8424   0.184E-01 0.234E-03
CGA:   5    -0.669899364043E+03   -0.31451E-02   -0.31469E-02  8424   0.379E-02 0.182E-03
CGA:   6    -0.669900129016E+03   -0.76497E-03   -0.76232E-03  8424   0.883E-03 0.138E-03
CGA:   7    -0.669900297073E+03   -0.16806E-03   -0.16771E-03  8424   0.221E-03 0.169E-03
CGA:   8    -0.669900324655E+03   -0.27582E-04   -0.34423E-04  8424   0.884E-04 0.135E-03
CGA:   9    -0.669900326858E+03   -0.22038E-05   -0.80858E-05  8424   0.555E-04 0.674E-04
  29 F= -.66990033E+03 E0= -.66990033E+03  d E =-.103358E-01  mag=     2.0000
       N       E                     dE             d eps       ncg     rms          ort
SDA:   1    -0.669884336561E+03    0.15988E-01    0.00000E+00  8424   0.501E-01 0.000E+00
CGA:   2    -0.669894923350E+03   -0.10587E-01   -0.10581E-01  8424   0.227E-01 0.130E-03
CGA:   3    -0.669899705656E+03   -0.47823E-02   -0.47689E-02  8424   0.671E-02 0.344E-03
CGA:   4    -0.669900768396E+03   -0.10627E-02   -0.10658E-02  8424   0.150E-02 0.189E-03
CGA:   5    -0.669901011988E+03   -0.24359E-03   -0.24558E-03  8424   0.288E-03 0.154E-03
[...]
CGA:   9    -0.669896647228E+03   -0.13336E-05   -0.80662E-05  8424   0.557E-04 0.668E-04
  50 F= -.66989665E+03 E0= -.66989665E+03  d E =0.938253E-03  mag=     2.0000
       N       E                     dE             d eps       ncg     rms          ort
SDA:   1    -0.669069527023E+03    0.82712E+00    0.00000E+00  8424   0.239E+01 0.000E+00
CGA:   2    -0.669583450971E+03   -0.51392E+00   -0.51370E+00  8424   0.105E+01 0.486E-02
CGA:   3    -0.669801003351E+03   -0.21755E+00   -0.21759E+00  8424   0.314E+00-0.147E-02
CGA:   4    -0.669852583852E+03   -0.51581E-01   -0.51590E-01  8424   0.753E-01 0.477E-03
CGA:   5    -0.669865185182E+03   -0.12601E-01   -0.12616E-01  8424   0.150E-01 0.821E-03
CGA:   6    -0.669868206199E+03   -0.30210E-02   -0.30157E-02  8424   0.342E-02 0.348E-03
CGA:   7    -0.669868948766E+03   -0.74257E-03   -0.73644E-03  8424   0.973E-03 0.233E-03
CGA:   8    -0.669869178079E+03   -0.22931E-03   -0.22331E-03  8424   0.283E-03 0.205E-03
CGA:   9    -0.669869228590E+03   -0.50511E-04   -0.54881E-04  8424   0.114E-03 0.162E-03
CGA:  10    -0.669869232638E+03   -0.40477E-05   -0.11594E-04  8424   0.751E-04 0.895E-04
  51 F= -.66986923E+03 E0= -.66986923E+03  d E =0.274146E-01  mag=     2.0000
       N       E                     dE             d eps       ncg     rms          ort
SDA:   1    -0.647689519434E+03    0.22180E+02    0.00000E+00  8424   0.842E+02 0.000E+00
CGA:   2    -0.661338737934E+03   -0.13649E+02   -0.13703E+02  8424   0.263E+02 0.172E+01
CGA:   3    -0.667614502383E+03   -0.62758E+01   -0.62900E+01  8424   0.877E+01-0.218E+00
CGA:   4    -0.669093183686E+03   -0.14787E+01   -0.14790E+01  8424   0.225E+01 0.134E-01
CGA:   5    -0.669459751642E+03   -0.36657E+00   -0.36674E+00  8424   0.478E+00 0.525E-02
CGA:   6    -0.669561242317E+03   -0.10149E+00   -0.10154E+00  8424   0.119E+00-0.136E-02
CGA:   7    -0.669587644269E+03   -0.26402E-01   -0.26392E-01  8424   0.356E-01 0.218E-03
CGA:   8    -0.669596281770E+03   -0.86375E-02   -0.86031E-02  8424   0.103E-01 0.566E-03
CGA:   9    -0.669599202151E+03   -0.29204E-02   -0.29816E-02  8424   0.388E-02-0.619E-03
CGA:  10    -0.669600299942E+03   -0.10978E-02   -0.11175E-02  8424   0.175E-02-0.170E-03
CGA:  11    -0.669600840067E+03   -0.54013E-03   -0.71985E-03  8424   0.148E-02-0.769E-03
CGA:  12    -0.669601042056E+03   -0.20199E-03   -0.21540E-03  8424   0.725E-03-0.256E-03
CGA:  13    -0.669600746509E+03    0.29555E-03   -0.51455E-03  8424   0.346E-02-0.125E-02
CGA:  14    -0.669601591768E+03   -0.84526E-03   -0.84588E-03  8424   0.459E-03-0.244E-03
CGA:  15    -0.669601733913E+03   -0.14214E-03   -0.23483E-03  8424   0.661E-03-0.301E-03
CGA:  16    -0.669601889732E+03   -0.15582E-03   -0.15055E-03  8424   0.232E-03-0.177E-03
CGA:  17    -0.669601702937E+03    0.18680E-03   -0.14477E-03  8424   0.289E-02-0.558E-03
CGA:  18    -0.669602067144E+03   -0.36421E-03   -0.36267E-03  8424   0.172E-03-0.529E-05
CGA:  19    -0.669602182196E+03   -0.11505E-03    0.11669E-03  8424   0.323E-04-0.326E-05
CGA:  20    -0.669602206916E+03   -0.24720E-04    0.10874E-04  8424   0.248E-04 0.188E-05
CGA:  21    -0.669602295304E+03   -0.88388E-04    0.72022E-06  8424   0.154E-04 0.155E-04
CGA:  22    -0.669602346493E+03   -0.51189E-04    0.42878E-06  8424   0.116E-04 0.972E-05
CGA:  23    -0.669602374806E+03   -0.28313E-04    0.47692E-06  8424   0.118E-04 0.809E-05
CGA:  24    -0.669602429084E+03   -0.54277E-04    0.22620E-06  8424   0.128E-04 0.681E-05
CGA:  25    -0.669602450432E+03   -0.21349E-04    0.89437E-06  8424   0.151E-04 0.484E-05
CGA:  26    -0.669602538052E+03   -0.87619E-04    0.43665E-06  8424   0.123E-04 0.200E-04
CGA:  27    -0.669602595098E+03   -0.57046E-04    0.23314E-06  8424   0.138E-04 0.451E-05
CGA:  28    -0.669602675588E+03   -0.80490E-04    0.39284E-06  8424   0.119E-04 0.183E-04
CGA:  29    -0.669602694799E+03   -0.19211E-04    0.86388E-06  8424   0.129E-04 0.412E-05
CGA:  30    -0.669602774679E+03   -0.79879E-04    0.32986E-06  8424   0.116E-04 0.169E-04
CGA:  31    -0.669602829607E+03   -0.54929E-04    0.21209E-06  8424   0.119E-04 0.381E-05
CGA:  32    -0.669602903682E+03   -0.74075E-04    0.29814E-06  8424   0.111E-04 0.155E-04
CGA:  33    -0.669602922183E+03   -0.18501E-04    0.77715E-06  8424   0.111E-04 0.359E-05
CGA:  34    -0.669602994332E+03   -0.72148E-04    0.25943E-06  8424   0.106E-04 0.144E-04
CGA:  35    -0.669603046543E+03   -0.52211E-04    0.18875E-06  8424   0.102E-04 0.353E-05
CGA:  36    -0.669603115261E+03   -0.68718E-04    0.23213E-06  8424   0.100E-04 0.133E-04
CGA:  37    -0.669603133704E+03   -0.18443E-04    0.60156E-06  8424   0.931E-05 0.358E-05
CGA:  38    -0.669603199472E+03   -0.65768E-04    0.20962E-06  8424   0.935E-05 0.124E-04
CGA:  39    -0.669603248366E+03   -0.48894E-04    0.15438E-06  8424   0.846E-05 0.370E-05
CGA:  40    -0.669603312773E+03   -0.64407E-04    0.18578E-06  8424   0.868E-05 0.116E-04
CGA:  41    -0.669603331639E+03   -0.18866E-04    0.41359E-06  8424   0.773E-05 0.378E-05
CGA:  42    -0.669603392590E+03   -0.60951E-04    0.17360E-06  8424   0.806E-05 0.109E-04
CGA:  43    -0.669603438082E+03   -0.45492E-04    0.12224E-06  8424   0.710E-05 0.384E-05
CGA:  44    -0.669603499217E+03   -0.61135E-04    0.15297E-06  8424   0.751E-05 0.102E-04
CGA:  45    -0.669603518320E+03   -0.19104E-04    0.29111E-06  8424   0.658E-05 0.382E-05
CGA:  46    -0.669603559225E+03   -0.40904E-04    0.89583E-07  8424   0.603E-05 0.433E-05
CGA:  47    -0.669603582580E+03   -0.23355E-04    0.14023E-06  8424   0.568E-05 0.459E-05
CGA:  48    -0.669603619350E+03   -0.36770E-04    0.73955E-07  8424   0.544E-05 0.471E-05
CGA:  49    -0.669603644808E+03   -0.25457E-04    0.10158E-06  8424   0.527E-05 0.474E-05
CGA:  50    -0.669603679381E+03   -0.34573E-04    0.67540E-07  8424   0.514E-05 0.472E-05
CGA:  51    -0.669603705445E+03   -0.26064E-04    0.87666E-07  8424   0.504E-05 0.467E-05
CGA:  52    -0.669603739041E+03   -0.33596E-04    0.63521E-07  8424   0.496E-05 0.459E-05
CGA:  53    -0.669603764740E+03   -0.25699E-04    0.82659E-07  8424   0.490E-05 0.450E-05
CGA:  54    -0.669603798148E+03   -0.33408E-04    0.60370E-07  8424   0.487E-05 0.439E-05
CGA:  55    -0.669603822775E+03   -0.24627E-04    0.83310E-07  8424   0.486E-05 0.426E-05
CGA:  56    -0.669603856633E+03   -0.33858E-04    0.58498E-07  8424   0.490E-05 0.409E-05
CGA:  57    -0.669603879540E+03   -0.22906E-04    0.91702E-07  8424   0.500E-05 0.387E-05
CGA:  58    -0.669603914523E+03   -0.34984E-04    0.59907E-07  8424   0.521E-05 0.358E-05
CGA:  59    -0.669603934925E+03   -0.20402E-04    0.11935E-06  8424   0.558E-05 0.315E-05
CGA:  60    -0.669603971922E+03   -0.36996E-04    0.70811E-07  8424   0.623E-05 0.251E-05
CGA:  61    -0.669604030348E+03   -0.58427E-04    0.11811E-06  8424   0.525E-05 0.882E-05
CGA:  62    -0.669604048117E+03   -0.17769E-04    0.14309E-06  8424   0.585E-05 0.243E-05
CGA:  63    -0.669604106434E+03   -0.58316E-04    0.10521E-06  8424   0.493E-05 0.834E-05
CGA:  64    -0.669604142265E+03   -0.35831E-04    0.56534E-07  8424   0.543E-05 0.238E-05
CGA:  65    -0.669604196959E+03   -0.54694E-04    0.99323E-07  8424   0.461E-05 0.785E-05
CGA:  66    -0.669604213642E+03   -0.16684E-04    0.11618E-06  8424   0.501E-05 0.234E-05
CGA:  67    -0.669604250054E+03   -0.36412E-04    0.57658E-07  8424   0.563E-05 0.172E-05
CGA:  68    -0.669604303635E+03   -0.53581E-04    0.89146E-07  8424   0.489E-05 0.739E-05
CGA:  69    -0.669604317267E+03   -0.13632E-04    0.16912E-06  8424   0.545E-05 0.149E-05
CGA:  70    -0.669604370522E+03   -0.53254E-04    0.79045E-07  8424   0.482E-05 0.696E-05
CGA:  71    -0.669604406509E+03   -0.35988E-04    0.53800E-07  8424   0.529E-05 0.125E-05
CGA:  72    -0.669604456914E+03   -0.50405E-04    0.73448E-07  8424   0.479E-05 0.653E-05
CGA:  73    -0.669604468284E+03   -0.11371E-04    0.20360E-06  8424   0.518E-05 0.984E-06
CGA:  74    -0.669604517739E+03   -0.49455E-04    0.65482E-07  8424   0.480E-05 0.613E-05
CGA:  75    -0.669604553557E+03   -0.35818E-04    0.53639E-07  8424   0.506E-05 0.731E-06
CGA:  76    -0.669604600588E+03   -0.47030E-04    0.59822E-07  8424   0.478E-05 0.572E-05
CGA:  77    -0.669604609865E+03   -0.92776E-05    0.26621E-06  8424   0.490E-05 0.526E-06
  52 F= -.66960461E+03 E0= -.66960461E+03  d E =0.264623E+00  mag=     2.0000
       N       E                     dE             d eps       ncg     rms          ort
SDA:   1    -0.663420821130E+03    0.61838E+01    0.00000E+00  8424   0.213E+02 0.000E+00
CGA:   2    -0.667441574681E+03   -0.40208E+01   -0.40611E+01  8424   0.854E+01 0.477E-01
CGA:   3    -0.669314893656E+03   -0.18733E+01   -0.18698E+01  8424   0.249E+01-0.162E-01
CGA:   4    -0.669731912352E+03   -0.41702E+00   -0.41773E+00  8424   0.616E+00 0.196E-03
CGA:   5    -0.669835207796E+03   -0.10330E+00   -0.10348E+00  8424   0.134E+00 0.465E-03
CGA:   6    -0.669862179675E+03   -0.26972E-01   -0.26947E-01  8424   0.306E-01-0.341E-03
CGA:   7    -0.669868970049E+03   -0.67904E-02   -0.68037E-02  8424   0.871E-02 0.378E-03
CGA:   8    -0.669871112690E+03   -0.21426E-02   -0.21453E-02  8424   0.261E-02 0.209E-03
CGA:   9    -0.669871836841E+03   -0.72415E-03   -0.72372E-03  8424   0.961E-03 0.269E-04
CGA:  10    -0.669872089871E+03   -0.25303E-03   -0.25239E-03  8424   0.359E-03 0.161E-03
CGA:  11    -0.669872201733E+03   -0.11186E-03   -0.11113E-03  8424   0.126E-03 0.830E-04
CGA:  12    -0.669872223194E+03   -0.21461E-04   -0.27744E-04  8424   0.558E-04 0.805E-04
CGA:  13    -0.669872226532E+03   -0.33378E-05   -0.79866E-05  8424   0.353E-04 0.423E-04
  53 F= -.66987223E+03 E0= -.66987223E+03  d E =-.267617E+00  mag=     2.0000
       N       E                     dE             d eps       ncg     rms          ort
SDA:   1    -0.668787552754E+03    0.10847E+01    0.00000E+00  8424   0.337E+01 0.000E+00
CGA:   2    -0.669493982706E+03   -0.70643E+00   -0.70681E+00  8424   0.147E+01 0.553E-02
CGA:   3    -0.669802707705E+03   -0.30872E+00   -0.30865E+00  8424   0.430E+00-0.155E-02
CGA:   4    -0.669872860968E+03   -0.70153E-01   -0.70176E-01  8424   0.103E+00 0.192E-03
CGA:   5    -0.669890416634E+03   -0.17556E-01   -0.17587E-01  8424   0.214E-01 0.451E-03
CGA:   6    -0.669894747684E+03   -0.43310E-02   -0.43351E-02  8424   0.488E-02 0.139E-03
CGA:   7    -0.669895790102E+03   -0.10424E-02   -0.10461E-02  8424   0.137E-02 0.216E-03
CGA:   8    -0.669896122518E+03   -0.33242E-03   -0.33186E-03  8424   0.398E-03 0.163E-03
CGA:   9    -0.669896211309E+03   -0.88792E-04   -0.91941E-04  8424   0.139E-03 0.139E-03
CGA:  10    -0.669896225893E+03   -0.14584E-04   -0.25495E-04  8424   0.793E-04 0.118E-03
CGA:  11    -0.669896226946E+03   -0.10531E-05   -0.85403E-05  8424   0.556E-04 0.648E-04
  54 F= -.66989623E+03 E0= -.66989623E+03  d E =-.240004E-01  mag=     2.0000
       N       E                     dE             d eps       ncg     rms          ort
SDA:   1    -0.669475163566E+03    0.42106E+00    0.00000E+00  8424   0.127E+01 0.000E+00
CGA:   2    -0.669742693387E+03   -0.26753E+00   -0.26753E+00  8424   0.541E+00 0.157E-02
CGA:   3    -0.669854918632E+03   -0.11223E+00   -0.11222E+00  8424   0.163E+00-0.478E-03
CGA:   4    -0.669881829258E+03   -0.26911E-01   -0.26923E-01  8424   0.401E-01 0.274E-03
CGA:   5    -0.669888563832E+03   -0.67346E-02   -0.67555E-02  8424   0.814E-02 0.515E-03
CGA:   6    -0.669890169206E+03   -0.16054E-02   -0.16091E-02  8424   0.182E-02 0.327E-03
CGA:   7    -0.669890546762E+03   -0.37756E-03   -0.37898E-03  8424   0.512E-03 0.238E-03
CGA:   8    -0.669890648530E+03   -0.10177E-03   -0.10624E-03  8424   0.174E-03 0.202E-03
CGA:   9    -0.669890665771E+03   -0.17240E-04   -0.29400E-04  8424   0.922E-04 0.146E-03
CGA:  10    -0.669890664719E+03    0.10515E-05   -0.79156E-05  8424   0.691E-04 0.783E-04
  55 F= -.66989066E+03 E0= -.66989066E+03  d E =0.556223E-02  mag=     2.0000
       N       E                     dE             d eps       ncg     rms          ort
SDA:   1    -0.669207079263E+03    0.68359E+00    0.00000E+00  8424   0.179E+01 0.000E+00
CGA:   2    -0.669674420534E+03   -0.46734E+00   -0.46739E+00  8424   0.833E+00-0.983E-03
CGA:   3    -0.669827032318E+03   -0.15261E+00   -0.15261E+00  8424   0.210E+00-0.214E-03
CGA:   4    -0.669862578937E+03   -0.35547E-01   -0.35558E-01  8424   0.540E-01 0.511E-03
CGA:   5    -0.669871632367E+03   -0.90534E-02   -0.90714E-02  8424   0.106E-01 0.781E-03
CGA:   6    -0.669873727479E+03   -0.20951E-02   -0.20926E-02  8424   0.247E-02 0.507E-03
CGA:   7    -0.669874303506E+03   -0.57603E-03   -0.56987E-03  8424   0.815E-03 0.203E-03
CGA:   8    -0.669874494955E+03   -0.19145E-03   -0.18683E-03  8424   0.272E-03 0.220E-03
CGA:   9    -0.669874536516E+03   -0.41561E-04   -0.50383E-04  8424   0.134E-03 0.191E-03
CGA:  10    -0.669874542028E+03   -0.55124E-05   -0.14293E-04  8424   0.906E-04 0.106E-03
  56 F= -.66987454E+03 E0= -.66987454E+03  d E =0.161227E-01  mag=     2.0000
       N       E                     dE             d eps       ncg     rms          ort
SDA:   1    -0.650606992895E+03    0.19268E+02    0.00000E+00  8424   0.628E+02 0.000E+00
CGA:   2    -0.662578192603E+03   -0.11971E+02   -0.11956E+02  8424   0.244E+02 0.869E+00
CGA:   3    -0.667970386043E+03   -0.53922E+01   -0.53989E+01  8424   0.755E+01-0.136E+00
CGA:   4    -0.669215917321E+03   -0.12455E+01   -0.12459E+01  8424   0.187E+01 0.714E-02
CGA:   5    -0.669528255102E+03   -0.31234E+00   -0.31244E+00  8424   0.398E+00 0.390E-02
CGA:   6    -0.669610567517E+03   -0.82312E-01   -0.82351E-01  8424   0.945E-01-0.151E-02
CGA:   7    -0.669631142589E+03   -0.20575E-01   -0.20549E-01  8424   0.273E-01 0.710E-03
CGA:   8    -0.669637875590E+03   -0.67330E-02   -0.66975E-02  8424   0.808E-02 0.597E-03
CGA:   9    -0.669640209780E+03   -0.23342E-02   -0.24069E-02  8424   0.330E-02-0.700E-03
CGA:  10    -0.669641113844E+03   -0.90406E-03   -0.91597E-03  8424   0.149E-02-0.108E-03
CGA:  11    -0.669641506601E+03   -0.39276E-03   -0.74558E-03  8424   0.211E-02-0.111E-02
CGA:  12    -0.669641826664E+03   -0.32006E-03   -0.33307E-03  8424   0.360E-03 0.230E-03
CGA:  13    -0.669640724478E+03    0.11022E-02   -0.59970E-03  8424   0.723E-02-0.144E-02
CGA:  14    -0.669642033798E+03   -0.13093E-02   -0.13595E-02  8424   0.131E-02 0.253E-03
CGA:  15    -0.669642424046E+03   -0.39025E-03   -0.34937E-03  8424   0.349E-03-0.347E-03
CGA:  16    -0.669642497167E+03   -0.73121E-04   -0.70048E-04  8424   0.117E-03-0.322E-04
CGA:  17    -0.669642622527E+03   -0.12536E-03    0.31251E-04  8424   0.729E-04-0.618E-05
CGA:  18    -0.669642732079E+03   -0.10955E-03    0.10718E-04  8424   0.615E-04 0.183E-04
CGA:  19    -0.669642916441E+03   -0.18436E-03    0.61319E-05  8424   0.416E-04 0.341E-04
CGA:  20    -0.669642973625E+03   -0.57183E-04    0.85444E-05  8424   0.620E-04-0.360E-05
CGA:  21    -0.669643132866E+03   -0.15924E-03    0.36180E-05  8424   0.545E-04 0.580E-05
CGA:  22    -0.669643329143E+03   -0.19628E-03    0.30926E-05  8424   0.526E-04 0.413E-04
CGA:  23    -0.669643380105E+03   -0.50962E-04    0.29251E-04  8424   0.107E-03-0.243E-04
CGA:  24    -0.669643542323E+03   -0.16222E-03    0.37090E-05  8424   0.119E-03-0.301E-04
CGA:  25    -0.669643751072E+03   -0.20875E-03    0.66137E-05  8424   0.423E-03-0.109E-03
CGA:  26    -0.669643816698E+03   -0.65626E-04   -0.60739E-04  8424   0.862E-04-0.219E-04
CGA:  27    -0.669643917118E+03   -0.10042E-03    0.19587E-04  8424   0.183E-04 0.901E-05
CGA:  28    -0.669643965667E+03   -0.48549E-04    0.14929E-05  8424   0.262E-04 0.490E-05
CGA:  29    -0.669644122269E+03   -0.15660E-03    0.10355E-05  8424   0.174E-04 0.221E-04
CGA:  30    -0.669644179191E+03   -0.56922E-04    0.84943E-06  8424   0.124E-04 0.994E-05
CGA:  31    -0.669644221363E+03   -0.42173E-04    0.57926E-06  8424   0.141E-04 0.676E-05
CGA:  32    -0.669644284795E+03   -0.63432E-04    0.46119E-06  8424   0.207E-04 0.239E-05
CGA:  33    -0.669644401838E+03   -0.11704E-03    0.73533E-06  8424   0.174E-04 0.213E-04
CGA:  34    -0.669644439423E+03   -0.37585E-04    0.14870E-05  8424   0.192E-04-0.927E-06
CGA:  35    -0.669644545109E+03   -0.10569E-03    0.44460E-06  8424   0.191E-04 0.167E-04
CGA:  36    -0.669644596588E+03   -0.51479E-04    0.12072E-05  8424   0.160E-04-0.126E-05
CGA:  37    -0.669644680695E+03   -0.84108E-04    0.38073E-06  8424   0.152E-04 0.139E-04
CGA:  38    -0.669644725478E+03   -0.44783E-04    0.85155E-06  8424   0.109E-04 0.272E-05
CGA:  39    -0.669644803821E+03   -0.78343E-04    0.29854E-06  8424   0.112E-04 0.120E-04
CGA:  40    -0.669644848676E+03   -0.44854E-04    0.42737E-06  8424   0.826E-05 0.518E-05
CGA:  41    -0.669644925297E+03   -0.76621E-04    0.26692E-06  8424   0.932E-05 0.113E-04
CGA:  42    -0.669644968759E+03   -0.43463E-04    0.29449E-06  8424   0.722E-05 0.569E-05
CGA:  43    -0.669645011953E+03   -0.43193E-04    0.17120E-06  8424   0.669E-05 0.629E-05
CGA:  44    -0.669645053804E+03   -0.41851E-04    0.15082E-06  8424   0.647E-05 0.635E-05
CGA:  45    -0.669645096829E+03   -0.43025E-04    0.13608E-06  8424   0.634E-05 0.626E-05
CGA:  46    -0.669645137158E+03   -0.40329E-04    0.14021E-06  8424   0.629E-05 0.610E-05
CGA:  47    -0.669645180901E+03   -0.43742E-04    0.12591E-06  8424   0.643E-05 0.584E-05
CGA:  48    -0.669645217948E+03   -0.37047E-04    0.15910E-06  8424   0.720E-05 0.524E-05
CGA:  49    -0.669645265140E+03   -0.47192E-04    0.15392E-06  8424   0.103E-04 0.345E-05
CGA:  50    -0.669645361530E+03   -0.96391E-04    0.33725E-06  8424   0.593E-05 0.140E-04
CGA:  51    -0.669645396307E+03   -0.34777E-04    0.14342E-06  8424   0.689E-05 0.465E-05
CGA:  52    -0.669645442752E+03   -0.46445E-04    0.14254E-06  8424   0.114E-04 0.232E-05
CGA:  53    -0.669645543835E+03   -0.10108E-03    0.32061E-06  8424   0.621E-05 0.140E-04
CGA:  54    -0.669645573271E+03   -0.29436E-04    0.19221E-06  8424   0.921E-05 0.271E-05
CGA:  55    -0.669645670134E+03   -0.96863E-04    0.24960E-06  8424   0.566E-05 0.116E-04
CGA:  56    -0.669645709613E+03   -0.39479E-04    0.11294E-06  8424   0.551E-05 0.363E-05
CGA:  57    -0.669645740062E+03   -0.30449E-04    0.14302E-06  8424   0.589E-05 0.329E-05
CGA:  58    -0.669645784438E+03   -0.44376E-04    0.10799E-06  8424   0.709E-05 0.241E-05
CGA:  59    -0.669645858113E+03   -0.73675E-04    0.18718E-06  8424   0.584E-05 0.920E-05
CGA:  60    -0.669645888771E+03   -0.30657E-04    0.16057E-06  8424   0.564E-05 0.240E-05
CGA:  61    -0.669645957159E+03   -0.68388E-04    0.12641E-06  8424   0.553E-05 0.770E-05
CGA:  62    -0.669645992065E+03   -0.34907E-04    0.12322E-06  8424   0.479E-05 0.252E-05
CGA:  63    -0.669646052972E+03   -0.60906E-04    0.10875E-06  8424   0.507E-05 0.675E-05
CGA:  64    -0.669646084773E+03   -0.31802E-04    0.11404E-06  8424   0.417E-05 0.266E-05
CGA:  65    -0.669646117196E+03   -0.32422E-04    0.73640E-07  8424   0.373E-05 0.312E-05
CGA:  66    -0.669646148059E+03   -0.30863E-04    0.61528E-07  8424   0.352E-05 0.327E-05
CGA:  67    -0.669646179963E+03   -0.31904E-04    0.52490E-07  8424   0.340E-05 0.329E-05
CGA:  68    -0.669646210089E+03   -0.30127E-04    0.52028E-07  8424   0.332E-05 0.325E-05
CGA:  69    -0.669646241734E+03   -0.31645E-04    0.46946E-07  8424   0.326E-05 0.319E-05
CGA:  70    -0.669646270805E+03   -0.29071E-04    0.49646E-07  8424   0.324E-05 0.311E-05
CGA:  71    -0.669646302750E+03   -0.31945E-04    0.44157E-07  8424   0.330E-05 0.297E-05
CGA:  72    -0.669646329706E+03   -0.26956E-04    0.55286E-07  8424   0.363E-05 0.269E-05
CGA:  73    -0.669646363222E+03   -0.33515E-04    0.53258E-07  8424   0.486E-05 0.192E-05
CGA:  74    -0.669646385537E+03   -0.22316E-04    0.15615E-06  8424   0.926E-05-0.514E-06
CGA:  75    -0.669646467342E+03   -0.81805E-04    0.11287E-06  8424   0.104E-04 0.787E-05
CGA:  76    -0.669646509784E+03   -0.42442E-04    0.38814E-06  8424   0.286E-04-0.113E-04
CGA:  77    -0.669646513293E+03   -0.35088E-05   -0.37339E-05  8424   0.284E-05 0.100E-05
