       N       E                     dE             d eps       ncg     rms          rms(c)
DAV:   1     0.826814666253E+04    0.82681E+04   -0.24012E+05 34284   0.226E+03
DAV:   2     0.920760912764E+03   -0.73474E+04   -0.68959E+04 33696   0.656E+02
DAV:   3    -0.673847302483E+03   -0.15946E+04   -0.14013E+04 35844   0.282E+02
DAV:   4    -0.830218077647E+03   -0.15637E+03   -0.15363E+03 36828   0.859E+01
DAV:   5    -0.832737473869E+03   -0.25194E+01   -0.25082E+01 37116   0.122E+01    0.112E+02
DAV:   6    -0.728278010095E+03    0.10446E+03   -0.90075E+02 44076   0.126E+02    0.116E+02
DAV:   7    -0.647998441260E+03    0.80280E+02   -0.29021E+02 36336   0.113E+02    0.409E+01
DAV:   8    -0.664572676267E+03   -0.16574E+02   -0.59092E+01 42012   0.347E+01    0.260E+01
DAV:   9    -0.668768818185E+03   -0.41961E+01   -0.35720E+01 36924   0.355E+01    0.198E+01
DAV:  10    -0.668690381911E+03    0.78436E-01   -0.10675E+01 36732   0.145E+01    0.107E+01
DAV:  11    -0.669149132013E+03   -0.45875E+00   -0.24001E+00 37104   0.726E+00    0.609E+00
DAV:  12    -0.669272172659E+03   -0.12304E+00   -0.70032E-01 37080   0.722E+00    0.326E+00
DAV:  13    -0.669334465219E+03   -0.62293E-01   -0.40207E-01 37500   0.452E+00    0.162E+00
DAV:  14    -0.669400207832E+03   -0.65743E-01   -0.14255E-01 37032   0.201E+00    0.113E+00
DAV:  15    -0.669428867322E+03   -0.28659E-01   -0.44169E-02 36864   0.110E+00    0.811E-01
DAV:  16    -0.669454839155E+03   -0.25972E-01   -0.17249E-02 37224   0.912E-01    0.523E-01
DAV:  17    -0.669476208479E+03   -0.21369E-01   -0.11888E-02 44028   0.612E-01    0.337E-01
DAV:  18    -0.669484180131E+03   -0.79717E-02   -0.60440E-03 40884   0.365E-01    0.257E-01
DAV:  19    -0.669489362604E+03   -0.51825E-02   -0.19866E-03 43980   0.332E-01    0.199E-01
DAV:  20    -0.669495067567E+03   -0.57050E-02   -0.15589E-03 45948   0.357E-01    0.156E-01
DAV:  21    -0.669498587806E+03   -0.35202E-02   -0.12179E-03 46308   0.217E-01    0.147E-01
DAV:  22    -0.669501389937E+03   -0.28021E-02   -0.39975E-04 46368   0.182E-01    0.134E-01
DAV:  23    -0.669507577897E+03   -0.61880E-02   -0.69620E-04 48276   0.412E-01    0.128E-01
DAV:  24    -0.669513152678E+03   -0.55748E-02   -0.13701E-03 46008   0.379E-01    0.125E-01
DAV:  25    -0.669517231500E+03   -0.40788E-02   -0.12088E-03 47772   0.262E-01    0.122E-01
DAV:  26    -0.669523533937E+03   -0.63024E-02   -0.57682E-04 46176   0.393E-01    0.117E-01
DAV:  27    -0.669536834040E+03   -0.13300E-01   -0.27033E-03 44484   0.805E-01    0.116E-01
DAV:  28    -0.669542518204E+03   -0.56842E-02   -0.40916E-03 47664   0.323E-01    0.120E-01
DAV:  29    -0.669542315895E+03    0.20231E-03   -0.14058E-03 34992   0.108E-01    0.120E-01
DAV:  30    -0.669542224076E+03    0.91820E-04   -0.93668E-06 23112   0.109E-02    0.119E-01
DAV:  31    -0.669543482101E+03   -0.12580E-02   -0.21560E-05 24876   0.710E-02    0.123E-01
DAV:  32    -0.669546940598E+03   -0.34585E-02   -0.16385E-04 38724   0.192E-01    0.124E-01
DAV:  33    -0.669541913119E+03    0.50275E-02   -0.43452E-04 37176   0.326E-01    0.157E-01
DAV:  34    -0.669570104146E+03   -0.28191E-01   -0.87691E-03 39912   0.160E+00    0.205E-01
DAV:  35    -0.669572218218E+03   -0.21141E-02   -0.44919E-03 39576   0.207E-01    0.198E-01
DAV:  36    -0.669576523463E+03   -0.43052E-02   -0.18848E-04 38760   0.205E-01    0.211E-01
DAV:  37    -0.669586445359E+03   -0.99219E-02   -0.84614E-04 45240   0.484E-01    0.241E-01
DAV:  38    -0.669590956847E+03   -0.45115E-02   -0.11713E-03 47352   0.269E-01    0.238E-01
DAV:  39    -0.669603250586E+03   -0.12294E-01   -0.10146E-03 44964   0.543E-01    0.245E-01
DAV:  40    -0.669601149292E+03    0.21013E-02   -0.15249E-03 36984   0.226E-01    0.187E-01
DAV:  41    -0.669602466267E+03   -0.13170E-02   -0.26407E-04 44436   0.143E-01    0.105E-01
DAV:  42    -0.669604175363E+03   -0.17091E-02   -0.28434E-04 48288   0.298E-01    0.614E-02
DAV:  43    -0.669605336946E+03   -0.11616E-02   -0.60967E-04 47400   0.160E-01    0.794E-02
DAV:  44    -0.669606582319E+03   -0.12454E-02   -0.31931E-04 32160   0.124E-01    0.742E-02
DAV:  45    -0.669610507226E+03   -0.39249E-02   -0.12611E-04 33864   0.199E-01    0.782E-02
DAV:  46    -0.669610441312E+03    0.65914E-04   -0.12318E-04 32076   0.344E-02    0.804E-02
DAV:  47    -0.669608991401E+03    0.14499E-02   -0.26406E-05 25452   0.793E-02    0.851E-02
DAV:  48    -0.669614086734E+03   -0.50953E-02   -0.46470E-04 42972   0.386E-01    0.109E-01
DAV:  49    -0.669612266533E+03    0.18202E-02   -0.47862E-04 47304   0.236E-01    0.142E-01
DAV:  50    -0.669616036027E+03   -0.37695E-02   -0.39765E-04 44508   0.251E-01    0.161E-01
DAV:  51    -0.669617932912E+03   -0.18969E-02   -0.41268E-04 44928   0.931E-02    0.174E-01
DAV:  52    -0.669619331094E+03   -0.13982E-02   -0.10411E-04 32376   0.117E-01    0.170E-01
DAV:  53    -0.669620466465E+03   -0.11354E-02   -0.47412E-05 30876   0.773E-02    0.172E-01
DAV:  54    -0.669619878471E+03    0.58799E-03   -0.37290E-05 28320   0.416E-02    0.175E-01
DAV:  55    -0.669618306968E+03    0.15715E-02   -0.12331E-05 22332   0.673E-02    0.176E-01
DAV:  56    -0.669619495106E+03   -0.11881E-02   -0.11944E-05 21972   0.542E-02    0.179E-01
DAV:  57    -0.669619047221E+03    0.44788E-03   -0.33895E-06 17952   0.205E-02    0.177E-01
DAV:  58    -0.669618856715E+03    0.19051E-03   -0.20252E-06 17856   0.199E-02    0.176E-01
DAV:  59    -0.669620194765E+03   -0.13381E-02   -0.13192E-05 23184   0.662E-02    0.179E-01
DAV:  60    -0.669620648620E+03   -0.45385E-03   -0.11938E-05 20640   0.536E-02    0.178E-01
DAV:  61    -0.669621246117E+03   -0.59750E-03   -0.13359E-05 20352   0.310E-02    0.183E-01
DAV:  62    -0.669622249660E+03   -0.10035E-02   -0.57890E-05 28188   0.138E-01    0.184E-01
DAV:  63    -0.669622066990E+03    0.18267E-03   -0.30389E-05 26952   0.214E-02    0.185E-01
DAV:  64    -0.669625397611E+03   -0.33306E-02   -0.15260E-04 35052   0.203E-01    0.186E-01
DAV:  65    -0.669624953683E+03    0.44393E-03   -0.80618E-05 37812   0.590E-02    0.190E-01
DAV:  66    -0.669627538087E+03   -0.25844E-02   -0.10079E-04 31248   0.179E-01    0.199E-01
DAV:  67    -0.669627968315E+03   -0.43023E-03   -0.83341E-05 39876   0.447E-02    0.202E-01
DAV:  68    -0.669629127420E+03   -0.11591E-02   -0.29312E-05 26580   0.831E-02    0.211E-01
DAV:  69    -0.669629086405E+03    0.41015E-04   -0.24988E-05 25572   0.163E-02    0.214E-01
DAV:  70    -0.669629513082E+03   -0.42668E-03   -0.45572E-06 19440   0.368E-02    0.217E-01
DAV:  71    -0.669628746176E+03    0.76691E-03   -0.15445E-05 23496   0.655E-02    0.211E-01
DAV:  72    -0.669630027224E+03   -0.12810E-02   -0.44494E-05 28824   0.113E-01    0.211E-01
DAV:  73    -0.669631785572E+03   -0.17583E-02   -0.15168E-04 41532   0.178E-01    0.209E-01
DAV:  74    -0.669632510790E+03   -0.72522E-03   -0.14679E-04 36540   0.460E-02    0.210E-01
DAV:  75    -0.669632439039E+03    0.71751E-04   -0.22478E-05 25500   0.149E-02    0.211E-01
DAV:  76    -0.669631431744E+03    0.10073E-02   -0.89147E-06 21276   0.514E-02    0.200E-01
DAV:  77    -0.669631456325E+03   -0.24581E-04   -0.39692E-05 27060   0.111E-01    0.198E-01
DAV:  78    -0.669632373969E+03   -0.91764E-03   -0.42704E-05 30876   0.523E-02    0.195E-01
DAV:  79    -0.669633017033E+03   -0.64306E-03   -0.21778E-05 24396   0.708E-02    0.198E-01
DAV:  80    -0.669633683194E+03   -0.66616E-03   -0.53192E-05 28068   0.144E-01    0.190E-01
DAV:  81    -0.669631222530E+03    0.24607E-02   -0.47281E-05 27816   0.110E-01    0.196E-01
DAV:  82    -0.669631239169E+03   -0.16640E-04   -0.17447E-05 21804   0.182E-02    0.193E-01
DAV:  83    -0.669631262810E+03   -0.23641E-04   -0.42188E-06 17424   0.683E-03    0.193E-01
DAV:  84    -0.669631980170E+03   -0.71736E-03   -0.52726E-06 19572   0.479E-02    0.195E-01
DAV:  85    -0.669632048970E+03   -0.68800E-04   -0.52259E-06 19272   0.307E-02    0.194E-01
DAV:  86    -0.669629235274E+03    0.28137E-02   -0.63212E-05 28164   0.156E-01    0.192E-01
DAV:  87    -0.669628845325E+03    0.38995E-03   -0.50766E-05 29400   0.290E-02    0.190E-01
DAV:  88    -0.669628302900E+03    0.54243E-03   -0.41143E-06 19260   0.327E-02    0.193E-01
DAV:  89    -0.669627936599E+03    0.36630E-03   -0.12904E-05 23292   0.620E-02    0.197E-01
DAV:  90    -0.669627692996E+03    0.24360E-03   -0.13902E-05 19572   0.203E-02    0.199E-01
DAV:  91    -0.669633339314E+03   -0.56463E-02   -0.11429E-03 46020   0.651E-01    0.186E-01
DAV:  92    -0.669633246536E+03    0.92777E-04   -0.76846E-04 35268   0.764E-02    0.179E-01
DAV:  93    -0.669633702492E+03   -0.45596E-03   -0.79855E-06 21732   0.258E-02    0.175E-01
DAV:  94    -0.669633385911E+03    0.31658E-03   -0.57361E-06 19080   0.210E-02    0.177E-01
DAV:  95    -0.669634668907E+03   -0.12830E-02   -0.14777E-05 23292   0.652E-02    0.171E-01
DAV:  96    -0.669640443473E+03   -0.57746E-02   -0.33336E-04 45408   0.281E-01    0.138E-01
DAV:  97    -0.669638919234E+03    0.15242E-02   -0.21141E-04 39420   0.154E-01    0.139E-01
DAV:  98    -0.669638688395E+03    0.23084E-03   -0.48191E-05 32436   0.106E-01    0.149E-01
DAV:  99    -0.669639792035E+03   -0.11036E-02   -0.12616E-04 41400   0.161E-01    0.149E-01
DAV: 100    -0.669641088694E+03   -0.12967E-02   -0.15498E-04 44508   0.122E-01    0.144E-01
DAV: 101    -0.669642453761E+03   -0.13651E-02   -0.11982E-04 35400   0.831E-02    0.135E-01
DAV: 102    -0.669642427022E+03    0.26739E-04   -0.53157E-05 28524   0.319E-02    0.135E-01
DAV: 103    -0.669642974766E+03   -0.54774E-03   -0.10344E-05 22332   0.722E-02    0.133E-01
DAV: 104    -0.669644435740E+03   -0.14610E-02   -0.13397E-04 35424   0.219E-01    0.126E-01
DAV: 105    -0.669643825403E+03    0.61034E-03   -0.11721E-04 43032   0.717E-02    0.125E-01
DAV: 106    -0.669647476538E+03   -0.36511E-02   -0.24085E-04 42984   0.272E-01    0.107E-01
DAV: 107    -0.669647615622E+03   -0.13908E-03   -0.14349E-04 34116   0.387E-02    0.108E-01
DAV: 108    -0.669647387107E+03    0.22851E-03   -0.24656E-06 17544   0.222E-02    0.106E-01
DAV: 109    -0.669647310102E+03    0.77005E-04   -0.37035E-06 17316   0.784E-03    0.105E-01
DAV: 110    -0.669646314882E+03    0.99522E-03   -0.11831E-05 22800   0.668E-02    0.105E-01
DAV: 111    -0.669650973677E+03   -0.46588E-02   -0.36628E-04 43584   0.289E-01    0.828E-02
DAV: 112    -0.669650061248E+03    0.91243E-03   -0.20147E-04 39948   0.914E-02    0.835E-02
DAV: 113    -0.669650440823E+03   -0.37958E-03   -0.14853E-05 23172   0.608E-02    0.847E-02
DAV: 114    -0.669651255689E+03   -0.81487E-03   -0.38122E-05 29388   0.923E-02    0.866E-02
DAV: 115    -0.669651710873E+03   -0.45518E-03   -0.72413E-05 36960   0.499E-02    0.868E-02
DAV: 116    -0.669650059762E+03    0.16511E-02   -0.82304E-05 31644   0.146E-01    0.845E-02
DAV: 117    -0.669650132036E+03   -0.72274E-04   -0.24175E-05 25968   0.151E-02    0.844E-02
DAV: 118    -0.669649628604E+03    0.50343E-03   -0.60923E-06 19452   0.395E-02    0.825E-02
DAV: 119    -0.669648829105E+03    0.79950E-03   -0.12983E-05 22344   0.622E-02    0.820E-02
DAV: 120    -0.669649210595E+03   -0.38149E-03   -0.82010E-06 19212   0.420E-02    0.810E-02
DAV: 121    -0.669648635538E+03    0.57506E-03   -0.11377E-05 20640   0.585E-02    0.787E-02
DAV: 122    -0.669648976207E+03   -0.34067E-03   -0.14738E-05 19872   0.285E-02    0.807E-02
DAV: 123    -0.669649367805E+03   -0.39160E-03   -0.94537E-06 19104   0.420E-02    0.811E-02
DAV: 124    -0.669649368463E+03   -0.65731E-06   -0.49979E-06 17100   0.693E-03
   1 F= -.66964937E+03 E0= -.66964937E+03  d E =-.669649E+03  mag=     1.9992
       N       E                     dE             d eps       ncg     rms          rms(c)
DAV:   1    -0.669651451564E+03   -0.20838E-02   -0.32992E-03 48720   0.827E-01    0.904E-02
DAV:   2    -0.669651686608E+03   -0.23504E-03   -0.23312E-03 37056   0.122E-01    0.479E-02
DAV:   3    -0.669651745032E+03   -0.58424E-04   -0.78143E-05 37032   0.675E-02    0.405E-02
DAV:   4    -0.669651821222E+03   -0.76190E-04   -0.10124E-05 20400   0.405E-02    0.357E-02
DAV:   5    -0.669652033227E+03   -0.21200E-03   -0.14411E-05 25536   0.889E-02    0.311E-02
DAV:   6    -0.669652424003E+03   -0.39078E-03   -0.80026E-05 38952   0.116E-01    0.337E-02
DAV:   7    -0.669652389278E+03    0.34724E-04   -0.89824E-05 28476   0.317E-02    0.355E-02
DAV:   8    -0.669652634960E+03   -0.24568E-03   -0.21415E-05 24648   0.643E-02    0.390E-02
DAV:   9    -0.669653441078E+03   -0.80612E-03   -0.10480E-04 35976   0.175E-01    0.467E-02
DAV:  10    -0.669654966324E+03   -0.15252E-02   -0.29783E-04 44316   0.271E-01    0.574E-02
DAV:  11    -0.669655397300E+03   -0.43098E-03   -0.32540E-04 44160   0.677E-02    0.647E-02
DAV:  12    -0.669654302482E+03    0.10948E-02   -0.19651E-04 34668   0.191E-01    0.666E-02
DAV:  13    -0.669653203189E+03    0.10993E-02   -0.17343E-04 43152   0.189E-01    0.704E-02
DAV:  14    -0.669652985627E+03    0.21756E-03   -0.15864E-04 40824   0.457E-02    0.663E-02
DAV:  15    -0.669653115447E+03   -0.12982E-03   -0.23522E-05 24708   0.404E-02    0.702E-02
DAV:  16    -0.669652755369E+03    0.36008E-03   -0.12587E-05 22932   0.634E-02    0.794E-02
DAV:  17    -0.669652165069E+03    0.59030E-03   -0.58385E-05 34068   0.116E-01    0.818E-02
DAV:  18    -0.669652078039E+03    0.87030E-04   -0.59665E-05 31020   0.278E-02    0.784E-02
DAV:  19    -0.669652204230E+03   -0.12619E-03   -0.10097E-05 20772   0.370E-02    0.798E-02
DAV:  20    -0.669651933462E+03    0.27077E-03   -0.18566E-05 24324   0.867E-02    0.800E-02
DAV:  21    -0.669651838514E+03    0.94948E-04   -0.25708E-05 26184   0.475E-02    0.778E-02
DAV:  22    -0.669651869259E+03   -0.30745E-04   -0.12674E-05 21552   0.525E-02    0.738E-02
DAV:  23    -0.669651685955E+03    0.18330E-03   -0.34725E-05 30096   0.962E-02    0.717E-02
DAV:  24    -0.669651578735E+03    0.10722E-03   -0.51459E-05 29784   0.603E-02    0.717E-02
DAV:  25    -0.669651681524E+03   -0.10279E-03   -0.97959E-06 21708   0.627E-02    0.730E-02
DAV:  26    -0.669651713062E+03   -0.31538E-04   -0.73565E-05 33492   0.155E-01    0.818E-02
DAV:  27    -0.669651719320E+03   -0.62581E-05   -0.57116E-05 28848   0.198E-02
   2 F= -.66965172E+03 E0= -.66965172E+03  d E =-.235086E-02  mag=     2.0000
       N       E                     dE             d eps       ncg     rms          rms(c)
DAV:   1    -0.669602358571E+03    0.49354E-01   -0.13040E+00 48696   0.165E+01    0.806E-01
DAV:   2    -0.669690570269E+03   -0.88212E-01   -0.88500E-01 38412   0.187E+00    0.457E-01
DAV:   3    -0.669691477715E+03   -0.90745E-03   -0.13305E-02 37968   0.463E-01    0.323E-01
DAV:   4    -0.669691808671E+03   -0.33096E-03   -0.18438E-03 38304   0.349E-01    0.245E-01
DAV:   5    -0.669692017927E+03   -0.20926E-03   -0.11680E-03 41124   0.290E-01    0.983E-02
DAV:   6    -0.669692655944E+03   -0.63802E-03   -0.58948E-04 39108   0.162E-01    0.611E-02
DAV:   7    -0.669692879737E+03   -0.22379E-03   -0.19200E-04 36780   0.824E-02    0.409E-02
DAV:   8    -0.669693165314E+03   -0.28558E-03   -0.41605E-05 32292   0.474E-02    0.326E-02
DAV:   9    -0.669693684193E+03   -0.51888E-03   -0.88253E-06 23220   0.704E-02    0.325E-02
DAV:  10    -0.669694277714E+03   -0.59352E-03   -0.45779E-05 33996   0.830E-02    0.318E-02
DAV:  11    -0.669694384999E+03   -0.10728E-03   -0.69344E-05 29052   0.219E-02    0.338E-02
DAV:  12    -0.669694301667E+03    0.83331E-04   -0.67956E-06 20412   0.189E-02    0.440E-02
DAV:  13    -0.669693932533E+03    0.36913E-03   -0.95616E-06 22548   0.572E-02    0.519E-02
DAV:  14    -0.669694522572E+03   -0.59004E-03   -0.21640E-05 24984   0.944E-02    0.486E-02
DAV:  15    -0.669692822390E+03    0.17002E-02   -0.19307E-04 37032   0.280E-01    0.535E-02
DAV:  16    -0.669692022749E+03    0.79964E-03   -0.21319E-04 45456   0.152E-01    0.552E-02
DAV:  17    -0.669692461010E+03   -0.43826E-03   -0.12780E-04 39672   0.101E-01    0.536E-02
DAV:  18    -0.669693438274E+03   -0.97726E-03   -0.12448E-04 38028   0.209E-01    0.709E-02
DAV:  19    -0.669694030011E+03   -0.59174E-03   -0.12063E-04 43224   0.113E-01    0.787E-02
DAV:  20    -0.669693420826E+03    0.60919E-03   -0.10445E-04 36720   0.146E-01    0.752E-02
DAV:  21    -0.669693224854E+03    0.19597E-03   -0.12089E-05 22608   0.428E-02    0.740E-02
DAV:  22    -0.669693951801E+03   -0.72695E-03   -0.21140E-05 25572   0.956E-02    0.713E-02
DAV:  23    -0.669693786754E+03    0.16505E-03   -0.23901E-04 43200   0.280E-01    0.732E-02
DAV:  24    -0.669693815083E+03   -0.28330E-04   -0.15785E-04 33876   0.309E-02    0.702E-02
DAV:  25    -0.669692889814E+03    0.92527E-03   -0.18642E-04 38160   0.266E-01    0.727E-02
DAV:  26    -0.669692293141E+03    0.59667E-03   -0.18515E-04 46632   0.124E-01    0.707E-02
DAV:  27    -0.669692570169E+03   -0.27703E-03   -0.95613E-05 35040   0.698E-02    0.676E-02
DAV:  28    -0.669694444236E+03   -0.18741E-02   -0.28059E-04 39504   0.322E-01    0.779E-02
DAV:  29    -0.669698805370E+03   -0.43611E-02   -0.17685E-03 45060   0.723E-01    0.978E-02
DAV:  30    -0.669698337030E+03    0.46834E-03   -0.11290E-03 36708   0.148E-01    0.103E-01
DAV:  31    -0.669697701022E+03    0.63601E-03   -0.12368E-05 26052   0.709E-02    0.982E-02
DAV:  32    -0.669698449064E+03   -0.74804E-03   -0.16853E-04 33924   0.191E-01    0.989E-02
DAV:  33    -0.669700118686E+03   -0.16696E-02   -0.43288E-04 45288   0.341E-01    0.111E-01
DAV:  34    -0.669702171244E+03   -0.20526E-02   -0.50174E-04 44592   0.258E-01    0.123E-01
DAV:  35    -0.669701964923E+03    0.20632E-03   -0.40597E-04 34920   0.111E-01    0.128E-01
DAV:  36    -0.669701353066E+03    0.61186E-03   -0.21343E-05 26364   0.101E-01    0.125E-01
DAV:  37    -0.669699216917E+03    0.21361E-02   -0.31239E-04 46632   0.311E-01    0.118E-01
DAV:  38    -0.669699284483E+03   -0.67566E-04   -0.21722E-04 38076   0.492E-02    0.113E-01
DAV:  39    -0.669699364822E+03   -0.80339E-04   -0.14601E-05 23124   0.185E-02    0.112E-01
DAV:  40    -0.669699222289E+03    0.14253E-03   -0.35991E-06 19068   0.228E-02    0.112E-01
DAV:  41    -0.669699376121E+03   -0.15383E-03   -0.22890E-06 18972   0.236E-02    0.114E-01
DAV:  42    -0.669699306022E+03    0.70099E-04   -0.52059E-07 17280   0.787E-03    0.114E-01
DAV:  43    -0.669700223116E+03   -0.91709E-03   -0.62081E-05 30132   0.150E-01    0.116E-01
DAV:  44    -0.669701720955E+03   -0.14978E-02   -0.19899E-04 44772   0.219E-01    0.120E-01
DAV:  45    -0.669702956371E+03   -0.12354E-02   -0.21543E-04 46284   0.141E-01    0.128E-01
DAV:  46    -0.669703335487E+03   -0.37912E-03   -0.16425E-04 36744   0.425E-02    0.132E-01
DAV:  47    -0.669703474325E+03   -0.13884E-03   -0.13293E-05 21600   0.134E-02    0.133E-01
DAV:  48    -0.669703478276E+03   -0.39517E-05   -0.58183E-06 18072   0.648E-03
   3 F= -.66970348E+03 E0= -.66970348E+03  d E =-.517590E-01  mag=     2.0000
       N       E                     dE             d eps       ncg     rms          rms(c)
DAV:   1    -0.668760919794E+03    0.94255E+00   -0.14967E+01 48384   0.540E+01    0.275E+00
DAV:   2    -0.669733081109E+03   -0.97216E+00   -0.97386E+00 37932   0.620E+00    0.153E+00
DAV:   3    -0.669741675939E+03   -0.85948E-02   -0.14710E-01 37908   0.153E+00    0.107E+00
DAV:   4    -0.669742289765E+03   -0.61383E-03   -0.22275E-02 37584   0.116E+00    0.820E-01
DAV:   5    -0.669741869388E+03    0.42038E-03   -0.13048E-02 38268   0.860E-01    0.316E-01
DAV:   6    -0.669743504553E+03   -0.16352E-02   -0.66505E-03 38796   0.485E-01    0.183E-01
DAV:   7    -0.669743867830E+03   -0.36328E-03   -0.16089E-03 36708   0.229E-01    0.109E-01
DAV:   8    -0.669744465768E+03   -0.59794E-03   -0.39691E-04 38268   0.107E-01    0.738E-02
DAV:   9    -0.669745259723E+03   -0.79395E-03   -0.74277E-05 39468   0.953E-02    0.567E-02
DAV:  10    -0.669746506170E+03   -0.12464E-02   -0.74533E-05 42000   0.124E-01    0.449E-02
DAV:  11    -0.669747311816E+03   -0.80565E-03   -0.12271E-04 43620   0.811E-02    0.434E-02
DAV:  12    -0.669747652848E+03   -0.34103E-03   -0.74518E-05 34488   0.348E-02    0.430E-02
DAV:  13    -0.669747859377E+03   -0.20653E-03   -0.80769E-06 20052   0.183E-02    0.427E-02
DAV:  14    -0.669748143778E+03   -0.28440E-03   -0.15920E-06 18384   0.255E-02    0.407E-02
DAV:  15    -0.669752562679E+03   -0.44189E-02   -0.52386E-04 47796   0.445E-01    0.548E-02
DAV:  16    -0.669753007892E+03   -0.44521E-03   -0.44662E-04 37920   0.586E-02    0.594E-02
DAV:  17    -0.669751675949E+03    0.13319E-02   -0.90845E-05 33600   0.134E-01    0.644E-02
DAV:  18    -0.669750761634E+03    0.91432E-03   -0.87366E-05 41712   0.913E-02    0.822E-02
DAV:  19    -0.669748554498E+03    0.22071E-02   -0.17934E-04 43680   0.234E-01    0.102E-01
DAV:  20    -0.669745828918E+03    0.27256E-02   -0.50701E-04 44328   0.327E-01    0.121E-01
DAV:  21    -0.669745445364E+03    0.38355E-03   -0.65002E-04 39252   0.734E-02    0.113E-01
DAV:  22    -0.669745436216E+03    0.91478E-05   -0.48232E-05 29304   0.162E-02
   4 F= -.66974544E+03 E0= -.66974544E+03  d E =-.419579E-01  mag=     2.0000
       N       E                     dE             d eps       ncg     rms          rms(c)
DAV:   1    -0.669721759901E+03    0.23685E-01   -0.77504E-01 45816   0.885E+00    0.450E-01
DAV:   2    -0.669749859529E+03   -0.28100E-01   -0.28685E-01 37764   0.112E+00    0.252E-01
DAV:   3    -0.669750530759E+03   -0.67123E-03   -0.44776E-03 37956   0.265E-01    0.178E-01
DAV:   4    -0.669750925254E+03   -0.39450E-03   -0.58307E-04 38304   0.188E-01    0.133E-01
DAV:   5    -0.669752334242E+03   -0.14090E-02   -0.36893E-04 46224   0.217E-01    0.554E-02
DAV:   6    -0.669752943306E+03   -0.60906E-03   -0.27534E-04 46380   0.108E-01    0.503E-02
DAV:   7    -0.669753313393E+03   -0.37009E-03   -0.11152E-04 36252   0.486E-02    0.433E-02
DAV:   8    -0.669753604914E+03   -0.29152E-03   -0.12889E-05 21084   0.320E-02    0.407E-02
DAV:   9    -0.669754855131E+03   -0.12502E-02   -0.33439E-05 30168   0.140E-01    0.407E-02
DAV:  10    -0.669756112536E+03   -0.12574E-02   -0.13775E-04 42480   0.137E-01    0.417E-02
DAV:  11    -0.669755615944E+03    0.49659E-03   -0.93173E-05 33948   0.713E-02    0.449E-02
DAV:  12    -0.669757105958E+03   -0.14900E-02   -0.10221E-04 31440   0.168E-01    0.489E-02
DAV:  13    -0.669760800648E+03   -0.36947E-02   -0.51162E-04 45984   0.384E-01    0.540E-02
DAV:  14    -0.669760824765E+03   -0.24117E-04   -0.44162E-04 35724   0.541E-02    0.581E-02
DAV:  15    -0.669760915728E+03   -0.90963E-04   -0.63157E-06 21348   0.215E-02    0.620E-02
DAV:  16    -0.669761940458E+03   -0.10247E-02   -0.48603E-05 30612   0.114E-01    0.737E-02
DAV:  17    -0.669761030305E+03    0.91015E-03   -0.43465E-05 32976   0.855E-02    0.954E-02
DAV:  18    -0.669761583259E+03   -0.55295E-03   -0.36533E-05 28500   0.686E-02    0.103E-01
DAV:  19    -0.669761220602E+03    0.36266E-03   -0.12630E-05 20772   0.393E-02    0.109E-01
DAV:  20    -0.669761150251E+03    0.70351E-04   -0.75922E-06 17772   0.164E-02    0.110E-01
DAV:  21    -0.669761334100E+03   -0.18385E-03   -0.37692E-06 19140   0.217E-02    0.109E-01
DAV:  22    -0.669761322423E+03    0.11677E-04   -0.18076E-06 17712   0.128E-02    0.110E-01
DAV:  23    -0.669761296090E+03    0.26334E-04   -0.36970E-06 17520   0.561E-03    0.110E-01
DAV:  24    -0.669761588742E+03   -0.29265E-03   -0.33589E-06 19332   0.297E-02    0.111E-01
DAV:  25    -0.669761562836E+03    0.25906E-04   -0.12172E-06 17448   0.922E-03    0.112E-01
DAV:  26    -0.669761617581E+03   -0.54745E-04   -0.46358E-07 17424   0.945E-03    0.111E-01
DAV:  27    -0.669761615914E+03    0.16669E-05   -0.83181E-07 17424   0.237E-03
   5 F= -.66976162E+03 E0= -.66976162E+03  d E =-.161797E-01  mag=     2.0000
       N       E                     dE             d eps       ncg     rms          rms(c)
DAV:   1    -0.669121781279E+03    0.63984E+00   -0.24286E+01 45852   0.421E+01    0.213E+00
DAV:   2    -0.669751022343E+03   -0.62924E+00   -0.66449E+00 37068   0.555E+00    0.114E+00
DAV:   3    -0.669753258272E+03   -0.22359E-02   -0.96700E-02 37812   0.106E+00    0.788E-01
DAV:   4    -0.669752734435E+03    0.52384E-03   -0.12696E-02 38628   0.826E-01    0.576E-01
DAV:   5    -0.669753466854E+03   -0.73242E-03   -0.83508E-03 40188   0.743E-01    0.209E-01
DAV:   6    -0.669754025159E+03   -0.55831E-03   -0.42589E-03 38040   0.328E-01    0.143E-01
DAV:   7    -0.669754542575E+03   -0.51742E-03   -0.10225E-03 36972   0.142E-01    0.933E-02
DAV:   8    -0.669754979088E+03   -0.43651E-03   -0.16787E-04 36336   0.782E-02    0.665E-02
DAV:   9    -0.669755906131E+03   -0.92704E-03   -0.37479E-05 33648   0.106E-01    0.485E-02
DAV:  10    -0.669757133187E+03   -0.12271E-02   -0.13294E-04 41556   0.127E-01    0.396E-02
DAV:  11    -0.669757508837E+03   -0.37565E-03   -0.13551E-04 36528   0.416E-02    0.399E-02
DAV:  12    -0.669757287736E+03    0.22110E-03   -0.28392E-05 27360   0.328E-02    0.420E-02
DAV:  13    -0.669758556520E+03   -0.12688E-02   -0.54396E-05 29340   0.135E-01    0.405E-02
DAV:  14    -0.669761347174E+03   -0.27907E-02   -0.27163E-04 45756   0.282E-01    0.395E-02
DAV:  15    -0.669761839487E+03   -0.49231E-03   -0.25800E-04 38868   0.538E-02    0.421E-02
DAV:  16    -0.669759584099E+03    0.22554E-02   -0.22925E-04 39972   0.228E-01    0.575E-02
DAV:  17    -0.669758791914E+03    0.79219E-03   -0.16562E-04 44676   0.109E-01    0.698E-02
DAV:  18    -0.669758330276E+03    0.46164E-03   -0.81299E-05 39264   0.532E-02    0.711E-02
DAV:  19    -0.669758410456E+03   -0.80180E-04   -0.32870E-05 27528   0.191E-02    0.700E-02
DAV:  20    -0.669758022146E+03    0.38831E-03   -0.10201E-05 23748   0.614E-02    0.733E-02
DAV:  21    -0.669757847555E+03    0.17459E-03   -0.11855E-05 21060   0.303E-02    0.728E-02
DAV:  22    -0.669757951392E+03   -0.10384E-03   -0.89375E-06 20244   0.236E-02    0.710E-02
DAV:  23    -0.669757634766E+03    0.31663E-03   -0.15326E-05 25680   0.768E-02    0.703E-02
DAV:  24    -0.669757188306E+03    0.44646E-03   -0.85405E-05 36396   0.135E-01    0.681E-02
DAV:  25    -0.669757415748E+03   -0.22744E-03   -0.97804E-05 41028   0.935E-02    0.589E-02
DAV:  26    -0.669759329247E+03   -0.19135E-02   -0.14415E-04 40872   0.199E-01    0.502E-02
DAV:  27    -0.669760659000E+03   -0.13298E-02   -0.21911E-04 43428   0.205E-01    0.425E-02
DAV:  28    -0.669761100703E+03   -0.44170E-03   -0.25887E-04 40992   0.647E-02    0.393E-02
DAV:  29    -0.669760865833E+03    0.23487E-03   -0.44645E-05 28512   0.409E-02    0.397E-02
DAV:  30    -0.669760816894E+03    0.48939E-04   -0.12601E-05 22368   0.102E-02    0.389E-02
DAV:  31    -0.669761074192E+03   -0.25730E-03   -0.48556E-06 19440   0.290E-02    0.402E-02
DAV:  32    -0.669761204954E+03   -0.13076E-03   -0.41770E-06 19404   0.372E-02    0.354E-02
DAV:  33    -0.669761005753E+03    0.19920E-03   -0.34636E-06 19344   0.273E-02    0.373E-02
DAV:  34    -0.669761577132E+03   -0.57138E-03   -0.34399E-05 27228   0.105E-01    0.405E-02
DAV:  35    -0.669761526040E+03    0.51092E-04   -0.27634E-05 27372   0.702E-02    0.529E-02
DAV:  36    -0.669762368908E+03   -0.84287E-03   -0.49873E-05 33012   0.980E-02    0.581E-02
DAV:  37    -0.669762548109E+03   -0.17920E-03   -0.55456E-05 31032   0.282E-02    0.624E-02
DAV:  38    -0.669762155004E+03    0.39311E-03   -0.32039E-05 27264   0.859E-02    0.564E-02
DAV:  39    -0.669763145718E+03   -0.99071E-03   -0.47821E-05 27564   0.146E-01    0.644E-02
DAV:  40    -0.669763352135E+03   -0.20642E-03   -0.32620E-05 27132   0.346E-02    0.649E-02
DAV:  41    -0.669763429283E+03   -0.77148E-04   -0.15257E-05 24384   0.638E-02    0.659E-02
DAV:  42    -0.669763234125E+03    0.19516E-03   -0.21770E-05 26196   0.657E-02    0.676E-02
DAV:  43    -0.669763258306E+03   -0.24181E-04   -0.34656E-05 29856   0.841E-02    0.620E-02
DAV:  44    -0.669762773266E+03    0.48504E-03   -0.55719E-05 33024   0.101E-01    0.555E-02
DAV:  45    -0.669762834157E+03   -0.60891E-04   -0.64430E-05 38676   0.744E-02    0.542E-02
DAV:  46    -0.669762895848E+03   -0.61691E-04   -0.42493E-05 30936   0.105E-01    0.541E-02
DAV:  47    -0.669763188220E+03   -0.29237E-03   -0.76485E-05 39672   0.893E-02    0.457E-02
DAV:  48    -0.669763775416E+03   -0.58720E-03   -0.79348E-05 33144   0.985E-02    0.396E-02
DAV:  49    -0.669763981930E+03   -0.20651E-03   -0.42555E-05 32436   0.658E-02    0.373E-02
DAV:  50    -0.669763990327E+03   -0.83978E-05   -0.37264E-05 27636   0.166E-02
   6 F= -.66976399E+03 E0= -.66976399E+03  d E =-.237441E-02  mag=     2.0000
       N       E                     dE             d eps       ncg     rms          rms(c)
DAV:   1    -0.668329532410E+03    0.14344E+01   -0.62247E+01 45792   0.632E+01    0.326E+00
DAV:   2    -0.669754265921E+03   -0.14247E+01   -0.15070E+01 37296   0.856E+00    0.172E+00
DAV:   3    -0.669754280964E+03   -0.15042E-04   -0.20814E-01 38364   0.153E+00    0.118E+00
DAV:   4    -0.669751545156E+03    0.27358E-02   -0.24308E-02 38628   0.109E+00    0.865E-01
DAV:   5    -0.669748187247E+03    0.33579E-02   -0.17828E-02 38868   0.104E+00    0.333E-01
DAV:   6    -0.669749257864E+03   -0.10706E-02   -0.97970E-03 37860   0.503E-01    0.198E-01
DAV:   7    -0.669749289064E+03   -0.31200E-04   -0.22721E-03 36528   0.217E-01    0.128E-01
DAV:   8    -0.669749247963E+03    0.41101E-04   -0.39928E-04 36444   0.905E-02    0.872E-02
DAV:   9    -0.669749288377E+03   -0.40414E-04   -0.92333E-05 36072   0.757E-02    0.510E-02
DAV:  10    -0.669749395991E+03   -0.10761E-03   -0.99766E-05 42816   0.801E-02    0.241E-02
DAV:  11    -0.669749444121E+03   -0.48130E-04   -0.61957E-05 32616   0.381E-02    0.225E-02
DAV:  12    -0.669749467247E+03   -0.23126E-04   -0.13145E-05 18744   0.175E-02    0.197E-02
DAV:  13    -0.669749492908E+03   -0.25661E-04   -0.37964E-06 18456   0.910E-03    0.188E-02
DAV:  14    -0.669749644345E+03   -0.15144E-03   -0.34517E-06 20964   0.565E-02    0.157E-02
DAV:  15    -0.669749958261E+03   -0.31392E-03   -0.49570E-05 30804   0.114E-01    0.183E-02
DAV:  16    -0.669749936224E+03    0.22037E-04   -0.45183E-05 28872   0.236E-02    0.203E-02
DAV:  17    -0.669750018555E+03   -0.82331E-04   -0.78078E-06 20208   0.294E-02    0.262E-02
DAV:  18    -0.669750259437E+03   -0.24088E-03   -0.20918E-05 25200   0.757E-02    0.351E-02
DAV:  19    -0.669750546943E+03   -0.28751E-03   -0.36224E-05 30732   0.817E-02    0.428E-02
DAV:  20    -0.669750768470E+03   -0.22153E-03   -0.39163E-05 29916   0.578E-02    0.473E-02
DAV:  21    -0.669750767606E+03    0.86366E-06   -0.33691E-05 28296   0.164E-02
   7 F= -.66975077E+03 E0= -.66975077E+03  d E =0.132227E-01  mag=     2.0000
       N       E                     dE             d eps       ncg     rms          rms(c)
DAV:   1    -0.664773073540E+03    0.49777E+01   -0.76837E+01 48720   0.121E+02    0.702E+00
DAV:   2    -0.669602097313E+03   -0.48290E+01   -0.48629E+01 37764   0.141E+01    0.379E+00
DAV:   3    -0.669674478525E+03   -0.72381E-01   -0.11933E+00 37524   0.466E+00    0.258E+00
DAV:   4    -0.669673483893E+03    0.99463E-03   -0.14962E-01 38280   0.255E+00    0.199E+00
DAV:   5    -0.669674124147E+03   -0.64025E-03   -0.52401E-02 41100   0.175E+00    0.884E-01
DAV:   6    -0.669675628196E+03   -0.15040E-02   -0.32796E-02 37140   0.121E+00    0.423E-01
DAV:   7    -0.669675404417E+03    0.22378E-03   -0.90257E-03 36876   0.521E-01    0.230E-01
DAV:   8    -0.669676088069E+03   -0.68365E-03   -0.25364E-03 37560   0.262E-01    0.147E-01
DAV:   9    -0.669676458262E+03   -0.37019E-03   -0.64310E-04 36828   0.174E-01    0.970E-02
DAV:  10    -0.669677459741E+03   -0.10015E-02   -0.18078E-04 44700   0.128E-01    0.558E-02
DAV:  11    -0.669678281315E+03   -0.82157E-03   -0.13823E-04 44556   0.900E-02    0.428E-02
DAV:  12    -0.669678754825E+03   -0.47351E-03   -0.85722E-05 36924   0.551E-02    0.385E-02
DAV:  13    -0.669679190578E+03   -0.43575E-03   -0.16449E-05 23124   0.398E-02    0.349E-02
DAV:  14    -0.669680834297E+03   -0.16437E-02   -0.43877E-05 29316   0.151E-01    0.327E-02
DAV:  15    -0.669682625340E+03   -0.17910E-02   -0.18128E-04 42420   0.166E-01    0.351E-02
DAV:  16    -0.669681854166E+03    0.77117E-03   -0.13120E-04 37452   0.933E-02    0.385E-02
DAV:  17    -0.669684034557E+03   -0.21804E-02   -0.17940E-04 34044   0.222E-01    0.469E-02
DAV:  18    -0.669684577767E+03   -0.54321E-03   -0.11962E-04 40800   0.537E-02    0.492E-02
DAV:  19    -0.669684201597E+03    0.37617E-03   -0.38966E-05 28872   0.460E-02    0.509E-02
DAV:  20    -0.669682115230E+03    0.20864E-02   -0.17522E-04 38916   0.232E-01    0.531E-02
DAV:  21    -0.669680037388E+03    0.20778E-02   -0.33424E-04 43560   0.255E-01    0.584E-02
DAV:  22    -0.669679964765E+03    0.72623E-04   -0.30679E-04 32796   0.422E-02    0.530E-02
DAV:  23    -0.669681999369E+03   -0.20346E-02   -0.20456E-04 35388   0.248E-01    0.532E-02
DAV:  24    -0.669682575335E+03   -0.57597E-03   -0.12788E-04 42420   0.665E-02    0.629E-02
DAV:  25    -0.669684611842E+03   -0.20365E-02   -0.13638E-04 33936   0.212E-01    0.921E-02
DAV:  26    -0.669685818280E+03   -0.12064E-02   -0.20709E-04 45480   0.113E-01    0.111E-01
DAV:  27    -0.669686657331E+03   -0.83905E-03   -0.94641E-05 39276   0.670E-02    0.127E-01
DAV:  28    -0.669686418832E+03    0.23850E-03   -0.68050E-05 30384   0.469E-02    0.128E-01
DAV:  29    -0.669686397028E+03    0.21804E-04   -0.38070E-06 17976   0.126E-02    0.126E-01
DAV:  30    -0.669686393081E+03    0.39471E-05   -0.33181E-06 17928   0.480E-03
   8 F= -.66968639E+03 E0= -.66968639E+03  d E =0.643745E-01  mag=     2.0000
       N       E                     dE             d eps       ncg     rms          rms(c)
DAV:   1    -0.669311672978E+03    0.37472E+00   -0.11979E+01 46008   0.361E+01    0.181E+00
DAV:   2    -0.669769739703E+03   -0.45807E+00   -0.47227E+00 37308   0.467E+00    0.107E+00
DAV:   3    -0.669777091260E+03   -0.73516E-02   -0.12588E-01 36900   0.149E+00    0.772E-01
DAV:   4    -0.669776262625E+03    0.82864E-03   -0.14711E-02 37260   0.916E-01    0.569E-01
DAV:   5    -0.669777395958E+03   -0.11333E-02   -0.87324E-03 43512   0.572E-01    0.232E-01
DAV:   6    -0.669777951162E+03   -0.55520E-03   -0.37566E-03 38652   0.345E-01    0.154E-01
DAV:   7    -0.669778497383E+03   -0.54622E-03   -0.10587E-03 37812   0.199E-01    0.875E-02
DAV:   8    -0.669779065556E+03   -0.56817E-03   -0.25476E-04 37812   0.962E-02    0.572E-02
DAV:   9    -0.669779781231E+03   -0.71568E-03   -0.47386E-05 35688   0.832E-02    0.479E-02
DAV:  10    -0.669780849466E+03   -0.10682E-02   -0.45630E-05 33144   0.101E-01    0.400E-02
DAV:  11    -0.669781461093E+03   -0.61163E-03   -0.95346E-05 39132   0.602E-02    0.397E-02
DAV:  12    -0.669781629412E+03   -0.16832E-03   -0.54464E-05 29136   0.196E-02    0.405E-02
DAV:  13    -0.669781025611E+03    0.60380E-03   -0.18401E-05 24852   0.638E-02    0.492E-02
DAV:  14    -0.669783201167E+03   -0.21756E-02   -0.10407E-04 31800   0.216E-01    0.411E-02
DAV:  15    -0.669786041016E+03   -0.28398E-02   -0.27628E-04 45012   0.264E-01    0.426E-02
DAV:  16    -0.669782019219E+03    0.40218E-02   -0.45029E-04 42948   0.398E-01    0.511E-02
DAV:  17    -0.669782825275E+03   -0.80606E-03   -0.22800E-05 27492   0.885E-02    0.474E-02
DAV:  18    -0.669793640966E+03   -0.10816E-01   -0.25441E-03 46320   0.974E-01    0.678E-02
DAV:  19    -0.669795878321E+03   -0.22374E-02   -0.18983E-03 46224   0.179E-01    0.745E-02
DAV:  20    -0.669794758737E+03    0.11196E-02   -0.33068E-04 32988   0.118E-01    0.742E-02
DAV:  21    -0.669794733445E+03    0.25292E-04   -0.24886E-05 28080   0.123E-02    0.735E-02
DAV:  22    -0.669794732259E+03    0.11862E-05   -0.71202E-07 18120   0.304E-03
   9 F= -.66979473E+03 E0= -.66979473E+03  d E =-.108339E+00  mag=     2.0000
       N       E                     dE             d eps       ncg     rms          rms(c)
DAV:   1    -0.669695846611E+03    0.98887E-01   -0.46123E+00 45564   0.173E+01    0.864E-01
DAV:   2    -0.669806385123E+03   -0.11054E+00   -0.11675E+00 37380   0.239E+00    0.503E-01
DAV:   3    -0.669807541875E+03   -0.11568E-02   -0.22483E-02 36876   0.611E-01    0.354E-01
DAV:   4    -0.669807818859E+03   -0.27698E-03   -0.30236E-03 38592   0.424E-01    0.266E-01
DAV:   5    -0.669809437966E+03   -0.16191E-02   -0.18615E-03 45756   0.315E-01    0.100E-01
DAV:   6    -0.669810290414E+03   -0.85245E-03   -0.96679E-04 39000   0.158E-01    0.780E-02
DAV:   7    -0.669810826286E+03   -0.53587E-03   -0.25878E-04 36612   0.788E-02    0.572E-02
DAV:   8    -0.669811329822E+03   -0.50354E-03   -0.41847E-05 30912   0.464E-02    0.459E-02
DAV:   9    -0.669812517123E+03   -0.11873E-02   -0.14038E-05 25536   0.924E-02    0.414E-02
DAV:  10    -0.669813889344E+03   -0.13722E-02   -0.83378E-05 39000   0.107E-01    0.381E-02
DAV:  11    -0.669814130330E+03   -0.24099E-03   -0.88899E-05 29220   0.259E-02    0.392E-02
DAV:  12    -0.669813828679E+03    0.30165E-03   -0.10791E-05 21912   0.315E-02    0.445E-02
DAV:  13    -0.669813999772E+03   -0.17109E-03   -0.18350E-06 18192   0.165E-02    0.432E-02
DAV:  14    -0.669817291110E+03   -0.32913E-02   -0.19580E-04 37068   0.278E-01    0.407E-02
DAV:  15    -0.669821064981E+03   -0.37739E-02   -0.43062E-04 45444   0.301E-01    0.386E-02
DAV:  16    -0.669821409291E+03   -0.34431E-03   -0.42271E-04 34800   0.511E-02    0.421E-02
DAV:  17    -0.669818939887E+03    0.24694E-02   -0.15116E-04 36468   0.200E-01    0.603E-02
DAV:  18    -0.669817904512E+03    0.10354E-02   -0.14829E-04 43620   0.102E-01    0.804E-02
DAV:  19    -0.669816734559E+03    0.11700E-02   -0.72626E-05 39276   0.107E-01    0.921E-02
DAV:  20    -0.669816854239E+03   -0.11968E-03   -0.10450E-04 30192   0.343E-02    0.884E-02
DAV:  21    -0.669817301491E+03   -0.44725E-03   -0.36507E-06 20052   0.465E-02    0.875E-02
DAV:  22    -0.669817297959E+03    0.35320E-05   -0.36982E-05 30528   0.714E-02
  10 F= -.66981730E+03 E0= -.66981730E+03  d E =-.225657E-01  mag=     2.0000
       N       E                     dE             d eps       ncg     rms          rms(c)
DAV:   1    -0.669601564421E+03    0.21574E+00   -0.10488E+01 45780   0.246E+01    0.123E+00
DAV:   2    -0.669819561048E+03   -0.21800E+00   -0.23458E+00 36804   0.339E+00    0.664E-01
DAV:   3    -0.669820309273E+03   -0.74822E-03   -0.33981E-02 38376   0.583E-01    0.455E-01
DAV:   4    -0.669820470078E+03   -0.16081E-03   -0.35174E-03 38700   0.429E-01    0.317E-01
DAV:   5    -0.669821605357E+03   -0.11353E-02   -0.29658E-03 39720   0.445E-01    0.111E-01
DAV:   6    -0.669822407209E+03   -0.80185E-03   -0.14228E-03 38856   0.195E-01    0.796E-02
DAV:   7    -0.669822806524E+03   -0.39931E-03   -0.37139E-04 36696   0.762E-02    0.597E-02
DAV:   8    -0.669823178926E+03   -0.37240E-03   -0.34502E-05 28224   0.435E-02    0.481E-02
DAV:   9    -0.669824171417E+03   -0.99249E-03   -0.26326E-05 29280   0.955E-02    0.397E-02
DAV:  10    -0.669825338643E+03   -0.11672E-02   -0.90311E-05 40536   0.106E-01    0.352E-02
DAV:  11    -0.669825439701E+03   -0.10106E-03   -0.85020E-05 29556   0.227E-02    0.367E-02
DAV:  12    -0.669825334823E+03    0.10488E-03   -0.40545E-06 19800   0.186E-02    0.456E-02
DAV:  13    -0.669825188819E+03    0.14600E-03   -0.33497E-06 18624   0.160E-02    0.481E-02
DAV:  14    -0.669825750689E+03   -0.56187E-03   -0.10791E-05 24192   0.599E-02    0.435E-02
DAV:  15    -0.669827289420E+03   -0.15387E-02   -0.87574E-05 38256   0.158E-01    0.393E-02
DAV:  16    -0.669826472874E+03    0.81655E-03   -0.38166E-05 30888   0.943E-02    0.433E-02
DAV:  17    -0.669828727528E+03   -0.22547E-02   -0.22965E-04 40680   0.266E-01    0.480E-02
DAV:  18    -0.669831726538E+03   -0.29990E-02   -0.52485E-04 45804   0.337E-01    0.577E-02
DAV:  19    -0.669831765515E+03   -0.38978E-04   -0.46177E-04 34560   0.548E-02    0.607E-02
DAV:  20    -0.669831943411E+03   -0.17790E-03   -0.17143E-05 26868   0.451E-02    0.719E-02
DAV:  21    -0.669831654455E+03    0.28896E-03   -0.77921E-06 20136   0.215E-02    0.832E-02
DAV:  22    -0.669832860712E+03   -0.12063E-02   -0.90692E-05 36576   0.159E-01    0.907E-02
DAV:  23    -0.669833101406E+03   -0.24069E-03   -0.66729E-05 42144   0.698E-02    0.956E-02
DAV:  24    -0.669833612690E+03   -0.51128E-03   -0.29860E-05 32028   0.586E-02    0.931E-02
DAV:  25    -0.669833897370E+03   -0.28468E-03   -0.34889E-05 34284   0.346E-02    0.908E-02
DAV:  26    -0.669834239083E+03   -0.34171E-03   -0.60508E-06 22296   0.384E-02    0.884E-02
DAV:  27    -0.669834470733E+03   -0.23165E-03   -0.10146E-05 21588   0.264E-02    0.854E-02
DAV:  28    -0.669835463468E+03   -0.99274E-03   -0.27801E-05 31344   0.993E-02    0.761E-02
DAV:  29    -0.669835599070E+03   -0.13560E-03   -0.58720E-05 32244   0.223E-02    0.748E-02
DAV:  30    -0.669835939863E+03   -0.34079E-03   -0.28157E-06 19332   0.350E-02    0.720E-02
DAV:  31    -0.669836630749E+03   -0.69089E-03   -0.17361E-05 28104   0.650E-02    0.647E-02
DAV:  32    -0.669837278100E+03   -0.64735E-03   -0.40157E-05 35916   0.592E-02    0.603E-02
DAV:  33    -0.669837466955E+03   -0.18886E-03   -0.33431E-05 29784   0.193E-02    0.597E-02
DAV:  34    -0.669837726563E+03   -0.25961E-03   -0.15055E-06 17652   0.215E-02    0.567E-02
DAV:  35    -0.669838493298E+03   -0.76673E-03   -0.16807E-05 28500   0.748E-02    0.468E-02
DAV:  36    -0.669839048820E+03   -0.55552E-03   -0.38515E-05 35244   0.473E-02    0.420E-02
DAV:  37    -0.669839711960E+03   -0.66314E-03   -0.13879E-05 24960   0.560E-02    0.335E-02
DAV:  38    -0.669840485991E+03   -0.77403E-03   -0.39553E-05 36240   0.631E-02    0.257E-02
DAV:  39    -0.669841228799E+03   -0.74281E-03   -0.35448E-05 33420   0.612E-02    0.179E-02
DAV:  40    -0.669842071913E+03   -0.84311E-03   -0.30882E-05 32172   0.693E-02    0.102E-02
DAV:  41    -0.669842367719E+03   -0.29581E-03   -0.67872E-05 31956   0.264E-02    0.771E-03
DAV:  42    -0.669842358202E+03    0.95173E-05   -0.11121E-05 23316   0.896E-03
  11 F= -.66984236E+03 E0= -.66984236E+03  d E =-.250602E-01  mag=     2.0000
       N       E                     dE             d eps       ncg     rms          rms(c)
DAV:   1    -0.665005822792E+03    0.48365E+01   -0.11314E+02 47160   0.119E+02    0.653E+00
DAV:   2    -0.669776026388E+03   -0.47702E+01   -0.48515E+01 37860   0.147E+01    0.349E+00
DAV:   3    -0.669811202000E+03   -0.35176E-01   -0.84008E-01 37308   0.375E+00    0.239E+00
DAV:   4    -0.669808851462E+03    0.23505E-02   -0.11381E-01 37956   0.220E+00    0.184E+00
DAV:   5    -0.669804735316E+03    0.41161E-02   -0.50307E-02 40260   0.183E+00    0.844E-01
DAV:   6    -0.669806800278E+03   -0.20650E-02   -0.33716E-02 37836   0.115E+00    0.405E-01
DAV:   7    -0.669806666323E+03    0.13396E-03   -0.94071E-03 36756   0.496E-01    0.232E-01
DAV:   8    -0.669806937558E+03   -0.27124E-03   -0.25295E-03 36492   0.229E-01    0.144E-01
DAV:   9    -0.669807085802E+03   -0.14824E-03   -0.47977E-04 36768   0.162E-01    0.939E-02
DAV:  10    -0.669807698524E+03   -0.61272E-03   -0.23087E-04 39528   0.127E-01    0.468E-02
DAV:  11    -0.669808010258E+03   -0.31173E-03   -0.14499E-04 38448   0.695E-02    0.310E-02
DAV:  12    -0.669808171227E+03   -0.16097E-03   -0.54435E-05 30456   0.363E-02    0.245E-02
DAV:  13    -0.669808349215E+03   -0.17799E-03   -0.94315E-06 18708   0.216E-02    0.196E-02
DAV:  14    -0.669808958281E+03   -0.60907E-03   -0.47827E-06 21684   0.593E-02    0.154E-02
DAV:  15    -0.669809760257E+03   -0.80198E-03   -0.29907E-05 27768   0.817E-02    0.140E-02
DAV:  16    -0.669810067997E+03   -0.30774E-03   -0.49772E-05 29592   0.319E-02    0.131E-02
DAV:  17    -0.669810244027E+03   -0.17603E-03   -0.80743E-06 19968   0.171E-02    0.129E-02
DAV:  18    -0.669810708423E+03   -0.46440E-03   -0.33885E-06 19704   0.464E-02    0.923E-03
DAV:  19    -0.669811504803E+03   -0.79638E-03   -0.28007E-05 27648   0.868E-02    0.745E-03
DAV:  20    -0.669811875836E+03   -0.37103E-03   -0.53470E-05 34680   0.426E-02    0.638E-03
DAV:  21    -0.669811950827E+03   -0.74991E-04   -0.20123E-05 24300   0.135E-02    0.542E-03
DAV:  22    -0.669812060098E+03   -0.10927E-03   -0.89409E-07 17964   0.145E-02    0.405E-03
DAV:  23    -0.669812204275E+03   -0.14418E-03   -0.20523E-06 19344   0.263E-02    0.350E-03
DAV:  24    -0.669812270905E+03   -0.66631E-04   -0.43149E-06 19692   0.214E-02    0.311E-03
DAV:  25    -0.669812308607E+03   -0.37701E-04   -0.69057E-06 18324   0.956E-03    0.318E-03
DAV:  26    -0.669812309263E+03   -0.65607E-06   -0.24348E-06 17928   0.568E-03
  12 F= -.66981231E+03 E0= -.66981231E+03  d E =0.300489E-01  mag=     2.0000
       N       E                     dE             d eps       ncg     rms          rms(c)
DAV:   1    -0.669335329348E+03    0.47698E+00   -0.17187E+01 45552   0.391E+01    0.195E+00
DAV:   2    -0.669864011313E+03   -0.52868E+00   -0.55563E+00 38340   0.513E+00    0.113E+00
DAV:   3    -0.669868488895E+03   -0.44776E-02   -0.11456E-01 36540   0.142E+00    0.793E-01
DAV:   4    -0.669867051872E+03    0.14370E-02   -0.14147E-02 38100   0.920E-01    0.584E-01
DAV:   5    -0.669866009126E+03    0.10427E-02   -0.92569E-03 44532   0.612E-01    0.207E-01
DAV:   6    -0.669865997978E+03    0.11148E-04   -0.39672E-03 37740   0.283E-01    0.138E-01
DAV:   7    -0.669866059148E+03   -0.61170E-04   -0.11304E-03 37344   0.178E-01    0.877E-02
DAV:   8    -0.669865978568E+03    0.80580E-04   -0.26982E-04 36648   0.960E-02    0.495E-02
DAV:   9    -0.669865897619E+03    0.80950E-04   -0.50540E-05 32856   0.485E-02    0.316E-02
DAV:  10    -0.669865857537E+03    0.40082E-04   -0.23056E-05 25368   0.447E-02    0.166E-02
DAV:  11    -0.669865803390E+03    0.54147E-04   -0.21074E-05 21288   0.262E-02    0.137E-02
DAV:  12    -0.669865788225E+03    0.15165E-04   -0.11200E-05 18624   0.136E-02    0.123E-02
DAV:  13    -0.669865772080E+03    0.16145E-04   -0.17300E-06 18504   0.112E-02    0.108E-02
DAV:  14    -0.669865692708E+03    0.79372E-04   -0.33815E-06 21180   0.519E-02    0.851E-03
DAV:  15    -0.669865611299E+03    0.81409E-04   -0.16574E-05 22572   0.559E-02    0.827E-03
DAV:  16    -0.669865590842E+03    0.20457E-04   -0.23982E-05 24384   0.253E-02    0.810E-03
DAV:  17    -0.669865594822E+03   -0.39806E-05   -0.13676E-05 22512   0.121E-02
  13 F= -.66986559E+03 E0= -.66986559E+03  d E =-.532856E-01  mag=     2.0000
       N       E                     dE             d eps       ncg     rms          rms(c)
DAV:   1    -0.669832621653E+03    0.32969E-01   -0.15067E+00 45888   0.101E+01    0.498E-01
DAV:   2    -0.669868187750E+03   -0.35566E-01   -0.38214E-01 37224   0.135E+00    0.267E-01
DAV:   3    -0.669868183339E+03    0.44105E-05   -0.52889E-03 38892   0.226E-01    0.182E-01
DAV:   4    -0.669868063974E+03    0.11936E-03   -0.54688E-04 38760   0.169E-01    0.125E-01
DAV:   5    -0.669867965591E+03    0.98384E-04   -0.46723E-04 39636   0.177E-01    0.453E-02
DAV:   6    -0.669867964300E+03    0.12905E-05   -0.22106E-04 37188   0.783E-02    0.309E-02
DAV:   7    -0.669867973010E+03   -0.87097E-05   -0.55574E-05 31752   0.313E-02
  14 F= -.66986797E+03 E0= -.66986797E+03  d E =-.237819E-02  mag=     2.0000
       N       E                     dE             d eps       ncg     rms          rms(c)
DAV:   1    -0.666425549669E+03    0.34424E+01   -0.13105E+02 45792   0.986E+01    0.524E+00
DAV:   2    -0.669882959689E+03   -0.34574E+01   -0.35766E+01 37752   0.131E+01    0.274E+00
DAV:   3    -0.669885385372E+03   -0.24257E-02   -0.47854E-01 37584   0.241E+00    0.188E+00
DAV:   4    -0.669880386603E+03    0.49988E-02   -0.61067E-02 38484   0.156E+00    0.145E+00
DAV:   5    -0.669871558841E+03    0.88278E-02   -0.38748E-02 38568   0.155E+00    0.658E-01
DAV:   6    -0.669872994356E+03   -0.14355E-02   -0.24606E-02 38016   0.896E-01    0.322E-01
DAV:   7    -0.669872982766E+03    0.11591E-04   -0.68151E-03 36600   0.385E-01    0.198E-01
DAV:   8    -0.669872704493E+03    0.27827E-03   -0.14043E-03 36372   0.159E-01    0.132E-01
DAV:   9    -0.669872425827E+03    0.27867E-03   -0.23991E-04 36816   0.126E-01    0.831E-02
DAV:  10    -0.669872284275E+03    0.14155E-03   -0.23419E-04 41208   0.121E-01    0.399E-02
DAV:  11    -0.669872111136E+03    0.17314E-03   -0.12347E-04 38028   0.622E-02    0.288E-02
DAV:  12    -0.669872057391E+03    0.53745E-04   -0.37464E-05 29052   0.279E-02    0.237E-02
DAV:  13    -0.669872021839E+03    0.35553E-04   -0.65164E-06 18576   0.168E-02    0.203E-02
DAV:  14    -0.669871820758E+03    0.20108E-03   -0.69786E-06 22776   0.742E-02    0.154E-02
DAV:  15    -0.669871621472E+03    0.19929E-03   -0.41888E-05 30960   0.880E-02    0.148E-02
DAV:  16    -0.669871578694E+03    0.42777E-04   -0.53384E-05 32304   0.293E-02    0.143E-02
DAV:  17    -0.669871590932E+03   -0.12238E-04   -0.11139E-05 21156   0.153E-02    0.152E-02
DAV:  18    -0.669871550809E+03    0.40123E-04   -0.49290E-06 20040   0.336E-02    0.141E-02
DAV:  19    -0.669871424508E+03    0.12630E-03   -0.45577E-05 29448   0.130E-01    0.107E-02
DAV:  20    -0.669871449283E+03   -0.24774E-04   -0.64468E-05 38628   0.508E-02    0.979E-03
DAV:  21    -0.669871445874E+03    0.34084E-05   -0.13869E-05 22680   0.272E-02
  15 F= -.66987145E+03 E0= -.66987145E+03  d E =-.347286E-02  mag=     2.0000
       N       E                     dE             d eps       ncg     rms          rms(c)
DAV:   1    -0.668942332610E+03    0.92912E+00   -0.28162E+01 46632   0.527E+01    0.264E+00
DAV:   2    -0.669880617505E+03   -0.93828E+00   -0.97367E+00 37416   0.666E+00    0.141E+00
DAV:   3    -0.669884466159E+03   -0.38487E-02   -0.13707E-01 38160   0.125E+00    0.961E-01
DAV:   4    -0.669883794602E+03    0.67156E-03   -0.16492E-02 38316   0.946E-01    0.719E-01
DAV:   5    -0.669881743204E+03    0.20514E-02   -0.11193E-02 38268   0.883E-01    0.293E-01
DAV:   6    -0.669882322714E+03   -0.57951E-03   -0.61047E-03 37572   0.423E-01    0.161E-01
DAV:   7    -0.669882191165E+03    0.13155E-03   -0.14007E-03 36948   0.183E-01    0.997E-02
DAV:   8    -0.669882081507E+03    0.10966E-03   -0.31879E-04 36192   0.846E-02    0.642E-02
DAV:   9    -0.669881957786E+03    0.12372E-03   -0.55943E-05 34992   0.554E-02    0.393E-02
DAV:  10    -0.669881892673E+03    0.65113E-04   -0.55453E-05 34356   0.581E-02    0.216E-02
DAV:  11    -0.669881806959E+03    0.85714E-04   -0.34527E-05 28632   0.306E-02    0.159E-02
DAV:  12    -0.669881779694E+03    0.27265E-04   -0.81231E-06 18492   0.120E-02    0.130E-02
DAV:  13    -0.669881742957E+03    0.36737E-04   -0.11979E-06 18432   0.150E-02    0.110E-02
DAV:  14    -0.669881590915E+03    0.15204E-03   -0.44012E-06 21648   0.505E-02    0.981E-03
DAV:  15    -0.669881463353E+03    0.12756E-03   -0.13002E-05 21180   0.473E-02    0.891E-03
DAV:  16    -0.669881428455E+03    0.34898E-04   -0.22719E-05 25692   0.172E-02    0.891E-03
DAV:  17    -0.669881415820E+03    0.12635E-04   -0.60578E-06 18156   0.652E-03    0.854E-03
DAV:  18    -0.669881397466E+03    0.18353E-04   -0.35352E-07 18048   0.966E-03    0.732E-03
DAV:  19    -0.669881302050E+03    0.95417E-04   -0.46477E-06 20040   0.490E-02    0.541E-03
DAV:  20    -0.669881170785E+03    0.13127E-03   -0.19585E-05 25260   0.657E-02    0.661E-03
DAV:  21    -0.669881186490E+03   -0.15705E-04   -0.24048E-05 26568   0.161E-02    0.326E-03
DAV:  22    -0.669881187825E+03   -0.13350E-05   -0.97998E-07 17808   0.418E-03
  16 F= -.66988119E+03 E0= -.66988119E+03  d E =-.974195E-02  mag=     2.0000
       N       E                     dE             d eps       ncg     rms          rms(c)
DAV:   1    -0.667263388286E+03    0.26178E+01   -0.93108E+01 45900   0.865E+01    0.452E+00
DAV:   2    -0.669879375708E+03   -0.26160E+01   -0.27101E+01 36816   0.114E+01    0.237E+00
DAV:   3    -0.669890928315E+03   -0.11553E-01   -0.44709E-01 37116   0.230E+00    0.163E+00
DAV:   4    -0.669887895794E+03    0.30325E-02   -0.54080E-02 38832   0.151E+00    0.123E+00
DAV:   5    -0.669881814665E+03    0.60811E-02   -0.29938E-02 39696   0.136E+00    0.463E-01
DAV:   6    -0.669883264254E+03   -0.14496E-02   -0.16778E-02 37476   0.714E-01    0.272E-01
DAV:   7    -0.669883196504E+03    0.67751E-04   -0.48992E-03 36504   0.334E-01    0.166E-01
DAV:   8    -0.669883007210E+03    0.18929E-03   -0.81976E-04 37812   0.127E-01    0.108E-01
DAV:   9    -0.669882662954E+03    0.34426E-03   -0.19333E-04 36780   0.103E-01    0.683E-02
DAV:  10    -0.669882527649E+03    0.13531E-03   -0.16556E-04 39780   0.952E-02    0.320E-02
DAV:  11    -0.669882351599E+03    0.17605E-03   -0.75502E-05 33792   0.472E-02    0.238E-02
DAV:  12    -0.669882272654E+03    0.78945E-04   -0.18988E-05 22512   0.214E-02    0.195E-02
DAV:  13    -0.669882193349E+03    0.79305E-04   -0.44721E-06 18576   0.166E-02    0.164E-02
DAV:  14    -0.669881869880E+03    0.32347E-03   -0.57327E-06 21564   0.567E-02    0.130E-02
DAV:  15    -0.669881576723E+03    0.29316E-03   -0.19699E-05 24384   0.541E-02    0.121E-02
DAV:  16    -0.669881478899E+03    0.97824E-04   -0.28971E-05 27012   0.205E-02    0.120E-02
DAV:  17    -0.669881454595E+03    0.24303E-04   -0.77164E-06 19584   0.716E-03    0.119E-02
DAV:  18    -0.669881432201E+03    0.22394E-04   -0.33769E-07 18000   0.521E-03    0.111E-02
DAV:  19    -0.669881026594E+03    0.40561E-03   -0.16024E-05 24684   0.853E-02    0.947E-03
DAV:  20    -0.669880542222E+03    0.48437E-03   -0.61517E-05 34908   0.101E-01    0.981E-03
DAV:  21    -0.669880439209E+03    0.10301E-03   -0.56983E-05 31092   0.263E-02    0.588E-03
DAV:  22    -0.669880380356E+03    0.58853E-04   -0.32855E-06 18792   0.124E-02    0.470E-03
DAV:  23    -0.669880275450E+03    0.10491E-03   -0.15579E-06 18168   0.240E-02    0.442E-03
DAV:  24    -0.669880220397E+03    0.55053E-04   -0.40751E-06 18900   0.204E-02    0.393E-03
DAV:  25    -0.669880226233E+03   -0.58357E-05   -0.59608E-06 18864   0.849E-03
  17 F= -.66988023E+03 E0= -.66988023E+03  d E =0.961592E-03  mag=     2.0000
       N       E                     dE             d eps       ncg     rms          rms(c)
DAV:   1    -0.668588538038E+03    0.12917E+01   -0.22689E+01 48312   0.619E+01    0.313E+00
DAV:   2    -0.669838426755E+03   -0.12499E+01   -0.12675E+01 38868   0.748E+00    0.182E+00
DAV:   3    -0.669854289670E+03   -0.15863E-01   -0.25867E-01 36696   0.235E+00    0.129E+00
DAV:   4    -0.669852445569E+03    0.18441E-02   -0.31834E-02 37560   0.141E+00    0.945E-01
DAV:   5    -0.669851895839E+03    0.54973E-03   -0.16163E-02 39936   0.858E-01    0.498E-01
DAV:   6    -0.669851820473E+03    0.75367E-04   -0.94686E-03 36912   0.707E-01    0.226E-01
DAV:   7    -0.669851640335E+03    0.18014E-03   -0.28835E-03 36756   0.342E-01    0.116E-01
DAV:   8    -0.669851563167E+03    0.77168E-04   -0.88325E-04 36744   0.150E-01    0.744E-02
DAV:   9    -0.669851454395E+03    0.10877E-03   -0.16778E-04 37128   0.835E-02    0.510E-02
DAV:  10    -0.669851270474E+03    0.18392E-03   -0.56643E-05 35112   0.585E-02    0.329E-02
DAV:  11    -0.669851155048E+03    0.11543E-03   -0.31304E-05 30480   0.440E-02    0.218E-02
DAV:  12    -0.669851034917E+03    0.12013E-03   -0.17588E-05 21972   0.236E-02    0.195E-02
DAV:  13    -0.669850958771E+03    0.76146E-04   -0.61346E-06 18552   0.157E-02    0.175E-02
DAV:  14    -0.669850676632E+03    0.28214E-03   -0.89034E-06 22152   0.530E-02    0.145E-02
DAV:  15    -0.669850298781E+03    0.37785E-03   -0.35347E-05 28704   0.712E-02    0.135E-02
DAV:  16    -0.669850038774E+03    0.26001E-03   -0.47601E-05 33348   0.481E-02    0.126E-02
DAV:  17    -0.669849808850E+03    0.22992E-03   -0.16180E-05 21900   0.402E-02    0.108E-02
DAV:  18    -0.669849316586E+03    0.49226E-03   -0.39423E-05 28320   0.853E-02    0.925E-03
DAV:  19    -0.669849122676E+03    0.19391E-03   -0.73553E-05 35004   0.364E-02    0.712E-03
DAV:  20    -0.669849013617E+03    0.10906E-03   -0.12831E-05 21492   0.179E-02    0.640E-03
DAV:  21    -0.669848887413E+03    0.12620E-03   -0.26635E-06 18024   0.197E-02    0.549E-03
DAV:  22    -0.669848724342E+03    0.16307E-03   -0.56697E-06 19524   0.250E-02    0.539E-03
DAV:  23    -0.669848679793E+03    0.44549E-04   -0.12052E-05 21432   0.116E-02    0.445E-03
DAV:  24    -0.669848654831E+03    0.24963E-04   -0.23094E-06 18264   0.530E-03    0.399E-03
DAV:  25    -0.669848628931E+03    0.25900E-04   -0.46842E-07 17784   0.627E-03    0.322E-03
DAV:  26    -0.669848551589E+03    0.77342E-04   -0.16518E-06 18060   0.146E-02    0.276E-03
DAV:  27    -0.669848518351E+03    0.33237E-04   -0.20007E-06 18684   0.913E-03    0.239E-03
DAV:  28    -0.669848501345E+03    0.17006E-04   -0.17524E-06 17880   0.495E-03    0.230E-03
DAV:  29    -0.669848499802E+03    0.15436E-05   -0.71834E-07 17964   0.289E-03
  18 F= -.66984850E+03 E0= -.66984850E+03  d E =0.317264E-01  mag=     2.0000
       N       E                     dE             d eps       ncg     rms          rms(c)
DAV:   1    -0.668168721781E+03    0.16798E+01   -0.33502E+01 46884   0.707E+01    0.375E+00
DAV:   2    -0.669856572981E+03   -0.16879E+01   -0.17266E+01 38640   0.871E+00    0.221E+00
DAV:   3    -0.669878441139E+03   -0.21868E-01   -0.40222E-01 37104   0.283E+00    0.153E+00
DAV:   4    -0.669875128918E+03    0.33122E-02   -0.51336E-02 37536   0.169E+00    0.113E+00
DAV:   5    -0.669871992901E+03    0.31360E-02   -0.22182E-02 39168   0.984E-01    0.644E-01
DAV:   6    -0.669872494452E+03   -0.50155E-03   -0.13377E-02 37200   0.847E-01    0.280E-01
DAV:   7    -0.669872421957E+03    0.72495E-04   -0.47504E-03 37332   0.460E-01    0.148E-01
DAV:   8    -0.669872530342E+03   -0.10839E-03   -0.14615E-03 36588   0.195E-01    0.885E-02
DAV:   9    -0.669872462507E+03    0.67835E-04   -0.25190E-04 36816   0.963E-02    0.603E-02
DAV:  10    -0.669872501292E+03   -0.38785E-04   -0.79012E-05 36732   0.681E-02    0.330E-02
DAV:  11    -0.669872462536E+03    0.38755E-04   -0.42181E-05 32580   0.453E-02    0.217E-02
DAV:  12    -0.669872458224E+03    0.43120E-05   -0.22459E-05 23292   0.269E-02
  19 F= -.66987246E+03 E0= -.66987246E+03  d E =-.239584E-01  mag=     2.0000
       N       E                     dE             d eps       ncg     rms          rms(c)
DAV:   1    -0.669589716615E+03    0.28275E+00   -0.10873E+01 45960   0.294E+01    0.144E+00
DAV:   2    -0.669885157939E+03   -0.29544E+00   -0.31212E+00 37860   0.383E+00    0.775E-01
DAV:   3    -0.669885004094E+03    0.15385E-03   -0.36586E-02 38136   0.656E-01    0.529E-01
DAV:   4    -0.669884695181E+03    0.30891E-03   -0.49244E-03 38196   0.553E-01    0.393E-01
DAV:   5    -0.669883928710E+03    0.76647E-03   -0.38180E-03 38256   0.531E-01    0.158E-01
DAV:   6    -0.669884330550E+03   -0.40184E-03   -0.20056E-03 37956   0.228E-01    0.886E-02
DAV:   7    -0.669884310072E+03    0.20479E-04   -0.41546E-04 36792   0.979E-02    0.590E-02
DAV:   8    -0.669884313868E+03   -0.37959E-05   -0.87020E-05 35232   0.469E-02
  20 F= -.66988431E+03 E0= -.66988431E+03  d E =-.118556E-01  mag=     2.0000
       N       E                     dE             d eps       ncg     rms          rms(c)
DAV:   1    -0.665231296336E+03    0.46530E+01   -0.13346E+02 45900   0.114E+02    0.631E+00
DAV:   2    -0.669821795646E+03   -0.45905E+01   -0.46872E+01 37608   0.148E+01    0.337E+00
DAV:   3    -0.669856262728E+03   -0.34467E-01   -0.88511E-01 36864   0.389E+00    0.235E+00
DAV:   4    -0.669850417783E+03    0.58449E-02   -0.11059E-01 38004   0.239E+00    0.180E+00
DAV:   5    -0.669847140798E+03    0.32770E-02   -0.56257E-02 39816   0.173E+00    0.853E-01
DAV:   6    -0.669847767356E+03   -0.62656E-03   -0.35063E-02 37752   0.114E+00    0.427E-01
DAV:   7    -0.669848130605E+03   -0.36325E-03   -0.96750E-03 36396   0.537E-01    0.235E-01
DAV:   8    -0.669848372296E+03   -0.24169E-03   -0.25198E-03 36252   0.245E-01    0.152E-01
DAV:   9    -0.669848352460E+03    0.19836E-04   -0.51324E-04 36816   0.156E-01    0.966E-02
DAV:  10    -0.669848807708E+03   -0.45525E-03   -0.23132E-04 40236   0.107E-01    0.397E-02
DAV:  11    -0.669848986290E+03   -0.17858E-03   -0.12553E-04 36372   0.565E-02    0.285E-02
DAV:  12    -0.669849111228E+03   -0.12494E-03   -0.39354E-05 29712   0.304E-02    0.214E-02
DAV:  13    -0.669849227571E+03   -0.11634E-03   -0.64126E-06 18612   0.196E-02    0.170E-02
DAV:  14    -0.669849614309E+03   -0.38674E-03   -0.36573E-06 20544   0.465E-02    0.131E-02
DAV:  15    -0.669850082857E+03   -0.46855E-03   -0.16319E-05 22812   0.597E-02    0.116E-02
DAV:  16    -0.669850233677E+03   -0.15082E-03   -0.31851E-05 27756   0.206E-02    0.116E-02
DAV:  17    -0.669850217174E+03    0.16503E-04   -0.75493E-06 20124   0.988E-03    0.117E-02
DAV:  18    -0.669850165324E+03    0.51850E-04   -0.28139E-07 18180   0.721E-03    0.125E-02
DAV:  19    -0.669850800766E+03   -0.63544E-03   -0.24014E-05 25224   0.896E-02    0.943E-03
DAV:  20    -0.669851439630E+03   -0.63886E-03   -0.45481E-05 31536   0.931E-02    0.105E-02
DAV:  21    -0.669851424524E+03    0.15106E-04   -0.46647E-05 29040   0.190E-02    0.736E-03
DAV:  22    -0.669851477398E+03   -0.52874E-04   -0.69401E-07 17964   0.107E-02    0.635E-03
DAV:  23    -0.669851557964E+03   -0.80566E-04   -0.20874E-06 18072   0.254E-02    0.440E-03
DAV:  24    -0.669851538435E+03    0.19529E-04   -0.42525E-06 17892   0.981E-03    0.354E-03
DAV:  25    -0.669851540196E+03   -0.17613E-05   -0.23422E-06 17808   0.418E-03
  21 F= -.66985154E+03 E0= -.66985154E+03  d E =0.327737E-01  mag=     2.0000
       N       E                     dE             d eps       ncg     rms          rms(c)
DAV:   1    -0.668959804868E+03    0.89173E+00   -0.16842E+01 46752   0.535E+01    0.273E+00
DAV:   2    -0.669887643623E+03   -0.92784E+00   -0.95014E+00 38004   0.643E+00    0.159E+00
DAV:   3    -0.669901583085E+03   -0.13939E-01   -0.23147E-01 37896   0.211E+00    0.112E+00
DAV:   4    -0.669899802602E+03    0.17805E-02   -0.25602E-02 37272   0.126E+00    0.823E-01
DAV:   5    -0.669897637480E+03    0.21651E-02   -0.13525E-02 39732   0.759E-01    0.442E-01
DAV:   6    -0.669897747008E+03   -0.10953E-03   -0.71428E-03 37776   0.614E-01    0.206E-01
DAV:   7    -0.669897328825E+03    0.41818E-03   -0.25596E-03 36960   0.336E-01    0.108E-01
DAV:   8    -0.669897171903E+03    0.15692E-03   -0.77072E-04 36564   0.139E-01    0.629E-02
DAV:   9    -0.669896917540E+03    0.25436E-03   -0.11867E-04 35316   0.675E-02    0.437E-02
DAV:  10    -0.669896608765E+03    0.30878E-03   -0.44168E-05 35508   0.534E-02    0.255E-02
DAV:  11    -0.669896317693E+03    0.29107E-03   -0.19424E-05 22272   0.369E-02    0.175E-02
DAV:  12    -0.669896163953E+03    0.15374E-03   -0.17177E-05 20508   0.221E-02    0.160E-02
DAV:  13    -0.669896038512E+03    0.12544E-03   -0.57780E-06 18576   0.142E-02    0.134E-02
DAV:  14    -0.669895531436E+03    0.50708E-03   -0.37923E-06 21684   0.504E-02    0.966E-03
DAV:  15    -0.669895028592E+03    0.50284E-03   -0.16729E-05 22440   0.541E-02    0.936E-03
DAV:  16    -0.669894771799E+03    0.25679E-03   -0.25497E-05 25476   0.279E-02    0.874E-03
DAV:  17    -0.669894609982E+03    0.16182E-03   -0.92555E-06 18876   0.172E-02    0.855E-03
DAV:  18    -0.669894225609E+03    0.38437E-03   -0.35591E-06 20172   0.433E-02    0.664E-03
DAV:  19    -0.669893963550E+03    0.26206E-03   -0.11396E-05 20916   0.350E-02    0.510E-03
DAV:  20    -0.669893756546E+03    0.20700E-03   -0.10991E-05 20976   0.278E-02    0.424E-03
DAV:  21    -0.669893755465E+03    0.10814E-05   -0.22030E-05 26208   0.126E-02
  22 F= -.66989376E+03 E0= -.66989376E+03  d E =-.422153E-01  mag=     2.0000
       N       E                     dE             d eps       ncg     rms          rms(c)
DAV:   1    -0.669467542213E+03    0.42621E+00   -0.15218E+01 46092   0.352E+01    0.173E+00
DAV:   2    -0.669889414503E+03   -0.42187E+00   -0.44419E+00 37140   0.457E+00    0.927E-01
DAV:   3    -0.669890719521E+03   -0.13050E-02   -0.63455E-02 37800   0.811E-01    0.628E-01
DAV:   4    -0.669890453062E+03    0.26646E-03   -0.78368E-03 39168   0.609E-01    0.469E-01
DAV:   5    -0.669889355464E+03    0.10976E-02   -0.53134E-03 38748   0.606E-01    0.206E-01
DAV:   6    -0.669889873223E+03   -0.51776E-03   -0.27709E-03 37680   0.281E-01    0.107E-01
DAV:   7    -0.669889881591E+03   -0.83680E-05   -0.64648E-04 37428   0.121E-01    0.714E-02
DAV:   8    -0.669889889663E+03   -0.80722E-05   -0.14998E-04 35616   0.614E-02    0.482E-02
DAV:   9    -0.669889933848E+03   -0.44184E-04   -0.26036E-05 27072   0.440E-02    0.314E-02
DAV:  10    -0.669890060529E+03   -0.12668E-03   -0.32403E-05 30096   0.446E-02    0.173E-02
DAV:  11    -0.669890076034E+03   -0.15505E-04   -0.22527E-05 22464   0.232E-02    0.136E-02
DAV:  12    -0.669890094882E+03   -0.18848E-04   -0.72257E-06 18216   0.110E-02    0.115E-02
DAV:  13    -0.669890134360E+03   -0.39478E-04   -0.10608E-06 18084   0.107E-02    0.101E-02
DAV:  14    -0.669890308990E+03   -0.17463E-03   -0.56569E-06 20760   0.545E-02    0.884E-03
DAV:  15    -0.669890455442E+03   -0.14645E-03   -0.13478E-05 21660   0.435E-02    0.871E-03
DAV:  16    -0.669890484498E+03   -0.29056E-04   -0.21589E-05 25824   0.120E-02    0.954E-03
DAV:  17    -0.669890461077E+03    0.23420E-04   -0.20843E-06 18408   0.990E-03    0.101E-02
DAV:  18    -0.669890387846E+03    0.73231E-04   -0.13498E-06 18396   0.220E-02    0.136E-02
DAV:  19    -0.669890523412E+03   -0.13557E-03   -0.39687E-06 19716   0.428E-02    0.819E-03
DAV:  20    -0.669890841065E+03   -0.31765E-03   -0.28094E-05 26940   0.955E-02    0.710E-03
DAV:  21    -0.669890983957E+03   -0.14289E-03   -0.37975E-05 30300   0.407E-02    0.633E-03
DAV:  22    -0.669890995869E+03   -0.11912E-04   -0.18326E-05 25752   0.109E-02    0.508E-03
DAV:  23    -0.669890996566E+03   -0.69714E-06   -0.49226E-07 17604   0.204E-03
  23 F= -.66989100E+03 E0= -.66989100E+03  d E =0.275890E-02  mag=     2.0000
       N       E                     dE             d eps       ncg     rms          rms(c)
DAV:   1    -0.662151369746E+03    0.77396E+01   -0.26872E+02 45828   0.145E+02    0.844E+00
DAV:   2    -0.669817236560E+03   -0.76659E+01   -0.77652E+01 37044   0.194E+01    0.435E+00
DAV:   3    -0.669866676702E+03   -0.49440E-01   -0.15152E+00 36576   0.476E+00    0.299E+00
DAV:   4    -0.669859672414E+03    0.70043E-02   -0.21233E-01 39408   0.274E+00    0.235E+00
DAV:   5    -0.669848101377E+03    0.11571E-01   -0.78695E-02 39648   0.225E+00    0.106E+00
DAV:   6    -0.669849899803E+03   -0.17984E-02   -0.55616E-02 37608   0.145E+00    0.543E-01
DAV:   7    -0.669850867006E+03   -0.96720E-03   -0.17694E-02 36192   0.679E-01    0.292E-01
DAV:   8    -0.669851010979E+03   -0.14397E-03   -0.34758E-03 36900   0.261E-01    0.193E-01
DAV:   9    -0.669850961511E+03    0.49468E-04   -0.79513E-04 36804   0.206E-01    0.125E-01
DAV:  10    -0.669851574055E+03   -0.61254E-03   -0.45517E-04 38556   0.158E-01    0.559E-02
DAV:  11    -0.669851773871E+03   -0.19982E-03   -0.22893E-04 36420   0.842E-02    0.370E-02
DAV:  12    -0.669851942276E+03   -0.16841E-03   -0.63532E-05 32544   0.414E-02    0.272E-02
DAV:  13    -0.669852104240E+03   -0.16196E-03   -0.13227E-05 18936   0.248E-02    0.212E-02
DAV:  14    -0.669852576949E+03   -0.47271E-03   -0.45983E-06 21420   0.515E-02    0.165E-02
DAV:  15    -0.669853218125E+03   -0.64118E-03   -0.24751E-05 26772   0.728E-02    0.152E-02
DAV:  16    -0.669853409049E+03   -0.19092E-03   -0.45022E-05 28944   0.236E-02    0.151E-02
DAV:  17    -0.669853384181E+03    0.24869E-04   -0.82166E-06 20400   0.106E-02    0.154E-02
DAV:  18    -0.669853439733E+03   -0.55553E-04   -0.77989E-07 18084   0.773E-03    0.153E-02
DAV:  19    -0.669854064378E+03   -0.62465E-03   -0.16115E-05 23388   0.752E-02    0.123E-02
DAV:  20    -0.669854983986E+03   -0.91961E-03   -0.57124E-05 35136   0.112E-01    0.116E-02
DAV:  21    -0.669855358944E+03   -0.37496E-03   -0.68886E-05 38088   0.478E-02    0.888E-03
DAV:  22    -0.669855502879E+03   -0.14394E-03   -0.19016E-05 22632   0.192E-02    0.770E-03
DAV:  23    -0.669855683530E+03   -0.18065E-03   -0.16410E-06 17892   0.227E-02    0.668E-03
DAV:  24    -0.669855770102E+03   -0.86572E-04   -0.52159E-06 18132   0.215E-02    0.437E-03
DAV:  25    -0.669855643744E+03    0.12636E-03   -0.11264E-05 20496   0.159E-02    0.333E-03
DAV:  26    -0.669855619044E+03    0.24701E-04   -0.14475E-06 17820   0.405E-03    0.332E-03
DAV:  27    -0.669855616654E+03    0.23895E-05   -0.22373E-07 17808   0.144E-03
  24 F= -.66985562E+03 E0= -.66985562E+03  d E =0.353799E-01  mag=     2.0000
       N       E                     dE             d eps       ncg     rms          rms(c)
DAV:   1    -0.668401667140E+03    0.14540E+01   -0.29798E+01 46368   0.662E+01    0.345E+00
DAV:   2    -0.669858426492E+03   -0.14568E+01   -0.14923E+01 37668   0.814E+00    0.197E+00
DAV:   3    -0.669878683225E+03   -0.20257E-01   -0.34976E-01 38016   0.247E+00    0.139E+00
DAV:   4    -0.669876083863E+03    0.25994E-02   -0.36595E-02 37800   0.151E+00    0.104E+00
DAV:   5    -0.669873350965E+03    0.27329E-02   -0.19527E-02 39204   0.966E-01    0.559E-01
DAV:   6    -0.669873827092E+03   -0.47613E-03   -0.11527E-02 38472   0.749E-01    0.251E-01
DAV:   7    -0.669873657257E+03    0.16983E-03   -0.40122E-03 36972   0.401E-01    0.139E-01
DAV:   8    -0.669873716335E+03   -0.59078E-04   -0.12197E-03 36528   0.165E-01    0.834E-02
DAV:   9    -0.669873647074E+03    0.69261E-04   -0.18940E-04 37200   0.878E-02    0.588E-02
DAV:  10    -0.669873652841E+03   -0.57670E-05   -0.65269E-05 37380   0.691E-02
  25 F= -.66987365E+03 E0= -.66987365E+03  d E =-.180362E-01  mag=     2.0000
       N       E                     dE             d eps       ncg     rms          rms(c)
DAV:   1    -0.669778922783E+03    0.94724E-01   -0.37272E+00 45696   0.171E+01    0.840E-01
DAV:   2    -0.669880297406E+03   -0.10137E+00   -0.10745E+00 37692   0.226E+00    0.464E-01
DAV:   3    -0.669880530240E+03   -0.23283E-03   -0.16179E-02 36816   0.500E-01    0.324E-01
DAV:   4    -0.669880253254E+03    0.27699E-03   -0.23243E-03 38160   0.374E-01    0.242E-01
DAV:   5    -0.669879881113E+03    0.37214E-03   -0.14158E-03 41016   0.295E-01    0.777E-02
DAV:   6    -0.669879783346E+03    0.97767E-04   -0.71396E-04 37944   0.115E-01    0.553E-02
DAV:   7    -0.669879748262E+03    0.35084E-04   -0.17779E-04 36540   0.664E-02    0.366E-02
DAV:   8    -0.669879672899E+03    0.75363E-04   -0.30600E-05 29280   0.345E-02    0.237E-02
DAV:   9    -0.669879549192E+03    0.12371E-03   -0.62217E-06 19260   0.249E-02    0.149E-02
DAV:  10    -0.669879412135E+03    0.13706E-03   -0.77592E-06 21048   0.315E-02    0.105E-02
DAV:  11    -0.669879359436E+03    0.52699E-04   -0.14716E-05 19428   0.126E-02    0.114E-02
DAV:  12    -0.669879359472E+03   -0.35798E-07   -0.33539E-06 18000   0.542E-03
  26 F= -.66987936E+03 E0= -.66987936E+03  d E =-.570663E-02  mag=     2.0000
       N       E                     dE             d eps       ncg     rms          rms(c)
DAV:   1    -0.666926866469E+03    0.29525E+01   -0.10957E+02 45864   0.916E+01    0.480E+00
DAV:   2    -0.669874662517E+03   -0.29478E+01   -0.30591E+01 37356   0.121E+01    0.250E+00
DAV:   3    -0.669881244827E+03   -0.65823E-02   -0.42537E-01 36684   0.216E+00    0.170E+00
DAV:   4    -0.669877135073E+03    0.41098E-02   -0.54239E-02 39408   0.136E+00    0.126E+00
DAV:   5    -0.669871086060E+03    0.60490E-02   -0.32225E-02 39600   0.137E+00    0.457E-01
DAV:   6    -0.669872134186E+03   -0.10481E-02   -0.17116E-02 37800   0.687E-01    0.281E-01
DAV:   7    -0.669872176693E+03   -0.42507E-04   -0.48107E-03 36312   0.338E-01    0.174E-01
DAV:   8    -0.669871837477E+03    0.33922E-03   -0.86439E-04 37044   0.128E-01    0.112E-01
DAV:   9    -0.669871473690E+03    0.36379E-03   -0.18824E-04 36756   0.924E-02    0.647E-02
DAV:  10    -0.669871142125E+03    0.33156E-03   -0.18079E-04 38100   0.923E-02    0.275E-02
DAV:  11    -0.669871009796E+03    0.13233E-03   -0.76855E-05 33936   0.483E-02    0.194E-02
DAV:  12    -0.669870901008E+03    0.10879E-03   -0.17168E-05 19200   0.187E-02    0.147E-02
DAV:  13    -0.669870806666E+03    0.94343E-04   -0.36067E-06 18384   0.124E-02    0.122E-02
DAV:  14    -0.669870458901E+03    0.34776E-03   -0.15494E-06 19980   0.352E-02    0.953E-03
DAV:  15    -0.669870061954E+03    0.39695E-03   -0.73130E-06 20052   0.421E-02    0.883E-03
DAV:  16    -0.669869918495E+03    0.14346E-03   -0.14414E-05 21252   0.159E-02    0.899E-03
DAV:  17    -0.669869970442E+03   -0.51947E-04   -0.69344E-06 18336   0.120E-02    0.922E-03
DAV:  18    -0.669870073241E+03   -0.10280E-03   -0.27046E-07 17928   0.108E-02    0.109E-02
DAV:  19    -0.669869307838E+03    0.76540E-03   -0.17437E-05 24468   0.843E-02    0.576E-03
DAV:  20    -0.669868790316E+03    0.51752E-03   -0.20090E-05 23040   0.588E-02    0.487E-03
DAV:  21    -0.669868676854E+03    0.11346E-03   -0.30736E-05 26724   0.164E-02    0.414E-03
DAV:  22    -0.669868584791E+03    0.92064E-04   -0.14530E-06 17784   0.893E-03    0.347E-03
DAV:  23    -0.669868487925E+03    0.96866E-04   -0.46399E-07 17736   0.102E-02    0.279E-03
DAV:  24    -0.669868365018E+03    0.12291E-03   -0.70874E-07 17640   0.164E-02    0.197E-03
DAV:  25    -0.669868363177E+03    0.18410E-05   -0.45907E-06 17808   0.638E-03
  27 F= -.66986836E+03 E0= -.66986836E+03  d E =0.109963E-01  mag=     2.0000
       N       E                     dE             d eps       ncg     rms          rms(c)
DAV:   1    -0.665590235255E+03    0.42781E+01   -0.15884E+02 45828   0.110E+02    0.588E+00
DAV:   2    -0.669868334554E+03   -0.42781E+01   -0.44012E+01 37764   0.145E+01    0.305E+00
DAV:   3    -0.669872743927E+03   -0.44094E-02   -0.56991E-01 37032   0.262E+00    0.209E+00
DAV:   4    -0.669867472841E+03    0.52711E-02   -0.72095E-02 38760   0.167E+00    0.161E+00
DAV:   5    -0.669858493981E+03    0.89789E-02   -0.46756E-02 38424   0.165E+00    0.754E-01
DAV:   6    -0.669860225914E+03   -0.17319E-02   -0.29121E-02 38160   0.101E+00    0.344E-01
DAV:   7    -0.669860550181E+03   -0.32427E-03   -0.82252E-03 36216   0.407E-01    0.212E-01
DAV:   8    -0.669860446697E+03    0.10348E-03   -0.16808E-03 36456   0.156E-01    0.138E-01
DAV:   9    -0.669860532255E+03   -0.85558E-04   -0.28077E-04 36768   0.131E-01    0.929E-02
DAV:  10    -0.669860795672E+03   -0.26342E-03   -0.28752E-04 37704   0.127E-01    0.473E-02
DAV:  11    -0.669860851973E+03   -0.56300E-04   -0.13271E-04 34836   0.655E-02    0.238E-02
DAV:  12    -0.669860912736E+03   -0.60763E-04   -0.38919E-05 28920   0.289E-02    0.177E-02
DAV:  13    -0.669860978830E+03   -0.66094E-04   -0.79433E-06 18396   0.164E-02    0.143E-02
DAV:  14    -0.669861173341E+03   -0.19451E-03   -0.15014E-06 18852   0.326E-02    0.103E-02
DAV:  15    -0.669861454508E+03   -0.28117E-03   -0.80563E-06 21276   0.481E-02    0.999E-03
DAV:  16    -0.669861538042E+03   -0.83534E-04   -0.16400E-05 21528   0.158E-02    0.106E-02
DAV:  17    -0.669861452983E+03    0.85059E-04   -0.72244E-06 19416   0.210E-02    0.132E-02
DAV:  18    -0.669861482674E+03   -0.29691E-04   -0.68448E-07 17964   0.673E-03    0.126E-02
DAV:  19    -0.669861798004E+03   -0.31533E-03   -0.76456E-06 20484   0.619E-02    0.768E-03
DAV:  20    -0.669862085863E+03   -0.28786E-03   -0.16171E-05 22152   0.591E-02    0.478E-03
DAV:  21    -0.669862232181E+03   -0.14632E-03   -0.24627E-05 22932   0.311E-02    0.396E-03
DAV:  22    -0.669862270388E+03   -0.38208E-04   -0.19099E-05 23760   0.120E-02    0.429E-03
DAV:  23    -0.669862287428E+03   -0.17040E-04   -0.23524E-06 17748   0.473E-03    0.318E-03
DAV:  24    -0.669862266753E+03    0.20675E-04   -0.58892E-07 17712   0.317E-03    0.302E-03
DAV:  25    -0.669862267957E+03   -0.12033E-05   -0.37320E-07 17712   0.139E-02
  28 F= -.66986227E+03 E0= -.66986227E+03  d E =0.609522E-02  mag=     2.0000
       N       E                     dE             d eps       ncg     rms          rms(c)
DAV:   1    -0.659635896943E+03    0.10226E+02   -0.27605E+02 46392   0.169E+02    0.104E+01
DAV:   2    -0.669694423245E+03   -0.10059E+02   -0.10142E+02 36504   0.218E+01    0.565E+00
DAV:   3    -0.669799632939E+03   -0.10521E+00   -0.25808E+00 36168   0.729E+00    0.393E+00
DAV:   4    -0.669780298467E+03    0.19334E-01   -0.36732E-01 38424   0.396E+00    0.299E+00
DAV:   5    -0.669766057419E+03    0.14241E-01   -0.10670E-01 37356   0.240E+00    0.180E+00
DAV:   6    -0.669762571261E+03    0.34862E-02   -0.83869E-02 36948   0.204E+00    0.637E-01
DAV:   7    -0.669763996162E+03   -0.14249E-02   -0.30729E-02 37344   0.890E-01    0.355E-01
DAV:   8    -0.669764344588E+03   -0.34843E-03   -0.80618E-03 36360   0.439E-01    0.234E-01
DAV:   9    -0.669764064264E+03    0.28032E-03   -0.14215E-03 36804   0.256E-01    0.153E-01
DAV:  10    -0.669764130253E+03   -0.65989E-04   -0.52461E-04 37932   0.157E-01    0.640E-02
DAV:  11    -0.669764093686E+03    0.36567E-04   -0.28690E-04 37020   0.828E-02    0.371E-02
DAV:  12    -0.669764082623E+03    0.11063E-04   -0.10317E-04 35472   0.466E-02    0.299E-02
DAV:  13    -0.669764090202E+03   -0.75782E-05   -0.21978E-05 22980   0.284E-02
  29 F= -.66976409E+03 E0= -.66976409E+03  d E =0.981778E-01  mag=     2.0000
       N       E                     dE             d eps       ncg     rms          rms(c)
DAV:   1    -0.669354965589E+03    0.40912E+00   -0.67498E+00 48588   0.395E+01    0.196E+00
DAV:   2    -0.669839263233E+03   -0.48430E+00   -0.49240E+00 39240   0.463E+00    0.120E+00
DAV:   3    -0.669846983301E+03   -0.77201E-02   -0.11796E-01 37956   0.168E+00    0.859E-01
DAV:   4    -0.669845865215E+03    0.11181E-02   -0.12586E-02 36732   0.907E-01    0.613E-01
DAV:   5    -0.669845278837E+03    0.58638E-03   -0.81095E-03 40176   0.566E-01    0.333E-01
DAV:   6    -0.669846181951E+03   -0.90311E-03   -0.44600E-03 37368   0.473E-01    0.164E-01
DAV:   7    -0.669846135538E+03    0.46413E-04   -0.13615E-03 37512   0.268E-01    0.788E-02
DAV:   8    -0.669846363968E+03   -0.22843E-03   -0.49809E-04 37620   0.995E-02    0.449E-02
DAV:   9    -0.669846531500E+03   -0.16753E-03   -0.69626E-05 35424   0.481E-02    0.314E-02
DAV:  10    -0.669846753174E+03   -0.22167E-03   -0.19623E-05 25416   0.444E-02    0.229E-02
DAV:  11    -0.669846974463E+03   -0.22129E-03   -0.14256E-05 22416   0.402E-02    0.168E-02
DAV:  12    -0.669847110361E+03   -0.13590E-03   -0.20773E-05 24588   0.234E-02    0.161E-02
DAV:  13    -0.669847168207E+03   -0.57846E-04   -0.11306E-05 20808   0.102E-02    0.146E-02
DAV:  14    -0.669847289594E+03   -0.12139E-03   -0.79499E-07 18276   0.188E-02    0.120E-02
DAV:  15    -0.669847737622E+03   -0.44803E-03   -0.11595E-05 24564   0.700E-02    0.112E-02
DAV:  16    -0.669848285298E+03   -0.54768E-03   -0.39547E-05 33384   0.851E-02    0.102E-02
DAV:  17    -0.669848437686E+03   -0.15239E-03   -0.47424E-05 31284   0.261E-02    0.937E-03
DAV:  18    -0.669848519456E+03   -0.81769E-04   -0.40942E-06 18972   0.133E-02    0.873E-03
DAV:  19    -0.669848749414E+03   -0.22996E-03   -0.18761E-06 18708   0.399E-02    0.671E-03
DAV:  20    -0.669848728465E+03    0.20949E-04   -0.94562E-06 20172   0.961E-03    0.448E-03
DAV:  21    -0.669848734230E+03   -0.57650E-05   -0.66010E-07 17892   0.717E-03
  30 F= -.66984873E+03 E0= -.66984873E+03  d E =-.846440E-01  mag=     2.0000
       N       E                     dE             d eps       ncg     rms          rms(c)
DAV:   1    -0.669793944059E+03    0.54784E-01   -0.11732E+00 47700   0.137E+01    0.666E-01
DAV:   2    -0.669855010031E+03   -0.61066E-01   -0.62583E-01 38412   0.168E+00    0.396E-01
DAV:   3    -0.669855855150E+03   -0.84512E-03   -0.14901E-02 36984   0.538E-01    0.281E-01
DAV:   4    -0.669855779074E+03    0.76076E-04   -0.17913E-03 37260   0.320E-01    0.207E-01
DAV:   5    -0.669855539769E+03    0.23930E-03   -0.97344E-04 40992   0.208E-01    0.959E-02
[...]
DAV:   5    -0.669417588692E+03    0.38242E-02   -0.21998E-02 39252   0.118E+00    0.459E-01
DAV:   6    -0.669418749158E+03   -0.11605E-02   -0.13702E-02 37656   0.641E-01    0.261E-01
DAV:   7    -0.669418427843E+03    0.32132E-03   -0.41632E-03 37308   0.329E-01    0.153E-01
DAV:   8    -0.669418358278E+03    0.69564E-04   -0.98491E-04 36288   0.135E-01    0.939E-02
DAV:   9    -0.669418249457E+03    0.10882E-03   -0.15342E-04 36912   0.795E-02    0.603E-02
DAV:  10    -0.669418230555E+03    0.18902E-04   -0.10115E-04 44976   0.868E-02    0.314E-02
DAV:  11    -0.669418159731E+03    0.70823E-04   -0.70553E-05 34080   0.489E-02    0.261E-02
DAV:  12    -0.669418150221E+03    0.95103E-05   -0.26074E-05 26964   0.244E-02
  43 F= -.66941815E+03 E0= -.66941815E+03  d E =0.233995E+00  mag=     2.0000
       N       E                     dE             d eps       ncg     rms          rms(c)
DAV:   1    -0.668270718752E+03    0.11474E+01   -0.14367E+01 47592   0.559E+01    0.283E+00
DAV:   2    -0.669279317102E+03   -0.10086E+01   -0.10236E+01 39036   0.660E+00    0.170E+00
DAV:   3    -0.669295246996E+03   -0.15930E-01   -0.25293E-01 38076   0.221E+00    0.120E+00
DAV:   4    -0.669293365630E+03    0.18814E-02   -0.27634E-02 36804   0.130E+00    0.862E-01
DAV:   5    -0.669292517249E+03    0.84838E-03   -0.15294E-02 38928   0.828E-01    0.467E-01
DAV:   6    -0.669293296672E+03   -0.77942E-03   -0.84531E-03 36948   0.653E-01    0.229E-01
DAV:   7    -0.669293162442E+03    0.13423E-03   -0.25043E-03 37152   0.324E-01    0.112E-01
DAV:   8    -0.669293329269E+03   -0.16683E-03   -0.88130E-04 37596   0.132E-01    0.688E-02
DAV:   9    -0.669293365843E+03   -0.36574E-04   -0.16736E-04 36840   0.732E-02    0.461E-02
DAV:  10    -0.669293505672E+03   -0.13983E-03   -0.32606E-05 31632   0.527E-02    0.308E-02
DAV:  11    -0.669293619675E+03   -0.11400E-03   -0.19994E-05 25512   0.538E-02    0.213E-02
DAV:  12    -0.669293694253E+03   -0.74579E-04   -0.35721E-05 28008   0.331E-02    0.202E-02
DAV:  13    -0.669293728500E+03   -0.34247E-04   -0.18835E-05 23916   0.145E-02    0.198E-02
DAV:  14    -0.669293749897E+03   -0.21397E-04   -0.25753E-06 18720   0.893E-03    0.184E-02
DAV:  15    -0.669294085499E+03   -0.33560E-03   -0.37263E-05 28536   0.138E-01    0.143E-02
DAV:  16    -0.669294247846E+03   -0.16235E-03   -0.72886E-05 39312   0.612E-02    0.129E-02
DAV:  17    -0.669294341824E+03   -0.93979E-04   -0.18038E-05 23232   0.361E-02    0.114E-02
DAV:  18    -0.669294446603E+03   -0.10478E-03   -0.95228E-06 20376   0.409E-02    0.102E-02
DAV:  19    -0.669294641583E+03   -0.19498E-03   -0.26779E-05 28788   0.826E-02    0.890E-03
DAV:  20    -0.669294680901E+03   -0.39318E-04   -0.69138E-05 31992   0.259E-02    0.928E-03
DAV:  21    -0.669294730390E+03   -0.49490E-04   -0.18508E-06 18024   0.216E-02    0.724E-03
DAV:  22    -0.669294783937E+03   -0.53547E-04   -0.59888E-06 20460   0.380E-02    0.555E-03
DAV:  23    -0.669294849643E+03   -0.65706E-04   -0.14283E-05 22548   0.474E-02    0.543E-03
DAV:  24    -0.669294848735E+03    0.90784E-06   -0.28503E-05 27756   0.169E-02
  44 F= -.66929485E+03 E0= -.66929485E+03  d E =0.123301E+00  mag=     2.0000
       N       E                     dE             d eps       ncg     rms          rms(c)
DAV:   1    -0.669122533224E+03    0.17232E+00   -0.29468E+00 49548   0.265E+01    0.131E+00
DAV:   2    -0.669343197330E+03   -0.22066E+00   -0.22549E+00 38796   0.300E+00    0.764E-01
DAV:   3    -0.669346515579E+03   -0.33182E-02   -0.47614E-02 37476   0.933E-01    0.541E-01
DAV:   4    -0.669345923676E+03    0.59190E-03   -0.57352E-03 37452   0.591E-01    0.397E-01
DAV:   5    -0.669346263034E+03   -0.33936E-03   -0.36166E-03 39048   0.421E-01    0.185E-01
DAV:   6    -0.669345672258E+03    0.59078E-03   -0.17384E-03 38892   0.260E-01    0.107E-01
DAV:   7    -0.669345661163E+03    0.11095E-04   -0.52374E-04 38016   0.151E-01    0.532E-02
DAV:   8    -0.669345561566E+03    0.99597E-04   -0.18253E-04 37164   0.625E-02    0.296E-02
DAV:   9    -0.669345438236E+03    0.12333E-03   -0.31513E-05 31104   0.310E-02    0.191E-02
DAV:  10    -0.669345325349E+03    0.11289E-03   -0.65910E-06 20988   0.229E-02    0.130E-02
DAV:  11    -0.669345187550E+03    0.13780E-03   -0.55969E-06 20088   0.213E-02    0.884E-03
DAV:  12    -0.669345110372E+03    0.77177E-04   -0.70934E-06 18924   0.124E-02    0.886E-03
DAV:  13    -0.669345085546E+03    0.24826E-04   -0.38610E-06 18348   0.565E-03    0.760E-03
DAV:  14    -0.669344976197E+03    0.10935E-03   -0.50525E-07 18240   0.164E-02    0.635E-03
DAV:  15    -0.669344695539E+03    0.28066E-03   -0.47816E-06 21024   0.405E-02    0.541E-03
DAV:  16    -0.669344459639E+03    0.23590E-03   -0.74096E-06 20052   0.335E-02    0.522E-03
DAV:  17    -0.669344371713E+03    0.87926E-04   -0.12429E-05 21780   0.131E-02    0.524E-03
DAV:  18    -0.669344309468E+03    0.62246E-04   -0.28208E-06 17964   0.767E-03    0.476E-03
DAV:  19    -0.669344192581E+03    0.11689E-03   -0.45965E-07 17928   0.150E-02    0.371E-03
DAV:  20    -0.669344161379E+03    0.31201E-04   -0.22321E-06 18144   0.559E-03    0.228E-03
DAV:  21    -0.669344065887E+03    0.95493E-04   -0.27505E-07 17856   0.127E-02    0.163E-03
DAV:  22    -0.669344066591E+03   -0.70443E-06   -0.12408E-06 17856   0.333E-03
  45 F= -.66934407E+03 E0= -.66934407E+03  d E =-.492179E-01  mag=     2.0000
       N       E                     dE             d eps       ncg     rms          rms(c)
DAV:   1    -0.669300595740E+03    0.43470E-01   -0.41209E-01 44964   0.619E+00    0.319E-01
DAV:   2    -0.669314450596E+03   -0.13855E-01   -0.14534E-01 37452   0.827E-01    0.193E-01
DAV:   3    -0.669314735399E+03   -0.28480E-03   -0.42619E-03 38148   0.302E-01    0.136E-01
DAV:   4    -0.669314620524E+03    0.11487E-03   -0.46549E-04 37644   0.169E-01    0.975E-02
DAV:   5    -0.669314747400E+03   -0.12688E-03   -0.19841E-04 38496   0.946E-02    0.528E-02
DAV:   6    -0.669314639581E+03    0.10782E-03   -0.12951E-04 36336   0.771E-02    0.283E-02
DAV:   7    -0.669314667519E+03   -0.27938E-04   -0.45530E-05 33528   0.416E-02    0.141E-02
DAV:   8    -0.669314671031E+03   -0.35125E-05   -0.12440E-05 19032   0.150E-02
  46 F= -.66931467E+03 E0= -.66931467E+03  d E =0.293956E-01  mag=     2.0000
       N       E                     dE             d eps       ncg     rms          rms(c)
DAV:   1    -0.668412444641E+03    0.90222E+00   -0.30671E+01 44352   0.406E+01    0.221E+00
DAV:   2    -0.669063291054E+03   -0.65085E+00   -0.68710E+00 37776   0.601E+00    0.132E+00
DAV:   3    -0.669066866339E+03   -0.35753E-02   -0.16775E-01 37056   0.192E+00    0.883E-01
DAV:   4    -0.669064849663E+03    0.20167E-02   -0.24720E-02 38928   0.115E+00    0.651E-01
DAV:   5    -0.669064281308E+03    0.56835E-03   -0.95281E-03 37332   0.663E-01    0.350E-01
DAV:   6    -0.669064392803E+03   -0.11149E-03   -0.62483E-03 38868   0.466E-01    0.187E-01
DAV:   7    -0.669064653549E+03   -0.26075E-03   -0.20981E-03 36864   0.270E-01    0.959E-02
DAV:   8    -0.669064814979E+03   -0.16143E-03   -0.51085E-04 36960   0.952E-02    0.628E-02
DAV:   9    -0.669064897125E+03   -0.82145E-04   -0.81736E-05 36228   0.524E-02    0.447E-02
DAV:  10    -0.669065185119E+03   -0.28799E-03   -0.47632E-05 32880   0.593E-02    0.317E-02
DAV:  11    -0.669065359877E+03   -0.17476E-03   -0.29647E-05 30564   0.436E-02    0.200E-02
DAV:  12    -0.669065479843E+03   -0.11997E-03   -0.15404E-05 20676   0.205E-02    0.184E-02
DAV:  13    -0.669065603271E+03   -0.12343E-03   -0.46334E-06 18720   0.179E-02    0.150E-02
DAV:  14    -0.669066078627E+03   -0.47536E-03   -0.56977E-06 21936   0.632E-02    0.885E-03
DAV:  15    -0.669066272336E+03   -0.19371E-03   -0.17678E-05 21816   0.282E-02    0.883E-03
DAV:  16    -0.669066334510E+03   -0.62174E-04   -0.17476E-05 23892   0.113E-02    0.869E-03
DAV:  17    -0.669066340921E+03   -0.64109E-05   -0.17242E-06 18720   0.377E-03
  47 F= -.66906634E+03 E0= -.66906634E+03  d E =0.248330E+00  mag=     2.0000
       N       E                     dE             d eps       ncg     rms          rms(c)
DAV:   1    -0.667935171020E+03    0.11312E+01   -0.32571E+01 44592   0.530E+01    0.278E+00
DAV:   2    -0.669001277765E+03   -0.10661E+01   -0.10940E+01 38448   0.719E+00    0.158E+00
DAV:   3    -0.669009216068E+03   -0.79383E-02   -0.20429E-01 37536   0.196E+00    0.111E+00
DAV:   4    -0.669007913406E+03    0.13027E-02   -0.28360E-02 37680   0.128E+00    0.840E-01
DAV:   5    -0.669007247157E+03    0.66625E-03   -0.14626E-02 38436   0.837E-01    0.375E-01
DAV:   6    -0.669007757865E+03   -0.51071E-03   -0.84330E-03 38160   0.566E-01    0.207E-01
DAV:   7    -0.669007868871E+03   -0.11101E-03   -0.24618E-03 36348   0.287E-01    0.113E-01
DAV:   8    -0.669008001805E+03   -0.13293E-03   -0.52478E-04 36348   0.106E-01    0.739E-02
DAV:   9    -0.669008061108E+03   -0.59303E-04   -0.78515E-05 36648   0.661E-02    0.503E-02
DAV:  10    -0.669008322895E+03   -0.26179E-03   -0.58284E-05 37608   0.742E-02    0.296E-02
DAV:  11    -0.669008385728E+03   -0.62833E-04   -0.51032E-05 32460   0.432E-02    0.255E-02
DAV:  12    -0.669008455521E+03   -0.69793E-04   -0.21314E-05 24816   0.222E-02    0.231E-02
DAV:  13    -0.669008544158E+03   -0.88638E-04   -0.25830E-06 18852   0.228E-02    0.188E-02
DAV:  14    -0.669008921636E+03   -0.37748E-03   -0.21596E-05 27096   0.110E-01    0.146E-02
DAV:  15    -0.669009160865E+03   -0.23923E-03   -0.66658E-05 37788   0.701E-02    0.128E-02
DAV:  16    -0.669009227439E+03   -0.66574E-04   -0.43720E-05 29892   0.209E-02    0.121E-02
DAV:  17    -0.669009301759E+03   -0.74320E-04   -0.13165E-06 18720   0.213E-02    0.102E-02
DAV:  18    -0.669009501800E+03   -0.20004E-03   -0.73467E-06 21072   0.597E-02    0.724E-03
DAV:  19    -0.669009626629E+03   -0.12483E-03   -0.15098E-05 21492   0.396E-02    0.633E-03
DAV:  20    -0.669009693010E+03   -0.66381E-04   -0.16988E-05 23472   0.209E-02    0.579E-03
DAV:  21    -0.669009745392E+03   -0.52382E-04   -0.44410E-06 19296   0.165E-02    0.499E-03
DAV:  22    -0.669009850617E+03   -0.10522E-03   -0.24050E-06 20652   0.385E-02    0.448E-03
DAV:  23    -0.669009817067E+03    0.33550E-04   -0.12153E-05 22668   0.143E-02    0.318E-03
DAV:  24    -0.669009803299E+03    0.13768E-04   -0.14351E-06 18720   0.406E-03    0.280E-03
DAV:  25    -0.669009816525E+03   -0.13225E-04   -0.44764E-07 18624   0.756E-03    0.244E-03
DAV:  26    -0.669009878213E+03   -0.61688E-04   -0.17646E-06 19440   0.260E-02    0.217E-03
DAV:  27    -0.669009885707E+03   -0.74937E-05   -0.21080E-06 19092   0.103E-02
  48 F= -.66900989E+03 E0= -.66900989E+03  d E =0.564552E-01  mag=     2.0000
       N       E                     dE             d eps       ncg     rms          rms(c)
DAV:   1    -0.667583344902E+03    0.14265E+01   -0.30150E+01 46176   0.638E+01    0.355E+00
DAV:   2    -0.669060622830E+03   -0.14773E+01   -0.14992E+01 38088   0.821E+00    0.210E+00
DAV:   3    -0.669084688129E+03   -0.24065E-01   -0.44735E-01 36084   0.297E+00    0.143E+00
DAV:   4    -0.669081376929E+03    0.33112E-02   -0.50148E-02 37836   0.162E+00    0.106E+00
DAV:   5    -0.669082119846E+03   -0.74292E-03   -0.22226E-02 38592   0.861E-01    0.474E-01
DAV:   6    -0.669081523729E+03    0.59612E-03   -0.10866E-02 39276   0.614E-01    0.267E-01
DAV:   7    -0.669081860267E+03   -0.33654E-03   -0.30633E-03 37200   0.323E-01    0.136E-01
DAV:   8    -0.669081938706E+03   -0.78440E-04   -0.80133E-04 36324   0.139E-01    0.874E-02
DAV:   9    -0.669081924700E+03    0.14006E-04   -0.16783E-04 36744   0.859E-02    0.581E-02
DAV:  10    -0.669082070411E+03   -0.14571E-03   -0.66167E-05 36636   0.683E-02    0.346E-02
DAV:  11    -0.669082186265E+03   -0.11585E-03   -0.40845E-05 32676   0.453E-02    0.248E-02
DAV:  12    -0.669082237495E+03   -0.51230E-04   -0.20358E-05 24204   0.255E-02    0.218E-02
DAV:  13    -0.669082293877E+03   -0.56382E-04   -0.55530E-06 18984   0.175E-02    0.190E-02
DAV:  14    -0.669082537352E+03   -0.24348E-03   -0.10095E-05 25008   0.724E-02    0.156E-02
DAV:  15    -0.669082739077E+03   -0.20173E-03   -0.35888E-05 30948   0.650E-02    0.143E-02
DAV:  16    -0.669082845738E+03   -0.10666E-03   -0.39350E-05 31620   0.334E-02    0.136E-02
DAV:  17    -0.669082949547E+03   -0.10381E-03   -0.52106E-06 20256   0.342E-02    0.120E-02
DAV:  18    -0.669083189463E+03   -0.23992E-03   -0.24379E-05 28236   0.868E-02    0.101E-02
DAV:  19    -0.669083281170E+03   -0.91708E-04   -0.59191E-05 36000   0.394E-02    0.859E-03
DAV:  20    -0.669083348167E+03   -0.66997E-04   -0.90351E-06 21504   0.271E-02    0.719E-03
DAV:  21    -0.669083413103E+03   -0.64937E-04   -0.61068E-06 21180   0.389E-02    0.645E-03
DAV:  22    -0.669083441890E+03   -0.28787E-04   -0.17881E-05 26856   0.343E-02    0.517E-03
DAV:  23    -0.669083426564E+03    0.15326E-04   -0.25050E-05 29064   0.132E-02    0.452E-03
DAV:  24    -0.669083411335E+03    0.15230E-04   -0.93969E-07 18888   0.337E-03    0.398E-03
DAV:  25    -0.669083385170E+03    0.26165E-04   -0.21971E-07 18432   0.515E-03    0.321E-03
DAV:  26    -0.669083365454E+03    0.19716E-04   -0.13925E-06 18804   0.169E-02    0.289E-03
DAV:  27    -0.669083336612E+03    0.28842E-04   -0.15939E-06 18792   0.738E-03    0.257E-03
DAV:  28    -0.669083306896E+03    0.29716E-04   -0.86968E-07 18288   0.693E-03    0.244E-03
DAV:  29    -0.669083240277E+03    0.66619E-04   -0.80573E-07 18552   0.960E-03    0.212E-03
DAV:  30    -0.669083198149E+03    0.42128E-04   -0.11376E-06 18552   0.712E-03    0.190E-03
DAV:  31    -0.669083142053E+03    0.56096E-04   -0.97390E-07 18540   0.754E-03    0.138E-03
DAV:  32    -0.669083104579E+03    0.37474E-04   -0.10025E-06 18444   0.557E-03    0.123E-03
DAV:  33    -0.669083076529E+03    0.28050E-04   -0.34842E-07 18072   0.711E-03    0.894E-04
DAV:  34    -0.669083061296E+03    0.15233E-04   -0.57859E-07 18036   0.323E-03    0.862E-04
DAV:  35    -0.669083047285E+03    0.14011E-04   -0.16285E-07 17904   0.214E-03    0.668E-04
DAV:  36    -0.669083040907E+03    0.63784E-05   -0.11757E-07 17892   0.114E-03
  49 F= -.66908304E+03 E0= -.66908304E+03  d E =-.731552E-01  mag=     2.0000
       N       E                     dE             d eps       ncg     rms          rms(c)
DAV:   1    -0.668919182624E+03    0.16386E+00   -0.27902E+00 48900   0.235E+01    0.118E+00
DAV:   2    -0.669105234139E+03   -0.18605E+00   -0.18863E+00 38568   0.271E+00    0.688E-01
DAV:   3    -0.669107167845E+03   -0.19337E-02   -0.36260E-02 37632   0.810E-01    0.497E-01
DAV:   4    -0.669107001225E+03    0.16662E-03   -0.47158E-03 37068   0.520E-01    0.368E-01
DAV:   5    -0.669106568060E+03    0.43317E-03   -0.30362E-03 39612   0.362E-01    0.166E-01
DAV:   6    -0.669106835288E+03   -0.26723E-03   -0.13858E-03 39192   0.244E-01    0.892E-02
DAV:   7    -0.669106723999E+03    0.11129E-03   -0.42869E-04 37848   0.135E-01    0.478E-02
DAV:   8    -0.669106701764E+03    0.22235E-04   -0.13256E-04 37488   0.567E-02    0.276E-02
DAV:   9    -0.669106672001E+03    0.29763E-04   -0.20093E-05 24660   0.306E-02    0.201E-02
DAV:  10    -0.669106636605E+03    0.35395E-04   -0.81909E-06 21312   0.307E-02    0.137E-02
DAV:  11    -0.669106579978E+03    0.56627E-04   -0.67258E-06 20520   0.229E-02    0.108E-02
DAV:  12    -0.669106561981E+03    0.17997E-04   -0.88861E-06 19392   0.120E-02    0.110E-02
DAV:  13    -0.669106561649E+03    0.33203E-06   -0.37979E-06 18756   0.548E-03
  50 F= -.66910656E+03 E0= -.66910656E+03  d E =-.235207E-01  mag=     2.0000
       N       E                     dE             d eps       ncg     rms          rms(c)
DAV:   1    -0.669065447899E+03    0.41114E-01   -0.23787E+00 45492   0.150E+01    0.738E-01
DAV:   2    -0.669143782559E+03   -0.78335E-01   -0.81395E-01 37668   0.195E+00    0.407E-01
DAV:   3    -0.669144460617E+03   -0.67806E-03   -0.14581E-02 36780   0.440E-01    0.285E-01
DAV:   4    -0.669144453543E+03    0.70747E-05   -0.19559E-03 38280   0.318E-01    0.219E-01
DAV:   5    -0.669144548054E+03   -0.94511E-04   -0.10351E-03 39852   0.252E-01    0.916E-02
DAV:   6    -0.669144631391E+03   -0.83337E-04   -0.57142E-04 38004   0.131E-01    0.549E-02
DAV:   7    -0.669144674948E+03   -0.43557E-04   -0.16296E-04 36948   0.743E-02    0.338E-02
DAV:   8    -0.669144715482E+03   -0.40534E-04   -0.37754E-05 29676   0.307E-02    0.222E-02
DAV:   9    -0.669144757759E+03   -0.42277E-04   -0.47017E-06 18720   0.206E-02    0.154E-02
DAV:  10    -0.669144864597E+03   -0.10684E-03   -0.45930E-06 19920   0.280E-02    0.101E-02
DAV:  11    -0.669144890226E+03   -0.25629E-04   -0.96652E-06 19308   0.140E-02    0.102E-02
DAV:  12    -0.669144900472E+03   -0.10246E-04   -0.48907E-06 18720   0.606E-03    0.887E-03
DAV:  13    -0.669144929947E+03   -0.29475E-04   -0.30817E-07 18720   0.848E-03    0.843E-03
DAV:  14    -0.669145045577E+03   -0.11563E-03   -0.34210E-06 20592   0.369E-02    0.812E-03
DAV:  15    -0.669145228686E+03   -0.18311E-03   -0.12150E-05 22656   0.575E-02    0.876E-03
DAV:  16    -0.669145288049E+03   -0.59363E-04   -0.19744E-05 24324   0.209E-02    0.880E-03
DAV:  17    -0.669145325952E+03   -0.37903E-04   -0.60287E-06 18960   0.117E-02    0.877E-03
DAV:  18    -0.669145348645E+03   -0.22693E-04   -0.32152E-06 18672   0.709E-03    0.799E-03
DAV:  19    -0.669145393843E+03   -0.45198E-04   -0.55456E-07 18624   0.185E-02    0.631E-03
DAV:  20    -0.669145447454E+03   -0.53611E-04   -0.26004E-06 20112   0.233E-02    0.448E-03
DAV:  21    -0.669145491786E+03   -0.44332E-04   -0.34225E-06 19632   0.201E-02    0.303E-03
DAV:  22    -0.669145487212E+03    0.45739E-05   -0.61910E-06 19212   0.669E-03
  51 F= -.66914549E+03 E0= -.66914549E+03  d E =-.389256E-01  mag=     2.0000
       N       E                     dE             d eps       ncg     rms          rms(c)
DAV:   1    -0.666920173566E+03    0.22253E+01   -0.96028E+01 45552   0.828E+01    0.441E+00
DAV:   2    -0.669411320380E+03   -0.24911E+01   -0.25908E+01 37416   0.114E+01    0.237E+00
DAV:   3    -0.669424887275E+03   -0.13567E-01   -0.49069E-01 36600   0.271E+00    0.162E+00
DAV:   4    -0.669421449885E+03    0.34374E-02   -0.71044E-02 38964   0.180E+00    0.127E+00
DAV:   5    -0.669417120307E+03    0.43296E-02   -0.29987E-02 38172   0.135E+00    0.609E-01
DAV:   6    -0.669416564774E+03    0.55553E-03   -0.19518E-02 38352   0.758E-01    0.298E-01
DAV:   7    -0.669416843681E+03   -0.27891E-03   -0.52834E-03 36372   0.381E-01    0.178E-01
DAV:   8    -0.669416699190E+03    0.14449E-03   -0.12976E-03 36324   0.170E-01    0.117E-01
DAV:   9    -0.669416387732E+03    0.31146E-03   -0.23930E-04 36828   0.108E-01    0.774E-02
DAV:  10    -0.669416307576E+03    0.80156E-04   -0.16294E-04 39900   0.100E-01    0.422E-02
DAV:  11    -0.669416154975E+03    0.15260E-03   -0.94440E-05 34680   0.579E-02    0.277E-02
DAV:  12    -0.669416099058E+03    0.55917E-04   -0.29001E-05 27792   0.270E-02    0.231E-02
DAV:  13    -0.669416027285E+03    0.71773E-04   -0.57818E-06 18720   0.211E-02    0.194E-02
DAV:  14    -0.669415727865E+03    0.29942E-03   -0.90840E-06 21900   0.766E-02    0.143E-02
DAV:  15    -0.669415500023E+03    0.22784E-03   -0.32981E-05 27600   0.605E-02    0.125E-02
DAV:  16    -0.669415432499E+03    0.67524E-04   -0.39325E-05 28272   0.219E-02    0.124E-02
DAV:  17    -0.669415401186E+03    0.31313E-04   -0.59197E-06 18984   0.860E-03    0.122E-02
DAV:  18    -0.669415378384E+03    0.22802E-04   -0.98049E-07 18720   0.620E-03    0.112E-02
DAV:  19    -0.669415182654E+03    0.19573E-03   -0.51793E-06 20592   0.568E-02    0.780E-03
DAV:  20    -0.669414990917E+03    0.19174E-03   -0.16987E-05 22584   0.561E-02    0.734E-03
DAV:  21    -0.669414938878E+03    0.52039E-04   -0.23588E-05 25812   0.181E-02    0.770E-03
DAV:  22    -0.669414929110E+03    0.97682E-05   -0.71235E-06 19320   0.674E-03
